Title t= 700.00000 step= 350000
42785
    1SAPS     N    1   4.368   3.981   6.731
    1SAPS   HN1    2   4.425   4.001   6.646
    1SAPS   HN2    3   4.267   3.988   6.707
    1SAPS   HN3    4   4.386   4.053   6.805
    1SAPS   C12    5   4.401   3.849   6.786
    1SAPS  H12A    6   4.508   3.842   6.769
    1SAPS   C13    7   4.372   3.821   6.937
    1SAPS  O13A    8   4.299   3.903   6.999
    1SAPS  O13B    9   4.416   3.716   6.998
    1SAPS   C11   10   4.337   3.735   6.694
    1SAPS  H11A   11   4.386   3.639   6.720
    1SAPS  H11B   12   4.369   3.742   6.587
    1SAPS     P   13   4.099   3.789   6.617
    1SAPS   O13   14   3.961   3.737   6.632
    1SAPS   O14   15   4.123   3.927   6.659
    1SAPS   O12   16   4.199   3.702   6.703
    1SAPS   O11   17   4.145   3.761   6.465
    1SAPS    C1   18   4.153   3.632   6.405
    1SAPS    HA   19   4.244   3.576   6.438
    1SAPS    HB   20   4.064   3.573   6.436
    1SAPS    C2   21   4.163   3.653   6.253
    1SAPS    HS   22   4.150   3.554   6.205
    1SAPS   O21   23   4.295   3.707   6.230
    1SAPS   C21   24   4.362   3.663   6.122
    1SAPS   O22   25   4.317   3.582   6.043
    1SAPS   C22   26   4.494   3.730   6.105
    1SAPS   H2R   27   4.479   3.837   6.131
    1SAPS   H2S   28   4.549   3.672   6.182
    1SAPS    C3   29   4.045   3.740   6.201
    1SAPS    HX   30   4.045   3.844   6.241
    1SAPS    HY   31   3.951   3.703   6.247
    1SAPS   O31   32   4.026   3.717   6.060
    1SAPS   C31   33   4.063   3.827   5.993
    1SAPS   O32   34   4.125   3.918   6.036
    1SAPS   C32   35   3.984   3.831   5.859
    1SAPS   H2X   36   3.892   3.888   5.884
    1SAPS   H2Y   37   3.964   3.727   5.827
    1SAPS   C23   38   4.569   3.733   5.972
    1SAPS   H3R   39   4.591   3.627   5.945
    1SAPS   H3S   40   4.667   3.784   5.977
    1SAPS   C24   41   4.478   3.793   5.859
    1SAPS   H4R   42   4.396   3.723   5.832
    1SAPS   H4S   43   4.550   3.786   5.775
    1SAPS   C25   44   4.427   3.934   5.883
    1SAPS   H5R   45   4.387   3.952   5.984
    1SAPS   C26   46   4.429   4.035   5.799
    1SAPS   H6R   47   4.393   4.133   5.831
    1SAPS   C27   48   4.475   4.039   5.655
    1SAPS   H7R   49   4.388   4.039   5.586
    1SAPS   H7S   50   4.528   3.944   5.633
    1SAPS   C28   51   4.562   4.162   5.632
    1SAPS   H8R   52   4.626   4.197   5.715
    1SAPS   C29   53   4.548   4.244   5.528
    1SAPS   H9R   54   4.609   4.336   5.526
    1SAPS  C210   55   4.460   4.221   5.411
    1SAPS  H10R   56   4.453   4.317   5.356
    1SAPS  H10S   57   4.358   4.189   5.442
    1SAPS  C211   58   4.524   4.135   5.305
    1SAPS  H11R   59   4.552   4.035   5.340
    1SAPS  C212   60   4.569   4.171   5.180
    1SAPS  H12R   61   4.608   4.086   5.122
    1SAPS  C213   62   4.562   4.307   5.117
    1SAPS  H13R   63   4.639   4.377   5.158
    1SAPS  H13S   64   4.461   4.350   5.136
    1SAPS  C214   65   4.579   4.306   4.968
    1SAPS  H14R   66   4.484   4.327   4.917
    1SAPS  C215   67   4.693   4.276   4.902
    1SAPS  H15R   68   4.703   4.281   4.792
    1SAPS  C216   69   4.825   4.271   4.971
    1SAPS  H16R   70   4.815   4.232   5.075
    1SAPS  H16S   71   4.867   4.373   4.985
    1SAPS  C217   72   4.932   4.199   4.886
    1SAPS  H17R   73   4.918   4.092   4.861
    1SAPS  H17S   74   5.011   4.203   4.964
    1SAPS  C218   75   4.979   4.289   4.762
    1SAPS  H18R   76   4.939   4.392   4.767
    1SAPS  H18S   77   4.923   4.245   4.677
    1SAPS  C219   78   5.124   4.276   4.739
    1SAPS  H19R   79   5.170   4.277   4.840
    1SAPS  H19S   80   5.167   4.363   4.686
    1SAPS  C220   81   5.161   4.153   4.656
    1SAPS  H20R   82   5.271   4.138   4.657
    1SAPS  H20S   83   5.119   4.152   4.554
    1SAPS  H20T   84   5.138   4.056   4.706
    1SAPS   C33   85   4.056   3.913   5.743
    1SAPS   H3X   86   4.153   3.863   5.724
    1SAPS   H3Y   87   4.076   4.018   5.772
    1SAPS   C34   88   3.973   3.914   5.617
    1SAPS   H4X   89   3.888   3.985   5.628
    1SAPS   H4Y   90   3.929   3.815   5.592
    1SAPS   C35   91   4.053   3.968   5.500
    1SAPS   H5X   92   4.147   3.908   5.500
    1SAPS   H5Y   93   4.086   4.069   5.532
    1SAPS   C36   94   3.996   3.975   5.354
    1SAPS   H6X   95   3.916   4.052   5.360
    1SAPS   H6Y   96   3.947   3.887   5.307
    1SAPS   C37   97   4.105   4.019   5.254
    1SAPS   H7X   98   4.197   3.963   5.282
    1SAPS   H7Y   99   4.128   4.126   5.271
    1SAPS   C38  100   4.071   3.992   5.108
    1SAPS   H8X  101   4.019   3.896   5.088
    1SAPS   H8Y  102   4.169   3.982   5.057
    1SAPS   C39  103   4.003   4.103   5.031
    1SAPS   H9X  104   4.055   4.200   5.051
    1SAPS   H9Y  105   3.901   4.115   5.072
    1SAPS  C310  106   4.014   4.080   4.881
    1SAPS  H10X  107   3.952   3.994   4.847
    1SAPS  H10Y  108   4.121   4.063   4.857
    1SAPS  C311  109   3.959   4.190   4.793
    1SAPS  H11X  110   4.003   4.291   4.809
    1SAPS  H11Y  111   3.850   4.193   4.815
    1SAPS  C312  112   3.993   4.157   4.653
    1SAPS  H12X  113   3.918   4.214   4.593
    1SAPS  H12Y  114   3.987   4.048   4.637
    1SAPS  C313  115   4.144   4.189   4.619
    1SAPS  H13X  116   4.208   4.166   4.706
    1SAPS  H13Y  117   4.152   4.299   4.610
    1SAPS  C314  118   4.178   4.126   4.484
    1SAPS  H14X  119   4.096   4.154   4.414
    1SAPS  H14Y  120   4.166   4.017   4.502
    1SAPS  C315  121   4.321   4.161   4.436
    1SAPS  H15X  122   4.408   4.123   4.493
    1SAPS  H15Y  123   4.323   4.272   4.424
    1SAPS  C316  124   4.352   4.107   4.293
    1SAPS  H16X  125   4.460   4.130   4.277
    1SAPS  H16Y  126   4.286   4.157   4.219
    1SAPS  C317  127   4.336   3.954   4.283
    1SAPS  H17X  128   4.329   3.932   4.174
    1SAPS  H17Y  129   4.237   3.923   4.323
    1SAPS  C318  130   4.455   3.869   4.342
    1SAPS  H18X  131   4.466   3.885   4.451
    1SAPS  H18Y  132   4.554   3.882   4.293
    1SAPS  H18Z  133   4.426   3.762   4.334
    2SAPS     N  134   4.518   6.494   6.958
    2SAPS   HN1  135   4.611   6.448   6.951
    2SAPS   HN2  136   4.529   6.588   6.915
    2SAPS   HN3  137   4.502   6.502   7.061
    2SAPS   C12  138   4.417   6.410   6.893
    2SAPS  H12A  139   4.399   6.322   6.953
    2SAPS   C13  140   4.286   6.478   6.868
    2SAPS  O13A  141   4.258   6.598   6.885
    2SAPS  O13B  142   4.192   6.402   6.822
    2SAPS   C11  143   4.473   6.346   6.763
    2SAPS  H11A  144   4.499   6.426   6.690
    2SAPS  H11B  145   4.386   6.295   6.718
    2SAPS     P  146   4.660   6.217   6.662
    2SAPS   O13  147   4.753   6.332   6.638
    2SAPS   O14  148   4.720   6.081   6.662
    2SAPS   O12  149   4.590   6.257   6.796
    2SAPS   O11  150   4.540   6.229   6.558
    2SAPS    C1  151   4.473   6.112   6.508
    2SAPS    HA  152   4.537   6.021   6.498
    2SAPS    HB  153   4.395   6.077   6.578
    2SAPS    C2  154   4.389   6.127   6.379
    2SAPS    HS  155   4.351   6.029   6.343
    2SAPS   O21  156   4.478   6.175   6.277
    2SAPS   C21  157   4.568   6.105   6.231
    2SAPS   O22  158   4.586   5.982   6.239
    2SAPS   C22  159   4.664   6.208   6.165
    2SAPS   H2R  160   4.604   6.277   6.102
    2SAPS   H2S  161   4.712   6.275   6.240
    2SAPS    C3  162   4.281   6.234   6.390
    2SAPS    HX  163   4.329   6.322   6.438
    2SAPS    HY  164   4.200   6.202   6.459
    2SAPS   O31  165   4.234   6.277   6.262
    2SAPS   C31  166   4.142   6.206   6.208
    2SAPS   O32  167   4.104   6.100   6.250
    2SAPS   C32  168   4.081   6.276   6.087
    2SAPS   H2X  169   4.150   6.351   6.042
    2SAPS   H2Y  170   3.985   6.325   6.112
    2SAPS   C23  171   4.771   6.134   6.081
    2SAPS   H3R  172   4.817   6.064   6.154
    2SAPS   H3S  173   4.846   6.214   6.062
    2SAPS   C24  174   4.727   6.076   5.943
    2SAPS   H4R  175   4.672   6.150   5.881
    2SAPS   H4S  176   4.650   6.008   5.984
    2SAPS   C25  177   4.839   6.018   5.870
    2SAPS   H5R  178   4.908   5.964   5.938
    2SAPS   C26  179   4.865   6.025   5.737
    2SAPS   H6R  180   4.956   5.979   5.695
    2SAPS   C27  181   4.787   6.087   5.629
    2SAPS   H7R  182   4.849   6.105   5.538
    2SAPS   H7S  183   4.759   6.191   5.658
    2SAPS   C28  184   4.668   5.992   5.592
    2SAPS   H8R  185   4.621   5.930   5.671
    2SAPS   C29  186   4.617   5.987   5.468
    2SAPS   H9R  187   4.541   5.913   5.439
    2SAPS  C210  188   4.653   6.059   5.337
    2SAPS  H10R  189   4.723   6.142   5.359
    2SAPS  H10S  190   4.563   6.116   5.305
    2SAPS  C211  191   4.707   5.970   5.225
    2SAPS  H11R  192   4.649   5.877   5.213
    2SAPS  C212  193   4.800   5.997   5.125
    2SAPS  H12R  194   4.790   5.929   5.040
    2SAPS  C213  195   4.880   6.119   5.099
    2SAPS  H13R  196   4.899   6.164   5.199
    2SAPS  H13S  197   4.827   6.186   5.027
    2SAPS  C214  198   5.018   6.082   5.046
    2SAPS  H14R  199   5.063   5.986   5.075
    2SAPS  C215  200   5.103   6.166   4.978
    2SAPS  H15R  201   5.201   6.120   4.959
    2SAPS  C216  202   5.087   6.312   4.938
    2SAPS  H16R  203   5.176   6.366   4.976
    2SAPS  H16S  204   5.000   6.349   4.996
    2SAPS  C217  205   5.072   6.328   4.780
    2SAPS  H17R  206   4.964   6.320   4.757
    2SAPS  H17S  207   5.126   6.256   4.715
    2SAPS  C218  208   5.107   6.470   4.722
    2SAPS  H18R  209   5.216   6.492   4.720
    2SAPS  H18S  210   5.061   6.545   4.790
    2SAPS  C219  211   5.053   6.489   4.583
    2SAPS  H19R  212   5.064   6.595   4.552
    2SAPS  H19S  213   4.947   6.459   4.571
    2SAPS  C220  214   5.118   6.410   4.478
    2SAPS  H20R  215   5.093   6.444   4.375
    2SAPS  H20S  216   5.075   6.308   4.485
    2SAPS  H20T  217   5.228   6.398   4.486
    2SAPS   C33  218   4.076   6.172   5.975
    2SAPS   H3X  219   4.001   6.094   6.000
    2SAPS   H3Y  220   4.172   6.119   5.963
    2SAPS   C34  221   4.043   6.243   5.840
    2SAPS   H4X  222   4.127   6.310   5.809
    2SAPS   H4Y  223   3.957   6.311   5.858
    2SAPS   C35  224   4.017   6.137   5.730
    2SAPS   H5X  225   3.928   6.088   5.773
    2SAPS   H5Y  226   4.105   6.069   5.720
    2SAPS   C36  227   3.998   6.190   5.586
    2SAPS   H6X  228   3.974   6.298   5.592
    2SAPS   H6Y  229   3.914   6.140   5.533
    2SAPS   C37  230   4.132   6.190   5.499
    2SAPS   H7X  231   4.181   6.090   5.505
    2SAPS   H7Y  232   4.193   6.271   5.545
    2SAPS   C38  233   4.109   6.226   5.352
    2SAPS   H8X  234   4.037   6.310   5.357
    2SAPS   H8Y  235   4.054   6.145   5.300
    2SAPS   C39  236   4.240   6.278   5.296
    2SAPS   H9X  237   4.311   6.195   5.273
    2SAPS   H9Y  238   4.293   6.347   5.365
    2SAPS  C310  239   4.224   6.340   5.156
    2SAPS  H10X  240   4.177   6.441   5.160
    2SAPS  H10Y  241   4.162   6.273   5.093
    2SAPS  C311  242   4.365   6.367   5.090
    2SAPS  H11X  243   4.419   6.270   5.078
    2SAPS  H11Y  244   4.422   6.436   5.155
    2SAPS  C312  245   4.343   6.427   4.947
    2SAPS  H12X  246   4.299   6.528   4.964
    2SAPS  H12Y  247   4.271   6.369   4.886
    2SAPS  C313  248   4.473   6.440   4.869
    2SAPS  H13X  249   4.540   6.501   4.933
    2SAPS  H13Y  250   4.453   6.488   4.771
    2SAPS  C314  251   4.556   6.304   4.853
    2SAPS  H14X  252   4.594   6.273   4.953
    2SAPS  H14Y  253   4.648   6.323   4.794
    2SAPS  C315  254   4.483   6.199   4.775
    2SAPS  H15X  255   4.466   6.245   4.676
    2SAPS  H15Y  256   4.389   6.156   4.817
    2SAPS  C316  257   4.559   6.069   4.756
    2SAPS  H16X  258   4.495   5.994   4.706
    2SAPS  H16Y  259   4.588   6.025   4.855
    2SAPS  C317  260   4.688   6.074   4.665
    2SAPS  H17X  261   4.764   6.150   4.694
    2SAPS  H17Y  262   4.663   6.112   4.563
    2SAPS  C318  263   4.754   5.942   4.640
    2SAPS  H18X  264   4.687   5.875   4.583
    2SAPS  H18Y  265   4.788   5.893   4.734
    2SAPS  H18Z  266   4.845   5.954   4.578
    3SAPS     N  267   4.542   4.533   6.832
    3SAPS   HN1  268   4.451   4.578   6.812
    3SAPS   HN2  269   4.575   4.561   6.927
    3SAPS   HN3  270   4.614   4.582   6.774
    3SAPS   C12  271   4.547   4.387   6.816
    3SAPS  H12A  272   4.649   4.358   6.838
    3SAPS   C13  273   4.444   4.318   6.910
    3SAPS  O13A  274   4.361   4.380   6.983
    3SAPS  O13B  275   4.440   4.189   6.898
    3SAPS   C11  276   4.524   4.369   6.666
    3SAPS  H11A  277   4.609   4.414   6.611
    3SAPS  H11B  278   4.427   4.411   6.631
    3SAPS     P  279   4.653   4.156   6.597
    3SAPS   O13  280   4.771   4.238   6.637
    3SAPS   O14  281   4.641   4.021   6.648
    3SAPS   O12  282   4.522   4.231   6.640
    3SAPS   O11  283   4.640   4.153   6.446
    3SAPS    C1  284   4.565   4.243   6.364
    3SAPS    HA  285   4.495   4.181   6.304
    3SAPS    HB  286   4.488   4.302   6.417
    3SAPS    C2  287   4.666   4.330   6.275
    3SAPS    HS  288   4.604   4.370   6.192
    3SAPS   O21  289   4.767   4.246   6.213
    3SAPS   C21  290   4.719   4.162   6.129
    3SAPS   O22  291   4.606   4.160   6.086
    3SAPS   C22  292   4.828   4.067   6.085
    3SAPS   H2R  293   4.928   4.088   6.129
    3SAPS   H2S  294   4.802   3.964   6.119
    3SAPS    C3  295   4.738   4.450   6.348
    3SAPS    HX  296   4.811   4.405   6.418
    3SAPS    HY  297   4.660   4.503   6.406
    3SAPS   O31  298   4.810   4.539   6.262
    3SAPS   C31  299   4.819   4.670   6.307
    3SAPS   O32  300   4.770   4.714   6.410
    3SAPS   C32  301   4.893   4.755   6.206
    3SAPS   H2X  302   4.992   4.706   6.203
    3SAPS   H2Y  303   4.899   4.858   6.247
    3SAPS   C23  304   4.840   4.073   5.924
    3SAPS   H3R  305   4.744   4.080   5.868
    3SAPS   H3S  306   4.881   3.973   5.898
    3SAPS   C24  307   4.939   4.187   5.886
    3SAPS   H4R  308   4.987   4.169   5.788
    3SAPS   H4S  309   5.025   4.187   5.956
    3SAPS   C25  310   4.880   4.324   5.895
    3SAPS   H5R  311   4.851   4.354   5.997
    3SAPS   C26  312   4.867   4.413   5.790
    3SAPS   H6R  313   4.839   4.516   5.817
    3SAPS   C27  314   4.910   4.388   5.645
    3SAPS   H7R  315   4.831   4.423   5.575
    3SAPS   H7S  316   4.923   4.279   5.627
    3SAPS   C28  317   5.045   4.453   5.620
    3SAPS   H8R  318   5.098   4.513   5.696
    3SAPS   C29  319   5.097   4.434   5.495
    3SAPS   H9R  320   5.195   4.482   5.484
    3SAPS  C210  321   5.044   4.372   5.373
    3SAPS  H10R  322   5.065   4.436   5.285
    3SAPS  H10S  323   4.934   4.369   5.385
    3SAPS  C211  324   5.093   4.225   5.360
    3SAPS  H11R  325   5.203   4.211   5.361
    3SAPS  C212  326   5.026   4.108   5.361
    3SAPS  H12R  327   5.086   4.016   5.368
    3SAPS  C213  328   4.871   4.087   5.359
    3SAPS  H13R  329   4.832   4.179   5.311
    3SAPS  H13S  330   4.833   4.079   5.463
    3SAPS  C214  331   4.833   3.969   5.281
    3SAPS  H14R  332   4.826   3.982   5.172
    3SAPS  C215  333   4.784   3.847   5.325
    3SAPS  H15R  334   4.754   3.773   5.250
    3SAPS  C216  335   4.782   3.807   5.471
    3SAPS  H16R  336   4.675   3.798   5.502
    3SAPS  H16S  337   4.842   3.867   5.543
    3SAPS  C217  338   4.825   3.661   5.490
    3SAPS  H17R  339   4.920   3.630   5.442
    3SAPS  H17S  340   4.754   3.582   5.455
    3SAPS  C218  341   4.872   3.648   5.637
    3SAPS  H18R  342   4.794   3.681   5.710
    3SAPS  H18S  343   4.955   3.718   5.661
    3SAPS  C219  344   4.906   3.509   5.679
    3SAPS  H19R  345   4.819   3.443   5.657
    3SAPS  H19S  346   4.994   3.472   5.622
    3SAPS  C220  347   4.957   3.497   5.823
    3SAPS  H20R  348   4.875   3.524   5.892
    3SAPS  H20S  349   5.045   3.564   5.831
    3SAPS  H20T  350   4.980   3.391   5.848
    3SAPS   C33  351   4.824   4.762   6.076
    3SAPS   H3X  352   4.720   4.797   6.091
    3SAPS   H3Y  353   4.831   4.659   6.035
    3SAPS   C34  354   4.902   4.851   5.978
    3SAPS   H4X  355   5.001   4.807   5.954
    3SAPS   H4Y  356   4.931   4.944   6.031
    3SAPS   C35  357   4.816   4.889   5.858
    3SAPS   H5X  358   4.709   4.901   5.887
    3SAPS   H5Y  359   4.844   4.994   5.833
    3SAPS   C36  360   4.810   4.807   5.729
    3SAPS   H6X  361   4.731   4.850   5.664
    3SAPS   H6Y  362   4.780   4.704   5.758
    3SAPS   C37  363   4.955   4.808   5.665
    3SAPS   H7X  364   5.000   4.717   5.711
    3SAPS   H7Y  365   5.034   4.883   5.689
    3SAPS   C38  366   4.929   4.788   5.512
    3SAPS   H8X  367   4.867   4.869   5.468
    3SAPS   H8Y  368   4.880   4.689   5.500
    3SAPS   C39  369   5.061   4.793   5.430
    3SAPS   H9X  370   5.132   4.714   5.461
    3SAPS   H9Y  371   5.116   4.886   5.454
    3SAPS  C310  372   5.015   4.788   5.285
    3SAPS  H10X  373   4.923   4.848   5.266
    3SAPS  H10Y  374   5.006   4.680   5.260
    3SAPS  C311  375   5.113   4.854   5.191
    3SAPS  H11X  376   5.215   4.833   5.230
    3SAPS  H11Y  377   5.106   4.964   5.202
    3SAPS  C312  378   5.096   4.812   5.046
    3SAPS  H12X  379   5.000   4.850   5.005
    3SAPS  H12Y  380   5.090   4.701   5.041
    3SAPS  C313  381   5.211   4.839   4.951
    3SAPS  H13X  382   5.302   4.785   4.985
    3SAPS  H13Y  383   5.243   4.946   4.948
    3SAPS  C314  384   5.191   4.792   4.803
    3SAPS  H14X  385   5.122   4.706   4.814
    3SAPS  H14Y  386   5.290   4.771   4.757
    3SAPS  C315  387   5.113   4.898   4.719
    3SAPS  H15X  388   5.169   4.993   4.731
    3SAPS  H15Y  389   5.005   4.905   4.747
    3SAPS  C316  390   5.106   4.858   4.574
    3SAPS  H16X  391   5.066   4.754   4.572
    3SAPS  H16Y  392   5.205   4.860   4.524
    3SAPS  C317  393   5.006   4.941   4.489
    3SAPS  H17X  394   5.056   5.037   4.462
    3SAPS  H17Y  395   4.914   4.961   4.548
    3SAPS  C318  396   4.967   4.865   4.362
    3SAPS  H18X  397   4.889   4.932   4.319
    3SAPS  H18Y  398   4.922   4.768   4.393
    3SAPS  H18Z  399   5.045   4.833   4.290
    4SAPS     N  400   1.891   2.513   6.939
    4SAPS   HN1  401   1.914   2.543   6.843
    4SAPS   HN2  402   1.967   2.542   7.004
    4SAPS   HN3  403   1.884   2.409   6.946
    4SAPS   C12  404   1.779   2.589   7.002
    4SAPS  H12A  405   1.703   2.572   6.928
    4SAPS   C13  406   1.718   2.537   7.136
    4SAPS  O13A  407   1.748   2.422   7.184
    4SAPS  O13B  408   1.613   2.601   7.174
    4SAPS   C11  409   1.824   2.733   7.022
    4SAPS  H11A  410   1.872   2.750   7.120
    4SAPS  H11B  411   1.724   2.782   7.027
    4SAPS     P  412   1.901   2.924   6.846
    4SAPS   O13  413   1.874   3.023   6.953
    4SAPS   O14  414   2.022   2.939   6.759
    4SAPS   O12  415   1.903   2.777   6.914
    4SAPS   O11  416   1.778   2.908   6.755
    4SAPS    C1  417   1.729   2.787   6.695
    4SAPS    HA  418   1.800   2.704   6.711
    4SAPS    HB  419   1.629   2.752   6.730
    4SAPS    C2  420   1.696   2.814   6.541
    4SAPS    HS  421   1.677   2.715   6.495
    4SAPS   O21  422   1.804   2.885   6.477
    4SAPS   C21  423   1.919   2.821   6.444
    4SAPS   O22  424   1.941   2.707   6.486
    4SAPS   C22  425   2.021   2.904   6.370
    4SAPS   H2R  426   2.083   2.968   6.437
    4SAPS   H2S  427   2.088   2.825   6.330
    4SAPS    C3  428   1.563   2.897   6.529
    4SAPS    HX  429   1.576   2.993   6.584
    4SAPS    HY  430   1.473   2.857   6.582
    4SAPS   O31  431   1.532   2.934   6.387
    4SAPS   C31  432   1.489   2.837   6.310
    4SAPS   O32  433   1.477   2.720   6.350
    4SAPS   C32  434   1.466   2.905   6.178
    4SAPS   H2X  435   1.560   2.950   6.141
    4SAPS   H2Y  436   1.384   2.976   6.204
    4SAPS   C23  437   1.978   2.994   6.247
    4SAPS   H3R  438   2.077   3.033   6.215
    4SAPS   H3S  439   1.918   3.072   6.298
    4SAPS   C24  440   1.926   2.930   6.119
    4SAPS   H4R  441   1.843   2.862   6.149
    4SAPS   H4S  442   1.998   2.863   6.069
    4SAPS   C25  443   1.868   3.030   6.024
    4SAPS   H5R  444   1.824   3.110   6.086
    4SAPS   C26  445   1.859   3.028   5.893
    4SAPS   H6R  446   1.826   3.118   5.840
    4SAPS   C27  447   1.899   2.916   5.806
    4SAPS   H7R  448   1.809   2.869   5.761
    4SAPS   H7S  449   1.962   2.849   5.870
    4SAPS   C28  450   2.002   2.944   5.693
    4SAPS   H8R  451   2.103   2.964   5.731
    4SAPS   C29  452   1.981   2.944   5.558
    4SAPS   H9R  453   2.063   2.968   5.489
    4SAPS  C210  454   1.858   2.911   5.486
    4SAPS  H10R  455   1.767   2.892   5.547
    4SAPS  H10S  456   1.873   2.815   5.432
    4SAPS  C211  457   1.818   3.017   5.386
    4SAPS  H11R  458   1.777   3.110   5.428
    4SAPS  C212  459   1.845   3.029   5.253
    4SAPS  H12R  460   1.815   3.112   5.186
    4SAPS  C213  461   1.915   2.924   5.171
    4SAPS  H13R  462   1.899   2.955   5.066
    4SAPS  H13S  463   1.839   2.842   5.169
    4SAPS  C214  464   2.058   2.882   5.202
    4SAPS  H14R  465   2.078   2.881   5.311
    4SAPS  C215  466   2.141   2.847   5.101
    4SAPS  H15R  467   2.248   2.836   5.122
    4SAPS  C216  468   2.109   2.833   4.951
    4SAPS  H16R  469   2.195   2.848   4.882
    4SAPS  H16S  470   2.039   2.916   4.929
    4SAPS  C217  471   2.059   2.689   4.925
    4SAPS  H17R  472   2.006   2.650   5.015
    4SAPS  H17S  473   2.154   2.632   4.924
    4SAPS  C218  474   1.968   2.673   4.805
    4SAPS  H18R  475   1.864   2.707   4.821
    4SAPS  H18S  476   1.959   2.562   4.802
    4SAPS  C219  477   2.031   2.713   4.670
    4SAPS  H19R  478   2.026   2.823   4.653
    4SAPS  H19S  479   1.969   2.659   4.594
    4SAPS  C220  480   2.176   2.660   4.628
    4SAPS  H20R  481   2.202   2.709   4.532
    4SAPS  H20S  482   2.183   2.550   4.616
    4SAPS  H20T  483   2.254   2.691   4.700
    4SAPS   C33  484   1.420   2.794   6.081
    4SAPS   H3X  485   1.326   2.745   6.113
    4SAPS   H3Y  486   1.507   2.724   6.090
    4SAPS   C34  487   1.420   2.851   5.938
    4SAPS   H4X  488   1.511   2.909   5.915
    4SAPS   H4Y  489   1.335   2.923   5.937
    4SAPS   C35  490   1.394   2.744   5.832
    4SAPS   H5X  491   1.286   2.718   5.824
    4SAPS   H5Y  492   1.437   2.648   5.868
    4SAPS   C36  493   1.439   2.780   5.685
    4SAPS   H6X  494   1.543   2.818   5.698
    4SAPS   H6Y  495   1.384   2.861   5.633
    4SAPS   C37  496   1.435   2.659   5.584
    4SAPS   H7X  497   1.332   2.622   5.597
    4SAPS   H7Y  498   1.503   2.579   5.620
    4SAPS   C38  499   1.475   2.702   5.443
    4SAPS   H8X  500   1.582   2.733   5.439
    4SAPS   H8Y  501   1.420   2.791   5.407
    4SAPS   C39  502   1.476   2.589   5.333
    4SAPS   H9X  503   1.374   2.566   5.296
    4SAPS   H9Y  504   1.513   2.493   5.374
    4SAPS  C310  505   1.563   2.620   5.209
    4SAPS  H10X  506   1.664   2.653   5.239
    4SAPS  H10Y  507   1.523   2.704   5.147
    4SAPS  C311  508   1.580   2.495   5.123
    4SAPS  H11X  509   1.479   2.460   5.094
    4SAPS  H11Y  510   1.634   2.416   5.180
    4SAPS  C312  511   1.659   2.523   4.989
    4SAPS  H12X  512   1.767   2.511   5.013
    4SAPS  H12Y  513   1.653   2.624   4.944
    4SAPS  C313  514   1.614   2.430   4.875
    4SAPS  H13X  515   1.515   2.468   4.842
    4SAPS  H13Y  516   1.613   2.324   4.908
    4SAPS  C314  517   1.712   2.428   4.752
    4SAPS  H14X  518   1.803   2.368   4.776
    4SAPS  H14Y  519   1.748   2.528   4.721
    4SAPS  C315  520   1.646   2.370   4.625
    4SAPS  H15X  521   1.715   2.371   4.539
    4SAPS  H15Y  522   1.550   2.426   4.623
    4SAPS  C316  523   1.613   2.220   4.622
    4SAPS  H16X  524   1.531   2.203   4.695
    4SAPS  H16Y  525   1.709   2.172   4.651
    4SAPS  C317  526   1.566   2.162   4.480
    4SAPS  H17X  527   1.644   2.172   4.401
    4SAPS  H17Y  528   1.481   2.223   4.444
    4SAPS  C318  529   1.524   2.014   4.481
    4SAPS  H18X  530   1.471   1.996   4.385
    4SAPS  H18Y  531   1.460   2.008   4.571
    4SAPS  H18Z  532   1.608   1.944   4.495
    5SAPS     N  533   4.996   4.370   6.675
    5SAPS   HN1  534   4.992   4.470   6.648
    5SAPS   HN2  535   5.056   4.314   6.612
    5SAPS   HN3  536   4.904   4.321   6.668
    5SAPS   C12  537   5.055   4.356   6.814
    5SAPS  H12A  538   5.151   4.406   6.810
    5SAPS   C13  539   4.975   4.398   6.934
    5SAPS  O13A  540   4.859   4.439   6.925
    5SAPS  O13B  541   5.032   4.407   7.050
    5SAPS   C11  542   5.096   4.205   6.828
    5SAPS  H11A  543   5.011   4.147   6.869
    5SAPS  H11B  544   5.158   4.197   6.921
    5SAPS     P  545   5.295   4.192   6.657
    5SAPS   O13  546   5.263   4.303   6.560
    5SAPS   O14  547   5.387   4.231   6.767
    5SAPS   O12  548   5.159   4.140   6.722
    5SAPS   O11  549   5.355   4.067   6.586
    5SAPS    C1  550   5.290   3.944   6.557
    5SAPS    HA  551   5.327   3.854   6.611
    5SAPS    HB  552   5.180   3.950   6.570
    5SAPS    C2  553   5.312   3.908   6.402
    5SAPS    HS  554   5.409   3.854   6.399
    5SAPS   O21  555   5.312   4.023   6.317
    5SAPS   C21  556   5.425   4.096   6.306
    5SAPS   O22  557   5.532   4.066   6.360
    5SAPS   C22  558   5.390   4.204   6.203
    5SAPS   H2R  559   5.417   4.165   6.103
    5SAPS   H2S  560   5.281   4.222   6.188
    5SAPS    C3  561   5.211   3.806   6.342
    5SAPS    HX  562   5.112   3.846   6.374
    5SAPS    HY  563   5.232   3.701   6.373
    5SAPS   O31  564   5.233   3.805   6.198
    5SAPS   C31  565   5.133   3.761   6.123
    5SAPS   O32  566   5.040   3.699   6.166
    5SAPS   C32  567   5.146   3.790   5.970
    5SAPS   H2X  568   5.049   3.764   5.922
    5SAPS   H2Y  569   5.213   3.712   5.929
    5SAPS   C23  570   5.478   4.338   6.233
    5SAPS   H3R  571   5.586   4.315   6.248
    5SAPS   H3S  572   5.438   4.367   6.332
    5SAPS   C24  573   5.455   4.453   6.134
    5SAPS   H4R  574   5.466   4.404   6.034
    5SAPS   H4S  575   5.541   4.519   6.158
    5SAPS   C25  576   5.318   4.514   6.158
    5SAPS   H5R  577   5.303   4.546   6.262
    5SAPS   C26  578   5.216   4.529   6.070
    5SAPS   H6R  579   5.122   4.574   6.103
    5SAPS   C27  580   5.213   4.486   5.929
    5SAPS   H7R  581   5.110   4.515   5.899
    5SAPS   H7S  582   5.224   4.376   5.925
    5SAPS   C28  583   5.320   4.549   5.842
    5SAPS   H8R  584   5.328   4.656   5.864
    5SAPS   C29  585   5.400   4.496   5.753
    5SAPS   H9R  586   5.480   4.554   5.703
    5SAPS  C210  587   5.389   4.356   5.690
    5SAPS  H10R  588   5.354   4.367   5.585
    5SAPS  H10S  589   5.315   4.294   5.744
    5SAPS  C211  590   5.522   4.288   5.694
    5SAPS  H11R  591   5.570   4.282   5.793
    5SAPS  C212  592   5.603   4.254   5.596
    5SAPS  H12R  593   5.697   4.203   5.620
    5SAPS  C213  594   5.574   4.291   5.451
    5SAPS  H13R  595   5.464   4.299   5.436
    5SAPS  H13S  596   5.618   4.207   5.394
    5SAPS  C214  597   5.633   4.423   5.404
    5SAPS  H14R  598   5.742   4.433   5.405
    5SAPS  C215  599   5.560   4.534   5.355
    5SAPS  H15R  600   5.614   4.604   5.290
    5SAPS  C216  601   5.413   4.553   5.335
    5SAPS  H16R  602   5.378   4.630   5.407
    5SAPS  H16S  603   5.351   4.465   5.361
    5SAPS  C217  604   5.374   4.576   5.190
    5SAPS  H17R  605   5.428   4.666   5.156
    5SAPS  H17S  606   5.265   4.595   5.179
    5SAPS  C218  607   5.418   4.471   5.082
    5SAPS  H18R  608   5.528   4.455   5.078
    5SAPS  H18S  609   5.394   4.509   4.980
    5SAPS  C219  610   5.350   4.337   5.093
    5SAPS  H19R  611   5.241   4.335   5.075
    5SAPS  H19S  612   5.364   4.302   5.198
    5SAPS  C220  613   5.423   4.237   5.006
    5SAPS  H20R  614   5.374   4.138   4.995
    5SAPS  H20S  615   5.526   4.216   5.044
    5SAPS  H20T  616   5.438   4.275   4.903
    5SAPS   C33  617   5.203   3.928   5.948
    5SAPS   H3X  618   5.297   3.942   6.005
    5SAPS   H3Y  619   5.139   4.007   5.994
    5SAPS   C34  620   5.235   3.957   5.801
    5SAPS   H4X  621   5.262   4.065   5.794
    5SAPS   H4Y  622   5.146   3.948   5.736
    5SAPS   C35  623   5.356   3.880   5.742
    5SAPS   H5X  624   5.336   3.771   5.749
    5SAPS   H5Y  625   5.443   3.908   5.804
    5SAPS   C36  626   5.383   3.915   5.595
    5SAPS   H6X  627   5.492   3.896   5.586
    5SAPS   H6Y  628   5.360   4.023   5.584
    5SAPS   C37  629   5.306   3.831   5.495
    5SAPS   H7X  630   5.201   3.853   5.523
    5SAPS   H7Y  631   5.326   3.723   5.508
    5SAPS   C38  632   5.318   3.879   5.353
    5SAPS   H8X  633   5.425   3.882   5.323
    5SAPS   H8Y  634   5.290   3.985   5.341
    5SAPS   C39  635   5.245   3.792   5.244
    5SAPS   H9X  636   5.135   3.784   5.248
    5SAPS   H9Y  637   5.295   3.693   5.238
    5SAPS  C310  638   5.275   3.853   5.104
    5SAPS  H10X  639   5.376   3.892   5.081
    5SAPS  H10Y  640   5.205   3.940   5.103
    5SAPS  C311  641   5.241   3.756   4.989
    5SAPS  H11X  642   5.133   3.733   5.006
    5SAPS  H11Y  643   5.308   3.670   5.008
    5SAPS  C312  644   5.245   3.821   4.848
    5SAPS  H12X  645   5.335   3.886   4.849
    5SAPS  H12Y  646   5.158   3.890   4.838
    5SAPS  C313  647   5.257   3.715   4.739
    5SAPS  H13X  648   5.189   3.629   4.756
    5SAPS  H13Y  649   5.363   3.688   4.758
    5SAPS  C314  650   5.238   3.760   4.596
    5SAPS  H14X  651   5.142   3.815   4.581
    5SAPS  H14Y  652   5.233   3.671   4.529
    5SAPS  C315  653   5.355   3.843   4.542
    5SAPS  H15X  654   5.438   3.773   4.517
    5SAPS  H15Y  655   5.389   3.914   4.621
    5SAPS  C316  656   5.329   3.935   4.419
    5SAPS  H16X  657   5.235   3.994   4.427
    5SAPS  H16Y  658   5.326   3.880   4.323
    5SAPS  C317  659   5.434   4.045   4.410
    5SAPS  H17X  660   5.533   3.996   4.423
    5SAPS  H17Y  661   5.425   4.115   4.496
    5SAPS  C318  662   5.420   4.118   4.278
    5SAPS  H18X  663   5.492   4.202   4.270
    5SAPS  H18Y  664   5.323   4.171   4.277
    5SAPS  H18Z  665   5.431   4.050   4.191
    6SAPS     N  666   2.532   4.530   7.039
    6SAPS   HN1  667   2.528   4.595   7.120
    6SAPS   HN2  668   2.481   4.568   6.957
    6SAPS   HN3  669   2.485   4.439   7.062
    6SAPS   C12  670   2.681   4.511   7.024
    6SAPS  H12A  671   2.719   4.603   6.984
    6SAPS   C13  672   2.752   4.473   7.161
    6SAPS  O13A  673   2.690   4.474   7.271
    6SAPS  O13B  674   2.867   4.427   7.149
    6SAPS   C11  675   2.685   4.402   6.919
    6SAPS  H11A  676   2.639   4.307   6.953
    6SAPS  H11B  677   2.792   4.376   6.903
    6SAPS     P  678   2.632   4.368   6.668
    6SAPS   O13  679   2.565   4.234   6.684
    6SAPS   O14  680   2.572   4.443   6.556
    6SAPS   O12  681   2.629   4.446   6.798
    6SAPS   O11  682   2.782   4.348   6.640
    6SAPS    C1  683   2.861   4.463   6.601
    6SAPS    HA  684   2.797   4.552   6.586
    6SAPS    HB  685   2.939   4.471   6.680
    6SAPS    C2  686   2.923   4.437   6.462
    6SAPS    HS  687   2.995   4.520   6.441
    6SAPS   O21  688   2.826   4.441   6.359
    6SAPS   C21  689   2.798   4.567   6.312
    6SAPS   O22  690   2.861   4.668   6.335
    6SAPS   C22  691   2.678   4.561   6.210
    6SAPS   H2R  692   2.702   4.485   6.133
    6SAPS   H2S  693   2.600   4.516   6.275
    6SAPS    C3  694   3.009   4.308   6.454
    6SAPS    HX  695   2.941   4.236   6.504
    6SAPS    HY  696   3.091   4.324   6.527
    6SAPS   O31  697   3.056   4.278   6.320
    6SAPS   C31  698   2.985   4.175   6.263
    6SAPS   O32  699   2.900   4.107   6.313
    6SAPS   C32  700   3.029   4.159   6.117
    6SAPS   H2X  701   2.963   4.080   6.075
    6SAPS   H2Y  702   3.133   4.119   6.117
    6SAPS   C23  703   2.637   4.698   6.163
    6SAPS   H3R  704   2.645   4.769   6.248
    6SAPS   H3S  705   2.529   4.702   6.134
    6SAPS   C24  706   2.723   4.769   6.053
    6SAPS   H4R  707   2.830   4.792   6.073
    6SAPS   H4S  708   2.676   4.868   6.032
    6SAPS   C25  709   2.729   4.677   5.923
    6SAPS   H5R  710   2.781   4.580   5.928
    6SAPS   C26  711   2.650   4.702   5.821
    6SAPS   H6R  712   2.641   4.623   5.745
    6SAPS   C27  713   2.570   4.827   5.794
    6SAPS   H7R  714   2.594   4.908   5.866
    6SAPS   H7S  715   2.468   4.802   5.830
    6SAPS   C28  716   2.567   4.866   5.652
    6SAPS   H8R  717   2.527   4.791   5.582
    6SAPS   C29  718   2.602   4.987   5.600
    6SAPS   H9R  719   2.598   4.996   5.490
    6SAPS  C210  720   2.639   5.110   5.682
    6SAPS  H10R  721   2.658   5.085   5.789
    6SAPS  H10S  722   2.546   5.170   5.674
    6SAPS  C211  723   2.754   5.167   5.603
    6SAPS  H11R  724   2.798   5.109   5.521
    6SAPS  C212  725   2.802   5.294   5.614
    6SAPS  H12R  726   2.874   5.328   5.538
    6SAPS  C213  727   2.742   5.398   5.712
    6SAPS  H13R  728   2.681   5.350   5.791
    6SAPS  H13S  729   2.678   5.470   5.658
    6SAPS  C214  730   2.854   5.467   5.775
    6SAPS  H14R  731   2.890   5.418   5.866
    6SAPS  C215  732   2.934   5.558   5.721
    6SAPS  H15R  733   3.021   5.588   5.781
    6SAPS  C216  734   2.915   5.616   5.580
    6SAPS  H16R  735   2.863   5.714   5.587
    6SAPS  H16S  736   2.843   5.554   5.522
    6SAPS  C217  737   3.034   5.650   5.504
    6SAPS  H17R  738   3.121   5.587   5.532
    6SAPS  H17S  739   3.075   5.748   5.536
    6SAPS  C218  740   3.006   5.636   5.354
    6SAPS  H18R  741   2.902   5.664   5.328
    6SAPS  H18S  742   3.019   5.527   5.335
    6SAPS  C219  743   3.106   5.715   5.267
    6SAPS  H19R  744   3.206   5.682   5.302
    6SAPS  H19S  745   3.118   5.826   5.265
    6SAPS  C220  746   3.088   5.659   5.122
    6SAPS  H20R  747   2.985   5.645   5.085
    6SAPS  H20S  748   3.132   5.557   5.119
    6SAPS  H20T  749   3.139   5.724   5.048
    6SAPS   C33  750   3.009   4.279   6.023
    6SAPS   H3X  751   3.102   4.295   5.964
    6SAPS   H3Y  752   2.998   4.377   6.074
    6SAPS   C34  753   2.895   4.261   5.927
    6SAPS   H4X  754   2.854   4.361   5.903
    6SAPS   H4Y  755   2.820   4.210   5.991
    6SAPS   C35  756   2.924   4.193   5.802
    6SAPS   H5X  757   2.978   4.103   5.838
    6SAPS   H5Y  758   3.001   4.244   5.741
    6SAPS   C36  759   2.799   4.165   5.718
    6SAPS   H6X  760   2.711   4.140   5.781
    6SAPS   H6Y  761   2.840   4.080   5.660
    6SAPS   C37  762   2.752   4.287   5.638
    6SAPS   H7X  763   2.727   4.367   5.712
    6SAPS   H7Y  764   2.658   4.268   5.582
    6SAPS   C38  765   2.859   4.348   5.545
    6SAPS   H8X  766   2.944   4.388   5.604
    6SAPS   H8Y  767   2.804   4.435   5.501
    6SAPS   C39  768   2.902   4.245   5.439
    6SAPS   H9X  769   2.946   4.153   5.483
    6SAPS   H9Y  770   2.991   4.291   5.391
    6SAPS  C310  771   2.803   4.208   5.324
    6SAPS  H10X  772   2.714   4.167   5.376
    6SAPS  H10Y  773   2.858   4.127   5.271
    6SAPS  C311  774   2.777   4.324   5.230
    6SAPS  H11X  775   2.874   4.367   5.196
    6SAPS  H11Y  776   2.721   4.403   5.284
    6SAPS  C312  777   2.689   4.278   5.118
    6SAPS  H12X  778   2.586   4.295   5.154
    6SAPS  H12Y  779   2.722   4.175   5.092
    6SAPS  C313  780   2.711   4.364   4.993
    6SAPS  H13X  781   2.807   4.328   4.950
    6SAPS  H13Y  782   2.713   4.473   5.015
    6SAPS  C314  783   2.605   4.344   4.889
    6SAPS  H14X  784   2.517   4.388   4.942
    6SAPS  H14Y  785   2.592   4.234   4.880
    6SAPS  C315  786   2.627   4.399   4.755
    6SAPS  H15X  787   2.707   4.338   4.708
    6SAPS  H15Y  788   2.667   4.503   4.765
    6SAPS  C316  789   2.504   4.418   4.667
    6SAPS  H16X  790   2.428   4.486   4.711
    6SAPS  H16Y  791   2.450   4.322   4.649
    6SAPS  C317  792   2.542   4.475   4.534
    6SAPS  H17X  793   2.628   4.413   4.502
    6SAPS  H17Y  794   2.580   4.579   4.546
    6SAPS  C318  795   2.432   4.463   4.434
    6SAPS  H18X  796   2.465   4.498   4.333
    6SAPS  H18Y  797   2.352   4.527   4.477
    6SAPS  H18Z  798   2.391   4.360   4.435
    7SAPS     N  799   2.289   0.720   6.834
    7SAPS   HN1  800   2.226   0.687   6.909
    7SAPS   HN2  801   2.385   0.718   6.873
    7SAPS   HN3  802   2.254   0.815   6.811
    7SAPS   C12  803   2.277   0.623   6.718
    7SAPS  H12A  804   2.330   0.534   6.748
    7SAPS   C13  805   2.133   0.589   6.681
    7SAPS  O13A  806   2.035   0.640   6.739
    7SAPS  O13B  807   2.118   0.488   6.602
    7SAPS   C11  808   2.345   0.680   6.588
    7SAPS  H11A  809   2.297   0.776   6.561
    7SAPS  H11B  810   2.338   0.598   6.513
    7SAPS     P  811   2.609   0.704   6.518
    7SAPS   O13  812   2.599   0.812   6.416
    7SAPS   O14  813   2.730   0.702   6.598
    7SAPS   O12  814   2.483   0.701   6.618
    7SAPS   O11  815   2.590   0.562   6.451
    7SAPS    C1  816   2.545   0.548   6.319
    7SAPS    HA  817   2.441   0.586   6.316
    7SAPS    HB  818   2.609   0.614   6.256
    7SAPS    C2  819   2.532   0.398   6.275
    7SAPS    HS  820   2.466   0.344   6.345
    7SAPS   O21  821   2.665   0.346   6.275
    7SAPS   C21  822   2.670   0.213   6.266
    7SAPS   O22  823   2.577   0.139   6.265
    7SAPS   C22  824   2.814   0.171   6.230
    7SAPS   H2R  825   2.840   0.220   6.134
    7SAPS   H2S  826   2.880   0.210   6.311
    7SAPS    C3  827   2.481   0.393   6.127
    7SAPS    HX  828   2.376   0.429   6.137
    7SAPS    HY  829   2.473   0.291   6.084
    7SAPS   O31  830   2.546   0.481   6.033
    7SAPS   C31  831   2.645   0.423   5.961
    7SAPS   O32  832   2.677   0.305   5.964
    7SAPS   C32  833   2.688   0.530   5.862
    7SAPS   H2X  834   2.764   0.592   5.914
    7SAPS   H2Y  835   2.599   0.591   5.835
    7SAPS   C23  836   2.845   0.021   6.208
    7SAPS   H3R  837   2.750   6.777   6.208
    7SAPS   H3S  838   2.902   6.784   6.288
    7SAPS   C24  839   2.917   6.805   6.078
    7SAPS   H4R  840   2.860   0.042   5.998
    7SAPS   H4S  841   2.908   6.697   6.055
    7SAPS   C25  842   3.062   0.042   6.085
    7SAPS   H5R  843   3.106   0.009   6.180
    7SAPS   C26  844   3.134   0.112   5.995
    7SAPS   H6R  845   3.238   0.137   6.022
    7SAPS   C27  846   3.069   0.179   5.873
    7SAPS   H7R  847   3.079   0.290   5.868
    7SAPS   H7S  848   2.958   0.175   5.880
    7SAPS   C28  849   3.120   0.124   5.745
    7SAPS   H8R  850   3.114   0.015   5.739
    7SAPS   C29  851   3.198   0.194   5.655
    7SAPS   H9R  852   3.230   0.135   5.568
    7SAPS  C210  853   3.220   0.344   5.646
    7SAPS  H10R  854   3.314   0.373   5.697
    7SAPS  H10S  855   3.135   0.397   5.694
    7SAPS  C211  856   3.237   0.390   5.501
    7SAPS  H11R  857   3.339   0.416   5.471
    7SAPS  C212  858   3.131   0.393   5.407
    7SAPS  H12R  859   3.160   0.429   5.306
    7SAPS  C213  860   2.984   0.373   5.424
    7SAPS  H13R  861   2.936   0.445   5.354
    7SAPS  H13S  862   2.957   0.413   5.525
    7SAPS  C214  863   2.947   0.225   5.401
    7SAPS  H14R  864   3.000   0.145   5.455
    7SAPS  C215  865   2.848   0.176   5.327
    7SAPS  H15R  866   2.848   0.066   5.333
    7SAPS  C216  867   2.756   0.243   5.226
    7SAPS  H16R  868   2.736   0.347   5.262
    7SAPS  H16S  869   2.666   0.184   5.256
    7SAPS  C217  870   2.768   0.231   5.076
    7SAPS  H17R  871   2.676   0.258   5.021
    7SAPS  H17S  872   2.777   0.126   5.041
    7SAPS  C218  873   2.884   0.315   5.013
    7SAPS  H18R  874   2.988   0.278   5.028
    7SAPS  H18S  875   2.872   0.409   5.070
    7SAPS  C219  876   2.854   0.342   4.863
    7SAPS  H19R  877   2.757   0.393   4.842
    7SAPS  H19S  878   2.843   0.244   4.811
    7SAPS  C220  879   2.960   0.412   4.792
    7SAPS  H20R  880   2.979   0.508   4.843
    7SAPS  H20S  881   2.922   0.426   4.688
    7SAPS  H20T  882   3.050   0.346   4.790
    7SAPS   C33  883   2.751   0.480   5.725
    7SAPS   H3X  884   2.850   0.441   5.758
    7SAPS   H3Y  885   2.771   0.566   5.657
    7SAPS   C34  886   2.679   0.369   5.642
    7SAPS   H4X  887   2.634   0.295   5.713
    7SAPS   H4Y  888   2.762   0.313   5.594
    7SAPS   C35  889   2.573   0.427   5.552
    7SAPS   H5X  890   2.625   0.485   5.473
    7SAPS   H5Y  891   2.514   0.497   5.615
    7SAPS   C36  892   2.484   0.319   5.494
    7SAPS   H6X  893   2.443   0.269   5.585
    7SAPS   H6Y  894   2.546   0.237   5.453
    7SAPS   C37  895   2.393   0.372   5.387
    7SAPS   H7X  896   2.451   0.441   5.323
    7SAPS   H7Y  897   2.315   0.440   5.427
    7SAPS   C38  898   2.315   0.276   5.306
    7SAPS   H8X  899   2.258   0.208   5.372
    7SAPS   H8Y  900   2.381   0.206   5.250
    7SAPS   C39  901   2.224   0.350   5.206
    7SAPS   H9X  902   2.282   0.428   5.152
    7SAPS   H9Y  903   2.149   0.390   5.277
    7SAPS  C310  904   2.170   0.245   5.108
    7SAPS  H10X  905   2.142   0.153   5.163
    7SAPS  H10Y  906   2.260   0.228   5.045
    7SAPS  C311  907   2.048   0.288   5.029
    7SAPS  H11X  908   2.089   0.377   4.976
    7SAPS  H11Y  909   1.972   0.317   5.105
    7SAPS  C312  910   2.006   0.176   4.933
    7SAPS  H12X  911   1.984   0.086   4.995
    7SAPS  H12Y  912   2.091   0.141   4.871
    7SAPS  C313  913   1.880   0.202   4.849
    7SAPS  H13X  914   1.915   0.256   4.759
    7SAPS  H13Y  915   1.802   0.253   4.910
    7SAPS  C314  916   1.807   0.075   4.800
    7SAPS  H14X  917   1.700   0.103   4.792
    7SAPS  H14Y  918   1.823   6.811   4.877
    7SAPS  C315  919   1.857   0.028   4.663
    7SAPS  H15X  920   1.957   6.797   4.679
    7SAPS  H15Y  921   1.888   0.120   4.608
    7SAPS  C316  922   1.755   6.744   4.605
    7SAPS  H16X  923   1.686   0.006   4.564
    7SAPS  H16Y  924   1.723   6.688   4.696
    7SAPS  C317  925   1.821   6.664   4.492
    7SAPS  H17X  926   1.920   6.620   4.517
    7SAPS  H17Y  927   1.848   6.736   4.411
    7SAPS  C318  928   1.743   6.553   4.429
    7SAPS  H18X  929   1.670   6.588   4.353
    7SAPS  H18Y  930   1.681   6.498   4.502
    7SAPS  H18Z  931   1.815   6.484   4.381
    8SAPS     N  932   1.472   1.592   6.858
    8SAPS   HN1  933   1.424   1.507   6.821
    8SAPS   HN2  934   1.420   1.603   6.947
    8SAPS   HN3  935   1.453   1.676   6.800
    8SAPS   C12  936   1.617   1.561   6.881
    8SAPS  H12A  937   1.673   1.652   6.865
    8SAPS   C13  938   1.649   1.530   7.030
    8SAPS  O13A  939   1.561   1.543   7.116
    8SAPS  O13B  940   1.765   1.505   7.063
    8SAPS   C11  941   1.682   1.454   6.785
    8SAPS  H11A  942   1.639   1.461   6.682
    8SAPS  H11B  943   1.655   1.356   6.830
    8SAPS     P  944   1.920   1.352   6.738
    8SAPS   O13  945   1.982   1.292   6.859
    8SAPS   O14  946   1.854   1.265   6.644
    8SAPS   O12  947   1.828   1.469   6.783
    8SAPS   O11  948   2.029   1.431   6.657
    8SAPS    C1  949   2.138   1.384   6.574
    8SAPS    HA  950   2.208   1.340   6.649
    8SAPS    HB  951   2.093   1.306   6.509
    8SAPS    C2  952   2.184   1.502   6.498
    8SAPS    HS  953   2.097   1.564   6.466
    8SAPS   O21  954   2.263   1.461   6.384
    8SAPS   C21  955   2.205   1.393   6.285
    8SAPS   O22  956   2.089   1.361   6.281
    8SAPS   C22  957   2.304   1.375   6.172
    8SAPS   H2R  958   2.332   1.472   6.125
    8SAPS   H2S  959   2.397   1.337   6.220
    8SAPS    C3  960   2.277   1.602   6.584
    8SAPS    HX  961   2.367   1.542   6.612
    8SAPS    HY  962   2.211   1.617   6.672
    8SAPS   O31  963   2.316   1.723   6.512
    8SAPS   C31  964   2.236   1.841   6.531
    8SAPS   O32  965   2.128   1.850   6.585
    8SAPS   C32  966   2.303   1.942   6.443
    8SAPS   H2X  967   2.410   1.917   6.429
    8SAPS   H2Y  968   2.299   2.039   6.497
    8SAPS   C23  969   2.243   1.278   6.062
    8SAPS   H3R  970   2.144   1.323   6.038
    8SAPS   H3S  971   2.233   1.173   6.096
    8SAPS   C24  972   2.335   1.278   5.937
    8SAPS   H4R  973   2.429   1.228   5.968
    8SAPS   H4S  974   2.353   1.384   5.910
    8SAPS   C25  975   2.274   1.207   5.816
    8SAPS   H5R  976   2.205   1.127   5.846
    8SAPS   C26  977   2.305   1.233   5.686
    8SAPS   H6R  978   2.275   1.167   5.603
    8SAPS   C27  979   2.413   1.329   5.639
    8SAPS   H7R  980   2.474   1.281   5.559
    8SAPS   H7S  981   2.487   1.351   5.719
    8SAPS   C28  982   2.339   1.449   5.592
    8SAPS   H8R  983   2.299   1.512   5.673
    8SAPS   C29  984   2.329   1.492   5.465
    8SAPS   H9R  985   2.262   1.576   5.441
    8SAPS  C210  986   2.392   1.411   5.343
    8SAPS  H10R  987   2.334   1.317   5.330
    8SAPS  H10S  988   2.497   1.384   5.367
    8SAPS  C211  989   2.404   1.494   5.222
    8SAPS  H11R  990   2.396   1.601   5.245
    8SAPS  C212  991   2.427   1.439   5.099
    8SAPS  H12R  992   2.449   1.510   5.017
    8SAPS  C213  993   2.436   1.287   5.065
    8SAPS  H13R  994   2.408   1.220   5.148
    8SAPS  H13S  995   2.541   1.264   5.036
    8SAPS  C214  996   2.331   1.250   4.959
    8SAPS  H14R  997   2.246   1.319   4.954
    8SAPS  C215  998   2.328   1.147   4.870
    8SAPS  H15R  999   2.240   1.146   4.803
    8SAPS  C216 1000   2.427   1.037   4.862
    8SAPS  H16R 1001   2.381   0.937   4.877
    8SAPS  H16S 1002   2.501   1.045   4.944
    8SAPS  C217 1003   2.500   1.027   4.728
    8SAPS  H17R 1004   2.582   0.952   4.739
    8SAPS  H17S 1005   2.547   1.123   4.696
    8SAPS  C218 1006   2.410   0.990   4.606
    8SAPS  H18R 1007   2.351   1.077   4.572
    8SAPS  H18S 1008   2.340   0.915   4.647
    8SAPS  C219 1009   2.480   0.921   4.489
    8SAPS  H19R 1010   2.555   0.847   4.524
    8SAPS  H19S 1011   2.536   1.001   4.436
    8SAPS  C220 1012   2.372   0.863   4.401
    8SAPS  H20R 1013   2.418   0.815   4.313
    8SAPS  H20S 1014   2.319   0.948   4.354
    8SAPS  H20T 1015   2.304   0.790   4.451
    8SAPS   C33 1016   2.237   1.955   6.306
    8SAPS   H3X 1017   2.221   2.064   6.296
    8SAPS   H3Y 1018   2.133   1.916   6.310
    8SAPS   C34 1019   2.321   1.906   6.194
    8SAPS   H4X 1020   2.355   1.801   6.207
    8SAPS   H4Y 1021   2.415   1.964   6.179
    8SAPS   C35 1022   2.238   1.923   6.072
    8SAPS   H5X 1023   2.196   2.026   6.060
    8SAPS   H5Y 1024   2.154   1.852   6.085
    8SAPS   C36 1025   2.319   1.896   5.939
    8SAPS   H6X 1026   2.348   1.789   5.943
    8SAPS   H6Y 1027   2.408   1.960   5.956
    8SAPS   C37 1028   2.259   1.949   5.814
    8SAPS   H7X 1029   2.258   2.060   5.814
    8SAPS   H7Y 1030   2.151   1.921   5.814
    8SAPS   C38 1031   2.338   1.903   5.692
    8SAPS   H8X 1032   2.347   1.793   5.681
    8SAPS   H8Y 1033   2.440   1.947   5.685
    8SAPS   C39 1034   2.281   1.962   5.562
    8SAPS   H9X 1035   2.255   2.069   5.566
    8SAPS   H9Y 1036   2.185   1.907   5.556
    8SAPS  C310 1037   2.368   1.917   5.444
    8SAPS  H10X 1038   2.374   1.807   5.428
    8SAPS  H10Y 1039   2.467   1.961   5.469
    8SAPS  C311 1040   2.319   1.970   5.313
    8SAPS  H11X 1041   2.328   2.081   5.312
    8SAPS  H11Y 1042   2.216   1.945   5.280
    8SAPS  C312 1043   2.414   1.927   5.196
    8SAPS  H12X 1044   2.416   1.817   5.187
    8SAPS  H12Y 1045   2.515   1.965   5.223
    8SAPS  C313 1046   2.387   2.001   5.063
    8SAPS  H13X 1047   2.398   2.106   5.100
    8SAPS  H13Y 1048   2.289   1.980   5.015
    8SAPS  C314 1049   2.492   1.966   4.960
    8SAPS  H14X 1050   2.586   2.006   5.004
    8SAPS  H14Y 1051   2.480   2.018   4.863
    8SAPS  C315 1052   2.516   1.810   4.933
    8SAPS  H15X 1053   2.427   1.762   4.888
    8SAPS  H15Y 1054   2.539   1.757   5.029
    8SAPS  C316 1055   2.641   1.795   4.844
    8SAPS  H16X 1056   2.731   1.804   4.908
    8SAPS  H16Y 1057   2.641   1.864   4.757
    8SAPS  C317 1058   2.637   1.659   4.779
    8SAPS  H17X 1059   2.695   1.648   4.685
    8SAPS  H17Y 1060   2.530   1.635   4.759
    8SAPS  C318 1061   2.695   1.547   4.875
    8SAPS  H18X 1062   2.667   1.565   4.981
    8SAPS  H18Y 1063   2.804   1.557   4.860
    8SAPS  H18Z 1064   2.668   1.449   4.831
    9SAPS     N 1065   0.987   5.282   6.935
    9SAPS   HN1 1066   0.911   5.249   6.997
    9SAPS   HN2 1067   0.973   5.385   6.936
    9SAPS   HN3 1068   0.967   5.258   6.835
    9SAPS   C12 1069   1.126   5.249   6.991
    9SAPS  H12A 1070   1.199   5.271   6.913
    9SAPS   C13 1071   1.170   5.349   7.101
    9SAPS  O13A 1072   1.104   5.454   7.119
    9SAPS  O13B 1073   1.263   5.326   7.178
    9SAPS   C11 1074   1.128   5.102   7.021
    9SAPS  H11A 1075   1.051   5.086   7.099
    9SAPS  H11B 1076   1.223   5.073   7.071
    9SAPS     P 1077   1.216   4.977   6.810
    9SAPS   O13 1078   1.256   5.083   6.706
    9SAPS   O14 1079   1.320   4.924   6.896
    9SAPS   O12 1080   1.097   5.017   6.907
    9SAPS   O11 1081   1.148   4.851   6.739
    9SAPS    C1 1082   1.072   4.879   6.617
    9SAPS    HA 1083   0.996   4.803   6.591
    9SAPS    HB 1084   1.024   4.979   6.616
    9SAPS    C2 1085   1.177   4.869   6.497
    9SAPS    HS 1086   1.254   4.946   6.521
    9SAPS   O21 1087   1.108   4.889   6.369
    9SAPS   C21 1088   1.078   5.015   6.350
    9SAPS   O22 1089   1.100   5.103   6.428
    9SAPS   C22 1090   1.022   5.038   6.207
    9SAPS   H2R 1091   0.992   4.942   6.158
    9SAPS   H2S 1092   0.927   5.093   6.221
    9SAPS    C3 1093   1.233   4.723   6.501
    9SAPS    HX 1094   1.156   4.656   6.459
    9SAPS    HY 1095   1.265   4.694   6.604
    9SAPS   O31 1096   1.339   4.707   6.409
    9SAPS   C31 1097   1.463   4.754   6.441
    9SAPS   O32 1098   1.487   4.828   6.537
    9SAPS   C32 1099   1.560   4.728   6.319
    9SAPS   H2X 1100   1.575   4.619   6.337
    9SAPS   H2Y 1101   1.644   4.799   6.336
    9SAPS   C23 1102   1.104   5.132   6.122
    9SAPS   H3R 1103   1.131   5.227   6.174
    9SAPS   H3S 1104   1.038   5.179   6.047
    9SAPS   C24 1105   1.221   5.066   6.060
    9SAPS   H4R 1106   1.184   4.988   5.991
    9SAPS   H4S 1107   1.283   5.013   6.136
    9SAPS   C25 1108   1.308   5.165   5.984
    9SAPS   H5R 1109   1.378   5.234   6.034
    9SAPS   C26 1110   1.314   5.179   5.850
    9SAPS   H6R 1111   1.394   5.243   5.809
    9SAPS   C27 1112   1.239   5.093   5.750
    9SAPS   H7R 1113   1.191   5.005   5.797
    9SAPS   H7S 1114   1.316   5.063   5.676
    9SAPS   C28 1115   1.121   5.172   5.689
    9SAPS   H8R 1116   1.050   5.202   5.767
    9SAPS   C29 1117   1.097   5.193   5.558
    9SAPS   H9R 1118   1.008   5.249   5.526
    9SAPS  C210 1119   1.186   5.144   5.441
    9SAPS  H10R 1120   1.115   5.081   5.383
    9SAPS  H10S 1121   1.266   5.086   5.491
    9SAPS  C211 1122   1.247   5.254   5.358
    9SAPS  H11R 1123   1.308   5.321   5.421
    9SAPS  C212 1124   1.251   5.250   5.223
    9SAPS  H12R 1125   1.294   5.339   5.175
    9SAPS  C213 1126   1.195   5.153   5.131
    9SAPS  H13R 1127   1.117   5.093   5.182
    9SAPS  H13S 1128   1.274   5.078   5.110
    9SAPS  C214 1129   1.135   5.204   5.011
    9SAPS  H14R 1130   1.123   5.313   5.003
    9SAPS  C215 1131   1.107   5.144   4.895
    9SAPS  H15R 1132   1.062   5.191   4.806
    9SAPS  C216 1133   1.121   4.992   4.872
    9SAPS  H16R 1134   1.133   4.938   4.968
    9SAPS  H16S 1135   1.219   4.975   4.824
    9SAPS  C217 1136   1.025   4.922   4.772
    9SAPS  H17R 1137   0.921   4.920   4.812
    9SAPS  H17S 1138   1.049   4.814   4.758
    9SAPS  C218 1139   1.027   4.987   4.636
    9SAPS  H18R 1140   1.019   5.097   4.646
    9SAPS  H18S 1141   0.943   4.959   4.569
    9SAPS  C219 1142   1.160   4.987   4.560
    9SAPS  H19R 1143   1.229   5.050   4.619
    9SAPS  H19S 1144   1.138   5.043   4.466
    9SAPS  C220 1145   1.213   4.849   4.530
    9SAPS  H20R 1146   1.302   4.849   4.464
    9SAPS  H20S 1147   1.133   4.792   4.476
    9SAPS  H20T 1148   1.235   4.794   4.623
    9SAPS   C33 1149   1.493   4.747   6.176
    9SAPS   H3X 1150   1.453   4.851   6.169
    9SAPS   H3Y 1151   1.404   4.681   6.182
    9SAPS   C34 1152   1.575   4.690   6.054
    9SAPS   H4X 1153   1.552   4.582   6.047
    9SAPS   H4Y 1154   1.685   4.698   6.067
    9SAPS   C35 1155   1.527   4.750   5.920
    9SAPS   H5X 1156   1.533   4.859   5.944
    9SAPS   H5Y 1157   1.422   4.720   5.900
    9SAPS   C36 1158   1.604   4.700   5.797
    9SAPS   H6X 1159   1.618   4.590   5.801
    9SAPS   H6Y 1160   1.712   4.726   5.796
    9SAPS   C37 1161   1.538   4.757   5.676
    9SAPS   H7X 1162   1.547   4.868   5.678
    9SAPS   H7Y 1163   1.429   4.736   5.679
    9SAPS   C38 1164   1.596   4.716   5.538
    9SAPS   H8X 1165   1.604   4.606   5.524
    9SAPS   H8Y 1166   1.699   4.759   5.539
    9SAPS   C39 1167   1.525   4.774   5.416
    9SAPS   H9X 1168   1.516   4.882   5.439
    9SAPS   H9Y 1169   1.427   4.724   5.405
    9SAPS  C310 1170   1.602   4.758   5.287
    9SAPS  H10X 1171   1.614   4.649   5.268
    9SAPS  H10Y 1172   1.705   4.790   5.312
    9SAPS  C311 1173   1.539   4.844   5.169
    9SAPS  H11X 1174   1.537   4.949   5.202
    9SAPS  H11Y 1175   1.437   4.818   5.132
    9SAPS  C312 1176   1.640   4.827   5.048
    9SAPS  H12X 1177   1.632   4.724   5.006
    9SAPS  H12Y 1178   1.744   4.831   5.088
    9SAPS  C313 1179   1.624   4.922   4.931
    9SAPS  H13X 1180   1.675   5.015   4.965
    9SAPS  H13Y 1181   1.521   4.962   4.918
    9SAPS  C314 1182   1.679   4.861   4.804
    9SAPS  H14X 1183   1.643   4.756   4.800
    9SAPS  H14Y 1184   1.789   4.857   4.794
    9SAPS  C315 1185   1.631   4.932   4.674
    9SAPS  H15X 1186   1.664   5.037   4.684
    9SAPS  H15Y 1187   1.520   4.928   4.665
    9SAPS  C316 1188   1.703   4.881   4.545
    9SAPS  H16X 1189   1.695   4.771   4.529
    9SAPS  H16Y 1190   1.813   4.883   4.556
    9SAPS  C317 1191   1.638   4.939   4.415
    9SAPS  H17X 1192   1.675   5.043   4.402
    9SAPS  H17Y 1193   1.532   4.956   4.442
    9SAPS  C318 1194   1.646   4.849   4.296
    9SAPS  H18X 1195   1.603   4.897   4.206
    9SAPS  H18Y 1196   1.595   4.753   4.320
    9SAPS  H18Z 1197   1.752   4.821   4.278
   10SAPS     N 1198   2.221   3.878   6.566
   10SAPS   HN1 1199   2.276   3.792   6.583
   10SAPS   HN2 1200   2.162   3.859   6.483
   10SAPS   HN3 1201   2.275   3.965   6.548
   10SAPS   C12 1202   2.125   3.896   6.677
   10SAPS  H12A 1203   2.050   3.820   6.662
   10SAPS   C13 1204   2.179   3.891   6.821
   10SAPS  O13A 1205   2.306   3.899   6.840
   10SAPS  O13B 1206   2.098   3.905   6.916
   10SAPS   C11 1207   2.037   4.018   6.657
   10SAPS  H11A 1208   2.096   4.108   6.683
   10SAPS  H11B 1209   1.952   4.005   6.728
   10SAPS     P 1210   1.858   4.108   6.486
   10SAPS   O13 1211   1.789   4.073   6.364
   10SAPS   O14 1212   1.774   4.115   6.609
   10SAPS   O12 1213   1.983   4.017   6.521
   10SAPS   O11 1214   1.925   4.252   6.453
   10SAPS    C1 1215   2.038   4.258   6.368
   10SAPS    HA 1216   2.131   4.283   6.424
   10SAPS    HB 1217   2.070   4.159   6.327
   10SAPS    C2 1218   2.013   4.359   6.248
   10SAPS    HS 1219   1.908   4.337   6.219
   10SAPS   O21 1220   2.083   4.312   6.135
   10SAPS   C21 1221   2.222   4.313   6.138
   10SAPS   O22 1222   2.287   4.331   6.238
   10SAPS   C22 1223   2.284   4.288   5.996
   10SAPS   H2R 1224   2.375   4.230   6.018
   10SAPS   H2S 1225   2.208   4.221   5.949
   10SAPS    C3 1226   2.024   4.511   6.273
   10SAPS    HX 1227   2.130   4.529   6.300
   10SAPS    HY 1228   1.963   4.552   6.356
   10SAPS   O31 1229   1.990   4.581   6.150
   10SAPS   C31 1230   2.072   4.653   6.075
   10SAPS   O32 1231   2.190   4.679   6.102
   10SAPS   C32 1232   1.991   4.721   5.963
   10SAPS   H2X 1233   1.956   4.822   5.993
   10SAPS   H2Y 1234   1.908   4.650   5.943
   10SAPS   C23 1235   2.309   4.422   5.909
   10SAPS   H3R 1236   2.319   4.505   5.982
   10SAPS   H3S 1237   2.215   4.431   5.850
   10SAPS   C24 1238   2.430   4.408   5.824
   10SAPS   H4R 1239   2.513   4.362   5.882
   10SAPS   H4S 1240   2.460   4.509   5.790
   10SAPS   C25 1241   2.398   4.323   5.706
   10SAPS   H5R 1242   2.386   4.217   5.733
   10SAPS   C26 1243   2.379   4.373   5.582
   10SAPS   H6R 1244   2.361   4.308   5.495
   10SAPS   C27 1245   2.378   4.520   5.539
   10SAPS   H7R 1246   2.356   4.595   5.618
   10SAPS   H7S 1247   2.299   4.520   5.461
   10SAPS   C28 1248   2.512   4.542   5.471
   10SAPS   H8R 1249   2.596   4.494   5.523
   10SAPS   C29 1250   2.532   4.640   5.377
   10SAPS   H9R 1251   2.631   4.670   5.340
   10SAPS  C210 1252   2.425   4.734   5.316
   10SAPS  H10R 1253   2.459   4.838   5.299
   10SAPS  H10S 1254   2.337   4.750   5.381
   10SAPS  C211 1255   2.389   4.678   5.180
   10SAPS  H11R 1256   2.313   4.602   5.203
   10SAPS  C212 1257   2.440   4.707   5.054
   10SAPS  H12R 1258   2.393   4.658   4.967
   10SAPS  C213 1259   2.545   4.805   5.019
   10SAPS  H13R 1260   2.626   4.761   4.956
   10SAPS  H13S 1261   2.593   4.845   5.112
   10SAPS  C214 1262   2.473   4.922   4.957
   10SAPS  H14R 1263   2.372   4.952   4.990
   10SAPS  C215 1264   2.523   4.997   4.862
   10SAPS  H15R 1265   2.452   5.077   4.833
   10SAPS  C216 1266   2.658   4.995   4.784
   10SAPS  H16R 1267   2.731   4.933   4.839
   10SAPS  H16S 1268   2.701   5.097   4.783
   10SAPS  C217 1269   2.655   4.930   4.643
   10SAPS  H17R 1270   2.615   4.826   4.641
   10SAPS  H17S 1271   2.758   4.924   4.601
   10SAPS  C218 1272   2.564   5.005   4.546
   10SAPS  H18R 1273   2.598   5.108   4.522
   10SAPS  H18S 1274   2.463   5.027   4.586
   10SAPS  C219 1275   2.553   4.928   4.410
   10SAPS  H19R 1276   2.476   4.980   4.348
   10SAPS  H19S 1277   2.499   4.832   4.428
   10SAPS  C220 1278   2.674   4.913   4.325
   10SAPS  H20R 1279   2.724   5.008   4.297
   10SAPS  H20S 1280   2.646   4.856   4.234
   10SAPS  H20T 1281   2.746   4.850   4.382
   10SAPS   C33 1282   2.076   4.744   5.835
   10SAPS   H3X 1283   2.124   4.651   5.796
   10SAPS   H3Y 1284   2.157   4.817   5.856
   10SAPS   C34 1285   1.989   4.782   5.721
   10SAPS   H4X 1286   1.953   4.884   5.750
   10SAPS   H4Y 1287   1.911   4.704   5.714
   10SAPS   C35 1288   2.069   4.786   5.586
   10SAPS   H5X 1289   2.090   4.679   5.564
   10SAPS   H5Y 1290   2.162   4.842   5.610
   10SAPS   C36 1291   1.992   4.841   5.464
   10SAPS   H6X 1292   1.950   4.938   5.500
   10SAPS   H6Y 1293   1.901   4.780   5.447
   10SAPS   C37 1294   2.074   4.857   5.337
   10SAPS   H7X 1295   2.092   4.756   5.296
   10SAPS   H7Y 1296   2.165   4.905   5.380
   10SAPS   C38 1297   2.017   4.963   5.243
   10SAPS   H8X 1298   2.026   5.064   5.289
   10SAPS   H8Y 1299   1.909   4.951   5.222
   10SAPS   C39 1300   2.098   4.965   5.110
   10SAPS   H9X 1301   2.111   4.861   5.071
   10SAPS   H9Y 1302   2.198   5.008   5.130
   10SAPS  C310 1303   2.021   5.051   5.005
   10SAPS  H10X 1304   2.005   5.157   5.037
   10SAPS  H10Y 1305   1.922   5.000   5.007
   10SAPS  C311 1306   2.079   5.062   4.861
   10SAPS  H11X 1307   2.176   5.116   4.870
   10SAPS  H11Y 1308   2.020   5.129   4.797
   10SAPS  C312 1309   2.106   4.924   4.797
   10SAPS  H12X 1310   2.018   4.857   4.788
   10SAPS  H12Y 1311   2.169   4.866   4.868
   10SAPS  C313 1312   2.190   4.933   4.664
   10SAPS  H13X 1313   2.198   4.827   4.631
   10SAPS  H13Y 1314   2.292   4.971   4.683
   10SAPS  C314 1315   2.120   5.017   4.558
   10SAPS  H14X 1316   2.136   5.119   4.598
   10SAPS  H14Y 1317   2.010   4.998   4.560
   10SAPS  C315 1318   2.166   5.002   4.416
   10SAPS  H15X 1319   2.152   4.897   4.384
   10SAPS  H15Y 1320   2.275   5.017   4.407
   10SAPS  C316 1321   2.100   5.094   4.308
   10SAPS  H16X 1322   2.131   5.073   4.204
   10SAPS  H16Y 1323   2.132   5.197   4.332
   10SAPS  C317 1324   1.946   5.072   4.302
   10SAPS  H17X 1325   1.903   5.116   4.394
   10SAPS  H17Y 1326   1.921   4.964   4.295
   10SAPS  C318 1327   1.888   5.143   4.181
   10SAPS  H18X 1328   1.939   5.102   4.091
   10SAPS  H18Y 1329   1.903   5.253   4.186
   10SAPS  H18Z 1330   1.787   5.098   4.172
   11SAPS     N 1331   3.635   3.015   2.235
   11SAPS   HN1 1332   3.632   3.113   2.201
   11SAPS   HN2 1333   3.579   3.009   2.323
   11SAPS   HN3 1334   3.733   2.990   2.261
   11SAPS   C12 1335   3.592   2.925   2.135
   11SAPS  H12A 1336   3.498   2.959   2.094
   11SAPS   C13 1337   3.692   2.908   2.016
   11SAPS  O13A 1338   3.795   2.978   2.016
   11SAPS  O13B 1339   3.672   2.821   1.928
   11SAPS   C11 1340   3.555   2.792   2.214
   11SAPS  H11A 1341   3.639   2.736   2.260
   11SAPS  H11B 1342   3.499   2.733   2.138
   11SAPS     P 1343   3.427   2.695   2.417
   11SAPS   O13 1344   3.319   2.743   2.506
   11SAPS   O14 1345   3.417   2.572   2.345
   11SAPS   O12 1346   3.455   2.816   2.314
   11SAPS   O11 1347   3.562   2.674   2.502
   11SAPS    C1 1348   3.633   2.774   2.573
   11SAPS    HA 1349   3.741   2.755   2.592
   11SAPS    HB 1350   3.629   2.873   2.523
   11SAPS    C2 1351   3.571   2.805   2.712
   11SAPS    HS 1352   3.466   2.843   2.705
   11SAPS   O21 1353   3.661   2.887   2.783
   11SAPS   C21 1354   3.638   3.022   2.777
   11SAPS   O22 1355   3.542   3.075   2.718
   11SAPS   C22 1356   3.755   3.106   2.832
   11SAPS   H2R 1357   3.828   3.046   2.890
   11SAPS   H2S 1358   3.804   3.153   2.745
   11SAPS    C3 1359   3.566   2.663   2.777
   11SAPS    HX 1360   3.663   2.610   2.768
   11SAPS    HY 1361   3.482   2.612   2.725
   11SAPS   O31 1362   3.526   2.681   2.914
   11SAPS   C31 1363   3.474   2.574   2.968
   11SAPS   O32 1364   3.451   2.464   2.914
   11SAPS   C32 1365   3.434   2.600   3.112
   11SAPS   H2X 1366   3.333   2.644   3.121
   11SAPS   H2Y 1367   3.506   2.676   3.151
   11SAPS   C23 1368   3.713   3.213   2.930
   11SAPS   H3R 1369   3.663   3.168   3.019
   11SAPS   H3S 1370   3.656   3.299   2.887
   11SAPS   C24 1371   3.837   3.275   2.999
   11SAPS   H4R 1372   3.916   3.303   2.926
   11SAPS   H4S 1373   3.886   3.194   3.056
   11SAPS   C25 1374   3.815   3.394   3.089
   11SAPS   H5R 1375   3.765   3.479   3.041
   11SAPS   C26 1376   3.842   3.391   3.217
   11SAPS   H6R 1377   3.812   3.479   3.277
   11SAPS   C27 1378   3.896   3.284   3.313
   11SAPS   H7R 1379   3.998   3.316   3.343
   11SAPS   H7S 1380   3.916   3.186   3.267
   11SAPS   C28 1381   3.798   3.258   3.425
   11SAPS   H8R 1382   3.699   3.220   3.398
   11SAPS   C29 1383   3.810   3.285   3.555
   11SAPS   H9R 1384   3.732   3.250   3.624
   11SAPS  C210 1385   3.937   3.343   3.612
   11SAPS  H10R 1386   4.014   3.341   3.532
   11SAPS  H10S 1387   3.978   3.282   3.695
   11SAPS  C211 1388   3.893   3.481   3.646
   11SAPS  H11R 1389   3.858   3.539   3.560
   11SAPS  C212 1390   3.909   3.535   3.773
   11SAPS  H12R 1391   3.881   3.640   3.788
   11SAPS  C213 1392   3.970   3.462   3.889
   11SAPS  H13R 1393   4.078   3.485   3.875
   11SAPS  H13S 1394   3.954   3.352   3.891
   11SAPS  C214 1395   3.936   3.520   4.020
   11SAPS  H14R 1396   3.970   3.624   4.017
   11SAPS  C215 1397   3.889   3.464   4.136
   11SAPS  H15R 1398   3.882   3.533   4.221
   11SAPS  C216 1399   3.831   3.326   4.143
   11SAPS  H16R 1400   3.893   3.260   4.208
   11SAPS  H16S 1401   3.815   3.282   4.042
   11SAPS  C217 1402   3.693   3.330   4.198
   11SAPS  H17R 1403   3.676   3.389   4.291
   11SAPS  H17S 1404   3.664   3.227   4.226
   11SAPS  C218 1405   3.588   3.386   4.096
   11SAPS  H18R 1406   3.601   3.342   3.995
   11SAPS  H18S 1407   3.612   3.493   4.077
   11SAPS  C219 1408   3.438   3.364   4.128
   11SAPS  H19R 1409   3.395   3.445   4.190
   11SAPS  H19S 1410   3.421   3.263   4.172
   11SAPS  C220 1411   3.348   3.376   4.004
   11SAPS  H20R 1412   3.342   3.475   3.954
   11SAPS  H20S 1413   3.246   3.344   4.036
   11SAPS  H20T 1414   3.375   3.299   3.929
   11SAPS   C33 1415   3.455   2.476   3.206
   11SAPS   H3X 1416   3.557   2.433   3.194
   11SAPS   H3Y 1417   3.376   2.399   3.196
   11SAPS   C34 1418   3.442   2.514   3.357
   11SAPS   H4X 1419   3.339   2.490   3.391
   11SAPS   H4Y 1420   3.453   2.625   3.359
   11SAPS   C35 1421   3.533   2.434   3.458
   11SAPS   H5X 1422   3.638   2.451   3.428
   11SAPS   H5Y 1423   3.525   2.324   3.443
   11SAPS   C36 1424   3.504   2.469   3.607
   11SAPS   H6X 1425   3.397   2.475   3.634
   11SAPS   H6Y 1426   3.530   2.576   3.626
   11SAPS   C37 1427   3.581   2.381   3.699
   11SAPS   H7X 1428   3.690   2.399   3.691
   11SAPS   H7Y 1429   3.568   2.279   3.657
   11SAPS   C38 1430   3.538   2.403   3.844
   11SAPS   H8X 1431   3.547   2.305   3.894
   11SAPS   H8Y 1432   3.434   2.441   3.860
   11SAPS   C39 1433   3.624   2.511   3.919
   11SAPS   H9X 1434   3.607   2.611   3.873
   11SAPS   H9Y 1435   3.726   2.467   3.914
   11SAPS  C310 1436   3.592   2.513   4.069
   11SAPS  H10X 1437   3.544   2.415   4.090
   11SAPS  H10Y 1438   3.531   2.600   4.102
   11SAPS  C311 1439   3.721   2.522   4.147
   11SAPS  H11X 1440   3.790   2.603   4.115
   11SAPS  H11Y 1441   3.782   2.431   4.129
   11SAPS  C312 1442   3.706   2.528   4.301
   11SAPS  H12X 1443   3.638   2.611   4.332
   11SAPS  H12Y 1444   3.807   2.553   4.338
   11SAPS  C313 1445   3.637   2.406   4.367
   11SAPS  H13X 1446   3.704   2.318   4.363
   11SAPS  H13Y 1447   3.547   2.368   4.314
   11SAPS  C314 1448   3.609   2.427   4.517
   11SAPS  H14X 1449   3.694   2.486   4.557
   11SAPS  H14Y 1450   3.597   2.330   4.568
   11SAPS  C315 1451   3.476   2.502   4.545
   11SAPS  H15X 1452   3.396   2.440   4.498
   11SAPS  H15Y 1453   3.470   2.599   4.492
   11SAPS  C316 1454   3.448   2.531   4.696
   11SAPS  H16X 1455   3.515   2.609   4.739
   11SAPS  H16Y 1456   3.465   2.437   4.752
   11SAPS  C317 1457   3.307   2.570   4.727
   11SAPS  H17X 1458   3.231   2.496   4.696
   11SAPS  H17Y 1459   3.291   2.660   4.664
   11SAPS  C318 1460   3.293   2.589   4.877
   11SAPS  H18X 1461   3.184   2.598   4.895
   11SAPS  H18Y 1462   3.344   2.683   4.905
   11SAPS  H18Z 1463   3.350   2.508   4.926
   12SAPS     N 1464   2.908   2.274   1.920
   12SAPS   HN1 1465   2.889   2.335   2.003
   12SAPS   HN2 1466   3.001   2.291   1.878
   12SAPS   HN3 1467   2.845   2.298   1.841
   12SAPS   C12 1468   2.915   2.128   1.953
   12SAPS  H12A 1469   2.826   2.100   2.008
   12SAPS   C13 1470   2.914   2.040   1.821
   12SAPS  O13A 1471   2.928   2.094   1.710
   12SAPS  O13B 1472   2.894   1.919   1.829
   12SAPS   C11 1473   3.037   2.097   2.046
   12SAPS  H11A 1474   3.133   2.110   1.992
   12SAPS  H11B 1475   3.024   1.989   2.067
   12SAPS     P 1476   3.109   2.142   2.295
   12SAPS   O13 1477   3.251   2.104   2.258
   12SAPS   O14 1478   3.082   2.243   2.400
   12SAPS   O12 1479   3.037   2.185   2.164
   12SAPS   O11 1480   3.037   1.999   2.329
   12SAPS    C1 1481   2.891   2.003   2.347
   12SAPS    HA 1482   2.843   2.087   2.292
   12SAPS    HB 1483   2.847   1.908   2.309
   12SAPS    C2 1484   2.853   2.011   2.499
   12SAPS    HS 1485   2.895   2.103   2.544
   12SAPS   O21 1486   2.882   1.887   2.572
   12SAPS   C21 1487   2.920   1.909   2.699
   12SAPS   O22 1488   2.923   2.017   2.752
   12SAPS   C22 1489   2.959   1.775   2.772
   12SAPS   H2R 1490   2.863   1.735   2.811
   12SAPS   H2S 1491   3.003   1.712   2.692
   12SAPS    C3 1492   2.698   2.040   2.518
   12SAPS    HX 1493   2.631   1.956   2.489
   12SAPS    HY 1494   2.666   2.112   2.440
   12SAPS   O31 1495   2.667   2.112   2.639
   12SAPS   C31 1496   2.604   2.027   2.728
   12SAPS   O32 1497   2.595   1.905   2.719
   12SAPS   C32 1498   2.565   2.111   2.850
   12SAPS   H2X 1499   2.459   2.133   2.825
   12SAPS   H2Y 1500   2.613   2.211   2.844
   12SAPS   C23 1501   3.057   1.806   2.887
   12SAPS   H3R 1502   3.023   1.883   2.959
   12SAPS   H3S 1503   3.144   1.853   2.836
   12SAPS   C24 1504   3.102   1.672   2.958
   12SAPS   H4R 1505   3.190   1.686   3.024
   12SAPS   H4S 1506   3.137   1.599   2.883
   12SAPS   C25 1507   2.981   1.620   3.031
   12SAPS   H5R 1508   2.904   1.577   2.965
   12SAPS   C26 1509   2.966   1.607   3.163
   12SAPS   H6R 1510   2.869   1.564   3.193
   12SAPS   C27 1511   3.068   1.646   3.269
   12SAPS   H7R 1512   3.173   1.648   3.234
   12SAPS   H7S 1513   3.076   1.554   3.330
   12SAPS   C28 1514   3.051   1.775   3.335
   12SAPS   H8R 1515   3.097   1.857   3.278
   12SAPS   C29 1516   2.961   1.797   3.438
   12SAPS   H9R 1517   2.968   1.898   3.481
   12SAPS  C210 1518   2.879   1.693   3.502
   12SAPS  H10R 1519   2.942   1.637   3.574
   12SAPS  H10S 1520   2.852   1.617   3.425
   12SAPS  C211 1521   2.749   1.754   3.563
   12SAPS  H11R 1522   2.690   1.822   3.500
   12SAPS  C212 1523   2.706   1.734   3.692
   12SAPS  H12R 1524   2.619   1.785   3.736
   12SAPS  C213 1525   2.784   1.647   3.793
   12SAPS  H13R 1526   2.861   1.711   3.840
   12SAPS  H13S 1527   2.834   1.559   3.747
   12SAPS  C214 1528   2.694   1.594   3.903
   12SAPS  H14R 1529   2.641   1.509   3.859
   12SAPS  C215 1530   2.682   1.637   4.031
   12SAPS  H15R 1531   2.616   1.582   4.101
   12SAPS  C216 1532   2.755   1.751   4.092
   12SAPS  H16R 1533   2.819   1.800   4.016
   12SAPS  H16S 1534   2.823   1.715   4.172
   12SAPS  C217 1535   2.660   1.856   4.150
   12SAPS  H17R 1536   2.603   1.908   4.070
   12SAPS  H17S 1537   2.739   1.927   4.181
   12SAPS  C218 1538   2.569   1.815   4.265
   12SAPS  H18R 1539   2.624   1.737   4.322
   12SAPS  H18S 1540   2.469   1.774   4.239
   12SAPS  C219 1541   2.538   1.934   4.358
   12SAPS  H19R 1542   2.454   1.906   4.425
   12SAPS  H19S 1543   2.500   2.017   4.294
   12SAPS  C220 1544   2.647   1.963   4.455
   12SAPS  H20R 1545   2.742   1.996   4.409
   12SAPS  H20S 1546   2.676   1.871   4.510
   12SAPS  H20T 1547   2.620   2.035   4.535
   12SAPS   C33 1548   2.590   2.046   2.988
   12SAPS   H3X 1549   2.691   2.002   3.003
   12SAPS   H3Y 1550   2.532   1.951   2.987
   12SAPS   C34 1551   2.543   2.133   3.106
   12SAPS   H4X 1552   2.441   2.171   3.084
   12SAPS   H4Y 1553   2.610   2.221   3.109
   12SAPS   C35 1554   2.533   2.060   3.242
   12SAPS   H5X 1555   2.621   2.000   3.273
   12SAPS   H5Y 1556   2.446   1.990   3.244
   12SAPS   C36 1557   2.508   2.159   3.339
   12SAPS   H6X 1558   2.426   2.228   3.311
   12SAPS   H6Y 1559   2.602   2.218   3.335
   12SAPS   C37 1560   2.486   2.109   3.484
   12SAPS   H7X 1561   2.514   2.197   3.546
   12SAPS   H7Y 1562   2.560   2.028   3.505
   12SAPS   C38 1563   2.339   2.063   3.518
   12SAPS   H8X 1564   2.308   1.986   3.444
   12SAPS   H8Y 1565   2.259   2.139   3.508
   12SAPS   C39 1566   2.325   2.008   3.658
   12SAPS   H9X 1567   2.367   1.906   3.671
   12SAPS   H9Y 1568   2.216   2.005   3.675
   12SAPS  C310 1569   2.385   2.102   3.767
   12SAPS  H10X 1570   2.346   2.204   3.752
   12SAPS  H10Y 1571   2.496   2.101   3.777
   12SAPS  C311 1572   2.333   2.045   3.907
   12SAPS  H11X 1573   2.379   1.946   3.928
   12SAPS  H11Y 1574   2.226   2.014   3.905
   12SAPS  C312 1575   2.362   2.123   4.034
   12SAPS  H12X 1576   2.471   2.137   4.051
   12SAPS  H12Y 1577   2.342   2.061   4.124
   12SAPS  C313 1578   2.294   2.258   4.047
   12SAPS  H13X 1579   2.185   2.252   4.025
   12SAPS  H13Y 1580   2.337   2.329   3.974
   12SAPS  C314 1581   2.305   2.305   4.192
   12SAPS  H14X 1582   2.413   2.325   4.206
   12SAPS  H14Y 1583   2.282   2.221   4.260
   12SAPS  C315 1584   2.220   2.433   4.217
   12SAPS  H15X 1585   2.210   2.491   4.123
   12SAPS  H15Y 1586   2.274   2.502   4.285
   12SAPS  C316 1587   2.073   2.402   4.267
   12SAPS  H16X 1588   2.085   2.386   4.376
   12SAPS  H16Y 1589   2.045   2.308   4.216
   12SAPS  C317 1590   1.972   2.525   4.222
   12SAPS  H17X 1591   1.991   2.551   4.115
   12SAPS  H17Y 1592   1.997   2.619   4.275
   12SAPS  C318 1593   1.821   2.494   4.256
   12SAPS  H18X 1594   1.746   2.562   4.211
   12SAPS  H18Y 1595   1.812   2.485   4.366
   12SAPS  H18Z 1596   1.790   2.394   4.221
   13SAPS     N 1597   4.794   1.597   1.963
   13SAPS   HN1 1598   4.706   1.643   1.930
   13SAPS   HN2 1599   4.788   1.578   2.065
   13SAPS   HN3 1600   4.866   1.671   1.955
   13SAPS   C12 1601   4.823   1.471   1.877
   13SAPS  H12A 1602   4.752   1.400   1.917
   13SAPS   C13 1603   4.823   1.483   1.720
   13SAPS  O13A 1604   4.807   1.599   1.667
   13SAPS  O13B 1605   4.821   1.375   1.651
   13SAPS   C11 1606   4.957   1.418   1.923
   13SAPS  H11A 1607   5.034   1.496   1.906
   13SAPS  H11B 1608   4.999   1.330   1.869
   13SAPS     P 1609   5.078   1.333   2.141
   13SAPS   O13 1610   5.029   1.216   2.224
   13SAPS   O14 1611   5.186   1.299   2.043
   13SAPS   O12 1612   4.957   1.388   2.066
   13SAPS   O11 1613   5.117   1.462   2.228
   13SAPS    C1 1614   5.016   1.552   2.284
   13SAPS    HA 1615   5.048   1.658   2.277
   13SAPS    HB 1616   4.923   1.557   2.224
   13SAPS    C2 1617   5.012   1.517   2.427
   13SAPS    HS 1618   5.117   1.513   2.463
   13SAPS   O21 1619   4.941   1.395   2.446
   13SAPS   C21 1620   5.006   1.301   2.506
   13SAPS   O22 1621   5.124   1.304   2.540
   13SAPS   C22 1622   4.909   1.191   2.544
   13SAPS   H2R 1623   4.805   1.198   2.504
   13SAPS   H2S 1624   4.955   1.100   2.500
   13SAPS    C3 1625   4.934   1.618   2.519
   13SAPS    HX 1626   4.827   1.611   2.490
   13SAPS    HY 1627   4.974   1.716   2.485
   13SAPS   O31 1628   4.947   1.608   2.669
   13SAPS   C31 1629   5.070   1.622   2.719
   13SAPS   O32 1630   5.169   1.650   2.657
   13SAPS   C32 1631   5.065   1.605   2.870
   13SAPS   H2X 1632   4.979   1.542   2.901
   13SAPS   H2Y 1633   5.042   1.698   2.926
   13SAPS   C23 1634   4.916   1.169   2.690
   13SAPS   H3R 1635   5.019   1.176   2.730
   13SAPS   H3S 1636   4.894   1.063   2.713
   13SAPS   C24 1637   4.838   1.263   2.778
   13SAPS   H4R 1638   4.872   1.364   2.748
   13SAPS   H4S 1639   4.867   1.253   2.884
   13SAPS   C25 1640   4.686   1.248   2.764
   13SAPS   H5R 1641   4.646   1.327   2.699
   13SAPS   C26 1642   4.618   1.148   2.821
   13SAPS   H6R 1643   4.514   1.127   2.791
   13SAPS   C27 1644   4.675   1.040   2.913
   13SAPS   H7R 1645   4.745   1.079   2.990
   13SAPS   H7S 1646   4.729   0.966   2.850
   13SAPS   C28 1647   4.567   0.955   2.969
   13SAPS   H8R 1648   4.539   0.870   2.906
   13SAPS   C29 1649   4.521   0.968   3.095
   13SAPS   H9R 1650   4.445   0.898   3.134
   13SAPS  C210 1651   4.560   1.081   3.193
   13SAPS  H10R 1652   4.588   1.171   3.134
   13SAPS  H10S 1653   4.646   1.036   3.247
   13SAPS  C211 1654   4.449   1.117   3.288
   13SAPS  H11R 1655   4.364   1.146   3.226
   13SAPS  C212 1656   4.454   1.138   3.418
   13SAPS  H12R 1657   4.363   1.179   3.464
   13SAPS  C213 1658   4.581   1.122   3.508
   13SAPS  H13R 1659   4.615   1.218   3.552
   13SAPS  H13S 1660   4.663   1.080   3.446
   13SAPS  C214 1661   4.546   1.018   3.606
   13SAPS  H14R 1662   4.563   0.915   3.572
   13SAPS  C215 1663   4.505   1.037   3.729
   13SAPS  H15R 1664   4.479   0.948   3.788
   13SAPS  C216 1665   4.471   1.164   3.797
   13SAPS  H16R 1666   4.364   1.191   3.786
   13SAPS  H16S 1667   4.519   1.246   3.739
   13SAPS  C217 1668   4.499   1.195   3.942
   13SAPS  H17R 1669   4.497   1.305   3.950
   13SAPS  H17S 1670   4.605   1.178   3.970
   13SAPS  C218 1671   4.396   1.135   4.039
   13SAPS  H18R 1672   4.397   1.025   4.023
   13SAPS  H18S 1673   4.296   1.176   4.011
   13SAPS  C219 1674   4.429   1.165   4.181
   13SAPS  H19R 1675   4.528   1.117   4.198
   13SAPS  H19S 1676   4.349   1.101   4.225
   13SAPS  C220 1677   4.433   1.315   4.218
   13SAPS  H20R 1678   4.332   1.360   4.216
   13SAPS  H20S 1679   4.503   1.371   4.152
   13SAPS  H20T 1680   4.473   1.334   4.320
   13SAPS   C33 1681   5.189   1.541   2.928
   13SAPS   H3X 1682   5.267   1.619   2.921
   13SAPS   H3Y 1683   5.219   1.455   2.864
   13SAPS   C34 1684   5.184   1.494   3.070
   13SAPS   H4X 1685   5.134   1.565   3.139
   13SAPS   H4Y 1686   5.286   1.471   3.106
   13SAPS   C35 1687   5.097   1.370   3.091
   13SAPS   H5X 1688   5.119   1.289   3.018
   13SAPS   H5Y 1689   4.991   1.397   3.069
   13SAPS   C36 1690   5.109   1.320   3.232
   13SAPS   H6X 1691   5.107   1.406   3.303
   13SAPS   H6Y 1692   5.209   1.275   3.246
   13SAPS   C37 1693   4.986   1.238   3.272
   13SAPS   H7X 1694   4.971   1.174   3.182
   13SAPS   H7Y 1695   4.901   1.310   3.278
   13SAPS   C38 1696   4.996   1.147   3.402
   13SAPS   H8X 1697   5.087   1.086   3.386
   13SAPS   H8Y 1698   4.912   1.074   3.404
   13SAPS   C39 1699   5.002   1.237   3.526
   13SAPS   H9X 1700   4.946   1.333   3.521
   13SAPS   H9Y 1701   5.110   1.258   3.538
   13SAPS  C310 1702   4.957   1.163   3.651
   13SAPS  H10X 1703   5.007   1.064   3.645
   13SAPS  H10Y 1704   4.848   1.149   3.638
   13SAPS  C311 1705   4.997   1.236   3.786
   13SAPS  H11X 1706   4.973   1.343   3.767
   13SAPS  H11Y 1707   5.108   1.242   3.792
   13SAPS  C312 1708   4.919   1.177   3.900
   13SAPS  H12X 1709   4.944   1.070   3.918
   13SAPS  H12Y 1710   4.812   1.194   3.874
   13SAPS  C313 1711   4.935   1.253   4.038
   13SAPS  H13X 1712   4.914   1.361   4.024
   13SAPS  H13Y 1713   5.037   1.236   4.077
   13SAPS  C314 1714   4.827   1.215   4.142
   13SAPS  H14X 1715   4.809   1.106   4.127
   13SAPS  H14Y 1716   4.723   1.254   4.131
   13SAPS  C315 1717   4.863   1.256   4.291
   13SAPS  H15X 1718   4.853   1.367   4.296
   13SAPS  H15Y 1719   4.969   1.226   4.281
   13SAPS  C316 1720   4.767   1.191   4.396
   13SAPS  H16X 1721   4.796   1.086   4.415
   13SAPS  H16Y 1722   4.663   1.187   4.358
   13SAPS  C317 1723   4.773   1.262   4.529
   13SAPS  H17X 1724   4.759   1.370   4.506
   13SAPS  H17Y 1725   4.875   1.252   4.573
   13SAPS  C318 1726   4.665   1.215   4.632
   13SAPS  H18X 1727   4.564   1.212   4.585
   13SAPS  H18Y 1728   4.658   1.286   4.717
   13SAPS  H18Z 1729   4.686   1.114   4.673
   14SAPS     N 1730   5.090   3.232   2.398
   14SAPS   HN1 1731   5.010   3.168   2.412
   14SAPS   HN2 1732   5.170   3.194   2.343
   14SAPS   HN3 1733   5.119   3.262   2.493
   14SAPS   C12 1734   5.041   3.355   2.326
   14SAPS  H12A 1735   5.025   3.327   2.223
   14SAPS   C13 1736   4.896   3.394   2.391
   14SAPS  O13A 1737   4.854   3.329   2.482
   14SAPS  O13B 1738   4.836   3.491   2.344
   14SAPS   C11 1739   5.134   3.487   2.350
   14SAPS  H11A 1740   5.121   3.511   2.457
   14SAPS  H11B 1741   5.090   3.571   2.292
   14SAPS     P 1742   5.382   3.568   2.365
   14SAPS   O13 1743   5.523   3.543   2.316
   14SAPS   O14 1744   5.321   3.699   2.340
   14SAPS   O12 1745   5.268   3.470   2.304
   14SAPS   O11 1746   5.376   3.542   2.526
   14SAPS    C1 1747   5.418   3.411   2.575
   14SAPS    HA 1748   5.363   3.331   2.521
   14SAPS    HB 1749   5.526   3.401   2.553
   14SAPS    C2 1750   5.409   3.392   2.731
   14SAPS    HS 1751   5.424   3.285   2.758
   14SAPS   O21 1752   5.279   3.447   2.771
   14SAPS   C21 1753   5.168   3.400   2.730
   14SAPS   O22 1754   5.154   3.301   2.664
   14SAPS   C22 1755   5.062   3.498   2.792
   14SAPS   H2R 1756   5.091   3.604   2.770
   14SAPS   H2S 1757   4.968   3.471   2.740
   14SAPS    C3 1758   5.517   3.481   2.806
   14SAPS    HX 1759   5.533   3.583   2.765
   14SAPS    HY 1760   5.616   3.432   2.797
   14SAPS   O31 1761   5.496   3.478   2.949
   14SAPS   C31 1762   5.409   3.560   3.010
   14SAPS   O32 1763   5.357   3.658   2.954
   14SAPS   C32 1764   5.370   3.507   3.142
   14SAPS   H2X 1765   5.467   3.472   3.182
   14SAPS   H2Y 1766   5.311   3.413   3.138
   14SAPS   C23 1767   5.046   3.481   2.948
   14SAPS   H3R 1768   5.127   3.543   2.992
   14SAPS   H3S 1769   5.065   3.372   2.957
   14SAPS   C24 1770   4.909   3.539   2.997
   14SAPS   H4R 1771   4.883   3.628   2.936
   14SAPS   H4S 1772   4.938   3.569   3.100
   14SAPS   C25 1773   4.804   3.433   3.005
   14SAPS   H5R 1774   4.788   3.374   2.913
   14SAPS   C26 1775   4.736   3.411   3.117
   14SAPS   H6R 1776   4.657   3.335   3.118
   14SAPS   C27 1777   4.738   3.490   3.245
   14SAPS   H7R 1778   4.653   3.450   3.305
   14SAPS   H7S 1779   4.715   3.597   3.225
   14SAPS   C28 1780   4.863   3.472   3.328
   14SAPS   H8R 1781   4.952   3.425   3.283
   14SAPS   C29 1782   4.876   3.507   3.457
   14SAPS   H9R 1783   4.977   3.501   3.500
   14SAPS  C210 1784   4.770   3.575   3.539
   14SAPS  H10R 1785   4.680   3.602   3.480
   14SAPS  H10S 1786   4.810   3.672   3.576
   14SAPS  C211 1787   4.732   3.490   3.656
   14SAPS  H11R 1788   4.628   3.454   3.649
   14SAPS  C212 1789   4.810   3.436   3.760
   14SAPS  H12R 1790   4.755   3.360   3.817
   14SAPS  C213 1791   4.955   3.456   3.789
   14SAPS  H13R 1792   4.959   3.516   3.882
   14SAPS  H13S 1793   5.014   3.520   3.719
   14SAPS  C214 1794   5.031   3.327   3.814
   14SAPS  H14R 1795   5.018   3.255   3.732
   14SAPS  C215 1796   5.112   3.308   3.917
   14SAPS  H15R 1797   5.160   3.209   3.921
   14SAPS  C216 1798   5.163   3.396   4.027
   14SAPS  H16R 1799   5.135   3.502   4.007
   14SAPS  H16S 1800   5.273   3.383   4.036
   14SAPS  C217 1801   5.086   3.360   4.159
   14SAPS  H17R 1802   5.107   3.253   4.180
   14SAPS  H17S 1803   4.975   3.365   4.150
   14SAPS  C218 1804   5.127   3.443   4.284
   14SAPS  H18R 1805   5.088   3.414   4.384
   14SAPS  H18S 1806   5.083   3.544   4.270
   14SAPS  C219 1807   5.279   3.464   4.310
   14SAPS  H19R 1808   5.292   3.528   4.399
   14SAPS  H19S 1809   5.334   3.510   4.225
   14SAPS  C220 1810   5.351   3.326   4.341
   14SAPS  H20R 1811   5.459   3.331   4.365
   14SAPS  H20S 1812   5.352   3.256   4.255
   14SAPS  H20T 1813   5.298   3.265   4.417
   14SAPS   C33 1814   5.317   3.605   3.247
   14SAPS   H3X 1815   5.208   3.599   3.232
   14SAPS   H3Y 1816   5.352   3.710   3.235
   14SAPS   C34 1817   5.338   3.552   3.386
   14SAPS   H4X 1818   5.285   3.624   3.453
   14SAPS   H4Y 1819   5.447   3.563   3.402
   14SAPS   C35 1820   5.279   3.413   3.415
   14SAPS   H5X 1821   5.343   3.340   3.362
   14SAPS   H5Y 1822   5.179   3.418   3.367
   14SAPS   C36 1823   5.275   3.370   3.565
   14SAPS   H6X 1824   5.209   3.281   3.569
   14SAPS   H6Y 1825   5.228   3.455   3.619
   14SAPS   C37 1826   5.415   3.337   3.611
   14SAPS   H7X 1827   5.487   3.422   3.607
   14SAPS   H7Y 1828   5.463   3.266   3.540
   14SAPS   C38 1829   5.422   3.286   3.753
   14SAPS   H8X 1830   5.373   3.186   3.759
   14SAPS   H8Y 1831   5.367   3.355   3.821
   14SAPS   C39 1832   5.571   3.278   3.793
   14SAPS   H9X 1833   5.618   3.379   3.786
   14SAPS   H9Y 1834   5.619   3.210   3.720
   14SAPS  C310 1835   5.597   3.221   3.928
   14SAPS  H10X 1836   5.567   3.115   3.941
   14SAPS  H10Y 1837   5.544   3.284   4.003
   14SAPS  C311 1838   5.742   3.250   3.955
   14SAPS  H11X 1839   5.776   3.352   3.931
   14SAPS  H11Y 1840   5.810   3.176   3.907
   14SAPS  C312 1841   5.791   3.239   4.105
   14SAPS  H12X 1842   5.728   3.155   4.139
   14SAPS  H12Y 1843   5.757   3.331   4.158
   14SAPS  C313 1844   5.946   3.231   4.110
   14SAPS  H13X 1845   5.993   3.331   4.115
   14SAPS  H13Y 1846   5.982   3.179   4.019
   14SAPS  C314 1847   5.994   3.151   4.232
   14SAPS  H14X 1848   5.926   3.062   4.235
   14SAPS  H14Y 1849   5.979   3.207   4.327
   14SAPS  C315 1850   6.135   3.103   4.220
   14SAPS  H15X 1851   6.204   3.184   4.186
   14SAPS  H15Y 1852   6.140   3.025   4.141
   14SAPS  C316 1853   6.200   3.046   4.346
   14SAPS  H16X 1854   6.169   2.943   4.375
   14SAPS  H16Y 1855   6.165   3.115   4.426
   14SAPS  C317 1856   6.352   3.051   4.337
   14SAPS  H17X 1857   6.382   3.012   4.238
   14SAPS  H17Y 1858   6.377   2.974   4.414
   14SAPS  C318 1859   6.416   3.188   4.338
   14SAPS  H18X 1860   6.412   3.250   4.430
   14SAPS  H18Y 1861   6.369   3.260   4.267
   14SAPS  H18Z 1862   6.522   3.173   4.308
   15SAPS     N 1863   4.062   2.987   2.084
   15SAPS   HN1 1864   4.134   2.942   2.025
   15SAPS   HN2 1865   4.046   2.940   2.176
   15SAPS   HN3 1866   3.973   2.975   2.031
   15SAPS   C12 1867   4.121   3.125   2.096
   15SAPS  H12A 1868   4.228   3.122   2.113
   15SAPS   C13 1869   4.102   3.214   1.976
   15SAPS  O13A 1870   4.057   3.175   1.865
   15SAPS  O13B 1871   4.176   3.316   1.987
   15SAPS   C11 1872   4.067   3.190   2.222
   15SAPS  H11A 1873   3.961   3.213   2.198
   15SAPS  H11B 1874   4.132   3.278   2.241
   15SAPS     P 1875   3.969   3.058   2.437
   15SAPS   O13 1876   3.871   2.991   2.353
   15SAPS   O14 1877   4.034   2.974   2.537
   15SAPS   O12 1878   4.087   3.105   2.336
   15SAPS   O11 1879   3.905   3.193   2.496
   15SAPS    C1 1880   3.985   3.312   2.486
   15SAPS    HA 1881   4.091   3.280   2.487
   15SAPS    HB 1882   3.974   3.374   2.395
   15SAPS    C2 1883   3.967   3.403   2.614
   15SAPS    HS 1884   4.015   3.502   2.597
   15SAPS   O21 1885   4.017   3.343   2.740
   15SAPS   C21 1886   4.149   3.339   2.741
   15SAPS   O22 1887   4.226   3.390   2.659
   15SAPS   C22 1888   4.184   3.240   2.860
   15SAPS   H2R 1889   4.164   3.299   2.953
   15SAPS   H2S 1890   4.126   3.146   2.857
   15SAPS    C3 1891   3.815   3.432   2.631
   15SAPS    HX 1892   3.753   3.342   2.647
   15SAPS    HY 1893   3.784   3.478   2.534
   15SAPS   O31 1894   3.791   3.518   2.750
   15SAPS   C31 1895   3.748   3.637   2.732
   15SAPS   O32 1896   3.701   3.677   2.626
   15SAPS   C32 1897   3.761   3.719   2.861
   15SAPS   H2X 1898   3.717   3.655   2.940
   15SAPS   H2Y 1899   3.698   3.811   2.858
   15SAPS   C23 1900   4.332   3.193   2.867
   15SAPS   H3R 1901   4.398   3.281   2.850
   15SAPS   H3S 1902   4.346   3.121   2.784
   15SAPS   C24 1903   4.393   3.145   2.996
   15SAPS   H4R 1904   4.421   3.232   3.059
   15SAPS   H4S 1905   4.487   3.098   2.960
   15SAPS   C25 1906   4.300   3.048   3.065
   15SAPS   H5R 1907   4.245   2.971   3.009
   15SAPS   C26 1908   4.268   3.051   3.195
   15SAPS   H6R 1909   4.189   2.982   3.230
   15SAPS   C27 1910   4.315   3.144   3.305
   15SAPS   H7R 1911   4.232   3.193   3.360
   15SAPS   H7S 1912   4.359   3.238   3.266
   15SAPS   C28 1913   4.408   3.073   3.400
   15SAPS   H8R 1914   4.493   3.021   3.353
   15SAPS   C29 1915   4.390   3.049   3.532
   15SAPS   H9R 1916   4.477   3.003   3.582
   15SAPS  C210 1917   4.283   3.102   3.627
   15SAPS  H10R 1918   4.256   3.021   3.698
   15SAPS  H10S 1919   4.195   3.136   3.569
   15SAPS  C211 1920   4.329   3.226   3.711
   15SAPS  H11R 1921   4.264   3.313   3.691
   15SAPS  C212 1922   4.412   3.210   3.823
   15SAPS  H12R 1923   4.452   3.305   3.861
   15SAPS  C213 1924   4.480   3.085   3.883
   15SAPS  H13R 1925   4.422   2.996   3.851
   15SAPS  H13S 1926   4.462   3.072   3.992
   15SAPS  C214 1927   4.625   3.068   3.851
   15SAPS  H14R 1928   4.641   3.049   3.744
   15SAPS  C215 1929   4.730   3.054   3.930
   15SAPS  H15R 1930   4.831   3.047   3.887
   15SAPS  C216 1931   4.717   3.070   4.085
   15SAPS  H16R 1932   4.668   2.984   4.136
   15SAPS  H16S 1933   4.670   3.164   4.121
   15SAPS  C217 1934   4.859   3.063   4.143
   15SAPS  H17R 1935   4.924   3.145   4.106
   15SAPS  H17S 1936   4.907   2.964   4.131
   15SAPS  C218 1937   4.854   3.085   4.298
   15SAPS  H18R 1938   4.762   3.029   4.326
   15SAPS  H18S 1939   4.829   3.192   4.315
   15SAPS  C219 1940   4.980   3.040   4.369
   15SAPS  H19R 1941   5.068   3.101   4.339
   15SAPS  H19S 1942   4.998   2.933   4.347
   15SAPS  C220 1943   4.970   3.053   4.519
   15SAPS  H20R 1944   4.932   3.152   4.551
   15SAPS  H20S 1945   5.072   3.037   4.561
   15SAPS  H20T 1946   4.893   2.984   4.558
   15SAPS   C33 1947   3.903   3.753   2.915
   15SAPS   H3X 1948   3.968   3.801   2.839
   15SAPS   H3Y 1949   3.959   3.660   2.939
   15SAPS   C34 1950   3.892   3.839   3.039
   15SAPS   H4X 1951   3.834   3.934   3.032
   15SAPS   H4Y 1952   3.998   3.868   3.050
   15SAPS   C35 1953   3.839   3.780   3.174
   15SAPS   H5X 1954   3.895   3.688   3.202
   15SAPS   H5Y 1955   3.732   3.751   3.168
   15SAPS   C36 1956   3.851   3.882   3.286
   15SAPS   H6X 1957   3.757   3.942   3.284
   15SAPS   H6Y 1958   3.936   3.953   3.277
   15SAPS   C37 1959   3.875   3.812   3.418
   15SAPS   H7X 1960   3.983   3.788   3.432
   15SAPS   H7Y 1961   3.811   3.722   3.411
   15SAPS   C38 1962   3.830   3.883   3.547
   15SAPS   H8X 1963   3.862   3.822   3.634
   15SAPS   H8Y 1964   3.719   3.881   3.539
   15SAPS   C39 1965   3.879   4.028   3.575
   15SAPS   H9X 1966   3.882   4.088   3.482
   15SAPS   H9Y 1967   3.986   4.028   3.607
   15SAPS  C310 1968   3.797   4.101   3.684
   15SAPS  H10X 1969   3.787   4.041   3.777
   15SAPS  H10Y 1970   3.691   4.118   3.654
   15SAPS  C311 1971   3.847   4.241   3.716
   15SAPS  H11X 1972   3.767   4.299   3.767
   15SAPS  H11Y 1973   3.867   4.289   3.618
   15SAPS  C312 1974   3.976   4.241   3.789
   15SAPS  H12X 1975   4.053   4.178   3.738
   15SAPS  H12Y 1976   3.964   4.188   3.885
   15SAPS  C313 1977   4.032   4.386   3.790
   15SAPS  H13X 1978   4.025   4.434   3.690
   15SAPS  H13Y 1979   4.142   4.382   3.807
   15SAPS  C314 1980   3.965   4.474   3.898
   15SAPS  H14X 1981   3.861   4.484   3.860
   15SAPS  H14Y 1982   4.022   4.570   3.891
   15SAPS  C315 1983   3.968   4.412   4.034
   15SAPS  H15X 1984   4.069   4.368   4.048
   15SAPS  H15Y 1985   3.889   4.334   4.044
   15SAPS  C316 1986   3.943   4.521   4.139
   15SAPS  H16X 1987   3.852   4.579   4.112
   15SAPS  H16Y 1988   4.017   4.603   4.134
   15SAPS  C317 1989   3.919   4.462   4.281
   15SAPS  H17X 1990   3.999   4.392   4.313
   15SAPS  H17Y 1991   3.823   4.406   4.285
   15SAPS  C318 1992   3.908   4.572   4.388
   15SAPS  H18X 1993   3.832   4.652   4.373
   15SAPS  H18Y 1994   4.004   4.628   4.392
   15SAPS  H18Z 1995   3.881   4.536   4.490
   16SAPS     N 1996   5.695   3.889   2.255
   16SAPS   HN1 1997   5.790   3.921   2.284
   16SAPS   HN2 1998   5.624   3.962   2.234
   16SAPS   HN3 1999   5.655   3.832   2.332
   16SAPS   C12 2000   5.716   3.811   2.128
   16SAPS  H12A 2001   5.648   3.727   2.142
   16SAPS   C13 2002   5.654   3.859   1.994
   16SAPS  O13A 2003   5.590   3.965   1.989
   16SAPS  O13B 2004   5.667   3.796   1.885
   16SAPS   C11 2005   5.865   3.759   2.115
   16SAPS  H11A 2006   5.931   3.847   2.098
   16SAPS  H11B 2007   5.860   3.694   2.025
   16SAPS     P 2008   6.045   3.616   2.230
   16SAPS   O13 2009   6.068   3.554   2.096
   16SAPS   O14 2010   6.141   3.713   2.287
   16SAPS   O12 2011   5.899   3.683   2.227
   16SAPS   O11 2012   6.032   3.510   2.348
   16SAPS    C1 2013   5.914   3.487   2.418
   16SAPS    HA 2014   5.824   3.495   2.353
   16SAPS    HB 2015   5.922   3.384   2.461
   16SAPS    C2 2016   5.901   3.576   2.537
   16SAPS    HS 2017   5.922   3.679   2.501
   16SAPS   O21 2018   5.999   3.545   2.642
   16SAPS   C21 2019   6.042   3.639   2.714
   16SAPS   O22 2020   6.018   3.759   2.703
   16SAPS   C22 2021   6.125   3.585   2.837
   16SAPS   H2R 2022   6.208   3.545   2.775
   16SAPS   H2S 2023   6.154   3.674   2.898
   16SAPS    C3 2024   5.757   3.586   2.599
   16SAPS    HX 2025   5.740   3.485   2.642
   16SAPS    HY 2026   5.670   3.591   2.531
   16SAPS   O31 2027   5.736   3.682   2.708
   16SAPS   C31 2028   5.711   3.807   2.657
   16SAPS   O32 2029   5.713   3.830   2.541
   16SAPS   C32 2030   5.695   3.904   2.768
   16SAPS   H2X 2031   5.794   3.948   2.789
   16SAPS   H2Y 2032   5.661   3.845   2.855
   16SAPS   C23 2033   6.064   3.468   2.925
   16SAPS   H3R 2034   6.156   3.430   2.975
   16SAPS   H3S 2035   6.026   3.381   2.867
   16SAPS   C24 2036   5.962   3.518   3.031
   16SAPS   H4R 2037   6.017   3.600   3.081
   16SAPS   H4S 2038   5.944   3.436   3.103
   16SAPS   C25 2039   5.826   3.560   2.977
   16SAPS   H5R 2040   5.798   3.530   2.875
   16SAPS   C26 2041   5.739   3.623   3.053
   16SAPS   H6R 2042   5.645   3.656   3.006
   16SAPS   C27 2043   5.754   3.678   3.193
   16SAPS   H7R 2044   5.858   3.657   3.226
   16SAPS   H7S 2045   5.699   3.607   3.258
   16SAPS   C28 2046   5.735   3.823   3.218
   16SAPS   H8R 2047   5.725   3.890   3.130
   16SAPS   C29 2048   5.721   3.876   3.345
   16SAPS   H9R 2049   5.716   3.986   3.342
   16SAPS  C210 2050   5.727   3.807   3.478
   16SAPS  H10R 2051   5.785   3.870   3.549
   16SAPS  H10S 2052   5.777   3.708   3.466
   16SAPS  C211 2053   5.592   3.777   3.540
   16SAPS  H11R 2054   5.504   3.771   3.474
   16SAPS  C212 2055   5.564   3.752   3.672
   16SAPS  H12R 2056   5.460   3.726   3.696
   16SAPS  C213 2057   5.660   3.723   3.785
   16SAPS  H13R 2058   5.709   3.821   3.806
   16SAPS  H13S 2059   5.744   3.657   3.755
   16SAPS  C214 2060   5.592   3.649   3.903
   16SAPS  H14R 2061   5.527   3.565   3.872
   16SAPS  C215 2062   5.583   3.683   4.029
   16SAPS  H15R 2063   5.516   3.627   4.097
   16SAPS  C216 2064   5.645   3.806   4.089
   16SAPS  H16R 2065   5.570   3.878   4.128
   16SAPS  H16S 2066   5.710   3.855   4.013
   16SAPS  C217 2067   5.742   3.771   4.203
   16SAPS  H17R 2068   5.683   3.720   4.282
   16SAPS  H17S 2069   5.780   3.865   4.249
   16SAPS  C218 2070   5.870   3.696   4.167
   16SAPS  H18R 2071   5.930   3.742   4.085
   16SAPS  H18S 2072   5.837   3.595   4.135
   16SAPS  C219 2073   5.954   3.654   4.295
   16SAPS  H19R 2074   6.005   3.558   4.275
   16SAPS  H19S 2075   5.883   3.652   4.381
   16SAPS  C220 2076   6.056   3.764   4.320
   16SAPS  H20R 2077   6.005   3.863   4.323
   16SAPS  H20S 2078   6.136   3.764   4.243
   16SAPS  H20T 2079   6.106   3.751   4.418
   16SAPS   C33 2080   5.593   4.020   2.726
   16SAPS   H3X 2081   5.500   3.970   2.691
   16SAPS   H3Y 2082   5.641   4.074   2.642
   16SAPS   C34 2083   5.550   4.119   2.835
   16SAPS   H4X 2084   5.468   4.178   2.789
   16SAPS   H4Y 2085   5.623   4.201   2.850
   16SAPS   C35 2086   5.506   4.062   2.973
   16SAPS   H5X 2087   5.584   3.989   3.003
   16SAPS   H5Y 2088   5.412   4.003   2.968
   16SAPS   C36 2089   5.493   4.172   3.076
   16SAPS   H6X 2090   5.430   4.253   3.032
   16SAPS   H6Y 2091   5.591   4.219   3.099
   16SAPS   C37 2092   5.448   4.121   3.206
   16SAPS   H7X 2093   5.506   4.035   3.246
   16SAPS   H7Y 2094   5.341   4.092   3.211
   16SAPS   C38 2095   5.452   4.233   3.316
   16SAPS   H8X 2096   5.545   4.295   3.308
   16SAPS   H8Y 2097   5.448   4.181   3.413
   16SAPS   C39 2098   5.332   4.327   3.324
   16SAPS   H9X 2099   5.337   4.386   3.418
   16SAPS   H9Y 2100   5.249   4.253   3.336
   16SAPS  C310 2101   5.316   4.419   3.208
   16SAPS  H10X 2102   5.289   4.350   3.125
   16SAPS  H10Y 2103   5.413   4.469   3.187
   16SAPS  C311 2104   5.198   4.521   3.226
   16SAPS  H11X 2105   5.170   4.559   3.327
   16SAPS  H11Y 2106   5.107   4.482   3.175
   16SAPS  C312 2107   5.223   4.650   3.140
   16SAPS  H12X 2108   5.246   4.617   3.036
   16SAPS  H12Y 2109   5.316   4.694   3.184
   16SAPS  C313 2110   5.103   4.738   3.142
   16SAPS  H13X 2111   5.090   4.771   3.247
   16SAPS  H13Y 2112   5.003   4.699   3.114
   16SAPS  C314 2113   5.136   4.864   3.049
   16SAPS  H14X 2114   5.128   4.836   2.941
   16SAPS  H14Y 2115   5.238   4.907   3.060
   16SAPS  C315 2116   5.028   4.978   3.063
   16SAPS  H15X 2117   5.013   5.007   3.169
   16SAPS  H15Y 2118   4.934   4.932   3.027
   16SAPS  C316 2119   5.044   5.101   2.967
   16SAPS  H16X 2120   5.073   5.068   2.865
   16SAPS  H16Y 2121   5.127   5.162   3.009
   16SAPS  C317 2122   4.914   5.178   2.964
   16SAPS  H17X 2123   4.840   5.104   2.926
   16SAPS  H17Y 2124   4.915   5.259   2.888
   16SAPS  C318 2125   4.882   5.243   3.099
   16SAPS  H18X 2126   4.858   5.174   3.182
   16SAPS  H18Y 2127   4.798   5.314   3.082
   16SAPS  H18Z 2128   4.972   5.305   3.122
   17SAPS     N 2129   1.735   2.316   1.897
   17SAPS   HN1 2130   1.703   2.415   1.908
   17SAPS   HN2 2131   1.686   2.250   1.961
   17SAPS   HN3 2132   1.835   2.301   1.918
   17SAPS   C12 2133   1.711   2.272   1.759
   17SAPS  H12A 2134   1.634   2.340   1.724
   17SAPS   C13 2135   1.838   2.280   1.673
   17SAPS  O13A 2136   1.935   2.344   1.719
   17SAPS  O13B 2137   1.830   2.262   1.552
   17SAPS   C11 2138   1.650   2.125   1.742
   17SAPS  H11A 2139   1.729   2.047   1.746
   17SAPS  H11B 2140   1.622   2.125   1.634
   17SAPS     P 2141   1.390   2.139   1.776
   17SAPS   O13 2142   1.389   2.269   1.707
   17SAPS   O14 2143   1.350   2.019   1.700
   17SAPS   O12 2144   1.534   2.111   1.825
   17SAPS   O11 2145   1.302   2.154   1.906
   17SAPS    C1 2146   1.343   2.237   2.012
   17SAPS    HA 2147   1.439   2.292   1.997
   17SAPS    HB 2148   1.275   2.324   2.012
   17SAPS    C2 2149   1.370   2.163   2.145
   17SAPS    HS 2150   1.447   2.224   2.197
   17SAPS   O21 2151   1.437   2.035   2.115
   17SAPS   C21 2152   1.571   2.048   2.091
   17SAPS   O22 2153   1.630   2.155   2.106
   17SAPS   C22 2154   1.632   1.913   2.054
   17SAPS   H2R 2155   1.591   1.890   1.953
   17SAPS   H2S 2156   1.743   1.912   2.048
   17SAPS    C3 2157   1.241   2.137   2.218
   17SAPS    HX 2158   1.173   2.056   2.184
   17SAPS    HY 2159   1.181   2.231   2.220
   17SAPS   O31 2160   1.261   2.122   2.367
   17SAPS   C31 2161   1.282   1.992   2.404
   17SAPS   O32 2162   1.282   1.903   2.322
   17SAPS   C32 2163   1.313   1.975   2.548
   17SAPS   H2X 2164   1.327   2.072   2.601
   17SAPS   H2Y 2165   1.408   1.920   2.563
   17SAPS   C23 2166   1.585   1.794   2.142
   17SAPS   H3R 2167   1.656   1.711   2.120
   17SAPS   H3S 2168   1.483   1.762   2.112
   17SAPS   C24 2169   1.597   1.822   2.291
   17SAPS   H4R 2170   1.538   1.914   2.309
   17SAPS   H4S 2171   1.704   1.849   2.305
   17SAPS   C25 2172   1.547   1.707   2.379
   17SAPS   H5R 2173   1.444   1.671   2.362
   17SAPS   C26 2174   1.604   1.645   2.479
   17SAPS   H6R 2175   1.558   1.555   2.523
   17SAPS   C27 2176   1.740   1.688   2.528
   17SAPS   H7R 2177   1.725   1.760   2.611
   17SAPS   H7S 2178   1.805   1.739   2.453
   17SAPS   C28 2179   1.828   1.570   2.573
   17SAPS   H8R 2180   1.877   1.517   2.490
   17SAPS   C29 2181   1.877   1.554   2.697
   17SAPS   H9R 2182   1.950   1.474   2.717
   17SAPS  C210 2183   1.835   1.634   2.816
   17SAPS  H10R 2184   1.737   1.685   2.799
   17SAPS  H10S 2185   1.908   1.715   2.838
   17SAPS  C211 2186   1.843   1.542   2.936
   17SAPS  H11R 2187   1.751   1.482   2.947
   17SAPS  C212 2188   1.942   1.524   3.023
   17SAPS  H12R 2189   1.927   1.455   3.108
   17SAPS  C213 2190   2.078   1.582   3.018
   17SAPS  H13R 2191   2.102   1.669   3.083
   17SAPS  H13S 2192   2.091   1.634   2.920
   17SAPS  C214 2193   2.186   1.475   3.013
   17SAPS  H14R 2194   2.150   1.376   2.979
   17SAPS  C215 2195   2.317   1.494   3.026
   17SAPS  H15R 2196   2.387   1.409   3.017
   17SAPS  C216 2197   2.376   1.624   3.053
   17SAPS  H16R 2198   2.304   1.709   3.054
   17SAPS  H16S 2199   2.458   1.646   2.981
   17SAPS  C217 2200   2.452   1.638   3.189
   17SAPS  H17R 2201   2.495   1.741   3.195
   17SAPS  H17S 2202   2.532   1.562   3.200
   17SAPS  C218 2203   2.356   1.628   3.314
   17SAPS  H18R 2204   2.310   1.530   3.288
   17SAPS  H18S 2205   2.275   1.704   3.311
   17SAPS  C219 2206   2.424   1.607   3.457
   17SAPS  H19R 2207   2.348   1.599   3.537
   17SAPS  H19S 2208   2.486   1.698   3.477
   17SAPS  C220 2209   2.517   1.486   3.466
   17SAPS  H20R 2210   2.582   1.490   3.556
   17SAPS  H20S 2211   2.591   1.488   3.382
   17SAPS  H20T 2212   2.462   1.389   3.470
   17SAPS   C33 2213   1.201   1.906   2.629
   17SAPS   H3X 2214   1.231   1.885   2.734
   17SAPS   H3Y 2215   1.167   1.807   2.592
   17SAPS   C34 2216   1.074   1.994   2.646
   17SAPS   H4X 2217   0.998   1.936   2.703
   17SAPS   H4Y 2218   1.029   2.022   2.548
   17SAPS   C35 2219   1.086   2.134   2.712
   17SAPS   H5X 2220   0.982   2.170   2.728
   17SAPS   H5Y 2221   1.129   2.193   2.628
   17SAPS   C36 2222   1.168   2.129   2.841
   17SAPS   H6X 2223   1.177   2.236   2.869
   17SAPS   H6Y 2224   1.269   2.084   2.833
   17SAPS   C37 2225   1.088   2.056   2.951
   17SAPS   H7X 2226   1.057   1.958   2.909
   17SAPS   H7Y 2227   0.995   2.114   2.969
   17SAPS   C38 2228   1.156   2.044   3.085
   17SAPS   H8X 2229   1.204   2.142   3.109
   17SAPS   H8Y 2230   1.231   1.962   3.078
   17SAPS   C39 2231   1.048   2.008   3.192
   17SAPS   H9X 2232   1.000   1.912   3.161
   17SAPS   H9Y 2233   0.973   2.089   3.184
   17SAPS  C310 2234   1.101   1.993   3.334
   17SAPS  H10X 2235   1.164   2.082   3.356
   17SAPS  H10Y 2236   1.168   1.905   3.340
   17SAPS  C311 2237   0.990   1.987   3.448
   17SAPS  H11X 2238   0.942   1.887   3.447
   17SAPS  H11Y 2239   0.920   2.068   3.420
   17SAPS  C312 2240   1.057   1.997   3.592
   17SAPS  H12X 2241   1.119   2.089   3.603
   17SAPS  H12Y 2242   1.118   1.905   3.600
   17SAPS  C313 2243   0.959   2.001   3.708
   17SAPS  H13X 2244   0.885   1.919   3.710
   17SAPS  H13Y 2245   0.894   2.088   3.683
   17SAPS  C314 2246   1.001   2.056   3.845
   17SAPS  H14X 2247   0.918   2.116   3.889
   17SAPS  H14Y 2248   1.092   2.119   3.835
   17SAPS  C315 2249   1.018   1.940   3.935
   17SAPS  H15X 2250   1.120   1.897   3.920
   17SAPS  H15Y 2251   0.940   1.867   3.906
   17SAPS  C316 2252   0.998   1.972   4.087
   17SAPS  H16X 2253   0.983   1.884   4.154
   17SAPS  H16Y 2254   0.911   2.039   4.106
   17SAPS  C317 2255   1.120   2.050   4.137
   17SAPS  H17X 2256   1.112   2.150   4.090
   17SAPS  H17Y 2257   1.218   2.002   4.119
   17SAPS  C318 2258   1.104   2.077   4.293
   17SAPS  H18X 2259   1.197   2.113   4.341
   17SAPS  H18Y 2260   1.078   1.977   4.333
   17SAPS  H18Z 2261   1.018   2.144   4.313
   18SAPS     N 2262   4.538   2.453   2.268
   18SAPS   HN1 2263   4.631   2.472   2.309
   18SAPS   HN2 2264   4.460   2.431   2.334
   18SAPS   HN3 2265   4.537   2.375   2.199
   18SAPS   C12 2266   4.496   2.572   2.186
   18SAPS  H12A 2267   4.589   2.617   2.153
   18SAPS   C13 2268   4.406   2.534   2.067
   18SAPS  O13A 2269   4.367   2.412   2.048
   18SAPS  O13B 2270   4.378   2.622   1.980
   18SAPS   C11 2271   4.422   2.672   2.282
   18SAPS  H11A 2272   4.405   2.769   2.229
   18SAPS  H11B 2273   4.500   2.696   2.357
   18SAPS     P 2274   4.283   2.554   2.480
   18SAPS   O13 2275   4.144   2.531   2.522
   18SAPS   O14 2276   4.370   2.435   2.464
   18SAPS   O12 2277   4.295   2.628   2.342
   18SAPS   O11 2278   4.346   2.662   2.576
   18SAPS    C1 2279   4.471   2.652   2.644
   18SAPS    HA 2280   4.520   2.560   2.606
   18SAPS    HB 2281   4.537   2.741   2.635
   18SAPS    C2 2282   4.453   2.630   2.797
   18SAPS    HS 2283   4.550   2.636   2.850
   18SAPS   O21 2284   4.399   2.498   2.806
   18SAPS   C21 2285   4.447   2.414   2.888
   18SAPS   O22 2286   4.544   2.432   2.959
   18SAPS   C22 2287   4.366   2.291   2.891
   18SAPS   H2R 2288   4.306   2.288   2.797
   18SAPS   H2S 2289   4.446   2.215   2.883
   18SAPS    C3 2290   4.359   2.732   2.862
   18SAPS    HX 2291   4.265   2.745   2.805
   18SAPS    HY 2292   4.406   2.832   2.868
   18SAPS   O31 2293   4.318   2.687   2.994
   18SAPS   C31 2294   4.407   2.713   3.090
   18SAPS   O32 2295   4.516   2.764   3.063
   18SAPS   C32 2296   4.351   2.672   3.226
   18SAPS   H2X 2297   4.250   2.629   3.215
   18SAPS   H2Y 2298   4.354   2.770   3.279
   18SAPS   C23 2299   4.290   2.290   3.020
   18SAPS   H3R 2300   4.251   2.390   3.047
   18SAPS   H3S 2301   4.366   2.265   3.097
   18SAPS   C24 2302   4.176   2.189   3.022
   18SAPS   H4R 2303   4.108   2.216   2.938
   18SAPS   H4S 2304   4.124   2.204   3.119
   18SAPS   C25 2305   4.219   2.047   3.002
   18SAPS   H5R 2306   4.202   2.009   2.901
   18SAPS   C26 2307   4.258   1.958   3.095
   18SAPS   H6R 2308   4.291   1.855   3.074
   18SAPS   C27 2309   4.287   1.987   3.238
   18SAPS   H7R 2310   4.229   1.903   3.282
   18SAPS   H7S 2311   4.234   2.080   3.267
   18SAPS   C28 2312   4.422   1.971   3.308
   18SAPS   H8R 2313   4.482   1.890   3.263
   18SAPS   C29 2314   4.452   2.013   3.434
   18SAPS   H9R 2315   4.551   1.995   3.480
   18SAPS  C210 2316   4.368   2.101   3.518
   18SAPS  H10R 2317   4.296   2.162   3.459
   18SAPS  H10S 2318   4.434   2.156   3.588
   18SAPS  C211 2319   4.280   2.016   3.604
   18SAPS  H11R 2320   4.196   1.975   3.545
   18SAPS  C212 2321   4.287   2.001   3.736
   18SAPS  H12R 2322   4.216   1.935   3.788
   18SAPS  C213 2323   4.382   2.068   3.825
   18SAPS  H13R 2324   4.484   2.067   3.781
   18SAPS  H13S 2325   4.399   2.004   3.914
   18SAPS  C214 2326   4.340   2.209   3.874
   18SAPS  H14R 2327   4.250   2.256   3.832
   18SAPS  C215 2328   4.393   2.256   3.992
   18SAPS  H15R 2329   4.345   2.342   4.041
   18SAPS  C216 2330   4.501   2.200   4.076
   18SAPS  H16R 2331   4.586   2.173   4.009
   18SAPS  H16S 2332   4.467   2.115   4.138
   18SAPS  C217 2333   4.556   2.312   4.167
   18SAPS  H17R 2334   4.472   2.351   4.228
   18SAPS  H17S 2335   4.603   2.394   4.109
   18SAPS  C218 2336   4.658   2.239   4.257
   18SAPS  H18R 2337   4.749   2.303   4.265
   18SAPS  H18S 2338   4.689   2.142   4.212
   18SAPS  C219 2339   4.612   2.213   4.400
   18SAPS  H19R 2340   4.510   2.172   4.385
   18SAPS  H19S 2341   4.598   2.301   4.467
   18SAPS  C220 2342   4.708   2.119   4.473
   18SAPS  H20R 2343   4.712   2.015   4.434
   18SAPS  H20S 2344   4.668   2.116   4.576
   18SAPS  H20T 2345   4.814   2.154   4.477
   18SAPS   C33 2346   4.450   2.593   3.313
   18SAPS   H3X 2347   4.550   2.640   3.323
   18SAPS   H3Y 2348   4.454   2.489   3.275
   18SAPS   C34 2349   4.394   2.597   3.461
   18SAPS   H4X 2350   4.286   2.576   3.476
   18SAPS   H4Y 2351   4.412   2.699   3.501
   18SAPS   C35 2352   4.465   2.485   3.545
   18SAPS   H5X 2353   4.574   2.503   3.534
   18SAPS   H5Y 2354   4.436   2.387   3.501
   18SAPS   C36 2355   4.433   2.497   3.699
   18SAPS   H6X 2356   4.485   2.410   3.745
   18SAPS   H6Y 2357   4.323   2.479   3.701
   18SAPS   C37 2358   4.470   2.628   3.773
   18SAPS   H7X 2359   4.488   2.713   3.703
   18SAPS   H7Y 2360   4.576   2.610   3.801
   18SAPS   C38 2361   4.397   2.659   3.908
   18SAPS   H8X 2362   4.341   2.569   3.942
   18SAPS   H8Y 2363   4.332   2.748   3.896
   18SAPS   C39 2364   4.489   2.700   4.017
   18SAPS   H9X 2365   4.547   2.794   4.002
   18SAPS   H9Y 2366   4.567   2.622   4.027
   18SAPS  C310 2367   4.414   2.700   4.156
   18SAPS  H10X 2368   4.335   2.622   4.149
   18SAPS  H10Y 2369   4.375   2.803   4.175
   18SAPS  C311 2370   4.505   2.666   4.277
   18SAPS  H11X 2371   4.598   2.726   4.268
   18SAPS  H11Y 2372   4.535   2.559   4.271
   18SAPS  C312 2373   4.447   2.703   4.412
   18SAPS  H12X 2374   4.340   2.673   4.424
   18SAPS  H12Y 2375   4.449   2.814   4.426
   18SAPS  C313 2376   4.512   2.641   4.532
   18SAPS  H13X 2377   4.611   2.689   4.545
   18SAPS  H13Y 2378   4.525   2.531   4.535
   18SAPS  C314 2379   4.427   2.684   4.657
   18SAPS  H14X 2380   4.321   2.651   4.656
   18SAPS  H14Y 2381   4.438   2.794   4.642
   18SAPS  C315 2382   4.495   2.633   4.782
   18SAPS  H15X 2383   4.582   2.700   4.796
   18SAPS  H15Y 2384   4.512   2.523   4.772
   18SAPS  C316 2385   4.408   2.646   4.908
   18SAPS  H16X 2386   4.313   2.601   4.872
   18SAPS  H16Y 2387   4.391   2.755   4.919
   18SAPS  C317 2388   4.465   2.583   5.033
   18SAPS  H17X 2389   4.539   2.641   5.092
   18SAPS  H17Y 2390   4.507   2.490   4.990
   18SAPS  C318 2391   4.357   2.566   5.140
   18SAPS  H18X 2392   4.307   2.661   5.169
   18SAPS  H18Y 2393   4.406   2.521   5.230
   18SAPS  H18Z 2394   4.281   2.494   5.103
   19SAPS     N 2395   3.954   5.238   2.120
   19SAPS   HN1 2396   3.928   5.320   2.178
   19SAPS   HN2 2397   3.869   5.197   2.076
   19SAPS   HN3 2398   3.991   5.163   2.183
   19SAPS   C12 2399   4.055   5.278   2.017
   19SAPS  H12A 2400   4.128   5.343   2.063
   19SAPS   C13 2401   4.147   5.163   1.970
   19SAPS  O13A 2402   4.141   5.059   2.040
   19SAPS  O13B 2403   4.257   5.187   1.905
   19SAPS   C11 2404   3.980   5.368   1.905
   19SAPS  H11A 2405   4.054   5.425   1.846
   19SAPS  H11B 2406   3.913   5.440   1.957
   19SAPS     P 2407   3.753   5.240   1.840
   19SAPS   O13 2408   3.669   5.355   1.896
   19SAPS   O14 2409   3.717   5.153   1.723
   19SAPS   O12 2410   3.902   5.292   1.821
   19SAPS   O11 2411   3.783   5.143   1.957
   19SAPS    C1 2412   3.678   5.063   2.015
   19SAPS    HA 2413   3.586   5.124   2.025
   19SAPS    HB 2414   3.651   4.979   1.947
   19SAPS    C2 2415   3.708   5.006   2.152
   19SAPS    HS 2416   3.628   4.937   2.187
   19SAPS   O21 2417   3.738   5.113   2.245
   19SAPS   C21 2418   3.642   5.166   2.311
   19SAPS   O22 2419   3.523   5.136   2.302
   19SAPS   C22 2420   3.695   5.246   2.424
   19SAPS   H2R 2421   3.802   5.220   2.431
   19SAPS   H2S 2422   3.688   5.353   2.394
   19SAPS    C3 2423   3.838   4.909   2.152
   19SAPS    HX 2424   3.915   4.965   2.095
   19SAPS    HY 2425   3.818   4.813   2.101
   19SAPS   O31 2426   3.885   4.870   2.285
   19SAPS   C31 2427   3.962   4.955   2.360
   19SAPS   O32 2428   3.990   5.068   2.327
   19SAPS   C32 2429   3.992   4.891   2.494
   19SAPS   H2X 2430   4.020   4.790   2.459
   19SAPS   H2Y 2431   3.895   4.883   2.548
   19SAPS   C23 2432   3.618   5.222   2.558
   19SAPS   H3R 2433   3.510   5.248   2.544
   19SAPS   H3S 2434   3.657   5.294   2.633
   19SAPS   C24 2435   3.617   5.076   2.607
   19SAPS   H4R 2436   3.716   5.026   2.612
   19SAPS   H4S 2437   3.553   5.026   2.531
   19SAPS   C25 2438   3.543   5.065   2.737
   19SAPS   H5R 2439   3.445   5.015   2.739
   19SAPS   C26 2440   3.609   5.086   2.855
   19SAPS   H6R 2441   3.554   5.063   2.947
   19SAPS   C27 2442   3.748   5.141   2.888
   19SAPS   H7R 2443   3.784   5.180   2.791
   19SAPS   H7S 2444   3.816   5.059   2.920
   19SAPS   C28 2445   3.724   5.263   2.982
   19SAPS   H8R 2446   3.664   5.347   2.944
   19SAPS   C29 2447   3.787   5.283   3.109
   19SAPS   H9R 2448   3.759   5.375   3.164
   19SAPS  C210 2449   3.879   5.190   3.182
   19SAPS  H10R 2450   3.983   5.221   3.158
   19SAPS  H10S 2451   3.864   5.086   3.146
   19SAPS  C211 2452   3.867   5.206   3.334
   19SAPS  H11R 2453   3.939   5.274   3.382
   19SAPS  C212 2454   3.769   5.141   3.412
   19SAPS  H12R 2455   3.763   5.163   3.520
   19SAPS  C213 2456   3.656   5.051   3.363
   19SAPS  H13R 2457   3.644   4.970   3.438
   19SAPS  H13S 2458   3.673   5.016   3.259
   19SAPS  C214 2459   3.533   5.134   3.347
   19SAPS  H14R 2460   3.541   5.217   3.275
   19SAPS  C215 2461   3.417   5.126   3.407
   19SAPS  H15R 2462   3.334   5.194   3.381
   19SAPS  C216 2463   3.374   5.018   3.507
   19SAPS  H16R 2464   3.432   4.923   3.501
   19SAPS  H16S 2465   3.269   4.991   3.485
   19SAPS  C217 2466   3.367   5.081   3.643
   19SAPS  H17R 2467   3.311   5.175   3.628
   19SAPS  H17S 2468   3.472   5.089   3.679
   19SAPS  C218 2469   3.284   5.001   3.744
   19SAPS  H18R 2470   3.340   4.906   3.755
   19SAPS  H18S 2471   3.192   4.969   3.691
   19SAPS  C219 2472   3.252   5.069   3.879
   19SAPS  H19R 2473   3.206   5.159   3.832
   19SAPS  H19S 2474   3.344   5.104   3.929
   19SAPS  C220 2475   3.157   4.999   3.971
   19SAPS  H20R 2476   3.072   4.964   3.908
   19SAPS  H20S 2477   3.119   5.073   4.045
   19SAPS  H20T 2478   3.201   4.905   4.010
   19SAPS   C33 2479   4.103   4.955   2.579
   19SAPS   H3X 2480   4.058   5.056   2.587
   19SAPS   H3Y 2481   4.198   4.947   2.521
   19SAPS   C34 2482   4.096   4.883   2.715
   19SAPS   H4X 2483   4.155   4.789   2.715
   19SAPS   H4Y 2484   3.992   4.853   2.742
   19SAPS   C35 2485   4.142   4.977   2.830
   19SAPS   H5X 2486   4.063   5.055   2.837
   19SAPS   H5Y 2487   4.232   5.039   2.807
   19SAPS   C36 2488   4.151   4.907   2.965
   19SAPS   H6X 2489   4.223   4.824   2.953
   19SAPS   H6Y 2490   4.054   4.855   2.984
   19SAPS   C37 2491   4.188   5.001   3.077
   19SAPS   H7X 2492   4.128   5.094   3.087
   19SAPS   H7Y 2493   4.292   5.037   3.061
   19SAPS   C38 2494   4.207   4.932   3.217
   19SAPS   H8X 2495   4.255   5.000   3.290
   19SAPS   H8Y 2496   4.280   4.849   3.208
   19SAPS   C39 2497   4.077   4.886   3.288
   19SAPS   H9X 2498   4.022   4.802   3.241
   19SAPS   H9Y 2499   4.011   4.974   3.304
   19SAPS  C310 2500   4.103   4.840   3.435
   19SAPS  H10X 2501   4.140   4.918   3.505
   19SAPS  H10Y 2502   4.179   4.759   3.438
   19SAPS  C311 2503   3.980   4.766   3.495
   19SAPS  H11X 2504   3.975   4.665   3.449
   19SAPS  H11Y 2505   3.883   4.814   3.473
   19SAPS  C312 2506   3.973   4.739   3.641
   19SAPS  H12X 2507   4.067   4.690   3.673
   19SAPS  H12Y 2508   3.896   4.660   3.658
   19SAPS  C313 2509   3.938   4.859   3.727
   19SAPS  H13X 2510   3.853   4.914   3.682
   19SAPS  H13Y 2511   4.029   4.922   3.717
   19SAPS  C314 2512   3.934   4.825   3.874
   19SAPS  H14X 2513   4.032   4.781   3.905
   19SAPS  H14Y 2514   3.862   4.741   3.885
   19SAPS  C315 2515   3.906   4.951   3.954
   19SAPS  H15X 2516   3.803   4.987   3.933
   19SAPS  H15Y 2517   3.983   5.025   3.926
   19SAPS  C316 2518   3.937   4.940   4.103
   19SAPS  H16X 2519   4.043   4.911   4.116
   19SAPS  H16Y 2520   3.870   4.859   4.139
   19SAPS  C317 2521   3.909   5.071   4.182
   19SAPS  H17X 2522   3.936   5.156   4.116
   19SAPS  H17Y 2523   3.986   5.071   4.261
   19SAPS  C318 2524   3.772   5.112   4.243
   19SAPS  H18X 2525   3.697   5.093   4.162
   19SAPS  H18Y 2526   3.773   5.220   4.269
   19SAPS  H18Z 2527   3.744   5.045   4.327
   20SAPS     N 2528   5.018   5.853   2.272
   20SAPS   HN1 2529   4.991   5.851   2.373
   20SAPS   HN2 2530   4.936   5.819   2.217
   20SAPS   HN3 2531   5.095   5.783   2.261
   20SAPS   C12 2532   5.069   5.979   2.217
   20SAPS  H12A 2533   5.159   6.010   2.269
   20SAPS   C13 2534   5.120   5.974   2.073
   20SAPS  O13A 2535   5.092   5.884   1.995
   20SAPS  O13B 2536   5.195   6.070   2.038
   20SAPS   C11 2537   4.966   6.092   2.221
   20SAPS  H11A 2538   4.996   6.178   2.157
   20SAPS  H11B 2539   4.954   6.136   2.322
   20SAPS     P 2540   4.707   6.124   2.169
   20SAPS   O13 2541   4.733   6.258   2.126
   20SAPS   O14 2542   4.603   6.041   2.092
   20SAPS   O12 2543   4.842   6.053   2.168
   20SAPS   O11 2544   4.669   6.110   2.319
   20SAPS    C1 2545   4.616   5.982   2.354
   20SAPS    HA 2546   4.528   5.958   2.290
   20SAPS    HB 2547   4.698   5.907   2.350
   20SAPS    C2 2548   4.590   5.971   2.510
   20SAPS    HS 2549   4.503   6.037   2.535
   20SAPS   O21 2550   4.711   5.987   2.586
   20SAPS   C21 2551   4.709   6.104   2.654
   20SAPS   O22 2552   4.623   6.186   2.659
   20SAPS   C22 2553   4.829   6.098   2.753
   20SAPS   H2R 2554   4.813   6.025   2.835
   20SAPS   H2S 2555   4.921   6.058   2.704
   20SAPS    C3 2556   4.516   5.826   2.547
   20SAPS    HX 2557   4.484   5.826   2.653
   20SAPS    HY 2558   4.596   5.753   2.520
   20SAPS   O31 2559   4.404   5.788   2.456
   20SAPS   C31 2560   4.289   5.843   2.497
   20SAPS   O32 2561   4.278   5.910   2.600
   20SAPS   C32 2562   4.178   5.813   2.404
   20SAPS   H2X 2563   4.151   5.708   2.427
   20SAPS   H2Y 2564   4.224   5.816   2.303
   20SAPS   C23 2565   4.864   6.235   2.815
   20SAPS   H3R 2566   4.952   6.229   2.882
   20SAPS   H3S 2567   4.783   6.262   2.885
   20SAPS   C24 2568   4.900   6.335   2.702
   20SAPS   H4R 2569   4.907   6.432   2.755
   20SAPS   H4S 2570   4.815   6.344   2.631
   20SAPS   C25 2571   5.025   6.309   2.622
   20SAPS   H5R 2572   5.000   6.263   2.526
   20SAPS   C26 2573   5.153   6.328   2.670
   20SAPS   H6R 2574   5.234   6.296   2.602
   20SAPS   C27 2575   5.207   6.391   2.801
   20SAPS   H7R 2576   5.290   6.326   2.835
   20SAPS   H7S 2577   5.127   6.379   2.877
   20SAPS   C28 2578   5.255   6.534   2.775
   20SAPS   H8R 2579   5.304   6.547   2.678
   20SAPS   C29 2580   5.251   6.640   2.856
   20SAPS   H9R 2581   5.288   6.735   2.815
   20SAPS  C210 2582   5.209   6.638   3.004
   20SAPS  H10R 2583   5.266   6.553   3.047
   20SAPS  H10S 2584   5.104   6.612   3.026
   20SAPS  C211 2585   5.247   6.762   3.084
   20SAPS  H11R 2586   5.267   0.038   3.025
   20SAPS  C212 2587   5.249   6.772   3.220
   20SAPS  H12R 2588   5.255   0.057   3.265
   20SAPS  C213 2589   5.220   6.659   3.321
   20SAPS  H13R 2590   5.191   6.566   3.268
   20SAPS  H13S 2591   5.136   6.688   3.388
   20SAPS  C214 2592   5.343   6.629   3.396
   20SAPS  H14R 2593   5.423   6.596   3.328
   20SAPS  C215 2594   5.372   6.645   3.528
   20SAPS  H15R 2595   5.464   6.598   3.567
   20SAPS  C216 2596   5.272   6.686   3.638
   20SAPS  H16R 2597   5.167   6.657   3.615
   20SAPS  H16S 2598   5.245   6.792   3.616
   20SAPS  C217 2599   5.313   6.670   3.785
   20SAPS  H17R 2600   5.239   6.714   3.856
   20SAPS  H17S 2601   5.415   6.710   3.802
   20SAPS  C218 2602   5.320   6.520   3.829
   20SAPS  H18R 2603   5.379   6.464   3.754
   20SAPS  H18S 2604   5.219   6.477   3.814
   20SAPS  C219 2605   5.378   6.492   3.969
   20SAPS  H19R 2606   5.470   6.554   3.963
   20SAPS  H19S 2607   5.393   6.384   3.986
   20SAPS  C220 2608   5.285   6.543   4.085
   20SAPS  H20R 2609   5.340   6.545   4.182
   20SAPS  H20S 2610   5.192   6.484   4.092
   20SAPS  H20T 2611   5.247   6.641   4.049
   20SAPS   C33 2612   4.063   5.912   2.421
   20SAPS   H3X 2613   3.998   5.906   2.331
   20SAPS   H3Y 2614   4.096   6.016   2.437
   20SAPS   C34 2615   3.972   5.888   2.544
   20SAPS   H4X 2616   3.896   5.968   2.544
   20SAPS   H4Y 2617   4.035   5.901   2.635
   20SAPS   C35 2618   3.898   5.757   2.545
   20SAPS   H5X 2619   3.969   5.673   2.555
   20SAPS   H5Y 2620   3.854   5.740   2.445
   20SAPS   C36 2621   3.799   5.743   2.661
   20SAPS   H6X 2622   3.773   5.635   2.656
   20SAPS   H6Y 2623   3.704   5.798   2.645
   20SAPS   C37 2624   3.849   5.782   2.798
   20SAPS   H7X 2625   3.850   5.893   2.794
   20SAPS   H7Y 2626   3.957   5.757   2.808
   20SAPS   C38 2627   3.762   5.747   2.921
   20SAPS   H8X 2628   3.737   5.640   2.900
   20SAPS   H8Y 2629   3.672   5.812   2.924
   20SAPS   C39 2630   3.836   5.756   3.053
   20SAPS   H9X 2631   3.875   5.860   3.058
   20SAPS   H9Y 2632   3.920   5.691   3.022
   20SAPS  C310 2633   3.767   5.714   3.182
   20SAPS  H10X 2634   3.723   5.612   3.176
   20SAPS  H10Y 2635   3.682   5.785   3.195
   20SAPS  C311 2636   3.861   5.715   3.304
   20SAPS  H11X 2637   3.900   5.815   3.333
   20SAPS  H11Y 2638   3.962   5.672   3.286
   20SAPS  C312 2639   3.796   5.649   3.426
   20SAPS  H12X 2640   3.767   5.542   3.419
   20SAPS  H12Y 2641   3.712   5.714   3.461
   20SAPS  C313 2642   3.893   5.663   3.547
   20SAPS  H13X 2643   3.926   5.769   3.553
   20SAPS  H13Y 2644   3.985   5.607   3.519
   20SAPS  C314 2645   3.836   5.626   3.685
   20SAPS  H14X 2646   3.756   5.702   3.691
   20SAPS  H14Y 2647   3.914   5.654   3.759
   20SAPS  C315 2648   3.792   5.483   3.701
   20SAPS  H15X 2649   3.874   5.415   3.669
   20SAPS  H15Y 2650   3.703   5.453   3.641
   20SAPS  C316 2651   3.762   5.456   3.851
   20SAPS  H16X 2652   3.659   5.494   3.867
   20SAPS  H16Y 2653   3.836   5.516   3.908
   20SAPS  C317 2654   3.756   5.307   3.886
   20SAPS  H17X 2655   3.729   5.303   3.993
   20SAPS  H17Y 2656   3.858   5.270   3.863
   20SAPS  C318 2657   3.648   5.234   3.812
   20SAPS  H18X 2658   3.630   5.133   3.856
   20SAPS  H18Y 2659   3.673   5.217   3.705
   20SAPS  H18Z 2660   3.551   5.287   3.818
   21CHL1    C3 2661   1.290   3.744   5.951
   21CHL1    H3 2662   1.291   3.638   5.983
   21CHL1    O3 2663   1.234   3.823   6.059
   21CHL1   H3' 2664   1.234   3.917   6.037
   21CHL1    C4 2665   1.431   3.805   5.916
   21CHL1   H4A 2666   1.416   3.915   5.911
   21CHL1   H4B 2667   1.489   3.771   6.004
   21CHL1    C5 2668   1.490   3.742   5.790
   21CHL1    C6 2669   1.606   3.679   5.784
   21CHL1    H6 2670   1.667   3.665   5.874
   21CHL1    C7 2671   1.674   3.624   5.662
   21CHL1   H7A 2672   1.781   3.650   5.651
   21CHL1   H7B 2673   1.669   3.513   5.664
   21CHL1    C8 2674   1.610   3.675   5.535
   21CHL1    H8 2675   1.645   3.779   5.514
   21CHL1   C14 2676   1.631   3.587   5.412
   21CHL1   H14 2677   1.572   3.493   5.423
   21CHL1   C15 2678   1.774   3.535   5.402
   21CHL1  H15A 2679   1.853   3.610   5.422
   21CHL1  H15B 2680   1.793   3.455   5.477
   21CHL1   C16 2681   1.785   3.489   5.254
   21CHL1  H16A 2682   1.876   3.536   5.212
   21CHL1  H16B 2683   1.788   3.379   5.272
   21CHL1   C17 2684   1.656   3.530   5.182
   21CHL1   H17 2685   1.584   3.446   5.187
   21CHL1   C13 2686   1.588   3.641   5.273
   21CHL1   C18 2687   1.660   3.770   5.239
   21CHL1  H18A 2688   1.769   3.756   5.254
   21CHL1  H18B 2689   1.634   3.805   5.137
   21CHL1  H18C 2690   1.629   3.849   5.311
   21CHL1   C12 2691   1.432   3.659   5.278
   21CHL1  H12A 2692   1.405   3.710   5.184
   21CHL1  H12B 2693   1.372   3.566   5.281
   21CHL1   C11 2694   1.392   3.740   5.408
   21CHL1  H11A 2695   1.436   3.841   5.392
   21CHL1  H11B 2696   1.281   3.742   5.414
   21CHL1    C9 2697   1.457   3.682   5.542
   21CHL1    H9 2698   1.423   3.579   5.565
   21CHL1   C10 2699   1.403   3.759   5.672
   21CHL1   C19 2700   1.398   3.914   5.633
   21CHL1  H19A 2701   1.317   3.931   5.558
   21CHL1  H19B 2702   1.389   3.985   5.718
   21CHL1  H19C 2703   1.495   3.948   5.592
   21CHL1    C1 2704   1.262   3.702   5.707
   21CHL1   H1A 2705   1.199   3.709   5.616
   21CHL1   H1B 2706   1.267   3.591   5.711
   21CHL1    C2 2707   1.203   3.757   5.831
   21CHL1   H2A 2708   1.103   3.710   5.847
   21CHL1   H2B 2709   1.177   3.864   5.811
   21CHL1   C20 2710   1.679   3.555   5.038
   21CHL1   H20 2711   1.738   3.646   5.015
   21CHL1   C21 2712   1.546   3.580   4.965
   21CHL1  H21A 2713   1.577   3.595   4.859
   21CHL1  H21B 2714   1.497   3.675   4.994
   21CHL1  H21C 2715   1.475   3.495   4.979
   21CHL1   C22 2716   1.741   3.427   4.970
   21CHL1  H22A 2717   1.843   3.403   5.007
   21CHL1  H22B 2718   1.677   3.338   4.988
   21CHL1   C23 2719   1.764   3.438   4.815
   21CHL1  H23A 2720   1.820   3.348   4.780
   21CHL1  H23B 2721   1.664   3.426   4.768
   21CHL1   C24 2722   1.843   3.558   4.766
   21CHL1  H24A 2723   1.795   3.651   4.802
   21CHL1  H24B 2724   1.940   3.549   4.820
   21CHL1   C25 2725   1.873   3.562   4.617
   21CHL1   H25 2726   1.774   3.557   4.567
   21CHL1   C26 2727   1.946   3.704   4.581
   21CHL1  H26A 2728   2.022   3.728   4.658
   21CHL1  H26B 2729   1.978   3.680   4.477
   21CHL1  H26C 2730   1.865   3.780   4.580
   21CHL1   C27 2731   1.959   3.443   4.570
   21CHL1  H27A 2732   1.986   3.455   4.462
   21CHL1  H27B 2733   2.052   3.442   4.630
   21CHL1  H27C 2734   1.908   3.345   4.576
   22CHL1    C3 2735   1.845   2.301   6.261
   22CHL1    H3 2736   1.942   2.356   6.267
   22CHL1    O3 2737   1.783   2.286   6.385
   22CHL1   H3' 2738   1.695   2.251   6.370
   22CHL1    C4 2739   1.744   2.388   6.178
   22CHL1   H4A 2740   1.640   2.353   6.193
   22CHL1   H4B 2741   1.758   2.490   6.220
   22CHL1    C5 2742   1.787   2.397   6.029
   22CHL1    C6 2743   1.789   2.509   5.956
   22CHL1    H6 2744   1.751   2.599   6.008
   22CHL1    C7 2745   1.813   2.519   5.810
   22CHL1   H7A 2746   1.740   2.590   5.765
   22CHL1   H7B 2747   1.915   2.556   5.788
   22CHL1    C8 2748   1.794   2.384   5.737
   22CHL1    H8 2749   1.686   2.359   5.731
   22CHL1   C14 2750   1.866   2.393   5.605
   22CHL1   H14 2751   1.973   2.416   5.630
   22CHL1   C15 2752   1.841   2.508   5.513
   22CHL1  H15A 2753   1.732   2.524   5.498
   22CHL1  H15B 2754   1.886   2.603   5.550
   22CHL1   C16 2755   1.896   2.463   5.374
   22CHL1  H16A 2756   1.808   2.461   5.306
   22CHL1  H16B 2757   1.983   2.523   5.338
   22CHL1   C17 2758   1.926   2.312   5.392
   22CHL1   H17 2759   2.036   2.311   5.406
   22CHL1   C13 2760   1.854   2.269   5.527
   22CHL1   C18 2761   1.712   2.235   5.485
   22CHL1  H18A 2762   1.705   2.138   5.431
   22CHL1  H18B 2763   1.640   2.233   5.569
   22CHL1  H18C 2764   1.677   2.304   5.405
   22CHL1   C12 2765   1.917   2.151   5.594
   22CHL1  H12A 2766   1.882   2.050   5.563
   22CHL1  H12B 2767   2.026   2.163   5.581
   22CHL1   C11 2768   1.870   2.142   5.746
   22CHL1  H11A 2769   1.769   2.097   5.738
   22CHL1  H11B 2770   1.929   2.069   5.805
   22CHL1    C9 2771   1.869   2.279   5.819
   22CHL1    H9 2772   1.977   2.306   5.826
   22CHL1   C10 2773   1.819   2.256   5.965
   22CHL1   C19 2774   1.682   2.177   5.967
   22CHL1  H19A 2775   1.639   2.205   5.868
   22CHL1  H19B 2776   1.693   2.067   5.965
   22CHL1  H19C 2777   1.622   2.182   6.060
   22CHL1    C1 2778   1.932   2.184   6.060
   22CHL1   H1A 2779   1.950   2.082   6.020
   22CHL1   H1B 2780   2.027   2.240   6.065
   22CHL1    C2 2781   1.878   2.166   6.205
   22CHL1   H2A 2782   1.947   2.111   6.273
   22CHL1   H2B 2783   1.783   2.108   6.199
   22CHL1   C20 2784   1.912   2.227   5.265
   22CHL1   H20 2785   1.808   2.218   5.227
   22CHL1   C21 2786   1.976   2.090   5.294
   22CHL1  H21A 2787   2.085   2.091   5.317
   22CHL1  H21B 2788   1.969   2.019   5.209
   22CHL1  H21C 2789   1.922   2.040   5.377
   22CHL1   C22 2790   2.001   2.288   5.152
   22CHL1  H22A 2791   1.978   2.394   5.129
   22CHL1  H22B 2792   2.108   2.270   5.173
   22CHL1   C23 2793   1.985   2.215   5.017
   22CHL1  H23A 2794   1.987   2.107   5.042
   22CHL1  H23B 2795   1.885   2.230   4.971
   22CHL1   C24 2796   2.091   2.252   4.915
   22CHL1  H24A 2797   2.069   2.354   4.876
   22CHL1  H24B 2798   2.189   2.239   4.966
   22CHL1   C25 2799   2.101   2.148   4.794
   22CHL1   H25 2800   2.083   2.045   4.833
   22CHL1   C26 2801   1.997   2.182   4.690
   22CHL1  H26A 2802   2.002   2.291   4.668
   22CHL1  H26B 2803   2.004   2.122   4.597
   22CHL1  H26C 2804   1.897   2.152   4.728
   22CHL1   C27 2805   2.238   2.151   4.722
   22CHL1  H27A 2806   2.307   2.094   4.789
   22CHL1  H27B 2807   2.236   2.092   4.628
   22CHL1  H27C 2808   2.275   2.256   4.715
   23CHL1    C3 2809   0.786   3.223   6.028
   23CHL1    H3 2810   0.686   3.272   6.031
   23CHL1    O3 2811   0.806   3.157   6.153
   23CHL1   H3' 2812   0.852   3.228   6.198
   23CHL1    C4 2813   0.795   3.130   5.912
   23CHL1   H4A 2814   0.895   3.080   5.917
   23CHL1   H4B 2815   0.724   3.046   5.926
   23CHL1    C5 2816   0.787   3.197   5.776
   23CHL1    C6 2817   0.688   3.173   5.693
   23CHL1    H6 2818   0.606   3.105   5.720
   23CHL1    C7 2819   0.676   3.235   5.559
   23CHL1   H7A 2820   0.634   3.165   5.484
   23CHL1   H7B 2821   0.595   3.311   5.572
   23CHL1    C8 2822   0.805   3.306   5.521
   23CHL1    H8 2823   0.872   3.223   5.488
   23CHL1   C14 2824   0.790   3.408   5.406
   23CHL1   H14 2825   0.724   3.481   5.458
   23CHL1   C15 2826   0.719   3.374   5.276
   23CHL1  H15A 2827   0.744   3.270   5.246
   23CHL1  H15B 2828   0.609   3.383   5.293
   23CHL1   C16 2829   0.770   3.472   5.175
   23CHL1  H16A 2830   0.837   3.430   5.097
   23CHL1  H16B 2831   0.681   3.518   5.126
   23CHL1   C17 2832   0.866   3.581   5.245
   23CHL1   H17 2833   0.791   3.654   5.283
   23CHL1   C13 2834   0.918   3.494   5.360
   23CHL1   C18 2835   1.023   3.392   5.307
   23CHL1  H18A 2836   0.983   3.336   5.220
   23CHL1  H18B 2837   1.122   3.440   5.290
   23CHL1  H18C 2838   1.049   3.323   5.390
   23CHL1   C12 2839   0.978   3.566   5.486
   23CHL1  H12A 2840   1.074   3.618   5.465
   23CHL1  H12B 2841   0.900   3.640   5.515
   23CHL1   C11 2842   0.998   3.467   5.603
   23CHL1  H11A 2843   1.086   3.405   5.576
   23CHL1  H11B 2844   1.044   3.522   5.687
   23CHL1    C9 2845   0.872   3.391   5.628
   23CHL1    H9 2846   0.796   3.466   5.659
   23CHL1   C10 2847   0.901   3.301   5.761
   23CHL1   C19 2848   1.038   3.238   5.755
   23CHL1  H19A 2849   1.113   3.315   5.781
   23CHL1  H19B 2850   1.048   3.148   5.819
   23CHL1  H19C 2851   1.060   3.193   5.656
   23CHL1    C1 2852   0.905   3.400   5.883
   23CHL1   H1A 2853   1.001   3.454   5.868
   23CHL1   H1B 2854   0.828   3.481   5.885
   23CHL1    C2 2855   0.897   3.323   6.019
   23CHL1   H2A 2856   0.896   3.389   6.108
   23CHL1   H2B 2857   0.993   3.271   6.037
   23CHL1   C20 2858   0.965   3.654   5.145
   23CHL1   H20 2859   1.035   3.574   5.112
   23CHL1   C21 2860   1.055   3.766   5.220
   23CHL1  H21A 2861   1.135   3.791   5.148
   23CHL1  H21B 2862   1.106   3.714   5.304
   23CHL1  H21C 2863   0.999   3.860   5.241
   23CHL1   C22 2864   0.898   3.707   5.022
   23CHL1  H22A 2865   0.817   3.640   4.985
   23CHL1  H22B 2866   0.842   3.795   5.059
   23CHL1   C23 2867   0.982   3.736   4.904
   23CHL1  H23A 2868   0.916   3.775   4.824
   23CHL1  H23B 2869   1.044   3.826   4.922
   23CHL1   C24 2870   1.074   3.624   4.840
   23CHL1  H24A 2871   1.151   3.604   4.918
   23CHL1  H24B 2872   1.008   3.535   4.845
   23CHL1   C25 2873   1.103   3.657   4.694
   23CHL1   H25 2874   1.017   3.708   4.646
   23CHL1   C26 2875   1.214   3.764   4.683
   23CHL1  H26A 2876   1.225   3.797   4.577
   23CHL1  H26B 2877   1.194   3.856   4.743
   23CHL1  H26C 2878   1.312   3.721   4.712
   23CHL1   C27 2879   1.137   3.529   4.614
   23CHL1  H27A 2880   1.059   3.449   4.616
   23CHL1  H27B 2881   1.150   3.548   4.505
   23CHL1  H27C 2882   1.231   3.489   4.658
   24CHL1    C3 2883   3.263   4.734   6.035
   24CHL1    H3 2884   3.292   4.842   6.036
   24CHL1    O3 2885   3.265   4.704   6.173
   24CHL1   H3' 2886   3.262   4.608   6.177
   24CHL1    C4 2887   3.125   4.698   5.975
   24CHL1   H4A 2888   3.124   4.588   5.992
   24CHL1   H4B 2889   3.052   4.741   6.048
   24CHL1    C5 2890   3.113   4.726   5.836
   24CHL1    C6 2891   3.022   4.816   5.790
   24CHL1    H6 2892   2.962   4.871   5.863
   24CHL1    C7 2893   2.986   4.845   5.651
   24CHL1   H7A 2894   2.877   4.864   5.639
   24CHL1   H7B 2895   3.018   4.947   5.622
   24CHL1    C8 2896   3.052   4.740   5.559
   24CHL1    H8 2897   3.002   4.641   5.563
   24CHL1   C14 2898   3.052   4.788   5.408
   24CHL1   H14 2899   3.109   4.883   5.396
   24CHL1   C15 2900   2.913   4.820   5.355
   24CHL1  H15A 2901   2.836   4.746   5.387
   24CHL1  H15B 2902   2.893   4.926   5.379
   24CHL1   C16 2903   2.936   4.814   5.199
   24CHL1  H16A 2904   2.873   4.731   5.162
   24CHL1  H16B 2905   2.921   4.910   5.145
   24CHL1   C17 2906   3.080   4.757   5.181
   24CHL1   H17 2907   3.143   4.848   5.180
   24CHL1   C13 2908   3.116   4.685   5.315
   24CHL1   C18 2909   3.041   4.550   5.295
   24CHL1  H18A 2910   3.040   4.501   5.395
   24CHL1  H18B 2911   2.935   4.555   5.261
   24CHL1  H18C 2912   3.092   4.480   5.225
   24CHL1   C12 2913   3.262   4.665   5.350
   24CHL1  H12A 2914   3.302   4.586   5.283
   24CHL1  H12B 2915   3.324   4.757   5.351
   24CHL1   C11 2916   3.276   4.619   5.498
   24CHL1  H11A 2917   3.228   4.519   5.491
   24CHL1  H11B 2918   3.383   4.595   5.515
   24CHL1    C9 2919   3.203   4.708   5.598
   24CHL1    H9 2920   3.262   4.802   5.595
   24CHL1   C10 2921   3.213   4.654   5.743
   24CHL1   C19 2922   3.197   4.504   5.739
   24CHL1  H19A 2923   3.120   4.466   5.669
   24CHL1  H19B 2924   3.293   4.461   5.704
   24CHL1  H19C 2925   3.182   4.452   5.836
   24CHL1    C1 2926   3.353   4.690   5.803
   24CHL1   H1A 2927   3.429   4.631   5.749
   24CHL1   H1B 2928   3.379   4.798   5.797
   24CHL1    C2 2929   3.365   4.655   5.958
   24CHL1   H2A 2930   3.465   4.678   5.999
   24CHL1   H2B 2931   3.347   4.546   5.968
   24CHL1   C20 2932   3.095   4.683   5.045
   24CHL1   H20 2933   3.039   4.587   5.045
   24CHL1   C21 2934   3.248   4.668   5.020
   24CHL1  H21A 2935   3.297   4.762   5.054
   24CHL1  H21B 2936   3.281   4.675   4.914
   24CHL1  H21C 2937   3.302   4.580   5.062
   24CHL1   C22 2938   3.029   4.768   4.932
   24CHL1  H22A 2939   2.921   4.771   4.956
   24CHL1  H22B 2940   3.080   4.867   4.920
   24CHL1   C23 2941   3.051   4.701   4.794
   24CHL1  H23A 2942   2.984   4.764   4.731
   24CHL1  H23B 2943   3.156   4.721   4.766
   24CHL1   C24 2944   3.009   4.548   4.798
   24CHL1  H24A 2945   3.072   4.493   4.871
   24CHL1  H24B 2946   2.902   4.549   4.830
   24CHL1   C25 2947   3.031   4.474   4.664
   24CHL1   H25 2948   2.999   4.369   4.677
   24CHL1   C26 2949   2.935   4.535   4.562
   24CHL1  H26A 2950   2.828   4.533   4.592
   24CHL1  H26B 2951   2.950   4.645   4.550
   24CHL1  H26C 2952   2.934   4.478   4.467
   24CHL1   C27 2953   3.183   4.479   4.612
   24CHL1  H27A 2954   3.194   4.412   4.524
   24CHL1  H27B 2955   3.225   4.579   4.589
   24CHL1  H27C 2956   3.246   4.439   4.695
   25CHL1    C3 2957   6.336   5.569   6.088
   25CHL1    H3 2958   6.364   5.666   6.042
   25CHL1    O3 2959   6.388   5.562   6.220
   25CHL1   H3' 2960   6.343   5.484   6.253
   25CHL1    C4 2961   6.184   5.542   6.068
   25CHL1   H4A 2962   6.161   5.446   6.120
   25CHL1   H4B 2963   6.138   5.628   6.122
   25CHL1    C5 2964   6.147   5.532   5.923
   25CHL1    C6 2965   6.042   5.598   5.880
   25CHL1    H6 2966   5.978   5.656   5.948
   25CHL1    C7 2967   5.991   5.601   5.743
   25CHL1   H7A 2968   5.882   5.583   5.744
   25CHL1   H7B 2969   6.004   5.700   5.693
   25CHL1    C8 2970   6.066   5.493   5.659
   25CHL1    H8 2971   6.017   5.394   5.678
   25CHL1   C14 2972   6.048   5.516   5.510
   25CHL1   H14 2973   6.115   5.600   5.480
   25CHL1   C15 2974   5.907   5.558   5.459
   25CHL1  H15A 2975   5.846   5.483   5.515
   25CHL1  H15B 2976   5.886   5.664   5.486
   25CHL1   C16 2977   5.910   5.531   5.307
   25CHL1  H16A 2978   5.846   5.442   5.285
   25CHL1  H16B 2979   5.886   5.622   5.248
   25CHL1   C17 2980   6.049   5.465   5.279
   25CHL1   H17 2981   6.115   5.551   5.253
   25CHL1   C13 2982   6.101   5.410   5.413
   25CHL1   C18 2983   6.023   5.275   5.440
   25CHL1  H18A 2984   6.046   5.243   5.544
   25CHL1  H18B 2985   5.913   5.279   5.426
   25CHL1  H18C 2986   6.064   5.203   5.367
   25CHL1   C12 2987   6.252   5.394   5.441
   25CHL1  H12A 2988   6.295   5.305   5.390
   25CHL1  H12B 2989   6.312   5.478   5.399
   25CHL1   C11 2990   6.286   5.371   5.592
   25CHL1  H11A 2991   6.251   5.266   5.609
   25CHL1  H11B 2992   6.395   5.369   5.612
   25CHL1    C9 2993   6.218   5.474   5.695
   25CHL1    H9 2994   6.267   5.571   5.674
   25CHL1   C10 2995   6.235   5.439   5.836
   25CHL1   C19 2996   6.204   5.288   5.868
   25CHL1  H19A 2997   6.111   5.256   5.815
   25CHL1  H19B 2998   6.288   5.226   5.830
   25CHL1  H19C 2999   6.199   5.264   5.976
   25CHL1    C1 3000   6.383   5.459   5.864
   25CHL1   H1A 3001   6.435   5.371   5.820
   25CHL1   H1B 3002   6.425   5.557   5.834
   25CHL1    C2 3003   6.407   5.456   6.011
   25CHL1   H2A 3004   6.516   5.472   6.019
   25CHL1   H2B 3005   6.396   5.357   6.061
   25CHL1   C20 3006   6.055   5.375   5.151
   25CHL1   H20 3007   5.982   5.294   5.174
   25CHL1   C21 3008   6.195   5.306   5.135
   25CHL1  H21A 3009   6.276   5.381   5.141
   25CHL1  H21B 3010   6.197   5.255   5.037
   25CHL1  H21C 3011   6.202   5.237   5.222
   25CHL1   C22 3012   6.010   5.438   5.016
   25CHL1  H22A 3013   6.013   5.365   4.933
   25CHL1  H22B 3014   5.909   5.483   5.031
   25CHL1   C23 3015   6.108   5.542   4.952
   25CHL1  H23A 3016   6.133   5.608   5.038
   25CHL1  H23B 3017   6.193   5.484   4.912
   25CHL1   C24 3018   6.035   5.631   4.850
   25CHL1  H24A 3019   5.985   5.569   4.773
   25CHL1  H24B 3020   5.959   5.698   4.895
   25CHL1   C25 3021   6.133   5.734   4.778
   25CHL1   H25 3022   6.166   5.790   4.868
   25CHL1   C26 3023   6.261   5.664   4.714
   25CHL1  H26A 3024   6.311   5.612   4.799
   25CHL1  H26B 3025   6.224   5.590   4.639
   25CHL1  H26C 3026   6.326   5.742   4.670
   25CHL1   C27 3027   6.064   5.838   4.680
   25CHL1  H27A 3028   6.135   5.917   4.649
   25CHL1  H27B 3029   6.037   5.789   4.583
   25CHL1  H27C 3030   5.975   5.885   4.727
   26CHL1    C3 3031   4.003   3.086   5.866
   26CHL1    H3 3032   4.110   3.066   5.842
   26CHL1    O3 3033   3.994   3.055   6.002
   26CHL1   H3' 3034   3.948   3.130   6.040
   26CHL1    C4 3035   3.950   3.225   5.849
   26CHL1   H4A 3036   3.843   3.226   5.877
   26CHL1   H4B 3037   4.003   3.294   5.920
   26CHL1    C5 3038   3.955   3.272   5.701
   26CHL1    C6 3039   4.016   3.387   5.676
   26CHL1    H6 3040   4.063   3.443   5.759
   26CHL1    C7 3041   4.014   3.444   5.533
   26CHL1   H7A 3042   3.998   3.553   5.517
   26CHL1   H7B 3043   4.108   3.431   5.475
   26CHL1    C8 3044   3.918   3.365   5.429
   26CHL1    H8 3045   3.813   3.395   5.448
   26CHL1   C14 3046   3.968   3.388   5.287
   26CHL1   H14 3047   4.065   3.336   5.274
   26CHL1   C15 3048   4.005   3.536   5.247
   26CHL1  H15A 3049   3.917   3.595   5.283
   26CHL1  H15B 3050   4.101   3.559   5.298
   26CHL1   C16 3051   4.012   3.535   5.100
   26CHL1  H16A 3052   3.951   3.621   5.063
   26CHL1  H16B 3053   4.110   3.553   5.050
   26CHL1   C17 3054   3.960   3.391   5.053
   26CHL1   H17 3055   4.052   3.330   5.046
   26CHL1   C13 3056   3.875   3.341   5.171
   26CHL1   C18 3057   3.738   3.413   5.167
   26CHL1  H18A 3058   3.756   3.516   5.130
   26CHL1  H18B 3059   3.669   3.373   5.090
   26CHL1  H18C 3060   3.685   3.406   5.265
   26CHL1   C12 3061   3.854   3.188   5.200
   26CHL1  H12A 3062   3.765   3.161   5.139
   26CHL1  H12B 3063   3.936   3.127   5.157
   26CHL1   C11 3064   3.832   3.145   5.351
   26CHL1  H11A 3065   3.724   3.163   5.369
   26CHL1  H11B 3066   3.845   3.034   5.356
   26CHL1    C9 3067   3.923   3.207   5.455
   26CHL1    H9 3068   4.026   3.168   5.439
   26CHL1   C10 3069   3.890   3.176   5.606
   26CHL1   C19 3070   3.738   3.183   5.628
   26CHL1  H19A 3071   3.692   3.270   5.577
   26CHL1  H19B 3072   3.691   3.094   5.582
   26CHL1  H19C 3073   3.701   3.176   5.733
   26CHL1    C1 3074   3.936   3.027   5.639
   26CHL1   H1A 3075   3.888   2.948   5.578
   26CHL1   H1B 3076   4.045   3.026   5.618
   26CHL1    C2 3077   3.927   2.979   5.782
   26CHL1   H2A 3078   3.965   2.877   5.805
   26CHL1   H2B 3079   3.822   2.998   5.812
   26CHL1   C20 3080   3.883   3.385   4.914
   26CHL1   H20 3081   3.774   3.406   4.922
   26CHL1   C21 3082   3.892   3.238   4.863
   26CHL1  H21A 3083   3.997   3.204   4.850
   26CHL1  H21B 3084   3.845   3.227   4.763
   26CHL1  H21C 3085   3.842   3.164   4.930
   26CHL1   C22 3086   3.940   3.480   4.806
   26CHL1  H22A 3087   3.893   3.458   4.707
   26CHL1  H22B 3088   3.910   3.584   4.830
   26CHL1   C23 3089   4.086   3.466   4.777
   26CHL1  H23A 3090   4.144   3.448   4.870
   26CHL1  H23B 3091   4.105   3.377   4.713
   26CHL1   C24 3092   4.151   3.589   4.717
   26CHL1  H24A 3093   4.135   3.670   4.791
   26CHL1  H24B 3094   4.260   3.572   4.709
   26CHL1   C25 3095   4.091   3.628   4.586
   26CHL1   H25 3096   3.980   3.618   4.583
   26CHL1   C26 3097   4.117   3.771   4.546
   26CHL1  H26A 3098   4.224   3.792   4.568
   26CHL1  H26B 3099   4.093   3.792   4.440
   26CHL1  H26C 3100   4.055   3.843   4.605
   26CHL1   C27 3101   4.149   3.540   4.471
   26CHL1  H27A 3102   4.109   3.437   4.477
   26CHL1  H27B 3103   4.121   3.579   4.371
   26CHL1  H27C 3104   4.259   3.538   4.483
   27CHL1    C3 3105   0.631   2.201   6.355
   27CHL1    H3 3106   0.574   2.108   6.336
   27CHL1    O3 3107   0.639   2.219   6.494
   27CHL1   H3' 3108   0.558   2.267   6.512
   27CHL1    C4 3109   0.772   2.201   6.286
   27CHL1   H4A 3110   0.831   2.287   6.326
   27CHL1   H4B 3111   0.828   2.115   6.327
   27CHL1    C5 3112   0.759   2.197   6.133
   27CHL1    C6 3113   0.825   2.100   6.073
   27CHL1    H6 3114   0.889   2.033   6.134
   27CHL1    C7 3115   0.820   2.070   5.917
   27CHL1   H7A 3116   0.920   2.046   5.875
   27CHL1   H7B 3117   0.753   1.981   5.912
   27CHL1    C8 3118   0.771   2.202   5.845
   27CHL1    H8 3119   0.850   2.281   5.853
   27CHL1   C14 3120   0.741   2.178   5.694
   27CHL1   H14 3121   0.659   2.104   5.706
   27CHL1   C15 3122   0.843   2.105   5.603
   27CHL1  H15A 3123   0.940   2.158   5.605
   27CHL1  H15B 3124   0.833   2.001   5.643
   27CHL1   C16 3125   0.772   2.112   5.464
   27CHL1  H16A 3126   0.853   2.111   5.389
   27CHL1  H16B 3127   0.717   2.022   5.429
   27CHL1   C17 3128   0.668   2.226   5.469
   27CHL1   H17 3129   0.566   2.186   5.481
   27CHL1   C13 3130   0.679   2.294   5.613
   27CHL1   C18 3131   0.782   2.411   5.604
   27CHL1  H18A 3132   0.825   2.441   5.702
   27CHL1  H18B 3133   0.858   2.393   5.525
   27CHL1  H18C 3134   0.723   2.502   5.581
   27CHL1   C12 3135   0.549   2.341   5.690
   27CHL1  H12A 3136   0.506   2.429   5.637
   27CHL1  H12B 3137   0.485   2.251   5.693
   27CHL1   C11 3138   0.574   2.372   5.840
   27CHL1  H11A 3139   0.650   2.452   5.833
   27CHL1  H11B 3140   0.478   2.413   5.879
   27CHL1    C9 3141   0.642   2.256   5.920
   27CHL1    H9 3142   0.576   2.166   5.924
   27CHL1   C10 3143   0.668   2.296   6.066
   27CHL1   C19 3144   0.733   2.434   6.075
   27CHL1  H19A 3145   0.824   2.438   6.012
   27CHL1  H19B 3146   0.671   2.516   6.033
   27CHL1  H19C 3147   0.749   2.472   6.178
   27CHL1    C1 3148   0.534   2.310   6.139
   27CHL1   H1A 3149   0.480   2.401   6.106
   27CHL1   H1B 3150   0.480   2.215   6.121
   27CHL1    C2 3151   0.546   2.317   6.294
   27CHL1   H2A 3152   0.441   2.325   6.329
   27CHL1   H2B 3153   0.601   2.408   6.325
   27CHL1   C20 3154   0.663   2.316   5.344
   27CHL1   H20 3155   0.756   2.376   5.333
   27CHL1   C21 3156   0.544   2.420   5.355
   27CHL1  H21A 3157   0.569   2.484   5.442
   27CHL1  H21B 3158   0.458   2.353   5.374
   27CHL1  H21C 3159   0.523   2.488   5.269
   27CHL1   C22 3160   0.638   2.246   5.203
   27CHL1  H22A 3161   0.690   2.148   5.213
   27CHL1  H22B 3162   0.535   2.232   5.163
   27CHL1   C23 3163   0.713   2.318   5.089
   27CHL1  H23A 3164   0.680   2.424   5.078
   27CHL1  H23B 3165   0.823   2.316   5.100
   27CHL1   C24 3166   0.687   2.257   4.946
   27CHL1  H24A 3167   0.725   2.153   4.955
   27CHL1  H24B 3168   0.582   2.245   4.913
   27CHL1   C25 3169   0.760   2.333   4.825
   27CHL1   H25 3170   0.870   2.338   4.839
   27CHL1   C26 3171   0.745   2.282   4.684
   27CHL1  H26A 3172   0.650   2.324   4.645
   27CHL1  H26B 3173   0.835   2.310   4.624
   27CHL1  H26C 3174   0.731   2.172   4.677
   27CHL1   C27 3175   0.717   2.483   4.814
   27CHL1  H27A 3176   0.750   2.547   4.898
   27CHL1  H27B 3177   0.607   2.491   4.798
   27CHL1  H27C 3178   0.765   2.530   4.725
   28CHL1    C3 3179   5.583   2.039   6.399
   28CHL1    H3 3180   5.693   2.045   6.385
   28CHL1    O3 3181   5.559   2.043   6.540
   28CHL1   H3' 3182   5.616   1.973   6.572
   28CHL1    C4 3183   5.530   2.166   6.336
   28CHL1   H4A 3184   5.426   2.167   6.372
   28CHL1   H4B 3185   5.578   2.255   6.383
   28CHL1    C5 3186   5.543   2.152   6.184
   28CHL1    C6 3187   5.614   2.244   6.118
   28CHL1    H6 3188   5.649   2.331   6.174
   28CHL1    C7 3189   5.640   2.227   5.972
   28CHL1   H7A 3190   5.640   2.321   5.912
   28CHL1   H7B 3191   5.745   2.191   5.958
   28CHL1    C8 3192   5.547   2.125   5.898
   28CHL1    H8 3193   5.448   2.174   5.890
   28CHL1   C14 3194   5.610   2.085   5.764
   28CHL1   H14 3195   5.709   2.040   5.787
   28CHL1   C15 3196   5.654   2.200   5.673
   28CHL1  H15A 3197   5.568   2.270   5.668
   28CHL1  H15B 3198   5.737   2.262   5.713
   28CHL1   C16 3199   5.673   2.137   5.536
   28CHL1  H16A 3200   5.613   2.187   5.458
   28CHL1  H16B 3201   5.779   2.130   5.506
   28CHL1   C17 3202   5.619   1.986   5.540
   28CHL1   H17 3203   5.707   1.930   5.580
   28CHL1   C13 3204   5.534   1.985   5.666
   28CHL1   C18 3205   5.405   2.045   5.634
   28CHL1  H18A 3206   5.350   1.977   5.565
   28CHL1  H18B 3207   5.349   2.066   5.727
   28CHL1  H18C 3208   5.407   2.148   5.593
   28CHL1   C12 3209   5.512   1.859   5.749
   28CHL1  H12A 3210   5.445   1.789   5.694
   28CHL1  H12B 3211   5.611   1.809   5.762
   28CHL1   C11 3212   5.451   1.881   5.886
   28CHL1  H11A 3213   5.351   1.930   5.890
   28CHL1  H11B 3214   5.441   1.791   5.951
   28CHL1    C9 3215   5.533   1.997   5.968
   28CHL1    H9 3216   5.639   1.964   5.975
   28CHL1   C10 3217   5.492   2.019   6.117
   28CHL1   C19 3218   5.341   2.036   6.115
   28CHL1  H19A 3219   5.299   2.053   6.217
   28CHL1  H19B 3220   5.310   2.118   6.048
   28CHL1  H19C 3221   5.299   1.943   6.071
   28CHL1    C1 3222   5.526   1.885   6.194
   28CHL1   H1A 3223   5.450   1.806   6.176
   28CHL1   H1B 3224   5.628   1.844   6.178
   28CHL1    C2 3225   5.511   1.912   6.346
   28CHL1   H2A 3226   5.534   1.817   6.399
   28CHL1   H2B 3227   5.407   1.921   6.382
   28CHL1   C20 3228   5.580   1.925   5.403
   28CHL1   H20 3229   5.510   1.993   5.350
   28CHL1   C21 3230   5.521   1.788   5.422
   28CHL1  H21A 3231   5.423   1.794   5.475
   28CHL1  H21B 3232   5.576   1.712   5.481
   28CHL1  H21C 3233   5.509   1.738   5.324
   28CHL1   C22 3234   5.705   1.911   5.306
   28CHL1  H22A 3235   5.748   2.011   5.284
   28CHL1  H22B 3236   5.775   1.849   5.366
   28CHL1   C23 3237   5.686   1.849   5.172
   28CHL1  H23A 3238   5.619   1.760   5.173
   28CHL1  H23B 3239   5.635   1.928   5.114
   28CHL1   C24 3240   5.819   1.805   5.105
   28CHL1  H24A 3241   5.885   1.893   5.088
   28CHL1  H24B 3242   5.877   1.734   5.168
   28CHL1   C25 3243   5.797   1.730   4.970
   28CHL1   H25 3244   5.722   1.650   4.991
   28CHL1   C26 3245   5.739   1.826   4.869
   28CHL1  H26A 3246   5.660   1.888   4.915
   28CHL1  H26B 3247   5.815   1.903   4.845
   28CHL1  H26C 3248   5.697   1.775   4.779
   28CHL1   C27 3249   5.924   1.671   4.917
   28CHL1  H27A 3250   5.994   1.757   4.904
   28CHL1  H27B 3251   5.965   1.596   4.988
   28CHL1  H27C 3252   5.921   1.637   4.811
   29CHL1    C3 3253   2.386   3.925   6.106
   29CHL1    H3 3254   2.334   4.023   6.106
   29CHL1    O3 3255   2.411   3.887   6.240
   29CHL1   H3' 3256   2.347   3.822   6.268
   29CHL1    C4 3257   2.284   3.825   6.042
   29CHL1   H4A 3258   2.314   3.721   6.067
   29CHL1   H4B 3259   2.197   3.845   6.109
   29CHL1    C5 3260   2.264   3.822   5.889
   29CHL1    C6 3261   2.140   3.834   5.838
   29CHL1    H6 3262   2.053   3.830   5.904
   29CHL1    C7 3263   2.116   3.844   5.685
   29CHL1   H7A 3264   2.053   3.759   5.652
   29CHL1   H7B 3265   2.078   3.944   5.655
   29CHL1    C8 3266   2.244   3.824   5.596
   29CHL1    H8 3267   2.258   3.713   5.598
   29CHL1   C14 3268   2.230   3.883   5.461
   29CHL1   H14 3269   2.197   3.989   5.470
   29CHL1   C15 3270   2.117   3.827   5.374
   29CHL1  H15A 3271   2.113   3.717   5.366
   29CHL1  H15B 3272   2.021   3.870   5.412
   29CHL1   C16 3273   2.143   3.887   5.231
   29CHL1  H16A 3274   2.127   3.809   5.154
   29CHL1  H16B 3275   2.074   3.971   5.209
   29CHL1   C17 3276   2.293   3.931   5.236
   29CHL1   H17 3277   2.289   4.042   5.245
   29CHL1   C13 3278   2.353   3.874   5.373
   29CHL1   C18 3279   2.387   3.732   5.335
   29CHL1  H18A 3280   2.477   3.732   5.269
   29CHL1  H18B 3281   2.409   3.664   5.420
   29CHL1  H18C 3282   2.307   3.676   5.282
   29CHL1   C12 3283   2.457   3.954   5.427
   29CHL1  H12A 3284   2.555   3.951   5.374
   29CHL1  H12B 3285   2.433   4.062   5.427
   29CHL1   C11 3286   2.490   3.901   5.564
   29CHL1  H11A 3287   2.530   3.798   5.552
   29CHL1  H11B 3288   2.572   3.961   5.609
   29CHL1    C9 3289   2.364   3.894   5.663
   29CHL1    H9 3290   2.336   4.001   5.662
   29CHL1   C10 3291   2.400   3.845   5.811
   29CHL1   C19 3292   2.459   3.701   5.807
   29CHL1  H19A 3293   2.376   3.632   5.781
   29CHL1  H19B 3294   2.540   3.686   5.733
   29CHL1  H19C 3295   2.495   3.678   5.910
   29CHL1    C1 3296   2.501   3.947   5.883
   29CHL1   H1A 3297   2.602   3.938   5.836
   29CHL1   H1B 3298   2.473   4.053   5.866
   29CHL1    C2 3299   2.520   3.932   6.029
   29CHL1   H2A 3300   2.568   4.024   6.068
   29CHL1   H2B 3301   2.575   3.838   6.049
   29CHL1   C20 3302   2.358   3.910   5.102
   29CHL1   H20 3303   2.360   3.800   5.091
   29CHL1   C21 3304   2.507   3.952   5.101
   29CHL1  H21A 3305   2.524   4.055   5.139
   29CHL1  H21B 3306   2.544   3.964   4.997
   29CHL1  H21C 3307   2.571   3.881   5.159
   29CHL1   C22 3308   2.278   3.976   4.988
   29CHL1  H22A 3309   2.169   3.978   5.005
   29CHL1  H22B 3310   2.302   4.084   4.982
   29CHL1   C23 3311   2.315   3.937   4.843
   29CHL1  H23A 3312   2.425   3.948   4.836
   29CHL1  H23B 3313   2.289   3.829   4.831
   29CHL1   C24 3314   2.243   4.023   4.741
   29CHL1  H24A 3315   2.137   4.004   4.768
   29CHL1  H24B 3316   2.258   4.131   4.763
   29CHL1   C25 3317   2.243   3.973   4.596
   29CHL1   H25 3318   2.202   3.870   4.602
   29CHL1   C26 3319   2.136   4.061   4.518
   29CHL1  H26A 3320   2.182   4.161   4.503
   29CHL1  H26B 3321   2.110   4.006   4.425
   29CHL1  H26C 3322   2.043   4.076   4.575
   29CHL1   C27 3323   2.387   3.994   4.555
   29CHL1  H27A 3324   2.461   3.925   4.601
   29CHL1  H27B 3325   2.382   3.982   4.445
   29CHL1  H27C 3326   2.421   4.095   4.586
   30CHL1    C3 3327   3.121   3.782   6.326
   30CHL1    H3 3328   3.095   3.890   6.327
   30CHL1    O3 3329   3.138   3.734   6.459
   30CHL1   H3' 3330   3.194   3.659   6.440
   30CHL1    C4 3331   3.025   3.701   6.257
   30CHL1   H4A 3332   3.056   3.594   6.261
   30CHL1   H4B 3333   2.929   3.707   6.312
   30CHL1    C5 3334   3.007   3.732   6.110
   30CHL1    C6 3335   2.891   3.768   6.066
   30CHL1    H6 3336   2.806   3.772   6.136
   30CHL1    C7 3337   2.864   3.789   5.921
   30CHL1   H7A 3338   2.773   3.731   5.892
   30CHL1   H7B 3339   2.843   3.896   5.902
   30CHL1    C8 3340   2.981   3.739   5.826
   30CHL1    H8 3341   2.974   3.628   5.822
   30CHL1   C14 3342   2.958   3.799   5.685
   30CHL1   H14 3343   2.960   3.910   5.688
   30CHL1   C15 3344   2.823   3.773   5.612
   30CHL1  H15A 3345   2.792   3.666   5.619
   30CHL1  H15B 3346   2.743   3.834   5.657
   30CHL1   C16 3347   2.844   3.809   5.466
   30CHL1  H16A 3348   2.815   3.726   5.400
   30CHL1  H16B 3349   2.788   3.902   5.441
   30CHL1   C17 3350   3.001   3.831   5.456
   30CHL1   H17 3351   3.022   3.939   5.472
   30CHL1   C13 3352   3.061   3.758   5.581
   30CHL1   C18 3353   3.067   3.608   5.558
   30CHL1  H18A 3354   2.970   3.572   5.517
   30CHL1  H18B 3355   3.149   3.575   5.489
   30CHL1  H18C 3356   3.064   3.541   5.646
   30CHL1   C12 3357   3.200   3.791   5.638
   30CHL1  H12A 3358   3.276   3.760   5.564
   30CHL1  H12B 3359   3.201   3.901   5.651
   30CHL1   C11 3360   3.224   3.721   5.774
   30CHL1  H11A 3361   3.233   3.611   5.764
   30CHL1  H11B 3362   3.330   3.731   5.803
   30CHL1    C9 3363   3.118   3.774   5.880
   30CHL1    H9 3364   3.115   3.885   5.872
   30CHL1   C10 3365   3.139   3.722   6.027
   30CHL1   C19 3366   3.174   3.575   6.023
   30CHL1  H19A 3367   3.271   3.568   5.969
   30CHL1  H19B 3368   3.183   3.523   6.120
   30CHL1  H19C 3369   3.096   3.522   5.964
   30CHL1    C1 3370   3.246   3.802   6.108
   30CHL1   H1A 3371   3.349   3.792   6.068
   30CHL1   H1B 3372   3.225   3.911   6.103
   30CHL1    C2 3373   3.256   3.765   6.257
   30CHL1   H2A 3374   3.335   3.818   6.314
   30CHL1   H2B 3375   3.289   3.660   6.272
   30CHL1   C20 3376   3.051   3.787   5.311
   30CHL1   H20 3377   3.022   3.681   5.298
   30CHL1   C21 3378   3.201   3.801   5.292
   30CHL1  H21A 3379   3.255   3.743   5.369
   30CHL1  H21B 3380   3.230   3.909   5.290
   30CHL1  H21C 3381   3.227   3.750   5.197
   30CHL1   C22 3382   2.980   3.865   5.196
   30CHL1  H22A 3383   2.871   3.844   5.203
   30CHL1  H22B 3384   2.996   3.974   5.207
   30CHL1   C23 3385   3.011   3.831   5.054
   30CHL1  H23A 3386   3.119   3.855   5.040
   30CHL1  H23B 3387   2.998   3.722   5.036
   30CHL1   C24 3388   2.927   3.912   4.954
   30CHL1  H24A 3389   2.817   3.897   4.959
   30CHL1  H24B 3390   2.947   4.019   4.974
   30CHL1   C25 3391   2.939   3.906   4.804
   30CHL1   H25 3392   2.928   3.802   4.767
   30CHL1   C26 3393   2.847   4.012   4.729
   30CHL1  H26A 3394   2.752   4.036   4.781
   30CHL1  H26B 3395   2.896   4.110   4.711
   30CHL1  H26C 3396   2.822   3.972   4.629
   30CHL1   C27 3397   3.084   3.948   4.762
   30CHL1  H27A 3398   3.107   3.926   4.656
   30CHL1  H27B 3399   3.099   4.056   4.781
   30CHL1  H27C 3400   3.158   3.894   4.826
   31CHL1    C3 3401   1.758   4.214   5.930
   31CHL1    H3 3402   1.653   4.227   5.894
   31CHL1    O3 3403   1.762   4.161   6.060
   31CHL1   H3' 3404   1.776   4.237   6.118
   31CHL1    C4 3405   1.816   4.105   5.844
   31CHL1   H4A 3406   1.920   4.076   5.868
   31CHL1   H4B 3407   1.754   4.015   5.863
   31CHL1    C5 3408   1.818   4.137   5.692
   31CHL1    C6 3409   1.753   4.059   5.599
   31CHL1    H6 3410   1.714   3.964   5.639
   31CHL1    C7 3411   1.750   4.083   5.456
   31CHL1   H7A 3412   1.778   4.000   5.387
   31CHL1   H7B 3413   1.646   4.115   5.436
   31CHL1    C8 3414   1.848   4.197   5.418
   31CHL1    H8 3415   1.945   4.144   5.410
   31CHL1   C14 3416   1.808   4.247   5.282
   31CHL1   H14 3417   1.715   4.299   5.314
   31CHL1   C15 3418   1.772   4.144   5.177
   31CHL1  H15A 3419   1.837   4.054   5.167
   31CHL1  H15B 3420   1.668   4.111   5.198
   31CHL1   C16 3421   1.781   4.233   5.045
   31CHL1  H16A 3422   1.855   4.184   4.978
   31CHL1  H16B 3423   1.680   4.238   4.997
   31CHL1   C17 3424   1.836   4.369   5.085
   31CHL1   H17 3425   1.748   4.432   5.111
   31CHL1   C13 3426   1.905   4.350   5.224
   31CHL1   C18 3427   2.053   4.289   5.199
   31CHL1  H18A 3428   2.123   4.373   5.179
   31CHL1  H18B 3429   2.086   4.259   5.301
   31CHL1  H18C 3430   2.063   4.214   5.119
   31CHL1   C12 3431   1.909   4.471   5.320
   31CHL1  H12A 3432   1.986   4.547   5.296
   31CHL1  H12B 3433   1.807   4.514   5.309
   31CHL1   C11 3434   1.939   4.424   5.465
   31CHL1  H11A 3435   2.046   4.397   5.472
   31CHL1  H11B 3436   1.933   4.505   5.542
   31CHL1    C9 3437   1.848   4.314   5.516
   31CHL1    H9 3438   1.742   4.346   5.518
   31CHL1   C10 3439   1.881   4.273   5.657
   31CHL1   C19 3440   2.033   4.249   5.658
   31CHL1  H19A 3441   2.056   4.199   5.754
   31CHL1  H19B 3442   2.066   4.179   5.578
   31CHL1  H19C 3443   2.095   4.340   5.652
   31CHL1    C1 3444   1.847   4.379   5.757
   31CHL1   H1A 3445   1.915   4.466   5.746
   31CHL1   H1B 3446   1.745   4.409   5.724
   31CHL1    C2 3447   1.835   4.342   5.911
   31CHL1   H2A 3448   1.799   4.432   5.966
   31CHL1   H2B 3449   1.933   4.306   5.947
   31CHL1   C20 3450   1.917   4.433   4.967
   31CHL1   H20 3451   2.005   4.367   4.952
   31CHL1   C21 3452   1.967   4.570   5.005
   31CHL1  H21A 3453   2.047   4.563   5.083
   31CHL1  H21B 3454   1.885   4.630   5.050
   31CHL1  H21C 3455   2.009   4.622   4.916
   31CHL1   C22 3456   1.839   4.433   4.833
   31CHL1  H22A 3457   1.804   4.330   4.813
   31CHL1  H22B 3458   1.745   4.492   4.838
   31CHL1   C23 3459   1.913   4.467   4.702
   31CHL1  H23A 3460   1.966   4.565   4.709
   31CHL1  H23B 3461   1.983   4.382   4.694
   31CHL1   C24 3462   1.810   4.480   4.592
   31CHL1  H24A 3463   1.742   4.392   4.586
   31CHL1  H24B 3464   1.754   4.574   4.608
   31CHL1   C25 3465   1.873   4.482   4.446
   31CHL1   H25 3466   1.785   4.485   4.379
   31CHL1   C26 3467   1.955   4.608   4.413
   31CHL1  H26A 3468   1.902   4.700   4.447
   31CHL1  H26B 3469   2.057   4.595   4.456
   31CHL1  H26C 3470   1.972   4.625   4.304
   31CHL1   C27 3471   1.962   4.364   4.406
   31CHL1  H27A 3472   1.992   4.375   4.299
   31CHL1  H27B 3473   2.047   4.367   4.478
   31CHL1  H27C 3474   1.918   4.263   4.418
   32CHL1    C3 3475   2.222   2.470   6.261
   32CHL1    H3 3476   2.155   2.381   6.262
   32CHL1    O3 3477   2.222   2.516   6.398
   32CHL1   H3' 3478   2.263   2.601   6.412
   32CHL1    C4 3479   2.359   2.439   6.207
   32CHL1   H4A 3480   2.425   2.525   6.234
   32CHL1   H4B 3481   2.400   2.349   6.259
   32CHL1    C5 3482   2.384   2.423   6.060
   32CHL1    C6 3483   2.456   2.315   6.015
   32CHL1    H6 3484   2.505   2.247   6.087
   32CHL1    C7 3485   2.470   2.295   5.868
   32CHL1   H7A 3486   2.576   2.273   5.845
   32CHL1   H7B 3487   2.404   2.214   5.832
   32CHL1    C8 3488   2.430   2.417   5.783
   32CHL1    H8 3489   2.520   2.482   5.781
   32CHL1   C14 3490   2.410   2.362   5.635
   32CHL1   H14 3491   2.323   2.297   5.660
   32CHL1   C15 3492   2.531   2.270   5.587
   32CHL1  H15A 3493   2.622   2.320   5.627
   32CHL1  H15B 3494   2.517   2.165   5.620
   32CHL1   C16 3495   2.521   2.286   5.432
   32CHL1  H16A 3496   2.620   2.324   5.399
   32CHL1  H16B 3497   2.508   2.195   5.370
   32CHL1   C17 3498   2.402   2.387   5.398
   32CHL1   H17 3499   2.314   2.320   5.389
   32CHL1   C13 3500   2.385   2.469   5.528
   32CHL1   C18 3501   2.499   2.575   5.529
   32CHL1  H18A 3502   2.474   2.676   5.489
   32CHL1  H18B 3503   2.517   2.610   5.633
   32CHL1  H18C 3504   2.597   2.543   5.488
   32CHL1   C12 3505   2.250   2.527   5.562
   32CHL1  H12A 3506   2.223   2.611   5.494
   32CHL1  H12B 3507   2.172   2.448   5.570
   32CHL1   C11 3508   2.246   2.577   5.713
   32CHL1  H11A 3509   2.309   2.668   5.711
   32CHL1  H11B 3510   2.142   2.600   5.745
   32CHL1    C9 3511   2.299   2.476   5.822
   32CHL1    H9 3512   2.229   2.390   5.817
   32CHL1   C10 3513   2.311   2.525   5.969
   32CHL1   C19 3514   2.377   2.668   5.968
   32CHL1  H19A 3515   2.301   2.741   5.933
   32CHL1  H19B 3516   2.388   2.711   6.069
   32CHL1  H19C 3517   2.479   2.666   5.924
   32CHL1    C1 3518   2.166   2.544   6.024
   32CHL1   H1A 3519   2.128   2.628   5.963
   32CHL1   H1B 3520   2.106   2.454   5.999
   32CHL1    C2 3521   2.147   2.577   6.171
   32CHL1   H2A 3522   2.038   2.574   6.194
   32CHL1   H2B 3523   2.193   2.677   6.185
   32CHL1   C20 3524   2.431   2.448   5.255
   32CHL1   H20 3525   2.524   2.507   5.270
   32CHL1   C21 3526   2.332   2.561   5.228
   32CHL1  H21A 3527   2.228   2.525   5.246
   32CHL1  H21B 3528   2.348   2.596   5.124
   32CHL1  H21C 3529   2.353   2.647   5.295
   32CHL1   C22 3530   2.459   2.358   5.142
   32CHL1  H22A 3531   2.516   2.265   5.165
   32CHL1  H22B 3532   2.367   2.319   5.092
   32CHL1   C23 3533   2.547   2.421   5.029
   32CHL1  H23A 3534   2.521   2.529   5.021
   32CHL1  H23B 3535   2.653   2.421   5.061
   32CHL1   C24 3536   2.526   2.348   4.896
   32CHL1  H24A 3537   2.566   2.244   4.907
   32CHL1  H24B 3538   2.417   2.347   4.879
   32CHL1   C25 3539   2.608   2.417   4.786
   32CHL1   H25 3540   2.556   2.512   4.759
   32CHL1   C26 3541   2.751   2.447   4.813
   32CHL1  H26A 3542   2.806   2.351   4.824
   32CHL1  H26B 3543   2.793   2.513   4.734
   32CHL1  H26C 3544   2.764   2.492   4.914
   32CHL1   C27 3545   2.586   2.320   4.667
   32CHL1  H27A 3546   2.630   2.374   4.581
   32CHL1  H27B 3547   2.636   2.222   4.685
   32CHL1  H27C 3548   2.480   2.293   4.650
   33CHL1    C3 3549   0.739   1.409   5.746
   33CHL1    H3 3550   0.828   1.379   5.686
   33CHL1    O3 3551   0.788   1.443   5.878
   33CHL1   H3' 3552   0.783   1.361   5.929
   33CHL1    C4 3553   0.672   1.537   5.690
   33CHL1   H4A 3554   0.603   1.571   5.769
   33CHL1   H4B 3555   0.749   1.617   5.689
   33CHL1    C5 3556   0.615   1.507   5.554
   33CHL1    C6 3557   0.662   1.575   5.449
   33CHL1    H6 3558   0.729   1.659   5.473
   33CHL1    C7 3559   0.615   1.560   5.310
   33CHL1   H7A 3560   0.573   1.656   5.275
   33CHL1   H7B 3561   0.701   1.529   5.247
   33CHL1    C8 3562   0.485   1.470   5.299
   33CHL1    H8 3563   0.403   1.535   5.336
   33CHL1   C14 3564   0.465   1.426   5.164
   33CHL1   H14 3565   0.551   1.360   5.142
   33CHL1   C15 3566   0.458   1.535   5.051
   33CHL1  H15A 3567   0.386   1.616   5.076
   33CHL1  H15B 3568   0.557   1.581   5.031
   33CHL1   C16 3569   0.399   1.457   4.939
   33CHL1  H16A 3570   0.319   1.515   4.888
   33CHL1  H16B 3571   0.477   1.427   4.866
   33CHL1   C17 3572   0.331   1.323   4.996
   33CHL1   H17 3573   0.396   1.235   4.975
   33CHL1   C13 3574   0.332   1.344   5.147
   33CHL1   C18 3575   0.206   1.426   5.184
   33CHL1  H18A 3576   0.199   1.475   5.283
   33CHL1  H18B 3577   0.183   1.503   5.108
   33CHL1  H18C 3578   0.110   1.369   5.180
   33CHL1   C12 3579   0.339   1.210   5.230
   33CHL1  H12A 3580   0.250   1.144   5.229
   33CHL1  H12B 3581   0.425   1.147   5.199
   33CHL1   C11 3582   0.367   1.244   5.375
   33CHL1  H11A 3583   0.285   1.298   5.426
   33CHL1  H11B 3584   0.398   1.157   5.438
   33CHL1    C9 3585   0.489   1.342   5.397
   33CHL1    H9 3586   0.575   1.282   5.362
   33CHL1   C10 3587   0.517   1.388   5.545
   33CHL1   C19 3588   0.390   1.415   5.617
   33CHL1  H19A 3589   0.408   1.464   5.715
   33CHL1  H19B 3590   0.338   1.493   5.557
   33CHL1  H19C 3591   0.335   1.319   5.632
   33CHL1    C1 3592   0.581   1.262   5.618
   33CHL1   H1A 3593   0.502   1.185   5.631
   33CHL1   H1B 3594   0.662   1.217   5.557
   33CHL1    C2 3595   0.637   1.291   5.757
   33CHL1   H2A 3596   0.680   1.194   5.787
   33CHL1   H2B 3597   0.556   1.323   5.826
   33CHL1   C20 3598   0.205   1.293   4.921
   33CHL1   H20 3599   0.119   1.363   4.931
   33CHL1   C21 3600   0.145   1.161   4.961
   33CHL1  H21A 3601   0.056   1.140   4.897
   33CHL1  H21B 3602   0.096   1.162   5.061
   33CHL1  H21C 3603   0.213   1.073   4.967
   33CHL1   C22 3604   0.208   1.302   4.760
   33CHL1  H22A 3605   0.112   1.265   4.719
   33CHL1  H22B 3606   0.210   1.412   4.744
   33CHL1   C23 3607   0.322   1.247   4.678
   33CHL1  H23A 3608   0.420   1.244   4.730
   33CHL1  H23B 3609   0.292   1.141   4.668
   33CHL1   C24 3610   0.333   1.312   4.539
   33CHL1  H24A 3611   0.230   1.324   4.499
   33CHL1  H24B 3612   0.365   1.417   4.557
   33CHL1   C25 3613   0.429   1.239   4.439
   33CHL1   H25 3614   0.531   1.243   4.484
   33CHL1   C26 3615   0.381   1.089   4.409
   33CHL1  H26A 3616   0.271   1.082   4.395
   33CHL1  H26B 3617   0.435   1.048   4.321
   33CHL1  H26C 3618   0.404   1.044   4.508
   33CHL1   C27 3619   0.444   1.316   4.306
   33CHL1  H27A 3620   0.466   1.424   4.323
   33CHL1  H27B 3621   0.526   1.274   4.244
   33CHL1  H27C 3622   0.350   1.325   4.246
   34CHL1    C3 3623   2.669   2.761   6.172
   34CHL1    H3 3624   2.579   2.726   6.118
   34CHL1    O3 3625   2.644   2.734   6.307
   34CHL1   H3' 3626   2.732   2.712   6.338
   34CHL1    C4 3627   2.783   2.661   6.128
   34CHL1   H4A 3628   2.871   2.693   6.189
   34CHL1   H4B 3629   2.760   2.555   6.152
   34CHL1    C5 3630   2.796   2.670   5.984
   34CHL1    C6 3631   2.793   2.563   5.905
   34CHL1    H6 3632   2.782   2.463   5.950
   34CHL1    C7 3633   2.824   2.560   5.760
   34CHL1   H7A 3634   2.895   2.478   5.734
   34CHL1   H7B 3635   2.736   2.537   5.696
   34CHL1    C8 3636   2.883   2.698   5.707
   34CHL1    H8 3637   2.992   2.705   5.729
   34CHL1   C14 3638   2.870   2.706   5.551
   34CHL1   H14 3639   2.763   2.712   5.522
   34CHL1   C15 3640   2.928   2.588   5.477
   34CHL1  H15A 3641   3.021   2.548   5.522
   34CHL1  H15B 3642   2.853   2.505   5.473
   34CHL1   C16 3643   2.945   2.641   5.336
   34CHL1  H16A 3644   3.048   2.625   5.297
   34CHL1  H16B 3645   2.868   2.601   5.266
   34CHL1   C17 3646   2.911   2.794   5.352
   34CHL1   H17 3647   2.802   2.804   5.333
   34CHL1   C13 3648   2.932   2.829   5.494
   34CHL1   C18 3649   3.081   2.828   5.514
   34CHL1  H18A 3650   3.109   2.838   5.621
   34CHL1  H18B 3651   3.121   2.729   5.483
   34CHL1  H18C 3652   3.129   2.917   5.468
   34CHL1   C12 3653   2.852   2.950   5.557
   34CHL1  H12A 3654   2.899   3.045   5.523
   34CHL1  H12B 3655   2.747   2.937   5.524
   34CHL1   C11 3656   2.850   2.955   5.710
   34CHL1  H11A 3657   2.953   2.991   5.731
   34CHL1  H11B 3658   2.777   3.035   5.734
   34CHL1    C9 3659   2.812   2.820   5.775
   34CHL1    H9 3660   2.705   2.805   5.752
   34CHL1   C10 3661   2.831   2.807   5.933
   34CHL1   C19 3662   2.981   2.838   5.959
   34CHL1  H19A 3663   2.988   2.858   6.068
   34CHL1  H19B 3664   3.045   2.750   5.938
   34CHL1  H19C 3665   3.026   2.925   5.908
   34CHL1    C1 3666   2.746   2.916   6.008
   34CHL1   H1A 3667   2.791   3.017   5.994
   34CHL1   H1B 3668   2.645   2.923   5.961
   34CHL1    C2 3669   2.717   2.903   6.150
   34CHL1   H2A 3670   2.637   2.974   6.179
   34CHL1   H2B 3671   2.811   2.920   6.206
   34CHL1   C20 3672   2.981   2.875   5.240
   34CHL1   H20 3673   3.090   2.863   5.261
   34CHL1   C21 3674   2.952   3.025   5.258
   34CHL1  H21A 3675   2.985   3.060   5.358
   34CHL1  H21B 3676   2.843   3.045   5.258
   34CHL1  H21C 3677   3.003   3.092   5.185
   34CHL1   C22 3678   2.957   2.821   5.095
   34CHL1  H22A 3679   2.984   2.713   5.094
   34CHL1  H22B 3680   2.847   2.826   5.087
   34CHL1   C23 3681   3.035   2.895   4.977
   34CHL1  H23A 3682   3.006   3.001   4.965
   34CHL1  H23B 3683   3.144   2.885   4.995
   34CHL1   C24 3684   2.998   2.841   4.831
   34CHL1  H24A 3685   3.011   2.731   4.825
   34CHL1  H24B 3686   2.887   2.843   4.827
   34CHL1   C25 3687   3.067   2.914   4.710
   34CHL1   H25 3688   3.175   2.910   4.732
   34CHL1   C26 3689   3.037   2.847   4.575
   34CHL1  H26A 3690   3.087   2.899   4.490
   34CHL1  H26B 3691   3.065   2.740   4.580
   34CHL1  H26C 3692   2.928   2.857   4.559
   34CHL1   C27 3693   3.022   3.061   4.710
   34CHL1  H27A 3694   3.085   3.122   4.642
   34CHL1  H27B 3695   2.913   3.069   4.687
   34CHL1  H27C 3696   3.048   3.106   4.808
   35CHL1    C3 3697   4.398   5.134   5.955
   35CHL1    H3 3698   4.438   5.031   5.954
   35CHL1    O3 3699   4.384   5.188   6.087
   35CHL1   H3' 3700   4.324   5.129   6.132
   35CHL1    C4 3701   4.503   5.222   5.878
   35CHL1   H4A 3702   4.475   5.330   5.883
   35CHL1   H4B 3703   4.599   5.208   5.933
   35CHL1    C5 3704   4.510   5.183   5.732
   35CHL1    C6 3705   4.628   5.159   5.680
   35CHL1    H6 3706   4.720   5.179   5.738
   35CHL1    C7 3707   4.647   5.131   5.534
   35CHL1   H7A 3708   4.729   5.185   5.483
   35CHL1   H7B 3709   4.675   5.027   5.508
   35CHL1    C8 3710   4.518   5.158   5.447
   35CHL1    H8 3711   4.514   5.267   5.429
   35CHL1   C14 3712   4.523   5.096   5.310
   35CHL1   H14 3713   4.509   4.988   5.329
   35CHL1   C15 3714   4.658   5.116   5.228
   35CHL1  H15A 3715   4.688   5.221   5.249
   35CHL1  H15B 3716   4.729   5.039   5.264
   35CHL1   C16 3717   4.611   5.078   5.093
   35CHL1  H16A 3718   4.627   5.164   5.024
   35CHL1  H16B 3719   4.651   4.985   5.048
   35CHL1   C17 3720   4.457   5.049   5.095
   35CHL1   H17 3721   4.449   4.940   5.113
   35CHL1   C13 3722   4.405   5.129   5.219
   35CHL1   C18 3723   4.383   5.284   5.189
   35CHL1  H18A 3724   4.396   5.343   5.282
   35CHL1  H18B 3725   4.460   5.314   5.114
   35CHL1  H18C 3726   4.291   5.302   5.130
   35CHL1   C12 3727   4.284   5.072   5.286
   35CHL1  H12A 3728   4.194   5.082   5.222
   35CHL1  H12B 3729   4.298   4.963   5.304
   35CHL1   C11 3730   4.263   5.135   5.425
   35CHL1  H11A 3731   4.249   5.245   5.413
   35CHL1  H11B 3732   4.168   5.099   5.470
   35CHL1    C9 3733   4.391   5.115   5.513
   35CHL1    H9 3734   4.407   5.007   5.533
   35CHL1   C10 3735   4.376   5.179   5.656
   35CHL1   C19 3736   4.325   5.323   5.641
   35CHL1  H19A 3737   4.335   5.390   5.729
   35CHL1  H19B 3738   4.386   5.379   5.567
   35CHL1  H19C 3739   4.217   5.325   5.612
   35CHL1    C1 3740   4.277   5.088   5.740
   35CHL1   H1A 3741   4.180   5.093   5.686
   35CHL1   H1B 3742   4.312   4.982   5.735
   35CHL1    C2 3743   4.258   5.126   5.889
   35CHL1   H2A 3744   4.191   5.048   5.931
   35CHL1   H2B 3745   4.201   5.222   5.887
   35CHL1   C20 3746   4.400   5.080   4.953
   35CHL1   H20 3747   4.419   5.188   4.933
   35CHL1   C21 3748   4.248   5.053   4.957
   35CHL1  H21A 3749   4.203   5.061   4.855
   35CHL1  H21B 3750   4.195   5.126   5.022
   35CHL1  H21C 3751   4.233   4.948   4.990
   35CHL1   C22 3752   4.461   5.004   4.831
   35CHL1  H22A 3753   4.570   4.988   4.848
   35CHL1  H22B 3754   4.410   4.906   4.820
   35CHL1   C23 3755   4.452   5.065   4.694
   35CHL1  H23A 3756   4.349   5.097   4.666
   35CHL1  H23B 3757   4.515   5.156   4.694
   35CHL1   C24 3758   4.506   4.971   4.588
   35CHL1  H24A 3759   4.611   4.954   4.619
   35CHL1  H24B 3760   4.449   4.876   4.588
   35CHL1   C25 3761   4.498   5.013   4.446
   35CHL1   H25 3762   4.397   4.993   4.405
   35CHL1   C26 3763   4.529   5.160   4.422
   35CHL1  H26A 3764   4.434   5.215   4.437
   35CHL1  H26B 3765   4.600   5.201   4.497
   35CHL1  H26C 3766   4.567   5.185   4.320
   35CHL1   C27 3767   4.601   4.927   4.361
   35CHL1  H27A 3768   4.579   4.821   4.389
   35CHL1  H27B 3769   4.593   4.940   4.251
   35CHL1  H27C 3770   4.701   4.955   4.398
   36CHL1    C3 3771   0.630   3.601   6.119
   36CHL1    H3 3772   0.724   3.555   6.082
   36CHL1    O3 3773   0.642   3.590   6.262
   36CHL1   H3' 3774   0.733   3.610   6.285
   36CHL1    C4 3775   0.639   3.741   6.070
   36CHL1   H4A 3776   0.559   3.806   6.113
   36CHL1   H4B 3777   0.733   3.773   6.120
   36CHL1    C5 3778   0.643   3.762   5.922
   36CHL1    C6 3779   0.749   3.814   5.862
   36CHL1    H6 3780   0.833   3.856   5.918
   36CHL1    C7 3781   0.745   3.830   5.710
   36CHL1   H7A 3782   0.787   3.928   5.680
   36CHL1   H7B 3783   0.813   3.751   5.673
   36CHL1    C8 3784   0.599   3.815   5.651
   36CHL1    H8 3785   0.549   3.911   5.675
   36CHL1   C14 3786   0.608   3.816   5.498
   36CHL1   H14 3787   0.673   3.731   5.466
   36CHL1   C15 3788   0.679   3.934   5.430
   36CHL1  H15A 3789   0.642   4.031   5.470
   36CHL1  H15B 3790   0.787   3.921   5.452
   36CHL1   C16 3791   0.642   3.916   5.282
   36CHL1  H16A 3792   0.594   4.011   5.248
   36CHL1  H16B 3793   0.728   3.882   5.220
   36CHL1   C17 3794   0.520   3.816   5.269
   36CHL1   H17 3795   0.570   3.723   5.235
   36CHL1   C13 3796   0.474   3.789   5.422
   36CHL1   C18 3797   0.369   3.885   5.452
   36CHL1  H18A 3798   0.395   3.988   5.421
   36CHL1  H18B 3799   0.270   3.851   5.417
   36CHL1  H18C 3800   0.361   3.898   5.562
   36CHL1   C12 3801   0.425   3.648   5.458
   36CHL1  H12A 3802   0.318   3.640   5.427
   36CHL1  H12B 3803   0.477   3.563   5.410
   36CHL1   C11 3804   0.413   3.631   5.617
   36CHL1  H11A 3805   0.319   3.675   5.654
   36CHL1  H11B 3806   0.404   3.523   5.642
   36CHL1    C9 3807   0.535   3.689   5.703
   36CHL1    H9 3808   0.612   3.612   5.678
   36CHL1   C10 3809   0.522   3.695   5.856
   36CHL1   C19 3810   0.402   3.782   5.891
   36CHL1  H19A 3811   0.383   3.774   6.000
   36CHL1  H19B 3812   0.410   3.887   5.857
   36CHL1  H19C 3813   0.309   3.740   5.848
   36CHL1    C1 3814   0.512   3.547   5.914
   36CHL1   H1A 3815   0.410   3.514   5.887
   36CHL1   H1B 3816   0.588   3.478   5.872
   36CHL1    C2 3817   0.510   3.530   6.071
   36CHL1   H2A 3818   0.508   3.428   6.116
   36CHL1   H2B 3819   0.422   3.586   6.110
   36CHL1   C20 3820   0.418   3.842   5.156
   36CHL1   H20 3821   0.362   3.926   5.201
   36CHL1   C21 3822   0.337   3.719   5.132
   36CHL1  H21A 3823   0.287   3.687   5.226
   36CHL1  H21B 3824   0.405   3.638   5.098
   36CHL1  H21C 3825   0.263   3.738   5.052
   36CHL1   C22 3826   0.490   3.876   5.020
   36CHL1  H22A 3827   0.588   3.924   5.041
   36CHL1  H22B 3828   0.508   3.782   4.963
   36CHL1   C23 3829   0.393   3.964   4.929
   36CHL1  H23A 3830   0.298   3.906   4.928
   36CHL1  H23B 3831   0.365   4.056   4.984
   36CHL1   C24 3832   0.459   3.977   4.789
   36CHL1  H24A 3833   0.566   4.003   4.801
   36CHL1  H24B 3834   0.452   3.885   4.727
   36CHL1   C25 3835   0.406   4.095   4.707
   36CHL1   H25 3836   0.413   4.188   4.768
   36CHL1   C26 3837   0.499   4.119   4.584
   36CHL1  H26A 3838   0.609   4.114   4.599
   36CHL1  H26B 3839   0.465   4.049   4.504
   36CHL1  H26C 3840   0.484   4.223   4.549
   36CHL1   C27 3841   0.261   4.084   4.665
   36CHL1  H27A 3842   0.244   4.006   4.588
   36CHL1  H27B 3843   0.197   4.073   4.755
   36CHL1  H27C 3844   0.229   4.178   4.615
   37CHL1    C3 3845   0.725   0.207   5.945
   37CHL1    H3 3846   0.820   0.153   5.924
   37CHL1    O3 3847   0.680   0.171   6.073
   37CHL1   H3' 3848   0.596   0.219   6.076
   37CHL1    C4 3849   0.744   0.358   5.913
   37CHL1   H4A 3850   0.646   0.407   5.928
   37CHL1   H4B 3851   0.823   0.395   5.982
   37CHL1    C5 3852   0.788   0.391   5.774
   37CHL1    C6 3853   0.893   0.460   5.738
   37CHL1    H6 3854   0.947   0.504   5.824
   37CHL1    C7 3855   0.934   0.518   5.606
   37CHL1   H7A 3856   0.928   0.628   5.615
   37CHL1   H7B 3857   1.037   0.503   5.567
   37CHL1    C8 3858   0.832   0.483   5.496
   37CHL1    H8 3859   0.755   0.562   5.498
   37CHL1   C14 3860   0.887   0.485   5.355
   37CHL1   H14 3861   0.962   0.403   5.356
   37CHL1   C15 3862   0.977   0.596   5.315
   37CHL1  H15A 3863   0.934   0.692   5.349
   37CHL1  H15B 3864   1.082   0.592   5.352
   37CHL1   C16 3865   0.983   0.590   5.164
   37CHL1  H16A 3866   0.976   0.694   5.125
   37CHL1  H16B 3867   1.088   0.558   5.144
   37CHL1   C17 3868   0.875   0.491   5.118
   37CHL1   H17 3869   0.928   0.395   5.094
   37CHL1   C13 3870   0.788   0.464   5.242
   37CHL1   C18 3871   0.672   0.572   5.244
   37CHL1  H18A 3872   0.712   0.675   5.229
   37CHL1  H18B 3873   0.597   0.546   5.166
   37CHL1  H18C 3874   0.629   0.584   5.346
   37CHL1   C12 3875   0.745   0.315   5.260
   37CHL1  H12A 3876   0.665   0.298   5.185
   37CHL1  H12B 3877   0.831   0.247   5.245
   37CHL1   C11 3878   0.676   0.291   5.403
   37CHL1  H11A 3879   0.585   0.354   5.399
   37CHL1  H11B 3880   0.654   0.182   5.405
   37CHL1    C9 3881   0.763   0.339   5.519
   37CHL1    H9 3882   0.856   0.278   5.518
   37CHL1   C10 3883   0.693   0.328   5.666
   37CHL1   C19 3884   0.571   0.423   5.665
   37CHL1  H19A 3885   0.535   0.444   5.768
   37CHL1  H19B 3886   0.585   0.513   5.601
   37CHL1  H19C 3887   0.489   0.370   5.612
   37CHL1    C1 3888   0.661   0.181   5.697
   37CHL1   H1A 3889   0.579   0.131   5.641
   37CHL1   H1B 3890   0.750   0.117   5.678
   37CHL1    C2 3891   0.623   0.153   5.850
   37CHL1   H2A 3892   0.605   0.043   5.848
   37CHL1   H2B 3893   0.522   0.197   5.866
   37CHL1   C20 3894   0.811   0.532   4.984
   37CHL1   H20 3895   0.743   0.616   5.010
   37CHL1   C21 3896   0.727   0.417   4.934
   37CHL1  H21A 3897   0.632   0.408   4.992
   37CHL1  H21B 3898   0.782   0.322   4.944
   37CHL1  H21C 3899   0.698   0.429   4.827
   37CHL1   C22 3900   0.911   0.580   4.869
   37CHL1  H22A 3901   0.847   0.600   4.780
   37CHL1  H22B 3902   0.952   0.680   4.895
   37CHL1   C23 3903   1.015   0.476   4.830
   37CHL1  H23A 3904   1.079   0.460   4.919
   37CHL1  H23B 3905   0.959   0.385   4.796
   37CHL1   C24 3906   1.094   0.528   4.718
   37CHL1  H24A 3907   1.037   0.555   4.627
   37CHL1  H24B 3908   1.150   0.618   4.753
   37CHL1   C25 3909   1.205   0.440   4.654
   37CHL1   H25 3910   1.143   0.350   4.634
   37CHL1   C26 3911   1.254   0.495   4.519
   37CHL1  H26A 3912   1.306   0.593   4.519
   37CHL1  H26B 3913   1.309   0.421   4.457
   37CHL1  H26C 3914   1.162   0.507   4.458
   37CHL1   C27 3915   1.315   0.413   4.743
   37CHL1  H27A 3916   1.289   0.348   4.829
   37CHL1  H27B 3917   1.378   0.344   4.682
   37CHL1  H27C 3918   1.379   0.499   4.772
   38CHL1    C3 3919   1.553   0.888   5.924
   38CHL1    H3 3920   1.465   0.872   5.858
   38CHL1    O3 3921   1.513   0.861   6.053
   38CHL1   H3' 3922   1.597   0.862   6.099
   38CHL1    C4 3923   1.667   0.802   5.882
   38CHL1   H4A 3924   1.750   0.844   5.944
   38CHL1   H4B 3925   1.653   0.694   5.900
   38CHL1    C5 3926   1.707   0.836   5.735
   38CHL1    C6 3927   1.709   0.745   5.636
   38CHL1    H6 3928   1.711   0.636   5.652
   38CHL1    C7 3929   1.749   0.778   5.491
   38CHL1   H7A 3930   1.834   0.718   5.452
   38CHL1   H7B 3931   1.658   0.752   5.432
   38CHL1    C8 3932   1.795   0.921   5.467
   38CHL1    H8 3933   1.900   0.928   5.502
   38CHL1   C14 3934   1.783   0.957   5.320
   38CHL1   H14 3935   1.674   0.956   5.296
   38CHL1   C15 3936   1.851   0.861   5.219
   38CHL1  H15A 3937   1.953   0.832   5.250
   38CHL1  H15B 3938   1.782   0.777   5.197
   38CHL1   C16 3939   1.858   0.938   5.090
   38CHL1  H16A 3940   1.965   0.945   5.059
   38CHL1  H16B 3941   1.821   0.885   4.999
   38CHL1   C17 3942   1.811   1.084   5.122
   38CHL1   H17 3943   1.701   1.094   5.106
   38CHL1   C13 3944   1.826   1.095   5.274
   38CHL1   C18 3945   1.968   1.123   5.312
   38CHL1  H18A 3946   2.042   1.059   5.260
   38CHL1  H18B 3947   2.003   1.226   5.291
   38CHL1  H18C 3948   1.989   1.103   5.420
   38CHL1   C12 3949   1.737   1.203   5.354
   38CHL1  H12A 3950   1.767   1.308   5.334
   38CHL1  H12B 3951   1.630   1.183   5.328
   38CHL1   C11 3952   1.739   1.167   5.505
   38CHL1  H11A 3953   1.837   1.205   5.542
   38CHL1  H11B 3954   1.664   1.240   5.542
   38CHL1    C9 3955   1.710   1.020   5.547
   38CHL1    H9 3956   1.610   0.998   5.503
   38CHL1   C10 3957   1.715   0.987   5.697
   38CHL1   C19 3958   1.849   1.043   5.755
   38CHL1  H19A 3959   1.932   1.019   5.685
   38CHL1  H19B 3960   1.858   1.152   5.776
   38CHL1  H19C 3961   1.874   1.004   5.856
   38CHL1    C1 3962   1.600   1.069   5.756
   38CHL1   H1A 3963   1.607   1.176   5.730
   38CHL1   H1B 3964   1.494   1.051   5.726
   38CHL1    C2 3965   1.585   1.040   5.911
   38CHL1   H2A 3966   1.510   1.101   5.966
   38CHL1   H2B 3967   1.687   1.054   5.955
   38CHL1   C20 3968   1.878   1.188   5.041
   38CHL1   H20 3969   1.985   1.191   5.071
   38CHL1   C21 3970   1.825   1.336   5.050
   38CHL1  H21A 3971   1.889   1.406   4.993
   38CHL1  H21B 3972   1.824   1.375   5.154
   38CHL1  H21C 3973   1.719   1.339   5.017
   38CHL1   C22 3974   1.890   1.153   4.894
   38CHL1  H22A 3975   1.931   1.240   4.838
   38CHL1  H22B 3976   1.968   1.075   4.886
   38CHL1   C23 3977   1.755   1.108   4.828
   38CHL1  H23A 3978   1.760   0.997   4.834
   38CHL1  H23B 3979   1.670   1.156   4.882
   38CHL1   C24 3980   1.751   1.154   4.685
   38CHL1  H24A 3981   1.747   1.265   4.690
   38CHL1  H24B 3982   1.841   1.121   4.630
   38CHL1   C25 3983   1.632   1.100   4.606
   38CHL1   H25 3984   1.547   1.080   4.674
   38CHL1   C26 3985   1.597   1.206   4.504
   38CHL1  H26A 3986   1.546   1.294   4.549
   38CHL1  H26B 3987   1.696   1.228   4.458
   38CHL1  H26C 3988   1.522   1.176   4.429
   38CHL1   C27 3989   1.662   0.960   4.543
   38CHL1  H27A 3990   1.583   0.933   4.470
   38CHL1  H27B 3991   1.761   0.964   4.493
   38CHL1  H27C 3992   1.677   0.880   4.619
   39CHL1    C3 3993   3.568   1.510   6.262
   39CHL1    H3 3994   3.463   1.496   6.229
   39CHL1    O3 3995   3.571   1.511   6.408
   39CHL1   H3' 3996   3.514   1.580   6.443
   39CHL1    C4 3997   3.644   1.389   6.205
   39CHL1   H4A 3998   3.747   1.381   6.244
   39CHL1   H4B 3999   3.599   1.297   6.249
   39CHL1    C5 4000   3.636   1.388   6.054
   39CHL1    C6 4001   3.576   1.291   5.980
   39CHL1    H6 4002   3.536   1.207   6.038
   39CHL1    C7 4003   3.571   1.291   5.834
   39CHL1   H7A 4004   3.586   1.188   5.795
   39CHL1   H7B 4005   3.468   1.317   5.800
   39CHL1    C8 4006   3.667   1.393   5.772
   39CHL1    H8 4007   3.772   1.359   5.782
   39CHL1   C14 4008   3.630   1.412   5.623
   39CHL1   H14 4009   3.531   1.462   5.617
   39CHL1   C15 4010   3.617   1.290   5.538
   39CHL1  H15A 4011   3.700   1.224   5.572
   39CHL1  H15B 4012   3.523   1.237   5.564
   39CHL1   C16 4013   3.624   1.335   5.397
   39CHL1  H16A 4014   3.691   1.274   5.333
   39CHL1  H16B 4015   3.531   1.326   5.336
   39CHL1   C17 4016   3.670   1.484   5.399
   39CHL1   H17 4017   3.574   1.540   5.390
   39CHL1   C13 4018   3.720   1.502   5.543
   39CHL1   C18 4019   3.873   1.463   5.546
   39CHL1  H18A 4020   3.937   1.544   5.504
   39CHL1  H18B 4021   3.897   1.435   5.651
   39CHL1  H18C 4022   3.890   1.370   5.487
   39CHL1   C12 4023   3.702   1.637   5.608
   39CHL1  H12A 4024   3.768   1.712   5.561
   39CHL1  H12B 4025   3.599   1.678   5.600
   39CHL1   C11 4026   3.729   1.638   5.758
   39CHL1  H11A 4027   3.839   1.639   5.773
   39CHL1  H11B 4028   3.692   1.734   5.798
   39CHL1    C9 4029   3.653   1.530   5.843
   39CHL1    H9 4030   3.545   1.553   5.840
   39CHL1   C10 4031   3.687   1.521   5.990
   39CHL1   C19 4032   3.839   1.514   6.019
   39CHL1  H19A 4033   3.875   1.478   6.117
   39CHL1  H19B 4034   3.889   1.450   5.943
   39CHL1  H19C 4035   3.872   1.619   6.005
   39CHL1    C1 4036   3.638   1.650   6.061
   39CHL1   H1A 4037   3.706   1.732   6.031
   39CHL1   H1B 4038   3.538   1.675   6.020
   39CHL1    C2 4039   3.635   1.641   6.215
   39CHL1   H2A 4040   3.578   1.729   6.251
   39CHL1   H2B 4041   3.740   1.640   6.251
   39CHL1   C20 4042   3.759   1.530   5.280
   39CHL1   H20 4043   3.857   1.479   5.276
   39CHL1   C21 4044   3.776   1.681   5.285
   39CHL1  H21A 4045   3.856   1.709   5.358
   39CHL1  H21B 4046   3.681   1.726   5.321
   39CHL1  H21C 4047   3.803   1.734   5.191
   39CHL1   C22 4048   3.698   1.484   5.143
   39CHL1  H22A 4049   3.671   1.377   5.158
   39CHL1  H22B 4050   3.602   1.538   5.129
   39CHL1   C23 4051   3.798   1.506   5.032
   39CHL1  H23A 4052   3.799   1.613   5.004
   39CHL1  H23B 4053   3.900   1.477   5.063
   39CHL1   C24 4054   3.763   1.427   4.900
   39CHL1  H24A 4055   3.764   1.322   4.935
   39CHL1  H24B 4056   3.663   1.454   4.860
   39CHL1   C25 4057   3.868   1.438   4.792
   39CHL1   H25 4058   3.968   1.410   4.832
   39CHL1   C26 4059   3.844   1.349   4.676
   39CHL1  H26A 4060   3.843   1.244   4.712
   39CHL1  H26B 4061   3.745   1.377   4.635
   39CHL1  H26C 4062   3.913   1.351   4.589
   39CHL1   C27 4063   3.884   1.587   4.736
   39CHL1  H27A 4064   3.967   1.591   4.661
   39CHL1  H27B 4065   3.788   1.613   4.685
   39CHL1  H27C 4066   3.908   1.670   4.805
   40CHL1    C3 4067   3.421   4.207   6.000
   40CHL1    H3 4068   3.342   4.283   5.984
   40CHL1    O3 4069   3.411   4.162   6.135
   40CHL1   H3' 4070   3.471   4.088   6.147
   40CHL1    C4 4071   3.371   4.092   5.910
   40CHL1   H4A 4072   3.432   4.000   5.923
   40CHL1   H4B 4073   3.269   4.058   5.937
   40CHL1    C5 4074   3.381   4.145   5.765
   40CHL1    C6 4075   3.277   4.139   5.680
   40CHL1    H6 4076   3.181   4.096   5.711
   40CHL1    C7 4077   3.288   4.187   5.534
   40CHL1   H7A 4078   3.221   4.120   5.476
   40CHL1   H7B 4079   3.242   4.287   5.524
   40CHL1    C8 4080   3.433   4.202   5.482
   40CHL1    H8 4081   3.471   4.099   5.462
   40CHL1   C14 4082   3.435   4.267   5.340
   40CHL1   H14 4083   3.385   4.366   5.349
   40CHL1   C15 4084   3.347   4.195   5.239
   40CHL1  H15A 4085   3.359   4.085   5.237
   40CHL1  H15B 4086   3.242   4.213   5.271
   40CHL1   C16 4087   3.388   4.270   5.111
   40CHL1  H16A 4088   3.417   4.193   5.036
   40CHL1  H16B 4089   3.299   4.330   5.081
   40CHL1   C17 4090   3.511   4.357   5.141
   40CHL1   H17 4091   3.484   4.455   5.184
   40CHL1   C13 4092   3.570   4.289   5.276
   40CHL1   C18 4093   3.642   4.156   5.241
   40CHL1  H18A 4094   3.583   4.094   5.170
   40CHL1  H18B 4095   3.742   4.171   5.195
   40CHL1  H18C 4096   3.651   4.098   5.335
   40CHL1   C12 4097   3.652   4.376   5.375
   40CHL1  H12A 4098   3.754   4.395   5.335
   40CHL1  H12B 4099   3.600   4.475   5.378
   40CHL1   C11 4100   3.662   4.321   5.521
   40CHL1  H11A 4101   3.741   4.245   5.508
   40CHL1  H11B 4102   3.717   4.403   5.573
   40CHL1    C9 4103   3.523   4.281   5.581
   40CHL1    H9 4104   3.471   4.376   5.606
   40CHL1   C10 4105   3.524   4.200   5.718
   40CHL1   C19 4106   3.635   4.089   5.710
   40CHL1  H19A 4107   3.635   4.020   5.797
   40CHL1  H19B 4108   3.623   4.043   5.610
   40CHL1  H19C 4109   3.732   4.143   5.711
   40CHL1    C1 4110   3.566   4.305   5.827
   40CHL1   H1A 4111   3.668   4.339   5.801
   40CHL1   H1B 4112   3.496   4.390   5.811
   40CHL1    C2 4113   3.561   4.254   5.974
   40CHL1   H2A 4114   3.587   4.340   6.038
   40CHL1   H2B 4115   3.642   4.179   5.989
   40CHL1   C20 4116   3.602   4.386   5.027
   40CHL1   H20 4117   3.615   4.287   4.978
   40CHL1   C21 4118   3.747   4.424   5.076
   40CHL1  H21A 4119   3.816   4.343   5.110
   40CHL1  H21B 4120   3.745   4.505   5.152
   40CHL1  H21C 4121   3.811   4.459   4.992
   40CHL1   C22 4122   3.546   4.491   4.929
   40CHL1  H22A 4123   3.437   4.472   4.914
   40CHL1  H22B 4124   3.554   4.588   4.984
   40CHL1   C23 4125   3.626   4.491   4.803
   40CHL1  H23A 4126   3.599   4.583   4.746
   40CHL1  H23B 4127   3.735   4.502   4.820
   40CHL1   C24 4128   3.583   4.372   4.721
   40CHL1  H24A 4129   3.623   4.279   4.765
   40CHL1  H24B 4130   3.473   4.357   4.719
   40CHL1   C25 4131   3.628   4.364   4.573
   40CHL1   H25 4132   3.738   4.376   4.580
   40CHL1   C26 4133   3.600   4.233   4.502
   40CHL1  H26A 4134   3.652   4.248   4.405
   40CHL1  H26B 4135   3.634   4.137   4.548
   40CHL1  H26C 4136   3.490   4.228   4.486
   40CHL1   C27 4137   3.576   4.482   4.492
   40CHL1  H27A 4138   3.604   4.464   4.386
   40CHL1  H27B 4139   3.467   4.485   4.512
   40CHL1  H27C 4140   3.623   4.576   4.528
   41CHL1    C3 4141   0.654   4.933   5.925
   41CHL1    H3 4142   0.550   4.965   5.944
   41CHL1    O3 4143   0.716   4.899   6.047
   41CHL1   H3' 4144   0.688   4.964   6.112
   41CHL1    C4 4145   0.652   4.815   5.826
   41CHL1   H4A 4146   0.751   4.763   5.827
   41CHL1   H4B 4147   0.578   4.738   5.859
   41CHL1    C5 4148   0.624   4.834   5.680
   41CHL1    C6 4149   0.549   4.742   5.614
   41CHL1    H6 4150   0.505   4.654   5.662
   41CHL1    C7 4151   0.538   4.744   5.462
   41CHL1   H7A 4152   0.554   4.642   5.422
   41CHL1   H7B 4153   0.429   4.761   5.451
   41CHL1    C8 4154   0.620   4.856   5.386
   41CHL1    H8 4155   0.715   4.801   5.368
   41CHL1   C14 4156   0.563   4.891   5.248
   41CHL1   H14 4157   0.458   4.924   5.264
   41CHL1   C15 4158   0.548   4.780   5.137
   41CHL1  H15A 4159   0.642   4.722   5.132
   41CHL1  H15B 4160   0.461   4.712   5.152
   41CHL1   C16 4161   0.534   4.850   5.005
   41CHL1  H16A 4162   0.578   4.787   4.925
   41CHL1  H16B 4163   0.428   4.841   4.973
   41CHL1   C17 4164   0.579   5.000   5.032
   41CHL1   H17 4165   0.486   5.056   5.054
   41CHL1   C13 4166   0.642   5.006   5.175
   41CHL1   C18 4167   0.792   4.957   5.146
   41CHL1  H18A 4168   0.857   5.038   5.106
   41CHL1  H18B 4169   0.857   4.937   5.234
   41CHL1  H18C 4170   0.797   4.864   5.086
   41CHL1   C12 4171   0.622   5.131   5.260
   41CHL1  H12A 4172   0.662   5.222   5.211
   41CHL1  H12B 4173   0.516   5.156   5.277
   41CHL1   C11 4174   0.694   5.105   5.398
   41CHL1  H11A 4175   0.802   5.085   5.377
   41CHL1  H11B 4176   0.687   5.196   5.461
   41CHL1    C9 4177   0.635   4.978   5.471
   41CHL1    H9 4178   0.533   5.018   5.490
   41CHL1   C10 4179   0.699   4.950   5.609
   41CHL1   C19 4180   0.849   4.922   5.595
   41CHL1  H19A 4181   0.899   4.999   5.532
   41CHL1  H19B 4182   0.917   4.916   5.684
   41CHL1  H19C 4183   0.859   4.825   5.543
   41CHL1    C1 4184   0.673   5.068   5.707
   41CHL1   H1A 4185   0.720   5.158   5.664
   41CHL1   H1B 4186   0.563   5.082   5.715
   41CHL1    C2 4187   0.721   5.052   5.852
   41CHL1   H2A 4188   0.698   5.139   5.917
   41CHL1   H2B 4189   0.831   5.037   5.851
   41CHL1   C20 4190   0.653   5.073   4.912
   41CHL1   H20 4191   0.746   5.017   4.888
   41CHL1   C21 4192   0.694   5.218   4.941
   41CHL1  H21A 4193   0.607   5.269   4.988
   41CHL1  H21B 4194   0.727   5.285   4.859
   41CHL1  H21C 4195   0.775   5.211   5.017
   41CHL1   C22 4196   0.564   5.063   4.786
   41CHL1  H22A 4197   0.537   4.956   4.769
   41CHL1  H22B 4198   0.475   5.130   4.791
   41CHL1   C23 4199   0.642   5.108   4.658
   41CHL1  H23A 4200   0.658   5.217   4.675
   41CHL1  H23B 4201   0.742   5.060   4.652
   41CHL1   C24 4202   0.559   5.088   4.529
   41CHL1  H24A 4203   0.466   5.148   4.539
   41CHL1  H24B 4204   0.616   5.115   4.437
   41CHL1   C25 4205   0.517   4.941   4.499
   41CHL1   H25 4206   0.464   4.899   4.587
   41CHL1   C26 4207   0.415   4.929   4.382
   41CHL1  H26A 4208   0.451   4.983   4.291
   41CHL1  H26B 4209   0.389   4.825   4.355
   41CHL1  H26C 4210   0.318   4.972   4.415
   41CHL1   C27 4211   0.647   4.860   4.470
   41CHL1  H27A 4212   0.719   4.864   4.554
   41CHL1  H27B 4213   0.621   4.756   4.441
   41CHL1  H27C 4214   0.699   4.907   4.384
   42CHL1    C3 4215   5.531   3.631   6.203
   42CHL1    H3 4216   5.455   3.706   6.171
   42CHL1    O3 4217   5.555   3.631   6.339
   42CHL1   H3' 4218   5.645   3.601   6.354
   42CHL1    C4 4219   5.464   3.502   6.161
   42CHL1   H4A 4220   5.513   3.410   6.199
   42CHL1   H4B 4221   5.359   3.499   6.198
   42CHL1    C5 4222   5.463   3.493   6.008
   42CHL1    C6 4223   5.355   3.457   5.931
   42CHL1    H6 4224   5.266   3.433   5.991
   42CHL1    C7 4225   5.348   3.443   5.781
   42CHL1   H7A 4226   5.288   3.356   5.745
   42CHL1   H7B 4227   5.296   3.528   5.730
   42CHL1    C8 4228   5.479   3.426   5.718
   42CHL1    H8 4229   5.515   3.323   5.737
   42CHL1   C14 4230   5.467   3.439   5.567
   42CHL1   H14 4231   5.432   3.544   5.553
   42CHL1   C15 4232   5.365   3.351   5.496
   42CHL1  H15A 4233   5.375   3.250   5.541
   42CHL1  H15B 4234   5.265   3.387   5.528
   42CHL1   C16 4235   5.418   3.345   5.356
   42CHL1  H16A 4236   5.438   3.241   5.322
   42CHL1  H16B 4237   5.330   3.380   5.298
   42CHL1   C17 4238   5.539   3.432   5.344
   42CHL1   H17 4239   5.496   3.534   5.338
   42CHL1   C13 4240   5.601   3.426   5.493
   42CHL1   C18 4241   5.660   3.288   5.512
   42CHL1  H18A 4242   5.593   3.205   5.480
   42CHL1  H18B 4243   5.752   3.285   5.449
   42CHL1  H18C 4244   5.690   3.264   5.616
   42CHL1   C12 4245   5.698   3.534   5.539
   42CHL1  H12A 4246   5.797   3.521   5.492
   42CHL1  H12B 4247   5.658   3.630   5.500
   42CHL1   C11 4248   5.717   3.535   5.696
   42CHL1  H11A 4249   5.796   3.459   5.712
   42CHL1  H11B 4250   5.770   3.631   5.716
   42CHL1    C9 4251   5.580   3.526   5.779
   42CHL1    H9 4252   5.537   3.627   5.767
   42CHL1   C10 4253   5.592   3.528   5.936
   42CHL1   C19 4254   5.684   3.418   5.976
   42CHL1  H19A 4255   5.691   3.398   6.085
   42CHL1  H19B 4256   5.653   3.325   5.924
   42CHL1  H19C 4257   5.788   3.445   5.949
   42CHL1    C1 4258   5.636   3.672   5.980
   42CHL1   H1A 4259   5.729   3.702   5.927
   42CHL1   H1B 4260   5.558   3.742   5.945
   42CHL1    C2 4261   5.660   3.669   6.129
   42CHL1   H2A 4262   5.702   3.763   6.170
   42CHL1   H2B 4263   5.732   3.591   6.161
   42CHL1   C20 4264   5.632   3.407   5.219
   42CHL1   H20 4265   5.653   3.298   5.221
   42CHL1   C21 4266   5.762   3.493   5.234
   42CHL1  H21A 4267   5.823   3.504   5.142
   42CHL1  H21B 4268   5.835   3.449   5.306
   42CHL1  H21C 4269   5.739   3.597   5.265
   42CHL1   C22 4270   5.556   3.447   5.091
   42CHL1  H22A 4271   5.457   3.397   5.088
   42CHL1  H22B 4272   5.527   3.554   5.091
   42CHL1   C23 4273   5.626   3.433   4.957
   42CHL1  H23A 4274   5.714   3.501   4.947
   42CHL1  H23B 4275   5.664   3.329   4.947
   42CHL1   C24 4276   5.538   3.480   4.845
   42CHL1  H24A 4277   5.434   3.450   4.872
   42CHL1  H24B 4278   5.543   3.591   4.835
   42CHL1   C25 4279   5.570   3.419   4.708
   42CHL1   H25 4280   5.512   3.476   4.631
   42CHL1   C26 4281   5.719   3.434   4.667
   42CHL1  H26A 4282   5.786   3.365   4.724
   42CHL1  H26B 4283   5.721   3.427   4.556
   42CHL1  H26C 4284   5.756   3.537   4.683
   42CHL1   C27 4285   5.541   3.267   4.692
   42CHL1  H27A 4286   5.442   3.238   4.733
   42CHL1  H27B 4287   5.550   3.231   4.587
   42CHL1  H27C 4288   5.610   3.198   4.745
   43CHL1    C3 4289   6.354   1.714   6.302
   43CHL1    H3 4290   6.248   1.726   6.274
   43CHL1    O3 4291   6.336   1.665   6.437
   43CHL1   H3' 4292   6.426   1.658   6.471
   43CHL1    C4 4293   6.430   1.617   6.214
   43CHL1   H4A 4294   6.534   1.609   6.254
   43CHL1   H4B 4295   6.393   1.513   6.220
   43CHL1    C5 4296   6.436   1.679   6.071
   43CHL1    C6 4297   6.392   1.613   5.965
   43CHL1    H6 4298   6.346   1.516   5.986
   43CHL1    C7 4299   6.408   1.652   5.820
   43CHL1   H7A 4300   6.449   1.570   5.757
   43CHL1   H7B 4301   6.311   1.674   5.771
   43CHL1    C8 4302   6.502   1.777   5.801
   43CHL1    H8 4303   6.605   1.738   5.818
   43CHL1   C14 4304   6.477   1.843   5.662
   43CHL1   H14 4305   6.372   1.875   5.647
   43CHL1   C15 4306   6.508   1.752   5.536
   43CHL1  H15A 4307   6.608   1.708   5.560
   43CHL1  H15B 4308   6.431   1.675   5.513
   43CHL1   C16 4309   6.519   1.850   5.418
   43CHL1  H16A 4310   6.606   1.808   5.363
   43CHL1  H16B 4311   6.429   1.848   5.352
   43CHL1   C17 4312   6.531   1.989   5.486
   43CHL1   H17 4313   6.430   2.035   5.482
   43CHL1   C13 4314   6.564   1.965   5.636
   43CHL1   C18 4315   6.713   1.928   5.651
   43CHL1  H18A 4316   6.752   1.878   5.560
   43CHL1  H18B 4317   6.769   2.024   5.656
   43CHL1  H18C 4318   6.741   1.875   5.745
   43CHL1   C12 4319   6.527   2.066   5.749
   43CHL1  H12A 4320   6.576   2.166   5.744
   43CHL1  H12B 4321   6.418   2.086   5.740
   43CHL1   C11 4322   6.544   2.008   5.893
   43CHL1  H11A 4323   6.655   2.003   5.902
   43CHL1  H11B 4324   6.506   2.084   5.965
   43CHL1    C9 4325   6.469   1.878   5.916
   43CHL1    H9 4326   6.362   1.905   5.901
   43CHL1   C10 4327   6.494   1.822   6.058
   43CHL1   C19 4328   6.649   1.803   6.085
   43CHL1  H19A 4329   6.699   1.902   6.098
   43CHL1  H19B 4330   6.657   1.763   6.188
   43CHL1  H19C 4331   6.702   1.740   6.011
   43CHL1    C1 4332   6.431   1.916   6.168
   43CHL1   H1A 4333   6.496   2.006   6.174
   43CHL1   H1B 4334   6.333   1.963   6.149
   43CHL1    C2 4335   6.414   1.856   6.310
   43CHL1   H2A 4336   6.361   1.924   6.379
   43CHL1   H2B 4337   6.517   1.843   6.350
   43CHL1   C20 4338   6.615   2.094   5.404
   43CHL1   H20 4339   6.716   2.048   5.397
   43CHL1   C21 4340   6.616   2.231   5.470
   43CHL1  H21A 4341   6.670   2.307   5.409
   43CHL1  H21B 4342   6.680   2.232   5.561
   43CHL1  H21C 4343   6.515   2.276   5.484
   43CHL1   C22 4344   6.557   2.111   5.262
   43CHL1  H22A 4345   6.553   2.012   5.212
   43CHL1  H22B 4346   6.451   2.143   5.276
   43CHL1   C23 4347   6.621   2.218   5.170
   43CHL1  H23A 4348   6.605   2.321   5.209
   43CHL1  H23B 4349   6.732   2.212   5.166
   43CHL1   C24 4350   6.558   2.202   5.032
   43CHL1  H24A 4351   6.600   2.109   4.988
   43CHL1  H24B 4352   6.447   2.201   5.041
   43CHL1   C25 4353   6.595   2.317   4.929
   43CHL1   H25 4354   6.583   2.416   4.978
   43CHL1   C26 4355   6.741   2.316   4.878
   43CHL1  H26A 4356   6.760   2.411   4.824
   43CHL1  H26B 4357   6.807   2.320   4.967
   43CHL1  H26C 4358   6.766   2.233   4.808
   43CHL1   C27 4359   6.493   2.328   4.808
   43CHL1  H27A 4360   6.406   2.365   4.865
   43CHL1  H27B 4361   6.523   2.400   4.729
   43CHL1  H27C 4362   6.477   2.231   4.756
   44CHL1    C3 4363   6.778   2.714   6.155
   44CHL1    H3 4364   6.718   2.626   6.123
   44CHL1    O3 4365   0.015   2.686   6.284
   44CHL1   H3' 4366   0.085   2.748   6.306
   44CHL1    C4 4367   0.080   2.741   6.057
   44CHL1   H4A 4368   0.155   2.812   6.097
   44CHL1   H4B 4369   0.136   2.645   6.064
   44CHL1    C5 4370   0.030   2.777   5.915
   44CHL1    C6 4371   0.069   2.708   5.807
   44CHL1    H6 4372   0.145   2.628   5.815
   44CHL1    C7 4373   0.029   2.738   5.667
   44CHL1   H7A 4374   0.122   2.746   5.607
   44CHL1   H7B 4375   6.785   2.652   5.630
   44CHL1    C8 4376   6.767   2.864   5.658
   44CHL1    H8 4377   0.028   2.945   5.662
   44CHL1   C14 4378   6.695   2.875   5.526
   44CHL1   H14 4379   6.609   2.805   5.527
   44CHL1   C15 4380   6.785   2.851   5.403
   44CHL1  H15A 4381   0.066   2.908   5.411
   44CHL1  H15B 4382   6.801   2.744   5.378
   44CHL1   C16 4383   6.712   2.918   5.289
   44CHL1  H16A 4384   6.785   2.986   5.239
   44CHL1  H16B 4385   6.679   2.844   5.212
   44CHL1   C17 4386   6.591   2.992   5.357
   44CHL1   H17 4387   6.510   2.917   5.370
   44CHL1   C13 4388   6.631   3.010   5.508
   44CHL1   C18 4389   6.732   3.128   5.526
   44CHL1  H18A 4390   6.663   3.215   5.524
   44CHL1  H18B 4391   6.788   3.117   5.621
   44CHL1  H18C 4392   6.812   3.131   5.449
   44CHL1   C12 4393   6.514   3.012   5.608
   44CHL1  H12A 4394   6.444   3.096   5.590
   44CHL1  H12B 4395   6.449   2.922   5.595
   44CHL1   C11 4396   6.577   3.005   5.753
   44CHL1  H11A 4397   6.636   3.098   5.764
   44CHL1  H11B 4398   6.494   2.999   5.827
   44CHL1    C9 4399   6.672   2.888   5.772
   44CHL1    H9 4400   6.605   2.800   5.766
   44CHL1   C10 4401   6.733   2.877   5.906
   44CHL1   C19 4402   6.787   3.009   5.948
   44CHL1  H19A 4403   0.039   3.065   5.879
   44CHL1  H19B 4404   6.715   3.088   5.977
   44CHL1  H19C 4405   0.030   2.999   6.043
   44CHL1    C1 4406   6.625   2.857   6.020
   44CHL1   H1A 4407   6.560   2.946   6.024
   44CHL1   H1B 4408   6.565   2.766   5.998
   44CHL1    C2 4409   6.680   2.832   6.159
   44CHL1   H2A 4410   6.594   2.813   6.227
   44CHL1   H2B 4411   6.744   2.913   6.200
   44CHL1   C20 4412   6.530   3.116   5.288
   44CHL1   H20 4413   6.493   3.185   5.366
   44CHL1   C21 4414   6.409   3.060   5.206
   44CHL1  H21A 4415   6.345   2.984   5.255
   44CHL1  H21B 4416   6.448   3.011   5.114
   44CHL1  H21C 4417   6.347   3.143   5.165
   44CHL1   C22 4418   6.633   3.190   5.196
   44CHL1  H22A 4419   6.727   3.207   5.253
   44CHL1  H22B 4420   6.665   3.126   5.111
   44CHL1   C23 4421   6.591   3.324   5.149
   44CHL1  H23A 4422   6.510   3.308   5.074
   44CHL1  H23B 4423   6.560   3.398   5.226
   44CHL1   C24 4424   6.698   3.390   5.060
   44CHL1  H24A 4425   6.764   3.447   5.128
   44CHL1  H24B 4426   6.752   3.307   5.009
   44CHL1   C25 4427   6.638   3.478   4.951
   44CHL1   H25 4428   6.569   3.414   4.892
   44CHL1   C26 4429   6.567   3.597   5.019
   44CHL1  H26A 4430   6.651   3.651   5.069
   44CHL1  H26B 4431   6.532   3.680   4.955
   44CHL1  H26C 4432   6.491   3.565   5.093
   44CHL1   C27 4433   6.734   3.539   4.843
   44CHL1  H27A 4434   6.682   3.581   4.754
   44CHL1  H27B 4435   6.810   3.614   4.878
   44CHL1  H27C 4436   6.782   3.442   4.817
   45CHL1    C3 4437   0.080   3.884   6.133
   45CHL1    H3 4438   0.177   3.847   6.094
   45CHL1    O3 4439   0.060   3.821   6.257
   45CHL1   H3' 4440   0.012   3.884   6.311
   45CHL1    C4 4441   0.079   4.031   6.135
   45CHL1   H4A 4442   6.791   4.059   6.169
   45CHL1   H4B 4443   0.149   4.066   6.213
   45CHL1    C5 4444   0.102   4.095   6.000
   45CHL1    C6 4445   0.213   4.170   5.982
   45CHL1    H6 4446   0.287   4.176   6.064
   45CHL1    C7 4447   0.271   4.220   5.853
   45CHL1   H7A 4448   0.319   4.320   5.867
   45CHL1   H7B 4449   0.347   4.147   5.820
   45CHL1    C8 4450   0.160   4.218   5.746
   45CHL1    H8 4451   0.094   4.304   5.767
   45CHL1   C14 4452   0.214   4.235   5.606
   45CHL1   H14 4453   0.274   4.143   5.588
   45CHL1   C15 4454   0.323   4.330   5.581
   45CHL1  H15A 4455   0.309   4.426   5.635
   45CHL1  H15B 4456   0.422   4.286   5.605
   45CHL1   C16 4457   0.315   4.361   5.430
   45CHL1  H16A 4458   0.271   4.463   5.434
   45CHL1  H16B 4459   0.414   4.363   5.379
   45CHL1   C17 4460   0.203   4.265   5.376
   45CHL1   H17 4461   0.260   4.171   5.361
   45CHL1   C13 4462   0.105   4.247   5.500
   45CHL1   C18 4463   0.021   4.383   5.504
   45CHL1  H18A 4464   6.751   4.379   5.432
   45CHL1  H18B 4465   6.792   4.395   5.605
   45CHL1  H18C 4466   0.085   4.470   5.478
   45CHL1   C12 4467   0.018   4.126   5.498
   45CHL1  H12A 4468   6.742   4.126   5.433
   45CHL1  H12B 4469   0.071   4.034   5.465
   45CHL1   C11 4470   6.771   4.090   5.642
   45CHL1  H11A 4471   6.693   4.168   5.652
   45CHL1  H11B 4472   6.731   3.986   5.642
   45CHL1    C9 4473   0.071   4.085   5.751
   45CHL1    H9 4474   0.130   3.996   5.720
   45CHL1   C10 4475   0.011   4.056   5.888
   45CHL1   C19 4476   6.698   4.142   5.914
   45CHL1  H19A 4477   6.615   4.104   5.852
   45CHL1  H19B 4478   6.661   4.151   6.019
   45CHL1  H19C 4479   6.712   4.246   5.877
   45CHL1    C1 4480   6.792   3.905   5.905
   45CHL1   H1A 4481   6.699   3.879   5.851
   45CHL1   H1B 4482   0.060   3.857   5.848
   45CHL1    C2 4483   6.786   3.841   6.042
   45CHL1   H2A 4484   6.787   3.731   6.033
   45CHL1   H2B 4485   6.687   3.861   6.089
   45CHL1   C20 4486   0.144   4.311   5.237
   45CHL1   H20 4487   0.070   4.392   5.254
   45CHL1   C21 4488   0.071   4.200   5.160
   45CHL1  H21A 4489   0.016   4.242   5.074
   45CHL1  H21B 4490   6.808   4.149   5.221
   45CHL1  H21C 4491   0.139   4.121   5.121
   45CHL1   C22 4492   0.261   4.368   5.147
   45CHL1  H22A 4493   0.281   4.469   5.189
   45CHL1  H22B 4494   0.354   4.307   5.152
   45CHL1   C23 4495   0.230   4.392   5.008
   45CHL1  H23A 4496   0.220   4.292   4.959
   45CHL1  H23B 4497   0.131   4.441   5.003
   45CHL1   C24 4498   0.336   4.474   4.931
   45CHL1  H24A 4499   0.362   4.561   4.997
   45CHL1  H24B 4500   0.432   4.419   4.921
   45CHL1   C25 4501   0.301   4.509   4.787
   45CHL1   H25 4502   0.266   4.413   4.743
   45CHL1   C26 4503   0.185   4.614   4.781
   45CHL1  H26A 4504   0.166   4.632   4.673
   45CHL1  H26B 4505   0.091   4.589   4.835
   45CHL1  H26C 4506   0.209   4.715   4.821
   45CHL1   C27 4507   0.410   4.547   4.698
   45CHL1  H27A 4508   0.377   4.554   4.593
   45CHL1  H27B 4509   0.455   4.645   4.726
   45CHL1  H27C 4510   0.497   4.478   4.695
   46CHL1    C3 4511   2.131   6.314   5.878
   46CHL1    H3 4512   2.199   6.232   5.910
   46CHL1    O3 4513   2.082   6.364   6.002
   46CHL1   H3' 4514   2.016   6.429   5.975
   46CHL1    C4 4515   2.208   6.423   5.795
   46CHL1   H4A 4516   2.125   6.494   5.775
   46CHL1   H4B 4517   2.278   6.477   5.863
   46CHL1    C5 4518   2.261   6.368   5.663
   46CHL1    C6 4519   2.388   6.367   5.633
   46CHL1    H6 4520   2.455   6.433   5.692
   46CHL1    C7 4521   2.454   6.315   5.507
   46CHL1   H7A 4522   2.523   6.393   5.467
   46CHL1   H7B 4523   2.515   6.223   5.517
   46CHL1    C8 4524   2.349   6.279   5.401
   46CHL1    H8 4525   2.311   6.374   5.357
   46CHL1   C14 4526   2.410   6.183   5.295
   46CHL1   H14 4527   2.439   6.084   5.336
   46CHL1   C15 4528   2.529   6.244   5.214
   46CHL1  H15A 4529   2.526   6.355   5.214
   46CHL1  H15B 4530   2.618   6.218   5.274
   46CHL1   C16 4531   2.528   6.180   5.073
   46CHL1  H16A 4532   2.517   6.252   4.989
   46CHL1  H16B 4533   2.609   6.104   5.064
   46CHL1   C17 4534   2.401   6.082   5.069
   46CHL1   H17 4535   2.434   5.988   5.118
   46CHL1   C13 4536   2.308   6.149   5.181
   46CHL1   C18 4537   2.241   6.280   5.134
   46CHL1  H18A 4538   2.193   6.336   5.217
   46CHL1  H18B 4539   2.314   6.350   5.088
   46CHL1  H18C 4540   2.167   6.268   5.052
   46CHL1   C12 4541   2.198   6.063   5.243
   46CHL1  H12A 4542   2.110   6.040   5.179
   46CHL1  H12B 4543   2.234   5.964   5.280
   46CHL1   C11 4544   2.134   6.136   5.362
   46CHL1  H11A 4545   2.051   6.202   5.330
   46CHL1  H11B 4546   2.073   6.061   5.418
   46CHL1    C9 4547   2.228   6.205   5.464
   46CHL1    H9 4548   2.271   6.115   5.513
   46CHL1   C10 4549   2.163   6.291   5.578
   46CHL1   C19 4550   2.069   6.390   5.500
   46CHL1  H19A 4551   2.038   6.467   5.574
   46CHL1  H19B 4552   2.136   6.441   5.428
   46CHL1  H19C 4553   1.979   6.352   5.448
   46CHL1    C1 4554   2.078   6.195   5.666
   46CHL1   H1A 4555   1.991   6.159   5.607
   46CHL1   H1B 4556   2.147   6.117   5.704
   46CHL1    C2 4557   2.023   6.259   5.790
   46CHL1   H2A 4558   1.951   6.192   5.842
   46CHL1   H2B 4559   1.965   6.348   5.756
   46CHL1   C20 4560   2.338   6.057   4.928
   46CHL1   H20 4561   2.265   6.133   4.893
   46CHL1   C21 4562   2.266   5.918   4.941
   46CHL1  H21A 4563   2.213   5.895   4.847
   46CHL1  H21B 4564   2.196   5.925   5.027
   46CHL1  H21C 4565   2.344   5.842   4.962
   46CHL1   C22 4566   2.444   6.036   4.813
   46CHL1  H22A 4567   2.530   6.106   4.805
   46CHL1  H22B 4568   2.480   5.936   4.843
   46CHL1   C23 4569   2.383   6.032   4.672
   46CHL1  H23A 4570   2.305   5.955   4.651
   46CHL1  H23B 4571   2.322   6.124   4.652
   46CHL1   C24 4572   2.495   6.002   4.567
   46CHL1  H24A 4573   2.549   5.909   4.594
   46CHL1  H24B 4574   2.454   5.982   4.465
   46CHL1   C25 4575   2.605   6.114   4.550
   46CHL1   H25 4576   2.648   6.123   4.652
   46CHL1   C26 4577   2.718   6.057   4.458
   46CHL1  H26A 4578   2.804   6.127   4.462
   46CHL1  H26B 4579   2.744   5.953   4.486
   46CHL1  H26C 4580   2.679   6.042   4.355
   46CHL1   C27 4581   2.541   6.239   4.494
   46CHL1  H27A 4582   2.476   6.215   4.406
   46CHL1  H27B 4583   2.485   6.285   4.578
   46CHL1  H27C 4584   2.619   6.310   4.460
   47CHL1    C3 4585   3.808   4.912   6.217
   47CHL1    H3 4586   3.853   5.013   6.207
   47CHL1    O3 4587   3.797   4.876   6.356
   47CHL1   H3' 4588   3.887   4.859   6.385
   47CHL1    C4 4589   3.674   4.893   6.146
   47CHL1   H4A 4590   3.650   4.788   6.173
   47CHL1   H4B 4591   3.599   4.954   6.201
   47CHL1    C5 4592   3.674   4.905   5.994
   47CHL1    C6 4593   3.599   5.000   5.940
   47CHL1    H6 4594   3.523   5.048   6.003
   47CHL1    C7 4595   3.602   5.023   5.797
   47CHL1   H7A 4596   3.497   5.033   5.763
   47CHL1   H7B 4597   3.657   5.118   5.777
   47CHL1    C8 4598   3.670   4.912   5.707
   47CHL1    H8 4599   3.610   4.818   5.706
   47CHL1   C14 4600   3.687   4.959   5.567
   47CHL1   H14 4601   3.741   5.056   5.581
   47CHL1   C15 4602   3.570   4.995   5.476
   47CHL1  H15A 4603   3.493   4.915   5.477
   47CHL1  H15B 4604   3.514   5.083   5.514
   47CHL1   C16 4605   3.634   5.003   5.335
   47CHL1  H16A 4606   3.569   4.940   5.271
   47CHL1  H16B 4607   3.639   5.108   5.300
   47CHL1   C17 4608   3.783   4.960   5.348
   47CHL1   H17 4609   3.840   5.053   5.370
   47CHL1   C13 4610   3.784   4.873   5.477
   47CHL1   C18 4611   3.715   4.738   5.450
   47CHL1  H18A 4612   3.694   4.690   5.548
   47CHL1  H18B 4613   3.617   4.752   5.398
   47CHL1  H18C 4614   3.784   4.666   5.401
   47CHL1   C12 4615   3.917   4.859   5.556
   47CHL1  H12A 4616   3.976   4.789   5.492
   47CHL1  H12B 4617   3.980   4.951   5.550
   47CHL1   C11 4618   3.900   4.797   5.686
   47CHL1  H11A 4619   3.855   4.696   5.681
   47CHL1  H11B 4620   4.001   4.783   5.729
   47CHL1    C9 4621   3.805   4.882   5.775
   47CHL1    H9 4622   3.857   4.980   5.786
   47CHL1   C10 4623   3.788   4.827   5.919
   47CHL1   C19 4624   3.755   4.675   5.909
   47CHL1  H19A 4625   3.678   4.650   5.833
   47CHL1  H19B 4626   3.848   4.622   5.882
   47CHL1  H19C 4627   3.726   4.640   6.010
   47CHL1    C1 4628   3.924   4.836   5.991
   47CHL1   H1A 4629   3.993   4.757   5.954
   47CHL1   H1B 4630   3.963   4.940   5.982
   47CHL1    C2 4631   3.909   4.816   6.145
   47CHL1   H2A 4632   4.008   4.821   6.195
   47CHL1   H2B 4633   3.868   4.715   6.164
   47CHL1   C20 4634   3.841   4.889   5.220
   47CHL1   H20 4635   3.851   4.780   5.240
   47CHL1   C21 4636   3.985   4.932   5.198
   47CHL1  H21A 4637   3.984   5.032   5.151
   47CHL1  H21B 4638   4.037   4.846   5.150
   47CHL1  H21C 4639   4.026   4.937   5.301
   47CHL1   C22 4640   3.757   4.905   5.094
   47CHL1  H22A 4641   3.673   4.835   5.110
   47CHL1  H22B 4642   3.725   5.010   5.076
   47CHL1   C23 4643   3.829   4.862   4.967
   47CHL1  H23A 4644   3.907   4.936   4.938
   47CHL1  H23B 4645   3.868   4.758   4.974
   47CHL1   C24 4646   3.730   4.857   4.843
   47CHL1  H24A 4647   3.645   4.790   4.868
   47CHL1  H24B 4648   3.695   4.962   4.848
   47CHL1   C25 4649   3.794   4.810   4.711
   47CHL1   H25 4650   3.821   4.703   4.719
   47CHL1   C26 4651   3.699   4.833   4.599
   47CHL1  H26A 4652   3.599   4.801   4.635
   47CHL1  H26B 4653   3.685   4.942   4.583
   47CHL1  H26C 4654   3.722   4.776   4.506
   47CHL1   C27 4655   3.919   4.893   4.680
   47CHL1  H27A 4656   3.909   5.003   4.678
   47CHL1  H27B 4657   3.999   4.871   4.755
   47CHL1  H27C 4658   3.960   4.858   4.583
   48CHL1    C3 4659   1.566   5.728   5.844
   48CHL1    H3 4660   1.643   5.808   5.844
   48CHL1    O3 4661   1.551   5.678   5.976
   48CHL1   H3' 4662   1.601   5.739   6.031
   48CHL1    C4 4663   1.427   5.774   5.796
   48CHL1   H4A 4664   1.356   5.697   5.833
   48CHL1   H4B 4665   1.408   5.870   5.848
   48CHL1    C5 4666   1.408   5.802   5.649
   48CHL1    C6 4667   1.338   5.911   5.599
   48CHL1    H6 4668   1.299   5.990   5.665
   48CHL1    C7 4669   1.322   5.933   5.452
   48CHL1   H7A 4670   1.219   5.965   5.426
   48CHL1   H7B 4671   1.383   6.021   5.422
   48CHL1    C8 4672   1.343   5.801   5.373
   48CHL1    H8 4673   1.253   5.740   5.394
   48CHL1   C14 4674   1.339   5.842   5.224
   48CHL1   H14 4675   1.419   5.919   5.217
   48CHL1   C15 4676   1.209   5.904   5.174
   48CHL1  H15A 4677   1.110   5.857   5.195
   48CHL1  H15B 4678   1.208   6.011   5.205
   48CHL1   C16 4679   1.233   5.902   5.019
   48CHL1  H16A 4680   1.133   5.867   4.985
   48CHL1  H16B 4681   1.257   5.999   4.970
   48CHL1   C17 4682   1.353   5.809   4.998
   48CHL1   H17 4683   1.439   5.879   4.998
   48CHL1   C13 4684   1.377   5.733   5.131
   48CHL1   C18 4685   1.279   5.621   5.146
   48CHL1  H18A 4686   1.174   5.655   5.135
   48CHL1  H18B 4687   1.302   5.541   5.073
   48CHL1  H18C 4688   1.289   5.562   5.239
   48CHL1   C12 4689   1.523   5.682   5.153
   48CHL1  H12A 4690   1.528   5.604   5.074
   48CHL1  H12B 4691   1.580   5.768   5.112
   48CHL1   C11 4692   1.541   5.636   5.299
   48CHL1  H11A 4693   1.497   5.534   5.306
   48CHL1  H11B 4694   1.649   5.633   5.320
   48CHL1    C9 4695   1.474   5.732   5.406
   48CHL1    H9 4696   1.547   5.816   5.408
   48CHL1   C10 4697   1.472   5.692   5.559
   48CHL1   C19 4698   1.380   5.562   5.567
   48CHL1  H19A 4699   1.354   5.522   5.667
   48CHL1  H19B 4700   1.287   5.573   5.506
   48CHL1  H19C 4701   1.437   5.487   5.508
   48CHL1    C1 4702   1.609   5.647   5.606
   48CHL1   H1A 4703   1.636   5.562   5.539
   48CHL1   H1B 4704   1.682   5.731   5.594
   48CHL1    C2 4705   1.618   5.610   5.757
   48CHL1   H2A 4706   1.722   5.583   5.783
   48CHL1   H2B 4707   1.553   5.521   5.775
   48CHL1   C20 4708   1.356   5.735   4.862
   48CHL1   H20 4709   1.417   5.643   4.870
   48CHL1   C21 4710   1.418   5.822   4.762
   48CHL1  H21A 4711   1.515   5.874   4.782
   48CHL1  H21B 4712   1.434   5.765   4.668
   48CHL1  H21C 4713   1.355   5.909   4.734
   48CHL1   C22 4714   1.218   5.690   4.802
   48CHL1  H22A 4715   1.153   5.652   4.883
   48CHL1  H22B 4716   1.172   5.777   4.751
   48CHL1   C23 4717   1.231   5.574   4.697
   48CHL1  H23A 4718   1.315   5.603   4.630
   48CHL1  H23B 4719   1.249   5.478   4.750
   48CHL1   C24 4720   1.096   5.556   4.618
   48CHL1  H24A 4721   1.023   5.539   4.701
   48CHL1  H24B 4722   1.076   5.654   4.570
   48CHL1   C25 4723   1.103   5.429   4.535
   48CHL1   H25 4724   1.161   5.347   4.583
   48CHL1   C26 4725   0.959   5.376   4.526
   48CHL1  H26A 4726   0.897   5.445   4.465
   48CHL1  H26B 4727   0.959   5.283   4.465
   48CHL1  H26C 4728   0.926   5.357   4.630
   48CHL1   C27 4729   1.162   5.467   4.394
   48CHL1  H27A 4730   1.152   5.379   4.327
   48CHL1  H27B 4731   1.120   5.550   4.333
   48CHL1  H27C 4732   1.269   5.491   4.413
   49CHL1    C3 4733   4.146   4.378   2.590
   49CHL1    H3 4734   4.239   4.318   2.582
   49CHL1    O3 4735   4.102   4.391   2.461
   49CHL1   H3' 4736   4.171   4.439   2.413
   49CHL1    C4 4737   4.047   4.303   2.675
   49CHL1   H4A 4738   3.950   4.356   2.665
   49CHL1   H4B 4739   4.034   4.205   2.624
   49CHL1    C5 4740   4.094   4.284   2.814
   49CHL1    C6 4741   4.101   4.157   2.870
   49CHL1    H6 4742   4.076   4.066   2.814
   49CHL1    C7 4743   4.134   4.138   3.017
   49CHL1   H7A 4744   4.064   4.077   3.078
   49CHL1   H7B 4745   4.226   4.076   3.015
   49CHL1    C8 4746   4.144   4.269   3.096
   49CHL1    H8 4747   4.040   4.300   3.120
   49CHL1   C14 4748   4.225   4.256   3.233
   49CHL1   H14 4749   4.323   4.256   3.182
   49CHL1   C15 4750   4.208   4.135   3.329
   49CHL1  H15A 4751   4.102   4.113   3.353
   49CHL1  H15B 4752   4.248   4.041   3.285
   49CHL1   C16 4753   4.286   4.181   3.455
   49CHL1  H16A 4754   4.211   4.178   3.537
   49CHL1  H16B 4755   4.370   4.116   3.489
   49CHL1   C17 4756   4.336   4.330   3.428
   49CHL1   H17 4757   4.438   4.320   3.384
   49CHL1   C13 4758   4.231   4.376   3.325
   49CHL1   C18 4759   4.097   4.405   3.393
   49CHL1  H18A 4760   4.056   4.318   3.448
   49CHL1  H18B 4761   4.114   4.481   3.472
   49CHL1  H18C 4762   4.025   4.446   3.318
   49CHL1   C12 4763   4.278   4.498   3.243
   49CHL1  H12A 4764   4.268   4.595   3.295
   49CHL1  H12B 4765   4.388   4.496   3.229
   49CHL1   C11 4766   4.200   4.509   3.107
   49CHL1  H11A 4767   4.096   4.541   3.128
   49CHL1  H11B 4768   4.246   4.594   3.053
   49CHL1    C9 4769   4.208   4.382   3.013
   49CHL1    H9 4770   4.314   4.353   3.000
   49CHL1   C10 4771   4.137   4.414   2.881
   49CHL1   C19 4772   3.997   4.488   2.900
   49CHL1  H19A 4773   3.949   4.428   2.981
   49CHL1  H19B 4774   4.008   4.588   2.946
   49CHL1  H19C 4775   3.944   4.505   2.805
   49CHL1    C1 4776   4.229   4.511   2.792
   49CHL1   H1A 4777   4.231   4.617   2.825
   49CHL1   H1B 4778   4.335   4.478   2.796
   49CHL1    C2 4779   4.179   4.512   2.647
   49CHL1   H2A 4780   4.252   4.571   2.588
   49CHL1   H2B 4781   4.083   4.568   2.642
   49CHL1   C20 4782   4.359   4.409   3.561
   49CHL1   H20 4783   4.260   4.439   3.603
   49CHL1   C21 4784   4.438   4.537   3.540
   49CHL1  H21A 4785   4.546   4.511   3.532
   49CHL1  H21B 4786   4.434   4.603   3.629
   49CHL1  H21C 4787   4.413   4.604   3.455
   49CHL1   C22 4788   4.435   4.319   3.664
   49CHL1  H22A 4789   4.366   4.234   3.680
   49CHL1  H22B 4790   4.536   4.286   3.630
   49CHL1   C23 4791   4.442   4.384   3.808
   49CHL1  H23A 4792   4.470   4.491   3.797
   49CHL1  H23B 4793   4.347   4.382   3.865
   49CHL1   C24 4794   4.544   4.311   3.903
   49CHL1  H24A 4795   4.512   4.206   3.920
   49CHL1  H24B 4796   4.637   4.317   3.842
   49CHL1   C25 4797   4.563   4.379   4.039
   49CHL1   H25 4798   4.466   4.372   4.092
   49CHL1   C26 4799   4.667   4.306   4.117
   49CHL1  H26A 4800   4.676   4.354   4.216
   49CHL1  H26B 4801   4.638   4.199   4.130
   49CHL1  H26C 4802   4.769   4.307   4.071
   49CHL1   C27 4803   4.597   4.526   4.019
   49CHL1  H27A 4804   4.695   4.540   3.968
   49CHL1  H27B 4805   4.516   4.585   3.971
   49CHL1  H27C 4806   4.616   4.578   4.115
   50CHL1    C3 4807   3.749   1.551   2.722
   50CHL1    H3 4808   3.827   1.609   2.776
   50CHL1    O3 4809   3.785   1.536   2.591
   50CHL1   H3' 4810   3.720   1.476   2.554
   50CHL1    C4 4811   3.730   1.415   2.790
   50CHL1   H4A 4812   3.647   1.361   2.739
   50CHL1   H4B 4813   3.826   1.360   2.783
   50CHL1    C5 4814   3.694   1.425   2.941
   50CHL1    C6 4815   3.766   1.359   3.033
   50CHL1    H6 4816   3.856   1.305   3.002
   50CHL1    C7 4817   3.729   1.353   3.178
   50CHL1   H7A 4818   3.723   1.253   3.225
   50CHL1   H7B 4819   3.810   1.411   3.227
   50CHL1    C8 4820   3.596   1.423   3.209
   50CHL1    H8 4821   3.505   1.360   3.199
   50CHL1   C14 4822   3.607   1.474   3.354
   50CHL1   H14 4823   3.679   1.559   3.361
   50CHL1   C15 4824   3.652   1.377   3.471
   50CHL1  H15A 4825   3.591   1.286   3.459
   50CHL1  H15B 4826   3.763   1.368   3.462
   50CHL1   C16 4827   3.606   1.455   3.597
   50CHL1  H16A 4828   3.557   1.384   3.667
   50CHL1  H16B 4829   3.689   1.487   3.665
   50CHL1   C17 4830   3.523   1.575   3.551
   50CHL1   H17 4831   3.592   1.662   3.548
   50CHL1   C13 4832   3.479   1.539   3.409
   50CHL1   C18 4833   3.366   1.440   3.414
   50CHL1  H18A 4834   3.399   1.355   3.478
   50CHL1  H18B 4835   3.269   1.472   3.459
   50CHL1  H18C 4836   3.334   1.407   3.313
   50CHL1   C12 4837   3.443   1.657   3.317
   50CHL1  H12A 4838   3.344   1.697   3.347
   50CHL1  H12B 4839   3.516   1.738   3.337
   50CHL1   C11 4840   3.445   1.614   3.168
   50CHL1  H11A 4841   3.360   1.545   3.148
   50CHL1  H11B 4842   3.440   1.707   3.108
   50CHL1    C9 4843   3.576   1.544   3.126
   50CHL1    H9 4844   3.661   1.611   3.149
   50CHL1   C10 4845   3.571   1.514   2.974
   50CHL1   C19 4846   3.448   1.439   2.934
   50CHL1  H19A 4847   3.450   1.417   2.825
   50CHL1  H19B 4848   3.452   1.331   2.959
   50CHL1  H19C 4849   3.347   1.479   2.958
   50CHL1    C1 4850   3.582   1.636   2.889
   50CHL1   H1A 4851   3.482   1.683   2.900
   50CHL1   H1B 4852   3.660   1.702   2.934
   50CHL1    C2 4853   3.615   1.633   2.739
   50CHL1   H2A 4854   3.638   1.733   2.697
   50CHL1   H2B 4855   3.540   1.578   2.679
   50CHL1   C20 4856   3.417   1.609   3.654
   50CHL1   H20 4857   3.350   1.524   3.677
   50CHL1   C21 4858   3.331   1.730   3.616
   50CHL1  H21A 4859   3.288   1.775   3.708
   50CHL1  H21B 4860   3.243   1.701   3.554
   50CHL1  H21C 4861   3.383   1.806   3.555
   50CHL1   C22 4862   3.478   1.658   3.788
   50CHL1  H22A 4863   3.568   1.597   3.810
   50CHL1  H22B 4864   3.538   1.750   3.772
   50CHL1   C23 4865   3.385   1.673   3.911
   50CHL1  H23A 4866   3.439   1.712   3.999
   50CHL1  H23B 4867   3.311   1.751   3.884
   50CHL1   C24 4868   3.300   1.553   3.954
   50CHL1  H24A 4869   3.212   1.523   3.892
   50CHL1  H24B 4870   3.366   1.464   3.965
   50CHL1   C25 4871   3.248   1.577   4.097
   50CHL1   H25 4872   3.337   1.610   4.155
   50CHL1   C26 4873   3.135   1.683   4.107
   50CHL1  H26A 4874   3.160   1.778   4.056
   50CHL1  H26B 4875   3.043   1.638   4.065
   50CHL1  H26C 4876   3.122   1.717   4.212
   50CHL1   C27 4877   3.184   1.456   4.165
   50CHL1  H27A 4878   3.177   1.479   4.273
   50CHL1  H27B 4879   3.084   1.437   4.121
   50CHL1  H27C 4880   3.256   1.373   4.147
   51CHL1    C3 4881   3.950   2.623   2.975
   51CHL1    H3 4882   4.061   2.629   2.987
   51CHL1    O3 4883   3.924   2.587   2.844
   51CHL1   H3' 4884   3.966   2.659   2.797
   51CHL1    C4 4885   3.893   2.521   3.067
   51CHL1   H4A 4886   3.783   2.523   3.057
   51CHL1   H4B 4887   3.930   2.420   3.037
   51CHL1    C5 4888   3.915   2.557   3.212
   51CHL1    C6 4889   3.965   2.464   3.297
   51CHL1    H6 4890   3.978   2.362   3.260
   51CHL1    C7 4891   3.986   2.494   3.447
   51CHL1   H7A 4892   3.919   2.418   3.495
   51CHL1   H7B 4893   4.091   2.469   3.475
   51CHL1    C8 4894   3.935   2.626   3.493
   51CHL1    H8 4895   3.827   2.618   3.514
   51CHL1   C14 4896   4.006   2.655   3.624
   51CHL1   H14 4897   4.113   2.661   3.598
   51CHL1   C15 4898   4.000   2.548   3.736
   51CHL1  H15A 4899   3.897   2.508   3.751
   51CHL1  H15B 4900   4.076   2.472   3.707
   51CHL1   C16 4901   4.021   2.631   3.865
   51CHL1  H16A 4902   3.938   2.606   3.934
   51CHL1  H16B 4903   4.110   2.593   3.919
   51CHL1   C17 4904   4.040   2.783   3.816
   51CHL1   H17 4905   4.148   2.800   3.792
   51CHL1   C13 4906   3.968   2.793   3.685
   51CHL1   C18 4907   3.819   2.805   3.713
   51CHL1  H18A 4908   3.759   2.777   3.623
   51CHL1  H18B 4909   3.789   2.735   3.793
   51CHL1  H18C 4910   3.777   2.906   3.734
   51CHL1   C12 4911   4.013   2.895   3.578
   51CHL1  H12A 4912   4.008   3.001   3.609
   51CHL1  H12B 4913   4.119   2.871   3.555
   51CHL1   C11 4914   3.953   2.883   3.439
   51CHL1  H11A 4915   3.847   2.918   3.443
   51CHL1  H11B 4916   4.005   2.953   3.371
   51CHL1    C9 4917   3.964   2.738   3.386
   51CHL1    H9 4918   4.073   2.718   3.373
   51CHL1   C10 4919   3.895   2.703   3.254
   51CHL1   C19 4920   3.745   2.735   3.265
   51CHL1  H19A 4921   3.704   2.731   3.162
   51CHL1  H19B 4922   3.701   2.650   3.320
   51CHL1  H19C 4923   3.715   2.834   3.306
   51CHL1    C1 4924   3.945   2.797   3.144
   51CHL1   H1A 4925   3.903   2.898   3.167
   51CHL1   H1B 4926   4.054   2.816   3.134
   51CHL1    C2 4927   3.898   2.760   3.006
   51CHL1   H2A 4928   3.935   2.837   2.934
   51CHL1   H2B 4929   3.788   2.776   3.002
   51CHL1   C20 4930   4.005   2.883   3.931
   51CHL1   H20 4931   3.910   2.847   3.975
   51CHL1   C21 4932   3.981   3.031   3.890
   51CHL1  H21A 4933   3.934   3.084   3.976
   51CHL1  H21B 4934   3.918   3.038   3.799
   51CHL1  H21C 4935   4.080   3.080   3.874
   51CHL1   C22 4936   4.108   2.884   4.046
   51CHL1  H22A 4937   4.146   2.782   4.065
   51CHL1  H22B 4938   4.201   2.941   4.021
   51CHL1   C23 4939   4.049   2.945   4.173
   51CHL1  H23A 4940   4.090   3.046   4.193
   51CHL1  H23B 4941   3.939   2.959   4.163
   51CHL1   C24 4942   4.080   2.857   4.290
   51CHL1  H24A 4943   4.060   2.754   4.251
   51CHL1  H24B 4944   4.190   2.868   4.299
   51CHL1   C25 4945   4.016   2.877   4.428
   51CHL1   H25 4946   3.905   2.878   4.433
   51CHL1   C26 4947   4.054   2.758   4.518
   51CHL1  H26A 4948   4.045   2.785   4.625
   51CHL1  H26B 4949   3.986   2.671   4.504
   51CHL1  H26C 4950   4.162   2.736   4.500
   51CHL1   C27 4951   4.070   3.007   4.495
   51CHL1  H27A 4952   4.181   3.002   4.491
   51CHL1  H27B 4953   4.048   3.088   4.422
   51CHL1  H27C 4954   4.017   3.025   4.591
   52CHL1    C3 4955   3.044   4.023   2.633
   52CHL1    H3 4956   2.962   4.091   2.666
   52CHL1    O3 4957   3.044   3.993   2.493
   52CHL1   H3' 4958   3.080   4.071   2.451
   52CHL1    C4 4959   3.181   4.076   2.669
   52CHL1   H4A 4960   3.270   4.018   2.636
   52CHL1   H4B 4961   3.190   4.174   2.617
   52CHL1    C5 4962   3.189   4.100   2.817
   52CHL1    C6 4963   3.210   4.228   2.867
   52CHL1    H6 4964   3.233   4.311   2.799
   52CHL1    C7 4965   3.233   4.252   3.014
   52CHL1   H7A 4966   3.321   4.315   3.039
   52CHL1   H7B 4967   3.144   4.296   3.064
   52CHL1    C8 4968   3.259   4.118   3.088
   52CHL1    H8 4969   3.360   4.082   3.056
   52CHL1   C14 4970   3.251   4.145   3.237
   52CHL1   H14 4971   3.147   4.184   3.245
   52CHL1   C15 4972   3.331   4.263   3.294
   52CHL1  H15A 4973   3.437   4.253   3.263
   52CHL1  H15B 4974   3.284   4.361   3.270
   52CHL1   C16 4975   3.324   4.248   3.442
   52CHL1  H16A 4976   3.426   4.240   3.485
   52CHL1  H16B 4977   3.272   4.335   3.487
   52CHL1   C17 4978   3.241   4.114   3.467
   52CHL1   H17 4979   3.133   4.140   3.468
   52CHL1   C13 4980   3.265   4.030   3.337
   52CHL1   C18 4981   3.405   3.962   3.341
   52CHL1  H18A 4982   3.403   3.863   3.391
   52CHL1  H18B 4983   3.435   3.944   3.236
   52CHL1  H18C 4984   3.484   4.028   3.382
   52CHL1   C12 4985   3.158   3.914   3.301
   52CHL1  H12A 4986   3.180   3.826   3.366
   52CHL1  H12B 4987   3.066   3.956   3.346
   52CHL1   C11 4988   3.165   3.885   3.149
   52CHL1  H11A 4989   3.261   3.828   3.150
   52CHL1  H11B 4990   3.082   3.813   3.131
   52CHL1    C9 4991   3.153   4.007   3.057
   52CHL1    H9 4992   3.053   4.054   3.075
   52CHL1   C10 4993   3.163   3.976   2.904
   52CHL1   C19 4994   3.291   3.886   2.887
   52CHL1  H19A 4995   3.275   3.786   2.933
   52CHL1  H19B 4996   3.302   3.863   2.779
   52CHL1  H19C 4997   3.384   3.925   2.934
   52CHL1    C1 4998   3.036   3.892   2.856
   52CHL1   H1A 4999   3.044   3.794   2.908
   52CHL1   H1B 5000   2.947   3.946   2.894
   52CHL1    C2 5001   3.028   3.884   2.705
   52CHL1   H2A 5002   2.934   3.830   2.680
   52CHL1   H2B 5003   3.111   3.815   2.681
   52CHL1   C20 5004   3.267   4.052   3.605
   52CHL1   H20 5005   3.378   4.040   3.612
   52CHL1   C21 5006   3.193   3.918   3.629
   52CHL1  H21A 5007   3.223   3.883   3.730
   52CHL1  H21B 5008   3.243   3.845   3.563
   52CHL1  H21C 5009   3.084   3.913   3.607
   52CHL1   C22 5010   3.223   4.156   3.713
   52CHL1  H22A 5011   3.259   4.259   3.691
   52CHL1  H22B 5012   3.113   4.149   3.722
   52CHL1   C23 5013   3.274   4.140   3.857
   52CHL1  H23A 5014   3.203   4.200   3.917
   52CHL1  H23B 5015   3.268   4.036   3.896
   52CHL1   C24 5016   3.414   4.194   3.880
   52CHL1  H24A 5017   3.485   4.135   3.819
   52CHL1  H24B 5018   3.415   4.301   3.851
   52CHL1   C25 5019   3.472   4.174   4.023
   52CHL1   H25 5020   3.472   4.065   4.047
   52CHL1   C26 5021   3.609   4.239   4.029
   52CHL1  H26A 5022   3.605   4.347   4.004
   52CHL1  H26B 5023   3.647   4.233   4.133
   52CHL1  H26C 5024   3.676   4.193   3.953
   52CHL1   C27 5025   3.385   4.238   4.136
   52CHL1  H27A 5026   3.389   4.349   4.132
   52CHL1  H27B 5027   3.277   4.212   4.126
   52CHL1  H27C 5028   3.424   4.208   4.235
   53CHL1    C3 5029   3.049   3.097   2.850
   53CHL1    H3 5030   3.081   3.203   2.854
   53CHL1    O3 5031   3.005   3.083   2.718
   53CHL1   H3' 5032   3.083   3.072   2.663
   53CHL1    C4 5033   3.156   2.993   2.883
   53CHL1   H4A 5034   3.108   2.893   2.871
   53CHL1   H4B 5035   3.239   3.009   2.810
   53CHL1    C5 5036   3.199   2.989   3.028
   53CHL1    C6 5037   3.323   3.011   3.051
   53CHL1    H6 5038   3.391   3.010   2.965
   53CHL1    C7 5039   3.387   3.045   3.184
   53CHL1   H7A 5040   3.479   2.984   3.193
   53CHL1   H7B 5041   3.426   3.148   3.198
   53CHL1    C8 5042   3.289   2.992   3.299
   53CHL1    H8 5043   3.293   2.881   3.294
   53CHL1   C14 5044   3.342   3.032   3.433
   53CHL1   H14 5045   3.349   3.143   3.444
   53CHL1   C15 5046   3.482   2.995   3.471
   53CHL1  H15A 5047   3.498   2.892   3.432
   53CHL1  H15B 5048   3.561   3.059   3.427
   53CHL1   C16 5049   3.478   2.999   3.634
   53CHL1  H16A 5050   3.518   2.902   3.670
   53CHL1  H16B 5051   3.536   3.084   3.676
   53CHL1   C17 5052   3.333   3.016   3.678
   53CHL1   H17 5053   3.329   3.124   3.705
   53CHL1   C13 5054   3.250   2.991   3.549
   53CHL1   C18 5055   3.236   2.839   3.543
   53CHL1  H18A 5056   3.170   2.805   3.625
   53CHL1  H18B 5057   3.187   2.803   3.450
   53CHL1  H18C 5058   3.325   2.773   3.544
   53CHL1   C12 5059   3.120   3.069   3.530
   53CHL1  H12A 5060   3.053   3.054   3.618
   53CHL1  H12B 5061   3.154   3.174   3.532
   53CHL1   C11 5062   3.050   3.022   3.397
   53CHL1  H11A 5063   3.024   2.915   3.408
   53CHL1  H11B 5064   2.953   3.075   3.388
   53CHL1    C9 5065   3.141   3.042   3.276
   53CHL1    H9 5066   3.160   3.151   3.263
   53CHL1   C10 5067   3.089   3.000   3.136
   53CHL1   C19 5068   3.025   2.854   3.147
   53CHL1  H19A 5069   3.093   2.774   3.183
   53CHL1  H19B 5070   2.942   2.875   3.217
   53CHL1  H19C 5071   2.979   2.831   3.049
   53CHL1    C1 5072   2.981   3.110   3.093
   53CHL1   H1A 5073   2.889   3.106   3.155
   53CHL1   H1B 5074   3.035   3.207   3.100
   53CHL1    C2 5075   2.930   3.085   2.948
   53CHL1   H2A 5076   2.847   3.156   2.928
   53CHL1   H2B 5077   2.885   2.985   2.931
   53CHL1   C20 5078   3.303   2.945   3.814
   53CHL1   H20 5079   3.311   2.835   3.802
   53CHL1   C21 5080   3.162   2.988   3.856
   53CHL1  H21A 5081   3.156   3.099   3.857
   53CHL1  H21B 5082   3.141   2.950   3.959
   53CHL1  H21C 5083   3.076   2.940   3.804
   53CHL1   C22 5084   3.402   2.995   3.926
   53CHL1  H22A 5085   3.504   3.006   3.885
   53CHL1  H22B 5086   3.374   3.098   3.954
   53CHL1   C23 5087   3.393   2.896   4.040
   53CHL1  H23A 5088   3.291   2.888   4.084
   53CHL1  H23B 5089   3.427   2.794   4.012
   53CHL1   C24 5090   3.491   2.948   4.149
   53CHL1  H24A 5091   3.591   2.950   4.101
   53CHL1  H24B 5092   3.460   3.050   4.179
   53CHL1   C25 5093   3.482   2.868   4.280
   53CHL1   H25 5094   3.494   2.761   4.251
   53CHL1   C26 5095   3.600   2.916   4.373
   53CHL1  H26A 5096   3.576   3.013   4.423
   53CHL1  H26B 5097   3.611   2.840   4.453
   53CHL1  H26C 5098   3.696   2.924   4.317
   53CHL1   C27 5099   3.348   2.893   4.353
   53CHL1  H27A 5100   3.342   2.999   4.385
   53CHL1  H27B 5101   3.261   2.859   4.294
   53CHL1  H27C 5102   3.346   2.830   4.444
   54CHL1    C3 5103   2.528   3.278   2.838
   54CHL1    H3 5104   2.637   3.275   2.855
   54CHL1    O3 5105   2.491   3.300   2.696
   54CHL1   H3' 5106   2.524   3.223   2.650
   54CHL1    C4 5107   2.466   3.143   2.882
   54CHL1   H4A 5108   2.357   3.145   2.861
   54CHL1   H4B 5109   2.500   3.058   2.820
   54CHL1    C5 5110   2.498   3.114   3.030
   54CHL1    C6 5111   2.576   3.002   3.065
   54CHL1    H6 5112   2.609   2.928   2.990
   54CHL1    C7 5113   2.618   2.971   3.205
   54CHL1   H7A 5114   2.605   2.862   3.218
   54CHL1   H7B 5115   2.726   2.995   3.214
   54CHL1    C8 5116   2.532   3.050   3.306
   54CHL1    H8 5117   2.434   2.998   3.314
   54CHL1   C14 5118   2.592   3.043   3.447
   54CHL1   H14 5119   2.684   3.105   3.437
   54CHL1   C15 5120   2.645   2.913   3.500
   54CHL1  H15A 5121   2.568   2.834   3.486
   54CHL1  H15B 5122   2.735   2.871   3.451
   54CHL1   C16 5123   2.667   2.939   3.657
   54CHL1  H16A 5124   2.619   2.863   3.721
   54CHL1  H16B 5125   2.772   2.958   3.687
   54CHL1   C17 5126   2.595   3.081   3.676
   54CHL1   H17 5127   2.678   3.151   3.653
   54CHL1   C13 5128   2.502   3.087   3.559
   54CHL1   C18 5129   2.384   2.995   3.580
   54CHL1  H18A 5130   2.320   3.037   3.661
   54CHL1  H18B 5131   2.325   2.996   3.486
   54CHL1  H18C 5132   2.399   2.888   3.606
   54CHL1   C12 5133   2.450   3.230   3.530
   54CHL1  H12A 5134   2.368   3.252   3.601
   54CHL1  H12B 5135   2.531   3.306   3.520
   54CHL1   C11 5136   2.393   3.244   3.386
   54CHL1  H11A 5137   2.308   3.174   3.384
   54CHL1  H11B 5138   2.365   3.350   3.366
   54CHL1    C9 5139   2.490   3.197   3.273
   54CHL1    H9 5140   2.582   3.256   3.295
   54CHL1   C10 5141   2.440   3.221   3.128
   54CHL1   C19 5142   2.286   3.208   3.126
   54CHL1  H19A 5143   2.234   3.226   3.030
   54CHL1  H19B 5144   2.243   3.116   3.171
   54CHL1  H19C 5145   2.246   3.293   3.184
   54CHL1    C1 5146   2.479   3.365   3.079
   54CHL1   H1A 5147   2.416   3.443   3.126
   54CHL1   H1B 5148   2.584   3.391   3.102
   54CHL1    C2 5149   2.461   3.384   2.927
   54CHL1   H2A 5150   2.513   3.480   2.904
   54CHL1   H2B 5151   2.352   3.389   2.902
   54CHL1   C20 5152   2.534   3.100   3.817
   54CHL1   H20 5153   2.443   3.040   3.837
   54CHL1   C21 5154   2.491   3.249   3.851
   54CHL1  H21A 5155   2.470   3.255   3.960
   54CHL1  H21B 5156   2.393   3.270   3.802
   54CHL1  H21C 5157   2.555   3.334   3.819
   54CHL1   C22 5158   2.639   3.060   3.932
   54CHL1  H22A 5159   2.582   3.044   4.026
   54CHL1  H22B 5160   2.676   2.958   3.911
   54CHL1   C23 5161   2.758   3.158   3.951
   54CHL1  H23A 5162   2.783   3.205   3.853
   54CHL1  H23B 5163   2.728   3.249   4.006
   54CHL1   C24 5164   2.897   3.103   4.010
   54CHL1  H24A 5165   2.900   2.999   3.973
   54CHL1  H24B 5166   2.989   3.146   3.965
   54CHL1   C25 5167   2.912   3.104   4.158
   54CHL1   H25 5168   2.861   3.195   4.198
   54CHL1   C26 5169   2.848   2.984   4.225
   54CHL1  H26A 5170   2.741   2.985   4.192
   54CHL1  H26B 5171   2.888   2.888   4.185
   54CHL1  H26C 5172   2.853   2.979   4.335
   54CHL1   C27 5173   3.062   3.112   4.203
   54CHL1  H27A 5174   3.077   3.094   4.312
   54CHL1  H27B 5175   3.119   3.034   4.148
   54CHL1  H27C 5176   3.099   3.212   4.175
   55CHL1    C3 5177   3.602   6.168   2.719
   55CHL1    H3 5178   3.593   6.058   2.716
   55CHL1    O3 5179   3.594   6.215   2.583
   55CHL1   H3' 5180   3.681   6.202   2.545
   55CHL1    C4 5181   3.480   6.219   2.796
   55CHL1   H4A 5182   3.468   6.329   2.787
   55CHL1   H4B 5183   3.386   6.183   2.750
   55CHL1    C5 5184   3.494   6.182   2.945
   55CHL1    C6 5185   3.409   6.093   3.000
   55CHL1    H6 5186   3.326   6.051   2.940
   55CHL1    C7 5187   3.424   6.038   3.145
   55CHL1   H7A 5188   3.330   6.044   3.204
   55CHL1   H7B 5189   3.458   5.933   3.146
   55CHL1    C8 5190   3.518   6.121   3.234
   55CHL1    H8 5191   3.469   6.220   3.250
   55CHL1   C14 5192   3.542   6.044   3.369
   55CHL1   H14 5193   3.583   5.945   3.340
   55CHL1   C15 5194   3.423   6.007   3.465
   55CHL1  H15A 5195   3.352   6.092   3.471
   55CHL1  H15B 5196   3.372   5.915   3.430
   55CHL1   C16 5197   3.487   5.977   3.600
   55CHL1  H16A 5198   3.445   6.043   3.680
   55CHL1  H16B 5199   3.477   5.870   3.628
   55CHL1   C17 5200   3.639   6.015   3.590
   55CHL1   H17 5201   3.694   5.922   3.564
   55CHL1   C13 5202   3.654   6.107   3.462
   55CHL1   C18 5203   3.605   6.251   3.490
   55CHL1  H18A 5204   3.688   6.293   3.550
   55CHL1  H18B 5205   3.586   6.311   3.398
   55CHL1  H18C 5206   3.508   6.244   3.543
   55CHL1   C12 5207   3.784   6.112   3.377
   55CHL1  H12A 5208   3.864   6.156   3.440
   55CHL1  H12B 5209   3.806   6.008   3.343
   55CHL1   C11 5210   3.764   6.191   3.252
   55CHL1  H11A 5211   3.742   6.295   3.284
   55CHL1  H11B 5212   3.862   6.198   3.201
   55CHL1    C9 5213   3.647   6.146   3.155
   55CHL1    H9 5214   3.681   6.043   3.131
   55CHL1   C10 5215   3.624   6.222   3.021
   55CHL1   C19 5216   3.622   6.366   3.041
   55CHL1  H19A 5217   3.719   6.407   3.076
   55CHL1  H19B 5218   3.597   6.419   2.947
   55CHL1  H19C 5219   3.556   6.399   3.124
   55CHL1    C1 5220   3.746   6.191   2.929
   55CHL1   H1A 5221   3.840   6.245   2.951
   55CHL1   H1B 5222   3.764   6.082   2.940
   55CHL1    C2 5223   3.732   6.220   2.780
   55CHL1   H2A 5224   3.802   6.156   2.722
   55CHL1   H2B 5225   3.740   6.328   2.755
   55CHL1   C20 5226   3.692   6.068   3.724
   55CHL1   H20 5227   3.647   6.166   3.753
   55CHL1   C21 5228   3.851   6.075   3.704
   55CHL1  H21A 5229   3.900   5.982   3.669
   55CHL1  H21B 5230   3.897   6.096   3.803
   55CHL1  H21C 5231   3.887   6.158   3.639
   55CHL1   C22 5232   3.663   5.968   3.841
   55CHL1  H22A 5233   3.558   5.933   3.839
   55CHL1  H22B 5234   3.735   5.883   3.844
   55CHL1   C23 5235   3.695   6.034   3.978
   55CHL1  H23A 5236   3.800   6.022   4.012
   55CHL1  H23B 5237   3.668   6.140   3.959
   55CHL1   C24 5238   3.614   5.979   4.100
   55CHL1  H24A 5239   3.516   6.029   4.113
   55CHL1  H24B 5240   3.597   5.870   4.082
   55CHL1   C25 5241   3.682   6.000   4.238
   55CHL1   H25 5242   3.771   5.934   4.235
   55CHL1   C26 5243   3.715   6.144   4.274
   55CHL1  H26A 5244   3.757   6.148   4.377
   55CHL1  H26B 5245   3.783   6.189   4.199
   55CHL1  H26C 5246   3.626   6.208   4.288
   55CHL1   C27 5247   3.594   5.942   4.350
   55CHL1  H27A 5248   3.496   5.995   4.349
   55CHL1  H27B 5249   3.574   5.836   4.326
   55CHL1  H27C 5250   3.643   5.951   4.449
   56CHL1    C3 5251   5.622   1.737   2.964
   56CHL1    H3 5252   5.560   1.826   2.987
   56CHL1    O3 5253   5.589   1.705   2.822
   56CHL1   H3' 5254   5.605   1.611   2.817
   56CHL1    C4 5255   5.775   1.772   2.972
   56CHL1   H4A 5256   5.826   1.697   2.909
   56CHL1   H4B 5257   5.782   1.870   2.920
   56CHL1    C5 5258   5.837   1.780   3.115
   56CHL1    C6 5259   5.922   1.879   3.142
   56CHL1    H6 5260   5.946   1.951   3.063
   56CHL1    C7 5261   5.985   1.897   3.279
   56CHL1   H7A 5262   6.095   1.912   3.272
   56CHL1   H7B 5263   5.941   1.991   3.318
   56CHL1    C8 5264   5.964   1.774   3.369
   56CHL1    H8 5265   6.034   1.694   3.339
   56CHL1   C14 5266   5.967   1.822   3.517
   56CHL1   H14 5267   5.877   1.880   3.545
   56CHL1   C15 5268   6.079   1.912   3.559
   56CHL1  H15A 5269   6.173   1.865   3.525
   56CHL1  H15B 5270   6.088   2.011   3.510
   56CHL1   C16 5271   6.078   1.923   3.707
   56CHL1  H16A 5272   6.178   1.917   3.756
   56CHL1  H16B 5273   6.031   2.021   3.732
   56CHL1   C17 5274   5.980   1.804   3.752
   56CHL1   H17 5275   5.882   1.846   3.783
   56CHL1   C13 5276   5.964   1.714   3.624
   56CHL1   C18 5277   6.090   1.626   3.609
   56CHL1  H18A 5278   6.087   1.575   3.510
   56CHL1  H18B 5279   6.184   1.678   3.636
   56CHL1  H18C 5280   6.081   1.543   3.683
   56CHL1   C12 5281   5.827   1.649   3.605
   56CHL1  H12A 5282   5.819   1.556   3.665
   56CHL1  H12B 5283   5.742   1.719   3.624
   56CHL1   C11 5284   5.814   1.599   3.459
   56CHL1  H11A 5285   5.895   1.524   3.447
   56CHL1  H11B 5286   5.715   1.552   3.439
   56CHL1    C9 5287   5.827   1.708   3.353
   56CHL1    H9 5288   5.746   1.779   3.378
   56CHL1   C10 5289   5.794   1.664   3.208
   56CHL1   C19 5290   5.860   1.523   3.174
   56CHL1  H19A 5291   5.842   1.494   3.068
   56CHL1  H19B 5292   5.967   1.531   3.204
   56CHL1  H19C 5293   5.818   1.443   3.238
   56CHL1    C1 5294   5.635   1.648   3.195
   56CHL1   H1A 5295   5.612   1.553   3.246
   56CHL1   H1B 5296   5.578   1.732   3.239
   56CHL1    C2 5297   5.585   1.617   3.054
   56CHL1   H2A 5298   5.475   1.600   3.050
   56CHL1   H2B 5299   5.636   1.526   3.016
   56CHL1   C20 5300   6.033   1.731   3.885
   56CHL1   H20 5301   6.128   1.678   3.860
   56CHL1   C21 5302   5.930   1.630   3.930
   56CHL1  H21A 5303   5.964   1.583   4.025
   56CHL1  H21B 5304   5.931   1.554   3.849
   56CHL1  H21C 5305   5.828   1.669   3.948
   56CHL1   C22 5306   6.060   1.830   4.005
   56CHL1  H22A 5307   6.114   1.920   3.969
   56CHL1  H22B 5308   5.966   1.868   4.050
   56CHL1   C23 5309   6.153   1.763   4.111
   56CHL1  H23A 5310   6.155   1.653   4.101
   56CHL1  H23B 5311   6.253   1.806   4.092
   56CHL1   C24 5312   6.113   1.796   4.253
   56CHL1  H24A 5313   6.076   1.899   4.238
   56CHL1  H24B 5314   6.029   1.734   4.291
   56CHL1   C25 5315   6.225   1.795   4.354
   56CHL1   H25 5316   6.292   1.877   4.322
   56CHL1   C26 5317   6.167   1.835   4.488
   56CHL1  H26A 5318   6.240   1.828   4.571
   56CHL1  H26B 5319   6.136   1.942   4.487
   56CHL1  H26C 5320   6.075   1.781   4.519
   56CHL1   C27 5321   6.303   1.667   4.349
   56CHL1  H27A 5322   6.371   1.659   4.261
   56CHL1  H27B 5323   6.364   1.661   4.441
   56CHL1  H27C 5324   6.246   1.572   4.341
   57CHL1    C3 5325   4.538   6.666   2.655
   57CHL1    H3 5326   4.569   6.773   2.655
   57CHL1    O3 5327   4.525   6.623   2.523
   57CHL1   H3' 5328   4.482   6.538   2.538
   57CHL1    C4 5329   4.638   6.580   2.728
   57CHL1   H4A 5330   4.620   6.471   2.735
   57CHL1   H4B 5331   4.724   6.591   2.658
   57CHL1    C5 5332   4.652   6.633   2.870
   57CHL1    C6 5333   4.771   6.676   2.917
   57CHL1    H6 5334   4.857   6.670   2.848
   57CHL1    C7 5335   4.788   6.709   3.065
   57CHL1   H7A 5336   4.889   6.675   3.096
   57CHL1   H7B 5337   4.785   0.005   3.067
   57CHL1    C8 5338   4.675   6.654   3.156
   57CHL1    H8 5339   4.682   6.544   3.171
   57CHL1   C14 5340   4.683   6.694   3.301
   57CHL1   H14 5341   4.680   6.805   3.297
   57CHL1   C15 5342   4.807   6.651   3.376
   57CHL1  H15A 5343   4.831   6.544   3.360
   57CHL1  H15B 5344   4.896   6.709   3.343
   57CHL1   C16 5345   4.772   6.694   3.518
   57CHL1  H16A 5346   4.815   6.622   3.592
   57CHL1  H16B 5347   4.813   6.794   3.545
   57CHL1   C17 5348   4.619   6.702   3.527
   57CHL1   H17 5349   4.596   6.811   3.525
   57CHL1   C13 5350   4.567   6.644   3.392
   57CHL1   C18 5351   4.559   6.495   3.393
   57CHL1  H18A 5352   4.649   6.442   3.431
   57CHL1  H18B 5353   4.472   6.474   3.459
   57CHL1  H18C 5354   4.547   6.461   3.288
   57CHL1   C12 5355   4.445   6.718   3.330
   57CHL1  H12A 5356   4.353   6.694   3.389
   57CHL1  H12B 5357   4.466   0.012   3.330
   57CHL1   C11 5358   4.427   6.674   3.191
   57CHL1  H11A 5359   4.374   6.576   3.194
   57CHL1  H11B 5360   4.350   6.742   3.150
   57CHL1    C9 5361   4.545   6.686   3.092
   57CHL1    H9 5362   4.552   6.792   3.057
   57CHL1   C10 5363   4.518   6.627   2.953
   57CHL1   C19 5364   4.494   6.470   2.975
   57CHL1  H19A 5365   4.478   6.415   2.879
   57CHL1  H19B 5366   4.579   6.422   3.029
   57CHL1  H19C 5367   4.402   6.476   3.036
   57CHL1    C1 5368   4.409   6.701   2.870
   57CHL1   H1A 5369   4.308   6.690   2.915
   57CHL1   H1B 5370   4.443   6.807   2.872
   57CHL1    C2 5371   4.398   6.653   2.722
   57CHL1   H2A 5372   4.325   6.724   2.677
   57CHL1   H2B 5373   4.357   6.550   2.709
   57CHL1   C20 5374   4.568   6.646   3.657
   57CHL1   H20 5375   4.566   6.535   3.663
   57CHL1   C21 5376   4.422   6.682   3.665
   57CHL1  H21A 5377   4.369   6.626   3.586
   57CHL1  H21B 5378   4.399   6.791   3.655
   57CHL1  H21C 5379   4.371   6.654   3.759
   57CHL1   C22 5380   4.643   6.674   3.791
   57CHL1  H22A 5381   4.596   6.630   3.881
   57CHL1  H22B 5382   4.738   6.617   3.782
   57CHL1   C23 5383   4.674   0.000   3.819
   57CHL1  H23A 5384   4.704   0.052   3.725
   57CHL1  H23B 5385   4.574   0.040   3.847
   57CHL1   C24 5386   4.793   0.012   3.921
   57CHL1  H24A 5387   4.886   6.788   3.874
   57CHL1  H24B 5388   4.811   0.122   3.932
   57CHL1   C25 5389   4.761   6.768   4.061
   57CHL1   H25 5390   4.738   6.661   4.038
   57CHL1   C26 5391   4.888   6.766   4.162
   57CHL1  H26A 5392   4.875   6.691   4.243
   57CHL1  H26B 5393   4.980   6.736   4.108
   57CHL1  H26C 5394   4.892   0.057   4.196
   57CHL1   C27 5395   4.637   0.010   4.130
   57CHL1  H27A 5396   4.546   6.810   4.068
   57CHL1  H27B 5397   4.609   6.760   4.216
   57CHL1  H27C 5398   4.654   0.116   4.158
   58CHL1    C3 5399   4.593   0.455   3.112
   58CHL1    H3 5400   4.681   0.452   3.179
   58CHL1    O3 5401   4.623   0.431   2.976
   58CHL1   H3' 5402   4.541   0.447   2.929
   58CHL1    C4 5403   4.499   0.353   3.163
   58CHL1   H4A 5404   4.406   0.353   3.102
   58CHL1   H4B 5405   4.548   0.255   3.148
   58CHL1    C5 5406   4.460   0.383   3.310
   58CHL1    C6 5407   4.491   0.305   3.417
   58CHL1    H6 5408   4.552   0.215   3.397
   58CHL1    C7 5409   4.447   0.334   3.558
   58CHL1   H7A 5410   4.402   0.245   3.608
   58CHL1   H7B 5411   4.538   0.363   3.615
   58CHL1    C8 5412   4.337   0.451   3.563
   58CHL1    H8 5413   4.242   0.411   3.521
   58CHL1   C14 5414   4.325   0.493   3.708
   58CHL1   H14 5415   4.417   0.551   3.734
   58CHL1   C15 5416   4.308   0.382   3.814
   58CHL1  H15A 5417   4.246   0.305   3.762
   58CHL1  H15B 5418   4.409   0.345   3.839
   58CHL1   C16 5419   4.235   0.453   3.932
   58CHL1  H16A 5420   4.138   0.400   3.940
   58CHL1  H16B 5421   4.301   0.453   4.022
   58CHL1   C17 5422   4.218   0.600   3.883
   58CHL1   H17 5423   4.314   0.654   3.894
   58CHL1   C13 5424   4.212   0.593   3.726
   58CHL1   C18 5425   4.071   0.549   3.684
   58CHL1  H18A 5426   3.998   0.621   3.725
   58CHL1  H18B 5427   4.078   0.544   3.573
   58CHL1  H18C 5428   4.043   0.446   3.717
   58CHL1   C12 5429   4.253   0.722   3.652
   58CHL1  H12A 5430   4.180   0.803   3.671
   58CHL1  H12B 5431   4.349   0.760   3.694
   58CHL1   C11 5432   4.275   0.694   3.501
   58CHL1  H11A 5433   4.178   0.675   3.451
   58CHL1  H11B 5434   4.322   0.782   3.452
   58CHL1    C9 5435   4.368   0.567   3.477
   58CHL1    H9 5436   4.467   0.604   3.514
   58CHL1   C10 5437   4.389   0.521   3.327
   58CHL1   C19 5438   4.248   0.510   3.263
   58CHL1  H19A 5439   4.201   0.611   3.253
   58CHL1  H19B 5440   4.255   0.466   3.161
   58CHL1  H19C 5441   4.170   0.448   3.313
   58CHL1    C1 5442   4.479   0.631   3.255
   58CHL1   H1A 5443   4.426   0.729   3.249
   58CHL1   H1B 5444   4.569   0.634   3.320
   58CHL1    C2 5445   4.525   0.598   3.116
   58CHL1   H2A 5446   4.574   0.692   3.081
   58CHL1   H2B 5447   4.439   0.602   3.045
   58CHL1   C20 5448   4.104   0.671   3.964
   58CHL1   H20 5449   4.067   0.762   3.912
   58CHL1   C21 5450   4.169   0.708   4.091
   58CHL1  H21A 5451   4.099   0.764   4.157
   58CHL1  H21B 5452   4.261   0.770   4.080
   58CHL1  H21C 5453   4.189   0.616   4.150
   58CHL1   C22 5454   3.980   0.585   3.999
   58CHL1  H22A 5455   3.955   0.511   3.920
   58CHL1  H22B 5456   3.988   0.531   4.095
   58CHL1   C23 5457   3.850   0.671   4.010
   58CHL1  H23A 5458   3.868   0.743   4.093
   58CHL1  H23B 5459   3.838   0.721   3.912
   58CHL1   C24 5460   3.726   0.583   4.043
   58CHL1  H24A 5461   3.700   0.528   3.949
   58CHL1  H24B 5462   3.765   0.505   4.111
   58CHL1   C25 5463   3.603   0.657   4.088
   58CHL1   H25 5464   3.626   0.698   4.189
   58CHL1   C26 5465   3.552   0.768   3.994
   58CHL1  H26A 5466   3.474   0.829   4.046
   58CHL1  H26B 5467   3.639   0.832   3.968
   58CHL1  H26C 5468   3.515   0.744   3.892
   58CHL1   C27 5469   3.490   0.552   4.120
   58CHL1  H27A 5470   3.472   0.502   4.023
   58CHL1  H27B 5471   3.513   0.480   4.201
   58CHL1  H27C 5472   3.403   0.611   4.154
   59CHL1    C3 5473   2.652   4.907   2.580
   59CHL1    H3 5474   2.581   4.831   2.539
   59CHL1    O3 5475   2.695   4.977   2.461
   59CHL1   H3' 5476   2.762   5.043   2.480
   59CHL1    C4 5477   2.575   5.012   2.663
   59CHL1   H4A 5478   2.642   5.100   2.671
   59CHL1   H4B 5479   2.484   5.043   2.607
   59CHL1    C5 5480   2.536   4.950   2.801
   59CHL1    C6 5481   2.408   4.956   2.841
   59CHL1    H6 5482   2.335   5.016   2.785
   59CHL1    C7 5483   2.361   4.886   2.965
   59CHL1   H7A 5484   2.283   4.945   3.019
   59CHL1   H7B 5485   2.317   4.785   2.947
   59CHL1    C8 5486   2.477   4.873   3.068
   59CHL1    H8 5487   2.504   4.977   3.099
   59CHL1   C14 5488   2.427   4.785   3.188
   59CHL1   H14 5489   2.423   4.683   3.142
   59CHL1   C15 5490   2.299   4.825   3.251
   59CHL1  H15A 5491   2.302   4.930   3.288
   59CHL1  H15B 5492   2.199   4.827   3.201
   59CHL1   C16 5493   2.313   4.738   3.384
   59CHL1  H16A 5494   2.276   4.795   3.472
   59CHL1  H16B 5495   2.254   4.646   3.366
   59CHL1   C17 5496   2.458   4.684   3.394
   59CHL1   H17 5497   2.458   4.578   3.358
   59CHL1   C13 5498   2.536   4.767   3.293
   59CHL1   C18 5499   2.577   4.903   3.359
   59CHL1  H18A 5500   2.604   4.985   3.288
   59CHL1  H18B 5501   2.491   4.941   3.417
   59CHL1  H18C 5502   2.661   4.897   3.432
   59CHL1   C12 5503   2.659   4.699   3.227
   59CHL1  H12A 5504   2.734   4.674   3.305
   59CHL1  H12B 5505   2.628   4.600   3.188
   59CHL1   C11 5506   2.714   4.792   3.119
   59CHL1  H11A 5507   2.739   4.892   3.162
   59CHL1  H11B 5508   2.807   4.762   3.066
   59CHL1    C9 5509   2.598   4.815   3.008
   59CHL1    H9 5510   2.563   4.714   2.976
   59CHL1   C10 5511   2.645   4.891   2.883
   59CHL1   C19 5512   2.735   5.006   2.927
   59CHL1  H19A 5513   2.689   5.077   2.999
   59CHL1  H19B 5514   2.831   4.967   2.967
   59CHL1  H19C 5515   2.759   5.077   2.845
   59CHL1    C1 5516   2.726   4.786   2.789
   59CHL1   H1A 5517   2.812   4.753   2.852
   59CHL1   H1B 5518   2.658   4.699   2.777
   59CHL1    C2 5519   2.772   4.849   2.660
   59CHL1   H2A 5520   2.837   4.782   2.600
   59CHL1   H2B 5521   2.844   4.931   2.678
   59CHL1   C20 5522   2.506   4.677   3.537
   59CHL1   H20 5523   2.503   4.782   3.574
   59CHL1   C21 5524   2.651   4.625   3.552
   59CHL1  H21A 5525   2.650   4.520   3.516
   59CHL1  H21B 5526   2.674   4.621   3.661
   59CHL1  H21C 5527   2.725   4.695   3.508
   59CHL1   C22 5528   2.402   4.591   3.624
   59CHL1  H22A 5529   2.294   4.580   3.599
   59CHL1  H22B 5530   2.449   4.491   3.621
   59CHL1   C23 5531   2.416   4.626   3.775
   59CHL1  H23A 5532   2.522   4.609   3.801
   59CHL1  H23B 5533   2.398   4.735   3.783
   59CHL1   C24 5534   2.319   4.557   3.874
   59CHL1  H24A 5535   2.215   4.579   3.840
   59CHL1  H24B 5536   2.331   4.446   3.874
   59CHL1   C25 5537   2.327   4.596   4.017
   59CHL1   H25 5538   2.432   4.563   4.036
   59CHL1   C26 5539   2.327   4.746   4.048
   59CHL1  H26A 5540   2.400   4.806   3.989
   59CHL1  H26B 5541   2.230   4.799   4.032
   59CHL1  H26C 5542   2.346   4.757   4.157
   59CHL1   C27 5543   2.233   4.521   4.110
   59CHL1  H27A 5544   2.261   4.522   4.218
   59CHL1  H27B 5545   2.130   4.557   4.091
   59CHL1  H27C 5546   2.214   4.419   4.070
   60CHL1    C3 5547   5.731   5.840   3.127
   60CHL1    H3 5548   5.838   5.817   3.146
   60CHL1    O3 5549   5.689   5.787   3.002
   60CHL1   H3' 5550   5.679   5.871   2.957
   60CHL1    C4 5551   5.647   5.766   3.230
   60CHL1   H4A 5552   5.537   5.758   3.215
   60CHL1   H4B 5553   5.676   5.660   3.212
   60CHL1    C5 5554   5.674   5.814   3.370
   60CHL1    C6 5555   5.709   5.729   3.469
   60CHL1    H6 5556   5.693   5.622   3.451
   60CHL1    C7 5557   5.738   5.778   3.607
   60CHL1   H7A 5558   5.681   5.707   3.671
   60CHL1   H7B 5559   5.846   5.776   3.632
   60CHL1    C8 5560   5.695   5.929   3.634
   60CHL1    H8 5561   5.584   5.919   3.636
   60CHL1   C14 5562   5.763   5.972   3.767
   60CHL1   H14 5563   5.872   5.963   3.753
   60CHL1   C15 5564   5.732   5.902   3.904
   60CHL1  H15A 5565   5.629   5.866   3.924
   60CHL1  H15B 5566   5.797   5.812   3.912
   60CHL1   C16 5567   5.756   6.008   4.016
   60CHL1  H16A 5568   5.662   6.033   4.071
   60CHL1  H16B 5569   5.828   5.983   4.097
   60CHL1   C17 5570   5.812   6.133   3.938
   60CHL1   H17 5571   5.918   6.117   3.910
   60CHL1   C13 5572   5.747   6.124   3.795
   60CHL1   C18 5573   5.589   6.147   3.799
   60CHL1  H18A 5574   5.548   6.122   3.699
   60CHL1  H18B 5575   5.546   6.068   3.864
   60CHL1  H18C 5576   5.575   6.255   3.818
   60CHL1   C12 5577   5.821   6.197   3.680
   60CHL1  H12A 5578   5.816   6.304   3.706
   60CHL1  H12B 5579   5.931   6.181   3.682
   60CHL1   C11 5580   5.756   6.168   3.540
   60CHL1  H11A 5581   5.651   6.203   3.540
   60CHL1  H11B 5582   5.798   6.217   3.450
   60CHL1    C9 5583   5.747   6.016   3.515
   60CHL1    H9 5584   5.853   5.983   3.503
   60CHL1   C10 5585   5.676   5.968   3.387
   60CHL1   C19 5586   5.534   6.029   3.382
   60CHL1  H19A 5587   5.523   6.137   3.404
   60CHL1  H19B 5588   5.490   6.013   3.281
   60CHL1  H19C 5589   5.461   5.988   3.455
   60CHL1    C1 5590   5.749   6.036   3.264
   60CHL1   H1A 5591   5.734   6.146   3.273
   60CHL1   H1B 5592   5.857   6.022   3.289
   60CHL1    C2 5593   5.713   5.988   3.121
   60CHL1   H2A 5594   5.791   6.030   3.054
   60CHL1   H2B 5595   5.607   6.019   3.105
   60CHL1   C20 5596   5.810   6.265   4.019
   60CHL1   H20 5597   5.794   6.355   3.956
   60CHL1   C21 5598   5.949   6.281   4.076
   60CHL1  H21A 5599   6.033   6.255   4.008
   60CHL1  H21B 5600   5.955   6.202   4.154
   60CHL1  H21C 5601   5.967   6.385   4.111
   60CHL1   C22 5602   5.711   6.295   4.137
   60CHL1  H22A 5603   5.617   6.261   4.088
   60CHL1  H22B 5604   5.742   6.250   4.233
   60CHL1   C23 5605   5.712   6.446   4.170
   60CHL1  H23A 5606   5.808   6.481   4.215
   60CHL1  H23B 5607   5.703   6.498   4.072
   60CHL1   C24 5608   5.612   6.475   4.275
   60CHL1  H24A 5609   5.511   6.456   4.232
   60CHL1  H24B 5610   5.616   6.410   4.365
   60CHL1   C25 5611   5.609   6.622   4.323
   60CHL1   H25 5612   5.701   6.638   4.383
   60CHL1   C26 5613   5.603   6.733   4.210
   60CHL1  H26A 5614   5.599   0.021   4.254
   60CHL1  H26B 5615   5.696   6.719   4.151
   60CHL1  H26C 5616   5.513   6.713   4.148
   60CHL1   C27 5617   5.500   6.631   4.426
   60CHL1  H27A 5618   5.400   6.603   4.387
   60CHL1  H27B 5619   5.521   6.547   4.496
   60CHL1  H27C 5620   5.505   6.726   4.483
   61CHL1    C3 5621   5.683   2.269   2.986
   61CHL1    H3 5622   5.776   2.282   3.046
   61CHL1    O3 5623   5.711   2.257   2.849
   61CHL1   H3' 5624   5.660   2.332   2.816
   61CHL1    C4 5625   5.608   2.152   3.039
   61CHL1   H4A 5626   5.513   2.141   2.983
   61CHL1   H4B 5627   5.669   2.061   3.015
   61CHL1    C5 5628   5.570   2.157   3.188
   61CHL1    C6 5629   5.594   2.055   3.277
   61CHL1    H6 5630   5.630   1.962   3.232
   61CHL1    C7 5631   5.563   2.065   3.426
   61CHL1   H7A 5632   5.522   1.976   3.477
   61CHL1   H7B 5633   5.667   2.076   3.465
   61CHL1    C8 5634   5.472   2.184   3.461
   61CHL1    H8 5635   5.370   2.160   3.424
   61CHL1   C14 5636   5.473   2.216   3.609
   61CHL1   H14 5637   5.574   2.257   3.630
   61CHL1   C15 5638   5.465   2.099   3.708
   61CHL1  H15A 5639   5.372   2.043   3.682
   61CHL1  H15B 5640   5.554   2.033   3.702
   61CHL1   C16 5641   5.440   2.170   3.842
   61CHL1  H16A 5642   5.353   2.128   3.897
   61CHL1  H16B 5643   5.534   2.162   3.901
   61CHL1   C17 5644   5.421   2.321   3.811
   61CHL1   H17 5645   5.523   2.365   3.806
   61CHL1   C13 5646   5.380   2.326   3.657
   61CHL1   C18 5647   5.231   2.281   3.634
   61CHL1  H18A 5648   5.161   2.355   3.678
   61CHL1  H18B 5649   5.209   2.269   3.526
   61CHL1  H18C 5650   5.218   2.182   3.682
   61CHL1   C12 5651   5.428   2.461   3.584
   61CHL1  H12A 5652   5.367   2.548   3.618
   61CHL1  H12B 5653   5.527   2.488   3.628
   61CHL1   C11 5654   5.432   2.442   3.432
   61CHL1  H11A 5655   5.326   2.435   3.401
   61CHL1  H11B 5656   5.477   2.535   3.390
   61CHL1    C9 5657   5.506   2.314   3.384
   61CHL1    H9 5658   5.615   2.329   3.401
   61CHL1   C10 5659   5.505   2.303   3.232
   61CHL1   C19 5660   5.360   2.303   3.182
   61CHL1  H19A 5661   5.310   2.216   3.230
   61CHL1  H19B 5662   5.309   2.396   3.216
   61CHL1  H19C 5663   5.344   2.297   3.073
   61CHL1    C1 5664   5.589   2.414   3.172
   61CHL1   H1A 5665   5.553   2.516   3.198
   61CHL1   H1B 5666   5.692   2.411   3.213
   61CHL1    C2 5667   5.619   2.404   3.023
   61CHL1   H2A 5668   5.670   2.495   2.985
   61CHL1   H2B 5669   5.526   2.394   2.963
   61CHL1   C20 5670   5.341   2.380   3.926
   61CHL1   H20 5671   5.249   2.319   3.939
   61CHL1   C21 5672   5.288   2.523   3.900
   61CHL1  H21A 5673   5.249   2.537   3.797
   61CHL1  H21B 5674   5.366   2.599   3.924
   61CHL1  H21C 5675   5.202   2.539   3.969
   61CHL1   C22 5676   5.420   2.363   4.061
   61CHL1  H22A 5677   5.460   2.260   4.076
   61CHL1  H22B 5678   5.496   2.444   4.071
   61CHL1   C23 5679   5.318   2.394   4.175
   61CHL1  H23A 5680   5.261   2.490   4.170
   61CHL1  H23B 5681   5.233   2.323   4.168
   61CHL1   C24 5682   5.381   2.388   4.314
   61CHL1  H24A 5683   5.426   2.289   4.338
   61CHL1  H24B 5684   5.460   2.465   4.319
   61CHL1   C25 5685   5.289   2.434   4.434
   61CHL1   H25 5686   5.244   2.525   4.391
   61CHL1   C26 5687   5.174   2.335   4.463
   61CHL1  H26A 5688   5.212   2.231   4.469
   61CHL1  H26B 5689   5.125   2.365   4.558
   61CHL1  H26C 5690   5.104   2.342   4.377
   61CHL1   C27 5691   5.367   2.460   4.570
   61CHL1  H27A 5692   5.457   2.522   4.548
   61CHL1  H27B 5693   5.307   2.513   4.647
   61CHL1  H27C 5694   5.413   2.366   4.607
   62CHL1    C3 5695   1.301   0.654   2.958
   62CHL1    H3 5696   1.330   0.759   2.977
   62CHL1    O3 5697   1.266   0.636   2.826
   62CHL1   H3' 5698   1.313   0.699   2.771
   62CHL1    C4 5699   1.412   0.556   3.000
   62CHL1   H4A 5700   1.384   0.455   2.963
   62CHL1   H4B 5701   1.497   0.587   2.935
   62CHL1    C5 5702   1.449   0.556   3.148
   62CHL1    C6 5703   1.571   0.581   3.195
   62CHL1    H6 5704   1.652   0.601   3.123
   62CHL1    C7 5705   1.604   0.578   3.339
   62CHL1   H7A 5706   1.696   0.519   3.360
   62CHL1   H7B 5707   1.625   0.680   3.376
   62CHL1    C8 5708   1.490   0.500   3.430
   62CHL1    H8 5709   1.505   0.392   3.412
   62CHL1   C14 5710   1.505   0.534   3.581
   62CHL1   H14 5711   1.478   0.642   3.577
   62CHL1   C15 5712   1.641   0.523   3.634
   62CHL1  H15A 5713   1.705   0.434   3.615
   62CHL1  H15B 5714   1.699   0.612   3.602
   62CHL1   C16 5715   1.618   0.534   3.786
   62CHL1  H16A 5716   1.679   0.459   3.842
   62CHL1  H16B 5717   1.650   0.636   3.813
   62CHL1   C17 5718   1.464   0.522   3.811
   62CHL1   H17 5719   1.421   0.625   3.811
   62CHL1   C13 5720   1.417   0.457   3.678
   62CHL1   C18 5721   1.458   0.313   3.666
   62CHL1  H18A 5722   1.560   0.294   3.707
   62CHL1  H18B 5723   1.392   0.257   3.735
   62CHL1  H18C 5724   1.438   0.260   3.570
   62CHL1   C12 5725   1.275   0.483   3.627
   62CHL1  H12A 5726   1.207   0.423   3.692
   62CHL1  H12B 5727   1.243   0.586   3.653
   62CHL1   C11 5728   1.246   0.456   3.474
   62CHL1  H11A 5729   1.251   0.347   3.451
   62CHL1  H11B 5730   1.142   0.491   3.456
   62CHL1    C9 5731   1.347   0.535   3.384
   62CHL1    H9 5732   1.342   0.643   3.409
   62CHL1   C10 5733   1.322   0.519   3.233
   62CHL1   C19 5734   1.288   0.371   3.191
   62CHL1  H19A 5735   1.199   0.347   3.255
   62CHL1  H19B 5736   1.250   0.372   3.087
   62CHL1  H19C 5737   1.372   0.301   3.210
   62CHL1    C1 5738   1.222   0.625   3.190
   62CHL1   H1A 5739   1.129   0.595   3.241
   62CHL1   H1B 5740   1.238   0.734   3.207
   62CHL1    C2 5741   1.179   0.623   3.039
   62CHL1   H2A 5742   1.099   0.695   3.012
   62CHL1   H2B 5743   1.130   0.527   3.014
   62CHL1   C20 5744   1.416   0.465   3.948
   62CHL1   H20 5745   1.442   0.357   3.958
   62CHL1   C21 5746   1.264   0.474   3.966
   62CHL1  H21A 5747   1.228   0.452   4.069
   62CHL1  H21B 5748   1.221   0.409   3.886
   62CHL1  H21C 5749   1.236   0.581   3.954
   62CHL1   C22 5750   1.485   0.534   4.072
   62CHL1  H22A 5751   1.581   0.583   4.046
   62CHL1  H22B 5752   1.417   0.616   4.102
   62CHL1   C23 5753   1.497   0.437   4.189
   62CHL1  H23A 5754   1.515   0.502   4.277
   62CHL1  H23B 5755   1.398   0.389   4.206
   62CHL1   C24 5756   1.611   0.330   4.182
   62CHL1  H24A 5757   1.611   0.280   4.083
   62CHL1  H24B 5758   1.707   0.386   4.174
   62CHL1   C25 5759   1.627   0.229   4.292
   62CHL1   H25 5760   1.621   0.279   4.391
   62CHL1   C26 5761   1.518   0.124   4.292
   62CHL1  H26A 5762   1.426   0.184   4.311
   62CHL1  H26B 5763   1.508   0.065   4.198
   62CHL1  H26C 5764   1.528   0.049   4.373
   62CHL1   C27 5765   1.760   0.152   4.271
   62CHL1  H27A 5766   1.749   0.066   4.340
   62CHL1  H27B 5767   1.764   0.112   4.168
   62CHL1  H27C 5768   1.855   0.208   4.287
   63CHL1    C3 5769   4.253   5.293   2.490
   63CHL1    H3 5770   4.197   5.206   2.530
   63CHL1    O3 5771   4.229   5.299   2.350
   63CHL1   H3' 5772   4.269   5.217   2.318
   63CHL1    C4 5773   4.184   5.410   2.555
   63CHL1   H4A 5774   4.216   5.506   2.510
   63CHL1   H4B 5775   4.076   5.403   2.530
   63CHL1    C5 5776   4.209   5.414   2.702
   63CHL1    C6 5777   4.110   5.427   2.788
   63CHL1    H6 5778   4.009   5.447   2.750
   63CHL1    C7 5779   4.120   5.444   2.934
   63CHL1   H7A 5780   4.093   5.551   2.946
   63CHL1   H7B 5781   4.046   5.375   2.981
   63CHL1    C8 5782   4.263   5.445   2.987
   63CHL1    H8 5783   4.304   5.548   2.990
   63CHL1   C14 5784   4.269   5.387   3.134
   63CHL1   H14 5785   4.231   5.283   3.122
   63CHL1   C15 5786   4.170   5.436   3.241
   63CHL1  H15A 5787   4.178   5.547   3.233
   63CHL1  H15B 5788   4.065   5.413   3.213
   63CHL1   C16 5789   4.216   5.357   3.363
   63CHL1  H16A 5790   4.204   5.407   3.462
   63CHL1  H16B 5791   4.166   5.258   3.357
   63CHL1   C17 5792   4.378   5.335   3.344
   63CHL1   H17 5793   4.390   5.225   3.349
   63CHL1   C13 5794   4.403   5.387   3.206
   63CHL1   C18 5795   4.454   5.540   3.216
   63CHL1  H18A 5796   4.548   5.541   3.274
   63CHL1  H18B 5797   4.479   5.587   3.118
   63CHL1  H18C 5798   4.382   5.606   3.268
   63CHL1   C12 5799   4.501   5.294   3.120
   63CHL1  H12A 5800   4.602   5.287   3.166
   63CHL1  H12B 5801   4.463   5.190   3.125
   63CHL1   C11 5802   4.498   5.337   2.971
   63CHL1  H11A 5803   4.543   5.438   2.968
   63CHL1  H11B 5804   4.568   5.275   2.910
   63CHL1    C9 5805   4.355   5.347   2.910
   63CHL1    H9 5806   4.305   5.248   2.912
   63CHL1   C10 5807   4.357   5.383   2.756
   63CHL1   C19 5808   4.441   5.505   2.729
   63CHL1  H19A 5809   4.548   5.478   2.740
   63CHL1  H19B 5810   4.436   5.549   2.627
   63CHL1  H19C 5811   4.422   5.580   2.809
   63CHL1    C1 5812   4.424   5.262   2.678
   63CHL1   H1A 5813   4.530   5.263   2.710
   63CHL1   H1B 5814   4.375   5.168   2.713
   63CHL1    C2 5815   4.403   5.282   2.528
   63CHL1   H2A 5816   4.436   5.190   2.475
   63CHL1   H2B 5817   4.456   5.371   2.488
   63CHL1   C20 5818   4.473   5.369   3.468
   63CHL1   H20 5819   4.471   5.480   3.476
   63CHL1   C21 5820   4.620   5.333   3.433
   63CHL1  H21A 5821   4.627   5.228   3.396
   63CHL1  H21B 5822   4.674   5.340   3.530
   63CHL1  H21C 5823   4.653   5.400   3.352
   63CHL1   C22 5824   4.421   5.301   3.605
   63CHL1  H22A 5825   4.507   5.326   3.672
   63CHL1  H22B 5826   4.341   5.366   3.644
   63CHL1   C23 5827   4.402   5.146   3.600
   63CHL1  H23A 5828   4.321   5.107   3.534
   63CHL1  H23B 5829   4.502   5.120   3.559
   63CHL1   C24 5830   4.377   5.094   3.738
   63CHL1  H24A 5831   4.473   5.112   3.792
   63CHL1  H24B 5832   4.295   5.162   3.771
   63CHL1   C25 5833   4.343   4.947   3.753
   63CHL1   H25 5834   4.265   4.919   3.679
   63CHL1   C26 5835   4.469   4.872   3.735
   63CHL1  H26A 5836   4.460   4.767   3.771
   63CHL1  H26B 5837   4.500   4.878   3.629
   63CHL1  H26C 5838   4.544   4.918   3.803
   63CHL1   C27 5839   4.287   4.927   3.898
   63CHL1  H27A 5840   4.235   4.830   3.914
   63CHL1  H27B 5841   4.364   4.942   3.977
   63CHL1  H27C 5842   4.203   4.991   3.932
   64CHL1    C3 5843   3.017   2.328   2.990
   64CHL1    H3 5844   3.098   2.255   3.013
   64CHL1    O3 5845   3.006   2.310   2.852
   64CHL1   H3' 5846   2.956   2.229   2.841
   64CHL1    C4 5847   2.882   2.282   3.059
   64CHL1   H4A 5848   2.795   2.338   3.018
   64CHL1   H4B 5849   2.861   2.180   3.021
   64CHL1    C5 5850   2.891   2.292   3.204
   64CHL1    C6 5851   2.879   2.187   3.282
   64CHL1    H6 5852   2.848   2.092   3.238
   64CHL1    C7 5853   2.880   2.190   3.429
   64CHL1   H7A 5854   2.797   2.124   3.463
   64CHL1   H7B 5855   2.970   2.149   3.479
   64CHL1    C8 5856   2.868   2.331   3.485
   64CHL1    H8 5857   2.764   2.364   3.464
   64CHL1   C14 5858   2.895   2.327   3.637
   64CHL1   H14 5859   3.002   2.298   3.650
   64CHL1   C15 5860   2.814   2.228   3.726
   64CHL1  H15A 5861   2.709   2.231   3.690
   64CHL1  H15B 5862   2.856   2.125   3.719
   64CHL1   C16 5863   2.836   2.291   3.865
   64CHL1  H16A 5864   2.734   2.298   3.909
   64CHL1  H16B 5865   2.888   2.217   3.930
   64CHL1   C17 5866   2.910   2.426   3.853
   64CHL1   H17 5867   3.015   2.396   3.872
   64CHL1   C13 5868   2.896   2.459   3.701
   64CHL1   C18 5869   2.757   2.537   3.685
   64CHL1  H18A 5870   2.675   2.475   3.727
   64CHL1  H18B 5871   2.747   2.634   3.738
   64CHL1  H18C 5872   2.728   2.557   3.580
   64CHL1   C12 5873   3.012   2.542   3.637
   64CHL1  H12A 5874   3.018   2.646   3.676
   64CHL1  H12B 5875   3.104   2.479   3.637
   64CHL1   C11 5876   2.985   2.559   3.488
   64CHL1  H11A 5877   2.897   2.626   3.479
   64CHL1  H11B 5878   3.067   2.608   3.431
   64CHL1    C9 5879   2.968   2.425   3.416
   64CHL1    H9 5880   3.069   2.377   3.419
   64CHL1   C10 5881   2.942   2.430   3.261
   64CHL1   C19 5882   2.832   2.542   3.238
   64CHL1  H19A 5883   2.753   2.540   3.315
   64CHL1  H19B 5884   2.879   2.642   3.226
   64CHL1  H19C 5885   2.777   2.527   3.143
   64CHL1    C1 5886   3.069   2.472   3.188
   64CHL1   H1A 5887   3.094   2.576   3.216
   64CHL1   H1B 5888   3.147   2.399   3.219
   64CHL1    C2 5889   3.064   2.463   3.034
   64CHL1   H2A 5890   3.163   2.492   2.992
   64CHL1   H2B 5891   2.994   2.544   3.003
   64CHL1   C20 5892   2.872   2.524   3.960
   64CHL1   H20 5893   2.764   2.549   3.945
   64CHL1   C21 5894   2.951   2.657   3.946
   64CHL1  H21A 5895   3.055   2.622   3.927
   64CHL1  H21B 5896   2.956   2.711   4.043
   64CHL1  H21C 5897   2.920   2.723   3.863
   64CHL1   C22 5898   2.891   2.470   4.101
   64CHL1  H22A 5899   2.877   2.548   4.179
   64CHL1  H22B 5900   2.819   2.388   4.123
   64CHL1   C23 5901   3.039   2.421   4.138
   64CHL1  H23A 5902   3.060   2.320   4.097
   64CHL1  H23B 5903   3.104   2.502   4.099
   64CHL1   C24 5904   3.051   2.421   4.284
   64CHL1  H24A 5905   3.154   2.393   4.316
   64CHL1  H24B 5906   3.030   2.518   4.331
   64CHL1   C25 5907   2.955   2.319   4.356
   64CHL1   H25 5908   2.847   2.345   4.351
   64CHL1   C26 5909   2.974   2.175   4.307
   64CHL1  H26A 5910   2.935   2.172   4.203
   64CHL1  H26B 5911   3.080   2.144   4.291
   64CHL1  H26C 5912   2.919   2.107   4.376
   64CHL1   C27 5913   2.992   2.329   4.505
   64CHL1  H27A 5914   2.955   2.244   4.566
   64CHL1  H27B 5915   3.101   2.327   4.523
   64CHL1  H27C 5916   2.955   2.428   4.541
   65CHL1    C3 5917   0.640   0.564   2.877
   65CHL1    H3 5918   0.574   0.477   2.902
   65CHL1    O3 5919   0.616   0.595   2.735
   65CHL1   H3' 5920   0.679   0.666   2.718
   65CHL1    C4 5921   0.597   0.679   2.961
   65CHL1   H4A 5922   0.674   0.753   2.930
   65CHL1   H4B 5923   0.495   0.711   2.929
   65CHL1    C5 5924   0.606   0.657   3.109
   65CHL1    C6 5925   0.499   0.678   3.184
   65CHL1    H6 5926   0.403   0.711   3.141
   65CHL1    C7 5927   0.495   0.658   3.336
   65CHL1   H7A 5928   0.440   0.736   3.393
   65CHL1   H7B 5929   0.448   0.559   3.357
   65CHL1    C8 5930   0.641   0.647   3.399
   65CHL1    H8 5931   0.691   0.744   3.419
   65CHL1   C14 5932   0.633   0.587   3.541
   65CHL1   H14 5933   0.590   0.487   3.521
   65CHL1   C15 5934   0.539   0.652   3.642
   65CHL1  H15A 5935   0.549   0.762   3.651
   65CHL1  H15B 5936   0.432   0.626   3.630
   65CHL1   C16 5937   0.584   0.588   3.774
   65CHL1  H16A 5938   0.620   0.673   3.836
   65CHL1  H16B 5939   0.498   0.539   3.824
   65CHL1   C17 5940   0.709   0.497   3.747
   65CHL1   H17 5941   0.661   0.401   3.719
   65CHL1   C13 5942   0.763   0.550   3.612
   65CHL1   C18 5943   0.856   0.669   3.644
   65CHL1  H18A 5944   0.961   0.642   3.671
   65CHL1  H18B 5945   0.874   0.740   3.561
   65CHL1  H18C 5946   0.814   0.732   3.726
   65CHL1   C12 5947   0.841   0.459   3.513
   65CHL1  H12A 5948   0.942   0.446   3.556
   65CHL1  H12B 5949   0.789   0.362   3.500
   65CHL1   C11 5950   0.865   0.526   3.380
   65CHL1  H11A 5951   0.929   0.612   3.411
   65CHL1  H11B 5952   0.918   0.451   3.317
   65CHL1    C9 5953   0.734   0.559   3.314
   65CHL1    H9 5954   0.676   0.464   3.311
   65CHL1   C10 5955   0.743   0.606   3.164
   65CHL1   C19 5956   0.832   0.731   3.172
   65CHL1  H19A 5957   0.828   0.774   3.069
   65CHL1  H19B 5958   0.791   0.818   3.228
   65CHL1  H19C 5959   0.941   0.722   3.191
   65CHL1    C1 5960   0.800   0.506   3.067
   65CHL1   H1A 5961   0.906   0.476   3.078
   65CHL1   H1B 5962   0.738   0.418   3.094
   65CHL1    C2 5963   0.784   0.527   2.914
   65CHL1   H2A 5964   0.820   0.431   2.870
   65CHL1   H2B 5965   0.845   0.615   2.885
   65CHL1   C20 5966   0.798   0.477   3.871
   65CHL1   H20 5967   0.851   0.568   3.906
   65CHL1   C21 5968   0.906   0.366   3.842
   65CHL1  H21A 5969   0.964   0.328   3.929
   65CHL1  H21B 5970   0.973   0.407   3.764
   65CHL1  H21C 5971   0.850   0.275   3.811
   65CHL1   C22 5972   0.705   0.417   3.978
   65CHL1  H22A 5973   0.620   0.482   4.005
   65CHL1  H22B 5974   0.643   0.330   3.949
   65CHL1   C23 5975   0.770   0.396   4.114
   65CHL1  H23A 5976   0.849   0.319   4.100
   65CHL1  H23B 5977   0.802   0.493   4.157
   65CHL1   C24 5978   0.668   0.345   4.221
   65CHL1  H24A 5979   0.580   0.412   4.225
   65CHL1  H24B 5980   0.639   0.242   4.191
   65CHL1   C25 5981   0.722   0.326   4.363
   65CHL1   H25 5982   0.806   0.254   4.367
   65CHL1   C26 5983   0.774   0.451   4.436
   65CHL1  H26A 5984   0.693   0.526   4.423
   65CHL1  H26B 5985   0.800   0.426   4.541
   65CHL1  H26C 5986   0.869   0.482   4.387
   65CHL1   C27 5987   0.615   0.258   4.453
   65CHL1  H27A 5988   0.657   0.215   4.546
   65CHL1  H27B 5989   0.536   0.329   4.487
   65CHL1  H27C 5990   0.571   0.172   4.399
   66CHL1    C3 5991   4.146   1.423   2.773
   66CHL1    H3 5992   4.036   1.418   2.782
   66CHL1    O3 5993   4.197   1.405   2.642
   66CHL1   H3' 5994   4.116   1.394   2.592
   66CHL1    C4 5995   4.178   1.559   2.831
   66CHL1   H4A 5996   4.287   1.578   2.822
   66CHL1   H4B 5997   4.145   1.645   2.768
   66CHL1    C5 5998   4.134   1.575   2.975
   66CHL1    C6 5999   4.041   1.670   3.008
   66CHL1    H6 6000   3.995   1.738   2.934
   66CHL1    C7 6001   3.994   1.678   3.147
   66CHL1   H7A 6002   3.987   1.786   3.176
   66CHL1   H7B 6003   3.898   1.626   3.167
   66CHL1    C8 6004   4.098   1.623   3.252
   66CHL1    H8 6005   4.189   1.687   3.243
   66CHL1   C14 6006   4.044   1.612   3.389
   66CHL1   H14 6007   3.975   1.526   3.382
   66CHL1   C15 6008   3.963   1.728   3.440
   66CHL1  H15A 6009   3.982   1.825   3.388
   66CHL1  H15B 6010   3.857   1.701   3.421
   66CHL1   C16 6011   4.000   1.737   3.590
   66CHL1  H16A 6012   4.069   1.820   3.616
   66CHL1  H16B 6013   3.915   1.741   3.661
   66CHL1   C17 6014   4.073   1.605   3.629
   66CHL1   H17 6015   4.006   1.516   3.631
   66CHL1   C13 6016   4.148   1.576   3.496
   66CHL1   C18 6017   4.269   1.676   3.478
   66CHL1  H18A 6018   4.333   1.683   3.568
   66CHL1  H18B 6019   4.326   1.641   3.389
   66CHL1  H18C 6020   4.235   1.778   3.450
   66CHL1   C12 6021   4.189   1.435   3.473
   66CHL1  H12A 6022   4.282   1.403   3.526
   66CHL1  H12B 6023   4.108   1.362   3.491
   66CHL1   C11 6024   4.229   1.414   3.326
   66CHL1  H11A 6025   4.326   1.466   3.312
   66CHL1  H11B 6026   4.237   1.306   3.303
   66CHL1    C9 6027   4.139   1.484   3.219
   66CHL1    H9 6028   4.041   1.431   3.214
   66CHL1   C10 6029   4.198   1.477   3.072
   66CHL1   C19 6030   4.352   1.502   3.086
   66CHL1  H19A 6031   4.398   1.414   3.135
   66CHL1  H19B 6032   4.409   1.519   2.992
   66CHL1  H19C 6033   4.366   1.597   3.141
   66CHL1    C1 6034   4.166   1.334   3.016
   66CHL1   H1A 6035   4.219   1.268   3.087
   66CHL1   H1B 6036   4.055   1.323   3.012
   66CHL1    C2 6037   4.208   1.316   2.865
   66CHL1   H2A 6038   4.174   1.218   2.825
   66CHL1   H2B 6039   4.319   1.323   2.861
   66CHL1   C20 6040   4.159   1.610   3.758
   66CHL1   H20 6041   4.234   1.688   3.735
   66CHL1   C21 6042   4.230   1.479   3.798
   66CHL1  H21A 6043   4.213   1.452   3.905
   66CHL1  H21B 6044   4.340   1.488   3.785
   66CHL1  H21C 6045   4.199   1.392   3.736
   66CHL1   C22 6046   4.062   1.654   3.875
   66CHL1  H22A 6047   4.128   1.673   3.962
   66CHL1  H22B 6048   4.031   1.755   3.842
   66CHL1   C23 6049   3.940   1.566   3.910
   66CHL1  H23A 6050   3.897   1.546   3.809
   66CHL1  H23B 6051   3.975   1.471   3.956
   66CHL1   C24 6052   3.840   1.646   3.996
   66CHL1  H24A 6053   3.797   1.735   3.946
   66CHL1  H24B 6054   3.750   1.581   4.001
   66CHL1   C25 6055   3.889   1.683   4.140
   66CHL1   H25 6056   3.978   1.748   4.130
   66CHL1   C26 6057   3.777   1.748   4.227
   66CHL1  H26A 6058   3.708   1.672   4.268
   66CHL1  H26B 6059   3.826   1.807   4.308
   66CHL1  H26C 6060   3.731   1.835   4.176
   66CHL1   C27 6061   3.959   1.571   4.219
   66CHL1  H27A 6062   4.051   1.541   4.165
   66CHL1  H27B 6063   3.884   1.489   4.225
   66CHL1  H27C 6064   3.996   1.598   4.320
   67CHL1    C3 6065   4.215   6.132   2.837
   67CHL1    H3 6066   4.197   6.235   2.874
   67CHL1    O3 6067   4.207   6.132   2.699
   67CHL1   H3' 6068   4.218   6.041   2.669
   67CHL1    C4 6069   4.362   6.088   2.874
   67CHL1   H4A 6070   4.381   5.994   2.818
   67CHL1   H4B 6071   4.432   6.161   2.828
   67CHL1    C5 6072   4.384   6.066   3.025
   67CHL1    C6 6073   4.482   6.126   3.090
   67CHL1    H6 6074   4.550   6.198   3.042
   67CHL1    C7 6075   4.515   6.103   3.232
   67CHL1   H7A 6076   4.625   6.085   3.228
   67CHL1   H7B 6077   4.504   6.202   3.279
   67CHL1    C8 6078   4.434   5.998   3.308
   67CHL1    H8 6079   4.464   5.893   3.286
   67CHL1   C14 6080   4.419   6.036   3.456
   67CHL1   H14 6081   4.358   6.129   3.456
   67CHL1   C15 6082   4.539   6.061   3.545
   67CHL1  H15A 6083   4.612   5.979   3.528
   67CHL1  H15B 6084   4.582   6.163   3.531
   67CHL1   C16 6085   4.486   6.048   3.689
   67CHL1  H16A 6086   4.550   5.979   3.748
   67CHL1  H16B 6087   4.482   6.142   3.748
   67CHL1   C17 6088   4.343   5.991   3.689
   67CHL1   H17 6089   4.269   6.073   3.692
   67CHL1   C13 6090   4.339   5.934   3.541
   67CHL1   C18 6091   4.409   5.795   3.532
   67CHL1  H18A 6092   4.431   5.761   3.429
   67CHL1  H18B 6093   4.505   5.794   3.588
   67CHL1  H18C 6094   4.335   5.720   3.570
   67CHL1   C12 6095   4.197   5.922   3.476
   67CHL1  H12A 6096   4.124   5.843   3.505
   67CHL1  H12B 6097   4.142   6.017   3.494
   67CHL1   C11 6098   4.205   5.901   3.326
   67CHL1  H11A 6099   4.235   5.795   3.313
   67CHL1  H11B 6100   4.103   5.892   3.282
   67CHL1    C9 6101   4.289   5.994   3.243
   67CHL1    H9 6102   4.252   6.096   3.265
   67CHL1   C10 6103   4.278   5.974   3.089
   67CHL1   C19 6104   4.317   5.827   3.059
   67CHL1  H19A 6105   4.425   5.812   3.078
   67CHL1  H19B 6106   4.259   5.751   3.116
   67CHL1  H19C 6107   4.294   5.803   2.953
   67CHL1    C1 6108   4.138   6.008   3.037
   67CHL1   H1A 6109   4.061   5.941   3.079
   67CHL1   H1B 6110   4.117   6.104   3.089
   67CHL1    C2 6111   4.124   6.026   2.888
   67CHL1   H2A 6112   4.020   6.055   2.862
   67CHL1   H2B 6113   4.136   5.926   2.842
   67CHL1   C20 6114   4.309   5.890   3.800
   67CHL1   H20 6115   4.393   5.817   3.805
   67CHL1   C21 6116   4.171   5.820   3.779
   67CHL1  H21A 6117   4.140   5.758   3.866
   67CHL1  H21B 6118   4.169   5.748   3.695
   67CHL1  H21C 6119   4.099   5.901   3.758
   67CHL1   C22 6120   4.299   5.954   3.939
   67CHL1  H22A 6121   4.340   6.057   3.933
   67CHL1  H22B 6122   4.195   5.977   3.970
   67CHL1   C23 6123   4.346   5.872   4.062
   67CHL1  H23A 6124   4.278   5.910   4.142
   67CHL1  H23B 6125   4.317   5.766   4.050
   67CHL1   C24 6126   4.495   5.869   4.092
   67CHL1  H24A 6127   4.546   5.793   4.029
   67CHL1  H24B 6128   4.543   5.968   4.074
   67CHL1   C25 6129   4.539   5.833   4.239
   67CHL1   H25 6130   4.536   5.723   4.248
   67CHL1   C26 6131   4.682   5.874   4.269
   67CHL1  H26A 6132   4.698   5.982   4.287
   67CHL1  H26B 6133   4.718   5.813   4.354
   67CHL1  H26C 6134   4.748   5.838   4.187
   67CHL1   C27 6135   4.443   5.877   4.353
   67CHL1  H27A 6136   4.489   5.847   4.449
   67CHL1  H27B 6137   4.433   5.988   4.353
   67CHL1  H27C 6138   4.345   5.827   4.334
   68CHL1    C3 6139   2.032   5.218   2.482
   68CHL1    H3 6140   2.033   5.108   2.469
   68CHL1    O3 6141   2.056   5.256   2.344
   68CHL1   H3' 6142   2.061   5.352   2.353
   68CHL1    C4 6143   1.885   5.244   2.526
   68CHL1   H4A 6144   1.855   5.351   2.520
   68CHL1   H4B 6145   1.825   5.186   2.453
   68CHL1    C5 6146   1.862   5.185   2.667
   68CHL1    C6 6147   1.765   5.098   2.688
   68CHL1    H6 6148   1.695   5.071   2.608
   68CHL1    C7 6149   1.722   5.044   2.821
   68CHL1   H7A 6150   1.612   5.042   2.838
   68CHL1   H7B 6151   1.766   4.942   2.822
   68CHL1    C8 6152   1.790   5.127   2.943
   68CHL1    H8 6153   1.749   5.229   2.954
   68CHL1   C14 6154   1.774   5.049   3.070
   68CHL1   H14 6155   1.812   4.946   3.050
   68CHL1   C15 6156   1.630   5.026   3.125
   68CHL1  H15A 6157   1.585   5.127   3.127
   68CHL1  H15B 6158   1.570   4.952   3.068
   68CHL1   C16 6159   1.649   4.994   3.279
   68CHL1  H16A 6160   1.578   5.056   3.337
   68CHL1  H16B 6161   1.615   4.888   3.291
   68CHL1   C17 6162   1.801   5.019   3.304
   68CHL1   H17 6163   1.855   4.923   3.291
   68CHL1   C13 6164   1.852   5.105   3.184
   68CHL1   C18 6165   1.802   5.250   3.212
   68CHL1  H18A 6166   1.871   5.293   3.287
   68CHL1  H18B 6167   1.793   5.310   3.118
   68CHL1  H18C 6168   1.703   5.262   3.260
   68CHL1   C12 6169   2.004   5.103   3.156
   68CHL1  H12A 6170   2.065   5.153   3.234
   68CHL1  H12B 6171   2.034   4.998   3.138
   68CHL1   C11 6172   2.034   5.182   3.029
   68CHL1  H11A 6173   2.013   5.289   3.048
   68CHL1  H11B 6174   2.143   5.187   3.008
   68CHL1    C9 6175   1.948   5.139   2.907
   68CHL1    H9 6176   1.971   5.031   2.891
   68CHL1   C10 6177   1.957   5.221   2.776
   68CHL1   C19 6178   1.929   5.367   2.804
   68CHL1  H19A 6179   1.824   5.385   2.833
   68CHL1  H19B 6180   2.001   5.400   2.882
   68CHL1  H19C 6181   1.937   5.433   2.715
   68CHL1    C1 6182   2.107   5.208   2.715
   68CHL1   H1A 6183   2.173   5.253   2.792
   68CHL1   H1B 6184   2.139   5.101   2.713
   68CHL1    C2 6185   2.143   5.269   2.580
   68CHL1   H2A 6186   2.244   5.238   2.546
   68CHL1   H2B 6187   2.127   5.379   2.587
   68CHL1   C20 6188   1.837   5.075   3.446
   68CHL1   H20 6189   1.774   5.166   3.456
   68CHL1   C21 6190   1.987   5.107   3.471
   68CHL1  H21A 6191   2.023   5.205   3.435
   68CHL1  H21B 6192   2.051   5.022   3.440
   68CHL1  H21C 6193   1.999   5.116   3.581
   68CHL1   C22 6194   1.790   4.979   3.556
   68CHL1  H22A 6195   1.691   4.933   3.537
   68CHL1  H22B 6196   1.849   4.886   3.572
   68CHL1   C23 6197   1.774   5.046   3.692
   68CHL1  H23A 6198   1.868   5.096   3.725
   68CHL1  H23B 6199   1.699   5.126   3.677
   68CHL1   C24 6200   1.741   4.957   3.811
   68CHL1  H24A 6201   1.742   5.006   3.910
   68CHL1  H24B 6202   1.644   4.907   3.788
   68CHL1   C25 6203   1.833   4.832   3.825
   68CHL1   H25 6204   1.816   4.774   3.731
   68CHL1   C26 6205   1.983   4.878   3.829
   68CHL1  H26A 6206   1.976   4.981   3.870
   68CHL1  H26B 6207   2.051   4.816   3.891
   68CHL1  H26C 6208   2.027   4.884   3.727
   68CHL1   C27 6209   1.803   4.746   3.951
   68CHL1  H27A 6210   1.869   4.657   3.948
   68CHL1  H27B 6211   1.825   4.794   4.049
   68CHL1  H27C 6212   1.697   4.713   3.938
   69CHL1    C3 6213   0.994   2.664   2.826
   69CHL1    H3 6214   1.100   2.641   2.849
   69CHL1    O3 6215   0.968   2.675   2.689
   69CHL1   H3' 6216   0.875   2.697   2.681
   69CHL1    C4 6217   0.897   2.555   2.879
   69CHL1   H4A 6218   0.790   2.571   2.853
   69CHL1   H4B 6219   0.919   2.462   2.822
   69CHL1    C5 6220   0.907   2.543   3.028
   69CHL1    C6 6221   0.932   2.424   3.084
   69CHL1    H6 6222   0.936   2.331   3.025
   69CHL1    C7 6223   0.931   2.402   3.229
   69CHL1   H7A 6224   0.898   2.300   3.256
   69CHL1   H7B 6225   1.039   2.386   3.251
   69CHL1    C8 6226   0.885   2.523   3.321
   69CHL1    H8 6227   0.774   2.529   3.329
   69CHL1   C14 6228   0.925   2.498   3.466
   69CHL1   H14 6229   1.034   2.479   3.463
   69CHL1   C15 6230   0.882   2.375   3.544
   69CHL1  H15A 6231   0.773   2.357   3.541
   69CHL1  H15B 6232   0.928   2.281   3.508
   69CHL1   C16 6233   0.926   2.405   3.682
   69CHL1  H16A 6234   0.862   2.357   3.760
   69CHL1  H16B 6235   1.025   2.354   3.680
   69CHL1   C17 6236   0.944   2.559   3.696
   69CHL1   H17 6237   1.054   2.571   3.703
   69CHL1   C13 6238   0.898   2.617   3.559
   69CHL1   C18 6239   0.750   2.642   3.564
   69CHL1  H18A 6240   0.733   2.738   3.617
   69CHL1  H18B 6241   0.712   2.655   3.460
   69CHL1  H18C 6242   0.689   2.560   3.608
   69CHL1   C12 6243   0.978   2.742   3.502
   69CHL1  H12A 6244   0.988   2.833   3.565
   69CHL1  H12B 6245   1.088   2.725   3.495
   69CHL1   C11 6246   0.925   2.778   3.355
   69CHL1  H11A 6247   0.818   2.804   3.368
   69CHL1  H11B 6248   0.980   2.866   3.317
   69CHL1    C9 6249   0.937   2.652   3.258
   69CHL1    H9 6250   1.046   2.631   3.255
   69CHL1   C10 6251   0.885   2.674   3.108
   69CHL1   C19 6252   0.736   2.701   3.109
   69CHL1  H19A 6253   0.692   2.682   3.008
   69CHL1  H19B 6254   0.685   2.630   3.177
   69CHL1  H19C 6255   0.698   2.803   3.130
   69CHL1    C1 6256   0.971   2.787   3.044
   69CHL1   H1A 6257   0.939   2.882   3.092
   69CHL1   H1B 6258   1.076   2.778   3.079
   69CHL1    C2 6259   0.963   2.794   2.886
   69CHL1   H2A 6260   1.015   2.876   2.832
   69CHL1   H2B 6261   0.853   2.811   2.877
   69CHL1   C20 6262   0.890   2.611   3.836
   69CHL1   H20 6263   0.780   2.593   3.836
   69CHL1   C21 6264   0.894   2.768   3.845
   69CHL1  H21A 6265   0.832   2.809   3.928
   69CHL1  H21B 6266   0.853   2.813   3.753
   69CHL1  H21C 6267   1.001   2.798   3.844
   69CHL1   C22 6268   0.966   2.554   3.962
   69CHL1  H22A 6269   0.985   2.445   3.950
   69CHL1  H22B 6270   1.065   2.603   3.963
   69CHL1   C23 6271   0.878   2.547   4.090
   69CHL1  H23A 6272   0.857   2.641   4.145
   69CHL1  H23B 6273   0.781   2.499   4.066
   69CHL1   C24 6274   0.947   2.461   4.198
   69CHL1  H24A 6275   0.950   2.360   4.152
   69CHL1  H24B 6276   1.048   2.506   4.213
   69CHL1   C25 6277   0.872   2.435   4.328
   69CHL1   H25 6278   0.930   2.368   4.396
   69CHL1   C26 6279   0.847   2.565   4.409
   69CHL1  H26A 6280   0.945   2.597   4.451
   69CHL1  H26B 6281   0.798   2.644   4.349
   69CHL1  H26C 6282   0.784   2.542   4.498
   69CHL1   C27 6283   0.736   2.366   4.299
   69CHL1  H27A 6284   0.738   2.276   4.234
   69CHL1  H27B 6285   0.694   2.328   4.394
   69CHL1  H27C 6286   0.669   2.444   4.256
   70CHL1    C3 6287   2.442   0.127   2.834
   70CHL1    H3 6288   2.469   0.021   2.852
   70CHL1    O3 6289   2.412   0.139   2.699
   70CHL1   H3' 6290   2.497   0.137   2.655
   70CHL1    C4 6291   2.322   0.160   2.927
   70CHL1   H4A 6292   2.275   0.255   2.894
   70CHL1   H4B 6293   2.243   0.085   2.906
   70CHL1    C5 6294   2.366   0.150   3.074
   70CHL1    C6 6295   2.300   0.080   3.169
   70CHL1    H6 6296   2.212   0.019   3.142
   70CHL1    C7 6297   2.315   0.077   3.312
   70CHL1   H7A 6298   2.217   0.100   3.358
   70CHL1   H7B 6299   2.344   6.787   3.334
   70CHL1    C8 6300   2.426   0.184   3.354
   70CHL1    H8 6301   2.378   0.284   3.349
   70CHL1   C14 6302   2.484   0.143   3.484
   70CHL1   H14 6303   2.550   0.054   3.474
   70CHL1   C15 6304   2.387   0.105   3.599
   70CHL1  H15A 6305   2.305   0.179   3.587
   70CHL1  H15B 6306   2.344   0.002   3.591
   70CHL1   C16 6307   2.472   0.123   3.727
   70CHL1  H16A 6308   2.420   0.192   3.796
   70CHL1  H16B 6309   2.470   0.026   3.782
   70CHL1   C17 6310   2.607   0.184   3.682
   70CHL1   H17 6311   2.679   0.101   3.665
   70CHL1   C13 6312   2.581   0.243   3.545
   70CHL1   C18 6313   2.505   0.380   3.563
   70CHL1  H18A 6314   2.417   0.369   3.630
   70CHL1  H18B 6315   2.575   0.459   3.598
   70CHL1  H18C 6316   2.464   0.420   3.468
   70CHL1   C12 6317   2.695   0.247   3.442
   70CHL1  H12A 6318   2.765   0.326   3.478
   70CHL1  H12B 6319   2.752   0.152   3.446
   70CHL1   C11 6320   2.651   0.280   3.299
   70CHL1  H11A 6321   2.623   0.387   3.308
   70CHL1  H11B 6322   2.741   0.269   3.235
   70CHL1    C9 6323   2.533   0.191   3.246
   70CHL1    H9 6324   2.572   0.087   3.235
   70CHL1   C10 6325   2.484   0.236   3.108
   70CHL1   C19 6326   2.445   0.388   3.104
   70CHL1  H19A 6327   2.409   0.408   3.001
   70CHL1  H19B 6328   2.364   0.409   3.177
   70CHL1  H19C 6329   2.529   0.457   3.127
   70CHL1    C1 6330   2.609   0.207   3.011
   70CHL1   H1A 6331   2.690   0.281   3.026
   70CHL1   H1B 6332   2.643   0.105   3.039
   70CHL1    C2 6333   2.565   0.212   2.864
   70CHL1   H2A 6334   2.654   0.182   2.803
   70CHL1   H2B 6335   2.547   0.319   2.840
   70CHL1   C20 6336   2.668   0.278   3.794
   70CHL1   H20 6337   2.598   0.364   3.795
   70CHL1   C21 6338   2.804   0.336   3.744
   70CHL1  H21A 6339   2.858   0.391   3.824
   70CHL1  H21B 6340   2.779   0.415   3.669
   70CHL1  H21C 6341   2.865   0.256   3.698
   70CHL1   C22 6342   2.675   0.207   3.931
   70CHL1  H22A 6343   2.574   0.164   3.949
   70CHL1  H22B 6344   2.745   0.121   3.938
   70CHL1   C23 6345   2.696   0.302   4.052
   70CHL1  H23A 6346   2.805   0.324   4.058
   70CHL1  H23B 6347   2.636   0.395   4.041
   70CHL1   C24 6348   2.656   0.237   4.181
   70CHL1  H24A 6349   2.550   0.205   4.181
   70CHL1  H24B 6350   2.712   0.144   4.207
   70CHL1   C25 6351   2.675   0.339   4.300
   70CHL1   H25 6352   2.767   0.398   4.282
   70CHL1   C26 6353   2.546   0.418   4.299
   70CHL1  H26A 6354   2.544   0.485   4.387
   70CHL1  H26B 6355   2.523   0.478   4.208
   70CHL1  H26C 6356   2.463   0.343   4.300
   70CHL1   C27 6357   2.702   0.260   4.430
   70CHL1  H27A 6358   2.744   0.324   4.511
   70CHL1  H27B 6359   2.608   0.209   4.461
   70CHL1  H27C 6360   2.784   0.188   4.413
   71CHL1    C3 6361   6.059   5.811   2.781
   71CHL1    H3 6362   5.969   5.849   2.833
   71CHL1    O3 6363   6.019   5.797   2.649
   71CHL1   H3' 6364   5.939   5.848   2.636
   71CHL1    C4 6365   6.176   5.915   2.803
   71CHL1   H4A 6366   6.270   5.884   2.752
   71CHL1   H4B 6367   6.141   6.010   2.758
   71CHL1    C5 6368   6.185   5.929   2.955
   71CHL1    C6 6369   6.169   6.048   3.008
   71CHL1    H6 6370   6.150   6.132   2.941
   71CHL1    C7 6371   6.164   6.074   3.155
   71CHL1   H7A 6372   6.210   6.174   3.171
   71CHL1   H7B 6373   6.060   6.086   3.191
   71CHL1    C8 6374   6.225   5.964   3.245
   71CHL1    H8 6375   6.336   5.977   3.244
   71CHL1   C14 6376   6.183   5.976   3.387
   71CHL1   H14 6377   6.073   5.964   3.388
   71CHL1   C15 6378   6.207   6.112   3.457
   71CHL1  H15A 6379   6.311   6.144   3.434
   71CHL1  H15B 6380   6.135   6.187   3.418
   71CHL1   C16 6381   6.219   6.082   3.608
   71CHL1  H16A 6382   6.315   6.111   3.656
   71CHL1  H16B 6383   6.145   6.135   3.672
   71CHL1   C17 6384   6.204   5.923   3.614
   71CHL1   H17 6385   6.096   5.898   3.608
   71CHL1   C13 6386   6.250   5.871   3.478
   71CHL1   C18 6387   6.402   5.879   3.488
   71CHL1  H18A 6388   6.440   5.871   3.384
   71CHL1  H18B 6389   6.450   5.971   3.527
   71CHL1  H18C 6390   6.446   5.793   3.543
   71CHL1   C12 6391   6.220   5.726   3.426
   71CHL1  H12A 6392   6.286   5.649   3.471
   71CHL1  H12B 6393   6.114   5.701   3.445
   71CHL1   C11 6394   6.254   5.709   3.276
   71CHL1  H11A 6395   6.364   5.699   3.265
   71CHL1  H11B 6396   6.224   5.607   3.244
   71CHL1    C9 6397   6.194   5.817   3.193
   71CHL1    H9 6398   6.084   5.814   3.210
   71CHL1   C10 6399   6.213   5.798   3.041
   71CHL1   C19 6400   6.360   5.753   2.999
   71CHL1  H19A 6401   6.374   5.758   2.889
   71CHL1  H19B 6402   6.433   5.823   3.044
   71CHL1  H19C 6403   6.385   5.652   3.038
   71CHL1    C1 6404   6.116   5.682   2.989
   71CHL1   H1A 6405   6.165   5.584   3.009
   71CHL1   H1B 6406   6.026   5.676   3.055
   71CHL1    C2 6407   6.094   5.673   2.846
   71CHL1   H2A 6408   6.014   5.596   2.843
   71CHL1   H2B 6409   6.185   5.634   2.795
   71CHL1   C20 6410   6.255   5.865   3.748
   71CHL1   H20 6411   6.360   5.896   3.764
   71CHL1   C21 6412   6.254   5.711   3.746
   71CHL1  H21A 6413   6.337   5.674   3.682
   71CHL1  H21B 6414   6.150   5.678   3.728
   71CHL1  H21C 6415   6.288   5.671   3.844
   71CHL1   C22 6416   6.176   5.923   3.868
   71CHL1  H22A 6417   6.184   6.034   3.867
   71CHL1  H22B 6418   6.073   5.885   3.882
   71CHL1   C23 6419   6.231   5.876   4.004
   71CHL1  H23A 6420   6.214   5.766   4.007
   71CHL1  H23B 6421   6.341   5.892   4.010
   71CHL1   C24 6422   6.164   5.946   4.116
   71CHL1  H24A 6423   6.171   6.056   4.108
   71CHL1  H24B 6424   6.056   5.918   4.114
   71CHL1   C25 6425   6.224   5.916   4.257
   71CHL1   H25 6426   6.333   5.937   4.252
   71CHL1   C26 6427   6.166   6.017   4.358
   71CHL1  H26A 6428   6.203   6.003   4.462
   71CHL1  H26B 6429   6.190   6.121   4.327
   71CHL1  H26C 6430   6.055   6.013   4.362
   71CHL1   C27 6431   6.207   5.769   4.307
   71CHL1  H27A 6432   6.242   5.701   4.227
   71CHL1  H27B 6433   6.271   5.748   4.396
   71CHL1  H27C 6434   6.109   5.743   4.352
   72CHL1    C3 6435   6.622   4.255   2.961
   72CHL1    H3 6436   6.647   4.363   2.955
   72CHL1    O3 6437   6.638   4.188   2.842
   72CHL1   H3' 6438   6.613   4.097   2.860
   72CHL1    C4 6439   6.715   4.182   3.063
   72CHL1   H4A 6440   6.690   4.074   3.061
   72CHL1   H4B 6441   0.009   4.177   3.040
   72CHL1    C5 6442   6.690   4.231   3.200
   72CHL1    C6 6443   6.788   4.281   3.280
   72CHL1    H6 6444   0.078   4.283   3.248
   72CHL1    C7 6445   6.768   4.318   3.425
   72CHL1   H7A 6446   0.032   4.289   3.498
   72CHL1   H7B 6447   6.762   4.428   3.434
   72CHL1    C8 6448   6.636   4.273   3.487
   72CHL1    H8 6449   6.639   4.163   3.506
   72CHL1   C14 6450   6.612   4.351   3.621
   72CHL1   H14 6451   6.603   4.460   3.604
   72CHL1   C15 6452   6.723   4.330   3.722
   72CHL1  H15A 6453   6.757   4.224   3.721
   72CHL1  H15B 6454   0.002   4.386   3.704
   72CHL1   C16 6455   6.646   4.377   3.856
   72CHL1  H16A 6456   6.681   4.300   3.928
   72CHL1  H16B 6457   6.675   4.481   3.884
   72CHL1   C17 6458   6.490   4.374   3.828
   72CHL1   H17 6459   6.466   4.480   3.806
   72CHL1   C13 6460   6.484   4.307   3.692
   72CHL1   C18 6461   6.484   4.161   3.716
   72CHL1  H18A 6462   6.392   4.134   3.772
   72CHL1  H18B 6463   6.482   4.109   3.617
   72CHL1  H18C 6464   6.568   4.123   3.778
   72CHL1   C12 6465   6.376   4.353   3.595
   72CHL1  H12A 6466   6.274   4.346   3.639
   72CHL1  H12B 6467   6.376   4.461   3.569
   72CHL1   C11 6468   6.380   4.278   3.458
   72CHL1  H11A 6469   6.351   4.171   3.466
   72CHL1  H11B 6470   6.297   4.327   3.403
   72CHL1    C9 6471   6.521   4.294   3.387
   72CHL1    H9 6472   6.536   4.399   3.352
   72CHL1   C10 6473   6.541   4.214   3.258
   72CHL1   C19 6474   6.512   4.065   3.271
   72CHL1  H19A 6475   6.521   4.019   3.170
   72CHL1  H19B 6476   6.579   4.019   3.346
   72CHL1  H19C 6477   6.411   4.039   3.309
   72CHL1    C1 6478   6.451   4.281   3.148
   72CHL1   H1A 6479   6.346   4.269   3.181
   72CHL1   H1B 6480   6.470   4.391   3.153
   72CHL1    C2 6481   6.475   4.236   3.004
   72CHL1   H2A 6482   6.406   4.279   2.928
   72CHL1   H2B 6483   6.464   4.125   3.009
   72CHL1   C20 6484   6.400   4.335   3.942
   72CHL1   H20 6485   6.399   4.227   3.968
   72CHL1   C21 6486   6.255   4.366   3.901
   72CHL1  H21A 6487   6.231   4.303   3.813
   72CHL1  H21B 6488   6.252   4.466   3.853
   72CHL1  H21C 6489   6.178   4.338   3.977
   72CHL1   C22 6490   6.438   4.421   4.061
   72CHL1  H22A 6491   6.545   4.405   4.088
   72CHL1  H22B 6492   6.411   4.528   4.047
   72CHL1   C23 6493   6.353   4.384   4.195
   72CHL1  H23A 6494   6.254   4.430   4.176
   72CHL1  H23B 6495   6.339   4.277   4.219
   72CHL1   C24 6496   6.413   4.460   4.314
   72CHL1  H24A 6497   6.512   4.415   4.339
   72CHL1  H24B 6498   6.437   4.565   4.285
   72CHL1   C25 6499   6.318   4.466   4.429
   72CHL1   H25 6500   6.224   4.500   4.380
   72CHL1   C26 6501   6.287   4.320   4.491
   72CHL1  H26A 6502   6.238   4.259   4.412
   72CHL1  H26B 6503   6.378   4.273   4.535
   72CHL1  H26C 6504   6.220   4.341   4.577
   72CHL1   C27 6505   6.352   4.565   4.539
   72CHL1  H27A 6506   6.283   4.557   4.625
   72CHL1  H27B 6507   6.456   4.544   4.572
   72CHL1  H27C 6508   6.345   4.670   4.502
   73CHL1    C3 6509   0.990   5.472   2.540
   73CHL1    H3 6510   1.096   5.450   2.514
   73CHL1    O3 6511   0.921   5.500   2.418
   73CHL1   H3' 6512   0.843   5.445   2.424
   73CHL1    C4 6513   0.934   5.340   2.594
   73CHL1   H4A 6514   0.824   5.355   2.599
   73CHL1   H4B 6515   0.956   5.262   2.518
   73CHL1    C5 6516   0.985   5.302   2.730
   73CHL1    C6 6517   1.053   5.182   2.749
   73CHL1    H6 6518   1.066   5.118   2.661
   73CHL1    C7 6519   1.124   5.145   2.879
   73CHL1   H7A 6520   1.109   5.036   2.895
   73CHL1   H7B 6521   1.233   5.164   2.870
   73CHL1    C8 6522   1.067   5.235   2.999
   73CHL1    H8 6523   0.965   5.199   3.024
   73CHL1   C14 6524   1.160   5.218   3.120
   73CHL1   H14 6525   1.259   5.254   3.084
   73CHL1   C15 6526   1.187   5.072   3.167
   73CHL1  H15A 6527   1.087   5.025   3.179
   73CHL1  H15B 6528   1.253   5.012   3.101
   73CHL1   C16 6529   1.236   5.098   3.310
   73CHL1  H16A 6530   1.177   5.025   3.370
   73CHL1  H16B 6531   1.342   5.065   3.311
   73CHL1   C17 6532   1.232   5.247   3.349
   73CHL1   H17 6533   1.332   5.290   3.328
   73CHL1   C13 6534   1.125   5.301   3.242
   73CHL1   C18 6535   0.987   5.270   3.298
   73CHL1  H18A 6536   0.947   5.345   3.369
   73CHL1  H18B 6537   0.915   5.275   3.213
   73CHL1  H18C 6538   0.963   5.169   3.335
   73CHL1   C12 6539   1.153   5.445   3.191
   73CHL1  H12A 6540   1.132   5.510   3.279
   73CHL1  H12B 6541   1.259   5.451   3.157
   73CHL1   C11 6542   1.061   5.490   3.076
   73CHL1  H11A 6543   0.956   5.487   3.114
   73CHL1  H11B 6544   1.096   5.589   3.040
   73CHL1    C9 6545   1.067   5.382   2.956
   73CHL1    H9 6546   1.172   5.400   2.927
   73CHL1   C10 6547   0.974   5.418   2.836
   73CHL1   C19 6548   0.827   5.423   2.876
   73CHL1  H19A 6549   0.797   5.349   2.953
   73CHL1  H19B 6550   0.810   5.510   2.942
   73CHL1  H19C 6551   0.753   5.432   2.793
   73CHL1    C1 6552   1.028   5.557   2.779
   73CHL1   H1A 6553   1.006   5.641   2.848
   73CHL1   H1B 6554   1.138   5.550   2.773
   73CHL1    C2 6555   0.968   5.579   2.635
   73CHL1   H2A 6556   1.011   5.675   2.599
   73CHL1   H2B 6557   0.858   5.590   2.648
   73CHL1   C20 6558   1.198   5.255   3.497
   73CHL1   H20 6559   1.098   5.212   3.520
   73CHL1   C21 6560   1.198   5.402   3.553
   73CHL1  H21A 6561   1.142   5.409   3.649
   73CHL1  H21B 6562   1.144   5.466   3.480
   73CHL1  H21C 6563   1.304   5.431   3.568
   73CHL1   C22 6564   1.303   5.178   3.582
   73CHL1  H22A 6565   1.290   5.072   3.552
   73CHL1  H22B 6566   1.404   5.210   3.548
   73CHL1   C23 6567   1.297   5.191   3.734
   73CHL1  H23A 6568   1.263   5.290   3.772
   73CHL1  H23B 6569   1.217   5.118   3.753
   73CHL1   C24 6570   1.413   5.158   3.818
   73CHL1  H24A 6571   1.437   5.051   3.834
   73CHL1  H24B 6572   1.505   5.200   3.771
   73CHL1   C25 6573   1.412   5.216   3.957
   73CHL1   H25 6574   1.392   5.326   3.951
   73CHL1   C26 6575   1.296   5.148   4.040
   73CHL1  H26A 6576   1.310   5.039   4.054
   73CHL1  H26B 6577   1.299   5.193   4.142
   73CHL1  H26C 6578   1.201   5.168   3.986
   73CHL1   C27 6579   1.544   5.191   4.032
   73CHL1  H27A 6580   1.550   5.086   4.068
   73CHL1  H27B 6581   1.630   5.207   3.963
   73CHL1  H27C 6582   1.557   5.262   4.116
   74CHL1    C3 6583   0.895   4.422   2.748
   74CHL1    H3 6584   0.805   4.476   2.711
   74CHL1    O3 6585   0.965   4.369   2.641
   74CHL1   H3' 6586   0.941   4.277   2.625
   74CHL1    C4 6587   0.974   4.538   2.803
   74CHL1   H4A 6588   1.077   4.500   2.820
   74CHL1   H4B 6589   0.989   4.623   2.732
   74CHL1    C5 6590   0.928   4.600   2.935
   74CHL1    C6 6591   0.905   4.737   2.938
   74CHL1    H6 6592   0.949   4.804   2.863
   74CHL1    C7 6593   0.849   4.802   3.055
   74CHL1   H7A 6594   0.897   4.899   3.079
   74CHL1   H7B 6595   0.739   4.817   3.046
   74CHL1    C8 6596   0.856   4.710   3.183
   74CHL1    H8 6597   0.963   4.699   3.209
   74CHL1   C14 6598   0.780   4.782   3.292
   74CHL1   H14 6599   0.672   4.776   3.267
   74CHL1   C15 6600   0.791   4.928   3.324
   74CHL1  H15A 6601   0.902   4.937   3.333
   74CHL1  H15B 6602   0.762   5.005   3.249
   74CHL1   C16 6603   0.722   4.938   3.457
   74CHL1  H16A 6604   0.781   4.999   3.530
   74CHL1  H16B 6605   0.619   4.978   3.451
   74CHL1   C17 6606   0.718   4.799   3.530
   74CHL1   H17 6607   0.612   4.768   3.528
   74CHL1   C13 6608   0.783   4.699   3.425
   74CHL1   C18 6609   0.930   4.658   3.472
   74CHL1  H18A 6610   1.002   4.742   3.488
   74CHL1  H18B 6611   0.938   4.588   3.557
   74CHL1  H18C 6612   0.975   4.597   3.391
   74CHL1   C12 6613   0.707   4.568   3.398
   74CHL1  H12A 6614   0.689   4.502   3.486
   74CHL1  H12B 6615   0.604   4.598   3.370
   74CHL1   C11 6616   0.763   4.490   3.280
   74CHL1  H11A 6617   0.848   4.434   3.324
   74CHL1  H11B 6618   0.684   4.417   3.250
   74CHL1    C9 6619   0.794   4.576   3.150
   74CHL1    H9 6620   0.697   4.605   3.104
   74CHL1   C10 6621   0.887   4.501   3.046
   74CHL1   C19 6622   1.021   4.453   3.118
   74CHL1  H19A 6623   1.076   4.392   3.044
   74CHL1  H19B 6624   1.070   4.541   3.164
   74CHL1  H19C 6625   0.995   4.381   3.198
   74CHL1    C1 6626   0.802   4.382   2.982
   74CHL1   H1A 6627   0.785   4.301   3.056
   74CHL1   H1B 6628   0.704   4.423   2.949
   74CHL1    C2 6629   0.854   4.318   2.850
   74CHL1   H2A 6630   0.783   4.241   2.813
   74CHL1   H2B 6631   0.951   4.270   2.877
   74CHL1   C20 6632   0.763   4.784   3.671
   74CHL1   H20 6633   0.874   4.780   3.666
   74CHL1   C21 6634   0.698   4.662   3.746
   74CHL1  H21A 6635   0.588   4.673   3.750
   74CHL1  H21B 6636   0.731   4.661   3.852
   74CHL1  H21C 6637   0.736   4.569   3.699
   74CHL1   C22 6638   0.742   4.908   3.761
   74CHL1  H22A 6639   0.799   4.996   3.724
   74CHL1  H22B 6640   0.634   4.934   3.762
   74CHL1   C23 6641   0.782   4.900   3.910
   74CHL1  H23A 6642   0.719   4.827   3.966
   74CHL1  H23B 6643   0.886   4.861   3.918
   74CHL1   C24 6644   0.783   5.043   3.972
   74CHL1  H24A 6645   0.843   5.118   3.917
   74CHL1  H24B 6646   0.680   5.084   3.963
   74CHL1   C25 6647   0.823   5.035   4.120
   74CHL1   H25 6648   0.752   4.976   4.181
   74CHL1   C26 6649   0.965   4.975   4.147
   74CHL1  H26A 6650   0.973   4.927   4.247
   74CHL1  H26B 6651   0.996   4.894   4.078
   74CHL1  H26C 6652   1.045   5.051   4.139
   74CHL1   C27 6653   0.815   5.175   4.185
   74CHL1  H27A 6654   0.715   5.206   4.223
   74CHL1  H27B 6655   0.895   5.193   4.260
   74CHL1  H27C 6656   0.846   5.247   4.106
   75CHL1    C3 6657   1.137   3.286   3.025
   75CHL1    H3 6658   1.032   3.252   3.009
   75CHL1    O3 6659   1.206   3.295   2.907
   75CHL1   H3' 6660   1.248   3.382   2.912
   75CHL1    C4 6661   1.139   3.414   3.104
   75CHL1   H4A 6662   1.246   3.439   3.120
   75CHL1   H4B 6663   1.095   3.496   3.043
   75CHL1    C5 6664   1.068   3.395   3.240
   75CHL1    C6 6665   0.964   3.474   3.276
   75CHL1    H6 6666   0.923   3.549   3.207
   75CHL1    C7 6667   0.904   3.471   3.411
   75CHL1   H7A 6668   0.887   3.576   3.442
   75CHL1   H7B 6669   0.804   3.421   3.406
   75CHL1    C8 6670   0.986   3.397   3.520
   75CHL1    H8 6671   1.065   3.467   3.554
   75CHL1   C14 6672   0.898   3.346   3.633
   75CHL1   H14 6673   0.831   3.277   3.576
   75CHL1   C15 6674   0.804   3.450   3.702
   75CHL1  H15A 6675   0.853   3.548   3.721
   75CHL1  H15B 6676   0.706   3.467   3.652
   75CHL1   C16 6677   0.775   3.391   3.843
   75CHL1  H16A 6678   0.792   3.454   3.933
   75CHL1  H16B 6679   0.666   3.371   3.852
   75CHL1   C17 6680   0.851   3.256   3.855
   75CHL1   H17 6681   0.800   3.170   3.805
   75CHL1   C13 6682   0.971   3.276   3.750
   75CHL1   C18 6683   1.069   3.373   3.810
   75CHL1  H18A 6684   1.030   3.428   3.899
   75CHL1  H18B 6685   1.150   3.313   3.857
   75CHL1  H18C 6686   1.108   3.452   3.743
   75CHL1   C12 6687   1.032   3.152   3.683
   75CHL1  H12A 6688   1.095   3.093   3.753
   75CHL1  H12B 6689   0.947   3.093   3.643
   75CHL1   C11 6690   1.128   3.184   3.564
   75CHL1  H11A 6691   1.210   3.245   3.607
   75CHL1  H11B 6692   1.172   3.093   3.517
   75CHL1    C9 6693   1.053   3.271   3.459
   75CHL1    H9 6694   0.972   3.206   3.420
   75CHL1   C10 6695   1.130   3.287   3.325
   75CHL1   C19 6696   1.270   3.339   3.373
   75CHL1  H19A 6697   1.274   3.408   3.460
   75CHL1  H19B 6698   1.327   3.250   3.407
   75CHL1  H19C 6699   1.330   3.383   3.291
   75CHL1    C1 6700   1.138   3.152   3.246
   75CHL1   H1A 6701   1.207   3.084   3.302
   75CHL1   H1B 6702   1.035   3.111   3.235
   75CHL1    C2 6703   1.201   3.174   3.102
   75CHL1   H2A 6704   1.199   3.072   3.057
   75CHL1   H2B 6705   1.303   3.208   3.128
   75CHL1   C20 6706   0.872   3.217   4.002
   75CHL1   H20 6707   0.917   3.299   4.062
   75CHL1   C21 6708   0.957   3.093   4.011
   75CHL1  H21A 6709   1.059   3.121   3.977
   75CHL1  H21B 6710   0.912   3.003   3.965
   75CHL1  H21C 6711   0.972   3.070   4.118
   75CHL1   C22 6712   0.733   3.197   4.070
   75CHL1  H22A 6713   0.697   3.298   4.098
   75CHL1  H22B 6714   0.665   3.142   4.002
   75CHL1   C23 6715   0.726   3.104   4.194
   75CHL1  H23A 6716   0.738   2.996   4.171
   75CHL1  H23B 6717   0.810   3.117   4.265
   75CHL1   C24 6718   0.592   3.122   4.254
   75CHL1  H24A 6719   0.582   3.224   4.297
   75CHL1  H24B 6720   0.519   3.114   4.171
   75CHL1   C25 6721   0.555   3.020   4.369
   75CHL1   H25 6722   0.636   3.031   4.443
   75CHL1   C26 6723   0.426   3.071   4.432
   75CHL1  H26A 6724   0.432   3.172   4.476
   75CHL1  H26B 6725   0.337   3.058   4.367
   75CHL1  H26C 6726   0.399   3.005   4.517
   75CHL1   C27 6727   0.545   2.878   4.314
   75CHL1  H27A 6728   0.518   2.809   4.397
   75CHL1  H27B 6729   0.460   2.859   4.245
   75CHL1  H27C 6730   0.647   2.851   4.282
   76CHL1    C3 6731   6.299   4.786   3.188
   76CHL1    H3 6732   6.392   4.772   3.247
   76CHL1    O3 6733   6.331   4.767   3.051
   76CHL1   H3' 6734   6.242   4.766   3.013
   76CHL1    C4 6735   6.192   4.684   3.240
   76CHL1   H4A 6736   6.102   4.704   3.177
   76CHL1   H4B 6737   6.213   4.578   3.217
   76CHL1    C5 6738   6.147   4.710   3.381
   76CHL1    C6 6739   6.156   4.607   3.464
   76CHL1    H6 6740   6.195   4.509   3.433
   76CHL1    C7 6741   6.112   4.623   3.604
   76CHL1   H7A 6742   6.064   4.527   3.632
   76CHL1   H7B 6743   6.197   4.629   3.675
   76CHL1    C8 6744   6.026   4.753   3.632
   76CHL1    H8 6745   5.923   4.740   3.594
   76CHL1   C14 6746   6.020   4.779   3.785
   76CHL1   H14 6747   6.121   4.788   3.829
   76CHL1   C15 6748   5.954   4.675   3.883
   76CHL1  H15A 6749   5.856   4.642   3.841
   76CHL1  H15B 6750   6.019   4.587   3.904
   76CHL1   C16 6751   5.921   4.751   4.016
   76CHL1  H16A 6752   5.817   4.744   4.055
   76CHL1  H16B 6753   5.980   4.712   4.101
   76CHL1   C17 6754   5.947   4.904   3.975
   76CHL1   H17 6755   6.056   4.902   3.996
   76CHL1   C13 6756   5.945   4.912   3.821
   76CHL1   C18 6757   5.804   4.916   3.761
   76CHL1  H18A 6758   5.804   4.930   3.651
   76CHL1  H18B 6759   5.750   4.822   3.785
   76CHL1  H18C 6760   5.744   5.001   3.801
   76CHL1   C12 6761   6.025   5.027   3.771
   76CHL1  H12A 6762   5.986   5.129   3.789
   76CHL1  H12B 6763   6.129   5.028   3.811
   76CHL1   C11 6764   6.050   5.007   3.617
   76CHL1  H11A 6765   5.951   5.022   3.568
   76CHL1  H11B 6766   6.117   5.085   3.575
   76CHL1    C9 6767   6.100   4.872   3.570
   76CHL1    H9 6768   6.202   4.868   3.613
   76CHL1   C10 6769   6.110   4.852   3.421
   76CHL1   C19 6770   5.975   4.887   3.356
   76CHL1  H19A 6771   5.979   4.879   3.246
   76CHL1  H19B 6772   5.889   4.828   3.394
   76CHL1  H19C 6773   5.946   4.993   3.372
   76CHL1    C1 6774   6.223   4.945   3.365
   76CHL1   H1A 6775   6.189   5.050   3.373
   76CHL1   H1B 6776   6.311   4.925   3.430
   76CHL1    C2 6777   6.255   4.929   3.213
   76CHL1   H2A 6778   6.329   5.004   3.178
   76CHL1   H2B 6779   6.161   4.933   3.153
   76CHL1   C20 6780   5.873   5.012   4.053
   76CHL1   H20 6781   5.867   5.104   3.990
   76CHL1   C21 6782   5.956   5.057   4.174
   76CHL1  H21A 6783   5.966   4.969   4.242
   76CHL1  H21B 6784   5.907   5.144   4.223
   76CHL1  H21C 6785   6.058   5.091   4.148
   76CHL1   C22 6786   5.733   4.975   4.085
   76CHL1  H22A 6787   5.679   4.945   3.993
   76CHL1  H22B 6788   5.725   4.897   4.164
   76CHL1   C23 6789   5.651   5.095   4.127
   76CHL1  H23A 6790   5.681   5.135   4.226
   76CHL1  H23B 6791   5.669   5.174   4.051
   76CHL1   C24 6792   5.500   5.068   4.148
   76CHL1  H24A 6793   5.436   5.056   4.059
   76CHL1  H24B 6794   5.496   4.986   4.223
   76CHL1   C25 6795   5.419   5.183   4.218
   76CHL1   H25 6796   5.473   5.219   4.308
   76CHL1   C26 6797   5.402   5.305   4.130
   76CHL1  H26A 6798   5.334   5.278   4.046
   76CHL1  H26B 6799   5.359   5.394   4.179
   76CHL1  H26C 6800   5.503   5.338   4.096
   76CHL1   C27 6801   5.280   5.136   4.259
   76CHL1  H27A 6802   5.237   5.227   4.305
   76CHL1  H27B 6803   5.216   5.116   4.170
   76CHL1  H27C 6804   5.292   5.049   4.327
   77SOPE     N 6805   3.850   3.682   6.896
   77SOPE   HN1 6806   3.885   3.747   6.969
   77SOPE   HN2 6807   3.922   3.661   6.824
   77SOPE   HN3 6808   3.761   3.717   6.855
   77SOPE   C12 6809   3.826   3.545   6.951
   77SOPE  H12A 6810   3.737   3.558   7.016
   77SOPE  H12B 6811   3.917   3.514   7.007
   77SOPE   C11 6812   3.808   3.447   6.831
   77SOPE  H11A 6813   3.712   3.468   6.779
   77SOPE  H11B 6814   3.799   3.346   6.876
   77SOPE     P 6815   3.959   3.317   6.655
   77SOPE   O13 6816   3.985   3.197   6.737
   77SOPE   O14 6817   4.069   3.356   6.564
   77SOPE   O12 6818   3.930   3.444   6.749
   77SOPE   O11 6819   3.824   3.300   6.569
   77SOPE    C1 6820   3.793   3.409   6.481
   77SOPE    HA 6821   3.878   3.443   6.417
   77SOPE    HB 6822   3.786   3.499   6.545
   77SOPE    C2 6823   3.653   3.402   6.420
   77SOPE    HS 6824   3.573   3.410   6.497
   77SOPE   O21 6825   3.657   3.269   6.348
   77SOPE   C21 6826   3.536   3.234   6.294
   77SOPE   O22 6827   3.430   3.297   6.300
   77SOPE   C22 6828   3.544   3.098   6.217
   77SOPE   H2R 6829   3.516   3.017   6.287
   77SOPE   H2S 6830   3.646   3.081   6.178
   77SOPE    C3 6831   3.626   3.512   6.308
   77SOPE    HX 6832   3.685   3.602   6.334
   77SOPE    HY 6833   3.516   3.525   6.315
   77SOPE   O31 6834   3.661   3.474   6.172
   77SOPE   C31 6835   3.626   3.568   6.087
   77SOPE   O32 6836   3.573   3.673   6.119
   77SOPE   C32 6837   3.669   3.536   5.939
   77SOPE   H2X 6838   3.610   3.447   5.908
   77SOPE   H2Y 6839   3.780   3.533   5.938
   77SOPE   C23 6840   3.447   3.082   6.090
   77SOPE   H3R 6841   3.340   3.080   6.123
   77SOPE   H3S 6842   3.471   2.978   6.059
   77SOPE   C24 6843   3.462   3.181   5.978
   77SOPE   H4R 6844   3.446   3.285   6.013
   77SOPE   H4S 6845   3.564   3.176   5.936
   77SOPE   C25 6846   3.368   3.151   5.853
   77SOPE   H5R 6847   3.400   3.053   5.810
   77SOPE   H5S 6848   3.258   3.159   5.868
   77SOPE   C26 6849   3.390   3.248   5.741
   77SOPE   H6R 6850   3.358   3.353   5.760
   77SOPE   H6S 6851   3.499   3.263   5.726
   77SOPE   C27 6852   3.332   3.200   5.609
   77SOPE   H7R 6853   3.357   3.095   5.585
   77SOPE   H7S 6854   3.223   3.216   5.620
   77SOPE   C28 6855   3.377   3.292   5.493
   77SOPE   H8R 6856   3.316   3.385   5.485
   77SOPE   H8S 6857   3.480   3.326   5.517
   77SOPE   C29 6858   3.379   3.219   5.361
   77SOPE   H91 6859   3.451   3.140   5.334
   77SOPE  C210 6860   3.299   3.246   5.257
   77SOPE  H101 6861   3.303   3.183   5.167
   77SOPE  C211 6862   3.202   3.356   5.246
   77SOPE  H11R 6863   3.198   3.424   5.334
   77SOPE  H11S 6864   3.101   3.310   5.242
   77SOPE  C212 6865   3.203   3.449   5.124
   77SOPE  H12R 6866   3.300   3.504   5.121
   77SOPE  H12S 6867   3.125   3.525   5.146
   77SOPE  C213 6868   3.175   3.388   4.987
   77SOPE  H13R 6869   3.086   3.323   5.008
   77SOPE  H13S 6870   3.262   3.325   4.960
   77SOPE  C214 6871   3.138   3.478   4.876
   77SOPE  H14R 6872   3.223   3.548   4.859
   77SOPE  H14S 6873   3.053   3.536   4.918
   77SOPE  C215 6874   3.090   3.429   4.737
   77SOPE  H15R 6875   3.004   3.366   4.768
   77SOPE  H15S 6876   3.167   3.362   4.694
   77SOPE  C216 6877   3.066   3.548   4.641
   77SOPE  H16R 6878   3.163   3.599   4.629
   77SOPE  H16S 6879   2.992   3.616   4.689
   77SOPE  C217 6880   2.990   3.508   4.513
   77SOPE  H17R 6881   3.004   3.594   4.443
   77SOPE  H17S 6882   2.882   3.493   4.534
   77SOPE  C218 6883   3.030   3.383   4.443
   77SOPE  H18R 6884   2.955   3.360   4.363
   77SOPE  H18S 6885   3.033   3.298   4.514
   77SOPE  H18T 6886   3.131   3.393   4.399
   77SOPE   C33 6887   3.626   3.646   5.845
   77SOPE   H3X 6888   3.676   3.743   5.866
   77SOPE   H3Y 6889   3.517   3.654   5.865
   77SOPE   C34 6890   3.650   3.611   5.697
   77SOPE   H4X 6891   3.597   3.515   5.681
   77SOPE   H4Y 6892   3.758   3.595   5.679
   77SOPE   C35 6893   3.590   3.729   5.608
   77SOPE   H5X 6894   3.650   3.816   5.641
   77SOPE   H5Y 6895   3.483   3.753   5.628
   77SOPE   C36 6896   3.605   3.694   5.462
   77SOPE   H6X 6897   3.517   3.645   5.416
   77SOPE   H6Y 6898   3.679   3.613   5.445
   77SOPE   C37 6899   3.637   3.822   5.386
   77SOPE   H7X 6900   3.720   3.873   5.438
   77SOPE   H7Y 6901   3.545   3.885   5.394
   77SOPE   C38 6902   3.673   3.803   5.239
   77SOPE   H8X 6903   3.752   3.725   5.235
   77SOPE   H8Y 6904   3.717   3.897   5.201
   77SOPE   C39 6905   3.563   3.762   5.148
   77SOPE   H9X 6906   3.480   3.834   5.139
   77SOPE   H9Y 6907   3.515   3.669   5.184
   77SOPE  C310 6908   3.617   3.733   5.005
   77SOPE  H10X 6909   3.532   3.685   4.951
   77SOPE  H10Y 6910   3.700   3.660   4.988
   77SOPE  C311 6911   3.668   3.858   4.930
   77SOPE  H11X 6912   3.765   3.895   4.968
   77SOPE  H11Y 6913   3.599   3.943   4.951
   77SOPE  C312 6914   3.673   3.843   4.771
   77SOPE  H12X 6915   3.735   3.757   4.739
   77SOPE  H12Y 6916   3.709   3.937   4.723
   77SOPE  C313 6917   3.530   3.818   4.705
   77SOPE  H13X 6918   3.465   3.908   4.710
   77SOPE  H13Y 6919   3.475   3.736   4.757
   77SOPE  C314 6920   3.542   3.772   4.553
   77SOPE  H14X 6921   3.589   3.857   4.500
   77SOPE  H14Y 6922   3.442   3.744   4.513
   77SOPE  C315 6923   3.632   3.644   4.528
   77SOPE  H15X 6924   3.733   3.661   4.572
   77SOPE  H15Y 6925   3.637   3.642   4.417
   77SOPE  C316 6926   3.585   3.506   4.580
   77SOPE  H16X 6927   3.572   3.508   4.690
   77SOPE  H16Y 6928   3.664   3.431   4.559
   77SOPE  C317 6929   3.450   3.467   4.514
   77SOPE  H17X 6930   3.447   3.472   4.403
   77SOPE  H17Y 6931   3.370   3.538   4.542
   77SOPE  C318 6932   3.404   3.326   4.549
   77SOPE  H18X 6933   3.296   3.307   4.532
   77SOPE  H18Y 6934   3.428   3.303   4.655
   77SOPE  H18Z 6935   3.459   3.252   4.489
   78SOPE     N 6936   2.441   3.658   6.912
   78SOPE   HN1 6937   2.408   3.751   6.880
   78SOPE   HN2 6938   2.391   3.587   6.855
   78SOPE   HN3 6939   2.402   3.628   7.003
   78SOPE   C12 6940   2.592   3.675   6.902
   78SOPE  H12A 6941   2.613   3.755   6.976
   78SOPE  H12B 6942   2.618   3.701   6.797
   78SOPE   C11 6943   2.671   3.542   6.933
   78SOPE  H11A 6944   2.641   3.494   7.028
   78SOPE  H11B 6945   2.777   3.569   6.947
   78SOPE     P 6946   2.750   3.363   6.756
   78SOPE   O13 6947   2.676   3.255   6.682
   78SOPE   O14 6948   2.854   3.314   6.846
   78SOPE   O12 6949   2.643   3.446   6.831
   78SOPE   O11 6950   2.822   3.464   6.661
   78SOPE    C1 6951   2.742   3.546   6.576
   78SOPE    HA 6952   2.798   3.642   6.564
   78SOPE    HB 6953   2.644   3.573   6.621
   78SOPE    C2 6954   2.717   3.473   6.440
   78SOPE    HS 6955   2.658   3.382   6.461
   78SOPE   O21 6956   2.843   3.421   6.383
   78SOPE   C21 6957   2.847   3.310   6.317
   78SOPE   O22 6958   2.747   3.240   6.297
   78SOPE   C22 6959   2.988   3.290   6.243
   78SOPE   H2R 6960   3.067   3.260   6.316
   78SOPE   H2S 6961   3.029   3.389   6.212
   78SOPE    C3 6962   2.640   3.565   6.335
   78SOPE    HX 6963   2.714   3.642   6.304
   78SOPE    HY 6964   2.550   3.611   6.380
   78SOPE   O31 6965   2.613   3.488   6.211
   78SOPE   C31 6966   2.493   3.451   6.197
   78SOPE   O32 6967   2.393   3.495   6.254
   78SOPE   C32 6968   2.497   3.349   6.089
   78SOPE   H2X 6969   2.551   3.258   6.122
   78SOPE   H2Y 6970   2.545   3.389   5.997
   78SOPE   C23 6971   2.997   3.179   6.137
   78SOPE   H3R 6972   2.929   3.093   6.158
   78SOPE   H3S 6973   3.090   3.120   6.146
   78SOPE   C24 6974   2.995   3.247   5.999
   78SOPE   H4R 6975   3.083   3.315   6.000
   78SOPE   H4S 6976   2.999   3.170   5.920
   78SOPE   C25 6977   2.849   3.313   5.964
   78SOPE   H5R 6978   2.777   3.230   5.980
   78SOPE   H5S 6979   2.820   3.399   6.027
   78SOPE   C26 6980   2.837   3.339   5.812
   78SOPE   H6R 6981   2.912   3.414   5.778
   78SOPE   H6S 6982   2.863   3.244   5.761
   78SOPE   C27 6983   2.704   3.388   5.763
   78SOPE   H7R 6984   2.635   3.307   5.795
   78SOPE   H7S 6985   2.669   3.483   5.809
   78SOPE   C28 6986   2.708   3.400   5.612
   78SOPE   H8R 6987   2.793   3.464   5.577
   78SOPE   H8S 6988   2.744   3.298   5.590
   78SOPE   C29 6989   2.585   3.447   5.536
   78SOPE   H91 6990   2.497   3.479   5.593
   78SOPE  C210 6991   2.598   3.464   5.402
   78SOPE  H101 6992   2.506   3.487   5.346
   78SOPE  C211 6993   2.720   3.423   5.320
   78SOPE  H11R 6994   2.784   3.348   5.371
   78SOPE  H11S 6995   2.785   3.512   5.311
   78SOPE  C212 6996   2.691   3.380   5.173
   78SOPE  H12R 6997   2.610   3.447   5.135
   78SOPE  H12S 6998   2.639   3.282   5.179
   78SOPE  C213 6999   2.808   3.353   5.077
   78SOPE  H13R 7000   2.874   3.285   5.134
   78SOPE  H13S 7001   2.858   3.451   5.059
   78SOPE  C214 7002   2.765   3.272   4.950
   78SOPE  H14R 7003   2.713   3.178   4.977
   78SOPE  H14S 7004   2.857   3.235   4.899
   78SOPE  C215 7005   2.669   3.345   4.849
   78SOPE  H15R 7006   2.581   3.373   4.910
   78SOPE  H15S 7007   2.636   3.293   4.756
   78SOPE  C216 7008   2.738   3.474   4.791
   78SOPE  H16R 7009   2.743   3.467   4.680
   78SOPE  H16S 7010   2.837   3.494   4.837
   78SOPE  C217 7011   2.651   3.599   4.818
   78SOPE  H17R 7012   2.713   3.688   4.792
   78SOPE  H17S 7013   2.641   3.615   4.927
   78SOPE  C218 7014   2.518   3.597   4.741
   78SOPE  H18R 7015   2.465   3.507   4.779
   78SOPE  H18S 7016   2.542   3.596   4.633
   78SOPE  H18T 7017   2.462   3.691   4.765
   78SOPE   C33 7018   2.362   3.293   6.045
   78SOPE   H3X 7019   2.289   3.376   6.053
   78SOPE   H3Y 7020   2.331   3.216   6.119
   78SOPE   C34 7021   2.361   3.232   5.902
   78SOPE   H4X 7022   2.405   3.301   5.827
   78SOPE   H4Y 7023   2.254   3.218   5.878
   78SOPE   C35 7024   2.428   3.095   5.904
   78SOPE   H5X 7025   2.406   3.042   5.999
   78SOPE   H5Y 7026   2.538   3.113   5.909
   78SOPE   C36 7027   2.395   3.005   5.786
   78SOPE   H6X 7028   2.286   2.983   5.777
   78SOPE   H6Y 7029   2.454   2.913   5.805
   78SOPE   C37 7030   2.431   3.056   5.646
   78SOPE   H7X 7031   2.523   3.118   5.649
   78SOPE   H7Y 7032   2.346   3.120   5.614
   78SOPE   C38 7033   2.451   2.948   5.541
   78SOPE   H8X 7034   2.369   2.873   5.545
   78SOPE   H8Y 7035   2.544   2.895   5.569
   78SOPE   C39 7036   2.465   3.017   5.408
   78SOPE   H9X 7037   2.539   3.099   5.423
   78SOPE   H9Y 7038   2.369   3.064   5.379
   78SOPE  C310 7039   2.513   2.917   5.306
   78SOPE  H10X 7040   2.446   2.829   5.305
   78SOPE  H10Y 7041   2.617   2.887   5.331
   78SOPE  C311 7042   2.516   2.981   5.169
   78SOPE  H11X 7043   2.590   3.063   5.159
   78SOPE  H11Y 7044   2.424   3.037   5.145
   78SOPE  C312 7045   2.550   2.884   5.061
   78SOPE  H12X 7046   2.480   2.799   5.073
   78SOPE  H12Y 7047   2.652   2.844   5.085
   78SOPE  C313 7048   2.562   2.937   4.920
   78SOPE  H13X 7049   2.673   2.943   4.907
   78SOPE  H13Y 7050   2.528   3.043   4.909
   78SOPE  C314 7051   2.501   2.848   4.813
   78SOPE  H14X 7052   2.393   2.874   4.805
   78SOPE  H14Y 7053   2.536   2.746   4.840
   78SOPE  C315 7054   2.575   2.866   4.674
   78SOPE  H15X 7055   2.683   2.887   4.686
   78SOPE  H15Y 7056   2.534   2.962   4.634
   78SOPE  C316 7057   2.554   2.752   4.567
   78SOPE  H16X 7058   2.449   2.741   4.533
   78SOPE  H16Y 7059   2.597   2.663   4.616
   78SOPE  C317 7060   2.640   2.763   4.438
   78SOPE  H17X 7061   2.749   2.780   4.454
   78SOPE  H17Y 7062   2.600   2.858   4.398
   78SOPE  C318 7063   2.614   2.657   4.334
   78SOPE  H18X 7064   2.510   2.668   4.296
   78SOPE  H18Y 7065   2.638   2.554   4.367
   78SOPE  H18Z 7066   2.681   2.677   4.247
   79SOPE     N 7067   4.872   0.673   6.915
   79SOPE   HN1 7068   4.889   0.596   6.983
   79SOPE   HN2 7069   4.959   0.690   6.860
   79SOPE   HN3 7070   4.860   0.762   6.967
   79SOPE   C12 7071   4.757   0.645   6.822
   79SOPE  H12A 7072   4.769   0.544   6.779
   79SOPE  H12B 7073   4.757   0.720   6.740
   79SOPE   C11 7074   4.629   0.638   6.907
   79SOPE  H11A 7075   4.643   0.567   6.992
   79SOPE  H11B 7076   4.557   0.595   6.835
   79SOPE     P 7077   4.449   0.809   6.985
   79SOPE   O13 7078   4.441   0.935   7.061
   79SOPE   O14 7079   4.375   0.692   7.042
   79SOPE   O12 7080   4.600   0.769   6.962
   79SOPE   O11 7081   4.391   0.844   6.845
   79SOPE    C1 7082   4.458   0.954   6.766
   79SOPE    HA 7083   4.563   0.926   6.743
   79SOPE    HB 7084   4.462   1.049   6.823
   79SOPE    C2 7085   4.386   0.968   6.635
   79SOPE    HS 7086   4.278   0.966   6.661
   79SOPE   O21 7087   4.430   0.864   6.551
   79SOPE   C21 7088   4.347   0.824   6.453
   79SOPE   O22 7089   4.235   0.867   6.436
   79SOPE   C22 7090   4.409   0.704   6.382
   79SOPE   H2R 7091   4.397   0.618   6.451
   79SOPE   H2S 7092   4.515   0.728   6.363
   79SOPE    C3 7093   4.405   1.108   6.570
   79SOPE    HX 7094   4.498   1.154   6.611
   79SOPE    HY 7095   4.322   1.179   6.590
   79SOPE   O31 7096   4.401   1.103   6.432
   79SOPE   C31 7097   4.498   1.148   6.354
   79SOPE   O32 7098   4.589   1.223   6.389
   79SOPE   C32 7099   4.473   1.092   6.212
   79SOPE   H2X 7100   4.493   0.983   6.218
   79SOPE   H2Y 7101   4.546   1.145   6.148
   79SOPE   C23 7102   4.331   0.668   6.249
   79SOPE   H3R 7103   4.304   0.769   6.212
   79SOPE   H3S 7104   4.238   0.614   6.278
   79SOPE   C24 7105   4.414   0.583   6.148
   79SOPE   H4R 7106   4.496   0.654   6.125
   79SOPE   H4S 7107   4.453   0.498   6.208
   79SOPE   C25 7108   4.328   0.540   6.027
   79SOPE   H5R 7109   4.394   0.515   5.941
   79SOPE   H5S 7110   4.250   0.462   6.041
   79SOPE   C26 7111   4.258   0.656   5.965
   79SOPE   H6R 7112   4.169   0.677   6.029
   79SOPE   H6S 7113   4.325   0.744   5.974
   79SOPE   C27 7114   4.223   0.638   5.814
   79SOPE   H7R 7115   4.318   0.621   5.760
   79SOPE   H7S 7116   4.162   0.545   5.810
   79SOPE   C28 7117   4.158   0.758   5.737
   79SOPE   H8R 7118   4.231   0.839   5.715
   79SOPE   H8S 7119   4.136   0.724   5.633
   79SOPE   C29 7120   4.046   0.829   5.805
   79SOPE   H91 7121   4.038   0.814   5.914
   79SOPE  C210 7122   3.948   0.895   5.747
   79SOPE  H101 7123   3.869   0.946   5.805
   79SOPE  C211 7124   3.938   0.915   5.601
   79SOPE  H11R 7125   4.028   0.895   5.540
   79SOPE  H11S 7126   3.922   1.023   5.581
   79SOPE  C212 7127   3.827   0.831   5.531
   79SOPE  H12R 7128   3.835   0.724   5.558
   79SOPE  H12S 7129   3.835   0.831   5.420
   79SOPE  C213 7130   3.678   0.868   5.554
   79SOPE  H13R 7131   3.667   0.977   5.570
   79SOPE  H13S 7132   3.645   0.816   5.646
   79SOPE  C214 7133   3.593   0.823   5.437
   79SOPE  H14R 7134   3.629   0.881   5.349
   79SOPE  H14S 7135   3.486   0.851   5.449
   79SOPE  C215 7136   3.601   0.671   5.404
   79SOPE  H15R 7137   3.573   0.605   5.489
   79SOPE  H15S 7138   3.708   0.657   5.378
   79SOPE  C216 7139   3.517   0.630   5.284
   79SOPE  H16R 7140   3.547   0.692   5.197
   79SOPE  H16S 7141   3.412   0.649   5.316
   79SOPE  C217 7142   3.526   0.479   5.250
   79SOPE  H17R 7143   3.469   0.416   5.322
   79SOPE  H17S 7144   3.632   0.446   5.250
   79SOPE  C218 7145   3.471   0.428   5.113
   79SOPE  H18R 7146   3.544   0.375   5.048
   79SOPE  H18S 7147   3.442   0.520   5.058
   79SOPE  H18T 7148   3.379   0.368   5.133
   79SOPE   C33 7149   4.340   1.122   6.154
   79SOPE   H3X 7150   4.319   1.230   6.168
   79SOPE   H3Y 7151   4.255   1.078   6.211
   79SOPE   C34 7152   4.337   1.084   6.005
   79SOPE   H4X 7153   4.345   0.975   5.984
   79SOPE   H4Y 7154   4.420   1.131   5.949
   79SOPE   C35 7155   4.203   1.142   5.950
   79SOPE   H5X 7156   4.120   1.103   6.012
   79SOPE   H5Y 7157   4.171   1.101   5.852
   79SOPE   C36 7158   4.199   1.296   5.937
   79SOPE   H6X 7159   4.237   1.345   6.029
   79SOPE   H6Y 7160   4.091   1.319   5.944
   79SOPE   C37 7161   4.260   1.364   5.811
   79SOPE   H7X 7162   4.368   1.375   5.836
   79SOPE   H7Y 7163   4.218   1.466   5.801
   79SOPE   C38 7164   4.229   1.294   5.678
   79SOPE   H8X 7165   4.118   1.283   5.671
   79SOPE   H8Y 7166   4.263   1.189   5.673
   79SOPE   C39 7167   4.267   1.373   5.551
   79SOPE   H9X 7168   4.371   1.412   5.558
   79SOPE   H9Y 7169   4.190   1.453   5.544
   79SOPE  C310 7170   4.258   1.296   5.419
   79SOPE  H10X 7171   4.304   1.196   5.436
   79SOPE  H10Y 7172   4.317   1.352   5.344
   79SOPE  C311 7173   4.117   1.265   5.350
   79SOPE  H11X 7174   4.055   1.356   5.339
   79SOPE  H11Y 7175   4.060   1.197   5.416
   79SOPE  C312 7176   4.123   1.198   5.208
   79SOPE  H12X 7177   4.198   1.116   5.206
   79SOPE  H12Y 7178   4.170   1.265   5.133
   79SOPE  C313 7179   3.982   1.163   5.147
   79SOPE  H13X 7180   3.934   1.263   5.135
   79SOPE  H13Y 7181   3.921   1.110   5.223
   79SOPE  C314 7182   3.985   1.091   5.010
   79SOPE  H14X 7183   4.039   1.154   4.936
   79SOPE  H14Y 7184   3.882   1.080   4.967
   79SOPE  C315 7185   4.060   0.955   5.020
   79SOPE  H15X 7186   4.160   0.960   5.067
   79SOPE  H15Y 7187   4.076   0.910   4.919
   79SOPE  C316 7188   3.984   0.850   5.103
   79SOPE  H16X 7189   3.884   0.824   5.062
   79SOPE  H16Y 7190   3.970   0.883   5.208
   79SOPE  C317 7191   4.049   0.709   5.096
   79SOPE  H17X 7192   4.157   0.725   5.114
   79SOPE  H17Y 7193   4.029   0.673   4.993
   79SOPE  C318 7194   3.991   0.619   5.198
   79SOPE  H18X 7195   3.882   0.604   5.184
   79SOPE  H18Y 7196   4.000   0.669   5.297
   79SOPE  H18Z 7197   4.028   0.515   5.188
   80SOPE     N 7198   1.934   3.243   7.084
   80SOPE   HN1 7199   1.895   3.242   7.180
   80SOPE   HN2 7200   1.904   3.152   7.043
   80SOPE   HN3 7201   2.037   3.251   7.101
   80SOPE   C12 7202   1.887   3.350   6.987
   80SOPE  H12A 7203   1.910   3.452   7.024
   80SOPE  H12B 7204   1.778   3.330   6.983
   80SOPE   C11 7205   1.943   3.323   6.847
   80SOPE  H11A 7206   1.883   3.383   6.775
   80SOPE  H11B 7207   1.931   3.215   6.827
   80SOPE     P 7208   2.141   3.492   6.792
   80SOPE   O13 7209   2.288   3.490   6.770
   80SOPE   O14 7210   2.091   3.589   6.889
   80SOPE   O12 7211   2.084   3.351   6.838
   80SOPE   O11 7212   2.065   3.507   6.658
   80SOPE    C1 7213   2.102   3.411   6.558
   80SOPE    HA 7214   2.098   3.305   6.593
   80SOPE    HB 7215   2.203   3.428   6.513
   80SOPE    C2 7216   2.004   3.427   6.441
   80SOPE    HS 7217   1.987   3.536   6.435
   80SOPE   O21 7218   1.880   3.361   6.481
   80SOPE   C21 7219   1.770   3.405   6.437
   80SOPE   O22 7220   1.750   3.520   6.396
   80SOPE   C22 7221   1.665   3.293   6.441
   80SOPE   H2R 7222   1.631   3.273   6.545
   80SOPE   H2S 7223   1.712   3.194   6.422
   80SOPE    C3 7224   2.055   3.371   6.309
   80SOPE    HX 7225   2.057   3.261   6.329
   80SOPE    HY 7226   2.162   3.396   6.292
   80SOPE   O31 7227   1.977   3.406   6.189
   80SOPE   C31 7228   2.018   3.506   6.110
   80SOPE   O32 7229   2.110   3.577   6.140
   80SOPE   C32 7230   1.912   3.529   6.006
   80SOPE   H2X 7231   1.929   3.628   5.959
   80SOPE   H2Y 7232   1.816   3.516   6.060
   80SOPE   C23 7233   1.549   3.302   6.340
   80SOPE   H3R 7234   1.502   3.401   6.357
   80SOPE   H3S 7235   1.473   3.225   6.365
   80SOPE   C24 7236   1.579   3.308   6.191
   80SOPE   H4R 7237   1.674   3.365   6.185
   80SOPE   H4S 7238   1.603   3.208   6.149
   80SOPE   C25 7239   1.469   3.380   6.114
   80SOPE   H5R 7240   1.368   3.339   6.138
   80SOPE   H5S 7241   1.462   3.477   6.169
   80SOPE   C26 7242   1.495   3.385   5.962
   80SOPE   H6R 7243   1.417   3.450   5.918
   80SOPE   H6S 7244   1.594   3.427   5.934
   80SOPE   C27 7245   1.459   3.255   5.892
   80SOPE   H7R 7246   1.518   3.175   5.940
   80SOPE   H7S 7247   1.351   3.234   5.909
   80SOPE   C28 7248   1.484   3.262   5.735
   80SOPE   H8R 7249   1.441   3.357   5.697
   80SOPE   H8S 7250   1.594   3.280   5.731
   80SOPE   C29 7251   1.463   3.131   5.658
   80SOPE   H91 7252   1.489   3.037   5.709
   80SOPE  C210 7253   1.386   3.121   5.547
   80SOPE  H101 7254   1.397   3.022   5.500
   80SOPE  C211 7255   1.316   3.234   5.478
   80SOPE  H11R 7256   1.308   3.324   5.542
   80SOPE  H11S 7257   1.210   3.212   5.454
   80SOPE  C212 7258   1.386   3.267   5.354
   80SOPE  H12R 7259   1.496   3.269   5.362
   80SOPE  H12S 7260   1.363   3.370   5.319
   80SOPE  C213 7261   1.367   3.172   5.242
   80SOPE  H13R 7262   1.256   3.164   5.234
   80SOPE  H13S 7263   1.395   3.065   5.252
   80SOPE  C214 7264   1.432   3.220   5.111
   80SOPE  H14R 7265   1.539   3.223   5.141
   80SOPE  H14S 7266   1.405   3.321   5.075
   80SOPE  C215 7267   1.427   3.121   4.987
   80SOPE  H15R 7268   1.332   3.133   4.931
   80SOPE  H15S 7269   1.434   3.022   5.038
   80SOPE  C216 7270   1.550   3.131   4.895
   80SOPE  H16R 7271   1.644   3.133   4.953
   80SOPE  H16S 7272   1.537   3.228   4.841
   80SOPE  C217 7273   1.555   3.009   4.796
   80SOPE  H17R 7274   1.578   3.041   4.692
   80SOPE  H17S 7275   1.454   2.971   4.771
   80SOPE  C218 7276   1.649   2.904   4.845
   80SOPE  H18R 7277   1.752   2.946   4.847
   80SOPE  H18S 7278   1.641   2.806   4.794
   80SOPE  H18T 7279   1.613   2.885   4.948
   80SOPE   C33 7280   1.921   3.411   5.906
   80SOPE   H3X 7281   1.825   3.391   5.855
   80SOPE   H3Y 7282   1.955   3.314   5.949
   80SOPE   C34 7283   2.029   3.446   5.801
   80SOPE   H4X 7284   2.130   3.427   5.844
   80SOPE   H4Y 7285   2.024   3.553   5.769
   80SOPE   C35 7286   2.024   3.344   5.689
   80SOPE   H5X 7287   1.922   3.356   5.646
   80SOPE   H5Y 7288   2.018   3.240   5.728
   80SOPE   C36 7289   2.117   3.374   5.568
   80SOPE   H6X 7290   2.224   3.349   5.586
   80SOPE   H6Y 7291   2.101   3.484   5.556
   80SOPE   C37 7292   2.072   3.312   5.430
   80SOPE   H7X 7293   1.965   3.343   5.426
   80SOPE   H7Y 7294   2.080   3.202   5.443
   80SOPE   C38 7295   2.140   3.375   5.308
   80SOPE   H8X 7296   2.248   3.353   5.322
   80SOPE   H8Y 7297   2.122   3.484   5.302
   80SOPE   C39 7298   2.116   3.312   5.169
   80SOPE   H9X 7299   2.014   3.345   5.139
   80SOPE   H9Y 7300   2.120   3.201   5.165
   80SOPE  C310 7301   2.208   3.378   5.078
   80SOPE  H10X 7302   2.316   3.358   5.096
   80SOPE  H10Y 7303   2.197   3.488   5.087
   80SOPE  C311 7304   2.179   3.349   4.928
   80SOPE  H11X 7305   2.267   3.385   4.871
   80SOPE  H11Y 7306   2.085   3.392   4.886
   80SOPE  C312 7307   2.145   3.203   4.894
   80SOPE  H12X 7308   2.045   3.179   4.934
   80SOPE  H12Y 7309   2.220   3.136   4.940
   80SOPE  C313 7310   2.164   3.182   4.741
   80SOPE  H13X 7311   2.071   3.214   4.689
   80SOPE  H13Y 7312   2.153   3.072   4.733
   80SOPE  C314 7313   2.283   3.234   4.666
   80SOPE  H14X 7314   2.374   3.209   4.725
   80SOPE  H14Y 7315   2.269   3.344   4.657
   80SOPE  C315 7316   2.298   3.176   4.524
   80SOPE  H15X 7317   2.196   3.170   4.480
   80SOPE  H15Y 7318   2.343   3.075   4.537
   80SOPE  C316 7319   2.395   3.254   4.428
   80SOPE  H16X 7320   2.498   3.256   4.470
   80SOPE  H16Y 7321   2.368   3.361   4.426
   80SOPE  C317 7322   2.398   3.208   4.279
   80SOPE  H17X 7323   2.441   3.105   4.278
   80SOPE  H17Y 7324   2.472   3.268   4.221
   80SOPE  C318 7325   2.264   3.205   4.206
   80SOPE  H18X 7326   2.190   3.146   4.264
   80SOPE  H18Y 7327   2.272   3.161   4.104
   80SOPE  H18Z 7328   2.234   3.312   4.213
   81SOPE     N 7329   4.313   0.050   6.984
   81SOPE   HN1 7330   4.393   6.799   6.976
   81SOPE   HN2 7331   4.246   0.018   7.057
   81SOPE   HN3 7332   4.262   0.058   6.894
   81SOPE   C12 7333   4.354   0.193   6.993
   81SOPE  H12A 7334   4.392   0.201   7.097
   81SOPE  H12B 7335   4.264   0.257   6.995
   81SOPE   C11 7336   4.463   0.253   6.895
   81SOPE  H11A 7337   4.474   0.362   6.910
   81SOPE  H11B 7338   4.424   0.248   6.790
   81SOPE     P 7339   4.720   0.252   6.859
   81SOPE   O13 7340   4.832   0.159   6.835
   81SOPE   O14 7341   4.749   0.363   6.955
   81SOPE   O12 7342   4.585   0.184   6.908
   81SOPE   O11 7343   4.667   0.304   6.719
   81SOPE    C1 7344   4.682   0.229   6.602
   81SOPE    HA 7345   4.589   0.235   6.542
   81SOPE    HB 7346   4.706   0.121   6.617
   81SOPE    C2 7347   4.808   0.269   6.513
   81SOPE    HS 7348   4.899   0.247   6.572
   81SOPE   O21 7349   4.793   0.407   6.487
   81SOPE   C21 7350   4.913   0.469   6.462
   81SOPE   O22 7351   5.022   0.420   6.473
   81SOPE   C22 7352   4.878   0.617   6.429
   81SOPE   H2R 7353   4.970   0.678   6.443
   81SOPE   H2S 7354   4.800   0.656   6.498
   81SOPE    C3 7355   4.807   0.192   6.378
   81SOPE    HX 7356   4.704   0.199   6.336
   81SOPE    HY 7357   4.823   0.086   6.409
   81SOPE   O31 7358   4.895   0.248   6.276
   81SOPE   C31 7359   5.013   0.178   6.257
   81SOPE   O32 7360   5.053   0.093   6.331
   81SOPE   C32 7361   5.070   0.207   6.119
   81SOPE   H2X 7362   5.151   0.280   6.139
   81SOPE   H2Y 7363   4.991   0.259   6.061
   81SOPE   C23 7364   4.855   0.636   6.281
   81SOPE   H3R 7365   4.755   0.596   6.254
   81SOPE   H3S 7366   4.924   0.567   6.228
   81SOPE   C24 7367   4.858   0.782   6.225
   81SOPE   H4R 7368   4.823   0.785   6.119
   81SOPE   H4S 7369   4.784   0.827   6.294
   81SOPE   C25 7370   4.992   0.859   6.234
   81SOPE   H5R 7371   5.046   0.822   6.324
   81SOPE   H5S 7372   5.049   0.821   6.146
   81SOPE   C26 7373   4.987   1.010   6.228
   81SOPE   H6R 7374   4.911   1.048   6.299
   81SOPE   H6S 7375   5.082   1.050   6.270
   81SOPE   C27 7376   4.967   1.065   6.087
   81SOPE   H7R 7377   5.053   1.035   6.023
   81SOPE   H7S 7378   4.874   1.026   6.040
   81SOPE   C28 7379   4.968   1.227   6.080
   81SOPE   H8R 7380   5.051   1.265   6.144
   81SOPE   H8S 7381   5.005   1.233   5.976
   81SOPE   C29 7382   4.830   1.290   6.090
   81SOPE   H91 7383   4.801   1.315   6.193
   81SOPE  C210 7384   4.746   1.321   5.991
   81SOPE  H101 7385   4.646   1.359   6.015
   81SOPE  C211 7386   4.759   1.297   5.847
   81SOPE  H11R 7387   4.848   1.236   5.823
   81SOPE  H11S 7388   4.758   1.388   5.783
   81SOPE  C212 7389   4.642   1.206   5.790
   81SOPE  H12R 7390   4.648   1.209   5.679
   81SOPE  H12S 7391   4.539   1.235   5.818
   81SOPE  C213 7392   4.681   1.055   5.814
   81SOPE  H13R 7393   4.681   1.034   5.923
   81SOPE  H13S 7394   4.780   1.033   5.770
   81SOPE  C214 7395   4.574   0.963   5.749
   81SOPE  H14R 7396   4.526   0.996   5.655
   81SOPE  H14S 7397   4.493   0.956   5.825
   81SOPE  C215 7398   4.630   0.817   5.724
   81SOPE  H15R 7399   4.708   0.811   5.646
   81SOPE  H15S 7400   4.543   0.758   5.690
   81SOPE  C216 7401   4.684   0.752   5.855
   81SOPE  H16R 7402   4.619   0.779   5.940
   81SOPE  H16S 7403   4.785   0.791   5.878
   81SOPE  C217 7404   4.687   0.601   5.833
   81SOPE  H17R 7405   4.750   0.587   5.742
   81SOPE  H17S 7406   4.583   0.572   5.811
   81SOPE  C218 7407   4.746   0.511   5.946
   81SOPE  H18R 7408   4.857   0.511   5.953
   81SOPE  H18S 7409   4.717   0.406   5.924
   81SOPE  H18T 7410   4.705   0.543   6.044
   81SOPE   C33 7411   5.113   0.082   6.049
   81SOPE   H3X 7412   5.024   0.016   6.057
   81SOPE   H3Y 7413   5.195   0.042   6.113
   81SOPE   C34 7414   5.161   0.098   5.907
   81SOPE   H4X 7415   5.100   0.179   5.862
   81SOPE   H4Y 7416   5.137   0.006   5.850
   81SOPE   C35 7417   5.307   0.135   5.898
   81SOPE   H5X 7418   5.364   0.072   5.969
   81SOPE   H5Y 7419   5.321   0.240   5.932
   81SOPE   C36 7420   5.368   0.097   5.759
   81SOPE   H6X 7421   5.318   0.163   5.685
   81SOPE   H6Y 7422   5.349   6.804   5.742
   81SOPE   C37 7423   5.514   0.129   5.752
   81SOPE   H7X 7424   5.579   0.076   5.825
   81SOPE   H7Y 7425   5.528   0.236   5.779
   81SOPE   C38 7426   5.570   0.103   5.604
   81SOPE   H8X 7427   5.511   0.161   5.530
   81SOPE   H8Y 7428   5.553   6.809   5.587
   81SOPE   C39 7429   5.713   0.139   5.586
   81SOPE   H9X 7430   5.772   0.113   5.677
   81SOPE   H9Y 7431   5.724   0.250   5.581
   81SOPE  C310 7432   5.775   0.064   5.471
   81SOPE  H10X 7433   5.713   0.079   5.380
   81SOPE  H10Y 7434   5.776   6.768   5.482
   81SOPE  C311 7435   5.916   0.114   5.438
   81SOPE  H11X 7436   5.977   0.084   5.525
   81SOPE  H11Y 7437   5.918   0.222   5.414
   81SOPE  C312 7438   5.972   0.034   5.315
   81SOPE  H12X 7439   5.906   0.063   5.231
   81SOPE  H12Y 7440   5.975   6.739   5.334
   81SOPE  C313 7441   6.121   0.074   5.278
   81SOPE  H13X 7442   6.187   0.073   5.367
   81SOPE  H13Y 7443   6.120   0.180   5.245
   81SOPE  C314 7444   6.181   6.804   5.165
   81SOPE  H14X 7445   6.127   0.015   5.071
   81SOPE  H14Y 7446   6.157   6.696   5.178
   81SOPE  C315 7447   6.328   0.026   5.132
   81SOPE  H15X 7448   6.379   0.008   5.228
   81SOPE  H15Y 7449   6.332   0.132   5.100
   81SOPE  C316 7450   6.402   6.756   5.025
   81SOPE  H16X 7451   6.358   6.656   5.047
   81SOPE  H16Y 7452   6.511   6.746   5.044
   81SOPE  C317 7453   6.381   6.797   4.882
   81SOPE  H17X 7454   6.425   0.084   4.872
   81SOPE  H17Y 7455   6.276   6.796   4.848
   81SOPE  C318 7456   6.457   6.699   4.792
   81SOPE  H18X 7457   6.448   6.595   4.830
   81SOPE  H18Y 7458   6.567   6.716   4.790
   81SOPE  H18Z 7459   6.432   6.711   4.685
   82SOPE     N 7460   1.934   1.092   6.454
   82SOPE   HN1 7461   1.899   1.007   6.502
   82SOPE   HN2 7462   2.029   1.079   6.413
   82SOPE   HN3 7463   1.928   1.164   6.529
   82SOPE   C12 7464   1.838   1.115   6.342
   82SOPE  H12A 7465   1.832   1.226   6.330
   82SOPE  H12B 7466   1.735   1.077   6.359
   82SOPE   C11 7467   1.898   1.051   6.214
   82SOPE  H11A 7468   1.985   1.114   6.184
   82SOPE  H11B 7469   1.828   1.068   6.129
   82SOPE     P 7470   1.857   0.793   6.247
   82SOPE   O13 7471   1.724   0.824   6.198
   82SOPE   O14 7472   1.857   0.753   6.392
   82SOPE   O12 7473   1.946   0.918   6.230
   82SOPE   O11 7474   1.930   0.691   6.157
   82SOPE    C1 7475   1.949   0.683   6.016
   82SOPE    HA 7476   1.939   0.786   5.975
   82SOPE    HB 7477   1.865   0.622   5.974
   82SOPE    C2 7478   2.085   0.624   5.985
   82SOPE    HS 7479   2.172   0.663   6.043
   82SOPE   O21 7480   2.116   0.631   5.842
   82SOPE   C21 7481   2.127   0.753   5.785
   82SOPE   O22 7482   2.122   0.858   5.843
   82SOPE   C22 7483   2.153   0.732   5.639
   82SOPE   H2R 7484   2.058   0.710   5.586
   82SOPE   H2S 7485   2.222   0.645   5.629
   82SOPE    C3 7486   2.089   0.476   6.026
   82SOPE    HX 7487   2.108   0.483   6.135
   82SOPE    HY 7488   2.176   0.424   5.981
   82SOPE   O31 7489   1.969   0.398   5.992
   82SOPE   C31 7490   1.890   0.369   6.098
   82SOPE   O32 7491   1.909   0.406   6.213
   82SOPE   C32 7492   1.772   0.285   6.042
   82SOPE   H2X 7493   1.701   0.255   6.122
   82SOPE   H2Y 7494   1.821   0.193   6.004
   82SOPE   C23 7495   2.219   0.858   5.570
   82SOPE   H3R 7496   2.313   0.877   5.626
   82SOPE   H3S 7497   2.152   0.944   5.588
   82SOPE   C24 7498   2.244   0.848   5.420
   82SOPE   H4R 7499   2.290   0.750   5.395
   82SOPE   H4S 7500   2.151   0.850   5.359
   82SOPE   C25 7501   2.329   0.967   5.371
   82SOPE   H5R 7502   2.329   0.964   5.260
   82SOPE   H5S 7503   2.281   1.060   5.408
   82SOPE   C26 7504   2.476   0.960   5.412
   82SOPE   H6R 7505   2.527   1.052   5.375
   82SOPE   H6S 7506   2.487   0.980   5.521
   82SOPE   C27 7507   2.565   0.837   5.376
   82SOPE   H7R 7508   2.663   0.847   5.427
   82SOPE   H7S 7509   2.528   0.736   5.405
   82SOPE   C28 7510   2.581   0.834   5.220
   82SOPE   H8R 7511   2.482   0.850   5.171
   82SOPE   H8S 7512   2.648   0.919   5.197
   82SOPE   C29 7513   2.668   0.711   5.183
   82SOPE   H91 7514   2.759   0.708   5.246
   82SOPE  C210 7515   2.641   0.616   5.093
   82SOPE  H101 7516   2.710   0.532   5.079
   82SOPE  C211 7517   2.509   0.608   5.025
   82SOPE  H11R 7518   2.439   0.630   5.109
   82SOPE  H11S 7519   2.478   0.507   4.992
   82SOPE  C212 7520   2.492   0.691   4.898
   82SOPE  H12R 7521   2.530   0.793   4.919
   82SOPE  H12S 7522   2.385   0.706   4.869
   82SOPE  C213 7523   2.577   0.639   4.779
   82SOPE  H13R 7524   2.678   0.624   4.823
   82SOPE  H13S 7525   2.585   0.719   4.703
   82SOPE  C214 7526   2.523   0.510   4.724
   82SOPE  H14R 7527   2.500   0.435   4.803
   82SOPE  H14S 7528   2.612   0.461   4.679
   82SOPE  C215 7529   2.419   0.533   4.614
   82SOPE  H15R 7530   2.411   0.445   4.546
   82SOPE  H15S 7531   2.455   0.613   4.546
   82SOPE  C216 7532   2.276   0.545   4.659
   82SOPE  H16R 7533   2.244   0.636   4.714
   82SOPE  H16S 7534   2.262   0.471   4.741
   82SOPE  C217 7535   2.167   0.520   4.549
   82SOPE  H17R 7536   2.214   0.482   4.456
   82SOPE  H17S 7537   2.116   0.616   4.526
   82SOPE  C218 7538   2.073   0.421   4.613
   82SOPE  H18R 7539   1.971   0.415   4.569
   82SOPE  H18S 7540   2.046   0.460   4.714
   82SOPE  H18T 7541   2.114   0.319   4.629
   82SOPE   C33 7542   1.709   0.358   5.925
   82SOPE   H3X 7543   1.787   0.403   5.861
   82SOPE   H3Y 7544   1.656   0.446   5.967
   82SOPE   C34 7545   1.598   0.273   5.861
   82SOPE   H4X 7546   1.534   0.236   5.944
   82SOPE   H4Y 7547   1.649   0.189   5.809
   82SOPE   C35 7548   1.514   0.346   5.764
   82SOPE   H5X 7549   1.447   0.271   5.717
   82SOPE   H5Y 7550   1.584   0.378   5.684
   82SOPE   C36 7551   1.421   0.449   5.824
   82SOPE   H6X 7552   1.477   0.542   5.848
   82SOPE   H6Y 7553   1.390   0.399   5.918
   82SOPE   C37 7554   1.315   0.485   5.722
   82SOPE   H7X 7555   1.220   0.522   5.767
   82SOPE   H7Y 7556   1.293   0.406   5.646
   82SOPE   C38 7557   1.368   0.616   5.655
   82SOPE   H8X 7558   1.464   0.586   5.608
   82SOPE   H8Y 7559   1.392   0.697   5.728
   82SOPE   C39 7560   1.273   0.663   5.552
   82SOPE   H9X 7561   1.179   0.691   5.604
   82SOPE   H9Y 7562   1.256   0.586   5.474
   82SOPE  C310 7563   1.333   0.787   5.483
   82SOPE  H10X 7564   1.432   0.755   5.446
   82SOPE  H10Y 7565   1.348   0.858   5.566
   82SOPE  C311 7566   1.244   0.858   5.384
   82SOPE  H11X 7567   1.154   0.887   5.443
   82SOPE  H11Y 7568   1.208   0.784   5.309
   82SOPE  C312 7569   1.311   0.976   5.312
   82SOPE  H12X 7570   1.419   0.957   5.293
   82SOPE  H12Y 7571   1.317   1.062   5.382
   82SOPE  C313 7572   1.246   1.010   5.170
   82SOPE  H13X 7573   1.142   1.034   5.201
   82SOPE  H13Y 7574   1.252   0.926   5.098
   82SOPE  C314 7575   1.305   1.138   5.100
   82SOPE  H14X 7576   1.413   1.110   5.094
   82SOPE  H14Y 7577   1.296   1.225   5.168
   82SOPE  C315 7578   1.237   1.167   4.961
   82SOPE  H15X 7579   1.301   1.242   4.911
   82SOPE  H15Y 7580   1.136   1.201   4.994
   82SOPE  C316 7581   1.219   1.055   4.858
   82SOPE  H16X 7582   1.186   1.100   4.761
   82SOPE  H16Y 7583   1.142   0.983   4.892
   82SOPE  C317 7584   1.351   0.973   4.839
   82SOPE  H17X 7585   1.382   0.907   4.922
   82SOPE  H17Y 7586   1.430   1.051   4.831
   82SOPE  C318 7587   1.332   0.892   4.708
   82SOPE  H18X 7588   1.304   0.948   4.616
   82SOPE  H18Y 7589   1.242   0.828   4.727
   82SOPE  H18Z 7590   1.414   0.819   4.691
   83SOPE     N 7591   1.187   2.433   1.701
   83SOPE   HN1 7592   1.121   2.390   1.769
   83SOPE   HN2 7593   1.149   2.414   1.606
   83SOPE   HN3 7594   1.269   2.369   1.707
   83SOPE   C12 7595   1.208   2.580   1.737
   83SOPE  H12A 7596   1.106   2.624   1.727
   83SOPE  H12B 7597   1.263   2.630   1.655
   83SOPE   C11 7598   1.257   2.606   1.879
   83SOPE  H11A 7599   1.178   2.561   1.944
   83SOPE  H11B 7600   1.245   2.710   1.916
   83SOPE     P 7601   1.500   2.635   1.947
   83SOPE   O13 7602   1.494   2.750   1.861
   83SOPE   O14 7603   1.625   2.560   1.947
   83SOPE   O12 7604   1.375   2.540   1.913
   83SOPE   O11 7605   1.468   2.677   2.093
   83SOPE    C1 7606   1.477   2.577   2.191
   83SOPE    HA 7607   1.425   2.484   2.161
   83SOPE    HB 7608   1.419   2.616   2.278
   83SOPE    C2 7609   1.617   2.550   2.256
   83SOPE    HS 7610   1.688   2.539   2.172
   83SOPE   O21 7611   1.596   2.423   2.327
   83SOPE   C21 7612   1.698   2.336   2.335
   83SOPE   O22 7613   1.802   2.344   2.279
   83SOPE   C22 7614   1.649   2.222   2.417
   83SOPE   H2R 7615   1.664   2.136   2.349
   83SOPE   H2S 7616   1.540   2.239   2.434
   83SOPE    C3 7617   1.667   2.662   2.352
   83SOPE    HX 7618   1.665   2.753   2.288
   83SOPE    HY 7619   1.773   2.651   2.384
   83SOPE   O31 7620   1.579   2.697   2.459
   83SOPE   C31 7621   1.640   2.751   2.566
   83SOPE   O32 7622   1.760   2.746   2.588
   83SOPE   C32 7623   1.532   2.798   2.661
   83SOPE   H2X 7624   1.472   2.706   2.678
   83SOPE   H2Y 7625   1.474   2.881   2.616
   83SOPE   C23 7626   1.716   2.207   2.560
   83SOPE   H3R 7627   1.688   2.289   2.630
   83SOPE   H3S 7628   1.827   2.207   2.553
   83SOPE   C24 7629   1.660   2.084   2.624
   83SOPE   H4R 7630   1.551   2.104   2.616
   83SOPE   H4S 7631   1.683   1.992   2.566
   83SOPE   C25 7632   1.702   2.072   2.773
   83SOPE   H5R 7633   1.809   2.044   2.771
   83SOPE   H5S 7634   1.687   2.175   2.811
   83SOPE   C26 7635   1.625   1.962   2.847
   83SOPE   H6R 7636   1.518   1.992   2.859
   83SOPE   H6S 7637   1.618   1.862   2.799
   83SOPE   C27 7638   1.679   1.947   2.991
   83SOPE   H7R 7639   1.639   1.858   3.046
   83SOPE   H7S 7640   1.788   1.933   2.977
   83SOPE   C28 7641   1.655   2.064   3.086
   83SOPE   H8R 7642   1.731   2.062   3.166
   83SOPE   H8S 7643   1.676   2.161   3.034
   83SOPE   C29 7644   1.515   2.068   3.141
   83SOPE   H91 7645   1.440   2.078   3.061
   83SOPE  C210 7646   1.481   2.059   3.267
   83SOPE  H101 7647   1.375   2.077   3.293
   83SOPE  C211 7648   1.562   2.038   3.395
   83SOPE  H11R 7649   1.603   2.137   3.428
   83SOPE  H11S 7650   1.646   1.968   3.375
   83SOPE  C212 7651   1.467   1.980   3.504
   83SOPE  H12R 7652   1.418   1.887   3.469
   83SOPE  H12S 7653   1.391   2.056   3.531
   83SOPE  C213 7654   1.543   1.936   3.630
   83SOPE  H13R 7655   1.611   2.016   3.666
   83SOPE  H13S 7656   1.587   1.837   3.611
   83SOPE  C214 7657   1.445   1.898   3.740
   83SOPE  H14R 7658   1.376   1.826   3.691
   83SOPE  H14S 7659   1.398   1.990   3.782
   83SOPE  C215 7660   1.510   1.824   3.863
   83SOPE  H15R 7661   1.563   1.898   3.926
   83SOPE  H15S 7662   1.572   1.746   3.813
   83SOPE  C216 7663   1.397   1.749   3.944
   83SOPE  H16R 7664   1.348   1.668   3.885
   83SOPE  H16S 7665   1.315   1.816   3.978
   83SOPE  C217 7666   1.450   1.705   4.079
   83SOPE  H17R 7667   1.364   1.669   4.139
   83SOPE  H17S 7668   1.501   1.787   4.134
   83SOPE  C218 7669   1.553   1.581   4.075
   83SOPE  H18R 7670   1.502   1.500   4.018
   83SOPE  H18S 7671   1.577   1.550   4.179
   83SOPE  H18T 7672   1.648   1.616   4.029
   83SOPE   C33 7673   1.594   2.851   2.794
   83SOPE   H3X 7674   1.616   2.960   2.793
   83SOPE   H3Y 7675   1.673   2.776   2.816
   83SOPE   C34 7676   1.488   2.846   2.905
   83SOPE   H4X 7677   1.443   2.746   2.920
   83SOPE   H4Y 7678   1.403   2.915   2.884
   83SOPE   C35 7679   1.539   2.887   3.046
   83SOPE   H5X 7680   1.586   2.988   3.044
   83SOPE   H5Y 7681   1.619   2.812   3.066
   83SOPE   C36 7682   1.445   2.860   3.155
   83SOPE   H6X 7683   1.397   2.760   3.143
   83SOPE   H6Y 7684   1.363   2.933   3.141
   83SOPE   C37 7685   1.493   2.879   3.295
   83SOPE   H7X 7686   1.499   2.984   3.330
   83SOPE   H7Y 7687   1.596   2.837   3.296
   83SOPE   C38 7688   1.409   2.787   3.389
   83SOPE   H8X 7689   1.427   2.683   3.356
   83SOPE   H8Y 7690   1.299   2.793   3.382
   83SOPE   C39 7691   1.448   2.798   3.538
   83SOPE   H9X 7692   1.558   2.801   3.550
   83SOPE   H9Y 7693   1.401   2.728   3.610
   83SOPE  C310 7694   1.388   2.936   3.591
   83SOPE  H10X 7695   1.279   2.920   3.577
   83SOPE  H10Y 7696   1.425   3.014   3.520
   83SOPE  C311 7697   1.419   2.973   3.728
   83SOPE  H11X 7698   1.373   3.074   3.723
   83SOPE  H11Y 7699   1.524   2.999   3.755
   83SOPE  C312 7700   1.371   2.875   3.830
   83SOPE  H12X 7701   1.431   2.781   3.831
   83SOPE  H12Y 7702   1.265   2.852   3.805
   83SOPE  C313 7703   1.376   2.939   3.961
   83SOPE  H13X 7704   1.353   3.047   3.969
   83SOPE  H13Y 7705   1.480   2.943   3.999
   83SOPE  C314 7706   1.279   2.874   4.066
   83SOPE  H14X 7707   1.323   2.782   4.111
   83SOPE  H14Y 7708   1.193   2.833   4.008
   83SOPE  C315 7709   1.248   2.982   4.177
   83SOPE  H15X 7710   1.211   3.069   4.119
   83SOPE  H15Y 7711   1.343   3.009   4.226
   83SOPE  C316 7712   1.141   2.927   4.273
   83SOPE  H16X 7713   1.175   2.830   4.315
   83SOPE  H16Y 7714   1.057   2.911   4.203
   83SOPE  C317 7715   1.104   3.017   4.393
   83SOPE  H17X 7716   1.075   3.118   4.357
   83SOPE  H17Y 7717   1.203   3.033   4.440
   83SOPE  C318 7718   1.000   2.964   4.480
   83SOPE  H18X 7719   0.947   3.043   4.538
   83SOPE  H18Y 7720   1.034   2.878   4.541
   83SOPE  H18Z 7721   0.920   2.930   4.411
   84SOPE     N 7722   6.634   1.015   2.468
   84SOPE   HN1 7723   6.564   1.091   2.459
   84SOPE   HN2 7724   6.588   0.945   2.529
   84SOPE   HN3 7725   6.719   1.047   2.519
   84SOPE   C12 7726   6.662   0.943   2.336
   84SOPE  H12A 7727   6.568   0.956   2.278
   84SOPE  H12B 7728   6.682   0.839   2.368
   84SOPE   C11 7729   6.795   1.000   2.265
   84SOPE  H11A 7730   6.786   1.111   2.256
   84SOPE  H11B 7731   6.807   0.956   2.164
   84SOPE     P 7732   0.174   0.822   2.313
   84SOPE   O13 7733   0.304   0.863   2.252
   84SOPE   O14 7734   0.089   0.732   2.232
   84SOPE   O12 7735   0.096   0.959   2.346
   84SOPE   O11 7736   0.188   0.753   2.456
   84SOPE    C1 7737   0.100   0.757   2.566
   84SOPE    HA 7738   0.074   0.653   2.595
   84SOPE    HB 7739   0.007   0.817   2.564
   84SOPE    C2 7740   0.175   0.818   2.689
   84SOPE    HS 7741   0.113   0.823   2.781
   84SOPE   O21 7742   0.235   0.945   2.656
   84SOPE   C21 7743   0.156   1.039   2.619
   84SOPE   O22 7744   0.033   1.042   2.627
   84SOPE   C22 7745   0.242   1.159   2.563
   84SOPE   H2R 7746   0.181   1.220   2.493
   84SOPE   H2S 7747   0.332   1.114   2.516
   84SOPE    C3 7748   0.292   0.731   2.735
   84SOPE    HX 7749   0.330   0.770   2.832
   84SOPE    HY 7750   0.385   0.747   2.675
   84SOPE   O31 7751   0.267   0.587   2.745
   84SOPE   C31 7752   0.195   0.551   2.855
   84SOPE   O32 7753   0.149   0.635   2.934
   84SOPE   C32 7754   0.188   0.403   2.864
   84SOPE   H2X 7755   0.244   0.363   2.776
   84SOPE   H2Y 7756   0.085   0.364   2.854
   84SOPE   C23 7757   0.283   1.241   2.694
   84SOPE   H3R 7758   0.202   1.244   2.770
   84SOPE   H3S 7759   0.298   1.346   2.662
   84SOPE   C24 7760   0.401   1.178   2.767
   84SOPE   H4R 7761   0.372   1.094   2.833
   84SOPE   H4S 7762   0.473   1.138   2.692
   84SOPE   C25 7763   0.465   1.285   2.859
   84SOPE   H5R 7764   0.503   1.370   2.798
   84SOPE   H5S 7765   0.376   1.322   2.915
   84SOPE   C26 7766   0.571   1.232   2.958
   84SOPE   H6R 7767   0.635   1.165   2.896
   84SOPE   H6S 7768   0.628   1.322   2.991
   84SOPE   C27 7769   0.511   1.146   3.076
   84SOPE   H7R 7770   0.430   1.209   3.120
   84SOPE   H7S 7771   0.472   1.052   3.031
   84SOPE   C28 7772   0.623   1.116   3.187
   84SOPE   H8R 7773   0.711   1.077   3.133
   84SOPE   H8S 7774   0.648   1.215   3.230
   84SOPE   C29 7775   0.571   1.018   3.284
   84SOPE   H91 7776   0.524   0.930   3.236
   84SOPE  C210 7777   0.572   1.041   3.412
   84SOPE  H101 7778   0.533   0.967   3.483
   84SOPE  C211 7779   0.624   1.163   3.474
   84SOPE  H11R 7780   0.547   1.243   3.465
   84SOPE  H11S 7781   0.714   1.202   3.421
   84SOPE  C212 7782   0.647   1.148   3.623
   84SOPE  H12R 7783   0.558   1.121   3.685
   84SOPE  H12S 7784   0.675   1.250   3.658
   84SOPE  C213 7785   0.771   1.056   3.656
   84SOPE  H13R 7786   0.860   1.090   3.599
   84SOPE  H13S 7787   0.752   0.947   3.643
   84SOPE  C214 7788   0.822   1.067   3.802
   84SOPE  H14R 7789   0.868   1.166   3.820
   84SOPE  H14S 7790   0.904   0.994   3.823
   84SOPE  C215 7791   0.717   1.047   3.910
   84SOPE  H15R 7792   0.629   0.986   3.880
   84SOPE  H15S 7793   0.677   1.142   3.952
   84SOPE  C216 7794   0.774   0.977   4.045
   84SOPE  H16R 7795   0.836   1.057   4.091
   84SOPE  H16S 7796   0.839   0.888   4.030
   84SOPE  C217 7797   0.666   0.943   4.145
   84SOPE  H17R 7798   0.590   1.024   4.149
   84SOPE  H17S 7799   0.707   0.960   4.247
   84SOPE  C218 7800   0.593   0.810   4.146
   84SOPE  H18R 7801   0.657   0.726   4.179
   84SOPE  H18S 7802   0.549   0.791   4.045
   84SOPE  H18T 7803   0.502   0.817   4.209
   84SOPE   C33 7804   0.265   0.349   2.988
   84SOPE   H3X 7805   0.365   0.396   2.990
   84SOPE   H3Y 7806   0.263   0.238   2.978
   84SOPE   C34 7807   0.199   0.402   3.117
   84SOPE   H4X 7808   0.097   0.361   3.123
   84SOPE   H4Y 7809   0.201   0.513   3.126
   84SOPE   C35 7810   0.278   0.353   3.243
   84SOPE   H5X 7811   0.380   0.398   3.243
   84SOPE   H5Y 7812   0.297   0.243   3.245
   84SOPE   C36 7813   0.208   0.374   3.379
   84SOPE   H6X 7814   0.106   0.331   3.369
   84SOPE   H6Y 7815   0.199   0.481   3.407
   84SOPE   C37 7816   0.261   0.284   3.486
   84SOPE   H7X 7817   0.367   0.314   3.499
   84SOPE   H7Y 7818   0.256   0.176   3.460
   84SOPE   C38 7819   0.186   0.311   3.621
   84SOPE   H8X 7820   0.081   0.275   3.612
   84SOPE   H8Y 7821   0.168   0.417   3.649
   84SOPE   C39 7822   0.261   0.245   3.745
   84SOPE   H9X 7823   0.350   0.306   3.769
   84SOPE   H9Y 7824   0.294   0.141   3.721
   84SOPE  C310 7825   0.168   0.248   3.866
   84SOPE  H10X 7826   0.078   0.184   3.852
   84SOPE  H10Y 7827   0.129   0.349   3.890
   84SOPE  C311 7828   0.240   0.185   3.986
   84SOPE  H11X 7829   0.301   0.098   3.954
   84SOPE  H11Y 7830   0.168   0.156   4.065
   84SOPE  C312 7831   0.338   0.272   4.067
   84SOPE  H12X 7832   0.428   0.311   4.014
   84SOPE  H12Y 7833   0.387   0.203   4.138
   84SOPE  C313 7834   0.273   0.397   4.131
   84SOPE  H13X 7835   0.224   0.455   4.050
   84SOPE  H13Y 7836   0.355   0.458   4.175
   84SOPE  C314 7837   0.175   0.358   4.244
   84SOPE  H14X 7838   0.237   0.309   4.323
   84SOPE  H14Y 7839   0.095   0.288   4.211
   84SOPE  C315 7840   0.121   0.477   4.316
   84SOPE  H15X 7841   0.189   0.564   4.330
   84SOPE  H15Y 7842   0.074   0.447   4.413
   84SOPE  C316 7843   0.005   0.543   4.237
   84SOPE  H16X 7844   0.040   0.554   4.132
   84SOPE  H16Y 7845   6.799   0.636   4.295
   84SOPE  C317 7846   6.691   0.461   4.228
   84SOPE  H17X 7847   6.659   0.409   4.321
   84SOPE  H17Y 7848   6.720   0.375   4.164
   84SOPE  C318 7849   6.578   0.550   4.173
   84SOPE  H18X 7850   6.490   0.483   4.173
   84SOPE  H18Y 7851   6.606   0.577   4.068
   84SOPE  H18Z 7852   6.566   0.638   4.240
   85SOPE     N 7853   5.359   4.906   2.242
   85SOPE   HN1 7854   5.435   4.973   2.266
   85SOPE   HN2 7855   5.398   4.864   2.155
   85SOPE   HN3 7856   5.268   4.951   2.221
   85SOPE   C12 7857   5.339   4.808   2.356
   85SOPE  H12A 7858   5.247   4.754   2.325
   85SOPE  H12B 7859   5.320   4.870   2.446
   85SOPE   C11 7860   5.457   4.709   2.376
   85SOPE  H11A 7861   5.423   4.647   2.462
   85SOPE  H11B 7862   5.542   4.770   2.411
   85SOPE     P 7863   5.386   4.518   2.209
   85SOPE   O13 7864   5.461   4.391   2.170
   85SOPE   O14 7865   5.299   4.584   2.114
   85SOPE   O12 7866   5.488   4.626   2.262
   85SOPE   O11 7867   5.297   4.494   2.336
   85SOPE    C1 7868   5.189   4.397   2.323
   85SOPE    HA 7869   5.215   4.318   2.249
   85SOPE    HB 7870   5.097   4.441   2.281
   85SOPE    C2 7871   5.141   4.337   2.455
   85SOPE    HS 7872   5.046   4.286   2.429
   85SOPE   O21 7873   5.128   4.435   2.555
   85SOPE   C21 7874   5.028   4.525   2.544
   85SOPE   O22 7875   4.942   4.522   2.457
   85SOPE   C22 7876   5.030   4.623   2.665
   85SOPE   H2R 7877   5.003   4.721   2.619
   85SOPE   H2S 7878   5.132   4.625   2.707
   85SOPE    C3 7879   5.243   4.229   2.503
   85SOPE    HX 7880   5.340   4.281   2.487
   85SOPE    HY 7881   5.246   4.144   2.432
   85SOPE   O31 7882   5.216   4.188   2.642
   85SOPE   C31 7883   5.119   4.087   2.652
   85SOPE   O32 7884   5.062   4.041   2.556
   85SOPE   C32 7885   5.089   4.047   2.800
   85SOPE   H2X 7886   5.009   4.121   2.825
   85SOPE   H2Y 7887   5.177   4.075   2.862
   85SOPE   C23 7888   4.925   4.588   2.768
   85SOPE   H3R 7889   4.827   4.584   2.715
   85SOPE   H3S 7890   4.928   4.668   2.845
   85SOPE   C24 7891   4.939   4.457   2.845
   85SOPE   H4R 7892   4.928   4.373   2.773
   85SOPE   H4S 7893   5.038   4.462   2.896
   85SOPE   C25 7894   4.837   4.446   2.963
   85SOPE   H5R 7895   4.824   4.544   3.014
   85SOPE   H5S 7896   4.735   4.421   2.927
   85SOPE   C26 7897   4.863   4.331   3.068
   85SOPE   H6R 7898   4.825   4.232   3.036
   85SOPE   H6S 7899   4.974   4.330   3.062
   85SOPE   C27 7900   4.811   4.370   3.210
   85SOPE   H7R 7901   4.847   4.473   3.234
   85SOPE   H7S 7902   4.700   4.372   3.206
   85SOPE   C28 7903   4.865   4.268   3.319
   85SOPE   H8R 7904   4.838   4.163   3.293
   85SOPE   H8S 7905   4.976   4.257   3.318
   85SOPE   C29 7906   4.806   4.322   3.446
   85SOPE   H91 7907   4.699   4.346   3.441
   85SOPE  C210 7908   4.880   4.331   3.562
   85SOPE  H101 7909   4.819   4.365   3.647
   85SOPE  C211 7910   5.017   4.280   3.598
   85SOPE  H11R 7911   5.086   4.262   3.512
   85SOPE  H11S 7912   4.996   4.183   3.647
   85SOPE  C212 7913   5.096   4.384   3.688
   85SOPE  H12R 7914   5.107   4.478   3.629
   85SOPE  H12S 7915   5.198   4.343   3.702
   85SOPE  C213 7916   5.033   4.406   3.827
   85SOPE  H13R 7917   4.985   4.308   3.851
   85SOPE  H13S 7918   4.948   4.477   3.828
   85SOPE  C214 7919   5.116   4.445   3.943
   85SOPE  H14R 7920   5.144   4.552   3.932
   85SOPE  H14S 7921   5.203   4.377   3.945
   85SOPE  C215 7922   5.041   4.423   4.076
   85SOPE  H15R 7923   5.005   4.319   4.088
   85SOPE  H15S 7924   4.946   4.481   4.080
   85SOPE  C216 7925   5.125   4.437   4.202
   85SOPE  H16R 7926   5.177   4.534   4.197
   85SOPE  H16S 7927   5.193   4.351   4.218
   85SOPE  C217 7928   5.018   4.445   4.311
   85SOPE  H17R 7929   4.954   4.357   4.289
   85SOPE  H17S 7930   4.955   4.535   4.295
   85SOPE  C218 7931   5.053   4.424   4.455
   85SOPE  H18R 7932   5.092   4.524   4.485
   85SOPE  H18S 7933   5.136   4.351   4.467
   85SOPE  H18T 7934   4.970   4.378   4.513
   85SOPE   C33 7935   5.054   3.896   2.844
   85SOPE   H3X 7936   5.109   3.826   2.777
   85SOPE   H3Y 7937   4.946   3.870   2.838
   85SOPE   C34 7938   5.111   3.871   2.988
   85SOPE   H4X 7939   5.220   3.893   2.983
   85SOPE   H4Y 7940   5.113   3.764   3.016
   85SOPE   C35 7941   5.027   3.945   3.094
   85SOPE   H5X 7942   4.924   3.920   3.059
   85SOPE   H5Y 7943   5.030   4.056   3.090
   85SOPE   C36 7944   5.030   3.888   3.236
   85SOPE   H6X 7945   5.044   3.778   3.232
   85SOPE   H6Y 7946   4.930   3.901   3.283
   85SOPE   C37 7947   5.135   3.954   3.321
   85SOPE   H7X 7948   5.135   4.064   3.306
   85SOPE   H7Y 7949   5.235   3.921   3.288
   85SOPE   C38 7950   5.121   3.902   3.474
   85SOPE   H8X 7951   5.110   3.792   3.467
   85SOPE   H8Y 7952   5.027   3.938   3.521
   85SOPE   C39 7953   5.235   3.945   3.560
   85SOPE   H9X 7954   5.243   4.055   3.546
   85SOPE   H9Y 7955   5.325   3.898   3.515
   85SOPE  C310 7956   5.209   3.898   3.709
   85SOPE  H10X 7957   5.238   3.790   3.710
   85SOPE  H10Y 7958   5.099   3.890   3.724
   85SOPE  C311 7959   5.284   3.972   3.815
   85SOPE  H11X 7960   5.250   4.077   3.832
   85SOPE  H11Y 7961   5.384   3.983   3.769
   85SOPE  C312 7962   5.309   3.897   3.942
   85SOPE  H12X 7963   5.380   3.950   4.008
   85SOPE  H12Y 7964   5.358   3.801   3.914
   85SOPE  C313 7965   5.186   3.850   4.017
   85SOPE  H13X 7966   5.224   3.783   4.096
   85SOPE  H13Y 7967   5.115   3.782   3.964
   85SOPE  C314 7968   5.111   3.956   4.091
   85SOPE  H14X 7969   5.056   4.015   4.014
   85SOPE  H14Y 7970   5.187   4.020   4.140
   85SOPE  C315 7971   5.013   3.889   4.187
   85SOPE  H15X 7972   5.083   3.838   4.257
   85SOPE  H15Y 7973   4.964   3.798   4.148
   85SOPE  C316 7974   4.929   3.995   4.259
   85SOPE  H16X 7975   4.857   4.040   4.187
   85SOPE  H16Y 7976   4.993   4.082   4.285
   85SOPE  C317 7977   4.855   3.958   4.387
   85SOPE  H17X 7978   4.925   3.913   4.461
   85SOPE  H17Y 7979   4.777   3.880   4.369
   85SOPE  C318 7980   4.780   4.074   4.450
   85SOPE  H18X 7981   4.703   4.118   4.383
   85SOPE  H18Y 7982   4.844   4.162   4.469
   85SOPE  H18Z 7983   4.722   4.041   4.540
   86SOPE     N 7984   5.488   1.760   2.284
   86SOPE   HN1 7985   5.587   1.756   2.313
   86SOPE   HN2 7986   5.478   1.847   2.228
   86SOPE   HN3 7987   5.424   1.775   2.365
   86SOPE   C12 7988   5.445   1.645   2.192
   86SOPE  H12A 7989   5.518   1.648   2.108
   86SOPE  H12B 7990   5.344   1.675   2.157
   86SOPE   C11 7991   5.458   1.507   2.264
   86SOPE  H11A 7992   5.419   1.432   2.191
   86SOPE  H11B 7993   5.396   1.506   2.356
   86SOPE     P 7994   5.639   1.378   2.410
   86SOPE   O13 7995   5.739   1.450   2.496
   86SOPE   O14 7996   5.684   1.252   2.345
   86SOPE   O12 7997   5.593   1.481   2.293
   86SOPE   O11 7998   5.509   1.352   2.489
   86SOPE    C1 7999   5.463   1.416   2.607
   86SOPE    HA 8000   5.357   1.449   2.611
   86SOPE    HB 8001   5.518   1.512   2.621
   86SOPE    C2 8002   5.462   1.333   2.742
   86SOPE    HS 8003   5.438   1.402   2.825
   86SOPE   O21 8004   5.581   1.266   2.763
   86SOPE   C21 8005   5.688   1.337   2.782
   86SOPE   O22 8006   5.688   1.463   2.791
   86SOPE   C22 8007   5.807   1.243   2.780
   86SOPE   H2R 8008   5.895   1.306   2.807
   86SOPE   H2S 8009   5.816   1.192   2.682
   86SOPE    C3 8010   5.365   1.216   2.746
   86SOPE    HX 8011   5.390   1.139   2.669
   86SOPE    HY 8012   5.264   1.246   2.712
   86SOPE   O31 8013   5.350   1.168   2.877
   86SOPE   C31 8014   5.269   1.058   2.884
   86SOPE   O32 8015   5.192   1.021   2.801
   86SOPE   C32 8016   5.265   0.992   3.016
   86SOPE   H2X 8017   5.228   0.888   2.998
   86SOPE   H2Y 8018   5.191   1.041   3.083
   86SOPE   C23 8019   5.794   1.141   2.889
   86SOPE   H3R 8020   5.882   1.073   2.888
   86SOPE   H3S 8021   5.710   1.071   2.871
   86SOPE   C24 8022   5.790   1.208   3.030
   86SOPE   H4R 8023   5.873   1.282   3.025
   86SOPE   H4S 8024   5.697   1.268   3.037
   86SOPE   C25 8025   5.801   1.108   3.136
   86SOPE   H5R 8026   5.720   1.032   3.130
   86SOPE   H5S 8027   5.895   1.049   3.129
   86SOPE   C26 8028   5.790   1.163   3.275
   86SOPE   H6R 8029   5.802   1.080   3.349
   86SOPE   H6S 8030   5.872   1.235   3.296
   86SOPE   C27 8031   5.653   1.203   3.316
   86SOPE   H7R 8032   5.628   1.283   3.243
   86SOPE   H7S 8033   5.580   1.122   3.296
   86SOPE   C28 8034   5.645   1.256   3.461
   86SOPE   H8R 8035   5.656   1.161   3.517
   86SOPE   H8S 8036   5.737   1.318   3.467
   86SOPE   C29 8037   5.514   1.332   3.491
   86SOPE   H91 8038   5.524   1.434   3.452
   86SOPE  C210 8039   5.409   1.293   3.564
   86SOPE  H101 8040   5.326   1.361   3.588
   86SOPE  C211 8041   5.407   1.157   3.646
   86SOPE  H11R 8042   5.489   1.089   3.613
   86SOPE  H11S 8043   5.316   1.098   3.622
   86SOPE  C212 8044   5.421   1.196   3.794
   86SOPE  H12R 8045   5.343   1.271   3.820
   86SOPE  H12S 8046   5.514   1.253   3.812
   86SOPE  C213 8047   5.413   1.088   3.896
   86SOPE  H13R 8048   5.481   1.004   3.870
   86SOPE  H13S 8049   5.313   1.039   3.892
   86SOPE  C214 8050   5.409   1.138   4.041
   86SOPE  H14R 8051   5.322   1.202   4.067
   86SOPE  H14S 8052   5.505   1.191   4.056
   86SOPE  C215 8053   5.410   1.015   4.141
   86SOPE  H15R 8054   5.511   0.972   4.153
   86SOPE  H15S 8055   5.335   0.938   4.115
   86SOPE  C216 8056   5.376   1.059   4.288
   86SOPE  H16R 8057   5.450   1.131   4.329
   86SOPE  H16S 8058   5.367   0.967   4.350
   86SOPE  C217 8059   5.245   1.131   4.291
   86SOPE  H17R 8060   5.167   1.075   4.235
   86SOPE  H17S 8061   5.253   1.233   4.247
   86SOPE  C218 8062   5.200   1.148   4.432
   86SOPE  H18R 8063   5.275   1.166   4.512
   86SOPE  H18S 8064   5.148   1.057   4.466
   86SOPE  H18T 8065   5.135   1.237   4.444
   86SOPE   C33 8066   5.404   0.984   3.091
   86SOPE   H3X 8067   5.390   1.071   3.159
   86SOPE   H3Y 8068   5.491   1.006   3.025
   86SOPE   C34 8069   5.415   0.860   3.169
   86SOPE   H4X 8070   5.514   0.846   3.217
   86SOPE   H4Y 8071   5.417   0.777   3.095
   86SOPE   C35 8072   5.303   0.851   3.277
   86SOPE   H5X 8073   5.237   0.770   3.240
   86SOPE   H5Y 8074   5.251   0.949   3.282
   86SOPE   C36 8075   5.362   0.819   3.415
   86SOPE   H6X 8076   5.431   0.897   3.454
   86SOPE   H6Y 8077   5.426   0.729   3.405
   86SOPE   C37 8078   5.249   0.798   3.520
   86SOPE   H7X 8079   5.188   0.716   3.477
   86SOPE   H7Y 8080   5.195   0.895   3.520
   86SOPE   C38 8081   5.287   0.765   3.670
   86SOPE   H8X 8082   5.366   0.836   3.703
   86SOPE   H8Y 8083   5.320   0.659   3.667
   86SOPE   C39 8084   5.172   0.775   3.768
   86SOPE   H9X 8085   5.087   0.704   3.752
   86SOPE   H9Y 8086   5.142   0.880   3.785
   86SOPE  C310 8087   5.233   0.732   3.899
   86SOPE  H10X 8088   5.328   0.782   3.928
   86SOPE  H10Y 8089   5.252   0.623   3.899
   86SOPE  C311 8090   5.142   0.761   4.020
   86SOPE  H11X 8091   5.042   0.721   3.994
   86SOPE  H11Y 8092   5.136   0.872   4.030
   86SOPE  C312 8093   5.185   0.694   4.144
   86SOPE  H12X 8094   5.292   0.709   4.169
   86SOPE  H12Y 8095   5.178   0.585   4.124
   86SOPE  C313 8096   5.088   0.724   4.263
   86SOPE  H13X 8097   4.987   0.702   4.219
   86SOPE  H13Y 8098   5.086   0.824   4.310
   86SOPE  C314 8099   5.103   0.637   4.386
   86SOPE  H14X 8100   5.124   0.528   4.375
   86SOPE  H14Y 8101   5.018   0.651   4.456
   86SOPE  C315 8102   5.217   0.692   4.478
   86SOPE  H15X 8103   5.198   0.801   4.483
   86SOPE  H15Y 8104   5.318   0.681   4.431
   86SOPE  C316 8105   5.215   0.622   4.619
   86SOPE  H16X 8106   5.221   0.511   4.614
   86SOPE  H16Y 8107   5.115   0.648   4.662
   86SOPE  C317 8108   5.330   0.664   4.712
   86SOPE  H17X 8109   5.320   0.771   4.739
   86SOPE  H17Y 8110   5.430   0.657   4.665
   86SOPE  C318 8111   5.331   0.582   4.842
   86SOPE  H18X 8112   5.228   0.576   4.882
   86SOPE  H18Y 8113   5.407   0.643   4.895
   86SOPE  H18Z 8114   5.367   0.478   4.839
   87SOPE     N 8115   6.299   0.357   2.511
   87SOPE   HN1 8116   6.353   0.421   2.449
   87SOPE   HN2 8117   6.309   0.259   2.477
   87SOPE   HN3 8118   6.198   0.375   2.490
   87SOPE   C12 8119   6.320   0.386   2.658
   87SOPE  H12A 8120   6.422   0.346   2.677
   87SOPE  H12B 8121   6.248   0.327   2.718
   87SOPE   C11 8122   6.294   0.535   2.685
   87SOPE  H11A 8123   6.311   0.557   2.793
   87SOPE  H11B 8124   6.185   0.544   2.666
   87SOPE     P 8125   6.516   0.673   2.638
   87SOPE   O13 8126   6.528   0.802   2.576
   87SOPE   O14 8127   6.623   0.576   2.603
   87SOPE   O12 8128   6.373   0.610   2.593
   87SOPE   O11 8129   6.499   0.687   2.791
   87SOPE    C1 8130   6.608   0.703   2.889
   87SOPE    HA 8131   6.637   0.810   2.898
   87SOPE    HB 8132   6.686   0.626   2.870
   87SOPE    C2 8133   6.558   0.667   3.031
   87SOPE    HS 8134   6.483   0.585   3.030
   87SOPE   O21 8135   6.507   0.793   3.095
   87SOPE   C21 8136   6.411   0.775   3.170
   87SOPE   O22 8137   6.356   0.672   3.202
   87SOPE   C22 8138   6.369   0.910   3.219
   87SOPE   H2R 8139   6.331   0.971   3.134
   87SOPE   H2S 8140   6.459   0.967   3.253
   87SOPE    C3 8141   6.690   0.625   3.106
   87SOPE    HX 8142   6.746   0.720   3.096
   87SOPE    HY 8143   6.749   0.543   3.058
   87SOPE   O31 8144   6.658   0.599   3.242
   87SOPE   C31 8145   6.614   0.474   3.269
   87SOPE   O32 8146   6.613   0.382   3.184
   87SOPE   C32 8147   6.583   0.465   3.417
   87SOPE   H2X 8148   6.489   0.518   3.441
   87SOPE   H2Y 8149   6.661   0.535   3.454
   87SOPE   C23 8150   6.265   0.890   3.332
   87SOPE   H3R 8151   6.301   0.825   3.414
   87SOPE   H3S 8152   6.174   0.845   3.287
   87SOPE   C24 8153   6.228   1.027   3.387
   87SOPE   H4R 8154   6.318   1.077   3.428
   87SOPE   H4S 8155   6.187   1.094   3.309
   87SOPE   C25 8156   6.132   1.021   3.504
   87SOPE   H5R 8157   6.043   0.959   3.481
   87SOPE   H5S 8158   6.175   0.968   3.591
   87SOPE   C26 8159   6.068   1.153   3.547
   87SOPE   H6R 8160   6.150   1.220   3.578
   87SOPE   H6S 8161   6.028   1.200   3.454
   87SOPE   C27 8162   5.973   1.142   3.669
   87SOPE   H7R 8163   5.882   1.092   3.629
   87SOPE   H7S 8164   6.016   1.075   3.747
   87SOPE   C28 8165   5.934   1.269   3.746
   87SOPE   H8R 8166   6.014   1.300   3.816
   87SOPE   H8S 8167   5.932   1.353   3.674
   87SOPE   C29 8168   5.802   1.244   3.816
   87SOPE   H91 8169   5.721   1.266   3.746
   87SOPE  C210 8170   5.775   1.209   3.939
   87SOPE  H101 8171   5.667   1.201   3.960
   87SOPE  C211 8172   5.870   1.182   4.052
   87SOPE  H11R 8173   5.977   1.187   4.020
   87SOPE  H11S 8174   5.860   1.074   4.078
   87SOPE  C212 8175   5.818   1.258   4.176
   87SOPE  H12R 8176   5.710   1.270   4.194
   87SOPE  H12S 8177   5.859   1.360   4.162
   87SOPE  C213 8178   5.871   1.207   4.308
   87SOPE  H13R 8179   5.978   1.196   4.281
   87SOPE  H13S 8180   5.825   1.111   4.340
   87SOPE  C214 8181   5.850   1.307   4.426
   87SOPE  H14R 8182   5.741   1.317   4.444
   87SOPE  H14S 8183   5.887   1.403   4.384
   87SOPE  C215 8184   5.928   1.268   4.558
   87SOPE  H15R 8185   5.875   1.178   4.597
   87SOPE  H15S 8186   5.906   1.343   4.636
   87SOPE  C216 8187   6.078   1.246   4.544
   87SOPE  H16R 8188   6.129   1.344   4.535
   87SOPE  H16S 8189   6.114   1.190   4.455
   87SOPE  C217 8190   6.128   1.190   4.681
   87SOPE  H17R 8191   6.103   1.083   4.697
   87SOPE  H17S 8192   6.079   1.254   4.757
   87SOPE  C218 8193   6.277   1.205   4.698
   87SOPE  H18R 8194   6.314   1.157   4.791
   87SOPE  H18S 8195   6.291   1.314   4.713
   87SOPE  H18T 8196   6.327   1.154   4.612
   87SOPE   C33 8197   6.569   0.325   3.484
   87SOPE   H3X 8198   6.649   0.258   3.446
   87SOPE   H3Y 8199   6.472   0.289   3.446
   87SOPE   C34 8200   6.567   0.325   3.636
   87SOPE   H4X 8201   6.671   0.338   3.672
   87SOPE   H4Y 8202   6.545   0.221   3.668
   87SOPE   C35 8203   6.488   0.433   3.708
   87SOPE   H5X 8204   6.384   0.443   3.671
   87SOPE   H5Y 8205   6.530   0.534   3.689
   87SOPE   C36 8206   6.459   0.410   3.855
   87SOPE   H6X 8207   6.419   0.503   3.900
   87SOPE   H6Y 8208   6.559   0.388   3.900
   87SOPE   C37 8209   6.361   0.295   3.884
   87SOPE   H7X 8210   6.395   0.214   3.816
   87SOPE   H7Y 8211   6.262   0.338   3.855
   87SOPE   C38 8212   6.348   0.262   4.028
   87SOPE   H8X 8213   6.329   0.357   4.082
   87SOPE   H8Y 8214   6.439   0.224   4.080
   87SOPE   C39 8215   6.228   0.169   4.059
   87SOPE   H9X 8216   6.230   0.076   3.999
   87SOPE   H9Y 8217   6.139   0.218   4.015
   87SOPE  C310 8218   6.212   0.147   4.215
   87SOPE  H10X 8219   6.209   0.250   4.259
   87SOPE  H10Y 8220   6.307   0.108   4.259
   87SOPE  C311 8221   6.088   0.064   4.238
   87SOPE  H11X 8222   6.099   6.784   4.181
   87SOPE  H11Y 8223   5.997   0.123   4.212
   87SOPE  C312 8224   6.081   0.007   4.381
   87SOPE  H12X 8225   6.146   6.734   4.399
   87SOPE  H12Y 8226   5.976   6.789   4.401
   87SOPE  C313 8227   6.115   0.113   4.488
   87SOPE  H13X 8228   6.215   0.151   4.458
   87SOPE  H13Y 8229   6.119   0.067   4.590
   87SOPE  C314 8230   6.001   0.223   4.487
   87SOPE  H14X 8231   5.907   0.178   4.524
   87SOPE  H14Y 8232   5.974   0.268   4.389
   87SOPE  C315 8233   6.050   0.340   4.589
   87SOPE  H15X 8234   5.980   0.427   4.587
   87SOPE  H15Y 8235   6.151   0.383   4.568
   87SOPE  C316 8236   6.045   0.297   4.739
   87SOPE  H16X 8237   6.102   0.205   4.763
   87SOPE  H16Y 8238   5.939   0.289   4.771
   87SOPE  C317 8239   6.086   0.406   4.839
   87SOPE  H17X 8240   6.024   0.497   4.825
   87SOPE  H17Y 8241   6.193   0.434   4.829
   87SOPE  C318 8242   6.070   0.366   4.988
   87SOPE  H18X 8243   5.960   0.353   5.000
   87SOPE  H18Y 8244   6.101   0.455   5.047
   87SOPE  H18Z 8245   6.129   0.274   5.005
   88SOPE     N 8246   0.317   6.245   2.076
   88SOPE   HN1 8247   0.358   6.306   2.150
   88SOPE   HN2 8248   0.253   6.299   2.013
   88SOPE   HN3 8249   0.267   6.166   2.121
   88SOPE   C12 8250   0.411   6.174   1.990
   88SOPE  H12A 8251   0.480   6.246   1.941
   88SOPE  H12B 8252   0.355   6.114   1.915
   88SOPE   C11 8253   0.493   6.081   2.076
   88SOPE  H11A 8254   0.564   6.026   2.011
   88SOPE  H11B 8255   0.413   6.011   2.109
   88SOPE     P 8256   0.691   6.202   2.211
   88SOPE   O13 8257   0.707   6.256   2.350
   88SOPE   O14 8258   0.710   6.303   2.108
   88SOPE   O12 8259   0.544   6.150   2.191
   88SOPE   O11 8260   0.788   6.082   2.190
   88SOPE    C1 8261   0.756   5.945   2.213
   88SOPE    HA 8262   0.765   5.886   2.119
   88SOPE    HB 8263   0.657   5.937   2.262
   88SOPE    C2 8264   0.859   5.879   2.305
   88SOPE    HS 8265   0.814   5.785   2.345
   88SOPE   O21 8266   0.883   5.973   2.417
   88SOPE   C21 8267   0.785   5.978   2.513
   88SOPE   O22 8268   0.694   5.901   2.520
   88SOPE   C22 8269   0.824   6.091   2.611
   88SOPE   H2R 8270   0.779   6.183   2.567
   88SOPE   H2S 8271   0.934   6.105   2.605
   88SOPE    C3 8272   0.985   5.835   2.232
   88SOPE    HX 8273   1.029   5.923   2.180
   88SOPE    HY 8274   0.962   5.760   2.154
   88SOPE   O31 8275   1.080   5.777   2.326
   88SOPE   C31 8276   1.175   5.864   2.384
   88SOPE   O32 8277   1.183   5.981   2.357
   88SOPE   C32 8278   1.261   5.792   2.481
   88SOPE   H2X 8279   1.340   5.743   2.421
   88SOPE   H2Y 8280   1.203   5.710   2.529
   88SOPE   C23 8281   0.777   6.068   2.759
   88SOPE   H3R 8282   0.666   6.064   2.763
   88SOPE   H3S 8283   0.806   6.161   2.811
   88SOPE   C24 8284   0.835   5.948   2.840
   88SOPE   H4R 8285   0.806   5.848   2.802
   88SOPE   H4S 8286   0.946   5.941   2.832
   88SOPE   C25 8287   0.802   5.957   2.994
   88SOPE   H5R 8288   0.856   6.043   3.039
   88SOPE   H5S 8289   0.692   5.972   2.999
   88SOPE   C26 8290   0.849   5.833   3.070
   88SOPE   H6R 8291   0.808   5.747   3.011
   88SOPE   H6S 8292   0.960   5.825   3.069
   88SOPE   C27 8293   0.799   5.835   3.210
   88SOPE   H7R 8294   0.797   5.942   3.240
   88SOPE   H7S 8295   0.695   5.797   3.217
   88SOPE   C28 8296   0.884   5.740   3.310
   88SOPE   H8R 8297   0.850   5.637   3.286
   88SOPE   H8S 8298   0.994   5.752   3.308
   88SOPE   C29 8299   0.850   5.760   3.460
   88SOPE   H91 8300   0.749   5.723   3.483
   88SOPE  C210 8301   0.913   5.836   3.550
   88SOPE  H101 8302   0.868   5.848   3.650
   88SOPE  C211 8303   1.052   5.902   3.529
   88SOPE  H11R 8304   1.063   5.991   3.594
   88SOPE  H11S 8305   1.068   5.933   3.424
   88SOPE  C212 8306   1.164   5.823   3.587
   88SOPE  H12R 8307   1.257   5.881   3.569
   88SOPE  H12S 8308   1.170   5.735   3.520
   88SOPE  C213 8309   1.146   5.789   3.732
   88SOPE  H13R 8310   1.081   5.700   3.734
   88SOPE  H13S 8311   1.076   5.862   3.778
   88SOPE  C214 8312   1.272   5.794   3.819
   88SOPE  H14R 8313   1.320   5.893   3.801
   88SOPE  H14S 8314   1.346   5.720   3.783
   88SOPE  C215 8315   1.237   5.779   3.964
   88SOPE  H15R 8316   1.170   5.689   3.966
   88SOPE  H15S 8317   1.175   5.862   4.005
   88SOPE  C216 8318   1.360   5.758   4.049
   88SOPE  H16R 8319   1.426   5.847   4.045
   88SOPE  H16S 8320   1.422   5.673   4.015
   88SOPE  C217 8321   1.324   5.725   4.191
   88SOPE  H17R 8322   1.260   5.635   4.185
   88SOPE  H17S 8323   1.251   5.794   4.239
   88SOPE  C218 8324   1.456   5.692   4.268
   88SOPE  H18R 8325   1.531   5.775   4.260
   88SOPE  H18S 8326   1.492   5.590   4.244
   88SOPE  H18T 8327   1.440   5.691   4.378
   88SOPE   C33 8328   1.320   5.871   2.596
   88SOPE   H3X 8329   1.389   5.951   2.561
   88SOPE   H3Y 8330   1.373   5.802   2.665
   88SOPE   C34 8331   1.210   5.925   2.681
   88SOPE   H4X 8332   1.128   5.851   2.673
   88SOPE   H4Y 8333   1.177   6.011   2.620
   88SOPE   C35 8334   1.252   5.976   2.823
   88SOPE   H5X 8335   1.183   6.052   2.865
   88SOPE   H5Y 8336   1.352   6.022   2.814
   88SOPE   C36 8337   1.254   5.851   2.919
   88SOPE   H6X 8338   1.321   5.776   2.874
   88SOPE   H6Y 8339   1.148   5.817   2.926
   88SOPE   C37 8340   1.307   5.892   3.054
   88SOPE   H7X 8341   1.253   5.980   3.095
   88SOPE   H7Y 8342   1.412   5.928   3.041
   88SOPE   C38 8343   1.312   5.782   3.163
   88SOPE   H8X 8344   1.365   5.695   3.116
   88SOPE   H8Y 8345   1.214   5.738   3.188
   88SOPE   C39 8346   1.380   5.823   3.293
   88SOPE   H9X 8347   1.299   5.883   3.339
   88SOPE   H9Y 8348   1.461   5.894   3.266
   88SOPE  C310 8349   1.421   5.707   3.385
   88SOPE  H10X 8350   1.482   5.637   3.323
   88SOPE  H10Y 8351   1.333   5.649   3.421
   88SOPE  C311 8352   1.503   5.743   3.512
   88SOPE  H11X 8353   1.438   5.805   3.578
   88SOPE  H11Y 8354   1.585   5.812   3.485
   88SOPE  C312 8355   1.530   5.625   3.596
   88SOPE  H12X 8356   1.582   5.550   3.534
   88SOPE  H12Y 8357   1.435   5.575   3.625
   88SOPE  C313 8358   1.623   5.658   3.711
   88SOPE  H13X 8359   1.561   5.730   3.769
   88SOPE  H13Y 8360   1.712   5.709   3.668
   88SOPE  C314 8361   1.661   5.536   3.801
   88SOPE  H14X 8362   1.588   5.455   3.821
   88SOPE  H14Y 8363   1.676   5.564   3.907
   88SOPE  C315 8364   1.794   5.474   3.758
   88SOPE  H15X 8365   1.862   5.554   3.721
   88SOPE  H15Y 8366   1.776   5.423   3.660
   88SOPE  C316 8367   1.868   5.386   3.855
   88SOPE  H16X 8368   1.815   5.290   3.876
   88SOPE  H16Y 8369   1.884   5.440   3.951
   88SOPE  C317 8370   2.013   5.351   3.815
   88SOPE  H17X 8371   2.028   5.296   3.720
   88SOPE  H17Y 8372   2.038   5.290   3.905
   88SOPE  C318 8373   2.104   5.476   3.829
   88SOPE  H18X 8374   2.070   5.546   3.908
   88SOPE  H18Y 8375   2.092   5.528   3.732
   88SOPE  H18Z 8376   2.208   5.439   3.846
   89SAPC     N 8377   4.833   3.603   6.929
   89SAPC   C12 8378   4.813   3.613   6.774
   89SAPC  H12A 8379   4.912   3.621   6.731
   89SAPC  H12B 8380   4.758   3.701   6.747
   89SAPC   C13 8381   4.942   3.703   6.961
   89SAPC  H13A 8382   4.909   3.806   6.967
   89SAPC  H13B 8383   4.975   3.676   7.061
   89SAPC  H13C 8384   5.034   3.692   6.906
   89SAPC   C14 8385   4.711   3.638   7.006
   89SAPC  H14A 8386   4.632   3.566   6.990
   89SAPC  H14B 8387   4.734   3.634   7.112
   89SAPC  H14C 8388   4.667   3.735   6.990
   89SAPC   C15 8389   4.879   3.466   6.958
   89SAPC  H15A 8390   4.928   3.459   7.054
   89SAPC  H15B 8391   4.790   3.404   6.963
   89SAPC  H15C 8392   4.949   3.428   6.886
   89SAPC   C11 8393   4.738   3.492   6.703
   89SAPC  H11A 8394   4.702   3.509   6.599
   89SAPC  H11B 8395   4.640   3.495   6.755
   89SAPC     P 8396   4.863   3.299   6.603
   89SAPC   O13 8397   4.970   3.393   6.561
   89SAPC   O14 8398   4.902   3.160   6.640
   89SAPC   O12 8399   4.796   3.366   6.727
   89SAPC   O11 8400   4.744   3.294   6.495
   89SAPC    C1 8401   4.619   3.236   6.524
   89SAPC    HA 8402   4.631   3.141   6.579
   89SAPC    HB 8403   4.557   3.305   6.585
   89SAPC    C2 8404   4.525   3.210   6.398
   89SAPC    HS 8405   4.429   3.162   6.428
   89SAPC   O21 8406   4.599   3.135   6.297
   89SAPC   C21 8407   4.638   3.011   6.334
   89SAPC   O22 8408   4.587   2.943   6.422
   89SAPC   C22 8409   4.756   2.967   6.252
   89SAPC   H2R 8410   4.727   2.988   6.147
   89SAPC   H2S 8411   4.840   3.027   6.294
   89SAPC    C3 8412   4.480   3.350   6.325
   89SAPC    HX 8413   4.576   3.402   6.307
   89SAPC    HY 8414   4.429   3.411   6.402
   89SAPC   O31 8415   4.393   3.329   6.211
   89SAPC   C31 8416   4.445   3.305   6.091
   89SAPC   O32 8417   4.556   3.322   6.055
   89SAPC   C32 8418   4.349   3.228   6.001
   89SAPC   H2X 8419   4.251   3.217   6.051
   89SAPC   H2Y 8420   4.395   3.128   5.984
   89SAPC   C23 8421   4.799   2.816   6.257
   89SAPC   H3R 8422   4.825   2.788   6.362
   89SAPC   H3S 8423   4.884   2.800   6.187
   89SAPC   C24 8424   4.685   2.725   6.201
   89SAPC   H4R 8425   4.670   2.749   6.093
   89SAPC   H4S 8426   4.589   2.744   6.254
   89SAPC   C25 8427   4.731   2.580   6.229
   89SAPC   H5R 8428   4.749   2.556   6.335
   89SAPC   C26 8429   4.758   2.487   6.134
   89SAPC   H6R 8430   4.798   2.390   6.168
   89SAPC   C27 8431   4.750   2.512   5.984
   89SAPC   H7R 8432   4.671   2.586   5.960
   89SAPC   H7S 8433   4.724   2.416   5.936
   89SAPC   C28 8434   4.882   2.556   5.928
   89SAPC   H8R 8435   4.953   2.605   5.997
   89SAPC   C29 8436   4.913   2.565   5.797
   89SAPC   H9R 8437   5.006   2.618   5.767
   89SAPC  C210 8438   4.828   2.526   5.676
   89SAPC  H10R 8439   4.754   2.450   5.710
   89SAPC  H10S 8440   4.893   2.476   5.601
   89SAPC  C211 8441   4.740   2.642   5.631
   89SAPC  H11R 8442   4.678   2.686   5.710
   89SAPC  C212 8443   4.715   2.670   5.503
   89SAPC  H12R 8444   4.653   2.756   5.476
   89SAPC  C213 8445   4.774   2.601   5.377
   89SAPC  H13R 8446   4.691   2.578   5.307
   89SAPC  H13S 8447   4.809   2.500   5.407
   89SAPC  C214 8448   4.897   2.671   5.328
   89SAPC  H14R 8449   4.967   2.678   5.413
   89SAPC  C215 8450   4.930   2.714   5.202
   89SAPC  H15R 8451   5.033   2.747   5.180
   89SAPC  C216 8452   4.835   2.715   5.087
   89SAPC  H16R 8453   4.836   2.815   5.038
   89SAPC  H16S 8454   4.732   2.707   5.125
   89SAPC  C217 8455   4.869   2.599   4.989
   89SAPC  H17R 8456   4.796   2.621   4.908
   89SAPC  H17S 8457   4.842   2.499   5.029
   89SAPC  C218 8458   5.012   2.601   4.936
   89SAPC  H18R 8459   5.088   2.586   5.016
   89SAPC  H18S 8460   5.032   2.696   4.882
   89SAPC  C219 8461   5.044   2.477   4.848
   89SAPC  H19R 8462   5.135   2.507   4.793
   89SAPC  H19S 8463   4.962   2.459   4.775
   89SAPC  C220 8464   5.074   2.347   4.921
   89SAPC  H20R 8465   5.121   2.369   5.019
   89SAPC  H20S 8466   5.142   2.290   4.854
   89SAPC  H20T 8467   4.979   2.293   4.941
   89SAPC   C33 8468   4.324   3.299   5.860
   89SAPC   H3X 8469   4.306   3.408   5.874
   89SAPC   H3Y 8470   4.234   3.248   5.820
   89SAPC   C34 8471   4.442   3.267   5.759
   89SAPC   H4X 8472   4.449   3.157   5.754
   89SAPC   H4Y 8473   4.535   3.303   5.809
   89SAPC   C35 8474   4.428   3.326   5.622
   89SAPC   H5X 8475   4.344   3.283   5.563
   89SAPC   H5Y 8476   4.513   3.303   5.555
   89SAPC   C36 8477   4.398   3.480   5.618
   89SAPC   H6X 8478   4.491   3.519   5.663
   89SAPC   H6Y 8479   4.314   3.512   5.684
   89SAPC   C37 8480   4.385   3.525   5.471
   89SAPC   H7X 8481   4.302   3.463   5.431
   89SAPC   H7Y 8482   4.478   3.492   5.420
   89SAPC   C38 8483   4.372   3.675   5.462
   89SAPC   H8X 8484   4.402   3.711   5.562
   89SAPC   H8Y 8485   4.262   3.689   5.449
   89SAPC   C39 8486   4.453   3.740   5.343
   89SAPC   H9X 8487   4.553   3.691   5.334
   89SAPC   H9Y 8488   4.466   3.847   5.369
   89SAPC  C310 8489   4.386   3.723   5.209
   89SAPC  H10X 8490   4.281   3.753   5.231
   89SAPC  H10Y 8491   4.376   3.616   5.181
   89SAPC  C311 8492   4.456   3.812   5.100
   89SAPC  H11X 8493   4.558   3.768   5.089
   89SAPC  H11Y 8494   4.462   3.915   5.141
   89SAPC  C312 8495   4.391   3.809   4.958
   89SAPC  H12X 8496   4.297   3.866   4.974
   89SAPC  H12Y 8497   4.363   3.702   4.945
   89SAPC  C313 8498   4.461   3.877   4.838
   89SAPC  H13X 8499   4.480   3.982   4.869
   89SAPC  H13Y 8500   4.384   3.865   4.759
   89SAPC  C314 8501   4.595   3.817   4.785
   89SAPC  H14X 8502   4.664   3.803   4.871
   89SAPC  H14Y 8503   4.646   3.898   4.729
   89SAPC  C315 8504   4.581   3.690   4.707
   89SAPC  H15X 8505   4.508   3.719   4.628
   89SAPC  H15Y 8506   4.524   3.614   4.764
   89SAPC  C316 8507   4.708   3.627   4.645
   89SAPC  H16X 8508   4.771   3.593   4.730
   89SAPC  H16Y 8509   4.763   3.704   4.587
   89SAPC  C317 8510   4.684   3.520   4.540
   89SAPC  H17X 8511   4.606   3.560   4.472
   89SAPC  H17Y 8512   4.658   3.431   4.602
   89SAPC  C318 8513   4.794   3.471   4.449
   89SAPC  H18X 8514   4.769   3.386   4.382
   89SAPC  H18Y 8515   4.885   3.445   4.507
   89SAPC  H18Z 8516   4.822   3.556   4.382
   90SAPC     N 8517   2.812   5.716   6.798
   90SAPC   C12 8518   2.919   5.623   6.744
   90SAPC  H12A 8519   2.872   5.526   6.738
   90SAPC  H12B 8520   3.004   5.625   6.811
   90SAPC   C13 8521   2.864   5.860   6.797
   90SAPC  H13A 8522   2.810   5.926   6.864
   90SAPC  H13B 8523   2.969   5.857   6.822
   90SAPC  H13C 8524   2.850   5.895   6.696
   90SAPC   C14 8525   2.690   5.700   6.708
   90SAPC  H14A 8526   2.722   5.707   6.605
   90SAPC  H14B 8527   2.641   5.606   6.726
   90SAPC  H14C 8528   2.622   5.781   6.729
   90SAPC   C15 8529   2.769   5.686   6.937
   90SAPC  H15A 8530   2.687   5.738   6.985
   90SAPC  H15B 8531   2.740   5.583   6.945
   90SAPC  H15C 8532   2.856   5.694   7.000
   90SAPC   C11 8533   2.981   5.645   6.605
   90SAPC  H11A 8534   2.896   5.635   6.534
   90SAPC  H11B 8535   3.041   5.555   6.577
   90SAPC     P 8536   3.199   5.777   6.661
   90SAPC   O13 8537   3.223   5.918   6.701
   90SAPC   O14 8538   3.227   5.673   6.764
   90SAPC   O12 8539   3.056   5.765   6.596
   90SAPC   O11 8540   3.283   5.760   6.534
   90SAPC    C1 8541   3.264   5.837   6.416
   90SAPC    HA 8542   3.154   5.835   6.395
   90SAPC    HB 8543   3.295   5.944   6.422
   90SAPC    C2 8544   3.338   5.773   6.292
   90SAPC    HS 8545   3.447   5.787   6.302
   90SAPC   O21 8546   3.278   5.821   6.165
   90SAPC   C21 8547   3.338   5.918   6.097
   90SAPC   O22 8548   3.429   5.989   6.137
   90SAPC   C22 8549   3.264   5.944   5.969
   90SAPC   H2R 8550   3.229   5.847   5.930
   90SAPC   H2S 8551   3.167   5.993   5.994
   90SAPC    C3 8552   3.316   5.618   6.289
   90SAPC    HX 8553   3.205   5.610   6.281
   90SAPC    HY 8554   3.345   5.570   6.384
   90SAPC   O31 8555   3.369   5.554   6.173
   90SAPC   C31 8556   3.505   5.543   6.171
   90SAPC   O32 8557   3.583   5.590   6.251
   90SAPC   C32 8558   3.546   5.470   6.050
   90SAPC   H2X 8559   3.534   5.361   6.066
   90SAPC   H2Y 8560   3.653   5.493   6.030
   90SAPC   C23 8561   3.340   6.024   5.868
   90SAPC   H3R 8562   3.440   5.982   5.842
   90SAPC   H3S 8563   3.356   6.125   5.910
   90SAPC   C24 8564   3.253   6.029   5.743
   90SAPC   H4R 8565   3.286   6.119   5.686
   90SAPC   H4S 8566   3.152   6.050   5.786
   90SAPC   C25 8567   3.264   5.906   5.658
   90SAPC   H5R 8568   3.229   5.814   5.705
   90SAPC   C26 8569   3.323   5.904   5.537
   90SAPC   H6R 8570   3.312   5.805   5.490
   90SAPC   C27 8571   3.380   6.012   5.450
   90SAPC   H7R 8572   3.462   5.983   5.381
   90SAPC   H7S 8573   3.422   6.092   5.515
   90SAPC   C28 8574   3.282   6.080   5.360
   90SAPC   H8R 8575   3.195   6.016   5.341
   90SAPC   C29 8576   3.291   6.203   5.302
   90SAPC   H9R 8577   3.215   6.227   5.226
   90SAPC  C210 8578   3.406   6.296   5.322
   90SAPC  H10R 8579   3.435   6.304   5.428
   90SAPC  H10S 8580   3.374   6.399   5.297
   90SAPC  C211 8581   3.527   6.242   5.244
   90SAPC  H11R 8582   3.565   6.145   5.280
   90SAPC  C212 8583   3.594   6.306   5.146
   90SAPC  H12R 8584   3.672   6.247   5.095
   90SAPC  C213 8585   3.555   6.435   5.081
   90SAPC  H13R 8586   3.482   6.489   5.146
   90SAPC  H13S 8587   3.503   6.439   4.983
   90SAPC  C214 8588   3.682   6.520   5.059
   90SAPC  H14R 8589   3.690   6.595   5.140
   90SAPC  C215 8590   3.762   6.525   4.949
   90SAPC  H15R 8591   3.855   6.583   4.964
   90SAPC  C216 8592   3.760   6.436   4.824
   90SAPC  H16R 8593   3.665   6.381   4.801
   90SAPC  H16S 8594   3.843   6.363   4.825
   90SAPC  C217 8595   3.784   6.512   4.682
   90SAPC  H17R 8596   3.691   6.568   4.658
   90SAPC  H17S 8597   3.798   6.424   4.617
   90SAPC  C218 8598   3.907   6.606   4.657
   90SAPC  H18R 8599   3.992   6.535   4.669
   90SAPC  H18S 8600   3.922   6.679   4.739
   90SAPC  C219 8601   3.920   6.675   4.524
   90SAPC  H19R 8602   3.854   6.764   4.520
   90SAPC  H19S 8603   3.895   6.599   4.447
   90SAPC  C220 8604   4.069   6.712   4.499
   90SAPC  H20R 8605   4.132   6.625   4.526
   90SAPC  H20S 8606   4.093   6.799   4.565
   90SAPC  H20T 8607   4.084   6.742   4.393
   90SAPC   C33 8608   3.462   5.522   5.929
   90SAPC   H3X 8609   3.478   5.631   5.926
   90SAPC   H3Y 8610   3.357   5.487   5.944
   90SAPC   C34 8611   3.504   5.459   5.797
   90SAPC   H4X 8612   3.478   5.351   5.787
   90SAPC   H4Y 8613   3.615   5.465   5.804
   90SAPC   C35 8614   3.450   5.531   5.667
   90SAPC   H5X 8615   3.447   5.641   5.682
   90SAPC   H5Y 8616   3.343   5.499   5.665
   90SAPC   C36 8617   3.531   5.489   5.542
   90SAPC   H6X 8618   3.510   5.382   5.523
   90SAPC   H6Y 8619   3.637   5.518   5.558
   90SAPC   C37 8620   3.471   5.573   5.422
   90SAPC   H7X 8621   3.489   5.681   5.442
   90SAPC   H7Y 8622   3.361   5.561   5.415
   90SAPC   C38 8623   3.534   5.531   5.285
   90SAPC   H8X 8624   3.541   5.420   5.284
   90SAPC   H8Y 8625   3.641   5.561   5.278
   90SAPC   C39 8626   3.450   5.581   5.164
   90SAPC   H9X 8627   3.433   5.690   5.153
   90SAPC   H9Y 8628   3.350   5.535   5.174
   90SAPC  C310 8629   3.505   5.530   5.029
   90SAPC  H10X 8630   3.525   5.422   5.043
   90SAPC  H10Y 8631   3.602   5.580   5.007
   90SAPC  C311 8632   3.408   5.551   4.903
   90SAPC  H11X 8633   3.407   5.662   4.889
   90SAPC  H11Y 8634   3.310   5.510   4.934
   90SAPC  C312 8635   3.467   5.504   4.772
   90SAPC  H12X 8636   3.489   5.395   4.783
   90SAPC  H12Y 8637   3.565   5.552   4.754
   90SAPC  C313 8638   3.392   5.540   4.650
   90SAPC  H13X 8639   3.327   5.451   4.634
   90SAPC  H13Y 8640   3.460   5.538   4.562
   90SAPC  C314 8641   3.318   5.677   4.653
   90SAPC  H14X 8642   3.394   5.758   4.664
   90SAPC  H14Y 8643   3.244   5.675   4.736
   90SAPC  C315 8644   3.224   5.703   4.526
   90SAPC  H15X 8645   3.153   5.618   4.525
   90SAPC  H15Y 8646   3.285   5.705   4.433
   90SAPC  C316 8647   3.138   5.830   4.528
   90SAPC  H16X 8648   3.210   5.915   4.523
   90SAPC  H16Y 8649   3.080   5.833   4.622
   90SAPC  C317 8650   3.051   5.865   4.402
   90SAPC  H17X 8651   3.124   5.879   4.320
   90SAPC  H17Y 8652   2.998   5.962   4.415
   90SAPC  C318 8653   2.936   5.769   4.382
   90SAPC  H18X 8654   2.851   5.813   4.325
   90SAPC  H18Y 8655   2.891   5.748   4.481
   90SAPC  H18Z 8656   2.963   5.674   4.331
   91SAPC     N 8657   1.649   5.846   6.815
   91SAPC   C12 8658   1.599   5.929   6.699
   91SAPC  H12A 8659   1.627   5.884   6.605
   91SAPC  H12B 8660   1.643   6.028   6.693
   91SAPC   C13 8661   1.626   5.916   6.948
   91SAPC  H13A 8662   1.666   5.863   7.032
   91SAPC  H13B 8663   1.666   6.016   6.960
   91SAPC  H13C 8664   1.520   5.909   6.965
   91SAPC   C14 8665   1.566   5.718   6.833
   91SAPC  H14A 8666   1.459   5.725   6.837
   91SAPC  H14B 8667   1.585   5.661   6.744
   91SAPC  H14C 8668   1.604   5.660   6.915
   91SAPC   C15 8669   1.793   5.811   6.812
   91SAPC  H15A 8670   1.821   5.743   6.891
   91SAPC  H15B 8671   1.823   5.760   6.722
   91SAPC  H15C 8672   1.861   5.894   6.822
   91SAPC   C11 8673   1.446   5.965   6.687
   91SAPC  H11A 8674   1.430   6.030   6.598
   91SAPC  H11B 8675   1.418   6.029   6.773
   91SAPC     P 8676   1.357   5.764   6.536
   91SAPC   O13 8677   1.493   5.709   6.520
   91SAPC   O14 8678   1.242   5.670   6.549
   91SAPC   O12 8679   1.358   5.851   6.672
   91SAPC   O11 8680   1.327   5.872   6.428
   91SAPC    C1 8681   1.402   5.872   6.305
   91SAPC    HA 8682   1.453   5.970   6.294
   91SAPC    HB 8683   1.491   5.805   6.308
   91SAPC    C2 8684   1.319   5.830   6.177
   91SAPC    HS 8685   1.398   5.825   6.099
   91SAPC   O21 8686   1.219   5.930   6.141
   91SAPC   C21 8687   1.273   6.030   6.085
   91SAPC   O22 8688   1.395   6.044   6.056
   91SAPC   C22 8689   1.176   6.137   6.040
   91SAPC   H2R 8690   1.071   6.115   6.069
   91SAPC   H2S 8691   1.208   6.228   6.094
   91SAPC    C3 8692   1.262   5.688   6.190
   91SAPC    HX 8693   1.194   5.688   6.278
   91SAPC    HY 8694   1.342   5.618   6.222
   91SAPC   O31 8695   1.195   5.653   6.069
   91SAPC   C31 8696   1.094   5.570   6.084
   91SAPC   O32 8697   1.040   5.539   6.191
   91SAPC   C32 8698   1.072   5.506   5.945
   91SAPC   H2X 8699   1.014   5.414   5.966
   91SAPC   H2Y 8700   1.166   5.470   5.899
   91SAPC   C23 8701   1.179   6.162   5.890
   91SAPC   H3R 8702   1.128   6.079   5.837
   91SAPC   H3S 8703   1.283   6.172   5.854
   91SAPC   C24 8704   1.095   6.286   5.831
   91SAPC   H4R 8705   1.000   6.302   5.885
   91SAPC   H4S 8706   1.073   6.252   5.727
   91SAPC   C25 8707   1.182   6.407   5.832
   91SAPC   H5R 8708   1.163   6.477   5.915
   91SAPC   C26 8709   1.268   6.443   5.739
   91SAPC   H6R 8710   1.315   6.542   5.751
   91SAPC   C27 8711   1.301   6.366   5.615
   91SAPC   H7R 8712   1.285   6.258   5.637
   91SAPC   H7S 8713   1.410   6.378   5.604
   91SAPC   C28 8714   1.228   6.411   5.493
   91SAPC   H8R 8715   1.122   6.426   5.519
   91SAPC   C29 8716   1.271   6.423   5.362
   91SAPC   H9R 8717   1.198   6.465   5.292
   91SAPC  C210 8718   1.409   6.397   5.311
   91SAPC  H10R 8719   1.475   6.363   5.394
   91SAPC  H10S 8720   1.445   6.491   5.264
   91SAPC  C211 8721   1.416   6.275   5.215
   91SAPC  H11R 8722   1.398   6.179   5.265
   91SAPC  C212 8723   1.429   6.269   5.076
   91SAPC  H12R 8724   1.425   6.172   5.023
   91SAPC  C213 8725   1.439   6.385   4.980
   91SAPC  H13R 8726   1.422   6.485   5.025
   91SAPC  H13S 8727   1.352   6.388   4.911
   91SAPC  C214 8728   1.566   6.371   4.906
   91SAPC  H14R 8729   1.653   6.395   4.968
   91SAPC  C215 8730   1.583   6.328   4.777
   91SAPC  H15R 8731   1.682   6.304   4.735
   91SAPC  C216 8732   1.475   6.278   4.685
   91SAPC  H16R 8733   1.397   6.356   4.680
   91SAPC  H16S 8734   1.437   6.183   4.729
   91SAPC  C217 8735   1.509   6.242   4.542
   91SAPC  H17R 8736   1.611   6.196   4.548
   91SAPC  H17S 8737   1.509   6.327   4.472
   91SAPC  C218 8738   1.411   6.143   4.479
   91SAPC  H18R 8739   1.416   6.046   4.532
   91SAPC  H18S 8740   1.441   6.119   4.375
   91SAPC  C219 8741   1.265   6.190   4.480
   91SAPC  H19R 8742   1.260   6.280   4.414
   91SAPC  H19S 8743   1.225   6.221   4.579
   91SAPC  C220 8744   1.181   6.071   4.432
   91SAPC  H20R 8745   1.193   5.997   4.514
   91SAPC  H20S 8746   1.211   6.038   4.330
   91SAPC  H20T 8747   1.079   6.113   4.421
   91SAPC   C33 8748   0.996   5.595   5.847
   91SAPC   H3X 8749   1.035   5.699   5.842
   91SAPC   H3Y 8750   0.886   5.612   5.858
   91SAPC   C34 8751   1.011   5.543   5.705
   91SAPC   H4X 8752   0.952   5.449   5.706
   91SAPC   H4Y 8753   1.115   5.525   5.672
   91SAPC   C35 8754   0.958   5.632   5.587
   91SAPC   H5X 8755   1.009   5.730   5.595
   91SAPC   H5Y 8756   0.849   5.648   5.604
   91SAPC   C36 8757   0.989   5.546   5.463
   91SAPC   H6X 8758   0.966   5.443   5.496
   91SAPC   H6Y 8759   1.093   5.559   5.426
   91SAPC   C37 8760   0.890   5.585   5.348
   91SAPC   H7X 8761   0.925   5.683   5.307
   91SAPC   H7Y 8762   0.792   5.611   5.392
   91SAPC   C38 8763   0.889   5.487   5.229
   91SAPC   H8X 8764   0.868   5.389   5.276
   91SAPC   H8Y 8765   0.991   5.471   5.188
   91SAPC   C39 8766   0.778   5.512   5.121
   91SAPC   H9X 8767   0.681   5.527   5.173
   91SAPC   H9Y 8768   0.760   5.421   5.060
   91SAPC  C310 8769   0.827   5.616   5.021
   91SAPC  H10X 8770   0.918   5.577   4.971
   91SAPC  H10Y 8771   0.858   5.709   5.073
   91SAPC  C311 8772   0.727   5.658   4.905
   91SAPC  H11X 8773   0.621   5.641   4.935
   91SAPC  H11Y 8774   0.738   5.598   4.812
   91SAPC  C312 8775   0.751   5.808   4.877
   91SAPC  H12X 8776   0.851   5.832   4.836
   91SAPC  H12Y 8777   0.751   5.852   4.979
   91SAPC  C313 8778   0.647   5.876   4.787
   91SAPC  H13X 8779   0.553   5.818   4.800
   91SAPC  H13Y 8780   0.672   5.866   4.680
   91SAPC  C314 8781   0.635   6.023   4.822
   91SAPC  H14X 8782   0.736   6.070   4.821
   91SAPC  H14Y 8783   0.604   6.040   4.928
   91SAPC  C315 8784   0.538   6.091   4.730
   91SAPC  H15X 8785   0.436   6.047   4.728
   91SAPC  H15Y 8786   0.586   6.071   4.632
   91SAPC  C316 8787   0.527   6.241   4.746
   91SAPC  H16X 8788   0.628   6.279   4.774
   91SAPC  H16Y 8789   0.464   6.275   4.831
   91SAPC  C317 8790   0.485   6.307   4.620
   91SAPC  H17X 8791   0.388   6.273   4.578
   91SAPC  H17Y 8792   0.554   6.285   4.535
   91SAPC  C318 8793   0.475   6.457   4.629
   91SAPC  H18X 8794   0.571   6.510   4.644
   91SAPC  H18Y 8795   0.396   6.481   4.703
   91SAPC  H18Z 8796   0.428   6.494   4.535
   92SAPC     N 8797   6.779   4.999   7.155
   92SAPC   C12 8798   6.789   4.866   7.074
   92SAPC  H12A 8799   6.714   4.795   7.107
   92SAPC  H12B 8800   0.071   4.819   7.083
   92SAPC   C13 8801   6.635   5.039   7.191
   92SAPC  H13A 8802   6.586   5.071   7.100
   92SAPC  H13B 8803   6.580   4.963   7.246
   92SAPC  H13C 8804   6.635   5.125   7.255
   92SAPC   C14 8805   0.021   4.961   7.281
   92SAPC  H14A 8806   0.128   4.945   7.275
   92SAPC  H14B 8807   0.018   5.042   7.353
   92SAPC  H14C 8808   6.787   4.875   7.324
   92SAPC   C15 8809   0.040   5.104   7.087
   92SAPC  H15A 8810   0.076   5.182   7.152
   92SAPC  H15B 8811   0.118   5.058   7.028
   92SAPC  H15C 8812   6.795   5.160   7.017
   92SAPC   C11 8813   6.754   4.878   6.916
   92SAPC  H11A 8814   6.789   4.803   6.842
   92SAPC  H11B 8815   0.008   4.960   6.885
   92SAPC     P 8816   6.512   4.812   6.864
   92SAPC   O13 8817   6.533   4.697   6.955
   92SAPC   O14 8818   6.375   4.867   6.870
   92SAPC   O12 8819   6.620   4.927   6.901
   92SAPC   O11 8820   6.554   4.771   6.721
   92SAPC    C1 8821   6.582   4.877   6.618
   92SAPC    HA 8822   6.639   4.965   6.655
   92SAPC    HB 8823   6.653   4.841   6.541
   92SAPC    C2 8824   6.455   4.927   6.549
   92SAPC    HS 8825   6.376   4.926   6.627
   92SAPC   O21 8826   6.424   4.834   6.437
   92SAPC   C21 8827   6.301   4.827   6.399
   92SAPC   O22 8828   6.206   4.865   6.463
   92SAPC   C22 8829   6.286   4.768   6.256
   92SAPC   H2R 8830   6.383   4.756   6.203
   92SAPC   H2S 8831   6.248   4.664   6.261
   92SAPC    C3 8832   6.471   5.069   6.506
   92SAPC    HX 8833   6.477   5.125   6.601
   92SAPC    HY 8834   6.381   5.116   6.460
   92SAPC   O31 8835   6.590   5.090   6.419
   92SAPC   C31 8836   6.562   5.122   6.291
   92SAPC   O32 8837   6.451   5.157   6.249
   92SAPC   C32 8838   6.691   5.119   6.210
   92SAPC   H2X 8839   6.748   5.029   6.242
   92SAPC   H2Y 8840   6.742   5.215   6.235
   92SAPC   C23 8841   6.183   4.846   6.166
   92SAPC   H3R 8842   6.206   4.954   6.179
   92SAPC   H3S 8843   6.076   4.840   6.198
   92SAPC   C24 8844   6.186   4.819   6.015
   92SAPC   H4R 8845   6.175   4.709   6.002
   92SAPC   H4S 8846   6.284   4.854   5.974
   92SAPC   C25 8847   6.070   4.890   5.945
   92SAPC   H5R 8848   6.023   4.972   6.001
   92SAPC   C26 8849   6.043   4.873   5.815
   92SAPC   H6R 8850   5.953   4.924   5.777
   92SAPC   C27 8851   6.103   4.773   5.711
   92SAPC   H7R 8852   6.026   4.705   5.670
   92SAPC   H7S 8853   6.176   4.715   5.772
   92SAPC   C28 8854   6.189   4.835   5.602
   92SAPC   H8R 8855   6.293   4.838   5.639
   92SAPC   C29 8856   6.154   4.895   5.485
   92SAPC   H9R 8857   6.235   4.944   5.430
   92SAPC  C210 8858   6.016   4.893   5.421
   92SAPC  H10R 8859   5.988   5.000   5.409
   92SAPC  H10S 8860   5.942   4.851   5.492
   92SAPC  C211 8861   6.013   4.811   5.292
   92SAPC  H11R 8862   5.934   4.737   5.274
   92SAPC  C212 8863   6.086   4.834   5.185
   92SAPC  H12R 8864   6.075   4.759   5.105
   92SAPC  C213 8865   6.186   4.946   5.155
   92SAPC  H13R 8866   6.273   4.941   5.224
   92SAPC  H13S 8867   6.135   5.040   5.183
   92SAPC  C214 8868   6.236   4.943   5.011
   92SAPC  H14R 8869   6.340   4.905   5.001
   92SAPC  C215 8870   6.170   4.965   4.893
   92SAPC  H15R 8871   6.234   4.966   4.803
   92SAPC  C216 8872   6.022   4.993   4.869
   92SAPC  H16R 8873   6.009   5.095   4.828
   92SAPC  H16S 8874   5.960   4.992   4.962
   92SAPC  C217 8875   5.965   4.900   4.768
   92SAPC  H17R 8876   5.855   4.913   4.754
   92SAPC  H17S 8877   5.980   4.799   4.812
   92SAPC  C218 8878   6.027   4.902   4.624
   92SAPC  H18R 8879   6.138   4.913   4.631
   92SAPC  H18S 8880   5.991   4.990   4.568
   92SAPC  C219 8881   6.000   4.774   4.539
   92SAPC  H19R 8882   6.065   4.687   4.563
   92SAPC  H19S 8883   6.037   4.803   4.439
   92SAPC  C220 8884   5.854   4.728   4.518
   92SAPC  H20R 8885   5.851   4.635   4.456
   92SAPC  H20S 8886   5.786   4.806   4.476
   92SAPC  H20T 8887   5.802   4.696   4.611
   92SAPC   C33 8888   6.651   5.120   6.059
   92SAPC   H3X 8889   6.734   5.149   5.991
   92SAPC   H3Y 8890   6.567   5.191   6.047
   92SAPC   C34 8891   6.600   4.984   6.011
   92SAPC   H4X 8892   6.545   4.936   6.095
   92SAPC   H4Y 8893   6.689   4.918   5.996
   92SAPC   C35 8894   6.516   4.991   5.889
   92SAPC   H5X 8895   6.417   5.035   5.914
   92SAPC   H5Y 8896   6.496   4.885   5.862
   92SAPC   C36 8897   6.571   5.056   5.752
   92SAPC   H6X 8898   6.667   5.002   5.738
   92SAPC   H6Y 8899   6.595   5.160   5.786
   92SAPC   C37 8900   6.488   5.040   5.625
   92SAPC   H7X 8901   6.390   5.089   5.639
   92SAPC   H7Y 8902   6.471   4.934   5.596
   92SAPC   C38 8903   6.565   5.105   5.509
   92SAPC   H8X 8904   6.664   5.062   5.483
   92SAPC   H8Y 8905   6.560   5.212   5.540
   92SAPC   C39 8906   6.493   5.094   5.377
   92SAPC   H9X 8907   6.388   5.130   5.389
   92SAPC   H9Y 8908   6.499   4.995   5.328
   92SAPC  C310 8909   6.550   5.203   5.283
   92SAPC  H10X 8910   6.654   5.228   5.312
   92SAPC  H10Y 8911   6.494   5.299   5.291
   92SAPC  C311 8912   6.544   5.162   5.143
   92SAPC  H11X 8913   6.454   5.100   5.122
   92SAPC  H11Y 8914   6.618   5.080   5.128
   92SAPC  C312 8915   6.578   5.281   5.049
   92SAPC  H12X 8916   6.677   5.321   5.079
   92SAPC  H12Y 8917   6.495   5.354   5.059
   92SAPC  C313 8918   6.588   5.219   4.907
   92SAPC  H13X 8919   6.518   5.134   4.897
   92SAPC  H13Y 8920   6.688   5.170   4.901
   92SAPC  C314 8921   6.576   5.311   4.797
   92SAPC  H14X 8922   6.618   5.277   4.700
   92SAPC  H14Y 8923   6.622   5.410   4.820
   92SAPC  C315 8924   6.425   5.337   4.776
   92SAPC  H15X 8925   6.414   5.437   4.728
   92SAPC  H15Y 8926   6.380   5.330   4.878
   92SAPC  C316 8927   6.359   5.228   4.686
   92SAPC  H16X 8928   6.252   5.217   4.713
   92SAPC  H16Y 8929   6.406   5.128   4.688
   92SAPC  C317 8930   6.354   5.285   4.535
   92SAPC  H17X 8931   6.456   5.299   4.494
   92SAPC  H17Y 8932   6.302   5.383   4.527
   92SAPC  C318 8933   6.281   5.189   4.437
   92SAPC  H18X 8934   6.252   5.249   4.348
   92SAPC  H18Y 8935   6.190   5.153   4.490
   92SAPC  H18Z 8936   6.352   5.112   4.401
   93SAPC     N 8937   1.925   6.421   6.770
   93SAPC   C12 8938   1.854   6.286   6.758
   93SAPC  H12A 8939   1.767   6.284   6.822
   93SAPC  H12B 8940   1.926   6.209   6.779
   93SAPC   C13 8941   2.055   6.416   6.697
   93SAPC  H13A 8942   2.027   6.380   6.599
   93SAPC  H13B 8943   2.097   6.514   6.682
   93SAPC  H13C 8944   2.122   6.344   6.741
   93SAPC   C14 8945   1.846   6.534   6.723
   93SAPC  H14A 8946   1.749   6.528   6.769
   93SAPC  H14B 8947   1.882   6.635   6.737
   93SAPC  H14C 8948   1.821   6.516   6.620
   93SAPC   C15 8949   1.957   6.450   6.914
   93SAPC  H15A 8950   1.993   6.550   6.935
   93SAPC  H15B 8951   1.872   6.439   6.981
   93SAPC  H15C 8952   2.030   6.375   6.940
   93SAPC   C11 8953   1.803   6.254   6.612
   93SAPC  H11A 8954   1.781   6.147   6.589
   93SAPC  H11B 8955   1.893   6.269   6.548
   93SAPC     P 8956   1.554   6.339   6.612
   93SAPC   O13 8957   1.538   6.237   6.718
   93SAPC   O14 8958   1.505   6.476   6.645
   93SAPC   O12 8959   1.706   6.348   6.569
   93SAPC   O11 8960   1.482   6.286   6.481
   93SAPC    C1 8961   1.559   6.243   6.371
   93SAPC    HA 8962   1.643   6.172   6.388
   93SAPC    HB 8963   1.493   6.183   6.303
   93SAPC    C2 8964   1.614   6.365   6.289
   93SAPC    HS 8965   1.667   6.438   6.354
   93SAPC   O21 8966   1.497   6.427   6.221
   93SAPC   C21 8967   1.521   6.555   6.183
   93SAPC   O22 8968   1.622   6.612   6.217
   93SAPC   C22 8969   1.407   6.618   6.100
   93SAPC   H2R 8970   1.414   6.564   6.003
   93SAPC   H2S 8971   1.310   6.583   6.140
   93SAPC    C3 8972   1.721   6.314   6.180
   93SAPC    HX 8973   1.798   6.251   6.231
   93SAPC    HY 8974   1.781   6.405   6.155
   93SAPC   O31 8975   1.664   6.234   6.074
   93SAPC   C31 8976   1.657   6.289   5.955
   93SAPC   O32 8977   1.666   6.409   5.929
   93SAPC   C32 8978   1.635   6.175   5.849
   93SAPC   H2X 8979   1.526   6.152   5.847
   93SAPC   H2Y 8980   1.710   6.095   5.867
   93SAPC   C23 8981   1.420   6.770   6.064
   93SAPC   H3R 8982   1.420   6.772   5.953
   93SAPC   H3S 8983   1.513   0.001   6.104
   93SAPC   C24 8984   1.304   0.032   6.127
   93SAPC   H4R 8985   1.310   0.141   6.111
   93SAPC   H4S 8986   1.322   0.015   6.235
   93SAPC   C25 8987   1.164   6.804   6.090
   93SAPC   H5R 8988   1.102   6.769   6.173
   93SAPC   C26 8989   1.118   0.021   5.964
   93SAPC   H6R 8990   1.013   6.814   5.941
   93SAPC   C27 8991   1.208   0.081   5.857
   93SAPC   H7R 8992   1.271   6.810   5.825
   93SAPC   H7S 8993   1.281   0.154   5.898
   93SAPC   C28 8994   1.146   0.157   5.745
   93SAPC   H8R 8995   1.092   0.251   5.763
   93SAPC   C29 8996   1.154   0.115   5.614
   93SAPC   H9R 8997   1.104   0.176   5.538
   93SAPC  C210 8998   1.224   6.808   5.554
   93SAPC  H10R 8999   1.184   6.776   5.456
   93SAPC  H10S 9000   1.202   6.727   5.626
   93SAPC  C211 9001   1.372   0.013   5.537
   93SAPC  H11R 9002   1.427   0.043   5.627
   93SAPC  C212 9003   1.443   6.810   5.420
   93SAPC  H12R 9004   1.548   0.025   5.430
   93SAPC  C213 9005   1.399   6.771   5.281
   93SAPC  H13R 9006   1.312   6.701   5.287
   93SAPC  H13S 9007   1.486   6.737   5.222
   93SAPC  C214 9008   1.344   0.071   5.205
   93SAPC  H14R 9009   1.335   0.170   5.252
   93SAPC  C215 9010   1.296   0.060   5.078
   93SAPC  H15R 9011   1.266   0.149   5.022
   93SAPC  C216 9012   1.310   6.755   4.994
   93SAPC  H16R 9013   1.235   6.678   5.022
   93SAPC  H16S 9014   1.418   6.728   4.982
   93SAPC  C217 9015   1.273   6.806   4.851
   93SAPC  H17R 9016   1.324   0.089   4.833
   93SAPC  H17S 9017   1.164   0.011   4.845
   93SAPC  C218 9018   1.327   6.718   4.737
   93SAPC  H18R 9019   1.276   6.620   4.731
   93SAPC  H18S 9020   1.434   6.691   4.754
   93SAPC  C219 9021   1.336   6.782   4.601
   93SAPC  H19R 9022   1.417   0.044   4.599
   93SAPC  H19S 9023   1.246   0.030   4.583
   93SAPC  C220 9024   1.351   6.676   4.486
   93SAPC  H20R 9025   1.439   6.612   4.506
   93SAPC  H20S 9026   1.364   6.732   4.390
   93SAPC  H20T 9027   1.259   6.615   4.472
   93SAPC   C33 9028   1.684   6.230   5.710
   93SAPC   H3X 9029   1.791   6.254   5.694
   93SAPC   H3Y 9030   1.626   6.319   5.678
   93SAPC   C34 9031   1.644   6.139   5.584
   93SAPC   H4X 9032   1.533   6.149   5.581
   93SAPC   H4Y 9033   1.662   6.030   5.599
   93SAPC   C35 9034   1.702   6.187   5.449
   93SAPC   H5X 9035   1.809   6.215   5.456
   93SAPC   H5Y 9036   1.649   6.279   5.417
   93SAPC   C36 9037   1.700   6.087   5.332
   93SAPC   H6X 9038   1.594   6.063   5.308
   93SAPC   H6Y 9039   1.745   5.991   5.367
   93SAPC   C37 9040   1.757   6.140   5.204
   93SAPC   H7X 9041   1.858   6.182   5.221
   93SAPC   H7Y 9042   1.698   6.233   5.190
   93SAPC   C38 9043   1.747   6.023   5.100
   93SAPC   H8X 9044   1.640   5.999   5.080
   93SAPC   H8Y 9045   1.810   5.943   5.144
   93SAPC   C39 9046   1.817   6.066   4.974
   93SAPC   H9X 9047   1.910   6.121   5.000
   93SAPC   H9Y 9048   1.749   6.128   4.912
   93SAPC  C310 9049   1.853   5.941   4.886
   93SAPC  H10X 9050   1.762   5.878   4.874
   93SAPC  H10Y 9051   1.936   5.879   4.925
   93SAPC  C311 9052   1.896   5.989   4.743
   93SAPC  H11X 9053   1.964   6.075   4.755
   93SAPC  H11Y 9054   1.807   6.037   4.696
   93SAPC  C312 9055   1.954   5.881   4.657
   93SAPC  H12X 9056   2.013   5.801   4.707
   93SAPC  H12Y 9057   2.019   5.936   4.585
   93SAPC  C313 9058   1.841   5.820   4.567
   93SAPC  H13X 9059   1.790   5.903   4.513
   93SAPC  H13Y 9060   1.776   5.752   4.625
   93SAPC  C314 9061   1.900   5.740   4.450
   93SAPC  H14X 9062   1.982   5.799   4.405
   93SAPC  H14Y 9063   1.818   5.730   4.375
   93SAPC  C315 9064   1.942   5.600   4.489
   93SAPC  H15X 9065   1.867   5.560   4.561
   93SAPC  H15Y 9066   2.044   5.600   4.531
   93SAPC  C316 9067   1.933   5.495   4.374
   93SAPC  H16X 9068   1.835   5.496   4.322
   93SAPC  H16Y 9069   1.961   5.395   4.415
   93SAPC  C317 9070   2.032   5.512   4.253
   93SAPC  H17X 9071   1.996   5.610   4.215
   93SAPC  H17Y 9072   2.009   5.428   4.184
   93SAPC  C318 9073   2.182   5.521   4.283
   93SAPC  H18X 9074   2.194   5.608   4.352
   93SAPC  H18Y 9075   2.254   5.527   4.198
   93SAPC  H18Z 9076   2.204   5.427   4.338
   94SAPC     N 9077   0.709   4.866   6.864
   94SAPC   C12 9078   0.679   4.884   6.717
   94SAPC  H12A 9079   0.727   4.801   6.666
   94SAPC  H12B 9080   0.732   4.971   6.682
   94SAPC   C13 9081   0.673   4.998   6.933
   94SAPC  H13A 9082   0.705   4.997   7.036
   94SAPC  H13B 9083   0.723   5.086   6.894
   94SAPC  H13C 9084   0.566   5.004   6.940
   94SAPC   C14 9085   0.631   4.750   6.913
   94SAPC  H14A 9086   0.663   4.666   6.854
   94SAPC  H14B 9087   0.661   4.729   7.015
   94SAPC  H14C 9088   0.525   4.759   6.892
   94SAPC   C15 9089   0.852   4.833   6.887
   94SAPC  H15A 9090   0.873   4.806   6.990
   94SAPC  H15B 9091   0.891   4.748   6.834
   94SAPC  H15C 9092   0.906   4.924   6.865
   94SAPC   C11 9093   0.533   4.898   6.659
   94SAPC  H11A 9094   0.480   4.807   6.694
   94SAPC  H11B 9095   0.537   4.908   6.548
   94SAPC     P 9096   0.441   5.138   6.637
   94SAPC   O13 9097   0.370   5.236   6.720
   94SAPC   O14 9098   0.574   5.184   6.599
   94SAPC   O12 9099   0.454   5.004   6.719
   94SAPC   O11 9100   0.356   5.107   6.512
   94SAPC    C1 9101   0.234   5.027   6.522
   94SAPC    HA 9102   0.222   4.969   6.616
   94SAPC    HB 9103   0.145   5.094   6.522
   94SAPC    C2 9104   0.218   4.928   6.405
   94SAPC    HS 9105   0.313   4.877   6.381
   94SAPC   O21 9106   0.183   5.005   6.294
   94SAPC   C21 9107   0.276   5.023   6.198
   94SAPC   O22 9108   0.378   4.963   6.177
   94SAPC   C22 9109   0.232   5.133   6.095
   94SAPC   H2R 9110   0.131   5.111   6.054
   94SAPC   H2S 9111   0.236   5.227   6.154
   94SAPC    C3 9112   0.106   4.818   6.427
   94SAPC    HX 9113   0.014   4.868   6.463
   94SAPC    HY 9114   0.147   4.760   6.513
   94SAPC   O31 9115   0.080   4.723   6.320
   94SAPC   C31 9116   6.813   4.625   6.356
   94SAPC   O32 9117   6.767   4.605   6.468
   94SAPC   C32 9118   6.777   4.538   6.225
   94SAPC   H2X 9119   6.770   4.431   6.254
   94SAPC   H2Y 9120   0.051   4.543   6.157
   94SAPC   C23 9121   0.334   5.136   5.973
   94SAPC   H3R 9122   0.323   5.041   5.917
   94SAPC   H3S 9123   0.438   5.140   6.012
   94SAPC   C24 9124   0.306   5.244   5.863
   94SAPC   H4R 9125   0.392   5.234   5.794
   94SAPC   H4S 9126   0.312   5.344   5.910
   94SAPC   C25 9127   0.174   5.218   5.803
   94SAPC   H5R 9128   0.087   5.230   5.869
   94SAPC   C26 9129   0.150   5.187   5.672
   94SAPC   H6R 9130   0.044   5.172   5.647
   94SAPC   C27 9131   0.248   5.176   5.558
   94SAPC   H7R 9132   0.279   5.069   5.553
   94SAPC   H7S 9133   0.346   5.215   5.593
   94SAPC   C28 9134   0.207   5.219   5.416
   94SAPC   H8R 9135   0.153   5.145   5.356
   94SAPC   C29 9136   0.263   5.321   5.348
   94SAPC   H9R 9137   0.229   5.337   5.245
   94SAPC  C210 9138   0.365   5.422   5.390
   94SAPC  H10R 9139   0.459   5.406   5.333
   94SAPC  H10S 9140   0.394   5.396   5.495
   94SAPC  C211 9141   0.332   5.565   5.377
   94SAPC  H11R 9142   0.301   5.622   5.466
   94SAPC  C212 9143   0.330   5.630   5.260
   94SAPC  H12R 9144   0.312   5.738   5.259
   94SAPC  C213 9145   0.355   5.573   5.119
   94SAPC  H13R 9146   0.443   5.505   5.125
   94SAPC  H13S 9147   0.390   5.656   5.054
   94SAPC  C214 9148   0.223   5.522   5.055
   94SAPC  H14R 9149   0.144   5.479   5.119
   94SAPC  C215 9150   0.213   5.518   4.917
   94SAPC  H15R 9151   0.122   5.481   4.868
   94SAPC  C216 9152   0.310   5.555   4.814
   94SAPC  H16R 9153   0.381   5.636   4.840
   94SAPC  H16S 9154   0.258   5.610   4.732
   94SAPC  C217 9155   0.395   5.444   4.752
   94SAPC  H17R 9156   0.326   5.371   4.706
   94SAPC  H17S 9157   0.456   5.389   4.827
   94SAPC  C218 9158   0.494   5.493   4.644
   94SAPC  H18R 9159   0.532   5.400   4.598
   94SAPC  H18S 9160   0.586   5.542   4.685
   94SAPC  C219 9161   0.443   5.590   4.532
   94SAPC  H19R 9162   0.393   5.676   4.581
   94SAPC  H19S 9163   0.361   5.541   4.476
   94SAPC  C220 9164   0.546   5.645   4.430
   94SAPC  H20R 9165   0.623   5.708   4.480
   94SAPC  H20S 9166   0.492   5.719   4.367
   94SAPC  H20T 9167   0.609   5.579   4.368
   94SAPC   C33 9168   6.657   4.586   6.147
   94SAPC   H3X 9169   6.649   4.696   6.133
   94SAPC   H3Y 9170   6.569   4.567   6.213
   94SAPC   C34 9171   6.633   4.514   6.015
   94SAPC   H4X 9172   6.616   4.410   6.051
   94SAPC   H4Y 9173   6.730   4.503   5.963
   94SAPC   C35 9174   6.526   4.576   5.924
   94SAPC   H5X 9175   6.540   4.686   5.918
   94SAPC   H5Y 9176   6.429   4.544   5.968
   94SAPC   C36 9177   6.531   4.510   5.781
   94SAPC   H6X 9178   6.534   4.400   5.790
   94SAPC   H6Y 9179   6.633   4.532   5.742
   94SAPC   C37 9180   6.425   4.544   5.677
   94SAPC   H7X 9181   6.417   4.654   5.680
   94SAPC   H7Y 9182   6.326   4.502   5.706
   94SAPC   C38 9183   6.468   4.513   5.533
   94SAPC   H8X 9184   6.429   4.412   5.510
   94SAPC   H8Y 9185   6.579   4.512   5.538
   94SAPC   C39 9186   6.423   4.613   5.435
   94SAPC   H9X 9187   6.484   4.706   5.427
   94SAPC   H9Y 9188   6.319   4.645   5.458
   94SAPC  C310 9189   6.436   4.552   5.291
   94SAPC  H10X 9190   6.382   4.456   5.273
   94SAPC  H10Y 9191   6.544   4.524   5.291
   94SAPC  C311 9192   6.428   4.652   5.169
   94SAPC  H11X 9193   6.506   4.729   5.183
   94SAPC  H11Y 9194   6.330   4.704   5.177
   94SAPC  C312 9195   6.428   4.572   5.041
   94SAPC  H12X 9196   6.328   4.537   5.008
   94SAPC  H12Y 9197   6.497   4.485   5.044
   94SAPC  C313 9198   6.468   4.646   4.911
   94SAPC  H13X 9199   6.396   4.728   4.889
   94SAPC  H13Y 9200   6.465   4.571   4.829
   94SAPC  C314 9201   6.612   4.709   4.906
   94SAPC  H14X 9202   6.683   4.625   4.916
   94SAPC  H14Y 9203   6.606   4.791   4.980
   94SAPC  C315 9204   6.658   4.770   4.771
   94SAPC  H15X 9205   6.686   4.698   4.692
   94SAPC  H15Y 9206   6.759   4.812   4.789
   94SAPC  C316 9207   6.568   4.880   4.709
   94SAPC  H16X 9208   6.538   4.953   4.787
   94SAPC  H16Y 9209   6.478   4.830   4.668
   94SAPC  C317 9210   6.642   4.960   4.595
   94SAPC  H17X 9211   6.718   5.024   4.644
   94SAPC  H17Y 9212   6.565   5.029   4.556
   94SAPC  C318 9213   6.712   4.877   4.486
   94SAPC  H18X 9214   6.645   4.803   4.437
   94SAPC  H18Y 9215   6.800   4.822   4.526
   94SAPC  H18Z 9216   6.747   4.949   4.408
   95SAPC     N 9217   3.777   5.756   1.667
   95SAPC   C12 9218   3.637   5.761   1.721
   95SAPC  H12A 9219   3.587   5.671   1.689
   95SAPC  H12B 9220   3.592   5.853   1.688
   95SAPC   C13 9221   3.848   5.628   1.709
   95SAPC  H13A 9222   3.955   5.641   1.700
   95SAPC  H13B 9223   3.818   5.597   1.808
   95SAPC  H13C 9224   3.822   5.553   1.636
   95SAPC   C14 9225   3.782   5.767   1.520
   95SAPC  H14A 9226   3.880   5.764   1.475
   95SAPC  H14B 9227   3.729   5.692   1.463
   95SAPC  H14C 9228   3.751   5.865   1.484
   95SAPC   C15 9229   3.837   5.876   1.723
   95SAPC  H15A 9230   3.781   5.965   1.696
   95SAPC  H15B 9231   3.829   5.871   1.831
   95SAPC  H15C 9232   3.939   5.895   1.693
   95SAPC   C11 9233   3.619   5.741   1.877
   95SAPC  H11A 9234   3.673   5.651   1.913
   95SAPC  H11B 9235   3.509   5.734   1.889
   95SAPC     P 9236   3.568   5.982   1.969
   95SAPC   O13 9237   3.619   6.073   2.074
   95SAPC   O14 9238   3.536   6.033   1.837
   95SAPC   O12 9239   3.662   5.858   1.956
   95SAPC   O11 9240   3.435   5.921   2.030
   95SAPC    C1 9241   3.433   5.843   2.150
   95SAPC    HA 9242   3.502   5.757   2.137
   95SAPC    HB 9243   3.456   5.906   2.238
   95SAPC    C2 9244   3.292   5.772   2.166
   95SAPC    HS 9245   3.267   5.744   2.062
   95SAPC   O21 9246   3.195   5.859   2.224
   95SAPC   C21 9247   3.084   5.897   2.162
   95SAPC   O22 9248   3.054   5.873   2.046
   95SAPC   C22 9249   3.007   5.982   2.263
   95SAPC   H2R 9250   2.983   5.931   2.359
   95SAPC   H2S 9251   3.076   6.063   2.292
   95SAPC    C3 9252   3.307   5.643   2.249
   95SAPC    HX 9253   3.385   5.588   2.192
   95SAPC    HY 9254   3.213   5.584   2.255
   95SAPC   O31 9255   3.367   5.667   2.377
   95SAPC   C31 9256   3.279   5.684   2.472
   95SAPC   O32 9257   3.161   5.645   2.474
   95SAPC   C32 9258   3.345   5.769   2.577
   95SAPC   H2X 9259   3.331   5.874   2.544
   95SAPC   H2Y 9260   3.455   5.754   2.570
   95SAPC   C23 9261   2.888   6.069   2.206
   95SAPC   H3R 9262   2.821   5.993   2.159
   95SAPC   H3S 9263   2.918   6.134   2.120
   95SAPC   C24 9264   2.798   6.142   2.316
   95SAPC   H4R 9265   2.844   6.239   2.344
   95SAPC   H4S 9266   2.804   6.078   2.407
   95SAPC   C25 9267   2.652   6.165   2.276
   95SAPC   H5R 9268   2.644   6.183   2.168
   95SAPC   C26 9269   2.546   6.145   2.356
   95SAPC   H6R 9270   2.448   6.145   2.307
   95SAPC   C27 9271   2.553   6.105   2.503
   95SAPC   H7R 9272   2.645   6.149   2.547
   95SAPC   H7S 9273   2.557   5.995   2.510
   95SAPC   C28 9274   2.423   6.134   2.577
   95SAPC   H8R 9275   2.342   6.126   2.503
   95SAPC   C29 9276   2.407   6.156   2.708
   95SAPC   H9R 9277   2.303   6.150   2.743
   95SAPC  C210 9278   2.516   6.150   2.821
   95SAPC  H10R 9279   2.609   6.202   2.790
   95SAPC  H10S 9280   2.549   6.046   2.842
   95SAPC  C211 9281   2.452   6.214   2.942
   95SAPC  H11R 9282   2.390   6.148   3.004
   95SAPC  C212 9283   2.456   6.340   2.975
   95SAPC  H12R 9284   2.385   6.355   3.057
   95SAPC  C213 9285   2.530   6.461   2.913
   95SAPC  H13R 9286   2.459   6.502   2.838
   95SAPC  H13S 9287   2.625   6.435   2.862
   95SAPC  C214 9288   2.545   6.579   3.009
   95SAPC  H14R 9289   2.472   6.661   2.997
   95SAPC  C215 9290   2.620   6.576   3.121
   95SAPC  H15R 9291   2.623   6.666   3.184
   95SAPC  C216 9292   2.705   6.462   3.162
   95SAPC  H16R 9293   2.769   6.428   3.077
   95SAPC  H16S 9294   2.650   6.370   3.191
   95SAPC  C217 9295   2.814   6.505   3.264
   95SAPC  H17R 9296   2.881   6.583   3.220
   95SAPC  H17S 9297   2.880   6.418   3.284
   95SAPC  C218 9298   2.772   6.548   3.404
   95SAPC  H18R 9299   2.686   6.618   3.397
   95SAPC  H18S 9300   2.862   6.600   3.444
   95SAPC  C219 9301   2.742   6.424   3.482
   95SAPC  H19R 9302   2.827   6.353   3.479
   95SAPC  H19S 9303   2.657   6.372   3.432
   95SAPC  C220 9304   2.709   6.442   3.627
   95SAPC  H20R 9305   2.640   6.524   3.656
   95SAPC  H20S 9306   2.802   6.481   3.675
   95SAPC  H20T 9307   2.683   6.344   3.671
   95SAPC   C33 9308   3.282   5.744   2.714
   95SAPC   H3X 9309   3.174   5.717   2.717
   95SAPC   H3Y 9310   3.298   5.830   2.782
   95SAPC   C34 9311   3.339   5.624   2.791
   95SAPC   H4X 9312   3.442   5.619   2.749
   95SAPC   H4Y 9313   3.296   5.526   2.762
   95SAPC   C35 9314   3.318   5.659   2.939
   95SAPC   H5X 9315   3.210   5.646   2.966
   95SAPC   H5Y 9316   3.347   5.763   2.964
   95SAPC   C36 9317   3.403   5.572   3.038
   95SAPC   H6X 9318   3.508   5.604   3.023
   95SAPC   H6Y 9319   3.386   5.465   3.010
   95SAPC   C37 9320   3.354   5.599   3.183
   95SAPC   H7X 9321   3.245   5.586   3.202
   95SAPC   H7Y 9322   3.386   5.701   3.214
   95SAPC   C38 9323   3.443   5.508   3.276
   95SAPC   H8X 9324   3.548   5.528   3.245
   95SAPC   H8Y 9325   3.427   5.401   3.253
   95SAPC   C39 9326   3.439   5.536   3.425
   95SAPC   H9X 9327   3.440   5.647   3.431
   95SAPC   H9Y 9328   3.529   5.493   3.475
   95SAPC  C310 9329   3.316   5.496   3.508
   95SAPC  H10X 9330   3.297   5.387   3.503
   95SAPC  H10Y 9331   3.228   5.538   3.455
   95SAPC  C311 9332   3.328   5.538   3.651
   95SAPC  H11X 9333   3.337   5.648   3.664
   95SAPC  H11Y 9334   3.424   5.499   3.692
   95SAPC  C312 9335   3.216   5.491   3.740
   95SAPC  H12X 9336   3.165   5.407   3.689
   95SAPC  H12Y 9337   3.145   5.576   3.749
   95SAPC  C313 9338   3.252   5.454   3.881
   95SAPC  H13X 9339   3.324   5.533   3.910
   95SAPC  H13Y 9340   3.311   5.360   3.887
   95SAPC  C314 9341   3.131   5.449   3.970
   95SAPC  H14X 9342   3.074   5.357   3.943
   95SAPC  H14Y 9343   3.061   5.535   3.963
   95SAPC  C315 9344   3.162   5.447   4.118
   95SAPC  H15X 9345   3.066   5.416   4.163
   95SAPC  H15Y 9346   3.189   5.546   4.160
   95SAPC  C316 9347   3.273   5.341   4.161
   95SAPC  H16X 9348   3.367   5.382   4.117
   95SAPC  H16Y 9349   3.258   5.242   4.113
   95SAPC  C317 9350   3.294   5.335   4.316
   95SAPC  H17X 9351   3.201   5.297   4.364
   95SAPC  H17Y 9352   3.304   5.443   4.340
   95SAPC  C318 9353   3.416   5.259   4.361
   95SAPC  H18X 9354   3.503   5.302   4.307
   95SAPC  H18Y 9355   3.403   5.152   4.331
   95SAPC  H18Z 9356   3.432   5.264   4.471
   96SAPC     N 9357   4.151   2.112   2.229
   96SAPC   C12 9358   4.017   2.062   2.172
   96SAPC  H12A 9359   3.962   2.146   2.132
   96SAPC  H12B 9360   3.961   2.003   2.243
   96SAPC   C13 9361   4.234   2.170   2.120
   96SAPC  H13A 9362   4.252   2.096   2.044
   96SAPC  H13B 9363   4.175   2.248   2.073
   96SAPC  H13C 9364   4.325   2.218   2.153
   96SAPC   C14 9365   4.124   2.220   2.340
   96SAPC  H14A 9366   4.079   2.295   2.277
   96SAPC  H14B 9367   4.063   2.182   2.420
   96SAPC  H14C 9368   4.219   2.262   2.370
   96SAPC   C15 9369   4.233   2.012   2.305
   96SAPC  H15A 9370   4.173   1.958   2.377
   96SAPC  H15B 9371   4.263   1.942   2.228
   96SAPC  H15C 9372   4.323   2.057   2.345
   96SAPC   C11 9373   4.036   1.957   2.057
   96SAPC  H11A 9374   4.088   2.011   1.975
   96SAPC  H11B 9375   3.935   1.924   2.026
   96SAPC     P 9376   4.068   1.720   2.145
   96SAPC   O13 9377   3.976   1.664   2.041
   96SAPC   O14 9378   4.169   1.637   2.201
   96SAPC   O12 9379   4.127   1.852   2.089
   96SAPC   O11 9380   3.981   1.784   2.265
   96SAPC    C1 9381   3.837   1.762   2.269
   96SAPC    HA 9382   3.788   1.766   2.169
   96SAPC    HB 9383   3.810   1.666   2.318
   96SAPC    C2 9384   3.772   1.875   2.343
   96SAPC    HS 9385   3.811   1.969   2.298
   96SAPC   O21 9386   3.819   1.862   2.476
   96SAPC   C21 9387   3.881   1.966   2.529
   96SAPC   O22 9388   3.903   2.070   2.472
   96SAPC   C22 9389   3.905   1.942   2.675
   96SAPC   H2R 9390   3.904   1.832   2.684
   96SAPC   H2S 9391   4.004   1.984   2.702
   96SAPC    C3 9392   3.612   1.882   2.347
   96SAPC    HX 9393   3.584   1.775   2.363
   96SAPC    HY 9394   3.586   1.921   2.246
   96SAPC   O31 9395   3.566   1.977   2.447
   96SAPC   C31 9396   3.468   1.932   2.525
   96SAPC   O32 9397   3.421   1.824   2.521
   96SAPC   C32 9398   3.420   2.039   2.625
   96SAPC   H2X 9399   3.319   2.064   2.586
   96SAPC   H2Y 9400   3.479   2.133   2.621
   96SAPC   C23 9401   3.796   1.989   2.778
   96SAPC   H3R 9402   3.797   1.920   2.866
   96SAPC   H3S 9403   3.697   2.001   2.730
   96SAPC   C24 9404   3.842   2.113   2.849
   96SAPC   H4R 9405   3.864   2.183   2.766
   96SAPC   H4S 9406   3.938   2.086   2.899
   96SAPC   C25 9407   3.737   2.164   2.938
   96SAPC   H5R 9408   3.673   2.235   2.883
   96SAPC   C26 9409   3.734   2.145   3.072
   96SAPC   H6R 9410   3.662   2.204   3.130
   96SAPC   C27 9411   3.825   2.055   3.149
   96SAPC   H7R 9412   3.908   2.115   3.192
   96SAPC   H7S 9413   3.865   1.978   3.079
   96SAPC   C28 9414   3.765   1.979   3.263
   96SAPC   H8R 9415   3.709   1.891   3.231
   96SAPC   C29 9416   3.734   2.021   3.383
   96SAPC   H9R 9417   3.704   1.943   3.455
   96SAPC  C210 9418   3.766   2.157   3.442
   96SAPC  H10R 9419   3.680   2.182   3.508
   96SAPC  H10S 9420   3.762   2.242   3.370
   96SAPC  C211 9421   3.897   2.155   3.513
   96SAPC  H11R 9422   3.989   2.165   3.454
   96SAPC  C212 9423   3.913   2.129   3.644
   96SAPC  H12R 9424   4.015   2.132   3.686
   96SAPC  C213 9425   3.799   2.104   3.744
   96SAPC  H13R 9426   3.700   2.094   3.696
   96SAPC  H13S 9427   3.775   2.202   3.791
   96SAPC  C214 9428   3.817   2.006   3.853
   96SAPC  H14R 9429   3.776   1.906   3.836
   96SAPC  C215 9430   3.901   2.025   3.954
   96SAPC  H15R 9431   3.917   1.943   4.026
   96SAPC  C216 9432   3.959   2.152   4.005
   96SAPC  H16R 9433   3.884   2.229   3.977
   96SAPC  H16S 9434   4.057   2.184   3.964
   96SAPC  C217 9435   3.980   2.162   4.156
   96SAPC  H17R 9436   4.031   2.075   4.201
   96SAPC  H17S 9437   3.886   2.191   4.209
   96SAPC  C218 9438   4.061   2.289   4.201
   96SAPC  H18R 9439   4.005   2.381   4.171
   96SAPC  H18S 9440   4.162   2.303   4.157
   96SAPC  C219 9441   4.091   2.291   4.348
   96SAPC  H19R 9442   4.170   2.217   4.374
   96SAPC  H19S 9443   3.999   2.257   4.399
   96SAPC  C220 9444   4.120   2.428   4.407
   96SAPC  H20R 9445   4.123   2.427   4.518
   96SAPC  H20S 9446   4.050   2.508   4.373
   96SAPC  H20T 9447   4.220   2.450   4.364
   96SAPC   C33 9448   3.415   1.987   2.774
   96SAPC   H3X 9449   3.513   1.987   2.825
   96SAPC   H3Y 9450   3.355   1.894   2.786
   96SAPC   C34 9451   3.336   2.085   2.872
   96SAPC   H4X 9452   3.229   2.083   2.843
   96SAPC   H4Y 9453   3.377   2.187   2.853
   96SAPC   C35 9454   3.361   2.044   3.016
   96SAPC   H5X 9455   3.462   2.083   3.042
   96SAPC   H5Y 9456   3.383   1.935   3.023
   96SAPC   C36 9457   3.278   2.104   3.131
   96SAPC   H6X 9458   3.171   2.079   3.122
   96SAPC   H6Y 9459   3.287   2.214   3.133
   96SAPC   C37 9460   3.325   2.065   3.268
   96SAPC   H7X 9461   3.434   2.067   3.289
   96SAPC   H7Y 9462   3.292   1.961   3.289
   96SAPC   C38 9463   3.263   2.158   3.378
   96SAPC   H8X 9464   3.155   2.135   3.382
   96SAPC   H8Y 9465   3.276   2.265   3.349
   96SAPC   C39 9466   3.332   2.119   3.511
   96SAPC   H9X 9467   3.429   2.173   3.514
   96SAPC   H9Y 9468   3.351   2.010   3.521
   96SAPC  C310 9469   3.259   2.157   3.644
   96SAPC  H10X 9470   3.164   2.102   3.633
   96SAPC  H10Y 9471   3.224   2.262   3.659
   96SAPC  C311 9472   3.312   2.109   3.778
   96SAPC  H11X 9473   3.421   2.132   3.778
   96SAPC  H11Y 9474   3.303   1.999   3.785
   96SAPC  C312 9475   3.253   2.181   3.897
   96SAPC  H12X 9476   3.143   2.197   3.893
   96SAPC  H12Y 9477   3.297   2.279   3.924
   96SAPC  C313 9478   3.257   2.090   4.025
   96SAPC  H13X 9479   3.190   2.005   4.001
   96SAPC  H13Y 9480   3.208   2.143   4.109
   96SAPC  C314 9481   3.408   2.059   4.051
   96SAPC  H14X 9482   3.467   2.153   4.050
   96SAPC  H14Y 9483   3.454   1.996   3.972
   96SAPC  C315 9484   3.437   1.980   4.178
   96SAPC  H15X 9485   3.546   1.960   4.175
   96SAPC  H15Y 9486   3.383   1.883   4.172
   96SAPC  C316 9487   3.407   2.060   4.309
   96SAPC  H16X 9488   3.297   2.055   4.318
   96SAPC  H16Y 9489   3.425   2.169   4.296
   96SAPC  C317 9490   3.477   2.022   4.444
   96SAPC  H17X 9491   3.435   2.085   4.525
   96SAPC  H17Y 9492   3.583   2.051   4.430
   96SAPC  C318 9493   3.471   1.874   4.484
   96SAPC  H18X 9494   3.509   1.855   4.587
   96SAPC  H18Y 9495   3.525   1.808   4.413
   96SAPC  H18Z 9496   3.365   1.842   4.479
   97SAPC     N 9497   3.517   0.022   2.264
   97SAPC   C12 9498   3.401   0.055   2.354
   97SAPC  H12A 9499   3.378   6.790   2.423
   97SAPC  H12B 9500   3.314   0.059   2.290
   97SAPC   C13 9501   3.486   6.719   2.173
   97SAPC  H13A 9502   3.569   6.686   2.113
   97SAPC  H13B 9503   3.445   6.638   2.233
   97SAPC  H13C 9504   3.410   6.748   2.102
   97SAPC   C14 9505   3.561   0.139   2.183
   97SAPC  H14A 9506   3.576   0.218   2.256
   97SAPC  H14B 9507   3.648   0.120   2.122
   97SAPC  H14C 9508   3.476   0.175   2.127
   97SAPC   C15 9509   3.635   6.783   2.344
   97SAPC  H15A 9510   3.724   6.748   2.294
   97SAPC  H15B 9511   3.687   0.039   2.406
   97SAPC  H15C 9512   3.608   6.697   2.404
   97SAPC   C11 9513   3.396   0.189   2.425
   97SAPC  H11A 9514   3.491   0.189   2.481
   97SAPC  H11B 9515   3.319   0.195   2.505
   97SAPC     P 9516   3.251   0.321   2.259
   97SAPC   O13 9517   3.272   0.381   2.124
   97SAPC   O14 9518   3.176   0.195   2.258
   97SAPC   O12 9519   3.390   0.293   2.334
   97SAPC   O11 9520   3.172   0.424   2.355
   97SAPC    C1 9521   3.245   0.529   2.431
   97SAPC    HA 9522   3.339   0.564   2.383
   97SAPC    HB 9523   3.179   0.618   2.428
   97SAPC    C2 9524   3.264   0.494   2.577
   97SAPC    HS 9525   3.334   0.408   2.584
   97SAPC   O21 9526   3.137   0.453   2.633
   97SAPC   C21 9527   3.133   0.348   2.716
   97SAPC   O22 9528   3.223   0.266   2.735
   97SAPC   C22 9529   2.994   0.331   2.771
   97SAPC   H2R 9530   2.965   0.415   2.838
   97SAPC   H2S 9531   2.933   0.334   2.678
   97SAPC    C3 9532   3.330   0.617   2.664
   97SAPC    HX 9533   3.278   0.711   2.636
   97SAPC    HY 9534   3.431   0.630   2.619
   97SAPC   O31 9535   3.319   0.599   2.805
   97SAPC   C31 9536   3.414   0.522   2.852
   97SAPC   O32 9537   3.496   0.467   2.779
   97SAPC   C32 9538   3.424   0.523   3.007
   97SAPC   H2X 9539   3.528   0.548   3.037
   97SAPC   H2Y 9540   3.409   0.415   3.032
   97SAPC   C23 9541   2.977   0.195   2.848
   97SAPC   H3R 9542   3.003   0.107   2.784
   97SAPC   H3S 9543   2.867   0.183   2.861
   97SAPC   C24 9544   3.049   0.190   2.984
   97SAPC   H4R 9545   3.037   0.287   3.037
   97SAPC   H4S 9546   3.158   0.187   2.965
   97SAPC   C25 9547   3.018   0.067   3.075
   97SAPC   H5R 9548   2.940   6.812   3.041
   97SAPC   C26 9549   3.090   0.040   3.188
   97SAPC   H6R 9550   3.056   6.760   3.233
   97SAPC   C27 9551   3.197   0.124   3.253
   97SAPC   H7R 9552   3.153   0.215   3.299
   97SAPC   H7S 9553   3.262   0.166   3.173
   97SAPC   C28 9554   3.281   0.057   3.361
   97SAPC   H8R 9555   3.384   0.030   3.333
   97SAPC   C29 9556   3.238   0.046   3.493
   97SAPC   H9R 9557   3.310   6.812   3.562
   97SAPC  C210 9558   3.102   0.088   3.544
   97SAPC  H10R 9559   3.035   0.143   3.475
   97SAPC  H10S 9560   3.125   0.160   3.625
   97SAPC  C211 9561   3.015   6.795   3.605
   97SAPC  H11R 9562   2.966   6.743   3.521
   97SAPC  C212 9563   3.026   6.742   3.728
   97SAPC  H12R 9564   2.951   6.675   3.773
   97SAPC  C213 9565   3.126   6.775   3.835
   97SAPC  H13R 9566   3.198   0.033   3.792
   97SAPC  H13S 9567   3.178   6.678   3.852
   97SAPC  C214 9568   3.043   0.018   3.950
   97SAPC  H14R 9569   2.983   0.104   3.916
   97SAPC  C215 9570   3.059   6.811   4.080
   97SAPC  H15R 9571   3.012   0.067   4.150
   97SAPC  C216 9572   3.145   6.711   4.151
   97SAPC  H16R 9573   3.233   6.680   4.090
   97SAPC  H16S 9574   3.082   6.620   4.160
   97SAPC  C217 9575   3.191   6.758   4.293
   97SAPC  H17R 9576   3.262   0.028   4.279
   97SAPC  H17S 9577   3.241   6.666   4.329
   97SAPC  C218 9578   3.079   6.807   4.388
   97SAPC  H18R 9579   3.008   6.729   4.421
   97SAPC  H18S 9580   3.018   0.070   4.336
   97SAPC  C219 9581   3.155   0.061   4.507
   97SAPC  H19R 9582   3.241   0.122   4.474
   97SAPC  H19S 9583   3.203   6.790   4.558
   97SAPC  C220 9584   3.051   0.129   4.597
   97SAPC  H20R 9585   3.088   0.111   4.700
   97SAPC  H20S 9586   2.951   0.082   4.585
   97SAPC  H20T 9587   3.044   0.236   4.567
   97SAPC   C33 9588   3.324   0.624   3.076
   97SAPC   H3X 9589   3.222   0.582   3.061
   97SAPC   H3Y 9590   3.345   0.717   3.020
   97SAPC   C34 9591   3.358   0.642   3.223
   97SAPC   H4X 9592   3.305   0.726   3.272
   97SAPC   H4Y 9593   3.465   0.670   3.239
   97SAPC   C35 9594   3.339   0.512   3.303
   97SAPC   H5X 9595   3.422   0.440   3.294
   97SAPC   H5Y 9596   3.239   0.474   3.272
   97SAPC   C36 9597   3.342   0.543   3.457
   97SAPC   H6X 9598   3.252   0.603   3.481
   97SAPC   H6Y 9599   3.430   0.600   3.494
   97SAPC   C37 9600   3.323   0.409   3.523
   97SAPC   H7X 9601   3.413   0.344   3.509
   97SAPC   H7Y 9602   3.240   0.351   3.477
   97SAPC   C38 9603   3.307   0.409   3.679
   97SAPC   H8X 9604   3.394   0.463   3.723
   97SAPC   H8Y 9605   3.314   0.302   3.708
   97SAPC   C39 9606   3.179   0.483   3.729
   97SAPC   H9X 9607   3.090   0.428   3.691
   97SAPC   H9Y 9608   3.156   0.588   3.700
   97SAPC  C310 9609   3.193   0.482   3.885
   97SAPC  H10X 9610   3.288   0.532   3.914
   97SAPC  H10Y 9611   3.201   0.373   3.905
   97SAPC  C311 9612   3.082   0.558   3.964
   97SAPC  H11X 9613   2.983   0.519   3.931
   97SAPC  H11Y 9614   3.096   0.662   3.928
   97SAPC  C312 9615   3.091   0.545   4.118
   97SAPC  H12X 9616   3.028   0.615   4.177
   97SAPC  H12Y 9617   3.192   0.589   4.131
   97SAPC  C313 9618   3.086   0.411   4.184
   97SAPC  H13X 9619   3.154   0.346   4.125
   97SAPC  H13Y 9620   2.985   0.369   4.167
   97SAPC  C314 9621   3.116   0.403   4.334
   97SAPC  H14X 9622   3.102   0.297   4.362
   97SAPC  H14Y 9623   3.034   0.463   4.378
   97SAPC  C315 9624   3.255   0.459   4.364
   97SAPC  H15X 9625   3.256   0.568   4.343
   97SAPC  H15Y 9626   3.323   0.395   4.305
   97SAPC  C316 9627   3.298   0.464   4.514
   97SAPC  H16X 9628   3.290   0.362   4.558
   97SAPC  H16Y 9629   3.234   0.530   4.576
   97SAPC  C317 9630   3.440   0.516   4.533
   97SAPC  H17X 9631   3.440   0.620   4.497
   97SAPC  H17Y 9632   3.521   0.462   4.479
   97SAPC  C318 9633   3.491   0.532   4.680
   97SAPC  H18X 9634   3.589   0.585   4.675
   97SAPC  H18Y 9635   3.506   0.433   4.728
   97SAPC  H18Z 9636   3.426   0.590   4.749
   98SAPC     N 9637   6.040   1.465   2.285
   98SAPC   C12 9638   6.033   1.401   2.420
   98SAPC  H12A 9639   5.930   1.406   2.453
   98SAPC  H12B 9640   6.102   1.450   2.486
   98SAPC   C13 9641   5.955   1.386   2.189
   98SAPC  H13A 9642   5.996   1.287   2.176
   98SAPC  H13B 9643   5.850   1.388   2.212
   98SAPC  H13C 9644   5.973   1.438   2.096
   98SAPC   C14 9645   5.986   1.599   2.285
   98SAPC  H14A 9646   6.037   1.667   2.353
   98SAPC  H14B 9647   5.988   1.659   2.195
   98SAPC  H14C 9648   5.886   1.603   2.324
   98SAPC   C15 9649   6.186   1.471   2.249
   98SAPC  H15A 9650   6.222   1.380   2.202
   98SAPC  H15B 9651   6.208   1.554   2.184
   98SAPC  H15C 9652   6.243   1.481   2.340
   98SAPC   C11 9653   6.068   1.252   2.422
   98SAPC  H11A 9654   6.010   1.190   2.349
   98SAPC  H11B 9655   6.035   1.223   2.524
   98SAPC     P 9656   6.310   1.267   2.513
   98SAPC   O13 9657   6.444   1.211   2.474
   98SAPC   O14 9658   6.306   1.412   2.534
   98SAPC   O12 9659   6.208   1.231   2.405
   98SAPC   O11 9660   6.245   1.193   2.633
   98SAPC    C1 9661   6.271   1.063   2.664
   98SAPC    HA 9662   6.239   0.995   2.582
   98SAPC    HB 9663   6.378   1.053   2.689
   98SAPC    C2 9664   6.213   1.026   2.807
   98SAPC    HS 9665   6.104   1.044   2.799
   98SAPC   O21 9666   6.272   1.111   2.905
   98SAPC   C21 9667   6.221   1.230   2.942
   98SAPC   O22 9668   6.114   1.281   2.917
   98SAPC   C22 9669   6.328   1.295   3.036
   98SAPC   H2R 9670   6.294   1.260   3.136
   98SAPC   H2S 9671   6.425   1.244   3.017
   98SAPC    C3 9672   6.238   0.877   2.852
   98SAPC    HX 9673   6.348   0.861   2.862
   98SAPC    HY 9674   6.215   0.809   2.768
   98SAPC   O31 9675   6.163   0.846   2.974
   98SAPC   C31 9676   6.037   0.799   2.957
   98SAPC   O32 9677   5.981   0.802   2.849
   98SAPC   C32 9678   5.967   0.748   3.085
   98SAPC   H2X 9679   5.983   0.825   3.163
   98SAPC   H2Y 9680   6.017   0.654   3.117
   98SAPC   C23 9681   6.346   1.446   3.016
   98SAPC   H3R 9682   6.242   1.487   3.014
   98SAPC   H3S 9683   6.391   1.463   2.916
   98SAPC   C24 9684   6.416   1.533   3.121
   98SAPC   H4R 9685   6.372   1.512   3.221
   98SAPC   H4S 9686   6.401   1.642   3.104
   98SAPC   C25 9687   6.555   1.490   3.134
   98SAPC   H5R 9688   6.623   1.520   3.053
   98SAPC   C26 9689   6.615   1.432   3.239
   98SAPC   H6R 9690   6.721   1.402   3.235
   98SAPC   C27 9691   6.522   1.393   3.357
   98SAPC   H7R 9692   6.434   1.335   3.323
   98SAPC   H7S 9693   6.488   1.481   3.415
   98SAPC   C28 9694   6.582   1.288   3.446
   98SAPC   H8R 9695   6.605   1.199   3.385
   98SAPC   C29 9696   6.611   1.283   3.572
   98SAPC   H9R 9697   6.687   1.212   3.607
   98SAPC  C210 9698   6.585   1.396   3.666
   98SAPC  H10R 9699   6.652   1.475   3.625
   98SAPC  H10S 9700   6.634   1.384   3.765
   98SAPC  C211 9701   6.441   1.449   3.683
   98SAPC  H11R 9702   6.415   1.530   3.613
   98SAPC  C212 9703   6.357   1.422   3.787
   98SAPC  H12R 9704   6.266   1.484   3.798
   98SAPC  C213 9705   6.389   1.325   3.897
   98SAPC  H13R 9706   6.471   1.375   3.953
   98SAPC  H13S 9707   6.434   1.227   3.868
   98SAPC  C214 9708   6.280   1.294   3.991
   98SAPC  H14R 9709   6.184   1.279   3.938
   98SAPC  C215 9710   6.285   1.277   4.124
   98SAPC  H15R 9711   6.195   1.251   4.182
   98SAPC  C216 9712   6.415   1.284   4.194
   98SAPC  H16R 9713   6.393   1.359   4.274
   98SAPC  H16S 9714   6.496   1.326   4.130
   98SAPC  C217 9715   6.466   1.155   4.273
   98SAPC  H17R 9716   6.491   1.073   4.203
   98SAPC  H17S 9717   6.391   1.109   4.340
   98SAPC  C218 9718   6.597   1.180   4.358
   98SAPC  H18R 9719   6.577   1.263   4.429
   98SAPC  H18S 9720   6.670   1.217   4.283
   98SAPC  C219 9721   6.656   1.051   4.429
   98SAPC  H19R 9722   6.685   0.971   4.357
   98SAPC  H19S 9723   6.591   1.009   4.508
   98SAPC  C220 9724   6.787   1.097   4.497
   98SAPC  H20R 9725   6.760   1.179   4.566
   98SAPC  H20S 9726   0.042   1.122   4.414
   98SAPC  H20T 9727   0.007   1.008   4.553
   98SAPC   C33 9728   5.820   0.725   3.070
   98SAPC   H3X 9729   5.787   0.641   3.004
   98SAPC   H3Y 9730   5.772   0.807   3.013
   98SAPC   C34 9731   5.746   0.718   3.210
   98SAPC   H4X 9732   5.647   0.669   3.198
   98SAPC   H4Y 9733   5.729   0.822   3.245
   98SAPC   C35 9734   5.816   0.644   3.323
   98SAPC   H5X 9735   5.902   0.702   3.363
   98SAPC   H5Y 9736   5.849   0.545   3.284
   98SAPC   C36 9737   5.721   0.618   3.437
   98SAPC   H6X 9738   5.760   0.527   3.487
   98SAPC   H6Y 9739   5.620   0.590   3.401
   98SAPC   C37 9740   5.720   0.739   3.539
   98SAPC   H7X 9741   5.638   0.808   3.509
   98SAPC   H7Y 9742   5.818   0.788   3.528
   98SAPC   C38 9743   5.690   0.690   3.688
   98SAPC   H8X 9744   5.758   0.607   3.717
   98SAPC   H8Y 9745   5.587   0.649   3.692
   98SAPC   C39 9746   5.697   0.810   3.787
   98SAPC   H9X 9747   5.635   0.900   3.769
   98SAPC   H9Y 9748   5.800   0.853   3.784
   98SAPC  C310 9749   5.673   0.752   3.928
   98SAPC  H10X 9750   5.718   0.651   3.937
   98SAPC  H10Y 9751   5.562   0.755   3.933
   98SAPC  C311 9752   5.734   0.834   4.043
   98SAPC  H11X 9753   5.686   0.934   4.044
   98SAPC  H11Y 9754   5.844   0.837   4.029
   98SAPC  C312 9755   5.708   0.760   4.176
   98SAPC  H12X 9756   5.765   0.666   4.162
   98SAPC  H12Y 9757   5.602   0.727   4.180
   98SAPC  C313 9758   5.735   0.845   4.301
   98SAPC  H13X 9759   5.654   0.920   4.305
   98SAPC  H13Y 9760   5.833   0.895   4.289
   98SAPC  C314 9761   5.714   0.756   4.427
   98SAPC  H14X 9762   5.778   0.666   4.414
   98SAPC  H14Y 9763   5.610   0.720   4.423
   98SAPC  C315 9764   5.741   0.837   4.551
   98SAPC  H15X 9765   5.668   0.920   4.564
   98SAPC  H15Y 9766   5.843   0.878   4.537
   98SAPC  C316 9767   5.751   0.751   4.674
   98SAPC  H16X 9768   5.803   0.657   4.648
   98SAPC  H16Y 9769   5.650   0.707   4.691
   98SAPC  C317 9770   5.807   0.807   4.809
   98SAPC  H17X 9771   5.759   0.900   4.848
   98SAPC  H17Y 9772   5.918   0.809   4.804
   98SAPC  C318 9773   5.778   0.705   4.913
   98SAPC  H18X 9774   5.817   0.731   5.014
   98SAPC  H18Y 9775   5.816   0.606   4.881
   98SAPC  H18Z 9776   5.667   0.698   4.922
   99SAPC     N 9777   3.032   4.352   1.862
   99SAPC   C12 9778   3.133   4.348   1.975
   99SAPC  H12A 9779   3.211   4.275   1.958
   99SAPC  H12B 9780   3.085   4.305   2.062
   99SAPC   C13 9781   3.100   4.379   1.726
   99SAPC  H13A 9782   3.021   4.391   1.654
   99SAPC  H13B 9783   3.165   4.465   1.737
   99SAPC  H13C 9784   3.153   4.294   1.685
   99SAPC   C14 9785   2.973   4.216   1.834
   99SAPC  H14A 9786   2.911   4.191   1.919
   99SAPC  H14B 9787   2.920   4.206   1.741
   99SAPC  H14C 9788   3.051   4.142   1.829
   99SAPC   C15 9789   2.925   4.454   1.873
   99SAPC  H15A 9790   2.855   4.435   1.953
   99SAPC  H15B 9791   2.963   4.552   1.897
   99SAPC  H15C 9792   2.863   4.466   1.785
   99SAPC   C11 9793   3.188   4.480   2.023
   99SAPC  H11A 9794   3.219   4.475   2.130
   99SAPC  H11B 9795   3.117   4.565   2.030
   99SAPC     P 9796   3.434   4.437   1.935
   99SAPC   O13 9797   3.439   4.314   2.023
   99SAPC   O14 9798   3.463   4.414   1.791
   99SAPC   O12 9799   3.298   4.522   1.947
   99SAPC   O11 9800   3.541   4.537   1.997
   99SAPC    C1 9801   3.513   4.670   2.043
   99SAPC    HA 9802   3.591   4.743   2.014
   99SAPC    HB 9803   3.427   4.713   1.986
   99SAPC    C2 9804   3.484   4.667   2.193
   99SAPC    HS 9805   3.419   4.577   2.203
   99SAPC   O21 9806   3.417   4.791   2.229
   99SAPC   C21 9807   3.288   4.785   2.264
   99SAPC   O22 9808   3.221   4.687   2.274
   99SAPC   C22 9809   3.234   4.922   2.287
   99SAPC   H2R 9810   3.312   5.001   2.295
   99SAPC   H2S 9811   3.170   4.939   2.198
   99SAPC    C3 9812   3.614   4.655   2.279
   99SAPC    HX 9813   3.665   4.754   2.280
   99SAPC    HY 9814   3.688   4.581   2.242
   99SAPC   O31 9815   3.586   4.621   2.421
   99SAPC   C31 9816   3.690   4.582   2.496
   99SAPC   O32 9817   3.806   4.589   2.457
   99SAPC   C32 9818   3.649   4.543   2.631
   99SAPC   H2X 9819   3.724   4.581   2.703
   99SAPC   H2Y 9820   3.642   4.432   2.633
   99SAPC   C23 9821   3.150   4.923   2.421
   99SAPC   H3R 9822   3.069   4.847   2.417
   99SAPC   H3S 9823   3.105   5.025   2.433
   99SAPC   C24 9824   3.240   4.903   2.545
   99SAPC   H4R 9825   3.331   4.966   2.548
   99SAPC   H4S 9826   3.281   4.800   2.546
   99SAPC   C25 9827   3.144   4.925   2.659
   99SAPC   H5R 9828   3.076   4.842   2.684
   99SAPC   C26 9829   3.118   5.047   2.714
   99SAPC   H6R 9830   3.031   5.060   2.780
   99SAPC   C27 9831   3.183   5.178   2.670
   99SAPC   H7R 9832   3.258   5.168   2.587
   99SAPC   H7S 9833   3.247   5.219   2.751
   99SAPC   C28 9834   3.092   5.284   2.613
   99SAPC   H8R 9835   3.073   5.289   2.505
   99SAPC   C29 9836   3.016   5.370   2.680
   99SAPC   H9R 9837   2.973   5.455   2.624
   99SAPC  C210 9838   3.003   5.394   2.833
   99SAPC  H10R 9839   3.002   5.504   2.847
   99SAPC  H10S 9840   3.095   5.357   2.882
   99SAPC  C211 9841   2.893   5.332   2.908
   99SAPC  H11R 9842   2.818   5.278   2.848
   99SAPC  C212 9843   2.883   5.322   3.041
   99SAPC  H12R 9844   2.782   5.288   3.069
   99SAPC  C213 9845   2.964   5.386   3.150
   99SAPC  H13R 9846   2.896   5.439   3.220
   99SAPC  H13S 9847   3.024   5.467   3.104
   99SAPC  C214 9848   3.060   5.285   3.208
   99SAPC  H14R 9849   3.162   5.289   3.166
   99SAPC  C215 9850   3.033   5.193   3.301
   99SAPC  H15R 9851   3.108   5.117   3.328
   99SAPC  C216 9852   2.913   5.192   3.390
   99SAPC  H16R 9853   2.830   5.150   3.329
   99SAPC  H16S 9854   2.886   5.298   3.412
   99SAPC  C217 9855   2.928   5.119   3.529
   99SAPC  H17R 9856   3.018   5.150   3.586
   99SAPC  H17S 9857   2.947   5.011   3.510
   99SAPC  C218 9858   2.801   5.138   3.621
   99SAPC  H18R 9859   2.708   5.102   3.570
   99SAPC  H18S 9860   2.778   5.244   3.644
   99SAPC  C219 9861   2.808   5.068   3.759
   99SAPC  H19R 9862   2.748   5.131   3.828
   99SAPC  H19S 9863   2.914   5.078   3.794
   99SAPC  C220 9864   2.765   4.920   3.764
   99SAPC  H20R 9865   2.661   4.921   3.724
   99SAPC  H20S 9866   2.769   4.880   3.868
   99SAPC  H20T 9867   2.823   4.850   3.701
   99SAPC   C33 9868   3.507   4.603   2.674
   99SAPC   H3X 9869   3.438   4.529   2.628
   99SAPC   H3Y 9870   3.488   4.706   2.635
   99SAPC   C34 9871   3.490   4.608   2.826
   99SAPC   H4X 9872   3.574   4.667   2.867
   99SAPC   H4Y 9873   3.497   4.510   2.879
   99SAPC   C35 9874   3.352   4.673   2.869
   99SAPC   H5X 9875   3.265   4.605   2.859
   99SAPC   H5Y 9876   3.329   4.757   2.800
   99SAPC   C36 9877   3.352   4.724   3.016
   99SAPC   H6X 9878   3.444   4.784   3.031
   99SAPC   H6Y 9879   3.356   4.637   3.085
   99SAPC   C37 9880   3.235   4.816   3.053
   99SAPC   H7X 9881   3.238   4.906   2.989
   99SAPC   H7Y 9882   3.258   4.840   3.159
   99SAPC   C38 9883   3.097   4.756   3.043
   99SAPC   H8X 9884   3.064   4.711   2.948
   99SAPC   H8Y 9885   3.020   4.833   3.067
   99SAPC   C39 9886   3.075   4.652   3.157
   99SAPC   H9X 9887   3.142   4.564   3.153
   99SAPC   H9Y 9888   2.970   4.616   3.151
   99SAPC  C310 9889   3.084   4.710   3.301
   99SAPC  H10X 9890   3.007   4.788   3.314
   99SAPC  H10Y 9891   3.180   4.758   3.330
   99SAPC  C311 9892   3.057   4.597   3.400
   99SAPC  H11X 9893   3.127   4.514   3.377
   99SAPC  H11Y 9894   2.950   4.571   3.384
   99SAPC  C312 9895   3.074   4.640   3.552
   99SAPC  H12X 9896   3.026   4.736   3.579
   99SAPC  H12Y 9897   3.180   4.661   3.577
   99SAPC  C313 9898   3.032   4.528   3.646
   99SAPC  H13X 9899   3.099   4.441   3.633
   99SAPC  H13Y 9900   2.928   4.492   3.628
   99SAPC  C314 9901   3.046   4.571   3.791
   99SAPC  H14X 9902   2.988   4.665   3.800
   99SAPC  H14Y 9903   3.151   4.594   3.816
   99SAPC  C315 9904   2.976   4.474   3.883
   99SAPC  H15X 9905   3.017   4.371   3.886
   99SAPC  H15Y 9906   2.872   4.468   3.847
   99SAPC  C316 9907   2.954   4.531   4.025
   99SAPC  H16X 9908   2.873   4.473   4.072
   99SAPC  H16Y 9909   2.910   4.633   4.012
   99SAPC  C317 9910   3.081   4.525   4.110
   99SAPC  H17X 9911   3.172   4.510   4.047
   99SAPC  H17Y 9912   3.075   4.433   4.171
   99SAPC  C318 9913   3.093   4.637   4.215
   99SAPC  H18X 9914   3.188   4.644   4.273
   99SAPC  H18Y 9915   3.001   4.645   4.276
   99SAPC  H18Z 9916   3.095   4.726   4.149
  100SAPC     N 9917   2.012   4.031   1.993
  100SAPC   C12 9918   2.046   4.157   2.077
  100SAPC  H12A 9919   2.065   4.236   2.006
  100SAPC  H12B 9920   2.145   4.136   2.114
  100SAPC   C13 9921   1.892   4.049   1.910
  100SAPC  H13A 9922   1.826   4.104   1.974
  100SAPC  H13B 9923   1.917   4.116   1.829
  100SAPC  H13C 9924   1.849   3.957   1.873
  100SAPC   C14 9925   2.128   4.003   1.900
  100SAPC  H14A 9926   2.168   4.095   1.861
  100SAPC  H14B 9927   2.205   3.955   1.959
  100SAPC  H14C 9928   2.102   3.933   1.822
  100SAPC   C15 9929   1.978   3.909   2.082
  100SAPC  H15A 9930   2.061   3.888   2.149
  100SAPC  H15B 9931   1.894   3.929   2.146
  100SAPC  H15C 9932   1.944   3.825   2.024
  100SAPC   C11 9933   1.946   4.206   2.188
  100SAPC  H11A 9934   1.981   4.301   2.235
  100SAPC  H11B 9935   1.953   4.127   2.265
  100SAPC     P 9936   1.760   4.351   2.069
  100SAPC   O13 9937   1.871   4.426   2.009
  100SAPC   O14 9938   1.652   4.312   1.980
  100SAPC   O12 9939   1.816   4.213   2.133
  100SAPC   O11 9940   1.698   4.434   2.191
  100SAPC    C1 9941   1.582   4.394   2.270
  100SAPC    HA 9942   1.512   4.479   2.286
  100SAPC    HB 9943   1.533   4.309   2.217
  100SAPC    C2 9944   1.632   4.346   2.403
  100SAPC    HS 9945   1.673   4.243   2.397
  100SAPC   O21 9946   1.514   4.341   2.486
  100SAPC   C21 9947   1.433   4.238   2.474
  100SAPC   O22 9948   1.450   4.144   2.397
  100SAPC   C22 9949   1.334   4.229   2.591
  100SAPC   H2R 9950   1.327   4.328   2.640
  100SAPC   H2S 9951   1.233   4.205   2.554
  100SAPC    C3 9952   1.735   4.446   2.459
  100SAPC    HX 9953   1.685   4.545   2.465
  100SAPC    HY 9954   1.823   4.446   2.391
  100SAPC   O31 9955   1.773   4.423   2.598
  100SAPC   C31 9956   1.874   4.331   2.603
  100SAPC   O32 9957   1.919   4.270   2.504
  100SAPC   C32 9958   1.913   4.310   2.751
  100SAPC   H2X 9959   1.814   4.281   2.793
  100SAPC   H2Y 9960   1.950   4.409   2.783
  100SAPC   C23 9961   1.378   4.121   2.699
  100SAPC   H3R 9962   1.351   4.018   2.667
  100SAPC   H3S 9963   1.302   4.141   2.778
  100SAPC   C24 9964   1.524   4.112   2.746
  100SAPC   H4R 9965   1.592   4.093   2.660
  100SAPC   H4S 9966   1.542   4.032   2.820
  100SAPC   C25 9967   1.555   4.243   2.814
  100SAPC   H5R 9968   1.561   4.324   2.740
  100SAPC   C26 9969   1.568   4.269   2.947
  100SAPC   H6R 9970   1.591   4.374   2.970
  100SAPC   C27 9971   1.548   4.165   3.060
  100SAPC   H7R 9972   1.648   4.156   3.107
  100SAPC   H7S 9973   1.542   4.065   3.011
  100SAPC   C28 9974   1.423   4.183   3.148
  100SAPC   H8R 9975   1.323   4.181   3.103
  100SAPC   C29 9976   1.431   4.199   3.280
  100SAPC   H9R 9977   1.350   4.207   3.353
  100SAPC  C210 9978   1.563   4.213   3.351
  100SAPC  H10R 9979   1.588   4.320   3.338
  100SAPC  H10S 9980   1.653   4.168   3.303
  100SAPC  C211 9981   1.577   4.168   3.498
  100SAPC  H11R 9982   1.648   4.084   3.509
  100SAPC  C212 9983   1.510   4.209   3.605
  100SAPC  H12R 9984   1.528   4.164   3.704
  100SAPC  C213 9985   1.407   4.324   3.609
  100SAPC  H13R 9986   1.432   4.393   3.526
  100SAPC  H13S 9987   1.417   4.376   3.707
  100SAPC  C214 9988   1.265   4.268   3.601
  100SAPC  H14R 9989   1.229   4.266   3.497
  100SAPC  C215 9990   1.174   4.233   3.697
  100SAPC  H15R 9991   1.074   4.209   3.658
  100SAPC  C216 9992   1.198   4.238   3.849
  100SAPC  H16R 9993   1.307   4.258   3.859
  100SAPC  H16S 9994   1.166   4.135   3.875
  100SAPC  C217 9995   1.120   4.349   3.913
  100SAPC  H17R 9996   1.013   4.352   3.883
  100SAPC  H17S 9997   1.157   4.448   3.879
  100SAPC  C218 9998   1.115   4.344   4.061
  100SAPC  H18R 9999   1.220   4.334   4.096
  100SAPC  H18S10000   1.061   4.253   4.096
  100SAPC  C21910001   1.065   4.472   4.127
  100SAPC  H19R10002   1.105   4.558   4.069
  100SAPC  H19S10003   1.117   4.477   4.226
  100SAPC  C22010004   0.911   4.478   4.134
  100SAPC  H20R10005   0.867   4.565   4.187
  100SAPC  H20S10006   0.870   4.380   4.167
  100SAPC  H20T10007   0.869   4.492   4.032
  100SAPC   C3310008   2.029   4.208   2.753
  100SAPC   H3X10009   2.107   4.255   2.689
  100SAPC   H3Y10010   2.013   4.109   2.706
  100SAPC   C3410011   2.085   4.189   2.893
  100SAPC   H4X10012   2.096   4.291   2.936
  100SAPC   H4Y10013   2.189   4.151   2.899
  100SAPC   C3510014   1.994   4.110   2.989
  100SAPC   H5X10015   1.997   4.002   2.962
  100SAPC   H5Y10016   1.888   4.141   2.978
  100SAPC   C3610017   2.025   4.132   3.140
  100SAPC   H6X10018   2.006   4.238   3.169
  100SAPC   H6Y10019   2.135   4.117   3.145
  100SAPC   C3710020   1.954   4.036   3.232
  100SAPC   H7X10021   1.977   3.931   3.205
  100SAPC   H7Y10022   1.844   4.052   3.231
  100SAPC   C3810023   1.976   4.071   3.380
  100SAPC   H8X10024   1.913   4.156   3.415
  100SAPC   H8Y10025   2.081   4.101   3.397
  100SAPC   C3910026   1.948   3.948   3.474
  100SAPC   H9X10027   2.013   3.864   3.442
  100SAPC   H9Y10028   1.843   3.913   3.456
  100SAPC  C31010029   1.961   3.981   3.618
  100SAPC  H10X10030   1.892   4.063   3.647
  100SAPC  H10Y10031   2.064   4.013   3.647
  100SAPC  C31110032   1.935   3.859   3.709
  100SAPC  H11X10033   1.987   3.878   3.806
  100SAPC  H11Y10034   1.997   3.778   3.665
  100SAPC  C31210035   1.786   3.813   3.724
  100SAPC  H12X10036   1.747   3.765   3.632
  100SAPC  H12Y10037   1.724   3.897   3.761
  100SAPC  C31310038   1.767   3.704   3.825
  100SAPC  H13X10039   1.861   3.645   3.821
  100SAPC  H13Y10040   1.680   3.643   3.794
  100SAPC  C31410041   1.757   3.762   3.973
  100SAPC  H14X10042   1.655   3.799   3.998
  100SAPC  H14Y10043   1.839   3.836   3.972
  100SAPC  C31510044   1.790   3.655   4.076
  100SAPC  H15X10045   1.864   3.583   4.035
  100SAPC  H15Y10046   1.692   3.606   4.092
  100SAPC  C31610047   1.857   3.688   4.210
  100SAPC  H16X10048   1.869   3.608   4.287
  100SAPC  H16Y10049   1.786   3.758   4.258
  100SAPC  C31710050   2.002   3.729   4.195
  100SAPC  H17X10051   2.040   3.775   4.289
  100SAPC  H17Y10052   2.011   3.803   4.112
  100SAPC  C31810053   2.104   3.617   4.148
  100SAPC  H18X10054   2.204   3.665   4.154
  100SAPC  H18Y10055   2.083   3.585   4.044
  100SAPC  H18Z10056   2.102   3.534   4.221
  101OSM      N10057   3.805   2.715   7.078
  101OSM    C1510058   3.863   2.586   7.128
  101OSM   H15A10059   3.954   2.605   7.183
  101OSM   H15B10060   3.894   2.533   7.039
  101OSM   H15C10061   3.799   2.521   7.186
  101OSM    C1410062   3.702   2.685   6.978
  101OSM   H14A10063   3.628   2.619   7.020
  101OSM   H14B10064   3.727   2.639   6.883
  101OSM   H14C10065   3.664   2.779   6.939
  101OSM    C1310066   3.741   2.777   7.203
  101OSM   H13A10067   3.711   2.879   7.182
  101OSM   H13B10068   3.826   2.790   7.269
  101OSM   H13C10069   3.658   2.718   7.237
  101OSM    C1210070   3.913   2.804   7.021
  101OSM   H12A10071   3.991   2.813   7.095
  101OSM   H12B10072   3.867   2.901   7.009
  101OSM    C1110073   3.988   2.778   6.885
  101OSM   H11A10074   4.038   2.873   6.855
  101OSM   H11B10075   3.909   2.765   6.808
  101OSM      P10076   4.090   2.536   6.831
  101OSM    O1310077   4.224   2.511   6.778
  101OSM    O1410078   4.034   2.428   6.912
  101OSM    O1110079   3.997   2.545   6.707
  101OSM    O1210080   4.082   2.675   6.909
  101OSM    C1S10081   4.033   2.623   6.595
  101OSM    H1S10082   4.135   2.598   6.559
  101OSM    H1T10083   4.033   2.732   6.615
  101OSM     NF10084   4.002   2.647   6.350
  101OSM    HNF10085   3.974   2.730   6.302
  101OSM    C2S10086   3.936   2.610   6.475
  101OSM    H2S10087   3.922   2.500   6.460
  101OSM    C3S10088   3.802   2.678   6.511
  101OSM    H3S10089   3.816   2.788   6.505
  101OSM     O310090   3.743   2.656   6.639
  101OSM    HO310091   3.805   2.592   6.676
  101OSM    C4S10092   3.706   2.655   6.401
  101OSM    H4S10093   3.679   2.549   6.397
  101OSM    C5S10094   3.666   2.748   6.311
  101OSM    H5S10095   3.704   2.849   6.329
  101OSM    C6S10096   3.576   2.718   6.196
  101OSM    H6S10097   3.497   2.796   6.203
  101OSM    H6T10098   3.522   2.621   6.201
  101OSM    C7S10099   3.635   2.736   6.056
  101OSM    H7S10100   3.717   2.662   6.048
  101OSM    H7T10101   3.695   2.829   6.052
  101OSM    C8S10102   3.537   2.728   5.936
  101OSM    H8S10103   3.479   2.821   5.950
  101OSM    H8T10104   3.470   2.641   5.950
  101OSM    C9S10105   3.603   2.745   5.800
  101OSM    H9S10106   3.666   2.658   5.773
  101OSM    H9T10107   3.675   2.829   5.811
  101OSM   C10S10108   3.495   2.773   5.690
  101OSM   H10S10109   3.441   2.867   5.709
  101OSM   H10T10110   3.426   2.687   5.703
  101OSM   C11S10111   3.555   2.781   5.554
  101OSM   H11S10112   3.605   2.686   5.525
  101OSM   H11T10113   3.633   2.858   5.539
  101OSM   C12S10114   3.443   2.804   5.450
  101OSM   H12S10115   3.408   2.906   5.477
  101OSM   H12T10116   3.364   2.728   5.466
  101OSM   C13S10117   3.479   2.789   5.303
  101OSM   H13S10118   3.388   2.797   5.240
  101OSM   H13T10119   3.510   2.683   5.286
  101OSM   C14S10120   3.594   2.868   5.254
  101OSM   H14S10121   3.687   2.825   5.295
  101OSM   H14T10122   3.591   2.966   5.308
  101OSM   C15S10123   3.606   2.870   5.102
  101OSM   H15S10124   3.584   2.768   5.062
  101OSM   H15T10125   3.714   2.894   5.093
  101OSM   C16S10126   3.518   2.967   5.034
  101OSM   H16S10127   3.533   3.070   5.074
  101OSM   H16T10128   3.421   2.929   5.071
  101OSM   C17S10129   3.542   2.960   4.881
  101OSM   H17S10130   3.539   2.854   4.850
  101OSM   H17T10131   3.627   3.022   4.845
  101OSM   C18S10132   3.417   3.023   4.814
  101OSM   H18S10133   3.433   3.032   4.704
  101OSM   H18T10134   3.389   3.124   4.852
  101OSM   H18U10135   3.328   2.957   4.829
  101OSM    C1F10136   4.117   2.594   6.304
  101OSM     OF10137   4.187   2.516   6.363
  101OSM    C2F10138   4.160   2.641   6.166
  101OSM    H2F10139   4.083   2.713   6.129
  101OSM    H2G10140   4.170   2.558   6.094
  101OSM    C3F10141   4.300   2.707   6.162
  101OSM    H3F10142   4.369   2.620   6.165
  101OSM    H3G10143   4.317   2.772   6.250
  101OSM    C4F10144   4.328   2.792   6.038
  101OSM    H4F10145   4.439   2.789   6.033
  101OSM    H4G10146   4.315   2.899   6.062
  101OSM    C5F10147   4.252   2.742   5.909
  101OSM    H5F10148   4.147   2.773   5.926
  101OSM    H5G10149   4.269   2.636   5.883
  101OSM    C6F10150   4.299   2.823   5.794
  101OSM    H6F10151   4.409   2.810   5.800
  101OSM    H6G10152   4.274   2.930   5.811
  101OSM    C7F10153   4.253   2.769   5.659
  101OSM    H7F10154   4.146   2.784   5.637
  101OSM    H7G10155   4.258   2.658   5.660
  101OSM    C8F10156   4.350   2.830   5.549
  101OSM    H8F10157   4.339   2.756   5.468
  101OSM    H8G10158   4.454   2.819   5.586
  101OSM    C9F10159   4.319   2.972   5.520
  101OSM    H9F10160   4.317   3.046   5.601
  101OSM   C10F10161   4.283   3.027   5.405
  101OSM   H10F10162   4.256   3.133   5.412
  101OSM   C11F10163   4.288   2.954   5.271
  101OSM   H11F10164   4.201   2.887   5.261
  101OSM   H11G10165   4.380   2.891   5.271
  101OSM   C12F10166   4.294   3.047   5.151
  101OSM   H12F10167   4.228   3.135   5.161
  101OSM   H12G10168   4.250   2.978   5.076
  101OSM   C13F10169   4.426   3.109   5.119
  101OSM   H13F10170   4.513   3.044   5.098
  101OSM   H13G10171   4.460   3.159   5.212
  101OSM   C14F10172   4.424   3.222   5.023
  101OSM   H14F10173   4.518   3.277   5.044
  101OSM   H14G10174   4.342   3.294   5.043
  101OSM   C15F10175   4.419   3.179   4.876
  101OSM   H15F10176   4.327   3.120   4.861
  101OSM   H15G10177   4.511   3.119   4.861
  101OSM   C16F10178   4.416   3.300   4.779
  101OSM   H16F10179   4.509   3.359   4.789
  101OSM   H16G10180   4.331   3.368   4.805
  101OSM   C17F10181   4.392   3.259   4.628
  101OSM   H17F10182   4.401   3.351   4.567
  101OSM   H17G10183   4.285   3.231   4.618
  101OSM   C18F10184   4.480   3.147   4.568
  101OSM   H18F10185   4.588   3.163   4.589
  101OSM   H18G10186   4.465   3.131   4.459
  101OSM   H18H10187   4.454   3.053   4.622
  102OSM      N10188   5.065   1.747   7.062
  102OSM    C1510189   5.112   1.715   7.200
  102OSM   H15A10190   5.045   1.747   7.278
  102OSM   H15B10191   5.209   1.757   7.223
  102OSM   H15C10192   5.119   1.608   7.213
  102OSM    C1410193   5.051   1.894   7.043
  102OSM   H14A10194   5.003   1.939   7.128
  102OSM   H14B10195   4.983   1.916   6.962
  102OSM   H14C10196   5.141   1.954   7.031
  102OSM    C1310197   5.154   1.692   6.957
  102OSM   H13A10198   5.134   1.732   6.859
  102OSM   H13B10199   5.139   1.586   6.940
  102OSM   H13C10200   5.261   1.702   6.971
  102OSM    C1210201   4.927   1.689   7.041
  102OSM   H12A10202   4.869   1.722   7.126
  102OSM   H12B10203   4.937   1.582   7.031
  102OSM    C1110204   4.863   1.733   6.906
  102OSM   H11A10205   4.783   1.666   6.868
  102OSM   H11B10206   4.938   1.730   6.825
  102OSM      P10207   4.660   1.904   6.963
  102OSM    O1310208   4.623   1.815   7.072
  102OSM    O1410209   4.651   2.045   7.002
  102OSM    O1110210   4.566   1.870   6.839
  102OSM    O1210211   4.806   1.868   6.920
  102OSM    C1S10212   4.561   1.957   6.718
  102OSM    H1S10213   4.627   1.936   6.631
  102OSM    H1T10214   4.585   2.061   6.748
  102OSM     NF10215   4.405   2.041   6.538
  102OSM    HNF10216   4.360   2.130   6.547
  102OSM    C2S10217   4.418   1.955   6.657
  102OSM    H2S10218   4.415   1.847   6.632
  102OSM    C3S10219   4.308   1.995   6.762
  102OSM    H3S10220   4.342   2.091   6.805
  102OSM     O310221   4.309   1.911   6.875
  102OSM    HO310222   4.394   1.867   6.877
  102OSM    C4S10223   4.169   1.998   6.706
  102OSM    H4S10224   4.144   1.904   6.653
  102OSM    C5S10225   4.077   2.096   6.718
  102OSM    H5S10226   4.101   2.188   6.772
  102OSM    C6S10227   3.940   2.087   6.669
  102OSM    H6S10228   3.867   2.111   6.749
  102OSM    H6T10229   3.922   1.981   6.643
  102OSM    C7S10230   3.901   2.165   6.537
  102OSM    H7S10231   3.985   2.147   6.466
  102OSM    H7T10232   3.905   2.273   6.563
  102OSM    C8S10233   3.769   2.123   6.467
  102OSM    H8S10234   3.679   2.113   6.530
  102OSM    H8T10235   3.785   2.023   6.420
  102OSM    C9S10236   3.732   2.204   6.340
  102OSM    H9S10237   3.690   2.303   6.366
  102OSM    H9T10238   3.641   2.151   6.304
  102OSM   C10S10239   3.841   2.203   6.233
  102OSM   H10S10240   3.849   2.105   6.182
  102OSM   H10T10241   3.932   2.240   6.285
  102OSM   C11S10242   3.804   2.313   6.128
  102OSM   H11S10243   3.815   2.412   6.178
  102OSM   H11T10244   3.704   2.303   6.081
  102OSM   C12S10245   3.901   2.314   6.008
  102OSM   H12S10246   3.890   2.210   5.970
  102OSM   H12T10247   4.000   2.322   6.056
  102OSM   C13S10248   3.859   2.414   5.895
  102OSM   H13S10249   3.863   2.517   5.937
  102OSM   H13T10250   3.753   2.394   5.867
  102OSM   C14S10251   3.943   2.412   5.768
  102OSM   H14S10252   3.949   2.308   5.729
  102OSM   H14T10253   4.048   2.440   5.790
  102OSM   C15S10254   3.889   2.510   5.660
  102OSM   H15S10255   3.877   2.611   5.705
  102OSM   H15T10256   3.794   2.466   5.625
  102OSM   C16S10257   3.986   2.531   5.541
  102OSM   H16S10258   4.007   2.433   5.493
  102OSM   H16T10259   4.085   2.564   5.578
  102OSM   C17S10260   3.949   2.633   5.434
  102OSM   H17S10261   3.949   2.740   5.466
  102OSM   H17T10262   3.845   2.614   5.399
  102OSM   C18S10263   4.039   2.630   5.302
  102OSM   H18S10264   4.015   2.713   5.234
  102OSM   H18T10265   4.021   2.534   5.248
  102OSM   H18U10266   4.148   2.628   5.323
  102OSM    C1F10267   4.460   2.014   6.422
  102OSM     OF10268   4.512   1.906   6.404
  102OSM    C2F10269   4.438   2.113   6.315
  102OSM    H2F10270   4.462   2.214   6.353
  102OSM    H2G10271   4.333   2.104   6.281
  102OSM    C3F10272   4.540   2.087   6.195
  102OSM    H3F10273   4.508   1.998   6.136
  102OSM    H3G10274   4.639   2.056   6.235
  102OSM    C4F10275   4.565   2.203   6.106
  102OSM    H4F10276   4.656   2.205   6.043
  102OSM    H4G10277   4.549   2.301   6.155
  102OSM    C5F10278   4.460   2.197   5.987
  102OSM    H5F10279   4.354   2.187   6.020
  102OSM    H5G10280   4.474   2.105   5.926
  102OSM    C6F10281   4.471   2.312   5.883
  102OSM    H6F10282   4.573   2.302   5.842
  102OSM    H6G10283   4.448   2.408   5.935
  102OSM    C7F10284   4.359   2.299   5.774
  102OSM    H7F10285   4.373   2.386   5.707
  102OSM    H7G10286   4.262   2.290   5.828
  102OSM    C8F10287   4.361   2.181   5.666
  102OSM    H8F10288   4.291   2.201   5.582
  102OSM    H8G10289   4.325   2.087   5.715
  102OSM    C9F10290   4.504   2.162   5.612
  102OSM    H9F10291   4.578   2.134   5.688
  102OSM   C10F10292   4.535   2.171   5.480
  102OSM   H10F10293   4.638   2.144   5.452
  102OSM   C11F10294   4.437   2.194   5.364
  102OSM   H11F10295   4.428   2.300   5.332
  102OSM   H11G10296   4.341   2.144   5.389
  102OSM   C12F10297   4.480   2.105   5.245
  102OSM   H12F10298   4.395   2.119   5.175
  102OSM   H12G10299   4.484   1.997   5.273
  102OSM   C13F10300   4.616   2.148   5.174
  102OSM   H13F10301   4.703   2.122   5.238
  102OSM   H13G10302   4.618   2.259   5.167
  102OSM   C14F10303   4.637   2.084   5.033
  102OSM   H14F10304   4.554   2.121   4.968
  102OSM   H14G10305   4.627   1.973   5.036
  102OSM   C15F10306   4.777   2.115   4.970
  102OSM   H15F10307   4.861   2.075   5.031
  102OSM   H15G10308   4.783   2.226   4.970
  102OSM   C16F10309   4.799   2.075   4.825
  102OSM   H16F10310   4.849   2.153   4.763
  102OSM   H16G10311   4.694   2.064   4.791
  102OSM   C17F10312   4.872   1.941   4.826
  102OSM   H17F10313   4.822   1.880   4.748
  102OSM   H17G10314   4.865   1.892   4.925
  102OSM   C18F10315   5.025   1.957   4.799
  102OSM   H18F10316   5.073   1.988   4.894
  102OSM   H18G10317   5.043   2.031   4.717
  102OSM   H18H10318   5.069   1.860   4.768
  103OSM      N10319   3.841   4.759   6.859
  103OSM    C1510320   3.821   4.893   6.928
  103OSM   H15A10321   3.732   4.932   6.882
  103OSM   H15B10322   3.908   4.956   6.912
  103OSM   H15C10323   3.793   4.883   7.032
  103OSM    C1410324   3.734   4.670   6.912
  103OSM   H14A10325   3.639   4.720   6.896
  103OSM   H14B10326   3.750   4.658   7.019
  103OSM   H14C10327   3.728   4.573   6.866
  103OSM    C1310328   3.817   4.768   6.708
  103OSM   H13A10329   3.915   4.779   6.662
  103OSM   H13B10330   3.742   4.842   6.685
  103OSM   H13C10331   3.775   4.679   6.663
  103OSM    C1210332   3.977   4.707   6.907
  103OSM   H12A10333   3.982   4.600   6.893
  103OSM   H12B10334   3.994   4.732   7.010
  103OSM    C1110335   4.096   4.776   6.832
  103OSM   H11A10336   4.188   4.763   6.893
  103OSM   H11B10337   4.075   4.885   6.837
  103OSM      P10338   4.196   4.619   6.654
  103OSM    O1310339   4.322   4.627   6.726
  103OSM    O1410340   4.120   4.493   6.667
  103OSM    O1110341   4.228   4.648   6.498
  103OSM    O1210342   4.117   4.745   6.692
  103OSM    C1S10343   4.227   4.535   6.410
  103OSM    H1S10344   4.132   4.479   6.421
  103OSM    H1T10345   4.309   4.461   6.426
  103OSM     NF10346   4.171   4.469   6.183
  103OSM    HNF10347   4.243   4.416   6.139
  103OSM    C2S10348   4.215   4.584   6.265
  103OSM    H2S10349   4.135   4.661   6.260
  103OSM    C3S10350   4.347   4.647   6.222
  103OSM    H3S10351   4.425   4.568   6.223
  103OSM     O310352   4.386   4.752   6.312
  103OSM    HO310353   4.321   4.748   6.382
  103OSM    C4S10354   4.321   4.697   6.082
  103OSM    H4S10355   4.252   4.783   6.082
  103OSM    C5S10356   4.380   4.659   5.963
  103OSM    H5S10357   4.448   4.573   5.963
  103OSM    C6S10358   4.335   4.696   5.826
  103OSM    H6S10359   4.307   4.803   5.828
  103OSM    H6T10360   4.255   4.631   5.784
  103OSM    C7S10361   4.459   4.685   5.730
  103OSM    H7S10362   4.502   4.585   5.750
  103OSM    H7T10363   4.534   4.758   5.767
  103OSM    C8S10364   4.423   4.706   5.584
  103OSM    H8S10365   4.370   4.803   5.575
  103OSM    H8T10366   4.348   4.628   5.558
  103OSM    C9S10367   4.541   4.684   5.492
  103OSM    H9S10368   4.572   4.580   5.512
  103OSM    H9T10369   4.628   4.746   5.520
  103OSM   C10S10370   4.506   4.683   5.345
  103OSM   H10S10371   4.425   4.757   5.326
  103OSM   H10T10372   4.467   4.582   5.325
  103OSM   C11S10373   4.626   4.718   5.260
  103OSM   H11S10374   4.713   4.655   5.289
  103OSM   H11T10375   4.660   4.824   5.265
  103OSM   C12S10376   4.606   4.687   5.111
  103OSM   H12S10377   4.518   4.746   5.078
  103OSM   H12T10378   4.584   4.578   5.105
  103OSM   C13S10379   4.726   4.703   5.013
  103OSM   H13S10380   4.798   4.621   5.034
  103OSM   H13T10381   4.793   4.792   5.011
  103OSM   C14S10382   4.674   4.661   4.870
  103OSM   H14S10383   4.584   4.724   4.850
  103OSM   H14T10384   4.647   4.554   4.880
  103OSM   C15S10385   4.779   4.667   4.755
  103OSM   H15S10386   4.873   4.614   4.781
  103OSM   H15T10387   4.811   4.773   4.750
  103OSM   C16S10388   4.724   4.637   4.614
  103OSM   H16S10389   4.811   4.627   4.545
  103OSM   H16T10390   4.663   4.721   4.576
  103OSM   C17S10391   4.654   4.503   4.601
  103OSM   H17S10392   4.558   4.514   4.655
  103OSM   H17T10393   4.716   4.428   4.656
  103OSM   C18S10394   4.637   4.470   4.453
  103OSM   H18S10395   4.628   4.559   4.387
  103OSM   H18T10396   4.559   4.395   4.429
  103OSM   H18U10397   4.733   4.422   4.423
  103OSM    C1F10398   4.047   4.434   6.176
  103OSM     OF10399   3.964   4.507   6.220
  103OSM    C2F10400   4.016   4.307   6.111
  103OSM    H2F10401   3.957   4.241   6.179
  103OSM    H2G10402   4.111   4.251   6.104
  103OSM    C3F10403   3.956   4.328   5.970
  103OSM    H3F10404   3.864   4.389   5.982
  103OSM    H3G10405   3.932   4.222   5.946
  103OSM    C4F10406   4.050   4.389   5.865
  103OSM    H4F10407   4.138   4.322   5.861
  103OSM    H4G10408   4.086   4.488   5.900
  103OSM    C5F10409   3.993   4.391   5.720
  103OSM    H5F10410   3.897   4.448   5.718
  103OSM    H5G10411   3.972   4.286   5.691
  103OSM    C6F10412   4.090   4.461   5.619
  103OSM    H6F10413   4.195   4.428   5.635
  103OSM    H6G10414   4.094   4.570   5.640
  103OSM    C7F10415   4.037   4.440   5.476
  103OSM    H7F10416   3.942   4.498   5.476
  103OSM    H7G10417   4.009   4.334   5.457
  103OSM    C8F10418   4.129   4.478   5.365
  103OSM    H8F10419   4.177   4.384   5.329
  103OSM    H8G10420   4.211   4.542   5.403
  103OSM    C9F10421   4.061   4.541   5.247
  103OSM    H9F10422   3.959   4.579   5.266
  103OSM   C10F10423   4.096   4.536   5.117
  103OSM   H10F10424   4.021   4.565   5.041
  103OSM   C11F10425   4.224   4.485   5.057
  103OSM   H11F10426   4.211   4.389   5.003
  103OSM   H11G10427   4.295   4.459   5.138
  103OSM   C12F10428   4.287   4.584   4.952
  103OSM   H12F10429   4.392   4.550   4.938
  103OSM   H12G10430   4.293   4.679   5.010
  103OSM   C13F10431   4.218   4.566   4.815
  103OSM   H13F10432   4.110   4.587   4.826
  103OSM   H13G10433   4.216   4.456   4.799
  103OSM   C14F10434   4.272   4.638   4.697
  103OSM   H14F10435   4.382   4.648   4.701
  103OSM   H14G10436   4.230   4.740   4.690
  103OSM   C15F10437   4.245   4.572   4.553
  103OSM   H15F10438   4.140   4.538   4.540
  103OSM   H15G10439   4.306   4.479   4.554
  103OSM   C16F10440   4.284   4.657   4.434
  103OSM   H16F10441   4.389   4.692   4.437
  103OSM   H16G10442   4.217   4.745   4.423
  103OSM   C17F10443   4.281   4.588   4.300
  103OSM   H17F10444   4.183   4.536   4.285
  103OSM   H17G10445   4.357   4.507   4.297
  103OSM   C18F10446   4.305   4.687   4.188
  103OSM   H18F10447   4.413   4.709   4.179
  103OSM   H18G10448   4.245   4.781   4.192
  103OSM   H18H10449   4.272   4.641   4.092
  104OSM      N10450   5.349   3.310   7.455
  104OSM    C1510451   5.399   3.406   7.352
  104OSM   H15A10452   5.475   3.473   7.389
  104OSM   H15B10453   5.319   3.462   7.305
  104OSM   H15C10454   5.448   3.353   7.272
  104OSM    C1410455   5.471   3.259   7.522
  104OSM   H14A10456   5.442   3.207   7.613
  104OSM   H14B10457   5.532   3.341   7.557
  104OSM   H14C10458   5.539   3.208   7.456
  104OSM    C1310459   5.262   3.376   7.557
  104OSM   H13A10460   5.318   3.458   7.598
  104OSM   H13B10461   5.241   3.316   7.644
  104OSM   H13C10462   5.168   3.414   7.519
  104OSM    C1210463   5.273   3.201   7.382
  104OSM   H12A10464   5.183   3.243   7.339
  104OSM   H12B10465   5.226   3.126   7.445
  104OSM    C1110466   5.344   3.109   7.276
  104OSM   H11A10467   5.261   3.044   7.241
  104OSM   H11B10468   5.409   3.046   7.341
  104OSM      P10469   5.545   3.169   7.120
  104OSM    O1310470   5.566   3.289   7.042
  104OSM    O1410471   5.637   3.141   7.235
  104OSM    O1110472   5.543   3.037   7.027
  104OSM    O1210473   5.396   3.180   7.171
  104OSM    C1S10474   5.444   3.030   6.928
  104OSM    H1S10475   5.380   3.121   6.926
  104OSM    H1T10476   5.375   2.949   6.961
  104OSM     NF10477   5.390   2.985   6.688
  104OSM    HNF10478   5.346   2.896   6.687
  104OSM    C2S10479   5.496   2.991   6.786
  104OSM    H2S10480   5.568   3.064   6.745
  104OSM    C3S10481   5.575   2.854   6.798
  104OSM    H3S10482   5.499   2.793   6.852
  104OSM     O310483   5.695   2.862   6.877
  104OSM    HO310484   5.687   2.937   6.937
  104OSM    C4S10485   5.609   2.786   6.669
  104OSM    H4S10486   5.665   2.854   6.604
  104OSM    C5S10487   5.573   2.659   6.636
  104OSM    H5S10488   5.534   2.593   6.715
  104OSM    C6S10489   5.618   2.592   6.510
  104OSM    H6S10490   5.542   2.597   6.429
  104OSM    H6T10491   5.642   2.485   6.530
  104OSM    C7S10492   5.751   2.645   6.443
  104OSM    H7S10493   5.827   2.632   6.523
  104OSM    H7T10494   5.733   2.746   6.401
  104OSM    C8S10495   5.792   2.561   6.321
  104OSM    H8S10496   5.703   2.555   6.256
  104OSM    H8T10497   5.832   2.464   6.358
  104OSM    C9S10498   5.906   2.629   6.241
  104OSM    H9S10499   6.002   2.641   6.296
  104OSM    H9T10500   5.882   2.732   6.206
  104OSM   C10S10501   5.940   2.547   6.117
  104OSM   H10S10502   5.927   2.438   6.134
  104OSM   H10T10503   6.047   2.566   6.095
  104OSM   C11S10504   5.864   2.595   5.996
  104OSM   H11S10505   5.866   2.706   5.990
  104OSM   H11T10506   5.756   2.572   6.008
  104OSM   C12S10507   5.909   2.527   5.865
  104OSM   H12S10508   5.900   2.417   5.855
  104OSM   H12T10509   6.015   2.548   5.839
  104OSM   C13S10510   5.831   2.586   5.745
  104OSM   H13S10511   5.810   2.694   5.758
  104OSM   H13T10512   5.736   2.530   5.737
  104OSM   C14S10513   5.907   2.575   5.610
  104OSM   H14S10514   6.000   2.634   5.625
  104OSM   H14T10515   5.840   2.615   5.531
  104OSM   C15S10516   5.950   2.435   5.561
  104OSM   H15S10517   5.859   2.371   5.564
  104OSM   H15T10518   6.017   2.396   5.640
  104OSM   C16S10519   6.005   2.418   5.422
  104OSM   H16S10520   6.014   2.311   5.397
  104OSM   H16T10521   6.104   2.469   5.415
  104OSM   C17S10522   5.910   2.478   5.311
  104OSM   H17S10523   5.883   2.582   5.338
  104OSM   H17T10524   5.815   2.422   5.300
  104OSM   C18S10525   5.978   2.483   5.176
  104OSM   H18S10526   5.930   2.551   5.102
  104OSM   H18T10527   5.972   2.380   5.135
  104OSM   H18U10528   6.087   2.505   5.181
  104OSM    C1F10529   5.334   3.094   6.641
  104OSM     OF10530   5.374   3.198   6.683
  104OSM    C2F10531   5.218   3.064   6.549
  104OSM    H2F10532   5.159   3.157   6.559
  104OSM    H2G10533   5.181   2.965   6.583
  104OSM    C3F10534   5.258   3.072   6.397
  104OSM    H3F10535   5.316   2.979   6.377
  104OSM    H3G10536   5.329   3.157   6.390
  104OSM    C4F10537   5.147   3.091   6.293
  104OSM    H4F10538   5.091   3.180   6.328
  104OSM    H4G10539   5.083   3.000   6.291
  104OSM    C5F10540   5.215   3.101   6.156
  104OSM    H5F10541   5.292   3.021   6.146
  104OSM    H5G10542   5.264   3.200   6.146
  104OSM    C6F10543   5.117   3.088   6.030
  104OSM    H6F10544   5.055   3.180   6.030
  104OSM    H6G10545   5.058   2.995   6.039
  104OSM    C7F10546   5.206   3.055   5.908
  104OSM    H7F10547   5.253   2.957   5.930
  104OSM    H7G10548   5.288   3.127   5.890
  104OSM    C8F10549   5.132   3.045   5.773
  104OSM    H8F10550   5.210   3.019   5.697
  104OSM    H8G10551   5.098   3.149   5.758
  104OSM    C9F10552   5.017   2.949   5.766
  104OSM    H9F10553   5.032   2.850   5.811
  104OSM   C10F10554   4.903   2.962   5.695
  104OSM   H10F10555   4.827   2.882   5.697
  104OSM   C11F10556   4.851   3.073   5.607
  104OSM   H11F10557   4.918   3.162   5.605
  104OSM   H11G10558   4.753   3.094   5.654
  104OSM   C12F10559   4.835   3.025   5.459
  104OSM   H12F10560   4.760   2.943   5.451
  104OSM   H12G10561   4.935   2.991   5.425
  104OSM   C13F10562   4.774   3.137   5.372
  104OSM   H13F10563   4.688   3.181   5.428
  104OSM   H13G10564   4.746   3.091   5.276
  104OSM   C14F10565   4.880   3.244   5.337
  104OSM   H14F10566   4.966   3.211   5.275
  104OSM   H14G10567   4.925   3.287   5.429
  104OSM   C15F10568   4.826   3.364   5.246
  104OSM   H15F10569   4.798   3.448   5.315
  104OSM   H15G10570   4.741   3.313   5.196
  104OSM   C16F10571   4.931   3.408   5.149
  104OSM   H16F10572   4.924   3.333   5.067
  104OSM   H16G10573   5.029   3.416   5.200
  104OSM   C17F10574   4.897   3.544   5.079
  104OSM   H17F10575   4.959   3.543   4.987
  104OSM   H17G10576   4.932   3.614   5.158
  104OSM   C18F10577   4.753   3.558   5.038
  104OSM   H18F10578   4.689   3.554   5.129
  104OSM   H18G10579   4.730   3.479   4.963
  104OSM   H18H10580   4.725   3.653   4.988
  105OSM      N10581   5.495   3.702   6.852
  105OSM    C1510582   5.583   3.743   6.968
  105OSM   H15A10583   5.673   3.683   6.967
  105OSM   H15B10584   5.552   3.718   7.068
  105OSM   H15C10585   5.609   3.847   6.963
  105OSM    C1410586   5.449   3.559   6.858
  105OSM   H14A10587   5.407   3.532   6.762
  105OSM   H14B10588   5.383   3.555   6.943
  105OSM   H14C10589   5.535   3.495   6.869
  105OSM    C1310590   5.379   3.789   6.854
  105OSM   H13A10591   5.416   3.886   6.824
  105OSM   H13B10592   5.344   3.803   6.956
  105OSM   H13C10593   5.298   3.748   6.795
  105OSM    C1210594   5.570   3.728   6.718
  105OSM   H12A10595   5.519   3.687   6.632
  105OSM   H12B10596   5.659   3.668   6.718
  105OSM    C1110597   5.618   3.876   6.682
  105OSM   H11A10598   5.524   3.934   6.674
  105OSM   H11B10599   5.667   3.874   6.582
  105OSM      P10600   5.861   3.909   6.803
  105OSM    O1310601   5.906   4.016   6.888
  105OSM    O1410602   5.879   3.770   6.860
  105OSM    O1110603   5.920   3.924   6.654
  105OSM    O1210604   5.709   3.939   6.778
  105OSM    C1S10605   5.979   3.816   6.575
  105OSM    H1S10606   5.949   3.715   6.611
  105OSM    H1T10607   6.090   3.824   6.573
  105OSM     NF10608   5.982   3.722   6.349
  105OSM    HNF10609   6.071   3.738   6.307
  105OSM    C2S10610   5.935   3.838   6.428
  105OSM    H2S10611   5.824   3.835   6.430
  105OSM    C3S10612   5.988   3.970   6.371
  105OSM    H3S10613   6.099   3.969   6.368
  105OSM     O310614   5.952   4.093   6.446
  105OSM    HO310615   5.915   4.062   6.529
  105OSM    C4S10616   5.948   3.977   6.230
  105OSM    H4S10617   6.027   3.951   6.158
  105OSM    C5S10618   5.828   4.023   6.180
  105OSM    H5S10619   5.758   4.064   6.255
  105OSM    C6S10620   5.787   4.051   6.033
  105OSM    H6S10621   5.774   4.159   6.009
  105OSM    H6T10622   5.683   4.016   6.016
  105OSM    C7S10623   5.886   3.984   5.932
  105OSM    H7S10624   5.897   3.881   5.972
  105OSM    H7T10625   5.984   4.036   5.935
  105OSM    C8S10626   5.832   3.991   5.788
  105OSM    H8S10627   5.780   4.088   5.777
  105OSM    H8T10628   5.753   3.913   5.783
  105OSM    C9S10629   5.937   3.968   5.672
  105OSM    H9S10630   5.991   3.873   5.691
  105OSM    H9T10631   6.010   4.051   5.661
  105OSM   C10S10632   5.864   3.943   5.540
  105OSM   H10S10633   5.788   4.020   5.515
  105OSM   H10T10634   5.802   3.851   5.547
  105OSM   C11S10635   5.968   3.915   5.432
  105OSM   H11S10636   5.973   3.804   5.433
  105OSM   H11T10637   6.065   3.961   5.462
  105OSM   C12S10638   5.934   3.957   5.292
  105OSM   H12S10639   6.014   3.914   5.229
  105OSM   H12T10640   5.936   4.067   5.278
  105OSM   C13S10641   5.808   3.888   5.228
  105OSM   H13S10642   5.718   3.923   5.282
  105OSM   H13T10643   5.819   3.777   5.236
  105OSM   C14S10644   5.801   3.922   5.076
  105OSM   H14S10645   5.901   3.912   5.029
  105OSM   H14T10646   5.798   4.033   5.076
  105OSM   C15S10647   5.691   3.860   4.988
  105OSM   H15S10648   5.590   3.867   5.034
  105OSM   H15T10649   5.710   3.751   4.977
  105OSM   C16S10650   5.701   3.923   4.853
  105OSM   H16S10651   5.692   4.034   4.856
  105OSM   H16T10652   5.615   3.893   4.790
  105OSM   C17S10653   5.828   3.896   4.761
  105OSM   H17S10654   5.850   3.788   4.750
  105OSM   H17T10655   5.918   3.918   4.822
  105OSM   C18S10656   5.846   3.967   4.628
  105OSM   H18S10657   5.757   3.955   4.562
  105OSM   H18T10658   5.938   3.928   4.580
  105OSM   H18U10659   5.859   4.077   4.641
  105OSM    C1F10660   5.935   3.599   6.358
  105OSM     OF10661   5.822   3.580   6.399
  105OSM    C2F10662   6.031   3.491   6.316
  105OSM    H2F10663   6.023   3.401   6.381
  105OSM    H2G10664   6.138   3.515   6.329
  105OSM    C3F10665   5.998   3.449   6.169
  105OSM    H3F10666   5.979   3.538   6.105
  105OSM    H3G10667   5.906   3.387   6.173
  105OSM    C4F10668   6.117   3.375   6.105
  105OSM    H4F10669   6.146   3.293   6.175
  105OSM    H4G10670   6.206   3.441   6.102
  105OSM    C5F10671   6.092   3.322   5.967
  105OSM    H5F10672   5.994   3.271   5.954
  105OSM    H5G10673   6.167   3.241   5.955
  105OSM    C6F10674   6.109   3.425   5.863
  105OSM    H6F10675   6.215   3.458   5.871
  105OSM    H6G10676   6.031   3.503   5.877
  105OSM    C7F10677   6.088   3.370   5.722
  105OSM    H7F10678   6.000   3.303   5.724
  105OSM    H7G10679   6.171   3.303   5.691
  105OSM    C8F10680   6.083   3.472   5.611
  105OSM    H8F10681   6.015   3.556   5.638
  105OSM    H8G10682   6.042   3.418   5.523
  105OSM    C9F10683   6.215   3.538   5.585
  105OSM    H9F10684   6.242   3.616   5.658
  105OSM   C10F10685   6.272   3.539   5.460
  105OSM   H10F10686   6.364   3.597   5.442
  105OSM   C11F10687   6.224   3.451   5.340
  105OSM   H11F10688   6.146   3.376   5.366
  105OSM   H11G10689   6.316   3.399   5.306
  105OSM   C12F10690   6.169   3.540   5.226
  105OSM   H12F10691   6.235   3.628   5.210
  105OSM   H12G10692   6.060   3.555   5.242
  105OSM   C13F10693   6.170   3.468   5.093
  105OSM   H13F10694   6.109   3.376   5.100
  105OSM   H13G10695   6.275   3.437   5.073
  105OSM   C14F10696   6.124   3.553   4.972
  105OSM   H14F10697   6.134   3.663   4.984
  105OSM   H14G10698   6.015   3.535   4.960
  105OSM   C15F10699   6.185   3.499   4.838
  105OSM   H15F10700   6.291   3.531   4.845
  105OSM   H15G10701   6.145   3.549   4.747
  105OSM   C16F10702   6.179   3.349   4.819
  105OSM   H16F10703   6.118   3.321   4.731
  105OSM   H16G10704   6.122   3.308   4.905
  105OSM   C17F10705   6.310   3.276   4.797
  105OSM   H17F10706   6.349   3.260   4.899
  105OSM   H17G10707   6.387   3.345   4.755
  105OSM   C18F10708   6.299   3.139   4.732
  105OSM   H18F10709   6.267   3.153   4.627
  105OSM   H18G10710   6.210   3.092   4.779
  105OSM   H18H10711   6.389   3.075   4.738
  106OSM      N10712   4.256   1.444   7.222
  106OSM    C1510713   4.382   1.361   7.229
  106OSM   H15A10714   4.364   1.267   7.179
  106OSM   H15B10715   4.403   1.339   7.333
  106OSM   H15C10716   4.465   1.406   7.175
  106OSM    C1410717   4.143   1.370   7.288
  106OSM   H14A10718   4.045   1.416   7.291
  106OSM   H14B10719   4.172   1.355   7.391
  106OSM   H14C10720   4.132   1.273   7.244
  106OSM    C1310721   4.281   1.572   7.290
  106OSM   H13A10722   4.203   1.643   7.267
  106OSM   H13B10723   4.378   1.614   7.272
  106OSM   H13C10724   4.277   1.537   7.393
  106OSM    C1210725   4.204   1.459   7.077
  106OSM   H12A10726   4.117   1.522   7.090
  106OSM   H12B10727   4.179   1.366   7.028
  106OSM    C1110728   4.287   1.536   6.978
  106OSM   H11A10729   4.320   1.637   7.008
  106OSM   H11B10730   4.228   1.545   6.884
  106OSM      P10731   4.407   1.351   6.840
  106OSM    O1310732   4.529   1.274   6.863
  106OSM    O1410733   4.277   1.274   6.850
  106OSM    O1110734   4.412   1.436   6.702
  106OSM    O1210735   4.404   1.461   6.956
  106OSM    C1S10736   4.503   1.541   6.674
  106OSM    H1S10737   4.603   1.524   6.719
  106OSM    H1T10738   4.468   1.636   6.719
  106OSM     NF10739   4.628   1.657   6.500
  106OSM    HNF10740   4.603   1.746   6.463
  106OSM    C2S10741   4.531   1.552   6.519
  106OSM    H2S10742   4.580   1.457   6.489
  106OSM    C3S10743   4.402   1.574   6.437
  106OSM    H3S10744   4.338   1.656   6.476
  106OSM     O310745   4.297   1.480   6.456
  106OSM    HO310746   4.320   1.458   6.547
  106OSM    C4S10747   4.428   1.614   6.288
  106OSM    H4S10748   4.418   1.722   6.275
  106OSM    C5S10749   4.439   1.533   6.185
  106OSM    H5S10750   4.453   1.426   6.204
  106OSM    C6S10751   4.448   1.586   6.042
  106OSM    H6S10752   4.348   1.581   5.995
  106OSM    H6T10753   4.526   1.531   5.986
  106OSM    C7S10754   4.495   1.730   6.028
  106OSM    H7S10755   4.592   1.728   6.082
  106OSM    H7T10756   4.430   1.804   6.080
  106OSM    C8S10757   4.514   1.789   5.887
  106OSM    H8S10758   4.575   1.882   5.890
  106OSM    H8T10759   4.417   1.834   5.855
  106OSM    C9S10760   4.563   1.691   5.782
  106OSM    H9S10761   4.491   1.609   5.762
  106OSM    H9T10762   4.651   1.638   5.824
  106OSM   C10S10763   4.593   1.757   5.644
  106OSM   H10S10764   4.678   1.829   5.651
  106OSM   H10T10765   4.502   1.808   5.606
  106OSM   C11S10766   4.609   1.641   5.548
  106OSM   H11S10767   4.518   1.580   5.528
  106OSM   H11T10768   4.685   1.570   5.586
  106OSM   C12S10769   4.654   1.704   5.416
  106OSM   H12S10770   4.732   1.781   5.433
  106OSM   H12T10771   4.571   1.768   5.381
  106OSM   C13S10772   4.701   1.610   5.303
  106OSM   H13S10773   4.617   1.546   5.267
  106OSM   H13T10774   4.774   1.541   5.352
  106OSM   C14S10775   4.766   1.680   5.184
  106OSM   H14S10776   4.866   1.704   5.224
  106OSM   H14T10777   4.721   1.775   5.150
  106OSM   C15S10778   4.789   1.586   5.063
  106OSM   H15S10779   4.855   1.642   4.994
  106OSM   H15T10780   4.692   1.579   5.009
  106OSM   C16S10781   4.855   1.447   5.088
  106OSM   H16S10782   4.801   1.395   5.170
  106OSM   H16T10783   4.956   1.462   5.131
  106OSM   C17S10784   4.855   1.353   4.963
  106OSM   H17S10785   4.749   1.358   4.930
  106OSM   H17T10786   4.890   1.252   4.993
  106OSM   C18S10787   4.939   1.407   4.849
  106OSM   H18S10788   4.886   1.485   4.791
  106OSM   H18T10789   4.968   1.329   4.775
  106OSM   H18U10790   5.036   1.450   4.881
  106OSM    C1F10791   4.757   1.638   6.536
  106OSM     OF10792   4.795   1.528   6.583
  106OSM    C2F10793   4.858   1.745   6.514
  106OSM    H2F10794   4.927   1.761   6.600
  106OSM    H2G10795   4.813   1.845   6.499
  106OSM    C3F10796   4.934   1.700   6.388
  106OSM    H3F10797   4.972   1.596   6.402
  106OSM    H3G10798   5.021   1.768   6.374
  106OSM    C4F10799   4.854   1.697   6.260
  106OSM    H4F10800   4.824   1.800   6.233
  106OSM    H4G10801   4.757   1.643   6.262
  106OSM    C5F10802   4.948   1.651   6.149
  106OSM    H5F10803   4.955   1.540   6.150
  106OSM    H5G10804   5.048   1.690   6.180
  106OSM    C6F10805   4.905   1.697   6.010
  106OSM    H6F10806   4.868   1.802   6.008
  106OSM    H6G10807   4.818   1.640   5.972
  106OSM    C7F10808   5.022   1.685   5.914
  106OSM    H7F10809   5.059   1.581   5.910
  106OSM    H7G10810   5.102   1.745   5.963
  106OSM    C8F10811   4.973   1.745   5.779
  106OSM    H8F10812   4.934   1.844   5.810
  106OSM    H8G10813   4.889   1.679   5.749
  106OSM    C9F10814   5.093   1.750   5.678
  106OSM    H9F10815   5.167   1.829   5.696
  106OSM   C10F10816   5.131   1.653   5.597
  106OSM   H10F10817   5.210   1.679   5.526
  106OSM   C11F10818   5.058   1.523   5.566
  106OSM   H11F10819   4.961   1.499   5.616
  106OSM   H11G10820   5.112   1.441   5.618
  106OSM   C12F10821   5.044   1.491   5.414
  106OSM   H12F10822   5.000   1.587   5.379
  106OSM   H12G10823   4.965   1.415   5.404
  106OSM   C13F10824   5.177   1.477   5.336
  106OSM   H13F10825   5.257   1.540   5.381
  106OSM   H13G10826   5.166   1.514   5.232
  106OSM   C14F10827   5.218   1.332   5.338
  106OSM   H14F10828   5.128   1.268   5.343
  106OSM   H14G10829   5.278   1.303   5.427
  106OSM   C15F10830   5.288   1.304   5.202
  106OSM   H15F10831   5.248   1.359   5.114
  106OSM   H15G10832   5.257   1.201   5.176
  106OSM   C16F10833   5.443   1.298   5.209
  106OSM   H16F10834   5.490   1.239   5.127
  106OSM   H16G10835   5.462   1.228   5.294
  106OSM   C17F10836   5.514   1.434   5.220
  106OSM   H17F10837   5.476   1.503   5.298
  106OSM   H17G10838   5.475   1.490   5.133
  106OSM   C18F10839   5.669   1.447   5.214
  106OSM   H18F10840   5.708   1.385   5.297
  106OSM   H18G10841   5.699   1.552   5.230
  106OSM   H18H10842   5.709   1.404   5.120
  107OSM      N10843   3.615   5.667   6.881
  107OSM    C1510844   3.709   5.647   6.992
  107OSM   H15A10845   3.659   5.628   7.086
  107OSM   H15B10846   3.760   5.741   7.011
  107OSM   H15C10847   3.791   5.578   6.983
  107OSM    C1410848   3.533   5.544   6.862
  107OSM   H14A10849   3.461   5.525   6.939
  107OSM   H14B10850   3.600   5.460   6.845
  107OSM   H14C10851   3.471   5.550   6.774
  107OSM    C1310852   3.527   5.787   6.887
  107OSM   H13A10853   3.461   5.783   6.973
  107OSM   H13B10854   3.466   5.808   6.800
  107OSM   H13C10855   3.591   5.874   6.886
  107OSM    C1210856   3.701   5.689   6.758
  107OSM   H12A10857   3.639   5.701   6.669
  107OSM   H12B10858   3.750   5.593   6.744
  107OSM    C1110859   3.824   5.790   6.756
  107OSM   H11A10860   3.878   5.788   6.659
  107OSM   H11B10861   3.898   5.750   6.829
  107OSM      P10862   3.728   6.033   6.688
  107OSM    O1310863   3.604   6.095   6.741
  107OSM    O1410864   3.842   6.123   6.671
  107OSM    O1110865   3.704   5.953   6.562
  107OSM    O1210866   3.776   5.919   6.788
  107OSM    C1S10867   3.650   6.017   6.446
  107OSM    H1S10868   3.624   6.123   6.468
  107OSM    H1T10869   3.565   5.953   6.416
  107OSM     NF10870   3.687   6.096   6.213
  107OSM    HNF10871   3.629   6.049   6.147
  107OSM    C2S10872   3.748   6.017   6.326
  107OSM    H2S10873   3.842   6.069   6.353
  107OSM    C3S10874   3.790   5.878   6.287
  107OSM    H3S10875   3.701   5.812   6.287
  107OSM     O310876   3.871   5.808   6.383
  107OSM    HO310877   3.832   5.836   6.466
  107OSM    C4S10878   3.864   5.863   6.158
  107OSM    H4S10879   3.940   5.939   6.132
  107OSM    C5S10880   3.843   5.760   6.075
  107OSM    H5S10881   3.772   5.681   6.107
  107OSM    C6S10882   3.899   5.748   5.934
  107OSM    H6S10883   3.949   5.649   5.930
  107OSM    H6T10884   3.978   5.824   5.918
  107OSM    C7S10885   3.800   5.786   5.822
  107OSM    H7S10886   3.746   5.878   5.853
  107OSM    H7T10887   3.738   5.695   5.812
  107OSM    C8S10888   3.869   5.806   5.691
  107OSM    H8S10889   3.907   5.703   5.677
  107OSM    H8T10890   3.951   5.880   5.702
  107OSM    C9S10891   3.767   5.822   5.576
  107OSM    H9S10892   3.693   5.897   5.612
  107OSM    H9T10893   3.708   5.729   5.561
  107OSM   C10S10894   3.833   5.846   5.444
  107OSM   H10S10895   3.900   5.760   5.423
  107OSM   H10T10896   3.899   5.933   5.463
  107OSM   C11S10897   3.746   5.864   5.318
  107OSM   H11S10898   3.670   5.945   5.324
  107OSM   H11T10899   3.680   5.775   5.310
  107OSM   C12S10900   3.818   5.882   5.183
  107OSM   H12S10901   3.924   5.848   5.189
  107OSM   H12T10902   3.824   5.991   5.163
  107OSM   C13S10903   3.756   5.790   5.070
  107OSM   H13S10904   3.648   5.814   5.068
  107OSM   H13T10905   3.752   5.688   5.113
  107OSM   C14S10906   3.823   5.798   4.936
  107OSM   H14S10907   3.785   5.718   4.869
  107OSM   H14T10908   3.930   5.773   4.950
  107OSM   C15S10909   3.816   5.932   4.854
  107OSM   H15S10910   3.902   6.001   4.868
  107OSM   H15T10911   3.727   5.992   4.883
  107OSM   C16S10912   3.817   5.902   4.704
  107OSM   H16S10913   3.754   5.984   4.664
  107OSM   H16T10914   3.770   5.804   4.681
  107OSM   C17S10915   3.961   5.892   4.657
  107OSM   H17S10916   4.001   5.795   4.694
  107OSM   H17T10917   4.029   5.972   4.692
  107OSM   C18S10918   3.986   5.895   4.504
  107OSM   H18S10919   3.911   5.965   4.461
  107OSM   H18T10920   3.972   5.791   4.469
  107OSM   H18U10921   4.092   5.925   4.484
  107OSM    C1F10922   3.676   6.226   6.221
  107OSM     OF10923   3.737   6.279   6.315
  107OSM    C2F10924   3.600   6.304   6.115
  107OSM    H2F10925   3.586   6.413   6.133
  107OSM    H2G10926   3.508   6.247   6.093
  107OSM    C3F10927   3.683   6.299   5.983
  107OSM    H3F10928   3.729   6.201   5.957
  107OSM    H3G10929   3.760   6.377   6.000
  107OSM    C4F10930   3.605   6.357   5.861
  107OSM    H4F10931   3.560   6.455   5.889
  107OSM    H4G10932   3.522   6.290   5.830
  107OSM    C5F10933   3.702   6.380   5.746
  107OSM    H5F10934   3.763   6.291   5.721
  107OSM    H5G10935   3.784   6.451   5.767
  107OSM    C6F10936   3.641   6.414   5.606
  107OSM    H6F10937   3.538   6.371   5.608
  107OSM    H6G10938   3.705   6.362   5.532
  107OSM    C7F10939   3.635   6.571   5.583
  107OSM    H7F10940   3.739   6.608   5.573
  107OSM    H7G10941   3.601   6.619   5.677
  107OSM    C8F10942   3.539   6.620   5.472
  107OSM    H8F10943   3.438   6.577   5.492
  107OSM    H8G10944   3.586   6.571   5.384
  107OSM    C9F10945   3.532   6.771   5.472
  107OSM    H9F10946   3.596   0.003   5.548
  107OSM   C10F10947   3.446   0.031   5.402
  107OSM   H10F10948   3.434   0.139   5.418
  107OSM   C11F10949   3.357   6.784   5.297
  107OSM   H11F10950   3.254   6.764   5.333
  107OSM   H11G10951   3.390   6.686   5.256
  107OSM   C12F10952   3.348   0.068   5.176
  107OSM   H12F10953   3.430   0.049   5.102
  107OSM   H12G10954   3.351   0.169   5.221
  107OSM   C13F10955   3.221   0.058   5.081
  107OSM   H13F10956   3.208   0.150   5.019
  107OSM   H13G10957   3.128   0.060   5.143
  107OSM   C14F10958   3.231   6.742   4.991
  107OSM   H14F10959   3.143   6.740   4.923
  107OSM   H14G10960   3.219   6.664   5.069
  107OSM   C15F10961   3.361   6.726   4.908
  107OSM   H15F10962   3.349   6.635   4.845
  107OSM   H15G10963   3.442   6.702   4.981
  107OSM   C16F10964   3.396   0.030   4.826
  107OSM   H16F10965   3.430   0.107   4.898
  107OSM   H16G10966   3.306   0.066   4.772
  107OSM   C17F10967   3.505   0.007   4.721
  107OSM   H17F10968   3.473   6.759   4.635
  107OSM   H17G10969   3.590   6.772   4.772
  107OSM   C18F10970   3.555   0.140   4.664
  107OSM   H18F10971   3.507   0.162   4.567
  107OSM   H18G10972   3.664   0.137   4.643
  107OSM   H18H10973   3.534   0.222   4.736
  108OSM      N10974   0.318   5.638   6.638
  108OSM    C1510975   0.412   5.524   6.610
  108OSM   H15A10976   0.493   5.522   6.681
  108OSM   H15B10977   0.470   5.547   6.522
  108OSM   H15C10978   0.354   5.433   6.603
  108OSM    C1410979   0.391   5.765   6.654
  108OSM   H14A10980   0.321   5.843   6.682
  108OSM   H14B10981   0.443   5.787   6.562
  108OSM   H14C10982   0.458   5.767   6.739
  108OSM    C1310983   0.227   5.650   6.522
  108OSM   H13A10984   0.172   5.742   6.534
  108OSM   H13B10985   0.160   5.565   6.518
  108OSM   H13C10986   0.283   5.660   6.430
  108OSM    C1210987   0.241   5.603   6.762
  108OSM   H12A10988   0.312   5.601   6.843
  108OSM   H12B10989   0.194   5.506   6.755
  108OSM    C1110990   0.141   5.703   6.808
  108OSM   H11A10991   0.089   5.747   6.720
  108OSM   H11B10992   0.204   5.778   6.860
  108OSM      P10993   6.758   5.543   6.857
  108OSM    O1310994   0.001   5.408   6.885
  108OSM    O1410995   6.622   5.581   6.903
  108OSM    O1110996   6.760   5.546   6.697
  108OSM    O1210997   0.054   5.650   6.905
  108OSM    C1S10998   6.645   5.601   6.632
  108OSM    H1S10999   6.611   5.698   6.674
  108OSM    H1T11000   6.567   5.522   6.629
  108OSM     NF11001   6.557   5.714   6.430
  108OSM    HNF11002   6.489   5.675   6.369
  108OSM    C2S11003   6.670   5.640   6.478
  108OSM    H2S11004   6.764   5.698   6.463
  108OSM    C3S11005   6.695   5.506   6.397
  108OSM    H3S11006   6.593   5.463   6.407
  108OSM     O311007   6.786   5.415   6.448
  108OSM    HO311008   6.781   5.424   6.544
  108OSM    C4S11009   6.722   5.523   6.248
  108OSM    H4S11010   6.638   5.493   6.183
  108OSM    C5S11011   0.029   5.545   6.190
  108OSM    H5S11012   0.117   5.557   6.256
  108OSM    C6S11013   0.059   5.568   6.048
  108OSM    H6S11014   0.153   5.510   6.030
  108OSM    H6T11015   0.079   5.673   6.020
  108OSM    C7S11016   6.782   5.525   5.933
  108OSM    H7S11017   6.689   5.586   5.933
  108OSM    H7T11018   6.745   5.422   5.952
  108OSM    C8S11019   0.024   5.536   5.796
  108OSM    H8S11020   0.099   5.458   5.771
  108OSM    H8T11021   0.071   5.636   5.789
  108OSM    C9S11022   6.717   5.518   5.696
  108OSM    H9S11023   6.651   5.605   5.718
  108OSM    H9T11024   6.661   5.429   5.731
  108OSM   C10S11025   6.767   5.517   5.544
  108OSM   H10S11026   6.804   5.415   5.522
  108OSM   H10T11027   0.034   5.591   5.532
  108OSM   C11S11028   6.653   5.544   5.455
  108OSM   H11S11029   6.613   5.642   5.489
  108OSM   H11T11030   6.567   5.473   5.457
  108OSM   C12S11031   6.689   5.579   5.306
  108OSM   H12S11032   6.719   5.482   5.262
  108OSM   H12T11033   6.778   5.645   5.301
  108OSM   C13S11034   6.579   5.646   5.220
  108OSM   H13S11035   6.544   5.742   5.263
  108OSM   H13T11036   6.489   5.580   5.219
  108OSM   C14S11037   6.621   5.680   5.075
  108OSM   H14S11038   6.625   5.581   5.025
  108OSM   H14T11039   6.721   5.729   5.076
  108OSM   C15S11040   6.525   5.772   5.003
  108OSM   H15S11041   6.515   5.863   5.066
  108OSM   H15T11042   6.426   5.725   4.982
  108OSM   C16S11043   6.585   5.826   4.877
  108OSM   H16S11044   6.585   5.737   4.809
  108OSM   H16T11045   6.687   5.862   4.903
  108OSM   C17S11046   6.515   5.933   4.797
  108OSM   H17S11047   6.515   6.030   4.850
  108OSM   H17T11048   6.408   5.908   4.781
  108OSM   C18S11049   6.579   5.955   4.662
  108OSM   H18S11050   6.690   5.957   4.661
  108OSM   H18T11051   6.547   6.057   4.632
  108OSM   H18U11052   6.540   5.883   4.588
  108OSM    C1F11053   6.533   5.839   6.478
  108OSM     OF11054   6.618   5.903   6.538
  108OSM    C2F11055   6.394   5.898   6.467
  108OSM    H2F11056   6.354   5.913   6.570
  108OSM    H2G11057   6.325   5.836   6.406
  108OSM    C3F11058   6.402   6.036   6.399
  108OSM    H3F11059   6.438   6.109   6.475
  108OSM    H3G11060   6.298   6.071   6.386
  108OSM    C4F11061   6.482   6.044   6.264
  108OSM    H4F11062   6.589   6.024   6.280
  108OSM    H4G11063   6.474   6.151   6.234
  108OSM    C5F11064   6.448   5.947   6.153
  108OSM    H5F11065   6.348   5.905   6.176
  108OSM    H5G11066   6.524   5.867   6.168
  108OSM    C6F11067   6.464   6.009   6.019
  108OSM    H6F11068   6.563   6.058   6.010
  108OSM    H6G11069   6.392   6.092   6.005
  108OSM    C7F11070   6.451   5.923   5.894
  108OSM    H7F11071   6.454   5.990   5.806
  108OSM    H7G11072   6.355   5.868   5.896
  108OSM    C8F11073   6.561   5.816   5.873
  108OSM    H8F11074   6.528   5.760   5.783
  108OSM    H8G11075   6.558   5.738   5.952
  108OSM    C9F11076   6.690   5.886   5.875
  108OSM    H9F11077   6.745   5.886   5.970
  108OSM   C10F11078   6.755   5.929   5.765
  108OSM   H10F11079   0.039   5.978   5.769
  108OSM   C11F11080   6.726   5.924   5.616
  108OSM   H11F11081   6.618   5.906   5.600
  108OSM   H11G11082   6.782   5.844   5.562
  108OSM   C12F11083   6.764   6.057   5.534
  108OSM   H12F11084   0.059   6.061   5.518
  108OSM   H12G11085   6.728   6.145   5.591
  108OSM   C13F11086   6.700   6.044   5.393
  108OSM   H13F11087   6.591   6.030   5.407
  108OSM   H13G11088   6.719   5.939   5.362
  108OSM   C14F11089   6.736   6.151   5.289
  108OSM   H14F11090   6.729   6.246   5.346
  108OSM   H14G11091   6.663   6.141   5.206
  108OSM   C15F11092   0.064   6.125   5.241
  108OSM   H15F11093   0.140   6.107   5.321
  108OSM   H15G11094   0.104   6.219   5.197
  108OSM   C16F11095   0.073   6.017   5.139
  108OSM   H16F11096   6.805   6.020   5.065
  108OSM   H16G11097   0.050   5.920   5.190
  108OSM   C17F11098   0.208   6.012   5.061
  108OSM   H17F11099   0.295   5.987   5.126
  108OSM   H17G11100   0.231   6.113   5.019
  108OSM   C18F11101   0.211   5.912   4.953
  108OSM   H18F11102   0.136   5.931   4.874
  108OSM   H18G11103   0.196   5.808   4.991
  108OSM   H18H11104   0.309   5.918   4.901
  109OSM      N11105   2.609   2.431   6.658
  109OSM    C1511106   2.741   2.415   6.731
  109OSM   H15A11107   2.720   2.385   6.833
  109OSM   H15B11108   2.796   2.507   6.742
  109OSM   H15C11109   2.807   2.349   6.676
  109OSM    C1411110   2.541   2.302   6.673
  109OSM   H14A11111   2.441   2.304   6.631
  109OSM   H14B11112   2.516   2.280   6.775
  109OSM   H14C11113   2.592   2.221   6.622
  109OSM    C1311114   2.530   2.543   6.725
  109OSM   H13A11115   2.510   2.530   6.830
  109OSM   H13B11116   2.425   2.549   6.699
  109OSM   H13C11117   2.578   2.639   6.715
  109OSM    C1211118   2.628   2.470   6.513
  109OSM   H12A11119   2.680   2.563   6.497
  109OSM   H12B11120   2.530   2.495   6.475
  109OSM    C1111121   2.698   2.368   6.423
  109OSM   H11A11122   2.686   2.412   6.322
  109OSM   H11B11123   2.651   2.268   6.438
  109OSM      P11124   2.942   2.483   6.420
  109OSM    O1311125   2.862   2.609   6.426
  109OSM    O1411126   3.060   2.472   6.506
  109OSM    O1111127   2.985   2.459   6.267
  109OSM    O1211128   2.843   2.362   6.437
  109OSM    C1S11129   3.026   2.327   6.219
  109OSM    H1S11130   2.938   2.260   6.232
  109OSM    H1T11131   3.110   2.297   6.285
  109OSM     NF11132   3.085   2.206   6.008
  109OSM    HNF11133   3.170   2.168   5.974
  109OSM    C2S11134   3.077   2.336   6.073
  109OSM    H2S11135   2.999   2.385   6.011
  109OSM    C3S11136   3.204   2.420   6.060
  109OSM    H3S11137   3.287   2.367   6.111
  109OSM     O311138   3.187   2.546   6.128
  109OSM    HO311139   3.106   2.542   6.180
  109OSM    C4S11140   3.234   2.452   5.916
  109OSM    H4S11141   3.200   2.551   5.885
  109OSM    C5S11142   3.304   2.383   5.825
  109OSM    H5S11143   3.358   2.289   5.845
  109OSM    C6S11144   3.326   2.433   5.681
  109OSM    H6S11145   3.433   2.426   5.653
  109OSM    H6T11146   3.292   2.539   5.682
  109OSM    C7S11147   3.250   2.342   5.592
  109OSM    H7S11148   3.141   2.358   5.607
  109OSM    H7T11149   3.278   2.235   5.604
  109OSM    C8S11150   3.273   2.372   5.441
  109OSM    H8S11151   3.263   2.479   5.412
  109OSM    H8T11152   3.203   2.311   5.380
  109OSM    C9S11153   3.416   2.340   5.398
  109OSM    H9S11154   3.440   2.233   5.415
  109OSM    H9T11155   3.500   2.395   5.445
  109OSM   C10S11156   3.431   2.371   5.245
  109OSM   H10S11157   3.400   2.477   5.232
  109OSM   H10T11158   3.366   2.311   5.177
  109OSM   C11S11159   3.576   2.369   5.200
  109OSM   H11S11160   3.605   2.264   5.178
  109OSM   H11T11161   3.640   2.409   5.281
  109OSM   C12S11162   3.596   2.448   5.074
  109OSM   H12S11163   3.542   2.545   5.071
  109OSM   H12T11164   3.547   2.385   4.997
  109OSM   C13S11165   3.746   2.476   5.036
  109OSM   H13S11166   3.792   2.377   5.059
  109OSM   H13T11167   3.802   2.551   5.097
  109OSM   C14S11168   3.756   2.501   4.886
  109OSM   H14S11169   3.699   2.596   4.880
  109OSM   H14T11170   3.707   2.420   4.829
  109OSM   C15S11171   3.903   2.515   4.833
  109OSM   H15S11172   3.883   2.529   4.724
  109OSM   H15T11173   3.955   2.417   4.835
  109OSM   C16S11174   3.992   2.622   4.897
  109OSM   H16S11175   4.093   2.637   4.853
  109OSM   H16T11176   4.002   2.598   5.005
  109OSM   C17S11177   3.925   2.756   4.879
  109OSM   H17S11178   3.833   2.756   4.942
  109OSM   H17T11179   3.896   2.775   4.774
  109OSM   C18S11180   4.018   2.872   4.920
  109OSM   H18S11181   4.064   2.867   5.021
  109OSM   H18T11182   3.957   2.965   4.925
  109OSM   H18U11183   4.103   2.878   4.849
  109OSM    C1F11184   2.977   2.126   5.991
  109OSM     OF11185   2.862   2.160   6.011
  109OSM    C2F11186   3.000   1.995   5.925
  109OSM    H2F11187   2.990   1.914   6.001
  109OSM    H2G11188   3.097   1.994   5.872
  109OSM    C3F11189   2.898   1.978   5.804
  109OSM    H3F11190   2.794   1.969   5.844
  109OSM    H3G11191   2.934   1.883   5.759
  109OSM    C4F11192   2.911   2.100   5.705
  109OSM    H4F11193   3.020   2.119   5.693
  109OSM    H4G11194   2.861   2.187   5.752
  109OSM    C5F11195   2.841   2.062   5.572
  109OSM    H5F11196   2.732   2.047   5.588
  109OSM    H5G11197   2.888   1.966   5.542
  109OSM    C6F11198   2.876   2.151   5.449
  109OSM    H6F11199   2.985   2.174   5.443
  109OSM    H6G11200   2.830   2.251   5.463
  109OSM    C7F11201   2.854   2.079   5.314
  109OSM    H7F11202   2.760   2.019   5.319
  109OSM    H7G11203   2.939   2.009   5.300
  109OSM    C8F11204   2.828   2.177   5.198
  109OSM    H8F11205   2.723   2.212   5.209
  109OSM    H8G11206   2.821   2.120   5.102
  109OSM    C9F11207   2.926   2.288   5.179
  109OSM    H9F11208   2.902   2.375   5.241
  109OSM   C10F11209   3.038   2.279   5.106
  109OSM   H10F11210   3.106   2.366   5.112
  109OSM   C11F11211   3.103   2.161   5.037
  109OSM   H11F11212   3.075   2.065   5.086
  109OSM   H11G11213   3.213   2.172   5.032
  109OSM   C12F11214   3.049   2.148   4.897
  109OSM   H12F11215   3.054   2.248   4.849
  109OSM   H12G11216   2.944   2.112   4.903
  109OSM   C13F11217   3.126   2.042   4.817
  109OSM   H13F11218   3.158   1.960   4.885
  109OSM   H13G11219   3.217   2.085   4.771
  109OSM   C14F11220   3.035   1.965   4.713
  109OSM   H14F11221   2.984   2.050   4.662
  109OSM   H14G11222   2.945   1.917   4.757
  109OSM   C15F11223   3.117   1.887   4.615
  109OSM   H15F11224   3.195   1.827   4.666
  109OSM   H15G11225   3.183   1.961   4.564
  109OSM   C16F11226   3.039   1.819   4.506
  109OSM   H16F11227   3.102   1.806   4.416
  109OSM   H16G11228   2.951   1.883   4.484
  109OSM   C17F11229   2.981   1.683   4.548
  109OSM   H17F11230   2.926   1.708   4.642
  109OSM   H17G11231   3.057   1.606   4.572
  109OSM   C18F11232   2.886   1.630   4.432
  109OSM   H18F11233   2.925   1.639   4.329
  109OSM   H18G11234   2.793   1.689   4.436
  109OSM   H18H11235   2.871   1.520   4.442
  110OSM      N11236   5.240   5.786   7.113
  110OSM    C1511237   5.268   5.890   7.217
  110OSM   H15A11238   5.335   5.968   7.184
  110OSM   H15B11239   5.306   5.850   7.310
  110OSM   H15C11240   5.176   5.938   7.247
  110OSM    C1411241   5.179   5.671   7.183
  110OSM   H14A11242   5.246   5.600   7.229
  110OSM   H14B11243   5.119   5.622   7.107
  110OSM   H14C11244   5.106   5.711   7.253
  110OSM    C1311245   5.152   5.839   7.000
  110OSM   H13A11246   5.136   5.762   6.926
  110OSM   H13B11247   5.201   5.927   6.961
  110OSM   H13C11248   5.059   5.875   7.042
  110OSM    C1211249   5.373   5.732   7.056
  110OSM   H12A11250   5.347   5.645   6.997
  110OSM   H12B11251   5.434   5.687   7.133
  110OSM    C1111252   5.450   5.827   6.959
  110OSM   H11A11253   5.384   5.833   6.870
  110OSM   H11B11254   5.543   5.775   6.926
  110OSM      P11255   5.455   6.094   6.942
  110OSM    O1311256   5.391   6.187   7.038
  110OSM    O1411257   5.574   6.140   6.862
  110OSM    O1111258   5.336   6.058   6.831
  110OSM    O1211259   5.490   5.958   7.011
  110OSM    C1S11260   5.283   6.163   6.761
  110OSM    H1S11261   5.313   6.266   6.788
  110OSM    H1T11262   5.175   6.169   6.785
  110OSM     NF11263   5.247   6.258   6.536
  110OSM    HNF11264   5.152   6.254   6.508
  110OSM    C2S11265   5.296   6.139   6.610
  110OSM    H2S11266   5.403   6.123   6.585
  110OSM    C3S11267   5.241   5.999   6.563
  110OSM    H3S11268   5.133   6.013   6.580
  110OSM     O311269   5.279   5.885   6.639
  110OSM    HO311270   5.330   5.930   6.707
  110OSM    C4S11271   5.243   5.978   6.416
  110OSM    H4S11272   5.154   6.020   6.365
  110OSM    C5S11273   5.343   5.921   6.353
  110OSM    H5S11274   5.435   5.881   6.398
  110OSM    C6S11275   5.339   5.900   6.204
  110OSM    H6S11276   5.240   5.861   6.173
  110OSM    H6T11277   5.406   5.821   6.164
  110OSM    C7S11278   5.355   6.016   6.112
  110OSM    H7S11279   5.461   6.047   6.094
  110OSM    H7T11280   5.321   6.107   6.166
  110OSM    C8S11281   5.288   6.008   5.976
  110OSM    H8S11282   5.181   6.037   5.990
  110OSM    H8T11283   5.295   5.904   5.937
  110OSM    C9S11284   5.355   6.099   5.873
  110OSM    H9S11285   5.438   6.045   5.822
  110OSM    H9T11286   5.399   6.179   5.937
  110OSM   C10S11287   5.262   6.152   5.758
  110OSM   H10S11288   5.166   6.180   5.808
  110OSM   H10T11289   5.242   6.068   5.688
  110OSM   C11S11290   5.324   6.265   5.675
  110OSM   H11S11291   5.416   6.229   5.624
  110OSM   H11T11292   5.346   6.355   5.735
  110OSM   C12S11293   5.219   6.305   5.574
  110OSM   H12S11294   5.237   6.411   5.546
  110OSM   H12T11295   5.120   6.304   5.624
  110OSM   C13S11296   5.214   6.214   5.450
  110OSM   H13S11297   5.169   6.117   5.478
  110OSM   H13T11298   5.319   6.193   5.419
  110OSM   C14S11299   5.142   6.280   5.328
  110OSM   H14S11300   5.037   6.285   5.366
  110OSM   H14T11301   5.158   6.204   5.249
  110OSM   C15S11302   5.183   6.426   5.294
  110OSM   H15S11303   5.159   6.498   5.375
  110OSM   H15T11304   5.128   6.467   5.207
  110OSM   C16S11305   5.332   6.436   5.236
  110OSM   H16S11306   5.354   6.340   5.184
  110OSM   H16T11307   5.406   6.442   5.318
  110OSM   C17S11308   5.357   6.563   5.151
  110OSM   H17S11309   5.271   6.580   5.081
  110OSM   H17T11310   5.441   6.548   5.080
  110OSM   C18S11311   5.381   6.696   5.224
  110OSM   H18S11312   5.422   6.775   5.157
  110OSM   H18T11313   5.465   6.696   5.296
  110OSM   H18U11314   5.294   6.733   5.282
  110OSM    C1F11315   5.318   6.373   6.542
  110OSM     OF11316   5.436   6.357   6.559
  110OSM    C2F11317   5.255   6.505   6.532
  110OSM    H2F11318   5.288   6.571   6.616
  110OSM    H2G11319   5.146   6.502   6.551
  110OSM    C3F11320   5.301   6.552   6.392
  110OSM    H3F11321   5.412   6.549   6.398
  110OSM    H3G11322   5.277   6.658   6.367
  110OSM    C4F11323   5.231   6.464   6.280
  110OSM    H4F11324   5.127   6.502   6.276
  110OSM    H4G11325   5.244   6.354   6.294
  110OSM    C5F11326   5.288   6.483   6.135
  110OSM    H5F11327   5.392   6.444   6.143
  110OSM    H5G11328   5.310   6.590   6.117
  110OSM    C6F11329   5.207   6.408   6.026
  110OSM    H6F11330   5.210   6.305   6.067
  110OSM    H6G11331   5.268   6.410   5.933
  110OSM    C7F11332   5.059   6.462   6.005
  110OSM    H7F11333   5.059   6.572   5.992
  110OSM    H7G11334   5.001   6.432   6.095
  110OSM    C8F11335   5.005   6.390   5.882
  110OSM    H8F11336   4.996   6.287   5.923
  110OSM    H8G11337   5.074   6.391   5.794
  110OSM    C9F11338   4.869   6.436   5.842
  110OSM    H9F11339   4.792   6.401   5.911
  110OSM   C10F11340   4.836   6.493   5.723
  110OSM   H10F11341   4.733   6.527   5.709
  110OSM   C11F11342   4.926   6.547   5.614
  110OSM   H11F11343   4.894   6.483   5.529
  110OSM   H11G11344   5.035   6.529   5.627
  110OSM   C12F11345   4.910   6.703   5.608
  110OSM   H12F11346   4.939   6.742   5.708
  110OSM   H12G11347   4.802   6.719   5.588
  110OSM   C13F11348   4.996   6.772   5.501
  110OSM   H13F11349   5.100   6.735   5.511
  110OSM   H13G11350   5.005   0.068   5.507
  110OSM   C14F11351   4.928   6.736   5.367
  110OSM   H14F11352   4.837   6.797   5.348
  110OSM   H14G11353   4.905   6.628   5.360
  110OSM   C15F11354   5.017   6.793   5.246
  110OSM   H15F11355   5.108   6.733   5.223
  110OSM   H15G11356   5.045   0.083   5.269
  110OSM   C16F11357   4.939   6.800   5.114
  110OSM   H16F11358   4.997   0.039   5.036
  110OSM   H16G11359   4.840   0.033   5.130
  110OSM   C17F11360   4.908   6.662   5.066
  110OSM   H17F11361   4.861   6.599   5.145
  110OSM   H17G11362   4.997   6.607   5.029
  110OSM   C18F11363   4.820   6.654   4.933
  110OSM   H18F11364   4.847   6.720   4.848
  110OSM   H18G11365   4.720   6.696   4.959
  110OSM   H18H11366   4.812   6.550   4.894
  111OSM      N11367   1.189   3.861   6.704
  111OSM    C1511368   1.115   3.981   6.659
  111OSM   H15A11369   1.016   3.983   6.702
  111OSM   H15B11370   1.111   3.975   6.551
  111OSM   H15C11371   1.167   4.071   6.688
  111OSM    C1411372   1.333   3.879   6.670
  111OSM   H14A11373   1.366   3.974   6.709
  111OSM   H14B11374   1.335   3.895   6.563
  111OSM   H14C11375   1.410   3.805   6.688
  111OSM    C1311376   1.176   3.855   6.852
  111OSM   H13A11377   1.232   3.935   6.898
  111OSM   H13B11378   1.199   3.755   6.887
  111OSM   H13C11379   1.073   3.870   6.882
  111OSM    C1211380   1.129   3.739   6.645
  111OSM   H12A11381   1.029   3.747   6.685
  111OSM   H12B11382   1.187   3.661   6.692
  111OSM    C1111383   1.134   3.724   6.489
  111OSM   H11A11384   1.107   3.619   6.467
  111OSM   H11B11385   1.242   3.731   6.463
  111OSM      P11386   0.909   3.797   6.384
  111OSM    O1311387   0.901   3.666   6.316
  111OSM    O1411388   0.834   3.823   6.506
  111OSM    O1111389   0.881   3.921   6.291
  111OSM    O1211390   1.060   3.821   6.422
  111OSM    C1S11391   0.966   4.035   6.281
  111OSM    H1S11392   1.069   3.996   6.293
  111OSM    H1T11393   0.934   4.105   6.360
  111OSM     NF11394   1.064   4.202   6.143
  111OSM    HNF11395   1.032   4.295   6.156
  111OSM    C2S11396   0.957   4.108   6.145
  111OSM    H2S11397   0.968   4.030   6.067
  111OSM    C3S11398   0.816   4.162   6.127
  111OSM    H3S11399   0.804   4.241   6.205
  111OSM     O311400   0.711   4.076   6.156
  111OSM    HO311401   0.758   4.006   6.203
  111OSM    C4S11402   0.796   4.249   6.001
  111OSM    H4S11403   0.866   4.335   6.007
  111OSM    C5S11404   0.726   4.223   5.888
  111OSM    H5S11405   0.659   4.135   5.886
  111OSM    C6S11406   0.710   4.321   5.778
  111OSM    H6S11407   0.703   4.424   5.817
  111OSM    H6T11408   0.617   4.301   5.721
  111OSM    C7S11409   0.832   4.302   5.697
  111OSM    H7S11410   0.840   4.199   5.656
  111OSM    H7T11411   0.923   4.326   5.756
  111OSM    C8S11412   0.854   4.400   5.576
  111OSM    H8S11413   0.962   4.410   5.551
  111OSM    H8T11414   0.827   4.502   5.608
  111OSM    C9S11415   0.788   4.347   5.448
  111OSM    H9S11416   0.687   4.307   5.471
  111OSM    H9T11417   0.842   4.253   5.421
  111OSM   C10S11418   0.780   4.446   5.329
  111OSM   H10S11419   0.886   4.463   5.299
  111OSM   H10T11420   0.735   4.536   5.376
  111OSM   C11S11421   0.698   4.412   5.207
  111OSM   H11S11422   0.700   4.497   5.135
  111OSM   H11T11423   0.597   4.388   5.248
  111OSM   C12S11424   0.742   4.292   5.131
  111OSM   H12S11425   0.654   4.282   5.064
  111OSM   H12T11426   0.732   4.202   5.196
  111OSM   C13S11427   0.874   4.297   5.061
  111OSM   H13S11428   0.959   4.278   5.131
  111OSM   H13T11429   0.892   4.400   5.022
  111OSM   C14S11430   0.875   4.218   4.928
  111OSM   H14S11431   0.827   4.118   4.938
  111OSM   H14T11432   0.979   4.193   4.898
  111OSM   C15S11433   0.816   4.294   4.805
  111OSM   H15S11434   0.719   4.345   4.822
  111OSM   H15T11435   0.801   4.230   4.716
  111OSM   C16S11436   0.904   4.412   4.756
  111OSM   H16S11437   1.000   4.374   4.715
  111OSM   H16T11438   0.923   4.485   4.838
  111OSM   C17S11439   0.828   4.479   4.640
  111OSM   H17S11440   0.729   4.521   4.669
  111OSM   H17T11441   0.796   4.401   4.568
  111OSM   C18S11442   0.912   4.582   4.557
  111OSM   H18S11443   0.854   4.653   4.494
  111OSM   H18T11444   0.996   4.545   4.494
  111OSM   H18U11445   0.964   4.647   4.630
  111OSM    C1F11446   1.190   4.185   6.110
  111OSM     OF11447   1.233   4.079   6.071
  111OSM    C2F11448   1.276   4.315   6.132
  111OSM    H2F11449   1.330   4.297   6.227
  111OSM    H2G11450   1.212   4.405   6.142
  111OSM    C3F11451   1.375   4.334   6.016
  111OSM    H3F11452   1.422   4.236   5.994
  111OSM    H3G11453   1.453   4.412   6.031
  111OSM    C4F11454   1.313   4.383   5.883
  111OSM    H4F11455   1.331   4.491   5.867
  111OSM    H4G11456   1.202   4.375   5.881
  111OSM    C5F11457   1.373   4.316   5.758
  111OSM    H5F11458   1.346   4.208   5.763
  111OSM    H5G11459   1.484   4.328   5.763
  111OSM    C6F11460   1.320   4.378   5.628
  111OSM    H6F11461   1.330   4.488   5.621
  111OSM    H6G11462   1.213   4.350   5.626
  111OSM    C7F11463   1.383   4.325   5.497
  111OSM    H7F11464   1.404   4.217   5.512
  111OSM    H7G11465   1.485   4.369   5.505
  111OSM    C8F11466   1.304   4.351   5.367
  111OSM    H8F11467   1.371   4.323   5.282
  111OSM    H8G11468   1.279   4.458   5.353
  111OSM    C9F11469   1.180   4.267   5.377
  111OSM    H9F11470   1.097   4.315   5.432
  111OSM   C10F11471   1.165   4.147   5.317
  111OSM   H10F11472   1.070   4.092   5.329
  111OSM   C11F11473   1.264   4.063   5.243
  111OSM   H11F11474   1.240   3.955   5.238
  111OSM   H11G11475   1.369   4.072   5.277
  111OSM   C12F11476   1.264   4.108   5.096
  111OSM   H12F11477   1.301   4.213   5.094
  111OSM   H12G11478   1.160   4.109   5.056
  111OSM   C13F11479   1.362   4.025   5.020
  111OSM   H13F11480   1.318   3.924   5.002
  111OSM   H13G11481   1.452   4.001   5.081
  111OSM   C14F11482   1.411   4.087   4.887
  111OSM   H14F11483   1.440   4.191   4.913
  111OSM   H14G11484   1.324   4.099   4.819
  111OSM   C15F11485   1.517   4.000   4.829
  111OSM   H15F11486   1.483   3.894   4.824
  111OSM   H15G11487   1.612   4.027   4.879
  111OSM   C16F11488   1.536   4.050   4.682
  111OSM   H16F11489   1.536   4.161   4.678
  111OSM   H16G11490   1.451   4.018   4.617
  111OSM   C17F11491   1.659   3.982   4.622
  111OSM   H17F11492   1.631   3.875   4.618
  111OSM   H17G11493   1.741   4.013   4.690
  111OSM   C18F11494   1.676   4.027   4.479
  111OSM   H18F11495   1.761   3.976   4.430
  111OSM   H18G11496   1.698   4.136   4.476
  111OSM   H18H11497   1.585   4.019   4.416
  112OSM      N11498   3.701   0.991   6.854
  112OSM    C1511499   3.568   0.940   6.811
  112OSM   H15A11500   3.508   1.023   6.775
  112OSM   H15B11501   3.520   0.886   6.892
  112OSM   H15C11502   3.568   0.868   6.730
  112OSM    C1411503   3.774   0.865   6.887
  112OSM   H14A11504   3.757   0.793   6.809
  112OSM   H14B11505   3.744   0.822   6.982
  112OSM   H14C11506   3.882   0.876   6.896
  112OSM    C1311507   3.768   1.071   6.740
  112OSM   H13A11508   3.860   1.118   6.771
  112OSM   H13B11509   3.712   1.157   6.705
  112OSM   H13C11510   3.796   1.016   6.652
  112OSM    C1211511   3.687   1.081   6.974
  112OSM   H12A11512   3.629   1.026   7.046
  112OSM   H12B11513   3.627   1.169   6.955
  112OSM    C1111514   3.820   1.148   7.026
  112OSM   H11A11515   3.894   1.065   7.023
  112OSM   H11B11516   3.806   1.183   7.131
  112OSM      P11517   3.803   1.396   6.954
  112OSM    O1311518   3.657   1.379   6.979
  112OSM    O1411519   3.880   1.474   7.053
  112OSM    O1111520   3.827   1.460   6.812
  112OSM    O1211521   3.868   1.247   6.941
  112OSM    C1S11522   3.923   1.408   6.722
  112OSM    H1S11523   3.911   1.299   6.702
  112OSM    H1T11524   4.027   1.429   6.753
  112OSM     NF11525   3.981   1.407   6.479
  112OSM    HNF11526   4.060   1.459   6.447
  112OSM    C2S11527   3.917   1.483   6.585
  112OSM    H2S11528   3.815   1.483   6.541
  112OSM    C3S11529   3.959   1.631   6.599
  112OSM    H3S11530   4.066   1.639   6.626
  112OSM     O311531   3.888   1.692   6.707
  112OSM    HO311532   3.843   1.625   6.760
  112OSM    C4S11533   3.931   1.713   6.479
  112OSM    H4S11534   3.825   1.726   6.451
  112OSM    C5S11535   4.019   1.774   6.406
  112OSM    H5S11536   4.125   1.759   6.432
  112OSM    C6S11537   3.995   1.863   6.289
  112OSM    H6S11538   4.034   1.961   6.324
  112OSM    H6T11539   3.886   1.868   6.268
  112OSM    C7S11540   4.070   1.823   6.164
  112OSM    H7S11541   4.062   1.713   6.148
  112OSM    H7T11542   4.180   1.842   6.170
  112OSM    C8S11543   4.027   1.892   6.036
  112OSM    H8S11544   4.052   2.000   6.036
  112OSM    H8T11545   3.918   1.871   6.037
  112OSM    C9S11546   4.097   1.829   5.906
  112OSM    H9S11547   4.078   1.722   5.927
  112OSM    H9T11548   4.205   1.855   5.908
  112OSM   C10S11549   4.033   1.880   5.773
  112OSM   H10S11550   4.068   1.980   5.740
  112OSM   H10T11551   3.926   1.902   5.791
  112OSM   C11S11552   4.055   1.773   5.660
  112OSM   H11S11553   3.957   1.761   5.610
  112OSM   H11T11554   4.070   1.677   5.713
  112OSM   C12S11555   4.163   1.814   5.561
  112OSM   H12S11556   4.264   1.789   5.600
  112OSM   H12T11557   4.160   1.923   5.542
  112OSM   C13S11558   4.139   1.743   5.426
  112OSM   H13S11559   4.050   1.786   5.376
  112OSM   H13T11560   4.114   1.638   5.450
  112OSM   C14S11561   4.265   1.752   5.337
  112OSM   H14S11562   4.348   1.686   5.370
  112OSM   H14T11563   4.299   1.858   5.337
  112OSM   C15S11564   4.234   1.723   5.186
  112OSM   H15S11565   4.140   1.779   5.165
  112OSM   H15T11566   4.202   1.618   5.173
  112OSM   C16S11567   4.344   1.756   5.091
  112OSM   H16S11568   4.439   1.702   5.110
  112OSM   H16T11569   4.365   1.865   5.088
  112OSM   C17S11570   4.305   1.714   4.952
  112OSM   H17S11571   4.225   1.782   4.914
  112OSM   H17T11572   4.276   1.607   4.956
  112OSM   C18S11573   4.429   1.734   4.861
  112OSM   H18S11574   4.518   1.680   4.900
  112OSM   H18T11575   4.460   1.840   4.851
  112OSM   H18U11576   4.401   1.702   4.758
  112OSM    C1F11577   3.941   1.288   6.434
  112OSM     OF11578   3.849   1.227   6.492
  112OSM    C2F11579   4.011   1.233   6.311
  112OSM    H2F11580   4.118   1.232   6.341
  112OSM    H2G11581   4.007   1.307   6.228
  112OSM    C3F11582   3.971   1.093   6.263
  112OSM    H3F11583   3.957   1.025   6.350
  112OSM    H3G11584   4.046   1.056   6.190
  112OSM    C4F11585   3.833   1.101   6.197
  112OSM    H4F11586   3.822   1.170   6.111
  112OSM    H4G11587   3.759   1.132   6.273
  112OSM    C5F11588   3.798   0.972   6.121
  112OSM    H5F11589   3.794   0.890   6.195
  112OSM    H5G11590   3.861   0.946   6.033
  112OSM    C6F11591   3.663   0.985   6.056
  112OSM    H6F11592   3.658   1.049   5.966
  112OSM    H6G11593   3.597   1.036   6.131
  112OSM    C7F11594   3.590   0.849   6.008
  112OSM    H7F11595   3.591   0.791   6.103
  112OSM    H7G11596   3.655   0.798   5.934
  112OSM    C8F11597   3.440   0.872   5.982
  112OSM    H8F11598   3.388   0.932   6.059
  112OSM    H8G11599   3.386   0.775   5.990
  112OSM    C9F11600   3.428   0.929   5.840
  112OSM    H9F11601   3.485   1.022   5.826
  112OSM   C10F11602   3.367   0.873   5.730
  112OSM   H10F11603   3.357   0.929   5.636
  112OSM   C11F11604   3.283   0.743   5.740
  112OSM   H11F11605   3.252   0.722   5.844
  112OSM   H11G11606   3.333   0.651   5.704
  112OSM   C12F11607   3.159   0.756   5.648
  112OSM   H12F11608   3.104   0.848   5.677
  112OSM   H12G11609   3.110   0.657   5.664
  112OSM   C13F11610   3.192   0.772   5.493
  112OSM   H13F11611   3.259   0.692   5.456
  112OSM   H13G11612   3.240   0.871   5.479
  112OSM   C14F11613   3.062   0.771   5.412
  112OSM   H14F11614   2.993   0.839   5.467
  112OSM   H14G11615   3.021   0.668   5.403
  112OSM   C15F11616   3.077   0.830   5.267
  112OSM   H15F11617   3.158   0.906   5.267
  112OSM   H15G11618   2.978   0.874   5.241
  112OSM   C16F11619   3.119   0.720   5.171
  112OSM   H16F11620   3.041   0.642   5.157
  112OSM   H16G11621   3.203   0.660   5.212
  112OSM   C17F11622   3.146   0.765   5.024
  112OSM   H17F11623   3.054   0.784   4.965
  112OSM   H17G11624   3.189   0.672   4.980
  112OSM   C18F11625   3.239   0.885   5.004
  112OSM   H18F11626   3.183   0.969   5.050
  112OSM   H18G11627   3.254   0.909   4.896
  112OSM   H18H11628   3.338   0.875   5.054
  113OSM      N11629   0.955   1.679   6.785
  113OSM    C1511630   1.088   1.615   6.804
  113OSM   H15A11631   1.130   1.628   6.903
  113OSM   H15B11632   1.166   1.657   6.742
  113OSM   H15C11633   1.084   1.509   6.783
  113OSM    C1411634   0.965   1.821   6.846
  113OSM   H14A11635   0.874   1.877   6.863
  113OSM   H14B11636   1.040   1.878   6.792
  113OSM   H14C11637   1.018   1.816   6.940
  113OSM    C1311638   0.917   1.685   6.644
  113OSM   H13A11639   0.811   1.705   6.647
  113OSM   H13B11640   0.942   1.594   6.591
  113OSM   H13C11641   0.970   1.772   6.608
  113OSM    C1211642   0.855   1.588   6.862
  113OSM   H12A11643   0.885   1.576   6.965
  113OSM   H12B11644   0.860   1.489   6.820
  113OSM    C1111645   0.703   1.616   6.857
  113OSM   H11A11646   0.685   1.719   6.893
  113OSM   H11B11647   0.657   1.549   6.933
  113OSM      P11648   0.602   1.444   6.698
  113OSM    O1311649   0.723   1.360   6.705
  113OSM    O1411650   0.491   1.413   6.795
  113OSM    O1111651   0.557   1.463   6.553
  113OSM    O1211652   0.645   1.597   6.726
  113OSM    C1S11653   0.561   1.355   6.455
  113OSM    H1S11654   0.490   1.277   6.491
  113OSM    H1T11655   0.657   1.299   6.455
  113OSM     NF11656   0.502   1.286   6.226
  113OSM    HNF11657   0.571   1.275   6.156
  113OSM    C2S11658   0.519   1.398   6.312
  113OSM    H2S11659   0.423   1.449   6.333
  113OSM    C3S11660   0.616   1.501   6.263
  113OSM    H3S11661   0.710   1.448   6.235
  113OSM     O311662   0.661   1.594   6.360
  113OSM    HO311663   0.630   1.550   6.439
  113OSM    C4S11664   0.561   1.571   6.144
  113OSM    H4S11665   0.610   1.541   6.050
  113OSM    C5S11666   0.462   1.660   6.136
  113OSM    H5S11667   0.402   1.678   6.227
  113OSM    C6S11668   0.415   1.719   6.009
  113OSM    H6S11669   0.308   1.691   6.000
  113OSM    H6T11670   0.466   1.669   5.925
  113OSM    C7S11671   0.418   1.867   6.001
  113OSM    H7S11672   0.523   1.906   6.003
  113OSM    H7T11673   0.362   1.917   6.082
  113OSM    C8S11674   0.345   1.914   5.873
  113OSM    H8S11675   0.355   2.025   5.866
  113OSM    H8T11676   0.240   1.883   5.892
  113OSM    C9S11677   0.380   1.837   5.736
  113OSM    H9S11678   0.356   1.729   5.738
  113OSM    H9T11679   0.486   1.859   5.711
  113OSM   C10S11680   0.307   1.891   5.613
  113OSM   H10S11681   0.293   2.000   5.629
  113OSM   H10T11682   0.206   1.845   5.613
  113OSM   C11S11683   0.374   1.875   5.475
  113OSM   H11S11684   0.400   1.767   5.466
  113OSM   H11T11685   0.470   1.929   5.484
  113OSM   C12S11686   0.284   1.927   5.361
  113OSM   H12S11687   0.247   2.025   5.397
  113OSM   H12T11688   0.183   1.881   5.365
  113OSM   C13S11689   0.351   1.917   5.223
  113OSM   H13S11690   0.355   1.808   5.202
  113OSM   H13T11691   0.456   1.955   5.230
  113OSM   C14S11692   0.276   1.976   5.102
  113OSM   H14S11693   0.285   2.086   5.102
  113OSM   H14T11694   0.166   1.961   5.099
  113OSM   C15S11695   0.326   1.912   4.973
  113OSM   H15S11696   0.317   1.802   4.986
  113OSM   H15T11697   0.436   1.927   4.973
  113OSM   C16S11698   0.246   1.964   4.857
  113OSM   H16S11699   0.219   2.069   4.878
  113OSM   H16T11700   0.150   1.908   4.860
  113OSM   C17S11701   0.314   1.941   4.721
  113OSM   H17S11702   0.340   1.834   4.711
  113OSM   H17T11703   0.408   1.999   4.734
  113OSM   C18S11704   0.235   1.995   4.598
  113OSM   H18S11705   0.216   2.105   4.604
  113OSM   H18T11706   0.145   1.935   4.574
  113OSM   H18U11707   0.304   1.993   4.510
  113OSM    C1F11708   0.396   1.199   6.244
  113OSM     OF11709   0.298   1.228   6.311
  113OSM    C2F11710   0.414   1.063   6.181
  113OSM    H2F11711   0.410   0.988   6.263
  113OSM    H2G11712   0.518   1.050   6.142
  113OSM    C3F11713   0.306   1.022   6.074
  113OSM    H3F11714   0.204   1.008   6.117
  113OSM    H3G11715   0.330   0.923   6.031
  113OSM    C4F11716   0.293   1.137   5.972
  113OSM    H4F11717   0.393   1.170   5.936
  113OSM    H4G11718   0.244   1.224   6.020
  113OSM    C5F11719   0.211   1.102   5.850
  113OSM    H5F11720   0.186   1.202   5.808
  113OSM    H5G11721   0.114   1.057   5.879
  113OSM    C6F11722   0.274   1.010   5.751
  113OSM    H6F11723   0.292   0.908   5.791
  113OSM    H6G11724   0.373   1.047   5.718
  113OSM    C7F11725   0.183   1.002   5.624
  113OSM    H7F11726   0.185   1.092   5.559
  113OSM    H7G11727   0.077   0.979   5.647
  113OSM    C8F11728   0.224   0.893   5.522
  113OSM    H8F11729   0.323   0.926   5.484
  113OSM    H8G11730   0.152   0.913   5.440
  113OSM    C9F11731   0.228   0.758   5.579
  113OSM    H9F11732   0.168   0.759   5.672
  113OSM   C10F11733   0.262   0.642   5.519
  113OSM   H10F11734   0.247   0.549   5.576
  113OSM   C11F11735   0.342   0.626   5.401
  113OSM   H11F11736   0.393   0.528   5.402
  113OSM   H11G11737   0.409   0.714   5.385
  113OSM   C12F11738   0.251   0.624   5.275
  113OSM   H12F11739   0.207   0.725   5.264
  113OSM   H12G11740   0.171   0.547   5.286
  113OSM   C13F11741   0.339   0.591   5.143
  113OSM   H13F11742   0.362   0.483   5.157
  113OSM   H13G11743   0.428   0.657   5.145
  113OSM   C14F11744   0.266   0.609   5.014
  113OSM   H14F11745   0.242   0.717   5.015
  113OSM   H14G11746   0.166   0.560   5.007
  113OSM   C15F11747   0.344   0.586   4.890
  113OSM   H15F11748   0.348   0.476   4.876
  113OSM   H15G11749   0.445   0.632   4.889
  113OSM   C16F11750   0.265   0.624   4.767
  113OSM   H16F11751   0.247   0.734   4.767
  113OSM   H16G11752   0.167   0.573   4.768
  113OSM   C17F11753   0.344   0.601   4.639
  113OSM   H17F11754   0.262   0.558   4.577
  113OSM   H17G11755   0.420   0.521   4.654
  113OSM   C18F11756   0.401   0.726   4.567
  113OSM   H18F11757   0.448   0.789   4.645
  113OSM   H18G11758   0.318   0.791   4.532
  113OSM   H18H11759   0.465   0.689   4.484
  114OSM      N11760   6.089   0.280   7.198
  114OSM    C1511761   5.947   0.338   7.215
  114OSM   H15A11762   5.877   0.276   7.162
  114OSM   H15B11763   5.927   0.440   7.184
  114OSM   H15C11764   5.918   0.325   7.318
  114OSM    C1411765   6.189   0.366   7.270
  114OSM   H14A11766   6.282   0.313   7.271
  114OSM   H14B11767   6.159   0.371   7.373
  114OSM   H14C11768   6.204   0.464   7.226
  114OSM    C1311769   6.083   0.146   7.265
  114OSM   H13A11770   6.073   0.149   7.372
  114OSM   H13B11771   6.177   0.098   7.242
  114OSM   H13C11772   5.995   0.097   7.224
  114OSM    C1211773   6.118   0.265   7.047
  114OSM   H12A11774   6.033   0.212   7.005
  114OSM   H12B11775   6.200   0.195   7.046
  114OSM    C1111776   6.165   0.387   6.965
  114OSM   H11A11777   6.079   0.453   6.986
  114OSM   H11B11778   6.161   0.351   6.860
  114OSM      P11779   6.428   0.381   6.957
  114OSM    O1311780   6.513   0.486   6.900
  114OSM    O1411781   6.475   0.311   7.077
  114OSM    O1111782   6.378   0.270   6.853
  114OSM    O1211783   6.286   0.452   6.996
  114OSM    C1S11784   6.495   0.195   6.806
  114OSM    H1S11785   6.532   0.136   6.893
  114OSM    H1T11786   6.582   0.253   6.770
  114OSM     NF11787   6.543   6.795   6.665
  114OSM    HNF11788   6.601   6.806   6.585
  114OSM    C2S11789   6.440   0.095   6.693
  114OSM    H2S11790   6.345   0.052   6.731
  114OSM    C3S11791   6.406   0.184   6.565
  114OSM    H3S11792   6.500   0.228   6.525
  114OSM     O311793   6.315   0.286   6.595
  114OSM    HO311794   6.342   0.318   6.682
  114OSM    C4S11795   6.343   0.097   6.463
  114OSM    H4S11796   6.240   0.065   6.486
  114OSM    C5S11797   6.404   0.064   6.352
  114OSM    H5S11798   6.496   0.118   6.324
  114OSM    C6S11799   6.329   6.794   6.248
  114OSM    H6S11800   6.299   0.026   6.152
  114OSM    H6T11801   6.228   6.768   6.286
  114OSM    C7S11802   6.414   6.665   6.232
  114OSM    H7S11803   6.354   6.580   6.192
  114OSM    H7T11804   6.465   6.631   6.324
  114OSM    C8S11805   6.513   6.700   6.124
  114OSM    H8S11806   6.597   6.629   6.142
  114OSM    H8T11807   6.559   6.801   6.125
  114OSM    C9S11808   6.462   6.688   5.975
  114OSM    H9S11809   6.417   6.786   5.949
  114OSM    H9T11810   6.384   6.608   5.966
  114OSM   C10S11811   6.582   6.666   5.876
  114OSM   H10S11812   6.638   6.580   5.920
  114OSM   H10T11813   6.662   6.743   5.880
  114OSM   C11S11814   6.529   6.649   5.733
  114OSM   H11S11815   6.449   6.724   5.714
  114OSM   H11T11816   6.484   6.550   5.712
  114OSM   C12S11817   6.648   6.679   5.642
  114OSM   H12S11818   6.733   6.608   5.659
  114OSM   H12T11819   6.681   6.782   5.668
  114OSM   C13S11820   6.602   6.670   5.493
  114OSM   H13S11821   6.561   6.766   5.457
  114OSM   H13T11822   6.530   6.588   5.474
  114OSM   C14S11823   6.725   6.639   5.402
  114OSM   H14S11824   6.772   6.556   5.459
  114OSM   H14T11825   6.799   6.722   5.404
  114OSM   C15S11826   6.696   6.603   5.255
  114OSM   H15S11827   6.613   6.665   5.215
  114OSM   H15T11828   6.656   6.501   5.268
  114OSM   C16S11829   0.010   6.605   5.177
  114OSM   H16S11830   0.082   6.527   5.207
  114OSM   H16T11831   0.059   6.704   5.193
  114OSM   C17S11832   6.809   6.588   5.023
  114OSM   H17S11833   0.095   6.603   4.978
  114OSM   H17T11834   6.735   6.661   4.982
  114OSM   C18S11835   6.763   6.450   4.990
  114OSM   H18S11836   6.745   6.442   4.881
  114OSM   H18T11837   6.664   6.438   5.038
  114OSM   H18U11838   0.020   6.375   5.031
  114OSM    C1F11839   6.572   6.695   6.754
  114OSM     OF11840   6.503   6.678   6.853
  114OSM    C2F11841   6.672   6.598   6.713
  114OSM    H2F11842   6.674   6.512   6.783
  114OSM    H2G11843   6.775   6.641   6.713
  114OSM    C3F11844   6.633   6.520   6.590
  114OSM    H3F11845   6.657   6.578   6.498
  114OSM    H3G11846   6.524   6.499   6.583
  114OSM    C4F11847   6.712   6.384   6.574
  114OSM    H4F11848   6.692   6.335   6.672
  114OSM    H4G11849   0.005   6.413   6.570
  114OSM    C5F11850   6.662   6.288   6.459
  114OSM    H5F11851   6.553   6.274   6.476
  114OSM    H5G11852   6.721   6.195   6.465
  114OSM    C6F11853   6.686   6.343   6.320
  114OSM    H6F11854   6.656   6.450   6.310
  114OSM    H6G11855   6.636   6.286   6.239
  114OSM    C7F11856   0.023   6.346   6.285
  114OSM    H7F11857   0.069   6.246   6.269
  114OSM    H7G11858   0.070   6.401   6.369
  114OSM    C8F11859   0.053   6.429   6.160
  114OSM    H8F11860   0.159   6.461   6.149
  114OSM    H8G11861   0.007   6.530   6.169
  114OSM    C9F11862   0.002   6.366   6.034
  114OSM    H9F11863   6.716   6.396   6.003
  114OSM   C10F11864   0.080   6.291   5.953
  114OSM   H10F11865   0.031   6.251   5.863
  114OSM   C11F11866   0.232   6.265   5.974
  114OSM   H11F11867   0.244   6.187   6.052
  114OSM   H11G11868   0.288   6.357   6.003
  114OSM   C12F11869   0.308   6.214   5.850
  114OSM   H12F11870   0.260   6.127   5.800
  114OSM   H12G11871   0.410   6.183   5.882
  114OSM   C13F11872   0.313   6.317   5.732
  114OSM   H13F11873   0.381   6.400   5.761
  114OSM   H13G11874   0.212   6.359   5.709
  114OSM   C14F11875   0.374   6.259   5.605
  114OSM   H14F11876   0.330   6.159   5.589
  114OSM   H14G11877   0.484   6.245   5.615
  114OSM   C15F11878   0.344   6.347   5.487
  114OSM   H15F11879   0.367   6.453   5.511
  114OSM   H15G11880   0.235   6.343   5.471
  114OSM   C16F11881   0.417   6.303   5.352
  114OSM   H16F11882   0.368   6.217   5.302
  114OSM   H16G11883   0.523   6.277   5.373
  114OSM   C17F11884   0.420   6.418   5.249
  114OSM   H17F11885   0.493   6.495   5.284
  114OSM   H17G11886   0.322   6.470   5.251
  114OSM   C18F11887   0.456   6.372   5.109
  114OSM   H18F11888   0.555   6.322   5.112
  114OSM   H18G11889   0.455   6.457   5.037
  114OSM   H18H11890   0.385   6.291   5.081
  115OSM      N11891   6.755   2.212   7.204
  115OSM    C1511892   6.792   2.302   7.315
  115OSM   H15A11893   6.776   2.406   7.290
  115OSM   H15B11894   0.078   2.290   7.352
  115OSM   H15C11895   6.739   2.289   7.409
  115OSM    C1411896   6.815   2.073   7.210
  115OSM   H14A11897   6.781   2.020   7.122
  115OSM   H14B11898   6.784   2.016   7.297
  115OSM   H14C11899   0.108   2.070   7.210
  115OSM    C1311900   6.610   2.190   7.199
  115OSM   H13A11901   6.580   2.134   7.112
  115OSM   H13B11902   6.563   2.285   7.178
  115OSM   H13C11903   6.564   2.164   7.294
  115OSM    C1211904   6.789   2.277   7.073
  115OSM   H12A11905   6.767   2.210   6.990
  115OSM   H12B11906   0.082   2.279   7.071
  115OSM    C1111907   6.732   2.419   7.044
  115OSM   H11A11908   6.791   2.453   6.956
  115OSM   H11B11909   6.762   2.481   7.131
  115OSM      P11910   6.508   2.541   7.017
  115OSM    O1311911   6.366   2.502   6.997
  115OSM    O1411912   6.528   2.624   7.135
  115OSM    O1111913   6.567   2.618   6.887
  115OSM    O1211914   6.591   2.408   7.020
  115OSM    C1S11915   6.573   2.553   6.757
  115OSM    H1S11916   6.485   2.485   6.752
  115OSM    H1T11917   6.671   2.501   6.750
  115OSM     NF11918   6.589   2.580   6.519
  115OSM    HNF11919   6.681   2.562   6.484
  115OSM    C2S11920   6.580   2.652   6.640
  115OSM    H2S11921   6.480   2.702   6.641
  115OSM    C3S11922   6.691   2.768   6.654
  115OSM    H3S11923   6.789   2.720   6.637
  115OSM     O311924   6.686   2.832   6.782
  115OSM    HO311925   6.641   2.766   6.835
  115OSM    C4S11926   6.674   2.870   6.543
  115OSM    H4S11927   6.727   2.828   6.457
  115OSM    C5S11928   6.632   2.994   6.547
  115OSM    H5S11929   6.605   3.037   6.645
  115OSM    C6S11930   6.645   3.095   6.441
  115OSM    H6S11931   6.715   3.063   6.361
  115OSM    H6T11932   6.680   3.192   6.482
  115OSM    C7S11933   6.510   3.133   6.374
  115OSM    H7S11934   6.438   3.121   6.458
  115OSM    H7T11935   6.488   3.044   6.311
  115OSM    C8S11936   6.505   3.259   6.296
  115OSM    H8S11937   6.592   3.325   6.314
  115OSM    H8T11938   6.409   3.313   6.307
  115OSM    C9S11939   6.517   3.232   6.142
  115OSM    H9S11940   6.447   3.155   6.104
  115OSM    H9T11941   6.621   3.198   6.120
  115OSM   C10S11942   6.502   3.356   6.059
  115OSM   H10S11943   6.575   3.433   6.093
  115OSM   H10T11944   6.403   3.395   6.090
  115OSM   C11S11945   6.510   3.334   5.906
  115OSM   H11S11946   6.412   3.293   5.872
  115OSM   H11T11947   6.589   3.257   5.888
  115OSM   C12S11948   6.552   3.463   5.837
  115OSM   H12S11949   6.649   3.494   5.881
  115OSM   H12T11950   6.478   3.537   5.874
  115OSM   C13S11951   6.550   3.444   5.684
  115OSM   H13S11952   6.446   3.427   5.647
  115OSM   H13T11953   6.606   3.351   5.663
  115OSM   C14S11954   6.615   3.572   5.631
  115OSM   H14S11955   6.696   3.595   5.704
  115OSM   H14T11956   6.536   3.650   5.635
  115OSM   C15S11957   6.678   3.553   5.497
  115OSM   H15S11958   6.618   3.489   5.430
  115OSM   H15T11959   6.772   3.494   5.506
  115OSM   C16S11960   6.711   3.685   5.425
  115OSM   H16S11961   6.749   3.754   5.503
  115OSM   H16T11962   6.617   3.738   5.399
  115OSM   C17S11963   0.004   3.683   5.311
  115OSM   H17S11964   6.788   3.596   5.249
  115OSM   H17T11965   0.105   3.674   5.356
  115OSM   C18S11966   6.810   3.812   5.221
  115OSM   H18S11967   0.033   3.890   5.291
  115OSM   H18T11968   6.710   3.838   5.182
  115OSM   H18U11969   0.073   3.803   5.142
  115OSM    C1F11970   6.492   2.500   6.475
  115OSM     OF11971   6.383   2.487   6.531
  115OSM    C2F11972   6.507   2.417   6.348
  115OSM    H2F11973   6.538   2.312   6.366
  115OSM    H2G11974   6.587   2.466   6.288
  115OSM    C3F11975   6.382   2.403   6.259
  115OSM    H3F11976   6.368   2.497   6.202
  115OSM    H3G11977   6.292   2.402   6.324
  115OSM    C4F11978   6.386   2.294   6.147
  115OSM    H4F11979   6.371   2.197   6.199
  115OSM    H4G11980   6.486   2.286   6.100
  115OSM    C5F11981   6.277   2.318   6.044
  115OSM    H5F11982   6.189   2.368   6.091
  115OSM    H5G11983   6.243   2.218   6.008
  115OSM    C6F11984   6.315   2.387   5.909
  115OSM    H6F11985   6.233   2.355   5.841
  115OSM    H6G11986   6.408   2.334   5.877
  115OSM    C7F11987   6.324   2.541   5.924
  115OSM    H7F11988   6.410   2.569   5.989
  115OSM    H7G11989   6.230   2.576   5.973
  115OSM    C8F11990   6.351   2.614   5.794
  115OSM    H8F11991   6.366   2.724   5.804
  115OSM    H8G11992   6.256   2.613   5.736
  115OSM    C9F11993   6.475   2.558   5.733
  115OSM    H9F11994   6.564   2.552   5.797
  115OSM   C10F11995   6.492   2.527   5.604
  115OSM   H10F11996   6.588   2.496   5.560
  115OSM   C11F11997   6.375   2.530   5.503
  115OSM   H11F11998   6.275   2.564   5.536
  115OSM   H11G11999   6.364   2.425   5.469
  115OSM   C12F12000   6.412   2.616   5.381
  115OSM   H12F12001   6.509   2.575   5.345
  115OSM   H12G12002   6.414   2.720   5.420
  115OSM   C13F12003   6.316   2.600   5.254
  115OSM   H13F12004   6.211   2.621   5.285
  115OSM   H13G12005   6.325   2.497   5.215
  115OSM   C14F12006   6.346   2.695   5.132
  115OSM   H14F12007   6.453   2.676   5.108
  115OSM   H14G12008   6.348   2.801   5.166
  115OSM   C15F12009   6.280   2.668   4.997
  115OSM   H15F12010   6.170   2.681   5.014
  115OSM   H15G12011   6.307   2.563   4.971
  115OSM   C16F12012   6.337   2.757   4.886
  115OSM   H16F12013   6.448   2.752   4.877
  115OSM   H16G12014   6.313   2.860   4.920
  115OSM   C17F12015   6.288   2.718   4.741
  115OSM   H17F12016   6.180   2.740   4.731
  115OSM   H17G12017   6.314   2.610   4.734
  115OSM   C18F12018   6.359   2.790   4.624
  115OSM   H18F12019   6.465   2.761   4.613
  115OSM   H18G12020   6.344   2.900   4.624
  115OSM   H18H12021   6.310   2.767   4.527
  116OSM      N12022   0.952   1.015   6.721
  116OSM    C1512023   0.818   1.071   6.757
  116OSM   H15A12024   0.815   1.178   6.758
  116OSM   H15B12025   0.782   1.047   6.856
  116OSM   H15C12026   0.740   1.040   6.689
  116OSM    C1412027   0.956   0.867   6.747
  116OSM   H14A12028   1.053   0.821   6.734
  116OSM   H14B12029   0.886   0.821   6.678
  116OSM   H14C12030   0.917   0.839   6.844
  116OSM    C1312031   0.970   1.038   6.570
  116OSM   H13A12032   0.911   0.969   6.512
  116OSM   H13B12033   1.075   1.017   6.555
  116OSM   H13C12034   0.950   1.138   6.533
  116OSM    C1212035   1.058   1.084   6.800
  116OSM   H12A12036   1.150   1.044   6.760
  116OSM   H12B12037   1.044   1.050   6.901
  116OSM    C1112038   1.068   1.242   6.789
  116OSM   H11A12039   1.115   1.286   6.879
  116OSM   H11B12040   0.967   1.288   6.782
  116OSM      P12041   1.302   1.280   6.672
  116OSM    O1312042   1.342   1.377   6.779
  116OSM    O1412043   1.346   1.136   6.688
  116OSM    O1112044   1.350   1.340   6.532
  116OSM    O1212045   1.144   1.286   6.672
  116OSM    C1S12046   1.248   1.386   6.446
  116OSM    H1S12047   1.207   1.480   6.488
  116OSM    H1T12048   1.161   1.318   6.431
  116OSM     NF12049   1.198   1.477   6.225
  116OSM    HNF12050   1.170   1.433   6.140
  116OSM    C2S12051   1.307   1.427   6.300
  116OSM    H2S12052   1.377   1.512   6.318
  116OSM    C3S12053   1.390   1.318   6.233
  116OSM    H3S12054   1.323   1.232   6.212
  116OSM     O312055   1.492   1.260   6.315
  116OSM    HO312056   1.473   1.281   6.407
  116OSM    C4S12057   1.451   1.373   6.106
  116OSM    H4S12058   1.385   1.370   6.018
  116OSM    C5S12059   1.579   1.414   6.074
  116OSM    H5S12060   1.656   1.411   6.152
  116OSM    C6S12061   1.624   1.468   5.941
  116OSM    H6S12062   1.727   1.433   5.917
  116OSM    H6T12063   1.620   1.578   5.950
  116OSM    C7S12064   1.521   1.429   5.825
  116OSM    H7S12065   1.423   1.480   5.842
  116OSM    H7T12066   1.499   1.321   5.828
  116OSM    C8S12067   1.578   1.456   5.693
  116OSM    H8S12068   1.652   1.374   5.685
  116OSM    H8T12069   1.631   1.553   5.695
  116OSM    C9S12070   1.472   1.459   5.582
  116OSM    H9S12071   1.388   1.519   5.624
  116OSM    H9T12072   1.433   1.356   5.568
  116OSM   C10S12073   1.514   1.496   5.447
  116OSM   H10S12074   1.612   1.452   5.419
  116OSM   H10T12075   1.529   1.606   5.453
  116OSM   C11S12076   1.407   1.467   5.337
  116OSM   H11S12077   1.311   1.508   5.375
  116OSM   H11T12078   1.387   1.361   5.311
  116OSM   C12S12079   1.434   1.550   5.208
  116OSM   H12S12080   1.530   1.505   5.175
  116OSM   H12T12081   1.446   1.660   5.218
  116OSM   C13S12082   1.325   1.529   5.101
  116OSM   H13S12083   1.223   1.561   5.131
  116OSM   H13T12084   1.325   1.419   5.084
  116OSM   C14S12085   1.351   1.613   4.964
  116OSM   H14S12086   1.456   1.583   4.948
  116OSM   H14T12087   1.339   1.720   4.995
  116OSM   C15S12088   1.238   1.588   4.851
  116OSM   H15S12089   1.151   1.647   4.886
  116OSM   H15T12090   1.205   1.483   4.864
  116OSM   C16S12091   1.287   1.632   4.706
  116OSM   H16S12092   1.363   1.563   4.664
  116OSM   H16T12093   1.327   1.736   4.708
  116OSM   C17S12094   1.175   1.631   4.605
  116OSM   H17S12095   1.112   1.719   4.629
  116OSM   H17T12096   1.121   1.534   4.615
  116OSM   C18S12097   1.230   1.637   4.464
  116OSM   H18S12098   1.140   1.602   4.409
  116OSM   H18T12099   1.318   1.570   4.459
  116OSM   H18U12100   1.264   1.735   4.423
  116OSM    C1F12101   1.135   1.588   6.259
  116OSM     OF12102   1.190   1.675   6.336
  116OSM    C2F12103   0.985   1.605   6.210
  116OSM    H2F12104   0.922   1.663   6.281
  116OSM    H2G12105   0.939   1.504   6.206
  116OSM    C3F12106   0.979   1.681   6.073
  116OSM    H3F12107   1.011   1.787   6.084
  116OSM    H3G12108   0.874   1.684   6.037
  116OSM    C4F12109   1.054   1.625   5.950
  116OSM    H4F12110   1.003   1.533   5.915
  116OSM    H4G12111   1.159   1.603   5.979
  116OSM    C5F12112   1.049   1.725   5.832
  116OSM    H5F12113   1.115   1.812   5.852
  116OSM    H5G12114   0.944   1.764   5.834
  116OSM    C6F12115   1.069   1.660   5.699
  116OSM    H6F12116   0.984   1.592   5.674
  116OSM    H6G12117   1.162   1.599   5.696
  116OSM    C7F12118   1.093   1.764   5.582
  116OSM    H7F12119   1.194   1.810   5.590
  116OSM    H7G12120   1.030   1.854   5.596
  116OSM    C8F12121   1.063   1.698   5.440
  116OSM    H8F12122   0.959   1.661   5.443
  116OSM    H8G12123   1.133   1.612   5.431
  116OSM    C9F12124   1.099   1.794   5.330
  116OSM    H9F12125   1.184   1.861   5.345
  116OSM   C10F12126   1.025   1.826   5.223
  116OSM   H10F12127   1.065   1.907   5.160
  116OSM   C11F12128   0.900   1.754   5.173
  116OSM   H11F12129   0.839   1.718   5.258
  116OSM   H11G12130   0.932   1.667   5.111
  116OSM   C12F12131   0.816   1.836   5.071
  116OSM   H12F12132   0.809   1.944   5.096
  116OSM   H12G12133   0.712   1.798   5.071
  116OSM   C13F12134   0.856   1.827   4.923
  116OSM   H13F12135   0.886   1.725   4.890
  116OSM   H13G12136   0.938   1.897   4.894
  116OSM   C14F12137   0.737   1.858   4.835
  116OSM   H14F12138   0.703   1.960   4.862
  116OSM   H14G12139   0.651   1.789   4.846
  116OSM   C15F12140   0.788   1.873   4.688
  116OSM   H15F12141   0.874   1.806   4.667
  116OSM   H15G12142   0.835   1.972   4.671
  116OSM   C16F12143   0.686   1.835   4.576
  116OSM   H16F12144   0.600   1.905   4.588
  116OSM   H16G12145   0.662   1.729   4.601
  116OSM   C17F12146   0.737   1.839   4.425
  116OSM   H17F12147   0.759   1.942   4.389
  116OSM   H17G12148   0.653   1.807   4.360
  116OSM   C18F12149   0.855   1.750   4.393
  116OSM   H18F12150   0.864   1.661   4.460
  116OSM   H18G12151   0.937   1.822   4.415
  116OSM   H18H12152   0.851   1.715   4.288
  117OSM      N12153   0.661   4.140   6.697
  117OSM    C1512154   0.802   4.158   6.743
  117OSM   H15A12155   0.857   4.201   6.660
  117OSM   H15B12156   0.845   4.067   6.783
  117OSM   H15C12157   0.799   4.229   6.824
  117OSM    C1412158   0.667   4.056   6.575
  117OSM   H14A12159   0.577   4.067   6.516
  117OSM   H14B12160   0.693   3.952   6.591
  117OSM   H14C12161   0.741   4.114   6.522
  117OSM    C1312162   0.578   4.074   6.798
  117OSM   H13A12163   0.582   4.135   6.887
  117OSM   H13B12164   0.620   3.975   6.812
  117OSM   H13C12165   0.474   4.062   6.770
  117OSM    C1212166   0.603   4.271   6.649
  117OSM   H12A12167   0.618   4.336   6.734
  117OSM   H12B12168   0.497   4.266   6.629
  117OSM    C1112169   0.663   4.339   6.520
  117OSM   H11A12170   0.595   4.425   6.502
  117OSM   H11B12171   0.641   4.278   6.430
  117OSM      P12172   0.842   4.504   6.625
  117OSM    O1312173   0.763   4.499   6.753
  117OSM    O1412174   0.984   4.504   6.649
  117OSM    O1112175   0.804   4.633   6.546
  117OSM    O1212176   0.801   4.374   6.531
  117OSM    C1S12177   0.853   4.670   6.414
  117OSM    H1S12178   0.954   4.630   6.392
  117OSM    H1T12179   0.862   4.780   6.406
  117OSM     NF12180   0.831   4.667   6.167
  117OSM    HNF12181   0.802   4.755   6.128
  117OSM    C2S12182   0.764   4.631   6.292
  117OSM    H2S12183   0.742   4.522   6.289
  117OSM    C3S12184   0.622   4.692   6.305
  117OSM    H3S12185   0.649   4.800   6.315
  117OSM     O312186   0.541   4.664   6.422
  117OSM    HO312187   0.597   4.642   6.496
  117OSM    C4S12188   0.535   4.671   6.190
  117OSM    H4S12189   0.533   4.755   6.120
  117OSM    C5S12190   0.468   4.551   6.166
  117OSM    H5S12191   0.484   4.458   6.222
  117OSM    C6S12192   0.381   4.532   6.047
  117OSM    H6S12193   0.319   4.441   6.058
  117OSM    H6T12194   0.441   4.501   5.958
  117OSM    C7S12195   0.297   4.655   6.003
  117OSM    H7S12196   0.361   4.744   5.985
  117OSM    H7T12197   0.232   4.678   6.090
  117OSM    C8S12198   0.212   4.617   5.883
  117OSM    H8S12199   0.164   4.518   5.900
  117OSM    H8T12200   0.273   4.620   5.789
  117OSM    C9S12201   0.102   4.723   5.856
  117OSM    H9S12202   0.142   4.826   5.859
  117OSM    H9T12203   0.025   4.708   5.935
  117OSM   C10S12204   0.029   4.692   5.721
  117OSM   H10S12205   6.743   4.738   5.719
  117OSM   H10T12206   0.028   4.583   5.696
  117OSM   C11S12207   0.093   4.747   5.596
  117OSM   H11S12208   0.191   4.698   5.580
  117OSM   H11T12209   0.126   4.852   5.612
  117OSM   C12S12210   0.006   4.740   5.474
  117OSM   H12S12211   6.742   4.818   5.487
  117OSM   H12T12212   6.763   4.646   5.463
  117OSM   C13S12213   0.083   4.780   5.349
  117OSM   H13S12214   0.182   4.729   5.344
  117OSM   H13T12215   0.113   4.887   5.356
  117OSM   C14S12216   0.004   4.756   5.219
  117OSM   H14S12217   6.732   4.825   5.215
  117OSM   H14T12218   6.775   4.654   5.226
  117OSM   C15S12219   0.082   4.786   5.087
  117OSM   H15S12220   0.018   4.781   4.996
  117OSM   H15T12221   0.160   4.709   5.068
  117OSM   C16S12222   0.138   4.933   5.082
  117OSM   H16S12223   0.238   4.935   5.129
  117OSM   H16T12224   0.067   4.981   5.153
  117OSM   C17S12225   0.129   4.996   4.943
  117OSM   H17S12226   0.031   4.985   4.892
  117OSM   H17T12227   0.188   4.930   4.876
  117OSM   C18S12228   0.168   5.141   4.941
  117OSM   H18S12229   0.117   5.201   5.019
  117OSM   H18T12230   0.156   5.198   4.846
  117OSM   H18U12231   0.274   5.161   4.963
  117OSM    C1F12232   0.939   4.608   6.125
  117OSM     OF12233   0.976   4.498   6.177
  117OSM    C2F12234   1.022   4.680   6.027
  117OSM    H2F12235   1.121   4.688   6.077
  117OSM    H2G12236   0.975   4.781   6.030
  117OSM    C3F12237   1.023   4.618   5.885
  117OSM    H3F12238   0.919   4.613   5.845
  117OSM    H3G12239   1.057   4.513   5.900
  117OSM    C4F12240   1.101   4.704   5.779
  117OSM    H4F12241   1.208   4.702   5.807
  117OSM    H4G12242   1.077   4.813   5.782
  117OSM    C5F12243   1.076   4.654   5.632
  117OSM    H5F12244   0.967   4.644   5.613
  117OSM    H5G12245   1.118   4.553   5.612
  117OSM    C6F12246   1.125   4.744   5.524
  117OSM    H6F12247   1.236   4.739   5.522
  117OSM    H6G12248   1.106   4.849   5.553
  117OSM    C7F12249   1.079   4.691   5.386
  117OSM    H7F12250   0.978   4.729   5.361
  117OSM    H7G12251   1.072   4.580   5.390
  117OSM    C8F12252   1.173   4.735   5.271
  117OSM    H8F12253   1.266   4.676   5.284
  117OSM    H8G12254   1.190   4.844   5.278
  117OSM    C9F12255   1.122   4.707   5.131
  117OSM    H9F12256   1.036   4.774   5.114
  117OSM   C10F12257   1.169   4.637   5.021
  117OSM   H10F12258   1.109   4.613   4.931
  117OSM   C11F12259   1.298   4.561   4.998
  117OSM   H11F12260   1.298   4.454   5.029
  117OSM   H11G12261   1.376   4.601   5.067
  117OSM   C12F12262   1.367   4.578   4.863
  117OSM   H12F12263   1.463   4.522   4.872
  117OSM   H12G12264   1.382   4.684   4.834
  117OSM   C13F12265   1.279   4.508   4.760
  117OSM   H13F12266   1.197   4.575   4.724
  117OSM   H13G12267   1.228   4.423   4.811
  117OSM   C14F12268   1.363   4.467   4.636
  117OSM   H14F12269   1.429   4.382   4.665
  117OSM   H14G12270   1.432   4.550   4.610
  117OSM   C15F12271   1.270   4.439   4.514
  117OSM   H15F12272   1.229   4.533   4.471
  117OSM   H15G12273   1.197   4.355   4.516
  117OSM   C16F12274   1.363   4.392   4.399
  117OSM   H16F12275   1.308   4.338   4.319
  117OSM   H16G12276   1.436   4.322   4.445
  117OSM   C17F12277   1.450   4.500   4.339
  117OSM   H17F12278   1.529   4.527   4.412
  117OSM   H17G12279   1.392   4.594   4.326
  117OSM   C18F12280   1.513   4.463   4.210
  117OSM   H18F12281   1.601   4.401   4.236
  117OSM   H18G12282   1.562   4.556   4.173
  117OSM   H18H12283   1.445   4.417   4.135
  118OSM      N12284   0.193   3.482   7.006
  118OSM    C1512285   0.181   3.374   7.106
  118OSM   H15A12286   0.078   3.344   7.118
  118OSM   H15B12287   0.210   3.410   7.204
  118OSM   H15C12288   0.246   3.292   7.080
  118OSM    C1412289   0.087   3.586   7.041
  118OSM   H14A12290   6.804   3.547   7.019
  118OSM   H14B12291   0.099   3.667   6.971
  118OSM   H14C12292   0.100   3.616   7.144
  118OSM    C1312293   0.332   3.528   7.011
  118OSM   H13A12294   0.401   3.448   6.990
  118OSM   H13B12295   0.348   3.566   7.111
  118OSM   H13C12296   0.351   3.613   6.947
  118OSM    C1212297   0.156   3.424   6.867
  118OSM   H12A12298   0.132   3.508   6.802
  118OSM   H12B12299   0.071   3.358   6.874
  118OSM    C1112300   0.266   3.340   6.795
  118OSM   H11A12301   0.361   3.398   6.801
  118OSM   H11B12302   0.253   3.335   6.684
  118OSM      P12303   0.176   3.091   6.827
  118OSM    O1312304   0.253   2.973   6.842
  118OSM    O1412305   0.047   3.118   6.907
  118OSM    O1112306   0.152   3.111   6.665
  118OSM    O1212307   0.280   3.212   6.854
  118OSM    C1S12308   0.253   3.054   6.575
  118OSM    H1S12309   0.266   2.949   6.608
  118OSM    H1T12310   0.351   3.097   6.604
  118OSM     NF12311   0.337   2.991   6.360
  118OSM    HNF12312   0.414   3.041   6.322
  118OSM    C2S12313   0.231   3.066   6.422
  118OSM    H2S12314   0.132   3.026   6.391
  118OSM    C3S12315   0.231   3.213   6.385
  118OSM    H3S12316   0.332   3.251   6.410
  118OSM     O312317   0.134   3.280   6.460
  118OSM    HO312318   0.088   3.223   6.521
  118OSM    C4S12319   0.213   3.242   6.235
  118OSM    H4S12320   0.293   3.190   6.179
  118OSM    C5S12321   0.125   3.320   6.170
  118OSM    H5S12322   0.049   3.363   6.237
  118OSM    C6S12323   0.120   3.365   6.026
  118OSM    H6S12324   0.124   3.476   6.014
  118OSM    H6T12325   0.023   3.335   5.982
  118OSM    C7S12326   0.211   3.297   5.924
  118OSM    H7S12327   0.210   3.186   5.921
  118OSM    H7T12328   0.314   3.336   5.934
  118OSM    C8S12329   0.164   3.341   5.782
  118OSM    H8S12330   0.161   3.452   5.774
  118OSM    H8T12331   0.056   3.322   5.761
  118OSM    C9S12332   0.244   3.276   5.671
  118OSM    H9S12333   0.228   3.166   5.683
  118OSM    H9T12334   0.353   3.288   5.689
  118OSM   C10S12335   0.207   3.321   5.534
  118OSM   H10S12336   0.240   3.426   5.521
  118OSM   H10T12337   0.099   3.322   5.511
  118OSM   C11S12338   0.283   3.232   5.434
  118OSM   H11S12339   0.235   3.132   5.435
  118OSM   H11T12340   0.386   3.221   5.475
  118OSM   C12S12341   0.277   3.283   5.290
  118OSM   H12S12342   0.334   3.377   5.269
  118OSM   H12T12343   0.169   3.297   5.269
  118OSM   C13S12344   0.324   3.189   5.176
  118OSM   H13S12345   0.251   3.112   5.144
  118OSM   H13T12346   0.414   3.132   5.208
  118OSM   C14S12347   0.378   3.259   5.046
  118OSM   H14S12348   0.435   3.191   4.979
  118OSM   H14T12349   0.444   3.346   5.067
  118OSM   C15S12350   0.268   3.296   4.950
  118OSM   H15S12351   0.206   3.366   5.010
  118OSM   H15T12352   0.193   3.215   4.931
  118OSM   C16S12353   0.312   3.360   4.821
  118OSM   H16S12354   0.217   3.373   4.765
  118OSM   H16T12355   0.389   3.295   4.773
  118OSM   C17S12356   0.382   3.500   4.821
  118OSM   H17S12357   0.460   3.506   4.901
  118OSM   H17T12358   0.304   3.569   4.859
  118OSM   C18S12359   0.437   3.545   4.693
  118OSM   H18S12360   0.511   3.469   4.660
  118OSM   H18T12361   0.494   3.637   4.719
  118OSM   H18U12362   0.366   3.562   4.609
  118OSM    C1F12363   0.334   2.857   6.363
  118OSM     OF12364   0.240   2.793   6.407
  118OSM    C2F12365   0.453   2.784   6.309
  118OSM    H2F12366   0.475   2.691   6.366
  118OSM    H2G12367   0.546   2.843   6.318
  118OSM    C3F12368   0.438   2.737   6.161
  118OSM    H3F12369   0.352   2.670   6.139
  118OSM    H3G12370   0.527   2.671   6.153
  118OSM    C4F12371   0.440   2.851   6.056
  118OSM    H4F12372   0.538   2.904   6.059
  118OSM    H4G12373   0.366   2.930   6.082
  118OSM    C5F12374   0.415   2.802   5.915
  118OSM    H5F12375   0.310   2.768   5.904
  118OSM    H5G12376   0.470   2.710   5.886
  118OSM    C6F12377   0.435   2.913   5.806
  118OSM    H6F12378   0.544   2.938   5.804
  118OSM    H6G12379   0.379   3.004   5.835
  118OSM    C7F12380   0.384   2.876   5.662
  118OSM    H7F12381   0.385   2.963   5.593
  118OSM    H7G12382   0.278   2.843   5.670
  118OSM    C8F12383   0.460   2.768   5.580
  118OSM    H8F12384   0.407   2.765   5.482
  118OSM    H8G12385   0.439   2.669   5.624
  118OSM    C9F12386   0.607   2.785   5.557
  118OSM    H9F12387   0.675   2.772   5.642
  118OSM   C10F12388   0.660   2.821   5.439
  118OSM   H10F12389   0.769   2.832   5.443
  118OSM   C11F12390   0.590   2.847   5.309
  118OSM   H11F12391   0.550   2.951   5.313
  118OSM   H11G12392   0.503   2.778   5.300
  118OSM   C12F12393   0.683   2.841   5.187
  118OSM   H12F12394   0.611   2.780   5.128
  118OSM   H12G12395   0.776   2.780   5.197
  118OSM   C13F12396   0.732   2.974   5.140
  118OSM   H13F12397   0.808   3.027   5.201
  118OSM   H13G12398   0.649   3.048   5.132
  118OSM   C14F12399   0.769   2.971   4.986
  118OSM   H14F12400   0.690   2.931   4.919
  118OSM   H14G12401   0.859   2.908   4.968
  118OSM   C15F12402   0.798   3.115   4.943
  118OSM   H15F12403   0.862   3.154   5.025
  118OSM   H15G12404   0.702   3.170   4.944
  118OSM   C16F12405   0.872   3.124   4.809
  118OSM   H16F12406   0.812   3.059   4.743
  118OSM   H16G12407   0.979   3.093   4.813
  118OSM   C17F12408   0.854   3.264   4.745
  118OSM   H17F12409   0.927   3.273   4.661
  118OSM   H17G12410   0.894   3.337   4.819
  118OSM   C18F12411   0.714   3.304   4.691
  118OSM   H18F12412   0.638   3.317   4.772
  118OSM   H18G12413   0.675   3.224   4.625
  118OSM   H18H12414   0.719   3.393   4.625
  119OSM      N12415   2.647   0.949   7.130
  119OSM    C1512416   2.504   0.947   7.202
  119OSM   H15A12417   2.436   1.014   7.152
  119OSM   H15B12418   2.514   0.980   7.305
  119OSM   H15C12419   2.468   0.846   7.194
  119OSM    C1412420   2.707   1.091   7.148
  119OSM   H14A12421   2.655   1.161   7.084
  119OSM   H14B12422   2.805   1.095   7.102
  119OSM   H14C12423   2.691   1.128   7.248
  119OSM    C1312424   2.735   0.850   7.199
  119OSM   H13A12425   2.836   0.838   7.163
  119OSM   H13B12426   2.688   0.753   7.204
  119OSM   H13C12427   2.736   0.891   7.299
  119OSM    C1212428   2.657   0.918   6.984
  119OSM   H12A12429   2.653   0.812   6.961
  119OSM   H12B12430   2.756   0.951   6.956
  119OSM    C1112431   2.559   0.989   6.880
  119OSM   H11A12432   2.584   0.953   6.778
  119OSM   H11B12433   2.561   1.100   6.886
  119OSM      P12434   2.304   1.055   6.889
  119OSM    O1312435   2.184   0.975   6.874
  119OSM    O1412436   2.310   1.152   7.001
  119OSM    O1112437   2.341   1.117   6.751
  119OSM    O1212438   2.424   0.950   6.904
  119OSM    C1S12439   2.351   1.034   6.639
  119OSM    H1S12440   2.254   0.988   6.611
  119OSM    H1T12441   2.421   0.949   6.653
  119OSM     NF12442   2.396   1.023   6.400
  119OSM    HNF12443   2.465   0.952   6.389
  119OSM    C2S12444   2.413   1.112   6.514
  119OSM    H2S12445   2.363   1.208   6.490
  119OSM    C3S12446   2.560   1.153   6.550
  119OSM    H3S12447   2.608   1.058   6.582
  119OSM     O312448   2.567   1.236   6.666
  119OSM    HO312449   2.486   1.212   6.711
  119OSM    C4S12450   2.630   1.209   6.434
  119OSM    H4S12451   2.664   1.136   6.360
  119OSM    C5S12452   2.656   1.339   6.409
  119OSM    H5S12453   2.624   1.421   6.475
  119OSM    C6S12454   2.745   1.387   6.305
  119OSM    H6S12455   2.807   1.306   6.261
  119OSM    H6T12456   2.821   1.449   6.356
  119OSM    C7S12457   2.673   1.459   6.194
  119OSM    H7S12458   2.595   1.529   6.228
  119OSM    H7T12459   2.624   1.377   6.137
  119OSM    C8S12460   2.765   1.535   6.094
  119OSM    H8S12461   2.862   1.486   6.071
  119OSM    H8T12462   2.795   1.627   6.149
  119OSM    C9S12463   2.682   1.553   5.972
  119OSM    H9S12464   2.598   1.620   5.998
  119OSM    H9T12465   2.640   1.457   5.935
  119OSM   C10S12466   2.765   1.609   5.857
  119OSM   H10S12467   2.857   1.555   5.826
  119OSM   H10T12468   2.792   1.714   5.879
  119OSM   C11S12469   2.675   1.609   5.735
  119OSM   H11S12470   2.577   1.656   5.754
  119OSM   H11T12471   2.650   1.503   5.711
  119OSM   C12S12472   2.736   1.675   5.613
  119OSM   H12S12473   2.834   1.624   5.597
  119OSM   H12T12474   2.744   1.784   5.632
  119OSM   C13S12475   2.640   1.664   5.500
  119OSM   H13S12476   2.556   1.734   5.518
  119OSM   H13T12477   2.595   1.563   5.492
  119OSM   C14S12478   2.705   1.695   5.366
  119OSM   H14S12479   2.770   1.784   5.379
  119OSM   H14T12480   2.624   1.718   5.293
  119OSM   C15S12481   2.798   1.584   5.314
  119OSM   H15S12482   2.731   1.502   5.283
  119OSM   H15T12483   2.865   1.555   5.398
  119OSM   C16S12484   2.885   1.620   5.199
  119OSM   H16S12485   2.812   1.664   5.127
  119OSM   H16T12486   2.930   1.525   5.164
  119OSM   C17S12487   3.007   1.714   5.232
  119OSM   H17S12488   3.079   1.659   5.296
  119OSM   H17T12489   2.966   1.802   5.286
  119OSM   C18S12490   3.064   1.760   5.105
  119OSM   H18S12491   2.985   1.801   5.038
  119OSM   H18T12492   3.103   1.679   5.039
  119OSM   H18U12493   3.144   1.837   5.114
  119OSM    C1F12494   2.278   1.008   6.346
  119OSM     OF12495   2.192   1.088   6.381
  119OSM    C2F12496   2.249   0.886   6.260
  119OSM    H2F12497   2.165   0.901   6.188
  119OSM    H2G12498   2.220   0.801   6.325
  119OSM    C3F12499   2.373   0.839   6.170
  119OSM    H3F12500   2.345   0.739   6.130
  119OSM    H3G12501   2.464   0.824   6.232
  119OSM    C4F12502   2.421   0.932   6.055
  119OSM    H4F12503   2.439   1.035   6.092
  119OSM    H4G12504   2.339   0.949   5.981
  119OSM    C5F12505   2.547   0.878   5.996
  119OSM    H5F12506   2.516   0.789   5.938
  119OSM    H5G12507   2.620   0.844   6.072
  119OSM    C6F12508   2.618   0.970   5.903
  119OSM    H6F12509   2.540   1.021   5.843
  119OSM    H6G12510   2.673   0.903   5.833
  119OSM    C7F12511   2.720   1.063   5.968
  119OSM    H7F12512   2.796   0.992   6.010
  119OSM    H7G12513   2.682   1.122   6.054
  119OSM    C8F12514   2.785   1.162   5.865
  119OSM    H8F12515   2.847   1.232   5.924
  119OSM    H8G12516   2.703   1.224   5.823
  119OSM    C9F12517   2.879   1.097   5.769
  119OSM    H9F12518   2.976   1.060   5.806
  119OSM   C10F12519   2.865   1.100   5.633
  119OSM   H10F12520   2.949   1.055   5.578
  119OSM   C11F12521   2.753   1.155   5.549
  119OSM   H11F12522   2.698   1.227   5.612
  119OSM   H11G12523   2.690   1.072   5.509
  119OSM   C12F12524   2.799   1.231   5.422
  119OSM   H12F12525   2.861   1.321   5.444
  119OSM   H12G12526   2.710   1.273   5.369
  119OSM   C13F12527   2.855   1.133   5.321
  119OSM   H13F12528   2.794   1.040   5.327
  119OSM   H13G12529   2.959   1.104   5.347
  119OSM   C14F12530   2.850   1.196   5.179
  119OSM   H14F12531   2.918   1.283   5.180
  119OSM   H14G12532   2.747   1.236   5.167
  119OSM   C15F12533   2.872   1.110   5.050
  119OSM   H15F12534   2.784   1.043   5.060
  119OSM   H15G12535   2.972   1.063   5.054
  119OSM   C16F12536   2.855   1.202   4.930
  119OSM   H16F12537   2.929   1.283   4.948
  119OSM   H16G12538   2.755   1.249   4.926
  119OSM   C17F12539   2.878   1.138   4.791
  119OSM   H17F12540   2.814   1.049   4.772
  119OSM   H17G12541   2.977   1.089   4.777
  119OSM   C18F12542   2.853   1.226   4.665
  119OSM   H18F12543   2.931   1.305   4.655
  119OSM   H18G12544   2.749   1.264   4.664
  119OSM   H18H12545   2.865   1.175   4.567
  120OSM      N12546   5.745   4.463   6.813
  120OSM    C1512547   5.754   4.359   6.917
  120OSM   H15A12548   5.744   4.263   6.867
  120OSM   H15B12549   5.670   4.387   6.979
  120OSM   H15C12550   5.848   4.362   6.971
  120OSM    C1412551   5.735   4.598   6.884
  120OSM   H14A12552   5.816   4.624   6.950
  120OSM   H14B12553   5.652   4.594   6.953
  120OSM   H14C12554   5.707   4.682   6.822
  120OSM    C1312555   5.855   4.453   6.718
  120OSM   H13A12556   5.838   4.505   6.624
  120OSM   H13B12557   5.863   4.352   6.681
  120OSM   H13C12558   5.951   4.491   6.750
  120OSM    C1212559   5.611   4.439   6.743
  120OSM   H12A12560   5.530   4.437   6.815
  120OSM   H12B12561   5.615   4.336   6.709
  120OSM    C1112562   5.571   4.534   6.625
  120OSM   H11A12563   5.485   4.489   6.570
  120OSM   H11B12564   5.647   4.543   6.544
  120OSM      P12565   5.401   4.713   6.696
  120OSM    O1312566   5.315   4.601   6.744
  120OSM    O1412567   5.403   4.830   6.786
  120OSM    O1112568   5.359   4.759   6.553
  120OSM    O1212569   5.552   4.670   6.677
  120OSM    C1S12570   5.445   4.863   6.485
  120OSM    H1S12571   5.551   4.844   6.512
  120OSM    H1T12572   5.423   4.966   6.518
  120OSM     NF12573   5.551   4.906   6.259
  120OSM    HNF12574   5.542   4.992   6.209
  120OSM    C2S12575   5.432   4.862   6.323
  120OSM    H2S12576   5.425   4.757   6.288
  120OSM    C3S12577   5.296   4.928   6.285
  120OSM    H3S12578   5.275   5.029   6.326
  120OSM     O312579   5.183   4.856   6.336
  120OSM    HO312580   5.219   4.810   6.412
  120OSM    C4S12581   5.280   4.934   6.133
  120OSM    H4S12582   5.267   4.833   6.091
  120OSM    C5S12583   5.280   5.051   6.061
  120OSM    H5S12584   5.281   5.150   6.109
  120OSM    C6S12585   5.248   5.057   5.913
  120OSM    H6S12586   5.192   4.966   5.882
  120OSM    H6T12587   5.342   5.042   5.856
  120OSM    C7S12588   5.176   5.189   5.868
  120OSM    H7S12589   5.242   5.278   5.869
  120OSM    H7T12590   5.101   5.204   5.949
  120OSM    C8S12591   5.128   5.184   5.725
  120OSM    H8S12592   5.040   5.116   5.718
  120OSM    H8T12593   5.204   5.136   5.660
  120OSM    C9S12594   5.086   5.317   5.664
  120OSM    H9S12595   5.174   5.382   5.647
  120OSM    H9T12596   5.013   5.370   5.730
  120OSM   C10S12597   5.026   5.301   5.519
  120OSM   H10S12598   4.966   5.393   5.504
  120OSM   H10T12599   4.958   5.213   5.519
  120OSM   C11S12600   5.134   5.300   5.410
  120OSM   H11S12601   5.216   5.226   5.420
  120OSM   H11T12602   5.184   5.399   5.412
  120OSM   C12S12603   5.069   5.261   5.272
  120OSM   H12S12604   4.978   5.324   5.263
  120OSM   H12T12605   5.027   5.158   5.274
  120OSM   C13S12606   5.161   5.273   5.156
  120OSM   H13S12607   5.258   5.218   5.162
  120OSM   H13T12608   5.183   5.381   5.161
  120OSM   C14S12609   5.072   5.241   5.035
  120OSM   H14S12610   4.982   5.305   5.036
  120OSM   H14T12611   5.030   5.140   5.050
  120OSM   C15S12612   5.124   5.267   4.895
  120OSM   H15S12613   5.195   5.189   4.860
  120OSM   H15T12614   5.184   5.360   4.891
  120OSM   C16S12615   5.026   5.291   4.778
  120OSM   H16S12616   4.969   5.386   4.789
  120OSM   H16T12617   4.945   5.215   4.792
  120OSM   C17S12618   5.103   5.282   4.649
  120OSM   H17S12619   5.035   5.247   4.568
  120OSM   H17T12620   5.175   5.197   4.654
  120OSM   C18S12621   5.174   5.423   4.616
  120OSM   H18S12622   5.226   5.414   4.518
  120OSM   H18T12623   5.241   5.469   4.692
  120OSM   H18U12624   5.092   5.492   4.588
  120OSM    C1F12625   5.666   4.834   6.254
  120OSM     OF12626   5.694   4.737   6.326
  120OSM    C2F12627   5.761   4.890   6.154
  120OSM    H2F12628   5.837   4.813   6.127
  120OSM    H2G12629   5.813   4.978   6.198
  120OSM    C3F12630   5.690   4.929   6.023
  120OSM    H3F12631   5.774   4.978   5.969
  120OSM    H3G12632   5.615   5.007   6.046
  120OSM    C4F12633   5.635   4.810   5.949
  120OSM    H4F12634   5.564   4.747   6.007
  120OSM    H4G12635   5.713   4.731   5.938
  120OSM    C5F12636   5.570   4.843   5.813
  120OSM    H5F12637   5.488   4.915   5.835
  120OSM    H5G12638   5.518   4.750   5.783
  120OSM    C6F12639   5.673   4.893   5.710
  120OSM    H6F12640   5.758   4.821   5.704
  120OSM    H6G12641   5.698   4.999   5.733
  120OSM    C7F12642   5.607   4.884   5.573
  120OSM    H7F12643   5.554   4.787   5.575
  120OSM    H7G12644   5.680   4.890   5.490
  120OSM    C8F12645   5.504   4.998   5.551
  120OSM    H8F12646   5.557   5.096   5.553
  120OSM    H8G12647   5.421   4.997   5.624
  120OSM    C9F12648   5.433   4.969   5.420
  120OSM    H9F12649   5.362   4.885   5.422
  120OSM   C10F12650   5.471   5.007   5.297
  120OSM   H10F12651   5.417   4.976   5.207
  120OSM   C11F12652   5.585   5.101   5.252
  120OSM   H11F12653   5.637   5.146   5.339
  120OSM   H11G12654   5.549   5.185   5.190
  120OSM   C12F12655   5.698   5.028   5.176
  120OSM   H12F12656   5.744   4.956   5.248
  120OSM   H12G12657   5.778   5.093   5.137
  120OSM   C13F12658   5.636   4.966   5.048
  120OSM   H13F12659   5.560   4.887   5.066
  120OSM   H13G12660   5.724   4.930   4.990
  120OSM   C14F12661   5.560   5.070   4.961
  120OSM   H14F12662   5.616   5.166   4.952
  120OSM   H14G12663   5.456   5.095   4.990
  120OSM   C15F12664   5.540   5.013   4.821
  120OSM   H15F12665   5.453   4.944   4.832
  120OSM   H15G12666   5.631   4.965   4.779
  120OSM   C16F12667   5.492   5.114   4.726
  120OSM   H16F12668   5.577   5.185   4.723
  120OSM   H16G12669   5.403   5.178   4.746
  120OSM   C17F12670   5.464   5.060   4.588
  120OSM   H17F12671   5.440   5.145   4.520
  120OSM   H17G12672   5.371   5.000   4.591
  120OSM   C18F12673   5.580   4.977   4.519
  120OSM   H18F12674   5.624   4.885   4.563
  120OSM   H18G12675   5.660   5.050   4.494
  120OSM   H18H12676   5.534   4.942   4.424
  121OSM      N12677   0.094   0.674   7.284
  121OSM    C1512678   6.761   0.694   7.325
  121OSM   H15A12679   6.720   0.612   7.382
  121OSM   H15B12680   6.701   0.703   7.236
  121OSM   H15C12681   6.749   0.775   7.396
  121OSM    C1412682   0.176   0.653   7.414
  121OSM   H14A12683   0.277   0.622   7.391
  121OSM   H14B12684   0.126   0.580   7.476
  121OSM   H14C12685   0.191   0.747   7.464
  121OSM    C1312686   0.103   0.544   7.215
  121OSM   H13A12687   0.076   0.458   7.275
  121OSM   H13B12688   0.203   0.531   7.177
  121OSM   H13C12689   0.037   0.540   7.130
  121OSM    C1212690   0.159   0.788   7.200
  121OSM   H12A12691   0.261   0.758   7.181
  121OSM   H12B12692   0.169   0.875   7.263
  121OSM    C1112693   0.105   0.843   7.060
  121OSM   H11A12694   0.175   0.916   7.014
  121OSM   H11B12695   0.010   0.900   7.070
  121OSM      P12696   0.211   0.672   6.892
  121OSM    O1312697   0.320   0.772   6.905
  121OSM    O1412698   0.240   0.530   6.939
  121OSM    O1112699   0.153   0.662   6.746
  121OSM    O1212700   0.089   0.732   6.977
  121OSM    C1S12701   0.045   0.747   6.711
  121OSM    H1S12702   0.088   0.848   6.700
  121OSM    H1T12703   6.785   0.748   6.793
  121OSM     NF12704   6.716   0.786   6.508
  121OSM    HNF12705   6.619   0.766   6.494
  121OSM    C2S12706   6.797   0.689   6.581
  121OSM    H2S12707   0.075   0.665   6.525
  121OSM    C3S12708   6.716   0.554   6.606
  121OSM    H3S12709   6.626   0.576   6.667
  121OSM     O312710   6.794   0.461   6.685
  121OSM    HO312711   0.056   0.515   6.706
  121OSM    C4S12712   6.671   0.501   6.477
  121OSM    H4S12713   6.580   0.549   6.437
  121OSM    C5S12714   6.730   0.410   6.397
  121OSM    H5S12715   0.011   0.371   6.434
  121OSM    C6S12716   6.686   0.372   6.260
  121OSM    H6S12717   6.678   0.261   6.255
  121OSM    H6T12718   6.770   0.400   6.193
  121OSM    C7S12719   6.551   0.424   6.209
  121OSM    H7S12720   6.551   0.535   6.203
  121OSM    H7T12721   6.477   0.392   6.285
  121OSM    C8S12722   6.526   0.373   6.067
  121OSM    H8S12723   6.512   0.262   6.065
  121OSM    H8T12724   6.622   0.391   6.015
  121OSM    C9S12725   6.420   0.445   5.985
  121OSM    H9S12726   6.441   0.553   5.997
  121OSM    H9T12727   6.320   0.421   6.027
  121OSM   C10S12728   6.427   0.416   5.834
  121OSM   H10S12729   6.534   0.424   5.809
  121OSM   H10T12730   6.373   0.487   5.768
  121OSM   C11S12731   6.408   0.270   5.797
  121OSM   H11S12732   6.310   0.242   5.842
  121OSM   H11T12733   6.478   0.205   5.854
  121OSM   C12S12734   6.409   0.236   5.651
  121OSM   H12S12735   6.330   0.303   5.610
  121OSM   H12T12736   6.391   0.128   5.636
  121OSM   C13S12737   6.555   0.267   5.587
  121OSM   H13S12738   6.628   0.189   5.619
  121OSM   H13T12739   6.586   0.372   5.606
  121OSM   C14S12740   6.532   0.255   5.434
  121OSM   H14S12741   6.469   0.341   5.403
  121OSM   H14T12742   6.470   0.166   5.410
  121OSM   C15S12743   6.659   0.254   5.347
  121OSM   H15S12744   6.714   0.159   5.365
  121OSM   H15T12745   6.732   0.336   5.365
  121OSM   C16S12746   6.634   0.248   5.191
  121OSM   H16S12747   6.586   0.345   5.166
  121OSM   H16T12748   6.563   0.168   5.163
  121OSM   C17S12749   6.755   0.227   5.095
  121OSM   H17S12750   6.715   0.221   4.991
  121OSM   H17T12751   6.810   0.135   5.123
  121OSM   C18S12752   0.032   0.352   5.095
  121OSM   H18S12753   0.092   0.356   5.188
  121OSM   H18T12754   6.788   0.444   5.077
  121OSM   H18U12755   0.100   0.346   5.007
  121OSM    C1F12756   6.757   0.909   6.469
  121OSM     OF12757   0.048   0.955   6.503
  121OSM    C2F12758   6.666   0.986   6.385
  121OSM    H2F12759   6.558   0.978   6.412
  121OSM    H2G12760   6.678   0.946   6.282
  121OSM    C3F12761   6.712   1.132   6.370
  121OSM    H3F12762   6.813   1.129   6.323
  121OSM    H3G12763   6.714   1.184   6.468
  121OSM    C4F12764   6.615   1.214   6.280
  121OSM    H4F12765   6.654   1.318   6.284
  121OSM    H4G12766   6.521   1.212   6.340
  121OSM    C5F12767   6.592   1.165   6.139
  121OSM    H5F12768   6.550   1.063   6.128
  121OSM    H5G12769   6.685   1.171   6.078
  121OSM    C6F12770   6.486   1.257   6.071
  121OSM    H6F12771   6.544   1.350   6.051
  121OSM    H6G12772   6.410   1.279   6.149
  121OSM    C7F12773   6.440   1.180   5.949
  121OSM    H7F12774   6.382   1.090   5.982
  121OSM    H7G12775   6.528   1.143   5.893
  121OSM    C8F12776   6.358   1.270   5.860
  121OSM    H8F12777   6.413   1.365   5.842
  121OSM    H8G12778   6.265   1.292   5.917
  121OSM    C9F12779   6.334   1.193   5.730
  121OSM    H9F12780   6.424   1.180   5.669
  121OSM   C10F12781   6.217   1.156   5.672
  121OSM   H10F12782   6.210   1.111   5.571
  121OSM   C11F12783   6.082   1.176   5.741
  121OSM   H11F12784   6.080   1.240   5.832
  121OSM   H11G12785   6.044   1.079   5.778
  121OSM   C12F12786   5.976   1.230   5.639
  121OSM   H12F12787   6.010   1.324   5.590
  121OSM   H12G12788   5.889   1.258   5.702
  121OSM   C13F12789   5.926   1.121   5.535
  121OSM   H13F12790   5.892   1.035   5.596
  121OSM   H13G12791   6.016   1.095   5.475
  121OSM   C14F12792   5.817   1.168   5.435
  121OSM   H14F12793   5.846   1.265   5.390
  121OSM   H14G12794   5.722   1.190   5.490
  121OSM   C15F12795   5.792   1.064   5.324
  121OSM   H15F12796   5.688   1.079   5.286
  121OSM   H15G12797   5.799   0.963   5.370
  121OSM   C16F12798   5.884   1.063   5.197
  121OSM   H16F12799   5.883   1.167   5.158
  121OSM   H16G12800   5.841   1.001   5.116
  121OSM   C17F12801   6.026   1.002   5.226
  121OSM   H17F12802   6.014   0.929   5.308
  121OSM   H17G12803   6.089   1.079   5.276
  121OSM   C18F12804   6.098   0.948   5.106
  121OSM   H18F12805   6.023   0.910   5.033
  121OSM   H18G12806   6.168   0.862   5.119
  121OSM   H18H12807   6.159   1.030   5.063
  122OSM      N12808   6.484   3.530   6.668
  122OSM    C1512809   6.447   3.506   6.807
  122OSM   H15A12810   6.342   3.479   6.809
  122OSM   H15B12811   6.467   3.590   6.871
  122OSM   H15C12812   6.500   3.420   6.844
  122OSM    C1412813   6.635   3.539   6.666
  122OSM   H14A12814   6.672   3.622   6.725
  122OSM   H14B12815   6.673   3.558   6.566
  122OSM   H14C12816   6.682   3.455   6.715
  122OSM    C1312817   6.438   3.415   6.585
  122OSM   H13A12818   6.331   3.413   6.566
  122OSM   H13B12819   6.465   3.323   6.636
  122OSM   H13C12820   6.477   3.423   6.485
  122OSM    C1212821   6.422   3.664   6.628
  122OSM   H12A12822   6.435   3.750   6.691
  122OSM   H12B12823   6.314   3.657   6.634
  122OSM    C1112824   6.451   3.718   6.480
  122OSM   H11A12825   6.382   3.796   6.442
  122OSM   H11B12826   6.453   3.637   6.404
  122OSM      P12827   6.630   3.921   6.516
  122OSM    O1312828   6.609   3.940   6.663
  122OSM    O1412829   6.767   3.948   6.461
  122OSM    O1112830   6.524   4.013   6.446
  122OSM    O1212831   6.582   3.773   6.481
  122OSM    C1S12832   6.506   3.977   6.304
  122OSM    H1S12833   6.496   3.870   6.276
  122OSM    H1T12834   6.591   4.015   6.245
  122OSM     NF12835   6.351   3.973   6.110
  122OSM    HNF12836   6.378   4.025   6.029
  122OSM    C2S12837   6.383   4.036   6.238
  122OSM    H2S12838   6.302   4.009   6.309
  122OSM    C3S12839   6.402   4.184   6.213
  122OSM    H3S12840   6.494   4.201   6.153
  122OSM     O312841   6.429   4.268   6.327
  122OSM    HO312842   6.455   4.211   6.399
  122OSM    C4S12843   6.289   4.244   6.136
  122OSM    H4S12844   6.312   4.275   6.033
  122OSM    C5S12845   6.169   4.275   6.190
  122OSM    H5S12846   6.158   4.272   6.300
  122OSM    C6S12847   6.047   4.346   6.125
  122OSM    H6S12848   6.036   4.446   6.171
  122OSM    H6T12849   5.960   4.285   6.157
  122OSM    C7S12850   6.056   4.361   5.972
  122OSM    H7S12851   6.076   4.259   5.933
  122OSM    H7T12852   6.148   4.423   5.956
  122OSM    C8S12853   5.932   4.424   5.918
  122OSM    H8S12854   5.900   4.516   5.971
  122OSM    H8T12855   5.849   4.350   5.922
  122OSM    C9S12856   5.956   4.462   5.769
  122OSM    H9S12857   6.049   4.522   5.779
  122OSM    H9T12858   5.871   4.525   5.735
  122OSM   C10S12859   5.974   4.352   5.674
  122OSM   H10S12860   5.883   4.289   5.666
  122OSM   H10T12861   6.046   4.276   5.711
  122OSM   C11S12862   6.019   4.393   5.530
  122OSM   H11S12863   6.123   4.432   5.525
  122OSM   H11T12864   5.947   4.470   5.495
  122OSM   C12S12865   6.001   4.286   5.424
  122OSM   H12S12866   5.894   4.258   5.419
  122OSM   H12T12867   6.066   4.198   5.443
  122OSM   C13S12868   6.042   4.333   5.282
  122OSM   H13S12869   6.089   4.242   5.239
  122OSM   H13T12870   6.119   4.413   5.289
  122OSM   C14S12871   5.937   4.395   5.190
  122OSM   H14S12872   5.928   4.500   5.222
  122OSM   H14T12873   5.845   4.335   5.208
  122OSM   C15S12874   5.980   4.403   5.042
  122OSM   H15S12875   5.990   4.301   4.999
  122OSM   H15T12876   6.074   4.461   5.051
  122OSM   C16S12877   5.873   4.477   4.960
  122OSM   H16S12878   5.847   4.567   5.020
  122OSM   H16T12879   5.779   4.419   4.950
  122OSM   C17S12880   5.924   4.510   4.820
  122OSM   H17S12881   6.018   4.568   4.821
  122OSM   H17T12882   5.848   4.576   4.772
  122OSM   C18S12883   5.947   4.389   4.743
  122OSM   H18S12884   5.948   4.405   4.633
  122OSM   H18T12885   5.879   4.305   4.772
  122OSM   H18U12886   6.051   4.360   4.768
  122OSM    C1F12887   6.290   3.856   6.098
  122OSM     OF12888   6.228   3.810   6.199
  122OSM    C2F12889   6.293   3.792   5.965
  122OSM    H2F12890   6.195   3.755   5.929
  122OSM    H2G12891   6.359   3.702   5.970
  122OSM    C3F12892   6.362   3.882   5.858
  122OSM    H3F12893   6.380   3.809   5.776
  122OSM    H3G12894   6.458   3.924   5.894
  122OSM    C4F12895   6.269   3.995   5.798
  122OSM    H4F12896   6.223   4.046   5.886
  122OSM    H4G12897   6.181   3.951   5.745
  122OSM    C5F12898   6.344   4.087   5.698
  122OSM    H5F12899   6.434   4.132   5.746
  122OSM    H5G12900   6.284   4.180   5.691
  122OSM    C6F12901   6.351   4.026   5.558
  122OSM    H6F12902   6.264   3.964   5.526
  122OSM    H6G12903   6.442   3.962   5.556
  122OSM    C7F12904   6.389   4.131   5.454
  122OSM    H7F12905   6.471   4.192   5.497
  122OSM    H7G12906   6.302   4.196   5.429
  122OSM    C8F12907   6.439   4.070   5.321
  122OSM    H8F12908   6.371   3.983   5.308
  122OSM    H8G12909   6.536   4.016   5.329
  122OSM    C9F12910   6.445   4.180   5.209
  122OSM    H9F12911   6.514   4.263   5.230
  122OSM   C10F12912   6.376   4.177   5.095
  122OSM   H10F12913   6.398   4.255   5.021
  122OSM   C11F12914   6.279   4.067   5.050
  122OSM   H11F12915   6.176   4.090   5.085
  122OSM   H11G12916   6.293   3.978   5.115
  122OSM   C12F12917   6.294   4.009   4.904
  122OSM   H12F12918   6.261   4.079   4.824
  122OSM   H12G12919   6.214   3.932   4.906
  122OSM   C13F12920   6.432   3.939   4.877
  122OSM   H13F12921   6.446   3.862   4.956
  122OSM   H13G12922   6.514   4.013   4.893
  122OSM   C14F12923   6.447   3.873   4.737
  122OSM   H14F12924   6.346   3.853   4.695
  122OSM   H14G12925   6.507   3.781   4.751
  122OSM   C15F12926   6.511   3.970   4.638
  122OSM   H15F12927   6.608   4.004   4.679
  122OSM   H15G12928   6.448   4.062   4.640
  122OSM   C16F12929   6.532   3.914   4.497
  122OSM   H16F12930   6.582   3.986   4.430
  122OSM   H16G12931   6.440   3.902   4.436
  122OSM   C17F12932   6.617   3.783   4.473
  122OSM   H17F12933   6.599   3.754   4.367
  122OSM   H17G12934   6.585   3.704   4.543
  122OSM   C18F12935   6.770   3.803   4.493
  122OSM   H18F12936   0.011   3.708   4.478
  122OSM   H18G12937   6.790   3.842   4.595
  122OSM   H18H12938   6.800   3.877   4.416
  123OSM      N12939   2.729   2.836   2.247
  123OSM    C1512940   2.716   2.938   2.135
  123OSM   H15A12941   2.673   2.887   2.050
  123OSM   H15B12942   2.810   2.970   2.094
  123OSM   H15C12943   2.654   3.020   2.169
  123OSM    C1412944   2.792   2.905   2.359
  123OSM   H14A12945   2.804   2.855   2.454
  123OSM   H14B12946   2.741   2.995   2.389
  123OSM   H14C12947   2.895   2.925   2.337
  123OSM    C1312948   2.599   2.783   2.291
  123OSM   H13A12949   2.612   2.713   2.372
  123OSM   H13B12950   2.551   2.737   2.206
  123OSM   H13C12951   2.538   2.861   2.335
  123OSM    C1212952   2.807   2.709   2.207
  123OSM   H12A12953   2.788   2.635   2.283
  123OSM   H12B12954   2.912   2.732   2.200
  123OSM    C1112955   2.765   2.643   2.069
  123OSM   H11A12956   2.857   2.606   2.019
  123OSM   H11B12957   2.724   2.719   1.999
  123OSM      P12958   2.717   2.406   2.159
  123OSM    O1312959   2.656   2.299   2.075
  123OSM    O1412960   2.866   2.419   2.158
  123OSM    O1112961   2.648   2.400   2.301
  123OSM    O1212962   2.666   2.542   2.100
  123OSM    C1S12963   2.508   2.409   2.326
  123OSM    H1S12964   2.448   2.344   2.260
  123OSM    H1T12965   2.459   2.506   2.302
  123OSM     NF12966   2.346   2.314   2.490
  123OSM    HNF12967   2.274   2.349   2.549
  123OSM    C2S12968   2.472   2.387   2.478
  123OSM    H2S12969   2.543   2.315   2.524
  123OSM    C3S12970   2.476   2.523   2.549
  123OSM    H3S12971   2.416   2.601   2.496
  123OSM     O312972   2.603   2.581   2.545
  123OSM    HO312973   2.657   2.515   2.501
  123OSM    C4S12974   2.435   2.521   2.699
  123OSM    H4S12975   2.329   2.498   2.715
  123OSM    C5S12976   2.512   2.535   2.807
  123OSM    H5S12977   2.621   2.535   2.788
  123OSM    C6S12978   2.471   2.518   2.953
  123OSM    H6S12979   2.498   2.611   3.008
  123OSM    H6T12980   2.533   2.438   2.999
  123OSM    C7S12981   2.326   2.475   2.974
  123OSM    H7S12982   2.315   2.374   2.931
  123OSM    H7T12983   2.250   2.541   2.927
  123OSM    C8S12984   2.291   2.449   3.125
  123OSM    H8S12985   2.374   2.388   3.165
  123OSM    H8T12986   2.194   2.394   3.119
  123OSM    C9S12987   2.278   2.572   3.212
  123OSM    H9S12988   2.182   2.626   3.194
  123OSM    H9T12989   2.345   2.659   3.195
  123OSM   C10S12990   2.280   2.549   3.366
  123OSM   H10S12991   2.217   2.462   3.393
  123OSM   H10T12992   2.225   2.635   3.410
  123OSM   C11S12993   2.420   2.531   3.431
  123OSM   H11S12994   2.477   2.627   3.433
  123OSM   H11T12995   2.487   2.460   3.379
  123OSM   C12S12996   2.397   2.493   3.580
  123OSM   H12S12997   2.490   2.450   3.622
  123OSM   H12T12998   2.341   2.397   3.581
  123OSM   C13S12999   2.353   2.615   3.660
  123OSM   H13S13000   2.270   2.675   3.616
  123OSM   H13T13001   2.445   2.673   3.681
  123OSM   C14S13002   2.302   2.570   3.798
  123OSM   H14S13003   2.387   2.514   3.841
  123OSM   H14T13004   2.201   2.524   3.785
  123OSM   C15S13005   2.265   2.688   3.893
  123OSM   H15S13006   2.184   2.665   3.966
  123OSM   H15T13007   2.206   2.757   3.829
  123OSM   C16S13008   2.380   2.747   3.964
  123OSM   H16S13009   2.453   2.782   3.888
  123OSM   H16T13010   2.426   2.662   4.018
  123OSM   C17S13011   2.361   2.853   4.077
  123OSM   H17S13012   2.323   2.947   4.032
  123OSM   H17T13013   2.467   2.876   4.103
  123OSM   C18S13014   2.276   2.808   4.195
  123OSM   H18S13015   2.308   2.847   4.294
  123OSM   H18T13016   2.302   2.701   4.209
  123OSM   H18U13017   2.166   2.819   4.183
  123OSM    C1F13018   2.330   2.182   2.462
  123OSM     OF13019   2.419   2.121   2.403
  123OSM    C2F13020   2.211   2.111   2.515
  123OSM    H2F13021   2.156   2.098   2.419
  123OSM    H2G13022   2.149   2.176   2.580
  123OSM    C3F13023   2.243   1.978   2.581
  123OSM    H3F13024   2.314   2.001   2.663
  123OSM    H3G13025   2.290   1.905   2.511
  123OSM    C4F13026   2.121   1.908   2.639
  123OSM    H4F13027   2.145   1.802   2.663
  123OSM    H4G13028   2.036   1.894   2.568
  123OSM    C5F13029   2.064   1.966   2.770
  123OSM    H5F13030   1.977   1.902   2.797
  123OSM    H5G13031   2.039   2.065   2.726
  123OSM    C6F13032   2.150   1.978   2.894
  123OSM    H6F13033   2.237   2.040   2.864
  123OSM    H6G13034   2.186   1.879   2.931
  123OSM    C7F13035   2.076   2.044   3.016
  123OSM    H7F13036   1.998   1.967   3.039
  123OSM    H7G13037   2.032   2.136   2.972
  123OSM    C8F13038   2.158   2.058   3.145
  123OSM    H8F13039   2.246   2.124   3.133
  123OSM    H8G13040   2.186   1.951   3.162
  123OSM    C9F13041   2.071   2.100   3.265
  123OSM    H9F13042   2.074   2.206   3.296
  123OSM   C10F13043   1.994   2.015   3.333
  123OSM   H10F13044   1.931   2.045   3.418
  123OSM   C11F13045   1.980   1.866   3.302
  123OSM   H11F13046   2.021   1.839   3.202
  123OSM   H11G13047   1.872   1.844   3.289
  123OSM   C12F13048   2.032   1.786   3.414
  123OSM   H12F13049   2.140   1.799   3.439
  123OSM   H12G13050   2.016   1.678   3.396
  123OSM   C13F13051   1.951   1.804   3.542
  123OSM   H13F13052   1.845   1.788   3.514
  123OSM   H13G13053   1.955   1.911   3.571
  123OSM   C14F13054   1.997   1.709   3.657
  123OSM   H14F13055   2.105   1.706   3.632
  123OSM   H14G13056   1.973   1.602   3.643
  123OSM   C15F13057   1.987   1.761   3.801
  123OSM   H15F13058   1.879   1.769   3.827
  123OSM   H15G13059   2.027   1.865   3.808
  123OSM   C16F13060   2.067   1.662   3.892
  123OSM   H16F13061   2.023   1.560   3.883
  123OSM   H16G13062   2.051   1.691   3.998
  123OSM   C17F13063   2.221   1.657   3.861
  123OSM   H17F13064   2.236   1.766   3.847
  123OSM   H17G13065   2.237   1.601   3.766
  123OSM   C18F13066   2.311   1.607   3.975
  123OSM   H18F13067   2.417   1.637   3.967
  123OSM   H18G13068   2.306   1.496   3.976
  123OSM   H18H13069   2.272   1.646   4.071
  124OSM      N13070   3.080   3.474   2.075
  124OSM    C1513071   3.163   3.574   1.999
  124OSM   H15A13072   3.101   3.651   1.955
  124OSM   H15B13073   3.220   3.527   1.920
  124OSM   H15C13074   3.235   3.615   2.069
  124OSM    C1413075   3.174   3.386   2.154
  124OSM   H14A13076   3.117   3.321   2.219
  124OSM   H14B13077   3.243   3.443   2.215
  124OSM   H14C13078   3.240   3.331   2.089
  124OSM    C1313079   2.986   3.539   2.171
  124OSM   H13A13080   3.042   3.612   2.228
  124OSM   H13B13081   2.943   3.459   2.229
  124OSM   H13C13082   2.904   3.588   2.120
  124OSM    C1213083   3.003   3.395   1.971
  124OSM   H12A13084   3.073   3.356   1.898
  124OSM   H12B13085   2.939   3.473   1.933
  124OSM    C1113086   2.917   3.278   2.035
  124OSM   H11A13087   2.976   3.194   2.078
  124OSM   H11B13088   2.863   3.233   1.949
  124OSM      P13089   2.667   3.372   2.085
  124OSM    O1313090   2.675   3.459   1.971
  124OSM    O1413091   2.583   3.252   2.084
  124OSM    O1113092   2.618   3.471   2.197
  124OSM    O1213093   2.819   3.335   2.124
  124OSM    C1S13094   2.655   3.443   2.331
  124OSM    H1S13095   2.760   3.478   2.336
  124OSM    H1T13096   2.662   3.334   2.349
  124OSM     NF13097   2.643   3.520   2.565
  124OSM    HNF13098   2.602   3.465   2.637
  124OSM    C2S13099   2.574   3.534   2.437
  124OSM    H2S13100   2.586   3.634   2.389
  124OSM    C3S13101   2.427   3.500   2.432
  124OSM    H3S13102   2.431   3.390   2.450
  124OSM     O313103   2.373   3.511   2.300
  124OSM    HO313104   2.448   3.520   2.242
  124OSM    C4S13105   2.349   3.568   2.547
  124OSM    H4S13106   2.307   3.490   2.612
  124OSM    C5S13107   2.308   3.701   2.553
  124OSM    H5S13108   2.358   3.758   2.474
  124OSM    C6S13109   2.201   3.764   2.641
  124OSM    H6S13110   2.139   3.829   2.575
  124OSM    H6T13111   2.250   3.815   2.727
  124OSM    C7S13112   2.096   3.660   2.689
  124OSM    H7S13113   2.085   3.575   2.620
  124OSM    H7T13114   1.997   3.710   2.681
  124OSM    C8S13115   2.115   3.615   2.830
  124OSM    H8S13116   2.105   3.699   2.901
  124OSM    H8T13117   2.219   3.576   2.831
  124OSM    C9S13118   2.020   3.499   2.867
  124OSM    H9S13119   2.030   3.414   2.796
  124OSM    H9T13120   1.912   3.524   2.869
  124OSM   C10S13121   2.053   3.449   3.017
  124OSM   H10S13122   2.164   3.449   3.025
  124OSM   H10T13123   2.015   3.348   3.044
  124OSM   C11S13124   1.984   3.537   3.124
  124OSM   H11S13125   1.874   3.522   3.117
  124OSM   H11T13126   2.004   3.645   3.107
  124OSM   C12S13127   2.018   3.498   3.267
  124OSM   H12S13128   2.127   3.513   3.280
  124OSM   H12T13129   1.998   3.390   3.286
  124OSM   C13S13130   1.935   3.568   3.370
  124OSM   H13S13131   1.832   3.530   3.353
  124OSM   H13T13132   1.932   3.678   3.350
  124OSM   C14S13133   1.966   3.569   3.518
  124OSM   H14S13134   1.883   3.609   3.580
  124OSM   H14T13135   2.053   3.632   3.543
  124OSM   C15S13136   2.010   3.439   3.566
  124OSM   H15S13137   2.103   3.405   3.516
  124OSM   H15T13138   1.932   3.368   3.531
  124OSM   C16S13139   2.019   3.429   3.717
  124OSM   H16S13140   1.915   3.449   3.751
  124OSM   H16T13141   2.084   3.516   3.745
  124OSM   C17S13142   2.064   3.298   3.764
  124OSM   H17S13143   2.154   3.258   3.714
  124OSM   H17T13144   1.977   3.230   3.752
  124OSM   C18S13145   2.080   3.312   3.915
  124OSM   H18S13146   2.125   3.217   3.951
  124OSM   H18T13147   1.988   3.331   3.975
  124OSM   H18U13148   2.147   3.398   3.935
  124OSM    C1F13149   2.769   3.553   2.583
  124OSM     OF13150   2.829   3.632   2.506
  124OSM    C2F13151   2.828   3.498   2.706
  124OSM    H2F13152   2.936   3.513   2.686
  124OSM    H2G13153   2.801   3.392   2.724
  124OSM    C3F13154   2.809   3.572   2.832
  124OSM    H3F13155   2.707   3.567   2.875
  124OSM    H3G13156   2.832   3.680   2.821
  124OSM    C4F13157   2.910   3.529   2.941
  124OSM    H4F13158   3.003   3.545   2.884
  124OSM    H4G13159   2.890   3.427   2.983
  124OSM    C5F13160   2.903   3.620   3.071
  124OSM    H5F13161   2.877   3.724   3.042
  124OSM    H5G13162   3.005   3.620   3.115
  124OSM    C6F13163   2.808   3.552   3.174
  124OSM    H6F13164   2.844   3.448   3.189
  124OSM    H6G13165   2.701   3.556   3.144
  124OSM    C7F13166   2.830   3.619   3.307
  124OSM    H7F13167   2.792   3.723   3.309
  124OSM    H7G13168   2.937   3.644   3.326
  124OSM    C8F13169   2.755   3.558   3.423
  124OSM    H8F13170   2.649   3.555   3.392
  124OSM    H8G13171   2.747   3.626   3.511
  124OSM    C9F13172   2.799   3.423   3.462
  124OSM    H9F13173   2.758   3.343   3.398
  124OSM   C10F13174   2.858   3.404   3.572
  124OSM   H10F13175   2.903   3.305   3.587
  124OSM   C11F13176   2.913   3.505   3.676
  124OSM   H11F13177   2.823   3.558   3.714
  124OSM   H11G13178   2.981   3.581   3.632
  124OSM   C12F13179   2.986   3.444   3.797
  124OSM   H12F13180   3.089   3.409   3.773
  124OSM   H12G13181   2.930   3.352   3.825
  124OSM   C13F13182   2.996   3.531   3.920
  124OSM   H13F13183   3.073   3.493   3.991
  124OSM   H13G13184   2.896   3.533   3.968
  124OSM   C14F13185   3.024   3.683   3.895
  124OSM   H14F13186   2.930   3.734   3.865
  124OSM   H14G13187   3.109   3.705   3.827
  124OSM   C15F13188   3.065   3.749   4.035
  124OSM   H15F13189   3.010   3.692   4.113
  124OSM   H15G13190   3.014   3.847   4.019
  124OSM   C16F13191   3.210   3.747   4.060
  124OSM   H16F13192   3.241   3.852   4.044
  124OSM   H16G13193   3.271   3.685   3.990
  124OSM   C17F13194   3.249   3.691   4.205
  124OSM   H17F13195   3.359   3.683   4.199
  124OSM   H17G13196   3.207   3.590   4.221
  124OSM   C18F13197   3.203   3.787   4.311
  124OSM   H18F13198   3.233   3.894   4.304
  124OSM   H18G13199   3.228   3.756   4.415
  124OSM   H18H13200   3.093   3.795   4.307
  125OSM      N13201   4.372   6.452   1.966
  125OSM    C1513202   4.319   6.318   2.016
  125OSM   H15A13203   4.387   6.283   2.092
  125OSM   H15B13204   4.307   6.244   1.938
  125OSM   H15C13205   4.220   6.330   2.058
  125OSM    C1413206   4.513   6.432   1.913
  125OSM   H14A13207   4.514   6.345   1.849
  125OSM   H14B13208   4.582   6.420   1.995
  125OSM   H14C13209   4.544   6.514   1.850
  125OSM    C1313210   4.286   6.500   1.865
  125OSM   H13A13211   4.330   6.588   1.821
  125OSM   H13B13212   4.191   6.521   1.912
  125OSM   H13C13213   4.285   6.428   1.784
  125OSM    C1213214   4.374   6.554   2.083
  125OSM   H12A13215   4.403   6.651   2.046
  125OSM   H12B13216   4.454   6.520   2.147
  125OSM    C1113217   4.243   6.568   2.168
  125OSM   H11A13218   4.264   6.643   2.247
  125OSM   H11B13219   4.228   6.476   2.228
  125OSM      P13220   4.085   6.759   2.072
  125OSM    O1313221   4.168   0.004   1.964
  125OSM    O1413222   3.940   6.772   2.036
  125OSM    O1113223   4.113   0.006   2.212
  125OSM    O1213224   4.121   6.602   2.094
  125OSM    C1S13225   4.003   0.019   2.301
  125OSM    H1S13226   3.937   6.745   2.293
  125OSM    H1T13227   3.952   0.113   2.269
  125OSM     NF13228   3.977   6.784   2.545
  125OSM    HNF13229   3.920   0.028   2.601
  125OSM    C2S13230   4.061   0.033   2.444
  125OSM    H2S13231   4.158   6.795   2.455
  125OSM    C3S13232   4.099   0.178   2.484
  125OSM    H3S13233   4.012   0.246   2.471
  125OSM     O313234   4.187   0.239   2.393
  125OSM    HO313235   4.135   0.218   2.315
  125OSM    C4S13236   4.155   0.181   2.619
  125OSM    H4S13237   4.237   0.109   2.633
  125OSM    C5S13238   4.102   0.253   2.718
  125OSM    H5S13239   4.013   0.313   2.698
  125OSM    C6S13240   4.167   0.268   2.851
  125OSM    H6S13241   4.161   0.374   2.882
  125OSM    H6T13242   4.278   0.261   2.850
  125OSM    C7S13243   4.111   0.165   2.953
  125OSM    H7S13244   4.138   0.064   2.915
  125OSM    H7T13245   4.001   0.175   2.955
  125OSM    C8S13246   4.161   0.189   3.094
  125OSM    H8S13247   4.136   0.293   3.122
  125OSM    H8T13248   4.271   0.171   3.092
  125OSM    C9S13249   4.099   0.099   3.197
  125OSM    H9S13250   4.151   0.002   3.205
  125OSM    H9T13251   3.991   0.079   3.183
  125OSM   C10S13252   4.110   0.160   3.336
  125OSM   H10S13253   4.069   0.263   3.343
  125OSM   H10T13254   4.218   0.171   3.358
  125OSM   C11S13255   4.056   0.061   3.452
  125OSM   H11S13256   4.104   6.776   3.442
  125OSM   H11T13257   3.947   0.043   3.443
  125OSM   C12S13258   4.097   0.114   3.593
  125OSM   H12S13259   4.074   0.223   3.593
  125OSM   H12T13260   4.206   0.098   3.607
  125OSM   C13S13261   4.027   0.038   3.707
  125OSM   H13S13262   4.078   6.755   3.721
  125OSM   H13T13263   3.921   0.033   3.675
  125OSM   C14S13264   4.058   0.112   3.836
  125OSM   H14S13265   3.994   0.203   3.833
  125OSM   H14T13266   4.166   0.139   3.837
  125OSM   C15S13267   4.031   0.027   3.957
  125OSM   H15S13268   4.096   6.752   3.967
  125OSM   H15T13269   3.926   6.805   3.953
  125OSM   C16S13270   4.054   0.096   4.097
  125OSM   H16S13271   4.032   0.021   4.176
  125OSM   H16T13272   3.994   0.189   4.104
  125OSM   C17S13273   4.206   0.129   4.115
  125OSM   H17S13274   4.233   0.200   4.033
  125OSM   H17T13275   4.259   0.031   4.115
  125OSM   C18S13276   4.238   0.213   4.238
  125OSM   H18S13277   4.152   0.283   4.247
  125OSM   H18T13278   4.335   0.267   4.227
  125OSM   H18U13279   4.241   0.144   4.325
  125OSM    C1F13280   3.976   6.652   2.558
  125OSM     OF13281   4.034   6.574   2.482
  125OSM    C2F13282   3.906   6.604   2.683
  125OSM    H2F13283   3.876   6.499   2.662
  125OSM    H2G13284   3.817   6.668   2.702
  125OSM    C3F13285   4.009   6.601   2.797
  125OSM    H3F13286   4.048   6.704   2.812
  125OSM    H3G13287   4.090   6.533   2.764
  125OSM    C4F13288   3.963   6.540   2.934
  125OSM    H4F13289   3.917   6.441   2.911
  125OSM    H4G13290   3.886   6.608   2.977
  125OSM    C5F13291   4.074   6.531   3.031
  125OSM    H5F13292   4.091   6.638   3.056
  125OSM    H5G13293   4.166   6.481   2.996
  125OSM    C6F13294   4.017   6.458   3.158
  125OSM    H6F13295   3.986   6.356   3.130
  125OSM    H6G13296   3.926   6.514   3.187
  125OSM    C7F13297   4.111   6.464   3.280
  125OSM    H7F13298   4.103   6.565   3.326
  125OSM    H7G13299   4.215   6.452   3.243
  125OSM    C8F13300   4.092   6.349   3.376
  125OSM    H8F13301   4.074   6.256   3.318
  125OSM    H8G13302   3.995   6.366   3.427
  125OSM    C9F13303   4.202   6.340   3.480
  125OSM    H9F13304   4.300   6.302   3.446
  125OSM   C10F13305   4.201   6.380   3.608
  125OSM   H10F13306   4.293   6.351   3.662
  125OSM   C11F13307   4.101   6.438   3.696
  125OSM   H11F13308   4.005   6.439   3.641
  125OSM   H11G13309   4.129   6.542   3.726
  125OSM   C12F13310   4.086   6.352   3.814
  125OSM   H12F13311   4.179   6.360   3.875
  125OSM   H12G13312   4.079   6.245   3.784
  125OSM   C13F13313   3.971   6.397   3.908
  125OSM   H13F13314   3.884   6.360   3.849
  125OSM   H13G13315   3.964   6.508   3.908
  125OSM   C14F13316   3.980   6.338   4.052
  125OSM   H14F13317   3.979   6.227   4.049
  125OSM   H14G13318   3.893   6.363   4.116
  125OSM   C15F13319   4.119   6.378   4.112
  125OSM   H15F13320   4.144   6.485   4.091
  125OSM   H15G13321   4.194   6.309   4.070
  125OSM   C16F13322   4.138   6.380   4.273
  125OSM   H16F13323   4.079   6.469   4.306
  125OSM   H16G13324   4.245   6.403   4.293
  125OSM   C17F13325   4.068   6.259   4.336
  125OSM   H17F13326   4.139   6.174   4.328
  125OSM   H17G13327   3.972   6.236   4.284
  125OSM   C18F13328   4.049   6.285   4.484
  125OSM   H18F13329   4.127   6.347   4.532
  125OSM   H18G13330   4.034   6.190   4.538
  125OSM   H18H13331   3.954   6.344   4.484
  126OSM      N13332   2.929   1.526   2.286
  126OSM    C1513333   3.059   1.465   2.326
  126OSM   H15A13334   3.096   1.481   2.426
  126OSM   H15B13335   3.146   1.508   2.277
  126OSM   H15C13336   3.058   1.357   2.315
  126OSM    C1413337   2.816   1.492   2.379
  126OSM   H14A13338   2.737   1.563   2.362
  126OSM   H14B13339   2.855   1.509   2.478
  126OSM   H14C13340   2.783   1.390   2.365
  126OSM    C1313341   2.943   1.676   2.299
  126OSM   H13A13342   3.042   1.700   2.263
  126OSM   H13B13343   2.940   1.696   2.405
  126OSM   H13C13344   2.866   1.719   2.236
  126OSM    C1213345   2.896   1.491   2.141
  126OSM   H12A13346   2.942   1.561   2.072
  126OSM   H12B13347   2.789   1.502   2.135
  126OSM    C1113348   2.933   1.345   2.101
  126OSM   H11A13349   3.043   1.330   2.099
  126OSM   H11B13350   2.887   1.324   2.003
  126OSM      P13351   2.871   1.098   2.187
  126OSM    O1313352   2.762   1.053   2.091
  126OSM    O1413353   3.006   1.047   2.162
  126OSM    O1113354   2.823   1.059   2.338
  126OSM    O1213355   2.869   1.252   2.189
  126OSM    C1S13356   2.914   1.084   2.447
  126OSM    H1S13357   2.912   1.192   2.469
  126OSM    H1T13358   3.020   1.061   2.422
  126OSM     NF13359   2.929   1.058   2.686
  126OSM    HNF13360   3.022   1.031   2.708
  126OSM    C2S13361   2.870   0.999   2.564
  126OSM    H2S13362   2.759   1.010   2.567
  126OSM    C3S13363   2.896   0.840   2.541
  126OSM    H3S13364   3.006   0.828   2.527
  126OSM     O313365   2.836   0.789   2.421
  126OSM    HO313366   2.816   0.859   2.359
  126OSM    C4S13367   2.844   0.759   2.673
  126OSM    H4S13368   2.932   0.749   2.739
  126OSM    C5S13369   2.722   0.714   2.701
  126OSM    H5S13370   2.649   0.720   2.620
  126OSM    C6S13371   2.687   0.636   2.825
  126OSM    H6S13372   2.693   0.526   2.812
  126OSM    H6T13373   2.585   0.658   2.863
  126OSM    C7S13374   2.795   0.669   2.935
  126OSM    H7S13375   2.794   0.777   2.961
  126OSM    H7T13376   2.895   0.643   2.895
  126OSM    C8S13377   2.779   0.581   3.061
  126OSM    H8S13378   2.747   0.477   3.040
  126OSM    H8T13379   2.691   0.617   3.119
  126OSM    C9S13380   2.912   0.575   3.147
  126OSM    H9S13381   2.997   0.541   3.085
  126OSM    H9T13382   2.890   0.494   3.220
  126OSM   C10S13383   2.934   0.697   3.237
  126OSM   H10S13384   2.833   0.719   3.280
  126OSM   H10T13385   2.962   0.783   3.172
  126OSM   C11S13386   3.022   0.666   3.362
  126OSM   H11S13387   3.108   0.639   3.298
  126OSM   H11T13388   2.985   0.571   3.407
  126OSM   C12S13389   3.047   0.782   3.448
  126OSM   H12S13390   3.075   0.875   3.392
  126OSM   H12T13391   3.136   0.761   3.511
  126OSM   C13S13392   2.931   0.828   3.540
  126OSM   H13S13393   2.846   0.840   3.470
  126OSM   H13T13394   2.954   0.926   3.589
  126OSM   C14S13395   2.899   0.739   3.658
  126OSM   H14S13396   2.987   0.732   3.725
  126OSM   H14T13397   2.868   0.635   3.637
  126OSM   C15S13398   2.780   0.809   3.732
  126OSM   H15S13399   2.707   0.833   3.652
  126OSM   H15T13400   2.823   0.900   3.780
  126OSM   C16S13401   2.712   0.713   3.828
  126OSM   H16S13402   2.784   0.683   3.907
  126OSM   H16T13403   2.693   0.617   3.775
  126OSM   C17S13404   2.594   0.778   3.893
  126OSM   H17S13405   2.528   0.829   3.821
  126OSM   H17T13406   2.631   0.865   3.951
  126OSM   C18S13407   2.518   0.690   3.992
  126OSM   H18S13408   2.582   0.621   4.051
  126OSM   H18T13409   2.442   0.636   3.933
  126OSM   H18U13410   2.462   0.748   4.069
  126OSM    C1F13411   2.889   1.175   2.742
  126OSM     OF13412   2.791   1.237   2.702
  126OSM    C2F13413   2.967   1.237   2.851
  126OSM    H2F13414   2.961   1.346   2.834
  126OSM    H2G13415   3.072   1.201   2.854
  126OSM    C3F13416   2.902   1.225   2.989
  126OSM    H3F13417   2.791   1.225   2.983
  126OSM    H3G13418   2.934   1.310   3.052
  126OSM    C4F13419   2.958   1.104   3.070
  126OSM    H4F13420   2.973   1.013   3.008
  126OSM    H4G13421   2.881   1.055   3.133
  126OSM    C5F13422   3.085   1.123   3.151
  126OSM    H5F13423   3.162   1.167   3.084
  126OSM    H5G13424   3.121   1.022   3.181
  126OSM    C6F13425   3.073   1.213   3.276
  126OSM    H6F13426   3.081   1.322   3.259
  126OSM    H6G13427   3.167   1.186   3.329
  126OSM    C7F13428   2.949   1.183   3.362
  126OSM    H7F13429   2.959   1.074   3.383
  126OSM    H7G13430   2.854   1.204   3.307
  126OSM    C8F13431   2.949   1.268   3.491
  126OSM    H8F13432   2.952   1.376   3.463
  126OSM    H8G13433   3.039   1.228   3.542
  126OSM    C9F13434   2.824   1.243   3.582
  126OSM    H9F13435   2.729   1.245   3.527
  126OSM   C10F13436   2.817   1.233   3.717
  126OSM   H10F13437   2.717   1.209   3.755
  126OSM   C11F13438   2.929   1.218   3.812
  126OSM   H11F13439   3.022   1.257   3.766
  126OSM   H11G13440   2.942   1.108   3.825
  126OSM   C12F13441   2.909   1.284   3.951
  126OSM   H12F13442   2.909   1.394   3.934
  126OSM   H12G13443   2.997   1.266   4.017
  126OSM   C13F13444   2.789   1.225   4.035
  126OSM   H13F13445   2.802   1.116   4.052
  126OSM   H13G13446   2.705   1.231   3.962
  126OSM   C14F13447   2.750   1.292   4.175
  126OSM   H14F13448   2.803   1.385   4.206
  126OSM   H14G13449   2.785   1.219   4.251
  126OSM   C15F13450   2.602   1.307   4.204
  126OSM   H15F13451   2.559   1.210   4.235
  126OSM   H15G13452   2.554   1.353   4.115
  126OSM   C16F13453   2.587   1.384   4.337
  126OSM   H16F13454   2.610   1.492   4.324
  126OSM   H16G13455   2.659   1.342   4.410
  126OSM   C17F13456   2.445   1.377   4.399
  126OSM   H17F13457   2.437   1.289   4.466
  126OSM   H17G13458   2.366   1.359   4.323
  126OSM   C18F13459   2.425   1.508   4.471
  126OSM   H18F13460   2.424   1.597   4.403
  126OSM   H18G13461   2.502   1.540   4.545
  126OSM   H18H13462   2.325   1.511   4.519
  127OSM      N13463   1.963   2.847   1.882
  127OSM    C1513464   2.027   2.728   1.823
  127OSM   H15A13465   1.993   2.643   1.880
  127OSM   H15B13466   2.135   2.721   1.833
  127OSM   H15C13467   1.994   2.711   1.721
  127OSM    C1413468   2.002   2.967   1.804
  127OSM   H14A13469   2.104   2.954   1.773
  127OSM   H14B13470   1.984   3.056   1.861
  127OSM   H14C13471   1.941   2.972   1.714
  127OSM    C1313472   1.820   2.837   1.865
  127OSM   H13A13473   1.786   2.747   1.914
  127OSM   H13B13474   1.789   2.823   1.762
  127OSM   H13C13475   1.767   2.920   1.908
  127OSM    C1213476   1.994   2.867   2.030
  127OSM   H12A13477   1.966   2.965   2.064
  127OSM   H12B13478   2.099   2.893   2.025
  127OSM    C1113479   1.968   2.761   2.137
  127OSM   H11A13480   1.871   2.712   2.110
  127OSM   H11B13481   1.978   2.812   2.235
  127OSM      P13482   2.204   2.632   2.174
  127OSM    O1313483   2.242   2.490   2.150
  127OSM    O1413484   2.293   2.729   2.112
  127OSM    O1113485   2.201   2.666   2.330
  127OSM    O1213486   2.061   2.648   2.124
  127OSM    C1S13487   2.099   2.604   2.414
  127OSM    H1S13488   2.118   2.495   2.420
  127OSM    H1T13489   1.995   2.624   2.380
  127OSM     NF13490   2.000   2.605   2.630
  127OSM    HNF13491   1.916   2.657   2.640
  127OSM    C2S13492   2.107   2.668   2.548
  127OSM    H2S13493   2.211   2.659   2.586
  127OSM    C3S13494   2.086   2.825   2.536
  127OSM    H3S13495   1.988   2.837   2.486
  127OSM     O313496   2.177   2.890   2.451
  127OSM    HO313497   2.222   2.818   2.407
  127OSM    C4S13498   2.092   2.891   2.668
  127OSM    H4S13499   2.187   2.885   2.724
  127OSM    C5S13500   1.999   2.974   2.718
  127OSM    H5S13501   1.908   2.981   2.656
  127OSM    C6S13502   2.015   3.024   2.858
  127OSM    H6S13503   1.985   3.131   2.860
  127OSM    H6T13504   2.122   3.008   2.883
  127OSM    C7S13505   1.929   2.954   2.961
  127OSM    H7S13506   1.950   2.846   2.955
  127OSM    H7T13507   1.820   2.970   2.945
  127OSM    C8S13508   1.970   2.998   3.100
  127OSM    H8S13509   1.957   3.107   3.114
  127OSM    H8T13510   2.080   2.988   3.106
  127OSM    C9S13511   1.903   2.908   3.209
  127OSM    H9S13512   1.932   2.802   3.191
  127OSM    H9T13513   1.792   2.910   3.205
  127OSM   C10S13514   1.946   2.946   3.358
  127OSM   H10S13515   1.930   3.056   3.362
  127OSM   H10T13516   2.054   2.926   3.374
  127OSM   C11S13517   1.861   2.885   3.472
  127OSM   H11S13518   1.888   2.779   3.492
  127OSM   H11T13519   1.752   2.872   3.453
  127OSM   C12S13520   1.879   2.966   3.601
  127OSM   H12S13521   1.831   3.067   3.600
  127OSM   H12T13522   1.985   2.995   3.619
  127OSM   C13S13523   1.823   2.895   3.722
  127OSM   H13S13524   1.873   2.795   3.723
  127OSM   H13T13525   1.719   2.858   3.710
  127OSM   C14S13526   1.867   2.963   3.843
  127OSM   H14S13527   1.831   3.068   3.839
  127OSM   H14T13528   1.977   2.945   3.848
  127OSM   C15S13529   1.817   2.904   3.977
  127OSM   H15S13530   1.874   2.818   4.020
  127OSM   H15T13531   1.719   2.866   3.940
  127OSM   C16S13532   1.804   3.011   4.090
  127OSM   H16S13533   1.781   3.112   4.049
  127OSM   H16T13534   1.905   3.026   4.134
  127OSM   C17S13535   1.701   2.982   4.201
  127OSM   H17S13536   1.610   2.947   4.147
  127OSM   H17T13537   1.674   3.072   4.261
  127OSM   C18S13538   1.753   2.884   4.314
  127OSM   H18S13539   1.844   2.917   4.370
  127OSM   H18T13540   1.788   2.792   4.264
  127OSM   H18U13541   1.686   2.874   4.402
  127OSM    C1F13542   2.025   2.486   2.675
  127OSM     OF13543   2.128   2.422   2.638
  127OSM    C2F13544   1.934   2.421   2.771
  127OSM    H2F13545   1.930   2.310   2.761
  127OSM    H2G13546   1.830   2.458   2.757
  127OSM    C3F13547   1.968   2.459   2.918
  127OSM    H3F13548   1.984   2.567   2.933
  127OSM    H3G13549   2.051   2.395   2.955
  127OSM    C4F13550   1.860   2.407   3.018
  127OSM    H4F13551   1.863   2.296   3.020
  127OSM    H4G13552   1.760   2.447   2.990
  127OSM    C5F13553   1.893   2.447   3.161
  127OSM    H5F13554   1.902   2.557   3.169
  127OSM    H5G13555   1.982   2.399   3.207
  127OSM    C6F13556   1.771   2.420   3.254
  127OSM    H6F13557   1.742   2.313   3.256
  127OSM    H6G13558   1.696   2.481   3.199
  127OSM    C7F13559   1.786   2.459   3.400
  127OSM    H7F13560   1.688   2.445   3.450
  127OSM    H7G13561   1.812   2.567   3.411
  127OSM    C8F13562   1.884   2.368   3.478
  127OSM    H8F13563   1.984   2.383   3.431
  127OSM    H8G13564   1.838   2.269   3.458
  127OSM    C9F13565   1.901   2.393   3.622
  127OSM    H9F13566   1.954   2.486   3.645
  127OSM   C10F13567   1.865   2.324   3.737
  127OSM   H10F13568   1.899   2.369   3.832
  127OSM   C11F13569   1.797   2.192   3.731
  127OSM   H11F13570   1.774   2.169   3.625
  127OSM   H11G13571   1.692   2.198   3.765
  127OSM   C12F13572   1.868   2.070   3.797
  127OSM   H12F13573   1.962   2.060   3.738
  127OSM   H12G13574   1.807   1.978   3.788
  127OSM   C13F13575   1.882   2.099   3.946
  127OSM   H13F13576   1.790   2.149   3.984
  127OSM   H13G13577   1.959   2.178   3.960
  127OSM   C14F13578   1.926   1.979   4.033
  127OSM   H14F13579   2.027   1.942   4.005
  127OSM   H14G13580   1.856   1.896   4.010
  127OSM   C15F13581   1.929   2.020   4.184
  127OSM   H15F13582   1.832   1.998   4.233
  127OSM   H15G13583   1.942   2.127   4.208
  127OSM   C16F13584   2.034   1.959   4.270
  127OSM   H16F13585   2.032   2.007   4.371
  127OSM   H16G13586   2.130   1.987   4.222
  127OSM   C17F13587   2.027   1.810   4.293
  127OSM   H17F13588   1.987   1.752   4.207
  127OSM   H17G13589   1.954   1.801   4.376
  127OSM   C18F13590   2.163   1.744   4.333
  127OSM   H18F13591   2.232   1.754   4.246
  127OSM   H18G13592   2.142   1.636   4.346
  127OSM   H18H13593   2.223   1.786   4.417
  128OSM      N13594   2.423   0.980   2.245
  128OSM    C1513595   2.429   1.119   2.219
  128OSM   H15A13596   2.504   1.144   2.145
  128OSM   H15B13597   2.425   1.185   2.304
  128OSM   H15C13598   2.337   1.134   2.164
  128OSM    C1413599   2.422   0.896   2.120
  128OSM   H14A13600   2.503   0.918   2.053
  128OSM   H14B13601   2.329   0.893   2.066
  128OSM   H14C13602   2.443   0.794   2.150
  128OSM    C1313603   2.542   0.945   2.335
  128OSM   H13A13604   2.526   0.847   2.379
  128OSM   H13B13605   2.552   1.024   2.408
  128OSM   H13C13606   2.627   0.952   2.270
  128OSM    C1213607   2.300   0.938   2.326
  128OSM   H12A13608   2.306   1.001   2.414
  128OSM   H12B13609   2.315   0.838   2.364
  128OSM    C1113610   2.162   0.950   2.250
  128OSM   H11A13611   2.155   1.038   2.183
  128OSM   H11B13612   2.078   0.971   2.319
  128OSM      P13613   2.078   0.700   2.223
  128OSM    O1313614   2.012   0.625   2.116
  128OSM    O1413615   2.168   0.619   2.301
  128OSM    O1113616   1.964   0.742   2.316
  128OSM    O1213617   2.143   0.834   2.168
  128OSM    C1S13618   1.888   0.674   2.416
  128OSM    H1S13619   1.946   0.590   2.460
  128OSM    H1T13620   1.803   0.618   2.373
  128OSM     NF13621   1.786   0.710   2.642
  128OSM    HNF13622   1.694   0.672   2.646
  128OSM    C2S13623   1.831   0.773   2.516
  128OSM    H2S13624   1.914   0.841   2.546
  128OSM    C3S13625   1.720   0.854   2.438
  128OSM    H3S13626   1.643   0.774   2.434
  128OSM     O313627   1.744   0.863   2.295
  128OSM    HO313628   1.819   0.804   2.285
  128OSM    C4S13629   1.667   0.982   2.502
  128OSM    H4S13630   1.594   0.960   2.582
  128OSM    C5S13631   1.690   1.113   2.474
  128OSM    H5S13632   1.763   1.125   2.392
  128OSM    C6S13633   1.619   1.232   2.543
  128OSM    H6S13634   1.556   1.270   2.460
  128OSM    H6T13635   1.695   1.308   2.572
  128OSM    C7S13636   1.523   1.196   2.662
  128OSM    H7S13637   1.449   1.116   2.638
  128OSM    H7T13638   1.464   1.288   2.679
  128OSM    C8S13639   1.602   1.162   2.793
  128OSM    H8S13640   1.656   1.252   2.829
  128OSM    H8T13641   1.686   1.091   2.779
  128OSM    C9S13642   1.525   1.116   2.917
  128OSM    H9S13643   1.453   1.035   2.892
  128OSM    H9T13644   1.463   1.198   2.957
  128OSM   C10S13645   1.616   1.062   3.029
  128OSM   H10S13646   1.675   1.145   3.073
  128OSM   H10T13647   1.675   0.983   2.977
  128OSM   C11S13648   1.524   0.996   3.130
  128OSM   H11S13649   1.462   0.922   3.075
  128OSM   H11T13650   1.451   1.070   3.171
  128OSM   C12S13651   1.599   0.928   3.246
  128OSM   H12S13652   1.662   0.857   3.188
  128OSM   H12T13653   1.535   0.860   3.305
  128OSM   C13S13654   1.670   1.032   3.334
  128OSM   H13S13655   1.589   1.103   3.362
  128OSM   H13T13656   1.738   1.098   3.276
  128OSM   C14S13657   1.746   0.976   3.457
  128OSM   H14S13658   1.819   0.900   3.422
  128OSM   H14T13659   1.685   0.917   3.530
  128OSM   C15S13660   1.826   1.076   3.541
  128OSM   H15S13661   1.911   1.117   3.482
  128OSM   H15T13662   1.855   1.024   3.635
  128OSM   C16S13663   1.748   1.203   3.582
  128OSM   H16S13664   1.642   1.197   3.615
  128OSM   H16T13665   1.754   1.270   3.494
  128OSM   C17S13666   1.827   1.272   3.699
  128OSM   H17S13667   1.800   1.380   3.701
  128OSM   H17T13668   1.938   1.272   3.688
  128OSM   C18S13669   1.794   1.221   3.838
  128OSM   H18S13670   1.813   1.112   3.837
  128OSM   H18T13671   1.688   1.245   3.860
  128OSM   H18U13672   1.864   1.275   3.905
  128OSM    C1F13673   1.885   0.683   2.731
  128OSM     OF13674   1.997   0.715   2.705
  128OSM    C2F13675   1.855   0.622   2.864
  128OSM    H2F13676   1.745   0.627   2.882
  128OSM    H2G13677   1.891   0.693   2.942
  128OSM    C3F13678   1.919   0.484   2.883
  128OSM    H3F13679   2.028   0.492   2.868
  128OSM    H3G13680   1.889   0.413   2.803
  128OSM    C4F13681   1.907   0.431   3.025
  128OSM    H4F13682   1.802   0.438   3.060
  128OSM    H4G13683   1.976   0.488   3.090
  128OSM    C5F13684   1.948   0.280   3.050
  128OSM    H5F13685   2.038   0.258   2.989
  128OSM    H5G13686   1.871   0.210   3.011
  128OSM    C6F13687   1.971   0.250   3.199
  128OSM    H6F13688   2.054   0.313   3.236
  128OSM    H6G13689   2.000   0.142   3.198
  128OSM    C7F13690   1.842   0.251   3.281
  128OSM    H7F13691   1.774   0.163   3.271
  128OSM    H7G13692   1.783   0.341   3.256
  128OSM    C8F13693   1.866   0.260   3.435
  128OSM    H8F13694   1.776   0.269   3.499
  128OSM    H8G13695   1.918   0.356   3.452
  128OSM    C9F13696   1.952   0.157   3.496
  128OSM    H9F13697   1.966   0.065   3.437
  128OSM   C10F13698   2.004   0.163   3.622
  128OSM   H10F13699   2.059   0.075   3.659
  128OSM   C11F13700   2.010   0.270   3.725
  128OSM   H11F13701   1.938   0.351   3.701
  128OSM   H11G13702   2.105   0.325   3.709
  128OSM   C12F13703   1.992   0.218   3.868
  128OSM   H12F13704   1.916   0.137   3.870
  128OSM   H12G13705   1.962   0.302   3.935
  128OSM   C13F13706   2.117   0.144   3.930
  128OSM   H13F13707   2.209   0.205   3.918
  128OSM   H13G13708   2.133   0.053   3.869
  128OSM   C14F13709   2.088   0.107   4.073
  128OSM   H14F13710   1.986   0.065   4.076
  128OSM   H14G13711   2.090   0.202   4.132
  128OSM   C15F13712   2.183   0.007   4.137
  128OSM   H15F13713   2.286   0.031   4.104
  128OSM   H15G13714   2.165   6.718   4.101
  128OSM   C16F13715   2.187   0.003   4.292
  128OSM   H16F13716   2.090   6.771   4.321
  128OSM   H16G13717   2.183   0.102   4.342
  128OSM   C17F13718   2.295   6.731   4.343
  128OSM   H17F13719   2.332   6.768   4.441
  128OSM   H17G13720   2.378   6.754   4.272
  128OSM   C18F13721   2.268   6.583   4.359
  128OSM   H18F13722   2.254   6.545   4.255
  128OSM   H18G13723   2.190   6.557   4.433
  128OSM   H18H13724   2.358   6.539   4.407
  129OSM      N13725   4.115   0.414   1.874
  129OSM    C1513726   3.979   0.397   1.821
  129OSM   H15A13727   3.929   0.333   1.892
  129OSM   H15B13728   3.994   0.358   1.721
  129OSM   H15C13729   3.923   0.488   1.809
  129OSM    C1413730   4.185   0.283   1.881
  129OSM   H14A13731   4.203   0.243   1.782
  129OSM   H14B13732   4.121   0.212   1.932
  129OSM   H14C13733   4.278   0.301   1.932
  129OSM    C1313734   4.197   0.500   1.781
  129OSM   H13A13735   4.153   0.599   1.772
  129OSM   H13B13736   4.197   0.454   1.683
  129OSM   H13C13737   4.300   0.496   1.811
  129OSM    C1213738   4.120   0.477   2.013
  129OSM   H12A13739   4.088   0.580   2.012
  129OSM   H12B13740   4.222   0.477   2.050
  129OSM    C1113741   4.042   0.402   2.130
  129OSM   H11A13742   4.057   0.464   2.221
  129OSM   H11B13743   4.086   0.301   2.147
  129OSM      P13744   3.807   0.513   2.136
  129OSM    O1313745   3.875   0.627   2.074
  129OSM    O1413746   3.670   0.483   2.090
  129OSM    O1113747   3.812   0.525   2.300
  129OSM    O1213748   3.902   0.388   2.111
  129OSM    C1S13749   3.739   0.432   2.376
  129OSM    H1S13750   3.774   0.330   2.349
  129OSM    H1T13751   3.629   0.447   2.367
  129OSM     NF13752   3.700   0.356   2.620
  129OSM    HNF13753   3.632   0.394   2.682
  129OSM    C2S13754   3.779   0.447   2.530
  129OSM    H2S13755   3.887   0.423   2.539
  129OSM    C3S13756   3.773   0.593   2.574
  129OSM    H3S13757   3.666   0.621   2.571
  129OSM     O313758   3.856   0.684   2.500
  129OSM    HO313759   3.855   0.642   2.414
  129OSM    C4S13760   3.818   0.604   2.719
  129OSM    H4S13761   3.732   0.607   2.788
  129OSM    C5S13762   3.943   0.610   2.774
  129OSM    H5S13763   4.032   0.610   2.709
  129OSM    C6S13764   3.972   0.616   2.919
  129OSM    H6S13765   4.003   0.722   2.927
  129OSM    H6T13766   4.056   0.549   2.945
  129OSM    C7S13767   3.854   0.577   3.015
  129OSM    H7S13768   3.818   0.477   2.981
  129OSM    H7T13769   3.779   0.657   3.004
  129OSM    C8S13770   3.900   0.547   3.151
  129OSM    H8S13771   3.925   0.639   3.208
  129OSM    H8T13772   3.989   0.481   3.150
  129OSM    C9S13773   3.787   0.483   3.230
  129OSM    H9S13774   3.764   0.380   3.194
  129OSM    H9T13775   3.696   0.545   3.219
  129OSM   C10S13776   3.820   0.490   3.382
  129OSM   H10S13777   3.819   0.595   3.419
  129OSM   H10T13778   3.923   0.448   3.390
  129OSM   C11S13779   3.715   0.415   3.459
  129OSM   H11S13780   3.613   0.421   3.415
  129OSM   H11T13781   3.703   0.468   3.556
  129OSM   C12S13782   3.757   0.274   3.483
  129OSM   H12S13783   3.856   0.288   3.532
  129OSM   H12T13784   3.773   0.233   3.381
  129OSM   C13S13785   3.672   0.190   3.577
  129OSM   H13S13786   3.728   0.095   3.579
  129OSM   H13T13787   3.568   0.179   3.540
  129OSM   C14S13788   3.668   0.248   3.722
  129OSM   H14S13789   3.617   0.347   3.720
  129OSM   H14T13790   3.775   0.258   3.752
  129OSM   C15S13791   3.607   0.155   3.830
  129OSM   H15S13792   3.676   0.068   3.826
  129OSM   H15T13793   3.507   0.109   3.811
  129OSM   C16S13794   3.598   0.222   3.963
  129OSM   H16S13795   3.519   0.300   3.952
  129OSM   H16T13796   3.689   0.280   3.993
  129OSM   C17S13797   3.549   0.132   4.074
  129OSM   H17S13798   3.619   0.048   4.095
  129OSM   H17T13799   3.455   0.094   4.027
  129OSM   C18S13800   3.515   0.215   4.193
  129OSM   H18S13801   3.428   0.281   4.173
  129OSM   H18T13802   3.597   0.286   4.216
  129OSM   H18U13803   3.488   0.151   4.280
  129OSM    C1F13804   3.701   0.224   2.605
  129OSM     OF13805   3.768   0.169   2.515
  129OSM    C2F13806   3.632   0.148   2.709
  129OSM    H2F13807   3.601   0.051   2.665
  129OSM    H2G13808   3.544   0.197   2.756
  129OSM    C3F13809   3.731   0.119   2.823
  129OSM    H3F13810   3.779   0.208   2.868
  129OSM    H3G13811   3.814   0.052   2.792
  129OSM    C4F13812   3.651   0.061   2.935
  129OSM    H4F13813   3.614   6.774   2.910
  129OSM    H4G13814   3.558   0.118   2.959
  129OSM    C5F13815   3.729   0.050   3.060
  129OSM    H5F13816   3.761   0.148   3.101
  129OSM    H5G13817   3.826   0.000   3.039
  129OSM    C6F13818   3.651   6.782   3.161
  129OSM    H6F13819   3.602   6.695   3.113
  129OSM    H6G13820   3.554   0.017   3.183
  129OSM    C7F13821   3.717   6.736   3.290
  129OSM    H7F13822   3.731   0.005   3.363
  129OSM    H7G13823   3.818   6.696   3.263
  129OSM    C8F13824   3.634   6.635   3.367
  129OSM    H8F13825   3.612   6.553   3.295
  129OSM    H8G13826   3.540   6.692   3.384
  129OSM    C9F13827   3.705   6.595   3.494
  129OSM    H9F13828   3.811   6.569   3.476
  129OSM   C10F13829   3.664   6.588   3.621
  129OSM   H10F13830   3.736   6.561   3.699
  129OSM   C11F13831   3.520   6.617   3.659
  129OSM   H11F13832   3.452   6.541   3.614
  129OSM   H11G13833   3.488   6.722   3.639
  129OSM   C12F13834   3.526   6.613   3.810
  129OSM   H12F13835   3.424   6.646   3.841
  129OSM   H12G13836   3.588   6.681   3.872
  129OSM   C13F13837   3.530   6.468   3.868
  129OSM   H13F13838   3.634   6.429   3.874
  129OSM   H13G13839   3.479   6.399   3.798
  129OSM   C14F13840   3.475   6.446   4.014
  129OSM   H14F13841   3.484   6.338   4.035
  129OSM   H14G13842   3.370   6.480   4.007
  129OSM   C15F13843   3.552   6.515   4.130
  129OSM   H15F13844   3.560   6.620   4.096
  129OSM   H15G13845   3.658   6.481   4.130
  129OSM   C16F13846   3.490   6.483   4.270
  129OSM   H16F13847   3.492   6.373   4.287
  129OSM   H16G13848   3.386   6.519   4.275
  129OSM   C17F13849   3.577   6.556   4.379
  129OSM   H17F13850   3.673   6.499   4.373
  129OSM   H17G13851   3.529   6.531   4.476
  129OSM   C18F13852   3.586   6.705   4.361
  129OSM   H18F13853   3.493   6.740   4.311
  129OSM   H18G13854   3.672   6.740   4.301
  129OSM   H18H13855   3.572   6.756   4.459
  130OSM      N13856   3.628   4.100   1.697
  130OSM    C1513857   3.691   3.969   1.667
  130OSM   H15A13858   3.636   3.914   1.592
  130OSM   H15B13859   3.687   3.902   1.752
  130OSM   H15C13860   3.797   3.983   1.657
  130OSM    C1413861   3.732   4.185   1.765
  130OSM   H14A13862   3.752   4.137   1.860
  130OSM   H14B13863   3.691   4.282   1.790
  130OSM   H14C13864   3.826   4.196   1.712
  130OSM    C1313865   3.596   4.166   1.568
  130OSM   H13A13866   3.517   4.239   1.575
  130OSM   H13B13867   3.556   4.100   1.492
  130OSM   H13C13868   3.679   4.214   1.518
  130OSM    C1213869   3.506   4.081   1.778
  130OSM   H12A13870   3.433   4.021   1.725
  130OSM   H12B13871   3.459   4.176   1.796
  130OSM    C1113872   3.526   4.025   1.920
  130OSM   H11A13873   3.422   4.030   1.961
  130OSM   H11B13874   3.588   4.095   1.980
  130OSM      P13875   3.495   3.767   1.917
  130OSM    O1313876   3.379   3.794   1.831
  130OSM    O1413877   3.580   3.652   1.870
  130OSM    O1113878   3.449   3.745   2.064
  130OSM    O1213879   3.585   3.900   1.928
  130OSM    C1S13880   3.525   3.798   2.171
  130OSM    H1S13881   3.525   3.909   2.174
  130OSM    H1T13882   3.630   3.762   2.171
  130OSM     NF13883   3.529   3.819   2.419
  130OSM    HNF13884   3.582   3.761   2.480
  130OSM    C2S13885   3.465   3.748   2.311
  130OSM    H2S13886   3.360   3.781   2.297
  130OSM    C3S13887   3.454   3.592   2.331
  130OSM    H3S13888   3.553   3.558   2.370
  130OSM     O313889   3.442   3.526   2.207
  130OSM    HO313890   3.444   3.601   2.147
  130OSM    C4S13891   3.348   3.553   2.432
  130OSM    H4S13892   3.258   3.617   2.433
  130OSM    C5S13893   3.364   3.462   2.530
  130OSM    H5S13894   3.459   3.408   2.534
  130OSM    C6S13895   3.255   3.422   2.623
  130OSM    H6S13896   3.241   3.312   2.633
  130OSM    H6T13897   3.158   3.466   2.590
  130OSM    C7S13898   3.289   3.464   2.768
  130OSM    H7S13899   3.201   3.456   2.836
  130OSM    H7T13900   3.311   3.572   2.785
  130OSM    C8S13901   3.402   3.387   2.839
  130OSM    H8S13902   3.492   3.382   2.774
  130OSM    H8T13903   3.377   3.281   2.856
  130OSM    C9S13904   3.432   3.456   2.970
  130OSM    H9S13905   3.474   3.557   2.952
  130OSM    H9T13906   3.509   3.399   3.026
  130OSM   C10S13907   3.310   3.468   3.067
  130OSM   H10S13908   3.261   3.368   3.071
  130OSM   H10T13909   3.229   3.536   3.033
  130OSM   C11S13910   3.350   3.515   3.204
  130OSM   H11S13911   3.395   3.616   3.202
  130OSM   H11T13912   3.427   3.444   3.243
  130OSM   C12S13913   3.221   3.522   3.292
  130OSM   H12S13914   3.176   3.421   3.301
  130OSM   H12T13915   3.147   3.592   3.248
  130OSM   C13S13916   3.260   3.576   3.428
  130OSM   H13S13917   3.169   3.594   3.489
  130OSM   H13T13918   3.326   3.662   3.403
  130OSM   C14S13919   3.357   3.486   3.498
  130OSM   H14S13920   3.448   3.463   3.438
  130OSM   H14T13921   3.303   3.391   3.516
  130OSM   C15S13922   3.406   3.532   3.632
  130OSM   H15S13923   3.470   3.445   3.658
  130OSM   H15T13924   3.331   3.524   3.713
  130OSM   C16S13925   3.485   3.665   3.633
  130OSM   H16S13926   3.422   3.748   3.595
  130OSM   H16T13927   3.581   3.657   3.578
  130OSM   C17S13928   3.512   3.697   3.782
  130OSM   H17S13929   3.586   3.626   3.825
  130OSM   H17T13930   3.419   3.696   3.842
  130OSM   C18S13931   3.580   3.836   3.799
  130OSM   H18S13932   3.571   3.865   3.906
  130OSM   H18T13933   3.541   3.910   3.726
  130OSM   H18U13934   3.687   3.817   3.773
  130OSM    C1F13935   3.532   3.950   2.437
  130OSM     OF13936   3.467   4.029   2.374
  130OSM    C2F13937   3.633   4.006   2.537
  130OSM    H2F13938   3.680   4.097   2.495
  130OSM    H2G13939   3.712   3.930   2.556
  130OSM    C3F13940   3.576   4.057   2.674
  130OSM    H3F13941   3.542   3.964   2.724
  130OSM    H3G13942   3.491   4.123   2.648
  130OSM    C4F13943   3.673   4.143   2.756
  130OSM    H4F13944   3.693   4.231   2.691
  130OSM    H4G13945   3.762   4.079   2.775
  130OSM    C5F13946   3.630   4.184   2.897
  130OSM    H5F13947   3.626   4.092   2.958
  130OSM    H5G13948   3.523   4.212   2.885
  130OSM    C6F13949   3.708   4.295   2.969
  130OSM    H6F13950   3.706   4.385   2.904
  130OSM    H6G13951   3.814   4.263   2.981
  130OSM    C7F13952   3.658   4.328   3.110
  130OSM    H7F13953   3.669   4.231   3.163
  130OSM    H7G13954   3.551   4.358   3.106
  130OSM    C8F13955   3.731   4.432   3.189
  130OSM    H8F13956   3.839   4.406   3.180
  130OSM    H8G13957   3.700   4.410   3.294
  130OSM    C9F13958   3.718   4.581   3.165
  130OSM    H9F13959   3.778   4.624   3.083
  130OSM   C10F13960   3.652   4.668   3.234
  130OSM   H10F13961   3.647   4.772   3.199
  130OSM   C11F13962   3.559   4.637   3.354
  130OSM   H11F13963   3.489   4.554   3.332
  130OSM   H11G13964   3.478   4.714   3.355
  130OSM   C12F13965   3.624   4.658   3.490
  130OSM   H12F13966   3.657   4.764   3.494
  130OSM   H12G13967   3.713   4.592   3.499
  130OSM   C13F13968   3.540   4.632   3.614
  130OSM   H13F13969   3.521   4.522   3.614
  130OSM   H13G13970   3.443   4.687   3.611
  130OSM   C14F13971   3.598   4.668   3.754
  130OSM   H14F13972   3.623   4.775   3.742
  130OSM   H14G13973   3.696   4.616   3.760
  130OSM   C15F13974   3.497   4.640   3.866
  130OSM   H15F13975   3.487   4.532   3.890
  130OSM   H15G13976   3.401   4.676   3.823
  130OSM   C16F13977   3.526   4.723   3.991
  130OSM   H16F13978   3.528   4.828   3.955
  130OSM   H16G13979   3.630   4.700   4.023
  130OSM   C17F13980   3.427   4.719   4.108
  130OSM   H17F13981   3.422   4.611   4.136
  130OSM   H17G13982   3.322   4.749   4.085
  130OSM   C18F13983   3.475   4.795   4.230
  130OSM   H18F13984   3.471   4.905   4.215
  130OSM   H18G13985   3.575   4.757   4.260
  130OSM   H18H13986   3.402   4.769   4.310
  131OSM      N13987   0.429   0.478   2.359
  131OSM    C1513988   0.391   0.540   2.487
  131OSM   H15A13989   0.483   0.581   2.526
  131OSM   H15B13990   0.347   0.481   2.566
  131OSM   H15C13991   0.331   0.629   2.471
  131OSM    C1413992   0.302   0.401   2.323
  131OSM   H14A13993   0.270   0.336   2.403
  131OSM   H14B13994   0.327   0.333   2.244
  131OSM   H14C13995   0.222   0.466   2.290
  131OSM    C1313996   0.449   0.585   2.250
  131OSM   H13A13997   0.485   0.551   2.154
  131OSM   H13B13998   0.528   0.646   2.292
  131OSM   H13C13999   0.362   0.648   2.235
  131OSM    C1214000   0.548   0.390   2.367
  131OSM   H12A14001   0.557   0.342   2.270
  131OSM   H12B14002   0.512   0.306   2.424
  131OSM    C1114003   0.682   0.453   2.411
  131OSM   H11A14004   0.753   0.373   2.438
  131OSM   H11B14005   0.672   0.510   2.506
  131OSM      P14006   0.854   0.500   2.217
  131OSM    O1314007   0.845   0.358   2.184
  131OSM    O1414008   0.874   0.600   2.109
  131OSM    O1114009   0.991   0.511   2.310
  131OSM    O1214010   0.731   0.538   2.309
  131OSM    C1S14011   0.991   0.612   2.413
  131OSM    H1S14012   0.896   0.670   2.417
  131OSM    H1T14013   1.069   0.691   2.403
  131OSM     NF14014   1.024   0.663   2.660
  131OSM    HNF14015   1.101   0.649   2.722
  131OSM    C2S14016   1.009   0.556   2.553
  131OSM    H2S14017   0.925   0.488   2.580
  131OSM    C3S14018   1.123   0.448   2.568
  131OSM    H3S14019   1.216   0.508   2.564
  131OSM     O314020   1.136   0.359   2.462
  131OSM    HO314021   1.069   0.388   2.400
  131OSM    C4S14022   1.127   0.368   2.696
  131OSM    H4S14023   1.186   0.420   2.773
  131OSM    C5S14024   1.082   0.243   2.723
  131OSM    H5S14025   1.037   0.186   2.641
  131OSM    C6S14026   1.106   0.169   2.857
  131OSM    H6S14027   1.121   0.242   2.939
  131OSM    H6T14028   1.188   0.096   2.842
  131OSM    C7S14029   0.983   0.084   2.901
  131OSM    H7S14030   0.966   0.021   2.811
  131OSM    H7T14031   0.893   0.148   2.912
  131OSM    C8S14032   1.009   0.011   3.038
  131OSM    H8S14033   1.104   6.766   3.036
  131OSM    H8T14034   0.925   6.753   3.040
  131OSM    C9S14035   1.003   0.099   3.161
  131OSM    H9S14036   0.901   0.144   3.163
  131OSM    H9T14037   1.087   0.171   3.160
  131OSM   C10S14038   1.021   0.018   3.286
  131OSM   H10S14039   1.108   6.764   3.281
  131OSM   H10T14040   0.926   6.784   3.320
  131OSM   C11S14041   1.055   0.108   3.405
  131OSM   H11S14042   0.970   0.174   3.428
  131OSM   H11T14043   1.145   0.169   3.379
  131OSM   C12S14044   1.067   0.018   3.531
  131OSM   H12S14045   1.159   6.771   3.523
  131OSM   H12T14046   0.981   6.761   3.528
  131OSM   C13S14047   1.046   0.087   3.669
  131OSM   H13S14048   0.953   0.147   3.660
  131OSM   H13T14049   1.136   0.149   3.689
  131OSM   C14S14050   1.013   6.811   3.779
  131OSM   H14S14051   0.925   6.750   3.748
  131OSM   H14T14052   0.983   0.052   3.870
  131OSM   C15S14053   1.117   6.716   3.835
  131OSM   H15S14054   1.145   6.641   3.758
  131OSM   H15T14055   1.063   6.660   3.915
  131OSM   C16S14056   1.250   6.790   3.875
  131OSM   H16S14057   1.290   0.025   3.784
  131OSM   H16T14058   1.326   6.711   3.891
  131OSM   C17S14059   1.236   0.074   3.986
  131OSM   H17S14060   1.161   0.153   3.960
  131OSM   H17T14061   1.330   0.127   4.014
  131OSM   C18S14062   1.188   0.016   4.126
  131OSM   H18S14063   1.079   0.034   4.142
  131OSM   H18T14064   1.244   0.083   4.194
  131OSM   H18U14065   1.219   6.724   4.132
  131OSM    C1F14066   0.933   0.764   2.663
  131OSM     OF14067   0.821   0.741   2.623
  131OSM    C2F14068   0.972   0.890   2.722
  131OSM    H2F14069   1.044   0.933   2.649
  131OSM    H2G14070   1.027   0.862   2.815
  131OSM    C3F14071   0.867   0.988   2.759
  131OSM    H3F14072   0.806   0.950   2.844
  131OSM    H3G14073   0.800   0.983   2.670
  131OSM    C4F14074   0.926   1.128   2.781
  131OSM    H4F14075   0.846   1.202   2.804
  131OSM    H4G14076   0.982   1.152   2.689
  131OSM    C5F14077   1.035   1.133   2.889
  131OSM    H5F14078   1.070   1.237   2.899
  131OSM    H5G14079   1.119   1.063   2.871
  131OSM    C6F14080   0.988   1.108   3.036
  131OSM    H6F14081   0.969   0.999   3.032
  131OSM    H6G14082   0.891   1.162   3.040
  131OSM    C7F14083   1.089   1.158   3.139
  131OSM    H7F14084   1.093   1.268   3.124
  131OSM    H7G14085   1.191   1.115   3.132
  131OSM    C8F14086   1.032   1.138   3.283
  131OSM    H8F14087   0.931   1.185   3.277
  131OSM    H8G14088   1.104   1.205   3.336
  131OSM    C9F14089   1.022   0.992   3.332
  131OSM    H9F14090   0.924   0.948   3.310
  131OSM   C10F14091   1.113   0.928   3.399
  131OSM   H10F14092   1.089   0.826   3.433
  131OSM   C11F14093   1.243   0.989   3.441
  131OSM   H11F14094   1.253   1.099   3.425
  131OSM   H11G14095   1.320   0.948   3.372
  131OSM   C12F14096   1.282   0.946   3.585
  131OSM   H12F14097   1.378   0.993   3.616
  131OSM   H12G14098   1.296   0.837   3.602
  131OSM   C13F14099   1.181   0.995   3.699
  131OSM   H13F14100   1.080   0.965   3.662
  131OSM   H13G14101   1.185   1.106   3.705
  131OSM   C14F14102   1.210   0.936   3.839
  131OSM   H14F14103   1.231   0.828   3.822
  131OSM   H14G14104   1.119   0.948   3.902
  131OSM   C15F14105   1.332   1.003   3.911
  131OSM   H15F14106   1.283   1.046   4.001
  131OSM   H15G14107   1.385   1.077   3.848
  131OSM   C16F14108   1.431   0.907   3.957
  131OSM   H16F14109   1.472   0.854   3.868
  131OSM   H16G14110   1.384   0.836   4.029
  131OSM   C17F14111   1.546   0.963   4.041
  131OSM   H17F14112   1.512   0.977   4.146
  131OSM   H17G14113   1.559   1.063   3.995
  131OSM   C18F14114   1.671   0.874   4.029
  131OSM   H18F14115   1.667   0.791   4.104
  131OSM   H18G14116   1.763   0.934   4.046
  131OSM   H18H14117   1.676   0.843   3.923
  132OSM      N14118   5.893   6.677   2.316
  132OSM    C1514119   5.892   0.006   2.340
  132OSM   H15A14120   5.982   0.056   2.307
  132OSM   H15B14121   5.868   0.041   2.439
  132OSM   H15C14122   5.811   0.043   2.279
  132OSM    C1414123   5.767   6.606   2.354
  132OSM   H14A14124   5.729   6.652   2.444
  132OSM   H14B14125   5.766   6.499   2.369
  132OSM   H14C14126   5.690   6.605   2.279
  132OSM    C1314127   5.911   6.662   2.167
  132OSM   H13A14128   6.009   6.701   2.142
  132OSM   H13B14129   5.833   6.719   2.118
  132OSM   H13C14130   5.899   6.556   2.145
  132OSM    C1214131   6.007   6.612   2.386
  132OSM   H12A14132   6.097   6.631   2.329
  132OSM   H12B14133   5.998   6.505   2.376
  132OSM    C1114134   6.038   6.655   2.535
  132OSM   H11A14135   6.101   6.574   2.577
  132OSM   H11B14136   5.947   6.666   2.598
  132OSM      P14137   6.258   6.795   2.477
  132OSM    O1314138   6.294   6.679   2.389
  132OSM    O1414139   6.276   0.120   2.420
  132OSM    O1114140   6.338   6.791   2.610
  132OSM    O1214141   6.109   6.777   2.540
  132OSM    C1S14142   6.327   6.671   2.691
  132OSM    H1S14143   6.324   6.580   2.627
  132OSM    H1T14144   6.236   6.678   2.754
  132OSM     NF14145   6.440   6.516   2.858
  132OSM    HNF14146   6.383   6.521   2.939
  132OSM    C2S14147   6.454   6.645   2.789
  132OSM    H2S14148   6.549   6.639   2.730
  132OSM    C3S14149   6.464   6.778   2.877
  132OSM    H3S14150   6.365   6.797   2.924
  132OSM     O314151   6.490   0.078   2.804
  132OSM    HO314152   6.452   0.056   2.718
  132OSM    C4S14153   6.571   6.751   2.976
  132OSM    H4S14154   6.648   6.681   2.940
  132OSM    C5S14155   6.586   0.012   3.086
  132OSM    H5S14156   6.524   0.101   3.103
  132OSM    C6S14157   6.701   0.007   3.178
  132OSM    H6S14158   6.748   0.107   3.175
  132OSM    H6T14159   6.783   6.751   3.150
  132OSM    C7S14160   6.654   6.779   3.316
  132OSM    H7S14161   6.633   6.670   3.323
  132OSM    H7T14162   6.562   0.020   3.344
  132OSM    C8S14163   6.758   0.002   3.424
  132OSM    H8S14164   6.793   0.106   3.413
  132OSM    H8T14165   0.033   6.754   3.403
  132OSM    C9S14166   6.700   6.795   3.568
  132OSM    H9S14167   6.619   6.720   3.559
  132OSM    H9T14168   6.647   0.069   3.608
  132OSM   C10S14169   6.794   6.732   3.670
  132OSM   H10S14170   0.058   6.807   3.696
  132OSM   H10T14171   0.028   6.641   3.628
  132OSM   C11S14172   6.720   6.715   3.799
  132OSM   H11S14173   6.626   6.657   3.783
  132OSM   H11T14174   6.690   6.813   3.842
  132OSM   C12S14175   6.807   6.637   3.896
  132OSM   H12S14176   0.094   6.681   3.908
  132OSM   H12T14177   0.006   6.532   3.862
  132OSM   C13S14178   6.749   6.620   4.037
  132OSM   H13S14179   6.806   6.533   4.077
  132OSM   H13T14180   6.641   6.603   4.018
  132OSM   C14S14181   6.758   6.740   4.126
  132OSM   H14S14182   6.741   0.021   4.073
  132OSM   H14T14183   0.048   6.738   4.161
  132OSM   C15S14184   6.676   6.728   4.259
  132OSM   H15S14185   6.712   6.645   4.323
  132OSM   H15T14186   6.569   6.706   4.236
  132OSM   C16S14187   6.697   0.045   4.343
  132OSM   H16S14188   6.638   0.133   4.309
  132OSM   H16T14189   6.805   0.072   4.335
  132OSM   C17S14190   6.647   0.036   4.487
  132OSM   H17S14191   6.686   6.759   4.537
  132OSM   H17T14192   6.539   0.009   4.497
  132OSM   C18S14193   6.657   0.171   4.559
  132OSM   H18S14194   6.660   0.164   4.670
  132OSM   H18T14195   6.575   0.239   4.528
  132OSM   H18U14196   6.748   0.224   4.525
  132OSM    C1F14197   6.470   6.407   2.789
  132OSM     OF14198   6.495   6.407   2.673
  132OSM    C2F14199   6.449   6.279   2.866
  132OSM    H2F14200   6.406   6.211   2.790
  132OSM    H2G14201   6.375   6.296   2.947
  132OSM    C3F14202   6.584   6.241   2.924
  132OSM    H3F14203   6.634   6.334   2.958
  132OSM    H3G14204   6.648   6.191   2.848
  132OSM    C4F14205   6.580   6.149   3.044
  132OSM    H4F14206   6.685   6.112   3.047
  132OSM    H4G14207   6.525   6.060   3.005
  132OSM    C5F14208   6.514   6.213   3.170
  132OSM    H5F14209   6.477   6.125   3.226
  132OSM    H5G14210   6.425   6.268   3.132
  132OSM    C6F14211   6.620   6.295   3.252
  132OSM    H6F14212   6.664   6.382   3.199
  132OSM    H6G14213   6.711   6.231   3.254
  132OSM    C7F14214   6.580   6.323   3.394
  132OSM    H7F14215   6.526   6.230   3.422
  132OSM    H7G14216   6.510   6.409   3.396
  132OSM    C8F14217   6.699   6.354   3.492
  132OSM    H8F14218   6.727   6.455   3.456
  132OSM    H8G14219   6.786   6.294   3.458
  132OSM    C9F14220   6.651   6.334   3.631
  132OSM    H9F14221   6.553   6.376   3.654
  132OSM   C10F14222   6.718   6.283   3.726
  132OSM   H10F14223   6.666   6.283   3.823
  132OSM   C11F14224   0.041   6.222   3.723
  132OSM   H11F14225   0.105   6.249   3.809
  132OSM   H11G14226   0.086   6.248   3.624
  132OSM   C12F14227   0.024   6.071   3.734
  132OSM   H12F14228   0.123   6.021   3.730
  132OSM   H12G14229   6.785   6.043   3.641
  132OSM   C13F14230   6.764   6.026   3.863
  132OSM   H13F14231   6.711   5.933   3.834
  132OSM   H13G14232   6.677   6.092   3.886
  132OSM   C14F14233   0.033   6.017   3.999
  132OSM   H14F14234   0.059   6.116   4.041
  132OSM   H14G14235   0.129   5.976   3.961
  132OSM   C15F14236   6.784   5.931   4.109
  132OSM   H15F14237   0.028   5.928   4.203
  132OSM   H15G14238   6.791   5.826   4.073
  132OSM   C16F14239   6.639   5.976   4.148
  132OSM   H16F14240   6.578   5.885   4.163
  132OSM   H16G14241   6.579   6.030   4.071
  132OSM   C17F14242   6.629   6.075   4.265
  132OSM   H17F14243   6.652   6.021   4.360
  132OSM   H17G14244   6.525   6.108   4.284
  132OSM   C18F14245   6.721   6.203   4.277
  132OSM   H18F14246   0.010   6.170   4.253
  132OSM   H18G14247   6.708   6.250   4.377
  132OSM   H18H14248   6.683   6.278   4.205
  133OSM      N14249   4.530   3.198   2.407
  133OSM    C1514250   4.475   3.222   2.540
  133OSM   H15A14251   4.434   3.137   2.593
  133OSM   H15B14252   4.396   3.296   2.529
  133OSM   H15C14253   4.539   3.270   2.612
  133OSM    C1414254   4.420   3.135   2.335
  133OSM   H14A14255   4.456   3.130   2.234
  133OSM   H14B14256   4.326   3.187   2.352
  133OSM   H14C14257   4.411   3.033   2.368
  133OSM    C1314258   4.560   3.333   2.348
  133OSM   H13A14259   4.475   3.399   2.345
  133OSM   H13B14260   4.588   3.342   2.244
  133OSM   H13C14261   4.629   3.386   2.413
  133OSM    C1214262   4.648   3.100   2.394
  133OSM   H12A14263   4.736   3.154   2.426
  133OSM   H12B14264   4.668   3.087   2.288
  133OSM    C1114265   4.637   2.970   2.467
  133OSM   H11A14266   4.533   2.935   2.449
  133OSM   H11B14267   4.634   2.990   2.576
  133OSM      P14268   4.886   2.884   2.495
  133OSM    O1314269   4.962   2.761   2.466
  133OSM    O1414270   4.947   3.003   2.437
  133OSM    O1114271   4.865   2.907   2.647
  133OSM    O1214272   4.742   2.868   2.434
  133OSM    C1S14273   4.822   2.809   2.737
  133OSM    H1S14274   4.866   2.709   2.717
  133OSM    H1T14275   4.714   2.784   2.722
  133OSM     NF14276   4.810   2.720   2.966
  133OSM    HNF14277   4.722   2.723   3.012
  133OSM    C2S14278   4.847   2.843   2.894
  133OSM    H2S14279   4.957   2.851   2.906
  133OSM    C3S14280   4.783   2.967   2.938
  133OSM    H3S14281   4.673   2.962   2.924
  133OSM     O314282   4.824   3.078   2.857
  133OSM    HO314283   4.862   3.033   2.781
  133OSM    C4S14284   4.821   3.006   3.080
  133OSM    H4S14285   4.924   3.037   3.105
  133OSM    C5S14286   4.737   3.015   3.185
  133OSM    H5S14287   4.628   3.003   3.175
  133OSM    C6S14288   4.767   3.049   3.327
  133OSM    H6S14289   4.677   3.064   3.390
  133OSM    H6T14290   4.831   3.139   3.331
  133OSM    C7S14291   4.850   2.936   3.398
  133OSM    H7S14292   4.874   2.977   3.499
  133OSM    H7T14293   4.949   2.925   3.349
  133OSM    C8S14294   4.771   2.799   3.393
  133OSM    H8S14295   4.748   2.769   3.288
  133OSM    H8T14296   4.673   2.819   3.441
  133OSM    C9S14297   4.836   2.680   3.465
  133OSM    H9S14298   4.937   2.671   3.420
  133OSM    H9T14299   4.767   2.598   3.440
  133OSM   C10S14300   4.845   2.698   3.611
  133OSM   H10S14301   4.743   2.729   3.643
  133OSM   H10T14302   4.913   2.777   3.651
  133OSM   C11S14303   4.885   2.570   3.688
  133OSM   H11S14304   4.987   2.545   3.651
  133OSM   H11T14305   4.812   2.487   3.674
  133OSM   C12S14306   4.886   2.597   3.843
  133OSM   H12S14307   4.790   2.642   3.877
  133OSM   H12T14308   4.958   2.679   3.863
  133OSM   C13S14309   4.916   2.469   3.929
  133OSM   H13S14310   5.003   2.413   3.887
  133OSM   H13T14311   4.836   2.400   3.896
  133OSM   C14S14312   4.937   2.489   4.083
  133OSM   H14S14313   5.044   2.507   4.104
  133OSM   H14T14314   4.920   2.395   4.140
  133OSM   C15S14315   4.859   2.616   4.140
  133OSM   H15S14316   4.753   2.621   4.106
  133OSM   H15T14317   4.909   2.707   4.101
  133OSM   C16S14318   4.848   2.626   4.291
  133OSM   H16S14319   4.785   2.549   4.340
  133OSM   H16T14320   4.800   2.726   4.300
  133OSM   C17S14321   4.976   2.619   4.373
  133OSM   H17S14322   5.033   2.714   4.371
  133OSM   H17T14323   5.040   2.538   4.332
  133OSM   C18S14324   4.945   2.593   4.520
  133OSM   H18S14325   4.880   2.670   4.566
  133OSM   H18T14326   5.040   2.607   4.575
  133OSM   H18U14327   4.905   2.491   4.536
  133OSM    C1F14328   4.876   2.608   2.967
  133OSM     OF14329   4.980   2.600   2.896
  133OSM    C2F14330   4.836   2.494   3.057
  133OSM    H2F14331   4.782   2.424   2.990
  133OSM    H2G14332   4.769   2.527   3.139
  133OSM    C3F14333   4.953   2.431   3.132
  133OSM    H3F14334   5.025   2.509   3.166
  133OSM    H3G14335   5.004   2.364   3.060
  133OSM    C4F14336   4.923   2.350   3.258
  133OSM    H4F14337   4.888   2.425   3.332
  133OSM    H4G14338   5.018   2.297   3.282
  133OSM    C5F14339   4.813   2.242   3.235
  133OSM    H5F14340   4.855   2.164   3.169
  133OSM    H5G14341   4.722   2.287   3.191
  133OSM    C6F14342   4.785   2.173   3.372
  133OSM    H6F14343   4.711   2.093   3.351
  133OSM    H6G14344   4.741   2.249   3.439
  133OSM    C7F14345   4.908   2.103   3.428
  133OSM    H7F14346   4.992   2.176   3.434
  133OSM    H7G14347   4.927   2.038   3.340
  133OSM    C8F14348   4.884   2.024   3.561
  133OSM    H8F14349   4.977   1.969   3.588
  133OSM    H8G14350   4.812   1.943   3.538
  133OSM    C9F14351   4.836   2.112   3.667
  133OSM    H9F14352   4.759   2.181   3.630
  133OSM   C10F14353   4.884   2.113   3.792
  133OSM   H10F14354   4.836   2.166   3.875
  133OSM   C11F14355   4.981   2.013   3.845
  133OSM   H11F14356   5.054   2.002   3.762
  133OSM   H11G14357   4.932   1.915   3.863
  133OSM   C12F14358   5.056   2.051   3.973
  133OSM   H12F14359   5.102   2.150   3.954
  133OSM   H12G14360   5.143   1.982   3.979
  133OSM   C13F14361   4.980   2.051   4.111
  133OSM   H13F14362   4.929   1.953   4.116
  133OSM   H13G14363   4.915   2.141   4.113
  133OSM   C14F14364   5.064   2.061   4.241
  133OSM   H14F14365   4.989   2.065   4.322
  133OSM   H14G14366   5.120   2.157   4.242
  133OSM   C15F14367   5.156   1.944   4.264
  133OSM   H15F14368   5.223   1.947   4.175
  133OSM   H15G14369   5.106   1.847   4.248
  133OSM   C16F14370   5.237   1.966   4.388
  133OSM   H16F14371   5.172   1.991   4.474
  133OSM   H16G14372   5.316   2.043   4.388
  133OSM   C17F14373   5.319   1.836   4.406
  133OSM   H17F14374   5.368   1.805   4.311
  133OSM   H17G14375   5.242   1.761   4.435
  133OSM   C18F14376   5.411   1.830   4.527
  133OSM   H18F14377   5.466   1.734   4.540
  133OSM   H18G14378   5.349   1.850   4.617
  133OSM   H18H14379   5.490   1.907   4.511
  134OSM      N14380   5.750   5.551   2.317
  134OSM    C1514381   5.821   5.498   2.200
  134OSM   H15A14382   5.790   5.548   2.110
  134OSM   H15B14383   5.799   5.394   2.181
  134OSM   H15C14384   5.928   5.516   2.201
  134OSM    C1414385   5.790   5.493   2.451
  134OSM   H14A14386   5.727   5.529   2.531
  134OSM   H14B14387   5.892   5.512   2.482
  134OSM   H14C14388   5.797   5.385   2.444
  134OSM    C1314389   5.774   5.699   2.326
  134OSM   H13A14390   5.735   5.750   2.239
  134OSM   H13B14391   5.880   5.716   2.338
  134OSM   H13C14392   5.725   5.747   2.409
  134OSM    C1214393   5.602   5.506   2.314
  134OSM   H12A14394   5.559   5.532   2.409
  134OSM   H12B14395   5.604   5.398   2.314
  134OSM    C1114396   5.517   5.560   2.201
  134OSM   H11A14397   5.417   5.512   2.199
  134OSM   H11B14398   5.561   5.531   2.103
  134OSM      P14399   5.370   5.761   2.291
  134OSM    O1314400   5.380   5.914   2.301
  134OSM    O1414401   5.249   5.703   2.229
  134OSM    O1114402   5.372   5.704   2.439
  134OSM    O1214403   5.502   5.706   2.213
  134OSM    C1S14404   5.378   5.795   2.552
  134OSM    H1S14405   5.298   5.872   2.554
  134OSM    H1T14406   5.471   5.855   2.542
  134OSM     NF14407   5.381   5.829   2.795
  134OSM    HNF14408   5.469   5.866   2.823
  134OSM    C2S14409   5.376   5.724   2.690
  134OSM    H2S14410   5.281   5.669   2.705
  134OSM    C3S14411   5.490   5.626   2.701
  134OSM    H3S14412   5.587   5.678   2.709
  134OSM     O314413   5.511   5.539   2.593
  134OSM    HO314414   5.468   5.588   2.522
  134OSM    C4S14415   5.481   5.551   2.833
  134OSM    H4S14416   5.496   5.621   2.917
  134OSM    C5S14417   5.428   5.428   2.852
  134OSM    H5S14418   5.388   5.377   2.763
  134OSM    C6S14419   5.408   5.378   2.993
  134OSM    H6S14420   5.491   5.312   3.027
  134OSM    H6T14421   5.325   5.304   2.995
  134OSM    C7S14422   5.396   5.486   3.103
  134OSM    H7S14423   5.300   5.542   3.094
  134OSM    H7T14424   5.477   5.562   3.112
  134OSM    C8S14425   5.387   5.424   3.244
  134OSM    H8S14426   5.370   5.511   3.311
  134OSM    H8T14427   5.490   5.386   3.258
  134OSM    C9S14428   5.278   5.311   3.263
  134OSM    H9S14429   5.334   5.216   3.269
  134OSM    H9T14430   5.201   5.306   3.183
  134OSM   C10S14431   5.198   5.325   3.393
  134OSM   H10S14432   5.154   5.427   3.384
  134OSM   H10T14433   5.273   5.329   3.475
  134OSM   C11S14434   5.099   5.216   3.413
  134OSM   H11S14435   5.153   5.120   3.413
  134OSM   H11T14436   5.027   5.225   3.329
  134OSM   C12S14437   5.006   5.217   3.537
  134OSM   H12S14438   4.918   5.153   3.517
  134OSM   H12T14439   4.967   5.320   3.554
  134OSM   C13S14440   5.077   5.178   3.665
  134OSM   H13S14441   5.167   5.240   3.680
  134OSM   H13T14442   5.100   5.069   3.660
  134OSM   C14S14443   4.991   5.188   3.797
  134OSM   H14S14444   4.885   5.158   3.783
  134OSM   H14T14445   5.008   5.290   3.835
  134OSM   C15S14446   5.038   5.095   3.909
  134OSM   H15S14447   5.148   5.104   3.919
  134OSM   H15T14448   5.035   4.985   3.893
  134OSM   C16S14449   4.965   5.107   4.046
  134OSM   H16S14450   4.974   5.200   4.106
  134OSM   H16T14451   5.026   5.039   4.109
  134OSM   C17S14452   4.812   5.061   4.044
  134OSM   H17S14453   4.752   5.136   3.988
  134OSM   H17T14454   4.778   5.073   4.149
  134OSM   C18S14455   4.792   4.915   3.990
  134OSM   H18S14456   4.689   4.885   4.018
  134OSM   H18T14457   4.861   4.843   4.039
  134OSM   H18U14458   4.806   4.883   3.884
  134OSM    C1F14459   5.279   5.894   2.850
  134OSM     OF14460   5.173   5.901   2.789
  134OSM    C2F14461   5.313   5.960   2.984
  134OSM    H2F14462   5.407   6.016   2.965
  134OSM    H2G14463   5.336   5.886   3.063
  134OSM    C3F14464   5.201   6.055   3.036
  134OSM    H3F14465   5.108   5.994   3.027
  134OSM    H3G14466   5.205   6.142   2.967
  134OSM    C4F14467   5.230   6.107   3.180
  134OSM    H4F14468   5.325   6.164   3.176
  134OSM    H4G14469   5.243   6.016   3.242
  134OSM    C5F14470   5.104   6.176   3.223
  134OSM    H5F14471   5.016   6.111   3.200
  134OSM    H5G14472   5.083   6.273   3.175
  134OSM    C6F14473   5.097   6.197   3.373
  134OSM    H6F14474   5.192   6.238   3.414
  134OSM    H6G14475   5.093   6.104   3.433
  134OSM    C7F14476   4.984   6.281   3.428
  134OSM    H7F14477   4.888   6.225   3.424
  134OSM    H7G14478   4.964   6.368   3.361
  134OSM    C8F14479   5.002   6.338   3.569
  134OSM    H8F14480   4.923   6.415   3.580
  134OSM    H8G14481   5.097   6.395   3.577
  134OSM    C9F14482   4.986   6.232   3.677
  134OSM    H9F14483   5.075   6.167   3.676
  134OSM   C10F14484   4.884   6.204   3.767
  134OSM   H10F14485   4.893   6.119   3.836
  134OSM   C11F14486   4.761   6.283   3.793
  134OSM   H11F14487   4.678   6.259   3.722
  134OSM   H11G14488   4.775   6.393   3.784
  134OSM   C12F14489   4.711   6.272   3.939
  134OSM   H12F14490   4.730   6.173   3.984
  134OSM   H12G14491   4.600   6.270   3.943
  134OSM   C13F14492   4.775   6.371   4.039
  134OSM   H13F14493   4.734   6.466   3.999
  134OSM   H13G14494   4.884   6.377   4.015
  134OSM   C14F14495   4.738   6.345   4.185
  134OSM   H14F14496   4.796   6.421   4.243
  134OSM   H14G14497   4.772   6.242   4.209
  134OSM   C15F14498   4.590   6.364   4.224
  134OSM   H15F14499   4.525   6.298   4.163
  134OSM   H15G14500   4.560   6.469   4.204
  134OSM   C16F14501   4.568   6.325   4.372
  134OSM   H16F14502   4.635   6.238   4.392
  134OSM   H16G14503   4.465   6.288   4.390
  134OSM   C17F14504   4.577   6.450   4.458
  134OSM   H17F14505   4.652   6.524   4.424
  134OSM   H17G14506   4.615   6.420   4.558
  134OSM   C18F14507   4.445   6.526   4.476
  134OSM   H18F14508   4.468   6.600   4.556
  134OSM   H18G14509   4.363   6.455   4.501
  134OSM   H18H14510   4.409   6.575   4.384
  135OSM      N14511   0.353   1.162   1.995
  135OSM    C1514512   0.337   1.270   1.900
  135OSM   H15A14513   0.298   1.232   1.807
  135OSM   H15B14514   0.431   1.315   1.872
  135OSM   H15C14515   0.266   1.342   1.938
  135OSM    C1414516   0.231   1.078   2.014
  135OSM   H14A14517   0.161   1.141   2.067
  135OSM   H14B14518   0.246   0.998   2.085
  135OSM   H14C14519   0.200   1.046   1.916
  135OSM    C1314520   0.455   1.075   1.944
  135OSM   H13A14521   0.460   1.080   1.837
  135OSM   H13B14522   0.427   0.973   1.970
  135OSM   H13C14523   0.548   1.107   1.989
  135OSM    C1214524   0.397   1.223   2.128
  135OSM   H12A14525   0.472   1.297   2.108
  135OSM   H12B14526   0.451   1.159   2.196
  135OSM    C1114527   0.287   1.295   2.216
  135OSM   H11A14528   0.326   1.312   2.319
  135OSM   H11B14529   0.209   1.217   2.230
  135OSM      P14530   0.268   1.557   2.198
  135OSM    O1314531   0.410   1.592   2.165
  135OSM    O1414532   0.161   1.638   2.142
  135OSM    O1114533   0.256   1.561   2.360
  135OSM    O1214534   0.225   1.411   2.164
  135OSM    C1S14535   0.125   1.549   2.424
  135OSM    H1S14536   0.094   1.442   2.422
  135OSM    H1T14537   0.040   1.605   2.379
  135OSM     NF14538   6.813   1.548   2.649
  135OSM    HNF14539   6.773   1.616   2.711
  135OSM    C2S14540   0.126   1.580   2.576
  135OSM    H2S14541   0.201   1.505   2.611
  135OSM    C3S14542   0.190   1.715   2.624
  135OSM    H3S14543   0.109   1.790   2.610
  135OSM     O314544   0.296   1.758   2.533
  135OSM    HO314545   0.275   1.710   2.453
  135OSM    C4S14546   0.237   1.720   2.764
  135OSM    H4S14547   0.150   1.725   2.832
  135OSM    C5S14548   0.359   1.695   2.813
  135OSM    H5S14549   0.441   1.669   2.744
  135OSM    C6S14550   0.393   1.665   2.952
  135OSM    H6S14551   0.440   1.757   2.992
  135OSM    H6T14552   0.465   1.582   2.964
  135OSM    C7S14553   0.268   1.626   3.029
  135OSM    H7S14554   0.227   1.527   2.999
  135OSM    H7T14555   0.185   1.698   3.013
  135OSM    C8S14556   0.294   1.612   3.182
  135OSM    H8S14557   0.330   1.708   3.225
  135OSM    H8T14558   0.374   1.536   3.193
  135OSM    C9S14559   0.180   1.546   3.255
  135OSM    H9S14560   0.167   1.446   3.207
  135OSM    H9T14561   0.092   1.612   3.243
  135OSM   C10S14562   0.208   1.522   3.402
  135OSM   H10S14563   0.195   1.616   3.459
  135OSM   H10T14564   0.318   1.508   3.416
  135OSM   C11S14565   0.150   1.397   3.460
  135OSM   H11S14566   0.178   1.308   3.400
  135OSM   H11T14567   0.039   1.409   3.459
  135OSM   C12S14568   0.201   1.369   3.602
  135OSM   H12S14569   0.185   1.462   3.660
  135OSM   H12T14570   0.311   1.353   3.594
  135OSM   C13S14571   0.155   1.242   3.663
  135OSM   H13S14572   0.104   1.174   3.591
  135OSM   H13T14573   0.080   1.269   3.740
  135OSM   C14S14574   0.264   1.155   3.723
  135OSM   H14S14575   0.294   1.212   3.814
  135OSM   H14T14576   0.349   1.149   3.652
  135OSM   C15S14577   0.206   1.021   3.764
  135OSM   H15S14578   0.185   0.962   3.673
  135OSM   H15T14579   0.106   1.029   3.811
  135OSM   C16S14580   0.317   0.937   3.840
  135OSM   H16S14581   0.329   0.983   3.941
  135OSM   H16T14582   0.407   0.933   3.775
  135OSM   C17S14583   0.278   0.791   3.862
  135OSM   H17S14584   0.334   0.750   3.949
  135OSM   H17T14585   0.306   0.740   3.768
  135OSM   C18S14586   0.129   0.771   3.887
  135OSM   H18S14587   0.130   0.666   3.925
  135OSM   H18T14588   0.066   0.765   3.796
  135OSM   H18U14589   0.078   0.828   3.967
  135OSM    C1F14590   6.738   1.436   2.627
  135OSM     OF14591   6.774   1.343   2.558
  135OSM    C2F14592   6.607   1.427   2.704
  135OSM    H2F14593   6.522   1.455   2.639
  135OSM    H2G14594   6.618   1.500   2.787
  135OSM    C3F14595   6.580   1.280   2.747
  135OSM    H3F14596   6.593   1.209   2.663
  135OSM    H3G14597   6.472   1.279   2.773
  135OSM    C4F14598   6.677   1.245   2.867
  135OSM    H4F14599   6.640   1.299   2.956
  135OSM    H4G14600   6.782   1.276   2.847
  135OSM    C5F14601   6.678   1.098   2.914
  135OSM    H5F14602   6.725   1.031   2.840
  135OSM    H5G14603   6.573   1.061   2.924
  135OSM    C6F14604   6.740   1.072   3.050
  135OSM    H6F14605   6.721   0.972   3.094
  135OSM    H6G14606   6.703   1.143   3.128
  135OSM    C7F14607   0.084   1.081   3.047
  135OSM    H7F14608   0.109   1.189   3.034
  135OSM    H7G14609   0.118   1.038   2.951
  135OSM    C8F14610   0.144   1.029   3.175
  135OSM    H8F14611   0.102   1.070   3.269
  135OSM    H8G14612   0.252   1.057   3.174
  135OSM    C9F14613   0.154   0.880   3.178
  135OSM    H9F14614   0.154   0.843   3.074
  135OSM   C10F14615   0.151   0.785   3.274
  135OSM   H10F14616   0.155   0.683   3.233
  135OSM   C11F14617   0.148   0.807   3.425
  135OSM   H11F14618   0.185   0.907   3.455
  135OSM   H11G14619   0.200   0.720   3.472
  135OSM   C12F14620   0.008   0.788   3.494
  135OSM   H12F14621   0.021   0.796   3.604
  135OSM   H12G14622   6.783   0.692   3.453
  135OSM   C13F14623   6.717   0.893   3.449
  135OSM   H13F14624   6.700   0.888   3.339
  135OSM   H13G14625   6.764   0.990   3.476
  135OSM   C14F14626   6.578   0.892   3.519
  135OSM   H14F14627   6.527   0.795   3.500
  135OSM   H14G14628   6.514   0.969   3.471
  135OSM   C15F14629   6.585   0.914   3.669
  135OSM   H15F14630   6.650   0.998   3.702
  135OSM   H15G14631   6.642   0.832   3.718
  135OSM   C16F14632   6.447   0.926   3.746
  135OSM   H16F14633   6.403   0.825   3.751
  135OSM   H16G14634   6.379   1.000   3.698
  135OSM   C17F14635   6.470   0.958   3.897
  135OSM   H17F14636   6.372   0.995   3.934
  135OSM   H17G14637   6.539   1.044   3.913
  135OSM   C18F14638   6.524   0.841   3.979
  135OSM   H18F14639   6.477   0.744   3.951
  135OSM   H18G14640   6.520   0.860   4.088
  135OSM   H18H14641   6.629   0.831   3.943
  136OSM      N14642   2.769   5.121   1.398
  136OSM    C1514643   2.755   4.972   1.395
  136OSM   H15A14644   2.701   4.926   1.476
  136OSM   H15B14645   2.851   4.922   1.393
  136OSM   H15C14646   2.708   4.945   1.302
  136OSM    C1414647   2.882   5.147   1.304
  136OSM   H14A14648   2.969   5.088   1.325
  136OSM   H14B14649   2.908   5.252   1.301
  136OSM   H14C14650   2.852   5.129   1.202
  136OSM    C1314651   2.641   5.187   1.353
  136OSM   H13A14652   2.603   5.152   1.258
  136OSM   H13B14653   2.649   5.295   1.354
  136OSM   H13C14654   2.562   5.155   1.419
  136OSM    C1214655   2.809   5.175   1.530
  136OSM   H12A14656   2.831   5.280   1.523
  136OSM   H12B14657   2.897   5.115   1.547
  136OSM    C1114658   2.701   5.168   1.641
  136OSM   H11A14659   2.629   5.247   1.609
  136OSM   H11B14660   2.741   5.215   1.734
  136OSM      P14661   2.697   4.941   1.759
  136OSM    O1314662   2.590   4.851   1.807
  136OSM    O1414663   2.816   4.881   1.693
  136OSM    O1114664   2.755   5.031   1.877
  136OSM    O1214665   2.625   5.045   1.665
  136OSM    C1S14666   2.697   5.047   2.006
  136OSM    H1S14667   2.598   5.096   2.009
  136OSM    H1T14668   2.756   5.125   2.060
  136OSM     NF14669   2.603   4.933   2.204
  136OSM    HNF14670   2.641   4.953   2.294
  136OSM    C2S14671   2.698   4.915   2.097
  136OSM    H2S14672   2.662   4.828   2.038
  136OSM    C3S14673   2.839   4.883   2.148
  136OSM    H3S14674   2.866   4.975   2.204
  136OSM     O314675   2.939   4.878   2.042
  136OSM    HO314676   2.881   4.914   1.975
  136OSM    C4S14677   2.857   4.759   2.240
  136OSM    H4S14678   2.858   4.793   2.345
  136OSM    C5S14679   2.882   4.627   2.209
  136OSM    H5S14680   2.870   4.595   2.104
  136OSM    C6S14681   2.918   4.511   2.299
  136OSM    H6S14682   3.018   4.468   2.276
  136OSM    H6T14683   2.839   4.432   2.292
  136OSM    C7S14684   2.933   4.546   2.448
  136OSM    H7S14685   2.859   4.623   2.479
  136OSM    H7T14686   3.033   4.591   2.462
  136OSM    C8S14687   2.913   4.423   2.544
  136OSM    H8S14688   2.994   4.350   2.523
  136OSM    H8T14689   2.817   4.374   2.519
  136OSM    C9S14690   2.913   4.460   2.695
  136OSM    H9S14691   2.857   4.556   2.703
  136OSM    H9T14692   3.013   4.484   2.738
  136OSM   C10S14693   2.851   4.353   2.787
  136OSM   H10S14694   2.909   4.259   2.771
  136OSM   H10T14695   2.744   4.336   2.764
  136OSM   C11S14696   2.854   4.377   2.942
  136OSM   H11S14697   2.808   4.477   2.954
  136OSM   H11T14698   2.961   4.391   2.969
  136OSM   C12S14699   2.799   4.269   3.025
  136OSM   H12S14700   2.856   4.175   3.011
  136OSM   H12T14701   2.695   4.258   2.985
  136OSM   C13S14702   2.800   4.309   3.175
  136OSM   H13S14703   2.723   4.389   3.185
  136OSM   H13T14704   2.895   4.364   3.191
  136OSM   C14S14705   2.776   4.185   3.263
  136OSM   H14S14706   2.859   4.112   3.260
  136OSM   H14T14707   2.676   4.145   3.234
  136OSM   C15S14708   2.777   4.219   3.415
  136OSM   H15S14709   2.684   4.279   3.424
  136OSM   H15T14710   2.867   4.282   3.432
  136OSM   C16S14711   2.780   4.090   3.495
  136OSM   H16S14712   2.877   4.035   3.483
  136OSM   H16T14713   2.707   4.017   3.455
  136OSM   C17S14714   2.767   4.119   3.648
  136OSM   H17S14715   2.665   4.154   3.673
  136OSM   H17T14716   2.831   4.207   3.672
  136OSM   C18S14717   2.791   3.997   3.739
  136OSM   H18S14718   2.805   4.019   3.847
  136OSM   H18T14719   2.870   3.937   3.690
  136OSM   H18U14720   2.698   3.938   3.731
  136OSM    C1F14721   2.472   4.924   2.187
  136OSM     OF14722   2.418   4.922   2.078
  136OSM    C2F14723   2.390   4.919   2.321
  136OSM    H2F14724   2.382   5.022   2.361
  136OSM    H2G14725   2.457   4.860   2.388
  136OSM    C3F14726   2.254   4.854   2.306
  136OSM    H3F14727   2.258   4.774   2.230
  136OSM    H3G14728   2.177   4.928   2.275
  136OSM    C4F14729   2.216   4.781   2.436
  136OSM    H4F14730   2.205   4.865   2.508
  136OSM    H4G14731   2.296   4.709   2.464
  136OSM    C5F14732   2.087   4.704   2.427
  136OSM    H5F14733   2.104   4.629   2.347
  136OSM    H5G14734   2.000   4.759   2.386
  136OSM    C6F14735   2.040   4.634   2.553
  136OSM    H6F14736   2.093   4.542   2.582
  136OSM    H6G14737   1.944   4.587   2.522
  136OSM    C7F14738   2.018   4.748   2.659
  136OSM    H7F14739   1.941   4.815   2.616
  136OSM    H7G14740   2.109   4.804   2.691
  136OSM    C8F14741   1.960   4.696   2.794
  136OSM    H8F14742   1.886   4.618   2.766
  136OSM    H8G14743   1.918   4.784   2.847
  136OSM    C9F14744   2.062   4.637   2.884
  136OSM    H9F14745   2.167   4.646   2.851
  136OSM   C10F14746   2.039   4.566   2.995
  136OSM   H10F14747   2.128   4.522   3.042
  136OSM   C11F14748   1.910   4.554   3.069
  136OSM   H11F14749   1.862   4.460   3.035
  136OSM   H11G14750   1.847   4.638   3.031
  136OSM   C12F14751   1.942   4.569   3.209
  136OSM   H12F14752   1.998   4.663   3.229
  136OSM   H12G14753   2.012   4.488   3.238
  136OSM   C13F14754   1.813   4.576   3.295
  136OSM   H13F14755   1.773   4.472   3.286
  136OSM   H13G14756   1.743   4.649   3.249
  136OSM   C14F14757   1.840   4.613   3.440
  136OSM   H14F14758   1.737   4.628   3.478
  136OSM   H14G14759   1.893   4.711   3.444
  136OSM   C15F14760   1.905   4.490   3.508
  136OSM   H15F14761   2.005   4.465   3.467
  136OSM   H15G14762   1.847   4.404   3.469
  136OSM   C16F14763   1.913   4.488   3.661
  136OSM   H16F14764   1.809   4.507   3.695
  136OSM   H16G14765   1.973   4.572   3.702
  136OSM   C17F14766   1.968   4.363   3.726
  136OSM   H17F14767   2.079   4.369   3.724
  136OSM   H17G14768   1.917   4.276   3.679
  136OSM   C18F14769   1.920   4.361   3.874
  136OSM   H18F14770   1.810   4.376   3.883
  136OSM   H18G14771   1.966   4.449   3.924
  136OSM   H18H14772   1.969   4.272   3.917
  137OSM      N14773   0.768   1.998   1.808
  137OSM    C1514774   0.718   1.931   1.683
  137OSM   H15A14775   0.646   1.851   1.691
  137OSM   H15B14776   0.802   1.884   1.634
  137OSM   H15C14777   0.670   1.998   1.614
  137OSM    C1414778   0.659   2.093   1.849
  137OSM   H14A14779   0.691   2.162   1.925
  137OSM   H14B14780   0.569   2.038   1.871
  137OSM   H14C14781   0.638   2.154   1.763
  137OSM    C1314782   0.771   1.888   1.915
  137OSM   H13A14783   0.843   1.814   1.887
  137OSM   H13B14784   0.674   1.842   1.926
  137OSM   H13C14785   0.797   1.936   2.008
  137OSM    C1214786   0.898   2.071   1.786
  137OSM   H12A14787   0.883   2.158   1.724
  137OSM   H12B14788   0.969   2.015   1.728
  137OSM    C1114789   0.969   2.126   1.910
  137OSM   H11A14790   1.069   2.169   1.887
  137OSM   H11B14791   0.996   2.043   1.977
  137OSM      P14792   0.898   2.372   1.974
  137OSM    O1314793   0.975   2.407   1.853
  137OSM    O1414794   0.755   2.407   1.980
  137OSM    O1114795   0.976   2.406   2.112
  137OSM    O1214796   0.887   2.212   1.982
  137OSM    C1S14797   0.894   2.435   2.223
  137OSM    H1S14798   0.797   2.382   2.225
  137OSM    H1T14799   0.872   2.544   2.226
  137OSM     NF14800   0.876   2.396   2.472
  137OSM    HNF14801   0.876   2.470   2.539
  137OSM    C2S14802   0.972   2.403   2.359
  137OSM    H2S14803   1.014   2.301   2.348
  137OSM    C3S14804   1.090   2.504   2.369
  137OSM    H3S14805   1.054   2.608   2.384
  137OSM     O314806   1.170   2.514   2.252
  137OSM    HO314807   1.111   2.485   2.182
  137OSM    C4S14808   1.173   2.489   2.490
  137OSM    H4S14809   1.132   2.546   2.574
  137OSM    C5S14810   1.301   2.440   2.508
  137OSM    H5S14811   1.340   2.397   2.414
  137OSM    C6S14812   1.394   2.432   2.631
  137OSM    H6S14813   1.482   2.496   2.612
  137OSM    H6T14814   1.435   2.329   2.638
  137OSM    C7S14815   1.328   2.469   2.765
  137OSM    H7S14816   1.231   2.415   2.764
  137OSM    H7T14817   1.309   2.577   2.783
  137OSM    C8S14818   1.392   2.411   2.898
  137OSM    H8S14819   1.495   2.453   2.894
  137OSM    H8T14820   1.398   2.301   2.891
  137OSM    C9S14821   1.320   2.448   3.029
  137OSM    H9S14822   1.228   2.386   3.032
  137OSM    H9T14823   1.295   2.557   3.029
  137OSM   C10S14824   1.415   2.420   3.142
  137OSM   H10S14825   1.486   2.505   3.141
  137OSM   H10T14826   1.469   2.324   3.130
  137OSM   C11S14827   1.335   2.401   3.278
  137OSM   H11S14828   1.274   2.310   3.258
  137OSM   H11T14829   1.274   2.492   3.292
  137OSM   C12S14830   1.418   2.400   3.399
  137OSM   H12S14831   1.468   2.499   3.410
  137OSM   H12T14832   1.504   2.332   3.381
  137OSM   C13S14833   1.344   2.379   3.531
  137OSM   H13S14834   1.309   2.274   3.538
  137OSM   H13T14835   1.256   2.447   3.532
  137OSM   C14S14836   1.435   2.396   3.655
  137OSM   H14S14837   1.480   2.496   3.640
  137OSM   H14T14838   1.517   2.321   3.645
  137OSM   C15S14839   1.363   2.376   3.792
  137OSM   H15S14840   1.317   2.275   3.784
  137OSM   H15T14841   1.285   2.453   3.808
  137OSM   C16S14842   1.468   2.379   3.908
  137OSM   H16S14843   1.522   2.475   3.901
  137OSM   H16T14844   1.520   2.282   3.894
  137OSM   C17S14845   1.402   2.350   4.046
  137OSM   H17S14846   1.330   2.266   4.040
  137OSM   H17T14847   1.341   2.436   4.082
  137OSM   C18S14848   1.499   2.307   4.161
  137OSM   H18S14849   1.580   2.383   4.169
  137OSM   H18T14850   1.554   2.219   4.123
  137OSM   H18U14851   1.442   2.303   4.257
  137OSM    C1F14852   0.791   2.291   2.483
  137OSM     OF14853   0.777   2.206   2.394
  137OSM    C2F14854   0.705   2.273   2.607
  137OSM    H2F14855   0.624   2.348   2.617
  137OSM    H2G14856   0.772   2.307   2.688
  137OSM    C3F14857   0.640   2.127   2.631
  137OSM    H3F14858   0.723   2.053   2.633
  137OSM    H3G14859   0.584   2.105   2.537
  137OSM    C4F14860   0.556   2.106   2.748
  137OSM    H4F14861   0.490   2.018   2.743
  137OSM    H4G14862   0.490   2.195   2.740
  137OSM    C5F14863   0.642   2.102   2.871
  137OSM    H5F14864   0.695   2.200   2.872
  137OSM    H5G14865   0.707   2.012   2.871
  137OSM    C6F14866   0.548   2.089   2.999
  137OSM    H6F14867   0.495   1.992   2.999
  137OSM    H6G14868   0.482   2.178   2.990
  137OSM    C7F14869   0.617   2.106   3.134
  137OSM    H7F14870   0.678   2.198   3.140
  137OSM    H7G14871   0.690   2.023   3.149
  137OSM    C8F14872   0.526   2.093   3.258
  137OSM    H8F14873   0.485   1.990   3.263
  137OSM    H8G14874   0.444   2.165   3.241
  137OSM    C9F14875   0.589   2.133   3.392
  137OSM    H9F14876   0.627   2.236   3.393
  137OSM   C10F14877   0.613   2.055   3.497
  137OSM   H10F14878   0.646   2.106   3.588
  137OSM   C11F14879   0.582   1.912   3.524
  137OSM   H11F14880   0.674   1.854   3.503
  137OSM   H11G14881   0.503   1.877   3.454
  137OSM   C12F14882   0.515   1.882   3.658
  137OSM   H12F14883   0.420   1.939   3.668
  137OSM   H12G14884   0.584   1.913   3.738
  137OSM   C13F14885   0.484   1.735   3.682
  137OSM   H13F14886   0.579   1.680   3.664
  137OSM   H13G14887   0.419   1.702   3.598
  137OSM   C14F14888   0.443   1.698   3.823
  137OSM   H14F14889   0.533   1.716   3.887
  137OSM   H14G14890   0.427   1.589   3.834
  137OSM   C15F14891   0.317   1.762   3.879
  137OSM   H15F14892   0.236   1.743   3.806
  137OSM   H15G14893   0.329   1.872   3.865
  137OSM   C16F14894   0.272   1.713   4.017
  137OSM   H16F14895   0.222   1.615   4.001
  137OSM   H16G14896   0.189   1.773   4.058
  137OSM   C17F14897   0.381   1.693   4.120
  137OSM   H17F14898   0.454   1.775   4.111
  137OSM   H17G14899   0.429   1.593   4.107
  137OSM   C18F14900   0.327   1.692   4.268
  137OSM   H18F14901   0.252   1.773   4.285
  137OSM   H18G14902   0.410   1.706   4.340
  137OSM   H18H14903   0.289   1.590   4.291
  138OSM      N14904   6.301   6.255   2.295
  138OSM    C1514905   6.442   6.287   2.242
  138OSM   H15A14906   6.503   6.322   2.323
  138OSM   H15B14907   6.431   6.367   2.170
  138OSM   H15C14908   6.489   6.202   2.196
  138OSM    C1414909   6.269   6.370   2.393
  138OSM   H14A14910   6.277   6.469   2.350
  138OSM   H14B14911   6.332   6.371   2.480
  138OSM   H14C14912   6.173   6.360   2.441
  138OSM    C1314913   6.212   6.259   2.179
  138OSM   H13A14914   6.246   6.190   2.103
  138OSM   H13B14915   6.227   6.353   2.128
  138OSM   H13C14916   6.108   6.231   2.191
  138OSM    C1214917   6.296   6.121   2.371
  138OSM   H12A14918   6.383   6.110   2.434
  138OSM   H12B14919   6.309   6.048   2.292
  138OSM    C1114920   6.174   6.083   2.454
  138OSM   H11A14921   6.183   6.133   2.552
  138OSM   H11B14922   6.188   5.975   2.477
  138OSM      P14923   5.932   6.181   2.448
  138OSM    O1314924   5.926   6.311   2.375
  138OSM    O1414925   5.810   6.101   2.439
  138OSM    O1114926   5.969   6.206   2.600
  138OSM    O1214927   6.049   6.100   2.381
  138OSM    C1S14928   5.869   6.270   2.675
  138OSM    H1S14929   5.780   6.205   2.692
  138OSM    H1T14930   5.836   6.361   2.621
  138OSM     NF14931   5.817   6.401   2.879
  138OSM    HNF14932   5.807   6.500   2.876
  138OSM    C2S14933   5.916   6.317   2.812
  138OSM    H2S14934   5.917   6.228   2.878
  138OSM    C3S14935   6.045   6.397   2.821
  138OSM    H3S14936   6.028   6.490   2.762
  138OSM     O314937   6.153   6.332   2.752
  138OSM    HO314938   6.112   6.267   2.695
  138OSM    C4S14939   6.096   6.436   2.957
  138OSM    H4S14940   6.116   6.357   3.032
  138OSM    C5S14941   6.111   6.566   2.993
  138OSM    H5S14942   6.094   6.636   2.910
  138OSM    C6S14943   6.157   6.634   3.120
  138OSM    H6S14944   6.069   6.695   3.150
  138OSM    H6T14945   6.237   6.710   3.103
  138OSM    C7S14946   6.198   6.531   3.236
  138OSM    H7S14947   6.287   6.473   3.202
  138OSM    H7T14948   6.117   6.455   3.244
  138OSM    C8S14949   6.217   6.590   3.373
  138OSM    H8S14950   6.147   6.673   3.395
  138OSM    H8T14951   6.316   6.640   3.370
  138OSM    C9S14952   6.210   6.475   3.480
  138OSM    H9S14953   6.260   6.386   3.437
  138OSM    H9T14954   6.108   6.432   3.490
  138OSM   C10S14955   6.269   6.512   3.614
  138OSM   H10S14956   6.245   6.620   3.630
  138OSM   H10T14957   6.379   6.507   3.601
  138OSM   C11S14958   6.240   6.430   3.737
  138OSM   H11S14959   6.293   6.332   3.739
  138OSM   H11T14960   6.131   6.410   3.743
  138OSM   C12S14961   6.273   6.515   3.858
  138OSM   H12S14962   6.192   6.590   3.868
  138OSM   H12T14963   6.374   6.560   3.860
  138OSM   C13S14964   6.287   6.416   3.980
  138OSM   H13S14965   6.367   6.342   3.957
  138OSM   H13T14966   6.189   6.365   3.985
  138OSM   C14S14967   6.335   6.480   4.115
  138OSM   H14S14968   6.272   6.565   4.148
  138OSM   H14T14969   6.438   6.518   4.098
  138OSM   C15S14970   6.360   6.380   4.220
  138OSM   H15S14971   6.439   6.308   4.188
  138OSM   H15T14972   6.267   6.319   4.219
  138OSM   C16S14973   6.375   6.448   4.364
  138OSM   H16S14974   6.275   6.494   4.384
  138OSM   H16T14975   6.461   6.519   4.359
  138OSM   C17S14976   6.393   6.343   4.475
  138OSM   H17S14977   6.467   6.264   4.450
  138OSM   H17T14978   6.298   6.286   4.483
  138OSM   C18S14979   6.430   6.410   4.604
  138OSM   H18S14980   6.526   6.464   4.592
  138OSM   H18T14981   6.434   6.330   4.682
  138OSM   H18U14982   6.350   6.481   4.634
  138OSM    C1F14983   5.705   6.339   2.932
  138OSM     OF14984   5.694   6.221   2.928
  138OSM    C2F14985   5.589   6.429   2.983
  138OSM    H2F14986   5.508   6.401   2.912
  138OSM    H2G14987   5.606   6.536   2.961
  138OSM    C3F14988   5.565   6.400   3.131
  138OSM    H3F14989   5.529   6.295   3.139
  138OSM    H3G14990   5.477   6.462   3.155
  138OSM    C4F14991   5.681   6.435   3.228
  138OSM    H4F14992   5.773   6.378   3.205
  138OSM    H4G14993   5.665   6.405   3.334
  138OSM    C5F14994   5.730   6.581   3.229
  138OSM    H5F14995   5.642   6.646   3.247
  138OSM    H5G14996   5.770   6.612   3.131
  138OSM    C6F14997   5.824   6.602   3.351
  138OSM    H6F14998   5.853   6.710   3.347
  138OSM    H6G14999   5.919   6.544   3.347
  138OSM    C7F15000   5.748   6.581   3.486
  138OSM    H7F15001   5.721   6.476   3.508
  138OSM    H7G15002   5.655   6.642   3.485
  138OSM    C8F15003   5.836   6.644   3.600
  138OSM    H8F15004   5.868   6.746   3.571
  138OSM    H8G15005   5.922   6.574   3.608
  138OSM    C9F15006   5.757   6.647   3.726
  138OSM    H9F15007   5.666   6.585   3.723
  138OSM   C10F15008   5.803   6.699   3.836
  138OSM   H10F15009   5.731   6.708   3.920
  138OSM   C11F15010   5.934   6.768   3.848
  138OSM   H11F15011   6.010   6.729   3.778
  138OSM   H11G15012   5.974   6.753   3.950
  138OSM   C12F15013   5.926   0.105   3.842
  138OSM   H12F15014   5.884   0.126   3.741
  138OSM   H12G15015   6.024   0.156   3.850
  138OSM   C13F15016   5.831   0.160   3.953
  138OSM   H13F15017   5.865   0.108   4.045
  138OSM   H13G15018   5.722   0.143   3.938
  138OSM   C14F15019   5.848   0.309   3.977
  138OSM   H14F15020   5.797   0.357   3.890
  138OSM   H14G15021   5.955   0.329   3.960
  138OSM   C15F15022   5.808   0.351   4.121
  138OSM   H15F15023   5.825   0.459   4.141
  138OSM   H15G15024   5.862   0.293   4.199
  138OSM   C16F15025   5.660   0.325   4.152
  138OSM   H16F15026   5.625   0.221   4.171
  138OSM   H16G15027   5.615   0.365   4.058
  138OSM   C17F15028   5.619   0.411   4.275
  138OSM   H17F15029   5.511   0.431   4.265
  138OSM   H17G15030   5.668   0.510   4.265
  138OSM   C18F15031   5.649   0.352   4.414
  138OSM   H18F15032   5.588   0.402   4.492
  138OSM   H18G15033   5.756   0.368   4.438
  138OSM   H18H15034   5.635   0.242   4.405
  139OSM      N15035   1.686   1.030   1.938
  139OSM    C1515036   1.756   1.097   1.822
  139OSM   H15A15037   1.819   1.173   1.865
  139OSM   H15B15038   1.686   1.150   1.760
  139OSM   H15C15039   1.812   1.024   1.765
  139OSM    C1415040   1.582   0.938   1.888
  139OSM   H14A15041   1.623   0.859   1.828
  139OSM   H14B15042   1.508   0.991   1.830
  139OSM   H14C15043   1.536   0.887   1.971
  139OSM    C1315044   1.791   0.953   2.019
  139OSM   H13A15045   1.740   0.902   2.099
  139OSM   H13B15046   1.855   1.019   2.076
  139OSM   H13C15047   1.838   0.886   1.949
  139OSM    C1215048   1.624   1.139   2.024
  139OSM   H12A15049   1.564   1.201   1.959
  139OSM   H12B15050   1.703   1.205   2.057
  139OSM    C1115051   1.539   1.098   2.149
  139OSM   H11A15052   1.518   1.183   2.217
  139OSM   H11B15053   1.614   1.038   2.205
  139OSM      P15054   1.288   1.087   2.075
  139OSM    O1315055   1.326   1.194   1.979
  139OSM    O1415056   1.198   0.975   2.028
  139OSM    O1115057   1.228   1.149   2.200
  139OSM    O1215058   1.423   1.019   2.130
  139OSM    C1S15059   1.115   1.236   2.189
  139OSM    H1S15060   1.021   1.179   2.174
  139OSM    H1T15061   1.118   1.308   2.105
  139OSM     NF15062   0.968   1.398   2.306
  139OSM    HNF15063   0.981   1.495   2.286
  139OSM    C2S15064   1.087   1.320   2.315
  139OSM    H2S15065   1.072   1.247   2.397
  139OSM    C3S15066   1.219   1.398   2.346
  139OSM    H3S15067   1.230   1.483   2.276
  139OSM     O315068   1.346   1.328   2.349
  139OSM    HO315069   1.317   1.246   2.307
  139OSM    C4S15070   1.197   1.466   2.479
  139OSM    H4S15071   1.172   1.573   2.473
  139OSM    C5S15072   1.204   1.406   2.600
  139OSM    H5S15073   1.224   1.298   2.612
  139OSM    C6S15074   1.177   1.477   2.731
  139OSM    H6S15075   1.172   1.407   2.818
  139OSM    H6T15076   1.083   1.537   2.737
  139OSM    C7S15077   1.283   1.580   2.769
  139OSM    H7S15078   1.302   1.648   2.683
  139OSM    H7T15079   1.378   1.522   2.772
  139OSM    C8S15080   1.251   1.643   2.902
  139OSM    H8S15081   1.207   1.556   2.956
  139OSM    H8T15082   1.173   1.722   2.907
  139OSM    C9S15083   1.372   1.696   2.981
  139OSM    H9S15084   1.395   1.794   2.934
  139OSM    H9T15085   1.460   1.630   2.965
  139OSM   C10S15086   1.352   1.707   3.134
  139OSM   H10S15087   1.251   1.745   3.159
  139OSM   H10T15088   1.422   1.786   3.169
  139OSM   C11S15089   1.381   1.572   3.202
  139OSM   H11S15090   1.348   1.492   3.133
  139OSM   H11T15091   1.308   1.570   3.285
  139OSM   C12S15092   1.530   1.553   3.252
  139OSM   H12S15093   1.559   1.634   3.324
  139OSM   H12T15094   1.595   1.569   3.163
  139OSM   C13S15095   1.553   1.415   3.305
  139OSM   H13S15096   1.658   1.417   3.342
  139OSM   H13T15097   1.543   1.334   3.230
  139OSM   C14S15098   1.468   1.383   3.432
  139OSM   H14S15099   1.503   1.285   3.472
  139OSM   H14T15100   1.361   1.382   3.404
  139OSM   C15S15101   1.504   1.477   3.554
  139OSM   H15S15102   1.466   1.578   3.527
  139OSM   H15T15103   1.613   1.499   3.551
  139OSM   C16S15104   1.458   1.434   3.697
  139OSM   H16S15105   1.503   1.507   3.767
  139OSM   H16T15106   1.507   1.337   3.720
  139OSM   C17S15107   1.302   1.421   3.708
  139OSM   H17S15108   1.280   1.334   3.642
  139OSM   H17T15109   1.248   1.515   3.681
  139OSM   C18S15110   1.259   1.381   3.846
  139OSM   H18S15111   1.331   1.305   3.881
  139OSM   H18T15112   1.161   1.328   3.847
  139OSM   H18U15113   1.252   1.469   3.914
  139OSM    C1F15114   0.854   1.341   2.321
  139OSM     OF15115   0.845   1.218   2.321
  139OSM    C2F15116   0.734   1.439   2.348
  139OSM    H2F15117   0.666   1.430   2.261
  139OSM    H2G15118   0.777   1.540   2.366
  139OSM    C3F15119   0.658   1.393   2.475
  139OSM    H3F15120   0.624   1.288   2.470
  139OSM    H3G15121   0.563   1.448   2.494
  139OSM    C4F15122   0.749   1.411   2.600
  139OSM    H4F15123   0.839   1.348   2.585
  139OSM    H4G15124   0.681   1.354   2.667
  139OSM    C5F15125   0.774   1.550   2.648
  139OSM    H5F15126   0.691   1.619   2.619
  139OSM    H5G15127   0.869   1.591   2.606
  139OSM    C6F15128   0.795   1.570   2.800
  139OSM    H6F15129   0.881   1.509   2.835
  139OSM    H6G15130   0.707   1.529   2.855
  139OSM    C7F15131   0.809   1.711   2.841
  139OSM    H7F15132   0.709   1.753   2.819
  139OSM    H7G15133   0.879   1.769   2.776
  139OSM    C8F15134   0.847   1.742   2.985
  139OSM    H8F15135   0.852   1.852   2.972
  139OSM    H8G15136   0.950   1.707   3.011
  139OSM    C9F15137   0.746   1.704   3.092
  139OSM    H9F15138   0.657   1.767   3.092
  139OSM   C10F15139   0.751   1.600   3.179
  139OSM   H10F15140   0.659   1.591   3.239
  139OSM   C11F15141   0.863   1.507   3.210
  139OSM   H11F15142   0.919   1.504   3.113
  139OSM   H11G15143   0.823   1.405   3.226
  139OSM   C12F15144   0.959   1.558   3.325
  139OSM   H12F15145   1.014   1.652   3.302
  139OSM   H12G15146   1.036   1.481   3.348
  139OSM   C13F15147   0.890   1.576   3.462
  139OSM   H13F15148   0.825   1.491   3.489
  139OSM   H13G15149   0.831   1.669   3.480
  139OSM   C14F15150   1.001   1.579   3.563
  139OSM   H14F15151   1.067   1.664   3.533
  139OSM   H14G15152   1.065   1.490   3.550
  139OSM   C15F15153   0.977   1.599   3.715
  139OSM   H15F15154   0.952   1.707   3.725
  139OSM   H15G15155   1.073   1.576   3.767
  139OSM   C16F15156   0.869   1.515   3.778
  139OSM   H16F15157   0.899   1.409   3.770
  139OSM   H16G15158   0.776   1.533   3.720
  139OSM   C17F15159   0.853   1.546   3.922
  139OSM   H17F15160   0.836   1.655   3.938
  139OSM   H17G15161   0.952   1.531   3.970
  139OSM   C18F15162   0.765   1.455   4.008
  139OSM   H18F15163   0.660   1.455   3.972
  139OSM   H18G15164   0.763   1.492   4.113
  139OSM   H18H15165   0.805   1.352   4.002
  140OSM      N15166   4.995   0.889   1.976
  140OSM    C1515167   5.121   0.861   1.909
  140OSM   H15A15168   5.097   0.820   1.812
  140OSM   H15B15169   5.177   0.794   1.972
  140OSM   H15C15170   5.174   0.955   1.903
  140OSM    C1415171   4.920   0.994   1.894
  140OSM   H14A15172   4.962   1.093   1.899
  140OSM   H14B15173   4.817   1.012   1.921
  140OSM   H14C15174   4.917   0.965   1.790
  140OSM    C1315175   4.910   0.765   1.984
  140OSM   H13A15176   4.890   0.732   1.883
  140OSM   H13B15177   4.808   0.784   2.014
  140OSM   H13C15178   4.949   0.683   2.043
  140OSM    C1215179   5.012   0.947   2.121
  140OSM   H12A15180   4.918   0.988   2.155
  140OSM   H12B15181   5.077   1.033   2.117
  140OSM    C1115182   5.068   0.853   2.233
  140OSM   H11A15183   5.077   0.918   2.323
  140OSM   H11B15184   5.168   0.823   2.197
  140OSM      P15185   5.046   0.616   2.340
  140OSM    O1315186   4.971   0.499   2.287
  140OSM    O1415187   5.189   0.612   2.334
  140OSM    O1115188   4.994   0.644   2.489
  140OSM    O1215189   4.985   0.737   2.261
  140OSM    C1S15190   4.924   0.537   2.553
  140OSM    H1S15191   4.970   0.437   2.537
  140OSM    H1T15192   4.821   0.540   2.512
  140OSM     NF15193   4.867   0.450   2.774
  140OSM    HNF15194   4.776   0.461   2.815
  140OSM    C2S15195   4.919   0.567   2.701
  140OSM    H2S15196   5.027   0.579   2.726
  140OSM    C3S15197   4.830   0.691   2.722
  140OSM    H3S15198   4.728   0.653   2.698
  140OSM     O315199   4.845   0.811   2.647
  140OSM    HO315200   4.903   0.785   2.575
  140OSM    C4S15201   4.841   0.721   2.868
  140OSM    H4S15202   4.766   0.672   2.932
  140OSM    C5S15203   4.948   0.775   2.927
  140OSM    H5S15204   5.031   0.794   2.858
  140OSM    C6S15205   4.978   0.788   3.075
  140OSM    H6S15206   5.001   0.895   3.094
  140OSM    H6T15207   5.068   0.726   3.098
  140OSM    C7S15208   4.876   0.723   3.174
  140OSM    H7S15209   4.858   0.615   3.155
  140OSM    H7T15210   4.782   0.782   3.166
  140OSM    C8S15211   4.929   0.728   3.319
  140OSM    H8S15212   4.963   0.833   3.332
  140OSM    H8T15213   5.006   0.649   3.335
  140OSM    C9S15214   4.813   0.703   3.420
  140OSM    H9S15215   4.765   0.603   3.418
  140OSM    H9T15216   4.723   0.766   3.403
  140OSM   C10S15217   4.860   0.722   3.570
  140OSM   H10S15218   4.877   0.831   3.579
  140OSM   H10T15219   4.958   0.671   3.586
  140OSM   C11S15220   4.746   0.693   3.662
  140OSM   H11S15221   4.741   0.584   3.677
  140OSM   H11T15222   4.647   0.713   3.616
  140OSM   C12S15223   4.755   0.773   3.792
  140OSM   H12S15224   4.744   0.881   3.765
  140OSM   H12T15225   4.849   0.750   3.846
  140OSM   C13S15226   4.643   0.743   3.894
  140OSM   H13S15227   4.657   0.634   3.909
  140OSM   H13T15228   4.540   0.749   3.851
  140OSM   C14S15229   4.638   0.822   4.030
  140OSM   H14S15230   4.554   0.777   4.086
  140OSM   H14T15231   4.604   0.926   4.010
  140OSM   C15S15232   4.769   0.813   4.117
  140OSM   H15S15233   4.843   0.865   4.052
  140OSM   H15T15234   4.801   0.708   4.129
  140OSM   C16S15235   4.750   0.872   4.251
  140OSM   H16S15236   4.674   0.952   4.246
  140OSM   H16T15237   4.845   0.922   4.280
  140OSM   C17S15238   4.701   0.773   4.354
  140OSM   H17S15239   4.773   0.689   4.368
  140OSM   H17T15240   4.602   0.731   4.328
  140OSM   C18S15241   4.700   0.828   4.493
  140OSM   H18S15242   4.667   0.745   4.559
  140OSM   H18T15243   4.628   0.912   4.502
  140OSM   H18U15244   4.798   0.862   4.530
  140OSM    C1F15245   4.958   0.356   2.803
  140OSM     OF15246   5.071   0.369   2.758
  140OSM    C2F15247   4.916   0.238   2.873
  140OSM    H2F15248   4.878   0.170   2.794
  140OSM    H2G15249   4.835   0.258   2.947
  140OSM    C3F15250   5.027   0.179   2.959
  140OSM    H3F15251   5.117   0.157   2.897
  140OSM    H3G15252   4.995   0.085   3.009
  140OSM    C4F15253   5.063   0.272   3.080
  140OSM    H4F15254   5.111   0.362   3.036
  140OSM    H4G15255   5.150   0.225   3.130
  140OSM    C5F15256   4.940   0.299   3.163
  140OSM    H5F15257   4.902   0.209   3.215
  140OSM    H5G15258   4.858   0.354   3.112
  140OSM    C6F15259   4.982   0.386   3.283
  140OSM    H6F15260   4.881   0.422   3.310
  140OSM    H6G15261   5.059   0.457   3.246
  140OSM    C7F15262   5.030   0.316   3.419
  140OSM    H7F15263   5.060   0.404   3.479
  140OSM    H7G15264   5.107   0.240   3.394
  140OSM    C8F15265   4.925   0.253   3.512
  140OSM    H8F15266   4.873   0.175   3.452
  140OSM    H8G15267   4.852   0.331   3.544
  140OSM    C9F15268   4.983   0.186   3.634
  140OSM    H9F15269   4.996   0.077   3.622
  140OSM   C10F15270   5.021   0.250   3.742
  140OSM   H10F15271   5.072   0.190   3.819
  140OSM   C11F15272   5.007   0.392   3.795
  140OSM   H11F15273   5.001   0.468   3.714
  140OSM   H11G15274   5.085   0.417   3.870
  140OSM   C12F15275   4.874   0.398   3.874
  140OSM   H12F15276   4.789   0.352   3.821
  140OSM   H12G15277   4.866   0.509   3.887
  140OSM   C13F15278   4.887   0.373   4.025
  140OSM   H13F15279   4.958   0.450   4.063
  140OSM   H13G15280   4.937   0.278   4.053
  140OSM   C14F15281   4.755   0.387   4.108
  140OSM   H14F15282   4.682   0.305   4.092
  140OSM   H14G15283   4.712   0.486   4.082
  140OSM   C15F15284   4.777   0.374   4.256
  140OSM   H15F15285   4.855   0.453   4.255
  140OSM   H15G15286   4.825   0.276   4.276
  140OSM   C16F15287   4.644   0.396   4.332
  140OSM   H16F15288   4.582   0.305   4.324
  140OSM   H16G15289   4.590   0.484   4.291
  140OSM   C17F15290   4.673   0.420   4.481
  140OSM   H17F15291   4.580   0.422   4.542
  140OSM   H17G15292   4.708   0.526   4.489
  140OSM   C18F15293   4.775   0.325   4.544
  140OSM   H18F15294   4.876   0.340   4.500
  140OSM   H18G15295   4.744   0.219   4.528
  140OSM   H18H15296   4.780   0.345   4.653
  141OSM      N15297   0.391   3.878   1.968
  141OSM    C1515298   0.403   3.751   2.041
  141OSM   H15A15299   0.307   3.712   2.071
  141OSM   H15B15300   0.456   3.769   2.133
  141OSM   H15C15301   0.448   3.671   1.983
  141OSM    C1415302   0.507   3.897   1.880
  141OSM   H14A15303   0.514   3.810   1.817
  141OSM   H14B15304   0.594   3.913   1.943
  141OSM   H14C15305   0.492   3.985   1.819
  141OSM    C1315306   0.277   3.879   1.860
  141OSM   H13A15307   0.296   3.971   1.808
  141OSM   H13B15308   0.181   3.887   1.908
  141OSM   H13C15309   0.286   3.795   1.792
  141OSM    C1215310   0.361   4.000   2.063
  141OSM   H12A15311   0.257   3.988   2.090
  141OSM   H12B15312   0.356   4.091   2.005
  141OSM    C1115313   0.440   4.020   2.192
  141OSM   H11A15314   0.467   3.920   2.233
  141OSM   H11B15315   0.376   4.062   2.272
  141OSM      P15316   0.572   4.232   2.198
  141OSM    O1315317   0.681   4.298   2.120
  141OSM    O1415318   0.439   4.290   2.191
  141OSM    O1115319   0.601   4.222   2.355
  141OSM    O1215320   0.562   4.082   2.165
  141OSM    C1S15321   0.688   4.120   2.406
  141OSM    H1S15322   0.791   4.124   2.363
  141OSM    H1T15323   0.659   4.016   2.381
  141OSM     NF15324   0.758   4.008   2.610
  141OSM    HNF15325   0.703   3.931   2.640
  141OSM    C2S15326   0.685   4.122   2.558
  141OSM    H2S15327   0.731   4.214   2.599
  141OSM    C3S15328   0.537   4.129   2.613
  141OSM    H3S15329   0.484   4.046   2.562
  141OSM     O315330   0.453   4.228   2.567
  141OSM    HO315331   0.495   4.258   2.486
  141OSM    C4S15332   0.521   4.101   2.768
  141OSM    H4S15333   0.522   3.994   2.792
  141OSM    C5S15334   0.514   4.196   2.861
  141OSM    H5S15335   0.498   4.299   2.826
  141OSM    C6S15336   0.502   4.179   3.008
  141OSM    H6S15337   0.526   4.280   3.046
  141OSM    H6T15338   0.583   4.110   3.041
  141OSM    C7S15339   0.371   4.145   3.075
  141OSM    H7S15340   0.354   4.036   3.057
  141OSM    H7T15341   0.282   4.194   3.029
  141OSM    C8S15342   0.378   4.167   3.224
  141OSM    H8S15343   0.279   4.133   3.260
  141OSM    H8T15344   0.396   4.268   3.265
  141OSM    C9S15345   0.473   4.065   3.296
  141OSM    H9S15346   0.581   4.072   3.268
  141OSM    H9T15347   0.432   3.965   3.271
  141OSM   C10S15348   0.459   4.072   3.445
  141OSM   H10S15349   0.511   3.988   3.497
  141OSM   H10T15350   0.351   4.058   3.468
  141OSM   C11S15351   0.503   4.196   3.511
  141OSM   H11S15352   0.459   4.286   3.462
  141OSM   H11T15353   0.611   4.193   3.488
  141OSM   C12S15354   0.453   4.197   3.657
  141OSM   H12S15355   0.488   4.102   3.703
  141OSM   H12T15356   0.342   4.199   3.657
  141OSM   C13S15357   0.515   4.312   3.733
  141OSM   H13S15358   0.475   4.411   3.703
  141OSM   H13T15359   0.624   4.302   3.712
  141OSM   C14S15360   0.499   4.293   3.889
  141OSM   H14S15361   0.546   4.198   3.920
  141OSM   H14T15362   0.390   4.279   3.908
  141OSM   C15S15363   0.550   4.415   3.966
  141OSM   H15S15364   0.512   4.512   3.928
  141OSM   H15T15365   0.661   4.412   3.969
  141OSM   C16S15366   0.504   4.394   4.109
  141OSM   H16S15367   0.568   4.306   4.134
  141OSM   H16T15368   0.399   4.365   4.126
  141OSM   C17S15369   0.524   4.516   4.201
  141OSM   H17S15370   0.467   4.598   4.152
  141OSM   H17T15371   0.629   4.552   4.201
  141OSM   C18S15372   0.479   4.497   4.341
  141OSM   H18S15373   0.491   4.594   4.393
  141OSM   H18T15374   0.535   4.415   4.392
  141OSM   H18U15375   0.371   4.471   4.349
  141OSM    C1F15376   0.890   4.002   2.626
  141OSM     OF15377   0.962   4.095   2.585
  141OSM    C2F15378   0.942   3.877   2.698
  141OSM    H2F15379   0.937   3.792   2.627
  141OSM    H2G15380   0.881   3.854   2.789
  141OSM    C3F15381   1.096   3.889   2.738
  141OSM    H3F15382   1.128   3.995   2.727
  141OSM    H3G15383   1.148   3.837   2.655
  141OSM    C4F15384   1.143   3.835   2.871
  141OSM    H4F15385   1.249   3.803   2.860
  141OSM    H4G15386   1.086   3.743   2.895
  141OSM    C5F15387   1.135   3.941   2.986
  141OSM    H5F15388   1.030   3.974   2.969
  141OSM    H5G15389   1.213   4.013   2.952
  141OSM    C6F15390   1.160   3.887   3.123
  141OSM    H6F15391   1.269   3.892   3.145
  141OSM    H6G15392   1.131   3.781   3.135
  141OSM    C7F15393   1.074   3.962   3.226
  141OSM    H7F15394   1.072   4.073   3.214
  141OSM    H7G15395   1.118   3.953   3.327
  141OSM    C8F15396   0.938   3.901   3.243
  141OSM    H8F15397   0.931   3.800   3.289
  141OSM    H8G15398   0.892   3.901   3.142
  141OSM    C9F15399   0.850   3.996   3.317
  141OSM    H9F15400   0.779   4.050   3.253
  141OSM   C10F15401   0.832   4.004   3.449
  141OSM   H10F15402   0.771   4.090   3.483
  141OSM   C11F15403   0.893   3.928   3.564
  141OSM   H11F15404   0.978   3.985   3.608
  141OSM   H11G15405   0.920   3.825   3.531
  141OSM   C12F15406   0.772   3.905   3.666
  141OSM   H12F15407   0.695   3.852   3.607
  141OSM   H12G15408   0.722   3.999   3.697
  141OSM   C13F15409   0.820   3.832   3.796
  141OSM   H13F15410   0.881   3.741   3.779
  141OSM   H13G15411   0.734   3.816   3.864
  141OSM   C14F15412   0.922   3.920   3.877
  141OSM   H14F15413   0.878   4.019   3.900
  141OSM   H14G15414   1.009   3.938   3.810
  141OSM   C15F15415   0.955   3.870   4.012
  141OSM   H15F15416   0.868   3.903   4.074
  141OSM   H15G15417   1.050   3.915   4.047
  141OSM   C16F15418   0.962   3.716   4.040
  141OSM   H16F15419   1.022   3.670   3.958
  141OSM   H16G15420   0.860   3.675   4.029
  141OSM   C17F15421   1.038   3.694   4.174
  141OSM   H17F15422   0.981   3.745   4.254
  141OSM   H17G15423   1.143   3.730   4.174
  141OSM   C18F15424   1.045   3.539   4.213
  141OSM   H18F15425   1.105   3.475   4.145
  141OSM   H18G15426   0.939   3.506   4.210
  141OSM   H18H15427   1.069   3.522   4.320
  142OSM      N15428   1.264   4.929   1.459
  142OSM    C1515429   1.378   5.000   1.403
  142OSM   H15A15430   1.418   4.946   1.319
  142OSM   H15B15431   1.452   5.007   1.481
  142OSM   H15C15432   1.348   5.095   1.361
  142OSM    C1415433   1.149   4.920   1.362
  142OSM   H14A15434   1.107   5.019   1.353
  142OSM   H14B15435   1.072   4.860   1.407
  142OSM   H14C15436   1.189   4.872   1.274
  142OSM    C1315437   1.303   4.789   1.500
  142OSM   H13A15438   1.316   4.729   1.411
  142OSM   H13B15439   1.234   4.754   1.574
  142OSM   H13C15440   1.398   4.806   1.549
  142OSM    C1215441   1.214   4.988   1.583
  142OSM   H12A15442   1.137   4.923   1.622
  142OSM   H12B15443   1.164   5.083   1.571
  142OSM    C1115444   1.308   5.010   1.709
  142OSM   H11A15445   1.353   4.911   1.733
  142OSM   H11B15446   1.243   5.032   1.796
  142OSM      P15447   1.360   5.259   1.697
  142OSM    O1315448   1.464   5.348   1.635
  142OSM    O1415449   1.221   5.265   1.650
  142OSM    O1115450   1.351   5.315   1.857
  142OSM    O1215451   1.412   5.108   1.694
  142OSM    C1S15452   1.453   5.402   1.901
  142OSM    H1S15453   1.445   5.508   1.871
  142OSM    H1T15454   1.555   5.360   1.884
  142OSM     NF15455   1.570   5.490   2.102
  142OSM    HNF15456   1.656   5.442   2.120
  142OSM    C2S15457   1.458   5.406   2.059
  142OSM    H2S15458   1.363   5.454   2.091
  142OSM    C3S15459   1.462   5.259   2.114
  142OSM    H3S15460   1.543   5.203   2.063
  142OSM     O315461   1.350   5.174   2.069
  142OSM    HO315462   1.334   5.211   1.982
  142OSM    C4S15463   1.491   5.259   2.261
  142OSM    H4S15464   1.596   5.234   2.283
  142OSM    C5S15465   1.390   5.278   2.352
  142OSM    H5S15466   1.289   5.301   2.316
  142OSM    C6S15467   1.416   5.285   2.502
  142OSM    H6S15468   1.472   5.194   2.531
  142OSM    H6T15469   1.320   5.292   2.557
  142OSM    C7S15470   1.503   5.405   2.539
  142OSM    H7S15471   1.444   5.498   2.531
  142OSM    H7T15472   1.589   5.415   2.469
  142OSM    C8S15473   1.553   5.398   2.683
  142OSM    H8S15474   1.650   5.452   2.692
  142OSM    H8T15475   1.571   5.291   2.708
  142OSM    C9S15476   1.454   5.471   2.778
  142OSM    H9S15477   1.359   5.413   2.771
  142OSM    H9T15478   1.427   5.570   2.736
  142OSM   C10S15479   1.509   5.475   2.920
  142OSM   H10S15480   1.549   5.375   2.948
  142OSM   H10T15481   1.428   5.515   2.984
  142OSM   C11S15482   1.617   5.584   2.936
  142OSM   H11S15483   1.583   5.682   2.896
  142OSM   H11T15484   1.698   5.546   2.870
  142OSM   C12S15485   1.673   5.595   3.080
  142OSM   H12S15486   1.704   5.493   3.112
  142OSM   H12T15487   1.591   5.615   3.152
  142OSM   C13S15488   1.770   5.716   3.095
  142OSM   H13S15489   1.707   5.788   3.038
  142OSM   H13T15490   1.870   5.683   3.060
  142OSM   C14S15491   1.782   5.769   3.244
  142OSM   H14S15492   1.683   5.803   3.282
  142OSM   H14T15493   1.849   5.857   3.235
  142OSM   C15S15494   1.851   5.674   3.342
  142OSM   H15S15495   1.806   5.573   3.351
  142OSM   H15T15496   1.856   5.704   3.449
  142OSM   C16S15497   2.001   5.654   3.303
  142OSM   H16S15498   2.047   5.751   3.275
  142OSM   H16T15499   1.993   5.593   3.210
  142OSM   C17S15500   2.083   5.592   3.408
  142OSM   H17S15501   2.043   5.490   3.424
  142OSM   H17T15502   2.063   5.631   3.510
  142OSM   C18S15503   2.241   5.598   3.392
  142OSM   H18S15504   2.266   5.707   3.388
  142OSM   H18T15505   2.281   5.550   3.300
  142OSM   H18U15506   2.274   5.546   3.484
  142OSM    C1F15507   1.563   5.622   2.094
  142OSM     OF15508   1.458   5.684   2.076
  142OSM    C2F15509   1.687   5.703   2.107
  142OSM    H2F15510   1.697   5.770   2.018
  142OSM    H2G15511   1.779   5.643   2.119
  142OSM    C3F15512   1.680   5.807   2.221
  142OSM    H3F15513   1.591   5.873   2.213
  142OSM    H3G15514   1.762   5.878   2.196
  142OSM    C4F15515   1.710   5.756   2.364
  142OSM    H4F15516   1.817   5.726   2.364
  142OSM    H4G15517   1.640   5.673   2.385
  142OSM    C5F15518   1.693   5.862   2.476
  142OSM    H5F15519   1.590   5.902   2.467
  142OSM    H5G15520   1.759   5.949   2.460
  142OSM    C6F15521   1.735   5.799   2.605
  142OSM    H6F15522   1.839   5.760   2.603
  142OSM    H6G15523   1.680   5.704   2.621
  142OSM    C7F15524   1.726   5.875   2.734
  142OSM    H7F15525   1.755   5.802   2.813
  142OSM    H7G15526   1.622   5.911   2.748
  142OSM    C8F15527   1.824   6.003   2.743
  142OSM    H8F15528   1.792   6.063   2.831
  142OSM    H8G15529   1.800   6.060   2.650
  142OSM    C9F15530   1.973   5.973   2.745
  142OSM    H9F15531   2.004   5.901   2.668
  142OSM   C10F15532   2.058   6.025   2.835
  142OSM   H10F15533   2.165   6.000   2.830
  142OSM   C11F15534   2.033   6.130   2.940
  142OSM   H11F15535   1.945   6.191   2.911
  142OSM   H11G15536   2.117   6.201   2.958
  142OSM   C12F15537   1.983   6.072   3.069
  142OSM   H12F15538   1.916   5.985   3.051
  142OSM   H12G15539   1.934   6.160   3.118
  142OSM   C13F15540   2.083   6.023   3.174
  142OSM   H13F15541   2.147   5.947   3.123
  142OSM   H13G15542   2.023   5.978   3.256
  142OSM   C14F15543   2.161   6.141   3.240
  142OSM   H14F15544   2.090   6.221   3.271
  142OSM   H14G15545   2.224   6.180   3.157
  142OSM   C15F15546   2.250   6.084   3.350
  142OSM   H15F15547   2.290   5.986   3.317
  142OSM   H15G15548   2.172   6.061   3.425
  142OSM   C16F15549   2.361   6.177   3.394
  142OSM   H16F15550   2.319   6.277   3.419
  142OSM   H16G15551   2.433   6.196   3.311
  142OSM   C17F15552   2.429   6.122   3.518
  142OSM   H17F15553   2.352   6.117   3.598
  142OSM   H17G15554   2.515   6.189   3.541
  142OSM   C18F15555   2.487   5.980   3.505
  142OSM   H18F15556   2.549   5.973   3.414
  142OSM   H18G15557   2.414   5.896   3.502
  142OSM   H18H15558   2.539   5.957   3.601
  143OSM      N15559   1.280   4.187   1.941
  143OSM    C1515560   1.146   4.223   1.903
  143OSM   H15A15561   1.134   4.330   1.912
  143OSM   H15B15562   1.079   4.174   1.972
  143OSM   H15C15563   1.120   4.181   1.808
  143OSM    C1415564   1.273   4.135   2.080
  143OSM   H14A15565   1.215   4.198   2.145
  143OSM   H14B15566   1.369   4.132   2.129
  143OSM   H14C15567   1.219   4.041   2.078
  143OSM    C1315568   1.330   4.072   1.862
  143OSM   H13A15569   1.289   4.077   1.763
  143OSM   H13B15570   1.314   3.979   1.915
  143OSM   H13C15571   1.438   4.075   1.849
  143OSM    C1215572   1.368   4.310   1.927
  143OSM   H12A15573   1.379   4.334   1.823
  143OSM   H12B15574   1.462   4.288   1.975
  143OSM    C1115575   1.317   4.444   1.996
  143OSM   H11A15576   1.415   4.498   1.993
  143OSM   H11B15577   1.291   4.436   2.104
  143OSM      P15578   1.225   4.632   1.842
  143OSM    O1315579   1.358   4.642   1.774
  143OSM    O1415580   1.107   4.664   1.760
  143OSM    O1115581   1.231   4.737   1.961
  143OSM    O1215582   1.208   4.499   1.923
  143OSM    C1S15583   1.116   4.745   2.043
  143OSM    H1S15584   1.031   4.681   2.010
  143OSM    H1T15585   1.080   4.850   2.045
  143OSM     NF15586   1.045   4.752   2.285
  143OSM    HNF15587   1.058   4.836   2.337
  143OSM    C2S15588   1.150   4.714   2.190
  143OSM    H2S15589   1.148   4.603   2.189
  143OSM    C3S15590   1.295   4.777   2.223
  143OSM    H3S15591   1.291   4.881   2.184
  143OSM     O315592   1.406   4.709   2.164
  143OSM    HO315593   1.352   4.640   2.124
  143OSM    C4S15594   1.327   4.782   2.367
  143OSM    H4S15595   1.355   4.685   2.410
  143OSM    C5S15596   1.359   4.881   2.452
  143OSM    H5S15597   1.368   4.985   2.416
  143OSM    C6S15598   1.416   4.850   2.585
  143OSM    H6S15599   1.484   4.929   2.624
  143OSM    H6T15600   1.479   4.759   2.593
  143OSM    C7S15601   1.305   4.822   2.692
  143OSM    H7S15602   1.242   4.739   2.655
  143OSM    H7T15603   1.239   4.910   2.706
  143OSM    C8S15604   1.367   4.808   2.836
  143OSM    H8S15605   1.284   4.803   2.910
  143OSM    H8T15606   1.435   4.891   2.864
  143OSM    C9S15607   1.445   4.678   2.852
  143OSM    H9S15608   1.527   4.682   2.777
  143OSM    H9T15609   1.375   4.594   2.834
  143OSM   C10S15610   1.494   4.642   2.995
  143OSM   H10S15611   1.557   4.731   3.015
  143OSM   H10T15612   1.559   4.552   2.992
  143OSM   C11S15613   1.387   4.642   3.103
  143OSM   H11S15614   1.316   4.560   3.078
  143OSM   H11T15615   1.335   4.741   3.103
  143OSM   C12S15616   1.439   4.611   3.243
  143OSM   H12S15617   1.522   4.679   3.271
  143OSM   H12T15618   1.480   4.508   3.253
  143OSM   C13S15619   1.336   4.649   3.346
  143OSM   H13S15620   1.277   4.556   3.358
  143OSM   H13T15621   1.276   4.734   3.306
  143OSM   C14S15622   1.389   4.715   3.477
  143OSM   H14S15623   1.450   4.800   3.441
  143OSM   H14T15624   1.437   4.631   3.531
  143OSM   C15S15625   1.275   4.768   3.558
  143OSM   H15S15626   1.200   4.686   3.567
  143OSM   H15T15627   1.225   4.856   3.511
  143OSM   C16S15628   1.319   4.801   3.706
  143OSM   H16S15629   1.231   4.847   3.755
  143OSM   H16T15630   1.394   4.883   3.712
  143OSM   C17S15631   1.368   4.684   3.790
  143OSM   H17S15632   1.460   4.638   3.747
  143OSM   H17T15633   1.289   4.606   3.792
  143OSM   C18S15634   1.395   4.730   3.937
  143OSM   H18S15635   1.480   4.802   3.932
  143OSM   H18T15636   1.404   4.646   4.009
  143OSM   H18U15637   1.308   4.793   3.965
  143OSM    C1F15638   0.920   4.701   2.281
  143OSM     OF15639   0.882   4.643   2.182
  143OSM    C2F15640   0.826   4.735   2.397
  143OSM    H2F15641   0.773   4.832   2.382
  143OSM    H2G15642   0.902   4.742   2.478
  143OSM    C3F15643   0.720   4.627   2.428
  143OSM    H3F15644   0.774   4.535   2.459
  143OSM    H3G15645   0.660   4.589   2.343
  143OSM    C4F15646   0.626   4.671   2.538
  143OSM    H4F15647   0.570   4.764   2.515
  143OSM    H4G15648   0.692   4.686   2.626
  143OSM    C5F15649   0.541   4.551   2.574
  143OSM    H5F15650   0.603   4.467   2.611
  143OSM    H5G15651   0.499   4.507   2.482
  143OSM    C6F15652   0.435   4.587   2.681
  143OSM    H6F15653   0.351   4.514   2.679
  143OSM    H6G15654   0.395   4.688   2.658
  143OSM    C7F15655   0.510   4.597   2.817
  143OSM    H7F15656   0.587   4.677   2.820
  143OSM    H7G15657   0.566   4.502   2.831
  143OSM    C8F15658   0.415   4.645   2.931
  143OSM    H8F15659   0.372   4.740   2.894
  143OSM    H8G15660   0.483   4.665   3.017
  143OSM    C9F15661   0.316   4.535   2.970
  143OSM    H9F15662   0.256   4.493   2.887
  143OSM   C10F15663   0.292   4.493   3.090
  143OSM   H10F15664   0.202   4.430   3.101
  143OSM   C11F15665   0.347   4.551   3.223
  143OSM   H11F15666   0.376   4.658   3.215
  143OSM   H11G15667   0.437   4.491   3.247
  143OSM   C12F15668   0.249   4.536   3.344
  143OSM   H12F15669   0.205   4.435   3.359
  143OSM   H12G15670   0.168   4.610   3.326
  143OSM   C13F15671   0.301   4.574   3.486
  143OSM   H13F15672   0.353   4.673   3.480
  143OSM   H13G15673   0.365   4.493   3.527
  143OSM   C14F15674   0.192   4.577   3.588
  143OSM   H14F15675   0.114   4.498   3.576
  143OSM   H14G15676   0.141   4.675   3.579
  143OSM   C15F15677   0.238   4.585   3.739
  143OSM   H15F15678   0.322   4.658   3.737
  143OSM   H15G15679   0.280   4.486   3.768
  143OSM   C16F15680   0.146   4.636   3.843
  143OSM   H16F15681   0.045   4.594   3.821
  143OSM   H16G15682   0.135   4.746   3.833
  143OSM   C17F15683   0.176   4.596   3.988
  143OSM   H17F15684   0.283   4.618   4.009
  143OSM   H17G15685   0.158   4.486   3.993
  143OSM   C18F15686   0.087   4.664   4.091
  143OSM   H18F15687   0.056   4.766   4.059
  143OSM   H18G15688   0.144   4.651   4.186
  143OSM   H18H15689   6.806   4.610   4.107
  144OSM      N15690   0.273   5.533   1.738
  144OSM    C1515691   0.137   5.559   1.798
  144OSM   H15A15692   0.100   5.660   1.784
  144OSM   H15B15693   0.152   5.569   1.904
  144OSM   H15C15694   0.082   5.466   1.791
  144OSM    C1415695   0.317   5.388   1.759
  144OSM   H14A15696   0.403   5.355   1.704
  144OSM   H14B15697   0.231   5.335   1.720
  144OSM   H14C15698   0.318   5.356   1.862
  144OSM    C1315699   0.250   5.546   1.587
  144OSM   H13A15700   0.195   5.637   1.570
  144OSM   H13B15701   0.174   5.478   1.551
  144OSM   H13C15702   0.336   5.531   1.524
  144OSM    C1215703   0.374   5.634   1.792
  144OSM   H12A15704   0.326   5.731   1.797
  144OSM   H12B15705   0.463   5.637   1.730
  144OSM    C1115706   0.411   5.603   1.939
  144OSM   H11A15707   0.485   5.675   1.978
  144OSM   H11B15708   0.472   5.511   1.928
  144OSM      P15709   0.328   5.488   2.147
  144OSM    O1315710   0.223   5.492   2.248
  144OSM    O1415711   0.361   5.355   2.085
  144OSM    O1115712   0.461   5.551   2.212
  144OSM    O1215713   0.298   5.597   2.035
  144OSM    C1S15714   0.467   5.683   2.268
  144OSM    H1S15715   0.390   5.752   2.228
  144OSM    H1T15716   0.563   5.738   2.256
  144OSM     NF15717   0.413   5.799   2.489
  144OSM    HNF15718   0.487   5.838   2.543
  144OSM    C2S15719   0.430   5.670   2.417
  144OSM    H2S15720   0.331   5.619   2.416
  144OSM    C3S15721   0.527   5.569   2.491
  144OSM    H3S15722   0.625   5.621   2.504
  144OSM     O315723   0.555   5.447   2.425
  144OSM    HO315724   0.505   5.472   2.347
  144OSM    C4S15725   0.479   5.554   2.635
  144OSM    H4S15726   0.540   5.608   2.708
  144OSM    C5S15727   0.367   5.483   2.670
  144OSM    H5S15728   0.294   5.434   2.604
  144OSM    C6S15729   0.324   5.453   2.816
  144OSM    H6S15730   0.290   5.348   2.827
  144OSM    H6T15731   0.227   5.508   2.823
  144OSM    C7S15732   0.425   5.484   2.926
  144OSM    H7S15733   0.457   5.590   2.929
  144OSM    H7T15734   0.516   5.426   2.900
  144OSM    C8S15735   0.382   5.439   3.068
  144OSM    H8S15736   0.350   5.333   3.057
  144OSM    H8T15737   0.297   5.496   3.112
  144OSM    C9S15738   0.489   5.432   3.178
  144OSM    H9S15739   0.526   5.537   3.183
  144OSM    H9T15740   0.570   5.364   3.145
  144OSM   C10S15741   0.431   5.386   3.311
  144OSM   H10S15742   0.401   5.279   3.316
  144OSM   H10T15743   0.336   5.441   3.329
  144OSM   C11S15744   0.534   5.425   3.421
  144OSM   H11S15745   0.473   5.436   3.513
  144OSM   H11T15746   0.583   5.524   3.408
  144OSM   C12S15747   0.645   5.321   3.436
  144OSM   H12S15748   0.711   5.335   3.348
  144OSM   H12T15749   0.608   5.216   3.431
  144OSM   C13S15750   0.728   5.332   3.567
  144OSM   H13S15751   0.818   5.393   3.547
  144OSM   H13T15752   0.750   5.225   3.587
  144OSM   C14S15753   0.656   5.410   3.678
  144OSM   H14S15754   0.556   5.365   3.700
  144OSM   H14T15755   0.638   5.512   3.637
  144OSM   C15S15756   0.732   5.424   3.810
  144OSM   H15S15757   0.827   5.482   3.799
  144OSM   H15T15758   0.768   5.327   3.852
  144OSM   C16S15759   0.650   5.509   3.908
  144OSM   H16S15760   0.549   5.467   3.929
  144OSM   H16T15761   0.623   5.610   3.873
  144OSM   C17S15762   0.710   5.514   4.046
  144OSM   H17S15763   0.720   5.405   4.068
  144OSM   H17T15764   0.639   5.550   4.123
  144OSM   C18S15765   0.860   5.563   4.067
  144OSM   H18S15766   0.883   5.555   4.176
  144OSM   H18T15767   0.869   5.672   4.049
  144OSM   H18U15768   0.922   5.506   3.995
  144OSM    C1F15769   0.312   5.883   2.459
  144OSM     OF15770   0.217   5.848   2.389
  144OSM    C2F15771   0.309   6.017   2.531
  144OSM    H2F15772   0.205   6.055   2.537
  144OSM    H2G15773   0.367   6.086   2.466
  144OSM    C3F15774   0.396   6.032   2.664
  144OSM    H3F15775   0.398   6.139   2.692
  144OSM    H3G15776   0.501   6.006   2.639
  144OSM    C4F15777   0.340   5.958   2.786
  144OSM    H4F15778   0.328   5.850   2.766
  144OSM    H4G15779   0.234   5.991   2.799
  144OSM    C5F15780   0.431   5.981   2.909
  144OSM    H5F15781   0.468   6.085   2.913
  144OSM    H5G15782   0.511   5.904   2.900
  144OSM    C6F15783   0.348   5.959   3.036
  144OSM    H6F15784   0.258   5.902   3.005
  144OSM    H6G15785   0.314   6.060   3.065
  144OSM    C7F15786   0.424   5.883   3.143
  144OSM    H7F15787   0.520   5.926   3.178
  144OSM    H7G15788   0.438   5.784   3.093
  144OSM    C8F15789   0.340   5.858   3.274
  144OSM    H8F15790   0.251   5.796   3.248
  144OSM    H8G15791   0.302   5.952   3.319
  144OSM    C9F15792   0.413   5.768   3.374
  144OSM    H9F15793   0.454   5.679   3.324
  144OSM   C10F15794   0.428   5.792   3.504
  144OSM   H10F15795   0.476   5.711   3.560
  144OSM   C11F15796   0.386   5.912   3.579
  144OSM   H11F15797   0.306   5.886   3.652
  144OSM   H11G15798   0.348   5.991   3.511
  144OSM   C12F15799   0.503   5.980   3.651
  144OSM   H12F15800   0.459   6.072   3.694
  144OSM   H12G15801   0.578   6.010   3.575
  144OSM   C13F15802   0.560   5.888   3.767
  144OSM   H13F15803   0.608   5.798   3.723
  144OSM   H13G15804   0.477   5.846   3.829
  144OSM   C14F15805   0.654   5.966   3.856
  144OSM   H14F15806   0.611   6.063   3.889
  144OSM   H14G15807   0.752   5.989   3.810
  144OSM   C15F15808   0.681   5.887   3.979
  144OSM   H15F15809   0.738   5.794   3.956
  144OSM   H15G15810   0.584   5.863   4.026
  144OSM   C16F15811   0.790   5.958   4.068
  144OSM   H16F15812   0.769   6.067   4.067
  144OSM   H16G15813   0.883   5.948   4.008
  144OSM   C17F15814   0.797   5.895   4.209
  144OSM   H17F15815   0.840   5.792   4.206
  144OSM   H17G15816   0.689   5.874   4.227
  144OSM   C18F15817   0.843   5.981   4.327
  144OSM   H18F15818   0.763   6.044   4.372
  144OSM   H18G15819   0.930   6.040   4.293
  144OSM   H18H15820   0.879   5.908   4.403
  145SAPE     N15821   1.409   0.934   6.509
  145SAPE   HN115822   1.386   1.027   6.548
  145SAPE   HN215823   1.355   0.864   6.564
  145SAPE   HN315824   1.506   0.910   6.539
  145SAPE   C1215825   1.397   0.903   6.362
  145SAPE  H12A15826   1.419   0.795   6.351
  145SAPE  H12B15827   1.489   0.953   6.324
  145SAPE   C1115828   1.263   0.946   6.299
  145SAPE  H11A15829   1.259   0.925   6.190
  145SAPE  H11B15830   1.261   1.056   6.315
  145SAPE     P15831   1.084   0.748   6.314
  145SAPE   O1315832   1.101   0.630   6.407
  145SAPE   O1415833   0.940   0.785   6.286
  145SAPE   O1215834   1.163   0.874   6.366
  145SAPE   O1115835   1.155   0.704   6.178
  145SAPE    C115836   1.091   0.683   6.060
  145SAPE    HA15837   1.158   0.618   5.999
  145SAPE    HB15838   1.005   0.615   6.078
  145SAPE    C215839   1.050   0.802   5.976
  145SAPE    HS15840   1.023   0.881   6.049
  145SAPE   O2115841   0.926   0.763   5.913
  145SAPE   C2115842   0.835   0.854   5.909
  145SAPE   O2215843   0.848   0.976   5.929
  145SAPE   C2215844   0.700   0.788   5.874
  145SAPE   H2R15845   0.718   0.682   5.847
  145SAPE   H2S15846   0.653   0.784   5.975
  145SAPE    C315847   1.168   0.826   5.885
  145SAPE    HX15848   1.196   0.730   5.838
  145SAPE    HY15849   1.243   0.865   5.957
  145SAPE   O3115850   1.140   0.925   5.781
  145SAPE   C3115851   1.174   1.048   5.805
  145SAPE   O3215852   1.226   1.100   5.902
  145SAPE   C3215853   1.121   1.125   5.687
  145SAPE   H2X15854   1.010   1.122   5.685
  145SAPE   H2Y15855   1.154   1.075   5.593
  145SAPE   C2315856   0.605   0.863   5.778
  145SAPE   H3R15857   0.612   0.970   5.804
  145SAPE   H3S15858   0.506   0.817   5.802
  145SAPE   C2415859   0.630   0.842   5.623
  145SAPE   H4R15860   0.544   0.880   5.563
  145SAPE   H4S15861   0.637   0.736   5.591
  145SAPE   C2515862   0.760   0.903   5.577
  145SAPE   H5R15863   0.840   0.887   5.651
  145SAPE   C2615864   0.784   0.968   5.462
  145SAPE   H6R15865   0.891   0.987   5.445
  145SAPE   C2715866   0.680   0.992   5.353
  145SAPE   H7R15867   0.598   1.043   5.408
  145SAPE   H7S15868   0.644   0.893   5.318
  145SAPE   C2815869   0.724   1.080   5.243
  145SAPE   H8R15870   0.751   1.179   5.282
  145SAPE   C2915871   0.717   1.063   5.106
  145SAPE   H9R15872   0.759   1.135   5.034
  145SAPE  C21015873   0.654   0.947   5.032
  145SAPE  H10R15874   0.594   0.876   5.094
  145SAPE  H10S15875   0.733   0.887   4.982
  145SAPE  C21115876   0.561   0.997   4.921
  145SAPE  H11R15877   0.464   1.039   4.950
  145SAPE  C21215878   0.577   0.986   4.788
  145SAPE  H12R15879   0.496   1.017   4.720
  145SAPE  C21315880   0.695   0.924   4.711
  145SAPE  H13R15881   0.661   0.878   4.616
  145SAPE  H13S15882   0.752   0.845   4.765
  145SAPE  C21415883   0.796   1.027   4.672
  145SAPE  H14R15884   0.761   1.131   4.678
  145SAPE  C21515885   0.920   0.997   4.624
  145SAPE  H15R15886   0.990   1.082   4.617
  145SAPE  C21615887   0.976   0.857   4.632
  145SAPE  H16R15888   0.890   0.788   4.621
  145SAPE  H16S15889   1.031   0.839   4.727
  145SAPE  C21715890   1.066   0.843   4.506
  145SAPE  H17R15891   1.124   0.749   4.519
  145SAPE  H17S15892   1.148   0.916   4.494
  145SAPE  C21815893   0.995   0.828   4.372
  145SAPE  H18R15894   0.970   0.932   4.343
  145SAPE  H18S15895   0.897   0.778   4.390
  145SAPE  C21915896   1.073   0.766   4.253
  145SAPE  H19R15897   1.008   0.775   4.163
  145SAPE  H19S15898   1.089   0.659   4.281
  145SAPE  C22015899   1.217   0.827   4.230
  145SAPE  H20R15900   1.276   0.831   4.324
  145SAPE  H20S15901   1.217   0.930   4.188
  145SAPE  H20T15902   1.272   0.753   4.168
  145SAPE   C3315903   1.145   1.278   5.683
  145SAPE   H3X15904   1.244   1.306   5.724
  145SAPE   H3Y15905   1.070   1.330   5.746
  145SAPE   C3415906   1.134   1.326   5.538
  145SAPE   H4X15907   1.223   1.283   5.488
  145SAPE   H4Y15908   1.150   1.436   5.541
  145SAPE   C3515909   1.004   1.304   5.458
  145SAPE   H5X15910   0.941   1.392   5.484
  145SAPE   H5Y15911   0.950   1.213   5.489
  145SAPE   C3615912   1.025   1.299   5.314
  145SAPE   H6X15913   1.011   1.194   5.280
  145SAPE   H6Y15914   1.127   1.331   5.284
  145SAPE   C3715915   0.935   1.395   5.233
  145SAPE   H7X15916   0.967   1.498   5.261
  145SAPE   H7Y15917   0.828   1.373   5.255
  145SAPE   C3815918   0.945   1.377   5.079
  145SAPE   H8X15919   0.932   1.268   5.061
  145SAPE   H8Y15920   1.048   1.400   5.046
  145SAPE   C3915921   0.828   1.430   4.992
  145SAPE   H9X15922   0.823   1.539   5.015
  145SAPE   H9Y15923   0.738   1.378   5.031
  145SAPE  C31015924   0.847   1.399   4.840
  145SAPE  H10X15925   0.875   1.292   4.836
  145SAPE  H10Y15926   0.933   1.450   4.792
  145SAPE  C31115927   0.719   1.415   4.756
  145SAPE  H11X15928   0.669   1.500   4.806
  145SAPE  H11Y15929   0.652   1.327   4.769
  145SAPE  C31215930   0.750   1.461   4.614
  145SAPE  H12X15931   0.817   1.549   4.622
  145SAPE  H12Y15932   0.654   1.495   4.570
  145SAPE  C31315933   0.799   1.351   4.522
  145SAPE  H13X15934   0.712   1.282   4.523
  145SAPE  H13Y15935   0.892   1.307   4.565
  145SAPE  C31415936   0.831   1.384   4.376
  145SAPE  H14X15937   0.904   1.467   4.365
  145SAPE  H14Y15938   0.740   1.416   4.321
  145SAPE  C31515939   0.879   1.260   4.305
  145SAPE  H15X15940   0.862   1.275   4.196
  145SAPE  H15Y15941   0.820   1.171   4.334
  145SAPE  C31615942   1.030   1.231   4.326
  145SAPE  H16X15943   1.047   1.125   4.295
  145SAPE  H16Y15944   1.063   1.239   4.432
  145SAPE  C31715945   1.128   1.310   4.235
  145SAPE  H17X15946   1.103   1.416   4.255
  145SAPE  H17Y15947   1.091   1.292   4.132
  145SAPE  C31815948   1.277   1.263   4.256
  145SAPE  H18X15949   1.296   1.154   4.254
  145SAPE  H18Y15950   1.308   1.297   4.357
  145SAPE  H18Z15951   1.335   1.321   4.181
  146SAPE     N15952   3.558   0.195   6.720
  146SAPE   HN115953   3.474   0.182   6.779
  146SAPE   HN215954   3.641   0.199   6.783
  146SAPE   HN315955   3.555   0.287   6.672
  146SAPE   C1215956   3.564   0.079   6.622
  146SAPE  H12A15957   3.456   0.058   6.608
  146SAPE  H12B15958   3.606   6.803   6.671
  146SAPE   C1115959   3.639   0.118   6.501
  146SAPE  H11A15960   3.641   0.226   6.475
  146SAPE  H11B15961   3.587   0.069   6.416
  146SAPE     P15962   3.882   0.124   6.573
  146SAPE   O1315963   3.836   0.238   6.659
  146SAPE   O1415964   3.957   0.017   6.645
  146SAPE   O1215965   3.770   0.058   6.494
  146SAPE   O1115966   3.972   0.187   6.464
  146SAPE    C115967   3.919   0.238   6.343
  146SAPE    HA15968   3.829   0.180   6.311
  146SAPE    HB15969   3.872   0.334   6.371
  146SAPE    C215970   4.023   0.236   6.236
  146SAPE    HS15971   4.102   0.310   6.260
  146SAPE   O2115972   3.967   0.253   6.100
  146SAPE   C2115973   3.939   0.373   6.074
  146SAPE   O2215974   3.949   0.471   6.146
  146SAPE   C2215975   3.890   0.379   5.919
  146SAPE   H2R15976   3.977   0.353   5.856
  146SAPE   H2S15977   3.825   0.289   5.914
  146SAPE    C315978   4.117   0.105   6.243
  146SAPE    HX15979   4.047   0.020   6.257
  146SAPE    HY15980   4.188   0.122   6.327
  146SAPE   O3115981   4.180   0.075   6.115
  146SAPE   C3115982   4.285   0.154   6.099
  146SAPE   O3215983   4.326   0.237   6.177
  146SAPE   C3215984   4.338   0.156   5.955
  146SAPE   H2X15985   4.356   0.051   5.922
  146SAPE   H2Y15986   4.438   0.203   5.946
  146SAPE   C2315987   3.811   0.512   5.885
  146SAPE   H3R15988   3.886   0.593   5.877
  146SAPE   H3S15989   3.736   0.544   5.961
  146SAPE   C2415990   3.734   0.506   5.757
  146SAPE   H4R15991   3.802   0.475   5.674
  146SAPE   H4S15992   3.693   0.605   5.728
  146SAPE   C2515993   3.631   0.399   5.761
  146SAPE   H5R15994   3.574   0.383   5.854
  146SAPE   C2615995   3.617   0.303   5.669
  146SAPE   H6R15996   3.532   0.234   5.683
  146SAPE   C2715997   3.694   0.292   5.541
  146SAPE   H7R15998   3.702   0.398   5.507
  146SAPE   H7S15999   3.639   0.238   5.461
  146SAPE   C2816000   3.831   0.233   5.549
  146SAPE   H8R16001   3.862   0.195   5.648
  146SAPE   C2916002   3.914   0.197   5.441
  146SAPE   H9R16003   4.018   0.164   5.454
  146SAPE  C21016004   3.886   0.219   5.297
  146SAPE  H10R16005   3.975   0.270   5.254
  146SAPE  H10S16006   3.806   0.296   5.293
  146SAPE  C21116007   3.849   0.097   5.223
  146SAPE  H11R16008   3.829   0.017   5.295
  146SAPE  C21216009   3.854   0.070   5.093
  146SAPE  H12R16010   3.832   6.790   5.040
  146SAPE  C21316011   3.898   0.172   4.989
  146SAPE  H13R16012   3.940   0.265   5.034
  146SAPE  H13S16013   3.805   0.207   4.940
  146SAPE  C21416014   4.005   0.096   4.905
  146SAPE  H14R16015   4.039   6.810   4.934
  146SAPE  C21516016   4.056   0.150   4.792
  146SAPE  H15R16017   4.133   0.089   4.741
  146SAPE  C21616018   4.021   0.289   4.736
  146SAPE  H16R16019   4.116   0.346   4.732
  146SAPE  H16S16020   3.951   0.346   4.801
  146SAPE  C21716021   3.978   0.286   4.584
  146SAPE  H17R16022   3.876   0.243   4.587
  146SAPE  H17S16023   4.054   0.228   4.527
  146SAPE  C21816024   3.959   0.427   4.519
  146SAPE  H18R16025   4.012   0.423   4.422
  146SAPE  H18S16026   4.003   0.507   4.582
  146SAPE  C21916027   3.804   0.472   4.503
  146SAPE  H19R16028   3.760   0.470   4.605
  146SAPE  H19S16029   3.755   0.393   4.442
  146SAPE  C22016030   3.781   0.609   4.445
  146SAPE  H20R16031   3.675   0.627   4.416
  146SAPE  H20S16032   3.841   0.617   4.352
  146SAPE  H20T16033   3.824   0.685   4.514
  146SAPE   C3316034   4.250   0.222   5.845
  146SAPE   H3X16035   4.230   0.324   5.884
  146SAPE   H3Y16036   4.157   0.164   5.822
  146SAPE   C3416037   4.330   0.219   5.707
  146SAPE   H4X16038   4.362   0.118   5.675
  146SAPE   H4Y16039   4.426   0.272   5.725
  146SAPE   C3516040   4.259   0.274   5.583
  146SAPE   H5X16041   4.168   0.326   5.619
  146SAPE   H5Y16042   4.227   0.194   5.513
  146SAPE   C3616043   4.351   0.366   5.502
  146SAPE   H6X16044   4.403   0.289   5.441
  146SAPE   H6Y16045   4.428   0.431   5.550
  146SAPE   C3716046   4.266   0.467   5.417
  146SAPE   H7X16047   4.194   0.526   5.477
  146SAPE   H7Y16048   4.207   0.406   5.346
  146SAPE   C3816049   4.352   0.568   5.347
  146SAPE   H8X16050   4.298   0.630   5.273
  146SAPE   H8Y16051   4.438   0.517   5.298
  146SAPE   C3916052   4.413   0.689   5.430
  146SAPE   H9X16053   4.455   0.647   5.524
  146SAPE   H9Y16054   4.329   0.755   5.458
  146SAPE  C31016055   4.526   0.765   5.351
  146SAPE  H10X16056   4.571   0.689   5.285
  146SAPE  H10Y16057   4.591   0.798   5.435
  146SAPE  C31116058   4.481   0.884   5.275
  146SAPE  H11X16059   4.430   0.951   5.347
  146SAPE  H11Y16060   4.404   0.856   5.199
  146SAPE  C31216061   4.590   0.961   5.195
  146SAPE  H12X16062   4.647   0.885   5.137
  146SAPE  H12Y16063   4.657   1.005   5.272
  146SAPE  C31316064   4.538   1.079   5.105
  146SAPE  H13X16065   4.630   1.136   5.080
  146SAPE  H13Y16066   4.474   1.142   5.170
  146SAPE  C31416067   4.480   1.034   4.970
  146SAPE  H14X16068   4.405   0.954   4.991
  146SAPE  H14Y16069   4.561   0.999   4.903
  146SAPE  C31516070   4.427   1.158   4.898
  146SAPE  H15X16071   4.511   1.224   4.868
  146SAPE  H15Y16072   4.357   1.211   4.966
  146SAPE  C31616073   4.352   1.119   4.772
  146SAPE  H16X16074   4.288   1.031   4.793
  146SAPE  H16Y16075   4.423   1.086   4.693
  146SAPE  C31716076   4.274   1.241   4.714
  146SAPE  H17X16077   4.357   1.313   4.695
  146SAPE  H17Y16078   4.214   1.274   4.802
  146SAPE  C31816079   4.197   1.226   4.582
  146SAPE  H18X16080   4.244   1.152   4.514
  146SAPE  H18Y16081   4.183   1.325   4.532
  146SAPE  H18Z16082   4.095   1.188   4.605
  147SAPE     N16083   5.262   4.946   6.966
  147SAPE   HN116084   5.285   4.901   6.874
  147SAPE   HN216085   5.309   4.900   7.046
  147SAPE   HN316086   5.158   4.938   6.967
  147SAPE   C1216087   5.300   5.083   6.933
  147SAPE  H12A16088   5.411   5.082   6.928
  147SAPE  H12B16089   5.276   5.159   7.010
  147SAPE   C1116090   5.229   5.135   6.806
  147SAPE  H11A16091   5.263   5.079   6.717
  147SAPE  H11B16092   5.258   5.242   6.792
  147SAPE     P16093   4.986   5.224   6.806
  147SAPE   O1316094   4.848   5.179   6.807
  147SAPE   O1416095   5.022   5.318   6.919
  147SAPE   O1216096   5.088   5.108   6.802
  147SAPE   O1116097   5.017   5.298   6.669
  147SAPE    C116098   4.974   5.233   6.548
  147SAPE    HA16099   4.977   5.122   6.556
  147SAPE    HB16100   4.869   5.257   6.521
  147SAPE    C216101   5.072   5.252   6.430
  147SAPE    HS16102   5.161   5.197   6.465
  147SAPE   O2116103   5.102   5.394   6.423
  147SAPE   C2116104   5.193   5.430   6.339
  147SAPE   O2216105   5.263   5.355   6.275
  147SAPE   C2216106   5.202   5.581   6.330
  147SAPE   H2R16107   5.192   5.629   6.430
  147SAPE   H2S16108   5.303   5.605   6.291
  147SAPE    C316109   5.014   5.201   6.298
  147SAPE    HX16110   4.980   5.096   6.313
  147SAPE    HY16111   5.089   5.212   6.217
  147SAPE   O3116112   4.891   5.278   6.277
  147SAPE   C3116113   4.848   5.275   6.148
  147SAPE   O3216114   4.893   5.194   6.071
  147SAPE   C3216115   4.746   5.382   6.113
  147SAPE   H2X16116   4.758   5.463   6.188
  147SAPE   H2Y16117   4.641   5.347   6.114
  147SAPE   C2316118   5.095   5.640   6.240
  147SAPE   H3R16119   5.113   5.749   6.249
  147SAPE   H3S16120   4.994   5.621   6.282
  147SAPE   C2416121   5.114   5.596   6.096
  147SAPE   H4R16122   5.079   5.491   6.079
  147SAPE   H4S16123   5.224   5.593   6.080
  147SAPE   C2516124   5.057   5.682   5.984
  147SAPE   H5R16125   4.952   5.710   5.996
  147SAPE   C2616126   5.115   5.704   5.870
  147SAPE   H6R16127   5.060   5.757   5.791
  147SAPE   C2716128   5.248   5.661   5.814
  147SAPE   H7R16129   5.242   5.550   5.811
  147SAPE   H7S16130   5.320   5.681   5.897
  147SAPE   C2816131   5.302   5.719   5.686
  147SAPE   H8R16132   5.409   5.746   5.692
  147SAPE   C2916133   5.256   5.730   5.562
  147SAPE   H9R16134   5.317   5.784   5.489
  147SAPE  C21016135   5.118   5.687   5.520
  147SAPE  H10R16136   5.054   5.658   5.606
  147SAPE  H10S16137   5.118   5.608   5.442
  147SAPE  C21116138   5.054   5.804   5.450
  147SAPE  H11R16139   4.997   5.868   5.519
  147SAPE  C21216140   5.076   5.841   5.324
  147SAPE  H12R16141   5.027   5.932   5.288
  147SAPE  C21316142   5.169   5.764   5.230
  147SAPE  H13R16143   5.242   5.697   5.279
  147SAPE  H13S16144   5.230   5.843   5.181
  147SAPE  C21416145   5.109   5.675   5.130
  147SAPE  H14R16146   5.047   5.595   5.174
  147SAPE  C21516147   5.138   5.670   4.998
  147SAPE  H15R16148   5.087   5.597   4.935
  147SAPE  C21616149   5.229   5.761   4.927
  147SAPE  H16R16150   5.329   5.712   4.921
  147SAPE  H16S16151   5.233   5.861   4.975
  147SAPE  C21716152   5.166   5.799   4.790
  147SAPE  H17R16153   5.070   5.854   4.802
  147SAPE  H17S16154   5.140   5.710   4.729
  147SAPE  C21816155   5.262   5.893   4.706
  147SAPE  H18R16156   5.359   5.847   4.680
  147SAPE  H18S16157   5.285   5.987   4.761
  147SAPE  C21916158   5.199   5.928   4.575
  147SAPE  H19R16159   5.110   5.987   4.608
  147SAPE  H19S16160   5.166   5.835   4.524
  147SAPE  C22016161   5.299   6.004   4.484
  147SAPE  H20R16162   5.337   6.097   4.532
  147SAPE  H20S16163   5.248   6.039   4.392
  147SAPE  H20T16164   5.386   5.940   4.455
  147SAPE   C3316165   4.780   5.437   5.973
  147SAPE   H3X16166   4.762   5.361   5.894
  147SAPE   H3Y16167   4.886   5.470   5.971
  147SAPE   C3416168   4.687   5.553   5.933
  147SAPE   H4X16169   4.706   5.639   6.000
  147SAPE   H4Y16170   4.587   5.513   5.961
  147SAPE   C3516171   4.709   5.615   5.795
  147SAPE   H5X16172   4.799   5.680   5.798
  147SAPE   H5Y16173   4.628   5.690   5.783
  147SAPE   C3616174   4.705   5.526   5.673
  147SAPE   H6X16175   4.621   5.453   5.683
  147SAPE   H6Y16176   4.802   5.472   5.674
  147SAPE   C3716177   4.713   5.606   5.537
  147SAPE   H7X16178   4.811   5.657   5.538
  147SAPE   H7Y16179   4.634   5.684   5.544
  147SAPE   C3816180   4.695   5.520   5.408
  147SAPE   H8X16181   4.590   5.486   5.420
  147SAPE   H8Y16182   4.774   5.442   5.406
  147SAPE   C3916183   4.716   5.603   5.277
  147SAPE   H9X16184   4.812   5.657   5.287
  147SAPE   H9Y16185   4.630   5.671   5.259
  147SAPE  C31016186   4.749   5.518   5.145
  147SAPE  H10X16187   4.665   5.447   5.131
  147SAPE  H10Y16188   4.842   5.457   5.147
  147SAPE  C31116189   4.747   5.618   5.025
  147SAPE  H11X16190   4.818   5.700   5.049
  147SAPE  H11Y16191   4.644   5.659   5.029
  147SAPE  C31216192   4.789   5.552   4.891
  147SAPE  H12X16193   4.739   5.453   4.883
  147SAPE  H12Y16194   4.898   5.531   4.899
  147SAPE  C31316195   4.761   5.624   4.756
  147SAPE  H13X16196   4.835   5.704   4.735
  147SAPE  H13Y16197   4.659   5.667   4.757
  147SAPE  C31416198   4.752   5.524   4.639
  147SAPE  H14X16199   4.671   5.450   4.656
  147SAPE  H14Y16200   4.846   5.466   4.632
  147SAPE  C31516201   4.738   5.602   4.511
  147SAPE  H15X16202   4.798   5.695   4.508
  147SAPE  H15Y16203   4.631   5.632   4.513
  147SAPE  C31616204   4.761   5.514   4.390
  147SAPE  H16X16205   4.702   5.542   4.300
  147SAPE  H16Y16206   4.724   5.412   4.415
  147SAPE  C31716207   4.905   5.507   4.343
  147SAPE  H17X16208   4.961   5.478   4.435
  147SAPE  H17Y16209   4.935   5.607   4.304
  147SAPE  C31816210   4.943   5.394   4.239
  147SAPE  H18X16211   4.977   5.299   4.287
  147SAPE  H18Y16212   5.030   5.432   4.182
  147SAPE  H18Z16213   4.858   5.390   4.168
  148SAPE     N16214   1.895   0.506   6.473
  148SAPE   HN116215   1.886   0.609   6.465
  148SAPE   HN216216   1.980   0.491   6.531
  148SAPE   HN316217   1.915   0.472   6.377
  148SAPE   C1216218   1.775   0.454   6.550
  148SAPE  H12A16219   1.683   0.489   6.500
  148SAPE  H12B16220   1.777   0.492   6.655
  148SAPE   C1116221   1.778   0.300   6.559
  148SAPE  H11A16222   1.734   0.275   6.460
  148SAPE  H11B16223   1.702   0.278   6.637
  148SAPE     P16224   1.938   0.099   6.605
  148SAPE   O1316225   2.086   0.080   6.604
  148SAPE   O1416226   1.868   0.044   6.723
  148SAPE   O1216227   1.906   0.254   6.589
  148SAPE   O1116228   1.862   0.041   6.477
  148SAPE    C116229   1.905   0.090   6.346
  148SAPE    HA16230   1.806   0.089   6.296
  148SAPE    HB16231   1.948   0.193   6.350
  148SAPE    C216232   2.001   6.812   6.273
  148SAPE    HS16233   2.082   6.771   6.338
  148SAPE   O2116234   2.065   0.060   6.165
  148SAPE   C2116235   2.183   0.009   6.131
  148SAPE   O2216236   2.243   6.731   6.185
  148SAPE   C2216237   2.249   0.082   6.014
  148SAPE   H2R16238   2.232   0.191   6.020
  148SAPE   H2S16239   2.357   0.061   6.029
  148SAPE    C316240   1.926   6.684   6.208
  148SAPE    HX16241   1.856   6.631   6.276
  148SAPE    HY16242   2.008   6.617   6.176
  148SAPE   O3116243   1.853   6.741   6.094
  148SAPE   C3116244   1.856   6.668   5.982
  148SAPE   O3216245   1.928   6.576   5.964
  148SAPE   C3216246   1.744   6.712   5.889
  148SAPE   H2X16247   1.706   6.813   5.918
  148SAPE   H2Y16248   1.664   6.636   5.902
  148SAPE   C2316249   2.184   0.041   5.880
  148SAPE   H3R16250   2.085   0.091   5.888
  148SAPE   H3S16251   2.174   6.745   5.875
  148SAPE   C2416252   2.241   0.112   5.757
  148SAPE   H4R16253   2.350   0.092   5.753
  148SAPE   H4S16254   2.242   0.222   5.777
  148SAPE   C2516255   2.180   0.079   5.622
  148SAPE   H5R16256   2.207   6.800   5.571
  148SAPE   C2616257   2.083   0.144   5.563
  148SAPE   H6R16258   2.052   0.106   5.464
  148SAPE   C2716259   2.018   0.267   5.618
  148SAPE   H7R16260   2.058   0.291   5.719
  148SAPE   H7S16261   1.914   0.246   5.649
  148SAPE   C2816262   2.018   0.380   5.524
  148SAPE   H8R16263   2.119   0.424   5.520
  148SAPE   C2916264   1.920   0.432   5.448
  148SAPE   H9R16265   1.948   0.513   5.380
  148SAPE  C21016266   1.778   0.378   5.437
  148SAPE  H10R16267   1.703   0.444   5.485
  148SAPE  H10S16268   1.769   0.281   5.490
  148SAPE  C21116269   1.739   0.343   5.300
  148SAPE  H11R16270   1.808   0.291   5.232
  148SAPE  C21216271   1.616   0.374   5.246
  148SAPE  H12R16272   1.602   0.344   5.141
  148SAPE  C21316273   1.509   0.454   5.308
  148SAPE  H13R16274   1.536   0.554   5.348
  148SAPE  H13S16275   1.465   0.400   5.394
  148SAPE  C21416276   1.392   0.492   5.220
  148SAPE  H14R16277   1.310   0.423   5.243
  148SAPE  C21516278   1.385   0.600   5.139
  148SAPE  H15R16279   1.291   0.628   5.090
  148SAPE  C21616280   1.496   0.701   5.108
  148SAPE  H16R16281   1.586   0.682   5.171
  148SAPE  H16S16282   1.461   0.803   5.134
  148SAPE  C21716283   1.539   0.705   4.959
  148SAPE  H17R16284   1.593   0.802   4.949
  148SAPE  H17S16285   1.444   0.710   4.902
  148SAPE  C21816286   1.628   0.584   4.910
  148SAPE  H18R16287   1.563   0.494   4.913
  148SAPE  H18S16288   1.709   0.571   4.985
  148SAPE  C21916289   1.694   0.587   4.771
  148SAPE  H19R16290   1.612   0.599   4.697
  148SAPE  H19S16291   1.742   0.491   4.743
  148SAPE  C22016292   1.795   0.699   4.752
  148SAPE  H20R16293   1.892   0.670   4.796
  148SAPE  H20S16294   1.765   0.797   4.794
  148SAPE  H20T16295   1.810   0.719   4.644
  148SAPE   C3316296   1.788   6.725   5.737
  148SAPE   H3X16297   1.887   6.775   5.728
  148SAPE   H3Y16298   1.705   6.786   5.695
  148SAPE   C3416299   1.781   6.584   5.678
  148SAPE   H4X16300   1.704   6.518   5.723
  148SAPE   H4Y16301   1.882   6.541   5.692
  148SAPE   C3516302   1.744   6.609   5.525
  148SAPE   H5X16303   1.641   6.648   5.512
  148SAPE   H5Y16304   1.730   6.511   5.476
  148SAPE   C3616305   1.850   6.695   5.445
  148SAPE   H6X16306   1.954   6.664   5.468
  148SAPE   H6Y16307   1.833   6.795   5.491
  148SAPE   C3716308   1.819   6.702   5.301
  148SAPE   H7X16309   1.870   6.790   5.257
  148SAPE   H7Y16310   1.710   6.708   5.280
  148SAPE   C3816311   1.887   6.578   5.234
  148SAPE   H8X16312   1.816   6.494   5.252
  148SAPE   H8Y16313   1.988   6.567   5.279
  148SAPE   C3916314   1.895   6.601   5.079
  148SAPE   H9X16315   1.918   6.708   5.059
  148SAPE   H9Y16316   1.797   6.581   5.031
  148SAPE  C31016317   1.995   6.500   5.010
  148SAPE  H10X16318   1.966   6.408   5.065
  148SAPE  H10Y16319   2.100   6.519   5.041
  148SAPE  C31116320   1.968   6.498   4.860
  148SAPE  H11X16321   1.961   6.603   4.823
  148SAPE  H11Y16322   1.863   6.469   4.839
  148SAPE  C31216323   2.061   6.396   4.787
  148SAPE  H12X16324   2.038   6.292   4.819
  148SAPE  H12Y16325   2.166   6.420   4.816
  148SAPE  C31316326   2.045   6.416   4.641
  148SAPE  H13X16327   2.070   6.519   4.606
  148SAPE  H13Y16328   1.937   6.398   4.628
  148SAPE  C31416329   2.115   6.317   4.554
  148SAPE  H14X16330   2.123   6.214   4.595
  148SAPE  H14Y16331   2.216   6.361   4.544
  148SAPE  C31516332   2.046   6.301   4.418
  148SAPE  H15X16333   2.044   6.407   4.385
  148SAPE  H15Y16334   1.938   6.285   4.437
  148SAPE  C31616335   2.117   6.213   4.316
  148SAPE  H16X16336   2.223   6.245   4.316
  148SAPE  H16Y16337   2.086   6.237   4.212
  148SAPE  C31716338   2.103   6.061   4.323
  148SAPE  H17X16339   2.001   6.021   4.303
  148SAPE  H17Y16340   2.126   6.033   4.428
  148SAPE  C31816341   2.210   5.990   4.240
  148SAPE  H18X16342   2.180   5.983   4.134
  148SAPE  H18Y16343   2.219   5.884   4.274
  148SAPE  H18Z16344   2.307   6.043   4.242
  149SAPE     N16345   2.002   1.592   7.008
  149SAPE   HN116346   2.074   1.519   6.996
  149SAPE   HN216347   1.911   1.548   7.030
  149SAPE   HN316348   1.982   1.636   6.916
  149SAPE   C1216349   2.041   1.684   7.117
  149SAPE  H12A16350   2.152   1.686   7.130
  149SAPE  H12B16351   2.012   1.631   7.210
  149SAPE   C1116352   1.986   1.831   7.108
  149SAPE  H11A16353   2.028   1.868   7.013
  149SAPE  H11B16354   2.033   1.881   7.195
  149SAPE     P16355   1.752   1.934   7.020
  149SAPE   O1316356   1.619   1.872   7.008
  149SAPE   O1416357   1.769   2.060   7.091
  149SAPE   O1216358   1.836   1.845   7.109
  149SAPE   O1116359   1.820   1.948   6.875
  149SAPE    C116360   1.756   2.031   6.775
  149SAPE    HA16361   1.695   2.112   6.821
  149SAPE    HB16362   1.842   2.074   6.719
  149SAPE    C216363   1.661   1.950   6.675
  149SAPE    HS16364   1.584   1.893   6.730
  149SAPE   O2116365   1.745   1.851   6.609
  149SAPE   C2116366   1.696   1.735   6.575
  149SAPE   O2216367   1.586   1.689   6.598
  149SAPE   C2216368   1.805   1.658   6.511
  149SAPE   H2R16369   1.893   1.724   6.495
  149SAPE   H2S16370   1.844   1.578   6.577
  149SAPE    C316371   1.582   2.048   6.575
  149SAPE    HX16372   1.646   2.134   6.544
  149SAPE    HY16373   1.496   2.086   6.635
  149SAPE   O3116374   1.523   1.977   6.466
  149SAPE   C3116375   1.488   2.052   6.362
  149SAPE   O3216376   1.526   2.171   6.348
  149SAPE   C3216377   1.388   1.973   6.278
  149SAPE   H2X16378   1.293   2.025   6.254
  149SAPE   H2Y16379   1.369   1.873   6.322
  149SAPE   C2316380   1.759   1.579   6.384
  149SAPE   H3R16381   1.678   1.509   6.413
  149SAPE   H3S16382   1.843   1.514   6.352
  149SAPE   C2416383   1.719   1.665   6.260
  149SAPE   H4R16384   1.615   1.702   6.260
  149SAPE   H4S16385   1.720   1.601   6.169
  149SAPE   C2516386   1.807   1.780   6.239
  149SAPE   H5R16387   1.799   1.842   6.329
  149SAPE   C2616388   1.894   1.808   6.144
  149SAPE   H6R16389   1.970   1.883   6.172
  149SAPE   C2716390   1.908   1.727   6.020
  149SAPE   H7R16391   1.956   1.801   5.952
  149SAPE   H7S16392   1.807   1.715   5.974
  149SAPE   C2816393   1.984   1.596   6.007
  149SAPE   H8R16394   2.025   1.552   6.099
  149SAPE   C2916395   2.010   1.537   5.889
  149SAPE   H9R16396   2.054   1.437   5.875
  149SAPE  C21016397   1.974   1.590   5.753
  149SAPE  H10R16398   2.061   1.656   5.733
  149SAPE  H10S16399   1.887   1.658   5.739
  149SAPE  C21116400   1.969   1.488   5.643
  149SAPE  H11R16401   1.994   1.386   5.674
  149SAPE  C21216402   1.948   1.520   5.510
  149SAPE  H12R16403   1.958   1.433   5.443
  149SAPE  C21316404   1.904   1.650   5.447
  149SAPE  H13R16405   1.979   1.732   5.450
  149SAPE  H13S16406   1.830   1.701   5.512
  149SAPE  C21416407   1.852   1.649   5.311
  149SAPE  H14R16408   1.743   1.637   5.306
  149SAPE  C21516409   1.911   1.668   5.197
  149SAPE  H15R16410   1.865   1.650   5.098
  149SAPE  C21616411   2.060   1.698   5.193
  149SAPE  H16R16412   2.129   1.626   5.243
  149SAPE  H16S16413   2.084   1.794   5.243
  149SAPE  C21716414   2.120   1.711   5.054
  149SAPE  H17R16415   2.228   1.734   5.062
  149SAPE  H17S16416   2.068   1.791   4.998
  149SAPE  C21816417   2.108   1.581   4.962
  149SAPE  H18R16418   1.998   1.579   4.948
  149SAPE  H18S16419   2.140   1.492   5.020
  149SAPE  C21916420   2.190   1.590   4.837
  149SAPE  H19R16421   2.182   1.495   4.780
  149SAPE  H19S16422   2.297   1.588   4.864
  149SAPE  C22016423   2.154   1.709   4.750
  149SAPE  H20R16424   2.194   1.800   4.799
  149SAPE  H20S16425   2.043   1.709   4.740
  149SAPE  H20T16426   2.191   1.691   4.647
  149SAPE   C3316427   1.445   1.941   6.141
  149SAPE   H3X16428   1.554   1.921   6.152
  149SAPE   H3Y16429   1.433   2.031   6.077
  149SAPE   C3416430   1.381   1.821   6.069
  149SAPE   H4X16431   1.275   1.834   6.100
  149SAPE   H4Y16432   1.411   1.726   6.117
  149SAPE   C3516433   1.383   1.812   5.922
  149SAPE   H5X16434   1.310   1.880   5.874
  149SAPE   H5Y16435   1.369   1.707   5.889
  149SAPE   C3616436   1.522   1.854   5.858
  149SAPE   H6X16437   1.600   1.795   5.911
  149SAPE   H6Y16438   1.541   1.956   5.896
  149SAPE   C3716439   1.529   1.826   5.707
  149SAPE   H7X16440   1.475   1.731   5.689
  149SAPE   H7Y16441   1.634   1.804   5.677
  149SAPE   C3816442   1.475   1.947   5.623
  149SAPE   H8X16443   1.544   2.033   5.628
  149SAPE   H8Y16444   1.378   1.974   5.671
  149SAPE   C3916445   1.464   1.908   5.475
  149SAPE   H9X16446   1.390   1.826   5.471
  149SAPE   H9Y16447   1.557   1.859   5.440
  149SAPE  C31016448   1.413   2.020   5.383
  149SAPE  H10X16449   1.478   2.107   5.406
  149SAPE  H10Y16450   1.309   2.050   5.409
  149SAPE  C31116451   1.431   2.004   5.226
  149SAPE  H11X16452   1.369   2.084   5.180
  149SAPE  H11Y16453   1.388   1.903   5.205
  149SAPE  C31216454   1.571   2.010   5.179
  149SAPE  H12X16455   1.648   1.954   5.237
  149SAPE  H12Y16456   1.611   2.113   5.188
  149SAPE  C31316457   1.572   1.974   5.026
  149SAPE  H13X16458   1.509   2.037   4.960
  149SAPE  H13Y16459   1.523   1.875   5.021
  149SAPE  C31416460   1.712   1.965   4.970
  149SAPE  H14X16461   1.782   1.901   5.029
  149SAPE  H14Y16462   1.755   2.066   4.989
  149SAPE  C31516463   1.727   1.919   4.826
  149SAPE  H15X16464   1.816   1.959   4.773
  149SAPE  H15Y16465   1.650   1.969   4.764
  149SAPE  C31616466   1.708   1.766   4.814
  149SAPE  H16X16467   1.608   1.732   4.849
  149SAPE  H16Y16468   1.790   1.718   4.871
  149SAPE  C31716469   1.728   1.728   4.673
  149SAPE  H17X16470   1.820   1.769   4.626
  149SAPE  H17Y16471   1.644   1.760   4.608
  149SAPE  C31816472   1.743   1.575   4.661
  149SAPE  H18X16473   1.816   1.530   4.732
  149SAPE  H18Y16474   1.773   1.551   4.556
  149SAPE  H18Z16475   1.640   1.538   4.681
  150SAPE     N16476   4.463   2.608   6.713
  150SAPE   HN116477   4.443   2.705   6.682
  150SAPE   HN216478   4.387   2.573   6.774
  150SAPE   HN316479   4.544   2.617   6.778
  150SAPE   C1216480   4.500   2.514   6.598
  150SAPE  H12A16481   4.587   2.560   6.546
  150SAPE  H12B16482   4.405   2.500   6.543
  150SAPE   C1116483   4.535   2.368   6.655
  150SAPE  H11A16484   4.548   2.296   6.571
  150SAPE  H11B16485   4.439   2.342   6.705
  150SAPE     P16486   4.788   2.354   6.692
  150SAPE   O1316487   4.854   2.485   6.721
  150SAPE   O1416488   4.851   2.225   6.736
  150SAPE   O1216489   4.640   2.363   6.751
  150SAPE   O1116490   4.768   2.359   6.539
  150SAPE    C116491   4.790   2.247   6.448
  150SAPE    HA16492   4.760   2.145   6.479
  150SAPE    HB16493   4.732   2.270   6.356
  150SAPE    C216494   4.944   2.239   6.419
  150SAPE    HS16495   4.994   2.218   6.516
  150SAPE   O2116496   4.981   2.361   6.350
  150SAPE   C2116497   5.097   2.403   6.380
  150SAPE   O2216498   5.172   2.355   6.465
  150SAPE   C2216499   5.124   2.530   6.306
  150SAPE   H2R16500   5.073   2.523   6.208
  150SAPE   H2S16501   5.084   2.616   6.365
  150SAPE    C316502   4.974   2.112   6.330
  150SAPE    HX16503   4.949   2.018   6.383
  150SAPE    HY16504   5.085   2.111   6.321
  150SAPE   O3116505   4.910   2.120   6.195
  150SAPE   C3116506   4.980   2.181   6.101
  150SAPE   O3216507   5.074   2.258   6.117
  150SAPE   C3216508   4.915   2.154   5.966
  150SAPE   H2X16509   4.852   2.244   5.949
  150SAPE   H2Y16510   4.849   2.064   5.965
  150SAPE   C2316511   5.279   2.564   6.296
  150SAPE   H3R16512   5.339   2.473   6.275
  150SAPE   H3S16513   5.311   2.597   6.398
  150SAPE   C2416514   5.298   2.682   6.198
  150SAPE   H4R16515   5.258   2.779   6.234
  150SAPE   H4S16516   5.235   2.647   6.113
  150SAPE   C2516517   5.440   2.691   6.148
  150SAPE   H5R16518   5.523   2.698   6.220
  150SAPE   C2616519   5.476   2.686   6.023
  150SAPE   H6R16520   5.582   2.698   5.996
  150SAPE   C2716521   5.393   2.665   5.897
  150SAPE   H7R16522   5.471   2.679   5.819
  150SAPE   H7S16523   5.311   2.740   5.887
  150SAPE   C2816524   5.346   2.526   5.870
  150SAPE   H8R16525   5.339   2.467   5.963
  150SAPE   C2916526   5.316   2.458   5.763
  150SAPE   H9R16527   5.283   2.354   5.773
  150SAPE  C21016528   5.324   2.519   5.628
  150SAPE  H10R16529   5.429   2.520   5.593
  150SAPE  H10S16530   5.292   2.625   5.637
  150SAPE  C21116531   5.228   2.470   5.517
  150SAPE  H11R16532   5.122   2.500   5.528
  150SAPE  C21216533   5.267   2.415   5.400
  150SAPE  H12R16534   5.197   2.392   5.318
  150SAPE  C21316535   5.418   2.385   5.365
  150SAPE  H13R16536   5.448   2.331   5.458
  150SAPE  H13S16537   5.460   2.488   5.358
  150SAPE  C21416538   5.448   2.302   5.245
  150SAPE  H14R16539   5.406   2.201   5.257
  150SAPE  C21516540   5.519   2.341   5.136
  150SAPE  H15R16541   5.523   2.263   5.059
  150SAPE  C21616542   5.580   2.477   5.098
  150SAPE  H16R16543   5.657   2.462   5.018
  150SAPE  H16S16544   5.632   2.529   5.181
  150SAPE  C21716545   5.457   2.542   5.047
  150SAPE  H17R16546   5.393   2.567   5.135
  150SAPE  H17S16547   5.399   2.482   4.974
  150SAPE  C21816548   5.498   2.674   4.974
  150SAPE  H18R16549   5.564   2.640   4.891
  150SAPE  H18S16550   5.548   2.738   5.050
  150SAPE  C21916551   5.369   2.731   4.920
  150SAPE  H19R16552   5.298   2.764   4.999
  150SAPE  H19S16553   5.314   2.652   4.863
  150SAPE  C22016554   5.392   2.844   4.820
  150SAPE  H20R16555   5.295   2.863   4.769
  150SAPE  H20S16556   5.462   2.821   4.737
  150SAPE  H20T16557   5.425   2.935   4.874
  150SAPE   C3316558   5.012   2.149   5.845
  150SAPE   H3X16559   5.073   2.056   5.841
  150SAPE   H3Y16560   5.088   2.230   5.852
  150SAPE   C3416561   4.931   2.147   5.716
  150SAPE   H4X16562   4.865   2.236   5.711
  150SAPE   H4Y16563   4.865   2.058   5.721
  150SAPE   C3516564   5.019   2.127   5.588
  150SAPE   H5X16565   5.038   2.019   5.572
  150SAPE   H5Y16566   5.118   2.176   5.576
  150SAPE   C3616567   4.943   2.175   5.457
  150SAPE   H6X16568   4.928   2.284   5.469
  150SAPE   H6Y16569   4.843   2.128   5.455
  150SAPE   C3716570   5.011   2.147   5.325
  150SAPE   H7X16571   5.116   2.181   5.337
  150SAPE   H7Y16572   4.962   2.199   5.239
  150SAPE   C3816573   5.011   1.995   5.282
  150SAPE   H8X16574   4.916   1.974   5.229
  150SAPE   H8Y16575   5.021   1.937   5.377
  150SAPE   C3916576   5.127   1.979   5.189
  150SAPE   H9X16577   5.227   1.997   5.235
  150SAPE   H9Y16578   5.118   2.054   5.108
  150SAPE  C31016579   5.130   1.833   5.133
  150SAPE  H10X16580   5.044   1.814   5.065
  150SAPE  H10Y16581   5.121   1.754   5.210
  150SAPE  C31116582   5.264   1.807   5.061
  150SAPE  H11X16583   5.341   1.788   5.140
  150SAPE  H11Y16584   5.287   1.901   5.008
  150SAPE  C31216585   5.255   1.681   4.961
  150SAPE  H12X16586   5.178   1.708   4.887
  150SAPE  H12Y16587   5.226   1.590   5.017
  150SAPE  C31316588   5.387   1.664   4.890
  150SAPE  H13X16589   5.469   1.673   4.965
  150SAPE  H13Y16590   5.400   1.749   4.820
  150SAPE  C31416591   5.393   1.529   4.818
  150SAPE  H14X16592   5.316   1.519   4.738
  150SAPE  H14Y16593   5.371   1.454   4.897
  150SAPE  C31516594   5.527   1.501   4.749
  150SAPE  H15X16595   5.612   1.504   4.820
  150SAPE  H15Y16596   5.538   1.576   4.669
  150SAPE  C31616597   5.532   1.353   4.692
  150SAPE  H16X16598   5.623   1.357   4.627
  150SAPE  H16Y16599   5.454   1.318   4.621
  150SAPE  C31716600   5.561   1.250   4.798
  150SAPE  H17X16601   5.474   1.242   4.867
  150SAPE  H17Y16602   5.647   1.289   4.856
  150SAPE  C31816603   5.573   1.109   4.758
  150SAPE  H18X16604   5.488   1.075   4.696
  150SAPE  H18Y16605   5.591   1.045   4.847
  150SAPE  H18Z16606   5.659   1.081   4.694
  151SAPE     N16607   4.070   6.575   6.655
  151SAPE   HN116608   4.028   6.670   6.660
  151SAPE   HN216609   3.994   6.509   6.681
  151SAPE   HN316610   4.139   6.563   6.732
  151SAPE   C1216611   4.124   6.524   6.525
  151SAPE  H12A16612   4.046   6.512   6.447
  151SAPE  H12B16613   4.181   6.431   6.547
  151SAPE   C1116614   4.220   6.626   6.451
  151SAPE  H11A16615   4.160   6.715   6.425
  151SAPE  H11B16616   4.258   6.574   6.361
  151SAPE     P16617   4.417   6.787   6.509
  151SAPE   O1316618   4.327   0.093   6.526
  151SAPE   O1416619   4.542   6.774   6.593
  151SAPE   O1216620   4.334   6.652   6.532
  151SAPE   O1116621   4.455   6.775   6.357
  151SAPE    C116622   4.520   6.656   6.305
  151SAPE    HA16623   4.628   6.655   6.330
  151SAPE    HB16624   4.472   6.565   6.348
  151SAPE    C216625   4.502   6.630   6.153
  151SAPE    HS16626   4.556   6.539   6.120
  151SAPE   O2116627   4.535   6.749   6.069
  151SAPE   C2116628   4.668   6.772   6.062
  151SAPE   O2216629   4.749   6.706   6.122
  151SAPE   C2216630   4.692   0.084   5.977
  151SAPE   H2R16631   4.625   0.166   6.010
  151SAPE   H2S16632   4.797   0.116   5.997
  151SAPE    C316633   4.355   6.595   6.123
  151SAPE    HX16634   4.303   6.681   6.170
  151SAPE    HY16635   4.318   6.505   6.177
  151SAPE   O3116636   4.321   6.598   5.983
  151SAPE   C3116637   4.379   6.508   5.912
  151SAPE   O3216638   4.445   6.411   5.952
  151SAPE   C3216639   4.362   6.555   5.766
  151SAPE   H2X16640   4.386   6.663   5.772
  151SAPE   H2Y16641   4.260   6.524   5.734
  151SAPE   C2316642   4.666   0.065   5.827
  151SAPE   H3R16643   4.556   0.052   5.824
  151SAPE   H3S16644   4.715   6.789   5.784
  151SAPE   C2416645   4.704   0.187   5.746
  151SAPE   H4R16646   4.812   0.205   5.768
  151SAPE   H4S16647   4.651   0.277   5.783
  151SAPE   C2516648   4.693   0.176   5.600
  151SAPE   H5R16649   4.633   0.092   5.561
  151SAPE   C2616650   4.770   0.239   5.512
  151SAPE   H6R16651   4.754   0.225   5.405
  151SAPE   C2716652   4.877   0.340   5.548
  151SAPE   H7R16653   4.963   0.289   5.596
  151SAPE   H7S16654   4.831   0.409   5.622
  151SAPE   C2816655   4.930   0.415   5.423
  151SAPE   H8R16656   4.859   0.484   5.375
  151SAPE   C2916657   5.054   0.412   5.366
  151SAPE   H9R16658   5.080   0.483   5.286
  151SAPE  C21016659   5.176   0.332   5.414
  151SAPE  H10R16660   5.197   0.258   5.334
  151SAPE  H10S16661   5.160   0.266   5.501
  151SAPE  C21116662   5.302   0.414   5.429
  151SAPE  H11R16663   5.304   0.488   5.510
  151SAPE  C21216664   5.405   0.432   5.346
  151SAPE  H12R16665   5.482   0.505   5.374
  151SAPE  C21316666   5.442   0.373   5.214
  151SAPE  H13R16667   5.445   0.457   5.142
  151SAPE  H13S16668   5.373   0.293   5.180
  151SAPE  C21416669   5.582   0.298   5.226
  151SAPE  H14R16670   5.623   0.279   5.326
  151SAPE  C21516671   5.647   0.252   5.122
  151SAPE  H15R16672   5.737   0.190   5.133
  151SAPE  C21616673   5.585   0.264   4.987
  151SAPE  H16R16674   5.670   0.253   4.917
  151SAPE  H16S16675   5.546   0.368   4.981
  151SAPE  C21716676   5.483   0.158   4.938
  151SAPE  H17R16677   5.455   0.195   4.837
  151SAPE  H17S16678   5.390   0.147   4.999
  151SAPE  C21816679   5.548   0.016   4.919
  151SAPE  H18R16680   5.571   6.795   5.021
  151SAPE  H18S16681   5.643   0.028   4.863
  151SAPE  C21916682   5.453   6.728   4.847
  151SAPE  H19R16683   5.430   6.780   4.751
  151SAPE  H19S16684   5.358   6.714   4.902
  151SAPE  C22016685   5.504   6.595   4.803
  151SAPE  H20R16686   5.590   6.611   4.734
  151SAPE  H20S16687   5.432   6.529   4.750
  151SAPE  H20T16688   5.546   6.539   4.889
  151SAPE   C3316689   4.464   6.505   5.659
  151SAPE   H3X16690   4.419   6.414   5.614
  151SAPE   H3Y16691   4.552   6.464   5.714
  151SAPE   C3416692   4.502   6.605   5.553
  151SAPE   H4X16693   4.600   6.650   5.583
  151SAPE   H4Y16694   4.433   6.692   5.548
  151SAPE   C3516695   4.498   6.558   5.406
  151SAPE   H5X16696   4.400   6.508   5.390
  151SAPE   H5Y16697   4.575   6.479   5.391
  151SAPE   C3616698   4.537   6.671   5.304
  151SAPE   H6X16699   4.583   6.618   5.217
  151SAPE   H6Y16700   4.631   6.715   5.344
  151SAPE   C3716701   4.436   6.779   5.269
  151SAPE   H7X16702   4.390   0.012   5.358
  151SAPE   H7Y16703   4.354   6.731   5.212
  151SAPE   C3816704   4.500   0.070   5.179
  151SAPE   H8X16705   4.549   0.016   5.095
  151SAPE   H8Y16706   4.564   0.131   5.247
  151SAPE   C3916707   4.391   0.168   5.139
  151SAPE   H9X16708   4.359   0.209   5.238
  151SAPE   H9Y16709   4.312   0.106   5.093
  151SAPE  C31016710   4.431   0.281   5.051
  151SAPE  H10X16711   4.473   0.250   4.953
  151SAPE  H10Y16712   4.505   0.347   5.102
  151SAPE  C31116713   4.308   0.367   5.013
  151SAPE  H11X16714   4.288   0.430   5.103
  151SAPE  H11Y16715   4.223   0.301   4.989
  151SAPE  C31216716   4.327   0.458   4.890
  151SAPE  H12X16717   4.226   0.497   4.867
  151SAPE  H12Y16718   4.352   0.393   4.803
  151SAPE  C31316719   4.436   0.563   4.904
  151SAPE  H13X16720   4.539   0.522   4.910
  151SAPE  H13Y16721   4.405   0.616   4.997
  151SAPE  C31416722   4.460   0.656   4.780
  151SAPE  H14X16723   4.484   0.605   4.685
  151SAPE  H14Y16724   4.541   0.723   4.818
  151SAPE  C31516725   4.336   0.747   4.762
  151SAPE  H15X16726   4.367   0.848   4.726
  151SAPE  H15Y16727   4.302   0.758   4.867
  151SAPE  C31616728   4.233   0.690   4.658
  151SAPE  H16X16729   4.129   0.728   4.669
  151SAPE  H16Y16730   4.210   0.583   4.678
  151SAPE  C31716731   4.269   0.699   4.506
  151SAPE  H17X16732   4.186   0.665   4.440
  151SAPE  H17Y16733   4.355   0.635   4.479
  151SAPE  C31816734   4.305   0.838   4.468
  151SAPE  H18X16735   4.312   0.848   4.358
  151SAPE  H18Y16736   4.403   0.871   4.511
  151SAPE  H18Z16737   4.229   0.911   4.501
  152SAPE     N16738   0.255   1.255   6.799
  152SAPE   HN116739   0.176   1.260   6.732
  152SAPE   HN216740   0.327   1.329   6.783
  152SAPE   HN316741   0.300   1.165   6.776
  152SAPE   C1216742   0.200   1.261   6.937
  152SAPE  H12A16743   0.287   1.246   7.005
  152SAPE  H12B16744   0.125   1.180   6.952
  152SAPE   C1116745   0.122   1.391   6.966
  152SAPE  H11A16746   0.215   1.451   6.981
  152SAPE  H11B16747   0.058   1.381   7.055
  152SAPE     P16748   0.063   1.574   6.787
  152SAPE   O1316749   6.757   1.614   6.709
  152SAPE   O1416750   0.109   1.669   6.890
  152SAPE   O1216751   0.043   1.430   6.855
  152SAPE   O1116752   0.186   1.563   6.690
  152SAPE    C116753   0.170   1.525   6.552
  152SAPE    HA16754   0.265   1.474   6.525
  152SAPE    HB16755   0.082   1.460   6.536
  152SAPE    C216756   0.162   1.642   6.455
  152SAPE    HS16757   0.065   1.694   6.472
  152SAPE   O2116758   0.172   1.593   6.324
  152SAPE   C2116759   0.070   1.526   6.278
  152SAPE   O2216760   6.774   1.525   6.331
  152SAPE   C2216761   0.102   1.457   6.150
  152SAPE   H2R16762   0.213   1.455   6.147
  152SAPE   H2S16763   0.056   1.357   6.157
  152SAPE    C316764   0.286   1.728   6.479
  152SAPE    HX16765   0.367   1.651   6.480
  152SAPE    HY16766   0.284   1.757   6.586
  152SAPE   O3116767   0.298   1.842   6.383
  152SAPE   C3116768   0.259   1.960   6.431
  152SAPE   O3216769   0.224   1.978   6.545
  152SAPE   C3216770   0.251   2.065   6.328
  152SAPE   H2X16771   0.218   2.012   6.237
  152SAPE   H2Y16772   0.351   2.106   6.305
  152SAPE   C2316773   0.050   1.534   6.027
  152SAPE   H3R16774   0.087   1.638   6.042
  152SAPE   H3S16775   6.753   1.542   6.024
  152SAPE   C2416776   0.097   1.480   5.890
  152SAPE   H4R16777   0.062   1.379   5.858
  152SAPE   H4S16778   0.207   1.468   5.895
  152SAPE   C2516779   0.075   1.583   5.787
  152SAPE   H5R16780   0.094   1.686   5.821
  152SAPE   C2616781   0.032   1.563   5.665
  152SAPE   H6R16782   0.008   1.650   5.602
  152SAPE   C2716783   0.014   1.425   5.605
  152SAPE   H7R16784   0.079   1.354   5.659
  152SAPE   H7S16785   0.038   1.421   5.496
  152SAPE   C2816786   6.689   1.392   5.627
  152SAPE   H8R16787   6.649   1.387   5.729
  152SAPE   C2916788   6.591   1.381   5.533
  152SAPE   H9R16789   6.486   1.363   5.559
  152SAPE  C21016790   6.619   1.382   5.379
  152SAPE  H10R16791   6.691   1.456   5.340
  152SAPE  H10S16792   6.529   1.413   5.321
  152SAPE  C21116793   6.676   1.243   5.351
  152SAPE  H11R16794   6.780   1.231   5.384
  152SAPE  C21216795   6.623   1.140   5.283
  152SAPE  H12R16796   6.681   1.046   5.277
  152SAPE  C21316797   6.491   1.138   5.221
  152SAPE  H13R16798   6.434   1.229   5.249
  152SAPE  H13S16799   6.440   1.043   5.251
  152SAPE  C21416800   6.515   1.144   5.074
  152SAPE  H14R16801   6.515   1.248   5.037
  152SAPE  C21516802   6.531   1.035   4.994
  152SAPE  H15R16803   6.547   1.056   4.887
  152SAPE  C21616804   6.541   0.895   5.028
  152SAPE  H16R16805   6.476   0.838   4.959
  152SAPE  H16S16806   6.502   0.880   5.131
  152SAPE  C21716807   6.682   0.829   5.019
  152SAPE  H17R16808   6.669   0.727   5.061
  152SAPE  H17S16809   6.751   0.888   5.084
  152SAPE  C21816810   6.733   0.824   4.878
  152SAPE  H18R16811   0.016   0.770   4.874
  152SAPE  H18S16812   6.741   0.928   4.839
  152SAPE  C21916813   6.659   0.739   4.779
  152SAPE  H19R16814   6.711   0.738   4.680
  152SAPE  H19S16815   6.556   0.779   4.768
  152SAPE  C22016816   6.655   0.601   4.820
  152SAPE  H20R16817   6.595   0.580   4.911
  152SAPE  H20S16818   6.756   0.556   4.832
  152SAPE  H20T16819   6.601   0.534   4.750
  152SAPE   C3316820   0.135   2.173   6.350
  152SAPE   H3X16821   0.152   2.207   6.454
  152SAPE   H3Y16822   0.035   2.125   6.346
  152SAPE   C3416823   0.155   2.291   6.260
  152SAPE   H4X16824   0.249   2.344   6.288
  152SAPE   H4Y16825   0.061   2.348   6.277
  152SAPE   C3516826   0.171   2.265   6.107
  152SAPE   H5X16827   0.243   2.182   6.095
  152SAPE   H5Y16828   0.203   2.364   6.068
  152SAPE   C3616829   0.040   2.225   6.033
  152SAPE   H6X16830   6.783   2.308   6.048
  152SAPE   H6Y16831   0.005   2.137   6.091
  152SAPE   C3716832   0.073   2.195   5.883
  152SAPE   H7X16833   6.796   2.167   5.827
  152SAPE   H7Y16834   0.151   2.115   5.884
  152SAPE   C3816835   0.127   2.308   5.795
  152SAPE   H8X16836   0.219   2.355   5.836
  152SAPE   H8Y16837   0.048   2.385   5.783
  152SAPE   C3916838   0.156   2.263   5.651
  152SAPE   H9X16839   0.065   2.207   5.622
  152SAPE   H9Y16840   0.251   2.206   5.656
  152SAPE  C31016841   0.165   2.385   5.556
  152SAPE  H10X16842   0.252   2.451   5.579
  152SAPE  H10Y16843   0.080   2.454   5.573
  152SAPE  C31116844   0.163   2.340   5.409
  152SAPE  H11X16845   0.085   2.264   5.391
  152SAPE  H11Y16846   0.255   2.282   5.386
  152SAPE  C31216847   0.167   2.460   5.312
  152SAPE  H12X16848   0.251   2.524   5.344
  152SAPE  H12Y16849   0.068   2.509   5.325
  152SAPE  C31316850   0.182   2.410   5.167
  152SAPE  H13X16851   0.091   2.349   5.148
  152SAPE  H13Y16852   0.275   2.352   5.149
  152SAPE  C31416853   0.194   2.527   5.071
  152SAPE  H14X16854   0.114   2.601   5.089
  152SAPE  H14Y16855   0.179   2.479   4.972
  152SAPE  C31516856   0.336   2.591   5.058
  152SAPE  H15X16857   0.414   2.517   5.088
  152SAPE  H15Y16858   0.333   2.668   5.139
  152SAPE  C31616859   0.382   2.649   4.921
  152SAPE  H16X16860   0.402   2.561   4.855
  152SAPE  H16Y16861   0.481   2.698   4.933
  152SAPE  C31716862   0.286   2.745   4.852
  152SAPE  H17X16863   0.269   2.834   4.916
  152SAPE  H17Y16864   0.189   2.692   4.845
  152SAPE  C31816865   0.349   2.795   4.713
  152SAPE  H18X16866   0.365   2.702   4.654
  152SAPE  H18Y16867   0.445   2.848   4.727
  152SAPE  H18Z16868   0.281   2.862   4.657
  153SAPE     N16869   6.246   1.374   6.832
  153SAPE   HN116870   6.255   1.274   6.859
  153SAPE   HN216871   6.332   1.395   6.777
  153SAPE   HN316872   6.248   1.430   6.920
  153SAPE   C1216873   6.124   1.397   6.752
  153SAPE  H12A16874   6.145   1.490   6.695
  153SAPE  H12B16875   6.041   1.395   6.825
  153SAPE   C1116876   6.109   1.283   6.654
  153SAPE  H11A16877   6.178   1.293   6.567
  153SAPE  H11B16878   6.004   1.290   6.617
  153SAPE     P16879   6.031   1.062   6.760
  153SAPE   O1316880   6.104   0.938   6.773
  153SAPE   O1416881   5.953   1.107   6.876
  153SAPE   O1216882   6.136   1.163   6.726
  153SAPE   O1116883   5.940   1.055   6.634
  153SAPE    C116884   5.886   0.932   6.586
  153SAPE    HA16885   5.863   0.861   6.669
  153SAPE    HB16886   5.796   0.945   6.523
  153SAPE    C216887   5.979   0.860   6.486
  153SAPE    HS16888   6.069   0.828   6.542
  153SAPE   O2116889   6.014   0.952   6.381
  153SAPE   C2116890   6.140   0.952   6.334
  153SAPE   O2216891   6.229   0.873   6.357
  153SAPE   C2216892   6.151   1.069   6.234
  153SAPE   H2R16893   6.239   1.058   6.168
  153SAPE   H2S16894   6.070   1.054   6.159
  153SAPE    C316895   5.912   0.724   6.432
  153SAPE    HX16896   5.866   0.742   6.333
  153SAPE    HY16897   5.840   0.700   6.513
  153SAPE   O3116898   6.008   0.617   6.422
  153SAPE   C3116899   6.068   0.604   6.297
  153SAPE   O3216900   6.046   0.671   6.202
  153SAPE   C3216901   6.172   0.489   6.296
  153SAPE   H2X16902   6.225   0.493   6.393
  153SAPE   H2Y16903   6.240   0.497   6.209
  153SAPE   C2316904   6.149   1.209   6.295
  153SAPE   H3R16905   6.243   1.226   6.352
  153SAPE   H3S16906   6.070   1.219   6.373
  153SAPE   C2416907   6.125   1.317   6.185
  153SAPE   H4R16908   6.215   1.343   6.125
  153SAPE   H4S16909   6.126   1.409   6.248
  153SAPE   C2516910   5.995   1.303   6.105
  153SAPE   H5R16911   5.931   1.216   6.125
  153SAPE   C2616912   5.962   1.387   6.005
  153SAPE   H6R16913   5.861   1.367   5.967
  153SAPE   C2716914   6.039   1.506   5.959
  153SAPE   H7R16915   6.095   1.470   5.871
  153SAPE   H7S16916   6.111   1.538   6.037
  153SAPE   C2816917   5.945   1.621   5.931
  153SAPE   H8R16918   5.871   1.643   6.009
  153SAPE   C2916919   5.938   1.691   5.817
  153SAPE   H9R16920   5.869   1.777   5.814
  153SAPE  C21016921   6.029   1.674   5.696
  153SAPE  H10R16922   6.099   1.589   5.711
  153SAPE  H10S16923   6.084   1.769   5.683
  153SAPE  C21116924   5.942   1.646   5.580
  153SAPE  H11R16925   5.835   1.671   5.588
  153SAPE  C21216926   5.999   1.626   5.457
  153SAPE  H12R16927   5.929   1.607   5.375
  153SAPE  C21316928   6.146   1.620   5.428
  153SAPE  H13R16929   6.201   1.689   5.497
  153SAPE  H13S16930   6.167   1.663   5.328
  153SAPE  C21416931   6.211   1.483   5.427
  153SAPE  H14R16932   6.300   1.474   5.492
  153SAPE  C21516933   6.188   1.392   5.329
  153SAPE  H15R16934   6.219   1.287   5.337
  153SAPE  C21616935   6.096   1.411   5.210
  153SAPE  H16R16936   6.055   1.513   5.196
  153SAPE  H16S16937   6.007   1.345   5.207
  153SAPE  C21716938   6.182   1.394   5.078
  153SAPE  H17R16939   6.114   1.391   4.990
  153SAPE  H17S16940   6.228   1.294   5.091
  153SAPE  C21816941   6.292   1.501   5.056
  153SAPE  H18R16942   6.363   1.468   4.977
  153SAPE  H18S16943   6.346   1.523   5.151
  153SAPE  C21916944   6.240   1.647   5.019
  153SAPE  H19R16945   6.154   1.680   5.081
  153SAPE  H19S16946   6.222   1.637   4.910
  153SAPE  C22016947   6.342   1.754   5.030
  153SAPE  H20R16948   6.363   1.773   5.138
  153SAPE  H20S16949   6.305   1.849   4.988
  153SAPE  H20T16950   6.437   1.732   4.977
  153SAPE   C3316951   6.109   0.353   6.286
  153SAPE   H3X16952   6.020   0.333   6.350
  153SAPE   H3Y16953   6.186   0.275   6.301
  153SAPE   C3416954   6.044   0.311   6.148
  153SAPE   H4X16955   6.124   0.333   6.074
  153SAPE   H4Y16956   5.956   0.375   6.127
  153SAPE   C3516957   6.008   0.159   6.132
  153SAPE   H5X16958   5.919   0.141   6.197
  153SAPE   H5Y16959   6.089   0.090   6.163
  153SAPE   C3616960   5.953   0.131   5.992
  153SAPE   H6X16961   5.875   0.204   5.960
  153SAPE   H6Y16962   5.888   0.041   5.996
  153SAPE   C3716963   6.074   0.111   5.902
  153SAPE   H7X16964   6.162   0.086   5.964
  153SAPE   H7Y16965   6.089   0.207   5.850
  153SAPE   C3816966   6.052   6.809   5.811
  153SAPE   H8X16967   5.969   0.027   5.745
  153SAPE   H8Y16968   6.018   6.726   5.877
  153SAPE   C3916969   6.170   6.775   5.721
  153SAPE   H9X16970   6.261   6.753   5.781
  153SAPE   H9Y16971   6.190   0.051   5.659
  153SAPE  C31016972   6.135   6.654   5.633
  153SAPE  H10X16973   6.046   6.675   5.571
  153SAPE  H10Y16974   6.110   6.570   5.701
  153SAPE  C31116975   6.242   6.607   5.543
  153SAPE  H11X16976   6.325   6.562   5.601
  153SAPE  H11Y16977   6.291   6.700   5.507
  153SAPE  C31216978   6.192   6.504   5.442
  153SAPE  H12X16979   6.098   6.539   5.394
  153SAPE  H12Y16980   6.156   6.412   5.494
  153SAPE  C31316981   6.290   6.474   5.333
  153SAPE  H13X16982   6.384   6.436   5.378
  153SAPE  H13Y16983   6.309   6.573   5.287
  153SAPE  C31416984   6.245   6.368   5.232
  153SAPE  H14X16985   6.156   6.406   5.176
  153SAPE  H14Y16986   6.201   6.285   5.292
  153SAPE  C31516987   6.355   6.324   5.137
  153SAPE  H15X16988   6.443   6.290   5.195
  153SAPE  H15Y16989   6.389   6.410   5.075
  153SAPE  C31616990   6.315   6.211   5.041
  153SAPE  H16X16991   6.291   6.116   5.095
  153SAPE  H16Y16992   6.402   6.189   4.976
  153SAPE  C31716993   6.192   6.243   4.948
  153SAPE  H17X16994   6.206   6.348   4.916
  153SAPE  H17Y16995   6.098   6.244   5.007
  153SAPE  C31816996   6.174   6.148   4.826
  153SAPE  H18X16997   6.077   6.157   4.773
  153SAPE  H18Y16998   6.169   6.039   4.851
  153SAPE  H18Z16999   6.264   6.155   4.762
  154SAPE     N17000   4.006   0.678   6.558
  154SAPE   HN117001   4.102   0.657   6.592
  154SAPE   HN217002   3.986   0.779   6.563
  154SAPE   HN317003   3.940   0.632   6.625
  154SAPE   C1217004   3.966   0.646   6.413
  154SAPE  H12A17005   3.998   0.540   6.401
  154SAPE  H12B17006   4.031   0.701   6.342
  154SAPE   C1117007   3.822   0.661   6.387
  154SAPE  H11A17008   3.812   0.651   6.277
  154SAPE  H11B17009   3.791   0.765   6.413
  154SAPE     P17010   3.675   0.561   6.590
  154SAPE   O1317011   3.589   0.444   6.622
  154SAPE   O1417012   3.785   0.587   6.686
  154SAPE   O1217013   3.736   0.562   6.446
  154SAPE   O1117014   3.581   0.684   6.594
  154SAPE    C117015   3.498   0.734   6.484
  154SAPE    HA17016   3.543   0.829   6.447
  154SAPE    HB17017   3.492   0.663   6.399
  154SAPE    C217018   3.346   0.750   6.515
  154SAPE    HS17019   3.307   0.677   6.589
  154SAPE   O2117020   3.276   0.750   6.385
  154SAPE   C2117021   3.175   0.662   6.381
  154SAPE   O2217022   3.131   0.605   6.480
  154SAPE   C2217023   3.116   0.679   6.236
  154SAPE   H2R17024   3.083   0.785   6.241
  154SAPE   H2S17025   3.179   0.682   6.145
  154SAPE    C317026   3.314   0.889   6.576
  154SAPE    HX17027   3.369   0.891   6.672
  154SAPE    HY17028   3.206   0.896   6.600
  154SAPE   O3117029   3.372   1.002   6.504
  154SAPE   C3117030   3.289   1.069   6.428
  154SAPE   O3217031   3.173   1.050   6.412
  154SAPE   C3217032   3.364   1.177   6.347
  154SAPE   H2X17033   3.447   1.124   6.295
  154SAPE   H2Y17034   3.407   1.242   6.426
  154SAPE   C2317035   2.994   0.590   6.210
  154SAPE   H3R17036   2.910   0.640   6.157
  154SAPE   H3S17037   2.948   0.561   6.308
  154SAPE   C2417038   3.041   0.466   6.126
  154SAPE   H4R17039   3.104   0.495   6.038
  154SAPE   H4S17040   2.953   0.419   6.077
  154SAPE   C2517041   3.124   0.368   6.208
  154SAPE   H5R17042   3.064   0.320   6.286
  154SAPE   C2617043   3.258   0.331   6.204
  154SAPE   H6R17044   3.292   0.255   6.276
  154SAPE   C2717045   3.357   0.395   6.116
  154SAPE   H7R17046   3.336   0.504   6.114
  154SAPE   H7S17047   3.342   0.363   6.010
  154SAPE   C2817048   3.505   0.359   6.141
  154SAPE   H8R17049   3.543   0.406   6.234
  154SAPE   C2917050   3.577   0.263   6.085
  154SAPE   H9R17051   3.680   0.251   6.123
  154SAPE  C21017052   3.530   0.170   5.978
  154SAPE  H10R17053   3.608   0.154   5.901
  154SAPE  H10S17054   3.437   0.199   5.925
  154SAPE  C21117055   3.494   0.045   6.053
  154SAPE  H11R17056   3.392   0.050   6.093
  154SAPE  C21217057   3.554   6.741   6.046
  154SAPE  H12R17058   3.509   6.668   6.114
  154SAPE  C21317059   3.678   6.702   5.958
  154SAPE  H13R17060   3.728   6.791   5.914
  154SAPE  H13S17061   3.645   6.636   5.875
  154SAPE  C21417062   3.777   6.638   6.059
  154SAPE  H14R17063   3.743   6.589   6.152
  154SAPE  C21517064   3.914   6.644   6.035
  154SAPE  H15R17065   3.977   6.582   6.101
  154SAPE  C21617066   3.989   6.698   5.915
  154SAPE  H16R17067   4.097   6.677   5.936
  154SAPE  H16S17068   3.976   6.808   5.924
  154SAPE  C21717069   3.963   6.643   5.778
  154SAPE  H17R17070   3.855   6.644   5.752
  154SAPE  H17S17071   4.009   6.542   5.783
  154SAPE  C21817072   4.043   6.711   5.665
  154SAPE  H18R17073   4.148   6.718   5.702
  154SAPE  H18S17074   4.021   6.812   5.625
  154SAPE  C21917075   4.030   6.624   5.537
  154SAPE  H19R17076   3.932   6.643   5.489
  154SAPE  H19S17077   4.013   6.515   5.554
  154SAPE  C22017078   4.132   6.654   5.437
  154SAPE  H20R17079   4.132   6.576   5.358
  154SAPE  H20S17080   4.233   6.658   5.483
  154SAPE  H20T17081   4.118   6.758   5.399
  154SAPE   C3317082   3.273   1.254   6.251
  154SAPE   H3X17083   3.343   1.339   6.234
  154SAPE   H3Y17084   3.194   1.302   6.313
  154SAPE   C3417085   3.243   1.176   6.124
  154SAPE   H4X17086   3.160   1.105   6.143
  154SAPE   H4Y17087   3.332   1.112   6.104
  154SAPE   C3517088   3.220   1.266   6.001
  154SAPE   H5X17089   3.308   1.334   6.001
  154SAPE   H5Y17090   3.124   1.321   6.003
  154SAPE   C3617091   3.225   1.187   5.873
  154SAPE   H6X17092   3.179   1.086   5.869
  154SAPE   H6Y17093   3.334   1.168   5.862
  154SAPE   C3717094   3.183   1.277   5.750
  154SAPE   H7X17095   3.231   1.376   5.763
  154SAPE   H7Y17096   3.072   1.284   5.756
  154SAPE   C3817097   3.221   1.210   5.614
  154SAPE   H8X17098   3.158   1.121   5.592
  154SAPE   H8Y17099   3.321   1.163   5.617
  154SAPE   C3917100   3.183   1.305   5.491
  154SAPE   H9X17101   3.225   1.404   5.520
  154SAPE   H9Y17102   3.073   1.319   5.486
  154SAPE  C31017103   3.235   1.244   5.362
  154SAPE  H10X17104   3.186   1.149   5.334
  154SAPE  H10Y17105   3.343   1.219   5.370
  154SAPE  C31117106   3.230   1.344   5.247
  154SAPE  H11X17107   3.298   1.427   5.275
  154SAPE  H11Y17108   3.127   1.377   5.220
  154SAPE  C31217109   3.296   1.295   5.113
  154SAPE  H12X17110   3.300   1.184   5.107
  154SAPE  H12Y17111   3.402   1.326   5.105
  154SAPE  C31317112   3.219   1.342   4.989
  154SAPE  H13X17113   3.181   1.445   5.007
  154SAPE  H13Y17114   3.131   1.274   4.978
  154SAPE  C31417115   3.294   1.333   4.857
  154SAPE  H14X17116   3.308   1.231   4.816
  154SAPE  H14Y17117   3.400   1.363   4.875
  154SAPE  C31517118   3.229   1.430   4.749
  154SAPE  H15X17119   3.240   1.533   4.789
  154SAPE  H15Y17120   3.123   1.399   4.762
  154SAPE  C31617121   3.286   1.410   4.611
  154SAPE  H16X17122   3.212   1.446   4.536
  154SAPE  H16Y17123   3.299   1.303   4.585
  154SAPE  C31717124   3.421   1.477   4.587
  154SAPE  H17X17125   3.495   1.428   4.654
  154SAPE  H17Y17126   3.415   1.587   4.600
  154SAPE  C31817127   3.466   1.476   4.435
  154SAPE  H18X17128   3.558   1.538   4.439
  154SAPE  H18Y17129   3.386   1.514   4.368
  154SAPE  H18Z17130   3.489   1.372   4.403
  155SAPE     N17131   6.116   5.398   6.786
  155SAPE   HN117132   6.192   5.337   6.751
  155SAPE   HN217133   6.142   5.492   6.750
  155SAPE   HN317134   6.109   5.405   6.890
  155SAPE   C1217135   5.984   5.363   6.721
  155SAPE  H12A17136   5.950   5.264   6.758
  155SAPE  H12B17137   6.001   5.353   6.612
  155SAPE   C1117138   5.886   5.472   6.749
  155SAPE  H11A17139   5.861   5.472   6.857
  155SAPE  H11B17140   5.799   5.432   6.692
  155SAPE     P17141   5.910   5.740   6.753
  155SAPE   O1317142   5.907   5.733   6.900
  155SAPE   O1417143   6.022   5.829   6.706
  155SAPE   O1217144   5.934   5.594   6.693
  155SAPE   O1117145   5.781   5.806   6.708
  155SAPE    C117146   5.671   5.728   6.661
  155SAPE    HA17147   5.658   5.636   6.721
  155SAPE    HB17148   5.575   5.785   6.673
  155SAPE    C217149   5.689   5.686   6.511
  155SAPE    HS17150   5.789   5.637   6.512
  155SAPE   O2117151   5.673   5.803   6.421
  155SAPE   C2117152   5.787   5.849   6.372
  155SAPE   O2217153   5.892   5.791   6.367
  155SAPE   C2217154   5.761   5.982   6.299
  155SAPE   H2R17155   5.652   5.988   6.278
  155SAPE   H2S17156   5.776   6.068   6.368
  155SAPE    C317157   5.588   5.581   6.461
  155SAPE    HX17158   5.489   5.603   6.507
  155SAPE    HY17159   5.603   5.479   6.503
  155SAPE   O3117160   5.564   5.582   6.318
  155SAPE   C3117161   5.660   5.514   6.262
  155SAPE   O3217162   5.758   5.471   6.317
  155SAPE   C3217163   5.621   5.490   6.111
  155SAPE   H2X17164   5.574   5.583   6.074
  155SAPE   H2Y17165   5.558   5.399   6.099
  155SAPE   C2317166   5.846   6.006   6.171
  155SAPE   H3R17167   5.954   6.009   6.195
  155SAPE   H3S17168   5.818   6.100   6.118
  155SAPE   C2417169   5.840   5.891   6.064
  155SAPE   H4R17170   5.882   5.800   6.112
  155SAPE   H4S17171   5.909   5.920   5.981
  155SAPE   C2517172   5.700   5.848   6.022
  155SAPE   H5R17173   5.642   5.806   6.105
  155SAPE   C2617174   5.643   5.846   5.897
  155SAPE   H6R17175   5.545   5.796   5.884
  155SAPE   C2717176   5.714   5.878   5.768
  155SAPE   H7R17177   5.659   5.826   5.686
  155SAPE   H7S17178   5.809   5.822   5.774
  155SAPE   C2817179   5.739   6.025   5.740
  155SAPE   H8R17180   5.795   6.081   5.816
  155SAPE   C2917181   5.697   6.082   5.628
  155SAPE   H9R17182   5.701   6.192   5.623
  155SAPE  C21017183   5.629   6.025   5.510
  155SAPE  H10R17184   5.617   6.113   5.443
  155SAPE  H10S17185   5.526   6.003   5.545
  155SAPE  C21117186   5.687   5.905   5.441
  155SAPE  H11R17187   5.783   5.875   5.486
  155SAPE  C21217188   5.637   5.837   5.331
  155SAPE  H12R17189   5.693   5.752   5.289
  155SAPE  C21317190   5.512   5.855   5.241
  155SAPE  H13R17191   5.424   5.805   5.286
  155SAPE  H13S17192   5.538   5.796   5.150
  155SAPE  C21417193   5.479   5.994   5.199
  155SAPE  H14R17194   5.429   6.056   5.275
  155SAPE  C21517195   5.499   6.038   5.074
  155SAPE  H15R17196   5.479   6.143   5.046
  155SAPE  C21617197   5.570   5.961   4.963
  155SAPE  H16R17198   5.503   5.888   4.913
  155SAPE  H16S17199   5.654   5.900   5.002
  155SAPE  C21717200   5.639   6.057   4.864
  155SAPE  H17R17201   5.694   5.978   4.808
  155SAPE  H17S17202   5.706   6.120   4.925
  155SAPE  C21817203   5.546   6.135   4.763
  155SAPE  H18R17204   5.463   6.193   4.809
  155SAPE  H18S17205   5.496   6.047   4.715
  155SAPE  C21917206   5.623   6.221   4.659
  155SAPE  H19R17207   5.693   6.283   4.720
  155SAPE  H19S17208   5.548   6.292   4.619
  155SAPE  C22017209   5.682   6.152   4.537
  155SAPE  H20R17210   5.734   6.060   4.571
  155SAPE  H20S17211   5.747   6.224   4.483
  155SAPE  H20T17212   5.601   6.109   4.473
  155SAPE   C3317213   5.743   5.467   6.024
  155SAPE   H3X17214   5.830   5.418   6.072
  155SAPE   H3Y17215   5.784   5.567   6.000
  155SAPE   C3417216   5.713   5.377   5.899
  155SAPE   H4X17217   5.672   5.284   5.945
  155SAPE   H4Y17218   5.812   5.351   5.856
  155SAPE   C3517219   5.616   5.435   5.796
  155SAPE   H5X17220   5.674   5.502   5.729
  155SAPE   H5Y17221   5.541   5.504   5.841
  155SAPE   C3617222   5.549   5.323   5.719
  155SAPE   H6X17223   5.483   5.257   5.779
  155SAPE   H6Y17224   5.616   5.254   5.662
  155SAPE   C3717225   5.468   5.374   5.601
  155SAPE   H7X17226   5.404   5.458   5.635
  155SAPE   H7Y17227   5.411   5.291   5.552
  155SAPE   C3817228   5.550   5.426   5.481
  155SAPE   H8X17229   5.634   5.355   5.465
  155SAPE   H8Y17230   5.594   5.523   5.513
  155SAPE   C3917231   5.473   5.429   5.348
  155SAPE   H9X17232   5.394   5.507   5.356
  155SAPE   H9Y17233   5.402   5.346   5.332
  155SAPE  C31017234   5.573   5.445   5.232
  155SAPE  H10X17235   5.649   5.365   5.219
  155SAPE  H10Y17236   5.623   5.543   5.249
  155SAPE  C31117237   5.500   5.461   5.105
  155SAPE  H11X17238   5.407   5.522   5.107
  155SAPE  H11Y17239   5.457   5.362   5.082
  155SAPE  C31217240   5.593   5.507   4.991
  155SAPE  H12X17241   5.681   5.441   4.981
  155SAPE  H12Y17242   5.623   5.610   5.021
  155SAPE  C31317243   5.527   5.511   4.853
  155SAPE  H13X17244   5.421   5.528   4.883
  155SAPE  H13Y17245   5.529   5.410   4.809
  155SAPE  C31417246   5.581   5.613   4.759
  155SAPE  H14X17247   5.692   5.606   4.759
  155SAPE  H14Y17248   5.555   5.708   4.810
  155SAPE  C31517249   5.529   5.609   4.615
  155SAPE  H15X17250   5.420   5.632   4.610
  155SAPE  H15Y17251   5.537   5.506   4.576
  155SAPE  C31617252   5.603   5.701   4.521
  155SAPE  H16X17253   5.713   5.701   4.535
  155SAPE  H16Y17254   5.571   5.806   4.540
  155SAPE  C31717255   5.576   5.672   4.366
  155SAPE  H17X17256   5.468   5.650   4.349
  155SAPE  H17Y17257   5.637   5.583   4.340
  155SAPE  C31817258   5.618   5.788   4.272
  155SAPE  H18X17259   5.573   5.761   4.174
  155SAPE  H18Y17260   5.728   5.779   4.272
  155SAPE  H18Z17261   5.579   5.886   4.307
  156SAPE     N17262   0.646   0.573   6.885
  156SAPE   HN117263   0.674   0.609   6.978
  156SAPE   HN217264   0.734   0.563   6.830
  156SAPE   HN317265   0.587   0.640   6.831
  156SAPE   C1217266   0.575   0.446   6.919
  156SAPE  H12A17267   0.479   0.478   6.965
  156SAPE  H12B17268   0.621   0.390   7.004
  156SAPE   C1117269   0.550   0.367   6.788
  156SAPE  H11A17270   0.491   0.431   6.719
  156SAPE  H11B17271   0.485   0.280   6.814
  156SAPE     P17272   0.677   0.189   6.640
  156SAPE   O1317273   0.810   0.175   6.575
  156SAPE   O1417274   0.641   0.072   6.729
  156SAPE   O1217275   0.674   0.321   6.728
  156SAPE   O1117276   0.565   0.222   6.524
  156SAPE    C117277   0.462   0.124   6.492
  156SAPE    HA17278   0.508   0.023   6.495
  156SAPE    HB17279   0.391   0.129   6.577
  156SAPE    C217280   0.410   0.131   6.349
  156SAPE    HS17281   0.483   0.106   6.268
  156SAPE   O2117282   0.353   0.265   6.328
  156SAPE   C2117283   0.378   0.330   6.212
  156SAPE   O2217284   0.452   0.291   6.122
  156SAPE   C2217285   0.307   0.461   6.217
  156SAPE   H2R17286   0.199   0.442   6.235
  156SAPE   H2S17287   0.352   0.531   6.290
  156SAPE    C317288   0.301   0.019   6.333
  156SAPE    HX17289   0.220   0.016   6.409
  156SAPE    HY17290   0.362   6.745   6.359
  156SAPE   O3117291   0.254   0.015   6.194
  156SAPE   C3117292   0.138   0.062   6.177
  156SAPE   O3217293   0.075   0.129   6.259
  156SAPE   C3217294   0.077   0.029   6.042
  156SAPE   H2X17295   0.017   6.751   6.047
  156SAPE   H2Y17296   0.162   0.004   5.975
  156SAPE   C2317297   0.322   0.524   6.074
  156SAPE   H3R17298   0.287   0.453   5.996
  156SAPE   H3S17299   0.430   0.542   6.053
  156SAPE   C2417300   0.241   0.656   6.061
  156SAPE   H4R17301   0.263   0.692   5.958
  156SAPE   H4S17302   0.277   0.723   6.141
  156SAPE   C2517303   0.089   0.637   6.075
  156SAPE   H5R17304   0.063   0.562   6.152
  156SAPE   C2617305   6.800   0.690   6.008
  156SAPE   H6R17306   6.701   0.646   6.030
  156SAPE   C2717307   6.804   0.789   5.897
  156SAPE   H7R17308   0.006   0.723   5.810
  156SAPE   H7S17309   0.078   0.856   5.901
  156SAPE   C2817310   6.684   0.869   5.886
  156SAPE   H8R17311   6.668   0.934   5.973
  156SAPE   C2917312   6.597   0.880   5.780
  156SAPE   H9R17313   6.507   0.942   5.789
  156SAPE  C21017314   6.601   0.821   5.647
  156SAPE  H10R17315   6.707   0.792   5.630
  156SAPE  H10S17316   6.570   0.893   5.568
  156SAPE  C21117317   6.518   0.695   5.637
  156SAPE  H11R17318   6.480   0.657   5.732
  156SAPE  C21217319   6.471   0.642   5.521
  156SAPE  H12R17320   6.401   0.557   5.526
  156SAPE  C21317321   6.506   0.699   5.380
  156SAPE  H13R17322   6.614   0.726   5.377
  156SAPE  H13S17323   6.446   0.791   5.368
  156SAPE  C21417324   6.483   0.601   5.270
  156SAPE  H14R17325   6.574   0.552   5.233
  156SAPE  C21517326   6.370   0.562   5.216
  156SAPE  H15R17327   6.375   0.499   5.125
  156SAPE  C21617328   6.231   0.610   5.257
  156SAPE  H16R17329   6.180   0.647   5.165
  156SAPE  H16S17330   6.237   0.692   5.331
  156SAPE  C21717331   6.164   0.488   5.319
  156SAPE  H17R17332   6.209   0.435   5.406
  156SAPE  H17S17333   6.153   0.412   5.239
  156SAPE  C21817334   6.026   0.529   5.368
  156SAPE  H18R17335   6.022   0.596   5.456
  156SAPE  H18S17336   5.978   0.432   5.396
  156SAPE  C21917337   5.935   0.596   5.265
  156SAPE  H19R17338   5.908   0.525   5.185
  156SAPE  H19S17339   5.986   0.684   5.222
  156SAPE  C22017340   5.798   0.637   5.318
  156SAPE  H20R17341   5.749   0.557   5.378
  156SAPE  H20S17342   5.731   0.672   5.236
  156SAPE  H20T17343   5.811   0.716   5.394
  156SAPE   C3317344   0.000   0.144   5.978
  156SAPE   H3X17345   6.739   0.178   6.052
  156SAPE   H3Y17346   6.754   0.101   5.895
  156SAPE   C3417347   0.091   0.255   5.927
  156SAPE   H4X17348   0.153   0.293   6.011
  156SAPE   H4Y17349   0.013   0.330   5.902
  156SAPE   C3517350   0.177   0.224   5.813
  156SAPE   H5X17351   0.241   0.136   5.833
  156SAPE   H5Y17352   0.247   0.309   5.796
  156SAPE   C3617353   0.102   0.195   5.675
  156SAPE   H6X17354   0.045   0.282   5.637
  156SAPE   H6Y17355   0.041   0.104   5.692
  156SAPE   C3717356   0.196   0.174   5.553
  156SAPE   H7X17357   0.278   0.248   5.543
  156SAPE   H7Y17358   0.137   0.174   5.459
  156SAPE   C3817359   0.258   0.037   5.563
  156SAPE   H8X17360   0.189   6.768   5.540
  156SAPE   H8Y17361   0.311   0.025   5.660
  156SAPE   C3917362   0.375   0.004   5.467
  156SAPE   H9X17363   0.445   6.744   5.511
  156SAPE   H9Y17364   0.441   0.094   5.469
  156SAPE  C31017365   0.329   6.772   5.333
  156SAPE  H10X17366   0.237   6.710   5.335
  156SAPE  H10Y17367   0.402   6.697   5.296
  156SAPE  C31117368   0.325   0.070   5.234
  156SAPE  H11X17369   0.420   0.124   5.255
  156SAPE  H11Y17370   0.242   0.141   5.251
  156SAPE  C31217371   0.316   0.023   5.083
  156SAPE  H12X17372   0.261   0.104   5.031
  156SAPE  H12Y17373   0.244   6.753   5.082
  156SAPE  C31317374   0.459   6.795   5.021
  156SAPE  H13X17375   0.476   6.695   5.065
  156SAPE  H13Y17376   0.547   0.033   5.062
  156SAPE  C31417377   0.458   6.771   4.870
  156SAPE  H14X17378   0.369   6.726   4.821
  156SAPE  H14Y17379   0.533   6.689   4.859
  156SAPE  C31517380   0.501   0.081   4.788
  156SAPE  H15X17381   0.541   0.052   4.688
  156SAPE  H15Y17382   0.586   0.125   4.845
  156SAPE  C31617383   0.394   0.190   4.767
  156SAPE  H16X17384   0.440   0.286   4.735
  156SAPE  H16Y17385   0.356   0.232   4.863
  156SAPE  C31717386   0.268   0.139   4.681
  156SAPE  H17X17387   0.196   0.088   4.749
  156SAPE  H17Y17388   0.301   0.067   4.603
  156SAPE  C31817389   0.206   0.252   4.607
  156SAPE  H18X17390   0.143   0.308   4.680
  156SAPE  H18Y17391   0.137   0.224   4.524
  156SAPE  H18Z17392   0.292   0.312   4.571
  157SAPE     N17393   0.938   6.000   6.758
  157SAPE   HN117394   1.003   6.069   6.716
  157SAPE   HN217395   0.841   6.034   6.741
  157SAPE   HN317396   0.955   5.994   6.861
  157SAPE   C1217397   0.951   5.860   6.702
  157SAPE  H12A17398   0.873   5.790   6.740
  157SAPE  H12B17399   1.053   5.822   6.723
  157SAPE   C1117400   0.928   5.866   6.541
  157SAPE  H11A17401   0.954   5.763   6.508
  157SAPE  H11B17402   1.009   5.918   6.486
  157SAPE     P17403   0.691   5.834   6.443
  157SAPE   O1317404   0.665   5.726   6.532
  157SAPE   O1417405   0.575   5.917   6.409
  157SAPE   O1217406   0.803   5.924   6.507
  157SAPE   O1117407   0.752   5.770   6.313
  157SAPE    C117408   0.783   5.856   6.201
  157SAPE    HA17409   0.793   5.962   6.231
  157SAPE    HB17410   0.879   5.824   6.156
  157SAPE    C217411   0.667   5.859   6.097
  157SAPE    HS17412   0.576   5.877   6.159
  157SAPE   O2117413   0.671   5.742   6.022
  157SAPE   C2117414   0.555   5.682   5.991
  157SAPE   O2217415   0.447   5.738   5.992
  157SAPE   C2217416   0.574   5.544   5.943
  157SAPE   H2R17417   0.661   5.507   6.001
  157SAPE   H2S17418   0.483   5.487   5.971
  157SAPE    C317419   0.664   5.978   5.997
  157SAPE    HX17420   0.576   5.974   5.929
  157SAPE    HY17421   0.744   5.965   5.921
  157SAPE   O3117422   0.672   6.111   6.056
  157SAPE   C3117423   0.558   6.151   6.114
  157SAPE   O3217424   0.463   6.082   6.125
  157SAPE   C3217425   0.564   6.297   6.166
  157SAPE   H2X17426   0.642   6.304   6.245
  157SAPE   H2Y17427   0.458   6.308   6.199
  157SAPE   C2317428   0.587   5.528   5.793
  157SAPE   H3R17429   0.609   5.425   5.756
  157SAPE   H3S17430   0.677   5.585   5.759
  157SAPE   C2417431   0.470   5.592   5.704
  157SAPE   H4R17432   0.380   5.535   5.736
  157SAPE   H4S17433   0.496   5.557   5.602
  157SAPE   C2517434   0.438   5.740   5.688
  157SAPE   H5R17435   0.359   5.777   5.755
  157SAPE   C2617436   0.510   5.834   5.616
  157SAPE   H6R17437   0.491   5.943   5.620
  157SAPE   C2717438   0.630   5.797   5.533
  157SAPE   H7R17439   0.636   5.690   5.503
  157SAPE   H7S17440   0.720   5.823   5.593
  157SAPE   C2817441   0.641   5.866   5.402
  157SAPE   H8R17442   0.565   5.838   5.327
  157SAPE   C2917443   0.757   5.940   5.367
  157SAPE   H9R17444   0.766   5.970   5.261
  157SAPE  C21017445   0.885   5.964   5.453
  157SAPE  H10R17446   0.976   5.928   5.401
  157SAPE  H10S17447   0.882   5.913   5.553
  157SAPE  C21117448   0.903   6.110   5.500
  157SAPE  H11R17449   0.887   6.120   5.608
  157SAPE  C21217450   0.947   6.208   5.421
  157SAPE  H12R17451   0.952   6.309   5.462
  157SAPE  C21317452   0.988   6.191   5.277
  157SAPE  H13R17453   0.954   6.093   5.237
  157SAPE  H13S17454   1.099   6.191   5.272
  157SAPE  C21417455   0.918   6.293   5.183
  157SAPE  H14R17456   0.817   6.325   5.213
  157SAPE  C21517457   0.963   6.349   5.075
  157SAPE  H15R17458   0.892   6.413   5.021
  157SAPE  C21617459   1.091   6.324   5.003
  157SAPE  H16R17460   1.153   6.242   5.047
  157SAPE  H16S17461   1.159   6.411   5.004
  157SAPE  C21717462   1.078   6.279   4.854
  157SAPE  H17R17463   1.020   6.185   4.854
  157SAPE  H17S17464   1.181   6.250   4.823
  157SAPE  C21817465   1.020   6.388   4.770
  157SAPE  H18R17466   1.068   6.393   4.670
  157SAPE  H18S17467   1.026   6.482   4.830
  157SAPE  C21917468   0.877   6.354   4.731
  157SAPE  H19R17469   0.833   6.451   4.702
  157SAPE  H19S17470   0.826   6.310   4.820
  157SAPE  C22017471   0.872   6.251   4.614
  157SAPE  H20R17472   0.950   6.172   4.620
  157SAPE  H20S17473   0.876   6.305   4.518
  157SAPE  H20T17474   0.771   6.204   4.620
  157SAPE   C3317475   0.597   6.399   6.049
  157SAPE   H3X17476   0.534   6.490   6.063
  157SAPE   H3Y17477   0.557   6.360   5.952
  157SAPE   C3417478   0.747   6.427   6.038
  157SAPE   H4X17479   0.804   6.332   6.022
  157SAPE   H4Y17480   0.790   6.466   6.133
  157SAPE   C3517481   0.779   6.534   5.936
  157SAPE   H5X17482   0.888   6.550   5.921
  157SAPE   H5Y17483   0.748   6.634   5.974
  157SAPE   C3617484   0.721   6.505   5.793
  157SAPE   H6X17485   0.616   6.536   5.775
  157SAPE   H6Y17486   0.720   6.395   5.782
  157SAPE   C3717487   0.813   6.552   5.671
  157SAPE   H7X17488   0.911   6.500   5.679
  157SAPE   H7Y17489   0.827   6.661   5.689
  157SAPE   C3817490   0.752   6.513   5.535
  157SAPE   H8X17491   0.645   6.540   5.542
  157SAPE   H8Y17492   0.759   6.403   5.522
  157SAPE   C3917493   0.817   6.580   5.408
  157SAPE   H9X17494   0.796   6.512   5.323
  157SAPE   H9Y17495   0.922   6.611   5.424
  157SAPE  C31017496   0.753   6.720   5.380
  157SAPE  H10X17497   0.804   6.800   5.439
  157SAPE  H10Y17498   0.644   6.724   5.403
  157SAPE  C31117499   0.758   6.749   5.230
  157SAPE  H11X17500   0.704   0.026   5.198
  157SAPE  H11Y17501   0.716   6.672   5.161
  157SAPE  C31217502   0.901   6.785   5.182
  157SAPE  H12X17503   0.968   6.696   5.174
  157SAPE  H12Y17504   0.944   0.035   5.261
  157SAPE  C31317505   0.907   0.039   5.041
  157SAPE  H13X17506   1.005   0.091   5.039
  157SAPE  H13Y17507   0.831   0.120   5.034
  157SAPE  C31417508   0.898   6.750   4.921
  157SAPE  H14X17509   0.798   6.703   4.933
  157SAPE  H14Y17510   0.976   6.671   4.928
  157SAPE  C31517511   0.905   0.013   4.785
  157SAPE  H15X17512   0.989   0.086   4.791
  157SAPE  H15Y17513   0.806   0.062   4.770
  157SAPE  C31617514   0.917   6.732   4.670
  157SAPE  H16X17515   0.824   6.674   4.653
  157SAPE  H16Y17516   0.998   6.660   4.698
  157SAPE  C31717517   0.944   6.810   4.541
  157SAPE  H17X17518   1.033   0.062   4.549
  157SAPE  H17Y17519   0.856   0.063   4.534
  157SAPE  C31817520   0.939   6.723   4.410
  157SAPE  H18X17521   0.915   6.788   4.323
  157SAPE  H18Y17522   0.863   6.643   4.418
  157SAPE  H18Z17523   1.040   6.682   4.389
  158SAPE     N17524   3.038   4.825   6.769
  158SAPE   HN117525   3.043   4.850   6.668
  158SAPE   HN217526   3.055   4.725   6.788
  158SAPE   HN317527   2.947   4.862   6.804
  158SAPE   C1217528   3.142   4.927   6.826
  158SAPE  H12A17529   3.241   4.878   6.833
  158SAPE  H12B17530   3.114   4.947   6.932
  158SAPE   C1117531   3.148   5.050   6.725
  158SAPE  H11A17532   3.195   5.010   6.633
  158SAPE  H11B17533   3.223   5.125   6.757
  158SAPE     P17534   2.955   5.213   6.764
  158SAPE   O1317535   2.925   5.146   6.895
  158SAPE   O1417536   3.033   5.339   6.767
  158SAPE   O1217537   3.025   5.096   6.679
  158SAPE   O1117538   2.821   5.240   6.684
  158SAPE    C117539   2.767   5.153   6.590
  158SAPE    HA17540   2.797   5.048   6.614
  158SAPE    HB17541   2.658   5.171   6.596
  158SAPE    C217542   2.813   5.182   6.446
  158SAPE    HS17543   2.924   5.181   6.450
  158SAPE   O2117544   2.759   5.310   6.414
  158SAPE   C2117545   2.831   5.397   6.348
  158SAPE   O2217546   2.950   5.394   6.330
  158SAPE   C2217547   2.732   5.501   6.290
  158SAPE   H2R17548   2.633   5.452   6.275
  158SAPE   H2S17549   2.706   5.576   6.368
  158SAPE    C317550   2.759   5.081   6.343
  158SAPE    HX17551   2.649   5.092   6.339
  158SAPE    HY17552   2.781   4.978   6.380
  158SAPE   O3117553   2.816   5.111   6.215
  158SAPE   C3117554   2.947   5.079   6.199
  158SAPE   O3217555   3.011   5.011   6.274
  158SAPE   C3217556   2.983   5.150   6.065
  158SAPE   H2X17557   2.980   5.261   6.076
  158SAPE   H2Y17558   2.916   5.101   5.992
  158SAPE   C2317559   2.767   5.563   6.159
  158SAPE   H3R17560   2.674   5.614   6.127
  158SAPE   H3S17561   2.796   5.484   6.086
  158SAPE   C2417562   2.877   5.674   6.148
  158SAPE   H4R17563   2.874   5.698   6.039
  158SAPE   H4S17564   2.981   5.640   6.167
  158SAPE   C2517565   2.843   5.800   6.223
  158SAPE   H5R17566   2.806   5.779   6.324
  158SAPE   C2617567   2.849   5.929   6.171
  158SAPE   H6R17568   2.826   6.015   6.235
  158SAPE   C2717569   2.872   5.953   6.023
  158SAPE   H7R17570   2.788   5.904   5.970
  158SAPE   H7S17571   2.963   5.898   5.991
  158SAPE   C2817572   2.890   6.096   5.985
  158SAPE   H8R17573   2.901   6.172   6.063
  158SAPE   C2917574   2.876   6.145   5.862
  158SAPE   H9R17575   2.896   6.253   5.856
  158SAPE  C21017576   2.858   6.070   5.731
  158SAPE  H10R17577   2.790   5.987   5.759
  158SAPE  H10S17578   2.953   6.028   5.691
  158SAPE  C21117579   2.788   6.150   5.623
  158SAPE  H11R17580   2.696   6.199   5.660
  158SAPE  C21217581   2.810   6.164   5.494
  158SAPE  H12R17582   2.736   6.217   5.432
  158SAPE  C21317583   2.912   6.103   5.398
  158SAPE  H13R17584   2.984   6.043   5.459
  158SAPE  H13S17585   2.969   6.186   5.352
  158SAPE  C21417586   2.854   6.005   5.296
  158SAPE  H14R17587   2.786   5.933   5.342
  158SAPE  C21517588   2.878   6.000   5.168
  158SAPE  H15R17589   2.837   5.915   5.112
  158SAPE  C21617590   2.950   6.100   5.082
  158SAPE  H16R17591   2.993   6.184   5.142
  158SAPE  H16S17592   2.886   6.145   5.003
  158SAPE  C21717593   3.065   6.022   5.014
  158SAPE  H17R17594   3.026   5.930   4.967
  158SAPE  H17S17595   3.146   5.986   5.081
  158SAPE  C21817596   3.135   6.104   4.905
  158SAPE  H18R17597   3.161   6.207   4.939
  158SAPE  H18S17598   3.057   6.111   4.825
  158SAPE  C21917599   3.270   6.051   4.847
  158SAPE  H19R17600   3.287   6.122   4.763
  158SAPE  H19S17601   3.272   5.946   4.812
  158SAPE  C22017602   3.389   6.069   4.940
  158SAPE  H20R17603   3.390   5.998   5.025
  158SAPE  H20S17604   3.393   6.170   4.987
  158SAPE  H20T17605   3.485   6.050   4.889
  158SAPE   C3317606   3.135   5.139   6.015
  158SAPE   H3X17607   3.164   5.033   5.999
  158SAPE   H3Y17608   3.192   5.182   6.100
  158SAPE   C3417609   3.169   5.225   5.887
  158SAPE   H4X17610   3.277   5.251   5.883
  158SAPE   H4Y17611   3.119   5.324   5.900
  158SAPE   C3517612   3.138   5.160   5.752
  158SAPE   H5X17613   3.031   5.144   5.725
  158SAPE   H5Y17614   3.178   5.057   5.758
  158SAPE   C3617615   3.198   5.229   5.629
  158SAPE   H6X17616   3.305   5.246   5.653
  158SAPE   H6Y17617   3.167   5.336   5.630
  158SAPE   C3717618   3.192   5.147   5.499
  158SAPE   H7X17619   3.086   5.130   5.468
  158SAPE   H7Y17620   3.229   5.044   5.517
  158SAPE   C3817621   3.270   5.225   5.391
  158SAPE   H8X17622   3.374   5.254   5.418
  158SAPE   H8Y17623   3.221   5.324   5.383
  158SAPE   C3917624   3.266   5.158   5.254
  158SAPE   H9X17625   3.165   5.119   5.232
  158SAPE   H9Y17626   3.328   5.068   5.273
  158SAPE  C31017627   3.309   5.253   5.141
  158SAPE  H10X17628   3.415   5.279   5.158
  158SAPE  H10Y17629   3.245   5.343   5.140
  158SAPE  C31117630   3.316   5.173   5.002
  158SAPE  H11X17631   3.323   5.254   4.926
  158SAPE  H11Y17632   3.214   5.130   4.989
  158SAPE  C31217633   3.425   5.066   4.982
  158SAPE  H12X17634   3.425   4.995   5.068
  158SAPE  H12Y17635   3.516   5.125   4.961
  158SAPE  C31317636   3.397   4.981   4.855
  158SAPE  H13X17637   3.291   4.948   4.859
  158SAPE  H13Y17638   3.447   4.882   4.858
  158SAPE  C31417639   3.441   5.058   4.732
  158SAPE  H14X17640   3.551   5.071   4.722
  158SAPE  H14Y17641   3.392   5.158   4.737
  158SAPE  C31517642   3.391   4.996   4.600
  158SAPE  H15X17643   3.413   4.887   4.612
  158SAPE  H15Y17644   3.453   5.023   4.512
  158SAPE  C31617645   3.243   5.007   4.573
  158SAPE  H16X17646   3.226   5.111   4.540
  158SAPE  H16Y17647   3.192   4.995   4.671
  158SAPE  C31717648   3.187   4.921   4.468
  158SAPE  H17X17649   3.178   4.817   4.506
  158SAPE  H17Y17650   3.254   4.928   4.379
  158SAPE  C31817651   3.048   4.970   4.429
  158SAPE  H18X17652   2.992   4.889   4.379
  158SAPE  H18Y17653   3.049   5.057   4.359
  158SAPE  H18Z17654   2.996   5.003   4.522
  159SAPE     N17655   5.079   3.175   1.721
  159SAPE   HN117656   4.978   3.203   1.719
  159SAPE   HN217657   5.119   3.178   1.626
  159SAPE   HN317658   5.076   3.079   1.760
  159SAPE   C1217659   5.156   3.263   1.812
  159SAPE  H12A17660   5.133   3.372   1.807
  159SAPE  H12B17661   5.265   3.246   1.798
  159SAPE   C1117662   5.138   3.203   1.962
  159SAPE  H11A17663   5.028   3.193   1.972
  159SAPE  H11B17664   5.181   3.274   2.036
  159SAPE     P17665   5.237   3.004   2.099
  159SAPE   O1317666   5.127   2.918   2.144
  159SAPE   O1417667   5.364   2.937   2.070
  159SAPE   O1217668   5.203   3.078   1.970
  159SAPE   O1117669   5.262   3.118   2.214
  159SAPE    C117670   5.393   3.177   2.210
  159SAPE    HA17671   5.443   3.183   2.111
  159SAPE    HB17672   5.387   3.282   2.246
  159SAPE    C217673   5.471   3.104   2.320
  159SAPE    HS17674   5.490   3.000   2.286
  159SAPE   O2117675   5.388   3.105   2.435
  159SAPE   C2117676   5.319   2.992   2.472
  159SAPE   O2217677   5.325   2.888   2.407
  159SAPE   C2217678   5.254   3.014   2.614
  159SAPE   H2R17679   5.295   3.106   2.661
  159SAPE   H2S17680   5.145   3.014   2.595
  159SAPE    C317681   5.616   3.164   2.350
  159SAPE    HX17682   5.587   3.262   2.391
  159SAPE    HY17683   5.672   3.191   2.258
  159SAPE   O3117684   5.691   3.075   2.440
  159SAPE   C3117685   5.746   3.138   2.541
  159SAPE   O3217686   5.724   3.259   2.567
  159SAPE   C3217687   5.818   3.045   2.638
  159SAPE   H2X17688   5.902   3.006   2.577
  159SAPE   H2Y17689   5.748   2.962   2.661
  159SAPE   C2317690   5.278   2.898   2.716
  159SAPE   H3R17691   5.273   2.798   2.667
  159SAPE   H3S17692   5.189   2.895   2.783
  159SAPE   C2417693   5.405   2.898   2.803
  159SAPE   H4R17694   5.491   2.919   2.735
  159SAPE   H4S17695   5.416   2.799   2.853
  159SAPE   C2517696   5.393   3.001   2.906
  159SAPE   H5R17697   5.384   3.102   2.863
  159SAPE   C2617698   5.390   2.989   3.036
  159SAPE   H6R17699   5.395   3.083   3.092
  159SAPE   C2717700   5.399   2.858   3.109
  159SAPE   H7R17701   5.442   2.886   3.207
  159SAPE   H7S17702   5.461   2.780   3.059
  159SAPE   C2817703   5.254   2.802   3.126
  159SAPE   H8R17704   5.191   2.801   3.036
  159SAPE   C2917705   5.196   2.783   3.244
  159SAPE   H9R17706   5.090   2.755   3.248
  159SAPE  C21017707   5.254   2.795   3.386
  159SAPE  H10R17708   5.364   2.777   3.387
  159SAPE  H10S17709   5.210   2.722   3.457
  159SAPE  C21117710   5.236   2.932   3.441
  159SAPE  H11R17711   5.211   3.008   3.366
  159SAPE  C21217712   5.221   2.961   3.576
  159SAPE  H12R17713   5.213   3.063   3.616
  159SAPE  C21317714   5.208   2.862   3.691
  159SAPE  H13R17715   5.198   2.756   3.661
  159SAPE  H13S17716   5.121   2.875   3.759
  159SAPE  C21417717   5.333   2.883   3.780
  159SAPE  H14R17718   5.429   2.911   3.735
  159SAPE  C21517719   5.328   2.912   3.910
  159SAPE  H15R17720   5.421   2.943   3.961
  159SAPE  C21617721   5.213   2.902   4.013
  159SAPE  H16R17722   5.131   2.839   3.974
  159SAPE  H16S17723   5.168   3.002   4.034
  159SAPE  C21717724   5.271   2.828   4.139
  159SAPE  H17R17725   5.313   2.730   4.108
  159SAPE  H17S17726   5.182   2.803   4.201
  159SAPE  C21817727   5.378   2.901   4.212
  159SAPE  H18R17728   5.361   3.011   4.205
  159SAPE  H18S17729   5.478   2.884   4.169
  159SAPE  C21917730   5.390   2.853   4.355
  159SAPE  H19R17731   5.449   2.758   4.352
  159SAPE  H19S17732   5.291   2.857   4.405
  159SAPE  C22017733   5.480   2.957   4.429
  159SAPE  H20R17734   5.578   2.979   4.382
  159SAPE  H20S17735   5.489   2.941   4.538
  159SAPE  H20T17736   5.433   3.058   4.426
  159SAPE   C3317737   5.864   3.107   2.774
  159SAPE   H3X17738   5.905   3.210   2.762
  159SAPE   H3Y17739   5.941   3.037   2.812
  159SAPE   C3417740   5.755   3.113   2.881
  159SAPE   H4X17741   5.714   3.013   2.904
  159SAPE   H4Y17742   5.666   3.171   2.849
  159SAPE   C3517743   5.806   3.171   3.007
  159SAPE   H5X17744   5.825   3.280   2.996
  159SAPE   H5Y17745   5.901   3.120   3.033
  159SAPE   C3617746   5.694   3.176   3.120
  159SAPE   H6X17747   5.664   3.070   3.139
  159SAPE   H6Y17748   5.606   3.236   3.086
  159SAPE   C3717749   5.748   3.227   3.253
  159SAPE   H7X17750   5.671   3.210   3.330
  159SAPE   H7Y17751   5.782   3.333   3.252
  159SAPE   C3817752   5.881   3.151   3.293
  159SAPE   H8X17753   5.962   3.171   3.220
  159SAPE   H8Y17754   5.854   3.044   3.305
  159SAPE   C3917755   5.913   3.198   3.436
  159SAPE   H9X17756   5.817   3.213   3.490
  159SAPE   H9Y17757   5.966   3.295   3.444
  159SAPE  C31017758   5.993   3.087   3.510
  159SAPE  H10X17759   6.094   3.063   3.470
  159SAPE  H10Y17760   5.933   2.994   3.498
  159SAPE  C31117761   6.012   3.122   3.659
  159SAPE  H11X17762   6.002   3.033   3.726
  159SAPE  H11Y17763   5.945   3.198   3.705
  159SAPE  C31217764   6.154   3.180   3.680
  159SAPE  H12X17765   6.181   3.253   3.601
  159SAPE  H12Y17766   6.229   3.098   3.672
  159SAPE  C31317767   6.170   3.256   3.810
  159SAPE  H13X17768   6.159   3.187   3.896
  159SAPE  H13Y17769   6.079   3.320   3.814
  159SAPE  C31417770   6.303   3.325   3.818
  159SAPE  H14X17771   6.324   3.397   3.736
  159SAPE  H14Y17772   6.383   3.250   3.805
  159SAPE  C31517773   6.339   3.398   3.956
  159SAPE  H15X17774   6.444   3.432   3.971
  159SAPE  H15Y17775   6.335   3.327   4.041
  159SAPE  C31617776   6.240   3.512   3.975
  159SAPE  H16X17777   6.251   3.554   4.077
  159SAPE  H16Y17778   6.133   3.489   3.957
  159SAPE  C31717779   6.263   3.627   3.872
  159SAPE  H17X17780   6.184   3.700   3.898
  159SAPE  H17Y17781   6.228   3.583   3.777
  159SAPE  C31817782   6.406   3.688   3.855
  159SAPE  H18X17783   6.402   3.770   3.780
  159SAPE  H18Y17784   6.482   3.610   3.831
  159SAPE  H18Z17785   6.441   3.728   3.952
  160SAPE     N17786   5.022   2.685   2.218
  160SAPE   HN117787   5.014   2.711   2.319
  160SAPE   HN217788   5.055   2.768   2.164
  160SAPE   HN317789   4.925   2.658   2.191
  160SAPE   C1217790   5.123   2.576   2.205
  160SAPE  H12A17791   5.217   2.633   2.194
  160SAPE  H12B17792   5.102   2.524   2.109
  160SAPE   C1117793   5.108   2.469   2.314
  160SAPE  H11A17794   5.140   2.512   2.411
  160SAPE  H11B17795   5.188   2.393   2.300
  160SAPE     P17796   4.919   2.271   2.317
  160SAPE   O1317797   4.782   2.280   2.264
  160SAPE   O1417798   5.006   2.180   2.243
  160SAPE   O1217799   4.972   2.417   2.331
  160SAPE   O1117800   4.914   2.215   2.460
  160SAPE    C117801   4.942   2.290   2.573
  160SAPE    HA17802   5.053   2.290   2.581
  160SAPE    HB17803   4.899   2.392   2.569
  160SAPE    C217804   4.898   2.219   2.698
  160SAPE    HS17805   4.920   2.289   2.782
  160SAPE   O2117806   4.967   2.096   2.721
  160SAPE   C2117807   5.093   2.115   2.774
  160SAPE   O2217808   5.146   2.223   2.794
  160SAPE   C2217809   5.157   1.973   2.811
  160SAPE   H2R17810   5.071   1.906   2.835
  160SAPE   H2S17811   5.203   1.922   2.723
  160SAPE    C317812   4.744   2.188   2.700
  160SAPE    HX17813   4.724   2.129   2.609
  160SAPE    HY17814   4.692   2.286   2.692
  160SAPE   O3117815   4.689   2.122   2.821
  160SAPE   C3117816   4.715   1.992   2.825
  160SAPE   O3217817   4.757   1.919   2.738
  160SAPE   C3217818   4.696   1.945   2.968
  160SAPE   H2X17819   4.587   1.953   2.987
  160SAPE   H2Y17820   4.746   2.012   3.041
  160SAPE   C2317821   5.259   1.964   2.931
  160SAPE   H3R17822   5.342   2.031   2.899
  160SAPE   H3S17823   5.322   1.873   2.936
  160SAPE   C2417824   5.208   2.020   3.062
  160SAPE   H4R17825   5.162   2.120   3.073
  160SAPE   H4S17826   5.293   2.009   3.134
  160SAPE   C2517827   5.109   1.919   3.119
  160SAPE   H5R17828   5.011   1.938   3.072
  160SAPE   C2617829   5.116   1.823   3.213
  160SAPE   H6R17830   5.035   1.753   3.238
  160SAPE   C2717831   5.239   1.788   3.289
  160SAPE   H7R17832   5.336   1.827   3.250
  160SAPE   H7S17833   5.249   1.678   3.299
  160SAPE   C2817834   5.223   1.847   3.424
  160SAPE   H8R17835   5.274   1.944   3.436
  160SAPE   C2917836   5.151   1.787   3.525
  160SAPE   H9R17837   5.147   1.840   3.622
  160SAPE  C21017838   5.084   1.651   3.515
  160SAPE  H10R17839   5.156   1.568   3.500
  160SAPE  H10S17840   5.015   1.645   3.428
  160SAPE  C21117841   5.012   1.610   3.638
  160SAPE  H11R17842   4.914   1.566   3.614
  160SAPE  C21217843   5.043   1.603   3.774
  160SAPE  H12R17844   4.972   1.540   3.831
  160SAPE  C21317845   5.162   1.642   3.854
  160SAPE  H13R17846   5.144   1.639   3.963
  160SAPE  H13S17847   5.201   1.741   3.822
  160SAPE  C21417848   5.268   1.541   3.829
  160SAPE  H14R17849   5.232   1.438   3.821
  160SAPE  C21517850   5.397   1.564   3.824
  160SAPE  H15R17851   5.456   1.472   3.810
  160SAPE  C21617852   5.476   1.697   3.823
  160SAPE  H16R17853   5.447   1.768   3.743
  160SAPE  H16S17854   5.576   1.666   3.784
  160SAPE  C21717855   5.490   1.768   3.954
  160SAPE  H17R17856   5.396   1.826   3.968
  160SAPE  H17S17857   5.566   1.849   3.941
  160SAPE  C21817858   5.529   1.669   4.068
  160SAPE  H18R17859   5.583   1.588   4.015
  160SAPE  H18S17860   5.438   1.625   4.116
  160SAPE  C21917861   5.631   1.725   4.166
  160SAPE  H19R17862   5.562   1.788   4.226
  160SAPE  H19S17863   5.704   1.791   4.114
  160SAPE  C22017864   5.709   1.616   4.245
  160SAPE  H20R17865   5.648   1.532   4.286
  160SAPE  H20S17866   5.757   1.664   4.334
  160SAPE  H20T17867   5.785   1.558   4.190
  160SAPE   C3317868   4.736   1.788   2.989
  160SAPE   H3X17869   4.846   1.776   2.980
  160SAPE   H3Y17870   4.695   1.738   2.898
  160SAPE   C3417871   4.693   1.739   3.127
  160SAPE   H4X17872   4.583   1.737   3.114
  160SAPE   H4Y17873   4.723   1.809   3.208
  160SAPE   C3517874   4.752   1.605   3.171
  160SAPE   H5X17875   4.860   1.599   3.145
  160SAPE   H5Y17876   4.703   1.517   3.124
  160SAPE   C3617877   4.751   1.591   3.327
  160SAPE   H6X17878   4.787   1.684   3.376
  160SAPE   H6Y17879   4.815   1.508   3.365
  160SAPE   C3717880   4.615   1.557   3.382
  160SAPE   H7X17881   4.564   1.479   3.321
  160SAPE   H7Y17882   4.542   1.641   3.374
  160SAPE   C3817883   4.612   1.532   3.537
  160SAPE   H8X17884   4.686   1.458   3.574
  160SAPE   H8Y17885   4.514   1.493   3.573
  160SAPE   C3917886   4.626   1.659   3.617
  160SAPE   H9X17887   4.542   1.729   3.599
  160SAPE   H9Y17888   4.717   1.715   3.585
  160SAPE  C31017889   4.639   1.629   3.762
  160SAPE  H10X17890   4.726   1.561   3.770
  160SAPE  H10Y17891   4.557   1.568   3.807
  160SAPE  C31117892   4.665   1.761   3.845
  160SAPE  H11X17893   4.576   1.827   3.835
  160SAPE  H11Y17894   4.748   1.803   3.784
  160SAPE  C31217895   4.704   1.745   3.987
  160SAPE  H12X17896   4.810   1.771   4.008
  160SAPE  H12Y17897   4.692   1.636   4.009
  160SAPE  C31317898   4.615   1.825   4.083
  160SAPE  H13X17899   4.512   1.805   4.047
  160SAPE  H13Y17900   4.639   1.933   4.091
  160SAPE  C31417901   4.621   1.767   4.223
  160SAPE  H14X17902   4.582   1.663   4.224
  160SAPE  H14Y17903   4.551   1.834   4.277
  160SAPE  C31517904   4.760   1.779   4.278
  160SAPE  H15X17905   4.805   1.880   4.285
  160SAPE  H15Y17906   4.832   1.710   4.228
  160SAPE  C31617907   4.743   1.731   4.427
  160SAPE  H16X17908   4.683   1.638   4.436
  160SAPE  H16Y17909   4.698   1.811   4.490
  160SAPE  C31717910   4.881   1.721   4.505
  160SAPE  H17X17911   4.855   1.697   4.610
  160SAPE  H17Y17912   4.933   1.819   4.509
  160SAPE  C31817913   4.972   1.604   4.456
  160SAPE  H18X17914   5.017   1.647   4.364
  160SAPE  H18Y17915   4.909   1.514   4.441
  160SAPE  H18Z17916   5.060   1.579   4.520
  161SAPE     N17917   2.053   4.448   1.812
  161SAPE   HN117918   2.090   4.365   1.760
  161SAPE   HN217919   1.980   4.418   1.879
  161SAPE   HN317920   2.006   4.515   1.749
  161SAPE   C1217921   2.160   4.514   1.891
  161SAPE  H12A17922   2.132   4.617   1.922
  161SAPE  H12B17923   2.241   4.545   1.822
  161SAPE   C1117924   2.197   4.440   2.022
  161SAPE  H11A17925   2.100   4.437   2.077
  161SAPE  H11B17926   2.261   4.509   2.081
  161SAPE     P17927   2.401   4.284   2.002
  161SAPE   O1317928   2.414   4.162   1.922
  161SAPE   O1417929   2.473   4.406   1.952
  161SAPE   O1217930   2.246   4.311   2.009
  161SAPE   O1117931   2.441   4.253   2.150
  161SAPE    C117932   2.568   4.285   2.202
  161SAPE    HA17933   2.653   4.217   2.176
  161SAPE    HB17934   2.603   4.380   2.156
  161SAPE    C217935   2.560   4.312   2.355
  161SAPE    HS17936   2.662   4.337   2.391
  161SAPE   O2117937   2.518   4.186   2.411
  161SAPE   C2117938   2.610   4.095   2.418
  161SAPE   O2217939   2.728   4.110   2.384
  161SAPE   C2217940   2.550   3.965   2.461
  161SAPE   H2R17941   2.445   3.988   2.490
  161SAPE   H2S17942   2.551   3.902   2.369
  161SAPE    C317943   2.461   4.431   2.390
  161SAPE    HX17944   2.355   4.407   2.367
  161SAPE    HY17945   2.487   4.515   2.322
  161SAPE   O3117946   2.485   4.469   2.529
  161SAPE   C3117947   2.413   4.416   2.623
  161SAPE   O3217948   2.313   4.343   2.606
  161SAPE   C3217949   2.463   4.453   2.757
  161SAPE   H2X17950   2.469   4.564   2.760
  161SAPE   H2Y17951   2.568   4.419   2.770
  161SAPE   C2317952   2.616   3.905   2.593
  161SAPE   H3R17953   2.725   3.925   2.588
  161SAPE   H3S17954   2.602   3.795   2.600
  161SAPE   C2417955   2.559   3.982   2.714
  161SAPE   H4R17956   2.464   3.928   2.734
  161SAPE   H4S17957   2.532   4.086   2.686
  161SAPE   C2517958   2.657   3.984   2.825
  161SAPE   H5R17959   2.714   4.078   2.813
  161SAPE   C2617960   2.643   3.932   2.952
  161SAPE   H6R17961   2.727   3.951   3.020
  161SAPE   C2717962   2.545   3.824   2.989
  161SAPE   H7R17963   2.588   3.766   3.073
  161SAPE   H7S17964   2.544   3.744   2.912
  161SAPE   C2817965   2.407   3.868   3.025
  161SAPE   H8R17966   2.345   3.910   2.944
  161SAPE   C2917967   2.362   3.878   3.153
  161SAPE   H9R17968   2.258   3.908   3.173
  161SAPE  C21017969   2.435   3.835   3.285
  161SAPE  H10R17970   2.419   3.923   3.350
  161SAPE  H10S17971   2.544   3.814   3.273
  161SAPE  C21117972   2.375   3.709   3.343
  161SAPE  H11R17973   2.315   3.655   3.269
  161SAPE  C21217974   2.368   3.670   3.475
  161SAPE  H12R17975   2.315   3.578   3.504
  161SAPE  C21317976   2.434   3.748   3.588
  161SAPE  H13R17977   2.459   3.850   3.552
  161SAPE  H13S17978   2.530   3.700   3.616
  161SAPE  C21417979   2.337   3.759   3.701
  161SAPE  H14R17980   2.260   3.836   3.693
  161SAPE  C21517981   2.351   3.697   3.820
  161SAPE  H15R17982   2.271   3.707   3.894
  161SAPE  C21617983   2.454   3.594   3.846
  161SAPE  H16R17984   2.473   3.530   3.757
  161SAPE  H16S17985   2.415   3.517   3.917
  161SAPE  C21717986   2.590   3.638   3.906
  161SAPE  H17R17987   2.641   3.692   3.824
  161SAPE  H17S17988   2.649   3.551   3.942
  161SAPE  C21817989   2.580   3.744   4.020
  161SAPE  H18R17990   2.495   3.814   4.005
  161SAPE  H18S17991   2.675   3.801   4.022
  161SAPE  C21917992   2.566   3.686   4.161
  161SAPE  H19R17993   2.549   3.577   4.150
  161SAPE  H19S17994   2.477   3.731   4.211
  161SAPE  C22017995   2.689   3.703   4.255
  161SAPE  H20R17996   2.638   3.695   4.354
  161SAPE  H20S17997   2.729   3.806   4.264
  161SAPE  H20T17998   2.772   3.633   4.232
  161SAPE   C3317999   2.389   4.383   2.883
  161SAPE   H3X18000   2.392   4.274   2.860
  161SAPE   H3Y18001   2.281   4.409   2.890
  161SAPE   C3418002   2.440   4.409   3.021
  161SAPE   H4X18003   2.380   4.489   3.069
  161SAPE   H4Y18004   2.548   4.436   3.021
  161SAPE   C3518005   2.413   4.281   3.107
  161SAPE   H5X18006   2.478   4.192   3.098
  161SAPE   H5Y18007   2.310   4.243   3.090
  161SAPE   C3618008   2.413   4.317   3.256
  161SAPE   H6X18009   2.336   4.396   3.270
  161SAPE   H6Y18010   2.504   4.376   3.278
  161SAPE   C3718011   2.406   4.195   3.352
  161SAPE   H7X18012   2.486   4.122   3.326
  161SAPE   H7Y18013   2.313   4.147   3.316
  161SAPE   C3818014   2.392   4.243   3.498
  161SAPE   H8X18015   2.302   4.307   3.511
  161SAPE   H8Y18016   2.478   4.308   3.524
  161SAPE   C3918017   2.373   4.137   3.605
  161SAPE   H9X18018   2.449   4.056   3.596
  161SAPE   H9Y18019   2.274   4.088   3.597
  161SAPE  C31018020   2.383   4.202   3.743
  161SAPE  H10X18021   2.296   4.271   3.748
  161SAPE  H10Y18022   2.472   4.269   3.747
  161SAPE  C31118023   2.388   4.110   3.860
  161SAPE  H11X18024   2.420   4.007   3.834
  161SAPE  H11Y18025   2.287   4.095   3.904
  161SAPE  C31218026   2.480   4.172   3.969
  161SAPE  H12X18027   2.466   4.281   3.981
  161SAPE  H12Y18028   2.587   4.167   3.941
  161SAPE  C31318029   2.462   4.101   4.108
  161SAPE  H13X18030   2.494   3.996   4.094
  161SAPE  H13Y18031   2.354   4.109   4.133
  161SAPE  C31418032   2.554   4.152   4.229
  161SAPE  H14X18033   2.529   4.105   4.327
  161SAPE  H14Y18034   2.522   4.258   4.230
  161SAPE  C31518035   2.701   4.150   4.189
  161SAPE  H15X18036   2.730   4.225   4.112
  161SAPE  H15Y18037   2.716   4.052   4.139
  161SAPE  C31618038   2.801   4.179   4.301
  161SAPE  H16X18039   2.784   4.112   4.388
  161SAPE  H16Y18040   2.782   4.278   4.348
  161SAPE  C31718041   2.952   4.166   4.267
  161SAPE  H17X18042   2.986   4.247   4.198
  161SAPE  H17Y18043   2.962   4.067   4.218
  161SAPE  C31818044   3.046   4.164   4.390
  161SAPE  H18X18045   3.066   4.262   4.439
  161SAPE  H18Y18046   3.146   4.134   4.353
  161SAPE  H18Z18047   3.013   4.085   4.461
  162SAPE     N18048   2.888   0.538   2.273
  162SAPE   HN118049   2.986   0.569   2.260
  162SAPE   HN218050   2.859   0.513   2.176
  162SAPE   HN318051   2.850   0.629   2.305
  162SAPE   C1218052   2.864   0.430   2.375
  162SAPE  H12A18053   2.902   0.457   2.475
  162SAPE  H12B18054   2.921   0.340   2.344
  162SAPE   C1118055   2.717   0.388   2.376
  162SAPE  H11A18056   2.675   0.367   2.275
  162SAPE  H11B18057   2.662   0.477   2.415
  162SAPE     P18058   2.674   0.127   2.410
  162SAPE   O1318059   2.576   0.118   2.301
  162SAPE   O1418060   2.808   0.073   2.380
  162SAPE   O1218061   2.686   0.275   2.464
  162SAPE   O1118062   2.612   0.054   2.536
  162SAPE    C118063   2.677   6.756   2.594
  162SAPE    HA18064   2.783   6.785   2.608
  162SAPE    HB18065   2.641   6.752   2.699
  162SAPE    C218066   2.658   6.622   2.519
  162SAPE    HS18067   2.647   6.639   2.410
  162SAPE   O2118068   2.548   6.559   2.578
  162SAPE   C2118069   2.431   6.585   2.531
  162SAPE   O2218070   2.403   6.650   2.432
  162SAPE   C2218071   2.322   6.508   2.614
  162SAPE   H2R18072   2.261   6.451   2.540
  162SAPE   H2S18073   2.379   6.428   2.667
  162SAPE    C318074   2.782   6.526   2.540
  162SAPE    HX18075   2.870   6.566   2.485
  162SAPE    HY18076   2.756   6.426   2.497
  162SAPE   O3118077   2.806   6.504   2.679
  162SAPE   C3118078   2.923   6.551   2.726
  162SAPE   O3218079   2.999   6.624   2.660
  162SAPE   C3218080   2.941   6.523   2.874
  162SAPE   H2X18081   2.891   6.425   2.890
  162SAPE   H2Y18082   2.886   6.596   2.937
  162SAPE   C2318083   2.234   6.602   2.699
  162SAPE   H3R18084   2.167   6.652   2.626
  162SAPE   H3S18085   2.292   6.679   2.755
  162SAPE   C2418086   2.146   6.524   2.799
  162SAPE   H4R18087   2.216   6.463   2.861
  162SAPE   H4S18088   2.083   6.452   2.743
  162SAPE   C2518089   2.056   6.623   2.871
  162SAPE   H5R18090   1.988   6.677   2.804
  162SAPE   C2618091   2.032   6.635   3.010
  162SAPE   H6R18092   1.970   6.718   3.047
  162SAPE   C2718093   2.094   6.542   3.115
  162SAPE   H7R18094   2.164   6.603   3.177
  162SAPE   H7S18095   2.159   6.466   3.067
  162SAPE   C2818096   1.983   6.469   3.181
  162SAPE   H8R18097   1.929   6.404   3.110
  162SAPE   C2918098   1.960   6.460   3.311
  162SAPE   H9R18099   1.872   6.405   3.349
  162SAPE  C21018100   2.037   6.537   3.417
  162SAPE  H10R18101   2.016   6.645   3.403
  162SAPE  H10S18102   2.144   6.537   3.384
  162SAPE  C21118103   2.011   6.507   3.562
  162SAPE  H11R18104   1.906   6.502   3.593
  162SAPE  C21218105   2.095   6.507   3.669
  162SAPE  H12R18106   2.052   6.498   3.770
  162SAPE  C21318107   2.245   6.521   3.664
  162SAPE  H13R18108   2.271   6.584   3.577
  162SAPE  H13S18109   2.288   6.421   3.639
  162SAPE  C21418110   2.309   6.577   3.797
  162SAPE  H14R18111   2.363   6.672   3.789
  162SAPE  C21518112   2.334   6.509   3.911
  162SAPE  H15R18113   2.373   6.569   3.995
  162SAPE  C21618114   2.280   6.378   3.963
  162SAPE  H16R18115   2.182   6.361   3.913
  162SAPE  H16S18116   2.238   6.390   4.065
  162SAPE  C21718117   2.385   6.267   3.940
  162SAPE  H17R18118   2.440   6.276   3.844
  162SAPE  H17S18119   2.325   6.174   3.929
  162SAPE  C21818120   2.496   6.249   4.046
  162SAPE  H18R18121   2.456   6.195   4.134
  162SAPE  H18S18122   2.537   6.349   4.073
  162SAPE  C21918123   2.610   6.167   3.979
  162SAPE  H19R18124   2.666   6.234   3.910
  162SAPE  H19S18125   2.573   6.082   3.919
  162SAPE  C22018126   2.703   6.097   4.085
  162SAPE  H20R18127   2.776   6.028   4.037
  162SAPE  H20S18128   2.641   6.044   4.160
  162SAPE  H20T18129   2.761   6.176   4.138
  162SAPE   C3318130   3.092   6.506   2.915
  162SAPE   H3X18131   3.147   6.594   2.876
  162SAPE   H3Y18132   3.126   6.417   2.857
  162SAPE   C3418133   3.107   6.497   3.064
  162SAPE   H4X18134   3.044   6.415   3.105
  162SAPE   H4Y18135   3.066   6.594   3.100
  162SAPE   C3518136   3.253   6.467   3.102
  162SAPE   H5X18137   3.326   6.509   3.029
  162SAPE   H5Y18138   3.265   6.358   3.089
  162SAPE   C3618139   3.298   6.483   3.244
  162SAPE   H6X18140   3.326   6.591   3.252
  162SAPE   H6Y18141   3.387   6.419   3.264
  162SAPE   C3718142   3.185   6.453   3.348
  162SAPE   H7X18143   3.144   6.354   3.318
  162SAPE   H7Y18144   3.101   6.526   3.338
  162SAPE   C3818145   3.221   6.444   3.496
  162SAPE   H8X18146   3.257   6.545   3.525
  162SAPE   H8Y18147   3.317   6.389   3.491
  162SAPE   C3918148   3.124   6.382   3.591
  162SAPE   H9X18149   3.087   6.281   3.562
  162SAPE   H9Y18150   3.031   6.443   3.589
  162SAPE  C31018151   3.184   6.369   3.727
  162SAPE  H10X18152   3.189   6.467   3.781
  162SAPE  H10Y18153   3.281   6.316   3.728
  162SAPE  C31118154   3.101   6.290   3.833
  162SAPE  H11X18155   3.106   6.184   3.800
  162SAPE  H11Y18156   3.002   6.340   3.832
  162SAPE  C31218157   3.139   6.294   3.980
  162SAPE  H12X18158   3.145   6.402   4.006
  162SAPE  H12Y18159   3.236   6.241   3.993
  162SAPE  C31318160   3.026   6.226   4.071
  162SAPE  H13X18161   3.002   6.129   4.024
  162SAPE  H13Y18162   2.947   6.304   4.075
  162SAPE  C31418163   3.080   6.202   4.212
  162SAPE  H14X18164   3.179   6.150   4.212
  162SAPE  H14Y18165   3.010   6.125   4.251
  162SAPE  C31518166   3.087   6.317   4.301
  162SAPE  H15X18167   2.984   6.359   4.295
  162SAPE  H15Y18168   3.163   6.386   4.258
  162SAPE  C31618169   3.107   6.292   4.451
  162SAPE  H16X18170   3.205   6.240   4.451
  162SAPE  H16Y18171   3.027   6.233   4.501
  162SAPE  C31718172   3.155   6.419   4.541
  162SAPE  H17X18173   3.091   6.506   4.518
  162SAPE  H17Y18174   3.257   6.448   4.507
  162SAPE  C31818175   3.139   6.400   4.691
  162SAPE  H18X18176   3.040   6.363   4.726
  162SAPE  H18Y18177   3.130   6.495   4.747
  162SAPE  H18Z18178   3.223   6.339   4.730
  163SAPE     N18179   2.319   3.215   2.128
  163SAPE   HN118180   2.258   3.200   2.212
  163SAPE   HN218181   2.308   3.126   2.075
  163SAPE   HN318182   2.419   3.229   2.151
  163SAPE   C1218183   2.267   3.320   2.030
  163SAPE  H12A18184   2.345   3.355   1.960
  163SAPE  H12B18185   2.233   3.402   2.097
  163SAPE   C1118186   2.150   3.262   1.956
  163SAPE  H11A18187   2.199   3.195   1.882
  163SAPE  H11B18188   2.098   3.351   1.913
  163SAPE     P18189   1.935   3.247   2.094
  163SAPE   O1318190   1.869   3.303   1.974
  163SAPE   O1418191   1.870   3.148   2.179
  163SAPE   O1218192   2.069   3.183   2.045
  163SAPE   O1118193   1.999   3.371   2.168
  163SAPE    C118194   2.031   3.346   2.302
  163SAPE    HA18195   2.069   3.243   2.319
  163SAPE    HB18196   2.127   3.400   2.317
  163SAPE    C218197   1.913   3.385   2.397
  163SAPE    HS18198   1.820   3.338   2.359
  163SAPE   O2118199   1.911   3.528   2.411
  163SAPE   C2118200   1.792   3.580   2.369
  163SAPE   O2218201   1.692   3.521   2.335
  163SAPE   C2218202   1.803   3.730   2.387
  163SAPE   H2R18203   1.890   3.757   2.450
  163SAPE   H2S18204   1.814   3.770   2.285
  163SAPE    C318205   1.942   3.313   2.532
  163SAPE    HX18206   2.030   3.365   2.575
  163SAPE    HY18207   1.971   3.206   2.516
  163SAPE   O3118208   1.829   3.335   2.618
  163SAPE   C3118209   1.728   3.246   2.612
  163SAPE   O3218210   1.715   3.159   2.530
  163SAPE   C3218211   1.631   3.280   2.718
  163SAPE   H2X18212   1.537   3.225   2.696
  163SAPE   H2Y18213   1.608   3.388   2.712
  163SAPE   C2318214   1.671   3.786   2.432
  163SAPE   H3R18215   1.581   3.749   2.378
  163SAPE   H3S18216   1.680   3.894   2.409
  163SAPE   C2418217   1.647   3.766   2.585
  163SAPE   H4R18218   1.651   3.657   2.608
  163SAPE   H4S18219   1.541   3.791   2.610
  163SAPE   C2518220   1.738   3.846   2.671
  163SAPE   H5R18221   1.796   3.918   2.611
  163SAPE   C2618222   1.761   3.836   2.799
  163SAPE   H6R18223   1.835   3.907   2.838
  163SAPE   C2718224   1.693   3.757   2.903
  163SAPE   H7R18225   1.697   3.649   2.878
  163SAPE   H7S18226   1.589   3.797   2.905
  163SAPE   C2818227   1.756   3.775   3.043
  163SAPE   H8R18228   1.865   3.761   3.045
  163SAPE   C2918229   1.686   3.771   3.161
  163SAPE   H9R18230   1.754   3.778   3.248
  163SAPE  C21018231   1.531   3.777   3.187
  163SAPE  H10R18232   1.485   3.785   3.086
  163SAPE  H10S18233   1.508   3.872   3.241
  163SAPE  C21118234   1.479   3.673   3.280
  163SAPE  H11R18235   1.485   3.570   3.243
  163SAPE  C21218236   1.415   3.693   3.396
  163SAPE  H12R18237   1.381   3.603   3.449
  163SAPE  C21318238   1.377   3.833   3.462
  163SAPE  H13R18239   1.358   3.914   3.389
  163SAPE  H13S18240   1.460   3.880   3.518
  163SAPE  C21418241   1.255   3.822   3.547
  163SAPE  H14R18242   1.163   3.871   3.512
  163SAPE  C21518243   1.245   3.753   3.666
  163SAPE  H15R18244   1.150   3.735   3.717
  163SAPE  C21618245   1.368   3.692   3.743
  163SAPE  H16R18246   1.462   3.723   3.693
  163SAPE  H16S18247   1.348   3.583   3.732
  163SAPE  C21718248   1.362   3.740   3.890
  163SAPE  H17R18249   1.436   3.685   3.952
  163SAPE  H17S18250   1.270   3.721   3.951
  163SAPE  C21818251   1.398   3.890   3.902
  163SAPE  H18R18252   1.325   3.957   3.852
  163SAPE  H18S18253   1.490   3.910   3.842
  163SAPE  C21918254   1.408   3.934   4.051
  163SAPE  H19R18255   1.412   3.843   4.115
  163SAPE  H19S18256   1.311   3.966   4.094
  163SAPE  C22018257   1.513   4.039   4.078
  163SAPE  H20R18258   1.538   4.045   4.186
  163SAPE  H20S18259   1.488   4.138   4.034
  163SAPE  H20T18260   1.605   4.004   4.028
  163SAPE   C3318261   1.685   3.243   2.866
  163SAPE   H3X18262   1.764   3.317   2.892
  163SAPE   H3Y18263   1.723   3.139   2.865
  163SAPE   C3418264   1.590   3.268   2.987
  163SAPE   H4X18265   1.505   3.197   2.983
  163SAPE   H4Y18266   1.546   3.370   2.984
  163SAPE   C3518267   1.674   3.256   3.122
  163SAPE   H5X18268   1.754   3.333   3.116
  163SAPE   H5Y18269   1.737   3.164   3.117
  163SAPE   C3618270   1.584   3.257   3.247
  163SAPE   H6X18271   1.521   3.166   3.248
  163SAPE   H6Y18272   1.529   3.353   3.240
  163SAPE   C3718273   1.668   3.253   3.376
  163SAPE   H7X18274   1.740   3.337   3.374
  163SAPE   H7Y18275   1.716   3.153   3.383
  163SAPE   C3818276   1.578   3.286   3.497
  163SAPE   H8X18277   1.499   3.208   3.505
  163SAPE   H8Y18278   1.527   3.382   3.474
  163SAPE   C3918279   1.652   3.300   3.622
  163SAPE   H9X18280   1.732   3.374   3.602
  163SAPE   H9Y18281   1.691   3.204   3.663
  163SAPE  C31018282   1.553   3.343   3.736
  163SAPE  H10X18283   1.461   3.282   3.727
  163SAPE  H10Y18284   1.517   3.448   3.729
  163SAPE  C31118285   1.610   3.321   3.875
  163SAPE  H11X18286   1.701   3.382   3.894
  163SAPE  H11Y18287   1.633   3.212   3.878
  163SAPE  C31218288   1.496   3.348   3.984
  163SAPE  H12X18289   1.407   3.295   3.944
  163SAPE  H12Y18290   1.486   3.459   3.991
  163SAPE  C31318291   1.534   3.278   4.120
  163SAPE  H13X18292   1.635   3.314   4.149
  163SAPE  H13Y18293   1.537   3.170   4.092
  163SAPE  C31418294   1.428   3.291   4.235
  163SAPE  H14X18295   1.453   3.229   4.323
  163SAPE  H14Y18296   1.322   3.270   4.211
  163SAPE  C31518297   1.415   3.435   4.288
  163SAPE  H15X18298   1.315   3.451   4.334
  163SAPE  H15Y18299   1.425   3.499   4.198
  163SAPE  C31618300   1.516   3.473   4.390
  163SAPE  H16X18301   1.612   3.477   4.336
  163SAPE  H16Y18302   1.518   3.392   4.465
  163SAPE  C31718303   1.480   3.612   4.444
  163SAPE  H17X18304   1.560   3.635   4.516
  163SAPE  H17Y18305   1.388   3.614   4.506
  163SAPE  C31818306   1.470   3.715   4.338
  163SAPE  H18X18307   1.557   3.707   4.270
  163SAPE  H18Y18308   1.482   3.816   4.384
  163SAPE  H18Z18309   1.375   3.705   4.282
  164SAPE     N18310   6.202   3.966   2.354
  164SAPE   HN118311   6.202   4.019   2.265
  164SAPE   HN218312   6.295   3.966   2.402
  164SAPE   HN318313   6.184   3.866   2.332
  164SAPE   C1218314   6.100   4.017   2.456
  164SAPE  H12A18315   6.121   4.124   2.475
  164SAPE  H12B18316   6.108   3.968   2.556
  164SAPE   C1118317   5.955   4.011   2.406
  164SAPE  H11A18318   5.888   4.056   2.483
  164SAPE  H11B18319   5.922   3.906   2.396
  164SAPE     P18320   5.957   4.221   2.255
  164SAPE   O1318321   6.107   4.236   2.244
  164SAPE   O1418322   5.877   4.278   2.141
  164SAPE   O1218323   5.923   4.067   2.286
  164SAPE   O1118324   5.911   4.299   2.387
  164SAPE    C118325   5.772   4.323   2.405
  164SAPE    HA18326   5.719   4.389   2.333
  164SAPE    HB18327   5.712   4.232   2.389
  164SAPE    C218328   5.757   4.377   2.552
  164SAPE    HS18329   5.821   4.468   2.553
  164SAPE   O2118330   5.805   4.264   2.635
  164SAPE   C2118331   5.913   4.296   2.702
  164SAPE   O2218332   5.972   4.400   2.701
  164SAPE   C2218333   5.950   4.169   2.774
  164SAPE   H2R18334   5.871   4.142   2.847
  164SAPE   H2S18335   5.942   4.084   2.702
  164SAPE    C318336   5.610   4.402   2.589
  164SAPE    HX18337   5.559   4.304   2.575
  164SAPE    HY18338   5.559   4.474   2.521
  164SAPE   O3118339   5.607   4.446   2.724
  164SAPE   C3118340   5.632   4.579   2.751
  164SAPE   O3218341   5.638   4.668   2.673
  164SAPE   C3218342   5.630   4.597   2.908
  164SAPE   H2X18343   5.582   4.501   2.937
  164SAPE   H2Y18344   5.557   4.680   2.919
  164SAPE   C2318345   6.089   4.175   2.835
  164SAPE   H3R18346   6.095   4.254   2.914
  164SAPE   H3S18347   6.171   4.195   2.763
  164SAPE   C2418348   6.126   4.031   2.887
  164SAPE   H4R18349   6.228   4.032   2.930
  164SAPE   H4S18350   6.129   3.956   2.805
  164SAPE   C2518351   6.038   3.968   2.990
  164SAPE   H5R18352   5.941   3.942   2.946
  164SAPE   C2618353   6.064   3.926   3.113
  164SAPE   H6R18354   5.975   3.897   3.171
  164SAPE   C2718355   6.190   3.943   3.200
  164SAPE   H7R18356   6.193   4.035   3.261
  164SAPE   H7S18357   6.276   3.951   3.130
  164SAPE   C2818358   6.217   3.834   3.301
  164SAPE   H8R18359   6.265   3.745   3.258
  164SAPE   C2918360   6.196   3.836   3.435
  164SAPE   H9R18361   6.241   3.752   3.490
  164SAPE  C21018362   6.135   3.949   3.517
  164SAPE  H10R18363   6.065   4.017   3.464
  164SAPE  H10S18364   6.222   4.013   3.540
  164SAPE  C21118365   6.071   3.902   3.646
  164SAPE  H11R18366   6.070   3.795   3.671
  164SAPE  C21218367   6.008   3.977   3.735
  164SAPE  H12R18368   5.962   3.929   3.823
  164SAPE  C21318369   5.991   4.128   3.720
  164SAPE  H13R18370   6.068   4.168   3.651
  164SAPE  H13S18371   6.007   4.177   3.818
  164SAPE  C21418372   5.857   4.161   3.662
  164SAPE  H14R18373   5.846   4.165   3.553
  164SAPE  C21518374   5.744   4.184   3.728
  164SAPE  H15R18375   5.653   4.217   3.675
  164SAPE  C21618376   5.714   4.165   3.872
  164SAPE  H16R18377   5.760   4.070   3.908
  164SAPE  H16S18378   5.607   4.145   3.892
  164SAPE  C21718379   5.770   4.285   3.946
  164SAPE  H17R18380   5.730   4.375   3.896
  164SAPE  H17S18381   5.880   4.293   3.931
  164SAPE  C21818382   5.728   4.284   4.096
  164SAPE  H18R18383   5.719   4.175   4.115
  164SAPE  H18S18384   5.626   4.326   4.098
  164SAPE  C21918385   5.829   4.337   4.201
  164SAPE  H19R18386   5.786   4.334   4.303
  164SAPE  H19S18387   5.849   4.445   4.188
  164SAPE  C22018388   5.962   4.260   4.203
  164SAPE  H20R18389   6.009   4.250   4.103
  164SAPE  H20S18390   5.942   4.164   4.254
  164SAPE  H20T18391   6.030   4.302   4.281
  164SAPE   C3318392   5.767   4.633   2.965
  164SAPE   H3X18393   5.790   4.740   2.945
  164SAPE   H3Y18394   5.851   4.572   2.924
  164SAPE   C3418395   5.768   4.622   3.109
  164SAPE   H4X18396   5.687   4.685   3.153
  164SAPE   H4Y18397   5.860   4.667   3.151
  164SAPE   C3518398   5.749   4.479   3.163
  164SAPE   H5X18399   5.823   4.414   3.111
  164SAPE   H5Y18400   5.646   4.444   3.142
  164SAPE   C3618401   5.767   4.475   3.315
  164SAPE   H6X18402   5.869   4.505   3.345
  164SAPE   H6Y18403   5.752   4.376   3.364
  164SAPE   C3718404   5.669   4.569   3.397
  164SAPE   H7X18405   5.567   4.536   3.370
  164SAPE   H7Y18406   5.681   4.678   3.378
  164SAPE   C3818407   5.675   4.540   3.545
  164SAPE   H8X18408   5.782   4.548   3.575
  164SAPE   H8Y18409   5.653   4.432   3.560
  164SAPE   C3918410   5.589   4.623   3.627
  164SAPE   H9X18411   5.480   4.617   3.605
  164SAPE   H9Y18412   5.607   4.732   3.612
  164SAPE  C31018413   5.593   4.568   3.768
  164SAPE  H10X18414   5.696   4.566   3.809
  164SAPE  H10Y18415   5.560   4.462   3.780
  164SAPE  C31118416   5.510   4.657   3.861
  164SAPE  H11X18417   5.402   4.640   3.845
  164SAPE  H11Y18418   5.541   4.763   3.846
  164SAPE  C31218419   5.535   4.617   4.012
  164SAPE  H12X18420   5.642   4.640   4.030
  164SAPE  H12Y18421   5.518   4.508   4.028
  164SAPE  C31318422   5.446   4.700   4.101
  164SAPE  H13X18423   5.340   4.671   4.081
  164SAPE  H13Y18424   5.463   4.810   4.093
  164SAPE  C31418425   5.464   4.672   4.250
  164SAPE  H14X18426   5.388   4.729   4.309
  164SAPE  H14Y18427   5.564   4.712   4.274
  164SAPE  C31518428   5.459   4.523   4.297
  164SAPE  H15X18429   5.561   4.479   4.291
  164SAPE  H15Y18430   5.383   4.462   4.243
  164SAPE  C31618431   5.412   4.509   4.447
  164SAPE  H16X18432   5.401   4.405   4.483
  164SAPE  H16Y18433   5.308   4.548   4.451
  164SAPE  C31718434   5.487   4.587   4.551
  164SAPE  H17X18435   5.450   4.692   4.539
  164SAPE  H17Y18436   5.596   4.580   4.530
  164SAPE  C31818437   5.458   4.559   4.705
  164SAPE  H18X18438   5.509   4.463   4.727
  164SAPE  H18Y18439   5.350   4.548   4.731
  164SAPE  H18Z18440   5.504   4.631   4.776
  165SAPE     N18441   5.726   0.782   2.570
  165SAPE   HN118442   5.686   0.763   2.664
  165SAPE   HN218443   5.829   0.784   2.574
  165SAPE   HN318444   5.695   0.877   2.541
  165SAPE   C1218445   5.673   0.669   2.470
  165SAPE  H12A18446   5.705   0.689   2.366
  165SAPE  H12B18447   5.563   0.683   2.480
  165SAPE   C1118448   5.709   0.530   2.515
  165SAPE  H11A18449   5.679   0.468   2.428
  165SAPE  H11B18450   5.643   0.499   2.599
  165SAPE     P18451   5.928   0.386   2.539
  165SAPE   O1318452   5.838   0.273   2.508
  165SAPE   O1418453   6.045   0.407   2.448
  165SAPE   O1218454   5.846   0.521   2.553
  165SAPE   O1118455   5.982   0.375   2.691
  165SAPE    C118456   5.919   0.440   2.796
  165SAPE    HA18457   5.988   0.523   2.822
  165SAPE    HB18458   5.819   0.473   2.761
  165SAPE    C218459   5.902   0.358   2.929
  165SAPE    HS18460   5.864   0.417   3.015
  165SAPE   O2118461   6.020   0.286   2.963
  165SAPE   C2118462   6.129   0.354   2.989
  165SAPE   O2218463   6.129   0.477   2.999
  165SAPE   C2218464   6.238   0.250   3.018
  165SAPE   H2R18465   6.213   0.146   2.990
  165SAPE   H2S18466   6.332   0.270   2.962
  165SAPE    C318467   5.788   0.255   2.912
  165SAPE    HX18468   5.825   0.180   2.838
  165SAPE    HY18469   5.701   0.303   2.862
  165SAPE   O3118470   5.763   0.194   3.038
  165SAPE   C3118471   5.672   0.256   3.113
  165SAPE   O3218472   5.633   0.368   3.077
  165SAPE   C3218473   5.634   0.179   3.240
  165SAPE   H2X18474   5.734   0.151   3.279
  165SAPE   H2Y18475   5.592   0.080   3.215
  165SAPE   C2318476   6.283   0.276   3.166
  165SAPE   H3R18477   6.312   0.380   3.189
  165SAPE   H3S18478   6.385   0.231   3.170
  165SAPE   C2418479   6.219   0.199   3.278
  165SAPE   H4R18480   6.274   0.239   3.365
  165SAPE   H4S18481   6.251   0.093   3.272
  165SAPE   C2518482   6.075   0.212   3.282
  165SAPE   H5R18483   6.018   0.166   3.200
  165SAPE   C2618484   6.013   0.276   3.381
  165SAPE   H6R18485   5.903   0.270   3.380
  165SAPE   C2718486   6.082   0.347   3.501
  165SAPE   H7R18487   6.162   0.286   3.548
  165SAPE   H7S18488   6.012   0.370   3.584
  165SAPE   C2818489   6.125   0.488   3.469
  165SAPE   H8R18490   6.196   0.490   3.384
  165SAPE   C2918491   6.118   0.600   3.549
  165SAPE   H9R18492   6.152   0.700   3.519
  165SAPE  C21018493   6.059   0.613   3.692
  165SAPE  H10R18494   6.124   0.561   3.766
  165SAPE  H10S18495   5.964   0.555   3.700
  165SAPE  C21118496   6.040   0.751   3.743
  165SAPE  H11R18497   5.988   0.823   3.678
  165SAPE  C21218498   6.083   0.806   3.860
  165SAPE  H12R18499   6.047   0.909   3.873
  165SAPE  C21318500   6.168   0.747   3.972
  165SAPE  H13R18501   6.155   0.817   4.057
  165SAPE  H13S18502   6.278   0.745   3.957
  165SAPE  C21418503   6.116   0.616   4.028
  165SAPE  H14R18504   6.098   0.545   3.946
  165SAPE  C21518505   6.092   0.580   4.150
  165SAPE  H15R18506   6.061   0.479   4.181
  165SAPE  C21618507   6.091   0.668   4.270
  165SAPE  H16R18508   5.996   0.652   4.326
  165SAPE  H16S18509   6.114   0.774   4.247
  165SAPE  C21718510   6.195   0.632   4.382
  165SAPE  H17R18511   6.290   0.678   4.346
  165SAPE  H17S18512   6.197   0.522   4.389
  165SAPE  C21818513   6.160   0.702   4.516
  165SAPE  H18R18514   6.057   0.667   4.538
  165SAPE  H18S18515   6.166   0.813   4.515
  165SAPE  C21918516   6.257   0.664   4.630
  165SAPE  H19R18517   6.357   0.699   4.597
  165SAPE  H19S18518   6.272   0.554   4.621
  165SAPE  C22018519   6.222   0.709   4.770
  165SAPE  H20R18520   6.267   0.653   4.855
  165SAPE  H20S18521   6.111   0.708   4.783
  165SAPE  H20T18522   6.259   0.812   4.785
  165SAPE   C3318523   5.552   0.266   3.340
  165SAPE   H3X18524   5.448   0.259   3.303
  165SAPE   H3Y18525   5.571   0.376   3.343
  165SAPE   C3418526   5.563   0.212   3.485
  165SAPE   H4X18527   5.670   0.235   3.505
  165SAPE   H4Y18528   5.537   0.105   3.469
  165SAPE   C3518529   5.470   0.300   3.586
  165SAPE   H5X18530   5.363   0.274   3.572
  165SAPE   H5Y18531   5.487   0.410   3.579
  165SAPE   C3618532   5.487   0.245   3.731
  165SAPE   H6X18533   5.588   0.272   3.770
  165SAPE   H6Y18534   5.470   0.136   3.729
  165SAPE   C3718535   5.378   0.292   3.835
  165SAPE   H7X18536   5.290   0.280   3.768
  165SAPE   H7Y18537   5.394   0.397   3.865
  165SAPE   C3818538   5.357   0.204   3.956
  165SAPE   H8X18539   5.457   0.184   3.999
  165SAPE   H8Y18540   5.308   0.111   3.920
  165SAPE   C3918541   5.276   0.273   4.070
  165SAPE   H9X18542   5.181   0.303   4.021
  165SAPE   H9Y18543   5.330   0.360   4.112
  165SAPE  C31018544   5.245   0.170   4.179
  165SAPE  H10X18545   5.341   0.123   4.207
  165SAPE  H10Y18546   5.173   0.092   4.144
  165SAPE  C31118547   5.179   0.229   4.299
  165SAPE  H11X18548   5.079   0.268   4.269
  165SAPE  H11Y18549   5.244   0.315   4.324
  165SAPE  C31218550   5.188   0.145   4.423
  165SAPE  H12X18551   5.292   0.110   4.443
  165SAPE  H12Y18552   5.130   0.051   4.414
  165SAPE  C31318553   5.151   0.217   4.554
  165SAPE  H13X18554   5.072   0.290   4.524
  165SAPE  H13Y18555   5.231   0.289   4.580
  165SAPE  C31418556   5.122   0.122   4.664
  165SAPE  H14X18557   5.186   0.035   4.641
  165SAPE  H14Y18558   5.026   0.071   4.640
  165SAPE  C31518559   5.117   0.191   4.801
  165SAPE  H15X18560   5.216   0.242   4.805
  165SAPE  H15Y18561   5.102   0.125   4.889
  165SAPE  C31618562   5.005   0.292   4.806
  165SAPE  H16X18563   4.906   0.245   4.786
  165SAPE  H16Y18564   5.004   0.363   4.721
  165SAPE  C31718565   5.014   0.369   4.939
  165SAPE  H17X18566   5.108   0.426   4.953
  165SAPE  H17Y18567   5.019   0.296   5.023
  165SAPE  C31818568   4.897   0.462   4.971
  165SAPE  H18X18569   4.876   0.530   4.886
  165SAPE  H18Y18570   4.912   0.523   5.062
  165SAPE  H18Z18571   4.813   0.390   4.982
  166SAPE     N18572   0.030   5.646   2.337
  166SAPE   HN118573   0.113   5.709   2.346
  166SAPE   HN218574   6.814   5.625   2.435
  166SAPE   HN318575   0.052   5.563   2.280
  166SAPE   C1218576   6.726   5.719   2.274
  166SAPE  H12A18577   6.745   5.828   2.270
  166SAPE  H12B18578   6.639   5.708   2.342
  166SAPE   C1118579   6.690   5.649   2.137
  166SAPE  H11A18580   6.780   5.662   2.074
  166SAPE  H11B18581   6.602   5.705   2.098
  166SAPE     P18582   6.516   5.455   2.205
  166SAPE   O1318583   6.463   5.531   2.321
  166SAPE   O1418584   6.422   5.449   2.093
  166SAPE   O1218585   6.659   5.510   2.165
  166SAPE   O1118586   6.545   5.312   2.254
  166SAPE    C118587   6.633   5.278   2.360
  166SAPE    HA18588   6.704   5.202   2.323
  166SAPE    HB18589   6.680   5.369   2.404
  166SAPE    C218590   6.555   5.201   2.466
  166SAPE    HS18591   6.472   5.257   2.514
  166SAPE   O2118592   6.646   5.162   2.573
  166SAPE   C2118593   6.671   5.260   2.656
  166SAPE   O2218594   6.628   5.376   2.653
  166SAPE   C2218595   6.748   5.208   2.770
  166SAPE   H2R18596   6.692   5.126   2.820
  166SAPE   H2S18597   0.028   5.160   2.738
  166SAPE    C318598   6.481   5.072   2.412
  166SAPE    HX18599   6.542   5.008   2.345
  166SAPE    HY18600   6.407   5.116   2.342
  166SAPE   O3118601   6.419   5.009   2.525
  166SAPE   C3118602   6.462   4.902   2.572
  166SAPE   O3218603   6.547   4.831   2.523
  166SAPE   C3218604   6.396   4.887   2.714
  166SAPE   H2X18605   6.438   4.796   2.763
  166SAPE   H2Y18606   6.288   4.871   2.693
  166SAPE   C2318607   6.783   5.309   2.883
  166SAPE   H3R18608   6.685   5.342   2.923
  166SAPE   H3S18609   0.023   5.398   2.845
  166SAPE   C2418610   0.045   5.258   3.008
  166SAPE   H4R18611   0.082   5.349   3.061
  166SAPE   H4S18612   0.138   5.209   2.971
  166SAPE   C2518613   6.794   5.157   3.089
  166SAPE   H5R18614   6.751   5.072   3.033
  166SAPE   C2618615   6.783   5.158   3.223
  166SAPE   H6R18616   6.705   5.089   3.257
  166SAPE   C2718617   0.016   5.263   3.320
  166SAPE   H7R18618   0.001   5.369   3.288
  166SAPE   H7S18619   0.127   5.267   3.317
  166SAPE   C2818620   6.805   5.239   3.465
  166SAPE   H8R18621   6.734   5.158   3.484
  166SAPE   C2918622   0.056   5.296   3.570
  166SAPE   H9R18623   0.015   5.279   3.670
  166SAPE  C21018624   0.159   5.409   3.560
  166SAPE  H10R18625   0.124   5.484   3.485
  166SAPE  H10S18626   0.258   5.376   3.522
  166SAPE  C21118627   0.180   5.490   3.688
  166SAPE  H11R18628   0.268   5.465   3.749
  166SAPE  C21218629   0.108   5.603   3.717
  166SAPE  H12R18630   0.134   5.655   3.810
  166SAPE  C21318631   6.811   5.660   3.634
  166SAPE  H13R18632   6.729   5.700   3.698
  166SAPE  H13S18633   6.760   5.573   3.585
  166SAPE  C21418634   0.019   5.771   3.538
  166SAPE  H14R18635   0.087   5.851   3.574
  166SAPE  C21518636   6.793   5.780   3.413
  166SAPE  H15R18637   0.005   5.873   3.361
  166SAPE  C21618638   6.694   5.690   3.348
  166SAPE  H16R18639   6.599   5.744   3.328
  166SAPE  H16S18640   6.662   5.600   3.406
  166SAPE  C21718641   6.740   5.649   3.208
  166SAPE  H17R18642   6.670   5.566   3.189
  166SAPE  H17S18643   0.022   5.596   3.196
  166SAPE  C21818644   6.734   5.751   3.096
  166SAPE  H18R18645   6.794   5.839   3.126
  166SAPE  H18S18646   6.624   5.770   3.089
  166SAPE  C21918647   6.790   5.694   2.964
  166SAPE  H19R18648   6.746   5.594   2.941
  166SAPE  H19S18649   0.083   5.668   2.973
  166SAPE  C22018650   6.783   5.793   2.847
  166SAPE  H20R18651   0.012   5.893   2.870
  166SAPE  H20S18652   6.677   5.808   2.815
  166SAPE  H20T18653   0.021   5.751   2.759
  166SAPE   C3318654   6.409   5.002   2.811
  166SAPE   H3X18655   6.482   5.074   2.768
  166SAPE   H3Y18656   6.446   4.975   2.913
  166SAPE   C3418657   6.276   5.076   2.822
  166SAPE   H4X18658   6.214   5.009   2.885
  166SAPE   H4Y18659   6.221   5.077   2.725
  166SAPE   C3518660   6.304   5.213   2.876
  166SAPE   H5X18661   6.207   5.268   2.879
  166SAPE   H5Y18662   6.356   5.274   2.798
  166SAPE   C3618663   6.396   5.233   2.997
  166SAPE   H6X18664   6.502   5.202   2.987
  166SAPE   H6Y18665   6.348   5.156   3.061
  166SAPE   C3718666   6.385   5.369   3.064
  166SAPE   H7X18667   6.276   5.387   3.073
  166SAPE   H7Y18668   6.429   5.449   3.000
  166SAPE   C3818669   6.457   5.385   3.202
  166SAPE   H8X18670   6.448   5.488   3.245
  166SAPE   H8Y18671   6.565   5.371   3.181
  166SAPE   C3918672   6.407   5.293   3.310
  166SAPE   H9X18673   6.433   5.191   3.274
  166SAPE   H9Y18674   6.298   5.311   3.322
  166SAPE  C31018675   6.460   5.334   3.449
  166SAPE  H10X18676   6.422   5.432   3.487
  166SAPE  H10Y18677   6.568   5.353   3.434
  166SAPE  C31118678   6.426   5.223   3.560
  166SAPE  H11X18679   6.449   5.119   3.528
  166SAPE  H11Y18680   6.316   5.231   3.572
  166SAPE  C31218681   6.486   5.229   3.693
  166SAPE  H12X18682   6.595   5.216   3.675
  166SAPE  H12Y18683   6.469   5.141   3.759
  166SAPE  C31318684   6.448   5.356   3.767
  166SAPE  H13X18685   6.340   5.366   3.788
  166SAPE  H13Y18686   6.478   5.449   3.714
  166SAPE  C31418687   6.534   5.348   3.899
  166SAPE  H14X18688   6.641   5.344   3.871
  166SAPE  H14Y18689   6.513   5.253   3.951
  166SAPE  C31518690   6.507   5.474   3.983
  166SAPE  H15X18691   6.401   5.468   4.016
  166SAPE  H15Y18692   6.519   5.566   3.923
  166SAPE  C31618693   6.613   5.485   4.091
  166SAPE  H16X18694   6.711   5.519   4.048
  166SAPE  H16Y18695   6.633   5.388   4.140
  166SAPE  C31718696   6.576   5.586   4.205
  166SAPE  H17X18697   6.470   5.562   4.228
  166SAPE  H17Y18698   6.576   5.689   4.162
  166SAPE  C31818699   6.660   5.582   4.334
  166SAPE  H18X18700   6.617   5.660   4.399
  166SAPE  H18Y18701   6.763   5.619   4.316
  166SAPE  H18Z18702   6.665   5.485   4.388
  167SAPE     N18703   6.368   3.164   2.399
  167SAPE   HN118704   6.472   3.171   2.405
  167SAPE   HN218705   6.340   3.085   2.460
  167SAPE   HN318706   6.331   3.144   2.303
  167SAPE   C1218707   6.323   3.298   2.445
  167SAPE  H12A18708   6.215   3.298   2.419
  167SAPE  H12B18709   6.368   3.376   2.379
  167SAPE   C1118710   6.346   3.327   2.597
  167SAPE  H11A18711   6.297   3.238   2.642
  167SAPE  H11B18712   6.285   3.418   2.614
  167SAPE     P18713   6.552   3.489   2.646
  167SAPE   O1318714   6.626   3.512   2.518
  167SAPE   O1418715   6.457   3.596   2.690
  167SAPE   O1218716   6.482   3.343   2.640
  167SAPE   O1118717   6.655   3.455   2.764
  167SAPE    C118718   6.618   3.437   2.901
  167SAPE    HA18719   6.522   3.384   2.918
  167SAPE    HB18720   6.693   3.374   2.953
  167SAPE    C218721   6.610   3.574   2.969
  167SAPE    HS18722   6.596   3.655   2.894
  167SAPE   O2118723   6.730   3.596   3.046
  167SAPE   C2118724   6.748   3.721   3.097
  167SAPE   O2218725   6.678   3.816   3.061
  167SAPE   C2218726   0.050   3.718   3.187
  167SAPE   H2R18727   0.067   3.613   3.217
  167SAPE   H2S18728   0.140   3.752   3.131
  167SAPE    C318729   6.489   3.572   3.065
  167SAPE    HX18730   6.400   3.560   2.998
  167SAPE    HY18731   6.478   3.674   3.107
  167SAPE   O3118732   6.478   3.468   3.164
  167SAPE   C3118733   6.526   3.504   3.287
  167SAPE   O3218734   6.542   3.620   3.324
  167SAPE   C3218735   6.549   3.386   3.379
  167SAPE   H2X18736   6.600   3.303   3.324
  167SAPE   H2Y18737   6.449   3.356   3.415
  167SAPE   C2318738   0.010   3.805   3.301
  167SAPE   H3R18739   6.737   3.763   3.355
  167SAPE   H3S18740   6.813   3.907   3.257
  167SAPE   C2418741   0.124   3.815   3.403
  167SAPE   H4R18742   0.218   3.836   3.348
  167SAPE   H4S18743   0.145   3.715   3.449
  167SAPE   C2518744   0.086   3.924   3.504
  167SAPE   H5R18745   0.055   4.023   3.466
  167SAPE   C2618746   0.100   3.909   3.638
  167SAPE   H6R18747   0.077   4.003   3.691
  167SAPE   C2718748   0.137   3.794   3.723
  167SAPE   H7R18749   0.102   3.697   3.684
  167SAPE   H7S18750   0.072   3.812   3.812
  167SAPE   C2818751   0.287   3.783   3.751
  167SAPE   H8R18752   0.337   3.756   3.656
  167SAPE   C2918753   0.354   3.801   3.873
  167SAPE   H9R18754   0.462   3.780   3.873
  167SAPE  C21018755   0.307   3.838   4.011
  167SAPE  H10R18756   0.347   3.760   4.080
  167SAPE  H10S18757   0.197   3.836   4.020
  167SAPE  C21118758   0.364   3.969   4.055
  167SAPE  H11R18759   0.446   3.996   3.986
  167SAPE  C21218760   0.309   4.061   4.137
  167SAPE  H12R18761   0.376   4.138   4.178
  167SAPE  C21318762   0.187   4.050   4.223
  167SAPE  H13R18763   0.196   4.071   4.332
  167SAPE  H13S18764   0.144   3.948   4.218
  167SAPE  C21418765   0.085   4.143   4.158
  167SAPE  H14R18766   0.055   4.102   4.061
  167SAPE  C21518767   0.030   4.255   4.204
  167SAPE  H15R18768   6.789   4.316   4.133
  167SAPE  C21618769   0.060   4.316   4.344
  167SAPE  H16R18770   0.071   4.425   4.326
  167SAPE  H16S18771   0.153   4.278   4.391
  167SAPE  C21718772   6.761   4.302   4.452
  167SAPE  H17R18773   6.757   4.192   4.469
  167SAPE  H17S18774   6.661   4.323   4.408
  167SAPE  C21818775   6.792   4.390   4.572
  167SAPE  H18R18776   6.791   4.496   4.536
  167SAPE  H18S18777   0.079   4.368   4.609
  167SAPE  C21918778   6.688   4.375   4.682
  167SAPE  H19R18779   6.588   4.368   4.634
  167SAPE  H19S18780   6.682   4.469   4.741
  167SAPE  C22018781   6.721   4.257   4.779
  167SAPE  H20R18782   6.814   4.280   4.836
  167SAPE  H20S18783   6.752   4.181   4.704
  167SAPE  H20T18784   6.639   4.229   4.848
  167SAPE   C3318785   6.630   3.431   3.500
  167SAPE   H3X18786   6.578   3.508   3.562
  167SAPE   H3Y18787   6.730   3.470   3.471
  167SAPE   C3418788   6.661   3.313   3.595
  167SAPE   H4X18789   6.689   3.225   3.533
  167SAPE   H4Y18790   6.572   3.269   3.645
  167SAPE   C3518791   6.776   3.338   3.697
  167SAPE   H5X18792   0.049   3.394   3.656
  167SAPE   H5Y18793   6.811   3.239   3.732
  167SAPE   C3618794   6.721   3.410   3.814
  167SAPE   H6X18795   6.639   3.352   3.861
  167SAPE   H6Y18796   6.667   3.497   3.771
  167SAPE   C3718797   0.003   3.465   3.924
  167SAPE   H7X18798   0.077   3.537   3.885
  167SAPE   H7Y18799   0.058   3.375   3.959
  167SAPE   C3818800   6.735   3.527   4.037
  167SAPE   H8X18801   6.656   3.460   4.075
  167SAPE   H8Y18802   6.684   3.617   3.997
  167SAPE   C3918803   0.010   3.580   4.153
  167SAPE   H9X18804   6.759   3.661   4.192
  167SAPE   H9Y18805   0.100   3.627   4.108
  167SAPE  C31018806   0.051   3.486   4.262
  167SAPE  H10X18807   0.137   3.532   4.316
  167SAPE  H10Y18808   0.090   3.394   4.215
  167SAPE  C31118809   6.751   3.451   4.351
  167SAPE  H11X18810   6.674   3.414   4.282
  167SAPE  H11Y18811   6.708   3.546   4.390
  167SAPE  C31218812   6.804   3.353   4.470
  167SAPE  H12X18813   6.714   3.334   4.532
  167SAPE  H12Y18814   0.073   3.411   4.514
  167SAPE  C31318815   0.036   3.210   4.414
  167SAPE  H13X18816   0.122   3.222   4.345
  167SAPE  H13Y18817   6.763   3.166   4.362
  167SAPE  C31418818   0.078   3.103   4.518
  167SAPE  H14X18819   0.174   3.135   4.565
  167SAPE  H14Y18820   0.098   3.005   4.469
  167SAPE  C31518821   6.785   3.082   4.623
  167SAPE  H15X18822   6.699   3.045   4.564
  167SAPE  H15Y18823   6.764   3.171   4.686
  167SAPE  C31618824   0.011   2.963   4.709
  167SAPE  H16X18825   0.099   3.003   4.764
  167SAPE  H16Y18826   0.031   2.868   4.655
  167SAPE  C31718827   6.718   2.936   4.809
  167SAPE  H17X18828   6.635   2.892   4.750
  167SAPE  H17Y18829   6.690   3.030   4.861
  167SAPE  C31818830   6.768   2.838   4.917
  167SAPE  H18X18831   6.681   2.802   4.976
  167SAPE  H18Y18832   0.032   2.882   4.982
  167SAPE  H18Z18833   6.810   2.745   4.873
  168SAPE     N18834   2.609   5.679   1.508
  168SAPE   HN118835   2.579   5.759   1.449
  168SAPE   HN218836   2.708   5.655   1.486
  168SAPE   HN318837   2.553   5.593   1.492
  168SAPE   C1218838   2.611   5.722   1.657
  168SAPE  H12A18839   2.507   5.758   1.675
  168SAPE  H12B18840   2.667   5.816   1.677
  168SAPE   C1118841   2.657   5.594   1.736
  168SAPE  H11A18842   2.690   5.606   1.841
  168SAPE  H11B18843   2.756   5.568   1.693
  168SAPE     P18844   2.433   5.487   1.798
  168SAPE   O1318845   2.338   5.600   1.774
  168SAPE   O1418846   2.373   5.354   1.780
  168SAPE   O1218847   2.571   5.490   1.711
  168SAPE   O1118848   2.482   5.512   1.943
  168SAPE    C118849   2.557   5.414   2.020
  168SAPE    HA18850   2.540   5.308   1.990
  168SAPE    HB18851   2.664   5.425   1.992
  168SAPE    C218852   2.542   5.434   2.173
  168SAPE    HS18853   2.437   5.405   2.194
  168SAPE   O2118854   2.582   5.573   2.203
  168SAPE   C2118855   2.515   5.636   2.290
  168SAPE   O2218856   2.415   5.598   2.351
  168SAPE   C2218857   2.569   5.774   2.299
  168SAPE   H2R18858   2.590   5.814   2.197
  168SAPE   H2S18859   2.491   5.834   2.351
  168SAPE    C318860   2.628   5.337   2.252
  168SAPE    HX18861   2.730   5.360   2.216
  168SAPE    HY18862   2.601   5.232   2.230
  168SAPE   O3118863   2.637   5.381   2.398
  168SAPE   C3118864   2.534   5.329   2.465
  168SAPE   O3218865   2.451   5.248   2.426
  168SAPE   C3218866   2.543   5.381   2.615
  168SAPE   H2X18867   2.535   5.492   2.610
  168SAPE   H2Y18868   2.640   5.348   2.656
  168SAPE   C2318869   2.701   5.773   2.384
  168SAPE   H3R18870   2.753   5.869   2.360
  168SAPE   H3S18871   2.766   5.689   2.351
  168SAPE   C2418872   2.681   5.751   2.538
  168SAPE   H4R18873   2.596   5.680   2.547
  168SAPE   H4S18874   2.645   5.842   2.591
  168SAPE   C2518875   2.806   5.683   2.598
  168SAPE   H5R18876   2.828   5.586   2.552
  168SAPE   C2618877   2.870   5.724   2.711
  168SAPE   H6R18878   2.950   5.664   2.756
  168SAPE   C2718879   2.860   5.845   2.791
  168SAPE   H7R18880   2.890   5.838   2.897
  168SAPE   H7S18881   2.753   5.875   2.800
  168SAPE   C2818882   2.935   5.956   2.725
  168SAPE   H8R18883   2.929   5.969   2.616
  168SAPE   C2918884   3.015   6.056   2.782
  168SAPE   H9R18885   3.057   6.138   2.722
  168SAPE  C21018886   3.039   6.093   2.926
  168SAPE  H10R18887   3.112   6.176   2.936
  168SAPE  H10S18888   3.106   6.016   2.969
  168SAPE  C21118889   2.908   6.122   3.008
  168SAPE  H11R18890   2.821   6.126   2.941
  168SAPE  C21218891   2.901   6.133   3.142
  168SAPE  H12R18892   2.807   6.166   3.190
  168SAPE  C21318893   3.019   6.122   3.236
  168SAPE  H13R18894   2.996   6.170   3.333
  168SAPE  H13S18895   3.096   6.181   3.181
  168SAPE  C21418896   3.055   5.975   3.253
  168SAPE  H14R18897   3.120   5.941   3.170
  168SAPE  C21518898   3.053   5.893   3.358
  168SAPE  H15R18899   3.106   5.797   3.347
  168SAPE  C21618900   3.010   5.913   3.501
  168SAPE  H16R18901   2.916   5.854   3.501
  168SAPE  H16S18902   2.979   6.020   3.506
  168SAPE  C21718903   3.091   5.870   3.628
  168SAPE  H17R18904   3.195   5.909   3.633
  168SAPE  H17S18905   3.107   5.761   3.617
  168SAPE  C21818906   3.017   5.899   3.763
  168SAPE  H18R18907   2.911   5.866   3.763
  168SAPE  H18S18908   3.022   6.010   3.769
  168SAPE  C21918909   3.092   5.852   3.886
  168SAPE  H19R18910   3.150   5.935   3.933
  168SAPE  H19S18911   3.162   5.774   3.850
  168SAPE  C22018912   3.004   5.802   3.997
  168SAPE  H20R18913   2.947   5.887   4.041
  168SAPE  H20S18914   3.066   5.747   4.071
  168SAPE  H20T18915   2.933   5.721   3.968
  168SAPE   C3318916   2.438   5.328   2.715
  168SAPE   H3X18917   2.405   5.222   2.702
  168SAPE   H3Y18918   2.342   5.379   2.689
  168SAPE   C3418919   2.485   5.343   2.860
  168SAPE   H4X18920   2.524   5.446   2.873
  168SAPE   H4Y18921   2.567   5.270   2.878
  168SAPE   C3518922   2.388   5.319   2.973
  168SAPE   H5X18923   2.374   5.210   2.957
  168SAPE   H5Y18924   2.305   5.392   2.977
  168SAPE   C3618925   2.447   5.314   3.115
  168SAPE   H6X18926   2.471   5.418   3.144
  168SAPE   H6Y18927   2.540   5.255   3.104
  168SAPE   C3718928   2.358   5.246   3.213
  168SAPE   H7X18929   2.339   5.140   3.183
  168SAPE   H7Y18930   2.263   5.298   3.235
  168SAPE   C3818931   2.423   5.239   3.352
  168SAPE   H8X18932   2.454   5.340   3.386
  168SAPE   H8Y18933   2.516   5.179   3.347
  168SAPE   C3918934   2.325   5.181   3.454
  168SAPE   H9X18935   2.320   5.072   3.435
  168SAPE   H9Y18936   2.222   5.220   3.436
  168SAPE  C31018937   2.362   5.201   3.602
  168SAPE  H10X18938   2.337   5.302   3.640
  168SAPE  H10Y18939   2.473   5.210   3.603
  168SAPE  C31118940   2.303   5.090   3.687
  168SAPE  H11X18941   2.368   5.001   3.674
  168SAPE  H11Y18942   2.196   5.070   3.666
  168SAPE  C31218943   2.297   5.118   3.835
  168SAPE  H12X18944   2.252   5.033   3.889
  168SAPE  H12Y18945   2.223   5.199   3.852
  168SAPE  C31318946   2.438   5.139   3.895
  168SAPE  H13X18947   2.483   5.209   3.822
  168SAPE  H13Y18948   2.501   5.047   3.898
  168SAPE  C31418949   2.436   5.208   4.030
  168SAPE  H14X18950   2.399   5.127   4.096
  168SAPE  H14Y18951   2.361   5.290   4.033
  168SAPE  C31518952   2.584   5.244   4.080
  168SAPE  H15X18953   2.613   5.330   4.015
  168SAPE  H15Y18954   2.649   5.156   4.061
  168SAPE  C31618955   2.593   5.303   4.223
  168SAPE  H16X18956   2.542   5.236   4.295
  168SAPE  H16Y18957   2.537   5.400   4.222
  168SAPE  C31718958   2.735   5.336   4.261
  168SAPE  H17X18959   2.776   5.397   4.178
  168SAPE  H17Y18960   2.784   5.236   4.260
  168SAPE  C31818961   2.749   5.410   4.394
  168SAPE  H18X18962   2.722   5.335   4.472
  168SAPE  H18Y18963   2.695   5.507   4.398
  168SAPE  H18Z18964   2.858   5.430   4.402
  169SAPE     N18965   0.075   3.453   2.546
  169SAPE   HN118966   0.139   3.535   2.553
  169SAPE   HN218967   0.086   3.404   2.455
  169SAPE   HN318968   6.790   3.477   2.565
  169SAPE   C1218969   0.105   3.350   2.651
  169SAPE  H12A18970   0.073   3.389   2.750
  169SAPE  H12B18971   0.213   3.323   2.648
  169SAPE   C1118972   0.028   3.219   2.620
  169SAPE  H11A18973   6.737   3.238   2.649
  169SAPE  H11B18974   0.088   3.155   2.688
  169SAPE     P18975   6.749   3.069   2.433
  169SAPE   O1318976   6.635   3.148   2.375
  169SAPE   O1418977   0.001   2.971   2.345
  169SAPE   O1218978   0.040   3.176   2.487
  169SAPE   O1118979   6.701   2.986   2.557
  169SAPE    C118980   6.566   3.002   2.611
  169SAPE    HA18981   6.541   3.107   2.636
  169SAPE    HB18982   6.486   2.964   2.545
  169SAPE    C218983   6.548   2.940   2.751
  169SAPE    HS18984   6.548   2.829   2.742
  169SAPE   O2118985   6.426   2.989   2.805
  169SAPE   C2118986   6.363   2.913   2.884
  169SAPE   O2218987   6.394   2.799   2.917
  169SAPE   C2218988   6.232   2.984   2.927
  169SAPE   H2R18989   6.159   2.944   2.853
  169SAPE   H2S18990   6.191   2.930   3.014
  169SAPE    C318991   6.672   2.985   2.840
  169SAPE    HX18992   6.666   3.093   2.866
  169SAPE    HY18993   6.758   2.975   2.771
  169SAPE   O3118994   6.689   2.920   2.968
  169SAPE   C3118995   6.712   2.790   2.957
  169SAPE   O3218996   6.742   2.731   2.857
  169SAPE   C3218997   6.700   2.736   3.104
  169SAPE   H2X18998   6.606   2.772   3.152
  169SAPE   H2Y18999   6.787   2.781   3.156
  169SAPE   C2319000   6.240   3.134   2.960
  169SAPE   H3R19001   6.140   3.180   2.975
  169SAPE   H3S19002   6.294   3.196   2.885
  169SAPE   C2419003   6.298   3.163   3.101
  169SAPE   H4R19004   6.229   3.123   3.178
  169SAPE   H4S19005   6.284   3.270   3.126
  169SAPE   C2519006   6.439   3.121   3.136
  169SAPE   H5R19007   6.512   3.157   3.062
  169SAPE   C2619008   6.480   3.056   3.243
  169SAPE   H6R19009   6.584   3.024   3.263
  169SAPE   C2719010   6.380   2.999   3.347
  169SAPE   H7R19011   6.302   3.074   3.371
  169SAPE   H7S19012   6.433   3.009   3.444
  169SAPE   C2819013   6.338   2.856   3.327
  169SAPE   H8R19014   6.333   2.828   3.220
  169SAPE   C2919015   6.323   2.755   3.413
  169SAPE   H9R19016   6.306   2.653   3.376
  169SAPE  C21019017   6.350   2.778   3.562
  169SAPE  H10R19018   6.323   2.881   3.594
  169SAPE  H10S19019   6.458   2.773   3.588
  169SAPE  C21119020   6.257   2.683   3.631
  169SAPE  H11R19021   6.173   2.641   3.574
  169SAPE  C21219022   6.261   2.638   3.757
  169SAPE  H12R19023   6.188   2.558   3.776
  169SAPE  C21319024   6.369   2.678   3.862
  169SAPE  H13R19025   6.451   2.724   3.804
  169SAPE  H13S19026   6.412   2.587   3.910
  169SAPE  C21419027   6.310   2.770   3.970
  169SAPE  H14R19028   6.337   2.873   3.945
  169SAPE  C21519029   6.238   2.741   4.078
  169SAPE  H15R19030   6.184   2.806   4.148
  169SAPE  C21619031   6.224   2.600   4.127
  169SAPE  H16R19032   6.296   2.533   4.076
  169SAPE  H16S19033   6.121   2.562   4.110
  169SAPE  C21719034   6.243   2.606   4.276
  169SAPE  H17R19035   6.156   2.656   4.324
  169SAPE  H17S19036   6.337   2.657   4.306
  169SAPE  C21819037   6.240   2.465   4.326
  169SAPE  H18R19038   6.303   2.400   4.262
  169SAPE  H18S19039   6.146   2.417   4.292
  169SAPE  C21919040   6.262   2.462   4.477
  169SAPE  H19R19041   6.188   2.525   4.530
  169SAPE  H19S19042   6.360   2.501   4.514
  169SAPE  C22019043   6.252   2.318   4.533
  169SAPE  H20R19044   6.147   2.284   4.516
  169SAPE  H20S19045   6.280   2.334   4.639
  169SAPE  H20T19046   6.316   2.255   4.468
  169SAPE   C3319047   6.680   2.583   3.107
  169SAPE   H3X19048   6.768   2.530   3.064
  169SAPE   H3Y19049   6.594   2.537   3.055
  169SAPE   C3419050   6.682   2.530   3.249
  169SAPE   H4X19051   6.596   2.576   3.302
  169SAPE   H4Y19052   6.778   2.540   3.305
  169SAPE   C3519053   6.665   2.375   3.252
  169SAPE   H5X19054   6.761   2.331   3.218
  169SAPE   H5Y19055   6.588   2.347   3.177
  169SAPE   C3619056   6.648   2.313   3.393
  169SAPE   H6X19057   6.732   2.347   3.457
  169SAPE   H6Y19058   6.651   2.203   3.388
  169SAPE   C3719059   6.508   2.343   3.467
  169SAPE   H7X19060   6.432   2.314   3.391
  169SAPE   H7Y19061   6.499   2.451   3.489
  169SAPE   C3819062   6.475   2.236   3.575
  169SAPE   H8X19063   6.560   2.241   3.646
  169SAPE   H8Y19064   6.457   2.134   3.534
  169SAPE   C3919065   6.356   2.279   3.652
  169SAPE   H9X19066   6.263   2.273   3.592
  169SAPE   H9Y19067   6.375   2.384   3.683
  169SAPE  C31019068   6.334   2.190   3.776
  169SAPE  H10X19069   6.341   2.088   3.734
  169SAPE  H10Y19070   6.231   2.199   3.818
  169SAPE  C31119071   6.429   2.226   3.897
  169SAPE  H11X19072   6.421   2.333   3.924
  169SAPE  H11Y19073   6.531   2.189   3.875
  169SAPE  C31219074   6.386   2.148   4.019
  169SAPE  H12X19075   6.396   2.039   3.997
  169SAPE  H12Y19076   6.280   2.166   4.047
  169SAPE  C31319077   6.471   2.186   4.136
  169SAPE  H13X19078   6.445   2.288   4.171
  169SAPE  H13Y19079   6.577   2.168   4.108
  169SAPE  C31419080   6.429   2.097   4.259
  169SAPE  H14X19081   6.440   1.991   4.225
  169SAPE  H14Y19082   6.322   2.118   4.280
  169SAPE  C31519083   6.532   2.109   4.373
  169SAPE  H15X19084   6.525   2.211   4.417
  169SAPE  H15Y19085   6.635   2.105   4.332
  169SAPE  C31619086   6.515   2.014   4.489
  169SAPE  H16X19087   6.521   1.910   4.451
  169SAPE  H16Y19088   6.427   2.030   4.554
  169SAPE  C31719089   6.622   2.033   4.596
  169SAPE  H17X19090   6.637   2.138   4.628
  169SAPE  H17Y19091   6.721   2.013   4.548
  169SAPE  C31819092   6.606   1.950   4.717
  169SAPE  H18X19093   6.664   1.979   4.807
  169SAPE  H18Y19094   6.629   1.844   4.691
  169SAPE  H18Z19095   6.500   1.938   4.747
  170SAPE     N19096   0.176   4.202   2.526
  170SAPE   HN119097   0.278   4.185   2.538
  170SAPE   HN219098   0.139   4.146   2.447
  170SAPE   HN319099   0.167   4.299   2.489
  170SAPE   C1219100   0.110   4.175   2.654
  170SAPE  H12A19101   0.007   4.155   2.618
  170SAPE  H12B19102   0.117   4.264   2.721
  170SAPE   C1119103   0.158   4.045   2.718
  170SAPE  H11A19104   0.090   4.023   2.803
  170SAPE  H11B19105   0.262   4.074   2.744
  170SAPE     P19106   0.098   3.809   2.636
  170SAPE   O1319107   6.771   3.824   2.666
  170SAPE   O1419108   0.136   3.723   2.525
  170SAPE   O1219109   0.155   3.945   2.614
  170SAPE   O1119110   0.169   3.758   2.771
  170SAPE    C119111   0.286   3.677   2.764
  170SAPE    HA19112   0.273   3.580   2.712
  170SAPE    HB19113   0.358   3.716   2.689
  170SAPE    C219114   0.348   3.650   2.901
  170SAPE    HS19115   0.445   3.599   2.886
  170SAPE   O2119116   0.267   3.573   2.980
  170SAPE   C2119117   0.275   3.441   2.967
  170SAPE   O2219118   0.338   3.383   2.879
  170SAPE   C2219119   0.206   3.378   3.087
  170SAPE   H2R19120   0.253   3.420   3.178
  170SAPE   H2S19121   0.110   3.434   3.084
  170SAPE    C319122   0.397   3.777   2.975
  170SAPE    HX19123   0.304   3.833   2.998
  170SAPE    HY19124   0.465   3.826   2.901
  170SAPE   O3119125   0.459   3.753   3.103
  170SAPE   C3119126   0.580   3.717   3.125
  170SAPE   O3219127   0.668   3.720   3.042
  170SAPE   C3219128   0.588   3.679   3.273
  170SAPE   H2X19129   0.575   3.767   3.340
  170SAPE   H2Y19130   0.683   3.632   3.303
  170SAPE   C2319131   0.188   3.223   3.083
  170SAPE   H3R19132   0.278   3.167   3.117
  170SAPE   H3S19133   0.170   3.193   2.977
  170SAPE   C2419134   0.063   3.185   3.166
  170SAPE   H4R19135   0.049   3.078   3.142
  170SAPE   H4S19136   6.789   3.236   3.123
  170SAPE   C2519137   0.092   3.208   3.313
  170SAPE   H5R19138   0.086   3.313   3.348
  170SAPE   C2619139   0.148   3.114   3.392
  170SAPE   H6R19140   0.177   3.142   3.494
  170SAPE   C2719141   0.166   2.969   3.363
  170SAPE   H7R19142   0.249   2.971   3.289
  170SAPE   H7S19143   0.072   2.935   3.312
  170SAPE   C2819144   0.202   2.867   3.470
  170SAPE   H8R19145   0.308   2.878   3.496
  170SAPE   C2919146   0.121   2.794   3.549
  170SAPE   H9R19147   0.165   2.720   3.617
  170SAPE  C21019148   6.786   2.799   3.547
  170SAPE  H10R19149   6.747   2.841   3.452
  170SAPE  H10S19150   6.761   2.874   3.625
  170SAPE  C21119151   6.715   2.670   3.573
  170SAPE  H11R19152   6.689   2.612   3.484
  170SAPE  C21219153   6.695   2.605   3.691
  170SAPE  H12R19154   6.645   2.507   3.690
  170SAPE  C21319155   6.743   2.660   3.826
  170SAPE  H13R19156   6.664   2.718   3.878
  170SAPE  H13S19157   0.009   2.736   3.811
  170SAPE  C21419158   6.785   2.541   3.908
  170SAPE  H14R19159   0.057   2.483   3.872
  170SAPE  C21519160   6.748   2.506   4.035
  170SAPE  H15R19161   6.796   2.419   4.082
  170SAPE  C21619162   6.647   2.584   4.113
  170SAPE  H16R19163   6.551   2.531   4.097
  170SAPE  H16S19164   6.618   2.680   4.065
  170SAPE  C21719165   6.679   2.609   4.261
  170SAPE  H17R19166   6.588   2.666   4.289
  170SAPE  H17S19167   6.770   2.671   4.276
  170SAPE  C21819168   6.680   2.486   4.351
  170SAPE  H18R19169   6.757   2.416   4.311
  170SAPE  H18S19170   6.581   2.436   4.346
  170SAPE  C21919171   6.697   2.526   4.500
  170SAPE  H19R19172   6.684   2.440   4.569
  170SAPE  H19S19173   6.618   2.601   4.522
  170SAPE  C22019174   0.029   2.574   4.536
  170SAPE  H20R19175   0.037   2.623   4.635
  170SAPE  H20S19176   0.061   2.657   4.469
  170SAPE  H20T19177   0.105   2.493   4.527
  170SAPE   C3319178   0.472   3.576   3.302
  170SAPE   H3X19179   0.465   3.491   3.231
  170SAPE   H3Y19180   0.377   3.634   3.303
  170SAPE   C3419181   0.490   3.514   3.442
  170SAPE   H4X19182   0.479   3.598   3.514
  170SAPE   H4Y19183   0.589   3.465   3.457
  170SAPE   C3519184   0.380   3.412   3.464
  170SAPE   H5X19185   0.394   3.331   3.390
  170SAPE   H5Y19186   0.286   3.471   3.454
  170SAPE   C3619187   0.381   3.351   3.606
  170SAPE   H6X19188   0.482   3.307   3.608
  170SAPE   H6Y19189   0.303   3.272   3.598
  170SAPE   C3719190   0.364   3.438   3.731
  170SAPE   H7X19191   0.264   3.486   3.737
  170SAPE   H7Y19192   0.437   3.522   3.723
  170SAPE   C3819193   0.392   3.356   3.853
  170SAPE   H8X19194   0.480   3.289   3.841
  170SAPE   H8Y19195   0.303   3.294   3.874
  170SAPE   C3919196   0.390   3.450   3.966
  170SAPE   H9X19197   0.301   3.516   3.959
  170SAPE   H9Y19198   0.482   3.510   3.949
  170SAPE  C31019199   0.406   3.376   4.099
  170SAPE  H10X19200   0.499   3.316   4.093
  170SAPE  H10Y19201   0.315   3.316   4.119
  170SAPE  C31119202   0.407   3.480   4.218
  170SAPE  H11X19203   0.377   3.434   4.314
  170SAPE  H11Y19204   0.320   3.548   4.206
  170SAPE  C31219205   0.540   3.551   4.224
  170SAPE  H12X19206   0.545   3.616   4.135
  170SAPE  H12Y19207   0.623   3.476   4.227
  170SAPE  C31319208   0.562   3.649   4.346
  170SAPE  H13X19209   0.613   3.593   4.428
  170SAPE  H13Y19210   0.463   3.675   4.388
  170SAPE  C31419211   0.655   3.777   4.326
  170SAPE  H14X19212   0.582   3.857   4.300
  170SAPE  H14Y19213   0.720   3.772   4.236
  170SAPE  C31519214   0.727   3.815   4.453
  170SAPE  H15X19215   0.787   3.728   4.488
  170SAPE  H15Y19216   0.663   3.828   4.543
  170SAPE  C31619217   0.808   3.947   4.443
  170SAPE  H16X19218   0.741   4.025   4.401
  170SAPE  H16Y19219   0.880   3.919   4.363
  170SAPE  C31719220   0.877   3.995   4.569
  170SAPE  H17X19221   0.917   3.911   4.629
  170SAPE  H17Y19222   0.804   4.022   4.648
  170SAPE  C31819223   0.981   4.109   4.555
  170SAPE  H18X19224   1.045   4.098   4.465
  170SAPE  H18Y19225   1.042   4.125   4.646
  170SAPE  H18Z19226   0.922   4.201   4.533
  171SAPE     N19227   0.194   2.873   1.947
  171SAPE   HN119228   0.289   2.869   1.906
  171SAPE   HN219229   0.170   2.777   1.980
  171SAPE   HN319230   0.131   2.899   1.869
  171SAPE   C1219231   0.168   2.967   2.052
  171SAPE  H12A19232   0.069   2.957   2.100
  171SAPE  H12B19233   0.176   3.068   2.006
  171SAPE   C1119234   0.281   2.967   2.158
  171SAPE  H11A19235   0.268   2.871   2.214
  171SAPE  H11B19236   0.257   3.044   2.234
  171SAPE     P19237   0.490   3.115   2.091
  171SAPE   O1319238   0.478   3.174   1.950
  171SAPE   O1419239   0.451   3.201   2.202
  171SAPE   O1219240   0.416   2.980   2.097
  171SAPE   O1119241   0.642   3.073   2.112
  171SAPE    C119242   0.683   2.939   2.173
  171SAPE    HA19243   0.599   2.867   2.177
  171SAPE    HB19244   0.764   2.897   2.110
  171SAPE    C219245   0.722   2.957   2.325
  171SAPE    HS19246   0.761   2.859   2.360
  171SAPE   O2119247   0.605   2.994   2.408
  171SAPE   C2119248   0.516   2.889   2.425
  171SAPE   O2219249   0.528   2.778   2.380
  171SAPE   C2219250   0.404   2.930   2.522
  171SAPE   H2R19251   0.350   3.012   2.470
  171SAPE   H2S19252   0.346   2.836   2.533
  171SAPE    C319253   0.835   3.058   2.351
  171SAPE    HX19254   0.820   3.159   2.307
  171SAPE    HY19255   0.918   3.007   2.298
  171SAPE   O3119256   0.884   3.060   2.486
  171SAPE   C3119257   0.834   3.152   2.562
  171SAPE   O3219258   0.759   3.244   2.529
  171SAPE   C3219259   0.852   3.114   2.705
  171SAPE   H2X19260   0.958   3.133   2.730
  171SAPE   H2Y19261   0.838   3.005   2.719
  171SAPE   C2319262   0.453   2.973   2.660
  171SAPE   H3R19263   0.501   3.073   2.667
  171SAPE   H3S19264   0.526   2.901   2.701
  171SAPE   C2419265   0.345   2.965   2.765
  171SAPE   H4R19266   0.286   2.872   2.751
  171SAPE   H4S19267   0.282   3.053   2.739
  171SAPE   C2519268   0.402   2.974   2.905
  171SAPE   H5R19269   0.468   3.061   2.908
  171SAPE   C2619270   0.390   2.887   3.004
  171SAPE   H6R19271   0.441   2.908   3.099
  171SAPE   C2719272   0.313   2.757   3.009
  171SAPE   H7R19273   0.244   2.764   2.923
  171SAPE   H7S19274   0.249   2.757   3.100
  171SAPE   C2819275   0.392   2.627   2.987
  171SAPE   H8R19276   0.437   2.606   2.889
  171SAPE   C2919277   0.424   2.536   3.075
  171SAPE   H9R19278   0.472   2.447   3.032
  171SAPE  C21019279   0.392   2.538   3.227
  171SAPE  H10R19280   0.395   2.644   3.260
  171SAPE  H10S19281   0.481   2.497   3.280
  171SAPE  C21119282   0.261   2.464   3.237
  171SAPE  H11R19283   0.198   2.469   3.148
  171SAPE  C21219284   0.214   2.401   3.353
  171SAPE  H12R19285   0.116   2.354   3.340
  171SAPE  C21319286   0.276   2.384   3.490
  171SAPE  H13R19287   0.332   2.288   3.488
  171SAPE  H13S19288   0.187   2.382   3.557
  171SAPE  C21419289   0.373   2.492   3.550
  171SAPE  H14R19290   0.446   2.535   3.480
  171SAPE  C21519291   0.394   2.523   3.682
  171SAPE  H15R19292   0.488   2.575   3.705
  171SAPE  C21619293   0.343   2.456   3.806
  171SAPE  H16R19294   0.271   2.376   3.777
  171SAPE  H16S19295   0.291   2.515   3.884
  171SAPE  C21719296   0.454   2.371   3.874
  171SAPE  H17R19297   0.395   2.319   3.952
  171SAPE  H17S19298   0.524   2.445   3.919
  171SAPE  C21819299   0.545   2.287   3.789
  171SAPE  H18R19300   0.618   2.350   3.735
  171SAPE  H18S19301   0.479   2.235   3.716
  171SAPE  C21919302   0.619   2.176   3.859
  171SAPE  H19R19303   0.682   2.241   3.924
  171SAPE  H19S19304   0.688   2.116   3.797
  171SAPE  C22019305   0.545   2.085   3.962
  171SAPE  H20R19306   0.604   2.005   4.012
  171SAPE  H20S19307   0.454   2.045   3.911
  171SAPE  H20T19308   0.501   2.142   4.046
  171SAPE   C3319309   0.747   3.188   2.795
  171SAPE   H3X19310   0.647   3.192   2.747
  171SAPE   H3Y19311   0.780   3.295   2.798
  171SAPE   C3419312   0.744   3.136   2.935
  171SAPE   H4X19313   0.849   3.144   2.972
  171SAPE   H4Y19314   0.725   3.027   2.924
  171SAPE   C3519315   0.656   3.217   3.030
  171SAPE   H5X19316   0.545   3.217   3.020
  171SAPE   H5Y19317   0.675   3.323   3.002
  171SAPE   C3619318   0.700   3.204   3.180
  171SAPE   H6X19319   0.692   3.304   3.227
  171SAPE   H6Y19320   0.808   3.183   3.189
  171SAPE   C3719321   0.618   3.101   3.256
  171SAPE   H7X19322   0.634   2.995   3.227
  171SAPE   H7Y19323   0.511   3.125   3.236
  171SAPE   C3819324   0.649   3.106   3.404
  171SAPE   H8X19325   0.647   3.210   3.444
  171SAPE   H8Y19326   0.754   3.083   3.433
  171SAPE   C3919327   0.559   3.013   3.490
  171SAPE   H9X19328   0.587   2.920   3.437
  171SAPE   H9Y19329   0.457   3.042   3.458
  171SAPE  C31019330   0.597   3.023   3.638
  171SAPE  H10X19331   0.590   3.128   3.671
  171SAPE  H10Y19332   0.698   2.984   3.666
  171SAPE  C31119333   0.491   2.938   3.708
  171SAPE  H11X19334   0.474   2.832   3.679
  171SAPE  H11Y19335   0.392   2.984   3.689
  171SAPE  C31219336   0.516   2.935   3.862
  171SAPE  H12X19337   0.525   3.038   3.902
  171SAPE  H12Y19338   0.603   2.867   3.876
  171SAPE  C31319339   0.398   2.873   3.939
  171SAPE  H13X19340   0.414   2.880   4.049
  171SAPE  H13Y19341   0.382   2.764   3.929
  171SAPE  C31419342   0.268   2.956   3.910
  171SAPE  H14X19343   0.216   2.927   3.816
  171SAPE  H14Y19344   0.292   3.064   3.898
  171SAPE  C31519345   0.160   2.940   4.019
  171SAPE  H15X19346   0.191   2.978   4.119
  171SAPE  H15Y19347   0.143   2.831   4.033
  171SAPE  C31619348   0.024   3.013   3.974
  171SAPE  H16X19349   6.806   2.966   3.878
  171SAPE  H16Y19350   0.030   3.121   3.948
  171SAPE  C31719351   6.736   2.995   4.086
  171SAPE  H17X19352   6.749   3.070   4.167
  171SAPE  H17Y19353   6.748   2.891   4.124
  171SAPE  C31819354   6.594   3.018   4.029
  171SAPE  H18X19355   6.568   2.949   3.946
  171SAPE  H18Y19356   6.597   3.124   3.996
  171SAPE  H18Z19357   6.511   3.007   4.103
  172SAPE     N19358   6.514   4.674   2.086
  172SAPE   HN119359   6.447   4.751   2.064
  172SAPE   HN219360   6.549   4.636   1.996
  172SAPE   HN319361   6.461   4.596   2.129
  172SAPE   C1219362   6.633   4.711   2.171
  172SAPE  H12A19363   6.595   4.727   2.273
  172SAPE  H12B19364   6.680   4.804   2.131
  172SAPE   C1119365   6.743   4.605   2.170
  172SAPE  H11A19366   6.694   4.507   2.190
  172SAPE  H11B19367   6.812   4.627   2.254
  172SAPE     P19368   0.133   4.643   2.007
  172SAPE   O1319369   0.204   4.552   1.918
  172SAPE   O1419370   0.105   4.782   1.949
  172SAPE   O1219371   6.809   4.578   2.046
  172SAPE   O1119372   0.211   4.657   2.143
  172SAPE    C119373   0.337   4.729   2.147
  172SAPE    HA19374   0.425   4.663   2.132
  172SAPE    HB19375   0.356   4.804   2.067
  172SAPE    C219376   0.361   4.810   2.280
  172SAPE    HS19377   0.434   4.747   2.335
  172SAPE   O2119378   0.239   4.824   2.356
  172SAPE   C2119379   0.146   4.904   2.325
  172SAPE   O2219380   0.137   4.984   2.228
  172SAPE   C2219381   0.038   4.889   2.433
  172SAPE   H2R19382   6.756   4.936   2.406
  172SAPE   H2S19383   0.010   4.782   2.443
  172SAPE    C319384   0.438   4.950   2.262
  172SAPE    HX19385   0.380   5.034   2.219
  172SAPE    HY19386   0.519   4.929   2.189
  172SAPE   O3119387   0.501   4.985   2.380
  172SAPE   C3119388   0.446   5.068   2.463
  172SAPE   O3219389   0.332   5.108   2.456
  172SAPE   C3219390   0.554   5.109   2.560
  172SAPE   H2X19391   0.555   5.220   2.556
  172SAPE   H2Y19392   0.651   5.087   2.511
  172SAPE   C2319393   0.065   4.946   2.579
  172SAPE   H3R19394   6.777   4.954   2.621
  172SAPE   H3S19395   0.105   5.049   2.563
  172SAPE   C2419396   0.165   4.868   2.669
  172SAPE   H4R19397   0.267   4.871   2.625
  172SAPE   H4S19398   0.138   4.761   2.660
  172SAPE   C2519399   0.174   4.910   2.815
  172SAPE   H5R19400   0.265   4.962   2.847
  172SAPE   C2619401   0.089   4.872   2.911
  172SAPE   H6R19402   0.103   4.915   3.011
  172SAPE   C2719403   6.777   4.794   2.889
  172SAPE   H7R19404   6.762   4.775   2.780
  172SAPE   H7S19405   6.682   4.833   2.931
  172SAPE   C2819406   6.790   4.660   2.958
  172SAPE   H8R19407   6.785   4.576   2.887
  172SAPE   C2919408   6.772   4.633   3.089
  172SAPE   H9R19409   6.777   4.532   3.131
  172SAPE  C21019410   6.758   4.740   3.197
  172SAPE  H10R19411   6.718   4.830   3.146
  172SAPE  H10S19412   0.042   4.774   3.236
  172SAPE  C21119413   6.672   4.692   3.307
  172SAPE  H11R19414   6.641   4.588   3.294
  172SAPE  C21219415   6.639   4.757   3.419
  172SAPE  H12R19416   6.570   4.706   3.489
  172SAPE  C21319417   6.687   4.895   3.456
  172SAPE  H13R19418   6.602   4.967   3.448
  172SAPE  H13S19419   6.775   4.928   3.398
  172SAPE  C21419420   6.741   4.899   3.598
  172SAPE  H14R19421   0.034   4.923   3.598
  172SAPE  C21519422   6.675   4.869   3.711
  172SAPE  H15R19423   6.728   4.878   3.807
  172SAPE  C21619424   6.527   4.825   3.720
  172SAPE  H16R19425   6.517   4.715   3.705
  172SAPE  H16S19426   6.472   4.871   3.635
  172SAPE  C21719427   6.434   4.866   3.838
  172SAPE  H17R19428   6.324   4.864   3.822
  172SAPE  H17S19429   6.459   4.973   3.858
  172SAPE  C21819430   6.487   4.794   3.966
  172SAPE  H18R19431   6.589   4.824   3.999
  172SAPE  H18S19432   6.507   4.689   3.934
  172SAPE  C21919433   6.387   4.793   4.088
  172SAPE  H19R19434   6.435   4.751   4.179
  172SAPE  H19S19435   6.301   4.726   4.065
  172SAPE  C22019436   6.333   4.930   4.118
  172SAPE  H20R19437   6.416   4.992   4.158
  172SAPE  H20S19438   6.266   4.929   4.207
  172SAPE  H20T19439   6.289   4.987   4.033
  172SAPE   C3319440   0.545   5.045   2.697
  172SAPE   H3X19441   0.597   4.948   2.709
  172SAPE   H3Y19442   0.440   5.028   2.728
  172SAPE   C3419443   0.601   5.142   2.798
  172SAPE   H4X19444   0.539   5.234   2.798
  172SAPE   H4Y19445   0.706   5.170   2.771
  172SAPE   C3519446   0.606   5.089   2.950
  172SAPE   H5X19447   0.659   5.167   3.009
  172SAPE   H5Y19448   0.678   5.004   2.945
  172SAPE   C3619449   0.469   5.053   3.006
  172SAPE   H6X19450   0.433   4.964   2.951
  172SAPE   H6Y19451   0.388   5.126   2.981
  172SAPE   C3719452   0.470   5.010   3.155
  172SAPE   H7X19453   0.514   5.097   3.208
  172SAPE   H7Y19454   0.529   4.917   3.169
  172SAPE   C3819455   0.324   4.982   3.195
  172SAPE   H8X19456   0.299   4.899   3.126
  172SAPE   H8Y19457   0.252   5.061   3.166
  172SAPE   C3919458   0.313   4.928   3.338
  172SAPE   H9X19459   0.385   4.844   3.343
  172SAPE   H9Y19460   0.208   4.894   3.350
  172SAPE  C31019461   0.328   5.017   3.464
  172SAPE  H10X19462   0.244   5.090   3.458
  172SAPE  H10Y19463   0.429   5.060   3.471
  172SAPE  C31119464   0.323   4.945   3.601
  172SAPE  H11X19465   0.411   4.877   3.608
  172SAPE  H11Y19466   0.236   4.877   3.597
  172SAPE  C31219467   0.313   5.045   3.722
  172SAPE  H12X19468   0.242   5.126   3.695
  172SAPE  H12Y19469   0.419   5.079   3.723
  172SAPE  C31319470   0.264   4.987   3.857
  172SAPE  H13X19471   0.315   4.891   3.883
  172SAPE  H13Y19472   0.155   4.968   3.856
  172SAPE  C31419473   0.292   5.085   3.971
  172SAPE  H14X19474   0.402   5.091   3.985
  172SAPE  H14Y19475   0.241   5.042   4.060
  172SAPE  C31519476   0.245   5.232   3.954
  172SAPE  H15X19477   0.137   5.241   3.928
  172SAPE  H15Y19478   0.291   5.267   3.859
  172SAPE  C31619479   0.290   5.315   4.076
  172SAPE  H16X19480   0.401   5.318   4.079
  172SAPE  H16Y19481   0.258   5.278   4.176
  172SAPE  C31719482   0.237   5.469   4.064
  172SAPE  H17X19483   0.130   5.463   4.093
  172SAPE  H17Y19484   0.232   5.504   3.958
  172SAPE  C31819485   0.298   5.575   4.157
  172SAPE  H18X19486   0.404   5.588   4.123
  172SAPE  H18Y19487   0.290   5.546   4.264
  172SAPE  H18Z19488   0.253   5.677   4.161
  173SLPC     N19489   5.815   6.473   7.129
  173SLPC   C1319490   5.735   6.347   7.151
  173SLPC  H13A19491   5.706   6.337   7.255
  173SLPC  H13B19492   5.649   6.353   7.087
  173SLPC  H13C19493   5.790   6.261   7.116
  173SLPC   C1419494   5.823   6.501   6.985
  173SLPC  H14A19495   5.728   6.489   6.934
  173SLPC  H14B19496   5.866   6.595   6.956
  173SLPC  H14C19497   5.882   6.423   6.940
  173SLPC   C1519498   5.954   6.444   7.186
  173SLPC  H15A19499   6.020   6.519   7.145
  173SLPC  H15B19500   5.948   6.446   7.294
  173SLPC  H15C19501   5.990   6.351   7.145
  173SLPC   C1219502   5.757   6.594   7.198
  173SLPC  H12A19503   5.739   6.569   7.302
  173SLPC  H12B19504   5.658   6.611   7.160
  173SLPC   C1119505   5.846   6.727   7.191
  173SLPC  H11A19506   5.946   6.709   7.237
  173SLPC  H11B19507   5.805   6.805   7.258
  173SLPC     P19508   5.793   0.044   6.970
  173SLPC   O1319509   5.717   6.774   6.875
  173SLPC   O1419510   5.719   0.146   7.048
  173SLPC   O1219511   5.885   6.774   7.062
  173SLPC   O1119512   5.901   0.120   6.885
  173SLPC    C119513   6.026   0.070   6.835
  173SLPC    HA19514   6.080   0.159   6.797
  173SLPC    HB19515   6.078   0.022   6.921
  173SLPC    C219516   6.001   6.784   6.721
  173SLPC    HS19517   5.922   6.714   6.755
  173SLPC   O2119518   6.129   6.728   6.683
  173SLPC   C2119519   6.141   6.597   6.709
  173SLPC   O2219520   6.070   6.527   6.777
  173SLPC   C2219521   6.264   6.548   6.644
  173SLPC   H2R19522   6.307   6.624   6.575
  173SLPC   H2S19523   6.348   6.532   6.714
  173SLPC    C319524   5.946   0.037   6.590
  173SLPC    HX19525   6.038   0.094   6.564
  173SLPC    HY19526   5.861   0.106   6.607
  173SLPC   O3119527   5.918   6.754   6.487
  173SLPC   C3119528   5.793   6.732   6.460
  173SLPC   O3219529   5.700   6.787   6.516
  173SLPC   C3219530   5.784   6.636   6.343
  173SLPC   H2X19531   5.743   6.535   6.363
  173SLPC   H2Y19532   5.887   6.609   6.308
  173SLPC   C2319533   6.237   6.423   6.560
  173SLPC   H3R19534   6.174   6.346   6.610
  173SLPC   H3S19535   6.330   6.367   6.533
  173SLPC   C2419536   6.172   6.460   6.425
  173SLPC   H4R19537   6.254   6.488   6.356
  173SLPC   H4S19538   6.113   6.553   6.437
  173SLPC   C2519539   6.100   6.349   6.349
  173SLPC   H5R19540   6.008   6.341   6.411
  173SLPC   H5S19541   6.157   6.254   6.360
  173SLPC   C2619542   6.061   6.378   6.203
  173SLPC   H6R19543   6.012   6.477   6.194
  173SLPC   H6S19544   5.980   6.303   6.189
  173SLPC   C2719545   6.171   6.341   6.104
  173SLPC   H7R19546   6.210   6.239   6.127
  173SLPC   H7S19547   6.257   6.409   6.120
  173SLPC   C2819548   6.124   6.347   5.953
  173SLPC   H8R19549   6.074   6.444   5.936
  173SLPC   H8S19550   6.052   6.264   5.934
  173SLPC   C2919551   6.248   6.332   5.865
  173SLPC   H9R19552   6.344   6.372   5.902
  173SLPC  C21019553   6.256   6.267   5.748
  173SLPC  H10R19554   6.354   6.253   5.698
  173SLPC  C21119555   6.137   6.193   5.696
  173SLPC  H11R19556   6.128   6.193   5.585
  173SLPC  H11S19557   6.039   6.240   5.722
  173SLPC  C21219558   6.129   6.051   5.741
  173SLPC  H12R19559   6.098   6.039   5.846
  173SLPC  C21319560   6.181   5.946   5.677
  173SLPC  H13R19561   6.185   5.849   5.730
  173SLPC  C21419562   6.233   5.942   5.534
  173SLPC  H14R19563   6.303   5.856   5.527
  173SLPC  H14S19564   6.282   6.039   5.512
  173SLPC  C21519565   6.130   5.914   5.427
  173SLPC  H15R19566   6.044   5.982   5.442
  173SLPC  H15S19567   6.084   5.814   5.435
  173SLPC  C21619568   6.161   5.944   5.283
  173SLPC  H16R19569   6.254   5.894   5.248
  173SLPC  H16S19570   6.175   6.054   5.279
  173SLPC  C21719571   6.052   5.909   5.172
  173SLPC  H17R19572   6.008   5.813   5.209
  173SLPC  H17S19573   6.099   5.905   5.072
  173SLPC  C21819574   5.934   6.019   5.161
  173SLPC  H18R19575   5.989   6.115   5.156
  173SLPC  H18S19576   5.877   6.025   5.256
  173SLPC  H18T19577   5.871   5.999   5.072
  173SLPC   C3319578   5.715   6.680   6.216
  173SLPC   H3X19579   5.761   6.771   6.174
  173SLPC   H3Y19580   5.610   6.708   6.236
  173SLPC   C3419581   5.710   6.584   6.097
  173SLPC   H4X19582   5.664   6.488   6.131
  173SLPC   H4Y19583   5.814   6.551   6.077
  173SLPC   C3519584   5.627   6.632   5.974
  173SLPC   H5X19585   5.654   6.733   5.936
  173SLPC   H5Y19586   5.522   6.636   6.011
  173SLPC   C3619587   5.645   6.530   5.858
  173SLPC   H6X19588   5.555   6.526   5.793
  173SLPC   H6Y19589   5.651   6.431   5.908
  173SLPC   C3719590   5.774   6.554   5.779
  173SLPC   H7X19591   5.864   6.538   5.841
  173SLPC   H7Y19592   5.787   6.658   5.741
  173SLPC   C3819593   5.808   6.474   5.650
  173SLPC   H8X19594   5.812   6.367   5.680
  173SLPC   H8Y19595   5.908   6.510   5.620
  173SLPC   C3919596   5.702   6.488   5.538
  173SLPC   H9X19597   5.674   6.594   5.521
  173SLPC   H9Y19598   5.615   6.426   5.570
  173SLPC  C31019599   5.748   6.425   5.412
  173SLPC  H10X19600   5.697   6.330   5.386
  173SLPC  H10Y19601   5.858   6.408   5.416
  173SLPC  C31119602   5.742   6.525   5.291
  173SLPC  H11X19603   5.795   6.615   5.329
  173SLPC  H11Y19604   5.638   6.554   5.264
  173SLPC  C31219605   5.817   6.462   5.174
  173SLPC  H12X19606   5.766   6.369   5.141
  173SLPC  H12Y19607   5.915   6.432   5.216
  173SLPC  C31319608   5.823   6.561   5.052
  173SLPC  H13X19609   5.874   6.654   5.087
  173SLPC  H13Y19610   5.716   6.583   5.032
  173SLPC  C31419611   5.901   6.516   4.927
  173SLPC  H14X19612   5.851   6.429   4.878
  173SLPC  H14Y19613   6.001   6.478   4.956
  173SLPC  C31519614   5.936   6.629   4.820
  173SLPC  H15X19615   5.990   6.708   4.877
  173SLPC  H15Y19616   5.839   6.680   4.801
  173SLPC  C31619617   6.002   6.577   4.695
  173SLPC  H16X19618   6.105   6.539   4.713
  173SLPC  H16Y19619   6.004   6.664   4.626
  173SLPC  C31719620   5.922   6.465   4.625
  173SLPC  H17X19621   5.819   6.504   4.612
  173SLPC  H17Y19622   5.926   6.377   4.693
  173SLPC  C31819623   5.992   6.410   4.501
  173SLPC  H18X19624   5.972   6.472   4.411
  173SLPC  H18Y19625   5.943   6.312   4.479
  173SLPC  H18Z19626   6.100   6.391   4.514
  174SLPC     N19627   3.564   1.972   6.921
  174SLPC   C1319628   3.633   2.025   7.045
  174SLPC  H13A19629   3.607   1.963   7.130
  174SLPC  H13B19630   3.741   2.031   7.040
  174SLPC  H13C19631   3.587   2.121   7.063
  174SLPC   C1419632   3.597   2.068   6.810
  174SLPC  H14A19633   3.696   2.094   6.775
  174SLPC  H14B19634   3.555   2.024   6.720
  174SLPC  H14C19635   3.559   2.167   6.831
  174SLPC   C1519636   3.418   1.974   6.935
  174SLPC  H15A19637   3.384   1.918   7.022
  174SLPC  H15B19638   3.388   2.076   6.951
  174SLPC  H15C19639   3.370   1.922   6.854
  174SLPC   C1219640   3.614   1.834   6.890
  174SLPC  H12A19641   3.581   1.771   6.972
  174SLPC  H12B19642   3.721   1.829   6.888
  174SLPC   C1119643   3.568   1.764   6.760
  174SLPC  H11A19644   3.629   1.671   6.754
  174SLPC  H11B19645   3.594   1.834   6.677
  174SLPC     P19646   3.340   1.718   6.640
  174SLPC   O1319647   3.288   1.582   6.641
  174SLPC   O1419648   3.236   1.818   6.657
  174SLPC   O1219649   3.429   1.740   6.768
  174SLPC   O1119650   3.440   1.747   6.527
  174SLPC    C119651   3.422   1.854   6.435
  174SLPC    HA19652   3.432   1.945   6.497
  174SLPC    HB19653   3.507   1.861   6.363
  174SLPC    C219654   3.301   1.881   6.344
  174SLPC    HS19655   3.219   1.894   6.417
  174SLPC   O2119656   3.275   1.770   6.255
  174SLPC   C2119657   3.149   1.763   6.215
  174SLPC   O2219658   3.060   1.839   6.246
  174SLPC   C2219659   3.135   1.627   6.147
  174SLPC   H2R19660   3.214   1.555   6.177
  174SLPC   H2S19661   3.044   1.572   6.180
  174SLPC    C319662   3.329   2.018   6.269
  174SLPC    HX19663   3.338   2.102   6.340
  174SLPC    HY19664   3.236   2.024   6.207
  174SLPC   O3119665   3.444   2.000   6.183
  174SLPC   C3119666   3.436   2.044   6.063
  174SLPC   O3219667   3.342   2.106   6.013
  174SLPC   C3219668   3.567   2.016   5.991
  174SLPC   H2X19669   3.585   1.908   5.977
  174SLPC   H2Y19670   3.652   2.051   6.053
  174SLPC   C2319671   3.137   1.635   5.992
  174SLPC   H3R19672   3.062   1.710   5.960
  174SLPC   H3S19673   3.095   1.542   5.947
  174SLPC   C2419674   3.282   1.661   5.943
  174SLPC   H4R19675   3.339   1.567   5.922
  174SLPC   H4S19676   3.342   1.708   6.024
  174SLPC   C2519677   3.288   1.749   5.819
  174SLPC   H5R19678   3.391   1.780   5.795
  174SLPC   H5S19679   3.229   1.843   5.835
  174SLPC   C2619680   3.235   1.687   5.690
  174SLPC   H6R19681   3.158   1.611   5.712
  174SLPC   H6S19682   3.310   1.616   5.649
  174SLPC   C2719683   3.192   1.784   5.586
  174SLPC   H7R19684   3.095   1.829   5.617
  174SLPC   H7S19685   3.181   1.739   5.485
  174SLPC   C2819686   3.287   1.910   5.575
  174SLPC   H8R19687   3.388   1.865   5.563
  174SLPC   H8S19688   3.296   1.968   5.669
  174SLPC   C2919689   3.235   1.981   5.453
  174SLPC   H9R19690   3.142   2.037   5.470
  174SLPC  C21019691   3.290   1.985   5.330
  174SLPC  H10R19692   3.243   2.049   5.254
  174SLPC  C21119693   3.421   1.917   5.288
  174SLPC  H11R19694   3.437   1.834   5.361
  174SLPC  H11S19695   3.507   1.986   5.294
  174SLPC  C21219696   3.419   1.853   5.155
  174SLPC  H12R19697   3.382   1.750   5.153
  174SLPC  C21319698   3.456   1.912   5.040
  174SLPC  H13R19699   3.457   1.851   4.948
  174SLPC  C21419700   3.500   2.055   5.027
  174SLPC  H14R19701   3.564   2.080   5.115
  174SLPC  H14S19702   3.404   2.111   5.024
  174SLPC  C21519703   3.574   2.087   4.896
  174SLPC  H15R19704   3.587   2.197   4.893
  174SLPC  H15S19705   3.509   2.067   4.808
  174SLPC  C21619706   3.708   2.009   4.870
  174SLPC  H16R19707   3.677   1.904   4.851
  174SLPC  H16S19708   3.761   2.004   4.968
  174SLPC  C21719709   3.798   2.062   4.764
  174SLPC  H17R19710   3.855   2.147   4.806
  174SLPC  H17S19711   3.731   2.100   4.683
  174SLPC  C21819712   3.886   1.955   4.711
  174SLPC  H18R19713   3.825   1.872   4.668
  174SLPC  H18S19714   3.946   1.917   4.796
  174SLPC  H18T19715   3.959   1.984   4.633
  174SLPC   C3319716   3.568   2.095   5.856
  174SLPC   H3X19717   3.545   2.204   5.856
  174SLPC   H3Y19718   3.483   2.055   5.795
  174SLPC   C3419719   3.692   2.067   5.767
  174SLPC   H4X19720   3.713   1.958   5.763
  174SLPC   H4Y19721   3.777   2.122   5.812
  174SLPC   C3519722   3.687   2.124   5.619
  174SLPC   H5X19723   3.710   2.232   5.627
  174SLPC   H5Y19724   3.587   2.119   5.571
  174SLPC   C3619725   3.793   2.065   5.522
  174SLPC   H6X19726   3.764   1.966   5.483
  174SLPC   H6Y19727   3.882   2.064   5.589
  174SLPC   C3719728   3.838   2.154   5.397
  174SLPC   H7X19729   3.864   2.256   5.434
  174SLPC   H7Y19730   3.751   2.164   5.330
  174SLPC   C3819731   3.954   2.096   5.320
  174SLPC   H8X19732   3.930   1.991   5.293
  174SLPC   H8Y19733   4.036   2.092   5.395
  174SLPC   C3919734   3.989   2.194   5.205
  174SLPC   H9X19735   3.980   2.299   5.239
  174SLPC   H9Y19736   3.909   2.167   5.133
  174SLPC  C31019737   4.135   2.165   5.147
  174SLPC  H10X19738   4.141   2.054   5.143
  174SLPC  H10Y19739   4.209   2.202   5.221
  174SLPC  C31119740   4.138   2.237   5.010
  174SLPC  H11X19741   4.112   2.344   5.024
  174SLPC  H11Y19742   4.060   2.198   4.941
  174SLPC  C31219743   4.279   2.232   4.946
  174SLPC  H12X19744   4.317   2.128   4.949
  174SLPC  H12Y19745   4.355   2.290   5.004
  174SLPC  C31319746   4.283   2.290   4.801
  174SLPC  H13X19747   4.387   2.323   4.776
  174SLPC  H13Y19748   4.220   2.381   4.804
  174SLPC  C31419749   4.241   2.196   4.687
  174SLPC  H14X19750   4.272   2.239   4.590
  174SLPC  H14Y19751   4.131   2.178   4.685
  174SLPC  C31519752   4.318   2.060   4.681
  174SLPC  H15X19753   4.280   1.989   4.757
  174SLPC  H15Y19754   4.427   2.078   4.684
  174SLPC  C31619755   4.281   1.991   4.546
  174SLPC  H16X19756   4.330   2.047   4.463
  174SLPC  H16Y19757   4.174   2.001   4.518
  174SLPC  C31719758   4.313   1.843   4.527
  174SLPC  H17X19759   4.262   1.792   4.611
  174SLPC  H17Y19760   4.420   1.815   4.538
  174SLPC  C31819761   4.255   1.795   4.399
  174SLPC  H18X19762   4.163   1.848   4.367
  174SLPC  H18Y19763   4.232   1.687   4.410
  174SLPC  H18Z19764   4.324   1.810   4.313
  175SLPC     N19765   6.567   3.082   7.133
  175SLPC   C1319766   6.501   3.215   7.137
  175SLPC  H13A19767   6.552   3.281   7.069
  175SLPC  H13B19768   6.395   3.206   7.118
  175SLPC  H13C19769   6.510   3.258   7.236
  175SLPC   C1419770   6.503   2.988   7.229
  175SLPC  H14A19771   6.397   2.975   7.217
  175SLPC  H14B19772   6.546   2.891   7.208
  175SLPC  H14C19773   6.517   3.011   7.333
  175SLPC   C1519774   6.706   3.096   7.185
  175SLPC  H15A19775   6.710   3.133   7.286
  175SLPC  H15B19776   6.758   3.002   7.185
  175SLPC  H15C19777   6.758   3.155   7.110
  175SLPC   C1219778   6.556   3.022   6.991
  175SLPC  H12A19779   6.620   2.936   6.982
  175SLPC  H12B19780   6.589   3.087   6.911
  175SLPC   C1119781   6.418   2.967   6.957
  175SLPC  H11A19782   6.387   2.888   7.029
  175SLPC  H11B19783   6.434   2.909   6.863
  175SLPC     P19784   6.322   3.159   6.819
  175SLPC   O1319785   6.244   3.276   6.853
  175SLPC   O1419786   6.460   3.190   6.776
  175SLPC   O1219787   6.321   3.065   6.946
  175SLPC   O1119788   6.248   3.086   6.708
  175SLPC    C119789   6.159   2.973   6.721
  175SLPC    HA19790   6.215   2.887   6.677
  175SLPC    HB19791   6.137   2.944   6.825
  175SLPC    C219792   6.033   2.983   6.633
  175SLPC    HS19793   5.984   2.883   6.635
  175SLPC   O2119794   6.062   3.026   6.500
  175SLPC   C2119795   6.116   2.931   6.417
  175SLPC   O2219796   6.142   2.815   6.447
  175SLPC   C2219797   6.143   3.000   6.281
  175SLPC   H2R19798   6.049   3.026   6.229
  175SLPC   H2S19799   6.205   3.092   6.288
  175SLPC    C319800   5.935   3.076   6.699
  175SLPC    HX19801   5.998   3.168   6.707
  175SLPC    HY19802   5.910   3.042   6.802
  175SLPC   O3119803   5.806   3.084   6.626
  175SLPC   C3119804   5.793   3.188   6.546
  175SLPC   O3219805   5.874   3.279   6.525
  175SLPC   C3219806   5.661   3.187   6.476
  175SLPC   H2X19807   5.606   3.280   6.501
  175SLPC   H2Y19808   5.601   3.101   6.514
  175SLPC   C2319809   6.213   2.897   6.190
  175SLPC   H3R19810   6.160   2.799   6.189
  175SLPC   H3S19811   6.306   2.856   6.234
  175SLPC   C2419812   6.234   2.943   6.049
  175SLPC   H4R19813   6.312   2.877   6.004
  175SLPC   H4S19814   6.265   3.049   6.052
  175SLPC   C2519815   6.109   2.926   5.964
  175SLPC   H5R19816   6.026   2.984   6.009
  175SLPC   H5S19817   6.080   2.818   5.964
  175SLPC   C2619818   6.134   2.968   5.818
  175SLPC   H6R19819   6.217   2.909   5.775
  175SLPC   H6S19820   6.169   3.074   5.820
  175SLPC   C2719821   6.007   2.988   5.726
  175SLPC   H7R19822   5.947   3.067   5.776
  175SLPC   H7S19823   5.939   2.902   5.706
  175SLPC   C2819824   6.059   3.029   5.587
  175SLPC   H8R19825   6.140   3.103   5.599
  175SLPC   H8S19826   5.980   3.075   5.523
  175SLPC   C2919827   6.120   2.910   5.508
  175SLPC   H9R19828   6.213   2.866   5.546
  175SLPC  C21019829   6.063   2.855   5.396
  175SLPC  H10R19830   6.114   2.771   5.348
  175SLPC  C21119831   5.946   2.901   5.309
  175SLPC  H11R19832   5.864   2.935   5.375
  175SLPC  H11S19833   5.907   2.813   5.253
  175SLPC  C21219834   5.972   3.016   5.215
  175SLPC  H12R19835   6.031   3.098   5.259
  175SLPC  C21319836   5.907   3.043   5.098
  175SLPC  H13R19837   5.916   3.148   5.066
  175SLPC  C21419838   5.800   2.961   5.031
  175SLPC  H14R19839   5.736   3.028   4.970
  175SLPC  H14S19840   5.741   2.903   5.106
  175SLPC  C21519841   5.882   2.854   4.951
  175SLPC  H15R19842   5.812   2.771   4.929
  175SLPC  H15S19843   5.964   2.809   5.010
  175SLPC  C21619844   5.947   2.898   4.819
  175SLPC  H16R19845   5.970   2.810   4.756
  175SLPC  H16S19846   6.046   2.948   4.830
  175SLPC  C21719847   5.873   2.996   4.726
  175SLPC  H17R19848   5.841   3.090   4.775
  175SLPC  H17S19849   5.771   2.964   4.697
  175SLPC  C21819850   5.944   3.019   4.588
  175SLPC  H18R19851   5.950   2.924   4.531
  175SLPC  H18S19852   6.049   3.043   4.616
  175SLPC  H18T19853   5.900   3.093   4.519
  175SLPC   C3319854   5.672   3.179   6.326
  175SLPC   H3X19855   5.734   3.263   6.287
  175SLPC   H3Y19856   5.572   3.192   6.279
  175SLPC   C3419857   5.722   3.041   6.283
  175SLPC   H4X19858   5.647   2.961   6.299
  175SLPC   H4Y19859   5.812   3.013   6.341
  175SLPC   C3519860   5.762   3.033   6.134
  175SLPC   H5X19861   5.837   2.956   6.105
  175SLPC   H5Y19862   5.820   3.124   6.108
  175SLPC   C3619863   5.634   3.030   6.051
  175SLPC   H6X19864   5.583   3.129   6.051
  175SLPC   H6Y19865   5.574   2.945   6.091
  175SLPC   C3719866   5.671   3.001   5.902
  175SLPC   H7X19867   5.738   2.912   5.902
  175SLPC   H7Y19868   5.729   3.084   5.857
  175SLPC   C3819869   5.547   2.979   5.813
  175SLPC   H8X19870   5.485   3.069   5.793
  175SLPC   H8Y19871   5.471   2.915   5.863
  175SLPC   C3919872   5.586   2.916   5.675
  175SLPC   H9X19873   5.642   2.820   5.678
  175SLPC   H9Y19874   5.642   3.000   5.630
  175SLPC  C31019875   5.449   2.898   5.599
  175SLPC  H10X19876   5.391   2.993   5.607
  175SLPC  H10Y19877   5.395   2.812   5.644
  175SLPC  C31119878   5.484   2.883   5.455
  175SLPC  H11X19879   5.544   2.791   5.438
  175SLPC  H11Y19880   5.547   2.971   5.430
  175SLPC  C31219881   5.367   2.870   5.346
  175SLPC  H12X19882   5.308   2.778   5.365
  175SLPC  H12Y19883   5.401   2.856   5.241
  175SLPC  C31319884   5.268   2.988   5.359
  175SLPC  H13X19885   5.325   3.083   5.369
  175SLPC  H13Y19886   5.199   2.973   5.446
  175SLPC  C31419887   5.182   2.987   5.230
  175SLPC  H14X19888   5.075   3.010   5.248
  175SLPC  H14Y19889   5.189   2.891   5.175
  175SLPC  C31519890   5.230   3.105   5.128
  175SLPC  H15X19891   5.335   3.083   5.102
  175SLPC  H15Y19892   5.231   3.198   5.189
  175SLPC  C31619893   5.145   3.125   5.007
  175SLPC  H16X19894   5.039   3.147   5.033
  175SLPC  H16Y19895   5.145   3.025   4.960
  175SLPC  C31719896   5.198   3.223   4.902
  175SLPC  H17X19897   5.272   3.174   4.835
  175SLPC  H17Y19898   5.238   3.307   4.962
  175SLPC  C31819899   5.087   3.284   4.812
  175SLPC  H18X19900   5.144   3.344   4.738
  175SLPC  H18Y19901   5.012   3.336   4.875
  175SLPC  H18Z19902   5.046   3.197   4.756
  176SLPC     N19903   5.220   0.273   6.795
  176SLPC   C1319904   5.136   0.380   6.855
  176SLPC  H13A19905   5.179   0.477   6.835
  176SLPC  H13B19906   5.033   0.379   6.823
  176SLPC  H13C19907   5.132   0.359   6.961
  176SLPC   C1419908   5.235   0.290   6.644
  176SLPC  H14A19909   5.271   0.200   6.596
  176SLPC  H14B19910   5.148   0.304   6.582
  176SLPC  H14C19911   5.311   0.362   6.615
  176SLPC   C1519912   5.154   0.137   6.822
  176SLPC  H15A19913   5.123   0.137   6.926
  176SLPC  H15B19914   5.062   0.125   6.766
  176SLPC  H15C19915   5.226   0.060   6.797
  176SLPC   C1219916   5.363   0.272   6.837
  176SLPC  H12A19917   5.422   0.358   6.809
  176SLPC  H12B19918   5.410   0.190   6.785
  176SLPC   C1119919   5.398   0.251   6.985
  176SLPC  H11A19920   5.505   0.226   6.996
  176SLPC  H11B19921   5.339   0.162   7.018
  176SLPC     P19922   5.445   0.489   7.076
  176SLPC   O1319923   5.357   0.612   7.099
  176SLPC   O1419924   5.547   0.460   7.171
  176SLPC   O1219925   5.354   0.363   7.063
  176SLPC   O1119926   5.519   0.485   6.939
  176SLPC    C119927   5.654   0.513   6.927
  176SLPC    HA19928   5.670   0.619   6.958
  176SLPC    HB19929   5.717   0.438   6.981
  176SLPC    C219930   5.702   0.509   6.777
  176SLPC    HS19931   5.798   0.566   6.773
  176SLPC   O2119932   5.596   0.571   6.697
  176SLPC   C2119933   5.584   0.702   6.721
  176SLPC   O2219934   5.656   0.768   6.793
  176SLPC   C2219935   5.458   0.760   6.637
  176SLPC   H2R19936   5.367   0.743   6.700
  176SLPC   H2S19937   5.480   0.868   6.619
  176SLPC    C319938   5.726   0.366   6.728
  176SLPC    HX19939   5.644   0.298   6.761
  176SLPC    HY19940   5.815   0.339   6.788
  176SLPC   O3119941   5.755   0.354   6.590
  176SLPC   C3119942   5.654   0.353   6.510
  176SLPC   O3219943   5.535   0.345   6.541
  176SLPC   C3219944   5.688   0.357   6.363
  176SLPC   H2X19945   5.793   0.321   6.358
  176SLPC   H2Y19946   5.684   0.463   6.330
  176SLPC   C2319947   5.427   0.690   6.504
  176SLPC   H3R19948   5.331   0.725   6.463
  176SLPC   H3S19949   5.418   0.580   6.523
  176SLPC   C2419950   5.523   0.728   6.394
  176SLPC   H4R19951   5.502   0.656   6.312
  176SLPC   H4S19952   5.628   0.712   6.426
  176SLPC   C2519953   5.502   0.871   6.333
  176SLPC   H5R19954   5.547   0.952   6.394
  176SLPC   H5S19955   5.394   0.899   6.339
  176SLPC   C2619956   5.552   0.877   6.191
  176SLPC   H6R19957   5.523   0.793   6.124
  176SLPC   H6S19958   5.661   0.872   6.210
  176SLPC   C2719959   5.505   1.007   6.116
  176SLPC   H7R19960   5.533   1.106   6.158
  176SLPC   H7S19961   5.395   0.995   6.121
  176SLPC   C2819962   5.530   1.009   5.965
  176SLPC   H8R19963   5.500   1.110   5.929
  176SLPC   H8S19964   5.473   0.938   5.901
  176SLPC   C2919965   5.676   0.984   5.944
  176SLPC   H9R19966   5.731   1.056   6.007
  176SLPC  C21019967   5.747   0.901   5.869
  176SLPC  H10R19968   5.855   0.918   5.886
  176SLPC  C21119969   5.701   0.805   5.767
  176SLPC  H11R19970   5.773   0.801   5.682
  176SLPC  H11S19971   5.604   0.839   5.725
  176SLPC  C21219972   5.697   0.666   5.830
  176SLPC  H12R19973   5.617   0.661   5.905
  176SLPC  C21319974   5.766   0.554   5.806
  176SLPC  H13R19975   5.751   0.458   5.859
  176SLPC  C21419976   5.882   0.532   5.715
  176SLPC  H14R19977   5.906   0.630   5.668
  176SLPC  H14S19978   5.849   0.467   5.632
  176SLPC  C21519979   6.011   0.476   5.770
  176SLPC  H15R19980   6.084   0.445   5.692
  176SLPC  H15S19981   5.973   0.392   5.831
  176SLPC  C21619982   6.085   0.571   5.869
  176SLPC  H16R19983   6.151   0.520   5.942
  176SLPC  H16S19984   6.012   0.609   5.944
  176SLPC  C21719985   6.152   0.701   5.813
  176SLPC  H17R19986   6.071   0.760   5.765
  176SLPC  H17S19987   6.218   0.669   5.729
  176SLPC  C21819988   6.222   0.782   5.915
  176SLPC  H18R19989   6.152   0.811   5.996
  176SLPC  H18S19990   6.266   0.868   5.860
  176SLPC  H18T19991   6.309   0.724   5.952
  176SLPC   C3319992   5.599   0.270   6.267
  176SLPC   H3X19993   5.496   0.257   6.306
  176SLPC   H3Y19994   5.643   0.168   6.262
  176SLPC   C3419995   5.589   0.306   6.116
  176SLPC   H4X19996   5.519   0.236   6.065
  176SLPC   H4Y19997   5.691   0.302   6.073
  176SLPC   C3519998   5.526   0.443   6.093
  176SLPC   H5X19999   5.532   0.474   5.986
  176SLPC   H5Y20000   5.586   0.524   6.142
  176SLPC   C3620001   5.384   0.457   6.148
  176SLPC   H6X20002   5.389   0.470   6.259
  176SLPC   H6Y20003   5.335   0.358   6.134
  176SLPC   C3720004   5.296   0.571   6.088
  176SLPC   H7X20005   5.341   0.670   6.111
  176SLPC   H7Y20006   5.192   0.568   6.127
  176SLPC   C3820007   5.285   0.566   5.936
  176SLPC   H8X20008   5.244   0.478   5.881
  176SLPC   H8Y20009   5.384   0.569   5.885
  176SLPC   C3920010   5.201   0.690   5.913
  176SLPC   H9X20011   5.251   0.784   5.942
  176SLPC   H9Y20012   5.117   0.681   5.986
  176SLPC  C31020013   5.141   0.694   5.769
  176SLPC  H10X20014   5.080   0.602   5.752
  176SLPC  H10Y20015   5.228   0.690   5.700
  176SLPC  C31120016   5.070   0.830   5.737
  176SLPC  H11X20017   5.131   0.912   5.779
  176SLPC  H11Y20018   4.976   0.839   5.795
  176SLPC  C31220019   5.055   0.854   5.587
  176SLPC  H12X20020   4.982   0.778   5.551
  176SLPC  H12Y20021   5.150   0.827   5.536
  176SLPC  C31320022   5.008   0.995   5.560
  176SLPC  H13X20023   5.078   1.076   5.588
  176SLPC  H13Y20024   4.928   1.000   5.636
  176SLPC  C31420025   4.945   1.003   5.422
  176SLPC  H14X20026   4.889   1.098   5.424
  176SLPC  H14Y20027   4.862   0.929   5.418
  176SLPC  C31520028   5.024   0.970   5.295
  176SLPC  H15X20029   5.064   0.867   5.308
  176SLPC  H15Y20030   5.115   1.032   5.278
  176SLPC  C31620031   4.946   0.965   5.164
  176SLPC  H16X20032   4.911   1.063   5.127
  176SLPC  H16Y20033   4.865   0.892   5.188
  176SLPC  C31720034   5.022   0.896   5.049
  176SLPC  H17X20035   5.058   0.798   5.084
  176SLPC  H17Y20036   5.104   0.969   5.031
  176SLPC  C31820037   4.933   0.878   4.929
  176SLPC  H18X20038   4.907   0.974   4.879
  176SLPC  H18Y20039   4.837   0.831   4.958
  176SLPC  H18Z20040   4.989   0.819   4.853
  177SLPC     N20041   5.527   0.844   7.317
  177SLPC   C1320042   5.554   0.974   7.386
  177SLPC  H13A20043   5.464   1.034   7.392
  177SLPC  H13B20044   5.603   0.969   7.482
  177SLPC  H13C20045   5.616   1.039   7.327
  177SLPC   C1420046   5.422   0.774   7.393
  177SLPC  H14A20047   5.328   0.826   7.383
  177SLPC  H14B20048   5.394   0.681   7.347
  177SLPC  H14C20049   5.446   0.754   7.496
  177SLPC   C1520050   5.650   0.756   7.321
  177SLPC  H15A20051   5.672   0.753   7.427
  177SLPC  H15B20052   5.623   0.658   7.285
  177SLPC  H15C20053   5.726   0.806   7.264
  177SLPC   C1220054   5.482   0.861   7.175
  177SLPC  H12A20055   5.450   0.769   7.129
  177SLPC  H12B20056   5.561   0.902   7.115
  177SLPC   C1120057   5.364   0.960   7.150
  177SLPC  H11A20058   5.282   0.924   7.215
  177SLPC  H11B20059   5.323   0.952   7.047
  177SLPC     P20060   5.504   1.175   7.075
  177SLPC   O1320061   5.453   1.309   7.050
  177SLPC   O1420062   5.644   1.170   7.126
  177SLPC   O1220063   5.404   1.100   7.184
  177SLPC   O1120064   5.501   1.084   6.944
  177SLPC    C120065   5.594   1.095   6.836
  177SLPC    HA20066   5.696   1.123   6.869
  177SLPC    HB20067   5.597   0.991   6.797
  177SLPC    C220068   5.548   1.197   6.732
  177SLPC    HS20069   5.540   1.297   6.781
  177SLPC   O2120070   5.427   1.159   6.659
  177SLPC   C2120071   5.355   1.260   6.610
  177SLPC   O2220072   5.365   1.378   6.646
  177SLPC   C2220073   5.256   1.201   6.509
  177SLPC   H2R20074   5.291   1.101   6.474
  177SLPC   H2S20075   5.162   1.179   6.563
  177SLPC    C320076   5.667   1.223   6.628
  177SLPC    HX20077   5.701   1.138   6.566
  177SLPC    HY20078   5.760   1.234   6.687
  177SLPC   O3120079   5.654   1.333   6.535
  177SLPC   C3120080   5.672   1.454   6.594
  177SLPC   O3220081   5.687   1.469   6.714
  177SLPC   C3220082   5.639   1.561   6.483
  177SLPC   H2X20083   5.668   1.658   6.528
  177SLPC   H2Y20084   5.533   1.572   6.451
  177SLPC   C2320085   5.215   1.300   6.400
  177SLPC   H3R20086   5.193   1.401   6.440
  177SLPC   H3S20087   5.128   1.269   6.340
  177SLPC   C2420088   5.327   1.329   6.296
  177SLPC   H4R20089   5.308   1.241   6.230
  177SLPC   H4S20090   5.434   1.337   6.325
  177SLPC   C2520091   5.275   1.446   6.205
  177SLPC   H5R20092   5.240   1.526   6.274
  177SLPC   H5S20093   5.184   1.416   6.149
  177SLPC   C2620094   5.381   1.489   6.102
  177SLPC   H6R20095   5.444   1.573   6.138
  177SLPC   H6S20096   5.324   1.542   6.023
  177SLPC   C2720097   5.472   1.384   6.034
  177SLPC   H7R20098   5.397   1.308   6.004
  177SLPC   H7S20099   5.533   1.355   6.122
  177SLPC   C2820100   5.562   1.436   5.918
  177SLPC   H8R20101   5.642   1.363   5.895
  177SLPC   H8S20102   5.617   1.518   5.968
  177SLPC   C2920103   5.482   1.486   5.800
  177SLPC   H9R20104   5.432   1.581   5.824
  177SLPC  C21020105   5.456   1.423   5.677
  177SLPC  H10R20106   5.409   1.484   5.599
  177SLPC  C21120107   5.507   1.290   5.631
  177SLPC  H11R20108   5.603   1.265   5.682
  177SLPC  H11S20109   5.526   1.303   5.522
  177SLPC  C21220110   5.397   1.186   5.670
  177SLPC  H12R20111   5.331   1.207   5.756
  177SLPC  C21320112   5.391   1.060   5.623
  177SLPC  H13R20113   5.341   0.986   5.687
  177SLPC  C21420114   5.471   0.992   5.506
  177SLPC  H14R20115   5.518   0.898   5.540
  177SLPC  H14S20116   5.555   1.056   5.469
  177SLPC  C21520117   5.383   0.956   5.388
  177SLPC  H15R20118   5.359   1.042   5.322
  177SLPC  H15S20119   5.281   0.920   5.411
  177SLPC  C21620120   5.452   0.849   5.305
  177SLPC  H16R20121   5.460   0.755   5.364
  177SLPC  H16S20122   5.557   0.884   5.296
  177SLPC  C21720123   5.391   0.813   5.164
  177SLPC  H17R20124   5.282   0.796   5.173
  177SLPC  H17S20125   5.438   0.716   5.137
  177SLPC  C21820126   5.429   0.911   5.051
  177SLPC  H18R20127   5.540   0.916   5.044
  177SLPC  H18S20128   5.380   1.010   5.065
  177SLPC  H18T20129   5.402   0.873   4.950
  177SLPC   C3320130   5.722   1.528   6.348
  177SLPC   H3X20131   5.683   1.597   6.270
  177SLPC   H3Y20132   5.697   1.424   6.320
  177SLPC   C3420133   5.878   1.538   6.361
  177SLPC   H4X20134   5.925   1.493   6.271
  177SLPC   H4Y20135   5.921   1.475   6.442
  177SLPC   C3520136   5.925   1.684   6.381
  177SLPC   H5X20137   6.032   1.686   6.410
  177SLPC   H5Y20138   5.867   1.737   6.460
  177SLPC   C3620139   5.925   1.760   6.250
  177SLPC   H6X20140   5.824   1.751   6.205
  177SLPC   H6Y20141   6.012   1.724   6.192
  177SLPC   C3720142   5.952   1.907   6.293
  177SLPC   H7X20143   6.051   1.907   6.343
  177SLPC   H7Y20144   5.884   1.939   6.374
  177SLPC   C3820145   5.955   2.013   6.179
  177SLPC   H8X20146   5.965   2.111   6.231
  177SLPC   H8Y20147   5.855   2.011   6.130
  177SLPC   C3920148   6.049   1.985   6.056
  177SLPC   H9X20149   6.074   1.876   6.056
  177SLPC   H9Y20150   6.142   2.044   6.072
  177SLPC  C31020151   6.001   2.042   5.927
  177SLPC  H10X20152   5.980   2.148   5.950
  177SLPC  H10Y20153   5.907   1.987   5.906
  177SLPC  C31120154   6.097   2.023   5.815
  177SLPC  H11X20155   6.131   1.918   5.811
  177SLPC  H11Y20156   6.178   2.095   5.838
  177SLPC  C31220157   6.033   2.067   5.687
  177SLPC  H12X20158   5.973   2.160   5.701
  177SLPC  H12Y20159   5.955   1.990   5.667
  177SLPC  C31320160   6.128   2.072   5.568
  177SLPC  H13X20161   6.209   2.000   5.591
  177SLPC  H13Y20162   6.178   2.171   5.567
  177SLPC  C31420163   6.064   2.032   5.432
  177SLPC  H14X20164   5.965   2.082   5.427
  177SLPC  H14Y20165   6.051   1.922   5.425
  177SLPC  C31520166   6.152   2.080   5.318
  177SLPC  H15X20167   6.245   2.020   5.309
  177SLPC  H15Y20168   6.187   2.184   5.337
  177SLPC  C31620169   6.082   2.071   5.182
  177SLPC  H16X20170   5.991   2.135   5.182
  177SLPC  H16Y20171   6.058   1.966   5.158
  177SLPC  C31720172   6.166   2.106   5.055
  177SLPC  H17X20173   6.265   2.056   5.046
  177SLPC  H17Y20174   6.194   2.213   5.049
  177SLPC  C31820175   6.081   2.071   4.936
  177SLPC  H18X20176   6.058   1.962   4.941
  177SLPC  H18Y20177   6.132   2.083   4.839
  177SLPC  H18Z20178   5.986   2.129   4.931
  178SLPC     N20179   3.142   6.473   6.968
  178SLPC   C1320180   3.056   6.383   7.045
  178SLPC  H13A20181   3.096   6.364   7.143
  178SLPC  H13B20182   2.956   6.418   7.065
  178SLPC  H13C20183   3.040   6.290   6.991
  178SLPC   C1420184   3.282   6.414   6.961
  178SLPC  H14A20185   3.345   6.484   6.908
  178SLPC  H14B20186   3.323   6.407   7.060
  178SLPC  H14C20187   3.278   6.322   6.904
  178SLPC   C1520188   3.159   6.597   7.049
  178SLPC  H15A20189   3.199   6.588   7.149
  178SLPC  H15B20190   3.227   6.663   6.998
  178SLPC  H15C20191   3.064   6.648   7.059
  178SLPC   C1220192   3.081   6.493   6.830
  178SLPC  H12A20193   3.137   6.562   6.769
  178SLPC  H12B20194   2.984   6.538   6.845
  178SLPC   C1120195   3.070   6.366   6.744
  178SLPC  H11A20196   3.168   6.315   6.732
  178SLPC  H11B20197   3.029   6.391   6.643
  178SLPC     P20198   2.841   6.245   6.747
  178SLPC   O1320199   2.769   6.151   6.836
  178SLPC   O1420200   2.766   6.365   6.718
  178SLPC   O1220201   2.984   6.275   6.801
  178SLPC   O1120202   2.857   6.177   6.606
  178SLPC    C120203   2.974   6.164   6.521
  178SLPC    HA20204   3.074   6.179   6.569
  178SLPC    HB20205   2.999   6.059   6.494
  178SLPC    C220206   2.977   6.260   6.399
  178SLPC    HS20207   3.005   6.363   6.432
  178SLPC   O2120208   2.845   6.244   6.339
  178SLPC   C2120209   2.772   6.348   6.357
  178SLPC   O2220210   2.800   6.454   6.404
  178SLPC   C2220211   2.631   6.308   6.312
  178SLPC   H2R20212   2.635   6.213   6.254
  178SLPC   H2S20213   2.562   6.303   6.399
  178SLPC    C320214   3.095   6.222   6.302
  178SLPC    HX20215   3.074   6.119   6.267
  178SLPC    HY20216   3.186   6.216   6.365
  178SLPC   O3120217   3.107   6.308   6.188
  178SLPC   C3120218   3.172   6.425   6.207
  178SLPC   O3220219   3.222   6.454   6.314
  178SLPC   C3220220   3.190   6.507   6.074
  178SLPC   H2X20221   3.297   6.533   6.062
  178SLPC   H2Y20222   3.141   6.603   6.104
  178SLPC   C2320223   2.567   6.418   6.228
  178SLPC   H3R20224   2.560   6.512   6.287
  178SLPC   H3S20225   2.462   6.398   6.199
  178SLPC   C2420226   2.649   6.451   6.101
  178SLPC   H4R20227   2.653   6.358   6.041
  178SLPC   H4S20228   2.753   6.472   6.134
  178SLPC   C2520229   2.589   6.569   6.014
  178SLPC   H5R20230   2.580   6.652   6.086
  178SLPC   H5S20231   2.486   6.540   5.982
  178SLPC   C2620232   2.671   6.610   5.893
  178SLPC   H6R20233   2.684   6.522   5.828
  178SLPC   H6S20234   2.767   6.651   5.931
  178SLPC   C2720235   2.603   6.723   5.815
  178SLPC   H7R20236   2.587   6.811   5.880
  178SLPC   H7S20237   2.506   6.685   5.778
  178SLPC   C2820238   2.679   6.776   5.690
  178SLPC   H8R20239   2.781   6.809   5.719
  178SLPC   H8S20240   2.640   0.065   5.672
  178SLPC   C2920241   2.677   6.680   5.567
  178SLPC   H9R20242   2.749   6.597   5.580
  178SLPC  C21020243   2.610   6.678   5.451
  178SLPC  H10R20244   2.641   6.597   5.384
  178SLPC  C21120245   2.507   6.780   5.406
  178SLPC  H11R20246   2.545   0.048   5.343
  178SLPC  H11S20247   2.465   0.021   5.494
  178SLPC  C21220248   2.388   6.718   5.332
  178SLPC  H12R20249   2.306   6.690   5.399
  178SLPC  C21320250   2.374   6.690   5.201
  178SLPC  H13R20251   2.277   6.645   5.175
  178SLPC  C21420252   2.474   6.709   5.092
  178SLPC  H14R20253   2.490   6.612   5.041
  178SLPC  H14S20254   2.568   6.749   5.137
  178SLPC  C21520255   2.439   6.805   4.975
  178SLPC  H15R20256   2.531   0.002   4.913
  178SLPC  H15S20257   2.413   0.085   5.026
  178SLPC  C21620258   2.327   6.761   4.888
  178SLPC  H16R20259   2.228   6.779   4.936
  178SLPC  H16S20260   2.342   6.657   4.854
  178SLPC  C21720261   2.326   0.024   4.752
  178SLPC  H17R20262   2.222   0.009   4.716
  178SLPC  H17S20263   2.407   6.795   4.691
  178SLPC  C21820264   2.359   0.172   4.769
  178SLPC  H18R20265   2.456   0.191   4.819
  178SLPC  H18S20266   2.288   0.232   4.830
  178SLPC  H18T20267   2.353   0.226   4.672
  178SLPC   C3320268   3.148   6.432   5.947
  178SLPC   H3X20269   3.045   6.401   5.976
  178SLPC   H3Y20270   3.220   6.350   5.930
  178SLPC   C3420271   3.127   6.517   5.821
  178SLPC   H4X20272   3.225   6.567   5.805
  178SLPC   H4Y20273   3.067   6.610   5.831
  178SLPC   C3520274   3.093   6.446   5.688
  178SLPC   H5X20275   2.995   6.394   5.698
  178SLPC   H5Y20276   3.162   6.363   5.662
  178SLPC   C3620277   3.090   6.540   5.567
  178SLPC   H6X20278   3.191   6.582   5.546
  178SLPC   H6Y20279   3.032   6.633   5.587
  178SLPC   C3720280   3.020   6.472   5.440
  178SLPC   H7X20281   2.933   6.414   5.477
  178SLPC   H7Y20282   3.099   6.405   5.400
  178SLPC   C3820283   2.979   6.571   5.326
  178SLPC   H8X20284   3.076   6.618   5.299
  178SLPC   H8Y20285   2.898   6.639   5.361
  178SLPC   C3920286   2.914   6.505   5.204
  178SLPC   H9X20287   2.816   6.458   5.227
  178SLPC   H9Y20288   2.987   6.440   5.150
  178SLPC  C31020289   2.889   6.611   5.097
  178SLPC  H10X20290   2.989   6.637   5.055
  178SLPC  H10Y20291   2.832   6.694   5.144
  178SLPC  C31120292   2.810   6.562   4.973
  178SLPC  H11X20293   2.713   6.527   5.015
  178SLPC  H11Y20294   2.860   6.471   4.935
  178SLPC  C31220295   2.789   6.661   4.863
  178SLPC  H12X20296   2.887   6.689   4.818
  178SLPC  H12Y20297   2.749   6.760   4.895
  178SLPC  C31320298   2.699   6.617   4.741
  178SLPC  H13X20299   2.592   6.614   4.772
  178SLPC  H13Y20300   2.717   6.509   4.726
  178SLPC  C31420301   2.730   6.682   4.605
  178SLPC  H14X20302   2.840   6.687   4.598
  178SLPC  H14Y20303   2.688   6.785   4.600
  178SLPC  C31520304   2.687   6.610   4.475
  178SLPC  H15X20305   2.581   6.590   4.502
  178SLPC  H15Y20306   2.740   6.517   4.447
  178SLPC  C31620307   2.700   6.695   4.345
  178SLPC  H16X20308   2.808   6.713   4.322
  178SLPC  H16Y20309   2.653   6.793   4.362
  178SLPC  C31720310   2.651   6.630   4.222
  178SLPC  H17X20311   2.544   6.614   4.248
  178SLPC  H17Y20312   2.701   6.530   4.224
  178SLPC  C31820313   2.660   6.698   4.089
  178SLPC  H18X20314   2.756   6.754   4.099
  178SLPC  H18Y20315   2.566   6.754   4.069
  178SLPC  H18Z20316   2.662   6.639   3.995
  179SLPC     N20317   3.527   0.813   2.032
  179SLPC   C1320318   3.484   0.710   1.936
  179SLPC  H13A20319   3.529   0.723   1.839
  179SLPC  H13B20320   3.531   0.617   1.963
  179SLPC  H13C20321   3.379   0.698   1.916
  179SLPC   C1420322   3.432   0.922   2.021
  179SLPC  H14A20323   3.437   0.979   1.929
  179SLPC  H14B20324   3.331   0.883   2.026
  179SLPC  H14C20325   3.443   1.001   2.094
  179SLPC   C1520326   3.667   0.864   2.000
  179SLPC  H15A20327   3.663   0.908   1.902
  179SLPC  H15B20328   3.677   0.952   2.062
  179SLPC  H15C20329   3.748   0.797   2.024
  179SLPC   C1220330   3.542   0.757   2.168
  179SLPC  H12A20331   3.613   0.676   2.158
  179SLPC  H12B20332   3.449   0.705   2.182
  179SLPC   C1120333   3.585   0.844   2.289
  179SLPC  H11A20334   3.690   0.874   2.271
  179SLPC  H11B20335   3.583   0.785   2.383
  179SLPC     P20336   3.385   0.954   2.405
  179SLPC   O1320337   3.323   1.087   2.425
  179SLPC   O1420338   3.297   0.844   2.369
  179SLPC   O1220339   3.511   0.966   2.304
  179SLPC   O1120340   3.452   0.919   2.544
  179SLPC    C120341   3.545   1.016   2.595
  179SLPC    HA20342   3.637   1.030   2.535
  179SLPC    HB20343   3.498   1.113   2.622
  179SLPC    C220344   3.605   0.969   2.736
  179SLPC    HS20345   3.609   0.858   2.730
  179SLPC   O2120346   3.515   1.000   2.842
  179SLPC   C2120347   3.539   0.923   2.949
  179SLPC   O2220348   3.593   0.814   2.950
  179SLPC   C2220349   3.482   0.994   3.077
  179SLPC   H2R20350   3.476   1.103   3.057
  179SLPC   H2S20351   3.380   0.951   3.085
  179SLPC    C320352   3.741   1.035   2.760
  179SLPC    HX20353   3.747   1.139   2.723
  179SLPC    HY20354   3.815   0.982   2.696
  179SLPC   O3120355   3.789   1.051   2.899
  179SLPC   C3120356   3.915   1.023   2.920
  179SLPC   O3220357   3.997   0.998   2.835
  179SLPC   C3220358   3.916   0.982   3.067
  179SLPC   H2X20359   3.876   0.879   3.053
  179SLPC   H2Y20360   3.846   1.052   3.116
  179SLPC   C2320361   3.549   0.963   3.206
  179SLPC   H3R20362   3.651   1.007   3.207
  179SLPC   H3S20363   3.559   0.853   3.214
  179SLPC   C2420364   3.485   1.030   3.329
  179SLPC   H4R20365   3.382   0.989   3.337
  179SLPC   H4S20366   3.466   1.139   3.321
  179SLPC   C2520367   3.562   0.989   3.455
  179SLPC   H5R20368   3.649   1.055   3.475
  179SLPC   H5S20369   3.601   0.890   3.423
  179SLPC   C2620370   3.492   0.967   3.592
  179SLPC   H6R20371   3.571   0.967   3.670
  179SLPC   H6S20372   3.448   0.865   3.580
  179SLPC   C2720373   3.387   1.082   3.615
  179SLPC   H7R20374   3.305   1.061   3.544
  179SLPC   H7S20375   3.443   1.178   3.604
  179SLPC   C2820376   3.323   1.085   3.752
  179SLPC   H8R20377   3.275   1.185   3.765
  179SLPC   H8S20378   3.395   1.094   3.836
  179SLPC   C2920379   3.239   0.973   3.798
  179SLPC   H9R20380   3.204   0.912   3.713
  179SLPC  C21020381   3.201   0.955   3.927
  179SLPC  H10R20382   3.134   0.870   3.949
  179SLPC  C21120383   3.224   1.060   4.040
  179SLPC  H11R20384   3.231   1.165   4.006
  179SLPC  H11S20385   3.325   1.041   4.083
  179SLPC  C21220386   3.109   1.045   4.136
  179SLPC  H12R20387   3.023   1.102   4.096
  179SLPC  C21320388   3.099   0.983   4.247
  179SLPC  H13R20389   2.997   0.989   4.289
  179SLPC  C21420390   3.191   0.889   4.323
  179SLPC  H14R20391   3.292   0.908   4.281
  179SLPC  H14S20392   3.157   0.785   4.305
  179SLPC  C21520393   3.198   0.925   4.474
  179SLPC  H15R20394   3.259   1.017   4.476
  179SLPC  H15S20395   3.263   0.846   4.517
  179SLPC  C21620396   3.070   0.942   4.547
  179SLPC  H16R20397   3.009   1.016   4.491
  179SLPC  H16S20398   3.089   0.975   4.651
  179SLPC  C21720399   2.986   0.817   4.563
  179SLPC  H17R20400   3.053   0.752   4.625
  179SLPC  H17S20401   2.978   0.757   4.470
  179SLPC  C21820402   2.855   0.837   4.626
  179SLPC  H18R20403   2.807   0.925   4.578
  179SLPC  H18S20404   2.877   0.863   4.732
  179SLPC  H18T20405   2.792   0.746   4.625
  179SLPC   C3320406   4.057   0.978   3.127
  179SLPC   H3X20407   4.127   1.024   3.054
  179SLPC   H3Y20408   4.087   0.871   3.123
  179SLPC   C3420409   4.080   1.054   3.268
  179SLPC   H4X20410   4.048   1.158   3.248
  179SLPC   H4Y20411   4.188   1.057   3.293
  179SLPC   C3520412   4.004   1.004   3.386
  179SLPC   H5X20413   3.898   0.978   3.365
  179SLPC   H5Y20414   4.041   0.902   3.410
  179SLPC   C3620415   4.011   1.092   3.515
  179SLPC   H6X20416   3.956   1.186   3.496
  179SLPC   H6Y20417   4.114   1.129   3.531
  179SLPC   C3720418   3.936   1.031   3.639
  179SLPC   H7X20419   4.004   0.970   3.702
  179SLPC   H7Y20420   3.844   0.975   3.613
  179SLPC   C3820421   3.894   1.143   3.732
  179SLPC   H8X20422   3.845   1.216   3.663
  179SLPC   H8Y20423   3.988   1.184   3.774
  179SLPC   C3920424   3.797   1.105   3.843
  179SLPC   H9X20425   3.831   1.021   3.908
  179SLPC   H9Y20426   3.691   1.088   3.814
  179SLPC  C31020427   3.788   1.231   3.935
  179SLPC  H10X20428   3.754   1.310   3.864
  179SLPC  H10Y20429   3.893   1.248   3.965
  179SLPC  C31120430   3.692   1.220   4.054
  179SLPC  H11X20431   3.588   1.212   4.016
  179SLPC  H11Y20432   3.711   1.309   4.117
  179SLPC  C31220433   3.723   1.096   4.139
  179SLPC  H12X20434   3.831   1.100   4.164
  179SLPC  H12Y20435   3.711   1.013   4.066
  179SLPC  C31320436   3.635   1.072   4.262
  179SLPC  H13X20437   3.528   1.052   4.240
  179SLPC  H13Y20438   3.637   1.166   4.322
  179SLPC  C31420439   3.697   0.963   4.353
  179SLPC  H14X20440   3.795   0.998   4.392
  179SLPC  H14Y20441   3.705   0.867   4.298
  179SLPC  C31520442   3.601   0.929   4.472
  179SLPC  H15X20443   3.652   0.842   4.518
  179SLPC  H15Y20444   3.505   0.896   4.427
  179SLPC  C31620445   3.592   1.036   4.578
  179SLPC  H16X20446   3.544   1.128   4.539
  179SLPC  H16Y20447   3.696   1.066   4.604
  179SLPC  C31720448   3.542   0.981   4.715
  179SLPC  H17X20449   3.601   0.887   4.725
  179SLPC  H17Y20450   3.434   0.961   4.698
  179SLPC  C31820451   3.577   1.072   4.825
  179SLPC  H18X20452   3.686   1.089   4.841
  179SLPC  H18Y20453   3.536   1.038   4.922
  179SLPC  H18Z20454   3.530   1.169   4.799
  180SLPC     N20455   2.233   1.826   2.092
  180SLPC   C1320456   2.270   1.727   1.981
  180SLPC  H13A20457   2.300   1.633   2.025
  180SLPC  H13B20458   2.185   1.710   1.917
  180SLPC  H13C20459   2.349   1.775   1.924
  180SLPC   C1420460   2.194   1.956   2.031
  180SLPC  H14A20461   2.286   1.996   1.991
  180SLPC  H14B20462   2.118   1.941   1.956
  180SLPC  H14C20463   2.162   2.023   2.109
  180SLPC   C1520464   2.353   1.849   2.181
  180SLPC  H15A20465   2.384   1.758   2.231
  180SLPC  H15B20466   2.441   1.865   2.119
  180SLPC  H15C20467   2.342   1.934   2.247
  180SLPC   C1220468   2.109   1.778   2.167
  180SLPC  H12A20469   2.034   1.753   2.094
  180SLPC  H12B20470   2.075   1.866   2.219
  180SLPC   C1120471   2.113   1.654   2.262
  180SLPC  H11A20472   2.013   1.648   2.310
  180SLPC  H11B20473   2.192   1.668   2.339
  180SLPC     P20474   2.212   1.420   2.253
  180SLPC   O1320475   2.154   1.294   2.196
  180SLPC   O1420476   2.361   1.445   2.246
  180SLPC   O1220477   2.137   1.539   2.183
  180SLPC   O1120478   2.168   1.447   2.398
  180SLPC    C120479   2.249   1.445   2.512
  180SLPC    HA20480   2.351   1.478   2.485
  180SLPC    HB20481   2.209   1.509   2.593
  180SLPC    C220482   2.265   1.300   2.569
  180SLPC    HS20483   2.294   1.226   2.492
  180SLPC   O2120484   2.141   1.271   2.635
  180SLPC   C2120485   2.119   1.142   2.646
  180SLPC   O2220486   2.197   1.059   2.598
  180SLPC   C2220487   1.979   1.123   2.699
  180SLPC   H2R20488   1.915   1.201   2.652
  180SLPC   H2S20489   1.929   1.027   2.674
  180SLPC    C320490   2.375   1.311   2.674
  180SLPC    HX20491   2.357   1.399   2.739
  180SLPC    HY20492   2.474   1.335   2.632
  180SLPC   O3120493   2.381   1.199   2.763
  180SLPC   C3120494   2.467   1.102   2.730
  180SLPC   O3220495   2.541   1.103   2.638
  180SLPC   C3220496   2.463   0.997   2.835
  180SLPC   H2X20497   2.548   0.937   2.797
  180SLPC   H2Y20498   2.367   0.939   2.841
  180SLPC   C2320499   1.973   1.152   2.848
  180SLPC   H3R20500   1.869   1.149   2.889
  180SLPC   H3S20501   2.015   1.253   2.867
  180SLPC   C2420502   2.047   1.050   2.941
  180SLPC   H4R20503   2.152   1.047   2.904
  180SLPC   H4S20504   1.997   0.955   2.912
  180SLPC   C2520505   2.031   1.079   3.085
  180SLPC   H5R20506   1.922   1.066   3.104
  180SLPC   H5S20507   2.050   1.186   3.110
  180SLPC   C2620508   2.089   0.976   3.181
  180SLPC   H6R20509   2.064   1.010   3.284
  180SLPC   H6S20510   2.200   0.988   3.179
  180SLPC   C2720511   2.043   0.830   3.169
  180SLPC   H7R20512   2.055   0.780   3.070
  180SLPC   H7S20513   1.936   0.831   3.198
  180SLPC   C2820514   2.089   0.739   3.291
  180SLPC   H8R20515   2.038   0.641   3.301
  180SLPC   H8S20516   2.078   0.798   3.385
  180SLPC   C2920517   2.237   0.706   3.277
  180SLPC   H9R20518   2.278   0.674   3.180
  180SLPC  C21020519   2.326   0.671   3.375
  180SLPC  H10R20520   2.420   0.635   3.332
  180SLPC  C21120521   2.298   0.666   3.525
  180SLPC  H11R20522   2.281   0.769   3.564
  180SLPC  H11S20523   2.388   0.621   3.573
  180SLPC  C21220524   2.173   0.580   3.549
  180SLPC  H12R20525   2.176   0.481   3.502
  180SLPC  C21320526   2.064   0.607   3.620
  180SLPC  H13R20527   1.987   0.530   3.638
  180SLPC  C21420528   2.047   0.733   3.705
  180SLPC  H14R20529   1.950   0.786   3.687
  180SLPC  H14S20530   2.117   0.815   3.676
  180SLPC  C21520531   2.073   0.721   3.860
  180SLPC  H15R20532   2.132   0.809   3.893
  180SLPC  H15S20533   2.150   0.640   3.865
  180SLPC  C21620534   1.965   0.668   3.950
  180SLPC  H16R20535   1.946   0.560   3.932
  180SLPC  H16S20536   1.876   0.730   3.927
  180SLPC  C21720537   1.995   0.700   4.095
  180SLPC  H17R20538   2.008   0.810   4.105
  180SLPC  H17S20539   2.100   0.666   4.107
  180SLPC  C21820540   1.905   0.633   4.201
  180SLPC  H18R20541   1.959   0.616   4.297
  180SLPC  H18S20542   1.863   0.534   4.176
  180SLPC  H18T20543   1.819   0.695   4.234
  180SLPC   C3320544   2.504   1.050   2.979
  180SLPC   H3X20545   2.423   1.103   3.032
  180SLPC   H3Y20546   2.587   1.124   2.969
  180SLPC   C3420547   2.550   0.936   3.064
  180SLPC   H4X20548   2.644   0.895   3.024
  180SLPC   H4Y20549   2.465   0.864   3.060
  180SLPC   C3520550   2.574   0.967   3.214
  180SLPC   H5X20551   2.660   1.037   3.221
  180SLPC   H5Y20552   2.608   0.879   3.274
  180SLPC   C3620553   2.455   1.027   3.288
  180SLPC   H6X20554   2.374   0.956   3.263
  180SLPC   H6Y20555   2.418   1.128   3.260
  180SLPC   C3720556   2.488   1.029   3.438
  180SLPC   H7X20557   2.563   1.110   3.440
  180SLPC   H7Y20558   2.528   0.932   3.474
  180SLPC   C3820559   2.375   1.080   3.525
  180SLPC   H8X20560   2.285   1.017   3.505
  180SLPC   H8Y20561   2.354   1.187   3.504
  180SLPC   C3920562   2.418   1.070   3.672
  180SLPC   H9X20563   2.515   1.122   3.689
  180SLPC   H9Y20564   2.438   0.966   3.704
  180SLPC  C31020565   2.316   1.144   3.770
  180SLPC  H10X20566   2.226   1.081   3.751
  180SLPC  H10Y20567   2.296   1.247   3.735
  180SLPC  C31120568   2.359   1.129   3.916
  180SLPC  H11X20569   2.450   1.190   3.933
  180SLPC  H11Y20570   2.393   1.025   3.935
  180SLPC  C31220571   2.255   1.181   4.019
  180SLPC  H12X20572   2.213   1.275   3.979
  180SLPC  H12Y20573   2.319   1.212   4.104
  180SLPC  C31320574   2.149   1.078   4.041
  180SLPC  H13X20575   2.193   0.989   4.090
  180SLPC  H13Y20576   2.103   1.053   3.943
  180SLPC  C31420577   2.040   1.131   4.132
  180SLPC  H14X20578   1.964   1.051   4.141
  180SLPC  H14Y20579   2.000   1.223   4.085
  180SLPC  C31520580   2.092   1.142   4.278
  180SLPC  H15X20581   2.148   1.238   4.281
  180SLPC  H15Y20582   2.162   1.062   4.310
  180SLPC  C31620583   1.977   1.162   4.382
  180SLPC  H16X20584   1.986   1.095   4.470
  180SLPC  H16Y20585   1.878   1.133   4.341
  180SLPC  C31720586   1.968   1.314   4.418
  180SLPC  H17X20587   1.873   1.334   4.473
  180SLPC  H17Y20588   1.967   1.374   4.324
  180SLPC  C31820589   2.077   1.360   4.519
  180SLPC  H18X20590   2.175   1.347   4.469
  180SLPC  H18Y20591   2.075   1.298   4.611
  180SLPC  H18Z20592   2.068   1.468   4.543
  181SLPC     N20593   1.310   0.314   2.123
  181SLPC   C1320594   1.380   0.350   2.254
  181SLPC  H13A20595   1.405   0.257   2.303
  181SLPC  H13B20596   1.471   0.404   2.234
  181SLPC  H13C20597   1.315   0.406   2.319
  181SLPC   C1420598   1.275   0.441   2.057
  181SLPC  H14A20599   1.207   0.411   1.980
  181SLPC  H14B20600   1.228   0.512   2.124
  181SLPC  H14C20601   1.363   0.486   2.011
  181SLPC   C1520602   1.192   0.235   2.162
  181SLPC  H15A20603   1.225   0.139   2.199
  181SLPC  H15B20604   1.133   0.289   2.235
  181SLPC  H15C20605   1.138   0.213   2.071
  181SLPC   C1220606   1.396   0.231   2.030
  181SLPC  H12A20607   1.481   0.297   2.017
  181SLPC  H12B20608   1.342   0.223   1.937
  181SLPC   C1120609   1.456   0.100   2.072
  181SLPC  H11A20610   1.519   0.060   1.990
  181SLPC  H11B20611   1.379   0.022   2.092
  181SLPC     P20612   1.673   0.194   2.176
  181SLPC   O1320613   1.760   0.132   2.076
  181SLPC   O1420614   1.649   0.340   2.154
  181SLPC   O1220615   1.539   0.115   2.196
  181SLPC   O1120616   1.728   0.176   2.324
  181SLPC    C120617   1.757   0.045   2.372
  181SLPC    HA20618   1.720   6.774   2.312
  181SLPC    HB20619   1.868   0.039   2.372
  181SLPC    C220620   1.697   0.022   2.515
  181SLPC    HS20621   1.711   6.729   2.537
  181SLPC   O2120622   1.556   0.062   2.508
  181SLPC   C2120623   1.485   6.779   2.456
  181SLPC   O2220624   1.530   6.672   2.418
  181SLPC   C2220625   1.327   6.810   2.444
  181SLPC   H2R20626   1.308   0.083   2.511
  181SLPC   H2S20627   1.303   0.018   2.338
  181SLPC    C320628   1.774   0.094   2.626
  181SLPC    HX20629   1.807   0.199   2.609
  181SLPC    HY20630   1.872   0.043   2.633
  181SLPC   O3120631   1.711   0.076   2.756
  181SLPC   C3120632   1.645   0.190   2.800
  181SLPC   O3220633   1.643   0.295   2.737
  181SLPC   C3220634   1.590   0.168   2.937
  181SLPC   H2X20635   1.480   0.154   2.929
  181SLPC   H2Y20636   1.597   0.260   2.998
  181SLPC   C2320637   1.242   6.686   2.487
  181SLPC   H3R20638   1.283   6.601   2.427
  181SLPC   H3S20639   1.136   6.709   2.464
  181SLPC   C2420640   1.259   6.638   2.628
  181SLPC   H4R20641   1.228   6.717   2.699
  181SLPC   H4S20642   1.367   6.627   2.652
  181SLPC   C2520643   1.186   6.511   2.668
  181SLPC   H5R20644   1.228   6.431   2.603
  181SLPC   H5S20645   1.079   6.518   2.637
  181SLPC   C2620646   1.209   6.483   2.819
  181SLPC   H6R20647   1.167   6.572   2.870
  181SLPC   H6S20648   1.318   6.483   2.837
  181SLPC   C2720649   1.145   6.360   2.873
  181SLPC   H7R20650   1.194   6.272   2.826
  181SLPC   H7S20651   1.037   6.348   2.851
  181SLPC   C2820652   1.177   6.341   3.023
  181SLPC   H8R20653   1.287   6.354   3.034
  181SLPC   H8S20654   1.161   6.233   3.044
  181SLPC   C2920655   1.108   6.441   3.109
  181SLPC   H9R20656   1.132   6.548   3.093
  181SLPC  C21020657   1.015   6.413   3.205
  181SLPC  H10R20658   0.978   6.490   3.274
  181SLPC  C21120659   0.975   6.275   3.238
  181SLPC  H11R20660   1.031   6.241   3.328
  181SLPC  H11S20661   1.010   6.196   3.168
  181SLPC  C21220662   0.828   6.250   3.267
  181SLPC  H12R20663   0.777   6.215   3.176
  181SLPC  C21320664   0.764   6.270   3.380
  181SLPC  H13R20665   0.657   6.249   3.394
  181SLPC  C21420666   0.832   6.321   3.508
  181SLPC  H14R20667   0.765   6.407   3.527
  181SLPC  H14S20668   0.936   6.357   3.494
  181SLPC  C21520669   0.841   6.213   3.614
  181SLPC  H15R20670   0.894   6.123   3.575
  181SLPC  H15S20671   0.741   6.181   3.651
  181SLPC  C21620672   0.924   6.263   3.734
  181SLPC  H16R20673   1.025   6.290   3.697
  181SLPC  H16S20674   0.929   6.175   3.802
  181SLPC  C21720675   0.862   6.386   3.794
  181SLPC  H17R20676   0.751   6.386   3.790
  181SLPC  H17S20677   0.890   6.474   3.733
  181SLPC  C21820678   0.924   6.422   3.936
  181SLPC  H18R20679   1.035   6.420   3.931
  181SLPC  H18S20680   0.882   6.353   4.013
  181SLPC  H18T20681   0.887   6.525   3.961
  181SLPC   C3320682   1.640   0.059   3.025
  181SLPC   H3X20683   1.627   0.084   3.132
  181SLPC   H3Y20684   1.749   0.035   3.026
  181SLPC   C3420685   1.560   6.743   2.982
  181SLPC   H4X20686   1.623   6.655   3.010
  181SLPC   H4Y20687   1.540   6.728   2.874
  181SLPC   C3520688   1.421   6.732   3.045
  181SLPC   H5X20689   1.373   6.639   3.006
  181SLPC   H5Y20690   1.358   0.006   3.018
  181SLPC   C3620691   1.419   6.732   3.197
  181SLPC   H6X20692   1.315   6.738   3.236
  181SLPC   H6Y20693   1.462   0.013   3.233
  181SLPC   C3720694   1.497   6.620   3.256
  181SLPC   H7X20695   1.597   6.611   3.210
  181SLPC   H7Y20696   1.447   6.522   3.241
  181SLPC   C3820697   1.533   6.623   3.403
  181SLPC   H8X20698   1.607   6.544   3.428
  181SLPC   H8Y20699   1.443   6.599   3.464
  181SLPC   C3920700   1.580   6.755   3.454
  181SLPC   H9X20701   1.491   0.007   3.460
  181SLPC   H9Y20702   1.649   6.803   3.381
  181SLPC  C31020703   1.653   6.761   3.592
  181SLPC  H10X20704   1.721   0.034   3.595
  181SLPC  H10Y20705   1.718   6.671   3.599
  181SLPC  C31120706   1.566   6.763   3.722
  181SLPC  H11X20707   1.498   6.676   3.713
  181SLPC  H11Y20708   1.516   0.047   3.715
  181SLPC  C31220709   1.638   6.743   3.864
  181SLPC  H12X20710   1.573   6.764   3.952
  181SLPC  H12Y20711   1.714   0.009   3.876
  181SLPC  C31320712   1.708   6.608   3.883
  181SLPC  H13X20713   1.769   6.584   3.793
  181SLPC  H13Y20714   1.631   6.530   3.901
  181SLPC  C31420715   1.789   6.607   4.014
  181SLPC  H14X20716   1.718   6.630   4.097
  181SLPC  H14Y20717   1.870   6.682   4.003
  181SLPC  C31520718   1.864   6.474   4.031
  181SLPC  H15X20719   1.947   6.474   4.105
  181SLPC  H15Y20720   1.907   6.448   3.932
  181SLPC  C31620721   1.774   6.354   4.061
  181SLPC  H16X20722   1.681   6.359   4.000
  181SLPC  H16Y20723   1.742   6.365   4.167
  181SLPC  C31720724   1.838   6.212   4.048
  181SLPC  H17X20725   1.943   6.195   4.078
  181SLPC  H17Y20726   1.836   6.196   3.938
  181SLPC  C31820727   1.751   6.104   4.113
  181SLPC  H18X20728   1.809   6.010   4.125
  181SLPC  H18Y20729   1.670   6.080   4.040
  181SLPC  H18Z20730   1.711   6.137   4.211
  182SLPC     N20731   1.734   6.489   1.911
  182SLPC   C1320732   1.749   6.385   2.012
  182SLPC  H13A20733   1.689   6.410   2.099
  182SLPC  H13B20734   1.722   6.287   1.978
  182SLPC  H13C20735   1.855   6.380   2.033
  182SLPC   C1420736   1.747   6.626   1.983
  182SLPC  H14A20737   1.672   6.633   2.060
  182SLPC  H14B20738   1.842   6.645   2.030
  182SLPC  H14C20739   1.732   6.703   1.909
  182SLPC   C1520740   1.591   6.489   1.867
  182SLPC  H15A20741   1.520   6.500   1.948
  182SLPC  H15B20742   1.584   6.563   1.789
  182SLPC  H15C20743   1.573   6.394   1.819
  182SLPC   C1220744   1.839   6.468   1.804
  182SLPC  H12A20745   1.812   6.540   1.728
  182SLPC  H12B20746   1.817   6.379   1.747
  182SLPC   C1120747   1.981   6.474   1.844
  182SLPC  H11A20748   2.003   6.572   1.892
  182SLPC  H11B20749   2.035   6.485   1.748
  182SLPC     P20750   2.067   6.224   1.858
  182SLPC   O1320751   1.945   6.167   1.794
  182SLPC   O1420752   2.184   6.239   1.766
  182SLPC   O1220753   2.032   6.368   1.922
  182SLPC   O1120754   2.108   6.139   1.988
  182SLPC    C120755   2.001   6.098   2.074
  182SLPC    HA20756   1.924   6.176   2.091
  182SLPC    HB20757   1.940   6.012   2.041
  182SLPC    C220758   2.051   6.060   2.219
  182SLPC    HS20759   1.979   5.995   2.273
  182SLPC   O2120760   2.078   6.177   2.303
  182SLPC   C2120761   1.968   6.234   2.350
  182SLPC   O2220762   1.856   6.183   2.340
  182SLPC   C2220763   2.006   6.368   2.414
  182SLPC   H2R20764   2.079   6.334   2.489
  182SLPC   H2S20765   2.046   6.427   2.328
  182SLPC    C320766   2.188   5.976   2.209
  182SLPC    HX20767   2.266   6.032   2.154
  182SLPC    HY20768   2.170   5.889   2.142
  182SLPC   O3120769   2.242   5.933   2.334
  182SLPC   C3120770   2.183   5.837   2.393
  182SLPC   O3220771   2.088   5.772   2.351
  182SLPC   C3220772   2.239   5.842   2.531
  182SLPC   H2X20773   2.199   5.934   2.579
  182SLPC   H2Y20774   2.350   5.840   2.530
  182SLPC   C2320775   1.888   6.436   2.488
  182SLPC   H3R20776   1.795   6.439   2.428
  182SLPC   H3S20777   1.926   6.532   2.530
  182SLPC   C2420778   1.838   6.356   2.607
  182SLPC   H4R20779   1.925   6.330   2.670
  182SLPC   H4S20780   1.785   6.261   2.582
  182SLPC   C2520781   1.733   6.438   2.690
  182SLPC   H5R20782   1.651   6.435   2.615
  182SLPC   H5S20783   1.766   6.543   2.702
  182SLPC   C2620784   1.705   6.379   2.825
  182SLPC   H6R20785   1.679   6.468   2.886
  182SLPC   H6S20786   1.790   6.324   2.870
  182SLPC   C2720787   1.592   6.278   2.837
  182SLPC   H7R20788   1.635   6.190   2.784
  182SLPC   H7S20789   1.505   6.303   2.773
  182SLPC   C2820790   1.537   6.240   2.978
  182SLPC   H8R20791   1.449   6.175   2.959
  182SLPC   H8S20792   1.493   6.329   3.027
  182SLPC   C2920793   1.630   6.164   3.071
  182SLPC   H9R20794   1.702   6.098   3.021
  182SLPC  C21020795   1.637   6.162   3.207
  182SLPC  H10R20796   1.716   6.097   3.247
  182SLPC  C21120797   1.557   6.242   3.303
  182SLPC  H11R20798   1.576   6.349   3.278
  182SLPC  H11S20799   1.596   6.229   3.406
  182SLPC  C21220800   1.410   6.214   3.301
  182SLPC  H12R20801   1.377   6.162   3.210
  182SLPC  C21320802   1.323   6.233   3.402
  182SLPC  H13R20803   1.217   6.205   3.395
  182SLPC  C21420804   1.353   6.284   3.540
  182SLPC  H14R20805   1.269   6.351   3.567
  182SLPC  H14S20806   1.430   6.363   3.524
  182SLPC  C21520807   1.388   6.182   3.656
  182SLPC  H15R20808   1.489   6.135   3.658
  182SLPC  H15S20809   1.322   6.094   3.649
  182SLPC  C21620810   1.382   6.255   3.790
  182SLPC  H16R20811   1.309   6.338   3.800
  182SLPC  H16S20812   1.481   6.304   3.808
  182SLPC  C21720813   1.366   6.162   3.914
  182SLPC  H17R20814   1.443   6.082   3.909
  182SLPC  H17S20815   1.267   6.110   3.918
  182SLPC  C21820816   1.384   6.240   4.051
  182SLPC  H18R20817   1.484   6.288   4.058
  182SLPC  H18S20818   1.374   6.171   4.137
  182SLPC  H18T20819   1.302   6.316   4.050
  182SLPC   C3320820   2.199   5.716   2.610
  182SLPC   H3X20821   2.241   5.624   2.565
  182SLPC   H3Y20822   2.088   5.710   2.602
  182SLPC   C3420823   2.247   5.708   2.755
  182SLPC   H4X20824   2.226   5.605   2.789
  182SLPC   H4Y20825   2.187   5.783   2.812
  182SLPC   C3520826   2.400   5.725   2.776
  182SLPC   H5X20827   2.434   5.828   2.751
  182SLPC   H5Y20828   2.458   5.650   2.718
  182SLPC   C3620829   2.426   5.707   2.930
  182SLPC   H6X20830   2.407   5.602   2.958
  182SLPC   H6Y20831   2.358   5.774   2.987
  182SLPC   C3720832   2.571   5.738   2.971
  182SLPC   H7X20833   2.586   5.848   2.956
  182SLPC   H7Y20834   2.649   5.687   2.911
  182SLPC   C3820835   2.598   5.702   3.109
  182SLPC   H8X20836   2.551   5.601   3.115
  182SLPC   H8Y20837   2.547   5.778   3.171
  182SLPC   C3920838   2.746   5.686   3.151
  182SLPC   H9X20839   2.808   5.769   3.111
  182SLPC   H9Y20840   2.784   5.597   3.097
  182SLPC  C31020841   2.768   5.682   3.301
  182SLPC  H10X20842   2.750   5.786   3.337
  182SLPC  H10Y20843   2.875   5.675   3.327
  182SLPC  C31120844   2.679   5.580   3.379
  182SLPC  H11X20845   2.720   5.484   3.341
  182SLPC  H11Y20846   2.578   5.591   3.334
  182SLPC  C31220847   2.686   5.602   3.529
  182SLPC  H12X20848   2.641   5.702   3.550
  182SLPC  H12Y20849   2.791   5.602   3.565
  182SLPC  C31320850   2.606   5.493   3.610
  182SLPC  H13X20851   2.621   5.387   3.580
  182SLPC  H13Y20852   2.501   5.525   3.594
  182SLPC  C31420853   2.635   5.508   3.760
  182SLPC  H14X20854   2.744   5.528   3.768
  182SLPC  H14Y20855   2.609   5.411   3.808
  182SLPC  C31520856   2.566   5.621   3.830
  182SLPC  H15X20857   2.457   5.624   3.808
  182SLPC  H15Y20858   2.605   5.711   3.778
  182SLPC  C31620859   2.594   5.609   3.980
  182SLPC  H16X20860   2.704   5.594   3.986
  182SLPC  H16Y20861   2.543   5.522   4.028
  182SLPC  C31720862   2.570   5.740   4.062
  182SLPC  H17X20863   2.462   5.763   4.050
  182SLPC  H17Y20864   2.624   5.823   4.012
  182SLPC  C31820865   2.614   5.707   4.206
  182SLPC  H18X20866   2.719   5.670   4.201
  182SLPC  H18Y20867   2.558   5.624   4.255
  182SLPC  H18Z20868   2.616   5.800   4.266
  183SLPC     N20869   6.550   2.741   2.234
  183SLPC   C1320870   6.553   2.887   2.187
  183SLPC  H13A20871   6.571   2.890   2.080
  183SLPC  H13B20872   6.459   2.930   2.216
  183SLPC  H13C20873   6.625   2.951   2.237
  183SLPC   C1420874   6.668   2.668   2.187
  183SLPC  H14A20875   6.662   2.562   2.211
  183SLPC  H14B20876   6.681   2.684   2.081
  183SLPC  H14C20877   6.761   2.698   2.233
  183SLPC   C1520878   6.423   2.685   2.171
  183SLPC  H15A20879   6.346   2.739   2.224
  183SLPC  H15B20880   6.423   2.705   2.065
  183SLPC  H15C20881   6.402   2.579   2.180
  183SLPC   C1220882   6.539   2.724   2.382
  183SLPC  H12A20883   6.610   2.789   2.433
  183SLPC  H12B20884   6.581   2.626   2.401
  183SLPC   C1120885   6.401   2.738   2.453
  183SLPC  H11A20886   6.422   2.733   2.562
  183SLPC  H11B20887   6.335   2.649   2.439
  183SLPC     P20888   6.184   2.875   2.495
  183SLPC   O1320889   6.181   3.012   2.545
  183SLPC   O1420890   6.069   2.836   2.409
  183SLPC   O1220891   6.315   2.850   2.423
  183SLPC   O1120892   6.190   2.778   2.622
  183SLPC    C120893   6.080   2.692   2.639
  183SLPC    HA20894   5.984   2.744   2.654
  183SLPC    HB20895   6.066   2.619   2.556
  183SLPC    C220896   6.111   2.596   2.756
  183SLPC    HS20897   6.029   2.520   2.748
  183SLPC   O2120898   6.108   2.660   2.882
  183SLPC   C2120899   5.991   2.701   2.935
  183SLPC   O2220900   5.889   2.698   2.871
  183SLPC   C2220901   6.012   2.726   3.081
  183SLPC   H2R20902   6.087   2.653   3.118
  183SLPC   H2S20903   6.041   2.832   3.097
  183SLPC    C320904   6.238   2.515   2.733
  183SLPC    HX20905   6.321   2.589   2.736
  183SLPC    HY20906   6.237   2.486   2.626
  183SLPC   O3120907   6.257   2.395   2.819
  183SLPC   C3120908   6.179   2.297   2.781
  183SLPC   O3220909   6.102   2.287   2.688
  183SLPC   C3220910   6.202   2.198   2.893
  183SLPC   H2X20911   6.289   2.224   2.956
  183SLPC   H2Y20912   6.226   2.096   2.854
  183SLPC   C2320913   5.877   2.703   3.162
  183SLPC   H3R20914   5.847   2.597   3.149
  183SLPC   H3S20915   5.793   2.760   3.117
  183SLPC   C2420916   5.882   2.750   3.311
  183SLPC   H4R20917   5.913   2.856   3.326
  183SLPC   H4S20918   5.948   2.688   3.375
  183SLPC   C2520919   5.742   2.737   3.370
  183SLPC   H5R20920   5.714   2.631   3.385
  183SLPC   H5S20921   5.674   2.788   3.298
  183SLPC   C2620922   5.728   2.791   3.514
  183SLPC   H6R20923   5.621   2.771   3.537
  183SLPC   H6S20924   5.744   2.901   3.513
  183SLPC   C2720925   5.815   2.725   3.619
  183SLPC   H7R20926   5.917   2.755   3.587
  183SLPC   H7S20927   5.798   2.615   3.615
  183SLPC   C2820928   5.787   2.782   3.761
  183SLPC   H8R20929   5.796   2.891   3.744
  183SLPC   H8S20930   5.878   2.763   3.822
  183SLPC   C2920931   5.656   2.733   3.821
  183SLPC   H9R20932   5.573   2.714   3.751
  183SLPC  C21020933   5.636   2.703   3.946
  183SLPC  H10R20934   5.535   2.675   3.978
  183SLPC  C21120935   5.731   2.722   4.065
  183SLPC  H11R20936   5.685   2.764   4.157
  183SLPC  H11S20937   5.807   2.800   4.041
  183SLPC  C21220938   5.811   2.601   4.109
  183SLPC  H12R20939   5.859   2.545   4.028
  183SLPC  C21320940   5.810   2.548   4.231
  183SLPC  H13R20941   5.870   2.456   4.238
  183SLPC  C21420942   5.740   2.603   4.348
  183SLPC  H14R20943   5.662   2.533   4.386
  183SLPC  H14S20944   5.693   2.700   4.320
  183SLPC  C21520945   5.834   2.635   4.466
  183SLPC  H15R20946   5.761   2.691   4.527
  183SLPC  H15S20947   5.926   2.695   4.447
  183SLPC  C21620948   5.886   2.513   4.542
  183SLPC  H16R20949   5.953   2.447   4.483
  183SLPC  H16S20950   5.795   2.454   4.569
  183SLPC  C21720951   5.943   2.541   4.686
  183SLPC  H17R20952   5.871   2.602   4.744
  183SLPC  H17S20953   6.039   2.597   4.675
  183SLPC  C21820954   5.972   2.408   4.770
  183SLPC  H18R20955   6.030   2.329   4.717
  183SLPC  H18S20956   5.873   2.363   4.791
  183SLPC  H18T20957   6.027   2.422   4.865
  183SLPC   C3320958   6.072   2.171   2.972
  183SLPC   H3X20959   6.090   2.071   3.016
  183SLPC   H3Y20960   5.987   2.160   2.903
  183SLPC   C3420961   6.038   2.270   3.090
  183SLPC   H4X20962   5.949   2.215   3.128
  183SLPC   H4Y20963   6.014   2.371   3.052
  183SLPC   C3520964   6.144   2.265   3.203
  183SLPC   H5X20965   6.240   2.297   3.158
  183SLPC   H5Y20966   6.163   2.161   3.238
  183SLPC   C3620967   6.105   2.363   3.322
  183SLPC   H6X20968   6.091   2.464   3.280
  183SLPC   H6Y20969   6.185   2.363   3.399
  183SLPC   C3720970   5.985   2.315   3.398
  183SLPC   H7X20971   6.004   2.211   3.430
  183SLPC   H7Y20972   5.899   2.303   3.328
  183SLPC   C3820973   5.937   2.405   3.503
  183SLPC   H8X20974   5.878   2.480   3.448
  183SLPC   H8Y20975   6.013   2.467   3.556
  183SLPC   C3920976   5.858   2.337   3.616
  183SLPC   H9X20977   5.796   2.252   3.579
  183SLPC   H9Y20978   5.787   2.415   3.648
  183SLPC  C31020979   5.936   2.290   3.735
  183SLPC  H10X20980   5.980   2.379   3.786
  183SLPC  H10Y20981   6.021   2.225   3.706
  183SLPC  C31120982   5.852   2.227   3.838
  183SLPC  H11X20983   5.812   2.131   3.799
  183SLPC  H11Y20984   5.759   2.281   3.869
  183SLPC  C31220985   5.928   2.193   3.970
  183SLPC  H12X20986   5.990   2.282   3.989
  183SLPC  H12Y20987   6.006   2.115   3.955
  183SLPC  C31320988   5.835   2.161   4.086
  183SLPC  H13X20989   5.781   2.065   4.075
  183SLPC  H13Y20990   5.754   2.238   4.091
  183SLPC  C31420991   5.909   2.158   4.219
  183SLPC  H14X20992   5.946   2.261   4.241
  183SLPC  H14Y20993   5.999   2.092   4.215
  183SLPC  C31520994   5.818   2.110   4.340
  183SLPC  H15X20995   5.806   2.000   4.336
  183SLPC  H15Y20996   5.724   2.168   4.326
  183SLPC  C31620997   5.884   2.143   4.475
  183SLPC  H16X20998   5.872   2.252   4.495
  183SLPC  H16Y20999   5.991   2.113   4.465
  183SLPC  C31721000   5.823   2.068   4.591
  183SLPC  H17X21001   5.898   2.061   4.673
  183SLPC  H17Y21002   5.818   1.965   4.550
  183SLPC  C31821003   5.685   2.109   4.638
  183SLPC  H18X21004   5.661   2.054   4.732
  183SLPC  H18Y21005   5.619   2.100   4.549
  183SLPC  H18Z21006   5.683   2.215   4.671
  184SLPC     N21007   6.308   2.046   2.425
  184SLPC   C1321008   6.327   1.938   2.329
  184SLPC  H13A21009   6.295   1.843   2.370
  184SLPC  H13B21010   6.280   1.954   2.233
  184SLPC  H13C21011   6.432   1.919   2.312
  184SLPC   C1421012   6.388   2.020   2.543
  184SLPC  H14A21013   6.389   2.109   2.604
  184SLPC  H14B21014   6.361   1.946   2.617
  184SLPC  H14C21015   6.492   2.010   2.513
  184SLPC   C1521016   6.159   2.056   2.448
  184SLPC  H15A21017   6.119   1.965   2.490
  184SLPC  H15B21018   6.139   2.136   2.517
  184SLPC  H15C21019   6.107   2.083   2.357
  184SLPC   C1221020   6.347   2.166   2.352
  184SLPC  H12A21021   6.285   2.192   2.268
  184SLPC  H12B21022   6.450   2.151   2.323
  184SLPC   C1121023   6.364   2.290   2.444
  184SLPC  H11A21024   6.274   2.288   2.509
  184SLPC  H11B21025   6.367   2.378   2.375
  184SLPC     P21026   6.622   2.304   2.453
  184SLPC   O1321027   6.646   2.185   2.369
  184SLPC   O1421028   6.617   2.435   2.378
  184SLPC   O1221029   6.479   2.287   2.523
  184SLPC   O1121030   6.724   2.312   2.574
  184SLPC    C121031   6.684   2.389   2.692
  184SLPC    HA21032   6.770   2.458   2.702
  184SLPC    HB21033   6.587   2.443   2.690
  184SLPC    C221034   6.686   2.298   2.825
  184SLPC    HS21035   6.717   2.356   2.914
  184SLPC   O2121036   6.786   2.195   2.822
  184SLPC   C2121037   0.101   2.230   2.830
  184SLPC   O2221038   0.143   2.340   2.834
  184SLPC   C2221039   0.182   2.103   2.847
  184SLPC   H2R21040   0.182   2.041   2.755
  184SLPC   H2S21041   0.288   2.136   2.845
  184SLPC    C321042   6.546   2.236   2.849
  184SLPC    HX21043   6.518   2.158   2.775
  184SLPC    HY21044   6.471   2.316   2.831
  184SLPC   O3121045   6.523   2.201   2.986
  184SLPC   C3121046   6.572   2.083   3.021
  184SLPC   O3221047   6.630   2.009   2.946
  184SLPC   C3221048   6.532   2.051   3.163
  184SLPC   H2X21049   6.500   2.142   3.218
  184SLPC   H2Y21050   6.626   2.025   3.216
  184SLPC   C2321051   0.158   2.012   2.964
  184SLPC   H3R21052   0.243   1.941   2.952
  184SLPC   H3S21053   0.063   1.957   2.949
  184SLPC   C2421054   0.166   2.084   3.104
  184SLPC   H4R21055   0.080   2.154   3.111
  184SLPC   H4S21056   0.266   2.132   3.108
  184SLPC   C2521057   0.166   1.981   3.225
  184SLPC   H5R21058   0.263   1.927   3.215
  184SLPC   H5S21059   0.085   1.906   3.211
  184SLPC   C2621060   0.161   2.048   3.358
  184SLPC   H6R21061   0.069   2.110   3.359
  184SLPC   H6S21062   0.244   2.122   3.364
  184SLPC   C2721063   0.157   1.953   3.481
  184SLPC   H7R21064   0.239   1.878   3.474
  184SLPC   H7S21065   0.066   1.889   3.479
  184SLPC   C2821066   0.175   2.024   3.616
  184SLPC   H8R21067   0.264   2.091   3.609
  184SLPC   H8S21068   0.191   1.939   3.685
  184SLPC   C2921069   0.058   2.107   3.655
  184SLPC   H9R21070   6.808   2.149   3.577
  184SLPC  C21021071   0.036   2.159   3.781
  184SLPC  H10R21072   6.756   2.215   3.791
  184SLPC  C21121073   0.113   2.134   3.909
  184SLPC  H11R21074   0.153   2.223   3.962
  184SLPC  H11S21075   0.202   2.071   3.886
  184SLPC  C21221076   0.005   2.067   4.001
  184SLPC  H12R21077   6.720   2.044   3.959
  184SLPC  C21321078   0.025   2.048   4.133
  184SLPC  H13R21079   6.762   2.006   4.199
  184SLPC  C21421080   0.156   2.068   4.206
  184SLPC  H14R21081   0.244   2.047   4.142
  184SLPC  H14S21082   0.178   1.995   4.287
  184SLPC  C21521083   0.180   2.207   4.261
  184SLPC  H15R21084   0.116   2.223   4.350
  184SLPC  H15S21085   0.150   2.281   4.184
  184SLPC  C21621086   0.324   2.244   4.300
  184SLPC  H16R21087   0.384   2.250   4.207
  184SLPC  H16S21088   0.350   2.152   4.357
  184SLPC  C21721089   0.342   2.372   4.377
  184SLPC  H17R21090   0.445   2.384   4.417
  184SLPC  H17S21091   0.273   2.364   4.464
  184SLPC  C21821092   0.309   2.495   4.286
  184SLPC  H18R21093   0.311   2.593   4.336
  184SLPC  H18S21094   0.207   2.494   4.242
  184SLPC  H18T21095   0.380   2.494   4.200
  184SLPC   C3321096   6.427   1.936   3.175
  184SLPC   H3X21097   6.461   1.841   3.128
  184SLPC   H3Y21098   6.339   1.963   3.112
  184SLPC   C3421099   6.387   1.913   3.318
  184SLPC   H4X21100   6.324   1.823   3.337
  184SLPC   H4Y21101   6.335   2.003   3.357
  184SLPC   C3521102   6.503   1.886   3.421
  184SLPC   H5X21103   6.561   1.981   3.427
  184SLPC   H5Y21104   6.569   1.800   3.399
  184SLPC   C3621105   6.455   1.838   3.556
  184SLPC   H6X21106   6.401   1.743   3.540
  184SLPC   H6Y21107   6.379   1.915   3.580
  184SLPC   C3721108   6.557   1.836   3.670
  184SLPC   H7X21109   6.618   1.928   3.674
  184SLPC   H7Y21110   6.637   1.759   3.665
  184SLPC   C3821111   6.499   1.797   3.813
  184SLPC   H8X21112   6.425   1.716   3.796
  184SLPC   H8Y21113   6.466   1.894   3.856
  184SLPC   C3921114   6.611   1.739   3.898
  184SLPC   H9X21115   6.697   1.809   3.906
  184SLPC   H9Y21116   6.641   1.641   3.854
  184SLPC  C31021117   6.568   1.728   4.050
  184SLPC  H10X21118   6.478   1.663   4.056
  184SLPC  H10Y21119   6.548   1.836   4.068
  184SLPC  C31121120   6.689   1.680   4.131
  184SLPC  H11X21121   6.766   1.760   4.124
  184SLPC  H11Y21122   6.720   1.594   4.068
  184SLPC  C31221123   6.656   1.649   4.276
  184SLPC  H12X21124   6.606   1.550   4.282
  184SLPC  H12Y21125   6.580   1.719   4.316
  184SLPC  C31321126   6.764   1.656   4.389
  184SLPC  H13X21127   6.796   1.760   4.409
  184SLPC  H13Y21128   0.039   1.599   4.357
  184SLPC  C31421129   6.713   1.592   4.513
  184SLPC  H14X21130   6.699   1.482   4.498
  184SLPC  H14Y21131   6.611   1.631   4.536
  184SLPC  C31521132   6.806   1.616   4.629
  184SLPC  H15X21133   0.007   1.726   4.627
  184SLPC  H15Y21134   0.091   1.566   4.621
  184SLPC  C31621135   6.729   1.562   4.756
  184SLPC  H16X21136   6.741   1.452   4.747
  184SLPC  H16Y21137   6.619   1.575   4.746
  184SLPC  C31721138   6.781   1.614   4.888
  184SLPC  H17X21139   6.774   1.724   4.902
  184SLPC  H17Y21140   0.074   1.593   4.906
  184SLPC  C31821141   6.706   1.568   5.013
  184SLPC  H18X21142   6.697   1.458   5.018
  184SLPC  H18Y21143   6.601   1.606   5.015
  184SLPC  H18Z21144   6.756   1.606   5.105
  185POPC     N21145   2.073   5.210   7.085
  185POPC   C1221146   2.086   5.329   6.995
  185POPC  H12A21147   2.187   5.365   7.007
  185POPC  H12B21148   2.019   5.405   7.031
  185POPC   C1321149   2.075   5.236   7.225
  185POPC  H13A21150   2.049   5.150   7.286
  185POPC  H13B21151   2.168   5.276   7.263
  185POPC  H13C21152   1.990   5.297   7.251
  185POPC   C1421153   1.943   5.136   7.051
  185POPC  H14A21154   1.852   5.192   7.064
  185POPC  H14B21155   1.951   5.112   6.946
  185POPC  H14C21156   1.939   5.044   7.108
  185POPC   C1521157   2.186   5.111   7.060
  185POPC  H15A21158   2.170   5.068   6.962
  185POPC  H15B21159   2.172   5.032   7.132
  185POPC  H15C21160   2.281   5.161   7.051
  185POPC   C1121161   2.057   5.294   6.847
  185POPC  H11A21162   2.083   5.188   6.831
  185POPC  H11B21163   2.128   5.350   6.783
  185POPC     P21164   1.877   5.454   6.779
  185POPC   O1321165   1.963   5.555   6.851
  185POPC   O1421166   1.732   5.466   6.803
  185POPC   O1221167   1.925   5.305   6.808
  185POPC   O1121168   1.898   5.459   6.621
  185POPC    C121169   1.884   5.336   6.540
  185POPC    HA21170   1.790   5.286   6.573
  185POPC    HB21171   1.971   5.266   6.547
  185POPC    C221172   1.864   5.378   6.392
  185POPC    HS21173   1.770   5.437   6.382
  185POPC   O2121174   1.861   5.263   6.302
  185POPC   C2121175   1.734   5.212   6.276
  185POPC   O2221176   1.633   5.251   6.329
  185POPC   C2221177   1.750   5.091   6.176
  185POPC   H2R21178   1.655   5.081   6.119
  185POPC   H2S21179   1.754   4.995   6.232
  185POPC    C321180   1.983   5.478   6.354
  185POPC    HX21181   2.085   5.447   6.386
  185POPC    HY21182   1.974   5.568   6.419
  185POPC   O3121183   1.991   5.509   6.215
  185POPC   C3121184   1.905   5.600   6.179
  185POPC   O3221185   1.818   5.647   6.248
  185POPC   C3221186   1.932   5.646   6.035
  185POPC   H2X21187   1.832   5.678   5.998
  185POPC   H2Y21188   1.979   5.571   5.969
  185POPC   C2321189   1.862   5.107   6.068
  185POPC   H3R21190   1.863   5.016   6.005
  185POPC   H3S21191   1.962   5.104   6.115
  185POPC   C2421192   1.855   5.246   5.989
  185POPC   H4R21193   1.949   5.258   5.931
  185POPC   H4S21194   1.855   5.331   6.059
  185POPC   C2521195   1.740   5.253   5.873
  185POPC   H5R21196   1.747   5.352   5.824
  185POPC   H5S21197   1.638   5.253   5.918
  185POPC   C2621198   1.759   5.141   5.774
  185POPC   H6R21199   1.734   5.045   5.824
  185POPC   H6S21200   1.859   5.148   5.727
  185POPC   C2721201   1.673   5.138   5.645
  185POPC   H7R21202   1.568   5.117   5.673
  185POPC   H7S21203   1.713   5.046   5.597
  185POPC   C2821204   1.691   5.263   5.553
  185POPC   H8R21205   1.684   5.356   5.613
  185POPC   H8S21206   1.608   5.264   5.479
  185POPC   C2921207   1.826   5.263   5.483
  185POPC   H9121208   1.910   5.231   5.548
  185POPC  C21021209   1.857   5.299   5.354
  185POPC  H10121210   1.958   5.283   5.313
  185POPC  C21121211   1.763   5.336   5.240
  185POPC  H11R21212   1.825   5.380   5.159
  185POPC  H11S21213   1.696   5.415   5.281
  185POPC  C21221214   1.680   5.216   5.175
  185POPC  H12R21215   1.639   5.170   5.266
  185POPC  H12S21216   1.754   5.160   5.114
  185POPC  C21321217   1.579   5.263   5.077
  185POPC  H13R21218   1.507   5.340   5.111
  185POPC  H13S21219   1.505   5.184   5.053
  185POPC  C21421220   1.643   5.302   4.939
  185POPC  H14R21221   1.714   5.230   4.894
  185POPC  H14S21222   1.698   5.398   4.949
  185POPC  C21521223   1.538   5.319   4.830
  185POPC  H15R21224   1.467   5.401   4.852
  185POPC  H15S21225   1.476   5.227   4.831
  185POPC  C21621226   1.588   5.358   4.688
  185POPC  H16R21227   1.679   5.299   4.667
  185POPC  H16S21228   1.611   5.466   4.700
  185POPC  C21721229   1.480   5.329   4.579
  185POPC  H17R21230   1.403   5.405   4.598
  185POPC  H17S21231   1.438   5.227   4.594
  185POPC  C21821232   1.526   5.336   4.432
  185POPC  H18R21233   1.571   5.436   4.415
  185POPC  H18S21234   1.444   5.339   4.358
  185POPC  H18T21235   1.591   5.249   4.406
  185POPC   C3321236   2.024   5.767   6.023
  185POPC   H3X21237   2.110   5.739   6.087
  185POPC   H3Y21238   1.984   5.859   6.070
  185POPC   C3421239   2.062   5.807   5.879
  185POPC   H4X21240   2.127   5.724   5.843
  185POPC   H4Y21241   2.119   5.902   5.868
  185POPC   C3521242   1.940   5.821   5.781
  185POPC   H5X21243   1.869   5.902   5.806
  185POPC   H5Y21244   1.880   5.727   5.785
  185POPC   C3621245   1.974   5.845   5.634
  185POPC   H6X21246   2.040   5.933   5.621
  185POPC   H6Y21247   1.874   5.872   5.592
  185POPC   C3721248   2.028   5.725   5.553
  185POPC   H7X21249   1.976   5.636   5.594
  185POPC   H7Y21250   2.137   5.718   5.569
  185POPC   C3821251   1.981   5.733   5.410
  185POPC   H8X21252   2.012   5.831   5.368
  185POPC   H8Y21253   1.870   5.726   5.414
  185POPC   C3921254   2.037   5.631   5.312
  185POPC   H9X21255   2.018   5.524   5.336
  185POPC   H9Y21256   2.147   5.636   5.323
  185POPC  C31021257   2.008   5.653   5.165
  185POPC  H10X21258   2.044   5.755   5.140
  185POPC  H10Y21259   1.897   5.645   5.155
  185POPC  C31121260   2.089   5.558   5.074
  185POPC  H11X21261   2.089   5.455   5.116
  185POPC  H11Y21262   2.196   5.586   5.069
  185POPC  C31221263   2.028   5.550   4.931
  185POPC  H12X21264   2.034   5.652   4.886
  185POPC  H12Y21265   1.920   5.529   4.941
  185POPC  C31321266   2.083   5.441   4.839
  185POPC  H13X21267   2.006   5.415   4.764
  185POPC  H13Y21268   2.118   5.357   4.903
  185POPC  C31421269   2.216   5.483   4.778
  185POPC  H14X21270   2.290   5.510   4.857
  185POPC  H14Y21271   2.203   5.579   4.723
  185POPC  C31521272   2.274   5.379   4.679
  185POPC  H15X21273   2.210   5.373   4.589
  185POPC  H15Y21274   2.275   5.291   4.747
  185POPC  C31621275   2.418   5.402   4.628
  185POPC  H16X21276   2.443   5.329   4.548
  185POPC  H16Y21277   2.487   5.396   4.715
  185POPC  H16Z21278   2.416   5.503   4.581
  186POPC     N21279   4.551   5.414   6.722
  186POPC   C1221280   4.453   5.497   6.636
  186POPC  H12A21281   4.486   5.600   6.644
  186POPC  H12B21282   4.357   5.489   6.684
  186POPC   C1321283   4.686   5.421   6.664
  186POPC  H13A21284   4.690   5.361   6.575
  186POPC  H13B21285   4.716   5.523   6.644
  186POPC  H13C21286   4.760   5.372   6.725
  186POPC   C1421287   4.564   5.479   6.856
  186POPC  H14A21288   4.629   5.422   6.920
  186POPC  H14B21289   4.596   5.581   6.842
  186POPC  H14C21290   4.467   5.484   6.903
  186POPC   C1521291   4.513   5.267   6.743
  186POPC  H15A21292   4.588   5.206   6.792
  186POPC  H15B21293   4.482   5.236   6.645
  186POPC  H15C21294   4.430   5.258   6.812
  186POPC   C1121295   4.430   5.457   6.492
  186POPC  H11A21296   4.528   5.457   6.440
  186POPC  H11B21297   4.371   5.535   6.440
  186POPC     P21298   4.220   5.297   6.493
  186POPC   O1321299   4.183   5.320   6.633
  186POPC   O1421300   4.202   5.159   6.455
  186POPC   O1221301   4.377   5.328   6.475
  186POPC   O1121302   4.157   5.396   6.389
  186POPC    C121303   4.097   5.338   6.273
  186POPC    HA21304   3.991   5.312   6.298
  186POPC    HB21305   4.152   5.248   6.238
  186POPC    C221306   4.088   5.441   6.161
  186POPC    HS21307   4.013   5.516   6.192
  186POPC   O2121308   4.039   5.385   6.036
  186POPC   C2121309   3.906   5.348   6.031
  186POPC   O2221310   3.831   5.355   6.125
  186POPC   C2221311   3.869   5.283   5.891
  186POPC   H2R21312   3.764   5.249   5.898
  186POPC   H2S21313   3.941   5.199   5.894
  186POPC    C321314   4.226   5.513   6.138
  186POPC    HX21315   4.289   5.452   6.070
  186POPC    HY21316   4.276   5.523   6.237
  186POPC   O3121317   4.213   5.645   6.076
  186POPC   C3121318   4.325   5.714   6.083
  186POPC   O3221319   4.427   5.676   6.136
  186POPC   C3221320   4.304   5.852   6.022
  186POPC   H2X21321   4.365   5.914   6.092
  186POPC   H2Y21322   4.197   5.878   6.030
  186POPC   C2321323   3.901   5.375   5.773
  186POPC   H3R21324   4.007   5.407   5.784
  186POPC   H3S21325   3.837   5.466   5.779
  186POPC   C2421326   3.879   5.315   5.637
  186POPC   H4R21327   3.773   5.283   5.624
  186POPC   H4S21328   3.950   5.231   5.622
  186POPC   C2521329   3.897   5.415   5.515
  186POPC   H5R21330   3.998   5.461   5.524
  186POPC   H5S21331   3.823   5.497   5.525
  186POPC   C2621332   3.878   5.358   5.377
  186POPC   H6R21333   3.772   5.327   5.366
  186POPC   H6S21334   3.942   5.268   5.361
  186POPC   C2721335   3.931   5.453   5.266
  186POPC   H7R21336   4.036   5.479   5.292
  186POPC   H7S21337   3.872   5.548   5.266
  186POPC   C2821338   3.925   5.385   5.131
  186POPC   H8R21339   3.997   5.300   5.137
  186POPC   H8S21340   3.958   5.450   5.048
  186POPC   C2921341   3.793   5.328   5.085
  186POPC   H9121342   3.707   5.346   5.152
  186POPC  C21021343   3.785   5.274   4.960
  186POPC  H10121344   3.690   5.237   4.918
  186POPC  C21121345   3.905   5.251   4.868
  186POPC  H11R21346   3.948   5.148   4.874
  186POPC  H11S21347   3.994   5.317   4.883
  186POPC  C21221348   3.855   5.261   4.724
  186POPC  H12R21349   3.762   5.213   4.687
  186POPC  H12S21350   3.940   5.223   4.662
  186POPC  C21321351   3.831   5.409   4.683
  186POPC  H13R21352   3.924   5.468   4.694
  186POPC  H13S21353   3.753   5.454   4.748
  186POPC  C21421354   3.787   5.420   4.536
  186POPC  H14R21355   3.699   5.355   4.522
  186POPC  H14S21356   3.867   5.386   4.467
  186POPC  C21521357   3.754   5.566   4.493
  186POPC  H15R21358   3.850   5.618   4.515
  186POPC  H15S21359   3.669   5.608   4.552
  186POPC  C21621360   3.703   5.567   4.349
  186POPC  H16R21361   3.674   5.669   4.317
  186POPC  H16S21362   3.614   5.502   4.345
  186POPC  C21721363   3.802   5.514   4.246
  186POPC  H17R21364   3.756   5.533   4.146
  186POPC  H17S21365   3.818   5.404   4.246
  186POPC  C21821366   3.945   5.570   4.248
  186POPC  H18R21367   4.002   5.551   4.154
  186POPC  H18S21368   4.009   5.545   4.335
  186POPC  H18T21369   3.947   5.680   4.258
  186POPC   C3321370   4.345   5.873   5.870
  186POPC   H3X21371   4.456   5.871   5.868
  186POPC   H3Y21372   4.306   5.971   5.837
  186POPC   C3421373   4.279   5.764   5.779
  186POPC   H4X21374   4.173   5.752   5.808
  186POPC   H4Y21375   4.335   5.674   5.811
  186POPC   C3521376   4.273   5.794   5.630
  186POPC   H5X21377   4.374   5.822   5.592
  186POPC   H5Y21378   4.192   5.867   5.608
  186POPC   C3621379   4.228   5.670   5.554
  186POPC   H6X21380   4.139   5.620   5.599
  186POPC   H6Y21381   4.309   5.596   5.571
  186POPC   C3721382   4.204   5.713   5.413
  186POPC   H7X21383   4.133   5.798   5.417
  186POPC   H7Y21384   4.149   5.646   5.344
  186POPC   C3821385   4.322   5.772   5.330
  186POPC   H8X21386   4.413   5.715   5.359
  186POPC   H8Y21387   4.333   5.879   5.359
  186POPC   C3921388   4.320   5.765   5.171
  186POPC   H9X21389   4.403   5.826   5.130
  186POPC   H9Y21390   4.227   5.816   5.140
  186POPC  C31021391   4.325   5.626   5.108
  186POPC  H10X21392   4.249   5.555   5.147
  186POPC  H10Y21393   4.418   5.573   5.136
  186POPC  C31121394   4.314   5.617   4.957
  186POPC  H11X21395   4.378   5.698   4.915
  186POPC  H11Y21396   4.206   5.628   4.934
  186POPC  C31221397   4.359   5.481   4.907
  186POPC  H12X21398   4.288   5.405   4.947
  186POPC  H12Y21399   4.461   5.473   4.951
  186POPC  C31321400   4.364   5.466   4.750
  186POPC  H13X21401   4.433   5.381   4.732
  186POPC  H13Y21402   4.405   5.560   4.705
  186POPC  C31421403   4.225   5.433   4.697
  186POPC  H14X21404   4.159   5.519   4.720
  186POPC  H14Y21405   4.186   5.344   4.750
  186POPC  C31521406   4.219   5.411   4.547
  186POPC  H15X21407   4.111   5.387   4.532
  186POPC  H15Y21408   4.282   5.326   4.513
  186POPC  C31621409   4.267   5.533   4.463
  186POPC  H16X21410   4.376   5.549   4.473
  186POPC  H16Y21411   4.210   5.624   4.490
  186POPC  H16Z21412   4.252   5.522   4.353
  187POPC     N21413   5.831   4.738   2.270
  187POPC   C1221414   5.757   4.841   2.189
  187POPC  H12A21415   5.660   4.843   2.237
  187POPC  H12B21416   5.744   4.806   2.088
  187POPC   C1321417   5.787   4.602   2.232
  187POPC  H13A21418   5.841   4.528   2.289
  187POPC  H13B21419   5.681   4.594   2.245
  187POPC  H13C21420   5.820   4.584   2.130
  187POPC   C1421421   5.974   4.737   2.245
  187POPC  H14A21422   6.016   4.658   2.306
  187POPC  H14B21423   6.007   4.723   2.144
  187POPC  H14C21424   6.026   4.827   2.277
  187POPC   C1521425   5.817   4.754   2.415
  187POPC  H15A21426   5.841   4.856   2.443
  187POPC  H15B21427   5.890   4.692   2.465
  187POPC  H15C21428   5.718   4.724   2.446
  187POPC   C1121429   5.816   4.990   2.185
  187POPC  H11A21430   5.758   5.059   2.120
  187POPC  H11B21431   5.921   4.987   2.150
  187POPC     P21432   5.695   5.113   2.375
  187POPC   O1321433   5.586   5.017   2.363
  187POPC   O1421434   5.678   5.233   2.288
  187POPC   O1221435   5.829   5.040   2.321
  187POPC   O1121436   5.716   5.151   2.522
  187POPC    C121437   5.835   5.120   2.595
  187POPC    HA21438   5.930   5.159   2.552
  187POPC    HB21439   5.851   5.011   2.610
  187POPC    C221440   5.816   5.172   2.741
  187POPC    HS21441   5.911   5.159   2.798
  187POPC   O2121442   5.711   5.098   2.807
  187POPC   C2121443   5.740   5.021   2.912
  187POPC   O2221444   5.853   4.994   2.948
  187POPC   C2221445   5.618   4.989   2.987
  187POPC   H2R21446   5.588   4.887   2.952
  187POPC   H2S21447   5.540   5.063   2.961
  187POPC    C321448   5.794   5.325   2.756
  187POPC    HX21449   5.720   5.362   2.682
  187POPC    HY21450   5.891   5.370   2.726
  187POPC   O3121451   5.756   5.357   2.892
  187POPC   C3121452   5.853   5.372   2.977
  187POPC   O3221453   5.972   5.348   2.965
  187POPC   C3221454   5.791   5.431   3.102
  187POPC   H2X21455   5.686   5.396   3.110
  187POPC   H2Y21456   5.795   5.541   3.093
  187POPC   C2321457   5.643   4.989   3.140
  187POPC   H3R21458   5.663   5.093   3.175
  187POPC   H3S21459   5.727   4.923   3.169
  187POPC   C2421460   5.523   4.924   3.214
  187POPC   H4R21461   5.489   4.825   3.177
  187POPC   H4S21462   5.438   4.990   3.185
  187POPC   C2521463   5.538   4.921   3.364
  187POPC   H5R21464   5.644   4.906   3.393
  187POPC   H5S21465   5.484   4.837   3.414
  187POPC   C2621466   5.490   5.053   3.421
  187POPC   H6R21467   5.381   5.073   3.414
  187POPC   H6S21468   5.546   5.142   3.384
  187POPC   C2721469   5.520   5.046   3.572
  187POPC   H7R21470   5.626   5.013   3.584
  187POPC   H7S21471   5.452   4.973   3.621
  187POPC   C2821472   5.510   5.178   3.652
  187POPC   H8R21473   5.530   5.159   3.759
  187POPC   H8S21474   5.405   5.210   3.637
  187POPC   C2921475   5.612   5.278   3.604
  187POPC   H9121476   5.695   5.244   3.539
  187POPC  C21021477   5.604   5.407   3.624
  187POPC  H10121478   5.691   5.468   3.593
  187POPC  C21121479   5.491   5.482   3.684
  187POPC  H11R21480   5.397   5.427   3.705
  187POPC  H11S21481   5.476   5.562   3.609
  187POPC  C21221482   5.533   5.533   3.827
  187POPC  H12R21483   5.640   5.562   3.820
  187POPC  H12S21484   5.522   5.458   3.908
  187POPC  C21321485   5.448   5.654   3.869
  187POPC  H13R21486   5.433   5.731   3.790
  187POPC  H13S21487   5.499   5.710   3.950
  187POPC  C21421488   5.306   5.608   3.905
  187POPC  H14R21489   5.303   5.517   3.968
  187POPC  H14S21490   5.261   5.566   3.813
  187POPC  C21521491   5.210   5.716   3.949
  187POPC  H15R21492   5.105   5.679   3.953
  187POPC  H15S21493   5.210   5.802   3.879
  187POPC  C21621494   5.246   5.761   4.088
  187POPC  H16R21495   5.347   5.807   4.099
  187POPC  H16S21496   5.255   5.684   4.167
  187POPC  C21721497   5.143   5.851   4.154
  187POPC  H17R21498   5.196   5.913   4.229
  187POPC  H17S21499   5.063   5.792   4.203
  187POPC  C21821500   5.072   5.955   4.064
  187POPC  H18R21501   4.989   6.002   4.120
  187POPC  H18S21502   5.038   5.901   3.974
  187POPC  H18T21503   5.159   6.018   4.034
  187POPC   C3321504   5.862   5.391   3.235
  187POPC   H3X21505   5.887   5.283   3.230
  187POPC   H3Y21506   5.794   5.409   3.321
  187POPC   C3421507   5.976   5.481   3.265
  187POPC   H4X21508   5.937   5.584   3.281
  187POPC   H4Y21509   6.034   5.497   3.172
  187POPC   C3521510   6.056   5.420   3.386
  187POPC   H5X21511   6.155   5.467   3.402
  187POPC   H5Y21512   6.082   5.316   3.357
  187POPC   C3621513   5.983   5.438   3.521
  187POPC   H6X21514   5.895   5.371   3.507
  187POPC   H6Y21515   5.937   5.539   3.529
  187POPC   C3721516   6.074   5.401   3.640
  187POPC   H7X21517   6.159   5.473   3.636
  187POPC   H7Y21518   6.109   5.296   3.629
  187POPC   C3821519   5.994   5.403   3.772
  187POPC   H8X21520   5.920   5.320   3.780
  187POPC   H8Y21521   5.949   5.503   3.789
  187POPC   C3921522   6.091   5.378   3.891
  187POPC   H9X21523   6.180   5.444   3.877
  187POPC   H9Y21524   6.137   5.278   3.876
  187POPC  C31021525   6.025   5.393   4.029
  187POPC  H10X21526   5.947   5.321   4.061
  187POPC  H10Y21527   5.984   5.495   4.037
  187POPC  C31121528   6.127   5.388   4.146
  187POPC  H11X21529   6.214   5.449   4.114
  187POPC  H11Y21530   6.172   5.288   4.161
  187POPC  C31221531   6.078   5.459   4.268
  187POPC  H12X21532   6.046   5.564   4.251
  187POPC  H12Y21533   6.161   5.464   4.342
  187POPC  C31321534   5.979   5.389   4.358
  187POPC  H13X21535   6.033   5.297   4.390
  187POPC  H13Y21536   5.883   5.365   4.309
  187POPC  C31421537   5.943   5.458   4.488
  187POPC  H14X21538   5.910   5.562   4.466
  187POPC  H14Y21539   6.036   5.466   4.549
  187POPC  C31521540   5.825   5.400   4.565
  187POPC  H15X21541   5.738   5.389   4.496
  187POPC  H15Y21542   5.774   5.466   4.638
  187POPC  C31621543   5.846   5.270   4.648
  187POPC  H16X21544   5.862   5.183   4.581
  187POPC  H16Y21545   5.781   5.252   4.736
  187POPC  H16Z21546   5.945   5.279   4.697
  188POPC     N21547   4.864   5.467   1.958
  188POPC   C1221548   4.873   5.459   2.115
  188POPC  H12A21549   4.832   5.366   2.150
  188POPC  H12B21550   4.818   5.541   2.158
  188POPC   C1321551   4.899   5.333   1.898
  188POPC  H13A21552   4.910   5.349   1.792
  188POPC  H13B21553   4.990   5.294   1.941
  188POPC  H13C21554   4.809   5.274   1.914
  188POPC   C1421555   4.719   5.500   1.929
  188POPC  H14A21556   4.673   5.586   1.975
  188POPC  H14B21557   4.709   5.516   1.823
  188POPC  H14C21558   4.656   5.416   1.957
  188POPC   C1521559   4.949   5.576   1.905
  188POPC  H15A21560   4.944   5.604   1.801
  188POPC  H15B21561   5.052   5.563   1.937
  188POPC  H15C21562   4.924   5.667   1.958
  188POPC   C1121563   5.014   5.437   2.185
  188POPC  H11A21564   4.994   5.447   2.294
  188POPC  H11B21565   5.079   5.519   2.145
  188POPC     P21566   5.210   5.266   2.149
  188POPC   O1321567   5.289   5.314   2.029
  188POPC   O1421568   5.208   5.122   2.175
  188POPC   O1221569   5.062   5.312   2.147
  188POPC   O1121570   5.264   5.328   2.283
  188POPC    C121571   5.304   5.254   2.407
  188POPC    HA21572   5.402   5.291   2.444
  188POPC    HB21573   5.308   5.144   2.394
  188POPC    C221574   5.196   5.290   2.514
  188POPC    HS21575   5.235   5.248   2.610
  188POPC   O2121576   5.060   5.235   2.477
  188POPC   C2121577   5.049   5.103   2.471
  188POPC   O2221578   5.133   5.019   2.494
  188POPC   C2221579   4.905   5.074   2.430
  188POPC   H2R21580   4.884   5.093   2.322
  188POPC   H2S21581   4.836   5.145   2.481
  188POPC    C321582   5.177   5.440   2.527
  188POPC    HX21583   5.101   5.472   2.453
  188POPC    HY21584   5.273   5.489   2.502
  188POPC   O3121585   5.143   5.470   2.665
  188POPC   C3121586   5.027   5.527   2.697
  188POPC   O3221587   4.940   5.562   2.624
  188POPC   C3221588   5.032   5.549   2.854
  188POPC   H2X21589   5.103   5.634   2.867
  188POPC   H2Y21590   5.075   5.456   2.897
  188POPC   C2321591   4.874   4.927   2.474
  188POPC   H3R21592   4.915   4.908   2.575
  188POPC   H3S21593   4.917   4.849   2.407
  188POPC   C2421594   4.725   4.906   2.490
  188POPC   H4R21595   4.680   4.937   2.393
  188POPC   H4S21596   4.708   4.977   2.574
  188POPC   C2521597   4.683   4.766   2.523
  188POPC   H5R21598   4.750   4.740   2.608
  188POPC   H5S21599   4.709   4.697   2.440
  188POPC   C2621600   4.541   4.746   2.566
  188POPC   H6R21601   4.540   4.638   2.589
  188POPC   H6S21602   4.482   4.757   2.472
  188POPC   C2721603   4.488   4.831   2.686
  188POPC   H7R21604   4.384   4.802   2.715
  188POPC   H7S21605   4.482   4.939   2.661
  188POPC   C2821606   4.577   4.814   2.815
  188POPC   H8R21607   4.675   4.863   2.800
  188POPC   H8S21608   4.594   4.704   2.820
  188POPC   C2921609   4.514   4.873   2.941
  188POPC   H9121610   4.439   4.948   2.912
  188POPC  C21021611   4.507   4.832   3.068
  188POPC  H10121612   4.470   4.881   3.159
  188POPC  C21121613   4.592   4.713   3.112
  188POPC  H11R21614   4.621   4.651   3.025
  188POPC  H11S21615   4.539   4.642   3.178
  188POPC  C21221616   4.722   4.757   3.188
  188POPC  H12R21617   4.800   4.775   3.110
  188POPC  H12S21618   4.765   4.673   3.246
  188POPC  C21321619   4.706   4.863   3.299
  188POPC  H13R21620   4.613   4.841   3.355
  188POPC  H13S21621   4.687   4.963   3.253
  188POPC  C21421622   4.833   4.877   3.395
  188POPC  H14R21623   4.817   4.960   3.467
  188POPC  H14S21624   4.914   4.908   3.327
  188POPC  C21521625   4.854   4.742   3.466
  188POPC  H15R21626   4.899   4.669   3.394
  188POPC  H15S21627   4.757   4.696   3.492
  188POPC  C21621628   4.933   4.743   3.597
  188POPC  H16R21629   4.936   4.639   3.635
  188POPC  H16S21630   4.888   4.801   3.681
  188POPC  C21721631   5.083   4.789   3.575
  188POPC  H17R21632   5.094   4.889   3.527
  188POPC  H17S21633   5.131   4.718   3.505
  188POPC  C21821634   5.174   4.779   3.703
  188POPC  H18R21635   5.131   4.847   3.780
  188POPC  H18S21636   5.280   4.799   3.677
  188POPC  H18T21637   5.149   4.676   3.737
  188POPC   C3321638   4.893   5.580   2.919
  188POPC   H3X21639   4.914   5.574   3.028
  188POPC   H3Y21640   4.819   5.499   2.901
  188POPC   C3421641   4.835   5.715   2.875
  188POPC   H4X21642   4.803   5.720   2.769
  188POPC   H4Y21643   4.907   5.797   2.893
  188POPC   C3521644   4.711   5.743   2.956
  188POPC   H5X21645   4.640   5.664   2.924
  188POPC   H5Y21646   4.667   5.843   2.933
  188POPC   C3621647   4.718   5.733   3.109
  188POPC   H6X21648   4.728   5.625   3.131
  188POPC   H6Y21649   4.627   5.775   3.156
  188POPC   C3721650   4.831   5.815   3.173
  188POPC   H7X21651   4.819   5.924   3.156
  188POPC   H7Y21652   4.918   5.776   3.116
  188POPC   C3821653   4.846   5.804   3.328
  188POPC   H8X21654   4.739   5.799   3.359
  188POPC   H8Y21655   4.894   5.894   3.371
  188POPC   C3921656   4.935   5.682   3.359
  188POPC   H9X21657   5.036   5.699   3.318
  188POPC   H9Y21658   4.898   5.594   3.303
  188POPC  C31021659   4.936   5.646   3.506
  188POPC  H10X21660   4.989   5.725   3.562
  188POPC  H10Y21661   4.989   5.548   3.512
  188POPC  C31121662   4.801   5.642   3.574
  188POPC  H11X21663   4.733   5.587   3.506
  188POPC  H11Y21664   4.766   5.745   3.593
  188POPC  C31221665   4.804   5.559   3.704
  188POPC  H12X21666   4.890   5.599   3.763
  188POPC  H12Y21667   4.835   5.456   3.679
  188POPC  C31321668   4.679   5.574   3.795
  188POPC  H13X21669   4.591   5.568   3.728
  188POPC  H13Y21670   4.658   5.673   3.843
  188POPC  C31421671   4.671   5.468   3.904
  188POPC  H14X21672   4.744   5.510   3.977
  188POPC  H14Y21673   4.708   5.367   3.875
  188POPC  C31521674   4.544   5.444   3.982
  188POPC  H15X21675   4.472   5.409   3.905
  188POPC  H15Y21676   4.511   5.535   4.037
  188POPC  C31621677   4.545   5.328   4.082
  188POPC  H16X21678   4.468   5.332   4.161
  188POPC  H16Y21679   4.644   5.328   4.133
  188POPC  H16Z21680   4.531   5.232   4.028
  189SAPI   C1221681   2.109   4.858   6.701
  189SAPI    H221682   2.087   4.922   6.613
  189SAPI    O221683   2.033   4.891   6.820
  189SAPI   HO221684   1.980   4.970   6.806
  189SAPI   C1321685   2.071   4.722   6.643
  189SAPI    H321686   2.137   4.702   6.556
  189SAPI    O321687   1.937   4.719   6.601
  189SAPI   HO321688   1.916   4.774   6.525
  189SAPI   C1421689   2.090   4.613   6.746
  189SAPI    H421690   2.008   4.627   6.821
  189SAPI    O421691   2.071   4.482   6.690
  189SAPI   HO421692   2.140   4.471   6.624
  189SAPI   C1521693   2.226   4.609   6.807
  189SAPI    H521694   2.295   4.554   6.740
  189SAPI    O521695   2.211   4.530   6.921
  189SAPI   HO521696   2.181   4.444   6.893
  189SAPI   C1621697   2.288   4.744   6.838
  189SAPI    H621698   2.262   4.770   6.942
  189SAPI    O621699   2.432   4.728   6.841
  189SAPI   HO621700   2.476   4.807   6.808
  189SAPI   C1121701   2.257   4.854   6.733
  189SAPI    H121702   2.305   4.829   6.636
  189SAPI     P21703   2.426   5.052   6.726
  189SAPI   O1321704   2.535   4.954   6.745
  189SAPI   O1421705   2.432   5.182   6.799
  189SAPI   O1221706   2.291   4.981   6.780
  189SAPI   O1121707   2.394   5.076   6.570
  189SAPI    C121708   2.267   5.103   6.515
  189SAPI    HA21709   2.233   5.010   6.466
  189SAPI    HB21710   2.200   5.135   6.597
  189SAPI    C221711   2.285   5.219   6.407
  189SAPI    HS21712   2.183   5.251   6.378
  189SAPI   O2121713   2.348   5.167   6.288
  189SAPI   C2121714   2.263   5.091   6.216
  189SAPI   O2221715   2.146   5.069   6.242
  189SAPI   C2221716   2.338   5.032   6.100
  189SAPI   H2R21717   2.427   4.977   6.137
  189SAPI   H2S21718   2.275   4.957   6.049
  189SAPI    C321719   2.361   5.345   6.464
  189SAPI    HX21720   2.467   5.323   6.490
  189SAPI    HY21721   2.318   5.376   6.562
  189SAPI   O3121722   2.347   5.455   6.363
  189SAPI   C3121723   2.414   5.561   6.399
  189SAPI   O3221724   2.492   5.567   6.495
  189SAPI   C3221725   2.382   5.675   6.312
  189SAPI   H2X21726   2.278   5.668   6.275
  189SAPI   H2Y21727   2.446   5.664   6.222
  189SAPI   C2321728   2.395   5.137   6.009
  189SAPI   H3R21729   2.457   5.091   5.929
  189SAPI   H3S21730   2.445   5.214   6.072
  189SAPI   C2421731   2.282   5.208   5.929
  189SAPI   H4R21732   2.197   5.233   5.997
  189SAPI   H4S21733   2.247   5.140   5.848
  189SAPI   C2521734   2.335   5.340   5.872
  189SAPI   H5R21735   2.436   5.377   5.895
  189SAPI   C2621736   2.278   5.415   5.774
  189SAPI   H6R21737   2.342   5.497   5.740
  189SAPI   C2721738   2.149   5.385   5.697
  189SAPI   H7R21739   2.127   5.478   5.641
  189SAPI   H7S21740   2.063   5.366   5.766
  189SAPI   C2821741   2.162   5.263   5.604
  189SAPI   H8R21742   2.133   5.168   5.651
  189SAPI   C2921743   2.227   5.254   5.489
  189SAPI   H9R21744   2.244   5.153   5.449
  189SAPI  C21021745   2.298   5.369   5.418
  189SAPI  H10R21746   2.258   5.465   5.455
  189SAPI  H10S21747   2.277   5.364   5.309
  189SAPI  C21121748   2.449   5.369   5.442
  189SAPI  H11R21749   2.484   5.427   5.529
  189SAPI  C21221750   2.538   5.328   5.350
  189SAPI  H12R21751   2.644   5.331   5.381
  189SAPI  C21321752   2.516   5.254   5.218
  189SAPI  H13R21753   2.541   5.321   5.133
  189SAPI  H13S21754   2.410   5.229   5.198
  189SAPI  C21421755   2.605   5.135   5.218
  189SAPI  H14R21756   2.554   5.040   5.239
  189SAPI  C21521757   2.736   5.133   5.188
  189SAPI  H15R21758   2.785   5.035   5.199
  189SAPI  C21621759   2.825   5.246   5.138
  189SAPI  H16R21760   2.905   5.258   5.214
  189SAPI  H16S21761   2.771   5.342   5.129
  189SAPI  C21721762   2.862   5.212   4.998
  189SAPI  H17R21763   2.762   5.208   4.950
  189SAPI  H17S21764   2.910   5.113   4.983
  189SAPI  C21821765   2.957   5.318   4.933
  189SAPI  H18R21766   3.060   5.316   4.975
  189SAPI  H18S21767   2.914   5.417   4.960
  189SAPI  C21921768   2.962   5.302   4.781
  189SAPI  H19R21769   2.860   5.287   4.741
  189SAPI  H19S21770   3.004   5.201   4.759
  189SAPI  C22021771   3.042   5.411   4.715
  189SAPI  H20R21772   3.029   5.410   4.605
  189SAPI  H20S21773   3.150   5.395   4.737
  189SAPI  H20T21774   3.008   5.512   4.747
  189SAPI   C3321775   2.387   5.815   6.369
  189SAPI   H3X21776   2.491   5.838   6.403
  189SAPI   H3Y21777   2.317   5.819   6.455
  189SAPI   C3421778   2.346   5.918   6.259
  189SAPI   H4X21779   2.329   6.013   6.315
  189SAPI   H4Y21780   2.255   5.884   6.205
  189SAPI   C3521781   2.447   5.944   6.152
  189SAPI   H5X21782   2.475   5.853   6.095
  189SAPI   H5Y21783   2.536   5.986   6.203
  189SAPI   C3621784   2.406   6.072   6.061
  189SAPI   H6X21785   2.390   6.169   6.112
  189SAPI   H6Y21786   2.305   6.045   6.023
  189SAPI   C3721787   2.502   6.081   5.943
  189SAPI   H7X21788   2.602   6.047   5.975
  189SAPI   H7Y21789   2.519   6.188   5.916
  189SAPI   C3821790   2.452   6.008   5.814
  189SAPI   H8X21791   2.517   6.051   5.735
  189SAPI   H8Y21792   2.349   6.035   5.781
  189SAPI   C3921793   2.483   5.853   5.799
  189SAPI   H9X21794   2.428   5.803   5.882
  189SAPI   H9Y21795   2.589   5.827   5.817
  189SAPI  C31021796   2.441   5.788   5.671
  189SAPI  H10X21797   2.331   5.802   5.664
  189SAPI  H10Y21798   2.451   5.678   5.683
  189SAPI  C31121799   2.522   5.827   5.544
  189SAPI  H11X21800   2.631   5.810   5.562
  189SAPI  H11Y21801   2.518   5.937   5.529
  189SAPI  C31221802   2.472   5.751   5.422
  189SAPI  H12X21803   2.368   5.785   5.400
  189SAPI  H12Y21804   2.467   5.641   5.437
  189SAPI  C31321805   2.558   5.778   5.294
  189SAPI  H13X21806   2.662   5.753   5.323
  189SAPI  H13Y21807   2.550   5.886   5.269
  189SAPI  C31421808   2.507   5.709   5.163
  189SAPI  H14X21809   2.419   5.767   5.128
  189SAPI  H14Y21810   2.466   5.606   5.173
  189SAPI  C31521811   2.619   5.715   5.060
  189SAPI  H15X21812   2.699   5.651   5.104
  189SAPI  H15Y21813   2.651   5.821   5.049
  189SAPI  C31621814   2.578   5.650   4.931
  189SAPI  H16X21815   2.516   5.723   4.875
  189SAPI  H16Y21816   2.519   5.558   4.950
  189SAPI  C31721817   2.697   5.631   4.824
  189SAPI  H17X21818   2.642   5.604   4.732
  189SAPI  H17Y21819   2.766   5.556   4.869
  189SAPI  C31821820   2.784   5.755   4.804
  189SAPI  H18X21821   2.727   5.850   4.798
  189SAPI  H18Y21822   2.837   5.742   4.707
  189SAPI  H18Z21823   2.859   5.768   4.885
  190SAPI   C1221824   0.779   3.443   6.871
  190SAPI    H221825   0.683   3.387   6.881
  190SAPI    O221826   0.762   3.577   6.828
  190SAPI   HO221827   0.683   3.574   6.774
  190SAPI   C1321828   0.857   3.439   6.995
  190SAPI    H321829   0.873   3.332   7.022
  190SAPI    O321830   0.780   3.495   7.101
  190SAPI   HO321831   0.772   3.588   7.081
  190SAPI   C1421832   0.992   3.505   6.968
  190SAPI    H421833   0.978   3.612   6.941
  190SAPI    O421834   1.068   3.507   7.089
  190SAPI   HO421835   1.084   3.595   7.125
  190SAPI   C1521836   1.070   3.429   6.858
  190SAPI    H521837   1.100   3.331   6.900
  190SAPI    O521838   1.188   3.497   6.832
  190SAPI   HO521839   1.254   3.470   6.897
  190SAPI   C1621840   0.991   3.394   6.732
  190SAPI    H621841   1.011   3.482   6.667
  190SAPI    O621842   1.054   3.287   6.663
  190SAPI   HO621843   1.025   3.300   6.572
  190SAPI   C1121844   0.846   3.360   6.760
  190SAPI    H121845   0.836   3.260   6.806
  190SAPI     P21846   0.660   3.254   6.589
  190SAPI   O1321847   0.572   3.321   6.489
  190SAPI   O1421848   0.588   3.189   6.699
  190SAPI   O1221849   0.775   3.368   6.639
  190SAPI   O1121850   0.751   3.146   6.500
  190SAPI    C121851   0.780   3.020   6.571
  190SAPI    HA21852   0.811   3.036   6.676
  190SAPI    HB21853   0.687   2.960   6.578
  190SAPI    C221854   0.887   2.940   6.490
  190SAPI    HS21855   0.969   3.012   6.470
  190SAPI   O2121856   0.818   2.906   6.371
  190SAPI   C2121857   0.899   2.905   6.265
  190SAPI   O2221858   1.009   2.951   6.250
  190SAPI   C2221859   0.821   2.821   6.163
  190SAPI   H2R21860   0.739   2.766   6.213
  190SAPI   H2S21861   0.772   2.903   6.107
  190SAPI    C321862   0.926   2.811   6.572
  190SAPI    HX21863   0.844   2.741   6.597
  190SAPI    HY21864   0.962   2.847   6.671
  190SAPI   O3121865   1.038   2.737   6.514
  190SAPI   C3121866   1.010   2.631   6.432
  190SAPI   O3221867   0.899   2.580   6.422
  190SAPI   C3221868   1.144   2.578   6.391
  190SAPI   H2X21869   1.209   2.548   6.476
  190SAPI   H2Y21870   1.198   2.656   6.333
  190SAPI   C2321871   0.918   2.745   6.065
  190SAPI   H3R21872   0.940   2.640   6.094
  190SAPI   H3S21873   1.013   2.802   6.063
  190SAPI   C2421874   0.859   2.743   5.922
  190SAPI   H4R21875   0.856   2.849   5.890
  190SAPI   H4S21876   0.756   2.703   5.922
  190SAPI   C2521877   0.952   2.663   5.830
  190SAPI   H5R21878   0.934   2.554   5.833
  190SAPI   C2621879   1.026   2.710   5.730
  190SAPI   H6R21880   1.078   2.640   5.663
  190SAPI   C2721881   1.055   2.852   5.704
  190SAPI   H7R21882   1.164   2.865   5.685
  190SAPI   H7S21883   1.046   2.906   5.801
  190SAPI   C2821884   0.975   2.915   5.595
  190SAPI   H8R21885   0.889   2.977   5.626
  190SAPI   C2921886   1.015   2.921   5.467
  190SAPI   H9R21887   0.952   2.977   5.396
  190SAPI  C21021888   1.127   2.855   5.401
  190SAPI  H10R21889   1.192   2.817   5.483
  190SAPI  H10S21890   1.202   2.923   5.354
  190SAPI  C21121891   1.085   2.736   5.315
  190SAPI  H11R21892   1.039   2.648   5.364
  190SAPI  C21221893   1.094   2.740   5.175
  190SAPI  H12R21894   1.080   2.641   5.128
  190SAPI  C21321895   1.150   2.852   5.087
  190SAPI  H13R21896   1.155   2.947   5.144
  190SAPI  H13S21897   1.078   2.883   5.009
  190SAPI  C21421898   1.274   2.802   5.019
  190SAPI  H14R21899   1.356   2.793   5.092
  190SAPI  C21521900   1.287   2.765   4.891
  190SAPI  H15R21901   1.378   2.713   4.857
  190SAPI  C21621902   1.180   2.766   4.784
  190SAPI  H16R21903   1.189   2.861   4.727
  190SAPI  H16S21904   1.078   2.758   4.828
  190SAPI  C21721905   1.209   2.659   4.677
  190SAPI  H17R21906   1.122   2.663   4.607
  190SAPI  H17S21907   1.209   2.557   4.721
  190SAPI  C21821908   1.338   2.693   4.606
  190SAPI  H18R21909   1.431   2.668   4.663
  190SAPI  H18S21910   1.343   2.802   4.587
  190SAPI  C21921911   1.339   2.618   4.472
  190SAPI  H19R21912   1.241   2.625   4.421
  190SAPI  H19S21913   1.373   2.513   4.483
  190SAPI  C22021914   1.456   2.675   4.384
  190SAPI  H20R21915   1.446   2.624   4.286
  190SAPI  H20S21916   1.553   2.665   4.438
  190SAPI  H20T21917   1.438   2.783   4.370
  190SAPI   C3321918   1.126   2.458   6.291
  190SAPI   H3X21919   1.079   2.500   6.200
  190SAPI   H3Y21920   1.078   2.369   6.339
  190SAPI   C3421921   1.263   2.403   6.255
  190SAPI   H4X21922   1.290   2.354   6.351
  190SAPI   H4Y21923   1.326   2.489   6.227
  190SAPI   C3521924   1.272   2.305   6.139
  190SAPI   H5X21925   1.213   2.211   6.145
  190SAPI   H5Y21926   1.375   2.265   6.143
  190SAPI   C3621927   1.249   2.361   5.998
  190SAPI   H6X21928   1.323   2.440   5.974
  190SAPI   H6Y21929   1.147   2.406   6.006
  190SAPI   C3721930   1.252   2.270   5.879
  190SAPI   H7X21931   1.164   2.202   5.879
  190SAPI   H7Y21932   1.345   2.209   5.883
  190SAPI   C3821933   1.252   2.357   5.748
  190SAPI   H8X21934   1.344   2.418   5.744
  190SAPI   H8Y21935   1.159   2.417   5.759
  190SAPI   C3921936   1.245   2.278   5.614
  190SAPI   H9X21937   1.186   2.185   5.632
  190SAPI   H9Y21938   1.354   2.259   5.606
  190SAPI  C31021939   1.192   2.364   5.509
  190SAPI  H10X21940   1.264   2.448   5.498
  190SAPI  H10Y21941   1.092   2.403   5.537
  190SAPI  C31121942   1.187   2.297   5.366
  190SAPI  H11X21943   1.119   2.209   5.368
  190SAPI  H11Y21944   1.289   2.262   5.339
  190SAPI  C31221945   1.131   2.384   5.252
  190SAPI  H12X21946   1.193   2.475   5.236
  190SAPI  H12Y21947   1.027   2.409   5.280
  190SAPI  C31321948   1.112   2.315   5.116
  190SAPI  H13X21949   1.040   2.371   5.052
  190SAPI  H13Y21950   1.067   2.213   5.119
  190SAPI  C31421951   1.247   2.306   5.028
  190SAPI  H14X21952   1.332   2.267   5.088
  190SAPI  H14Y21953   1.277   2.406   4.991
  190SAPI  C31521954   1.230   2.223   4.903
  190SAPI  H15X21955   1.319   2.228   4.838
  190SAPI  H15Y21956   1.154   2.284   4.849
  190SAPI  C31621957   1.185   2.076   4.911
  190SAPI  H16X21958   1.074   2.069   4.918
  190SAPI  H16Y21959   1.229   2.024   4.999
  190SAPI  C31721960   1.223   1.987   4.792
  190SAPI  H17X21961   1.209   1.884   4.831
  190SAPI  H17Y21962   1.328   1.999   4.757
  190SAPI  C31821963   1.137   2.011   4.667
  190SAPI  H18X21964   1.036   1.978   4.699
  190SAPI  H18Y21965   1.161   1.939   4.586
  190SAPI  H18Z21966   1.153   2.106   4.611
  191SAPI   C1221967   4.720   4.499   2.097
  191SAPI    H221968   4.685   4.394   2.106
  191SAPI    O221969   4.829   4.525   2.191
  191SAPI   HO221970   4.789   4.514   2.278
  191SAPI   C1321971   4.776   4.524   1.957
  191SAPI    H321972   4.690   4.503   1.888
  191SAPI    O321973   4.870   4.426   1.918
  191SAPI   HO321974   4.952   4.441   1.966
  191SAPI   C1421975   4.810   4.671   1.935
  191SAPI    H421976   4.912   4.672   1.981
  191SAPI    O421977   4.834   4.689   1.800
  191SAPI   HO421978   4.754   4.708   1.751
  191SAPI   C1521979   4.726   4.775   2.006
  191SAPI    H521980   4.644   4.808   1.938
  191SAPI    O521981   4.786   4.898   2.020
  191SAPI   HO521982   4.874   4.889   2.059
  191SAPI   C1621983   4.660   4.734   2.134
  191SAPI    H621984   4.731   4.734   2.219
  191SAPI    O621985   4.555   4.820   2.167
  191SAPI   HO621986   4.502   4.772   2.231
  191SAPI   C1121987   4.605   4.599   2.118
  191SAPI    H121988   4.545   4.611   2.025
  191SAPI     P21989   4.398   4.463   2.216
  191SAPI   O1321990   4.361   4.439   2.070
  191SAPI   O1421991   4.292   4.519   2.304
  191SAPI   O1221992   4.527   4.566   2.229
  191SAPI   O1121993   4.465   4.332   2.275
  191SAPI    C121994   4.534   4.328   2.402
  191SAPI    HA21995   4.600   4.415   2.423
  191SAPI    HB21996   4.460   4.318   2.484
  191SAPI    C221997   4.633   4.213   2.414
  191SAPI    HS21998   4.694   4.219   2.321
  191SAPI   O2121999   4.558   4.090   2.421
  191SAPI   C2122000   4.623   3.987   2.379
  191SAPI   O2222001   4.739   3.985   2.337
  191SAPI   C2222002   4.552   3.857   2.390
  191SAPI   H2R22003   4.581   3.802   2.299
  191SAPI   H2S22004   4.596   3.795   2.471
  191SAPI    C322005   4.733   4.223   2.544
  191SAPI    HX22006   4.791   4.318   2.541
  191SAPI    HY22007   4.800   4.135   2.534
  191SAPI   O3122008   4.655   4.226   2.668
  191SAPI   C3122009   4.632   4.106   2.718
  191SAPI   O3222010   4.658   4.001   2.671
  191SAPI   C3222011   4.558   4.116   2.859
  191SAPI   H2X22012   4.448   4.117   2.839
  191SAPI   H2Y22013   4.585   4.207   2.914
  191SAPI   C2322014   4.401   3.855   2.402
  191SAPI   H3R22015   4.375   3.753   2.368
  191SAPI   H3S22016   4.351   3.921   2.327
  191SAPI   C2422017   4.360   3.890   2.545
  191SAPI   H4R22018   4.353   4.001   2.549
  191SAPI   H4S22019   4.444   3.859   2.612
  191SAPI   C2522020   4.233   3.811   2.575
  191SAPI   H5R22021   4.159   3.813   2.494
  191SAPI   C2622022   4.208   3.747   2.685
  191SAPI   H6R22023   4.117   3.686   2.693
  191SAPI   C2722024   4.292   3.752   2.811
  191SAPI   H7R22025   4.227   3.774   2.899
  191SAPI   H7S22026   4.366   3.834   2.808
  191SAPI   C2822027   4.383   3.630   2.832
  191SAPI   H8R22028   4.402   3.564   2.747
  191SAPI   C2922029   4.422   3.576   2.953
  191SAPI   H9R22030   4.490   3.490   2.946
  191SAPI  C21022031   4.386   3.624   3.093
  191SAPI  H10R22032   4.335   3.722   3.090
  191SAPI  H10S22033   4.478   3.632   3.156
  191SAPI  C21122034   4.291   3.526   3.155
  191SAPI  H11R22035   4.254   3.446   3.089
  191SAPI  C21222036   4.235   3.529   3.281
  191SAPI  H12R22037   4.168   3.446   3.307
  191SAPI  C21322038   4.246   3.644   3.372
  191SAPI  H13R22039   4.162   3.642   3.445
  191SAPI  H13S22040   4.222   3.732   3.307
  191SAPI  C21422041   4.371   3.660   3.452
  191SAPI  H14R22042   4.449   3.696   3.382
  191SAPI  C21522043   4.397   3.662   3.582
  191SAPI  H15R22044   4.501   3.691   3.601
  191SAPI  C21622045   4.308   3.631   3.701
  191SAPI  H16R22046   4.348   3.543   3.756
  191SAPI  H16S22047   4.204   3.605   3.671
  191SAPI  C21722048   4.304   3.750   3.800
  191SAPI  H17R22049   4.403   3.757   3.851
  191SAPI  H17S22050   4.237   3.716   3.882
  191SAPI  C21822051   4.255   3.885   3.741
  191SAPI  H18R22052   4.155   3.875   3.693
  191SAPI  H18S22053   4.328   3.929   3.670
  191SAPI  C21922054   4.242   3.984   3.856
  191SAPI  H19R22055   4.225   4.081   3.805
  191SAPI  H19S22056   4.332   4.000   3.919
  191SAPI  C22022057   4.118   3.959   3.951
  191SAPI  H20R22058   4.133   4.020   4.042
  191SAPI  H20S22059   4.112   3.855   3.990
  191SAPI  H20T22060   4.022   3.994   3.907
  191SAPI   C3322061   4.591   3.994   2.950
  191SAPI   H3X22062   4.700   3.997   2.971
  191SAPI   H3Y22063   4.574   3.895   2.904
  191SAPI   C3422064   4.519   3.989   3.082
  191SAPI   H4X22065   4.420   3.939   3.086
  191SAPI   H4Y22066   4.507   4.099   3.092
  191SAPI   C3522067   4.603   3.923   3.190
  191SAPI   H5X22068   4.712   3.942   3.176
  191SAPI   H5Y22069   4.580   3.814   3.191
  191SAPI   C3622070   4.559   3.964   3.328
  191SAPI   H6X22071   4.465   3.918   3.365
  191SAPI   H6Y22072   4.540   4.073   3.318
  191SAPI   C3722073   4.666   3.940   3.437
  191SAPI   H7X22074   4.759   3.989   3.399
  191SAPI   H7Y22075   4.677   3.829   3.437
  191SAPI   C3822076   4.618   3.974   3.580
  191SAPI   H8X22077   4.530   3.911   3.604
  191SAPI   H8Y22078   4.572   4.074   3.596
  191SAPI   C3922079   4.723   3.942   3.692
  191SAPI   H9X22080   4.811   4.010   3.687
  191SAPI   H9Y22081   4.758   3.837   3.699
  191SAPI  C31022082   4.651   3.972   3.824
  191SAPI  H10X22083   4.554   3.918   3.831
  191SAPI  H10Y22084   4.634   4.081   3.837
  191SAPI  C31122085   4.749   3.926   3.935
  191SAPI  H11X22086   4.795   4.020   3.971
  191SAPI  H11Y22087   4.833   3.867   3.891
  191SAPI  C31222088   4.688   3.838   4.042
  191SAPI  H12X22089   4.577   3.850   4.048
  191SAPI  H12Y22090   4.737   3.859   4.139
  191SAPI  C31322091   4.706   3.685   4.014
  191SAPI  H13X22092   4.813   3.659   4.032
  191SAPI  H13Y22093   4.682   3.660   3.909
  191SAPI  C31422094   4.621   3.594   4.107
  191SAPI  H14X22095   4.651   3.607   4.213
  191SAPI  H14Y22096   4.653   3.492   4.076
  191SAPI  C31522097   4.469   3.603   4.079
  191SAPI  H15X22098   4.454   3.569   3.974
  191SAPI  H15Y22099   4.445   3.710   4.091
  191SAPI  C31622100   4.373   3.526   4.170
  191SAPI  H16X22101   4.268   3.551   4.142
  191SAPI  H16Y22102   4.397   3.551   4.275
  191SAPI  C31722103   4.383   3.370   4.171
  191SAPI  H17X22104   4.484   3.342   4.206
  191SAPI  H17Y22105   4.377   3.338   4.065
  191SAPI  C31822106   4.280   3.305   4.261
  191SAPI  H18X22107   4.177   3.342   4.242
  191SAPI  H18Y22108   4.311   3.338   4.363
  191SAPI  H18Z22109   4.281   3.195   4.254
  192SAPI   C1222110   0.141   6.670   2.423
  192SAPI    H222111   0.152   6.561   2.406
  192SAPI    O222112   0.044   6.709   2.330
  192SAPI   HO222113   0.076   6.669   2.250
  192SAPI   C1322114   0.095   6.675   2.567
  192SAPI    H322115   0.175   6.641   2.636
  192SAPI    O322116   6.803   6.582   2.596
  192SAPI   HO322117   6.731   6.596   2.533
  192SAPI   C1422118   0.077   0.011   2.607
  192SAPI    H422119   6.794   0.035   2.560
  192SAPI    O422120   0.067   0.036   2.749
  192SAPI   HO422121   6.792   0.059   2.774
  192SAPI   C1522122   0.176   0.118   2.546
  192SAPI    H522123   0.249   0.126   2.629
  192SAPI    O522124   0.111   0.247   2.539
  192SAPI   HO522125   0.033   0.248   2.596
  192SAPI   C1622126   0.256   0.077   2.420
  192SAPI    H622127   0.198   0.115   2.333
  192SAPI    O622128   0.386   0.138   2.432
  192SAPI   HO622129   0.421   0.132   2.343
  192SAPI   C1122130   0.271   6.741   2.407
  192SAPI    H122131   0.346   6.711   2.484
  192SAPI     P22132   0.418   6.570   2.254
  192SAPI   O1322133   0.509   6.601   2.138
  192SAPI   O1422134   0.319   6.456   2.243
  192SAPI   O1222135   0.329   6.708   2.278
  192SAPI   O1122136   0.505   6.560   2.389
  192SAPI    C122137   0.601   6.663   2.422
  192SAPI    HA22138   0.668   6.682   2.335
  192SAPI    HB22139   0.561   6.759   2.460
  192SAPI    C222140   0.696   6.611   2.540
  192SAPI    HS22141   0.751   6.535   2.480
  192SAPI   O2122142   0.627   6.550   2.649
  192SAPI   C2122143   0.716   6.464   2.709
  192SAPI   O2222144   0.831   6.443   2.669
  192SAPI   C2222145   0.644   6.401   2.831
  192SAPI   H2R22146   0.573   6.327   2.789
  192SAPI   H2S22147   0.727   6.355   2.889
  192SAPI    C322148   0.798   6.725   2.585
  192SAPI    HX22149   0.845   6.772   2.495
  192SAPI    HY22150   0.885   6.675   2.632
  192SAPI   O3122151   0.743   0.006   2.674
  192SAPI   C3122152   0.711   0.125   2.623
  192SAPI   O3222153   0.719   0.153   2.504
  192SAPI   C3222154   0.673   0.226   2.722
  192SAPI   H2X22155   0.702   0.327   2.687
  192SAPI   H2Y22156   0.722   0.213   2.821
  192SAPI   C2322157   0.582   6.501   2.922
  192SAPI   H3R22158   0.478   6.519   2.888
  192SAPI   H3S22159   0.637   6.597   2.923
  192SAPI   C2422160   0.579   6.448   3.068
  192SAPI   H4R22161   0.577   6.540   3.130
  192SAPI   H4S22162   0.677   6.406   3.098
  192SAPI   C2522163   0.469   6.351   3.103
  192SAPI   H5R22164   0.463   6.268   3.030
  192SAPI   C2622165   0.384   6.362   3.206
  192SAPI   H6R22166   0.306   6.286   3.218
  192SAPI   C2722167   0.383   6.481   3.304
  192SAPI   H7R22168   0.360   6.581   3.261
  192SAPI   H7S22169   0.485   6.493   3.348
  192SAPI   C2822170   0.275   6.466   3.405
  192SAPI   H8R22171   0.177   6.458   3.358
  192SAPI   C2922172   0.279   6.465   3.535
  192SAPI   H9R22173   0.182   6.461   3.586
  192SAPI  C21022174   0.397   6.476   3.628
  192SAPI  H10R22175   0.381   6.557   3.702
  192SAPI  H10S22176   0.489   6.500   3.571
  192SAPI  C21122177   0.442   6.348   3.701
  192SAPI  H11R22178   0.464   6.262   3.635
  192SAPI  C21222179   0.441   6.330   3.836
  192SAPI  H12R22180   0.474   6.234   3.877
  192SAPI  C21322181   0.389   6.422   3.943
  192SAPI  H13R22182   0.355   6.520   3.903
  192SAPI  H13S22183   0.474   6.463   4.002
  192SAPI  C21422184   0.284   6.373   4.041
  192SAPI  H14R22185   0.182   6.410   4.025
  192SAPI  C21522186   0.310   6.292   4.144
  192SAPI  H15R22187   0.219   6.258   4.196
  192SAPI  C21622188   0.446   6.244   4.187
  192SAPI  H16R22189   0.476   6.278   4.288
  192SAPI  H16S22190   0.519   6.266   4.105
  192SAPI  C21722191   0.446   6.089   4.188
  192SAPI  H17R22192   0.548   6.060   4.222
  192SAPI  H17S22193   0.439   6.051   4.084
  192SAPI  C21822194   0.345   6.004   4.259
  192SAPI  H18R22195   0.357   5.897   4.232
  192SAPI  H18S22196   0.239   6.019   4.231
  192SAPI  C21922197   0.334   6.008   4.412
  192SAPI  H19R22198   0.319   6.115   4.438
  192SAPI  H19S22199   0.434   5.986   4.456
  192SAPI  C22022200   0.226   5.920   4.478
  192SAPI  H20R22201   0.234   5.821   4.429
  192SAPI  H20S22202   0.122   5.955   4.461
  192SAPI  H20T22203   0.245   5.904   4.586
  192SAPI   C3322204   0.524   0.216   2.768
  192SAPI   H3X22205   0.466   0.190   2.677
  192SAPI   H3Y22206   0.494   0.321   2.789
  192SAPI   C3422207   0.505   0.112   2.876
  192SAPI   H4X22208   0.533   0.011   2.838
  192SAPI   H4Y22209   0.397   0.115   2.901
  192SAPI   C3522210   0.579   0.134   3.007
  192SAPI   H5X22211   0.554   0.236   3.044
  192SAPI   H5Y22212   0.688   0.120   2.996
  192SAPI   C3622213   0.522   0.053   3.122
  192SAPI   H6X22214   0.532   6.760   3.098
  192SAPI   H6Y22215   0.414   0.075   3.129
  192SAPI   C3722216   0.599   0.088   3.249
  192SAPI   H7X22217   0.581   0.197   3.264
  192SAPI   H7Y22218   0.709   0.074   3.241
  192SAPI   C3822219   0.552   0.015   3.373
  192SAPI   H8X22220   0.580   6.723   3.367
  192SAPI   H8Y22221   0.441   0.015   3.380
  192SAPI   C3922222   0.619   0.067   3.503
  192SAPI   H9X22223   0.588   0.168   3.538
  192SAPI   H9Y22224   0.727   0.085   3.480
  192SAPI  C31022225   0.582   6.792   3.622
  192SAPI  H10X22226   0.620   6.688   3.610
  192SAPI  H10Y22227   0.471   6.780   3.630
  192SAPI  C31122228   0.635   0.048   3.750
  192SAPI  H11X22229   0.582   0.145   3.741
  192SAPI  H11Y22230   0.742   0.077   3.742
  192SAPI  C31222231   0.604   6.779   3.869
  192SAPI  H12X22232   0.630   6.676   3.836
  192SAPI  H12Y22233   0.502   6.793   3.910
  192SAPI  C31322234   0.696   0.010   3.987
  192SAPI  H13X22235   0.685   0.116   4.020
  192SAPI  H13Y22236   0.801   6.805   3.958
  192SAPI  C31422237   0.679   6.728   4.117
  192SAPI  H14X22238   0.735   6.775   4.200
  192SAPI  H14Y22239   0.733   6.635   4.091
  192SAPI  C31522240   0.532   6.713   4.158
  192SAPI  H15X22241   0.473   6.679   4.070
  192SAPI  H15Y22242   0.498   0.001   4.182
  192SAPI  C31622243   0.517   6.607   4.273
  192SAPI  H16X22244   0.575   6.628   4.365
  192SAPI  H16Y22245   0.555   6.505   4.248
  192SAPI  C31722246   0.366   6.595   4.302
  192SAPI  H17X22247   0.353   6.495   4.347
  192SAPI  H17Y22248   0.309   6.592   4.206
  192SAPI  C31822249   0.314   6.706   4.393
  192SAPI  H18X22250   0.330   6.802   4.339
  192SAPI  H18Y22251   0.359   6.708   4.495
  192SAPI  H18Z22252   0.204   6.703   4.403
  193SOD    SOD22253   5.490   6.007   1.858
  194SOD    SOD22254   2.389   1.526   7.786
  195SOD    SOD22255   2.782   1.340   6.756
  196SOD    SOD22256   3.235   2.975   6.983
  197SOD    SOD22257   3.577   2.438   2.469
  198SOD    SOD22258   1.088   5.676   1.800
  199SOD    SOD22259   2.251   4.973   1.942
  200SOD    SOD22260   1.577   3.978   6.368
  201SOD    SOD22261   3.920   1.249   0.576
  202SOD    SOD22262   2.862   3.763   7.405
  203SOD    SOD22263   5.590   3.944   7.420
  204SOD    SOD22264   1.481   6.709   6.620
  205SOD    SOD22265   5.169   4.627   0.750
  206SOD    SOD22266   5.921   3.548   6.858
  207SOD    SOD22267   3.880   0.404   6.821
  208SOD    SOD22268   4.622   0.972   2.357
  209SOD    SOD22269   0.427   4.179   8.128
  210SOD    SOD22270   6.673   5.737   0.440
  211SOD    SOD22271   4.094   6.434   7.715
  212SOD    SOD22272   5.175   3.920   1.454
  213SOD    SOD22273   6.692   1.058   0.294
  214SOD    SOD22274   3.444   6.715   1.276
  215SOD    SOD22275   5.976   2.473   7.611
  216SOD    SOD22276   1.205   5.261   6.573
  217SOD    SOD22277   0.894   6.495   1.306
  218SOD    SOD22278   0.974   3.806   1.767
  219SOD    SOD22279   1.244   6.300   7.921
  220SOD    SOD22280   5.136   0.430   7.396
  221SOD    SOD22281   1.124   1.850   1.389
  222SOD    SOD22282   6.196   0.895   0.631
  223SOD    SOD22283   4.071   0.694   0.615
  224SOD    SOD22284   2.419   6.811   2.221
  225SOD    SOD22285   4.089   4.193   7.244
  226SOD    SOD22286   4.959   3.887   2.408
  227SOD    SOD22287   2.143   3.147   1.341
  228SOD    SOD22288   0.045   2.746   7.352
  229SOD    SOD22289   5.146   4.193   0.132
  230SOD    SOD22290   5.410   3.540   8.569
  231SOD    SOD22291   4.528   4.236   8.037
  232SOD    SOD22292   6.777   6.059   8.467
  233SOD    SOD22293   3.007   1.895   0.349
  234CLA    CLA22294   5.430   3.794   8.205
  235CLA    CLA22295   4.008   0.424   0.083
  236CLA    CLA22296   2.826   0.219   7.309
  237CLA    CLA22297   6.585   5.838   0.983
  238CLA    CLA22298   6.713   6.370   1.889
  239CLA    CLA22299   0.123   3.551   1.312
  240CLA    CLA22300   2.869   2.532   7.312
  241CLA    CLA22301   3.165   6.143   1.675
  242CLA    CLA22302   3.732   3.907   7.181
  243CLA    CLA22303   5.700   5.461   0.682
  244CLA    CLA22304   1.826   4.753   0.653
  245CLA    CLA22305   6.515   2.535   7.607
  246CLA    CLA22306   3.626   4.660   8.193
  247CLA    CLA22307   0.353   6.274   0.211
  248CLA    CLA22308   6.019   0.042   8.242
  249CLA    CLA22309   1.081   2.917   0.100
  250CLA    CLA22310   5.885   4.200   8.754
  251TIP3   OH222311   4.735   2.237   0.882
  251TIP3    H122312   4.661   2.296   0.867
  251TIP3    H222313   4.700   2.150   0.865
  252TIP3   OH222314   6.466   2.250   1.860
  252TIP3    H122315   6.445   2.340   1.887
  252TIP3    H222316   6.459   2.199   1.941
  253TIP3   OH222317   2.237   3.715   0.973
  253TIP3    H122318   2.280   3.798   0.995
  253TIP3    H222319   2.284   3.683   0.895
  254TIP3   OH222320   1.835   3.345   7.940
  254TIP3    H122321   1.861   3.312   8.026
  254TIP3    H222322   1.840   3.440   7.948
  255TIP3   OH222323   2.785   4.070   0.511
  255TIP3    H122324   2.721   4.127   0.553
  255TIP3    H222325   2.859   4.127   0.492
  256TIP3   OH222326   1.470   3.427   8.608
  256TIP3    H122327   1.420   3.357   8.566
  256TIP3    H222328   1.548   3.437   8.553
  257TIP3   OH222329   4.571   0.609   0.588
  257TIP3    H122330   4.660   0.582   0.610
  257TIP3    H222331   4.565   0.598   0.493
  258TIP3   OH222332   5.644   4.174   6.611
  258TIP3    H122333   5.671   4.091   6.652
  258TIP3    H222334   5.551   4.162   6.592
  259TIP3   OH222335   1.385   2.045   1.003
  259TIP3    H122336   1.389   2.130   1.046
  259TIP3    H222337   1.474   2.010   1.011
  260TIP3   OH222338   6.477   0.921   1.925
  260TIP3    H122339   6.560   0.962   1.900
  260TIP3    H222340   6.495   0.827   1.919
  261TIP3   OH222341   6.741   2.930   1.413
  261TIP3    H122342   6.810   2.864   1.421
  261TIP3    H222343   6.786   3.014   1.419
  262TIP3   OH222344   2.133   6.532   1.151
  262TIP3    H122345   2.203   6.574   1.200
  262TIP3    H222346   2.054   6.580   1.173
  263TIP3   OH222347   5.345   2.880   0.378
  263TIP3    H122348   5.304   2.841   0.301
  263TIP3    H222349   5.439   2.867   0.364
  264TIP3   OH222350   2.466   2.595   1.921
  264TIP3    H122351   2.527   2.572   1.991
  264TIP3    H222352   2.397   2.645   1.964
  265TIP3   OH222353   3.454   1.455   7.847
  265TIP3    H122354   3.400   1.524   7.885
  265TIP3    H222355   3.434   1.377   7.899
  266TIP3   OH222356   0.560   2.394   1.054
  266TIP3    H122357   0.561   2.473   0.998
  266TIP3    H222358   0.652   2.368   1.059
  267TIP3   OH222359   5.913   6.321   2.109
  267TIP3    H122360   5.819   6.321   2.095
  267TIP3    H222361   5.924   6.318   2.204
  268TIP3   OH222362   3.868   1.966   7.265
  268TIP3    H122363   3.927   1.983   7.338
  268TIP3    H222364   3.919   1.912   7.204
  269TIP3   OH222365   2.829   5.160   8.778
  269TIP3    H122366   2.889   5.087   0.002
  269TIP3    H222367   2.743   5.126   0.012
  270TIP3   OH222368   2.680   2.228   0.562
  270TIP3    H122369   2.591   2.243   0.594
  270TIP3    H222370   2.668   2.183   0.478
  271TIP3   OH222371   2.127   4.210   7.698
  271TIP3    H122372   2.222   4.196   7.697
  271TIP3    H222373   2.092   4.133   7.653
  272TIP3   OH222374   4.154   2.463   7.399
  272TIP3    H122375   4.142   2.392   7.336
  272TIP3    H222376   4.216   2.523   7.356
  273TIP3   OH222377   0.341   4.278   1.173
  273TIP3    H122378   0.379   4.363   1.152
  273TIP3    H222379   0.314   4.286   1.265
  274TIP3   OH222380   6.099   1.455   0.756
  274TIP3    H122381   6.119   1.543   0.725
  274TIP3    H222382   6.044   1.469   0.833
  275TIP3   OH222383   4.508   1.164   2.435
  275TIP3    H122384   4.425   1.172   2.483
  275TIP3    H222385   4.544   1.253   2.434
  276TIP3   OH222386   4.705   4.457   7.341
  276TIP3    H122387   4.795   4.471   7.310
  276TIP3    H222388   4.686   4.532   7.396
  277TIP3   OH222389   1.607   2.791   0.822
  277TIP3    H122390   1.523   2.836   0.826
  277TIP3    H222391   1.595   2.712   0.875
  278TIP3   OH222392   3.439   2.113   7.501
  278TIP3    H122393   3.525   2.088   7.533
  278TIP3    H222394   3.457   2.176   7.430
  279TIP3   OH222395   1.668   1.881   7.409
  279TIP3    H122396   1.603   1.834   7.358
  279TIP3    H222397   1.727   1.813   7.442
  280TIP3   OH222398   3.433   5.387   0.959
  280TIP3    H122399   3.342   5.417   0.958
  280TIP3    H222400   3.435   5.318   1.025
  281TIP3   OH222401   4.846   1.893   0.363
  281TIP3    H122402   4.905   1.838   0.313
  281TIP3    H222403   4.903   1.945   0.420
  282TIP3   OH222404   4.815   2.957   1.918
  282TIP3    H122405   4.738   2.933   1.866
  282TIP3    H222406   4.889   2.930   1.864
  283TIP3   OH222407   4.566   6.742   6.861
  283TIP3    H122408   4.568   0.021   6.883
  283TIP3    H222409   4.570   6.739   6.766
  284TIP3   OH222410   2.394   1.064   1.570
  284TIP3    H122411   2.484   1.099   1.572
  284TIP3    H222412   2.369   1.068   1.478
  285TIP3   OH222413   4.179   3.651   0.930
  285TIP3    H122414   4.242   3.587   0.964
  285TIP3    H222415   4.122   3.669   1.005
  286TIP3   OH222416   2.640   2.547   7.106
  286TIP3    H122417   2.702   2.552   7.180
  286TIP3    H222418   2.587   2.625   7.114
  287TIP3   OH222419   1.665   5.169   1.264
  287TIP3    H122420   1.757   5.146   1.252
  287TIP3    H222421   1.618   5.086   1.259
  288TIP3   OH222422   0.885   0.819   7.750
  288TIP3    H122423   0.949   0.876   7.708
  288TIP3    H222424   0.826   0.879   7.795
  289TIP3   OH222425   6.734   0.458   2.373
  289TIP3    H122426   6.764   0.379   2.418
  289TIP3    H222427   6.754   0.529   2.434
  290TIP3   OH222428   0.648   6.390   0.119
  290TIP3    H122429   0.583   6.411   0.053
  290TIP3    H222430   0.598   6.351   0.191
  291TIP3   OH222431   1.680   2.589   0.312
  291TIP3    H122432   1.670   2.634   0.228
  291TIP3    H222433   1.627   2.510   0.303
  292TIP3   OH222434   4.928   4.232   2.173
  292TIP3    H122435   4.923   4.327   2.169
  292TIP3    H222436   4.870   4.202   2.103
  293TIP3   OH222437   1.774   4.104   6.900
  293TIP3    H122438   1.802   4.193   6.922
  293TIP3    H222439   1.779   4.101   6.804
  294TIP3   OH222440   3.165   2.674   2.701
  294TIP3    H122441   3.144   2.580   2.697
  294TIP3    H222442   3.227   2.688   2.630
  295TIP3   OH222443   1.020   1.174   0.632
  295TIP3    H122444   1.105   1.210   0.657
  295TIP3    H222445   1.024   1.083   0.658
  296TIP3   OH222446   6.574   0.671   8.112
  296TIP3    H122447   6.490   0.715   8.124
  296TIP3    H222448   6.574   0.644   8.020
  297TIP3   OH222449   2.245   6.070   8.633
  297TIP3    H122450   2.334   6.041   8.653
  297TIP3    H222451   2.206   5.997   8.584
  298TIP3   OH222452   0.867   2.683   7.387
  298TIP3    H122453   0.948   2.697   7.338
  298TIP3    H222454   0.810   2.755   7.361
  299TIP3   OH222455   3.217   2.249   6.497
  299TIP3    H122456   3.165   2.328   6.487
  299TIP3    H222457   3.156   2.185   6.535
  300TIP3   OH222458   2.863   6.615   7.569
  300TIP3    H122459   2.953   6.593   7.593
  300TIP3    H222460   2.862   6.711   7.566
  301TIP3   OH222461   4.445   0.786   1.016
  301TIP3    H122462   4.447   0.881   1.025
  301TIP3    H222463   4.427   0.771   0.923
  302TIP3   OH222464   4.364   3.474   0.726
  302TIP3    H122465   4.392   3.538   0.792
  302TIP3    H222466   4.387   3.389   0.765
  303TIP3   OH222467   4.275   0.908   0.406
  303TIP3    H122468   4.295   0.862   0.325
  303TIP3    H222469   4.333   0.984   0.406
  304TIP3   OH222470   4.149   3.245   6.318
  304TIP3    H122471   4.223   3.282   6.270
  304TIP3    H222472   4.141   3.300   6.396
  305TIP3   OH222473   0.052   2.433   1.408
  305TIP3    H122474   0.139   2.437   1.370
  305TIP3    H222475   0.066   2.439   1.502
  306TIP3   OH222476   0.992   2.411   6.699
  306TIP3    H122477   0.954   2.357   6.629
  306TIP3    H222478   1.053   2.469   6.654
  307TIP3   OH222479   1.523   1.173   1.119
  307TIP3    H122480   1.602   1.158   1.170
  307TIP3    H222481   1.513   1.093   1.067
  308TIP3   OH222482   2.613   0.018   8.543
  308TIP3    H122483   2.671   0.094   8.540
  308TIP3    H222484   2.540   0.042   8.486
  309TIP3   OH222485   0.603   5.536   8.115
  309TIP3    H122486   0.659   5.607   8.082
  309TIP3    H222487   0.609   5.468   8.048
  310TIP3   OH222488   3.550   4.874   1.504
  310TIP3    H122489   3.574   4.814   1.434
  310TIP3    H222490   3.487   4.825   1.557
  311TIP3   OH222491   4.605   3.389   1.914
  311TIP3    H122492   4.669   3.394   1.985
  311TIP3    H222493   4.526   3.429   1.950
  312TIP3   OH222494   4.342   4.809   1.725
  312TIP3    H122495   4.315   4.881   1.668
  312TIP3    H222496   4.358   4.850   1.810
  313TIP3   OH222497   4.844   1.345   7.049
  313TIP3    H122498   4.763   1.294   7.040
  313TIP3    H222499   4.856   1.385   6.963
  314TIP3   OH222500   3.611   3.744   1.166
  314TIP3    H122501   3.648   3.811   1.108
  314TIP3    H222502   3.550   3.696   1.110
  315TIP3   OH222503   2.367   5.708   7.860
  315TIP3    H122504   2.403   5.777   7.805
  315TIP3    H222505   2.287   5.681   7.815
  316TIP3   OH222506   5.540   6.270   0.425
  316TIP3    H122507   5.578   6.195   0.379
  316TIP3    H222508   5.582   6.269   0.511
  317TIP3   OH222509   4.547   2.171   2.294
  317TIP3    H122510   4.633   2.214   2.303
  317TIP3    H222511   4.553   2.123   2.212
  318TIP3   OH222512   2.919   6.759   6.832
  318TIP3    H122513   2.835   6.716   6.846
  318TIP3    H222514   2.918   0.019   6.892
  319TIP3   OH222515   6.322   2.768   7.538
  319TIP3    H122516   6.393   2.828   7.564
  319TIP3    H222517   6.354   2.681   7.563
  320TIP3   OH222518   6.068   5.630   0.267
  320TIP3    H122519   6.108   5.543   0.263
  320TIP3    H222520   6.122   5.685   0.211
  321TIP3   OH222521   4.981   3.555   0.093
  321TIP3    H122522   5.025   3.496   0.155
  321TIP3    H222523   4.997   3.643   0.128
  322TIP3   OH222524   2.097   0.697   0.104
  322TIP3    H122525   2.081   0.703   0.010
  322TIP3    H222526   2.175   0.750   0.119
  323TIP3   OH222527   1.438   3.586   2.168
  323TIP3    H122528   1.512   3.541   2.126
  323TIP3    H222529   1.381   3.515   2.197
  324TIP3   OH222530   1.447   4.366   7.761
  324TIP3    H122531   1.512   4.405   7.702
  324TIP3    H222532   1.380   4.330   7.702
  325TIP3   OH222533   2.045   1.783   1.276
  325TIP3    H122534   2.121   1.767   1.332
  325TIP3    H222535   2.077   1.764   1.187
  326TIP3   OH222536   0.333   2.401   0.061
  326TIP3    H122537   0.267   2.465   0.034
  326TIP3    H222538   0.289   2.317   0.055
  327TIP3   OH222539   3.428   6.269   1.807
  327TIP3    H122540   3.479   6.192   1.831
  327TIP3    H222541   3.345   6.233   1.775
  328TIP3   OH222542   1.010   1.896   6.331
  328TIP3    H122543   1.046   1.960   6.393
  328TIP3    H222544   1.079   1.829   6.325
  329TIP3   OH222545   2.812   3.923   6.918
  329TIP3    H122546   2.835   3.933   6.825
  329TIP3    H222547   2.812   4.012   6.952
  330TIP3   OH222548   0.746   2.187   0.657
  330TIP3    H122549   0.709   2.235   0.583
  330TIP3    H222550   0.835   2.166   0.630
  331TIP3   OH222551   2.741   6.171   1.825
  331TIP3    H122552   2.688   6.168   1.745
  331TIP3    H222553   2.792   6.090   1.823
  332TIP3   OH222554   2.205   6.507   1.532
  332TIP3    H122555   2.192   6.420   1.494
  332TIP3    H222556   2.282   6.542   1.487
  333TIP3   OH222557   0.127   6.751   0.762
  333TIP3    H122558   0.098   0.022   0.795
  333TIP3    H222559   0.053   6.693   0.776
  334TIP3   OH222560   1.433   3.414   7.509
  334TIP3    H122561   1.467   3.332   7.473
  334TIP3    H222562   1.359   3.387   7.563
  335TIP3   OH222563   3.731   4.386   8.059
  335TIP3    H122564   3.752   4.472   8.095
  335TIP3    H222565   3.637   4.375   8.076
  336TIP3   OH222566   2.668   3.305   0.317
  336TIP3    H122567   2.580   3.323   0.350
  336TIP3    H222568   2.660   3.222   0.270
  337TIP3   OH222569   3.200   4.044   8.010
  337TIP3    H122570   3.294   4.026   8.001
  337TIP3    H222571   3.191   4.081   8.098
  338TIP3   OH222572   3.030   1.872   7.030
  338TIP3    H122573   3.068   1.841   7.112
  338TIP3    H222574   2.971   1.943   7.056
  339TIP3   OH222575   5.596   4.160   1.326
  339TIP3    H122576   5.575   4.253   1.336
  339TIP3    H222577   5.604   4.147   1.231
  340TIP3   OH222578   2.915   6.269   7.405
  340TIP3    H122579   2.874   6.293   7.488
  340TIP3    H222580   2.847   6.282   7.340
  341TIP3   OH222581   0.222   0.253   6.913
  341TIP3    H122582   0.253   0.215   6.995
  341TIP3    H222583   0.220   0.348   6.929
  342TIP3   OH222584   0.351   2.000   2.095
  342TIP3    H122585   0.339   2.075   2.037
  342TIP3    H222586   0.403   2.034   2.168
  343TIP3   OH222587   0.578   1.561   0.145
  343TIP3    H122588   0.663   1.600   0.124
  343TIP3    H222589   0.592   1.515   0.228
  344TIP3   OH222590   1.815   4.626   7.005
  344TIP3    H122591   1.766   4.675   6.939
  344TIP3    H222592   1.789   4.535   6.992
  345TIP3   OH222593   4.227   4.211   0.785
  345TIP3    H122594   4.314   4.209   0.824
  345TIP3    H222595   4.215   4.301   0.756
  346TIP3   OH222596   2.312   6.204   8.164
  346TIP3    H122597   2.405   6.182   8.154
  346TIP3    H222598   2.277   6.197   8.075
  347TIP3   OH222599   4.454   2.455   7.321
  347TIP3    H122600   4.385   2.391   7.333
  347TIP3    H222601   4.518   2.411   7.266
  348TIP3   OH222602   4.229   2.932   1.282
  348TIP3    H122603   4.150   2.955   1.331
  348TIP3    H222604   4.295   2.994   1.312
  349TIP3   OH222605   0.683   4.259   7.853
  349TIP3    H122606   0.621   4.187   7.864
  349TIP3    H222607   0.711   4.282   7.942
  350TIP3   OH222608   0.038   0.054   7.854
  350TIP3    H122609   0.082   6.806   7.911
  350TIP3    H222610   6.775   0.082   7.904
  351TIP3   OH222611   3.294   0.483   0.082
  351TIP3    H122612   3.350   0.460   0.007
  351TIP3    H222613   3.214   0.433   0.068
  352TIP3   OH222614   4.255   1.177   0.927
  352TIP3    H122615   4.276   1.213   0.840
  352TIP3    H222616   4.172   1.132   0.915
  353TIP3   OH222617   2.103   2.955   7.813
  353TIP3    H122618   2.102   3.051   7.808
  353TIP3    H222619   2.186   2.935   7.857
  354TIP3   OH222620   0.317   2.315   1.511
  354TIP3    H122621   0.269   2.237   1.541
  354TIP3    H222622   0.314   2.309   1.415
  355TIP3   OH222623   5.794   3.124   0.118
  355TIP3    H122624   5.836   3.208   0.140
  355TIP3    H222625   5.823   3.105   0.029
  356TIP3   OH222626   3.812   2.250   7.221
  356TIP3    H122627   3.825   2.159   7.247
  356TIP3    H222628   3.839   2.252   7.129
  357TIP3   OH222629   5.103   2.337   0.513
  357TIP3    H122630   5.040   2.315   0.444
  357TIP3    H222631   5.121   2.430   0.500
  358TIP3   OH222632   2.413   3.482   0.327
  358TIP3    H122633   2.356   3.533   0.385
  358TIP3    H222634   2.441   3.545   0.260
  359TIP3   OH222635   4.177   4.235   6.802
  359TIP3    H122636   4.247   4.252   6.865
  359TIP3    H222637   4.198   4.289   6.727
  360TIP3   OH222638   0.133   3.380   0.067
  360TIP3    H122639   0.158   3.413   8.772
  360TIP3    H222640   0.190   3.306   0.083
  361TIP3   OH222641   0.893   5.708   0.665
  361TIP3    H122642   0.830   5.779   0.654
  361TIP3    H222643   0.846   5.640   0.711
  362TIP3   OH222644   0.551   5.156   1.816
  362TIP3    H122645   0.630   5.194   1.777
  362TIP3    H222646   0.525   5.087   1.754
  363TIP3   OH222647   6.808   0.442   0.688
  363TIP3    H122648   0.071   0.444   0.745
  363TIP3    H222649   6.738   0.411   0.744
  364TIP3   OH222650   3.950   1.003   0.004
  364TIP3    H122651   3.919   0.916   0.029
  364TIP3    H222652   3.877   1.061   0.025
  365TIP3   OH222653   5.109   4.172   8.194
  365TIP3    H122654   5.045   4.168   8.265
  365TIP3    H222655   5.167   4.244   8.216
  366TIP3   OH222656   5.215   3.362   7.038
  366TIP3    H122657   5.260   3.298   7.093
  366TIP3    H222658   5.249   3.344   6.950
  367TIP3   OH222659   4.851   3.166   1.579
  367TIP3    H122660   4.834   3.243   1.524
  367TIP3    H222661   4.774   3.160   1.636
  368TIP3   OH222662   6.785   3.848   0.670
  368TIP3    H122663   6.763   3.833   0.762
  368TIP3    H222664   0.035   3.781   0.649
  369TIP3   OH222665   2.249   0.212   0.146
  369TIP3    H122666   2.188   0.280   0.177
  369TIP3    H222667   2.240   0.214   0.051
  370TIP3   OH222668   4.755   4.740   1.329
  370TIP3    H122669   4.677   4.787   1.301
  370TIP3    H222670   4.759   4.755   1.424
  371TIP3   OH222671   5.751   2.299   0.941
  371TIP3    H122672   5.719   2.257   0.861
  371TIP3    H222673   5.774   2.388   0.915
  372TIP3   OH222674   2.644   6.020   8.207
  372TIP3    H122675   2.637   6.115   8.195
  372TIP3    H222676   2.636   6.008   8.302
  373TIP3   OH222677   5.496   5.211   6.264
  373TIP3    H122678   5.525   5.218   6.354
  373TIP3    H222679   5.417   5.265   6.259
  374TIP3   OH222680   5.855   4.043   8.376
  374TIP3    H122681   5.769   4.068   8.408
  374TIP3    H222682   5.838   3.986   8.301
  375TIP3   OH222683   4.269   5.057   0.022
  375TIP3    H122684   4.227   4.971   0.033
  375TIP3    H222685   4.203   5.111   8.771
  376TIP3   OH222686   0.454   4.908   7.216
  376TIP3    H122687   0.393   4.860   7.272
  376TIP3    H222688   0.402   4.932   7.139
  377TIP3   OH222689   2.402   2.244   8.067
  377TIP3    H122690   2.410   2.253   7.972
  377TIP3    H222691   2.367   2.328   8.097
  378TIP3   OH222692   1.323   6.229   7.143
  378TIP3    H122693   1.315   6.136   7.121
  378TIP3    H222694   1.287   6.236   7.231
  379TIP3   OH222695   5.734   0.996   7.995
  379TIP3    H122696   5.755   0.912   8.036
  379TIP3    H222697   5.708   1.053   8.068
  380TIP3   OH222698   6.608   5.185   6.825
  380TIP3    H122699   6.684   5.221   6.780
  380TIP3    H222700   6.627   5.092   6.835
  381TIP3   OH222701   5.991   5.201   8.214
  381TIP3    H122702   6.081   5.226   8.193
  381TIP3    H222703   5.964   5.263   8.282
  382TIP3   OH222704   1.103   3.736   0.831
  382TIP3    H122705   1.140   3.823   0.846
  382TIP3    H222706   1.022   3.752   0.783
  383TIP3   OH222707   6.364   1.928   0.042
  383TIP3    H122708   6.321   2.004   0.080
  383TIP3    H222709   6.323   1.918   8.747
  384TIP3   OH222710   1.476   4.517   1.563
  384TIP3    H122711   1.417   4.553   1.628
  384TIP3    H222712   1.564   4.544   1.591
  385TIP3   OH222713   1.866   3.227   0.329
  385TIP3    H122714   1.960   3.248   0.335
  385TIP3    H222715   1.823   3.311   0.316
  386TIP3   OH222716   0.294   2.642   1.558
  386TIP3    H122717   0.364   2.707   1.568
  386TIP3    H222718   0.338   2.558   1.570
  387TIP3   OH222719   4.953   5.710   0.787
  387TIP3    H122720   4.958   5.691   0.881
  387TIP3    H222721   5.010   5.787   0.776
  388TIP3   OH222722   1.521   3.350   7.914
  388TIP3    H122723   1.505   3.351   8.008
  388TIP3    H222724   1.595   3.290   7.903
  389TIP3   OH222725   4.993   3.534   2.018
  389TIP3    H122726   4.998   3.499   1.929
  389TIP3    H222727   4.917   3.491   2.057
  390TIP3   OH222728   2.119   1.099   0.691
  390TIP3    H122729   2.131   1.006   0.710
  390TIP3    H222730   2.032   1.119   0.723
  391TIP3   OH222731   4.404   6.759   0.028
  391TIP3    H122732   4.395   6.799   8.733
  391TIP3    H222733   4.474   6.808   0.071
  392TIP3   OH222734   0.045   1.073   7.943
  392TIP3    H122735   6.770   1.065   7.975
  392TIP3    H222736   0.037   1.110   7.855
  393TIP3   OH222737   0.217   6.433   1.349
  393TIP3    H122738   0.134   6.430   1.396
  393TIP3    H222739   0.276   6.378   1.401
  394TIP3   OH222740   6.658   5.062   0.083
  394TIP3    H122741   6.735   5.039   0.134
  394TIP3    H222742   6.663   5.007   0.006
  395TIP3   OH222743   4.488   2.393   1.642
  395TIP3    H122744   4.408   2.438   1.667
  395TIP3    H222745   4.500   2.326   1.710
  396TIP3   OH222746   2.840   6.483   0.631
  396TIP3    H122747   2.867   6.399   0.593
  396TIP3    H222748   2.919   6.537   0.627
  397TIP3   OH222749   1.182   3.880   0.271
  397TIP3    H122750   1.106   3.896   0.326
  397TIP3    H222751   1.220   3.799   0.305
  398TIP3   OH222752   4.987   6.746   8.425
  398TIP3    H122753   4.934   6.667   8.432
  398TIP3    H222754   5.071   6.722   8.463
  399TIP3   OH222755   0.670   6.181   8.712
  399TIP3    H122756   0.692   6.248   8.777
  399TIP3    H222757   0.653   6.102   8.763
  400TIP3   OH222758   4.363   3.331   0.133
  400TIP3    H122759   4.404   3.309   0.049
  400TIP3    H222760   4.422   3.395   0.172
  401TIP3   OH222761   3.217   3.609   1.707
  401TIP3    H122762   3.290   3.661   1.742
  401TIP3    H222763   3.152   3.673   1.680
  402TIP3   OH222764   3.589   4.122   7.706
  402TIP3    H122765   3.640   4.068   7.645
  402TIP3    H222766   3.638   4.204   7.713
  403TIP3   OH222767   1.187   3.047   2.764
  403TIP3    H122768   1.268   3.052   2.712
  403TIP3    H222769   1.184   3.129   2.813
  404TIP3   OH222770   0.765   2.472   0.856
  404TIP3    H122771   0.712   2.545   0.887
  404TIP3    H222772   0.709   2.426   0.793
  405TIP3   OH222773   6.242   1.184   2.150
  405TIP3    H122774   6.166   1.138   2.112
  405TIP3    H222775   6.226   1.182   2.244
  406TIP3   OH222776   5.465   0.872   8.072
  406TIP3    H122777   5.556   0.858   8.047
  406TIP3    H222778   5.470   0.921   8.154
  407TIP3   OH222779   1.668   1.237   0.526
  407TIP3    H122780   1.727   1.162   0.523
  407TIP3    H222781   1.604   1.214   0.593
  408TIP3   OH222782   0.454   6.733   1.834
  408TIP3    H122783   0.525   6.797   1.828
  408TIP3    H222784   0.497   6.649   1.815
  409TIP3   OH222785   0.845   1.739   8.704
  409TIP3    H122786   0.767   1.791   8.722
  409TIP3    H222787   0.820   1.684   8.630
  410TIP3   OH222788   2.502   1.716   7.362
  410TIP3    H122789   2.424   1.724   7.416
  410TIP3    H222790   2.558   1.654   7.409
  411TIP3   OH222791   5.620   2.995   1.970
  411TIP3    H122792   5.530   3.001   2.003
  411TIP3    H222793   5.670   2.958   2.042
  412TIP3   OH222794   4.948   0.984   8.200
  412TIP3    H122795   4.922   0.917   8.264
  412TIP3    H222796   5.014   0.940   8.146
  413TIP3   OH222797   0.619   5.900   7.635
  413TIP3    H122798   0.552   5.901   7.704
  413TIP3    H222799   0.611   5.813   7.595
  414TIP3   OH222800   0.755   3.092   7.054
  414TIP3    H122801   0.668   3.119   7.025
  414TIP3    H222802   0.762   3.000   7.027
  415TIP3   OH222803   4.581   1.732   1.315
  415TIP3    H122804   4.675   1.746   1.307
  415TIP3    H222805   4.572   1.640   1.341
  416TIP3   OH222806   0.959   0.365   8.163
  416TIP3    H122807   1.043   0.410   8.165
  416TIP3    H222808   0.894   0.435   8.168
  417TIP3   OH222809   3.363   3.698   8.308
  417TIP3    H122810   3.337   3.723   8.220
  417TIP3    H222811   3.374   3.603   8.305
  418TIP3   OH222812   1.008   0.654   0.332
  418TIP3    H122813   0.948   0.727   0.320
  418TIP3    H222814   1.095   0.694   0.329
  419TIP3   OH222815   2.480   0.902   7.984
  419TIP3    H122816   2.560   0.905   7.932
  419TIP3    H222817   2.488   0.975   8.045
  420TIP3   OH222818   1.311   3.924   0.043
  420TIP3    H122819   1.271   3.884   0.120
  420TIP3    H222820   1.361   3.853   0.003
  421TIP3   OH222821   5.162   2.036   0.815
  421TIP3    H122822   5.214   2.054   0.894
  421TIP3    H222823   5.213   2.075   0.744
  422TIP3   OH222824   5.337   6.171   7.730
  422TIP3    H122825   5.286   6.090   7.724
  422TIP3    H222826   5.424   6.147   7.700
  423TIP3   OH222827   4.891   6.013   6.454
  423TIP3    H122828   4.914   6.100   6.424
  423TIP3    H222829   4.830   6.028   6.526
  424TIP3   OH222830   5.915   0.029   1.783
  424TIP3    H122831   5.933   6.752   1.803
  424TIP3    H222832   5.855   0.057   1.853
  425TIP3   OH222833   5.270   1.075   7.658
  425TIP3    H122834   5.327   1.142   7.620
  425TIP3    H222835   5.208   1.053   7.588
  426TIP3   OH222836   1.532   0.102   0.214
  426TIP3    H122837   1.514   0.051   0.293
  426TIP3    H222838   1.471   0.068   0.149
  427TIP3   OH222839   6.320   6.206   0.780
  427TIP3    H122840   6.317   6.266   0.705
  427TIP3    H222841   6.228   6.197   0.807
  428TIP3   OH222842   3.422   6.435   0.427
  428TIP3    H122843   3.410   6.343   0.449
  428TIP3    H222844   3.507   6.458   0.466
  429TIP3   OH222845   4.869   3.625   6.415
  429TIP3    H122846   4.893   3.539   6.450
  429TIP3    H222847   4.911   3.628   6.329
  430TIP3   OH222848   2.632   1.197   1.511
  430TIP3    H122849   2.727   1.204   1.518
  430TIP3    H222850   2.618   1.151   1.428
  431TIP3   OH222851   5.140   6.669   7.531
  431TIP3    H122852   5.091   6.602   7.483
  431TIP3    H222853   5.113   6.658   7.622
  432TIP3   OH222854   2.621   3.482   1.189
  432TIP3    H122855   2.606   3.409   1.248
  432TIP3    H222856   2.683   3.449   1.124
  433TIP3   OH222857   3.922   0.729   0.026
  433TIP3    H122858   3.967   0.645   0.033
  433TIP3    H222859   3.832   0.706   0.001
  434TIP3   OH222860   4.418   3.158   7.953
  434TIP3    H122861   4.421   3.226   8.020
  434TIP3    H222862   4.366   3.087   7.992
  435TIP3   OH222863   2.814   5.512   0.309
  435TIP3    H122864   2.747   5.580   0.298
  435TIP3    H222865   2.767   5.430   0.299
  436TIP3   OH222866   6.374   0.658   6.737
  436TIP3    H122867   6.418   0.583   6.778
  436TIP3    H222868   6.401   0.733   6.790
  437TIP3   OH222869   3.026   3.564   1.014
  437TIP3    H122870   2.937   3.600   1.019
  437TIP3    H222871   3.015   3.481   0.969
  438TIP3   OH222872   5.383   1.776   1.035
  438TIP3    H122873   5.401   1.816   0.950
  438TIP3    H222874   5.292   1.800   1.054
  439TIP3   OH222875   3.910   4.843   7.384
  439TIP3    H122876   3.828   4.797   7.402
  439TIP3    H222877   3.884   4.913   7.323
  440TIP3   OH222878   4.497   6.788   7.200
  440TIP3    H122879   4.593   6.793   7.197
  440TIP3    H222880   4.474   0.015   7.283
  441TIP3   OH222881   5.640   5.779   1.412
  441TIP3    H122882   5.681   5.715   1.354
  441TIP3    H222883   5.555   5.741   1.433
  442TIP3   OH222884   3.340   2.868   1.673
  442TIP3    H122885   3.283   2.795   1.648
  442TIP3    H222886   3.281   2.944   1.679
  443TIP3   OH222887   1.776   2.741   7.898
  443TIP3    H122888   1.794   2.779   7.812
  443TIP3    H222889   1.862   2.723   7.935
  444TIP3   OH222890   1.564   5.747   8.304
  444TIP3    H122891   1.570   5.657   8.272
  444TIP3    H222892   1.603   5.800   8.235
  445TIP3   OH222893   1.468   3.209   7.065
  445TIP3    H122894   1.551   3.213   7.113
  445TIP3    H222895   1.491   3.168   6.982
  446TIP3   OH222896   0.796   0.743   1.653
  446TIP3    H122897   0.715   0.741   1.703
  446TIP3    H222898   0.864   0.713   1.714
  447TIP3   OH222899   0.755   0.836   2.030
  447TIP3    H122900   0.777   0.885   2.109
  447TIP3    H222901   0.794   0.750   2.043
  448TIP3   OH222902   2.385   5.979   1.827
  448TIP3    H122903   2.394   5.903   1.885
  448TIP3    H222904   2.292   5.982   1.806
  449TIP3   OH222905   4.448   3.208   7.291
  449TIP3    H122906   4.524   3.205   7.231
  449TIP3    H222907   4.459   3.289   7.340
  450TIP3   OH222908   0.806   3.608   0.422
  450TIP3    H122909   0.720   3.580   0.392
  450TIP3    H222910   0.850   3.527   0.447
  451TIP3   OH222911   2.614   5.521   7.252
  451TIP3    H122912   2.568   5.446   7.290
  451TIP3    H222913   2.701   5.519   7.293
  452TIP3   OH222914   6.577   1.581   2.160
  452TIP3    H122915   6.550   1.517   2.094
  452TIP3    H222916   6.612   1.528   2.232
  453TIP3   OH222917   4.650   1.006   1.740
  453TIP3    H122918   4.659   1.072   1.672
  453TIP3    H222919   4.635   1.056   1.821
  454TIP3   OH222920   1.272   3.201   1.285
  454TIP3    H122921   1.268   3.215   1.379
  454TIP3    H222922   1.199   3.142   1.266
  455TIP3   OH222923   0.834   4.576   1.397
  455TIP3    H122924   0.776   4.627   1.341
  455TIP3    H222925   0.778   4.545   1.468
  456TIP3   OH222926   5.465   0.210   1.576
  456TIP3    H122927   5.465   0.305   1.580
  456TIP3    H222928   5.373   0.185   1.575
  457TIP3   OH222929   3.521   4.269   1.146
  457TIP3    H122930   3.434   4.285   1.110
  457TIP3    H222931   3.522   4.176   1.169
  458TIP3   OH222932   1.671   3.378   1.476
  458TIP3    H122933   1.701   3.312   1.538
  458TIP3    H222934   1.738   3.445   1.477
  459TIP3   OH222935   6.016   3.924   7.982
  459TIP3    H122936   5.951   3.879   8.037
  459TIP3    H222937   6.014   4.015   8.013
  460TIP3   OH222938   3.490   5.336   6.588
  460TIP3    H122939   3.406   5.364   6.624
  460TIP3    H222940   3.468   5.297   6.503
  461TIP3   OH222941   6.079   4.898   1.972
  461TIP3    H122942   5.991   4.862   1.969
  461TIP3    H222943   6.080   4.966   1.904
  462TIP3   OH222944   0.755   5.483   7.662
  462TIP3    H122945   0.662   5.505   7.671
  462TIP3    H222946   0.757   5.387   7.659
  463TIP3   OH222947   6.229   4.073   1.436
  463TIP3    H122948   6.160   4.056   1.372
  463TIP3    H222949   6.306   4.097   1.383
  464TIP3   OH222950   3.857   4.985   7.646
  464TIP3    H122951   3.919   4.977   7.718
  464TIP3    H222952   3.858   4.899   7.604
  465TIP3   OH222953   1.902   3.915   7.771
  465TIP3    H122954   1.818   3.886   7.734
  465TIP3    H222955   1.932   3.983   7.712
  466TIP3   OH222956   5.917   3.455   7.594
  466TIP3    H122957   5.970   3.509   7.652
  466TIP3    H222958   5.837   3.505   7.581
  467TIP3   OH222959   6.281   1.234   0.722
  467TIP3    H122960   6.336   1.225   0.800
  467TIP3    H222961   6.213   1.295   0.747
  468TIP3   OH222962   4.641   0.327   1.606
  468TIP3    H122963   4.573   0.300   1.545
  468TIP3    H222964   4.620   0.418   1.627
  469TIP3   OH222965   5.807   5.037   8.454
  469TIP3    H122966   5.828   4.985   8.532
  469TIP3    H222967   5.890   5.044   8.407
  470TIP3   OH222968   6.507   0.654   0.184
  470TIP3    H122969   6.582   0.601   0.158
  470TIP3    H222970   6.467   0.682   0.101
  471TIP3   OH222971   1.348   1.394   7.749
  471TIP3    H122972   1.419   1.412   7.687
  471TIP3    H222973   1.303   1.477   7.760
  472TIP3   OH222974   3.450   0.393   8.660
  472TIP3    H122975   3.434   0.315   8.714
  472TIP3    H222976   3.525   0.369   8.606
  473TIP3   OH222977   3.146   4.123   8.545
  473TIP3    H122978   3.226   4.078   8.572
  473TIP3    H222979   3.077   4.059   8.558
  474TIP3   OH222980   3.151   6.295   0.907
  474TIP3    H122981   3.120   6.384   0.891
  474TIP3    H222982   3.072   6.241   0.901
  475TIP3   OH222983   3.929   6.702   8.281
  475TIP3    H122984   3.866   6.772   8.298
  475TIP3    H222985   4.015   6.742   8.295
  476TIP3   OH222986   4.850   5.941   1.408
  476TIP3    H122987   4.875   5.862   1.359
  476TIP3    H222988   4.818   5.908   1.492
  477TIP3   OH222989   0.043   1.954   6.897
  477TIP3    H122990   0.070   1.862   6.895
  477TIP3    H222991   0.095   1.995   6.828
  478TIP3   OH222992   4.616   1.324   1.078
  478TIP3    H122993   4.567   1.406   1.069
  478TIP3    H222994   4.706   1.351   1.094
  479TIP3   OH222995   3.134   0.981   0.659
  479TIP3    H122996   3.165   1.047   0.596
  479TIP3    H222997   3.061   0.937   0.614
  480TIP3   OH222998   0.709   0.290   1.959
  480TIP3    H122999   0.689   0.363   1.900
  480TIP3    H223000   0.754   0.330   2.033
  481TIP3   OH223001   2.626   3.059   6.482
  481TIP3    H123002   2.645   3.112   6.560
  481TIP3    H223003   2.691   3.087   6.418
  482TIP3   OH223004   3.236   2.878   1.226
  482TIP3    H123005   3.153   2.859   1.182
  482TIP3    H223006   3.245   2.808   1.291
  483TIP3   OH223007   4.482   4.141   2.080
  483TIP3    H123008   4.460   4.196   2.155
  483TIP3    H223009   4.573   4.163   2.060
  484TIP3   OH223010   6.675   3.933   8.047
  484TIP3    H123011   6.624   3.987   7.987
  484TIP3    H223012   6.618   3.857   8.065
  485TIP3   OH223013   2.235   4.432   1.591
  485TIP3    H123014   2.199   4.509   1.547
  485TIP3    H223015   2.230   4.363   1.526
  486TIP3   OH223016   3.253   6.716   1.427
  486TIP3    H123017   3.216   6.772   1.495
  486TIP3    H223018   3.178   6.682   1.379
  487TIP3   OH223019   2.819   0.506   7.175
  487TIP3    H123020   2.724   0.510   7.175
  487TIP3    H223021   2.840   0.427   7.225
  488TIP3   OH223022   0.619   4.476   7.658
  488TIP3    H123023   0.674   4.500   7.584
  488TIP3    H223024   0.679   4.431   7.718
  489TIP3   OH223025   1.175   0.901   0.831
  489TIP3    H123026   1.249   0.847   0.859
  489TIP3    H223027   1.120   0.909   0.908
  490TIP3   OH223028   1.253   3.547   8.392
  490TIP3    H123029   1.211   3.472   8.433
  490TIP3    H223030   1.340   3.516   8.369
  491TIP3   OH223031   2.656   6.013   8.479
  491TIP3    H123032   2.644   6.039   8.571
  491TIP3    H223033   2.588   5.947   8.464
  492TIP3   OH223034   4.790   5.135   8.356
  492TIP3    H123035   4.702   5.104   8.336
  492TIP3    H223036   4.777   5.225   8.387
  493TIP3   OH223037   5.617   5.490   0.382
  493TIP3    H123038   5.675   5.559   0.349
  493TIP3    H223039   5.631   5.489   0.476
  494TIP3   OH223040   1.819   4.771   8.093
  494TIP3    H123041   1.907   4.807   8.091
  494TIP3    H223042   1.816   4.710   8.019
  495TIP3   OH223043   3.692   3.095   0.676
  495TIP3    H123044   3.608   3.129   0.707
  495TIP3    H223045   3.736   3.063   0.755
  496TIP3   OH223046   1.241   4.582   1.285
  496TIP3    H123047   1.193   4.582   1.368
  496TIP3    H223048   1.184   4.534   1.225
  497TIP3   OH223049   1.065   3.759   7.209
  497TIP3    H123050   1.088   3.852   7.205
  497TIP3    H223051   1.012   3.751   7.288
  498TIP3   OH223052   6.002   5.464   0.837
  498TIP3    H123053   6.077   5.465   0.777
  498TIP3    H223054   5.927   5.444   0.781
  499TIP3   OH223055   1.933   6.362   8.259
  499TIP3    H123056   1.916   6.269   8.247
  499TIP3    H223057   1.847   6.403   8.257
  500TIP3   OH223058   2.655   6.736   1.563
  500TIP3    H123059   2.707   6.809   1.529
  500TIP3    H223060   2.698   6.712   1.645
  501TIP3   OH223061   4.404   4.966   1.949
  501TIP3    H123062   4.339   5.036   1.949
  501TIP3    H223063   4.418   4.946   2.041
  502TIP3   OH223064   6.601   1.273   6.816
  502TIP3    H123065   6.663   1.319   6.873
  502TIP3    H223066   6.653   1.203   6.776
  503TIP3   OH223067   6.804   4.307   1.515
  503TIP3    H123068   6.790   4.315   1.610
  503TIP3    H223069   6.724   4.342   1.476
  504TIP3   OH223070   0.970   0.410   1.786
  504TIP3    H123071   0.949   0.333   1.840
  504TIP3    H223072   0.916   0.480   1.821
  505TIP3   OH223073   4.641   3.797   6.521
  505TIP3    H123074   4.724   3.782   6.476
  505TIP3    H223075   4.651   3.882   6.563
  506TIP3   OH223076   2.451   0.247   1.721
  506TIP3    H123077   2.407   0.217   1.641
  506TIP3    H223078   2.385   0.300   1.766
  507TIP3   OH223079   1.848   2.575   1.600
  507TIP3    H123080   1.788   2.593   1.672
  507TIP3    H223081   1.895   2.496   1.627
  508TIP3   OH223082   0.897   3.335   8.216
  508TIP3    H123083   0.885   3.311   8.308
  508TIP3    H223084   0.850   3.268   8.167
  509TIP3   OH223085   0.250   4.905   0.600
  509TIP3    H123086   0.336   4.947   0.589
  509TIP3    H223087   0.187   4.974   0.581
  510TIP3   OH223088   2.169   0.671   7.089
  510TIP3    H123089   2.166   0.742   7.153
  510TIP3    H223090   2.132   0.595   7.135
  511TIP3   OH223091   3.874   5.043   7.215
  511TIP3    H123092   3.964   5.046   7.181
  511TIP3    H223093   3.842   5.133   7.206
  512TIP3   OH223094   1.124   4.042   7.205
  512TIP3    H123095   1.218   4.048   7.226
  512TIP3    H223096   1.082   4.099   7.270
  513TIP3   OH223097   1.302   6.638   1.384
  513TIP3    H123098   1.341   6.717   1.347
  513TIP3    H223099   1.212   6.663   1.407
  514TIP3   OH223100   5.630   4.886   1.544
  514TIP3    H123101   5.676   4.928   1.617
  514TIP3    H223102   5.661   4.932   1.466
  515TIP3   OH223103   2.806   4.150   7.105
  515TIP3    H123104   2.725   4.132   7.153
  515TIP3    H223105   2.845   4.224   7.151
  516TIP3   OH223106   1.058   3.929   1.282
  516TIP3    H123107   0.969   3.953   1.307
  516TIP3    H223108   1.062   3.834   1.296
  517TIP3   OH223109   5.044   5.070   7.868
  517TIP3    H123110   5.126   5.083   7.916
  517TIP3    H223111   4.979   5.121   7.916
  518TIP3   OH223112   6.333   0.389   0.116
  518TIP3    H123113   6.410   0.407   0.169
  518TIP3    H223114   6.267   0.361   0.179
  519TIP3   OH223115   3.693   3.560   7.431
  519TIP3    H123116   3.717   3.474   7.465
  519TIP3    H223117   3.756   3.576   7.361
  520TIP3   OH223118   3.870   5.713   0.963
  520TIP3    H123119   3.925   5.758   0.899
  520TIP3    H223120   3.931   5.682   1.030
  521TIP3   OH223121   1.092   5.573   0.980
  521TIP3    H123122   1.109   5.639   0.913
  521TIP3    H223123   1.048   5.502   0.934
  522TIP3   OH223124   4.927   4.884   6.714
  522TIP3    H123125   4.891   4.929   6.637
  522TIP3    H223126   4.951   4.955   6.773
  523TIP3   OH223127   1.458   4.782   8.310
  523TIP3    H123128   1.483   4.690   8.304
  523TIP3    H223129   1.419   4.791   8.397
  524TIP3   OH223130   0.436   6.398   7.995
  524TIP3    H123131   0.363   6.426   7.940
  524TIP3    H223132   0.437   6.459   8.068
  525TIP3   OH223133   6.712   6.662   8.755
  525TIP3    H123134   6.676   6.724   0.027
  525TIP3    H223135   6.750   6.718   8.686
  526TIP3   OH223136   4.214   4.774   0.449
  526TIP3    H123137   4.276   4.720   0.401
  526TIP3    H223138   4.220   4.743   0.539
  527TIP3   OH223139   1.230   0.394   1.686
  527TIP3    H123140   1.145   0.426   1.717
  527TIP3    H223141   1.230   0.411   1.592
  528TIP3   OH223142   5.279   5.613   6.694
  528TIP3    H123143   5.189   5.603   6.663
  528TIP3    H223144   5.300   5.705   6.679
  529TIP3   OH223145   6.649   1.927   2.171
  529TIP3    H123146   6.661   1.879   2.253
  529TIP3    H223147   6.695   1.874   2.105
  530TIP3   OH223148   4.307   4.989   8.171
  530TIP3    H123149   4.382   4.999   8.113
  530TIP3    H223150   4.237   4.955   8.115
  531TIP3   OH223151   3.812   1.981   7.848
  531TIP3    H123152   3.890   1.930   7.868
  531TIP3    H223153   3.842   2.053   7.794
  532TIP3   OH223154   0.110   3.981   0.021
  532TIP3    H123155   0.060   4.034   0.083
  532TIP3    H223156   0.199   4.015   0.026
  533TIP3   OH223157   6.373   4.401   8.746
  533TIP3    H123158   6.373   4.390   8.651
  533TIP3    H223159   6.328   4.323   8.779
  534TIP3   OH223160   1.898   3.675   8.099
  534TIP3    H123161   1.805   3.668   8.078
  534TIP3    H223162   1.942   3.665   8.015
  535TIP3   OH223163   5.640   4.627   0.650
  535TIP3    H123164   5.685   4.543   0.663
  535TIP3    H223165   5.694   4.672   0.584
  536TIP3   OH223166   4.582   2.534   0.995
  536TIP3    H123167   4.625   2.495   1.071
  536TIP3    H223168   4.531   2.606   1.032
  537TIP3   OH223169   0.198   2.170   8.774
  537TIP3    H123170   0.203   2.097   8.711
  537TIP3    H223171   0.115   2.213   8.755
  538TIP3   OH223172   0.979   2.092   7.779
  538TIP3    H123173   0.978   2.155   7.706
  538TIP3    H223174   1.070   2.089   7.807
  539TIP3   OH223175   2.410   6.203   0.870
  539TIP3    H123176   2.391   6.294   0.849
  539TIP3    H223177   2.372   6.190   0.956
  540TIP3   OH223178   1.187   0.037   0.164
  540TIP3    H123179   1.270   0.015   0.121
  540TIP3    H223180   1.193   6.811   0.250
  541TIP3   OH223181   4.435   2.216   8.524
  541TIP3    H123182   4.470   2.304   8.541
  541TIP3    H223183   4.504   2.172   8.475
  542TIP3   OH223184   2.403   1.304   0.356
  542TIP3    H123185   2.388   1.396   0.332
  542TIP3    H223186   2.353   1.254   0.292
  543TIP3   OH223187   6.077   4.712   6.670
  543TIP3    H123188   6.122   4.732   6.589
  543TIP3    H223189   5.986   4.740   6.655
  544TIP3   OH223190   0.778   0.533   6.251
  544TIP3    H123191   0.847   0.598   6.237
  544TIP3    H223192   0.709   0.581   6.297
  545TIP3   OH223193   6.356   3.876   2.732
  545TIP3    H123194   6.382   3.787   2.711
  545TIP3    H223195   6.415   3.903   2.802
  546TIP3   OH223196   0.330   4.236   0.583
  546TIP3    H123197   0.288   4.321   0.598
  546TIP3    H223198   0.285   4.200   0.506
  547TIP3   OH223199   1.270   6.632   6.559
  547TIP3    H123200   1.249   6.542   6.535
  547TIP3    H223201   1.186   6.677   6.563
  548TIP3   OH223202   4.922   0.551   7.876
  548TIP3    H123203   5.009   0.584   7.902
  548TIP3    H223204   4.886   0.513   7.956
  549TIP3   OH223205   6.601   3.927   7.408
  549TIP3    H123206   6.616   3.962   7.496
  549TIP3    H223207   6.516   3.963   7.382
  550TIP3   OH223208   5.215   5.102   0.070
  550TIP3    H123209   5.197   5.173   0.132
  550TIP3    H223210   5.140   5.102   0.011
  551TIP3   OH223211   0.254   4.301   6.361
  551TIP3    H123212   0.181   4.247   6.392
  551TIP3    H223213   0.323   4.239   6.341
  552TIP3   OH223214   3.360   5.520   7.312
  552TIP3    H123215   3.303   5.491   7.383
  552TIP3    H223216   3.413   5.444   7.290
  553TIP3   OH223217   3.464   1.818   0.333
  553TIP3    H123218   3.430   1.735   0.301
  553TIP3    H223219   3.517   1.852   0.262
  554TIP3   OH223220   3.248   3.112   8.144
  554TIP3    H123221   3.269   3.027   8.106
  554TIP3    H223222   3.257   3.100   8.238
  555TIP3   OH223223   1.845   4.264   0.593
  555TIP3    H123224   1.769   4.289   0.541
  555TIP3    H223225   1.910   4.237   0.528
  556TIP3   OH223226   2.956   1.437   1.121
  556TIP3    H123227   3.016   1.509   1.103
  556TIP3    H223228   2.983   1.403   1.206
  557TIP3   OH223229   2.384   1.530   8.236
  557TIP3    H123230   2.384   1.536   8.140
  557TIP3    H223231   2.447   1.460   8.255
  558TIP3   OH223232   2.408   3.997   0.396
  558TIP3    H123233   2.483   3.939   0.406
  558TIP3    H223234   2.345   3.967   0.461
  559TIP3   OH223235   6.209   5.538   0.649
  559TIP3    H123236   6.292   5.496   0.624
  559TIP3    H223237   6.221   5.562   0.741
  560TIP3   OH223238   0.545   0.659   0.567
  560TIP3    H123239   0.604   0.721   0.524
  560TIP3    H223240   0.527   0.698   0.652
  561TIP3   OH223241   0.432   3.531   6.439
  561TIP3    H123242   0.472   3.448   6.465
  561TIP3    H223243   0.492   3.567   6.373
  562TIP3   OH223244   0.194   3.744   8.708
  562TIP3    H123245   0.188   3.830   8.749
  562TIP3    H223246   0.134   3.689   8.759
  563TIP3   OH223247   0.451   4.141   6.267
  563TIP3    H123248   0.546   4.127   6.262
  563TIP3    H223249   0.414   4.053   6.258
  564TIP3   OH223250   2.266   3.693   8.775
  564TIP3    H123251   2.347   3.661   0.024
  564TIP3    H223252   2.198   3.669   0.047
  565TIP3   OH223253   1.056   5.439   1.798
  565TIP3    H123254   1.107   5.380   1.742
  565TIP3    H223255   1.065   5.402   1.886
  566TIP3   OH223256   0.644   3.762   2.724
  566TIP3    H123257   0.664   3.718   2.641
  566TIP3    H223258   0.640   3.691   2.788
  567TIP3   OH223259   0.978   0.689   1.853
  567TIP3    H123260   0.971   0.685   1.948
  567TIP3    H223261   1.072   0.699   1.836
  568TIP3   OH223262   0.490   3.155   7.853
  568TIP3    H123263   0.582   3.174   7.833
  568TIP3    H223264   0.461   3.230   7.905
  569TIP3   OH223265   4.719   5.277   7.063
  569TIP3    H123266   4.747   5.252   6.975
  569TIP3    H223267   4.774   5.226   7.122
  570TIP3   OH223268   5.194   2.574   7.597
  570TIP3    H123269   5.195   2.594   7.503
  570TIP3    H223270   5.262   2.630   7.635
  571TIP3   OH223271   2.909   2.224   1.026
  571TIP3    H123272   2.855   2.271   0.963
  571TIP3    H223273   2.848   2.196   1.094
  572TIP3   OH223274   6.677   3.023   0.603
  572TIP3    H123275   6.669   2.937   0.642
  572TIP3    H223276   6.638   3.083   0.666
  573TIP3   OH223277   6.608   0.944   7.934
  573TIP3    H123278   6.517   0.929   7.908
  573TIP3    H223279   6.660   0.897   7.868
  574TIP3   OH223280   1.609   2.152   8.675
  574TIP3    H123281   1.588   2.236   8.635
  574TIP3    H223282   1.526   2.104   8.677
  575TIP3   OH223283   5.110   3.355   1.188
  575TIP3    H123284   5.188   3.301   1.177
  575TIP3    H223285   5.046   3.297   1.230
  576TIP3   OH223286   2.987   4.076   8.295
  576TIP3    H123287   3.001   4.163   8.332
  576TIP3    H223288   2.899   4.051   8.325
  577TIP3   OH223289   4.089   4.413   7.963
  577TIP3    H123290   4.057   4.331   8.000
  577TIP3    H223291   4.040   4.481   8.010
  578TIP3   OH223292   0.737   5.243   6.795
  578TIP3    H123293   0.691   5.303   6.854
  578TIP3    H223294   0.679   5.234   6.720
  579TIP3   OH223295   2.050   6.042   1.183
  579TIP3    H123296   2.003   5.973   1.134
  579TIP3    H223297   2.069   6.002   1.268
  580TIP3   OH223298   0.160   0.836   0.691
  580TIP3    H123299   0.206   0.789   0.622
  580TIP3    H223300   0.070   0.804   0.687
  581TIP3   OH223301   3.464   3.094   2.459
  581TIP3    H123302   3.489   3.081   2.551
  581TIP3    H223303   3.481   3.187   2.443
  582TIP3   OH223304   5.090   1.998   2.091
  582TIP3    H123305   5.113   2.041   2.009
  582TIP3    H223306   5.065   2.070   2.150
  583TIP3   OH223307   2.759   1.810   8.721
  583TIP3    H123308   2.702   1.808   0.007
  583TIP3    H223309   2.699   1.824   8.648
  584TIP3   OH223310   3.397   1.912   7.309
  584TIP3    H123311   3.372   1.973   7.379
  584TIP3    H223312   3.448   1.844   7.354
  585TIP3   OH223313   2.172   3.964   8.438
  585TIP3    H123314   2.106   4.012   8.388
  585TIP3    H223315   2.255   4.004   8.413
  586TIP3   OH223316   0.188   3.566   6.554
  586TIP3    H123317   0.268   3.547   6.504
  586TIP3    H223318   0.140   3.484   6.553
  587TIP3   OH223319   0.332   6.534   1.133
  587TIP3    H123320   0.311   6.534   1.227
  587TIP3    H223321   0.248   6.518   1.090
  588TIP3   OH223322   3.700   2.188   2.119
  588TIP3    H123323   3.765   2.207   2.052
  588TIP3    H223324   3.619   2.226   2.085
  589TIP3   OH223325   3.634   5.428   8.656
  589TIP3    H123326   3.640   5.472   8.571
  589TIP3    H223327   3.656   5.337   8.637
  590TIP3   OH223328   2.611   2.112   0.324
  590TIP3    H123329   2.525   2.074   0.306
  590TIP3    H223330   2.620   2.182   0.260
  591TIP3   OH223331   5.174   0.871   7.983
  591TIP3    H123332   5.188   0.809   7.912
  591TIP3    H223333   5.255   0.867   8.034
  592TIP3   OH223334   6.355   0.855   8.158
  592TIP3    H123335   6.323   0.860   8.248
  592TIP3    H223336   6.295   0.909   8.107
  593TIP3   OH223337   6.422   4.370   8.092
  593TIP3    H123338   6.359   4.406   8.030
  593TIP3    H223339   6.472   4.446   8.123
  594TIP3   OH223340   6.563   5.214   7.630
  594TIP3    H123341   6.479   5.255   7.652
  594TIP3    H223342   6.540   5.124   7.607
  595TIP3   OH223343   5.961   6.435   7.626
  595TIP3    H123344   6.043   6.400   7.659
  595TIP3    H223345   5.894   6.373   7.657
  596TIP3   OH223346   3.581   0.728   0.661
  596TIP3    H123347   3.557   0.658   0.721
  596TIP3    H223348   3.513   0.726   0.593
  597TIP3   OH223349   6.384   1.863   1.009
  597TIP3    H123350   6.467   1.818   1.023
  597TIP3    H223351   6.408   1.956   1.001
  598TIP3   OH223352   1.703   5.508   8.231
  598TIP3    H123353   1.756   5.508   8.311
  598TIP3    H223354   1.663   5.422   8.228
  599TIP3   OH223355   3.842   2.113   0.895
  599TIP3    H123356   3.785   2.150   0.827
  599TIP3    H223357   3.782   2.088   0.965
  600TIP3   OH223358   1.112   4.440   0.565
  600TIP3    H123359   1.023   4.477   0.568
  600TIP3    H223360   1.160   4.489   0.632
  601TIP3   OH223361   1.472   6.102   8.354
  601TIP3    H123362   1.401   6.166   8.348
  601TIP3    H223363   1.441   6.026   8.304
  602TIP3   OH223364   4.725   6.570   7.562
  602TIP3    H123365   4.705   6.651   7.514
  602TIP3    H223366   4.713   6.594   7.654
  603TIP3   OH223367   3.063   5.196   8.015
  603TIP3    H123368   3.058   5.148   8.097
  603TIP3    H223369   2.991   5.160   7.962
  604TIP3   OH223370   0.315   0.151   7.195
  604TIP3    H123371   0.222   0.150   7.219
  604TIP3    H223372   0.348   0.233   7.231
  605TIP3   OH223373   6.552   6.457   1.615
  605TIP3    H123374   6.586   6.418   1.695
  605TIP3    H223375   6.501   6.387   1.573
  606TIP3   OH223376   3.744   6.620   6.481
  606TIP3    H123377   3.665   6.611   6.427
  606TIP3    H223378   3.774   6.709   6.464
  607TIP3   OH223379   2.210   2.970   8.714
  607TIP3    H123380   2.195   2.974   8.620
  607TIP3    H223381   2.238   3.059   8.738
  608TIP3   OH223382   6.399   6.424   8.396
  608TIP3    H123383   6.383   6.497   8.337
  608TIP3    H223384   6.447   6.463   8.470
  609TIP3   OH223385   5.731   2.105   2.405
  609TIP3    H123386   5.762   2.190   2.437
  609TIP3    H223387   5.676   2.071   2.476
  610TIP3   OH223388   5.318   2.672   0.809
  610TIP3    H123389   5.237   2.663   0.860
  610TIP3    H223390   5.386   2.639   0.867
  611TIP3   OH223391   1.305   3.001   6.710
  611TIP3    H123392   1.384   3.051   6.732
  611TIP3    H223393   1.295   3.013   6.615
  612TIP3   OH223394   1.627   6.548   8.048
  612TIP3    H123395   1.636   6.469   7.995
  612TIP3    H223396   1.541   6.583   8.026
  613TIP3   OH223397   2.785   1.421   0.384
  613TIP3    H123398   2.774   1.327   0.394
  613TIP3    H223399   2.716   1.460   0.438
  614TIP3   OH223400   1.736   6.046   8.401
  614TIP3    H123401   1.776   6.074   8.319
  614TIP3    H223402   1.642   6.045   8.382
  615TIP3   OH223403   4.971   1.836   0.776
  615TIP3    H123404   4.882   1.863   0.798
  615TIP3    H223405   5.023   1.916   0.780
  616TIP3   OH223406   1.465   3.615   0.572
  616TIP3    H123407   1.499   3.530   0.546
  616TIP3    H223408   1.474   3.617   0.668
  617TIP3   OH223409   0.508   5.500   0.186
  617TIP3    H123410   0.501   5.442   0.262
  617TIP3    H223411   0.510   5.441   0.111
  618TIP3   OH223412   1.466   4.127   6.528
  618TIP3    H123413   1.479   4.186   6.602
  618TIP3    H223414   1.403   4.172   6.472
  619TIP3   OH223415   4.197   6.085   7.790
  619TIP3    H123416   4.212   5.993   7.765
  619TIP3    H223417   4.164   6.080   7.879
  620TIP3   OH223418   1.345   6.512   7.129
  620TIP3    H123419   1.410   6.543   7.065
  620TIP3    H223420   1.342   6.417   7.116
  621TIP3   OH223421   4.858   0.861   0.581
  621TIP3    H123422   4.876   0.895   0.668
  621TIP3    H223423   4.837   0.768   0.595
  622TIP3   OH223424   6.351   5.790   2.356
  622TIP3    H123425   6.347   5.832   2.270
  622TIP3    H223426   6.377   5.699   2.337
  623TIP3   OH223427   1.290   1.192   7.913
  623TIP3    H123428   1.334   1.262   7.864
  623TIP3    H223429   1.275   1.230   7.999
  624TIP3   OH223430   2.632   2.113   7.229
  624TIP3    H123431   2.617   2.027   7.190
  624TIP3    H223432   2.593   2.175   7.166
  625TIP3   OH223433   3.748   0.066   8.353
  625TIP3    H123434   3.671   0.072   8.410
  625TIP3    H223435   3.806   0.136   8.383
  626TIP3   OH223436   3.062   1.435   0.543
  626TIP3    H123437   3.011   1.470   0.470
  626TIP3    H223438   3.063   1.506   0.607
  627TIP3   OH223439   1.654   3.407   7.209
  627TIP3    H123440   1.729   3.421   7.267
  627TIP3    H223441   1.600   3.343   7.256
  628TIP3   OH223442   5.060   0.586   8.466
  628TIP3    H123443   5.098   0.610   8.381
  628TIP3    H223444   5.055   0.490   8.463
  629TIP3   OH223445   1.467   0.666   7.531
  629TIP3    H123446   1.414   0.605   7.582
  629TIP3    H223447   1.540   0.688   7.589
  630TIP3   OH223448   3.692   3.442   0.939
  630TIP3    H123449   3.787   3.439   0.949
  630TIP3    H223450   3.662   3.355   0.966
  631TIP3   OH223451   1.610   6.146   0.382
  631TIP3    H123452   1.525   6.162   0.340
  631TIP3    H223453   1.653   6.082   0.325
  632TIP3   OH223454   4.859   3.408   1.770
  632TIP3    H123455   4.769   3.424   1.798
  632TIP3    H223456   4.871   3.463   1.693
  633TIP3   OH223457   3.701   6.429   0.550
  633TIP3    H123458   3.714   6.516   0.587
  633TIP3    H223459   3.637   6.387   0.608
  634TIP3   OH223460   3.711   4.925   0.779
  634TIP3    H123461   3.767   4.951   0.852
  634TIP3    H223462   3.651   4.999   0.767
  635TIP3   OH223463   4.218   3.091   1.669
  635TIP3    H123464   4.167   3.130   1.740
  635TIP3    H223465   4.284   3.158   1.649
  636TIP3   OH223466   0.358   0.126   8.371
  636TIP3    H123467   0.429   0.104   8.311
  636TIP3    H223468   0.357   0.055   8.435
  637TIP3   OH223469   1.199   1.863   1.155
  637TIP3    H123470   1.243   1.782   1.129
  637TIP3    H223471   1.244   1.932   1.106
  638TIP3   OH223472   2.400   1.035   1.303
  638TIP3    H123473   2.325   1.002   1.253
  638TIP3    H223474   2.474   1.026   1.244
  639TIP3   OH223475   6.485   6.017   7.686
  639TIP3    H123476   6.552   5.991   7.749
  639TIP3    H223477   6.402   6.000   7.731
  640TIP3   OH223478   4.608   2.241   1.351
  640TIP3    H123479   4.520   2.280   1.355
  640TIP3    H223480   4.594   2.153   1.318
  641TIP3   OH223481   3.960   0.557   6.985
  641TIP3    H123482   4.042   0.546   7.033
  641TIP3    H223483   3.952   0.652   6.973
  642TIP3   OH223484   6.663   1.478   7.957
  642TIP3    H123485   6.753   1.477   7.925
  642TIP3    H223486   6.610   1.456   7.881
  643TIP3   OH223487   2.612   1.996   6.595
  643TIP3    H123488   2.689   1.993   6.651
  643TIP3    H223489   2.642   1.963   6.510
  644TIP3   OH223490   4.435   2.702   7.188
  644TIP3    H123491   4.408   2.645   7.260
  644TIP3    H223492   4.368   2.770   7.185
  645TIP3   OH223493   0.949   4.353   2.226
  645TIP3    H123494   0.956   4.447   2.244
  645TIP3    H223495   0.857   4.338   2.206
  646TIP3   OH223496   4.034   6.211   1.219
  646TIP3    H123497   4.046   6.248   1.307
  646TIP3    H223498   3.940   6.216   1.203
  647TIP3   OH223499   3.387   3.998   8.255
  647TIP3    H123500   3.350   3.928   8.201
  647TIP3    H223501   3.355   3.979   8.343
  648TIP3   OH223502   0.332   0.876   6.515
  648TIP3    H123503   0.244   0.902   6.488
  648TIP3    H223504   0.386   0.953   6.498
  649TIP3   OH223505   1.470   0.634   1.211
  649TIP3    H123506   1.534   0.706   1.207
  649TIP3    H223507   1.385   0.677   1.205
  650TIP3   OH223508   5.943   0.577   8.784
  650TIP3    H123509   5.904   0.662   0.014
  650TIP3    H223510   5.868   0.522   8.761
  651TIP3   OH223511   5.707   2.814   8.510
  651TIP3    H123512   5.761   2.739   8.485
  651TIP3    H223513   5.624   2.775   8.537
  652TIP3   OH223514   1.541   5.465   8.737
  652TIP3    H123515   1.553   5.428   0.034
  652TIP3    H223516   1.560   5.558   8.748
  653TIP3   OH223517   2.760   5.161   8.316
  653TIP3    H123518   2.713   5.087   8.354
  653TIP3    H223519   2.800   5.205   8.391
  654TIP3   OH223520   1.082   0.082   8.113
  654TIP3    H123521   1.000   0.131   8.126
  654TIP3    H223522   1.054   6.814   8.073
  655TIP3   OH223523   4.222   0.859   0.676
  655TIP3    H123524   4.312   0.832   0.694
  655TIP3    H223525   4.230   0.916   0.599
  656TIP3   OH223526   6.676   6.682   8.112
  656TIP3    H123527   6.672   6.776   8.091
  656TIP3    H223528   6.744   6.676   8.179
  657TIP3   OH223529   4.762   3.351   2.122
  657TIP3    H123530   4.767   3.398   2.205
  657TIP3    H223531   4.802   3.266   2.140
  658TIP3   OH223532   3.968   0.767   1.654
  658TIP3    H123533   4.012   0.840   1.610
  658TIP3    H223534   3.889   0.806   1.692
  659TIP3   OH223535   5.587   0.140   1.348
  659TIP3    H123536   5.663   0.121   1.402
  659TIP3    H223537   5.533   0.199   1.401
  660TIP3   OH223538   3.170   2.896   7.941
  660TIP3    H123539   3.251   2.889   7.890
  660TIP3    H223540   3.173   2.822   8.001
  661TIP3   OH223541   5.323   4.332   0.192
  661TIP3    H123542   5.415   4.340   0.165
  661TIP3    H223543   5.298   4.421   0.218
  662TIP3   OH223544   2.639   2.529   0.635
  662TIP3    H123545   2.678   2.474   0.567
  662TIP3    H223546   2.553   2.552   0.602
  663TIP3   OH223547   4.094   3.611   1.189
  663TIP3    H123548   4.135   3.630   1.274
  663TIP3    H223549   4.045   3.530   1.203
  664TIP3   OH223550   0.059   4.177   6.539
  664TIP3    H123551   0.036   4.092   6.502
  664TIP3    H223552   6.792   4.228   6.533
  665TIP3   OH223553   5.826   5.007   0.484
  665TIP3    H123554   5.760   5.075   0.472
  665TIP3    H223555   5.793   4.933   0.433
  666TIP3   OH223556   6.760   5.914   1.951
  666TIP3    H123557   0.035   5.901   1.981
  666TIP3    H223558   6.768   5.924   1.856
  667TIP3   OH223559   3.895   1.308   2.313
  667TIP3    H123560   3.896   1.303   2.217
  667TIP3    H223561   3.817   1.261   2.339
  668TIP3   OH223562   6.048   0.550   8.339
  668TIP3    H123563   6.004   0.480   8.291
  668TIP3    H223564   5.983   0.581   8.402
  669TIP3   OH223565   6.704   4.889   0.929
  669TIP3    H123566   6.771   4.833   0.967
  669TIP3    H223567   6.737   4.978   0.942
  670TIP3   OH223568   1.377   3.556   1.606
  670TIP3    H123569   1.381   3.634   1.550
  670TIP3    H223570   1.354   3.590   1.693
  671TIP3   OH223571   1.793   2.447   1.142
  671TIP3    H123572   1.737   2.451   1.065
  671TIP3    H223573   1.836   2.532   1.145
  672TIP3   OH223574   1.827   0.864   8.402
  672TIP3    H123575   1.832   0.769   8.390
  672TIP3    H223576   1.899   0.885   8.462
  673TIP3   OH223577   5.436   6.297   1.473
  673TIP3    H123578   5.419   6.385   1.439
  673TIP3    H223579   5.500   6.259   1.412
  674TIP3   OH223580   1.935   2.704   1.128
  674TIP3    H123581   2.026   2.705   1.097
  674TIP3    H223582   1.908   2.795   1.126
  675TIP3   OH223583   1.593   2.497   0.631
  675TIP3    H123584   1.649   2.501   0.553
  675TIP3    H223585   1.517   2.447   0.603
  676TIP3   OH223586   6.073   4.954   2.460
  676TIP3    H123587   6.009   5.002   2.407
  676TIP3    H223588   6.149   5.012   2.464
  677TIP3   OH223589   0.239   6.746   0.446
  677TIP3    H123590   0.227   6.698   0.529
  677TIP3    H223591   0.263   6.679   0.383
  678TIP3   OH223592   5.387   4.981   1.354
  678TIP3    H123593   5.451   5.050   1.370
  678TIP3    H223594   5.315   5.001   1.413
  679TIP3   OH223595   6.766   0.913   0.461
  679TIP3    H123596   6.747   0.954   0.546
  679TIP3    H223597   6.723   0.827   0.466
  680TIP3   OH223598   1.006   5.070   2.346
  680TIP3    H123599   0.918   5.108   2.337
  680TIP3    H223600   1.058   5.111   2.277
  681TIP3   OH223601   6.291   5.185   8.335
  681TIP3    H123602   6.373   5.214   8.295
  681TIP3    H223603   6.248   5.266   8.363
  682TIP3   OH223604   1.860   0.104   0.411
  682TIP3    H123605   1.860   0.200   0.406
  682TIP3    H223606   1.952   0.080   0.399
  683TIP3   OH223607   5.255   4.323   8.474
  683TIP3    H123608   5.339   4.367   8.479
  683TIP3    H223609   5.191   4.390   8.498
  684TIP3   OH223610   2.402   1.899   7.979
  684TIP3    H123611   2.481   1.942   7.947
  684TIP3    H223612   2.335   1.967   7.976
  685TIP3   OH223613   2.483   2.187   1.892
  685TIP3    H123614   2.497   2.094   1.911
  685TIP3    H223615   2.549   2.232   1.945
  686TIP3   OH223616   1.229   3.062   6.445
  686TIP3    H123617   1.163   3.043   6.379
  686TIP3    H223618   1.257   3.151   6.426
  687TIP3   OH223619   0.284   0.083   1.663
  687TIP3    H123620   0.218   0.052   1.601
  687TIP3    H223621   0.342   0.007   1.676
  688TIP3   OH223622   4.004   0.813   1.974
  688TIP3    H123623   3.978   0.806   1.882
  688TIP3    H223624   3.955   0.744   2.018
  689TIP3   OH223625   6.188   0.126   0.189
  689TIP3    H123626   6.125   0.129   0.118
  689TIP3    H223627   6.157   0.192   0.251
  690TIP3   OH223628   0.089   3.268   0.372
  690TIP3    H123629   0.018   3.264   0.309
  690TIP3    H223630   0.152   3.202   0.342
  691TIP3   OH223631   3.445   1.583   0.111
  691TIP3    H123632   3.493   1.658   0.077
  691TIP3    H223633   3.489   1.507   0.072
  692TIP3   OH223634   2.087   0.393   0.964
  692TIP3    H123635   2.069   0.302   0.987
  692TIP3    H223636   2.131   0.388   0.879
  693TIP3   OH223637   1.382   2.605   8.307
  693TIP3    H123638   1.396   2.613   8.213
  693TIP3    H223639   1.469   2.618   8.345
  694TIP3   OH223640   6.001   4.954   8.108
  694TIP3    H123641   5.927   4.938   8.050
  694TIP3    H223642   5.994   5.047   8.130
  695TIP3   OH223643   0.432   3.629   8.381
  695TIP3    H123644   0.461   3.695   8.318
  695TIP3    H223645   0.343   3.655   8.404
  696TIP3   OH223646   4.591   1.307   8.761
  696TIP3    H123647   4.527   1.268   0.029
  696TIP3    H223648   4.567   1.400   8.758
  697TIP3   OH223649   0.709   6.195   6.696
  697TIP3    H123650   0.713   6.284   6.661
  697TIP3    H223651   0.616   6.182   6.716
  698TIP3   OH223652   4.788   6.013   8.168
  698TIP3    H123653   4.695   6.017   8.147
  698TIP3    H223654   4.812   5.921   8.150
  699TIP3   OH223655   1.646   4.693   7.625
  699TIP3    H123656   1.739   4.676   7.608
  699TIP3    H223657   1.606   4.606   7.623
  700TIP3   OH223658   3.059   1.390   1.382
  700TIP3    H123659   2.980   1.364   1.431
  700TIP3    H223660   3.098   1.459   1.435
  701TIP3   OH223661   4.951   2.683   7.704
  701TIP3    H123662   4.945   2.747   7.634
  701TIP3    H223663   5.040   2.647   7.697
  702TIP3   OH223664   6.044   5.108   1.790
  702TIP3    H123665   6.085   5.123   1.705
  702TIP3    H223666   6.069   5.185   1.842
  703TIP3   OH223667   4.312   2.115   1.552
  703TIP3    H123668   4.335   2.114   1.645
  703TIP3    H223669   4.284   2.025   1.533
  704TIP3   OH223670   2.648   1.799   2.181
  704TIP3    H123671   2.613   1.887   2.195
  704TIP3    H223672   2.662   1.794   2.087
  705TIP3   OH223673   0.009   3.931   1.973
  705TIP3    H123674   6.751   3.939   2.035
  705TIP3    H223675   0.021   4.019   1.938
  706TIP3   OH223676   6.404   4.114   8.609
  706TIP3    H123677   6.378   4.194   8.564
  706TIP3    H223678   6.330   4.095   8.667
  707TIP3   OH223679   2.218   2.961   0.480
  707TIP3    H123680   2.185   2.924   0.398
  707TIP3    H223681   2.143   2.961   0.538
  708TIP3   OH223682   5.332   5.975   0.996
  708TIP3    H123683   5.384   5.931   0.929
  708TIP3    H223684   5.254   5.922   1.006
  709TIP3   OH223685   2.510   0.447   8.596
  709TIP3    H123686   2.496   0.436   8.690
  709TIP3    H223687   2.440   0.396   8.555
  710TIP3   OH223688   0.080   0.172   0.922
  710TIP3    H123689   0.004   0.206   0.968
  710TIP3    H223690   0.107   0.243   0.864
  711TIP3   OH223691   2.445   2.717   7.190
  711TIP3    H123692   2.436   2.652   7.261
  711TIP3    H223693   2.394   2.681   7.118
  712TIP3   OH223694   1.097   0.101   1.865
  712TIP3    H123695   1.035   0.120   1.935
  712TIP3    H223696   1.124   0.010   1.882
  713TIP3   OH223697   4.334   3.772   8.075
  713TIP3    H123698   4.323   3.686   8.035
  713TIP3    H223699   4.246   3.798   8.102
  714TIP3   OH223700   1.987   3.658   7.804
  714TIP3    H123701   2.082   3.647   7.796
  714TIP3    H223702   1.973   3.752   7.798
  715TIP3   OH223703   4.137   1.171   0.229
  715TIP3    H123704   4.107   1.094   0.181
  715TIP3    H223705   4.225   1.188   0.194
  716TIP3   OH223706   2.473   4.899   6.389
  716TIP3    H123707   2.435   4.970   6.440
  716TIP3    H223708   2.527   4.851   6.451
  717TIP3   OH223709   6.012   0.167   7.942
  717TIP3    H123710   6.015   0.161   8.037
  717TIP3    H223711   6.020   0.261   7.924
  718TIP3   OH223712   5.469   5.364   8.379
  718TIP3    H123713   5.525   5.415   8.438
  718TIP3    H223714   5.509   5.277   8.378
  719TIP3   OH223715   4.953   0.442   1.998
  719TIP3    H123716   4.978   0.461   2.089
  719TIP3    H223717   4.862   0.414   2.004
  720TIP3   OH223718   0.118   6.138   1.693
  720TIP3    H123719   0.066   6.129   1.613
  720TIP3    H223720   0.080   6.215   1.737
  721TIP3   OH223721   0.802   2.529   1.687
  721TIP3    H123722   0.755   2.602   1.726
  721TIP3    H223723   0.857   2.495   1.758
  722TIP3   OH223724   0.297   0.948   8.319
  722TIP3    H123725   0.242   0.890   8.372
  722TIP3    H223726   0.275   1.036   8.349
  723TIP3   OH223727   0.203   3.937   0.474
  723TIP3    H123728   0.295   3.917   0.490
  723TIP3    H223729   0.172   3.866   0.419
  724TIP3   OH223730   4.312   4.229   1.910
  724TIP3    H123731   4.322   4.319   1.940
  724TIP3    H223732   4.364   4.177   1.971
  725TIP3   OH223733   4.066   3.079   1.438
  725TIP3    H123734   4.090   3.106   1.526
  725TIP3    H223735   3.973   3.055   1.444
  726TIP3   OH223736   5.819   6.119   8.577
  726TIP3    H123737   5.893   6.139   8.635
  726TIP3    H223738   5.839   6.164   8.496
  727TIP3   OH223739   5.993   5.914   1.834
  727TIP3    H123740   5.947   5.913   1.750
  727TIP3    H223741   6.012   6.007   1.850
  728TIP3   OH223742   3.722   6.130   8.031
  728TIP3    H123743   3.701   6.202   7.970
  728TIP3    H223744   3.817   6.120   8.024
  729TIP3   OH223745   5.493   5.953   8.207
  729TIP3    H123746   5.471   5.982   8.119
  729TIP3    H223747   5.418   5.902   8.235
  730TIP3   OH223748   0.152   2.008   8.535
  730TIP3    H123749   0.126   2.091   8.495
  730TIP3    H223750   0.212   1.968   8.472
  731TIP3   OH223751   6.098   2.962   8.778
  731TIP3    H123752   6.146   3.045   8.785
  731TIP3    H223753   6.022   2.984   8.723
  732TIP3   OH223754   3.713   1.702   7.340
  732TIP3    H123755   3.735   1.790   7.308
  732TIP3    H223756   3.643   1.672   7.282
  733TIP3   OH223757   2.111   2.095   6.782
  733TIP3    H123758   2.128   2.002   6.767
  733TIP3    H223759   2.087   2.129   6.695
  734TIP3   OH223760   0.032   0.918   0.131
  734TIP3    H123761   0.001   0.925   0.041
  734TIP3    H223762   0.068   0.830   0.137
  735TIP3   OH223763   6.378   4.207   2.231
  735TIP3    H123764   6.284   4.223   2.222
  735TIP3    H223765   6.416   4.242   2.151
  736TIP3   OH223766   4.978   3.200   0.543
  736TIP3    H123767   4.888   3.188   0.573
  736TIP3    H223768   5.026   3.228   0.621
  737TIP3   OH223769   5.111   6.424   1.488
  737TIP3    H123770   5.071   6.338   1.503
  737TIP3    H223771   5.174   6.408   1.417
  738TIP3   OH223772   1.083   2.182   7.521
  738TIP3    H123773   1.041   2.253   7.473
  738TIP3    H223774   1.177   2.197   7.510
  739TIP3   OH223775   3.454   2.883   0.246
  739TIP3    H123776   3.472   2.954   0.308
  739TIP3    H223777   3.370   2.905   0.207
  740TIP3   OH223778   0.547   1.195   8.635
  740TIP3    H123779   0.514   1.211   8.546
  740TIP3    H223780   0.504   1.261   8.689
  741TIP3   OH223781   5.394   0.506   2.190
  741TIP3    H123782   5.311   0.537   2.227
  741TIP3    H223783   5.393   0.411   2.205
  742TIP3   OH223784   6.061   5.819   7.261
  742TIP3    H123785   6.023   5.870   7.190
  742TIP3    H223786   6.051   5.874   7.338
  743TIP3   OH223787   2.751   3.894   7.796
  743TIP3    H123788   2.738   3.948   7.718
  743TIP3    H223789   2.832   3.928   7.835
  744TIP3   OH223790   0.385   5.957   1.516
  744TIP3    H123791   0.394   6.025   1.450
  744TIP3    H223792   0.392   5.875   1.467
  745TIP3   OH223793   4.551   3.941   8.763
  745TIP3    H123794   4.515   3.861   8.725
  745TIP3    H223795   4.477   4.001   8.767
  746TIP3   OH223796   0.313   4.937   7.912
  746TIP3    H123797   0.311   4.886   7.992
  746TIP3    H223798   0.256   5.012   7.930
  747TIP3   OH223799   0.714   0.577   0.261
  747TIP3    H123800   0.774   0.637   0.216
  747TIP3    H223801   0.726   0.597   0.354
  748TIP3   OH223802   4.125   0.634   7.386
  748TIP3    H123803   4.119   0.540   7.367
  748TIP3    H223804   4.160   0.638   7.475
  749TIP3   OH223805   5.014   0.086   0.277
  749TIP3    H123806   4.919   0.100   0.269
  749TIP3    H223807   5.023   0.031   0.354
  750TIP3   OH223808   1.141   2.876   2.509
  750TIP3    H123809   1.138   2.901   2.601
  750TIP3    H223810   1.108   2.787   2.506
  751TIP3   OH223811   1.758   3.092   1.581
  751TIP3    H123812   1.753   3.108   1.675
  751TIP3    H223813   1.671   3.114   1.548
  752TIP3   OH223814   1.594   4.238   1.745
  752TIP3    H123815   1.603   4.290   1.825
  752TIP3    H223816   1.668   4.264   1.691
  753TIP3   OH223817   2.066   4.355   1.130
  753TIP3    H123818   2.009   4.432   1.137
  753TIP3    H223819   2.011   4.288   1.091
  754TIP3   OH223820   0.321   4.570   8.659
  754TIP3    H123821   0.382   4.499   8.676
  754TIP3    H223822   0.376   4.643   8.631
  755TIP3   OH223823   4.807   1.789   8.210
  755TIP3    H123824   4.770   1.764   8.295
  755TIP3    H223825   4.827   1.882   8.219
  756TIP3   OH223826   0.655   4.671   0.793
  756TIP3    H123827   0.607   4.595   0.760
  756TIP3    H223828   0.610   4.746   0.755
  757TIP3   OH223829   4.103   2.301   7.135
  757TIP3    H123830   4.075   2.358   7.063
  757TIP3    H223831   4.156   2.234   7.092
  758TIP3   OH223832   6.437   5.313   7.199
  758TIP3    H123833   6.455   5.364   7.120
  758TIP3    H223834   6.402   5.230   7.167
  759TIP3   OH223835   4.827   3.145   7.792
  759TIP3    H123836   4.797   3.189   7.713
  759TIP3    H223837   4.918   3.173   7.803
  760TIP3   OH223838   6.294   4.632   1.848
  760TIP3    H123839   6.208   4.627   1.891
  760TIP3    H223840   6.275   4.668   1.761
  761TIP3   OH223841   4.394   0.816   1.919
  761TIP3    H123842   4.419   0.724   1.915
  761TIP3    H223843   4.410   0.849   1.831
  762TIP3   OH223844   1.810   6.505   7.638
  762TIP3    H123845   1.871   6.444   7.680
  762TIP3    H223846   1.827   6.495   7.545
  763TIP3   OH223847   4.231   1.817   0.913
  763TIP3    H123848   4.238   1.874   0.837
  763TIP3    H223849   4.146   1.775   0.904
  764TIP3   OH223850   2.528   3.946   1.858
  764TIP3    H123851   2.531   3.887   1.934
  764TIP3    H223852   2.480   4.022   1.889
  765TIP3   OH223853   2.413   4.309   8.052
  765TIP3    H123854   2.323   4.314   8.083
  765TIP3    H223855   2.464   4.357   8.118
  766TIP3   OH223856   2.796   2.884   8.092
  766TIP3    H123857   2.850   2.806   8.108
  766TIP3    H223858   2.787   2.888   7.997
  767TIP3   OH223859   2.909   3.817   2.018
  767TIP3    H123860   2.838   3.878   2.038
  767TIP3    H223861   2.961   3.814   2.099
  768TIP3   OH223862   2.224   2.238   7.547
  768TIP3    H123863   2.258   2.322   7.578
  768TIP3    H223864   2.211   2.251   7.453
  769TIP3   OH223865   3.080   5.291   0.627
  769TIP3    H123866   3.128   5.367   0.659
  769TIP3    H223867   3.103   5.285   0.535
  770TIP3   OH223868   1.049   5.507   0.154
  770TIP3    H123869   0.955   5.524   0.142
  770TIP3    H223870   1.063   5.521   0.248
  771TIP3   OH223871   4.764   2.812   2.171
  771TIP3    H123872   4.727   2.871   2.105
  771TIP3    H223873   4.736   2.850   2.255
  772TIP3   OH223874   1.304   5.768   7.460
  772TIP3    H123875   1.384   5.751   7.509
  772TIP3    H223876   1.269   5.680   7.442
  773TIP3   OH223877   0.978   6.189   8.280
  773TIP3    H123878   0.911   6.253   8.306
  773TIP3    H223879   0.951   6.162   8.192
  774TIP3   OH223880   5.075   6.785   2.221
  774TIP3    H123881   5.048   6.782   2.129
  774TIP3    H223882   5.084   0.063   2.241
  775TIP3   OH223883   3.915   3.329   1.115
  775TIP3    H123884   3.845   3.267   1.097
  775TIP3    H223885   3.871   3.403   1.156
  776TIP3   OH223886   5.654   0.091   2.553
  776TIP3    H123887   5.578   0.146   2.570
  776TIP3    H223888   5.727   0.152   2.544
  777TIP3   OH223889   4.490   5.653   0.086
  777TIP3    H123890   4.462   5.693   0.004
  777TIP3    H223891   4.418   5.594   0.110
  778TIP3   OH223892   0.964   1.320   7.899
  778TIP3    H123893   0.876   1.283   7.905
  778TIP3    H223894   1.006   1.295   7.982
  779TIP3   OH223895   4.760   2.564   2.419
  779TIP3    H123896   4.845   2.519   2.428
  779TIP3    H223897   4.783   2.657   2.416
  780TIP3   OH223898   4.907   0.349   7.408
  780TIP3    H123899   4.824   0.395   7.404
  780TIP3    H223900   4.884   0.261   7.439
  781TIP3   OH223901   4.060   2.362   2.712
  781TIP3    H123902   4.082   2.422   2.641
  781TIP3    H223903   4.040   2.419   2.786
  782TIP3   OH223904   0.511   0.140   2.175
  782TIP3    H123905   0.566   0.062   2.178
  782TIP3    H223906   0.522   0.174   2.086
  783TIP3   OH223907   6.657   6.671   0.598
  783TIP3    H123908   6.635   6.629   0.515
  783TIP3    H223909   6.721   6.738   0.576
  784TIP3   OH223910   0.620   5.405   1.093
  784TIP3    H123911   0.598   5.317   1.123
  784TIP3    H223912   0.537   5.442   1.063
  785TIP3   OH223913   3.745   3.387   1.461
  785TIP3    H123914   3.805   3.347   1.524
  785TIP3    H223915   3.685   3.439   1.514
  786TIP3   OH223916   6.519   4.349   0.531
  786TIP3    H123917   6.498   4.281   0.595
  786TIP3    H223918   6.591   4.399   0.571
  787TIP3   OH223919   4.626   1.778   1.630
  787TIP3    H123920   4.553   1.721   1.606
  787TIP3    H223921   4.699   1.717   1.647
  788TIP3   OH223922   0.311   2.040   7.485
  788TIP3    H123923   0.301   2.099   7.411
  788TIP3    H223924   0.310   1.952   7.447
  789TIP3   OH223925   2.542   0.225   7.631
  789TIP3    H123926   2.541   0.309   7.677
  789TIP3    H223927   2.633   0.215   7.601
  790TIP3   OH223928   0.843   0.050   0.520
  790TIP3    H123929   0.751   0.076   0.512
  790TIP3    H223930   0.863   0.061   0.613
  791TIP3   OH223931   5.933   2.885   7.734
  791TIP3    H123932   5.924   2.921   7.646
  791TIP3    H223933   5.844   2.880   7.768
  792TIP3   OH223934   6.180   0.327   1.320
  792TIP3    H123935   6.221   0.366   1.397
  792TIP3    H223936   6.241   0.344   1.248
  793TIP3   OH223937   2.570   1.650   2.640
  793TIP3    H123938   2.524   1.649   2.556
  793TIP3    H223939   2.576   1.742   2.663
  794TIP3   OH223940   4.233   2.863   1.924
  794TIP3    H123941   4.230   2.861   1.828
  794TIP3    H223942   4.257   2.774   1.949
  795TIP3   OH223943   6.722   0.130   8.326
  795TIP3    H123944   6.655   0.151   8.391
  795TIP3    H223945   6.734   0.211   8.276
  796TIP3   OH223946   4.963   5.233   0.646
  796TIP3    H123947   4.898   5.269   0.585
  796TIP3    H223948   5.017   5.308   0.670
  797TIP3   OH223949   1.167   1.876   0.636
  797TIP3    H123950   1.192   1.961   0.673
  797TIP3    H223951   1.232   1.815   0.672
  798TIP3   OH223952   2.270   6.161   1.075
  798TIP3    H123953   2.203   6.104   1.112
  798TIP3    H223954   2.223   6.223   1.020
  799TIP3   OH223955   1.943   3.918   6.147
  799TIP3    H123956   1.863   3.890   6.191
  799TIP3    H223957   1.940   4.013   6.149
  800TIP3   OH223958   1.410   3.700   8.668
  800TIP3    H123959   1.462   3.717   8.590
  800TIP3    H223960   1.415   3.605   8.680
  801TIP3   OH223961   1.321   5.589   7.010
  801TIP3    H123962   1.275   5.531   7.070
  801TIP3    H223963   1.328   5.672   7.057
  802TIP3   OH223964   1.115   4.223   8.134
  802TIP3    H123965   1.157   4.225   8.220
  802TIP3    H223966   1.188   4.211   8.073
  803TIP3   OH223967   6.385   4.893   8.726
  803TIP3    H123968   6.428   4.809   8.740
  803TIP3    H223969   6.446   4.942   8.671
  804TIP3   OH223970   5.163   2.020   0.334
  804TIP3    H123971   5.209   2.033   0.251
  804TIP3    H223972   5.234   2.012   0.399
  805TIP3   OH223973   0.167   2.234   6.764
  805TIP3    H123974   0.218   2.156   6.743
  805TIP3    H223975   0.083   2.219   6.722
  806TIP3   OH223976   2.236   5.483   7.492
  806TIP3    H123977   2.148   5.508   7.465
  806TIP3    H223978   2.283   5.469   7.410
  807TIP3   OH223979   2.441   6.294   0.203
  807TIP3    H123980   2.354   6.276   0.239
  807TIP3    H223981   2.425   6.307   0.109
  808TIP3   OH223982   3.600   2.991   7.407
  808TIP3    H123983   3.686   3.029   7.391
  808TIP3    H223984   3.619   2.904   7.443
  809TIP3   OH223985   2.382   3.214   7.790
  809TIP3    H123986   2.386   3.302   7.751
  809TIP3    H223987   2.412   3.156   7.721
  810TIP3   OH223988   6.098   6.636   0.100
  810TIP3    H123989   6.157   6.649   0.026
  810TIP3    H223990   6.153   6.653   0.177
  811TIP3   OH223991   2.117   2.154   0.061
  811TIP3    H123992   2.182   2.089   0.034
  811TIP3    H223993   2.117   2.218   8.781
  812TIP3   OH223994   3.989   4.420   8.251
  812TIP3    H123995   3.979   4.332   8.288
  812TIP3    H223996   3.918   4.470   8.291
  813TIP3   OH223997   2.468   0.547   8.051
  813TIP3    H123998   2.557   0.517   8.068
  813TIP3    H223999   2.473   0.592   7.966
  814TIP3   OH224000   5.427   1.646   1.637
  814TIP3    H124001   5.358   1.590   1.674
  814TIP3    H224002   5.388   1.685   1.559
  815TIP3   OH224003   1.440   0.067   1.323
  815TIP3    H124004   1.513   0.101   1.374
  815TIP3    H224005   1.385   0.144   1.304
  816TIP3   OH224006   4.682   0.574   1.723
  816TIP3    H124007   4.706   0.625   1.645
  816TIP3    H224008   4.762   0.526   1.746
  817TIP3   OH224009   5.462   6.340   1.048
  817TIP3    H124010   5.556   6.332   1.067
  817TIP3    H224011   5.421   6.273   1.103
  818TIP3   OH224012   1.426   5.999   7.367
  818TIP3    H124013   1.450   6.066   7.431
  818TIP3    H224014   1.381   5.932   7.418
  819TIP3   OH224015   3.926   4.396   0.103
  819TIP3    H124016   3.941   4.345   0.183
  819TIP3    H224017   3.910   4.330   0.035
  820TIP3   OH224018   0.959   5.222   7.336
  820TIP3    H124019   0.990   5.145   7.384
  820TIP3    H224020   1.036   5.278   7.328
  821TIP3   OH224021   4.859   3.898   8.744
  821TIP3    H124022   4.789   3.950   8.704
  821TIP3    H224023   4.813   3.832   0.004
  822TIP3   OH224024   4.841   5.046   1.072
  822TIP3    H124025   4.828   4.956   1.040
  822TIP3    H224026   4.754   5.074   1.101
  823TIP3   OH224027   6.527   4.469   7.764
  823TIP3    H124028   6.458   4.531   7.785
  823TIP3    H224029   6.517   4.454   7.670
  824TIP3   OH224030   0.193   5.861   2.007
  824TIP3    H124031   0.231   5.920   1.940
  824TIP3    H224032   0.252   5.786   2.008
  825TIP3   OH224033   2.643   1.839   6.369
  825TIP3    H124034   2.593   1.761   6.344
  825TIP3    H224035   2.662   1.883   6.285
  826TIP3   OH224036   2.533   2.885   0.569
  826TIP3    H124037   2.454   2.853   0.527
  826TIP3    H224038   2.604   2.833   0.530
  827TIP3   OH224039   5.318   0.931   0.251
  827TIP3    H124040   5.231   0.909   0.216
  827TIP3    H224041   5.376   0.865   0.214
  828TIP3   OH224042   1.416   4.905   7.153
  828TIP3    H124043   1.382   4.895   7.064
  828TIP3    H224044   1.511   4.896   7.144
  829TIP3   OH224045   3.592   2.759   1.456
  829TIP3    H124046   3.603   2.799   1.543
  829TIP3    H224047   3.660   2.798   1.402
  830TIP3   OH224048   3.460   4.810   0.958
  830TIP3    H124049   3.497   4.898   0.960
  830TIP3    H224050   3.447   4.792   0.865
  831TIP3   OH224051   3.776   6.223   1.108
  831TIP3    H124052   3.693   6.196   1.070
  831TIP3    H224053   3.755   6.244   1.199
  832TIP3   OH224054   2.079   4.984   0.329
  832TIP3    H124055   2.087   4.973   0.424
  832TIP3    H224056   2.024   4.910   0.302
  833TIP3   OH224057   5.716   5.236   7.268
  833TIP3    H124058   5.683   5.181   7.197
  833TIP3    H224059   5.811   5.233   7.258
  834TIP3   OH224060   1.838   4.985   2.159
  834TIP3    H124061   1.892   5.000   2.237
  834TIP3    H224062   1.781   4.912   2.183
  835TIP3   OH224063   6.412   3.537   2.179
  835TIP3    H124064   6.333   3.493   2.146
  835TIP3    H224065   6.405   3.627   2.147
  836TIP3   OH224066   0.512   3.880   7.816
  836TIP3    H124067   0.510   3.942   7.743
  836TIP3    H224068   0.425   3.841   7.817
  837TIP3   OH224069   2.015   5.968   7.724
  837TIP3    H124070   2.061   5.901   7.672
  837TIP3    H224071   2.023   5.939   7.814
  838TIP3   OH224072   4.985   6.208   0.632
  838TIP3    H124073   4.977   6.164   0.716
  838TIP3    H224074   5.059   6.164   0.589
  839TIP3   OH224075   2.233   6.682   2.150
  839TIP3    H124076   2.155   6.713   2.105
  839TIP3    H224077   2.222   6.587   2.154
  840TIP3   OH224078   5.803   2.749   7.239
  840TIP3    H124079   5.868   2.737   7.170
  840TIP3    H224080   5.844   2.808   7.302
  841TIP3   OH224081   4.090   2.623   7.637
  841TIP3    H124082   4.145   2.547   7.620
  841TIP3    H224083   4.128   2.692   7.583
  842TIP3   OH224084   5.583   3.783   0.558
  842TIP3    H124085   5.657   3.724   0.549
  842TIP3    H224086   5.530   3.746   0.629
  843TIP3   OH224087   2.099   5.898   1.734
  843TIP3    H124088   2.028   5.955   1.764
  843TIP3    H224089   2.114   5.839   1.807
  844TIP3   OH224090   3.225   2.988   2.527
  844TIP3    H124091   3.305   3.033   2.500
  844TIP3    H224092   3.245   2.895   2.517
  845TIP3   OH224093   6.595   0.355   1.981
  845TIP3    H124094   6.623   0.339   1.891
  845TIP3    H224095   6.662   0.312   2.035
  846TIP3   OH224096   5.342   4.084   1.476
  846TIP3    H124097   5.427   4.081   1.432
  846TIP3    H224098   5.364   4.085   1.570
  847TIP3   OH224099   5.772   4.298   6.401
  847TIP3    H124100   5.696   4.279   6.455
  847TIP3    H224101   5.803   4.212   6.372
  848TIP3   OH224102   1.757   1.666   7.282
  848TIP3    H124103   1.794   1.732   7.224
  848TIP3    H224104   1.718   1.601   7.223
  849TIP3   OH224105   1.828   2.989   8.620
  849TIP3    H124106   1.811   3.051   8.691
  849TIP3    H224107   1.749   2.992   8.566
  850TIP3   OH224108   5.774   5.833   8.491
  850TIP3    H124109   5.781   5.746   8.531
  850TIP3    H224110   5.831   5.888   8.545
  851TIP3   OH224111   1.008   3.580   1.061
  851TIP3    H124112   0.992   3.601   0.969
  851TIP3    H224113   1.062   3.501   1.058
  852TIP3   OH224114   1.351   5.431   7.531
  852TIP3    H124115   1.299   5.493   7.481
  852TIP3    H224116   1.388   5.372   7.465
  853TIP3   OH224117   0.530   2.315   7.842
  853TIP3    H124118   0.593   2.336   7.911
  853TIP3    H224119   0.546   2.381   7.774
  854TIP3   OH224120   5.862   0.733   0.798
  854TIP3    H124121   5.825   0.660   0.748
  854TIP3    H224122   5.861   0.703   0.889
  855TIP3   OH224123   3.239   1.774   2.270
  855TIP3    H124124   3.170   1.841   2.274
  855TIP3    H224125   3.289   1.786   2.351
  856TIP3   OH224126   6.602   6.316   7.412
  856TIP3    H124127   6.559   6.247   7.361
  856TIP3    H224128   6.581   6.295   7.503
  857TIP3   OH224129   5.626   5.762   7.850
  857TIP3    H124130   5.567   5.690   7.828
  857TIP3    H224131   5.705   5.745   7.800
  858TIP3   OH224132   1.409   4.913   0.501
  858TIP3    H124133   1.451   4.975   0.561
  858TIP3    H224134   1.328   4.887   0.545
  859TIP3   OH224135   4.813   6.094   8.421
  859TIP3    H124136   4.815   6.081   8.326
  859TIP3    H224137   4.773   6.014   8.455
  860TIP3   OH224138   0.308   4.737   7.381
  860TIP3    H124139   0.360   4.658   7.364
  860TIP3    H224140   0.290   4.733   7.475
  861TIP3   OH224141   5.328   4.323   8.201
  861TIP3    H124142   5.350   4.344   8.292
  861TIP3    H224143   5.383   4.248   8.180
  862TIP3   OH224144   2.438   3.615   8.312
  862TIP3    H124145   2.521   3.624   8.359
  862TIP3    H224146   2.373   3.648   8.374
  863TIP3   OH224147   0.506   1.019   2.340
  863TIP3    H124148   0.563   0.945   2.361
  863TIP3    H224149   0.427   0.979   2.304
  864TIP3   OH224150   0.625   5.452   6.946
  864TIP3    H124151   0.692   5.474   7.011
  864TIP3    H224152   0.631   5.521   6.881
  865TIP3   OH224153   5.270   6.623   2.338
  865TIP3    H124154   5.274   6.672   2.420
  865TIP3    H224155   5.199   6.665   2.288
  866TIP3   OH224156   3.172   6.300   0.413
  866TIP3    H124157   3.223   6.242   0.470
  866TIP3    H224158   3.087   6.309   0.456
  867TIP3   OH224159   3.211   0.496   0.698
  867TIP3    H124160   3.218   0.573   0.753
  867TIP3    H224161   3.117   0.486   0.682
  868TIP3   OH224162   0.409   4.009   0.006
  868TIP3    H124163   0.504   4.022   0.003
  868TIP3    H224164   0.395   3.946   0.076
  869TIP3   OH224165   2.882   4.926   7.129
  869TIP3    H124166   2.855   5.010   7.167
  869TIP3    H224167   2.852   4.930   7.039
  870TIP3   OH224168   6.669   5.677   0.181
  870TIP3    H124169   6.606   5.735   0.138
  870TIP3    H224170   6.630   5.590   0.172
  871TIP3   OH224171   4.979   3.692   0.679
  871TIP3    H124172   5.068   3.660   0.694
  871TIP3    H224173   4.975   3.708   0.585
  872TIP3   OH224174   3.473   2.252   1.917
  872TIP3    H124175   3.430   2.323   1.964
  872TIP3    H224176   3.554   2.292   1.883
  873TIP3   OH224177   5.297   6.423   7.104
  873TIP3    H124178   5.271   6.470   7.025
  873TIP3    H224179   5.351   6.351   7.072
  874TIP3   OH224180   5.318   2.580   0.556
  874TIP3    H124181   5.306   2.609   0.647
  874TIP3    H224182   5.386   2.513   0.562
  875TIP3   OH224183   3.897   1.262   1.725
  875TIP3    H124184   3.926   1.284   1.636
  875TIP3    H224185   3.933   1.332   1.780
  876TIP3   OH224186   0.236   6.673   6.595
  876TIP3    H124187   0.269   6.587   6.618
  876TIP3    H224188   0.167   6.656   6.530
  877TIP3   OH224189   0.278   5.157   8.763
  877TIP3    H124190   0.205   5.203   0.016
  877TIP3    H224191   0.325   5.114   0.044
  878TIP3   OH224192   5.924   2.143   1.794
  878TIP3    H124193   5.895   2.177   1.710
  878TIP3    H224194   5.925   2.048   1.783
  879TIP3   OH224195   2.140   6.005   0.209
  879TIP3    H124196   2.154   6.092   0.246
  879TIP3    H224197   2.195   5.947   0.261
  880TIP3   OH224198   0.684   6.094   7.439
  880TIP3    H124199   0.596   6.098   7.404
  880TIP3    H224200   0.677   6.040   7.517
  881TIP3   OH224201   3.311   2.022   1.466
  881TIP3    H124202   3.404   2.035   1.448
  881TIP3    H224203   3.268   2.039   1.382
  882TIP3   OH224204   4.385   2.860   0.120
  882TIP3    H124205   4.459   2.896   0.071
  882TIP3    H224206   4.372   2.922   0.192
  883TIP3   OH224207   3.715   1.548   2.065
  883TIP3    H124208   3.803   1.583   2.071
  883TIP3    H224209   3.666   1.612   2.013
  884TIP3   OH224210   1.266   5.653   0.212
  884TIP3    H124211   1.201   5.611   0.156
  884TIP3    H224212   1.222   5.667   0.295
  885TIP3   OH224213   1.667   0.435   0.726
  885TIP3    H124214   1.616   0.460   0.649
  885TIP3    H224215   1.705   0.350   0.702
  886TIP3   OH224216   1.492   3.383   2.403
  886TIP3    H124217   1.541   3.414   2.328
  886TIP3    H224218   1.455   3.462   2.443
  887TIP3   OH224219   6.603   6.051   7.991
  887TIP3    H124220   6.676   6.105   8.020
  887TIP3    H224221   6.528   6.084   8.040
  888TIP3   OH224222   0.213   3.983   7.315
  888TIP3    H124223   0.240   4.066   7.354
  888TIP3    H224224   0.120   3.994   7.296
  889TIP3   OH224225   0.136   4.565   8.165
  889TIP3    H124226   0.128   4.515   8.246
  889TIP3    H224227   0.097   4.509   8.098
  890TIP3   OH224228   5.412   4.428   7.210
  890TIP3    H124229   5.380   4.454   7.123
  890TIP3    H224230   5.506   4.413   7.197
  891TIP3   OH224231   5.182   6.325   1.942
  891TIP3    H124232   5.201   6.238   1.978
  891TIP3    H224233   5.093   6.344   1.971
  892TIP3   OH224234   3.253   3.050   0.548
  892TIP3    H124235   3.161   3.066   0.569
  892TIP3    H224236   3.257   2.957   0.525
  893TIP3   OH224237   1.214   1.864   8.142
  893TIP3    H124238   1.166   1.908   8.212
  893TIP3    H224239   1.185   1.773   8.148
  894TIP3   OH224240   6.572   4.793   1.171
  894TIP3    H124241   6.616   4.773   1.254
  894TIP3    H224242   6.625   4.863   1.133
  895TIP3   OH224243   5.914   2.892   0.714
  895TIP3    H124244   5.912   2.870   0.807
  895TIP3    H224245   5.963   2.821   0.673
  896TIP3   OH224246   4.721   5.472   1.201
  896TIP3    H124247   4.752   5.413   1.271
  896TIP3    H224248   4.638   5.434   1.174
  897TIP3   OH224249   1.282   1.606   7.472
  897TIP3    H124250   1.316   1.635   7.557
  897TIP3    H224251   1.193   1.640   7.470
  898TIP3   OH224252   0.089   4.212   6.905
  898TIP3    H124253   0.096   4.278   6.836
  898TIP3    H224254   6.810   4.204   6.921
  899TIP3   OH224255   3.448   6.538   1.125
  899TIP3    H124256   3.416   6.522   1.037
  899TIP3    H224257   3.463   6.450   1.162
  900TIP3   OH224258   3.755   2.870   1.277
  900TIP3    H124259   3.694   2.930   1.236
  900TIP3    H224260   3.829   2.865   1.216
  901TIP3   OH224261   1.875   1.897   0.627
  901TIP3    H124262   1.783   1.871   0.633
  901TIP3    H224263   1.908   1.853   0.549
  902TIP3   OH224264   4.554   0.931   2.140
  902TIP3    H124265   4.572   1.016   2.099
  902TIP3    H224266   4.520   0.877   2.068
  903TIP3   OH224267   2.268   2.295   7.244
  903TIP3    H124268   2.198   2.345   7.202
  903TIP3    H224269   2.281   2.219   7.187
  904TIP3   OH224270   4.534   0.284   2.478
  904TIP3    H124271   4.450   0.317   2.511
  904TIP3    H224272   4.573   0.359   2.434
  905TIP3   OH224273   1.773   3.774   1.806
  905TIP3    H124274   1.684   3.762   1.839
  905TIP3    H224275   1.761   3.816   1.720
  906TIP3   OH224276   0.132   2.610   1.978
  906TIP3    H124277   0.050   2.579   1.940
  906TIP3    H224278   0.148   2.552   2.053
  907TIP3   OH224279   1.095   1.290   6.046
  907TIP3    H124280   1.029   1.310   5.979
  907TIP3    H224281   1.142   1.214   6.011
  908TIP3   OH224282   0.968   6.701   7.532
  908TIP3    H124283   1.045   6.700   7.587
  908TIP3    H224284   0.993   6.755   7.457
  909TIP3   OH224285   5.177   5.234   1.493
  909TIP3    H124286   5.202   5.289   1.419
  909TIP3    H224287   5.138   5.157   1.453
  910TIP3   OH224288   5.512   4.337   7.504
  910TIP3    H124289   5.430   4.376   7.533
  910TIP3    H224290   5.552   4.405   7.448
  911TIP3   OH224291   3.886   2.363   7.483
  911TIP3    H124292   3.863   2.322   7.400
  911TIP3    H224293   3.971   2.404   7.467
  912TIP3   OH224294   6.605   5.494   1.847
  912TIP3    H124295   6.641   5.409   1.871
  912TIP3    H224296   6.527   5.503   1.903
  913TIP3   OH224297   6.713   3.215   1.712
  913TIP3    H124298   6.617   3.221   1.718
  913TIP3    H224299   6.734   3.266   1.634
  914TIP3   OH224300   5.511   0.969   1.830
  914TIP3    H124301   5.528   1.049   1.779
  914TIP3    H224302   5.593   0.955   1.878
  915TIP3   OH224303   3.051   1.710   1.857
  915TIP3    H124304   3.137   1.753   1.859
  915TIP3    H224305   2.990   1.781   1.840
  916TIP3   OH224306   5.484   5.521   7.835
  916TIP3    H124307   5.480   5.487   7.746
  916TIP3    H224308   5.483   5.443   7.891
  917TIP3   OH224309   5.378   0.044   7.727
  917TIP3    H124310   5.472   0.062   7.728
  917TIP3    H224311   5.372   6.765   7.704
  918TIP3   OH224312   1.093   6.441   0.842
  918TIP3    H124313   1.159   6.374   0.859
  918TIP3    H224314   1.023   6.395   0.796
  919TIP3   OH224315   0.968   6.551   0.508
  919TIP3    H124316   1.018   6.626   0.540
  919TIP3    H224317   0.909   6.588   0.442
  920TIP3   OH224318   6.440   3.624   0.709
  920TIP3    H124319   6.395   3.584   0.635
  920TIP3    H224320   6.406   3.578   0.786
  921TIP3   OH224321   5.782   3.637   1.473
  921TIP3    H124322   5.772   3.732   1.480
  921TIP3    H224323   5.725   3.602   1.541
  922TIP3   OH224324   1.395   5.302   8.569
  922TIP3    H124325   1.446   5.333   8.644
  922TIP3    H224326   1.305   5.331   8.588
  923TIP3   OH224327   2.805   4.843   8.622
  923TIP3    H124328   2.779   4.758   8.586
  923TIP3    H224329   2.831   4.823   8.712
  924TIP3   OH224330   1.945   0.579   7.252
  924TIP3    H124331   1.926   0.671   7.233
  924TIP3    H224332   1.906   0.531   7.179
  925TIP3   OH224333   1.319   4.478   0.285
  925TIP3    H124334   1.277   4.407   0.332
  925TIP3    H224335   1.359   4.437   0.208
  926TIP3   OH224336   2.585   6.455   0.772
  926TIP3    H124337   2.546   6.419   0.693
  926TIP3    H224338   2.678   6.466   0.750
  927TIP3   OH224339   1.590   4.049   2.163
  927TIP3    H124340   1.674   4.095   2.167
  927TIP3    H224341   1.546   4.072   2.245
  928TIP3   OH224342   3.495   1.877   8.216
  928TIP3    H124343   3.415   1.920   8.183
  928TIP3    H224344   3.564   1.909   8.158
  929TIP3   OH224345   5.084   1.738   8.288
  929TIP3    H124346   5.093   1.646   8.312
  929TIP3    H224347   4.990   1.750   8.274
  930TIP3   OH224348   1.764   6.275   0.156
  930TIP3    H124349   1.687   6.316   0.196
  930TIP3    H224350   1.740   6.183   0.146
  931TIP3   OH224351   2.612   3.076   7.031
  931TIP3    H124352   2.673   3.021   6.982
  931TIP3    H224353   2.565   3.126   6.964
  932TIP3   OH224354   5.727   5.921   0.600
  932TIP3    H124355   5.806   5.974   0.592
  932TIP3    H224356   5.746   5.857   0.669
  933TIP3   OH224357   1.508   1.847   8.146
  933TIP3    H124358   1.589   1.809   8.111
  933TIP3    H224359   1.442   1.828   8.080
  934TIP3   OH224360   6.740   2.951   7.471
  934TIP3    H124361   6.798   3.024   7.493
  934TIP3    H224362   6.665   2.961   7.530
  935TIP3   OH224363   5.482   5.408   6.727
  935TIP3    H124364   5.531   5.401   6.809
  935TIP3    H224365   5.417   5.476   6.744
  936TIP3   OH224366   4.272   0.510   8.085
  936TIP3    H124367   4.317   0.509   8.001
  936TIP3    H224368   4.339   0.483   8.148
  937TIP3   OH224369   4.230   3.080   6.710
  937TIP3    H124370   4.149   3.110   6.752
  937TIP3    H224371   4.201   3.040   6.629
  938TIP3   OH224372   3.301   4.369   6.870
  938TIP3    H124373   3.301   4.307   6.944
  938TIP3    H224374   3.213   4.406   6.870
  939TIP3   OH224375   3.990   2.515   2.313
  939TIP3    H124376   4.014   2.518   2.405
  939TIP3    H224377   3.900   2.482   2.313
  940TIP3   OH224378   1.415   4.487   6.702
  940TIP3    H124379   1.431   4.564   6.756
  940TIP3    H224380   1.481   4.424   6.729
  941TIP3   OH224381   4.923   5.040   0.365
  941TIP3    H124382   4.925   4.998   0.452
  941TIP3    H224383   4.988   4.992   0.314
  942TIP3   OH224384   4.164   1.730   8.214
  942TIP3    H124385   4.184   1.665   8.147
  942TIP3    H224386   4.240   1.727   8.273
  943TIP3   OH224387   2.118   4.802   8.040
  943TIP3    H124388   2.179   4.788   7.967
  943TIP3    H224389   2.156   4.753   8.113
  944TIP3   OH224390   0.794   3.728   1.903
  944TIP3    H124391   0.764   3.774   1.981
  944TIP3    H224392   0.815   3.640   1.934
  945TIP3   OH224393   0.952   0.619   0.796
  945TIP3    H124394   0.908   0.616   0.711
  945TIP3    H224395   0.881   0.614   0.859
  946TIP3   OH224396   5.102   5.838   1.075
  946TIP3    H124397   5.093   5.847   1.169
  946TIP3    H224398   5.067   5.751   1.055
  947TIP3   OH224399   2.801   2.845   0.444
  947TIP3    H124400   2.807   2.898   0.363
  947TIP3    H224401   2.840   2.761   0.420
  948TIP3   OH224402   2.580   3.347   0.695
  948TIP3    H124403   2.560   3.291   0.769
  948TIP3    H224404   2.621   3.289   0.631
  949TIP3   OH224405   5.936   4.406   0.777
  949TIP3    H124406   5.842   4.401   0.797
  949TIP3    H224407   5.941   4.458   0.696
  950TIP3   OH224408   5.989   3.111   1.146
  950TIP3    H124409   6.040   3.057   1.086
  950TIP3    H224410   6.026   3.198   1.137
  951TIP3   OH224411   1.963   3.080   0.596
  951TIP3    H124412   1.871   3.077   0.622
  951TIP3    H224413   1.966   3.144   0.525
  952TIP3   OH224414   5.993   6.343   1.613
  952TIP3    H124415   6.083   6.373   1.601
  952TIP3    H224416   5.954   6.407   1.672
  953TIP3   OH224417   1.623   6.802   1.742
  953TIP3    H124418   1.533   6.771   1.743
  953TIP3    H224419   1.624   0.058   1.677
  954TIP3   OH224420   3.347   1.643   1.673
  954TIP3    H124421   3.428   1.675   1.635
  954TIP3    H224422   3.328   1.704   1.745
  955TIP3   OH224423   2.964   3.837   1.263
  955TIP3    H124424   2.914   3.857   1.185
  955TIP3    H224425   2.912   3.771   1.309
  956TIP3   OH224426   1.674   4.959   7.089
  956TIP3    H124427   1.652   5.021   7.019
  956TIP3    H224428   1.756   4.919   7.060
  957TIP3   OH224429   3.409   5.537   8.056
  957TIP3    H124430   3.398   5.575   8.143
  957TIP3    H224431   3.387   5.444   8.068
  958TIP3   OH224432   6.458   5.988   1.817
  958TIP3    H124433   6.450   5.898   1.787
  958TIP3    H224434   6.551   6.009   1.805
  959TIP3   OH224435   6.437   4.496   6.716
  959TIP3    H124436   6.379   4.478   6.642
  959TIP3    H224437   6.467   4.585   6.702
  960TIP3   OH224438   5.942   5.351   7.531
  960TIP3    H124439   5.963   5.417   7.465
  960TIP3    H224440   6.012   5.286   7.523
  961TIP3   OH224441   2.140   1.337   0.508
  961TIP3    H124442   2.052   1.313   0.479
  961TIP3    H224443   2.163   1.269   0.571
  962TIP3   OH224444   1.179   0.411   1.412
  962TIP3    H124445   1.178   0.389   1.319
  962TIP3    H224446   1.103   0.468   1.424
  963TIP3   OH224447   2.764   6.690   1.951
  963TIP3    H124448   2.844   6.642   1.932
  963TIP3    H224449   2.741   6.665   2.041
  964TIP3   OH224450   3.562   2.285   7.283
  964TIP3    H124451   3.555   2.365   7.335
  964TIP3    H224452   3.656   2.270   7.275
  965TIP3   OH224453   2.254   4.267   8.748
  965TIP3    H124454   2.205   4.190   8.776
  965TIP3    H224455   2.210   4.297   8.669
  966TIP3   OH224456   3.567   5.967   8.180
  966TIP3    H124457   3.540   6.021   8.254
  966TIP3    H224458   3.633   6.019   8.135
  967TIP3   OH224459   5.588   4.296   8.640
  967TIP3    H124460   5.681   4.282   8.657
  967TIP3    H224461   5.553   4.332   8.721
  968TIP3   OH224462   3.891   6.112   7.389
  968TIP3    H124463   3.932   6.037   7.347
  968TIP3    H224464   3.831   6.146   7.322
  969TIP3   OH224465   1.114   0.142   0.710
  969TIP3    H124466   1.190   0.177   0.755
  969TIP3    H224467   1.147   0.067   0.660
  970TIP3   OH224468   5.071   3.585   7.709
  970TIP3    H124469   5.137   3.575   7.778
  970TIP3    H224470   5.033   3.671   7.726
  971TIP3   OH224471   5.519   1.840   0.728
  971TIP3    H124472   5.516   1.838   0.632
  971TIP3    H224473   5.520   1.748   0.754
  972TIP3   OH224474   1.161   6.657   1.891
  972TIP3    H124475   1.178   6.575   1.844
  972TIP3    H224476   1.126   6.629   1.976
  973TIP3   OH224477   3.799   0.329   0.686
  973TIP3    H124478   3.791   0.268   0.759
  973TIP3    H224479   3.735   0.398   0.705
  974TIP3   OH224480   1.876   4.320   7.359
  974TIP3    H124481   1.831   4.245   7.397
  974TIP3    H224482   1.893   4.294   7.269
  975TIP3   OH224483   1.909   3.648   8.648
  975TIP3    H124484   1.962   3.727   8.636
  975TIP3    H224485   1.899   3.613   8.560
  976TIP3   OH224486   5.754   0.078   1.998
  976TIP3    H124487   5.712   0.140   2.057
  976TIP3    H224488   5.682   0.033   1.955
  977TIP3   OH224489   2.300   0.413   7.233
  977TIP3    H124490   2.333   0.374   7.314
  977TIP3    H224491   2.205   0.404   7.239
  978TIP3   OH224492   5.906   5.229   6.385
  978TIP3    H124493   5.978   5.226   6.323
  978TIP3    H224494   5.859   5.310   6.364
  979TIP3   OH224495   1.322   0.270   7.075
  979TIP3    H124496   1.356   0.343   7.127
  979TIP3    H224497   1.240   0.245   7.119
  980TIP3   OH224498   2.603   4.751   0.105
  980TIP3    H124499   2.667   4.738   0.175
  980TIP3    H224500   2.589   4.663   0.069
  981TIP3   OH224501   0.513   4.890   1.384
  981TIP3    H124502   0.581   4.860   1.323
  981TIP3    H224503   0.431   4.859   1.346
  982TIP3   OH224504   1.199   0.789   7.440
  982TIP3    H124505   1.293   0.779   7.457
  982TIP3    H224506   1.157   0.722   7.494
  983TIP3   OH224507   1.129   0.711   2.131
  983TIP3    H124508   1.039   0.687   2.150
  983TIP3    H224509   1.126   0.804   2.110
  984TIP3   OH224510   6.767   4.796   8.467
  984TIP3    H124511   6.805   4.810   8.380
  984TIP3    H224512   6.708   4.721   8.455
  985TIP3   OH224513   3.398   5.746   7.864
  985TIP3    H124514   3.412   5.679   7.931
  985TIP3    H224515   3.305   5.741   7.844
  986TIP3   OH224516   2.892   4.540   0.532
  986TIP3    H124517   2.935   4.625   0.515
  986TIP3    H224518   2.801   4.563   0.551
  987TIP3   OH224519   6.296   1.131   1.513
  987TIP3    H124520   6.290   1.060   1.577
  987TIP3    H224521   6.341   1.091   1.438
  988TIP3   OH224522   2.944   3.470   1.622
  988TIP3    H124523   2.880   3.507   1.683
  988TIP3    H224524   3.009   3.539   1.610
  989TIP3   OH224525   5.551   1.565   0.221
  989TIP3    H124526   5.635   1.610   0.223
  989TIP3    H224527   5.557   1.505   0.147
  990TIP3   OH224528   2.503   4.157   0.837
  990TIP3    H124529   2.485   4.234   0.890
  990TIP3    H224530   2.496   4.188   0.747
  991TIP3   OH224531   4.291   1.272   8.767
  991TIP3    H124532   4.262   1.345   0.031
  991TIP3    H224533   4.234   1.275   8.690
  992TIP3   OH224534   6.226   3.992   2.050
  992TIP3    H124535   6.278   4.069   2.027
  992TIP3    H224536   6.171   3.976   1.973
  993TIP3   OH224537   6.778   1.082   6.736
  993TIP3    H124538   6.716   1.023   6.781
  993TIP3    H224539   6.799   1.036   6.655
  994TIP3   OH224540   4.998   5.686   0.506
  994TIP3    H124541   4.957   5.696   0.592
  994TIP3    H224542   5.084   5.728   0.515
  995TIP3   OH224543   3.713   2.436   2.261
  995TIP3    H124544   3.721   2.460   2.168
  995TIP3    H224545   3.688   2.344   2.259
  996TIP3   OH224546   4.536   1.512   8.141
  996TIP3    H124547   4.565   1.426   8.172
  996TIP3    H224548   4.442   1.502   8.130
  997TIP3   OH224549   6.662   0.993   1.475
  997TIP3    H124550   6.637   1.012   1.384
  997TIP3    H224551   6.659   1.079   1.518
  998TIP3   OH224552   1.013   1.280   1.019
  998TIP3    H124553   0.933   1.322   0.987
  998TIP3    H224554   1.056   1.347   1.073
  999TIP3   OH224555   4.012   5.857   7.802
  999TIP3    H124556   3.998   5.795   7.731
  999TIP3    H224557   3.927   5.898   7.816
 1000TIP3   OH224558   0.999   2.623   8.756
 1000TIP3    H124559   1.008   2.713   8.786
 1000TIP3    H224560   1.088   2.596   8.732
 1001TIP3   OH224561   4.746   1.724   0.572
 1001TIP3    H124562   4.840   1.714   0.587
 1001TIP3    H224563   4.737   1.719   0.477
 1002TIP3   OH224564   4.506   1.981   7.277
 1002TIP3    H124565   4.464   2.068   7.272
 1002TIP3    H224566   4.531   1.962   7.187
 1003TIP3   OH224567   5.487   3.271   0.721
 1003TIP3    H124568   5.489   3.322   0.640
 1003TIP3    H224569   5.542   3.195   0.703
 1004TIP3   OH224570   4.367   0.110   1.246
 1004TIP3    H124571   4.310   0.034   1.255
 1004TIP3    H224572   4.456   0.074   1.250
 1005TIP3   OH224573   2.805   0.198   8.576
 1005TIP3    H124574   2.799   0.282   8.529
 1005TIP3    H224575   2.880   0.154   8.536
 1006TIP3   OH224576   1.990   2.992   1.442
 1006TIP3    H124577   1.950   2.912   1.410
 1006TIP3    H224578   1.917   3.043   1.477
 1007TIP3   OH224579   3.201   3.979   6.563
 1007TIP3    H124580   3.166   3.895   6.535
 1007TIP3    H224581   3.295   3.974   6.545
 1008TIP3   OH224582   2.373   5.668   8.190
 1008TIP3    H124583   2.298   5.614   8.213
 1008TIP3    H224584   2.354   5.697   8.100
 1009TIP3   OH224585   4.633   1.095   8.587
 1009TIP3    H124586   4.634   1.177   8.636
 1009TIP3    H224587   4.692   1.111   8.513
 1010TIP3   OH224588   6.539   5.656   7.622
 1010TIP3    H124589   6.521   5.599   7.548
 1010TIP3    H224590   6.632   5.679   7.613
 1011TIP3   OH224591   2.227   6.236   0.353
 1011TIP3    H124592   2.202   6.321   0.316
 1011TIP3    H224593   2.211   6.245   0.447
 1012TIP3   OH224594   6.132   0.930   1.320
 1012TIP3    H124595   6.225   0.911   1.331
 1012TIP3    H224596   6.093   0.908   1.404
 1013TIP3   OH224597   0.791   0.166   7.048
 1013TIP3    H124598   0.796   0.074   7.022
 1013TIP3    H224599   0.698   0.189   7.038
 1014TIP3   OH224600   5.244   4.618   7.351
 1014TIP3    H124601   5.248   4.579   7.438
 1014TIP3    H224602   5.296   4.560   7.296
 1015TIP3   OH224603   3.940   2.942   1.775
 1015TIP3    H124604   3.956   3.037   1.769
 1015TIP3    H224605   3.867   2.935   1.837
 1016TIP3   OH224606   3.418   0.740   1.557
 1016TIP3    H124607   3.511   0.764   1.549
 1016TIP3    H224608   3.418   0.661   1.611
 1017TIP3   OH224609   5.938   4.410   1.723
 1017TIP3    H124610   5.852   4.368   1.710
 1017TIP3    H224611   5.998   4.337   1.735
 1018TIP3   OH224612   6.069   5.314   2.026
 1018TIP3    H124613   6.056   5.248   2.094
 1018TIP3    H224614   6.128   5.378   2.067
 1019TIP3   OH224615   3.638   2.238   0.272
 1019TIP3    H124616   3.648   2.148   0.303
 1019TIP3    H224617   3.728   2.271   0.264
 1020TIP3   OH224618   3.253   3.741   0.948
 1020TIP3    H124619   3.317   3.670   0.951
 1020TIP3    H224620   3.168   3.696   0.949
 1021TIP3   OH224621   5.691   0.498   8.664
 1021TIP3    H124622   5.677   0.429   8.599
 1021TIP3    H224623   5.607   0.544   8.668
 1022TIP3   OH224624   5.228   0.761   1.269
 1022TIP3    H124625   5.250   0.829   1.206
 1022TIP3    H224626   5.133   0.751   1.261
 1023TIP3   OH224627   0.679   2.651   1.913
 1023TIP3    H124628   0.696   2.569   1.959
 1023TIP3    H224629   0.744   2.712   1.948
 1024TIP3   OH224630   1.160   5.018   0.779
 1024TIP3    H124631   1.099   5.087   0.805
 1024TIP3    H224632   1.246   5.053   0.802
 1025TIP3   OH224633   1.052   1.631   8.325
 1025TIP3    H124634   0.963   1.604   8.351
 1025TIP3    H224635   1.098   1.642   8.408
 1026TIP3   OH224636   2.432   5.785   6.883
 1026TIP3    H124637   2.342   5.815   6.899
 1026TIP3    H224638   2.481   5.815   6.959
 1027TIP3   OH224639   0.354   0.946   7.358
 1027TIP3    H124640   0.351   1.029   7.310
 1027TIP3    H224641   0.357   0.972   7.450
 1028TIP3   OH224642   0.316   5.300   0.819
 1028TIP3    H124643   0.274   5.217   0.840
 1028TIP3    H224644   0.265   5.366   0.867
 1029TIP3   OH224645   3.311   0.564   1.173
 1029TIP3    H124646   3.346   0.575   1.261
 1029TIP3    H224647   3.226   0.522   1.186
 1030TIP3   OH224648   4.471   5.278   2.008
 1030TIP3    H124649   4.505   5.228   2.082
 1030TIP3    H224650   4.401   5.223   1.972
 1031TIP3   OH224651   3.478   2.767   1.069
 1031TIP3    H124652   3.394   2.766   1.114
 1031TIP3    H224653   3.499   2.860   1.059
 1032TIP3   OH224654   6.470   3.713   1.384
 1032TIP3    H124655   6.527   3.637   1.376
 1032TIP3    H224656   6.423   3.699   1.466
 1033TIP3   OH224657   2.143   3.648   7.430
 1033TIP3    H124658   2.097   3.658   7.347
 1033TIP3    H224659   2.140   3.735   7.470
 1034TIP3   OH224660   5.545   2.386   0.586
 1034TIP3    H124661   5.586   2.472   0.586
 1034TIP3    H224662   5.611   2.328   0.625
 1035TIP3   OH224663   2.252   2.777   7.562
 1035TIP3    H124664   2.342   2.779   7.593
 1035TIP3    H224665   2.203   2.827   7.627
 1036TIP3   OH224666   4.646   4.718   7.367
 1036TIP3    H124667   4.718   4.756   7.317
 1036TIP3    H224668   4.591   4.792   7.390
 1037TIP3   OH224669   5.311   0.348   1.033
 1037TIP3    H124670   5.399   0.311   1.041
 1037TIP3    H224671   5.325   0.443   1.037
 1038TIP3   OH224672   6.758   5.334   7.422
 1038TIP3    H124673   6.700   5.275   7.470
 1038TIP3    H224674   6.703   5.409   7.399
 1039TIP3   OH224675   3.476   3.177   7.791
 1039TIP3    H124676   3.384   3.202   7.797
 1039TIP3    H224677   3.520   3.256   7.759
 1040TIP3   OH224678   2.735   1.070   1.267
 1040TIP3    H124679   2.769   0.995   1.316
 1040TIP3    H224680   2.813   1.117   1.238
 1041TIP3   OH224681   6.327   5.631   0.911
 1041TIP3    H124682   6.293   5.593   0.992
 1041TIP3    H224683   6.406   5.679   0.937
 1042TIP3   OH224684   3.273   2.381   7.918
 1042TIP3    H124685   3.275   2.293   7.879
 1042TIP3    H224686   3.220   2.371   7.997
 1043TIP3   OH224687   5.325   2.418   2.754
 1043TIP3    H124688   5.271   2.495   2.766
 1043TIP3    H224689   5.265   2.344   2.768
 1044TIP3   OH224690   0.783   2.010   7.033
 1044TIP3    H124691   0.771   1.916   7.042
 1044TIP3    H224692   0.700   2.043   7.000
 1045TIP3   OH224693   4.580   0.918   2.584
 1045TIP3    H124694   4.565   0.989   2.647
 1045TIP3    H224695   4.665   0.882   2.609
 1046TIP3   OH224696   5.487   2.816   0.132
 1046TIP3    H124697   5.404   2.862   0.121
 1046TIP3    H224698   5.480   2.739   0.075
 1047TIP3   OH224699   1.596   0.727   7.287
 1047TIP3    H124700   1.560   0.641   7.267
 1047TIP3    H224701   1.550   0.754   7.367
 1048TIP3   OH224702   3.018   6.721   8.163
 1048TIP3    H124703   2.994   6.801   8.211
 1048TIP3    H224704   3.031   6.655   8.232
 1049TIP3   OH224705   5.861   4.821   1.056
 1049TIP3    H124706   5.860   4.850   0.965
 1049TIP3    H224707   5.848   4.901   1.107
 1050TIP3   OH224708   0.302   0.141   0.079
 1050TIP3    H124709   0.298   0.201   0.004
 1050TIP3    H224710   0.357   0.187   0.143
 1051TIP3   OH224711   4.525   4.585   0.617
 1051TIP3    H124712   4.562   4.639   0.547
 1051TIP3    H224713   4.589   4.592   0.688
 1052TIP3   OH224714   2.596   6.295   8.152
 1052TIP3    H124715   2.659   6.343   8.205
 1052TIP3    H224716   2.513   6.341   8.166
 1053TIP3   OH224717   5.326   0.597   1.064
 1053TIP3    H124718   5.272   0.660   1.112
 1053TIP3    H224719   5.321   0.625   0.973
 1054TIP3   OH224720   4.766   6.627   6.549
 1054TIP3    H124721   4.694   6.690   6.555
 1054TIP3    H224722   4.724   6.542   6.562
 1055TIP3   OH224723   5.555   5.206   1.320
 1055TIP3    H124724   5.580   5.284   1.369
 1055TIP3    H224725   5.508   5.239   1.244
 1056TIP3   OH224726   5.930   1.736   7.321
 1056TIP3    H124727   6.017   1.771   7.339
 1056TIP3    H224728   5.935   1.702   7.232
 1057TIP3   OH224729   5.031   0.567   7.585
 1057TIP3    H124730   4.940   0.559   7.556
 1057TIP3    H224731   5.029   0.543   7.678
 1058TIP3   OH224732   4.705   3.423   1.145
 1058TIP3    H124733   4.784   3.478   1.142
 1058TIP3    H224734   4.684   3.406   1.053
 1059TIP3   OH224735   3.025   1.024   0.267
 1059TIP3    H124736   2.956   0.965   0.238
 1059TIP3    H224737   3.038   1.003   0.360
 1060TIP3   OH224738   4.567   0.037   8.144
 1060TIP3    H124739   4.570   6.765   8.103
 1060TIP3    H224740   4.640   0.036   8.206
 1061TIP3   OH224741   3.846   0.774   0.591
 1061TIP3    H124742   3.760   0.733   0.589
 1061TIP3    H224743   3.852   0.822   0.509
 1062TIP3   OH224744   6.017   5.545   6.341
 1062TIP3    H124745   5.980   5.629   6.368
 1062TIP3    H224746   5.942   5.485   6.342
 1063TIP3   OH224747   0.613   4.644   0.409
 1063TIP3    H124748   0.678   4.684   0.351
 1063TIP3    H224749   0.529   4.668   0.370
 1064TIP3   OH224750   2.622   6.384   1.977
 1064TIP3    H124751   2.671   6.314   1.934
 1064TIP3    H224752   2.537   6.345   1.998
 1065TIP3   OH224753   0.337   6.025   0.930
 1065TIP3    H124754   0.376   6.112   0.924
 1065TIP3    H224755   0.281   6.018   0.853
 1066TIP3   OH224756   4.431   3.462   6.974
 1066TIP3    H124757   4.336   3.471   6.973
 1066TIP3    H224758   4.464   3.552   6.981
 1067TIP3   OH224759   4.637   1.206   8.190
 1067TIP3    H124760   4.677   1.119   8.185
 1067TIP3    H224761   4.665   1.241   8.274
 1068TIP3   OH224762   6.676   0.622   2.148
 1068TIP3    H124763   6.740   0.682   2.186
 1068TIP3    H224764   6.683   0.543   2.202
 1069TIP3   OH224765   3.055   1.913   7.381
 1069TIP3    H124766   3.024   1.826   7.407
 1069TIP3    H224767   3.110   1.942   7.453
 1070TIP3   OH224768   4.513   2.276   1.892
 1070TIP3    H124769   4.454   2.323   1.952
 1070TIP3    H224770   4.598   2.277   1.935
 1071TIP3   OH224771   6.174   6.065   1.272
 1071TIP3    H124772   6.185   6.005   1.198
 1071TIP3    H224773   6.130   6.141   1.235
 1072TIP3   OH224774   1.161   5.446   6.435
 1072TIP3    H124775   1.205   5.524   6.470
 1072TIP3    H224776   1.106   5.480   6.364
 1073TIP3   OH224777   4.795   3.926   7.993
 1073TIP3    H124778   4.871   3.869   7.983
 1073TIP3    H224779   4.817   4.004   7.941
 1074TIP3   OH224780   4.234   0.927   2.738
 1074TIP3    H124781   4.243   1.006   2.686
 1074TIP3    H224782   4.149   0.937   2.782
 1075TIP3   OH224783   0.383   1.686   0.309
 1075TIP3    H124784   0.448   1.668   0.240
 1075TIP3    H224785   0.363   1.779   0.298
 1076TIP3   OH224786   5.209   6.806   0.740
 1076TIP3    H124787   5.193   0.077   0.780
 1076TIP3    H224788   5.274   0.009   0.672
 1077TIP3   OH224789   5.480   2.929   0.820
 1077TIP3    H124790   5.422   2.860   0.789
 1077TIP3    H224791   5.497   2.907   0.912
 1078TIP3   OH224792   2.547   4.387   0.996
 1078TIP3    H124793   2.461   4.354   1.025
 1078TIP3    H224794   2.526   4.447   0.924
 1079TIP3   OH224795   1.862   4.381   7.633
 1079TIP3    H124796   1.943   4.331   7.623
 1079TIP3    H224797   1.874   4.456   7.575
 1080TIP3   OH224798   2.147   1.839   0.216
 1080TIP3    H124799   2.169   1.796   0.133
 1080TIP3    H224800   2.211   1.805   0.278
 1081TIP3   OH224801   5.564   4.097   6.934
 1081TIP3    H124802   5.515   4.146   6.868
 1081TIP3    H224803   5.625   4.043   6.884
 1082TIP3   OH224804   4.714   0.033   0.218
 1082TIP3    H124805   4.689   0.102   0.279
 1082TIP3    H224806   4.690   6.766   0.261
 1083TIP3   OH224807   1.986   4.095   8.271
 1083TIP3    H124808   1.937   4.171   8.301
 1083TIP3    H224809   1.995   4.108   8.177
 1084TIP3   OH224810   5.757   1.343   0.938
 1084TIP3    H124811   5.772   1.309   0.849
 1084TIP3    H224812   5.782   1.435   0.933
 1085TIP3   OH224813   4.232   4.161   1.281
 1085TIP3    H124814   4.196   4.091   1.228
 1085TIP3    H224815   4.200   4.144   1.370
 1086TIP3   OH224816   3.963   2.735   1.450
 1086TIP3    H124817   3.955   2.716   1.357
 1086TIP3    H224818   3.902   2.808   1.465
 1087TIP3   OH224819   6.572   5.181   1.799
 1087TIP3    H124820   6.642   5.201   1.861
 1087TIP3    H224821   6.494   5.220   1.838
 1088TIP3   OH224822   1.331   1.007   6.920
 1088TIP3    H124823   1.361   1.042   6.836
 1088TIP3    H224824   1.410   0.976   6.963
 1089TIP3   OH224825   5.311   2.430   6.696
 1089TIP3    H124826   5.292   2.508   6.748
 1089TIP3    H224827   5.245   2.430   6.627
 1090TIP3   OH224828   5.819   5.618   8.677
 1090TIP3    H124829   5.737   5.651   8.712
 1090TIP3    H224830   5.803   5.524   8.662
 1091TIP3   OH224831   0.177   6.664   6.946
 1091TIP3    H124832   0.212   6.740   6.900
 1091TIP3    H224833   0.108   6.700   7.003
 1092TIP3   OH224834   1.591   3.629   7.473
 1092TIP3    H124835   1.610   3.635   7.379
 1092TIP3    H224836   1.522   3.563   7.479
 1093TIP3   OH224837   1.261   4.535   8.031
 1093TIP3    H124838   1.256   4.532   7.936
 1093TIP3    H224839   1.274   4.628   8.052
 1094TIP3   OH224840   3.256   5.080   0.780
 1094TIP3    H124841   3.343   5.119   0.786
 1094TIP3    H224842   3.208   5.117   0.855
 1095TIP3   OH224843   3.181   6.356   0.147
 1095TIP3    H124844   3.182   6.340   0.241
 1095TIP3    H224845   3.233   6.436   0.136
 1096TIP3   OH224846   4.971   6.277   6.449
 1096TIP3    H124847   4.957   6.358   6.400
 1096TIP3    H224848   4.902   6.277   6.515
 1097TIP3   OH224849   2.181   4.339   8.227
 1097TIP3    H124850   2.172   4.247   8.253
 1097TIP3    H224851   2.091   4.366   8.207
 1098TIP3   OH224852   1.854   0.740   8.000
 1098TIP3    H124853   1.876   0.826   8.037
 1098TIP3    H224854   1.932   0.686   8.015
 1099TIP3   OH224855   4.533   0.430   0.004
 1099TIP3    H124856   4.561   0.384   8.716
 1099TIP3    H224857   4.438   0.436   8.786
 1100TIP3   OH224858   1.322   0.667   2.323
 1100TIP3    H124859   1.242   0.650   2.274
 1100TIP3    H224860   1.377   0.717   2.263
 1101TIP3   OH224861   6.146   3.056   0.260
 1101TIP3    H124862   6.144   3.000   0.182
 1101TIP3    H224863   6.093   3.009   0.325
 1102TIP3   OH224864   2.921   2.357   0.567
 1102TIP3    H124865   2.973   2.287   0.526
 1102TIP3    H224866   2.832   2.323   0.567
 1103TIP3   OH224867   6.140   5.415   8.385
 1103TIP3    H124868   6.051   5.402   8.418
 1103TIP3    H224869   6.150   5.510   8.381
 1104TIP3   OH224870   3.530   3.689   7.909
 1104TIP3    H124871   3.607   3.704   7.854
 1104TIP3    H224872   3.499   3.777   7.930
 1105TIP3   OH224873   5.622   3.111   8.394
 1105TIP3    H124874   5.604   3.174   8.324
 1105TIP3    H224875   5.716   3.117   8.408
 1106TIP3   OH224876   2.092   0.212   1.717
 1106TIP3    H124877   2.152   0.246   1.650
 1106TIP3    H224878   2.102   0.117   1.711
 1107TIP3   OH224879   3.619   5.460   1.133
 1107TIP3    H124880   3.699   5.420   1.099
 1107TIP3    H224881   3.551   5.434   1.071
 1108TIP3   OH224882   5.202   2.131   1.860
 1108TIP3    H124883   5.176   2.052   1.811
 1108TIP3    H224884   5.297   2.122   1.871
 1109TIP3   OH224885   1.425   3.023   1.123
 1109TIP3    H124886   1.372   3.086   1.172
 1109TIP3    H224887   1.495   3.000   1.183
 1110TIP3   OH224888   4.935   1.401   0.295
 1110TIP3    H124889   4.902   1.334   0.236
 1110TIP3    H224890   5.027   1.380   0.306
 1111TIP3   OH224891   5.871   6.325   8.399
 1111TIP3    H124892   5.817   6.359   8.470
 1111TIP3    H224893   5.856   6.385   8.326
 1112TIP3   OH224894   2.666   6.402   7.338
 1112TIP3    H124895   2.683   6.439   7.424
 1112TIP3    H224896   2.695   6.470   7.277
 1113TIP3   OH224897   1.113   4.609   6.837
 1113TIP3    H124898   1.131   4.701   6.815
 1113TIP3    H224899   1.066   4.575   6.761
 1114TIP3   OH224900   0.269   1.307   7.619
 1114TIP3    H124901   0.219   1.308   7.538
 1114TIP3    H224902   0.318   1.225   7.617
 1115TIP3   OH224903   5.933   3.190   7.668
 1115TIP3    H124904   6.013   3.140   7.658
 1115TIP3    H224905   5.943   3.265   7.609
 1116TIP3   OH224906   2.379   3.796   1.378
 1116TIP3    H124907   2.438   3.809   1.452
 1116TIP3    H224908   2.433   3.812   1.300
 1117TIP3   OH224909   3.786   2.566   2.026
 1117TIP3    H124910   3.784   2.660   2.009
 1117TIP3    H224911   3.801   2.526   1.941
 1118TIP3   OH224912   5.916   1.539   1.925
 1118TIP3    H124913   5.876   1.611   1.876
 1118TIP3    H224914   5.946   1.478   1.858
 1119TIP3   OH224915   2.322   4.438   0.172
 1119TIP3    H124916   2.248   4.448   0.231
 1119TIP3    H224917   2.296   4.370   0.111
 1120TIP3   OH224918   0.469   5.014   0.500
 1120TIP3    H124919   0.548   4.974   0.538
 1120TIP3    H224920   0.500   5.095   0.460
 1121TIP3   OH224921   3.460   4.426   8.086
 1121TIP3    H124922   3.498   4.511   8.110
 1121TIP3    H224923   3.398   4.447   8.016
 1122TIP3   OH224924   5.245   5.469   6.922
 1122TIP3    H124925   5.156   5.435   6.928
 1122TIP3    H224926   5.243   5.528   6.847
 1123TIP3   OH224927   3.460   3.508   0.532
 1123TIP3    H124928   3.531   3.447   0.550
 1123TIP3    H224929   3.389   3.453   0.500
 1124TIP3   OH224930   4.866   1.828   2.258
 1124TIP3    H124931   4.877   1.891   2.187
 1124TIP3    H224932   4.892   1.876   2.337
 1125TIP3   OH224933   1.067   2.013   8.318
 1125TIP3    H124934   0.972   2.008   8.306
 1125TIP3    H224935   1.079   2.061   8.399
 1126TIP3   OH224936   3.972   2.735   1.138
 1126TIP3    H124937   3.949   2.670   1.071
 1126TIP3    H224938   4.047   2.782   1.101
 1127TIP3   OH224939   0.601   1.480   1.182
 1127TIP3    H124940   0.624   1.446   1.095
 1127TIP3    H224941   0.594   1.575   1.168
 1128TIP3   OH224942   1.908   1.547   2.067
 1128TIP3    H124943   1.847   1.520   2.136
 1128TIP3    H224944   1.987   1.572   2.114
 1129TIP3   OH224945   0.001   3.021   0.212
 1129TIP3    H124946   0.080   3.046   0.260
 1129TIP3    H224947   6.812   2.926   0.220
 1130TIP3   OH224948   1.877   6.255   1.141
 1130TIP3    H124949   1.879   6.255   1.237
 1130TIP3    H224950   1.937   6.186   1.115
 1131TIP3   OH224951   5.199   3.051   0.938
 1131TIP3    H124952   5.295   3.046   0.931
 1131TIP3    H224953   5.177   2.988   1.006
 1132TIP3   OH224954   0.926   1.553   0.184
 1132TIP3    H124955   0.933   1.514   0.271
 1132TIP3    H224956   1.011   1.594   0.169
 1133TIP3   OH224957   4.978   5.576   6.626
 1133TIP3    H124958   4.927   5.625   6.562
 1133TIP3    H224959   4.990   5.490   6.587
 1134TIP3   OH224960   1.991   0.623   1.363
 1134TIP3    H124961   1.899   0.639   1.386
 1134TIP3    H224962   1.995   0.529   1.348
 1135TIP3   OH224963   1.110   1.639   0.888
 1135TIP3    H124964   1.166   1.670   0.959
 1135TIP3    H224965   1.143   1.684   0.810
 1136TIP3   OH224966   0.007   3.753   6.799
 1136TIP3    H124967   6.742   3.802   6.778
 1136TIP3    H224968   0.075   3.792   6.744
 1137TIP3   OH224969   4.704   5.756   0.817
 1137TIP3    H124970   4.708   5.753   0.913
 1137TIP3    H224971   4.793   5.737   0.789
 1138TIP3   OH224972   3.227   1.182   2.156
 1138TIP3    H124973   3.149   1.126   2.160
 1138TIP3    H224974   3.274   1.164   2.237
 1139TIP3   OH224975   4.547   3.056   2.051
 1139TIP3    H124976   4.493   3.115   1.998
 1139TIP3    H224977   4.622   3.036   1.995
 1140TIP3   OH224978   2.220   0.345   1.232
 1140TIP3    H124979   2.222   0.368   1.139
 1140TIP3    H224980   2.127   0.332   1.251
 1141TIP3   OH224981   3.526   0.558   7.587
 1141TIP3    H124982   3.602   0.527   7.636
 1141TIP3    H224983   3.536   0.653   7.584
 1142TIP3   OH224984   5.062   4.015   2.235
 1142TIP3    H124985   5.143   4.027   2.186
 1142TIP3    H224986   5.027   4.104   2.246
 1143TIP3   OH224987   1.675   4.994   8.245
 1143TIP3    H124988   1.617   4.918   8.252
 1143TIP3    H224989   1.755   4.960   8.204
 1144TIP3   OH224990   6.173   3.975   0.206
 1144TIP3    H124991   6.260   3.940   0.185
 1144TIP3    H224992   6.187   4.030   0.283
 1145TIP3   OH224993   4.750   5.015   0.029
 1145TIP3    H124994   4.663   5.035   8.788
 1145TIP3    H224995   4.741   5.014   0.125
 1146TIP3   OH224996   0.416   1.862   0.071
 1146TIP3    H124997   0.378   1.818   8.786
 1146TIP3    H224998   0.506   1.882   0.045
 1147TIP3   OH224999   0.546   4.583   7.906
 1147TIP3    H125000   0.616   4.641   7.874
 1147TIP3    H225001   0.521   4.531   7.830
 1148TIP3   OH225002   3.980   4.529   0.839
 1148TIP3    H125003   3.895   4.556   0.806
 1148TIP3    H225004   4.026   4.610   0.859
 1149TIP3   OH225005   3.144   3.571   7.913
 1149TIP3    H125006   3.202   3.498   7.934
 1149TIP3    H225007   3.073   3.531   7.863
 1150TIP3   OH225008   4.481   1.661   0.306
 1150TIP3    H125009   4.576   1.646   0.312
 1150TIP3    H225010   4.469   1.697   0.218
 1151TIP3   OH225011   3.582   1.824   1.985
 1151TIP3    H125012   3.615   1.890   1.924
 1151TIP3    H225013   3.502   1.862   2.022
 1152TIP3   OH225014   0.447   3.380   8.054
 1152TIP3    H125015   0.363   3.418   8.080
 1152TIP3    H225016   0.508   3.409   8.122
 1153TIP3   OH225017   6.753   4.403   1.805
 1153TIP3    H125018   6.814   4.458   1.855
 1153TIP3    H225019   6.668   4.422   1.843
 1154TIP3   OH225020   5.741   3.797   0.887
 1154TIP3    H125021   5.831   3.777   0.912
 1154TIP3    H225022   5.748   3.852   0.809
 1155TIP3   OH225023   1.536   3.834   1.965
 1155TIP3    H125024   1.570   3.754   2.006
 1155TIP3    H225025   1.547   3.902   2.033
 1156TIP3   OH225026   0.908   2.193   8.751
 1156TIP3    H125027   0.854   2.211   0.037
 1156TIP3    H225028   0.846   2.164   8.684
 1157TIP3   OH225029   0.702   2.479   7.386
 1157TIP3    H125030   0.741   2.478   7.299
 1157TIP3    H225031   0.724   2.565   7.422
 1158TIP3   OH225032   0.415   2.471   7.329
 1158TIP3    H125033   0.406   2.378   7.306
 1158TIP3    H225034   0.505   2.493   7.307
 1159TIP3   OH225035   3.756   1.427   0.171
 1159TIP3    H125036   3.757   1.332   0.182
 1159TIP3    H225037   3.821   1.445   0.103
 1160TIP3   OH225038   5.973   2.585   7.818
 1160TIP3    H125039   6.042   2.598   7.882
 1160TIP3    H225040   5.951   2.673   7.788
 1161TIP3   OH225041   3.880   6.488   8.096
 1161TIP3    H125042   3.907   6.567   8.141
 1161TIP3    H225043   3.805   6.514   8.042
 1162TIP3   OH225044   6.618   6.541   7.881
 1162TIP3    H125045   6.576   6.603   7.822
 1162TIP3    H225046   6.642   6.593   7.958
 1163TIP3   OH225047   4.450   5.726   7.843
 1163TIP3    H125048   4.395   5.793   7.802
 1163TIP3    H225049   4.505   5.693   7.772
 1164TIP3   OH225050   4.920   1.077   8.745
 1164TIP3    H125051   4.897   1.009   8.682
 1164TIP3    H225052   4.922   1.158   8.695
 1165TIP3   OH225053   3.708   4.733   7.665
 1165TIP3    H125054   3.644   4.752   7.734
 1165TIP3    H225055   3.655   4.705   7.590
 1166TIP3   OH225056   3.115   4.997   0.547
 1166TIP3    H125057   3.096   5.079   0.500
 1166TIP3    H225058   3.158   5.026   0.628
 1167TIP3   OH225059   0.746   1.179   0.668
 1167TIP3    H125060   0.828   1.195   0.620
 1167TIP3    H225061   0.678   1.184   0.602
 1168TIP3   OH225062   5.562   4.964   8.705
 1168TIP3    H125063   5.608   4.902   8.648
 1168TIP3    H225064   5.470   4.952   8.685
 1169TIP3   OH225065   5.862   2.208   8.399
 1169TIP3    H125066   5.951   2.173   8.401
 1169TIP3    H225067   5.810   2.141   8.355
 1170TIP3   OH225068   5.248   1.617   8.763
 1170TIP3    H125069   5.338   1.650   8.774
 1170TIP3    H225070   5.252   1.526   0.001
 1171TIP3   OH225071   2.520   0.810   0.998
 1171TIP3    H125072   2.456   0.871   1.034
 1171TIP3    H225073   2.583   0.796   1.069
 1172TIP3   OH225074   4.032   0.605   1.165
 1172TIP3    H125075   3.956   0.663   1.172
 1172TIP3    H225076   3.996   0.520   1.142
 1173TIP3   OH225077   6.720   6.606   0.881
 1173TIP3    H125078   6.666   6.612   0.803
 1173TIP3    H225079   6.657   6.592   0.952
 1174TIP3   OH225080   3.426   5.495   0.504
 1174TIP3    H125081   3.337   5.495   0.538
 1174TIP3    H225082   3.481   5.520   0.578
 1175TIP3   OH225083   1.578   2.398   8.155
 1175TIP3    H125084   1.489   2.370   8.176
 1175TIP3    H225085   1.576   2.419   8.062
 1176TIP3   OH225086   6.712   3.204   8.074
 1176TIP3    H125087   6.632   3.227   8.122
 1176TIP3    H225088   6.760   3.147   8.135
 1177TIP3   OH225089   5.817   1.687   1.721
 1177TIP3    H125090   5.803   1.651   1.634
 1177TIP3    H225091   5.732   1.677   1.765
 1178TIP3   OH225092   6.243   0.630   1.437
 1178TIP3    H125093   6.305   0.598   1.372
 1178TIP3    H225094   6.293   0.636   1.518
 1179TIP3   OH225095   1.879   3.873   0.858
 1179TIP3    H125096   1.791   3.900   0.832
 1179TIP3    H225097   1.869   3.838   0.946
 1180TIP3   OH225098   3.549   5.640   6.518
 1180TIP3    H125099   3.473   5.689   6.487
 1180TIP3    H225100   3.584   5.599   6.439
 1181TIP3   OH225101   3.867   5.926   0.210
 1181TIP3    H125102   3.815   5.846   0.218
 1181TIP3    H225103   3.887   5.950   0.300
 1182TIP3   OH225104   1.697   3.012   2.306
 1182TIP3    H125105   1.701   3.039   2.398
 1182TIP3    H225106   1.765   3.063   2.263
 1183TIP3   OH225107   1.860   0.263   1.575
 1183TIP3    H125108   1.876   0.291   1.666
 1183TIP3    H225109   1.939   0.289   1.528
 1184TIP3   OH225110   1.570   2.227   7.154
 1184TIP3    H125111   1.621   2.307   7.151
 1184TIP3    H225112   1.634   2.157   7.146
 1185TIP3   OH225113   1.744   6.577   7.166
 1185TIP3    H125114   1.798   6.656   7.158
 1185TIP3    H225115   1.670   6.603   7.221
 1186TIP3   OH225116   4.119   0.941   1.513
 1186TIP3    H125117   4.166   1.008   1.563
 1186TIP3    H225118   4.136   0.964   1.421
 1187TIP3   OH225119   3.832   2.254   6.927
 1187TIP3    H125120   3.789   2.268   6.842
 1187TIP3    H225121   3.913   2.305   6.921
 1188TIP3   OH225122   3.178   1.038   8.046
 1188TIP3    H125123   3.258   1.023   8.097
 1188TIP3    H225124   3.117   0.971   8.077
 1189TIP3   OH225125   4.812   5.795   0.301
 1189TIP3    H125126   4.894   5.830   0.268
 1189TIP3    H225127   4.803   5.710   0.259
 1190TIP3   OH225128   3.690   6.125   8.621
 1190TIP3    H125129   3.691   6.157   8.711
 1190TIP3    H225130   3.722   6.035   8.627
 1191TIP3   OH225131   4.518   4.397   7.871
 1191TIP3    H125132   4.547   4.359   7.789
 1191TIP3    H225133   4.465   4.473   7.845
 1192TIP3   OH225134   2.799   3.680   0.274
 1192TIP3    H125135   2.762   3.624   0.342
 1192TIP3    H225136   2.867   3.731   0.318
 1193TIP3   OH225137   2.961   0.893   6.970
 1193TIP3    H125138   3.045   0.860   7.004
 1193TIP3    H225139   2.937   0.831   6.901
 1194TIP3   OH225140   6.017   0.830   8.564
 1194TIP3    H125141   5.989   0.738   8.562
 1194TIP3    H225142   5.967   0.869   8.636
 1195TIP3   OH225143   0.860   0.262   6.340
 1195TIP3    H125144   0.841   0.248   6.432
 1195TIP3    H225145   0.802   0.333   6.314
 1196TIP3   OH225146   0.324   4.294   1.953
 1196TIP3    H125147   0.361   4.296   2.041
 1196TIP3    H225148   0.298   4.385   1.936
 1197TIP3   OH225149   3.908   5.243   8.189
 1197TIP3    H125150   3.956   5.322   8.165
 1197TIP3    H225151   3.816   5.266   8.175
 1198TIP3   OH225152   6.777   5.354   1.175
 1198TIP3    H125153   6.691   5.381   1.144
 1198TIP3    H225154   6.796   5.414   1.248
 1199TIP3   OH225155   2.595   4.525   1.287
 1199TIP3    H125156   2.661   4.476   1.239
 1199TIP3    H225157   2.548   4.574   1.220
 1200TIP3   OH225158   1.501   1.436   1.146
 1200TIP3    H125159   1.539   1.466   1.229
 1200TIP3    H225160   1.492   1.341   1.156
 1201TIP3   OH225161   4.177   6.239   8.156
 1201TIP3    H125162   4.149   6.255   8.247
 1201TIP3    H225163   4.144   6.315   8.108
 1202TIP3   OH225164   1.058   2.134   6.787
 1202TIP3    H125165   1.053   2.221   6.749
 1202TIP3    H225166   0.972   2.095   6.768
 1203TIP3   OH225167   4.788   5.590   2.411
 1203TIP3    H125168   4.755   5.501   2.420
 1203TIP3    H225169   4.864   5.593   2.470
 1204TIP3   OH225170   6.558   3.186   0.805
 1204TIP3    H125171   6.506   3.253   0.760
 1204TIP3    H225172   6.504   3.157   0.878
 1205TIP3   OH225173   1.192   2.377   6.946
 1205TIP3    H125174   1.145   2.365   7.029
 1205TIP3    H225175   1.124   2.408   6.885
 1206TIP3   OH225176   5.626   6.813   8.731
 1206TIP3    H125177   5.659   0.064   8.670
 1206TIP3    H225178   5.701   6.757   8.749
 1207TIP3   OH225179   3.464   0.080   0.798
 1207TIP3    H125180   3.433   0.024   0.726
 1207TIP3    H225181   3.464   0.168   0.762
 1208TIP3   OH225182   2.506   2.437   1.409
 1208TIP3    H125183   2.517   2.449   1.504
 1208TIP3    H225184   2.422   2.480   1.390
 1209TIP3   OH225185   1.098   2.535   7.984
 1209TIP3    H125186   1.036   2.590   7.934
 1209TIP3    H225187   1.109   2.581   8.067
 1210TIP3   OH225188   0.521   0.709   7.977
 1210TIP3    H125189   0.437   0.752   7.993
 1210TIP3    H225190   0.574   0.775   7.932
 1211TIP3   OH225191   0.988   2.215   6.512
 1211TIP3    H125192   0.945   2.140   6.552
 1211TIP3    H225193   1.081   2.190   6.508
 1212TIP3   OH225194   1.606   6.722   7.665
 1212TIP3    H125195   1.669   6.650   7.666
 1212TIP3    H225196   1.586   6.736   7.572
 1213TIP3   OH225197   4.553   5.163   6.358
 1213TIP3    H125198   4.532   5.160   6.265
 1213TIP3    H225199   4.522   5.249   6.387
 1214TIP3   OH225200   1.024   0.609   7.568
 1214TIP3    H125201   0.937   0.629   7.603
 1214TIP3    H225202   1.007   0.542   7.501
 1215TIP3   OH225203   4.171   0.024   8.367
 1215TIP3    H125204   4.174   0.060   8.455
 1215TIP3    H225205   4.233   0.077   8.317
 1216TIP3   OH225206   3.521   6.389   8.781
 1216TIP3    H125207   3.580   6.328   0.034
 1216TIP3    H225208   3.471   6.429   0.062
 1217TIP3   OH225209   3.232   0.832   0.237
 1217TIP3    H125210   3.155   0.889   0.231
 1217TIP3    H225211   3.214   0.773   0.309
 1218TIP3   OH225212   1.864   6.139   1.543
 1218TIP3    H125213   1.885   6.142   1.637
 1218TIP3    H225214   1.813   6.058   1.533
 1219TIP3   OH225215   2.907   3.011   8.344
 1219TIP3    H125216   2.942   3.092   8.308
 1219TIP3    H225217   2.851   2.976   8.275
 1220TIP3   OH225218   6.065   6.708   7.529
 1220TIP3    H125219   6.066   6.613   7.521
 1220TIP3    H225220   6.101   6.725   7.617
 1221TIP3   OH225221   1.654   0.828   6.532
 1221TIP3    H125222   1.712   0.889   6.576
 1221TIP3    H225223   1.711   0.779   6.473
 1222TIP3   OH225224   5.063   2.730   7.970
 1222TIP3    H125225   5.024   2.701   7.888
 1222TIP3    H225226   5.009   2.803   7.999
 1223TIP3   OH225227   1.275   4.818   8.102
 1223TIP3    H125228   1.324   4.811   8.184
 1223TIP3    H225229   1.334   4.864   8.042
 1224TIP3   OH225230   2.688   3.782   8.139
 1224TIP3    H125231   2.625   3.790   8.068
 1224TIP3    H225232   2.769   3.755   8.097
 1225TIP3   OH225233   2.850   2.256   7.450
 1225TIP3    H125234   2.870   2.345   7.421
 1225TIP3    H225235   2.770   2.233   7.402
 1226TIP3   OH225236   6.296   2.568   3.044
 1226TIP3    H125237   6.250   2.528   2.971
 1226TIP3    H225238   6.338   2.646   3.005
 1227TIP3   OH225239   0.358   6.442   8.738
 1227TIP3    H125240   0.373   6.525   8.782
 1227TIP3    H225241   0.352   6.378   0.017
 1228TIP3   OH225242   0.364   4.447   0.917
 1228TIP3    H125243   0.280   4.415   0.951
 1228TIP3    H225244   0.341   4.521   0.861
 1229TIP3   OH225245   2.172   4.188   2.460
 1229TIP3    H125246   2.085   4.213   2.492
 1229TIP3    H225247   2.232   4.243   2.511
 1230TIP3   OH225248   0.665   6.477   7.872
 1230TIP3    H125249   0.581   6.451   7.910
 1230TIP3    H225250   0.721   6.494   7.948
 1231TIP3   OH225251   0.021   2.329   8.429
 1231TIP3    H125252   6.785   2.396   8.382
 1231TIP3    H225253   0.024   2.255   8.369
 1232TIP3   OH225254   4.358   5.438   8.095
 1232TIP3    H125255   4.309   5.451   8.013
 1232TIP3    H225256   4.295   5.394   8.153
 1233TIP3   OH225257   2.233   2.384   0.390
 1233TIP3    H125258   2.270   2.379   0.302
 1233TIP3    H225259   2.144   2.349   0.380
 1234TIP3   OH225260   0.973   3.905   0.481
 1234TIP3    H125261   1.035   3.953   0.536
 1234TIP3    H225262   0.913   3.863   0.543
 1235TIP3   OH225263   3.463   0.477   1.707
 1235TIP3    H125264   3.457   0.436   1.793
 1235TIP3    H225265   3.549   0.451   1.674
 1236TIP3   OH225266   5.524   4.387   8.392
 1236TIP3    H125267   5.556   4.335   8.465
 1236TIP3    H225268   5.538   4.333   8.315
 1237TIP3   OH225269   4.450   0.899   8.506
 1237TIP3    H125270   4.382   0.920   8.569
 1237TIP3    H225271   4.516   0.967   8.517
 1238TIP3   OH225272   3.959   6.685   8.679
 1238TIP3    H125273   4.021   6.641   8.736
 1238TIP3    H225274   3.923   6.756   8.732
 1239TIP3   OH225275   2.228   6.342   0.614
 1239TIP3    H125276   2.145   6.346   0.662
 1239TIP3    H225277   2.257   6.433   0.609
 1240TIP3   OH225278   5.676   1.571   0.602
 1240TIP3    H125279   5.616   1.619   0.545
 1240TIP3    H225280   5.619   1.517   0.658
 1241TIP3   OH225281   2.884   2.042   7.621
 1241TIP3    H125282   2.803   1.991   7.615
 1241TIP3    H225283   2.877   2.107   7.551
 1242TIP3   OH225284   2.076   1.112   8.010
 1242TIP3    H125285   2.065   1.087   7.918
 1242TIP3    H225286   2.052   1.204   8.013
 1243TIP3   OH225287   3.426   2.892   8.204
 1243TIP3    H125288   3.403   2.804   8.234
 1243TIP3    H225289   3.505   2.915   8.253
 1244TIP3   OH225290   4.508   0.312   2.002
 1244TIP3    H125291   4.599   0.301   2.028
 1244TIP3    H225292   4.464   0.233   2.031
 1245TIP3   OH225293   6.433   1.249   1.770
 1245TIP3    H125294   6.401   1.161   1.754
 1245TIP3    H225295   6.503   1.261   1.705
 1246TIP3   OH225296   2.475   5.412   0.945
 1246TIP3    H125297   2.527   5.491   0.933
 1246TIP3    H225298   2.507   5.351   0.878
 1247TIP3   OH225299   3.675   0.389   6.935
 1247TIP3    H125300   3.669   0.368   7.028
 1247TIP3    H225301   3.617   0.464   6.923
 1248TIP3   OH225302   5.987   5.008   6.563
 1248TIP3    H125303   5.952   5.068   6.498
 1248TIP3    H225304   6.070   4.979   6.526
 1249TIP3   OH225305   5.051   5.494   7.590
 1249TIP3    H125306   5.123   5.476   7.650
 1249TIP3    H225307   5.031   5.586   7.603
 1250TIP3   OH225308   5.216   6.339   1.228
 1250TIP3    H125309   5.172   6.282   1.165
 1250TIP3    H225310   5.280   6.388   1.176
 1251TIP3   OH225311   5.221   5.961   8.356
 1251TIP3    H125312   5.160   5.955   8.430
 1251TIP3    H225313   5.169   5.999   8.285
 1252TIP3   OH225314   4.088   1.088   1.938
 1252TIP3    H125315   4.020   1.141   1.979
 1252TIP3    H225316   4.049   1.001   1.929
 1253TIP3   OH225317   3.815   4.851   0.385
 1253TIP3    H125318   3.821   4.767   0.338
 1253TIP3    H225319   3.871   4.839   0.461
 1254TIP3   OH225320   6.618   0.330   2.935
 1254TIP3    H125321   6.608   0.356   3.026
 1254TIP3    H225322   6.586   0.240   2.931
 1255TIP3   OH225323   4.084   4.228   1.722
 1255TIP3    H125324   4.138   4.245   1.799
 1255TIP3    H225325   4.081   4.312   1.676
 1256TIP3   OH225326   5.749   5.886   2.597
 1256TIP3    H125327   5.745   5.964   2.542
 1256TIP3    H225328   5.717   5.914   2.682
 1257TIP3   OH225329   0.300   0.349   7.435
 1257TIP3    H125330   0.389   0.380   7.419
 1257TIP3    H225331   0.304   0.307   7.521
 1258TIP3   OH225332   4.248   2.315   6.539
 1258TIP3    H125333   4.253   2.376   6.466
 1258TIP3    H225334   4.187   2.355   6.600
 1259TIP3   OH225335   3.560   4.931   0.033
 1259TIP3    H125336   3.572   4.901   0.123
 1259TIP3    H225337   3.532   4.854   8.775
 1260TIP3   OH225338   0.832   1.359   1.339
 1260TIP3    H125339   0.763   1.417   1.309
 1260TIP3    H225340   0.807   1.272   1.309
 1261TIP3   OH225341   0.544   6.797   7.822
 1261TIP3    H125342   0.535   6.754   7.907
 1261TIP3    H225343   0.633   6.777   7.795
 1262TIP3   OH225344   6.231   1.918   1.542
 1262TIP3    H125345   6.264   1.889   1.457
 1262TIP3    H225346   6.138   1.933   1.527
 1263TIP3   OH225347   1.969   2.136   8.480
 1263TIP3    H125348   1.902   2.124   8.413
 1263TIP3    H225349   1.945   2.077   8.551
 1264TIP3   OH225350   6.586   5.037   0.581
 1264TIP3    H125351   6.653   5.065   0.644
 1264TIP3    H225352   6.509   5.017   0.635
 1265TIP3   OH225353   3.035   0.563   1.279
 1265TIP3    H125354   2.982   0.592   1.353
 1265TIP3    H225355   3.023   0.631   1.213
 1266TIP3   OH225356   1.195   1.245   0.210
 1266TIP3    H125357   1.272   1.262   0.156
 1266TIP3    H225358   1.136   1.196   0.152
 1267TIP3   OH225359   2.277   2.958   1.433
 1267TIP3    H125360   2.366   2.923   1.423
 1267TIP3    H225361   2.225   2.883   1.462
 1268TIP3   OH225362   2.612   4.983   8.490
 1268TIP3    H125363   2.678   4.950   8.550
 1268TIP3    H225364   2.529   4.967   8.535
 1269TIP3   OH225365   6.257   6.058   7.135
 1269TIP3    H125366   6.252   5.972   7.092
 1269TIP3    H225367   6.240   6.121   7.065
 1270TIP3   OH225368   4.539   1.627   8.785
 1270TIP3    H125369   4.459   1.629   8.733
 1270TIP3    H225370   4.537   1.706   0.047
 1271TIP3   OH225371   3.274   2.782   0.460
 1271TIP3    H125372   3.250   2.722   0.389
 1271TIP3    H225373   3.243   2.739   0.539
 1272TIP3   OH225374   1.629   1.344   7.314
 1272TIP3    H125375   1.716   1.317   7.286
 1272TIP3    H225376   1.601   1.409   7.250
 1273TIP3   OH225377   6.341   0.548   8.409
 1273TIP3    H125378   6.257   0.570   8.367
 1273TIP3    H225379   6.317   0.497   8.486
 1274TIP3   OH225380   2.008   5.531   0.747
 1274TIP3    H125381   2.046   5.541   0.834
 1274TIP3    H225382   1.919   5.567   0.755
 1275TIP3   OH225383   2.215   0.002   1.273
 1275TIP3    H125384   2.298   0.044   1.249
 1275TIP3    H225385   2.233   6.775   1.357
 1276TIP3   OH225386   1.649   1.847   8.474
 1276TIP3    H125387   1.593   1.905   8.421
 1276TIP3    H225388   1.738   1.871   8.448
 1277TIP3   OH225389   0.247   5.608   1.234
 1277TIP3    H125390   0.169   5.657   1.208
 1277TIP3    H225391   0.218   5.516   1.237
 1278TIP3   OH225392   1.171   1.563   8.028
 1278TIP3    H125393   1.214   1.479   8.048
 1278TIP3    H225394   1.087   1.558   8.073
 1279TIP3   OH225395   6.419   2.548   8.377
 1279TIP3    H125396   6.503   2.551   8.423
 1279TIP3    H225397   6.403   2.454   8.363
 1280TIP3   OH225398   4.760   3.095   0.638
 1280TIP3    H125399   4.670   3.077   0.613
 1280TIP3    H225400   4.791   3.013   0.678
 1281TIP3   OH225401   3.253   4.723   1.467
 1281TIP3    H125402   3.258   4.638   1.424
 1281TIP3    H225403   3.292   4.708   1.554
 1282TIP3   OH225404   3.699   0.321   0.043
 1282TIP3    H125405   3.653   0.383   0.099
 1282TIP3    H225406   3.790   0.350   0.046
 1283TIP3   OH225407   1.901   1.200   2.186
 1283TIP3    H125408   1.990   1.236   2.194
 1283TIP3    H225409   1.846   1.262   2.234
 1284TIP3   OH225410   6.781   5.760   7.499
 1284TIP3    H125411   6.740   5.832   7.451
 1284TIP3    H225412   6.781   5.687   7.436
 1285TIP3   OH225413   1.749   5.467   0.535
 1285TIP3    H125414   1.751   5.542   0.595
 1285TIP3    H225415   1.720   5.394   0.590
 1286TIP3   OH225416   4.053   6.180   1.832
 1286TIP3    H125417   4.014   6.149   1.914
 1286TIP3    H225418   3.980   6.184   1.771
 1287TIP3   OH225419   6.681   2.599   8.527
 1287TIP3    H125420   6.658   2.690   8.545
 1287TIP3    H225421   6.768   2.587   8.566
 1288TIP3   OH225422   6.691   2.747   0.210
 1288TIP3    H125423   6.629   2.797   0.263
 1288TIP3    H225424   6.731   2.685   0.271
 1289TIP3   OH225425   0.096   6.230   7.909
 1289TIP3    H125426   0.133   6.190   7.830
 1289TIP3    H225427   0.121   6.322   7.903
 1290TIP3   OH225428   4.222   6.131   0.830
 1290TIP3    H125429   4.301   6.083   0.804
 1290TIP3    H225430   4.210   6.110   0.923
 1291TIP3   OH225431   2.874   1.761   1.096
 1291TIP3    H125432   2.941   1.713   1.144
 1291TIP3    H225433   2.819   1.799   1.165
 1292TIP3   OH225434   5.542   6.364   8.278
 1292TIP3    H125435   5.495   6.281   8.292
 1292TIP3    H225436   5.634   6.339   8.275
 1293TIP3   OH225437   4.192   0.122   0.603
 1293TIP3    H125438   4.249   0.193   0.633
 1293TIP3    H225439   4.187   0.133   0.508
 1294TIP3   OH225440   0.733   3.879   7.958
 1294TIP3    H125441   0.765   3.789   7.962
 1294TIP3    H225442   0.652   3.874   7.908
 1295TIP3   OH225443   5.967   3.314   0.128
 1295TIP3    H125444   5.982   3.262   0.207
 1295TIP3    H225445   6.044   3.298   0.074
 1296TIP3   OH225446   5.597   0.279   1.120
 1296TIP3    H125447   5.622   0.224   1.046
 1296TIP3    H225448   5.606   0.222   1.196
 1297TIP3   OH225449   4.536   5.730   2.054
 1297TIP3    H125450   4.489   5.687   1.983
 1297TIP3    H225451   4.501   5.819   2.055
 1298TIP3   OH225452   0.506   6.190   7.800
 1298TIP3    H125453   0.440   6.121   7.802
 1298TIP3    H225454   0.470   6.259   7.854
 1299TIP3   OH225455   4.728   2.483   1.307
 1299TIP3    H125456   4.710   2.526   1.391
 1299TIP3    H225457   4.703   2.392   1.321
 1300TIP3   OH225458   1.787   2.378   8.348
 1300TIP3    H125459   1.730   2.388   8.271
 1300TIP3    H225460   1.801   2.284   8.356
 1301TIP3   OH225461   6.051   6.536   1.010
 1301TIP3    H125462   5.966   6.492   1.003
 1301TIP3    H225463   6.087   6.506   1.093
 1302TIP3   OH225464   6.594   4.350   6.864
 1302TIP3    H125465   6.666   4.403   6.898
 1302TIP3    H225466   6.529   4.414   6.835
 1303TIP3   OH225467   4.437   4.031   1.736
 1303TIP3    H125468   4.401   4.096   1.796
 1303TIP3    H225469   4.530   4.030   1.756
 1304TIP3   OH225470   3.169   5.457   0.871
 1304TIP3    H125471   3.156   5.552   0.872
 1304TIP3    H225472   3.081   5.420   0.871
 1305TIP3   OH225473   5.590   5.802   1.100
 1305TIP3    H125474   5.642   5.727   1.129
 1305TIP3    H225475   5.524   5.764   1.042
 1306TIP3   OH225476   1.362   6.251   0.517
 1306TIP3    H125477   1.348   6.298   0.599
 1306TIP3    H225478   1.449   6.280   0.489
 1307TIP3   OH225479   0.110   3.328   7.890
 1307TIP3    H125480   0.173   3.269   7.932
 1307TIP3    H225481   0.024   3.293   7.913
 1308TIP3   OH225482   1.088   5.710   8.182
 1308TIP3    H125483   1.167   5.736   8.229
 1308TIP3    H225484   1.114   5.632   8.133
 1309TIP3   OH225485   1.025   1.271   7.285
 1309TIP3    H125486   1.057   1.203   7.225
 1309TIP3    H225487   1.084   1.345   7.273
 1310TIP3   OH225488   1.980   0.273   2.345
 1310TIP3    H125489   1.886   0.253   2.347
 1310TIP3    H225490   1.994   0.316   2.260
 1311TIP3   OH225491   6.656   1.442   0.651
 1311TIP3    H125492   6.746   1.410   0.663
 1311TIP3    H225493   6.666   1.520   0.595
 1312TIP3   OH225494   1.109   5.610   8.523
 1312TIP3    H125495   1.141   5.554   8.594
 1312TIP3    H225496   1.185   5.661   8.496
 1313TIP3   OH225497   4.178   3.218   1.119
 1313TIP3    H125498   4.154   3.194   1.208
 1313TIP3    H225499   4.104   3.271   1.088
 1314TIP3   OH225500   3.136   6.527   7.556
 1314TIP3    H125501   3.203   6.588   7.526
 1314TIP3    H225502   3.132   6.460   7.488
 1315TIP3   OH225503   4.760   4.144   0.781
 1315TIP3    H125504   4.825   4.081   0.814
 1315TIP3    H225505   4.729   4.189   0.859
 1316TIP3   OH225506   4.321   5.071   1.655
 1316TIP3    H125507   4.281   5.138   1.600
 1316TIP3    H225508   4.292   5.091   1.743
 1317TIP3   OH225509   6.667   0.512   7.892
 1317TIP3    H125510   6.713   0.588   7.858
 1317TIP3    H225511   6.683   0.443   7.827
 1318TIP3   OH225512   1.211   6.756   7.723
 1318TIP3    H125513   1.199   0.035   7.738
 1318TIP3    H225514   1.263   6.751   7.642
 1319TIP3   OH225515   4.373   4.272   6.074
 1319TIP3    H125516   4.454   4.223   6.062
 1319TIP3    H225517   4.307   4.206   6.097
 1320TIP3   OH225518   3.091   3.894   7.791
 1320TIP3    H125519   3.130   3.962   7.846
 1320TIP3    H225520   3.091   3.932   7.703
 1321TIP3   OH225521   2.040   3.527   1.008
 1321TIP3    H125522   2.088   3.476   0.942
 1321TIP3    H225523   2.103   3.594   1.036
 1322TIP3   OH225524   6.194   6.369   7.971
 1322TIP3    H125525   6.153   6.453   7.993
 1322TIP3    H225526   6.190   6.317   8.051
 1323TIP3   OH225527   5.722   3.514   0.836
 1323TIP3    H125528   5.686   3.491   0.922
 1323TIP3    H225529   5.757   3.602   0.848
 1324TIP3   OH225530   1.222   0.894   0.483
 1324TIP3    H125531   1.183   0.919   0.400
 1324TIP3    H225532   1.296   0.954   0.494
 1325TIP3   OH225533   3.754   3.443   8.490
 1325TIP3    H125534   3.666   3.421   8.522
 1325TIP3    H225535   3.780   3.367   8.438
 1326TIP3   OH225536   6.759   1.719   2.011
 1326TIP3    H125537   0.025   1.689   2.053
 1326TIP3    H225538   6.689   1.669   2.053
 1327TIP3   OH225539   3.270   6.005   0.876
 1327TIP3    H125540   3.335   5.975   0.811
 1327TIP3    H225541   3.302   6.090   0.904
 1328TIP3   OH225542   2.884   2.318   7.093
 1328TIP3    H125543   2.860   2.395   7.144
 1328TIP3    H225544   2.838   2.245   7.135
 1329TIP3   OH225545   1.995   5.203   7.701
 1329TIP3    H125546   1.998   5.130   7.640
 1329TIP3    H225547   2.084   5.209   7.736
 1330TIP3   OH225548   2.302   0.907   8.625
 1330TIP3    H125549   2.314   0.881   8.716
 1330TIP3    H225550   2.262   0.831   8.583
 1331TIP3   OH225551   1.462   0.756   0.281
 1331TIP3    H125552   1.435   0.679   0.330
 1331TIP3    H225553   1.396   0.766   0.213
 1332TIP3   OH225554   1.968   1.728   0.416
 1332TIP3    H125555   2.013   1.773   0.344
 1332TIP3    H225556   2.028   1.658   0.441
 1333TIP3   OH225557   4.066   0.694   7.818
 1333TIP3    H125558   4.018   0.695   7.901
 1333TIP3    H225559   4.026   0.765   7.767
 1334TIP3   OH225560   3.906   3.806   1.354
 1334TIP3    H125561   3.941   3.753   1.426
 1334TIP3    H225562   3.893   3.743   1.283
 1335TIP3   OH225563   5.920   4.362   7.278
 1335TIP3    H125564   5.955   4.395   7.196
 1335TIP3    H225565   5.996   4.321   7.321
 1336TIP3   OH225566   3.218   2.117   7.781
 1336TIP3    H125567   3.203   2.057   7.708
 1336TIP3    H225568   3.155   2.188   7.767
 1337TIP3   OH225569   3.664   1.661   1.623
 1337TIP3    H125570   3.637   1.605   1.696
 1337TIP3    H225571   3.711   1.733   1.665
 1338TIP3   OH225572   5.524   1.313   8.557
 1338TIP3    H125573   5.570   1.229   8.558
 1338TIP3    H225574   5.546   1.355   8.640
 1339TIP3   OH225575   2.430   1.650   8.591
 1339TIP3    H125576   2.500   1.645   8.526
 1339TIP3    H225577   2.462   1.598   8.665
 1340TIP3   OH225578   0.439   0.487   1.931
 1340TIP3    H125579   0.411   0.396   1.918
 1340TIP3    H225580   0.365   0.529   1.974
 1341TIP3   OH225581   0.994   5.399   8.322
 1341TIP3    H125582   0.963   5.483   8.357
 1341TIP3    H225583   1.083   5.418   8.291
 1342TIP3   OH225584   2.698   6.584   6.863
 1342TIP3    H125585   2.739   6.515   6.811
 1342TIP3    H225586   2.607   6.556   6.873
 1343TIP3   OH225587   0.509   0.751   0.247
 1343TIP3    H125588   0.565   0.674   0.233
 1343TIP3    H225589   0.556   0.823   0.205
 1344TIP3   OH225590   6.198   0.710   1.081
 1344TIP3    H125591   6.193   0.690   1.175
 1344TIP3    H225592   6.110   0.740   1.058
 1345TIP3   OH225593   0.738   1.863   6.376
 1345TIP3    H125594   0.703   1.775   6.362
 1345TIP3    H225595   0.831   1.856   6.354
 1346TIP3   OH225596   3.581   5.293   7.674
 1346TIP3    H125597   3.511   5.228   7.683
 1346TIP3    H225598   3.643   5.254   7.614
 1347TIP3   OH225599   1.965   1.114   0.387
 1347TIP3    H125600   1.892   1.092   0.445
 1347TIP3    H225601   1.927   1.108   0.299
 1348TIP3   OH225602   5.623   2.074   2.664
 1348TIP3    H125603   5.535   2.107   2.643
 1348TIP3    H225604   5.657   2.136   2.728
 1349TIP3   OH225605   0.141   2.349   2.466
 1349TIP3    H125606   0.065   2.337   2.523
 1349TIP3    H225607   0.200   2.276   2.488
 1350TIP3   OH225608   0.328   2.646   7.024
 1350TIP3    H125609   0.380   2.727   7.020
 1350TIP3    H225610   0.248   2.667   6.976
 1351TIP3   OH225611   5.173   6.340   8.315
 1351TIP3    H125612   5.181   6.434   8.327
 1351TIP3    H225613   5.129   6.330   8.231
 1352TIP3   OH225614   0.115   4.040   2.284
 1352TIP3    H125615   0.109   3.945   2.280
 1352TIP3    H225616   0.073   4.070   2.203
 1353TIP3   OH225617   5.424   4.676   8.586
 1353TIP3    H125618   5.504   4.696   8.634
 1353TIP3    H225619   5.359   4.739   8.619
 1354TIP3   OH225620   2.077   3.356   0.746
 1354TIP3    H125621   2.057   3.269   0.780
 1354TIP3    H225622   2.001   3.380   0.693
 1355TIP3   OH225623   6.452   6.113   7.333
 1355TIP3    H125624   6.441   6.050   7.405
 1355TIP3    H225625   6.383   6.090   7.271
 1356TIP3   OH225626   3.046   4.122   6.761
 1356TIP3    H125627   2.959   4.117   6.722
 1356TIP3    H225628   3.100   4.066   6.706
 1357TIP3   OH225629   3.810   5.016   8.760
 1357TIP3    H125630   3.726   4.979   8.786
 1357TIP3    H225631   3.850   4.948   8.706
 1358TIP3   OH225632   5.998   5.176   7.221
 1358TIP3    H125633   6.048   5.193   7.301
 1358TIP3    H225634   5.969   5.085   7.231
 1359TIP3   OH225635   2.771   3.785   2.304
 1359TIP3    H125636   2.799   3.727   2.375
 1359TIP3    H225637   2.810   3.870   2.326
 1360TIP3   OH225638   1.953   0.252   7.443
 1360TIP3    H125639   2.033   0.199   7.446
 1360TIP3    H225640   1.928   0.254   7.351
 1361TIP3   OH225641   4.875   5.942   1.873
 1361TIP3    H125642   4.908   5.888   1.800
 1361TIP3    H225643   4.953   5.968   1.921
 1362TIP3   OH225644   2.643   1.849   7.158
 1362TIP3    H125645   2.705   1.797   7.106
 1362TIP3    H225646   2.628   1.797   7.237
 1363TIP3   OH225647   6.296   6.542   0.315
 1363TIP3    H125648   6.283   6.622   0.367
 1363TIP3    H225649   6.360   6.567   0.248
 1364TIP3   OH225650   1.286   3.957   0.897
 1364TIP3    H125651   1.294   3.922   0.986
 1364TIP3    H225652   1.355   4.023   0.891
 1365TIP3   OH225653   3.671   2.003   1.084
 1365TIP3    H125654   3.645   1.919   1.046
 1365TIP3    H225655   3.710   1.980   1.168
 1366TIP3   OH225656   5.024   5.436   8.008
 1366TIP3    H125657   5.043   5.453   8.100
 1366TIP3    H225658   5.029   5.522   7.966
 1367TIP3   OH225659   5.594   1.246   1.926
 1367TIP3    H125660   5.676   1.265   1.880
 1367TIP3    H225661   5.526   1.290   1.875
 1368TIP3   OH225662   3.933   3.771   0.782
 1368TIP3    H125663   3.924   3.716   0.704
 1368TIP3    H225664   3.990   3.721   0.841
 1369TIP3   OH225665   0.049   3.736   8.094
 1369TIP3    H125666   0.021   3.682   8.168
 1369TIP3    H225667   6.800   3.807   8.090
 1370TIP3   OH225668   2.339   3.472   1.575
 1370TIP3    H125669   2.419   3.457   1.626
 1370TIP3    H225670   2.310   3.384   1.550
 1371TIP3   OH225671   2.427   1.579   0.323
 1371TIP3    H125672   2.457   1.553   0.410
 1371TIP3    H225673   2.471   1.662   0.306
 1372TIP3   OH225674   1.999   4.871   0.907
 1372TIP3    H125675   1.918   4.921   0.892
 1372TIP3    H225676   1.990   4.794   0.850
 1373TIP3   OH225677   1.560   2.997   2.077
 1373TIP3    H125678   1.620   3.011   2.150
 1373TIP3    H225679   1.516   3.081   2.065
 1374TIP3   OH225680   0.758   5.135   8.323
 1374TIP3    H125681   0.674   5.105   8.287
 1374TIP3    H225682   0.768   5.224   8.289
 1375TIP3   OH225683   1.602   0.814   0.675
 1375TIP3    H125684   1.508   0.803   0.663
 1375TIP3    H225685   1.629   0.736   0.723
 1376TIP3   OH225686   1.284   4.335   7.026
 1376TIP3    H125687   1.350   4.285   6.978
 1376TIP3    H225688   1.215   4.352   6.962
 1377TIP3   OH225689   0.173   5.339   8.209
 1377TIP3    H125690   0.232   5.320   8.281
 1377TIP3    H225691   0.220   5.401   8.154
 1378TIP3   OH225692   0.171   5.791   0.855
 1378TIP3    H125693   0.213   5.856   0.912
 1378TIP3    H225694   0.232   5.717   0.855
 1379TIP3   OH225695   1.486   0.264   8.722
 1379TIP3    H125696   1.468   0.216   0.011
 1379TIP3    H225697   1.501   0.196   8.656
 1380TIP3   OH225698   1.374   3.942   0.488
 1380TIP3    H125699   1.392   3.849   0.474
 1380TIP3    H225700   1.456   3.986   0.465
 1381TIP3   OH225701   3.185   2.354   1.798
 1381TIP3    H125702   3.255   2.409   1.763
 1381TIP3    H225703   3.215   2.264   1.784
 1382TIP3   OH225704   4.620   3.703   8.242
 1382TIP3    H125705   4.632   3.610   8.258
 1382TIP3    H225706   4.594   3.739   8.327
 1383TIP3   OH225707   5.737   5.984   7.938
 1383TIP3    H125708   5.747   5.975   8.033
 1383TIP3    H225709   5.692   5.905   7.911
 1384TIP3   OH225710   2.453   5.412   7.860
 1384TIP3    H125711   2.442   5.493   7.909
 1384TIP3    H225712   2.500   5.439   7.780
 1385TIP3   OH225713   2.810   4.721   7.738
 1385TIP3    H125714   2.788   4.629   7.756
 1385TIP3    H225715   2.775   4.769   7.812
 1386TIP3   OH225716   6.307   2.390   2.141
 1386TIP3    H125717   6.270   2.416   2.057
 1386TIP3    H225718   6.231   2.371   2.196
 1387TIP3   OH225719   0.454   4.961   1.639
 1387TIP3    H125720   0.477   4.919   1.556
 1387TIP3    H225721   0.389   4.903   1.678
 1388TIP3   OH225722   5.960   6.071   0.271
 1388TIP3    H125723   6.030   6.134   0.253
 1388TIP3    H225724   6.004   5.995   0.308
 1389TIP3   OH225725   6.052   3.678   7.776
 1389TIP3    H125726   6.144   3.651   7.783
 1389TIP3    H225727   6.054   3.772   7.793
 1390TIP3   OH225728   5.423   4.373   1.711
 1390TIP3    H125729   5.450   4.287   1.679
 1390TIP3    H225730   5.359   4.403   1.646
 1391TIP3   OH225731   0.267   1.832   7.286
 1391TIP3    H125732   0.262   1.746   7.328
 1391TIP3    H225733   0.342   1.826   7.227
 1392TIP3   OH225734   4.839   5.294   0.420
 1392TIP3    H125735   4.861   5.201   0.407
 1392TIP3    H225736   4.910   5.341   0.377
 1393TIP3   OH225737   0.245   4.432   7.924
 1393TIP3    H125738   0.336   4.414   7.903
 1393TIP3    H225739   0.226   4.377   8.000
 1394TIP3   OH225740   0.027   0.070   1.906
 1394TIP3    H125741   0.116   0.039   1.924
 1394TIP3    H225742   6.786   0.023   1.968
 1395TIP3   OH225743   4.270   4.378   8.541
 1395TIP3    H125744   4.236   4.428   8.615
 1395TIP3    H225745   4.308   4.299   8.581
 1396TIP3   OH225746   6.249   1.786   7.982
 1396TIP3    H125747   6.250   1.822   7.893
 1396TIP3    H225748   6.339   1.757   7.996
 1397TIP3   OH225749   5.408   5.325   7.126
 1397TIP3    H125750   5.357   5.371   7.060
 1397TIP3    H225751   5.346   5.265   7.167
 1398TIP3   OH225752   1.279   4.092   1.324
 1398TIP3    H125753   1.236   4.122   1.404
 1398TIP3    H225754   1.216   4.032   1.284
 1399TIP3   OH225755   0.086   4.561   6.734
 1399TIP3    H125756   0.156   4.501   6.710
 1399TIP3    H225757   0.063   4.606   6.653
 1400TIP3   OH225758   5.446   3.995   0.789
 1400TIP3    H125759   5.370   3.965   0.740
 1400TIP3    H225760   5.412   4.020   0.874
 1401TIP3   OH225761   2.349   1.625   6.981
 1401TIP3    H125762   2.299   1.551   6.946
 1401TIP3    H225763   2.383   1.595   7.064
 1402TIP3   OH225764   2.247   1.011   0.438
 1402TIP3    H125765   2.274   1.044   0.524
 1402TIP3    H225766   2.152   1.021   0.436
 1403TIP3   OH225767   6.706   1.953   2.672
 1403TIP3    H125768   6.728   2.020   2.736
 1403TIP3    H225769   6.774   1.960   2.605
 1404TIP3   OH225770   3.829   3.831   7.931
 1404TIP3    H125771   3.798   3.870   7.849
 1404TIP3    H225772   3.867   3.747   7.904
 1405TIP3   OH225773   5.920   6.676   0.614
 1405TIP3    H125774   5.918   6.675   0.710
 1405TIP3    H225775   5.828   6.678   0.588
 1406TIP3   OH225776   0.762   1.028   1.655
 1406TIP3    H125777   0.807   0.997   1.734
 1406TIP3    H225778   0.704   0.956   1.631
 1407TIP3   OH225779   5.899   6.195   7.812
 1407TIP3    H125780   5.860   6.171   7.896
 1407TIP3    H225781   5.990   6.217   7.833
 1408TIP3   OH225782   2.372   4.156   1.647
 1408TIP3    H125783   2.391   4.146   1.740
 1408TIP3    H225784   2.443   4.211   1.613
 1409TIP3   OH225785   5.215   3.501   8.425
 1409TIP3    H125786   5.147   3.450   8.470
 1409TIP3    H225787   5.171   3.583   8.400
 1410TIP3   OH225788   3.191   0.957   7.769
 1410TIP3    H125789   3.129   1.017   7.810
 1410TIP3    H225790   3.254   0.936   7.839
 1411TIP3   OH225791   6.648   3.300   7.441
 1411TIP3    H125792   6.717   3.360   7.469
 1411TIP3    H225793   6.595   3.287   7.519
 1412TIP3   OH225794   5.865   2.515   8.237
 1412TIP3    H125795   5.789   2.495   8.292
 1412TIP3    H225796   5.923   2.566   8.294
 1413TIP3   OH225797   3.332   5.270   7.103
 1413TIP3    H125798   3.258   5.211   7.117
 1413TIP3    H225799   3.293   5.355   7.086
 1414TIP3   OH225800   5.218   5.577   1.324
 1414TIP3    H125801   5.303   5.583   1.280
 1414TIP3    H225802   5.174   5.504   1.281
 1415TIP3   OH225803   0.957   1.561   7.159
 1415TIP3    H125804   1.051   1.559   7.143
 1415TIP3    H225805   0.949   1.575   7.254
 1416TIP3   OH225806   4.897   3.100   7.391
 1416TIP3    H125807   4.819   3.144   7.424
 1416TIP3    H225808   4.918   3.146   7.310
 1417TIP3   OH225809   3.213   6.065   0.176
 1417TIP3    H125810   3.226   6.041   0.084
 1417TIP3    H225811   3.158   6.143   0.173
 1418TIP3   OH225812   6.495   3.689   7.318
 1418TIP3    H125813   6.520   3.766   7.369
 1418TIP3    H225814   6.515   3.615   7.375
 1419TIP3   OH225815   6.583   4.313   0.843
 1419TIP3    H125816   6.583   4.367   0.922
 1419TIP3    H225817   6.557   4.226   0.874
 1420TIP3   OH225818   3.669   3.214   7.065
 1420TIP3    H125819   3.605   3.247   7.001
 1420TIP3    H225820   3.645   3.257   7.147
 1421TIP3   OH225821   5.023   4.670   8.303
 1421TIP3    H125822   5.067   4.708   8.227
 1421TIP3    H225823   4.931   4.695   8.293
 1422TIP3   OH225824   1.114   3.584   6.165
 1422TIP3    H125825   1.030   3.619   6.196
 1422TIP3    H225826   1.167   3.661   6.145
 1423TIP3   OH225827   6.512   6.211   1.474
 1423TIP3    H125828   6.445   6.154   1.510
 1423TIP3    H225829   6.511   6.194   1.380
 1424TIP3   OH225830   0.268   5.935   1.767
 1424TIP3    H125831   0.203   6.004   1.755
 1424TIP3    H225832   0.301   5.917   1.679
 1425TIP3   OH225833   5.213   5.369   7.760
 1425TIP3    H125834   5.163   5.346   7.838
 1425TIP3    H225835   5.301   5.335   7.777
 1426TIP3   OH225836   0.934   5.780   0.080
 1426TIP3    H125837   0.869   5.757   0.014
 1426TIP3    H225838   0.914   5.723   0.155
 1427TIP3   OH225839   4.960   1.430   7.265
 1427TIP3    H125840   4.908   1.393   7.192
 1427TIP3    H225841   5.032   1.368   7.276
 1428TIP3   OH225842   2.691   1.913   1.637
 1428TIP3    H125843   2.699   1.994   1.586
 1428TIP3    H225844   2.767   1.913   1.695
 1429TIP3   OH225845   0.488   2.545   0.258
 1429TIP3    H125846   0.531   2.608   0.201
 1429TIP3    H225847   0.434   2.492   0.198
 1430TIP3   OH225848   4.003   6.326   2.180
 1430TIP3    H125849   3.933   6.353   2.240
 1430TIP3    H225850   4.037   6.408   2.144
 1431TIP3   OH225851   0.303   1.942   8.313
 1431TIP3    H125852   0.241   1.910   8.247
 1431TIP3    H225853   0.318   2.033   8.289
 1432TIP3   OH225854   0.983   6.628   7.026
 1432TIP3    H125855   0.897   6.649   6.989
 1432TIP3    H225856   0.993   6.534   7.010
 1433TIP3   OH225857   3.025   1.463   1.752
 1433TIP3    H125858   3.034   1.542   1.806
 1433TIP3    H225859   3.026   1.495   1.662
 1434TIP3   OH225860   2.154   2.517   1.055
 1434TIP3    H125861   2.099   2.542   0.981
 1434TIP3    H225862   2.210   2.447   1.020
 1435TIP3   OH225863   0.567   2.396   8.199
 1435TIP3    H125864   0.542   2.452   8.274
 1435TIP3    H225865   0.637   2.445   8.156
 1436TIP3   OH225866   6.758   2.186   8.752
 1436TIP3    H125867   6.671   2.218   8.728
 1436TIP3    H225868   6.744   2.096   8.780
 1437TIP3   OH225869   2.757   3.269   1.326
 1437TIP3    H125870   2.785   3.240   1.413
 1437TIP3    H225871   2.838   3.274   1.275
 1438TIP3   OH225872   6.684   1.929   8.559
 1438TIP3    H125873   6.715   1.850   8.603
 1438TIP3    H225874   6.754   1.993   8.573
 1439TIP3   OH225875   5.950   5.716   1.402
 1439TIP3    H125876   5.973   5.669   1.482
 1439TIP3    H225877   5.948   5.808   1.428
 1440TIP3   OH225878   2.887   2.670   8.473
 1440TIP3    H125879   2.915   2.663   8.382
 1440TIP3    H225880   2.792   2.658   8.471
 1441TIP3   OH225881   1.251   6.052   0.271
 1441TIP3    H125882   1.179   6.029   0.212
 1441TIP3    H225883   1.308   6.109   0.219
 1442TIP3   OH225884   4.193   6.133   2.238
 1442TIP3    H125885   4.106   6.172   2.226
 1442TIP3    H225886   4.205   6.131   2.333
 1443TIP3   OH225887   5.647   5.314   1.809
 1443TIP3    H125888   5.625   5.295   1.900
 1443TIP3    H225889   5.580   5.376   1.781
 1444TIP3   OH225890   1.323   0.849   2.627
 1444TIP3    H125891   1.267   0.878   2.555
 1444TIP3    H225892   1.364   0.769   2.594
 1445TIP3   OH225893   0.681   6.485   1.659
 1445TIP3    H125894   0.753   6.547   1.674
 1445TIP3    H225895   0.634   6.484   1.743
 1446TIP3   OH225896   1.729   3.901   0.161
 1446TIP3    H125897   1.715   3.977   0.217
 1446TIP3    H225898   1.692   3.828   0.211
 1447TIP3   OH225899   0.343   2.224   8.252
 1447TIP3    H125900   0.273   2.284   8.227
 1447TIP3    H225901   0.423   2.269   8.225
 1448TIP3   OH225902   6.018   4.690   1.703
 1448TIP3    H125903   5.961   4.727   1.771
 1448TIP3    H225904   6.020   4.597   1.722
 1449TIP3   OH225905   3.600   6.457   6.671
 1449TIP3    H125906   3.651   6.521   6.621
 1449TIP3    H225907   3.535   6.424   6.610
 1450TIP3   OH225908   4.568   2.323   0.055
 1450TIP3    H125909   4.553   2.273   0.135
 1450TIP3    H225910   4.513   2.401   0.065
 1451TIP3   OH225911   3.151   5.982   8.432
 1451TIP3    H125912   3.238   5.942   8.434
 1451TIP3    H225913   3.125   5.978   8.340
 1452TIP3   OH225914   5.128   3.957   8.786
 1452TIP3    H125915   5.047   3.910   8.766
 1452TIP3    H225916   5.156   3.993   8.702
 1453TIP3   OH225917   6.582   6.079   1.207
 1453TIP3    H125918   6.635   6.119   1.139
 1453TIP3    H225919   6.557   5.994   1.171
 1454TIP3   OH225920   3.415   3.172   7.427
 1454TIP3    H125921   3.359   3.155   7.502
 1454TIP3    H225922   3.495   3.122   7.444
 1455TIP3   OH225923   6.111   6.338   0.284
 1455TIP3    H125924   6.175   6.406   0.263
 1455TIP3    H225925   6.035   6.386   0.317
 1456TIP3   OH225926   3.436   3.459   7.491
 1456TIP3    H125927   3.515   3.499   7.455
 1456TIP3    H225928   3.446   3.365   7.471
 1457TIP3   OH225929   1.061   6.054   1.107
 1457TIP3    H125930   1.148   6.016   1.098
 1457TIP3    H225931   1.007   6.005   1.044
 1458TIP3   OH225932   1.430   5.534   8.019
 1458TIP3    H125933   1.496   5.524   7.950
 1458TIP3    H225934   1.473   5.505   8.099
 1459TIP3   OH225935   6.528   1.393   7.740
 1459TIP3    H125936   6.437   1.418   7.753
 1459TIP3    H225937   6.524   1.326   7.672
 1460TIP3   OH225938   4.720   2.753   7.412
 1460TIP3    H125939   4.771   2.797   7.480
 1460TIP3    H225940   4.652   2.816   7.389
 1461TIP3   OH225941   1.504   2.339   0.367
 1461TIP3    H125942   1.413   2.364   0.351
 1461TIP3    H225943   1.538   2.314   0.281
 1462TIP3   OH225944   5.907   6.160   8.111
 1462TIP3    H125945   5.857   6.236   8.084
 1462TIP3    H225946   5.853   6.120   8.180
 1463TIP3   OH225947   4.142   0.373   7.197
 1463TIP3    H125948   4.064   0.325   7.172
 1463TIP3    H225949   4.193   0.312   7.250
 1464TIP3   OH225950   5.613   1.434   8.783
 1464TIP3    H125951   5.704   1.404   0.000
 1464TIP3    H225952   5.616   1.497   8.712
 1465TIP3   OH225953   4.713   6.254   0.949
 1465TIP3    H125954   4.629   6.251   0.994
 1465TIP3    H225955   4.706   6.188   0.880
 1466TIP3   OH225956   0.831   1.953   8.006
 1466TIP3    H125957   0.891   2.011   7.959
 1466TIP3    H225958   0.818   1.995   8.091
 1467TIP3   OH225959   1.981   1.830   8.403
 1467TIP3    H125960   1.966   1.823   8.498
 1467TIP3    H225961   2.031   1.752   8.382
 1468TIP3   OH225962   4.985   4.732   0.690
 1468TIP3    H125963   4.962   4.823   0.671
 1468TIP3    H225964   4.934   4.680   0.628
 1469TIP3   OH225965   4.267   4.513   1.377
 1469TIP3    H125966   4.238   4.590   1.326
 1469TIP3    H225967   4.220   4.440   1.337
 1470TIP3   OH225968   4.247   4.537   8.322
 1470TIP3    H125969   4.289   4.466   8.370
 1470TIP3    H225970   4.161   4.503   8.298
 1471TIP3   OH225971   1.046   3.058   1.223
 1471TIP3    H125972   0.995   3.092   1.150
 1471TIP3    H225973   1.012   2.970   1.238
 1472TIP3   OH225974   3.917   4.267   0.928
 1472TIP3    H125975   3.941   4.358   0.942
 1472TIP3    H225976   3.998   4.224   0.901
 1473TIP3   OH225977   4.141   3.296   7.031
 1473TIP3    H125978   4.231   3.264   7.023
 1473TIP3    H225979   4.139   3.375   6.976
 1474TIP3   OH225980   0.030   2.099   8.256
 1474TIP3    H125981   0.038   2.135   8.168
 1474TIP3    H225982   6.810   2.011   8.243
 1475TIP3   OH225983   1.047   3.449   8.019
 1475TIP3    H125984   1.107   3.380   7.992
 1475TIP3    H225985   1.005   3.415   8.098
 1476TIP3   OH225986   1.339   5.636   1.077
 1476TIP3    H125987   1.257   5.608   1.037
 1476TIP3    H225988   1.350   5.577   1.152
 1477TIP3   OH225989   6.736   0.485   1.460
 1477TIP3    H125990   6.725   0.393   1.440
 1477TIP3    H225991   6.808   0.514   1.403
 1478TIP3   OH225992   2.795   0.883   6.254
 1478TIP3    H125993   2.714   0.878   6.304
 1478TIP3    H225994   2.778   0.833   6.175
 1479TIP3   OH225995   5.300   2.181   0.630
 1479TIP3    H125996   5.222   2.232   0.609
 1479TIP3    H225997   5.354   2.240   0.683
 1480TIP3   OH225998   3.837   2.100   8.526
 1480TIP3    H125999   3.818   2.073   8.616
 1480TIP3    H226000   3.922   2.061   8.506
 1481TIP3   OH226001   4.769   4.975   6.483
 1481TIP3    H126002   4.765   4.889   6.440
 1481TIP3    H226003   4.696   5.023   6.446
 1482TIP3   OH226004   3.287   1.643   7.960
 1482TIP3    H126005   3.280   1.706   8.032
 1482TIP3    H226006   3.212   1.663   7.903
 1483TIP3   OH226007   5.472   2.235   6.767
 1483TIP3    H126008   5.441   2.148   6.740
 1483TIP3    H226009   5.424   2.296   6.712
 1484TIP3   OH226010   5.480   2.435   1.360
 1484TIP3    H126011   5.534   2.390   1.424
 1484TIP3    H226012   5.481   2.378   1.283
 1485TIP3   OH226013   5.567   5.030   0.985
 1485TIP3    H126014   5.523   4.948   0.964
 1485TIP3    H226015   5.641   5.004   1.040
 1486TIP3   OH226016   5.385   2.140   8.195
 1486TIP3    H126017   5.384   2.131   8.100
 1486TIP3    H226018   5.336   2.065   8.227
 1487TIP3   OH226019   2.969   3.071   0.548
 1487TIP3    H126020   2.955   3.157   0.509
 1487TIP3    H226021   2.986   3.014   0.473
 1488TIP3   OH226022   6.222   0.109   0.994
 1488TIP3    H126023   6.231   0.108   1.090
 1488TIP3    H226024   6.222   0.016   0.969
 1489TIP3   OH226025   5.182   6.341   8.047
 1489TIP3    H126026   5.174   6.333   7.952
 1489TIP3    H226027   5.218   6.429   8.060
 1490TIP3   OH226028   1.474   1.726   7.306
 1490TIP3    H126029   1.505   1.678   7.229
 1490TIP3    H226030   1.426   1.660   7.356
 1491TIP3   OH226031   6.784   5.353   1.631
 1491TIP3    H126032   6.767   5.429   1.688
 1491TIP3    H226033   6.699   5.332   1.593
 1492TIP3   OH226034   6.398   1.642   2.479
 1492TIP3    H126035   6.357   1.562   2.511
 1492TIP3    H226036   6.372   1.709   2.542
 1493TIP3   OH226037   6.624   4.391   0.082
 1493TIP3    H126038   6.547   4.388   0.025
 1493TIP3    H226039   6.595   4.439   0.159
 1494TIP3   OH226040   3.774   4.885   1.658
 1494TIP3    H126041   3.701   4.877   1.597
 1494TIP3    H226042   3.766   4.973   1.695
 1495TIP3   OH226043   1.201   4.803   7.348
 1495TIP3    H126044   1.265   4.812   7.278
 1495TIP3    H226045   1.133   4.746   7.312
 1496TIP3   OH226046   0.308   3.448   2.374
 1496TIP3    H126047   0.386   3.395   2.389
 1496TIP3    H226048   0.276   3.420   2.288
 1497TIP3   OH226049   2.102   6.183   7.943
 1497TIP3    H126050   2.087   6.096   7.980
 1497TIP3    H226051   2.058   6.181   7.858
 1498TIP3   OH226052   6.592   2.604   0.495
 1498TIP3    H126053   6.599   2.661   0.572
 1498TIP3    H226054   6.682   2.585   0.470
 1499TIP3   OH226055   6.157   5.194   6.296
 1499TIP3    H126056   6.238   5.159   6.259
 1499TIP3    H226057   6.185   5.269   6.349
 1500TIP3   OH226058   6.767   6.657   1.246
 1500TIP3    H126059   6.698   6.642   1.310
 1500TIP3    H226060   6.778   6.573   1.201
 1501TIP3   OH226061   0.777   5.030   0.864
 1501TIP3    H126062   0.835   4.970   0.911
 1501TIP3    H226063   0.693   5.022   0.908
 1502TIP3   OH226064   4.861   3.947   0.564
 1502TIP3    H126065   4.782   3.894   0.566
 1502TIP3    H226066   4.829   4.037   0.567
 1503TIP3   OH226067   5.838   1.611   0.962
 1503TIP3    H126068   5.918   1.610   1.014
 1503TIP3    H226069   5.780   1.671   1.008
 1504TIP3   OH226070   5.774   6.691   1.332
 1504TIP3    H126071   5.706   6.687   1.266
 1504TIP3    H226072   5.766   6.608   1.380
 1505TIP3   OH226073   4.580   2.509   7.034
 1505TIP3    H126074   4.668   2.542   7.019
 1505TIP3    H226075   4.538   2.576   7.088
 1506TIP3   OH226076   3.419   5.091   7.326
 1506TIP3    H126077   3.396   5.145   7.401
 1506TIP3    H226078   3.382   5.137   7.250
 1507TIP3   OH226079   6.472   3.352   0.040
 1507TIP3    H126080   6.513   3.267   0.057
 1507TIP3    H226081   6.544   3.406   0.006
 1508TIP3   OH226082   4.905   5.488   7.352
 1508TIP3    H126083   4.935   5.481   7.443
 1508TIP3    H226084   4.977   5.452   7.300
 1509TIP3   OH226085   2.370   1.315   8.643
 1509TIP3    H126086   2.293   1.302   8.700
 1509TIP3    H226087   2.427   1.373   8.693
 1510TIP3   OH226088   0.224   5.266   0.345
 1510TIP3    H126089   0.193   5.328   0.279
 1510TIP3    H226090   0.308   5.300   0.373
 1511TIP3   OH226091   0.464   0.735   8.365
 1511TIP3    H126092   0.414   0.800   8.316
 1511TIP3    H226093   0.442   0.752   8.457
 1512TIP3   OH226094   1.473   6.787   0.434
 1512TIP3    H126095   1.414   6.714   0.416
 1512TIP3    H226096   1.464   6.803   0.528
 1513TIP3   OH226097   2.623   0.047   0.234
 1513TIP3    H126098   2.613   6.788   0.294
 1513TIP3    H226099   2.557   0.110   0.263
 1514TIP3   OH226100   1.106   3.068   0.774
 1514TIP3    H126101   1.078   3.160   0.774
 1514TIP3    H226102   1.118   3.047   0.681
 1515TIP3   OH226103   3.173   1.966   0.169
 1515TIP3    H126104   3.261   1.931   0.184
 1515TIP3    H226105   3.142   1.922   0.090
 1516TIP3   OH226106   4.982   2.335   7.855
 1516TIP3    H126107   4.927   2.264   7.889
 1516TIP3    H226108   4.932   2.370   7.781
 1517TIP3   OH226109   4.673   2.718   8.141
 1517TIP3    H126110   4.698   2.788   8.081
 1517TIP3    H226111   4.714   2.640   8.105
 1518TIP3   OH226112   5.039   1.678   1.583
 1518TIP3    H126113   5.036   1.709   1.493
 1518TIP3    H226114   4.947   1.665   1.607
 1519TIP3   OH226115   5.402   4.378   7.931
 1519TIP3    H126116   5.393   4.285   7.910
 1519TIP3    H226117   5.376   4.384   8.023
 1520TIP3   OH226118   3.999   6.397   0.698
 1520TIP3    H126119   4.028   6.488   0.705
 1520TIP3    H226120   3.979   6.386   0.605
 1521TIP3   OH226121   1.244   4.513   8.767
 1521TIP3    H126122   1.244   4.604   0.004
 1521TIP3    H226123   1.197   4.514   8.683
 1522TIP3   OH226124   1.560   4.583   7.956
 1522TIP3    H126125   1.650   4.554   7.943
 1522TIP3    H226126   1.508   4.523   7.902
 1523TIP3   OH226127   2.967   5.007   8.205
 1523TIP3    H126128   2.884   5.051   8.223
 1523TIP3    H226129   3.002   4.985   8.292
 1524TIP3   OH226130   6.489   0.140   0.696
 1524TIP3    H126131   6.578   0.152   0.662
 1524TIP3    H226132   6.444   0.091   0.628
 1525TIP3   OH226133   0.578   1.283   7.003
 1525TIP3    H126134   0.663   1.321   7.025
 1525TIP3    H226135   0.546   1.337   6.931
 1526TIP3   OH226136   4.107   2.260   0.873
 1526TIP3    H126137   4.029   2.209   0.851
 1526TIP3    H226138   4.146   2.281   0.789
 1527TIP3   OH226139   1.781   3.122   0.065
 1527TIP3    H126140   1.789   3.205   0.019
 1527TIP3    H226141   1.783   3.145   0.158
 1528TIP3   OH226142   0.826   2.376   7.643
 1528TIP3    H126143   0.872   2.403   7.563
 1528TIP3    H226144   0.782   2.295   7.619
 1529TIP3   OH226145   5.308   2.278   0.163
 1529TIP3    H126146   5.339   2.188   0.149
 1529TIP3    H226147   5.273   2.305   0.078
 1530TIP3   OH226148   0.760   5.045   6.469
 1530TIP3    H126149   0.738   5.050   6.376
 1530TIP3    H226150   0.701   5.108   6.511
 1531TIP3   OH226151   2.038   4.841   7.113
 1531TIP3    H126152   2.019   4.816   7.023
 1531TIP3    H226153   2.104   4.778   7.143
 1532TIP3   OH226154   2.781   0.865   1.438
 1532TIP3    H126155   2.756   0.855   1.530
 1532TIP3    H226156   2.877   0.868   1.439
 1533TIP3   OH226157   3.707   6.199   0.111
 1533TIP3    H126158   3.774   6.231   0.171
 1533TIP3    H226159   3.652   6.142   0.164
 1534TIP3   OH226160   0.040   0.246   7.184
 1534TIP3    H126161   0.015   0.288   7.102
 1534TIP3    H226162   6.812   0.160   7.182
 1535TIP3   OH226163   4.460   5.522   0.544
 1535TIP3    H126164   4.421   5.568   0.470
 1535TIP3    H226165   4.539   5.572   0.564
 1536TIP3   OH226166   4.244   4.985   0.965
 1536TIP3    H126167   4.218   5.077   0.970
 1536TIP3    H226168   4.339   4.987   0.954
 1537TIP3   OH226169   2.042   6.163   7.405
 1537TIP3    H126170   2.111   6.112   7.447
 1537TIP3    H226171   2.071   6.254   7.411
 1538TIP3   OH226172   3.636   3.579   1.618
 1538TIP3    H126173   3.565   3.629   1.578
 1538TIP3    H226174   3.627   3.595   1.712
 1539TIP3   OH226175   3.902   2.695   8.706
 1539TIP3    H126176   3.982   2.690   8.757
 1539TIP3    H226177   3.862   2.778   8.732
 1540TIP3   OH226178   3.788   0.086   8.081
 1540TIP3    H126179   3.772   0.094   8.175
 1540TIP3    H226180   3.883   0.073   8.074
 1541TIP3   OH226181   5.656   0.233   0.424
 1541TIP3    H126182   5.721   0.209   0.491
 1541TIP3    H226183   5.582   0.267   0.475
 1542TIP3   OH226184   0.995   4.351   6.932
 1542TIP3    H126185   1.006   4.443   6.958
 1542TIP3    H226186   1.031   4.347   6.844
 1543TIP3   OH226187   4.969   2.639   0.718
 1543TIP3    H126188   5.028   2.625   0.792
 1543TIP3    H226189   5.013   2.704   0.664
 1544TIP3   OH226190   5.500   0.547   7.773
 1544TIP3    H126191   5.565   0.576   7.710
 1544TIP3    H226192   5.455   0.475   7.731
 1545TIP3   OH226193   1.896   3.546   0.254
 1545TIP3    H126194   1.835   3.513   0.319
 1545TIP3    H226195   1.967   3.586   0.305
 1546TIP3   OH226196   0.457   6.341   6.823
 1546TIP3    H126197   0.432   6.257   6.861
 1546TIP3    H226198   0.518   6.379   6.886
 1547TIP3   OH226199   4.340   4.985   6.829
 1547TIP3    H126200   4.334   4.890   6.833
 1547TIP3    H226201   4.367   5.004   6.739
 1548TIP3   OH226202   2.231   3.257   7.151
 1548TIP3    H126203   2.196   3.193   7.212
 1548TIP3    H226204   2.223   3.216   7.065
 1549TIP3   OH226205   0.825   3.835   0.740
 1549TIP3    H126206   0.770   3.758   0.742
 1549TIP3    H226207   0.766   3.908   0.759
 1550TIP3   OH226208   3.661   1.526   1.354
 1550TIP3    H126209   3.582   1.512   1.303
 1550TIP3    H226210   3.630   1.540   1.444
 1551TIP3   OH226211   3.209   5.468   1.208
 1551TIP3    H126212   3.188   5.562   1.212
 1551TIP3    H226213   3.221   5.442   1.299
 1552TIP3   OH226214   5.760   2.603   7.504
 1552TIP3    H126215   5.770   2.621   7.410
 1552TIP3    H226216   5.682   2.548   7.509
 1553TIP3   OH226217   6.422   4.564   2.917
 1553TIP3    H126218   6.337   4.546   2.877
 1553TIP3    H226219   6.408   4.645   2.968
 1554TIP3   OH226220   1.446   2.899   7.039
 1554TIP3    H126221   1.486   2.975   6.997
 1554TIP3    H226222   1.354   2.924   7.052
 1555TIP3   OH226223   5.513   2.569   0.964
 1555TIP3    H126224   5.588   2.603   0.917
 1555TIP3    H226225   5.491   2.639   1.027
 1556TIP3   OH226226   6.074   2.929   1.653
 1556TIP3    H126227   6.064   2.953   1.561
 1556TIP3    H226228   6.155   2.879   1.657
 1557TIP3   OH226229   4.001   0.611   0.850
 1557TIP3    H126230   3.923   0.558   0.866
 1557TIP3    H226231   3.975   0.700   0.874
 1558TIP3   OH226232   2.536   4.047   7.970
 1558TIP3    H126233   2.520   4.137   7.943
 1558TIP3    H226234   2.631   4.038   7.969
 1559TIP3   OH226235   2.032   3.841   1.150
 1559TIP3    H126236   1.961   3.777   1.162
 1559TIP3    H226237   2.080   3.809   1.074
 1560TIP3   OH226238   3.843   6.361   8.351
 1560TIP3    H126239   3.879   6.386   8.266
 1560TIP3    H226240   3.847   6.442   8.403
 1561TIP3   OH226241   1.003   6.333   7.884
 1561TIP3    H126242   0.963   6.405   7.933
 1561TIP3    H226243   0.931   6.294   7.835
 1562TIP3   OH226244   3.922   3.122   0.502
 1562TIP3    H126245   3.886   3.102   0.415
 1562TIP3    H226246   3.851   3.103   0.563
 1563TIP3   OH226247   1.929   6.311   0.646
 1563TIP3    H126248   1.948   6.329   0.554
 1563TIP3    H226249   1.852   6.254   0.644
 1564TIP3   OH226250   2.541   5.765   7.157
 1564TIP3    H126251   2.618   5.821   7.162
 1564TIP3    H226252   2.573   5.677   7.175
 1565TIP3   OH226253   5.254   6.630   8.457
 1565TIP3    H126254   5.313   6.634   8.382
 1565TIP3    H226255   5.308   6.652   8.532
 1566TIP3   OH226256   1.040   0.290   6.111
 1566TIP3    H126257   0.949   0.295   6.142
 1566TIP3    H226258   1.041   0.217   6.050
 1567TIP3   OH226259   4.117   4.886   7.756
 1567TIP3    H126260   4.176   4.946   7.711
 1567TIP3    H226261   4.120   4.806   7.703
 1568TIP3   OH226262   4.307   1.532   8.015
 1568TIP3    H126263   4.337   1.502   7.929
 1568TIP3    H226264   4.253   1.460   8.047
 1569TIP3   OH226265   4.633   0.010   1.266
 1569TIP3    H126266   4.664   6.765   1.334
 1569TIP3    H226267   4.706   0.071   1.252
 1570TIP3   OH226268   4.813   1.538   1.206
 1570TIP3    H126269   4.877   1.469   1.187
 1570TIP3    H226270   4.831   1.605   1.140
 1571TIP3   OH226271   3.159   0.220   0.743
 1571TIP3    H126272   3.233   0.160   0.754
 1571TIP3    H226273   3.138   0.248   0.832
 1572TIP3   OH226274   6.448   2.033   1.649
 1572TIP3    H126275   6.369   1.980   1.644
 1572TIP3    H226276   6.447   2.069   1.738
 1573TIP3   OH226277   5.231   0.111   1.604
 1573TIP3    H126278   5.265   0.112   1.693
 1573TIP3    H226279   5.180   0.030   1.598
 1574TIP3   OH226280   0.908   3.395   6.384
 1574TIP3    H126281   0.838   3.397   6.450
 1574TIP3    H226282   0.916   3.485   6.354
 1575TIP3   OH226283   1.477   1.027   0.441
 1575TIP3    H126284   1.503   0.937   0.421
 1575TIP3    H226285   1.554   1.080   0.419
 1576TIP3   OH226286   2.222   3.268   8.050
 1576TIP3    H126287   2.172   3.264   7.969
 1576TIP3    H226288   2.157   3.279   8.119
 1577TIP3   OH226289   1.831   4.365   0.147
 1577TIP3    H126290   1.766   4.304   0.182
 1577TIP3    H226291   1.907   4.354   0.204
 1578TIP3   OH226292   0.618   1.774   8.039
 1578TIP3    H126293   0.573   1.854   8.011
 1578TIP3    H226294   0.705   1.804   8.066
 1579TIP3   OH226295   6.200   1.228   7.736
 1579TIP3    H126296   6.226   1.254   7.824
 1579TIP3    H226297   6.282   1.231   7.686
 1580TIP3   OH226298   5.442   2.721   8.580
 1580TIP3    H126299   5.429   2.651   8.645
 1580TIP3    H226300   5.382   2.699   8.509
 1581TIP3   OH226301   2.373   1.366   0.850
 1581TIP3    H126302   2.324   1.439   0.887
 1581TIP3    H226303   2.319   1.289   0.866
 1582TIP3   OH226304   3.320   5.561   8.529
 1582TIP3    H126305   3.229   5.532   8.522
 1582TIP3    H226306   3.371   5.485   8.499
 1583TIP3   OH226307   2.598   5.042   0.714
 1583TIP3    H126308   2.690   5.069   0.720
 1583TIP3    H226309   2.572   5.065   0.625
 1584TIP3   OH226310   2.934   0.450   0.709
 1584TIP3    H126311   2.899   0.361   0.702
 1584TIP3    H226312   2.858   0.505   0.727
 1585TIP3   OH226313   5.410   6.656   8.693
 1585TIP3    H126314   5.463   6.732   8.716
 1585TIP3    H226315   5.469   6.581   8.707
 1586TIP3   OH226316   2.288   1.348   1.666
 1586TIP3    H126317   2.228   1.422   1.678
 1586TIP3    H226318   2.285   1.302   1.750
 1587TIP3   OH226319   2.166   5.480   8.182
 1587TIP3    H126320   2.118   5.536   8.243
 1587TIP3    H226321   2.099   5.428   8.138
 1588TIP3   OH226322   5.827   0.177   0.686
 1588TIP3    H126323   5.876   0.169   0.768
 1588TIP3    H226324   5.895   0.177   0.618
 1589TIP3   OH226325   6.404   6.262   1.812
 1589TIP3    H126326   6.376   6.171   1.807
 1589TIP3    H226327   6.499   6.257   1.827
 1590TIP3   OH226328   4.358   2.098   8.767
 1590TIP3    H126329   4.337   2.179   0.022
 1590TIP3    H226330   4.410   2.127   8.692
 1591TIP3   OH226331   6.473   2.270   7.479
 1591TIP3    H126332   6.403   2.281   7.414
 1591TIP3    H226333   6.485   2.358   7.515
 1592TIP3   OH226334   5.156   2.640   0.016
 1592TIP3    H126335   5.180   2.724   8.766
 1592TIP3    H226336   5.183   2.650   0.107
 1593TIP3   OH226337   6.411   0.454   7.491
 1593TIP3    H126338   6.430   0.369   7.530
 1593TIP3    H226339   6.470   0.461   7.416
 1594TIP3   OH226340   1.938   4.850   1.294
 1594TIP3    H126341   1.857   4.827   1.339
 1594TIP3    H226342   1.936   4.945   1.288
 1595TIP3   OH226343   0.061   0.324   2.072
 1595TIP3    H126344   0.004   0.268   2.124
 1595TIP3    H226345   0.063   0.283   1.986
 1596TIP3   OH226346   2.516   3.277   8.557
 1596TIP3    H126347   2.539   3.206   8.497
 1596TIP3    H226348   2.436   3.314   8.520
 1597TIP3   OH226349   1.756   4.859   1.100
 1597TIP3    H126350   1.732   4.860   1.192
 1597TIP3    H226351   1.847   4.889   1.098
 1598TIP3   OH226352   6.306   5.921   7.890
 1598TIP3    H126353   6.210   5.923   7.880
 1598TIP3    H226354   6.321   5.969   7.972
 1599TIP3   OH226355   2.217   0.656   1.532
 1599TIP3    H126356   2.137   0.661   1.479
 1599TIP3    H226357   2.214   0.735   1.587
 1600TIP3   OH226358   5.990   5.741   0.894
 1600TIP3    H126359   6.019   5.660   0.852
 1600TIP3    H226360   5.989   5.720   0.988
 1601TIP3   OH226361   3.710   1.324   0.569
 1601TIP3    H126362   3.632   1.276   0.596
 1601TIP3    H226363   3.680   1.415   0.558
 1602TIP3   OH226364   5.838   3.109   8.048
 1602TIP3    H126365   5.845   3.025   8.093
 1602TIP3    H226366   5.806   3.087   7.960
 1603TIP3   OH226367   1.272   2.809   7.441
 1603TIP3    H126368   1.277   2.901   7.414
 1603TIP3    H226369   1.294   2.760   7.362
 1604TIP3   OH226370   1.297   2.229   8.232
 1604TIP3    H126371   1.217   2.233   8.284
 1604TIP3    H226372   1.273   2.178   8.155
 1605TIP3   OH226373   4.979   5.496   0.298
 1605TIP3    H126374   4.910   5.533   0.243
 1605TIP3    H226375   4.986   5.557   0.371
 1606TIP3   OH226376   1.444   3.592   0.209
 1606TIP3    H126377   1.375   3.547   0.160
 1606TIP3    H226378   1.511   3.611   0.143
 1607TIP3   OH226379   3.026   4.822   6.491
 1607TIP3    H126380   3.023   4.909   6.449
 1607TIP3    H226381   2.986   4.764   6.427
 1608TIP3   OH226382   5.979   5.910   7.729
 1608TIP3    H126383   5.920   5.985   7.727
 1608TIP3    H226384   5.983   5.885   7.822
 1609TIP3   OH226385   0.683   6.649   6.380
 1609TIP3    H126386   0.718   6.736   6.357
 1609TIP3    H226387   0.748   6.588   6.347
 1610TIP3   OH226388   2.565   5.314   7.436
 1610TIP3    H126389   2.486   5.273   7.472
 1610TIP3    H226390   2.585   5.385   7.497
 1611TIP3   OH226391   6.556   2.784   1.865
 1611TIP3    H126392   6.557   2.828   1.779
 1611TIP3    H226393   6.595   2.698   1.848
 1612TIP3   OH226394   3.678   3.782   7.667
 1612TIP3    H126395   3.664   3.709   7.607
 1612TIP3    H226396   3.750   3.832   7.628
 1613TIP3   OH226397   4.003   5.338   7.167
 1613TIP3    H126398   4.097   5.350   7.152
 1613TIP3    H226399   3.962   5.377   7.090
 1614TIP3   OH226400   1.898   5.760   0.343
 1614TIP3    H126401   1.913   5.669   0.316
 1614TIP3    H226402   1.967   5.776   0.408
 1615TIP3   OH226403   0.914   3.032   1.530
 1615TIP3    H126404   0.882   3.059   1.444
 1615TIP3    H226405   0.991   2.978   1.512
 1616TIP3   OH226406   3.309   4.785   0.486
 1616TIP3    H126407   3.271   4.782   0.398
 1616TIP3    H226408   3.299   4.875   0.514
 1617TIP3   OH226409   2.863   3.870   0.671
 1617TIP3    H126410   2.847   3.922   0.592
 1617TIP3    H226411   2.955   3.845   0.665
 1618TIP3   OH226412   2.899   5.374   0.865
 1618TIP3    H126413   2.846   5.426   0.805
 1618TIP3    H226414   2.908   5.289   0.822
 1619TIP3   OH226415   2.035   5.813   0.030
 1619TIP3    H126416   2.059   5.896   0.071
 1619TIP3    H226417   2.045   5.748   0.100
 1620TIP3   OH226418   0.001   6.380   1.511
 1620TIP3    H126419   6.781   6.291   1.516
 1620TIP3    H226420   6.763   6.430   1.574
 1621TIP3   OH226421   2.318   3.318   1.024
 1621TIP3    H126422   2.295   3.376   0.952
 1621TIP3    H226423   2.395   3.271   0.992
 1622TIP3   OH226424   3.093   4.353   8.348
 1622TIP3    H126425   3.114   4.354   8.254
 1622TIP3    H226426   3.172   4.317   8.389
 1623TIP3   OH226427   2.751   6.365   7.634
 1623TIP3    H126428   2.763   6.352   7.728
 1623TIP3    H226429   2.768   6.458   7.620
 1624TIP3   OH226430   5.976   2.004   8.666
 1624TIP3    H126431   5.889   1.969   8.685
 1624TIP3    H226432   5.992   2.067   8.736
 1625TIP3   OH226433   4.937   1.608   7.630
 1625TIP3    H126434   4.954   1.514   7.623
 1625TIP3    H226435   4.941   1.626   7.723
 1626TIP3   OH226436   3.413   6.435   8.228
 1626TIP3    H126437   3.452   6.386   8.299
 1626TIP3    H226438   3.354   6.373   8.185
 1627TIP3   OH226439   5.945   2.101   0.198
 1627TIP3    H126440   5.859   2.076   0.165
 1627TIP3    H226441   5.950   2.064   0.286
 1628TIP3   OH226442   1.322   1.610   8.715
 1628TIP3    H126443   1.375   1.689   8.697
 1628TIP3    H226444   1.387   1.543   8.737
 1629TIP3   OH226445   4.870   4.096   7.779
 1629TIP3    H126446   4.870   4.085   7.684
 1629TIP3    H226447   4.951   4.144   7.798
 1630TIP3   OH226448   6.133   1.322   8.629
 1630TIP3    H126449   6.188   1.290   8.557
 1630TIP3    H226450   6.087   1.397   8.592
 1631TIP3   OH226451   5.199   2.421   1.757
 1631TIP3    H126452   5.277   2.434   1.702
 1631TIP3    H226453   5.223   2.349   1.816
 1632TIP3   OH226454   0.162   1.191   6.535
 1632TIP3    H126455   0.209   1.220   6.457
 1632TIP3    H226456   0.104   1.121   6.504
 1633TIP3   OH226457   3.250   2.416   1.451
 1633TIP3    H126458   3.312   2.418   1.524
 1633TIP3    H226459   3.301   2.385   1.376
 1634TIP3   OH226460   5.046   6.129   0.098
 1634TIP3    H126461   5.126   6.155   0.052
 1634TIP3    H226462   4.976   6.172   0.049
 1635TIP3   OH226463   3.905   5.526   8.690
 1635TIP3    H126464   3.820   5.489   8.667
 1635TIP3    H226465   3.895   5.555   8.781
 1636TIP3   OH226466   5.179   4.259   0.623
 1636TIP3    H126467   5.163   4.165   0.631
 1636TIP3    H226468   5.274   4.268   0.637
 1637TIP3   OH226469   3.651   0.022   1.210
 1637TIP3    H126470   3.649   0.114   1.236
 1637TIP3    H226471   3.726   6.800   1.257
 1638TIP3   OH226472   6.657   3.684   1.658
 1638TIP3    H126473   6.564   3.681   1.682
 1638TIP3    H226474   6.702   3.647   1.735
 1639TIP3   OH226475   3.238   4.429   6.196
 1639TIP3    H126476   3.173   4.382   6.249
 1639TIP3    H226477   3.315   4.372   6.195
 1640TIP3   OH226478   2.422   5.804   7.387
 1640TIP3    H126479   2.472   5.787   7.307
 1640TIP3    H226480   2.475   5.767   7.457
 1641TIP3   OH226481   3.581   0.982   0.436
 1641TIP3    H126482   3.538   0.916   0.489
 1641TIP3    H226483   3.533   0.981   0.353
 1642TIP3   OH226484   5.531   6.720   0.217
 1642TIP3    H126485   5.561   6.789   0.158
 1642TIP3    H226486   5.437   6.737   0.228
 1643TIP3   OH226487   2.946   5.856   8.608
 1643TIP3    H126488   3.006   5.888   8.540
 1643TIP3    H226489   2.903   5.780   8.569
 1644TIP3   OH226490   6.270   4.641   7.675
 1644TIP3    H126491   6.212   4.711   7.645
 1644TIP3    H226492   6.353   4.657   7.629
 1645TIP3   OH226493   6.103   5.945   7.502
 1645TIP3    H126494   6.121   6.038   7.488
 1645TIP3    H226495   6.046   5.942   7.578
 1646TIP3   OH226496   6.556   1.607   0.916
 1646TIP3    H126497   6.565   1.533   0.856
 1646TIP3    H226498   6.465   1.606   0.943
 1647TIP3   OH226499   3.119   3.223   1.417
 1647TIP3    H126500   3.077   3.308   1.403
 1647TIP3    H226501   3.160   3.202   1.333
 1648TIP3   OH226502   5.599   4.405   0.120
 1648TIP3    H126503   5.623   4.336   0.182
 1648TIP3    H226504   5.682   4.448   0.099
 1649TIP3   OH226505   2.485   1.150   0.976
 1649TIP3    H126506   2.392   1.144   1.000
 1649TIP3    H226507   2.494   1.240   0.943
 1650TIP3   OH226508   0.304   3.285   1.196
 1650TIP3    H126509   0.303   3.303   1.102
 1650TIP3    H226510   0.262   3.361   1.235
 1651TIP3   OH226511   3.131   3.883   2.156
 1651TIP3    H126512   3.133   3.857   2.248
 1651TIP3    H226513   3.177   3.967   2.153
 1652TIP3   OH226514   6.287   4.331   1.109
 1652TIP3    H126515   6.192   4.333   1.100
 1652TIP3    H226516   6.308   4.411   1.157
 1653TIP3   OH226517   4.577   6.062   1.522
 1653TIP3    H126518   4.536   5.983   1.557
 1653TIP3    H226519   4.655   6.030   1.477
 1654TIP3   OH226520   4.001   3.347   0.789
 1654TIP3    H126521   4.059   3.280   0.755
 1654TIP3    H226522   4.021   3.351   0.883
 1655TIP3   OH226523   0.585   2.245   7.459
 1655TIP3    H126524   0.634   2.317   7.419
 1655TIP3    H226525   0.652   2.181   7.483
 1656TIP3   OH226526   4.973   1.409   6.750
 1656TIP3    H126527   5.045   1.456   6.709
 1656TIP3    H226528   4.897   1.428   6.695
 1657TIP3   OH226529   4.133   0.022   0.861
 1657TIP3    H126530   4.176   6.770   0.913
 1657TIP3    H226531   4.201   0.054   0.801
 1658TIP3   OH226532   1.456   5.605   1.532
 1658TIP3    H126533   1.470   5.659   1.610
 1658TIP3    H226534   1.467   5.515   1.563
 1659TIP3   OH226535   1.644   6.035   8.735
 1659TIP3    H126536   1.681   5.999   8.654
 1659TIP3    H226537   1.686   5.986   0.014
 1660TIP3   OH226538   0.205   0.790   8.020
 1660TIP3    H126539   0.197   0.838   8.102
 1660TIP3    H226540   0.198   0.698   8.045
 1661TIP3   OH226541   3.801   3.043   0.276
 1661TIP3    H126542   3.880   3.008   0.235
 1661TIP3    H226543   3.729   2.996   0.233
 1662TIP3   OH226544   5.928   4.848   8.688
 1662TIP3    H126545   5.984   4.898   8.628
 1662TIP3    H226546   5.948   4.884   8.774
 1663TIP3   OH226547   4.844   3.809   2.595
 1663TIP3    H126548   4.809   3.725   2.626
 1663TIP3    H226549   4.776   3.873   2.617
 1664TIP3   OH226550   3.083   5.499   8.724
 1664TIP3    H126551   3.009   5.531   8.673
 1664TIP3    H226552   3.076   5.545   0.017
 1665TIP3   OH226553   4.736   2.114   7.347
 1665TIP3    H126554   4.707   2.200   7.317
 1665TIP3    H226555   4.656   2.068   7.368
 1666TIP3   OH226556   6.506   3.689   8.702
 1666TIP3    H126557   6.529   3.753   8.635
 1666TIP3    H226558   6.473   3.740   8.775
 1667TIP3   OH226559   6.380   0.301   7.944
 1667TIP3    H126560   6.364   0.391   7.972
 1667TIP3    H226561   6.399   0.308   7.850
 1668TIP3   OH226562   0.590   0.148   0.548
 1668TIP3    H126563   0.589   0.241   0.523
 1668TIP3    H226564   0.573   0.148   0.642
 1669TIP3   OH226565   4.195   2.081   8.497
 1669TIP3    H126566   4.285   2.111   8.509
 1669TIP3    H226567   4.144   2.135   8.558
 1670TIP3   OH226568   5.793   6.774   7.517
 1670TIP3    H126569   5.748   6.697   7.551
 1670TIP3    H226570   5.886   6.755   7.527
 1671TIP3   OH226571   3.888   6.123   2.044
 1671TIP3    H126572   3.918   6.201   2.090
 1671TIP3    H226573   3.798   6.110   2.075
 1672TIP3   OH226574   0.542   3.470   0.374
 1672TIP3    H126575   0.525   3.400   0.311
 1672TIP3    H226576   0.457   3.512   0.387
 1673TIP3   OH226577   0.251   3.519   1.631
 1673TIP3    H126578   0.251   3.429   1.664
 1673TIP3    H226579   0.223   3.511   1.540
 1674TIP3   OH226580   6.534   1.744   1.221
 1674TIP3    H126581   6.621   1.782   1.237
 1674TIP3    H226582   6.536   1.660   1.268
 1675TIP3   OH226583   2.885   6.320   7.902
 1675TIP3    H126584   2.876   6.331   7.997
 1675TIP3    H226585   2.939   6.394   7.874
 1676TIP3   OH226586   1.546   2.481   6.472
 1676TIP3    H126587   1.540   2.558   6.416
 1676TIP3    H226588   1.519   2.511   6.558
 1677TIP3   OH226589   0.933   6.057   7.296
 1677TIP3    H126590   0.847   6.073   7.336
 1677TIP3    H226591   0.979   6.003   7.360
 1678TIP3   OH226592   0.748   1.650   8.466
 1678TIP3    H126593   0.724   1.621   8.378
 1678TIP3    H226594   0.674   1.704   8.494
 1679TIP3   OH226595   6.434   2.291   0.706
 1679TIP3    H126596   6.502   2.246   0.657
 1679TIP3    H226597   6.474   2.373   0.734
 1680TIP3   OH226598   2.420   0.380   2.455
 1680TIP3    H126599   2.496   0.325   2.437
 1680TIP3    H226600   2.365   0.327   2.513
 1681TIP3   OH226601   2.935   4.209   7.346
 1681TIP3    H126602   2.880   4.287   7.337
 1681TIP3    H226603   3.023   4.239   7.325
 1682TIP3   OH226604   2.477   4.083   6.918
 1682TIP3    H126605   2.413   4.020   6.886
 1682TIP3    H226606   2.519   4.117   6.839
 1683TIP3   OH226607   0.677   4.945   8.674
 1683TIP3    H126608   0.603   4.988   8.631
 1683TIP3    H226609   0.639   4.866   8.713
 1684TIP3   OH226610   1.585   0.806   8.185
 1684TIP3    H126611   1.658   0.839   8.132
 1684TIP3    H226612   1.519   0.875   8.179
 1685TIP3   OH226613   3.495   1.891   7.870
 1685TIP3    H126614   3.420   1.880   7.811
 1685TIP3    H226615   3.494   1.984   7.893
 1686TIP3   OH226616   1.710   5.974   0.209
 1686TIP3    H126617   1.775   5.925   0.260
 1686TIP3    H226618   1.631   5.921   0.216
 1687TIP3   OH226619   4.846   0.178   1.242
 1687TIP3    H126620   4.896   0.147   1.317
 1687TIP3    H226621   4.891   0.257   1.214
 1688TIP3   OH226622   3.787   5.577   0.713
 1688TIP3    H126623   3.691   5.584   0.717
 1688TIP3    H226624   3.816   5.598   0.802
 1689TIP3   OH226625   0.890   1.632   2.146
 1689TIP3    H126626   0.834   1.705   2.174
 1689TIP3    H226627   0.974   1.672   2.125
 1690TIP3   OH226628   6.213   2.476   1.890
 1690TIP3    H126629   6.134   2.505   1.935
 1690TIP3    H226630   6.181   2.425   1.815
 1691TIP3   OH226631   4.040   5.691   7.007
 1691TIP3    H126632   4.082   5.705   6.922
 1691TIP3    H226633   4.113   5.684   7.068
 1692TIP3   OH226634   5.477   4.662   8.063
 1692TIP3    H126635   5.539   4.621   8.124
 1692TIP3    H226636   5.407   4.694   8.119
 1693TIP3   OH226637   0.942   6.646   8.358
 1693TIP3    H126638   0.902   6.729   8.385
 1693TIP3    H226639   0.933   6.589   8.434
 1694TIP3   OH226640   2.666   6.527   8.528
 1694TIP3    H126641   2.584   6.488   8.557
 1694TIP3    H226642   2.647   6.620   8.517
 1695TIP3   OH226643   0.950   2.857   0.621
 1695TIP3    H126644   0.858   2.832   0.617
 1695TIP3    H226645   0.959   2.925   0.555
 1696TIP3   OH226646   6.531   2.612   0.027
 1696TIP3    H126647   6.598   2.636   0.092
 1696TIP3    H226648   6.460   2.674   0.043
 1697TIP3   OH226649   2.450   5.841   1.348
 1697TIP3    H126650   2.408   5.823   1.264
 1697TIP3    H226651   2.380   5.875   1.404
 1698TIP3   OH226652   2.049   6.704   0.086
 1698TIP3    H126653   1.957   6.724   0.070
 1698TIP3    H226654   2.054   6.608   0.080
 1699TIP3   OH226655   0.628   6.607   7.242
 1699TIP3    H126656   0.680   6.609   7.161
 1699TIP3    H226657   0.538   6.620   7.214
 1700TIP3   OH226658   0.199   5.698   7.122
 1700TIP3    H126659   0.155   5.706   7.038
 1700TIP3    H226660   0.293   5.702   7.100
 1701TIP3   OH226661   3.684   0.639   8.740
 1701TIP3    H126662   3.592   0.665   8.749
 1701TIP3    H226663   3.681   0.564   8.681
 1702TIP3   OH226664   5.465   2.468   6.961
 1702TIP3    H126665   5.470   2.428   6.874
 1702TIP3    H226666   5.556   2.483   6.985
 1703TIP3   OH226667   3.680   4.319   8.666
 1703TIP3    H126668   3.676   4.276   8.581
 1703TIP3    H226669   3.693   4.248   8.729
 1704TIP3   OH226670   6.556   0.982   8.461
 1704TIP3    H126671   6.647   1.008   8.475
 1704TIP3    H226672   6.553   0.891   8.489
 1705TIP3   OH226673   4.232   2.103   2.650
 1705TIP3    H126674   4.188   2.187   2.663
 1705TIP3    H226675   4.324   2.125   2.635
 1706TIP3   OH226676   2.908   6.506   2.170
 1706TIP3    H126677   2.820   6.474   2.151
 1706TIP3    H226678   2.955   6.495   2.087
 1707TIP3   OH226679   0.707   4.217   8.535
 1707TIP3    H126680   0.788   4.257   8.567
 1707TIP3    H226681   0.716   4.125   8.558
 1708TIP3   OH226682   0.514   0.819   1.522
 1708TIP3    H126683   0.540   0.786   1.608
 1708TIP3    H226684   0.459   0.895   1.542
 1709TIP3   OH226685   1.933   2.601   0.449
 1709TIP3    H126686   1.941   2.697   0.446
 1709TIP3    H226687   1.860   2.582   0.389
 1710TIP3   OH226688   4.481   0.554   1.912
 1710TIP3    H126689   4.497   0.469   1.954
 1710TIP3    H226690   4.558   0.568   1.857
 1711TIP3   OH226691   0.210   6.290   0.870
 1711TIP3    H126692   0.155   6.229   0.820
 1711TIP3    H226693   0.219   6.249   0.956
 1712TIP3   OH226694   3.578   6.748   8.522
 1712TIP3    H126695   3.510   6.716   8.462
 1712TIP3    H226696   3.642   6.677   8.526
 1713TIP3   OH226697   3.063   0.282   0.495
 1713TIP3    H126698   3.095   0.289   0.585
 1713TIP3    H226699   2.976   0.242   0.503
 1714TIP3   OH226700   3.461   4.979   6.819
 1714TIP3    H126701   3.518   5.053   6.797
 1714TIP3    H226702   3.467   4.921   6.743
 1715TIP3   OH226703   5.592   0.918   7.731
 1715TIP3    H126704   5.644   0.942   7.808
 1715TIP3    H226705   5.657   0.900   7.663
 1716TIP3   OH226706   2.403   2.808   0.287
 1716TIP3    H126707   2.316   2.807   0.247
 1716TIP3    H226708   2.464   2.817   0.214
 1717TIP3   OH226709   2.191   4.273   1.367
 1717TIP3    H126710   2.191   4.181   1.342
 1717TIP3    H226711   2.126   4.313   1.310
 1718TIP3   OH226712   0.112   3.106   0.678
 1718TIP3    H126713   0.070   3.084   0.761
 1718TIP3    H226714   0.050   3.079   0.611
 1719TIP3   OH226715   3.285   2.543   6.387
 1719TIP3    H126716   3.238   2.551   6.304
 1719TIP3    H226717   3.218   2.523   6.451
 1720TIP3   OH226718   5.932   0.580   7.415
 1720TIP3    H126719   6.024   0.601   7.429
 1720TIP3    H226720   5.915   0.607   7.325
 1721TIP3   OH226721   6.090   5.380   2.513
 1721TIP3    H126722   6.105   5.469   2.482
 1721TIP3    H226723   6.174   5.352   2.549
 1722TIP3   OH226724   4.700   4.164   8.631
 1722TIP3    H126725   4.669   4.140   8.718
 1722TIP3    H226726   4.633   4.131   8.572
 1723TIP3   OH226727   3.919   2.200   8.139
 1723TIP3    H126728   3.997   2.147   8.153
 1723TIP3    H226729   3.938   2.249   8.059
 1724TIP3   OH226730   5.970   4.470   1.978
 1724TIP3    H126731   5.933   4.401   2.034
 1724TIP3    H226732   5.923   4.460   1.895
 1725TIP3   OH226733   4.611   6.729   1.966
 1725TIP3    H126734   4.700   6.731   2.001
 1725TIP3    H226735   4.568   6.805   2.005
 1726TIP3   OH226736   4.079   6.100   0.609
 1726TIP3    H126737   4.125   6.152   0.675
 1726TIP3    H226738   4.149   6.058   0.559
 1727TIP3   OH226739   5.173   6.601   1.863
 1727TIP3    H126740   5.176   6.505   1.860
 1727TIP3    H226741   5.228   6.625   1.937
 1728TIP3   OH226742   0.055   1.417   8.689
 1728TIP3    H126743   0.112   1.362   8.743
 1728TIP3    H226744   6.793   1.433   8.744
 1729TIP3   OH226745   4.492   5.929   8.372
 1729TIP3    H126746   4.531   5.976   8.299
 1729TIP3    H226747   4.455   5.850   8.333
 1730TIP3   OH226748   1.360   0.967   7.767
 1730TIP3    H126749   1.320   1.037   7.818
 1730TIP3    H226750   1.335   0.886   7.812
 1731TIP3   OH226751   1.811   1.832   7.935
 1731TIP3    H126752   1.838   1.838   7.843
 1731TIP3    H226753   1.884   1.868   7.984
 1732TIP3   OH226754   5.420   1.535   1.182
 1732TIP3    H126755   5.402   1.606   1.120
 1732TIP3    H226756   5.516   1.536   1.192
 1733TIP3   OH226757   0.313   5.521   7.303
 1733TIP3    H126758   0.264   5.482   7.231
 1733TIP3    H226759   0.296   5.614   7.296
 1734TIP3   OH226760   0.010   2.174   1.845
 1734TIP3    H126761   0.089   2.120   1.850
 1734TIP3    H226762   6.790   2.174   1.934
 1735TIP3   OH226763   3.834   0.059   0.041
 1735TIP3    H126764   3.839   0.153   0.059
 1735TIP3    H226765   3.758   0.029   0.091
 1736TIP3   OH226766   1.195   6.503   2.122
 1736TIP3    H126767   1.181   6.411   2.141
 1736TIP3    H226768   1.122   6.548   2.166
 1737TIP3   OH226769   1.825   3.873   8.284
 1737TIP3    H126770   1.879   3.817   8.229
 1737TIP3    H226771   1.873   3.956   8.288
 1738TIP3   OH226772   4.815   5.773   2.135
 1738TIP3    H126773   4.726   5.755   2.107
 1738TIP3    H226774   4.850   5.831   2.067
 1739TIP3   OH226775   1.913   0.582   1.027
 1739TIP3    H126776   1.946   0.509   0.975
 1739TIP3    H226777   1.871   0.540   1.102
 1740TIP3   OH226778   1.592   1.349   0.274
 1740TIP3    H126779   1.611   1.300   0.354
 1740TIP3    H226780   1.591   1.283   0.205
 1741TIP3   OH226781   6.484   0.717   7.585
 1741TIP3    H126782   6.502   0.624   7.595
 1741TIP3    H226783   6.480   0.731   7.490
 1742TIP3   OH226784   1.470   6.494   2.144
 1742TIP3    H126785   1.386   6.541   2.142
 1742TIP3    H226786   1.505   6.513   2.232
 1743TIP3   OH226787   1.951   6.743   7.708
 1743TIP3    H126788   1.888   6.697   7.764
 1743TIP3    H226789   2.037   6.716   7.739
 1744TIP3   OH226790   0.479   4.531   7.336
 1744TIP3    H126791   0.524   4.447   7.346
 1744TIP3    H226792   0.547   4.597   7.348
 1745TIP3   OH226793   4.547   3.462   8.730
 1745TIP3    H126794   4.626   3.460   8.675
 1745TIP3    H226795   4.580   3.473   0.028
 1746TIP3   OH226796   1.864   0.372   7.104
 1746TIP3    H126797   1.916   0.344   7.029
 1746TIP3    H226798   1.777   0.388   7.068
 1747TIP3   OH226799   4.293   3.485   2.421
 1747TIP3    H126800   4.264   3.574   2.404
 1747TIP3    H226801   4.254   3.463   2.506
 1748TIP3   OH226802   6.372   0.302   1.544
 1748TIP3    H126803   6.284   0.317   1.578
 1748TIP3    H226804   6.430   0.338   1.611
 1749TIP3   OH226805   3.383   2.426   2.112
 1749TIP3    H126806   3.419   2.496   2.166
 1749TIP3    H226807   3.290   2.447   2.103
 1750TIP3   OH226808   1.285   1.958   7.698
 1750TIP3    H126809   1.343   2.031   7.720
 1750TIP3    H226810   1.242   1.985   7.617
 1751TIP3   OH226811   6.466   0.407   0.467
 1751TIP3    H126812   6.380   0.390   0.429
 1751TIP3    H226813   6.447   0.444   0.554
 1752TIP3   OH226814   4.628   6.013   1.165
 1752TIP3    H126815   4.586   6.098   1.149
 1752TIP3    H226816   4.711   6.035   1.207
 1753TIP3   OH226817   4.219   4.352   7.364
 1753TIP3    H126818   4.256   4.355   7.452
 1753TIP3    H226819   4.258   4.427   7.319
 1754TIP3   OH226820   2.843   0.465   2.011
 1754TIP3    H126821   2.821   0.372   2.001
 1754TIP3    H226822   2.922   0.477   1.960
 1755TIP3   OH226823   1.011   4.505   1.200
 1755TIP3    H126824   0.932   4.535   1.246
 1755TIP3    H226825   0.989   4.513   1.107
 1756TIP3   OH226826   1.316   0.829   8.659
 1756TIP3    H126827   1.400   0.801   8.623
 1756TIP3    H226828   1.335   0.847   8.752
 1757TIP3   OH226829   6.499   4.579   0.302
 1757TIP3    H126830   6.460   4.509   0.354
 1757TIP3    H226831   6.450   4.657   0.328
 1758TIP3   OH226832   2.480   4.705   0.813
 1758TIP3    H126833   2.447   4.767   0.747
 1758TIP3    H226834   2.464   4.619   0.775
 1759TIP3   OH226835   0.774   1.172   8.459
 1759TIP3    H126836   0.820   1.228   8.522
 1759TIP3    H226837   0.686   1.162   8.496
 1760TIP3   OH226838   6.417   0.750   6.479
 1760TIP3    H126839   6.340   0.785   6.434
 1760TIP3    H226840   6.385   0.722   6.564
 1761TIP3   OH226841   3.187   4.141   0.240
 1761TIP3    H126842   3.262   4.135   0.299
 1761TIP3    H226843   3.216   4.199   0.169
 1762TIP3   OH226844   0.690   3.031   0.763
 1762TIP3    H126845   0.737   3.042   0.846
 1762TIP3    H226846   0.655   3.118   0.744
 1763TIP3   OH226847   3.288   5.342   7.572
 1763TIP3    H126848   3.381   5.349   7.591
 1763TIP3    H226849   3.244   5.367   7.653
 1764TIP3   OH226850   5.317   4.480   1.063
 1764TIP3    H126851   5.312   4.426   1.142
 1764TIP3    H226852   5.233   4.527   1.061
 1765TIP3   OH226853   2.086   0.953   1.908
 1765TIP3    H126854   2.095   0.924   1.998
 1765TIP3    H226855   2.102   1.048   1.911
 1766TIP3   OH226856   3.947   4.742   1.456
 1766TIP3    H126857   3.921   4.783   1.538
 1766TIP3    H226858   3.866   4.706   1.420
 1767TIP3   OH226859   3.253   3.457   6.437
 1767TIP3    H126860   3.314   3.408   6.383
 1767TIP3    H226861   3.209   3.391   6.490
 1768TIP3   OH226862   4.672   6.290   7.431
 1768TIP3    H126863   4.648   6.377   7.461
 1768TIP3    H226864   4.589   6.249   7.406
 1769TIP3   OH226865   1.361   3.008   0.190
 1769TIP3    H126866   1.378   3.097   0.159
 1769TIP3    H226867   1.275   2.986   0.154
 1770TIP3   OH226868   0.550   0.521   1.530
 1770TIP3    H126869   0.542   0.428   1.553
 1770TIP3    H226870   0.610   0.522   1.455
 1771TIP3   OH226871   2.215   6.382   7.403
 1771TIP3    H126872   2.238   6.395   7.495
 1771TIP3    H226873   2.285   6.425   7.355
 1772TIP3   OH226874   5.943   1.939   7.093
 1772TIP3    H126875   5.863   1.894   7.065
 1772TIP3    H226876   5.920   2.032   7.090
 1773TIP3   OH226877   3.437   2.275   2.341
 1773TIP3    H126878   3.411   2.315   2.259
 1773TIP3    H226879   3.382   2.197   2.348
 1774TIP3   OH226880   0.731   2.741   0.531
 1774TIP3    H126881   0.707   2.800   0.460
 1774TIP3    H226882   0.664   2.756   0.598
 1775TIP3   OH226883   5.714   5.553   8.344
 1775TIP3    H126884   5.707   5.562   8.249
 1775TIP3    H226885   5.630   5.586   8.378
 1776TIP3   OH226886   6.319   0.876   6.905
 1776TIP3    H126887   6.332   0.970   6.914
 1776TIP3    H226888   6.254   0.867   6.835
 1777TIP3   OH226889   0.946   6.066   1.594
 1777TIP3    H126890   1.011   6.129   1.564
 1777TIP3    H226891   0.972   5.983   1.553
 1778TIP3   OH226892   3.250   4.443   2.377
 1778TIP3    H126893   3.335   4.459   2.419
 1778TIP3    H226894   3.226   4.528   2.340
 1779TIP3   OH226895   5.044   6.777   0.015
 1779TIP3    H126896   5.026   6.684   0.002
 1779TIP3    H226897   5.039   6.790   0.110
 1780TIP3   OH226898   4.756   4.247   8.033
 1780TIP3    H126899   4.813   4.205   7.969
 1780TIP3    H226900   4.815   4.279   8.101
 1781TIP3   OH226901   3.205   4.319   0.833
 1781TIP3    H126902   3.281   4.330   0.776
 1781TIP3    H226903   3.131   4.314   0.774
 1782TIP3   OH226904   0.786   3.661   1.205
 1782TIP3    H126905   0.876   3.652   1.173
 1782TIP3    H226906   0.739   3.706   1.135
 1783TIP3   OH226907   1.910   5.558   7.825
 1783TIP3    H126908   1.900   5.610   7.904
 1783TIP3    H226909   1.998   5.522   7.831
 1784TIP3   OH226910   1.856   0.372   0.453
 1784TIP3    H126911   1.901   0.376   0.538
 1784TIP3    H226912   1.794   0.444   0.455
 1785TIP3   OH226913   0.218   3.589   7.360
 1785TIP3    H126914   0.305   3.577   7.322
 1785TIP3    H226915   0.226   3.553   7.449
 1786TIP3   OH226916   4.723   5.744   1.087
 1786TIP3    H126917   4.732   5.668   1.144
 1786TIP3    H226918   4.662   5.802   1.133
 1787TIP3   OH226919   3.763   3.335   0.010
 1787TIP3    H126920   3.812   3.416   8.790
 1787TIP3    H226921   3.811   3.271   8.749
 1788TIP3   OH226922   5.443   6.701   7.174
 1788TIP3    H126923   5.462   6.777   7.119
 1788TIP3    H226924   5.421   6.631   7.112
 1789TIP3   OH226925   5.749   0.483   1.382
 1789TIP3    H126926   5.771   0.434   1.462
 1789TIP3    H226927   5.669   0.530   1.404
 1790TIP3   OH226928   0.791   3.667   1.608
 1790TIP3    H126929   0.730   3.719   1.555
 1790TIP3    H226930   0.751   3.664   1.695
 1791TIP3   OH226931   6.024   5.219   2.289
 1791TIP3    H126932   5.935   5.187   2.302
 1791TIP3    H226933   6.043   5.270   2.367
 1792TIP3   OH226934   6.761   5.611   8.657
 1792TIP3    H126935   6.755   5.581   8.566
 1792TIP3    H226936   6.670   5.624   8.684
 1793TIP3   OH226937   6.413   5.853   6.822
 1793TIP3    H126938   6.422   5.935   6.773
 1793TIP3    H226939   6.428   5.878   6.913
 1794TIP3   OH226940   2.297   4.279   1.025
 1794TIP3    H126941   2.286   4.196   1.072
 1794TIP3    H226942   2.226   4.335   1.058
 1795TIP3   OH226943   5.729   2.093   8.051
 1795TIP3    H126944   5.705   2.011   8.096
 1795TIP3    H226945   5.823   2.102   8.067
 1796TIP3   OH226946   1.547   4.690   0.558
 1796TIP3    H126947   1.505   4.756   0.503
 1796TIP3    H226948   1.629   4.732   0.586
 1797TIP3   OH226949   3.624   2.541   8.347
 1797TIP3    H126950   3.678   2.620   8.346
 1797TIP3    H226951   3.685   2.471   8.367
 1798TIP3   OH226952   3.558   1.246   1.494
 1798TIP3    H126953   3.622   1.313   1.520
 1798TIP3    H226954   3.476   1.275   1.534
 1799TIP3   OH226955   1.539   5.147   7.910
 1799TIP3    H126956   1.527   5.138   7.815
 1799TIP3    H226957   1.606   5.215   7.919
 1800TIP3   OH226958   6.361   0.444   0.722
 1800TIP3    H126959   6.362   0.525   0.772
 1800TIP3    H226960   6.406   0.381   0.779
 1801TIP3   OH226961   1.392   0.600   6.155
 1801TIP3    H126962   1.298   0.607   6.170
 1801TIP3    H226963   1.421   0.689   6.140
 1802TIP3   OH226964   5.098   3.142   6.870
 1802TIP3    H126965   5.099   3.047   6.881
 1802TIP3    H226966   5.060   3.156   6.783
 1803TIP3   OH226967   2.167   5.518   7.783
 1803TIP3    H126968   2.166   5.513   7.687
 1803TIP3    H226969   2.197   5.432   7.811
 1804TIP3   OH226970   6.645   4.084   6.887
 1804TIP3    H126971   6.629   4.028   6.811
 1804TIP3    H226972   6.602   4.167   6.865
 1805TIP3   OH226973   3.364   2.549   8.766
 1805TIP3    H126974   3.439   2.587   8.721
 1805TIP3    H226975   3.324   2.491   8.702
 1806TIP3   OH226976   3.293   1.653   0.795
 1806TIP3    H126977   3.301   1.571   0.744
 1806TIP3    H226978   3.334   1.719   0.739
 1807TIP3   OH226979   4.478   0.493   1.026
 1807TIP3    H126980   4.393   0.459   1.000
 1807TIP3    H226981   4.459   0.579   1.063
 1808TIP3   OH226982   6.323   4.978   7.250
 1808TIP3    H126983   6.306   5.035   7.176
 1808TIP3    H226984   6.293   4.891   7.220
 1809TIP3   OH226985   4.955   5.903   7.398
 1809TIP3    H126986   4.905   5.821   7.392
 1809TIP3    H226987   4.920   5.957   7.328
 1810TIP3   OH226988   4.691   5.573   7.861
 1810TIP3    H126989   4.603   5.611   7.865
 1810TIP3    H226990   4.745   5.634   7.911
 1811TIP3   OH226991   6.002   3.816   0.798
 1811TIP3    H126992   6.076   3.833   0.856
 1811TIP3    H226993   5.957   3.900   0.790
 1812TIP3   OH226994   2.012   5.862   6.490
 1812TIP3    H126995   1.921   5.836   6.505
 1812TIP3    H226996   2.064   5.798   6.537
 1813TIP3   OH226997   0.752   5.730   8.660
 1813TIP3    H126998   0.747   5.813   8.613
 1813TIP3    H226999   0.773   5.665   8.593
 1814TIP3   OH227000   0.361   3.280   8.768
 1814TIP3    H127001   0.435   3.280   0.038
 1814TIP3    H227002   0.369   3.362   8.719
 1815TIP3   OH227003   5.864   6.430   0.473
 1815TIP3    H127004   5.896   6.503   0.525
 1815TIP3    H227005   5.773   6.452   0.453
 1816TIP3   OH227006   6.322   3.106   7.529
 1816TIP3    H127007   6.260   3.161   7.482
 1816TIP3    H227008   6.273   3.026   7.549
 1817TIP3   OH227009   3.432   5.000   7.999
 1817TIP3    H127010   3.510   4.948   7.980
 1817TIP3    H227011   3.359   4.942   7.979
 1818TIP3   OH227012   4.990   2.674   6.598
 1818TIP3    H127013   4.934   2.749   6.582
 1818TIP3    H227014   4.933   2.608   6.637
 1819TIP3   OH227015   6.045   1.977   0.809
 1819TIP3    H127016   6.028   2.071   0.801
 1819TIP3    H227017   5.981   1.936   0.751
 1820TIP3   OH227018   4.788   0.842   8.651
 1820TIP3    H127019   4.708   0.894   8.658
 1820TIP3    H227020   4.800   0.803   8.737
 1821TIP3   OH227021   0.154   5.326   2.452
 1821TIP3    H127022   0.213   5.250   2.449
 1821TIP3    H227023   0.176   5.376   2.373
 1822TIP3   OH227024   0.792   2.069   6.678
 1822TIP3    H127025   0.772   2.116   6.597
 1822TIP3    H227026   0.732   1.996   6.680
 1823TIP3   OH227027   5.291   5.652   0.542
 1823TIP3    H127028   5.344   5.573   0.531
 1823TIP3    H227029   5.337   5.719   0.492
 1824TIP3   OH227030   4.861   2.135   1.358
 1824TIP3    H127031   4.875   2.077   1.283
 1824TIP3    H227032   4.772   2.169   1.346
 1825TIP3   OH227033   6.249   4.520   7.912
 1825TIP3    H127034   6.207   4.580   7.973
 1825TIP3    H227035   6.264   4.572   7.834
 1826TIP3   OH227036   5.425   6.187   0.105
 1826TIP3    H127037   5.359   6.228   0.162
 1826TIP3    H227038   5.493   6.254   0.097
 1827TIP3   OH227039   5.081   0.007   7.174
 1827TIP3    H127040   5.115   6.758   7.237
 1827TIP3    H227041   5.017   6.773   7.122
 1828TIP3   OH227042   4.399   2.866   1.606
 1828TIP3    H127043   4.414   2.936   1.543
 1828TIP3    H227044   4.304   2.857   1.611
 1829TIP3   OH227045   5.534   5.225   2.056
 1829TIP3    H127046   5.564   5.238   2.146
 1829TIP3    H227047   5.448   5.267   2.053
 1830TIP3   OH227048   3.451   4.031   6.443
 1830TIP3    H127049   3.458   4.118   6.483
 1830TIP3    H227050   3.466   4.048   6.350
 1831TIP3   OH227051   3.402   4.636   6.795
 1831TIP3    H127052   3.412   4.543   6.817
 1831TIP3    H227053   3.413   4.681   6.879
 1832TIP3   OH227054   0.002   2.556   0.349
 1832TIP3    H127055   0.005   2.481   0.291
 1832TIP3    H227056   0.093   2.575   0.369
 1833TIP3   OH227057   4.263   4.637   0.693
 1833TIP3    H127058   4.260   4.649   0.788
 1833TIP3    H227059   4.355   4.625   0.673
 1834TIP3   OH227060   0.031   1.669   7.140
 1834TIP3    H127061   0.057   1.641   7.052
 1834TIP3    H227062   0.102   1.725   7.170
 1835TIP3   OH227063   3.387   2.348   8.557
 1835TIP3    H127064   3.406   2.322   8.467
 1835TIP3    H227065   3.466   2.327   8.606
 1836TIP3   OH227066   2.974   0.903   1.026
 1836TIP3    H127067   2.935   0.959   0.959
 1836TIP3    H227068   2.991   0.962   1.099
 1837TIP3   OH227069   0.897   1.520   7.701
 1837TIP3    H127070   0.812   1.529   7.745
 1837TIP3    H227071   0.947   1.461   7.757
 1838TIP3   OH227072   6.320   0.454   1.898
 1838TIP3    H127073   6.411   0.425   1.897
 1838TIP3    H227074   6.309   0.497   1.983
 1839TIP3   OH227075   4.212   5.817   7.987
 1839TIP3    H127076   4.292   5.796   7.940
 1839TIP3    H227077   4.143   5.813   7.921
 1840TIP3   OH227078   1.554   4.793   8.750
 1840TIP3    H127079   1.496   4.806   8.675
 1840TIP3    H227080   1.502   4.745   0.023
 1841TIP3   OH227081   2.777   0.126   8.201
 1841TIP3    H127082   2.857   0.144   8.250
 1841TIP3    H227083   2.753   0.209   8.161
 1842TIP3   OH227084   0.084   6.320   2.667
 1842TIP3    H127085   0.165   6.297   2.623
 1842TIP3    H227086   0.046   6.390   2.612
 1843TIP3   OH227087   1.242   5.448   6.728
 1843TIP3    H127088   1.264   5.522   6.671
 1843TIP3    H227089   1.321   5.433   6.779
 1844TIP3   OH227090   6.653   1.989   0.131
 1844TIP3    H127091   6.614   2.052   0.192
 1844TIP3    H227092   6.578   1.947   0.089
 1845TIP3   OH227093   4.801   0.089   8.284
 1845TIP3    H127094   4.845   0.159   8.236
 1845TIP3    H227095   4.871   0.042   8.329
 1846TIP3   OH227096   6.763   6.660   1.716
 1846TIP3    H127097   6.769   6.701   1.803
 1846TIP3    H227098   6.715   6.579   1.732
 1847TIP3   OH227099   6.267   4.593   1.452
 1847TIP3    H127100   6.299   4.683   1.457
 1847TIP3    H227101   6.229   4.585   1.364
 1848TIP3   OH227102   3.716   3.540   8.179
 1848TIP3    H127103   3.686   3.628   8.203
 1848TIP3    H227104   3.737   3.498   8.262
 1849TIP3   OH227105   1.073   3.856   1.974
 1849TIP3    H127106   1.016   3.916   2.021
 1849TIP3    H227107   1.155   3.856   2.024
 1850TIP3   OH227108   6.235   2.131   0.252
 1850TIP3    H127109   6.227   2.180   0.334
 1850TIP3    H227110   6.147   2.130   0.215
 1851TIP3   OH227111   4.323   5.872   7.670
 1851TIP3    H127112   4.400   5.852   7.618
 1851TIP3    H227113   4.257   5.898   7.606
 1852TIP3   OH227114   6.268   3.863   7.992
 1852TIP3    H127115   6.302   3.952   7.984
 1852TIP3    H227116   6.173   3.874   7.994
 1853TIP3   OH227117   5.026   6.070   0.892
 1853TIP3    H127118   4.999   6.009   0.961
 1853TIP3    H227119   5.028   6.155   0.935
 1854TIP3   OH227120   4.699   5.065   7.371
 1854TIP3    H127121   4.611   5.067   7.408
 1854TIP3    H227122   4.690   5.011   7.292
 1855TIP3   OH227123   5.376   0.892   2.432
 1855TIP3    H127124   5.346   0.982   2.418
 1855TIP3    H227125   5.346   0.845   2.354
 1856TIP3   OH227126   3.220   3.742   0.469
 1856TIP3    H127127   3.176   3.662   0.439
 1856TIP3    H227128   3.309   3.735   0.435
 1857TIP3   OH227129   0.104   4.427   7.695
 1857TIP3    H127130   0.175   4.437   7.631
 1857TIP3    H227131   0.143   4.455   7.778
 1858TIP3   OH227132   3.936   4.587   2.165
 1858TIP3    H127133   4.011   4.643   2.142
 1858TIP3    H227134   3.930   4.593   2.260
 1859TIP3   OH227135   1.252   1.062   1.246
 1859TIP3    H127136   1.335   1.084   1.203
 1859TIP3    H227137   1.234   1.136   1.303
 1860TIP3   OH227138   0.892   6.111   0.413
 1860TIP3    H127139   0.962   6.122   0.348
 1860TIP3    H227140   0.814   6.146   0.370
 1861TIP3   OH227141   3.685   1.826   1.366
 1861TIP3    H127142   3.682   1.754   1.428
 1861TIP3    H227143   3.645   1.792   1.287
 1862TIP3   OH227144   3.124   2.818   2.210
 1862TIP3    H127145   3.125   2.770   2.293
 1862TIP3    H227146   3.177   2.765   2.151
 1863TIP3   OH227147   2.763   3.401   8.568
 1863TIP3    H127148   2.694   3.342   8.600
 1863TIP3    H227149   2.726   3.439   8.488
 1864TIP3   OH227150   1.951   0.334   1.328
 1864TIP3    H127151   1.925   0.244   1.347
 1864TIP3    H227152   1.879   0.369   1.275
 1865TIP3   OH227153   5.144   0.809   1.582
 1865TIP3    H127154   5.136   0.822   1.488
 1865TIP3    H227155   5.056   0.826   1.616
 1866TIP3   OH227156   4.239   4.084   6.227
 1866TIP3    H127157   4.298   4.028   6.278
 1866TIP3    H227158   4.207   4.027   6.157
 1867TIP3   OH227159   5.812   4.042   1.604
 1867TIP3    H127160   5.871   4.096   1.552
 1867TIP3    H227161   5.829   4.067   1.694
 1868TIP3   OH227162   3.576   6.078   0.883
 1868TIP3    H127163   3.672   6.071   0.886
 1868TIP3    H227164   3.546   6.032   0.962
 1869TIP3   OH227165   4.019   6.054   8.088
 1869TIP3    H127166   4.101   6.103   8.098
 1869TIP3    H227167   4.047   5.965   8.066
 1870TIP3   OH227168   0.952   0.881   8.644
 1870TIP3    H127169   0.870   0.871   8.597
 1870TIP3    H227170   0.946   0.819   8.717
 1871TIP3   OH227171   4.816   3.332   6.214
 1871TIP3    H127172   4.755   3.334   6.140
 1871TIP3    H227173   4.765   3.293   6.285
 1872TIP3   OH227174   5.979   5.914   8.779
 1872TIP3    H127175   5.919   5.842   0.008
 1872TIP3    H227176   5.936   5.991   0.023
 1873TIP3   OH227177   6.289   4.909   8.273
 1873TIP3    H127178   6.315   4.884   8.185
 1873TIP3    H227179   6.271   5.003   8.267
 1874TIP3   OH227180   1.696   4.923   7.757
 1874TIP3    H127181   1.675   4.845   7.706
 1874TIP3    H227182   1.648   4.911   7.839
 1875TIP3   OH227183   6.499   3.248   1.192
 1875TIP3    H127184   6.579   3.196   1.200
 1875TIP3    H227185   6.530   3.337   1.179
 1876TIP3   OH227186   5.284   0.787   2.715
 1876TIP3    H127187   5.211   0.839   2.748
 1876TIP3    H227188   5.318   0.836   2.641
 1877TIP3   OH227189   6.070   1.565   8.008
 1877TIP3    H127190   6.143   1.563   8.070
 1877TIP3    H227191   6.081   1.647   7.960
 1878TIP3   OH227192   3.872   1.341   8.592
 1878TIP3    H127193   3.866   1.416   8.533
 1878TIP3    H227194   3.803   1.282   8.561
 1879TIP3   OH227195   4.150   5.970   6.901
 1879TIP3    H127196   4.232   5.926   6.878
 1879TIP3    H227197   4.117   6.003   6.818
 1880TIP3   OH227198   2.484   1.862   8.241
 1880TIP3    H127199   2.462   1.850   8.149
 1880TIP3    H227200   2.427   1.933   8.270
 1881TIP3   OH227201   3.825   4.657   1.780
 1881TIP3    H127202   3.815   4.745   1.745
 1881TIP3    H227203   3.920   4.643   1.785
 1882TIP3   OH227204   0.187   4.837   1.698
 1882TIP3    H127205   0.170   4.815   1.790
 1882TIP3    H227206   0.133   4.914   1.681
 1883TIP3   OH227207   2.264   1.999   0.758
 1883TIP3    H127208   2.207   2.070   0.729
 1883TIP3    H227209   2.300   2.030   0.841
 1884TIP3   OH227210   5.880   0.854   0.408
 1884TIP3    H127211   5.879   0.761   0.429
 1884TIP3    H227212   5.811   0.892   0.462
 1885TIP3   OH227213   3.782   4.507   8.441
 1885TIP3    H127214   3.729   4.533   8.365
 1885TIP3    H227215   3.744   4.424   8.470
 1886TIP3   OH227216   3.677   5.586   7.326
 1886TIP3    H127217   3.732   5.554   7.398
 1886TIP3    H227218   3.622   5.512   7.303
 1887TIP3   OH227219   3.845   2.949   8.481
 1887TIP3    H127220   3.762   2.997   8.476
 1887TIP3    H227221   3.825   2.863   8.445
 1888TIP3   OH227222   6.106   0.929   7.128
 1888TIP3    H127223   6.074   0.974   7.050
 1888TIP3    H227224   6.154   0.853   7.094
 1889TIP3   OH227225   4.403   0.278   1.445
 1889TIP3    H127226   4.379   0.220   1.373
 1889TIP3    H227227   4.350   0.357   1.431
 1890TIP3   OH227228   5.483   5.955   8.559
 1890TIP3    H127229   5.574   5.933   8.541
 1890TIP3    H227230   5.482   6.051   8.564
 1891TIP3   OH227231   5.078   4.586   1.721
 1891TIP3    H127232   5.011   4.653   1.737
 1891TIP3    H227233   5.159   4.625   1.755
 1892TIP3   OH227234   1.265   1.109   8.660
 1892TIP3    H127235   1.286   1.017   8.641
 1892TIP3    H227236   1.180   1.105   8.704
 1893TIP3   OH227237   5.726   2.152   0.668
 1893TIP3    H127238   5.790   2.195   0.612
 1893TIP3    H227239   5.679   2.093   0.609
 1894TIP3   OH227240   1.042   4.213   0.721
 1894TIP3    H127241   1.090   4.132   0.704
 1894TIP3    H227242   1.071   4.273   0.653
 1895TIP3   OH227243   3.429   4.352   0.693
 1895TIP3    H127244   3.504   4.365   0.634
 1895TIP3    H227245   3.448   4.269   0.737
 1896TIP3   OH227246   3.248   0.451   1.541
 1896TIP3    H127247   3.336   0.434   1.574
 1896TIP3    H227248   3.192   0.388   1.588
 1897TIP3   OH227249   1.106   3.862   1.563
 1897TIP3    H127250   1.106   3.931   1.497
 1897TIP3    H227251   1.171   3.799   1.531
 1898TIP3   OH227252   5.427   1.103   0.063
 1898TIP3    H127253   5.395   1.053   0.137
 1898TIP3    H227254   5.509   1.060   0.038
 1899TIP3   OH227255   5.716   1.854   6.927
 1899TIP3    H127256   5.630   1.876   6.962
 1899TIP3    H227257   5.724   1.759   6.942
 1900TIP3   OH227258   2.227   3.377   8.536
 1900TIP3    H127259   2.212   3.374   8.441
 1900TIP3    H227260   2.158   3.435   8.570
 1901TIP3   OH227261   2.722   5.835   0.776
 1901TIP3    H127262   2.705   5.917   0.823
 1901TIP3    H227263   2.817   5.834   0.763
 1902TIP3   OH227264   3.667   2.360   6.699
 1902TIP3    H127265   3.677   2.448   6.736
 1902TIP3    H227266   3.597   2.368   6.634
 1903TIP3   OH227267   0.218   6.038   6.571
 1903TIP3    H127268   0.178   5.978   6.507
 1903TIP3    H227269   0.273   6.096   6.518
 1904TIP3   OH227270   5.642   6.374   2.161
 1904TIP3    H127271   5.619   6.289   2.198
 1904TIP3    H227272   5.559   6.420   2.153
 1905TIP3   OH227273   6.568   0.446   1.710
 1905TIP3    H127274   6.653   0.432   1.669
 1905TIP3    H227275   6.580   0.521   1.768
 1906TIP3   OH227276   5.974   3.836   7.497
 1906TIP3    H127277   5.983   3.861   7.405
 1906TIP3    H227278   6.056   3.791   7.518
 1907TIP3   OH227279   4.177   6.435   0.466
 1907TIP3    H127280   4.199   6.369   0.401
 1907TIP3    H227281   4.198   6.518   0.423
 1908TIP3   OH227282   3.680   1.666   8.666
 1908TIP3    H127283   3.668   1.577   8.631
 1908TIP3    H227284   3.648   1.723   8.596
 1909TIP3   OH227285   1.296   5.780   8.400
 1909TIP3    H127286   1.265   5.867   8.375
 1909TIP3    H227287   1.380   5.771   8.355
 1910TIP3   OH227288   1.249   3.463   1.232
 1910TIP3    H127289   1.339   3.495   1.235
 1910TIP3    H227290   1.257   3.368   1.239
 1911TIP3   OH227291   3.688   4.307   6.315
 1911TIP3    H127292   3.768   4.342   6.275
 1911TIP3    H227293   3.656   4.380   6.369
 1912TIP3   OH227294   1.448   5.873   7.858
 1912TIP3    H127295   1.353   5.861   7.866
 1912TIP3    H227296   1.473   5.821   7.782
 1913TIP3   OH227297   4.788   3.594   0.841
 1913TIP3    H127298   4.846   3.574   0.914
 1913TIP3    H227299   4.846   3.625   0.772
 1914TIP3   OH227300   1.541   6.569   0.004
 1914TIP3    H127301   1.504   6.517   8.724
 1914TIP3    H227302   1.634   6.575   8.774
 1915TIP3   OH227303   2.991   3.015   0.285
 1915TIP3    H127304   3.039   2.962   0.221
 1915TIP3    H227305   2.975   3.098   0.239
 1916TIP3   OH227306   4.376   3.446   1.050
 1916TIP3    H127307   4.325   3.375   1.088
 1916TIP3    H227308   4.421   3.406   0.976
 1917TIP3   OH227309   4.963   1.404   0.995
 1917TIP3    H127310   4.951   1.323   1.044
 1917TIP3    H227311   5.029   1.453   1.043
 1918TIP3   OH227312   2.055   5.799   0.556
 1918TIP3    H127313   1.999   5.858   0.606
 1918TIP3    H227314   2.046   5.714   0.600
 1919TIP3   OH227315   1.680   3.192   8.248
 1919TIP3    H127316   1.589   3.166   8.233
 1919TIP3    H227317   1.732   3.128   8.199
 1920TIP3   OH227318   1.316   6.585   0.797
 1920TIP3    H127319   1.376   6.557   0.866
 1920TIP3    H227320   1.234   6.538   0.817
 1921TIP3   OH227321   6.693   0.184   7.516
 1921TIP3    H127322   6.705   0.099   7.559
 1921TIP3    H227323   6.642   0.164   7.438
 1922TIP3   OH227324   5.771   1.832   8.462
 1922TIP3    H127325   5.819   1.872   8.390
 1922TIP3    H227326   5.701   1.894   8.482
 1923TIP3   OH227327   0.095   1.397   8.167
 1923TIP3    H127328   0.040   1.321   8.189
 1923TIP3    H227329   0.144   1.369   8.090
 1924TIP3   OH227330   3.037   0.278   7.687
 1924TIP3    H127331   2.947   0.310   7.692
 1924TIP3    H227332   3.084   0.344   7.636
 1925TIP3   OH227333   3.028   6.652   1.277
 1925TIP3    H127334   3.026   6.707   1.199
 1925TIP3    H227335   3.060   6.567   1.246
 1926TIP3   OH227336   1.696   2.809   7.356
 1926TIP3    H127337   1.648   2.812   7.439
 1926TIP3    H227338   1.631   2.781   7.292
 1927TIP3   OH227339   0.570   2.729   1.320
 1927TIP3    H127340   0.534   2.777   1.394
 1927TIP3    H227341   0.569   2.638   1.347
 1928TIP3   OH227342   1.643   1.021   7.732
 1928TIP3    H127343   1.641   0.995   7.824
 1928TIP3    H227344   1.558   0.994   7.697
 1929TIP3   OH227345   4.154   0.003   7.515
 1929TIP3    H127346   4.120   0.038   7.598
 1929TIP3    H227347   4.204   6.740   7.540
 1930TIP3   OH227348   4.355   3.878   8.322
 1930TIP3    H127349   4.289   3.838   8.378
 1930TIP3    H227350   4.376   3.811   8.257
 1931TIP3   OH227351   0.999   2.204   1.543
 1931TIP3    H127352   1.002   2.290   1.501
 1931TIP3    H227353   1.043   2.146   1.481
 1932TIP3   OH227354   5.658   6.264   7.511
 1932TIP3    H127355   5.622   6.180   7.539
 1932TIP3    H227356   5.740   6.242   7.466
 1933TIP3   OH227357   1.437   3.799   1.459
 1933TIP3    H127358   1.531   3.803   1.446
 1933TIP3    H227359   1.416   3.879   1.509
 1934TIP3   OH227360   4.557   0.868   8.784
 1934TIP3    H127361   4.487   0.932   8.777
 1934TIP3    H227362   4.556   0.842   0.086
 1935TIP3   OH227363   1.081   1.581   8.601
 1935TIP3    H127364   1.170   1.582   8.638
 1935TIP3    H227365   1.031   1.639   8.658
 1936TIP3   OH227366   1.615   4.051   8.305
 1936TIP3    H127367   1.530   4.017   8.278
 1936TIP3    H227368   1.676   3.980   8.286
 1937TIP3   OH227369   3.628   1.375   2.423
 1937TIP3    H127370   3.596   1.387   2.334
 1937TIP3    H227371   3.550   1.376   2.478
 1938TIP3   OH227372   4.139   5.990   7.459
 1938TIP3    H127373   4.072   5.932   7.421
 1938TIP3    H227374   4.166   6.046   7.386
 1939TIP3   OH227375   4.867   1.283   0.552
 1939TIP3    H127376   4.889   1.343   0.481
 1939TIP3    H227377   4.945   1.284   0.609
 1940TIP3   OH227378   0.901   4.477   1.749
 1940TIP3    H127379   0.815   4.511   1.722
 1940TIP3    H227380   0.947   4.555   1.780
 1941TIP3   OH227381   4.819   4.757   0.172
 1941TIP3    H127382   4.810   4.829   0.109
 1941TIP3    H227383   4.730   4.723   0.182
 1942TIP3   OH227384   6.042   3.606   7.038
 1942TIP3    H127385   5.994   3.580   7.116
 1942TIP3    H227386   6.126   3.639   7.071
 1943TIP3   OH227387   4.353   3.128   6.950
 1943TIP3    H127388   4.320   3.107   6.863
 1943TIP3    H227389   4.441   3.090   6.952
 1944TIP3   OH227390   0.113   6.597   2.917
 1944TIP3    H127391   0.104   6.663   2.848
 1944TIP3    H227392   0.093   6.514   2.874
 1945TIP3   OH227393   2.081   0.106   8.715
 1945TIP3    H127394   2.085   0.014   8.743
 1945TIP3    H227395   2.034   0.103   8.632
 1946TIP3   OH227396   5.815   3.391   1.318
 1946TIP3    H127397   5.779   3.480   1.326
 1946TIP3    H227398   5.900   3.404   1.276
 1947TIP3   OH227399   5.929   2.743   0.941
 1947TIP3    H127400   5.925   2.714   1.032
 1947TIP3    H227401   6.016   2.782   0.932
 1948TIP3   OH227402   0.084   3.710   0.327
 1948TIP3    H127403   0.043   3.650   0.389
 1948TIP3    H227404   0.030   3.704   0.249
 1949TIP3   OH227405   2.794   6.539   0.241
 1949TIP3    H127406   2.889   6.544   0.248
 1949TIP3    H227407   2.762   6.561   0.328
 1950TIP3   OH227408   4.043   1.376   7.999
 1950TIP3    H127409   4.031   1.465   7.964
 1950TIP3    H227410   4.057   1.322   7.921
 1951TIP3   OH227411   5.040   5.996   8.547
 1951TIP3    H127412   5.067   6.031   8.632
 1951TIP3    H227413   4.982   6.063   8.512
 1952TIP3   OH227414   0.188   0.479   0.903
 1952TIP3    H127415   0.256   0.442   0.959
 1952TIP3    H227416   0.157   0.556   0.950
 1953TIP3   OH227417   4.659   2.982   7.939
 1953TIP3    H127418   4.689   3.041   7.870
 1953TIP3    H227419   4.578   3.022   7.971
 1954TIP3   OH227420   4.687   1.141   0.391
 1954TIP3    H127421   4.709   1.172   0.302
 1954TIP3    H227422   4.770   1.148   0.439
 1955TIP3   OH227423   4.431   2.848   7.873
 1955TIP3    H127424   4.431   2.762   7.831
 1955TIP3    H227425   4.520   2.859   7.905
 1956TIP3   OH227426   4.505   1.983   1.292
 1956TIP3    H127427   4.412   1.989   1.272
 1956TIP3    H227428   4.520   1.891   1.312
 1957TIP3   OH227429   4.711   2.113   8.379
 1957TIP3    H127430   4.647   2.062   8.329
 1957TIP3    H227431   4.780   2.133   8.316
 1958TIP3   OH227432   3.452   6.254   7.901
 1958TIP3    H127433   3.414   6.196   7.967
 1958TIP3    H227434   3.470   6.197   7.826
 1959TIP3   OH227435   2.067   5.578   8.440
 1959TIP3    H127436   1.972   5.570   8.448
 1959TIP3    H227437   2.087   5.663   8.479
 1960TIP3   OH227438   5.769   4.201   0.262
 1960TIP3    H127439   5.834   4.198   0.332
 1960TIP3    H227440   5.819   4.201   0.181
 1961TIP3   OH227441   1.068   3.812   7.800
 1961TIP3    H127442   1.101   3.772   7.880
 1961TIP3    H227443   1.004   3.877   7.830
 1962TIP3   OH227444   3.068   2.797   7.047
 1962TIP3    H127445   2.991   2.752   7.012
 1962TIP3    H227446   3.068   2.775   7.140
 1963TIP3   OH227447   6.707   0.458   0.364
 1963TIP3    H127448   6.760   0.503   0.431
 1963TIP3    H227449   6.624   0.441   0.408
 1964TIP3   OH227450   3.964   4.411   6.864
 1964TIP3    H127451   3.924   4.446   6.785
 1964TIP3    H227452   4.044   4.368   6.834
 1965TIP3   OH227453   3.042   0.625   1.587
 1965TIP3    H127454   2.991   0.545   1.579
 1965TIP3    H227455   3.130   0.600   1.557
 1966TIP3   OH227456   3.840   1.074   0.451
 1966TIP3    H127457   3.747   1.054   0.438
 1966TIP3    H227458   3.886   1.016   0.391
 1967TIP3   OH227459   0.041   5.394   0.625
 1967TIP3    H127460   6.812   5.456   0.684
 1967TIP3    H227461   0.124   5.437   0.603
 1968TIP3   OH227462   0.581   5.404   7.230
 1968TIP3    H127463   0.491   5.434   7.242
 1968TIP3    H227464   0.634   5.483   7.245
 1969TIP3   OH227465   2.745   2.313   0.851
 1969TIP3    H127466   2.706   2.400   0.858
 1969TIP3    H227467   2.687   2.265   0.792
 1970TIP3   OH227468   4.517   5.380   1.600
 1970TIP3    H127469   4.554   5.304   1.646
 1970TIP3    H227470   4.565   5.383   1.517
 1971TIP3   OH227471   3.046   4.519   0.250
 1971TIP3    H127472   3.141   4.534   0.248
 1971TIP3    H227473   3.014   4.580   0.316
 1972TIP3   OH227474   5.653   3.882   1.463
 1972TIP3    H127475   5.672   3.932   1.542
 1972TIP3    H227476   5.664   3.944   1.391
 1973TIP3   OH227477   0.864   5.405   8.074
 1973TIP3    H127478   0.921   5.387   8.149
 1973TIP3    H227479   0.917   5.461   8.017
 1974TIP3   OH227480   2.854   5.693   8.355
 1974TIP3    H127481   2.768   5.683   8.314
 1974TIP3    H227482   2.915   5.700   8.281
 1975TIP3   OH227483   0.126   5.836   8.003
 1975TIP3    H127484   0.161   5.748   8.018
 1975TIP3    H227485   0.062   5.849   8.073
 1976TIP3   OH227486   1.934   0.707   0.342
 1976TIP3    H127487   2.012   0.665   0.306
 1976TIP3    H227488   1.936   0.686   0.436
 1977TIP3   OH227489   6.379   1.442   0.562
 1977TIP3    H127490   6.360   1.362   0.611
 1977TIP3    H227491   6.470   1.463   0.583
 1978TIP3   OH227492   4.162   3.530   6.907
 1978TIP3    H127493   4.210   3.597   6.858
 1978TIP3    H227494   4.090   3.506   6.849
 1979TIP3   OH227495   3.213   4.485   1.335
 1979TIP3    H127496   3.120   4.462   1.345
 1979TIP3    H227497   3.243   4.430   1.263
 1980TIP3   OH227498   4.013   6.323   0.235
 1980TIP3    H127499   4.084   6.259   0.239
 1980TIP3    H227500   3.947   6.289   0.295
 1981TIP3   OH227501   4.028   6.297   7.878
 1981TIP3    H127502   3.952   6.250   7.844
 1981TIP3    H227503   3.992   6.356   7.944
 1982TIP3   OH227504   4.695   4.923   7.125
 1982TIP3    H127505   4.696   4.963   7.038
 1982TIP3    H227506   4.757   4.851   7.119
 1983TIP3   OH227507   5.362   2.018   0.132
 1983TIP3    H127508   5.381   1.985   0.043
 1983TIP3    H227509   5.405   1.955   0.190
 1984TIP3   OH227510   6.799   2.510   0.729
 1984TIP3    H127511   6.815   2.461   0.648
 1984TIP3    H227512   6.711   2.485   0.756
 1985TIP3   OH227513   4.425   1.604   2.545
 1985TIP3    H127514   4.426   1.695   2.575
 1985TIP3    H227515   4.355   1.563   2.595
 1986TIP3   OH227516   4.519   1.649   1.916
 1986TIP3    H127517   4.484   1.732   1.885
 1986TIP3    H227518   4.442   1.595   1.933
 1987TIP3   OH227519   2.493   2.841   8.791
 1987TIP3    H127520   2.542   2.801   8.718
 1987TIP3    H227521   2.464   2.926   8.756
 1988TIP3   OH227522   4.919   6.415   2.023
 1988TIP3    H127523   4.905   6.473   1.948
 1988TIP3    H227524   4.831   6.392   2.053
 1989TIP3   OH227525   5.320   1.940   0.530
 1989TIP3    H127526   5.311   1.883   0.606
 1989TIP3    H227527   5.307   2.028   0.565
 1990TIP3   OH227528   0.539   2.368   2.120
 1990TIP3    H127529   0.628   2.366   2.085
 1990TIP3    H227530   0.528   2.457   2.152
 1991TIP3   OH227531   5.469   5.375   1.529
 1991TIP3    H127532   5.394   5.352   1.583
 1991TIP3    H227533   5.507   5.451   1.572
 1992TIP3   OH227534   4.450   6.524   7.225
 1992TIP3    H127535   4.439   6.473   7.305
 1992TIP3    H227536   4.437   6.615   7.253
 1993TIP3   OH227537   1.604   4.853   0.873
 1993TIP3    H127538   1.666   4.807   0.817
 1993TIP3    H227539   1.630   4.829   0.962
 1994TIP3   OH227540   4.664   5.723   6.279
 1994TIP3    H127541   4.655   5.814   6.252
 1994TIP3    H227542   4.602   5.675   6.223
 1995TIP3   OH227543   4.038   3.002   1.019
 1995TIP3    H127544   4.071   3.077   1.069
 1995TIP3    H227545   4.115   2.967   0.975
 1996TIP3   OH227546   0.943   0.998   1.926
 1996TIP3    H127547   0.871   0.949   1.967
 1996TIP3    H227548   1.022   0.955   1.958
 1997TIP3   OH227549   2.760   6.456   8.282
 1997TIP3    H127550   2.782   6.535   8.233
 1997TIP3    H227551   2.746   6.486   8.371
 1998TIP3   OH227552   0.011   6.794   8.551
 1998TIP3    H127553   6.802   0.020   8.468
 1998TIP3    H227554   0.102   6.765   8.538
 1999TIP3   OH227555   4.178   2.535   1.430
 1999TIP3    H127556   4.266   2.572   1.435
 1999TIP3    H227557   4.120   2.611   1.425
 2000TIP3   OH227558   1.629   5.879   8.066
 2000TIP3    H127559   1.550   5.874   8.013
 2000TIP3    H227560   1.688   5.937   8.018
 2001TIP3   OH227561   0.542   1.466   0.634
 2001TIP3    H127562   0.549   1.456   0.729
 2001TIP3    H227563   0.624   1.507   0.608
 2002TIP3   OH227564   3.642   5.152   6.754
 2002TIP3    H127565   3.706   5.126   6.688
 2002TIP3    H227566   3.616   5.241   6.730
 2003TIP3   OH227567   3.385   0.325   7.009
 2003TIP3    H127568   3.310   0.293   6.959
 2003TIP3    H227569   3.377   0.281   7.094
 2004TIP3   OH227570   3.032   6.543   0.885
 2004TIP3    H127571   3.054   6.609   0.952
 2004TIP3    H227572   3.042   6.589   0.802
 2005TIP3   OH227573   1.291   1.256   0.479
 2005TIP3    H127574   1.276   1.297   0.394
 2005TIP3    H227575   1.346   1.180   0.459
 2006TIP3   OH227576   6.225   1.578   1.962
 2006TIP3    H127577   6.197   1.487   1.958
 2006TIP3    H227578   6.144   1.627   1.981
 2007TIP3   OH227579   0.579   0.184   8.087
 2007TIP3    H127580   0.545   0.269   8.117
 2007TIP3    H227581   0.665   0.204   8.052
 2008TIP3   OH227582   0.333   5.816   7.430
 2008TIP3    H127583   0.295   5.822   7.518
 2008TIP3    H227584   0.344   5.908   7.402
 2009TIP3   OH227585   0.882   3.232   1.705
 2009TIP3    H127586   0.904   3.163   1.642
 2009TIP3    H227587   0.808   3.277   1.666
 2010TIP3   OH227588   6.228   3.397   7.134
 2010TIP3    H127589   6.205   3.378   7.043
 2010TIP3    H227590   6.229   3.492   7.139
 2011TIP3   OH227591   4.784   1.199   0.155
 2011TIP3    H127592   4.842   1.147   0.100
 2011TIP3    H227593   4.719   1.235   0.094
 2012TIP3   OH227594   5.579   2.025   8.443
 2012TIP3    H127595   5.542   2.101   8.486
 2012TIP3    H227596   5.561   2.038   8.350
 2013TIP3   OH227597   3.930   5.509   2.230
 2013TIP3    H127598   4.016   5.552   2.225
 2013TIP3    H227599   3.867   5.580   2.217
 2014TIP3   OH227600   4.151   5.603   1.371
 2014TIP3    H127601   4.172   5.606   1.464
 2014TIP3    H227602   4.236   5.607   1.327
 2015TIP3   OH227603   6.339   1.686   1.736
 2015TIP3    H127604   6.424   1.729   1.741
 2015TIP3    H227605   6.324   1.651   1.824
 2016TIP3   OH227606   0.816   6.729   7.775
 2016TIP3    H127607   0.825   6.648   7.725
 2016TIP3    H227608   0.850   6.797   7.718
 2017TIP3   OH227609   4.150   3.332   7.365
 2017TIP3    H127610   4.156   3.333   7.270
 2017TIP3    H227611   4.224   3.279   7.394
 2018TIP3   OH227612   4.481   5.782   8.618
 2018TIP3    H127613   4.425   5.725   8.565
 2018TIP3    H227614   4.471   5.868   8.579
 2019TIP3   OH227615   2.349   0.532   0.451
 2019TIP3    H127616   2.332   0.616   0.409
 2019TIP3    H227617   2.285   0.472   0.412
 2020TIP3   OH227618   6.675   2.615   7.354
 2020TIP3    H127619   6.616   2.637   7.282
 2020TIP3    H227620   6.618   2.604   7.430
 2021TIP3   OH227621   2.953   3.681   7.598
 2021TIP3    H127622   2.949   3.735   7.677
 2021TIP3    H227623   3.034   3.630   7.607
 2022TIP3   OH227624   5.929   3.395   7.904
 2022TIP3    H127625   5.945   3.345   7.824
 2022TIP3    H227626   5.846   3.361   7.938
 2023TIP3   OH227627   1.462   4.929   1.983
 2023TIP3    H127628   1.401   4.861   2.013
 2023TIP3    H227629   1.421   5.011   2.011
 2024TIP3   OH227630   1.420   5.482   8.358
 2024TIP3    H127631   1.423   5.570   8.394
 2024TIP3    H227632   1.410   5.424   8.434
 2025TIP3   OH227633   5.928   3.399   1.628
 2025TIP3    H127634   5.905   3.424   1.717
 2025TIP3    H227635   5.880   3.460   1.572
 2026TIP3   OH227636   3.610   2.074   1.528
 2026TIP3    H127637   3.618   2.156   1.478
 2026TIP3    H227638   3.639   2.006   1.467
 2027TIP3   OH227639   1.782   5.054   7.473
 2027TIP3    H127640   1.769   5.021   7.562
 2027TIP3    H227641   1.868   5.020   7.447
 2028TIP3   OH227642   6.346   0.461   1.154
 2028TIP3    H127643   6.339   0.546   1.109
 2028TIP3    H227644   6.393   0.405   1.092
 2029TIP3   OH227645   6.763   5.455   8.333
 2029TIP3    H127646   6.717   5.386   8.380
 2029TIP3    H227647   0.025   5.411   8.295
 2030TIP3   OH227648   3.322   3.371   8.037
 2030TIP3    H127649   3.301   3.288   8.081
 2030TIP3    H227650   3.416   3.381   8.050
 2031TIP3   OH227651   1.600   3.747   0.374
 2031TIP3    H127652   1.588   3.697   0.455
 2031TIP3    H227653   1.540   3.707   0.312
 2032TIP3   OH227654   3.431   0.344   7.419
 2032TIP3    H127655   3.467   0.384   7.498
 2032TIP3    H227656   3.344   0.383   7.410
 2033TIP3   OH227657   6.094   4.745   1.217
 2033TIP3    H127658   6.023   4.713   1.161
 2033TIP3    H227659   6.160   4.778   1.156
 2034TIP3   OH227660   3.301   1.586   2.065
 2034TIP3    H127661   3.300   1.654   2.133
 2034TIP3    H227662   3.249   1.623   1.994
 2035TIP3   OH227663   3.912   5.129   0.270
 2035TIP3    H127664   3.908   5.127   0.174
 2035TIP3    H227665   3.836   5.079   0.299
 2036TIP3   OH227666   4.745   6.566   1.500
 2036TIP3    H127667   4.687   6.492   1.479
 2036TIP3    H227668   4.828   6.543   1.459
 2037TIP3   OH227669   4.963   3.908   1.375
 2037TIP3    H127670   4.903   3.834   1.387
 2037TIP3    H227671   4.906   3.985   1.370
 2038TIP3   OH227672   5.124   3.883   8.163
 2038TIP3    H127673   5.138   3.977   8.175
 2038TIP3    H227674   5.211   3.844   8.169
 2039TIP3   OH227675   6.280   2.297   8.594
 2039TIP3    H127676   6.363   2.330   8.629
 2039TIP3    H227677   6.214   2.330   8.655
 2040TIP3   OH227678   4.535   0.622   7.391
 2040TIP3    H127679   4.474   0.692   7.411
 2040TIP3    H227680   4.485   0.561   7.337
 2041TIP3   OH227681   2.155   6.346   8.444
 2041TIP3    H127682   2.089   6.354   8.513
 2041TIP3    H227683   2.104   6.331   8.364
 2042TIP3   OH227684   4.573   3.913   7.472
 2042TIP3    H127685   4.552   3.997   7.431
 2042TIP3    H227686   4.527   3.848   7.419
 2043TIP3   OH227687   3.828   0.420   7.460
 2043TIP3    H127688   3.823   0.504   7.415
 2043TIP3    H227689   3.778   0.433   7.541
 2044TIP3   OH227690   1.006   0.371   6.601
 2044TIP3    H127691   0.931   0.312   6.604
 2044TIP3    H227692   0.988   0.430   6.528
 2045TIP3   OH227693   5.247   1.059   8.621
 2045TIP3    H127694   5.191   1.136   8.631
 2045TIP3    H227695   5.325   1.079   8.671
 2046TIP3   OH227696   3.700   0.311   1.260
 2046TIP3    H127697   3.767   0.350   1.205
 2046TIP3    H227698   3.744   0.292   1.342
 2047TIP3   OH227699   4.109   5.126   7.017
 2047TIP3    H127700   4.088   5.217   7.035
 2047TIP3    H227701   4.089   5.115   6.924
 2048TIP3   OH227702   3.447   2.507   1.618
 2048TIP3    H127703   3.534   2.508   1.577
 2048TIP3    H227704   3.456   2.560   1.696
 2049TIP3   OH227705   5.805   2.804   1.446
 2049TIP3    H127706   5.752   2.870   1.491
 2049TIP3    H227707   5.874   2.782   1.509
 2050TIP3   OH227708   5.669   4.387   0.858
 2050TIP3    H127709   5.674   4.467   0.910
 2050TIP3    H227710   5.612   4.329   0.908
 2051TIP3   OH227711   2.567   0.978   8.595
 2051TIP3    H127712   2.616   0.911   8.642
 2051TIP3    H227713   2.475   0.958   8.612
 2052TIP3   OH227714   0.292   3.990   8.219
 2052TIP3    H127715   0.291   3.952   8.307
 2052TIP3    H227716   0.235   3.932   8.168
 2053TIP3   OH227717   1.186   1.979   6.544
 2053TIP3    H127718   1.248   2.048   6.569
 2053TIP3    H227719   1.213   1.903   6.595
 2054TIP3   OH227720   0.150   3.284   8.216
 2054TIP3    H127721   0.184   3.263   8.303
 2054TIP3    H227722   0.209   3.239   8.156
 2055TIP3   OH227723   0.958   2.715   0.866
 2055TIP3    H127724   0.964   2.750   0.777
 2055TIP3    H227725   0.878   2.753   0.901
 2056TIP3   OH227726   3.980   2.359   1.516
 2056TIP3    H127727   4.052   2.412   1.481
 2056TIP3    H227728   4.017   2.315   1.592
 2057TIP3   OH227729   0.591   0.336   1.102
 2057TIP3    H127730   0.633   0.337   1.188
 2057TIP3    H227731   0.614   0.250   1.066
 2058TIP3   OH227732   0.565   3.046   8.095
 2058TIP3    H127733   0.640   2.990   8.076
 2058TIP3    H227734   0.523   3.061   8.010
 2059TIP3   OH227735   6.718   3.769   0.959
 2059TIP3    H127736   6.783   3.839   0.956
 2059TIP3    H227737   6.660   3.794   1.031
 2060TIP3   OH227738   0.890   2.554   0.434
 2060TIP3    H127739   0.833   2.621   0.472
 2060TIP3    H227740   0.958   2.605   0.389
 2061TIP3   OH227741   6.213   1.390   1.324
 2061TIP3    H127742   6.255   1.390   1.410
 2061TIP3    H227743   6.126   1.428   1.340
 2062TIP3   OH227744   5.059   3.443   7.248
 2062TIP3    H127745   5.101   3.447   7.162
 2062TIP3    H227746   5.040   3.534   7.269
 2063TIP3   OH227747   5.329   1.476   6.902
 2063TIP3    H127748   5.359   1.451   6.815
 2063TIP3    H227749   5.372   1.414   6.961
 2064TIP3   OH227750   0.790   0.791   1.078
 2064TIP3    H127751   0.724   0.800   1.147
 2064TIP3    H227752   0.870   0.768   1.124
 2065TIP3   OH227753   5.597   5.196   0.543
 2065TIP3    H127754   5.625   5.285   0.564
 2065TIP3    H227755   5.549   5.167   0.621
 2066TIP3   OH227756   1.467   4.697   6.848
 2066TIP3    H127757   1.399   4.760   6.825
 2066TIP3    H227758   1.548   4.736   6.816
 2067TIP3   OH227759   2.194   1.862   7.419
 2067TIP3    H127760   2.119   1.805   7.433
 2067TIP3    H227761   2.157   1.940   7.377
 2068TIP3   OH227762   6.333   5.131   7.013
 2068TIP3    H127763   6.396   5.070   6.977
 2068TIP3    H227764   6.275   5.153   6.940
 2069TIP3   OH227765   5.728   1.708   2.429
 2069TIP3    H127766   5.753   1.749   2.512
 2069TIP3    H227767   5.736   1.614   2.444
 2070TIP3   OH227768   0.173   3.739   8.437
 2070TIP3    H127769   0.089   3.693   8.432
 2070TIP3    H227770   0.183   3.760   8.529
 2071TIP3   OH227771   3.094   0.635   8.570
 2071TIP3    H127772   3.035   0.660   8.499
 2071TIP3    H227773   3.131   0.551   8.543
 2072TIP3   OH227774   2.280   2.633   6.988
 2072TIP3    H127775   2.242   2.691   6.922
 2072TIP3    H227776   2.277   2.546   6.949
 2073TIP3   OH227777   5.627   3.495   1.107
 2073TIP3    H127778   5.623   3.401   1.120
 2073TIP3    H227779   5.568   3.531   1.173
 2074TIP3   OH227780   0.325   4.616   1.539
 2074TIP3    H127781   0.369   4.600   1.623
 2074TIP3    H227782   0.256   4.679   1.559
 2075TIP3   OH227783   1.850   5.252   8.695
 2075TIP3    H127784   1.783   5.241   8.627
 2075TIP3    H227785   1.855   5.346   8.710
 2076TIP3   OH227786   3.195   2.909   6.755
 2076TIP3    H127787   3.108   2.878   6.730
 2076TIP3    H227788   3.255   2.847   6.715
 2077TIP3   OH227789   0.100   1.034   1.184
 2077TIP3    H127790   0.143   1.114   1.215
 2077TIP3    H227791   0.151   0.963   1.223
 2078TIP3   OH227792   2.238   3.047   8.443
 2078TIP3    H127793   2.309   3.103   8.413
 2078TIP3    H227794   2.268   2.958   8.426
 2079TIP3   OH227795   0.649   5.704   0.780
 2079TIP3    H127796   0.599   5.768   0.831
 2079TIP3    H227797   0.693   5.650   0.846
 2080TIP3   OH227798   5.665   6.633   7.997
 2080TIP3    H127799   5.583   6.665   8.036
 2080TIP3    H227800   5.638   6.588   7.917
 2081TIP3   OH227801   2.918   4.197   2.210
 2081TIP3    H127802   2.998   4.214   2.261
 2081TIP3    H227803   2.848   4.198   2.276
 2082TIP3   OH227804   1.748   5.720   6.494
 2082TIP3    H127805   1.652   5.723   6.490
 2082TIP3    H227806   1.775   5.688   6.409
 2083TIP3   OH227807   3.971   6.649   1.103
 2083TIP3    H127808   3.961   6.724   1.045
 2083TIP3    H227809   3.957   6.573   1.046
 2084TIP3   OH227810   4.039   4.633   0.066
 2084TIP3    H127811   3.995   4.550   0.084
 2084TIP3    H227812   3.992   4.669   8.782
 2085TIP3   OH227813   6.727   6.527   0.358
 2085TIP3    H127814   6.743   6.441   0.397
 2085TIP3    H227815   6.806   6.545   0.307
 2086TIP3   OH227816   5.038   4.927   2.087
 2086TIP3    H127817   5.076   5.007   2.121
 2086TIP3    H227818   5.093   4.904   2.012
 2087TIP3   OH227819   1.298   1.693   6.585
 2087TIP3    H127820   1.255   1.689   6.500
 2087TIP3    H227821   1.386   1.725   6.567
 2088TIP3   OH227822   2.946   0.594   0.035
 2088TIP3    H127823   3.006   0.609   8.753
 2088TIP3    H227824   2.979   0.516   0.078
 2089TIP3   OH227825   5.176   0.064   8.239
 2089TIP3    H127826   5.104   0.038   8.296
 2089TIP3    H227827   5.254   0.059   8.294
 2090TIP3   OH227828   3.598   5.326   7.314
 2090TIP3    H127829   3.599   5.279   7.231
 2090TIP3    H227830   3.657   5.275   7.370
 2091TIP3   OH227831   0.556   1.745   2.371
 2091TIP3    H127832   0.508   1.791   2.440
 2091TIP3    H227833   0.497   1.675   2.343
 2092TIP3   OH227834   2.819   5.969   7.480
 2092TIP3    H127835   2.802   5.941   7.569
 2092TIP3    H227836   2.796   6.062   7.479
 2093TIP3   OH227837   1.660   6.499   8.315
 2093TIP3    H127838   1.598   6.538   8.377
 2093TIP3    H227839   1.622   6.516   8.229
 2094TIP3   OH227840   5.436   6.452   1.884
 2094TIP3    H127841   5.419   6.538   1.923
 2094TIP3    H227842   5.352   6.406   1.892
 2095TIP3   OH227843   2.264   3.809   7.114
 2095TIP3    H127844   2.222   3.863   7.047
 2095TIP3    H227845   2.201   3.740   7.132
 2096TIP3   OH227846   0.692   4.649   8.720
 2096TIP3    H127847   0.611   4.649   8.669
 2096TIP3    H227848   0.672   4.597   0.007
 2097TIP3   OH227849   0.274   6.417   8.486
 2097TIP3    H127850   0.316   6.438   8.570
 2097TIP3    H227851   0.337   6.361   8.441
 2098TIP3   OH227852   5.410   4.088   8.072
 2098TIP3    H127853   5.503   4.086   8.047
 2098TIP3    H227854   5.399   4.010   8.126
 2099TIP3   OH227855   3.094   5.935   8.182
 2099TIP3    H127856   3.137   5.934   8.096
 2099TIP3    H227857   3.074   5.843   8.200
 2100TIP3   OH227858   0.123   2.756   6.889
 2100TIP3    H127859   0.058   2.784   6.825
 2100TIP3    H227860   0.183   2.830   6.897
 2101TIP3   OH227861   4.630   6.743   0.577
 2101TIP3    H127862   4.558   6.726   0.516
 2101TIP3    H227863   4.601   6.704   0.659
 2102TIP3   OH227864   6.161   6.668   1.607
 2102TIP3    H127865   6.109   6.745   1.629
 2102TIP3    H227866   6.118   6.596   1.653
 2103TIP3   OH227867   1.214   1.455   0.624
 2103TIP3    H127868   1.220   1.403   0.544
 2103TIP3    H227869   1.281   1.419   0.682
 2104TIP3   OH227870   2.079   2.185   8.192
 2104TIP3    H127871   2.091   2.228   8.107
 2104TIP3    H227872   2.036   2.252   8.246
 2105TIP3   OH227873   6.601   0.662   1.871
 2105TIP3    H127874   6.590   0.644   1.965
 2105TIP3    H227875   6.694   0.678   1.861
 2106TIP3   OH227876   0.892   1.813   7.619
 2106TIP3    H127877   0.871   1.730   7.661
 2106TIP3    H227878   0.898   1.875   7.691
 2107TIP3   OH227879   3.738   5.708   2.168
 2107TIP3    H127880   3.687   5.755   2.102
 2107TIP3    H227881   3.763   5.776   2.232
 2108TIP3   OH227882   2.316   4.285   6.735
 2108TIP3    H127883   2.410   4.272   6.729
 2108TIP3    H227884   2.291   4.321   6.650
 2109TIP3   OH227885   0.541   2.088   1.197
 2109TIP3    H127886   0.501   2.130   1.121
 2109TIP3    H227887   0.632   2.118   1.196
 2110TIP3   OH227888   1.048   1.721   1.828
 2110TIP3    H127889   1.117   1.753   1.886
 2110TIP3    H227890   1.056   1.626   1.831
 2111TIP3   OH227891   6.389   0.058   8.788
 2111TIP3    H127892   6.313   0.063   0.054
 2111TIP3    H227893   6.463   0.047   0.056
 2112TIP3   OH227894   2.722   0.213   2.046
 2112TIP3    H127895   2.654   0.181   2.106
 2112TIP3    H227896   2.794   0.152   2.058
 2113TIP3   OH227897   0.997   1.665   1.341
 2113TIP3    H127898   1.057   1.600   1.304
 2113TIP3    H227899   0.926   1.614   1.379
 2114TIP3   OH227900   1.707   4.119   1.407
 2114TIP3    H127901   1.793   4.084   1.384
 2114TIP3    H227902   1.725   4.206   1.441
 2115TIP3   OH227903   4.752   6.694   2.402
 2115TIP3    H127904   4.674   6.682   2.457
 2115TIP3    H227905   4.769   6.607   2.366
 2116TIP3   OH227906   1.346   0.487   6.472
 2116TIP3    H127907   1.345   0.457   6.381
 2116TIP3    H227908   1.264   0.537   6.480
 2117TIP3   OH227909   6.500   0.013   1.163
 2117TIP3    H127910   6.444   6.814   1.086
 2117TIP3    H227911   6.556   6.750   1.165
 2118TIP3   OH227912   4.204   5.410   0.509
 2118TIP3    H127913   4.228   5.384   0.420
 2118TIP3    H227914   4.287   5.430   0.552
 2119TIP3   OH227915   0.509   3.020   7.278
 2119TIP3    H127916   0.496   3.030   7.372
 2119TIP3    H227917   0.501   3.109   7.243
 2120TIP3   OH227918   3.043   6.743   0.668
 2120TIP3    H127919   3.057   0.023   0.678
 2120TIP3    H227920   3.103   6.717   0.598
 2121TIP3   OH227921   6.361   4.617   1.115
 2121TIP3    H127922   6.418   4.694   1.117
 2121TIP3    H227923   6.324   4.617   1.027
 2122TIP3   OH227924   2.460   0.241   8.092
 2122TIP3    H127925   2.479   0.276   8.004
 2122TIP3    H227926   2.497   0.306   8.152
 2123TIP3   OH227927   6.122   2.326   1.692
 2123TIP3    H127928   6.171   2.265   1.637
 2123TIP3    H227929   6.049   2.275   1.725
 2124TIP3   OH227930   2.839   6.696   0.005
 2124TIP3    H127931   2.782   6.687   8.719
 2124TIP3    H227932   2.810   6.626   0.064
 2125TIP3   OH227933   1.144   4.001   2.420
 2125TIP3    H127934   1.087   3.924   2.414
 2125TIP3    H227935   1.103   4.055   2.487
 2126TIP3   OH227936   0.483   6.595   7.004
 2126TIP3    H127937   0.399   6.611   7.048
 2126TIP3    H227938   0.477   6.645   6.923
 2127TIP3   OH227939   6.666   6.189   0.554
 2127TIP3    H127940   6.610   6.143   0.617
 2127TIP3    H227941   6.717   6.250   0.608
 2128TIP3   OH227942   2.301   5.909   0.418
 2128TIP3    H127943   2.351   5.961   0.481
 2128TIP3    H227944   2.233   5.866   0.470
 2129TIP3   OH227945   2.029   3.890   8.652
 2129TIP3    H127946   2.090   3.926   8.716
 2129TIP3    H227947   2.065   3.914   8.567
 2130TIP3   OH227948   6.554   0.037   1.806
 2130TIP3    H127949   6.607   0.043   1.885
 2130TIP3    H227950   6.617   0.040   1.734
 2131TIP3   OH227951   1.306   4.387   8.510
 2131TIP3    H127952   1.360   4.319   8.549
 2131TIP3    H227953   1.345   4.404   8.425
 2132TIP3   OH227954   6.468   5.751   7.269
 2132TIP3    H127955   6.436   5.801   7.344
 2132TIP3    H227956   6.390   5.734   7.216
 2133TIP3   OH227957   3.144   0.224   6.886
 2133TIP3    H127958   3.195   0.148   6.859
 2133TIP3    H227959   3.082   0.238   6.815
 2134TIP3   OH227960   2.303   6.598   0.668
 2134TIP3    H127961   2.340   6.657   0.602
 2134TIP3    H227962   2.324   6.639   0.752
 2135TIP3   OH227963   4.057   1.250   7.723
 2135TIP3    H127964   4.128   1.186   7.729
 2135TIP3    H227965   4.018   1.236   7.637
 2136TIP3   OH227966   1.172   0.172   8.653
 2136TIP3    H127967   1.205   0.104   8.594
 2136TIP3    H227968   1.242   0.238   8.653
 2137TIP3   OH227969   3.250   3.135   8.422
 2137TIP3    H127970   3.234   3.187   8.500
 2137TIP3    H227971   3.255   3.045   8.453
 2138TIP3   OH227972   2.536   1.436   1.508
 2138TIP3    H127973   2.554   1.342   1.509
 2138TIP3    H227974   2.469   1.447   1.576
 2139TIP3   OH227975   3.110   4.358   0.555
 2139TIP3    H127976   3.178   4.416   0.522
 2139TIP3    H227977   3.028   4.396   0.521
 2140TIP3   OH227978   6.004   2.950   2.174
 2140TIP3    H127979   6.020   2.904   2.257
 2140TIP3    H227980   6.015   3.042   2.196
 2141TIP3   OH227981   4.729   1.860   1.893
 2141TIP3    H127982   4.808   1.895   1.850
 2141TIP3    H227983   4.667   1.849   1.821
 2142TIP3   OH227984   4.650   6.078   8.766
 2142TIP3    H127985   4.563   6.080   8.727
 2142TIP3    H227986   4.639   6.027   0.056
 2143TIP3   OH227987   0.635   1.296   1.754
 2143TIP3    H127988   0.698   1.238   1.797
 2143TIP3    H227989   0.688   1.366   1.718
 2144TIP3   OH227990   0.896   4.958   0.039
 2144TIP3    H127991   0.957   4.984   8.761
 2144TIP3    H227992   0.812   4.948   8.786
 2145TIP3   OH227993   6.386   0.321   8.653
 2145TIP3    H127994   6.377   0.231   8.683
 2145TIP3    H227995   6.359   0.375   8.728
 2146TIP3   OH227996   6.616   4.151   0.297
 2146TIP3    H127997   6.662   4.159   0.380
 2146TIP3    H227998   6.678   4.180   0.231
 2147TIP3   OH227999   1.741   4.590   8.498
 2147TIP3    H128000   1.698   4.548   8.423
 2147TIP3    H228001   1.684   4.569   8.573
 2148TIP3   OH228002   0.334   6.247   1.521
 2148TIP3    H128003   0.415   6.206   1.550
 2148TIP3    H228004   0.265   6.205   1.573
 2149TIP3   OH228005   5.229   1.677   7.635
 2149TIP3    H128006   5.153   1.731   7.655
 2149TIP3    H228007   5.196   1.587   7.635
 2150TIP3   OH228008   5.413   6.554   0.509
 2150TIP3    H128009   5.326   6.551   0.549
 2150TIP3    H228010   5.431   6.464   0.483
 2151TIP3   OH228011   5.952   5.484   1.845
 2151TIP3    H128012   6.008   5.430   1.901
 2151TIP3    H228013   5.877   5.429   1.824
 2152TIP3   OH228014   4.087   4.067   2.361
 2152TIP3    H128015   4.144   4.097   2.431
 2152TIP3    H228016   4.027   4.140   2.345
 2153TIP3   OH228017   2.901   1.262   1.607
 2153TIP3    H128018   2.923   1.344   1.651
 2153TIP3    H228019   2.916   1.195   1.674
 2154TIP3   OH228020   1.035   0.169   1.584
 2154TIP3    H128021   1.093   0.241   1.610
 2154TIP3    H228022   1.028   0.114   1.662
 2155TIP3   OH228023   5.942   1.321   8.358
 2155TIP3    H128024   5.982   1.399   8.395
 2155TIP3    H228025   5.851   1.346   8.341
 2156TIP3   OH228026   4.858   5.205   8.014
 2156TIP3    H128027   4.895   5.293   8.003
 2156TIP3    H228028   4.768   5.221   8.040
 2157TIP3   OH228029   5.145   0.302   1.423
 2157TIP3    H128030   5.088   0.232   1.454
 2157TIP3    H228031   5.175   0.346   1.502
 2158TIP3   OH228032   6.547   5.509   7.372
 2158TIP3    H128033   6.501   5.450   7.313
 2158TIP3    H228034   6.548   5.593   7.326
 2159TIP3   OH228035   6.380   0.017   0.351
 2159TIP3    H128036   6.326   6.813   0.428
 2159TIP3    H228037   6.324   0.070   0.295
 2160TIP3   OH228038   0.101   1.635   7.675
 2160TIP3    H128039   0.110   1.724   7.711
 2160TIP3    H228040   0.011   1.632   7.642
 2161TIP3   OH228041   5.632   4.930   6.871
 2161TIP3    H128042   5.555   4.915   6.817
 2161TIP3    H228043   5.609   4.891   6.956
 2162TIP3   OH228044   3.368   6.687   8.355
 2162TIP3    H128045   3.373   6.593   8.343
 2162TIP3    H228046   3.412   6.724   8.279
 2163TIP3   OH228047   3.253   5.542   1.745
 2163TIP3    H128048   3.268   5.636   1.730
 2163TIP3    H228049   3.179   5.540   1.806
 2164TIP3   OH228050   2.773   3.699   1.070
 2164TIP3    H128051   2.744   3.729   0.984
 2164TIP3    H228052   2.699   3.648   1.103
 2165TIP3   OH228053   4.326   5.872   1.748
 2165TIP3    H128054   4.262   5.929   1.706
 2165TIP3    H228055   4.299   5.870   1.840
 2166TIP3   OH228056   1.164   6.695   7.232
 2166TIP3    H128057   1.105   6.672   7.160
 2166TIP3    H228058   1.242   6.642   7.218
 2167TIP3   OH228059   2.161   3.079   1.131
 2167TIP3    H128060   2.160   3.131   1.051
 2167TIP3    H228061   2.227   3.012   1.114
 2168TIP3   OH228062   2.314   5.130   0.786
 2168TIP3    H128063   2.311   5.207   0.730
 2168TIP3    H228064   2.387   5.078   0.751
 2169TIP3   OH228065   2.696   3.750   8.597
 2169TIP3    H128066   2.636   3.767   8.669
 2169TIP3    H228067   2.685   3.657   8.578
 2170TIP3   OH228068   1.506   0.781   2.141
 2170TIP3    H128069   1.591   0.790   2.184
 2170TIP3    H228070   1.472   0.870   2.135
 2171TIP3   OH228071   0.488   2.369   0.756
 2171TIP3    H128072   0.527   2.388   0.670
 2171TIP3    H228073   0.456   2.453   0.787
 2172TIP3   OH228074   1.301   6.369   8.125
 2172TIP3    H128075   1.262   6.439   8.177
 2172TIP3    H228076   1.344   6.313   8.190
 2173TIP3   OH228077   5.774   5.954   8.216
 2173TIP3    H128078   5.819   5.932   8.298
 2173TIP3    H228079   5.684   5.925   8.230
 2174TIP3   OH228080   0.949   6.296   1.192
 2174TIP3    H128081   1.003   6.217   1.189
 2174TIP3    H228082   0.879   6.279   1.129
 2175TIP3   OH228083   0.030   0.814   1.566
 2175TIP3    H128084   6.805   0.731   1.593
 2175TIP3    H228085   6.772   0.875   1.562
 2176TIP3   OH228086   0.986   4.642   8.698
 2176TIP3    H128087   0.990   4.732   8.732
 2176TIP3    H228088   0.893   4.621   8.699
 2177TIP3   OH228089   0.120   4.471   1.127
 2177TIP3    H128090   0.110   4.383   1.088
 2177TIP3    H228091   0.131   4.454   1.221
 2178TIP3   OH228092   1.769   0.514   1.735
 2178TIP3    H128093   1.756   0.422   1.757
 2178TIP3    H228094   1.830   0.546   1.801
 2179TIP3   OH228095   1.624   0.335   8.338
 2179TIP3    H128096   1.674   0.401   8.291
 2179TIP3    H228097   1.534   0.346   8.309
 2180TIP3   OH228098   5.157   4.781   1.452
 2180TIP3    H128099   5.243   4.783   1.494
 2180TIP3    H228100   5.159   4.702   1.398
 2181TIP3   OH228101   5.515   0.551   2.922
 2181TIP3    H128102   5.440   0.504   2.888
 2181TIP3    H228103   5.560   0.488   2.979
 2182TIP3   OH228104   2.421   5.451   1.415
 2182TIP3    H128105   2.438   5.375   1.470
 2182TIP3    H228106   2.387   5.415   1.333
 2183TIP3   OH228107   5.077   6.560   7.245
 2183TIP3    H128108   5.137   6.503   7.196
 2183TIP3    H228109   5.000   6.506   7.260
 2184TIP3   OH228110   1.235   5.596   7.744
 2184TIP3    H128111   1.321   5.637   7.730
 2184TIP3    H228112   1.251   5.503   7.733
 2185TIP3   OH228113   6.281   5.923   0.631
 2185TIP3    H128114   6.365   5.966   0.649
 2185TIP3    H228115   6.218   5.970   0.686
 2186TIP3   OH228116   3.655   6.292   2.227
 2186TIP3    H128117   3.642   6.211   2.178
 2186TIP3    H228118   3.620   6.360   2.169
 2187TIP3   OH228119   2.267   3.981   8.774
 2187TIP3    H128120   2.348   4.031   8.769
 2187TIP3    H228121   2.296   3.892   0.005
 2188TIP3   OH228122   3.728   4.067   1.313
 2188TIP3    H128123   3.753   3.983   1.351
 2188TIP3    H228124   3.731   4.053   1.219
 2189TIP3   OH228125   4.860   0.799   8.389
 2189TIP3    H128126   4.836   0.848   8.468
 2189TIP3    H228127   4.929   0.739   8.418
 2190TIP3   OH228128   0.514   4.746   8.301
 2190TIP3    H128129   0.474   4.681   8.242
 2190TIP3    H228130   0.581   4.788   8.248
 2191TIP3   OH228131   4.932   1.013   6.559
 2191TIP3    H128132   4.947   1.004   6.465
 2191TIP3    H228133   4.922   1.107   6.572
 2192TIP3   OH228134   2.418   6.527   7.308
 2192TIP3    H128135   2.459   6.507   7.392
 2192TIP3    H228136   2.453   6.613   7.284
 2193TIP3   OH228137   4.405   5.263   1.362
 2193TIP3    H128138   4.429   5.329   1.296
 2193TIP3    H228139   4.310   5.256   1.354
 2194TIP3   OH228140   0.549   5.134   1.172
 2194TIP3    H128141   0.631   5.096   1.204
 2194TIP3    H228142   0.532   5.089   1.090
 2195TIP3   OH228143   5.102   2.582   2.658
 2195TIP3    H128144   5.041   2.584   2.732
 2195TIP3    H228145   5.065   2.643   2.594
 2196TIP3   OH228146   2.915   3.105   6.557
 2196TIP3    H128147   2.925   3.014   6.530
 2196TIP3    H228148   2.865   3.100   6.639
 2197TIP3   OH228149   6.305   4.657   8.438
 2197TIP3    H128150   6.212   4.633   8.439
 2197TIP3    H228151   6.308   4.736   8.384
 2198TIP3   OH228152   3.051   5.013   1.687
 2198TIP3    H128153   3.112   4.990   1.757
 2198TIP3    H228154   2.975   4.956   1.702
 2199TIP3   OH228155   2.823   1.071   7.864
 2199TIP3    H128156   2.857   0.990   7.903
 2199TIP3    H228157   2.823   1.134   7.936
 2200TIP3   OH228158   4.915   3.384   8.298
 2200TIP3    H128159   4.920   3.480   8.296
 2200TIP3    H228160   4.925   3.361   8.390
 2201TIP3   OH228161   0.578   3.309   0.165
 2201TIP3    H128162   0.586   3.382   0.103
 2201TIP3    H228163   0.661   3.262   0.157
 2202TIP3   OH228164   1.122   4.737   0.843
 2202TIP3    H128165   1.037   4.716   0.882
 2202TIP3    H228166   1.125   4.833   0.842
 2203TIP3   OH228167   3.300   4.975   8.261
 2203TIP3    H128168   3.208   4.949   8.254
 2203TIP3    H228169   3.332   4.977   8.171
 2204TIP3   OH228170   5.028   0.233   2.284
 2204TIP3    H128171   4.935   0.214   2.275
 2204TIP3    H228172   5.032   0.324   2.313
 2205TIP3   OH228173   5.754   0.260   0.047
 2205TIP3    H128174   5.833   0.209   0.030
 2205TIP3    H228175   5.737   0.306   8.756
 2206TIP3   OH228176   4.449   0.091   0.801
 2206TIP3    H128177   4.453   0.003   0.762
 2206TIP3    H228178   4.497   0.083   0.883
 2207TIP3   OH228179   6.277   0.646   2.121
 2207TIP3    H128180   6.304   0.735   2.143
 2207TIP3    H228181   6.208   0.625   2.184
 2208TIP3   OH228182   0.363   0.779   1.996
 2208TIP3    H128183   0.341   0.808   2.084
 2208TIP3    H228184   0.312   0.698   1.984
 2209TIP3   OH228185   5.109   6.455   0.583
 2209TIP3    H128186   5.091   6.362   0.595
 2209TIP3    H228187   5.106   6.492   0.672
 2210TIP3   OH228188   6.107   5.999   0.856
 2210TIP3    H128189   6.070   5.911   0.869
 2210TIP3    H228190   6.189   5.998   0.906
 2211TIP3   OH228191   2.656   5.265   0.305
 2211TIP3    H128192   2.644   5.223   0.219
 2211TIP3    H228193   2.599   5.215   0.364
 2212TIP3   OH228194   0.326   0.408   1.121
 2212TIP3    H128195   0.342   0.495   1.158
 2212TIP3    H228196   0.412   0.366   1.119
 2213TIP3   OH228197   5.358   2.066   7.940
 2213TIP3    H128198   5.412   2.044   7.864
 2213TIP3    H228199   5.270   2.076   7.904
 2214TIP3   OH228200   0.569   1.739   7.322
 2214TIP3    H128201   0.553   1.766   7.231
 2214TIP3    H228202   0.504   1.786   7.373
 2215TIP3   OH228203   2.382   4.705   8.079
 2215TIP3    H128204   2.454   4.642   8.064
 2215TIP3    H228205   2.363   4.697   8.173
 2216TIP3   OH228206   6.315   1.020   0.453
 2216TIP3    H128207   6.382   1.086   0.432
 2216TIP3    H228208   6.328   0.951   0.388
 2217TIP3   OH228209   0.153   2.403   2.153
 2217TIP3    H128210   0.130   2.416   2.245
 2217TIP3    H228211   0.125   2.313   2.134
 2218TIP3   OH228212   4.014   5.589   6.519
 2218TIP3    H128213   3.970   5.658   6.468
 2218TIP3    H228214   4.037   5.523   6.454
 2219TIP3   OH228215   0.760   0.302   0.191
 2219TIP3    H128216   0.670   0.334   0.181
 2219TIP3    H228217   0.811   0.381   0.209
 2220TIP3   OH228218   0.594   4.374   1.450
 2220TIP3    H128219   0.551   4.289   1.452
 2220TIP3    H228220   0.638   4.377   1.365
 2221TIP3   OH228221   3.693   0.481   8.491
 2221TIP3    H128222   3.717   0.401   8.538
 2221TIP3    H228223   3.771   0.537   8.499
 2222TIP3   OH228224   3.789   2.957   0.924
 2222TIP3    H128225   3.794   2.863   0.908
 2222TIP3    H228226   3.876   2.981   0.955
 2223TIP3   OH228227   4.821   2.453   0.120
 2223TIP3    H128228   4.737   2.414   0.095
 2223TIP3    H228229   4.887   2.400   0.074
 2224TIP3   OH228230   5.297   4.158   7.277
 2224TIP3    H128231   5.211   4.150   7.237
 2224TIP3    H228232   5.311   4.252   7.287
 2225TIP3   OH228233   0.125   2.758   1.367
 2225TIP3    H128234   0.143   2.734   1.276
 2225TIP3    H228235   0.183   2.701   1.418
 2226TIP3   OH228236   4.250   1.121   7.059
 2226TIP3    H128237   4.317   1.057   7.037
 2226TIP3    H228238   4.251   1.184   6.987
 2227TIP3   OH228239   3.369   1.355   6.988
 2227TIP3    H128240   3.373   1.336   6.895
 2227TIP3    H228241   3.460   1.369   7.015
 2228TIP3   OH228242   1.778   1.185   1.246
 2228TIP3    H128243   1.748   1.269   1.280
 2228TIP3    H228244   1.874   1.194   1.240
 2229TIP3   OH228245   5.722   0.334   7.799
 2229TIP3    H128246   5.710   0.262   7.737
 2229TIP3    H228247   5.783   0.393   7.755
 2230TIP3   OH228248   0.066   0.864   7.587
 2230TIP3    H128249   0.073   0.940   7.529
 2230TIP3    H228250   0.149   0.863   7.636
 2231TIP3   OH228251   1.521   1.593   0.393
 2231TIP3    H128252   1.536   1.541   0.314
 2231TIP3    H228253   1.605   1.591   0.439
 2232TIP3   OH228254   1.429   4.038   7.615
 2232TIP3    H128255   1.373   3.999   7.682
 2232TIP3    H228256   1.404   4.130   7.613
 2233TIP3   OH228257   5.309   0.210   2.254
 2233TIP3    H128258   5.221   0.207   2.216
 2233TIP3    H228259   5.343   0.121   2.243
 2234TIP3   OH228260   3.913   4.658   8.051
 2234TIP3    H128261   3.830   4.681   8.094
 2234TIP3    H228262   3.889   4.646   7.959
 2235TIP3   OH228263   1.901   4.622   7.499
 2235TIP3    H128264   1.984   4.670   7.498
 2235TIP3    H228265   1.885   4.599   7.407
 2236TIP3   OH228266   1.332   0.217   8.042
 2236TIP3    H128267   1.289   0.293   8.002
 2236TIP3    H228268   1.265   0.149   8.044
 2237TIP3   OH228269   6.169   3.283   6.519
 2237TIP3    H128270   6.097   3.269   6.458
 2237TIP3    H228271   6.184   3.197   6.559
 2238TIP3   OH228272   3.171   1.125   6.793
 2238TIP3    H128273   3.233   1.076   6.847
 2238TIP3    H228274   3.225   1.190   6.748
 2239TIP3   OH228275   2.537   1.489   7.203
 2239TIP3    H128276   2.545   1.556   7.271
 2239TIP3    H228277   2.517   1.409   7.251
 2240TIP3   OH228278   1.901   2.458   6.581
 2240TIP3    H128279   1.901   2.539   6.530
 2240TIP3    H228280   1.855   2.395   6.526
 2241TIP3   OH228281   6.737   4.059   8.316
 2241TIP3    H128282   6.697   4.131   8.265
 2241TIP3    H228283   6.720   3.981   8.264
 2242TIP3   OH228284   0.687   5.455   8.368
 2242TIP3    H128285   0.762   5.514   8.378
 2242TIP3    H228286   0.665   5.459   8.275
 2243TIP3   OH228287   3.303   3.717   8.062
 2243TIP3    H128288   3.236   3.710   7.995
 2243TIP3    H228289   3.374   3.662   8.031
 2244TIP3   OH228290   0.985   3.426   0.516
 2244TIP3    H128291   1.001   3.395   0.606
 2244TIP3    H228292   1.064   3.475   0.494
 2245TIP3   OH228293   2.704   0.126   6.605
 2245TIP3    H128294   2.665   0.128   6.693
 2245TIP3    H228295   2.695   0.035   6.577
 2246TIP3   OH228296   0.146   5.391   7.124
 2246TIP3    H128297   0.227   5.367   7.079
 2246TIP3    H228298   0.079   5.393   7.055
 2247TIP3   OH228299   0.963   4.151   7.408
 2247TIP3    H128300   0.909   4.080   7.443
 2247TIP3    H228301   0.966   4.215   7.479
 2248TIP3   OH228302   6.486   1.785   0.689
 2248TIP3    H128303   6.485   1.743   0.775
 2248TIP3    H228304   6.417   1.852   0.694
 2249TIP3   OH228305   3.304   2.255   0.398
 2249TIP3    H128306   3.322   2.343   0.433
 2249TIP3    H228307   3.301   2.267   0.303
 2250TIP3   OH228308   5.586   3.864   7.955
 2250TIP3    H128309   5.531   3.832   8.027
 2250TIP3    H228310   5.654   3.798   7.944
 2251TIP3   OH228311   3.199   5.207   1.884
 2251TIP3    H128312   3.266   5.192   1.950
 2251TIP3    H228313   3.245   5.198   1.800
 2252TIP3   OH228314   3.397   2.504   0.485
 2252TIP3    H128315   3.482   2.542   0.465
 2252TIP3    H228316   3.374   2.539   0.571
 2253TIP3   OH228317   5.732   3.765   7.333
 2253TIP3    H128318   5.804   3.754   7.395
 2253TIP3    H228319   5.769   3.740   7.248
 2254TIP3   OH228320   6.769   5.697   8.192
 2254TIP3    H128321   6.751   5.639   8.265
 2254TIP3    H228322   6.756   5.643   8.114
 2255TIP3   OH228323   6.664   2.848   8.084
 2255TIP3    H128324   6.695   2.803   8.163
 2255TIP3    H228325   6.574   2.874   8.105
 2256TIP3   OH228326   2.123   3.499   8.307
 2256TIP3    H128327   2.180   3.512   8.232
 2256TIP3    H228328   2.146   3.570   8.367
 2257TIP3   OH228329   0.400   2.879   1.148
 2257TIP3    H128330   0.466   2.930   1.101
 2257TIP3    H228331   0.449   2.827   1.212
 2258TIP3   OH228332   3.227   4.076   1.629
 2258TIP3    H128333   3.208   4.007   1.693
 2258TIP3    H228334   3.151   4.075   1.570
 2259TIP3   OH228335   4.730   3.279   0.106
 2259TIP3    H128336   4.714   3.362   0.152
 2259TIP3    H228337   4.690   3.213   0.162
 2260TIP3   OH228338   6.055   4.240   6.876
 2260TIP3    H128339   6.134   4.246   6.821
 2260TIP3    H228340   6.016   4.156   6.851
 2261TIP3   OH228341   6.800   1.159   8.234
 2261TIP3    H128342   6.776   1.095   8.167
 2261TIP3    H228343   6.756   1.128   8.313
 2262TIP3   OH228344   0.887   4.694   0.518
 2262TIP3    H128345   0.841   4.696   0.435
 2262TIP3    H228346   0.955   4.761   0.510
 2263TIP3   OH228347   2.850   5.616   7.361
 2263TIP3    H128348   2.913   5.569   7.307
 2263TIP3    H228349   2.815   5.685   7.304
 2264TIP3   OH228350   2.894   4.821   8.014
 2264TIP3    H128351   2.905   4.879   8.089
 2264TIP3    H228352   2.945   4.743   8.036
 2265TIP3   OH228353   2.402   0.198   0.907
 2265TIP3    H128354   2.434   0.223   0.993
 2265TIP3    H228355   2.480   0.185   0.854
 2266TIP3   OH228356   1.876   1.269   7.109
 2266TIP3    H128357   1.907   1.237   7.024
 2266TIP3    H228358   1.830   1.350   7.088
 2267TIP3   OH228359   2.879   4.357   8.005
 2267TIP3    H128360   2.961   4.316   8.031
 2267TIP3    H228361   2.855   4.413   8.080
 2268TIP3   OH228362   0.292   3.542   0.258
 2268TIP3    H128363   0.232   3.591   0.315
 2268TIP3    H228364   0.234   3.488   0.205
 2269TIP3   OH228365   6.372   5.887   7.469
 2269TIP3    H128366   6.425   5.911   7.545
 2269TIP3    H228367   6.281   5.903   7.497
 2270TIP3   OH228368   1.928   2.724   8.628
 2270TIP3    H128369   1.917   2.818   8.640
 2270TIP3    H228370   1.892   2.685   8.707
 2271TIP3   OH228371   0.989   1.050   7.105
 2271TIP3    H128372   1.057   1.005   7.156
 2271TIP3    H228373   0.908   1.004   7.126
 2272TIP3   OH228374   0.551   3.493   1.938
 2272TIP3    H128375   0.538   3.398   1.932
 2272TIP3    H228376   0.563   3.521   1.847
 2273TIP3   OH228377   3.855   5.819   8.416
 2273TIP3    H128378   3.882   5.908   8.395
 2273TIP3    H228379   3.844   5.820   8.511
 2274TIP3   OH228380   2.877   6.205   1.488
 2274TIP3    H128381   2.847   6.295   1.480
 2274TIP3    H228382   2.952   6.210   1.548
 2275TIP3   OH228383   1.676   4.552   0.845
 2275TIP3    H128384   1.590   4.587   0.823
 2275TIP3    H228385   1.737   4.600   0.789
 2276TIP3   OH228386   3.628   2.277   1.362
 2276TIP3    H128387   3.620   2.365   1.325
 2276TIP3    H228388   3.708   2.242   1.324
 2277TIP3   OH228389   6.025   4.458   8.411
 2277TIP3    H128390   6.012   4.547   8.380
 2277TIP3    H228391   6.034   4.466   8.506
 2278TIP3   OH228392   4.279   3.714   0.197
 2278TIP3    H128393   4.321   3.636   0.163
 2278TIP3    H228394   4.347   3.757   0.249
 2279TIP3   OH228395   6.089   5.597   8.672
 2279TIP3    H128396   6.107   5.667   8.735
 2279TIP3    H228397   5.993   5.593   8.668
 2280TIP3   OH228398   3.587   0.913   8.411
 2280TIP3    H128399   3.575   0.981   8.345
 2280TIP3    H228400   3.545   0.836   8.373
 2281TIP3   OH228401   1.373   6.212   1.082
 2281TIP3    H128402   1.430   6.166   1.144
 2281TIP3    H228403   1.322   6.272   1.136
 2282TIP3   OH228404   2.668   4.613   1.931
 2282TIP3    H128405   2.626   4.687   1.887
 2282TIP3    H228406   2.599   4.548   1.942
 2283TIP3   OH228407   1.850   4.395   6.873
 2283TIP3    H128408   1.895   4.430   6.797
 2283TIP3    H228409   1.919   4.353   6.925
 2284TIP3   OH228410   0.085   4.472   2.539
 2284TIP3    H128411   0.003   4.520   2.546
 2284TIP3    H228412   0.129   4.511   2.463
 2285TIP3   OH228413   4.771   1.801   7.311
 2285TIP3    H128414   4.740   1.876   7.260
 2285TIP3    H228415   4.702   1.735   7.300
 2286TIP3   OH228416   2.290   4.980   8.345
 2286TIP3    H128417   2.228   4.941   8.406
 2286TIP3    H228418   2.356   4.912   8.331
 2287TIP3   OH228419   4.944   0.369   0.331
 2287TIP3    H128420   4.914   0.346   0.419
 2287TIP3    H228421   4.864   0.374   0.279
 2288TIP3   OH228422   2.600   1.060   0.134
 2288TIP3    H128423   2.522   1.110   0.112
 2288TIP3    H228424   2.638   1.035   0.049
 2289TIP3   OH228425   5.768   5.594   1.136
 2289TIP3    H128426   5.816   5.615   1.056
 2289TIP3    H228427   5.798   5.506   1.160
 2290TIP3   OH228428   5.919   3.487   1.893
 2290TIP3    H128429   5.965   3.526   1.967
 2290TIP3    H228430   5.864   3.419   1.931
 2291TIP3   OH228431   2.017   6.776   6.934
 2291TIP3    H128432   1.976   6.784   7.020
 2291TIP3    H228433   1.954   6.814   6.873
 2292TIP3   OH228434   4.201   3.820   8.557
 2292TIP3    H128435   4.138   3.863   8.616
 2292TIP3    H228436   4.150   3.752   8.513
 2293TIP3   OH228437   5.364   1.063   0.828
 2293TIP3    H128438   5.349   0.995   0.763
 2293TIP3    H228439   5.459   1.075   0.829
 2294TIP3   OH228440   3.399   5.724   8.277
 2294TIP3    H128441   3.386   5.750   8.368
 2294TIP3    H228442   3.478   5.771   8.250
 2295TIP3   OH228443   3.971   1.504   1.833
 2295TIP3    H128444   3.958   1.562   1.758
 2295TIP3    H228445   3.969   1.562   1.909
 2296TIP3   OH228446   3.235   3.669   7.475
 2296TIP3    H128447   3.294   3.742   7.494
 2296TIP3    H228448   3.293   3.594   7.466
 2297TIP3   OH228449   1.232   0.788   1.194
 2297TIP3    H128450   1.164   0.780   1.127
 2297TIP3    H228451   1.231   0.880   1.220
 2298TIP3   OH228452   3.526   0.355   0.458
 2298TIP3    H128453   3.494   0.436   0.419
 2298TIP3    H228454   3.621   0.358   0.443
 2299TIP3   OH228455   0.423   5.709   6.975
 2299TIP3    H128456   0.493   5.670   6.924
 2299TIP3    H228457   0.467   5.765   7.039
 2300TIP3   OH228458   0.196   5.190   7.384
 2300TIP3    H128459   0.175   5.211   7.475
 2300TIP3    H228460   0.143   5.252   7.333
 2301TIP3   OH228461   0.678   5.933   6.881
 2301TIP3    H128462   0.674   5.999   6.949
 2301TIP3    H228463   0.619   5.964   6.813
 2302TIP3   OH228464   6.005   6.219   8.767
 2302TIP3    H128465   6.050   6.293   0.017
 2302TIP3    H228466   6.075   6.161   8.737
 2303TIP3   OH228467   2.861   1.386   0.756
 2303TIP3    H128468   2.824   1.420   0.674
 2303TIP3    H228469   2.845   1.456   0.820
 2304TIP3   OH228470   4.067   3.126   8.162
 2304TIP3    H128471   4.126   3.065   8.116
 2304TIP3    H228472   4.029   3.179   8.092
 2305TIP3   OH228473   4.287   1.156   2.598
 2305TIP3    H128474   4.209   1.150   2.542
 2305TIP3    H228475   4.287   1.246   2.629
 2306TIP3   OH228476   1.852   5.633   1.479
 2306TIP3    H128477   1.946   5.628   1.465
 2306TIP3    H228478   1.820   5.546   1.454
 2307TIP3   OH228479   0.883   5.090   7.785
 2307TIP3    H128480   0.918   5.007   7.753
 2307TIP3    H228481   0.943   5.116   7.855
 2308TIP3   OH228482   2.839   2.737   1.284
 2308TIP3    H128483   2.787   2.668   1.243
 2308TIP3    H228484   2.802   2.819   1.249
 2309TIP3   OH228485   1.670   4.873   1.361
 2309TIP3    H128486   1.669   4.901   1.453
 2309TIP3    H228487   1.604   4.804   1.356
 2310TIP3   OH228488   4.261   0.786   8.047
 2310TIP3    H128489   4.348   0.786   8.007
 2310TIP3    H228490   4.247   0.695   8.074
 2311TIP3   OH228491   1.222   2.102   0.785
 2311TIP3    H128492   1.136   2.080   0.821
 2311TIP3    H228493   1.283   2.085   0.857
 2312TIP3   OH228494   4.457   5.339   8.548
 2312TIP3    H128495   4.536   5.383   8.517
 2312TIP3    H228496   4.435   5.277   8.479
 2313TIP3   OH228497   5.246   6.045   1.374
 2313TIP3    H128498   5.269   6.102   1.448
 2313TIP3    H228499   5.320   6.053   1.314
 2314TIP3   OH228500   4.626   4.210   1.003
 2314TIP3    H128501   4.566   4.284   1.008
 2314TIP3    H228502   4.570   4.133   0.998
 2315TIP3   OH228503   2.261   6.281   6.941
 2315TIP3    H128504   2.255   6.187   6.925
 2315TIP3    H228505   2.194   6.299   7.006
 2316TIP3   OH228506   3.604   2.038   1.798
 2316TIP3    H128507   3.547   2.108   1.828
 2316TIP3    H228508   3.614   2.054   1.704
 2317TIP3   OH228509   5.879   4.037   7.664
 2317TIP3    H128510   5.902   3.951   7.628
 2317TIP3    H228511   5.808   4.069   7.608
 2318TIP3   OH228512   1.100   2.434   1.436
 2318TIP3    H128513   1.173   2.425   1.375
 2318TIP3    H228514   1.045   2.503   1.398
 2319TIP3   OH228515   4.313   5.078   0.668
 2319TIP3    H128516   4.356   5.139   0.728
 2319TIP3    H228517   4.224   5.110   0.660
 2320TIP3   OH228518   5.877   3.521   8.607
 2320TIP3    H128519   5.847   3.602   8.566
 2320TIP3    H228520   5.849   3.528   8.698
 2321TIP3   OH228521   5.987   6.083   7.167
 2321TIP3    H128522   6.082   6.080   7.164
 2321TIP3    H228523   5.960   6.089   7.075
 2322TIP3   OH228524   0.840   1.844   2.359
 2322TIP3    H128525   0.855   1.934   2.331
 2322TIP3    H228526   0.745   1.835   2.359
 2323TIP3   OH228527   6.777   3.204   1.202
 2323TIP3    H128528   0.024   3.165   1.265
 2323TIP3    H228529   6.794   3.298   1.208
 2324TIP3   OH228530   5.449   0.460   0.405
 2324TIP3    H128531   5.440   0.538   0.350
 2324TIP3    H228532   5.360   0.427   0.414
 2325TIP3   OH228533   1.345   4.287   0.533
 2325TIP3    H128534   1.342   4.208   0.480
 2325TIP3    H228535   1.255   4.321   0.531
 2326TIP3   OH228536   2.441   3.912   0.925
 2326TIP3    H128537   2.501   3.850   0.883
 2326TIP3    H228538   2.464   3.997   0.887
 2327TIP3   OH228539   0.906   5.600   6.979
 2327TIP3    H128540   0.992   5.580   7.017
 2327TIP3    H228541   0.916   5.579   6.886
 2328TIP3   OH228542   5.478   3.730   0.989
 2328TIP3    H128543   5.550   3.764   0.935
 2328TIP3    H228544   5.500   3.638   1.003
 2329TIP3   OH228545   1.847   5.813   8.484
 2329TIP3    H128546   1.816   5.901   8.464
 2329TIP3    H228547   1.792   5.755   8.431
 2330TIP3   OH228548   3.364   6.101   6.597
 2330TIP3    H128549   3.305   6.028   6.615
 2330TIP3    H228550   3.438   6.087   6.656
 2331TIP3   OH228551   5.456   4.279   0.645
 2331TIP3    H128552   5.534   4.297   0.592
 2331TIP3    H228553   5.473   4.193   0.683
 2332TIP3   OH228554   3.192   0.853   8.722
 2332TIP3    H128555   3.164   0.767   8.689
 2332TIP3    H228556   3.112   0.906   8.721
 2333TIP3   OH228557   5.937   6.297   6.720
 2333TIP3    H128558   5.863   6.332   6.670
 2333TIP3    H228559   5.992   6.374   6.738
 2334TIP3   OH228560   3.787   5.878   8.735
 2334TIP3    H128561   3.809   5.927   0.023
 2334TIP3    H228562   3.792   5.786   8.761
 2335TIP3   OH228563   3.911   0.094   0.574
 2335TIP3    H128564   4.004   0.106   0.594
 2335TIP3    H228565   3.871   0.179   0.591
 2336TIP3   OH228566   5.751   0.191   8.073
 2336TIP3    H128567   5.759   0.219   7.981
 2336TIP3    H228568   5.831   0.141   8.090
 2337TIP3   OH228569   6.383   1.695   0.158
 2337TIP3    H128570   6.398   1.708   0.251
 2337TIP3    H228571   6.395   1.781   0.119
 2338TIP3   OH228572   3.589   3.958   6.161
 2338TIP3    H128573   3.654   3.944   6.230
 2338TIP3    H228574   3.564   3.870   6.134
 2339TIP3   OH228575   1.844   3.601   8.357
 2339TIP3    H128576   1.888   3.596   8.273
 2339TIP3    H228577   1.813   3.691   8.363
 2340TIP3   OH228578   0.787   2.501   8.618
 2340TIP3    H128579   0.830   2.416   8.608
 2340TIP3    H228580   0.854   2.558   8.656
 2341TIP3   OH228581   1.189   6.186   7.373
 2341TIP3    H128582   1.150   6.251   7.431
 2341TIP3    H228583   1.116   6.153   7.321
 2342TIP3   OH228584   4.841   2.911   6.590
 2342TIP3    H128585   4.756   2.925   6.549
 2342TIP3    H228586   4.876   3.000   6.603
 2343TIP3   OH228587   4.057   0.255   7.621
 2343TIP3    H128588   3.991   0.324   7.621
 2343TIP3    H228589   4.140   0.301   7.609
 2344TIP3   OH228590   0.871   3.636   8.090
 2344TIP3    H128591   0.950   3.592   8.058
 2344TIP3    H228592   0.880   3.633   8.186
 2345TIP3   OH228593   3.326   1.008   7.005
 2345TIP3    H128594   3.348   0.929   7.055
 2345TIP3    H228595   3.242   1.036   7.041
 2346TIP3   OH228596   4.590   0.306   7.630
 2346TIP3    H128597   4.653   0.237   7.649
 2346TIP3    H228598   4.615   0.378   7.688
 2347TIP3   OH228599   2.703   5.991   1.325
 2347TIP3    H128600   2.608   5.979   1.332
 2347TIP3    H228601   2.723   6.059   1.389
 2348TIP3   OH228602   3.198   4.887   7.934
 2348TIP3    H128603   3.187   4.829   7.859
 2348TIP3    H228604   3.110   4.916   7.957
 2349TIP3   OH228605   3.190   1.596   1.085
 2349TIP3    H128606   3.222   1.577   0.997
 2349TIP3    H228607   3.189   1.692   1.090
 2350TIP3   OH228608   3.363   3.042   7.160
 2350TIP3    H128609   3.405   3.018   7.242
 2350TIP3    H228610   3.356   3.137   7.163
 2351TIP3   OH228611   5.038   4.149   7.162
 2351TIP3    H128612   4.956   4.109   7.190
 2351TIP3    H228613   5.016   4.239   7.141
 2352TIP3   OH228614   1.474   4.235   0.101
 2352TIP3    H128615   1.391   4.205   0.136
 2352TIP3    H228616   1.540   4.198   0.161
 2353TIP3   OH228617   3.003   0.116   8.365
 2353TIP3    H128618   3.041   0.073   8.443
 2353TIP3    H228619   3.065   0.186   8.344
 2354TIP3   OH228620   2.349   3.508   0.758
 2354TIP3    H128621   2.420   3.453   0.726
 2354TIP3    H228622   2.270   3.456   0.747
 2355TIP3   OH228623   5.797   3.130   1.426
 2355TIP3    H128624   5.807   3.213   1.380
 2355TIP3    H228625   5.887   3.104   1.447
 2356TIP3   OH228626   5.422   3.304   8.577
 2356TIP3    H128627   5.363   3.232   8.556
 2356TIP3    H228628   5.509   3.270   8.558
 2357TIP3   OH228629   2.200   3.935   1.581
 2357TIP3    H128630   2.245   4.016   1.606
 2357TIP3    H228631   2.271   3.871   1.571
 2358TIP3   OH228632   4.280   6.208   0.329
 2358TIP3    H128633   4.273   6.152   0.252
 2358TIP3    H228634   4.308   6.148   0.399
 2359TIP3   OH228635   0.498   5.247   7.692
 2359TIP3    H128636   0.556   5.245   7.616
 2359TIP3    H228637   0.557   5.259   7.766
 2360TIP3   OH228638   5.747   4.086   1.027
 2360TIP3    H128639   5.776   4.067   0.938
 2360TIP3    H228640   5.664   4.131   1.016
 2361TIP3   OH228641   0.315   2.652   6.622
 2361TIP3    H128642   0.301   2.724   6.684
 2361TIP3    H228643   0.274   2.682   6.541
 2362TIP3   OH228644   5.985   0.108   8.782
 2362TIP3    H128645   5.966   0.015   0.004
 2362TIP3    H228646   5.999   0.117   8.688
 2363TIP3   OH228647   2.214   3.260   2.683
 2363TIP3    H128648   2.212   3.235   2.590
 2363TIP3    H228649   2.307   3.265   2.705
 2364TIP3   OH228650   4.883   0.545   8.165
 2364TIP3    H128651   4.939   0.621   8.178
 2364TIP3    H228652   4.796   0.573   8.192
 2365TIP3   OH228653   0.988   0.422   8.765
 2365TIP3    H128654   1.021   0.364   8.696
 2365TIP3    H228655   1.041   0.401   0.050
 2366TIP3   OH228656   6.025   1.552   7.575
 2366TIP3    H128657   5.967   1.477   7.564
 2366TIP3    H228658   5.972   1.616   7.624
 2367TIP3   OH228659   0.559   3.530   1.254
 2367TIP3    H128660   0.499   3.599   1.285
 2367TIP3    H228661   0.643   3.574   1.245
 2368TIP3   OH228662   3.889   3.655   2.392
 2368TIP3    H128663   3.965   3.676   2.338
 2368TIP3    H228664   3.841   3.737   2.398
 2369TIP3   OH228665   3.082   2.031   6.631
 2369TIP3    H128666   3.041   2.043   6.717
 2369TIP3    H228667   3.127   1.947   6.638
 2370TIP3   OH228668   0.820   4.447   0.672
 2370TIP3    H128669   0.807   4.541   0.657
 2370TIP3    H228670   0.806   4.407   0.586
 2371TIP3   OH228671   1.612   0.434   8.008
 2371TIP3    H128672   1.599   0.439   7.913
 2371TIP3    H228673   1.675   0.364   8.020
 2372TIP3   OH228674   4.694   0.173   0.474
 2372TIP3    H128675   4.774   0.195   0.522
 2372TIP3    H228676   4.668   0.087   0.508
 2373TIP3   OH228677   6.301   3.239   1.387
 2373TIP3    H128678   6.273   3.331   1.393
 2373TIP3    H228679   6.369   3.240   1.319
 2374TIP3   OH228680   0.692   5.277   7.900
 2374TIP3    H128681   0.749   5.203   7.882
 2374TIP3    H228682   0.749   5.341   7.944
 2375TIP3   OH228683   1.477   5.485   0.399
 2375TIP3    H128684   1.568   5.487   0.428
 2375TIP3    H228685   1.477   5.533   0.316
 2376TIP3   OH228686   0.497   3.592   1.685
 2376TIP3    H128687   0.498   3.678   1.644
 2376TIP3    H228688   0.405   3.564   1.680
 2377TIP3   OH228689   6.719   1.747   2.842
 2377TIP3    H128690   6.664   1.789   2.907
 2377TIP3    H228691   6.712   1.804   2.765
 2378TIP3   OH228692   6.177   3.760   1.229
 2378TIP3    H128693   6.083   3.768   1.212
 2378TIP3    H228694   6.182   3.742   1.323
 2379TIP3   OH228695   6.382   0.902   1.343
 2379TIP3    H128696   6.433   0.832   1.385
 2379TIP3    H228697   6.440   0.937   1.275
 2380TIP3   OH228698   6.417   4.831   0.395
 2380TIP3    H128699   6.473   4.905   0.374
 2380TIP3    H228700   6.373   4.855   0.476
 2381TIP3   OH228701   2.799   0.427   7.731
 2381TIP3    H128702   2.756   0.429   7.645
 2381TIP3    H228703   2.801   0.519   7.759
 2382TIP3   OH228704   0.616   6.480   1.934
 2382TIP3    H128705   0.645   6.409   1.992
 2382TIP3    H228706   0.553   6.529   1.986
 2383TIP3   OH228707   1.420   2.521   6.719
 2383TIP3    H128708   1.332   2.558   6.727
 2383TIP3    H228709   1.452   2.517   6.809
 2384TIP3   OH228710   2.364   3.511   7.134
 2384TIP3    H128711   2.392   3.527   7.225
 2384TIP3    H228712   2.316   3.429   7.138
 2385TIP3   OH228713   6.530   5.843   2.610
 2385TIP3    H128714   6.570   5.926   2.637
 2385TIP3    H228715   6.490   5.863   2.526
 2386TIP3   OH228716   6.464   5.546   8.686
 2386TIP3    H128717   6.473   5.553   8.591
 2386TIP3    H228718   6.446   5.453   8.701
 2387TIP3   OH228719   0.040   0.200   6.691
 2387TIP3    H128720   0.103   0.174   6.759
 2387TIP3    H228721   0.044   0.295   6.689
 2388TIP3   OH228722   5.956   3.250   8.229
 2388TIP3    H128723   6.049   3.229   8.231
 2388TIP3    H228724   5.923   3.206   8.150
 2389TIP3   OH228725   3.726   1.454   0.837
 2389TIP3    H128726   3.802   1.396   0.849
 2389TIP3    H228727   3.655   1.411   0.885
 2390TIP3   OH228728   3.093   1.623   1.537
 2390TIP3    H128729   3.182   1.642   1.567
 2390TIP3    H228730   3.055   1.710   1.520
 2391TIP3   OH228731   6.067   5.595   1.616
 2391TIP3    H128732   6.057   5.554   1.702
 2391TIP3    H228733   6.123   5.534   1.567
 2392TIP3   OH228734   1.581   0.267   7.701
 2392TIP3    H128735   1.556   0.223   7.620
 2392TIP3    H228736   1.666   0.229   7.724
 2393TIP3   OH228737   5.557   3.665   1.683
 2393TIP3    H128738   5.537   3.584   1.728
 2393TIP3    H228739   5.603   3.718   1.748
 2394TIP3   OH228740   1.393   3.457   7.021
 2394TIP3    H128741   1.396   3.494   7.109
 2394TIP3    H228742   1.403   3.363   7.034
 2395TIP3   OH228743   3.284   2.016   8.066
 2395TIP3    H128744   3.224   2.013   7.991
 2395TIP3    H228745   3.360   2.066   8.034
 2396TIP3   OH228746   0.074   2.314   1.101
 2396TIP3    H128747   0.111   2.226   1.092
 2396TIP3    H228748   0.089   2.355   1.016
 2397TIP3   OH228749   6.378   1.552   8.717
 2397TIP3    H128750   6.350   1.608   8.789
 2397TIP3    H228751   6.362   1.463   8.749
 2398TIP3   OH228752   0.843   3.835   6.758
 2398TIP3    H128753   0.842   3.836   6.662
 2398TIP3    H228754   0.825   3.744   6.781
 2399TIP3   OH228755   1.386   6.091   2.209
 2399TIP3    H128756   1.463   6.116   2.259
 2399TIP3    H228757   1.325   6.056   2.274
 2400TIP3   OH228758   3.676   2.893   0.054
 2400TIP3    H128759   3.598   2.865   0.102
 2400TIP3    H228760   3.650   2.975   0.012
 2401TIP3   OH228761   3.306   4.113   2.176
 2401TIP3    H128762   3.357   4.074   2.248
 2401TIP3    H228763   3.358   4.188   2.149
 2402TIP3   OH228764   3.448   5.155   8.714
 2402TIP3    H128765   3.479   5.223   8.773
 2402TIP3    H228766   3.497   5.077   8.739
 2403TIP3   OH228767   6.073   4.376   6.486
 2403TIP3    H128768   6.034   4.288   6.489
 2403TIP3    H228769   6.006   4.430   6.445
 2404TIP3   OH228770   4.722   3.152   8.626
 2404TIP3    H128771   4.741   3.209   8.701
 2404TIP3    H228772   4.641   3.188   8.590
 2405TIP3   OH228773   5.275   4.882   0.561
 2405TIP3    H128774   5.229   4.938   0.623
 2405TIP3    H228775   5.364   4.878   0.594
 2406TIP3   OH228776   5.874   0.004   0.286
 2406TIP3    H128777   5.857   6.767   0.207
 2406TIP3    H228778   5.817   6.781   0.353
 2407TIP3   OH228779   1.937   1.222   7.808
 2407TIP3    H128780   1.907   1.219   7.717
 2407TIP3    H228781   1.935   1.315   7.831
 2408TIP3   OH228782   1.988   3.680   7.177
 2408TIP3    H128783   1.914   3.737   7.159
 2408TIP3    H228784   2.003   3.633   7.094
 2409TIP3   OH228785   1.433   0.536   8.169
 2409TIP3    H128786   1.490   0.480   8.116
 2409TIP3    H228787   1.479   0.620   8.174
 2410TIP3   OH228788   0.732   4.842   1.678
 2410TIP3    H128789   0.699   4.753   1.661
 2410TIP3    H228790   0.665   4.900   1.641
 2411TIP3   OH228791   1.947   1.723   7.464
 2411TIP3    H128792   1.877   1.687   7.410
 2411TIP3    H228793   1.951   1.666   7.541
 2412TIP3   OH228794   5.183   3.570   1.669
 2412TIP3    H128795   5.102   3.621   1.673
 2412TIP3    H228796   5.234   3.611   1.599
 2413TIP3   OH228797   1.969   5.235   1.001
 2413TIP3    H128798   1.961   5.330   1.011
 2413TIP3    H228799   2.043   5.224   0.941
 2414TIP3   OH228800   5.660   2.629   2.064
 2414TIP3    H128801   5.738   2.685   2.072
 2414TIP3    H228802   5.599   2.664   2.129
 2415TIP3   OH228803   3.235   3.896   0.063
 2415TIP3    H128804   3.192   3.926   0.143
 2415TIP3    H228805   3.254   3.977   0.014
 2416TIP3   OH228806   6.762   1.251   1.113
 2416TIP3    H128807   6.808   1.209   1.040
 2416TIP3    H228808   0.002   1.234   1.189
 2417TIP3   OH228809   4.763   4.623   6.693
 2417TIP3    H128810   4.853   4.642   6.722
 2417TIP3    H228811   4.751   4.678   6.616
 2418TIP3   OH228812   1.720   5.414   1.666
 2418TIP3    H128813   1.748   5.351   1.599
 2418TIP3    H228814   1.625   5.402   1.672
 2419TIP3   OH228815   3.448   3.661   0.281
 2419TIP3    H128816   3.487   3.593   0.335
 2419TIP3    H228817   3.400   3.613   0.213
 2420TIP3   OH228818   2.879   0.876   7.604
 2420TIP3    H128819   2.923   0.898   7.521
 2420TIP3    H228820   2.912   0.789   7.626
 2421TIP3   OH228821   1.011   2.944   8.530
 2421TIP3    H128822   1.063   2.947   8.611
 2421TIP3    H228823   1.056   2.881   8.474
 2422TIP3   OH228824   6.413   3.061   7.873
 2422TIP3    H128825   6.416   3.007   7.951
 2422TIP3    H228826   6.338   3.028   7.823
 2423TIP3   OH228827   4.561   3.518   0.217
 2423TIP3    H128828   4.611   3.597   0.196
 2423TIP3    H228829   4.556   3.518   0.313
 2424TIP3   OH228830   6.195   0.020   1.238
 2424TIP3    H128831   6.185   0.102   1.287
 2424TIP3    H228832   6.239   6.775   1.299
 2425TIP3   OH228833   4.123   4.870   0.208
 2425TIP3    H128834   4.108   4.882   0.302
 2425TIP3    H228835   4.052   4.813   0.179
 2426TIP3   OH228836   3.061   0.852   1.411
 2426TIP3    H128837   3.074   0.774   1.466
 2426TIP3    H228838   3.100   0.923   1.461
 2427TIP3   OH228839   4.529   3.727   7.243
 2427TIP3    H128840   4.483   3.658   7.292
 2427TIP3    H228841   4.486   3.728   7.157
 2428TIP3   OH228842   6.418   2.413   0.371
 2428TIP3    H128843   6.496   2.466   0.387
 2428TIP3    H228844   6.354   2.475   0.337
 2429TIP3   OH228845   4.529   2.023   8.198
 2429TIP3    H128846   4.536   1.967   8.121
 2429TIP3    H228847   4.472   2.095   8.170
 2430TIP3   OH228848   4.765   4.101   1.268
 2430TIP3    H128849   4.745   4.115   1.176
 2430TIP3    H228850   4.680   4.109   1.312
 2431TIP3   OH228851   0.655   0.736   1.299
 2431TIP3    H128852   0.747   0.714   1.314
 2431TIP3    H228853   0.627   0.781   1.378
 2432TIP3   OH228854   4.625   2.702   1.908
 2432TIP3    H128855   4.540   2.665   1.929
 2432TIP3    H228856   4.605   2.785   1.865
 2433TIP3   OH228857   1.151   3.202   2.046
 2433TIP3    H128858   1.192   3.116   2.039
 2433TIP3    H228859   1.058   3.183   2.055
 2434TIP3   OH228860   6.469   5.305   1.136
 2434TIP3    H128861   6.482   5.228   1.192
 2434TIP3    H228862   6.424   5.271   1.058
 2435TIP3   OH228863   5.131   4.513   0.519
 2435TIP3    H128864   5.141   4.420   0.540
 2435TIP3    H228865   5.214   4.538   0.478
 2436TIP3   OH228866   4.297   2.193   7.353
 2436TIP3    H128867   4.330   2.192   7.263
 2436TIP3    H228868   4.229   2.126   7.353
 2437TIP3   OH228869   5.653   6.684   0.520
 2437TIP3    H128870   5.585   6.619   0.503
 2437TIP3    H228871   5.621   6.765   0.480
 2438TIP3   OH228872   3.679   3.998   8.155
 2438TIP3    H128873   3.718   3.938   8.092
 2438TIP3    H228874   3.628   3.943   8.214
 2439TIP3   OH228875   0.455   6.532   7.525
 2439TIP3    H128876   0.544   6.528   7.560
 2439TIP3    H228877   0.465   6.576   7.440
 2440TIP3   OH228878   5.038   0.820   6.703
 2440TIP3    H128879   5.105   0.862   6.758
 2440TIP3    H228880   4.992   0.892   6.661
 2441TIP3   OH228881   4.152   1.563   7.683
 2441TIP3    H128882   4.077   1.559   7.742
 2441TIP3    H228883   4.192   1.476   7.688
 2442TIP3   OH228884   0.329   4.513   7.100
 2442TIP3    H128885   0.387   4.511   7.176
 2442TIP3    H228886   0.297   4.423   7.091
 2443TIP3   OH228887   3.347   1.348   2.523
 2443TIP3    H128888   3.343   1.253   2.510
 2443TIP3    H228889   3.272   1.367   2.579
 2444TIP3   OH228890   5.005   2.074   7.304
 2444TIP3    H128891   4.913   2.064   7.330
 2444TIP3    H228892   5.008   2.159   7.261
 2445TIP3   OH228893   4.138   3.923   2.136
 2445TIP3    H128894   4.103   3.982   2.203
 2445TIP3    H228895   4.073   3.925   2.066
 2446TIP3   OH228896   5.603   2.184   7.055
 2446TIP3    H128897   5.556   2.204   6.974
 2446TIP3    H228898   5.562   2.104   7.087
 2447TIP3   OH228899   0.384   0.221   0.814
 2447TIP3    H128900   0.438   0.296   0.786
 2447TIP3    H228901   0.380   0.230   0.909
 2448TIP3   OH228902   0.949   6.332   2.441
 2448TIP3    H128903   0.863   6.297   2.419
 2448TIP3    H228904   0.937   6.373   2.527
 2449TIP3   OH228905   2.183   4.615   8.260
 2449TIP3    H128906   2.116   4.595   8.325
 2449TIP3    H228907   2.218   4.530   8.234
 2450TIP3   OH228908   3.615   2.942   1.694
 2450TIP3    H128909   3.520   2.938   1.705
 2450TIP3    H228910   3.651   2.909   1.776
 2451TIP3   OH228911   2.805   1.427   7.951
 2451TIP3    H128912   2.813   1.471   7.867
 2451TIP3    H228913   2.851   1.484   8.013
 2452TIP3   OH228914   2.377   4.166   8.353
 2452TIP3    H128915   2.427   4.246   8.334
 2452TIP3    H228916   2.423   4.097   8.304
 2453TIP3   OH228917   0.063   6.404   7.104
 2453TIP3    H128918   0.030   6.471   7.045
 2453TIP3    H228919   0.133   6.361   7.055
 2454TIP3   OH228920   2.253   1.486   7.248
 2454TIP3    H128921   2.216   1.398   7.244
 2454TIP3    H228922   2.347   1.473   7.238
 2455TIP3   OH228923   0.796   5.257   7.130
 2455TIP3    H128924   0.839   5.251   7.216
 2455TIP3    H228925   0.703   5.266   7.150
 2456TIP3   OH228926   5.035   5.689   7.939
 2456TIP3    H128927   5.114   5.742   7.928
 2456TIP3    H228928   4.967   5.737   7.891
 2457TIP3   OH228929   1.004   4.721   8.141
 2457TIP3    H128930   1.040   4.645   8.186
 2457TIP3    H228931   1.081   4.772   8.115
 2458TIP3   OH228932   2.142   0.540   7.732
 2458TIP3    H128933   2.118   0.505   7.646
 2458TIP3    H228934   2.096   0.484   7.794
 2459TIP3   OH228935   3.541   3.792   1.430
 2459TIP3    H128936   3.461   3.834   1.398
 2459TIP3    H228937   3.591   3.773   1.351
 2460TIP3   OH228938   1.715   0.783   0.184
 2460TIP3    H128939   1.625   0.788   0.217
 2460TIP3    H228940   1.765   0.747   0.257
 2461TIP3   OH228941   2.436   6.785   6.401
 2461TIP3    H128942   2.387   0.051   6.417
 2461TIP3    H228943   2.501   6.809   6.335
 2462TIP3   OH228944   6.440   4.879   0.915
 2462TIP3    H128945   6.534   4.880   0.897
 2462TIP3    H228946   6.434   4.857   1.008
 2463TIP3   OH228947   0.152   1.313   7.370
 2463TIP3    H128948   0.202   1.367   7.308
 2463TIP3    H228949   0.063   1.347   7.365
 2464TIP3   OH228950   4.983   5.728   1.308
 2464TIP3    H128951   5.059   5.684   1.348
 2464TIP3    H228952   4.984   5.698   1.218
 2465TIP3   OH228953   5.416   1.390   0.437
 2465TIP3    H128954   5.498   1.419   0.396
 2465TIP3    H228955   5.430   1.297   0.456
 2466TIP3   OH228956   5.849   4.269   7.796
 2466TIP3    H128957   5.846   4.183   7.755
 2466TIP3    H228958   5.889   4.325   7.729
 2467TIP3   OH228959   3.578   6.474   1.705
 2467TIP3    H128960   3.518   6.407   1.737
 2467TIP3    H228961   3.659   6.460   1.754
 2468TIP3   OH228962   6.484   1.717   6.858
 2468TIP3    H128963   6.530   1.649   6.808
 2468TIP3    H228964   6.400   1.727   6.814
 2469TIP3   OH228965   6.541   2.629   1.224
 2469TIP3    H128966   6.489   2.555   1.195
 2469TIP3    H228967   6.613   2.590   1.275
 2470TIP3   OH228968   4.608   6.691   8.502
 2470TIP3    H128969   4.638   6.755   8.566
 2470TIP3    H228970   4.687   6.645   8.474
 2471TIP3   OH228971   1.768   5.658   0.739
 2471TIP3    H128972   1.804   5.745   0.753
 2471TIP3    H228973   1.711   5.644   0.815
 2472TIP3   OH228974   6.269   5.485   1.173
 2472TIP3    H128975   6.196   5.441   1.216
 2472TIP3    H228976   6.339   5.420   1.170
 2473TIP3   OH228977   0.171   6.167   1.156
 2473TIP3    H128978   0.154   6.260   1.165
 2473TIP3    H228979   0.090   6.130   1.122
 2474TIP3   OH228980   0.454   5.514   7.836
 2474TIP3    H128981   0.401   5.462   7.775
 2474TIP3    H228982   0.455   5.602   7.798
 2475TIP3   OH228983   3.225   3.400   0.412
 2475TIP3    H128984   3.228   3.314   0.369
 2475TIP3    H228985   3.178   3.456   0.350
 2476TIP3   OH228986   1.269   5.898   0.983
 2476TIP3    H128987   1.313   5.831   1.035
 2476TIP3    H228988   1.220   5.850   0.916
 2477TIP3   OH228989   2.639   0.267   0.001
 2477TIP3    H128990   2.691   0.253   8.713
 2477TIP3    H228991   2.692   0.230   0.071
 2478TIP3   OH228992   6.695   2.528   1.903
 2478TIP3    H128993   6.722   2.476   1.828
 2478TIP3    H228994   6.665   2.464   1.967
 2479TIP3   OH228995   0.875   1.276   7.525
 2479TIP3    H128996   0.909   1.276   7.436
 2479TIP3    H228997   0.951   1.294   7.580
 2480TIP3   OH228998   6.188   4.172   8.768
 2480TIP3    H128999   6.191   4.142   0.068
 2480TIP3    H229000   6.095   4.170   8.746
 2481TIP3   OH229001   5.265   5.578   1.981
 2481TIP3    H129002   5.254   5.619   2.067
 2481TIP3    H229003   5.300   5.491   2.000
 2482TIP3   OH229004   5.627   6.442   7.781
 2482TIP3    H129005   5.652   6.404   7.697
 2482TIP3    H229006   5.634   6.369   7.843
 2483TIP3   OH229007   2.254   2.739   8.072
 2483TIP3    H129008   2.244   2.833   8.084
 2483TIP3    H229009   2.178   2.713   8.020
 2484TIP3   OH229010   5.343   3.746   2.705
 2484TIP3    H129011   5.355   3.653   2.684
 2484TIP3    H229012   5.350   3.749   2.800
 2485TIP3   OH229013   3.389   5.834   8.530
 2485TIP3    H129014   3.438   5.853   8.610
 2485TIP3    H229015   3.348   5.749   8.546
 2486TIP3   OH229016   6.107   4.118   0.731
 2486TIP3    H129017   6.188   4.087   0.692
 2486TIP3    H229018   6.127   4.207   0.760
 2487TIP3   OH229019   1.121   3.295   7.266
 2487TIP3    H129020   1.120   3.357   7.193
 2487TIP3    H229021   1.130   3.350   7.344
 2488TIP3   OH229022   5.959   0.623   1.671
 2488TIP3    H129023   5.883   0.578   1.709
 2488TIP3    H229024   6.012   0.648   1.746
 2489TIP3   OH229025   5.189   0.566   7.975
 2489TIP3    H129026   5.186   0.471   7.985
 2489TIP3    H229027   5.281   0.586   7.959
 2490TIP3   OH229028   5.101   4.426   0.872
 2490TIP3    H129029   5.034   4.391   0.930
 2490TIP3    H229030   5.168   4.357   0.867
 2491TIP3   OH229031   5.122   2.780   8.479
 2491TIP3    H129032   5.050   2.723   8.453
 2491TIP3    H229033   5.103   2.864   8.437
 2492TIP3   OH229034   0.586   1.146   0.442
 2492TIP3    H129035   0.527   1.072   0.451
 2492TIP3    H229036   0.639   1.125   0.365
 2493TIP3   OH229037   2.958   6.753   7.223
 2493TIP3    H129038   2.884   6.694   7.213
 2493TIP3    H229039   2.919   0.023   7.244
 2494TIP3   OH229040   3.179   5.457   7.781
 2494TIP3    H129041   3.092   5.471   7.817
 2494TIP3    H229042   3.223   5.541   7.791
 2495TIP3   OH229043   5.220   3.234   0.722
 2495TIP3    H129044   5.307   3.273   0.735
 2495TIP3    H229045   5.207   3.177   0.798
 2496TIP3   OH229046   2.119   6.352   0.949
 2496TIP3    H129047   2.137   6.391   1.034
 2496TIP3    H229048   2.051   6.407   0.911
 2497TIP3   OH229049   5.964   0.851   1.128
 2497TIP3    H129050   5.922   0.769   1.155
 2497TIP3    H229051   6.041   0.858   1.184
 2498TIP3   OH229052   4.905   4.039   6.400
 2498TIP3    H129053   4.837   4.105   6.413
 2498TIP3    H229054   4.962   4.076   6.333
 2499TIP3   OH229055   0.519   2.096   6.973
 2499TIP3    H129056   0.450   2.088   6.907
 2499TIP3    H229057   0.533   2.191   6.980
 2500TIP3   OH229058   0.803   6.677   1.415
 2500TIP3    H129059   0.818   6.664   1.509
 2500TIP3    H229060   0.721   6.726   1.410
 2501TIP3   OH229061   0.566   6.153   8.159
 2501TIP3    H129062   0.516   6.113   8.088
 2501TIP3    H229063   0.579   6.083   8.223
 2502TIP3   OH229064   2.655   0.206   6.862
 2502TIP3    H129065   2.739   0.211   6.908
 2502TIP3    H229066   2.590   0.231   6.928
 2503TIP3   OH229067   1.306   2.386   7.861
 2503TIP3    H129068   1.237   2.407   7.924
 2503TIP3    H229069   1.269   2.410   7.776
 2504TIP3   OH229070   3.274   0.726   7.636
 2504TIP3    H129071   3.336   0.783   7.681
 2504TIP3    H229072   3.189   0.748   7.674
 2505TIP3   OH229073   3.961   4.138   0.235
 2505TIP3    H129074   4.053   4.133   0.261
 2505TIP3    H229075   3.913   4.143   0.318
 2506TIP3   OH229076   2.493   5.106   0.445
 2506TIP3    H129077   2.471   5.028   0.394
 2506TIP3    H229078   2.409   5.152   0.456
 2507TIP3   OH229079   6.447   6.729   7.750
 2507TIP3    H129080   6.428   6.778   7.831
 2507TIP3    H229081   6.365   6.684   7.730
 2508TIP3   OH229082   2.050   0.397   8.562
 2508TIP3    H129083   1.974   0.340   8.570
 2508TIP3    H229084   2.101   0.381   8.641
 2509TIP3   OH229085   2.485   4.681   7.676
 2509TIP3    H129086   2.556   4.663   7.614
 2509TIP3    H229087   2.457   4.595   7.706
 2510TIP3   OH229088   6.593   3.525   1.125
 2510TIP3    H129089   6.599   3.603   1.070
 2510TIP3    H229090   6.653   3.542   1.198
 2511TIP3   OH229091   3.790   2.501   8.560
 2511TIP3    H129092   3.845   2.558   8.615
 2511TIP3    H229093   3.841   2.486   8.481
 2512TIP3   OH229094   0.891   1.312   1.614
 2512TIP3    H129095   0.874   1.219   1.595
 2512TIP3    H229096   0.883   1.355   1.529
 2513TIP3   OH229097   2.404   6.231   2.020
 2513TIP3    H129098   2.350   6.212   1.942
 2513TIP3    H229099   2.462   6.155   2.027
 2514TIP3   OH229100   0.798   2.092   7.493
 2514TIP3    H129101   0.795   2.019   7.554
 2514TIP3    H229102   0.850   2.060   7.419
 2515TIP3   OH229103   6.298   6.281   0.500
 2515TIP3    H129104   6.364   6.283   0.430
 2515TIP3    H229105   6.215   6.290   0.454
 2516TIP3   OH229106   1.830   3.579   1.616
 2516TIP3    H129107   1.787   3.631   1.549
 2516TIP3    H229108   1.888   3.641   1.661
 2517TIP3   OH229109   6.301   1.546   7.733
 2517TIP3    H129110   6.239   1.552   7.660
 2517TIP3    H229111   6.317   1.636   7.759
 2518TIP3   OH229112   4.029   3.886   6.980
 2518TIP3    H129113   3.979   3.939   6.919
 2518TIP3    H229114   4.120   3.912   6.966
 2519TIP3   OH229115   5.942   0.184   0.936
 2519TIP3    H129116   5.921   0.112   0.996
 2519TIP3    H229117   5.949   0.261   0.992
 2520TIP3   OH229118   2.645   6.111   0.554
 2520TIP3    H129119   2.591   6.185   0.526
 2520TIP3    H229120   2.643   6.114   0.649
 2521TIP3   OH229121   6.055   3.077   1.417
 2521TIP3    H129122   6.128   3.138   1.429
 2521TIP3    H229123   6.037   3.080   1.323
 2522TIP3   OH229124   5.379   4.434   6.942
 2522TIP3    H129125   5.359   4.500   6.875
 2522TIP3    H229126   5.369   4.350   6.896
 2523TIP3   OH229127   1.378   4.365   8.244
 2523TIP3    H129128   1.455   4.342   8.192
 2523TIP3    H229129   1.319   4.408   8.183
 2524TIP3   OH229130   0.595   5.233   2.076
 2524TIP3    H129131   0.585   5.207   1.984
 2524TIP3    H229132   0.511   5.271   2.100
 2525TIP3   OH229133   1.340   0.534   0.387
 2525TIP3    H129134   1.310   0.555   0.299
 2525TIP3    H229135   1.331   0.439   0.393
 2526TIP3   OH229136   1.622   4.012   0.834
 2526TIP3    H129137   1.563   4.086   0.846
 2526TIP3    H229138   1.596   3.950   0.902
 2527TIP3   OH229139   2.534   1.733   7.741
 2527TIP3    H129140   2.590   1.755   7.815
 2527TIP3    H229141   2.497   1.816   7.713
 2528TIP3   OH229142   0.781   1.571   0.556
 2528TIP3    H129143   0.865   1.560   0.512
 2528TIP3    H229144   0.757   1.662   0.542
 2529TIP3   OH229145   3.252   4.307   1.127
 2529TIP3    H129146   3.212   4.222   1.146
 2529TIP3    H229147   3.247   4.315   1.032
 2530TIP3   OH229148   1.688   6.304   7.857
 2530TIP3    H129149   1.670   6.358   7.780
 2530TIP3    H229150   1.781   6.321   7.876
 2531TIP3   OH229151   6.739   2.407   7.964
 2531TIP3    H129152   0.008   2.452   7.952
 2531TIP3    H229153   6.741   2.335   7.901
 2532TIP3   OH229154   0.471   2.866   8.346
 2532TIP3    H129155   0.446   2.955   8.370
 2532TIP3    H229156   0.543   2.844   8.405
 2533TIP3   OH229157   4.058   2.509   8.032
 2533TIP3    H129158   4.051   2.599   7.998
 2533TIP3    H229159   4.107   2.462   7.964
 2534TIP3   OH229160   0.924   0.170   2.342
 2534TIP3    H129161   0.918   0.257   2.302
 2534TIP3    H229162   0.840   0.159   2.387
 2535TIP3   OH229163   1.021   3.156   7.785
 2535TIP3    H129164   1.072   3.119   7.713
 2535TIP3    H229165   1.087   3.183   7.849
 2536TIP3   OH229166   5.071   4.504   8.538
 2536TIP3    H129167   5.005   4.523   8.604
 2536TIP3    H229168   5.029   4.529   8.455
 2537TIP3   OH229169   1.544   2.719   7.582
 2537TIP3    H129170   1.558   2.624   7.588
 2537TIP3    H229171   1.449   2.729   7.582
 2538TIP3   OH229172   5.005   2.912   0.256
 2538TIP3    H129173   4.927   2.966   0.271
 2538TIP3    H229174   4.971   2.823   0.249
 2539TIP3   OH229175   5.992   0.868   1.541
 2539TIP3    H129176   5.900   0.862   1.565
 2539TIP3    H229177   6.022   0.777   1.538
 2540TIP3   OH229178   0.278   0.662   1.666
 2540TIP3    H129179   0.343   0.676   1.597
 2540TIP3    H229180   0.249   0.572   1.653
 2541TIP3   OH229181   0.954   4.837   7.198
 2541TIP3    H129182   1.017   4.900   7.162
 2541TIP3    H229183   0.872   4.886   7.203
 2542TIP3   OH229184   5.674   1.965   0.895
 2542TIP3    H129185   5.713   2.047   0.868
 2542TIP3    H229186   5.618   1.939   0.822
 2543TIP3   OH229187   2.585   1.879   0.984
 2543TIP3    H129188   2.556   1.795   0.950
 2543TIP3    H229189   2.553   1.882   1.074
 2544TIP3   OH229190   2.357   2.025   0.131
 2544TIP3    H129191   2.378   2.103   0.182
 2544TIP3    H229192   2.308   1.969   0.191
 2545TIP3   OH229193   4.610   1.402   2.103
 2545TIP3    H129194   4.544   1.457   2.060
 2545TIP3    H229195   4.636   1.452   2.180
 2546TIP3   OH229196   3.065   6.802   1.032
 2546TIP3    H129197   3.009   0.065   1.042
 2546TIP3    H229198   3.154   0.023   1.025
 2547TIP3   OH229199   2.938   1.136   0.858
 2547TIP3    H129200   2.915   1.221   0.821
 2547TIP3    H229201   2.987   1.091   0.789
 2548TIP3   OH229202   4.777   0.182   2.001
 2548TIP3    H129203   4.778   0.166   2.096
 2548TIP3    H229204   4.853   0.134   1.968
 2549TIP3   OH229205   5.278   0.018   0.204
 2549TIP3    H129206   5.192   0.054   0.225
 2549TIP3    H229207   5.305   0.064   0.125
 2550TIP3   OH229208   4.150   6.381   1.011
 2550TIP3    H129209   4.142   6.306   1.070
 2550TIP3    H229210   4.096   6.358   0.935
 2551TIP3   OH229211   6.669   6.571   7.037
 2551TIP3    H129212   6.608   6.592   6.967
 2551TIP3    H229213   6.618   6.517   7.098
 2552TIP3   OH229214   5.344   6.800   2.515
 2552TIP3    H129215   5.432   0.009   2.542
 2552TIP3    H229216   5.286   0.038   2.571
 2553TIP3   OH229217   0.385   1.382   8.775
 2553TIP3    H129218   0.322   1.330   0.034
 2553TIP3    H229219   0.416   1.448   0.047
 2554TIP3   OH229220   1.994   5.018   8.762
 2554TIP3    H129221   1.941   5.094   8.738
 2554TIP3    H229222   1.943   4.943   8.733
 2555TIP3   OH229223   2.907   3.036   7.311
 2555TIP3    H129224   2.861   3.119   7.319
 2555TIP3    H229225   2.838   2.973   7.287
 2556TIP3   OH229226   0.670   1.367   0.926
 2556TIP3    H129227   0.738   1.431   0.903
 2556TIP3    H229228   0.678   1.299   0.860
 2557TIP3   OH229229   2.719   0.862   0.607
 2557TIP3    H129230   2.706   0.915   0.685
 2557TIP3    H229231   2.675   0.911   0.537
 2558TIP3   OH229232   5.913   1.859   8.233
 2558TIP3    H129233   5.947   1.913   8.162
 2558TIP3    H229234   5.991   1.821   8.274
 2559TIP3   OH229235   2.884   1.141   6.820
 2559TIP3    H129236   2.977   1.159   6.806
 2559TIP3    H229237   2.872   1.051   6.790
 2560TIP3   OH229238   4.437   3.991   1.063
 2560TIP3    H129239   4.347   3.991   1.097
 2560TIP3    H229240   4.468   3.902   1.080
 2561TIP3   OH229241   3.018   3.696   6.705
 2561TIP3    H129242   2.972   3.619   6.674
 2561TIP3    H229243   3.072   3.723   6.631
 2562TIP3   OH229244   5.508   4.659   8.334
 2562TIP3    H129245   5.478   4.568   8.336
 2562TIP3    H229246   5.492   4.692   8.422
 2563TIP3   OH229247   6.118   5.221   0.690
 2563TIP3    H129248   6.128   5.136   0.648
 2563TIP3    H229249   6.084   5.279   0.622
 2564TIP3   OH229250   6.498   3.896   0.338
 2564TIP3    H129251   6.480   3.893   0.432
 2564TIP3    H229252   6.543   3.979   0.326
 2565TIP3   OH229253   1.812   5.680   8.051
 2565TIP3    H129254   1.737   5.739   8.061
 2565TIP3    H229255   1.789   5.602   8.101
 2566TIP3   OH229256   2.502   6.539   7.581
 2566TIP3    H129257   2.500   6.495   7.666
 2566TIP3    H229258   2.542   6.624   7.599
 2567TIP3   OH229259   5.650   5.284   0.170
 2567TIP3    H129260   5.632   5.308   0.261
 2567TIP3    H229261   5.648   5.188   0.170
 2568TIP3   OH229262   2.747   4.450   7.788
 2568TIP3    H129263   2.652   4.440   7.792
 2568TIP3    H229264   2.779   4.412   7.870
 2569TIP3   OH229265   4.165   5.972   1.564
 2569TIP3    H129266   4.191   6.051   1.517
 2569TIP3    H229267   4.152   5.907   1.496
 2570TIP3   OH229268   1.177   1.679   0.151
 2570TIP3    H129269   1.241   1.732   0.200
 2570TIP3    H229270   1.221   1.658   0.069
 2571TIP3   OH229271   4.121   4.392   7.093
 2571TIP3    H129272   4.210   4.388   7.058
 2571TIP3    H229273   4.065   4.396   7.015
 2572TIP3   OH229274   3.035   5.635   7.125
 2572TIP3    H129275   3.072   5.718   7.096
 2572TIP3    H229276   3.093   5.569   7.087
 2573TIP3   OH229277   6.030   6.176   1.844
 2573TIP3    H129278   6.006   6.237   1.913
 2573TIP3    H229279   6.017   6.225   1.762
 2574TIP3   OH229280   2.105   2.612   6.714
 2574TIP3    H129281   2.103   2.528   6.669
 2574TIP3    H229282   2.066   2.674   6.652
 2575TIP3   OH229283   4.310   5.626   8.473
 2575TIP3    H129284   4.273   5.538   8.476
 2575TIP3    H229285   4.332   5.640   8.381
 2576TIP3   OH229286   0.319   6.755   7.669
 2576TIP3    H129287   0.412   6.759   7.691
 2576TIP3    H229288   0.311   6.679   7.612
 2577TIP3   OH229289   5.071   1.775   0.472
 2577TIP3    H129290   5.074   1.769   0.377
 2577TIP3    H229291   5.114   1.858   0.492
 2578TIP3   OH229292   2.714   0.671   0.198
 2578TIP3    H129293   2.804   0.665   0.167
 2578TIP3    H229294   2.720   0.657   0.292
 2579TIP3   OH229295   1.357   0.240   0.985
 2579TIP3    H129296   1.328   0.298   0.914
 2579TIP3    H229297   1.440   0.278   1.015
 2580TIP3   OH229298   4.045   1.863   7.984
 2580TIP3    H129299   4.035   1.827   8.072
 2580TIP3    H229300   4.091   1.946   7.996
 2581TIP3   OH229301   1.232   4.136   0.253
 2581TIP3    H129302   1.146   4.155   0.291
 2581TIP3    H229303   1.234   4.042   0.240
 2582TIP3   OH229304   5.859   5.224   6.990
 2582TIP3    H129305   5.854   5.140   6.945
 2582TIP3    H229306   5.927   5.213   7.056
 2583TIP3   OH229307   4.862   4.840   8.159
 2583TIP3    H129308   4.797   4.771   8.148
 2583TIP3    H229309   4.813   4.912   8.199
 2584TIP3   OH229310   5.770   4.944   7.887
 2584TIP3    H129311   5.675   4.938   7.902
 2584TIP3    H229312   5.788   4.873   7.825
 2585TIP3   OH229313   1.705   3.043   7.171
 2585TIP3    H129314   1.741   3.004   7.091
 2585TIP3    H229315   1.680   2.967   7.224
 2586TIP3   OH229316   1.654   3.020   0.965
 2586TIP3    H129317   1.576   3.021   1.022
 2586TIP3    H229318   1.658   2.929   0.934
 2587TIP3   OH229319   1.210   2.709   0.657
 2587TIP3    H129320   1.131   2.744   0.696
 2587TIP3    H229321   1.227   2.629   0.707
 2588TIP3   OH229322   3.928   5.539   8.098
 2588TIP3    H129323   3.921   5.621   8.147
 2588TIP3    H229324   3.866   5.549   8.026
 2589TIP3   OH229325   1.964   3.113   8.414
 2589TIP3    H129326   1.896   3.069   8.466
 2589TIP3    H229327   2.047   3.083   8.452
 2590TIP3   OH229328   2.830   5.575   8.607
 2590TIP3    H129329   2.833   5.599   8.514
 2590TIP3    H229330   2.744   5.605   8.637
 2591TIP3   OH229331   5.425   2.277   7.698
 2591TIP3    H129332   5.482   2.276   7.775
 2591TIP3    H229333   5.457   2.205   7.644
 2592TIP3   OH229334   1.193   6.740   0.589
 2592TIP3    H129335   1.225   6.669   0.645
 2592TIP3    H229336   1.240   6.728   0.507
 2593TIP3   OH229337   5.183   3.441   6.423
 2593TIP3    H129338   5.100   3.430   6.468
 2593TIP3    H229339   5.169   3.406   6.336
 2594TIP3   OH229340   6.272   2.227   1.489
 2594TIP3    H129341   6.306   2.142   1.519
 2594TIP3    H229342   6.350   2.275   1.461
 2595TIP3   OH229343   0.216   4.423   2.265
 2595TIP3    H129344   0.304   4.388   2.250
 2595TIP3    H229345   0.218   4.512   2.228
 2596TIP3   OH229346   6.115   2.647   8.094
 2596TIP3    H129347   6.054   2.583   8.131
 2596TIP3    H229348   6.197   2.632   8.141
 2597TIP3   OH229349   0.804   2.148   1.195
 2597TIP3    H129350   0.861   2.216   1.159
 2597TIP3    H229351   0.834   2.067   1.154
 2598TIP3   OH229352   3.259   2.261   0.133
 2598TIP3    H129353   3.256   2.165   0.127
 2598TIP3    H229354   3.249   2.291   0.043
 2599TIP3   OH229355   3.804   0.972   1.765
 2599TIP3    H129356   3.721   0.976   1.718
 2599TIP3    H229357   3.830   1.064   1.775
 2600TIP3   OH229358   4.047   5.855   0.782
 2600TIP3    H129359   3.966   5.900   0.809
 2600TIP3    H229360   4.105   5.926   0.754
 2601TIP3   OH229361   0.044   1.463   0.263
 2601TIP3    H129362   0.007   1.549   0.285
 2601TIP3    H229363   0.120   1.483   0.209
 2602TIP3   OH229364   2.358   1.888   7.088
 2602TIP3    H129365   2.414   1.868   7.163
 2602TIP3    H229366   2.358   1.808   7.036
 2603TIP3   OH229367   1.626   0.163   1.501
 2603TIP3    H129368   1.717   0.189   1.510
 2603TIP3    H229369   1.579   0.246   1.488
 2604TIP3   OH229370   5.900   2.724   0.365
 2604TIP3    H129371   5.879   2.815   0.386
 2604TIP3    H229372   5.995   2.720   0.368
 2605TIP3   OH229373   5.214   4.540   7.818
 2605TIP3    H129374   5.282   4.481   7.850
 2605TIP3    H229375   5.198   4.601   7.890
 2606TIP3   OH229376   5.338   5.811   0.267
 2606TIP3    H129377   5.379   5.826   0.182
 2606TIP3    H229378   5.245   5.799   0.248
 2607TIP3   OH229379   4.555   2.044   1.662
 2607TIP3    H129380   4.576   1.958   1.626
 2607TIP3    H229381   4.517   2.092   1.588
 2608TIP3   OH229382   4.560   3.057   1.383
 2608TIP3    H129383   4.508   3.096   1.313
 2608TIP3    H229384   4.558   3.122   1.453
 2609TIP3   OH229385   3.825   3.895   2.044
 2609TIP3    H129386   3.741   3.906   1.999
 2609TIP3    H229387   3.890   3.929   1.983
 2610TIP3   OH229388   5.161   0.160   8.669
 2610TIP3    H129389   5.145   0.071   8.700
 2610TIP3    H229390   5.143   0.215   8.745
 2611TIP3   OH229391   1.590   0.728   8.602
 2611TIP3    H129392   1.600   0.786   8.526
 2611TIP3    H229393   1.664   0.668   8.595
 2612TIP3   OH229394   3.670   3.799   0.877
 2612TIP3    H129395   3.758   3.777   0.846
 2612TIP3    H229396   3.614   3.788   0.800
 2613TIP3   OH229397   0.757   5.226   7.582
 2613TIP3    H129398   0.807   5.168   7.639
 2613TIP3    H229399   0.799   5.217   7.496
 2614TIP3   OH229400   2.267   3.129   2.411
 2614TIP3    H129401   2.234   3.041   2.429
 2614TIP3    H229402   2.362   3.121   2.422
 2615TIP3   OH229403   2.391   0.502   7.609
 2615TIP3    H129404   2.308   0.521   7.653
 2615TIP3    H229405   2.370   0.433   7.546
 2616TIP3   OH229406   3.462   1.797   0.627
 2616TIP3    H129407   3.453   1.877   0.575
 2616TIP3    H229408   3.548   1.763   0.604
 2617TIP3   OH229409   3.249   6.384   7.314
 2617TIP3    H129410   3.330   6.370   7.362
 2617TIP3    H229411   3.202   6.301   7.322
 2618TIP3   OH229412   4.320   0.458   2.513
 2618TIP3    H129413   4.265   0.391   2.474
 2618TIP3    H229414   4.263   0.534   2.523
 2619TIP3   OH229415   4.577   5.572   8.211
 2619TIP3    H129416   4.502   5.526   8.173
 2619TIP3    H229417   4.610   5.627   8.140
 2620TIP3   OH229418   5.158   3.761   0.198
 2620TIP3    H129419   5.245   3.726   0.216
 2620TIP3    H229420   5.174   3.842   0.148
 2621TIP3   OH229421   4.661   2.711   0.333
 2621TIP3    H129422   4.653   2.803   0.358
 2621TIP3    H229423   4.753   2.700   0.310
 2622TIP3   OH229424   1.931   5.123   1.246
 2622TIP3    H129425   2.010   5.144   1.295
 2622TIP3    H229426   1.948   5.156   1.158
 2623TIP3   OH229427   2.142   2.054   1.114
 2623TIP3    H129428   2.084   2.128   1.091
 2623TIP3    H229429   2.113   2.027   1.201
 2624TIP3   OH229430   0.303   1.447   0.527
 2624TIP3    H129431   0.303   1.503   0.449
 2624TIP3    H229432   0.393   1.450   0.558
 2625TIP3   OH229433   3.822   6.514   2.321
 2625TIP3    H129434   3.900   6.524   2.376
 2625TIP3    H229435   3.750   6.500   2.383
 2626TIP3   OH229436   0.479   1.114   7.182
 2626TIP3    H129437   0.534   1.134   7.258
 2626TIP3    H229438   0.496   1.185   7.120
 2627TIP3   OH229439   3.207   0.993   2.696
 2627TIP3    H129440   3.286   1.001   2.749
 2627TIP3    H229441   3.237   1.008   2.606
 2628TIP3   OH229442   0.750   1.184   2.050
 2628TIP3    H129443   0.781   1.191   2.140
 2628TIP3    H229444   0.799   1.111   2.013
 2629TIP3   OH229445   3.732   5.724   8.196
 2629TIP3    H129446   3.693   5.804   8.161
 2629TIP3    H229447   3.784   5.754   8.270
 2630TIP3   OH229448   2.684   5.915   7.736
 2630TIP3    H129449   2.592   5.936   7.720
 2630TIP3    H229450   2.704   5.959   7.819
 2631TIP3   OH229451   2.102   5.353   1.841
 2631TIP3    H129452   2.097   5.390   1.753
 2631TIP3    H229453   2.196   5.351   1.860
 2632TIP3   OH229454   0.775   1.006   6.304
 2632TIP3    H129455   0.847   1.069   6.315
 2632TIP3    H229456   0.819   0.923   6.287
 2633TIP3   OH229457   4.966   0.806   1.282
 2633TIP3    H129458   4.941   0.831   1.193
 2633TIP3    H229459   4.892   0.834   1.336
 2634TIP3   OH229460   3.188   0.057   1.990
 2634TIP3    H129461   3.106   0.066   1.942
 2634TIP3    H229462   3.168   6.806   2.058
 2635TIP3   OH229463   4.791   0.632   7.513
 2635TIP3    H129464   4.792   0.724   7.489
 2635TIP3    H229465   4.700   0.605   7.499
 2636TIP3   OH229466   5.524   6.391   2.555
 2636TIP3    H129467   5.495   6.391   2.463
 2636TIP3    H229468   5.555   6.480   2.570
 2637TIP3   OH229469   6.767   5.367   7.728
 2637TIP3    H129470   6.814   5.391   7.649
 2637TIP3    H229471   6.692   5.316   7.697
 2638TIP3   OH229472   2.950   4.817   0.063
 2638TIP3    H129473   3.014   4.750   0.083
 2638TIP3    H229474   2.982   4.896   0.107
 2639TIP3   OH229475   4.635   5.739   0.535
 2639TIP3    H129476   4.725   5.733   0.503
 2639TIP3    H229477   4.634   5.818   0.590
 2640TIP3   OH229478   4.171   3.112   0.653
 2640TIP3    H129479   4.214   3.027   0.645
 2640TIP3    H229480   4.099   3.108   0.590
 2641TIP3   OH229481   1.589   2.392   8.570
 2641TIP3    H129482   1.529   2.460   8.540
 2641TIP3    H229483   1.637   2.367   8.491
 2642TIP3   OH229484   4.376   1.416   0.278
 2642TIP3    H129485   4.303   1.443   0.223
 2642TIP3    H229486   4.425   1.497   0.295
 2643TIP3   OH229487   2.866   3.203   1.573
 2643TIP3    H129488   2.959   3.186   1.558
 2643TIP3    H229489   2.864   3.288   1.618
 2644TIP3   OH229490   3.413   0.087   0.004
 2644TIP3    H129491   3.456   0.056   0.084
 2644TIP3    H229492   3.381   0.008   8.752
 2645TIP3   OH229493   1.785   4.476   6.540
 2645TIP3    H129494   1.828   4.390   6.541
 2645TIP3    H229495   1.850   4.535   6.577
 2646TIP3   OH229496   6.642   1.048   7.189
 2646TIP3    H129497   6.571   0.989   7.214
 2646TIP3    H229498   6.620   1.132   7.230
 2647TIP3   OH229499   0.186   1.201   0.900
 2647TIP3    H129500   0.220   1.114   0.921
 2647TIP3    H229501   0.250   1.261   0.936
 2648TIP3   OH229502   2.187   3.379   7.587
 2648TIP3    H129503   2.157   3.466   7.559
 2648TIP3    H229504   2.186   3.326   7.508
 2649TIP3   OH229505   3.474   3.980   7.933
 2649TIP3    H129506   3.529   4.011   8.005
 2649TIP3    H229507   3.510   4.024   7.856
 2650TIP3   OH229508   6.190   6.445   1.922
 2650TIP3    H129509   6.234   6.378   1.870
 2650TIP3    H229510   6.255   6.515   1.931
 2651TIP3   OH229511   0.446   6.098   1.214
 2651TIP3    H129512   0.459   6.183   1.173
 2651TIP3    H229513   0.352   6.091   1.227
 2652TIP3   OH229514   5.614   3.097   1.703
 2652TIP3    H129515   5.624   3.072   1.795
 2652TIP3    H229516   5.704   3.113   1.673
 2653TIP3   OH229517   3.791   6.788   6.849
 2653TIP3    H129518   3.853   6.786   6.776
 2653TIP3    H229519   3.818   6.714   6.905
 2654TIP3   OH229520   3.104   3.536   8.350
 2654TIP3    H129521   3.094   3.630   8.339
 2654TIP3    H229522   3.075   3.519   8.440
 2655TIP3   OH229523   0.206   0.566   2.058
 2655TIP3    H129524   0.162   0.623   2.122
 2655TIP3    H229525   0.156   0.484   2.062
 2656TIP3   OH229526   5.580   6.123   2.264
 2656TIP3    H129527   5.517   6.051   2.264
 2656TIP3    H229528   5.639   6.104   2.337
 2657TIP3   OH229529   5.696   5.602   7.382
 2657TIP3    H129530   5.763   5.590   7.315
 2657TIP3    H229531   5.647   5.520   7.382
 2658TIP3   OH229532   4.000   1.356   0.383
 2658TIP3    H129533   4.056   1.296   0.333
 2658TIP3    H229534   3.993   1.434   0.328
 2659TIP3   OH229535   4.450   3.141   8.706
 2659TIP3    H129536   4.393   3.155   8.630
 2659TIP3    H229537   4.481   3.051   8.696
 2660TIP3   OH229538   3.677   3.717   8.774
 2660TIP3    H129539   3.644   3.770   0.056
 2660TIP3    H229540   3.771   3.708   0.000
 2661TIP3   OH229541   3.951   6.281   6.466
 2661TIP3    H129542   3.946   6.199   6.514
 2661TIP3    H229543   3.865   6.291   6.426
 2662TIP3   OH229544   0.774   1.759   7.133
 2662TIP3    H129545   0.716   1.727   7.202
 2662TIP3    H229546   0.850   1.701   7.137
 2663TIP3   OH229547   5.894   0.839   0.007
 2663TIP3    H129548   5.949   0.883   0.072
 2663TIP3    H229549   5.806   0.875   0.023
 2664TIP3   OH229550   4.789   6.420   0.643
 2664TIP3    H129551   4.874   6.446   0.679
 2664TIP3    H229552   4.804   6.334   0.606
 2665TIP3   OH229553   6.588   4.350   1.312
 2665TIP3    H129554   6.501   4.314   1.328
 2665TIP3    H229555   6.612   4.318   1.225
 2666TIP3   OH229556   1.294   6.402   8.630
 2666TIP3    H129557   1.383   6.366   8.633
 2666TIP3    H229558   1.280   6.439   8.717
 2667TIP3   OH229559   3.789   2.490   2.605
 2667TIP3    H129560   3.803   2.413   2.660
 2667TIP3    H229561   3.853   2.554   2.637
 2668TIP3   OH229562   3.104   3.809   8.352
 2668TIP3    H129563   3.083   3.799   8.445
 2668TIP3    H229564   3.094   3.903   8.336
 2669TIP3   OH229565   1.688   3.124   7.862
 2669TIP3    H129566   1.715   3.061   7.929
 2669TIP3    H229567   1.744   3.200   7.877
 2670TIP3   OH229568   2.274   2.056   1.387
 2670TIP3    H129569   2.219   2.133   1.401
 2670TIP3    H229570   2.244   1.992   1.451
 2671TIP3   OH229571   3.955   5.161   1.164
 2671TIP3    H129572   3.934   5.077   1.123
 2671TIP3    H229573   3.892   5.223   1.127
 2672TIP3   OH229574   5.335   1.237   1.217
 2672TIP3    H129575   5.427   1.219   1.198
 2672TIP3    H229576   5.318   1.322   1.176
 2673TIP3   OH229577   4.777   0.146   7.746
 2673TIP3    H129578   4.820   0.115   7.666
 2673TIP3    H229579   4.764   0.067   7.799
 2674TIP3   OH229580   4.601   4.718   1.645
 2674TIP3    H129581   4.523   4.771   1.658
 2674TIP3    H229582   4.571   4.646   1.589
 2675TIP3   OH229583   2.007   0.561   8.133
 2675TIP3    H129584   2.015   0.467   8.117
 2675TIP3    H229585   2.093   0.588   8.166
 2676TIP3   OH229586   5.242   1.729   0.719
 2676TIP3    H129587   5.155   1.770   0.721
 2676TIP3    H229588   5.225   1.638   0.698
 2677TIP3   OH229589   0.378   1.342   1.034
 2677TIP3    H129590   0.359   1.435   1.049
 2677TIP3    H229591   0.472   1.339   1.016
 2678TIP3   OH229592   4.962   0.021   2.511
 2678TIP3    H129593   4.878   6.790   2.514
 2678TIP3    H229594   4.989   0.016   2.420
 2679TIP3   OH229595   3.823   4.969   8.135
 2679TIP3    H129596   3.781   4.956   8.050
 2679TIP3    H229597   3.850   5.061   8.134
 2680TIP3   OH229598   2.469   4.314   1.405
 2680TIP3    H129599   2.514   4.390   1.366
 2680TIP3    H229600   2.379   4.322   1.374
 2681TIP3   OH229601   2.998   5.395   7.538
 2681TIP3    H129602   3.094   5.400   7.545
 2681TIP3    H229603   2.968   5.482   7.561
 2682TIP3   OH229604   6.073   5.985   8.405
 2682TIP3    H129605   6.069   6.040   8.483
 2682TIP3    H229606   6.160   6.001   8.368
 2683TIP3   OH229607   6.785   1.726   8.728
 2683TIP3    H129608   0.006   1.772   0.013
 2683TIP3    H229609   6.743   1.649   8.765
 2684TIP3   OH229610   6.355   1.259   8.448
 2684TIP3    H129611   6.418   1.331   8.448
 2684TIP3    H229612   6.387   1.198   8.381
 2685TIP3   OH229613   6.648   1.600   7.622
 2685TIP3    H129614   6.579   1.640   7.570
 2685TIP3    H229615   6.610   1.519   7.654
 2686TIP3   OH229616   4.917   3.726   2.268
 2686TIP3    H129617   4.961   3.707   2.185
 2686TIP3    H229618   4.893   3.640   2.302
 2687TIP3   OH229619   5.647   6.535   7.480
 2687TIP3    H129620   5.558   6.552   7.448
 2687TIP3    H229621   5.653   6.439   7.482
 2688TIP3   OH229622   2.156   6.666   8.028
 2688TIP3    H129623   2.164   6.667   8.123
 2688TIP3    H229624   2.062   6.662   8.012
 2689TIP3   OH229625   3.730   4.942   8.395
 2689TIP3    H129626   3.661   4.882   8.366
 2689TIP3    H229627   3.780   4.962   8.315
 2690TIP3   OH229628   5.181   5.852   1.590
 2690TIP3    H129629   5.188   5.916   1.660
 2690TIP3    H229630   5.168   5.904   1.511
 2691TIP3   OH229631   5.415   2.662   8.264
 2691TIP3    H129632   5.485   2.707   8.216
 2691TIP3    H229633   5.368   2.613   8.197
 2692TIP3   OH229634   4.144   0.052   1.462
 2692TIP3    H129635   4.218   6.811   1.439
 2692TIP3    H229636   4.154   0.068   1.555
 2693TIP3   OH229637   0.975   4.050   7.915
 2693TIP3    H129638   1.059   4.094   7.909
 2693TIP3    H229639   0.936   4.084   7.996
 2694TIP3   OH229640   2.280   2.484   8.548
 2694TIP3    H129641   2.253   2.551   8.612
 2694TIP3    H229642   2.374   2.473   8.563
 2695TIP3   OH229643   0.421   2.612   7.573
 2695TIP3    H129644   0.361   2.684   7.592
 2695TIP3    H229645   0.424   2.608   7.477
 2696TIP3   OH229646   3.101   2.841   8.580
 2696TIP3    H129647   3.032   2.903   8.559
 2696TIP3    H229648   3.058   2.755   8.577
 2697TIP3   OH229649   2.183   3.574   1.806
 2697TIP3    H129650   2.268   3.574   1.851
 2697TIP3    H229651   2.205   3.564   1.714
 2698TIP3   OH229652   4.565   2.247   7.173
 2698TIP3    H129653   4.560   2.167   7.121
 2698TIP3    H229654   4.588   2.315   7.110
 2699TIP3   OH229655   3.946   1.626   7.855
 2699TIP3    H129656   3.851   1.638   7.860
 2699TIP3    H229657   3.983   1.711   7.879
 2700TIP3   OH229658   1.489   0.394   1.373
 2700TIP3    H129659   1.474   0.455   1.301
 2700TIP3    H229660   1.412   0.404   1.430
 2701TIP3   OH229661   1.801   0.649   6.874
 2701TIP3    H129662   1.831   0.697   6.952
 2701TIP3    H229663   1.871   0.661   6.810
 2702TIP3   OH229664   4.075   1.105   6.802
 2702TIP3    H129665   4.013   1.151   6.858
 2702TIP3    H229666   4.157   1.155   6.811
 2703TIP3   OH229667   0.633   0.982   6.538
 2703TIP3    H129668   0.677   0.897   6.540
 2703TIP3    H229669   0.651   1.017   6.451
 2704TIP3   OH229670   4.523   5.017   0.200
 2704TIP3    H129671   4.454   5.051   0.144
 2704TIP3    H229672   4.522   5.074   0.277
 2705TIP3   OH229673   2.207   5.034   1.332
 2705TIP3    H129674   2.281   5.042   1.392
 2705TIP3    H229675   2.248   5.025   1.246
 2706TIP3   OH229676   2.060   3.990   7.533
 2706TIP3    H129677   2.054   4.000   7.438
 2706TIP3    H229678   2.127   3.922   7.546
 2707TIP3   OH229679   3.767   4.555   6.393
 2707TIP3    H129680   3.754   4.650   6.391
 2707TIP3    H229681   3.832   4.538   6.325
 2708TIP3   OH229682   2.442   0.510   1.032
 2708TIP3    H129683   2.397   0.504   0.948
 2708TIP3    H229684   2.467   0.602   1.040
 2709TIP3   OH229685   4.141   0.818   1.058
 2709TIP3    H129686   4.129   0.724   1.072
 2709TIP3    H229687   4.062   0.858   1.092
 2710TIP3   OH229688   5.407   3.420   0.504
 2710TIP3    H129689   5.353   3.360   0.452
 2710TIP3    H229690   5.435   3.487   0.442
 2711TIP3   OH229691   4.673   3.039   8.265
 2711TIP3    H129692   4.734   2.972   8.294
 2711TIP3    H229693   4.708   3.069   8.181
 2712TIP3   OH229694   6.549   4.571   8.220
 2712TIP3    H129695   6.540   4.610   8.307
 2712TIP3    H229696   6.597   4.635   8.169
 2713TIP3   OH229697   5.425   2.101   0.937
 2713TIP3    H129698   5.413   2.161   1.011
 2713TIP3    H229699   5.506   2.054   0.957
 2714TIP3   OH229700   2.272   6.315   6.478
 2714TIP3    H129701   2.283   6.382   6.411
 2714TIP3    H229702   2.354   6.317   6.528
 2715TIP3   OH229703   2.355   6.753   0.202
 2715TIP3    H129704   2.338   0.001   0.132
 2715TIP3    H229705   2.413   6.687   0.163
 2716TIP3   OH229706   1.043   6.574   8.651
 2716TIP3    H129707   1.093   6.493   8.663
 2716TIP3    H229708   0.975   6.571   8.719
 2717TIP3   OH229709   4.286   3.662   1.882
 2717TIP3    H129710   4.218   3.619   1.934
 2717TIP3    H229711   4.319   3.732   1.937
 2718TIP3   OH229712   3.655   2.372   7.868
 2718TIP3    H129713   3.604   2.427   7.809
 2718TIP3    H229714   3.638   2.407   7.955
 2719TIP3   OH229715   5.519   5.576   8.682
 2719TIP3    H129716   5.461   5.644   8.716
 2719TIP3    H229717   5.524   5.592   8.588
 2720TIP3   OH229718   5.561   0.780   2.793
 2720TIP3    H129719   5.468   0.782   2.772
 2720TIP3    H229720   5.569   0.713   2.860
 2721TIP3   OH229721   1.659   2.367   0.089
 2721TIP3    H129722   1.672   2.312   0.012
 2721TIP3    H229723   1.600   2.436   0.060
 2722TIP3   OH229724   4.719   1.365   7.736
 2722TIP3    H129725   4.667   1.322   7.804
 2722TIP3    H229726   4.695   1.458   7.743
 2723TIP3   OH229727   1.297   6.645   7.469
 2723TIP3    H129728   1.261   6.667   7.383
 2723TIP3    H229729   1.306   6.550   7.468
 2724TIP3   OH229730   4.183   1.285   2.208
 2724TIP3    H129731   4.245   1.340   2.256
 2724TIP3    H229732   4.100   1.333   2.212
 2725TIP3   OH229733   3.585   3.091   8.046
 2725TIP3    H129734   3.496   3.070   8.073
 2725TIP3    H229735   3.591   3.186   8.054
 2726TIP3   OH229736   1.041   3.036   0.407
 2726TIP3    H129737   0.982   3.111   0.399
 2726TIP3    H229738   1.034   2.991   0.323
 2727TIP3   OH229739   4.605   3.774   7.873
 2727TIP3    H129740   4.683   3.817   7.907
 2727TIP3    H229741   4.533   3.833   7.898
 2728TIP3   OH229742   3.478   6.593   6.367
 2728TIP3    H129743   3.385   6.614   6.359
 2728TIP3    H229744   3.480   6.503   6.400
 2729TIP3   OH229745   4.424   6.353   2.315
 2729TIP3    H129746   4.374   6.328   2.392
 2729TIP3    H229747   4.493   6.287   2.308
 2730TIP3   OH229748   2.924   3.583   7.270
 2730TIP3    H129749   2.880   3.600   7.187
 2730TIP3    H229750   3.016   3.569   7.245
 2731TIP3   OH229751   4.799   1.410   8.410
 2731TIP3    H129752   4.821   1.443   8.497
 2731TIP3    H229753   4.705   1.428   8.401
 2732TIP3   OH229754   0.154   1.423   7.831
 2732TIP3    H129755   0.137   1.495   7.770
 2732TIP3    H229756   0.209   1.362   7.781
 2733TIP3   OH229757   5.166   4.067   8.483
 2733TIP3    H129758   5.080   4.103   8.458
 2733TIP3    H229759   5.224   4.143   8.483
 2734TIP3   OH229760   4.056   3.287   8.572
 2734TIP3    H129761   4.140   3.253   8.542
 2734TIP3    H229762   4.036   3.359   8.511
 2735TIP3   OH229763   4.417   2.639   8.236
 2735TIP3    H129764   4.509   2.660   8.219
 2735TIP3    H229765   4.407   2.648   8.331
 2736TIP3   OH229766   1.069   6.051   0.046
 2736TIP3    H129767   1.002   6.114   0.074
 2736TIP3    H229768   1.027   5.966   0.058
 2737TIP3   OH229769   5.111   6.665   1.609
 2737TIP3    H129770   5.109   6.579   1.567
 2737TIP3    H229771   5.140   6.647   1.698
 2738TIP3   OH229772   0.460   3.372   7.453
 2738TIP3    H129773   0.519   3.338   7.385
 2738TIP3    H229774   0.518   3.412   7.518
 2739TIP3   OH229775   6.362   0.810   7.806
 2739TIP3    H129776   6.295   0.856   7.755
 2739TIP3    H229777   6.411   0.759   7.742
 2740TIP3   OH229778   4.689   4.575   0.845
 2740TIP3    H129779   4.606   4.553   0.887
 2740TIP3    H229780   4.727   4.490   0.820
 2741TIP3   OH229781   2.290   3.905   7.960
 2741TIP3    H129782   2.365   3.949   8.000
 2741TIP3    H229783   2.214   3.948   7.999
 2742TIP3   OH229784   5.552   4.078   0.191
 2742TIP3    H129785   5.596   4.062   0.107
 2742TIP3    H229786   5.619   4.119   0.246
 2743TIP3   OH229787   1.260   5.442   0.582
 2743TIP3    H129788   1.221   5.508   0.526
 2743TIP3    H229789   1.347   5.427   0.544
 2744TIP3   OH229790   4.111   1.725   2.492
 2744TIP3    H129791   4.106   1.629   2.489
 2744TIP3    H229792   4.055   1.754   2.420
 2745TIP3   OH229793   2.402   3.552   7.401
 2745TIP3    H129794   2.308   3.572   7.402
 2745TIP3    H229795   2.417   3.502   7.481
 2746TIP3   OH229796   1.338   1.942   6.826
 2746TIP3    H129797   1.347   2.036   6.840
 2746TIP3    H229798   1.366   1.903   6.909
 2747TIP3   OH229799   6.702   4.926   1.634
 2747TIP3    H129800   6.710   5.020   1.621
 2747TIP3    H229801   6.691   4.916   1.728
 2748TIP3   OH229802   6.592   6.238   0.307
 2748TIP3    H129803   6.673   6.213   0.262
 2748TIP3    H229804   6.607   6.216   0.398
 2749TIP3   OH229805   0.887   5.061   1.561
 2749TIP3    H129806   0.924   5.012   1.635
 2749TIP3    H229807   0.866   5.147   1.597
 2750TIP3   OH229808   3.061   4.598   8.124
 2750TIP3    H129809   3.135   4.581   8.067
 2750TIP3    H229810   3.100   4.615   8.210
 2751TIP3   OH229811   1.184   5.443   8.100
 2751TIP3    H129812   1.257   5.490   8.059
 2751TIP3    H229813   1.225   5.366   8.139
 2752TIP3   OH229814   3.199   0.248   8.755
 2752TIP3    H129815   3.123   0.204   8.717
 2752TIP3    H229816   3.258   0.176   8.778
 2753TIP3   OH229817   6.604   1.602   6.505
 2753TIP3    H129818   6.674   1.614   6.569
 2753TIP3    H229819   6.649   1.581   6.424
 2754TIP3   OH229820   6.014   0.058   2.778
 2754TIP3    H129821   6.034   0.148   2.802
 2754TIP3    H229822   6.045   0.049   2.688
 2755TIP3   OH229823   3.381   5.270   8.021
 2755TIP3    H129824   3.419   5.183   8.010
 2755TIP3    H229825   3.298   5.266   7.972
 2756TIP3   OH229826   6.102   4.551   2.512
 2756TIP3    H129827   6.186   4.514   2.485
 2756TIP3    H229828   6.055   4.478   2.553
 2757TIP3   OH229829   2.485   4.508   8.767
 2757TIP3    H129830   2.530   4.424   8.755
 2757TIP3    H229831   2.415   4.488   0.038
 2758TIP3   OH229832   5.142   1.515   1.185
 2758TIP3    H129833   5.110   1.499   1.273
 2758TIP3    H229834   5.237   1.506   1.191
 2759TIP3   OH229835   0.314   6.263   8.228
 2759TIP3    H129836   0.409   6.248   8.225
 2759TIP3    H229837   0.298   6.327   8.159
 2760TIP3   OH229838   0.831   4.818   7.642
 2760TIP3    H129839   0.763   4.875   7.608
 2760TIP3    H229840   0.791   4.775   7.718
 2761TIP3   OH229841   1.576   0.496   0.489
 2761TIP3    H129842   1.622   0.474   0.408
 2761TIP3    H229843   1.492   0.531   0.460
 2762TIP3   OH229844   5.261   5.756   8.186
 2762TIP3    H129845   5.200   5.684   8.170
 2762TIP3    H229846   5.211   5.818   8.239
 2763TIP3   OH229847   3.839   3.045   6.462
 2763TIP3    H129848   3.835   3.137   6.489
 2763TIP3    H229849   3.796   2.997   6.533
 2764TIP3   OH229850   5.045   1.337   8.653
 2764TIP3    H129851   4.970   1.395   8.653
 2764TIP3    H229852   5.114   1.387   8.696
 2765TIP3   OH229853   1.152   3.745   8.242
 2765TIP3    H129854   1.192   3.695   8.313
 2765TIP3    H229855   1.066   3.771   8.275
 2766TIP3   OH229856   6.657   0.569   1.121
 2766TIP3    H129857   6.630   0.477   1.114
 2766TIP3    H229858   6.751   0.565   1.139
 2767TIP3   OH229859   6.421   0.087   2.167
 2767TIP3    H129860   6.387   0.130   2.089
 2767TIP3    H229861   6.379   0.133   2.240
 2768TIP3   OH229862   3.347   3.587   6.728
 2768TIP3    H129863   3.281   3.518   6.728
 2768TIP3    H229864   3.343   3.623   6.639
 2769TIP3   OH229865   2.983   0.830   0.489
 2769TIP3    H129866   2.981   0.736   0.468
 2769TIP3    H229867   2.898   0.847   0.528
 2770TIP3   OH229868   5.006   3.920   1.907
 2770TIP3    H129869   5.058   3.868   1.968
 2770TIP3    H229870   4.990   4.003   1.953
 2771TIP3   OH229871   2.353   3.157   6.461
 2771TIP3    H129872   2.374   3.251   6.461
 2771TIP3    H229873   2.437   3.114   6.477
 2772TIP3   OH229874   1.700   3.156   1.837
 2772TIP3    H129875   1.755   3.218   1.884
 2772TIP3    H229876   1.613   3.166   1.876
 2773TIP3   OH229877   0.571   4.235   1.001
 2773TIP3    H129878   0.480   4.262   1.017
 2773TIP3    H229879   0.568   4.186   0.919
 2774TIP3   OH229880   6.721   3.490   8.185
 2774TIP3    H129881   6.756   3.418   8.131
 2774TIP3    H229882   6.734   3.460   8.275
 2775TIP3   OH229883   4.672   5.811   6.750
 2775TIP3    H129884   4.720   5.787   6.671
 2775TIP3    H229885   4.670   5.907   6.749
 2776TIP3   OH229886   4.137   2.055   8.204
 2776TIP3    H129887   4.205   2.117   8.176
 2776TIP3    H229888   4.186   1.987   8.252
 2777TIP3   OH229889   3.254   3.266   7.646
 2777TIP3    H129890   3.177   3.232   7.599
 2777TIP3    H229891   3.261   3.357   7.619
 2778TIP3   OH229892   0.553   4.199   7.427
 2778TIP3    H129893   0.606   4.276   7.405
 2778TIP3    H229894   0.541   4.153   7.344
 2779TIP3   OH229895   1.356   6.361   7.510
 2779TIP3    H129896   1.433   6.309   7.534
 2779TIP3    H229897   1.338   6.336   7.420
 2780TIP3   OH229898   3.674   3.190   1.062
 2780TIP3    H129899   3.594   3.160   1.105
 2780TIP3    H229900   3.699   3.118   1.004
 2781TIP3   OH229901   4.200   5.733   7.237
 2781TIP3    H129902   4.111   5.747   7.271
 2781TIP3    H229903   4.226   5.648   7.272
 2782TIP3   OH229904   4.337   2.300   1.341
 2782TIP3    H129905   4.325   2.234   1.409
 2782TIP3    H229906   4.289   2.377   1.372
 2783TIP3   OH229907   1.752   6.070   0.902
 2783TIP3    H129908   1.753   6.099   0.811
 2783TIP3    H229909   1.748   6.150   0.954
 2784TIP3   OH229910   3.051   5.279   2.208
 2784TIP3    H129911   3.141   5.276   2.174
 2784TIP3    H229912   2.997   5.284   2.130
 2785TIP3   OH229913   1.323   2.307   7.510
 2785TIP3    H129914   1.311   2.380   7.571
 2785TIP3    H229915   1.403   2.328   7.462
 2786TIP3   OH229916   4.053   4.883   6.459
 2786TIP3    H129917   4.076   4.966   6.502
 2786TIP3    H229918   4.090   4.816   6.517
 2787TIP3   OH229919   5.067   5.859   0.152
 2787TIP3    H129920   5.060   5.945   0.110
 2787TIP3    H229921   5.080   5.799   0.079
 2788TIP3   OH229922   4.107   2.259   1.768
 2788TIP3    H129923   4.126   2.352   1.759
 2788TIP3    H229924   4.190   2.220   1.796
 2789TIP3   OH229925   2.751   3.783   7.181
 2789TIP3    H129926   2.782   3.827   7.102
 2789TIP3    H229927   2.659   3.809   7.188
 2790TIP3   OH229928   3.792   6.221   7.761
 2790TIP3    H129929   3.735   6.289   7.726
 2790TIP3    H229930   3.759   6.140   7.722
 2791TIP3   OH229931   0.921   1.346   6.541
 2791TIP3    H129932   0.839   1.340   6.591
 2791TIP3    H229933   0.990   1.327   6.604
 2792TIP3   OH229934   0.485   1.314   1.391
 2792TIP3    H129935   0.502   1.337   1.300
 2792TIP3    H229936   0.476   1.399   1.436
 2793TIP3   OH229937   4.868   6.488   6.302
 2793TIP3    H129938   4.850   6.537   6.382
 2793TIP3    H229939   4.841   6.546   6.231
 2794TIP3   OH229940   0.853   1.407   8.575
 2794TIP3    H129941   0.798   1.462   8.519
 2794TIP3    H229942   0.931   1.460   8.592
 2795TIP3   OH229943   5.094   1.178   6.861
 2795TIP3    H129944   5.063   1.262   6.828
 2795TIP3    H229945   5.057   1.172   6.949
 2796TIP3   OH229946   4.289   4.474   0.016
 2796TIP3    H129947   4.203   4.512   0.032
 2796TIP3    H229948   4.336   4.485   0.098
 2797TIP3   OH229949   4.036   1.654   1.026
 2797TIP3    H129950   3.977   1.591   1.066
 2797TIP3    H229951   3.979   1.719   0.985
 2798TIP3   OH229952   3.926   1.178   7.477
 2798TIP3    H129953   3.978   1.122   7.418
 2798TIP3    H229954   3.856   1.213   7.421
 2799TIP3   OH229955   5.334   3.828   0.449
 2799TIP3    H129956   5.368   3.763   0.387
 2799TIP3    H229957   5.391   3.822   0.525
 2800TIP3   OH229958   1.543   5.654   7.264
 2800TIP3    H129959   1.515   5.563   7.253
 2800TIP3    H229960   1.637   5.652   7.249
 2801TIP3   OH229961   3.423   2.012   0.834
 2801TIP3    H129962   3.492   1.947   0.816
 2801TIP3    H229963   3.346   1.978   0.789
 2802TIP3   OH229964   1.136   1.735   2.125
 2802TIP3    H129965   1.127   1.809   2.185
 2802TIP3    H229966   1.229   1.733   2.103
 2803TIP3   OH229967   3.197   2.499   7.096
 2803TIP3    H129968   3.141   2.549   7.037
 2803TIP3    H229969   3.136   2.458   7.157
 2804TIP3   OH229970   1.420   4.191   0.822
 2804TIP3    H129971   1.384   4.242   0.749
 2804TIP3    H229972   1.455   4.257   0.882
 2805TIP3   OH229973   3.607   5.428   2.152
 2805TIP3    H129974   3.673   5.497   2.167
 2805TIP3    H229975   3.625   5.397   2.063
 2806TIP3   OH229976   0.654   1.287   8.187
 2806TIP3    H129977   0.666   1.263   8.095
 2806TIP3    H229978   0.667   1.382   8.188
 2807TIP3   OH229979   0.448   6.067   7.297
 2807TIP3    H129980   0.362   6.040   7.265
 2807TIP3    H229981   0.461   6.154   7.261
 2808TIP3   OH229982   0.269   2.627   0.419
 2808TIP3    H129983   0.295   2.675   0.498
 2808TIP3    H229984   0.350   2.615   0.370
 2809TIP3   OH229985   5.953   2.222   0.530
 2809TIP3    H129986   5.953   2.127   0.515
 2809TIP3    H229987   6.045   2.247   0.526
 2810TIP3   OH229988   4.241   1.469   8.433
 2810TIP3    H129989   4.159   1.492   8.389
 2810TIP3    H229990   4.226   1.382   8.468
 2811TIP3   OH229991   5.826   4.062   0.770
 2811TIP3    H129992   5.770   4.077   0.693
 2811TIP3    H229993   5.904   4.113   0.753
 2812TIP3   OH229994   0.576   3.822   1.567
 2812TIP3    H129995   0.498   3.799   1.516
 2812TIP3    H229996   0.633   3.867   1.504
 2813TIP3   OH229997   0.513   1.749   1.991
 2813TIP3    H129998   0.457   1.823   2.012
 2813TIP3    H229999   0.493   1.684   2.059
 2814TIP3   OH230000   4.768   1.542   0.847
 2814TIP3    H130001   4.812   1.561   0.764
 2814TIP3    H230002   4.829   1.485   0.894
 2815TIP3   OH230003   1.466   5.198   7.657
 2815TIP3    H130004   1.489   5.143   7.582
 2815TIP3    H230005   1.388   5.246   7.629
 2816TIP3   OH230006   2.115   5.097   8.089
 2816TIP3    H130007   2.080   5.099   8.178
 2816TIP3    H230008   2.111   5.005   8.063
 2817TIP3   OH230009   0.974   6.194   1.993
 2817TIP3    H130010   0.908   6.138   2.035
 2817TIP3    H230011   1.026   6.228   2.065
 2818TIP3   OH230012   5.088   0.611   0.053
 2818TIP3    H130013   5.001   0.646   0.071
 2818TIP3    H230014   5.122   0.664   8.772
 2819TIP3   OH230015   0.539   2.104   1.499
 2819TIP3    H130016   0.502   2.180   1.544
 2819TIP3    H230017   0.537   2.127   1.406
 2820TIP3   OH230018   6.125   5.883   6.969
 2820TIP3    H130019   6.060   5.813   6.976
 2820TIP3    H230020   6.135   5.897   6.875
 2821TIP3   OH230021   6.562   2.359   8.638
 2821TIP3    H130022   6.571   2.402   8.722
 2821TIP3    H230023   6.611   2.415   8.577
 2822TIP3   OH230024   5.613   3.916   8.427
 2822TIP3    H130025   5.552   3.895   8.498
 2822TIP3    H230026   5.584   3.862   8.354
 2823TIP3   OH230027   0.732   4.803   1.217
 2823TIP3    H130028   0.772   4.889   1.224
 2823TIP3    H230029   0.753   4.775   1.128
 2824TIP3   OH230030   5.463   0.513   8.222
 2824TIP3    H130031   5.528   0.515   8.153
 2824TIP3    H230032   5.441   0.420   8.231
 2825TIP3   OH230033   6.531   3.459   1.412
 2825TIP3    H130034   6.581   3.377   1.416
 2825TIP3    H230035   6.508   3.478   1.503
 2826TIP3   OH230036   3.006   2.734   1.493
 2826TIP3    H130037   3.090   2.741   1.447
 2826TIP3    H230038   2.940   2.752   1.426
 2827TIP3   OH230039   5.860   1.989   2.182
 2827TIP3    H130040   5.782   1.968   2.131
 2827TIP3    H230041   5.826   2.015   2.267
 2828TIP3   OH230042   1.651   3.902   7.652
 2828TIP3    H130043   1.656   3.856   7.568
 2828TIP3    H230044   1.568   3.950   7.648
 2829TIP3   OH230045   4.332   1.784   7.850
 2829TIP3    H130046   4.304   1.719   7.786
 2829TIP3    H230047   4.309   1.746   7.934
 2830TIP3   OH230048   4.594   1.986   7.893
 2830TIP3    H130049   4.546   1.974   7.811
 2830TIP3    H230050   4.595   1.899   7.932
 2831TIP3   OH230051   3.898   0.978   2.459
 2831TIP3    H130052   3.955   0.993   2.383
 2831TIP3    H230053   3.895   0.883   2.469
 2832TIP3   OH230054   0.303   3.493   7.685
 2832TIP3    H130055   0.298   3.479   7.780
 2832TIP3    H230056   0.393   3.471   7.663
 2833TIP3   OH230057   1.887   6.589   1.265
 2833TIP3    H130058   1.878   6.530   1.340
 2833TIP3    H230059   1.818   6.563   1.205
 2834TIP3   OH230060   4.057   6.659   0.654
 2834TIP3    H130061   4.077   6.730   0.715
 2834TIP3    H230062   4.102   6.683   0.574
 2835TIP3   OH230063   4.510   5.119   8.709
 2835TIP3    H130064   4.425   5.127   8.754
 2835TIP3    H230065   4.507   5.185   8.640
 2836TIP3   OH230066   0.492   4.203   8.352
 2836TIP3    H130067   0.571   4.250   8.380
 2836TIP3    H230068   0.460   4.161   8.432
 2837TIP3   OH230069   5.255   4.836   8.223
 2837TIP3    H130070   5.208   4.846   8.306
 2837TIP3    H230071   5.331   4.894   8.231
 2838TIP3   OH230072   3.433   0.051   1.883
 2838TIP3    H130073   3.347   0.035   1.921
 2838TIP3    H230074   3.448   0.145   1.894
 2839TIP3   OH230075   3.926   1.619   0.522
 2839TIP3    H130076   3.863   1.572   0.467
 2839TIP3    H230077   3.964   1.552   0.578
 2840TIP3   OH230078   5.222   0.891   0.680
 2840TIP3    H130079   5.169   0.914   0.756
 2840TIP3    H230080   5.224   0.795   0.680
 2841TIP3   OH230081   5.691   2.945   0.288
 2841TIP3    H130082   5.615   2.900   0.251
 2841TIP3    H230083   5.723   3.002   0.218
 2842TIP3   OH230084   4.362   4.546   1.810
 2842TIP3    H130085   4.379   4.634   1.775
 2842TIP3    H230086   4.408   4.544   1.894
 2843TIP3   OH230087   4.327   2.095   1.827
 2843TIP3    H130088   4.351   2.005   1.851
 2843TIP3    H230089   4.401   2.148   1.858
 2844TIP3   OH230090   0.973   3.671   0.234
 2844TIP3    H130091   0.903   3.660   0.297
 2844TIP3    H230092   1.051   3.691   0.287
 2845TIP3   OH230093   6.518   1.705   8.046
 2845TIP3    H130094   6.472   1.635   8.094
 2845TIP3    H230095   6.596   1.662   8.011
 2846TIP3   OH230096   1.790   4.052   8.021
 2846TIP3    H130097   1.780   4.097   7.937
 2846TIP3    H230098   1.828   3.967   7.999
 2847TIP3   OH230099   6.221   1.717   6.691
 2847TIP3    H130100   6.253   1.702   6.602
 2847TIP3    H230101   6.130   1.690   6.689
 2848TIP3   OH230102   0.718   2.112   8.586
 2848TIP3    H130103   0.635   2.145   8.551
 2848TIP3    H230104   0.754   2.059   8.514
 2849TIP3   OH230105   0.283   4.031   0.758
 2849TIP3    H130106   0.265   3.957   0.701
 2849TIP3    H230107   0.299   4.104   0.698
 2850TIP3   OH230108   5.285   4.707   0.095
 2850TIP3    H130109   5.221   4.636   0.089
 2850TIP3    H230110   5.257   4.771   0.030
 2851TIP3   OH230111   1.700   1.364   0.938
 2851TIP3    H130112   1.647   1.363   0.859
 2851TIP3    H230113   1.637   1.376   1.009
 2852TIP3   OH230114   5.168   2.295   0.947
 2852TIP3    H130115   5.246   2.286   1.001
 2852TIP3    H230116   5.158   2.389   0.933
 2853TIP3   OH230117   5.670   0.948   0.576
 2853TIP3    H130118   5.644   0.859   0.599
 2853TIP3    H230119   5.639   1.002   0.649
 2854TIP3   OH230120   4.418   5.519   1.895
 2854TIP3    H130121   4.362   5.481   1.827
 2854TIP3    H230122   4.451   5.444   1.945
 2855TIP3   OH230123   3.508   6.287   0.720
 2855TIP3    H130124   3.431   6.254   0.675
 2855TIP3    H230125   3.533   6.218   0.781
 2856TIP3   OH230126   1.933   4.462   8.186
 2856TIP3    H130127   1.903   4.528   8.123
 2856TIP3    H230128   1.853   4.417   8.213
 2857TIP3   OH230129   3.596   3.369   8.029
 2857TIP3    H130130   3.598   3.403   7.939
 2857TIP3    H230131   3.639   3.437   8.081
 2858TIP3   OH230132   1.034   1.636   0.465
 2858TIP3    H130133   1.082   1.585   0.530
 2858TIP3    H230134   1.095   1.705   0.438
 2859TIP3   OH230135   3.550   2.423   8.097
 2859TIP3    H130136   3.511   2.358   8.156
 2859TIP3    H230137   3.604   2.478   8.154
 2860TIP3   OH230138   5.167   5.316   0.223
 2860TIP3    H130139   5.093   5.375   0.239
 2860TIP3    H230140   5.240   5.356   0.271
 2861TIP3   OH230141   2.136   1.591   1.596
 2861TIP3    H130142   2.137   1.663   1.658
 2861TIP3    H230143   2.146   1.632   1.510
 2862TIP3   OH230144   5.394   2.759   1.878
 2862TIP3    H130145   5.388   2.821   1.951
 2862TIP3    H230146   5.487   2.757   1.856
 2863TIP3   OH230147   6.674   0.912   0.761
 2863TIP3    H130148   6.693   1.006   0.769
 2863TIP3    H230149   6.699   0.875   0.846
 2864TIP3   OH230150   3.745   6.595   2.067
 2864TIP3    H130151   3.754   6.546   2.149
 2864TIP3    H230152   3.817   6.659   2.070
 2865TIP3   OH230153   4.689   5.356   2.293
 2865TIP3    H130154   4.600   5.389   2.282
 2865TIP3    H230155   4.683   5.263   2.269
 2866TIP3   OH230156   5.206   2.115   1.188
 2866TIP3    H130157   5.130   2.126   1.132
 2866TIP3    H230158   5.177   2.145   1.274
 2867TIP3   OH230159   5.929   5.117   1.398
 2867TIP3    H130160   6.000   5.059   1.425
 2867TIP3    H230161   5.879   5.132   1.479
 2868TIP3   OH230162   5.574   3.462   2.055
 2868TIP3    H130163   5.575   3.491   2.146
 2868TIP3    H230164   5.527   3.531   2.008
 2869TIP3   OH230165   1.497   0.910   8.429
 2869TIP3    H130166   1.523   0.864   8.350
 2869TIP3    H230167   1.444   0.983   8.398
 2870TIP3   OH230168   3.069   2.815   7.357
 2870TIP3    H130169   3.010   2.886   7.333
 2870TIP3    H230170   3.013   2.737   7.358
 2871TIP3   OH230171   5.277   4.898   8.689
 2871TIP3    H130172   5.193   4.875   8.649
 2871TIP3    H230173   5.255   4.965   8.753
 2872TIP3   OH230174   1.311   3.543   2.804
 2872TIP3    H130175   1.302   3.564   2.711
 2872TIP3    H230176   1.389   3.592   2.831
 2873TIP3   OH230177   2.548   2.753   8.536
 2873TIP3    H130178   2.563   2.668   8.576
 2873TIP3    H230179   2.468   2.741   8.484
 2874TIP3   OH230180   1.537   5.499   1.286
 2874TIP3    H130181   1.523   5.556   1.362
 2874TIP3    H230182   1.623   5.459   1.303
 2875TIP3   OH230183   0.646   3.534   8.194
 2875TIP3    H130184   0.725   3.566   8.150
 2875TIP3    H230185   0.576   3.590   8.162
 2876TIP3   OH230186   4.948   1.705   1.038
 2876TIP3    H130187   4.951   1.701   0.942
 2876TIP3    H230188   5.035   1.677   1.065
 2877TIP3   OH230189   3.468   2.487   7.481
 2877TIP3    H130190   3.374   2.506   7.477
 2877TIP3    H230191   3.487   2.481   7.575
 2878TIP3   OH230192   4.969   2.853   7.483
 2878TIP3    H130193   4.964   2.795   7.408
 2878TIP3    H230194   4.963   2.941   7.446
 2879TIP3   OH230195   4.595   6.615   1.023
 2879TIP3    H130196   4.621   6.690   1.076
 2879TIP3    H230197   4.506   6.595   1.051
 2880TIP3   OH230198   3.379   4.241   8.373
 2880TIP3    H130199   3.355   4.151   8.351
 2880TIP3    H230200   3.373   4.288   8.290
 2881TIP3   OH230201   5.525   4.024   7.213
 2881TIP3    H130202   5.511   4.057   7.124
 2881TIP3    H230203   5.445   4.046   7.260
 2882TIP3   OH230204   6.242   6.652   0.870
 2882TIP3    H130205   6.252   6.591   0.797
 2882TIP3    H230206   6.173   6.613   0.925
 2883TIP3   OH230207   2.967   3.107   8.000
 2883TIP3    H130208   3.036   3.042   8.012
 2883TIP3    H230209   2.992   3.180   8.058
 2884TIP3   OH230210   2.616   1.567   0.561
 2884TIP3    H130211   2.673   1.640   0.584
 2884TIP3    H230212   2.530   1.591   0.597
 2885TIP3   OH230213   2.414   5.779   2.036
 2885TIP3    H130214   2.460   5.697   2.016
 2885TIP3    H230215   2.323   5.763   2.008
 2886TIP3   OH230216   4.532   5.705   7.566
 2886TIP3    H130217   4.610   5.651   7.548
 2886TIP3    H230218   4.460   5.655   7.527
 2887TIP3   OH230219   1.266   4.314   1.519
 2887TIP3    H130220   1.336   4.379   1.522
 2887TIP3    H230221   1.187   4.364   1.498
 2888TIP3   OH230222   3.382   6.222   1.400
 2888TIP3    H130223   3.293   6.188   1.407
 2888TIP3    H230224   3.397   6.269   1.483
 2889TIP3   OH230225   3.412   0.825   7.924
 2889TIP3    H130226   3.451   0.765   7.987
 2889TIP3    H230227   3.486   0.876   7.890
 2890TIP3   OH230228   6.178   5.548   2.188
 2890TIP3    H130229   6.270   5.528   2.173
 2890TIP3    H230230   6.173   5.577   2.279
 2891TIP3   OH230231   4.734   6.021   0.797
 2891TIP3    H130232   4.758   6.007   0.705
 2891TIP3    H230233   4.727   5.933   0.833
 2892TIP3   OH230234   0.695   1.013   7.042
 2892TIP3    H130235   0.613   0.988   7.085
 2892TIP3    H230236   0.688   1.108   7.033
 2893TIP3   OH230237   4.766   5.830   1.641
 2893TIP3    H130238   4.762   5.867   1.729
 2893TIP3    H230239   4.705   5.756   1.643
 2894TIP3   OH230240   5.291   4.227   8.722
 2894TIP3    H130241   5.387   4.232   8.715
 2894TIP3    H230242   5.259   4.273   8.644
 2895TIP3   OH230243   5.837   1.140   7.302
 2895TIP3    H130244   5.854   1.046   7.294
 2895TIP3    H230245   5.777   1.160   7.229
 2896TIP3   OH230246   1.080   3.367   8.525
 2896TIP3    H130247   1.025   3.291   8.505
 2896TIP3    H230248   1.021   3.429   8.567
 2897TIP3   OH230249   4.873   2.217   7.001
 2897TIP3    H130250   4.857   2.216   6.907
 2897TIP3    H230251   4.799   2.171   7.040
 2898TIP3   OH230252   2.310   2.501   7.632
 2898TIP3    H130253   2.358   2.571   7.588
 2898TIP3    H230254   2.227   2.540   7.657
 2899TIP3   OH230255   1.612   0.328   0.989
 2899TIP3    H130256   1.668   0.252   0.976
 2899TIP3    H230257   1.621   0.379   0.909
 2900TIP3   OH230258   5.228   2.904   7.547
 2900TIP3    H130259   5.282   2.844   7.496
 2900TIP3    H230260   5.138   2.877   7.526
 2901TIP3   OH230261   1.335   3.572   2.539
 2901TIP3    H130262   1.245   3.549   2.516
 2901TIP3    H230263   1.356   3.647   2.482
 2902TIP3   OH230264   0.933   4.085   2.093
 2902TIP3    H130265   0.899   4.163   2.137
 2902TIP3    H230266   0.864   4.019   2.105
 2903TIP3   OH230267   3.087   5.846   7.390
 2903TIP3    H130268   3.073   5.774   7.329
 2903TIP3    H230269   3.002   5.888   7.398
 2904TIP3   OH230270   6.210   6.243   8.248
 2904TIP3    H130271   6.277   6.286   8.302
 2904TIP3    H230272   6.128   6.262   8.292
 2905TIP3   OH230273   6.117   4.166   1.661
 2905TIP3    H130274   6.124   4.103   1.732
 2905TIP3    H230275   6.149   4.120   1.584
 2906TIP3   OH230276   3.348   1.472   1.251
 2906TIP3    H130277   3.311   1.530   1.185
 2906TIP3    H230278   3.274   1.450   1.308
 2907TIP3   OH230279   4.425   3.764   1.646
 2907TIP3    H130280   4.430   3.846   1.696
 2907TIP3    H230281   4.383   3.702   1.706
 2908TIP3   OH230282   5.560   5.402   8.095
 2908TIP3    H130283   5.608   5.324   8.121
 2908TIP3    H230284   5.488   5.409   8.157
 2909TIP3   OH230285   2.673   1.528   7.456
 2909TIP3    H130286   2.746   1.575   7.498
 2909TIP3    H230287   2.714   1.480   7.383
 2910TIP3   OH230288   6.050   2.684   7.544
 2910TIP3    H130289   5.998   2.757   7.511
 2910TIP3    H230290   6.139   2.718   7.548
 2911TIP3   OH230291   5.515   1.713   7.569
 2911TIP3    H130292   5.552   1.681   7.486
 2911TIP3    H230293   5.420   1.706   7.556
 2912TIP3   OH230294   1.092   5.098   8.708
 2912TIP3    H130295   1.132   5.174   8.751
 2912TIP3    H230296   1.078   5.126   8.617
 2913TIP3   OH230297   1.504   2.410   7.342
 2913TIP3    H130298   1.525   2.328   7.297
 2913TIP3    H230299   1.557   2.476   7.297
 2914TIP3   OH230300   0.426   1.833   1.090
 2914TIP3    H130301   0.466   1.917   1.114
 2914TIP3    H230302   0.499   1.777   1.067
 2915TIP3   OH230303   2.560   3.076   2.558
 2915TIP3    H130304   2.643   3.123   2.569
 2915TIP3    H230305   2.576   2.990   2.598
 2916TIP3   OH230306   0.020   4.220   0.144
 2916TIP3    H130307   0.063   4.240   0.227
 2916TIP3    H230308   6.780   4.297   0.126
 2917TIP3   OH230309   4.963   5.587   6.905
 2917TIP3    H130310   4.959   5.619   6.815
 2917TIP3    H230311   4.958   5.492   6.897
 2918TIP3   OH230312   1.735   4.196   7.786
 2918TIP3    H130313   1.766   4.259   7.721
 2918TIP3    H230314   1.641   4.186   7.767
 2919TIP3   OH230315   3.369   0.175   8.378
 2919TIP3    H130316   3.384   0.097   8.431
 2919TIP3    H230317   3.404   0.152   8.292
 2920TIP3   OH230318   0.417   5.570   0.960
 2920TIP3    H130319   0.323   5.554   0.972
 2920TIP3    H230320   0.434   5.648   1.013
 2921TIP3   OH230321   0.343   3.520   8.627
 2921TIP3    H130322   0.324   3.606   8.664
 2921TIP3    H230323   0.376   3.539   8.539
 2922TIP3   OH230324   4.938   0.279   8.176
 2922TIP3    H130325   5.027   0.289   8.143
 2922TIP3    H230326   4.905   0.368   8.184
 2923TIP3   OH230327   5.492   4.725   1.259
 2923TIP3    H130328   5.530   4.733   1.171
 2923TIP3    H230329   5.467   4.815   1.282
 2924TIP3   OH230330   5.048   4.896   1.661
 2924TIP3    H130331   5.078   4.838   1.592
 2924TIP3    H230332   4.958   4.919   1.635
 2925TIP3   OH230333   4.640   3.799   8.493
 2925TIP3    H130334   4.581   3.779   8.566
 2925TIP3    H230335   4.601   3.874   8.450
 2926TIP3   OH230336   5.849   4.102   7.139
 2926TIP3    H130337   5.866   4.035   7.205
 2926TIP3    H230338   5.901   4.076   7.063
 2927TIP3   OH230339   5.878   3.039   8.666
 2927TIP3    H130340   5.875   3.109   8.601
 2927TIP3    H230341   5.813   2.975   8.636
 2928TIP3   OH230342   2.545   0.885   8.332
 2928TIP3    H130343   2.551   0.903   8.426
 2928TIP3    H230344   2.544   0.789   8.327
 2929TIP3   OH230345   0.819   0.002   8.543
 2929TIP3    H130346   0.861   6.799   8.627
 2929TIP3    H230347   0.834   0.096   8.528
 2930TIP3   OH230348   4.121   2.884   8.480
 2930TIP3    H130349   4.102   2.833   8.401
 2930TIP3    H230350   4.036   2.909   8.514
 2931TIP3   OH230351   3.530   0.085   1.466
 2931TIP3    H130352   3.622   0.087   1.439
 2931TIP3    H230353   3.530   0.036   1.548
 2932TIP3   OH230354   1.527   1.606   8.297
 2932TIP3    H130355   1.536   1.695   8.333
 2932TIP3    H230356   1.552   1.615   8.205
 2933TIP3   OH230357   1.873   3.396   7.598
 2933TIP3    H130358   1.853   3.303   7.605
 2933TIP3    H230359   1.880   3.426   7.689
 2934TIP3   OH230360   0.833   6.720   1.697
 2934TIP3    H130361   0.784   6.801   1.709
 2934TIP3    H230362   0.877   6.705   1.780
 2935TIP3   OH230363   4.259   1.509   0.908
 2935TIP3    H130364   4.350   1.521   0.934
 2935TIP3    H230365   4.213   1.583   0.947
 2936TIP3   OH230366   5.468   5.241   7.816
 2936TIP3    H130367   5.441   5.174   7.879
 2936TIP3    H230368   5.531   5.197   7.760
 2937TIP3   OH230369   2.423   1.882   0.366
 2937TIP3    H130370   2.381   1.965   0.389
 2937TIP3    H230371   2.443   1.840   0.450
 2938TIP3   OH230372   2.652   5.517   7.625
 2938TIP3    H130373   2.685   5.594   7.578
 2938TIP3    H230374   2.689   5.525   7.713
 2939TIP3   OH230375   5.195   1.430   7.522
 2939TIP3    H130376   5.110   1.385   7.526
 2939TIP3    H230377   5.228   1.410   7.435
 2940TIP3   OH230378   4.662   0.913   7.467
 2940TIP3    H130379   4.689   0.994   7.425
 2940TIP3    H230380   4.609   0.868   7.401
 2941TIP3   OH230381   4.023   0.941   6.573
 2941TIP3    H130382   4.108   0.943   6.528
 2941TIP3    H230383   4.021   1.021   6.624
 2942TIP3   OH230384   5.855   6.154   0.529
 2942TIP3    H130385   5.859   6.248   0.511
 2942TIP3    H230386   5.861   6.113   0.442
 2943TIP3   OH230387   0.905   0.176   0.890
 2943TIP3    H130388   0.938   0.128   0.966
 2943TIP3    H230389   0.981   0.187   0.833
 2944TIP3   OH230390   6.318   0.043   6.974
 2944TIP3    H130391   6.345   0.128   6.938
 2944TIP3    H230392   6.376   6.794   6.932
 2945TIP3   OH230393   2.914   0.556   0.434
 2945TIP3    H130394   2.937   0.466   0.458
 2945TIP3    H230395   2.829   0.571   0.476
 2946TIP3   OH230396   4.715   6.578   0.280
 2946TIP3    H130397   4.676   6.515   0.340
 2946TIP3    H230398   4.697   6.542   0.193
 2947TIP3   OH230399   6.726   5.956   0.376
 2947TIP3    H130400   0.005   5.976   0.379
 2947TIP3    H230401   6.684   6.036   0.408
 2948TIP3   OH230402   5.388   4.574   0.460
 2948TIP3    H130403   5.454   4.545   0.522
 2948TIP3    H230404   5.431   4.642   0.409
 2949TIP3   OH230405   1.295   1.619   1.102
 2949TIP3    H130406   1.229   1.555   1.127
 2949TIP3    H230407   1.372   1.566   1.078
 2950TIP3   OH230408   3.318   6.675   8.666
 2950TIP3    H130409   3.392   6.662   8.606
 2950TIP3    H230410   3.282   6.587   8.678
 2951TIP3   OH230411   6.718   1.406   1.824
 2951TIP3    H130412   6.772   1.347   1.771
 2951TIP3    H230413   6.749   1.392   1.913
 2952TIP3   OH230414   1.295   2.397   0.695
 2952TIP3    H130415   1.301   2.416   0.789
 2952TIP3    H230416   1.201   2.386   0.679
 2953TIP3   OH230417   5.660   3.546   7.522
 2953TIP3    H130418   5.605   3.528   7.598
 2953TIP3    H230419   5.637   3.635   7.496
 2954TIP3   OH230420   6.336   2.447   1.122
 2954TIP3    H130421   6.339   2.367   1.174
 2954TIP3    H230422   6.243   2.464   1.109
 2955TIP3   OH230423   4.929   2.648   0.266
 2955TIP3    H130424   5.017   2.613   0.284
 2955TIP3    H230425   4.888   2.580   0.212
 2956TIP3   OH230426   6.322   2.699   1.383
 2956TIP3    H130427   6.404   2.670   1.343
 2956TIP3    H230428   6.261   2.628   1.366
 2957TIP3   OH230429   0.768   5.567   0.113
 2957TIP3    H130430   0.749   5.607   0.028
 2957TIP3    H230431   0.682   5.547   0.150
 2958TIP3   OH230432   4.724   2.709   6.804
 2958TIP3    H130433   4.802   2.749   6.843
 2958TIP3    H230434   4.752   2.620   6.781
 2959TIP3   OH230435   2.811   1.668   7.022
 2959TIP3    H130436   2.869   1.707   6.957
 2959TIP3    H230437   2.868   1.614   7.077
 2960TIP3   OH230438   0.110   1.895   2.200
 2960TIP3    H130439   0.108   1.800   2.192
 2960TIP3    H230440   0.199   1.920   2.175
 2961TIP3   OH230441   1.888   2.672   0.799
 2961TIP3    H130442   1.806   2.690   0.754
 2961TIP3    H230443   1.887   2.732   0.874
 2962TIP3   OH230444   0.470   1.999   7.974
 2962TIP3    H130445   0.378   2.013   7.998
 2962TIP3    H230446   0.475   2.025   7.882
 2963TIP3   OH230447   6.200   1.601   0.408
 2963TIP3    H130448   6.259   1.547   0.461
 2963TIP3    H230449   6.191   1.682   0.458
 2964TIP3   OH230450   5.653   1.088   8.245
 2964TIP3    H130451   5.663   1.083   8.340
 2964TIP3    H230452   5.613   1.173   8.229
 2965TIP3   OH230453   1.953   0.870   6.670
 2965TIP3    H130454   1.933   0.907   6.756
 2965TIP3    H230455   2.000   0.789   6.690
 2966TIP3   OH230456   2.259   1.604   0.908
 2966TIP3    H130457   2.252   1.659   0.985
 2966TIP3    H230458   2.199   1.643   0.845
 2967TIP3   OH230459   0.279   0.809   7.744
 2967TIP3    H130460   0.275   0.793   7.838
 2967TIP3    H230461   0.341   0.744   7.711
 2968TIP3   OH230462   3.533   1.040   1.692
 2968TIP3    H130463   3.526   1.098   1.768
 2968TIP3    H230464   3.544   1.099   1.617
 2969TIP3   OH230465   5.788   1.575   6.939
 2969TIP3    H130466   5.806   1.516   7.012
 2969TIP3    H230467   5.743   1.520   6.874
 2970TIP3   OH230468   4.446   3.846   0.370
 2970TIP3    H130469   4.436   3.921   0.428
 2970TIP3    H230470   4.496   3.782   0.422
 2971TIP3   OH230471   3.336   2.344   1.189
 2971TIP3    H130472   3.253   2.379   1.159
 2971TIP3    H230473   3.397   2.418   1.184
 2972TIP3   OH230474   3.101   2.324   7.697
 2972TIP3    H130475   3.026   2.370   7.659
 2972TIP3    H230476   3.143   2.389   7.754
 2973TIP3   OH230477   1.357   3.862   2.454
 2973TIP3    H130478   1.423   3.930   2.446
 2973TIP3    H230479   1.273   3.909   2.450
 2974TIP3   OH230480   4.217   0.310   1.152
 2974TIP3    H130481   4.269   0.234   1.178
 2974TIP3    H230482   4.222   0.369   1.227
 2975TIP3   OH230483   4.032   0.946   8.510
 2975TIP3    H130484   3.955   0.996   8.538
 2975TIP3    H230485   4.040   0.876   8.575
 2976TIP3   OH230486   3.284   4.356   7.244
 2976TIP3    H130487   3.271   4.278   7.190
 2976TIP3    H230488   3.221   4.419   7.211
 2977TIP3   OH230489   6.488   1.792   8.335
 2977TIP3    H130490   6.560   1.841   8.375
 2977TIP3    H230491   6.506   1.795   8.241
 2978TIP3   OH230492   3.935   3.584   7.978
 2978TIP3    H130493   3.887   3.544   7.906
 2978TIP3    H230494   3.880   3.568   8.055
 2979TIP3   OH230495   5.058   4.329   1.659
 2979TIP3    H130496   4.966   4.312   1.640
 2979TIP3    H230497   5.064   4.424   1.667
 2980TIP3   OH230498   5.659   2.375   1.944
 2980TIP3    H130499   5.626   2.455   1.984
 2980TIP3    H230500   5.725   2.342   2.006
 2981TIP3   OH230501   6.026   1.841   7.738
 2981TIP3    H130502   6.013   1.934   7.757
 2981TIP3    H230503   5.937   1.807   7.726
 2982TIP3   OH230504   3.144   5.839   1.500
 2982TIP3    H130505   3.079   5.809   1.563
 2982TIP3    H230506   3.147   5.934   1.513
 2983TIP3   OH230507   0.479   1.339   8.401
 2983TIP3    H130508   0.526   1.310   8.323
 2983TIP3    H230509   0.475   1.434   8.393
 2984TIP3   OH230510   1.049   4.475   8.222
 2984TIP3    H130511   1.068   4.419   8.298
 2984TIP3    H230512   1.128   4.471   8.169
 2985TIP3   OH230513   6.255   0.938   7.587
 2985TIP3    H130514   6.252   0.959   7.494
 2985TIP3    H230515   6.216   1.014   7.630
 2986TIP3   OH230516   0.197   0.842   1.362
 2986TIP3    H130517   0.137   0.832   1.436
 2986TIP3    H230518   0.234   0.929   1.372
 2987TIP3   OH230519   4.346   6.083   0.072
 2987TIP3    H130520   4.323   6.063   8.772
 2987TIP3    H230521   4.409   6.015   0.097
 2988TIP3   OH230522   1.992   0.868   0.975
 2988TIP3    H130523   1.897   0.868   0.968
 2988TIP3    H230524   2.013   0.782   1.011
 2989TIP3   OH230525   4.337   1.471   1.998
 2989TIP3    H130526   4.324   1.379   1.976
 2989TIP3    H230527   4.309   1.477   2.090
 2990TIP3   OH230528   1.406   2.705   1.096
 2990TIP3    H130529   1.404   2.754   1.178
 2990TIP3    H230530   1.357   2.759   1.035
 2991TIP3   OH230531   4.460   4.885   8.566
 2991TIP3    H130532   4.380   4.834   8.580
 2991TIP3    H230533   4.478   4.926   8.650
 2992TIP3   OH230534   2.705   1.366   8.333
 2992TIP3    H130535   2.790   1.407   8.351
 2992TIP3    H230536   2.669   1.348   8.420
 2993TIP3   OH230537   1.698   6.174   0.639
 2993TIP3    H130538   1.622   6.211   0.684
 2993TIP3    H230539   1.678   6.183   0.546
 2994TIP3   OH230540   2.826   4.439   8.272
 2994TIP3    H130541   2.807   4.503   8.340
 2994TIP3    H230542   2.919   4.418   8.283
 2995TIP3   OH230543   0.382   4.158   7.883
 2995TIP3    H130544   0.292   4.125   7.887
 2995TIP3    H230545   0.414   4.129   7.798
 2996TIP3   OH230546   1.034   5.139   8.451
 2996TIP3    H130547   0.976   5.063   8.441
 2996TIP3    H230548   0.987   5.211   8.409
 2997TIP3   OH230549   2.248   2.938   6.628
 2997TIP3    H130550   2.234   3.015   6.574
 2997TIP3    H230551   2.164   2.925   6.674
 2998TIP3   OH230552   0.092   5.353   0.046
 2998TIP3    H130553   0.014   5.341   0.100
 2998TIP3    H230554   0.059   5.373   8.749
 2999TIP3   OH230555   2.586   0.342   8.330
 2999TIP3    H130556   2.543   0.316   8.412
 2999TIP3    H230557   2.664   0.389   8.358
 3000TIP3   OH230558   3.922   5.918   0.478
 3000TIP3    H130559   3.957   5.981   0.542
 3000TIP3    H230560   3.970   5.837   0.496
 3001TIP3   OH230561   3.667   1.597   0.405
 3001TIP3    H130562   3.585   1.646   0.395
 3001TIP3    H230563   3.677   1.550   0.322
 3002TIP3   OH230564   6.170   4.765   8.014
 3002TIP3    H130565   6.236   4.805   7.958
 3002TIP3    H230566   6.116   4.838   8.045
 3003TIP3   OH230567   3.495   1.172   0.663
 3003TIP3    H130568   3.434   1.136   0.600
 3003TIP3    H230569   3.447   1.172   0.746
 3004TIP3   OH230570   2.709   6.094   7.081
 3004TIP3    H130571   2.727   6.099   6.988
 3004TIP3    H230572   2.647   6.165   7.097
 3005TIP3   OH230573   6.615   1.791   2.392
 3005TIP3    H130574   6.544   1.729   2.407
 3005TIP3    H230575   6.669   1.787   2.471
 3006TIP3   OH230576   2.423   5.932   7.687
 3006TIP3    H130577   2.369   5.990   7.741
 3006TIP3    H230578   2.382   5.934   7.601
 3007TIP3   OH230579   4.515   6.028   8.104
 3007TIP3    H130580   4.424   5.997   8.106
 3007TIP3    H230581   4.534   6.038   8.011
 3008TIP3   OH230582   1.214   0.483   0.845
 3008TIP3    H130583   1.231   0.426   0.770
 3008TIP3    H230584   1.125   0.515   0.830
 3009TIP3   OH230585   3.782   3.301   7.512
 3009TIP3    H130586   3.755   3.238   7.445
 3009TIP3    H230587   3.877   3.293   7.515
 3010TIP3   OH230588   3.919   0.339   1.067
 3010TIP3    H130589   3.876   0.281   1.004
 3010TIP3    H230590   4.003   0.297   1.085
 3011TIP3   OH230591   5.627   2.184   0.221
 3011TIP3    H130592   5.624   2.180   0.126
 3011TIP3    H230593   5.540   2.216   0.247
 3012TIP3   OH230594   1.638   1.028   8.008
 3012TIP3    H130595   1.725   1.017   8.044
 3012TIP3    H230596   1.599   1.098   8.059
 3013TIP3   OH230597   3.272   0.695   0.895
 3013TIP3    H130598   3.265   0.669   0.987
 3013TIP3    H230599   3.241   0.786   0.893
 3014TIP3   OH230600   2.779   4.914   6.831
 3014TIP3    H130601   2.803   5.004   6.851
 3014TIP3    H230602   2.692   4.920   6.792
 3015TIP3   OH230603   4.542   6.368   7.891
 3015TIP3    H130604   4.559   6.323   7.974
 3015TIP3    H230605   4.622   6.353   7.840
 3016TIP3   OH230606   4.090   2.445   2.055
 3016TIP3    H130607   4.184   2.457   2.039
 3016TIP3    H230608   4.071   2.502   2.130
 3017TIP3   OH230609   3.434   1.264   7.289
 3017TIP3    H130610   3.403   1.291   7.202
 3017TIP3    H230611   3.359   1.279   7.346
 3018TIP3   OH230612   3.357   3.076   6.513
 3018TIP3    H130613   3.301   3.018   6.462
 3018TIP3    H230614   3.297   3.134   6.559
 3019TIP3   OH230615   4.231   0.618   8.548
 3019TIP3    H130616   4.317   0.658   8.559
 3019TIP3    H230617   4.235   0.537   8.598
 3020TIP3   OH230618   0.118   4.224   0.987
 3020TIP3    H130619   0.191   4.197   1.043
 3020TIP3    H230620   0.121   4.164   0.913
 3021TIP3   OH230621   2.982   2.587   0.387
 3021TIP3    H130622   2.997   2.527   0.460
 3021TIP3    H230623   3.069   2.604   0.352
 3022TIP3   OH230624   5.474   0.236   8.160
 3022TIP3    H130625   5.449   0.181   8.234
 3022TIP3    H230626   5.564   0.209   8.139
 3023TIP3   OH230627   2.897   6.125   8.370
 3023TIP3    H130628   2.961   6.055   8.361
 3023TIP3    H230629   2.819   6.082   8.407
 3024TIP3   OH230630   3.363   3.422   8.296
 3024TIP3    H130631   3.277   3.443   8.331
 3024TIP3    H230632   3.348   3.408   8.203
 3025TIP3   OH230633   0.372   2.231   1.932
 3025TIP3    H130634   0.355   2.284   1.854
 3025TIP3    H230635   0.430   2.285   1.986
 3026TIP3   OH230636   0.455   5.211   8.040
 3026TIP3    H130637   0.408   5.171   7.967
 3026TIP3    H230638   0.541   5.235   8.004
 3027TIP3   OH230639   4.985   6.599   0.774
 3027TIP3    H130640   4.913   6.603   0.837
 3027TIP3    H230641   5.044   6.669   0.801
 3028TIP3   OH230642   1.654   1.090   6.627
 3028TIP3    H130643   1.656   1.069   6.721
 3028TIP3    H230644   1.721   1.158   6.617
 3029TIP3   OH230645   2.436   4.634   8.530
 3029TIP3    H130646   2.447   4.600   8.618
 3029TIP3    H230647   2.383   4.713   8.541
 3030TIP3   OH230648   2.476   4.448   0.740
 3030TIP3    H130649   2.393   4.405   0.718
 3030TIP3    H230650   2.513   4.475   0.656
 3031TIP3   OH230651   5.176   3.449   6.727
 3031TIP3    H130652   5.097   3.451   6.673
 3031TIP3    H230653   5.245   3.419   6.667
 3032TIP3   OH230654   3.749   5.983   7.615
 3032TIP3    H130655   3.787   6.009   7.531
 3032TIP3    H230656   3.700   5.904   7.596
 3033TIP3   OH230657   4.417   6.085   8.576
 3033TIP3    H130658   4.323   6.103   8.576
 3033TIP3    H230659   4.433   6.042   8.492
 3034TIP3   OH230660   1.675   5.912   6.087
 3034TIP3    H130661   1.738   5.915   6.159
 3034TIP3    H230662   1.627   5.995   6.095
 3035TIP3   OH230663   5.570   6.711   1.135
 3035TIP3    H130664   5.567   6.803   1.107
 3035TIP3    H230665   5.505   6.667   1.082
 3036TIP3   OH230666   2.506   3.163   0.890
 3036TIP3    H130667   2.582   3.107   0.904
 3036TIP3    H230668   2.436   3.103   0.863
 3037TIP3   OH230669   2.582   4.272   8.704
 3037TIP3    H130670   2.633   4.203   8.660
 3037TIP3    H230671   2.549   4.229   8.783
 3038TIP3   OH230672   5.255   4.303   1.900
 3038TIP3    H130673   5.311   4.380   1.898
 3038TIP3    H230674   5.205   4.308   1.818
 3039TIP3   OH230675   4.936   3.697   1.723
 3039TIP3    H130676   4.962   3.771   1.778
 3039TIP3    H230677   4.843   3.686   1.739
 3040TIP3   OH230678   2.683   1.402   1.082
 3040TIP3    H130679   2.676   1.311   1.112
 3040TIP3    H230680   2.777   1.417   1.075
 3041TIP3   OH230681   1.245   4.787   0.064
 3041TIP3    H130682   1.232   4.849   0.136
 3041TIP3    H230683   1.221   4.836   8.776
 3042TIP3   OH230684   5.301   0.906   8.365
 3042TIP3    H130685   5.283   0.940   8.453
 3042TIP3    H230686   5.381   0.854   8.375
 3043TIP3   OH230687   2.328   5.396   0.670
 3043TIP3    H130688   2.313   5.334   0.599
 3043TIP3    H230689   2.360   5.475   0.626
 3044TIP3   OH230690   2.214   1.287   1.391
 3044TIP3    H130691   2.263   1.347   1.334
 3044TIP3    H230692   2.250   1.303   1.478
 3045TIP3   OH230693   3.777   1.240   1.234
 3045TIP3    H130694   3.716   1.286   1.292
 3045TIP3    H230695   3.724   1.210   1.161
 3046TIP3   OH230696   0.870   2.887   7.890
 3046TIP3    H130697   0.902   2.840   7.813
 3046TIP3    H230698   0.777   2.863   7.896
 3047TIP3   OH230699   3.087   6.644   0.248
 3047TIP3    H130700   3.119   6.656   0.338
 3047TIP3    H230701   3.162   6.666   0.193
 3048TIP3   OH230702   0.766   2.915   7.320
 3048TIP3    H130703   0.813   2.987   7.362
 3048TIP3    H230704   0.684   2.954   7.289
 3049TIP3   OH230705   6.639   5.022   8.074
 3049TIP3    H130706   6.598   5.097   8.119
 3049TIP3    H230707   6.717   5.004   8.126
 3050TIP3   OH230708   6.193   5.354   8.769
 3050TIP3    H130709   6.122   5.292   8.752
 3050TIP3    H230710   6.184   5.419   8.699
 3051TIP3   OH230711   4.677   6.363   1.225
 3051TIP3    H130712   4.748   6.300   1.228
 3051TIP3    H230713   4.678   6.395   1.134
 3052TIP3   OH230714   4.628   2.019   0.282
 3052TIP3    H130715   4.705   1.969   0.310
 3052TIP3    H230716   4.577   2.030   0.362
 3053TIP3   OH230717   2.149   0.827   0.724
 3053TIP3    H130718   2.124   0.832   0.816
 3053TIP3    H230719   2.244   0.838   0.724
 3054TIP3   OH230720   1.964   2.617   7.527
 3054TIP3    H130721   2.034   2.629   7.462
 3054TIP3    H230722   1.885   2.644   7.482
 3055TIP3   OH230723   1.608   3.322   6.784
 3055TIP3    H130724   1.525   3.349   6.745
 3055TIP3    H230725   1.674   3.379   6.743
 3056TIP3   OH230726   5.562   2.379   2.604
 3056TIP3    H130727   5.567   2.432   2.525
 3056TIP3    H230728   5.472   2.389   2.635
 3057TIP3   OH230729   0.455   2.815   1.833
 3057TIP3    H130730   0.538   2.782   1.867
 3057TIP3    H230731   0.477   2.901   1.797
 3058TIP3   OH230732   6.774   6.102   1.448
 3058TIP3    H130733   6.703   6.061   1.497
 3058TIP3    H230734   6.754   6.083   1.356
 3059TIP3   OH230735   3.977   5.376   7.471
 3059TIP3    H130736   3.970   5.382   7.376
 3059TIP3    H230737   4.066   5.347   7.487
 3060TIP3   OH230738   1.643   5.310   7.020
 3060TIP3    H130739   1.682   5.367   6.953
 3060TIP3    H230740   1.586   5.251   6.971
 3061TIP3   OH230741   4.733   3.265   8.104
 3061TIP3    H130742   4.791   3.305   8.169
 3061TIP3    H230743   4.762   3.299   8.020
 3062TIP3   OH230744   6.773   1.522   1.083
 3062TIP3    H130745   6.765   1.428   1.098
 3062TIP3    H230746   6.697   1.544   1.029
 3063TIP3   OH230747   1.895   2.114   7.556
 3063TIP3    H130748   1.979   2.159   7.544
 3063TIP3    H230749   1.847   2.131   7.474
 3064TIP3   OH230750   4.617   1.335   0.672
 3064TIP3    H130751   4.654   1.384   0.746
 3064TIP3    H230752   4.688   1.332   0.607
 3065TIP3   OH230753   0.196   2.571   2.737
 3065TIP3    H130754   0.107   2.604   2.726
 3065TIP3    H230755   0.184   2.484   2.776
 3066TIP3   OH230756   5.241   3.849   1.009
 3066TIP3    H130757   5.200   3.777   0.961
 3066TIP3    H230758   5.335   3.833   1.002
 3067TIP3   OH230759   3.120   1.493   7.643
 3067TIP3    H130760   3.098   1.576   7.684
 3067TIP3    H230761   3.086   1.427   7.704
 3068TIP3   OH230762   2.788   4.002   6.646
 3068TIP3    H130763   2.811   3.959   6.564
 3068TIP3    H230764   2.728   4.072   6.620
 3069TIP3   OH230765   1.213   5.904   6.896
 3069TIP3    H130766   1.253   5.870   6.816
 3069TIP3    H230767   1.266   5.869   6.967
 3070TIP3   OH230768   3.119   2.418   1.053
 3070TIP3    H130769   3.043   2.361   1.046
 3070TIP3    H230770   3.131   2.453   0.965
 3071TIP3   OH230771   0.888   5.616   7.465
 3071TIP3    H130772   0.852   5.580   7.546
 3071TIP3    H230773   0.839   5.573   7.395
 3072TIP3   OH230774   6.380   2.618   8.117
 3072TIP3    H130775   6.422   2.548   8.067
 3072TIP3    H230776   6.384   2.587   8.208
 3073TIP3   OH230777   6.651   4.678   1.817
 3073TIP3    H130778   6.674   4.756   1.868
 3073TIP3    H230779   6.721   4.668   1.753
 3074TIP3   OH230780   3.742   4.425   7.425
 3074TIP3    H130781   3.698   4.505   7.455
 3074TIP3    H230782   3.672   4.375   7.382
 3075TIP3   OH230783   1.268   2.958   8.626
 3075TIP3    H130784   1.219   2.930   8.703
 3075TIP3    H230785   1.360   2.942   8.648
 3076TIP3   OH230786   2.260   0.315   1.521
 3076TIP3    H130787   2.265   0.408   1.543
 3076TIP3    H230788   2.258   0.313   1.425
 3077TIP3   OH230789   6.636   4.514   1.006
 3077TIP3    H130790   6.555   4.532   1.055
 3077TIP3    H230791   6.702   4.566   1.050
 3078TIP3   OH230792   4.728   3.302   2.696
 3078TIP3    H130793   4.775   3.324   2.616
 3078TIP3    H230794   4.785   3.241   2.742
 3079TIP3   OH230795   4.474   5.537   7.135
 3079TIP3    H130796   4.519   5.612   7.094
 3079TIP3    H230797   4.537   5.502   7.197
 3080TIP3   OH230798   5.009   1.384   1.457
 3080TIP3    H130799   5.016   1.289   1.454
 3080TIP3    H230800   4.949   1.401   1.530
 3081TIP3   OH230801   6.150   3.478   8.016
 3081TIP3    H130802   6.168   3.566   8.050
 3081TIP3    H230803   6.062   3.484   7.979
 3082TIP3   OH230804   6.624   1.318   1.537
 3082TIP3    H130805   6.690   1.361   1.593
 3082TIP3    H230806   6.630   1.364   1.453
 3083TIP3   OH230807   2.683   0.432   7.479
 3083TIP3    H130808   2.634   0.478   7.411
 3083TIP3    H230809   2.721   0.356   7.434
 3084TIP3   OH230810   2.627   4.212   6.355
 3084TIP3    H130811   2.715   4.182   6.377
 3084TIP3    H230812   2.614   4.290   6.409
 3085TIP3   OH230813   5.413   4.797   7.187
 3085TIP3    H130814   5.483   4.735   7.170
 3085TIP3    H230815   5.344   4.746   7.229
 3086TIP3   OH230816   0.194   0.185   7.654
 3086TIP3    H130817   0.132   0.147   7.716
 3086TIP3    H230818   0.251   0.112   7.628
 3087TIP3   OH230819   4.751   1.623   0.279
 3087TIP3    H130820   4.802   1.542   0.272
 3087TIP3    H230821   4.806   1.689   0.237
 3088TIP3   OH230822   4.869   0.826   1.636
 3088TIP3    H130823   4.792   0.876   1.664
 3088TIP3    H230824   4.836   0.768   1.568
 3089TIP3   OH230825   6.259   2.667   7.854
 3089TIP3    H130826   6.345   2.652   7.894
 3089TIP3    H230827   6.200   2.681   7.929
 3090TIP3   OH230828   3.658   6.444   7.671
 3090TIP3    H130829   3.644   6.426   7.577
 3090TIP3    H230830   3.576   6.484   7.699
 3091TIP3   OH230831   3.941   3.698   0.078
 3091TIP3    H130832   3.977   3.621   0.034
 3091TIP3    H230833   3.918   3.666   0.165
 3092TIP3   OH230834   5.516   2.267   8.534
 3092TIP3    H130835   5.445   2.261   8.470
 3092TIP3    H230836   5.549   2.356   8.526
 3093TIP3   OH230837   1.593   3.672   7.199
 3093TIP3    H130838   1.607   3.589   7.155
 3093TIP3    H230839   1.539   3.723   7.138
 3094TIP3   OH230840   4.673   3.677   1.778
 3094TIP3    H130841   4.603   3.678   1.712
 3094TIP3    H230842   4.628   3.663   1.861
 3095TIP3   OH230843   1.185   2.699   6.767
 3095TIP3    H130844   1.168   2.736   6.854
 3095TIP3    H230845   1.205   2.774   6.712
 3096TIP3   OH230846   6.334   5.575   1.882
 3096TIP3    H130847   6.281   5.650   1.909
 3096TIP3    H230848   6.351   5.527   1.963
 3097TIP3   OH230849   5.880   3.613   1.126
 3097TIP3    H130850   5.788   3.585   1.124
 3097TIP3    H230851   5.876   3.709   1.128
 3098TIP3   OH230852   3.748   4.580   1.379
 3098TIP3    H130853   3.702   4.577   1.464
 3098TIP3    H230854   3.746   4.490   1.348
 3099TIP3   OH230855   6.462   0.482   2.326
 3099TIP3    H130856   6.448   0.549   2.259
 3099TIP3    H230857   6.556   0.483   2.342
 3100TIP3   OH230858   3.403   1.015   8.211
 3100TIP3    H130859   3.390   1.097   8.258
 3100TIP3    H230860   3.376   0.947   8.274
 3101TIP3   OH230861   4.495   1.843   1.020
 3101TIP3    H130862   4.430   1.867   0.954
 3101TIP3    H230863   4.451   1.858   1.104
 3102TIP3   OH230864   2.966   2.646   8.172
 3102TIP3    H130865   2.940   2.555   8.186
 3102TIP3    H230866   3.058   2.641   8.148
 3103TIP3   OH230867   1.711   4.131   7.481
 3103TIP3    H130868   1.672   4.062   7.428
 3103TIP3    H230869   1.734   4.088   7.563
 3104TIP3   OH230870   0.811   2.499   1.279
 3104TIP3    H130871   0.845   2.569   1.333
 3104TIP3    H230872   0.717   2.496   1.299
 3105TIP3   OH230873   0.312   2.879   7.628
 3105TIP3    H130874   0.224   2.848   7.608
 3105TIP3    H230875   0.335   2.935   7.554
 3106TIP3   OH230876   0.925   0.545   6.825
 3106TIP3    H130877   0.972   0.499   6.755
 3106TIP3    H230878   0.989   0.551   6.897
 3107TIP3   OH230879   0.320   6.568   7.256
 3107TIP3    H130880   0.239   6.518   7.267
 3107TIP3    H230881   0.311   6.643   7.315
 3108TIP3   OH230882   3.527   3.402   1.921
 3108TIP3    H130883   3.551   3.489   1.891
 3108TIP3    H230884   3.591   3.382   1.989
 3109TIP3   OH230885   3.316   5.825   1.755
 3109TIP3    H130886   3.332   5.852   1.845
 3109TIP3    H230887   3.248   5.886   1.724
 3110TIP3   OH230888   4.148   5.301   1.303
 3110TIP3    H130889   4.085   5.354   1.351
 3110TIP3    H230890   4.095   5.239   1.253
 3111TIP3   OH230891   4.976   4.483   7.291
 3111TIP3    H130892   5.051   4.452   7.341
 3111TIP3    H230893   4.994   4.454   7.201
 3112TIP3   OH230894   1.882   0.966   8.154
 3112TIP3    H130895   1.961   1.009   8.120
 3112TIP3    H230896   1.898   0.956   8.248
 3113TIP3   OH230897   4.107   4.669   1.759
 3113TIP3    H130898   4.152   4.607   1.816
 3113TIP3    H230899   4.176   4.727   1.726
 3114TIP3   OH230900   5.154   2.817   6.954
 3114TIP3    H130901   5.219   2.801   7.023
 3114TIP3    H230902   5.104   2.736   6.949
 3115TIP3   OH230903   5.709   1.047   0.076
 3115TIP3    H130904   5.743   1.134   0.052
 3115TIP3    H230905   5.716   1.044   0.171
 3116TIP3   OH230906   0.008   4.982   7.619
 3116TIP3    H130907   0.069   5.053   7.636
 3116TIP3    H230908   6.743   5.006   7.667
 3117TIP3   OH230909   0.289   6.089   8.756
 3117TIP3    H130910   0.318   6.139   0.042
 3117TIP3    H230911   0.361   6.029   8.738
 3118TIP3   OH230912   2.183   3.872   0.559
 3118TIP3    H130913   2.189   3.806   0.628
 3118TIP3    H230914   2.136   3.945   0.599
 3119TIP3   OH230915   1.072   5.244   7.905
 3119TIP3    H130916   1.136   5.180   7.935
 3119TIP3    H230917   1.087   5.321   7.960
 3120TIP3   OH230918   3.723   1.152   8.241
 3120TIP3    H130919   3.751   1.243   8.234
 3120TIP3    H230920   3.797   1.102   8.205
 3121TIP3   OH230921   2.462   0.103   1.166
 3121TIP3    H130922   2.527   0.033   1.164
 3121TIP3    H230923   2.514   0.183   1.177
 3122TIP3   OH230924   0.865   2.699   7.678
 3122TIP3    H130925   0.859   2.673   7.586
 3122TIP3    H230926   0.796   2.649   7.722
 3123TIP3   OH230927   5.070   0.321   8.486
 3123TIP3    H130928   5.120   0.266   8.547
 3123TIP3    H230929   4.997   0.265   8.458
 3124TIP3   OH230930   5.564   1.564   7.138
 3124TIP3    H130931   5.613   1.563   7.221
 3124TIP3    H230932   5.562   1.472   7.112
 3125TIP3   OH230933   0.671   0.911   8.299
 3125TIP3    H130934   0.601   0.856   8.334
 3125TIP3    H230935   0.703   0.960   8.375
 3126TIP3   OH230936   1.718   4.574   1.681
 3126TIP3    H130937   1.774   4.647   1.654
 3126TIP3    H230938   1.673   4.607   1.759
 3127TIP3   OH230939   5.245   2.582   1.345
 3127TIP3    H130940   5.325   2.529   1.337
 3127TIP3    H230941   5.176   2.528   1.307
 3128TIP3   OH230942   2.122   0.052   0.361
 3128TIP3    H130943   2.167   0.071   0.279
 3128TIP3    H230944   2.120   6.771   0.366
 3129TIP3   OH230945   1.323   4.590   0.731
 3129TIP3    H130946   1.393   4.630   0.680
 3129TIP3    H230947   1.253   4.656   0.730
 3130TIP3   OH230948   1.808   4.853   8.656
 3130TIP3    H130949   1.722   4.832   8.691
 3130TIP3    H230950   1.826   4.784   8.593
 3131TIP3   OH230951   0.637   6.390   0.740
 3131TIP3    H130952   0.598   6.316   0.694
 3131TIP3    H230953   0.722   6.404   0.698
 3132TIP3   OH230954   0.924   1.952   0.556
 3132TIP3    H130955   0.946   1.923   0.467
 3132TIP3    H230956   1.004   1.940   0.606
 3133TIP3   OH230957   4.295   4.354   1.118
 3133TIP3    H130958   4.292   4.285   1.185
 3133TIP3    H230959   4.212   4.401   1.129
 3134TIP3   OH230960   5.382   1.044   0.492
 3134TIP3    H130961   5.307   1.053   0.551
 3134TIP3    H230962   5.356   0.974   0.432
 3135TIP3   OH230963   4.439   2.309   0.310
 3135TIP3    H130964   4.398   2.338   0.392
 3135TIP3    H230965   4.533   2.316   0.327
 3136TIP3   OH230966   0.242   5.349   1.320
 3136TIP3    H130967   0.187   5.274   1.295
 3136TIP3    H230968   0.308   5.311   1.378
 3137TIP3   OH230969   0.709   5.266   8.575
 3137TIP3    H130970   0.731   5.331   8.508
 3137TIP3    H230971   0.710   5.182   8.528
 3138TIP3   OH230972   2.659   6.432   1.701
 3138TIP3    H130973   2.578   6.401   1.659
 3138TIP3    H230974   2.635   6.442   1.794
 3139TIP3   OH230975   6.421   4.825   1.486
 3139TIP3    H130976   6.509   4.802   1.457
 3139TIP3    H230977   6.433   4.856   1.576
 3140TIP3   OH230978   4.865   6.091   6.914
 3140TIP3    H130979   4.861   6.059   6.824
 3140TIP3    H230980   4.898   6.180   6.907
 3141TIP3   OH230981   2.247   4.769   6.350
 3141TIP3    H130982   2.247   4.733   6.261
 3141TIP3    H230983   2.336   4.803   6.362
 3142TIP3   OH230984   2.388   5.756   1.062
 3142TIP3    H130985   2.349   5.729   0.979
 3142TIP3    H230986   2.460   5.694   1.075
 3143TIP3   OH230987   6.011   2.681   1.208
 3143TIP3    H130988   6.068   2.705   1.281
 3143TIP3    H230989   5.925   2.668   1.248
 3144TIP3   OH230990   6.225   6.564   8.661
 3144TIP3    H130991   6.284   6.620   8.610
 3144TIP3    H230992   6.138   6.584   8.628
 3145TIP3   OH230993   5.684   1.101   8.563
 3145TIP3    H130994   5.760   1.115   8.620
 3145TIP3    H230995   5.657   1.011   8.581
 3146TIP3   OH230996   0.121   1.882   0.420
 3146TIP3    H130997   0.066   1.893   0.498
 3146TIP3    H230998   0.210   1.894   0.452
 3147TIP3   OH230999   0.364   1.731   6.859
 3147TIP3    H131000   0.398   1.667   6.796
 3147TIP3    H231001   0.269   1.719   6.857
 3148TIP3   OH231002   2.114   5.309   1.396
 3148TIP3    H131003   2.152   5.331   1.311
 3148TIP3    H231004   2.180   5.255   1.439
 3149TIP3   OH231005   4.497   6.096   0.531
 3149TIP3    H131006   4.588   6.072   0.512
 3149TIP3    H231007   4.501   6.190   0.551
 3150TIP3   OH231008   4.209   2.454   1.044
 3150TIP3    H131009   4.297   2.450   1.079
 3150TIP3    H231010   4.207   2.386   0.976
 3151TIP3   OH231011   5.987   4.767   0.694
 3151TIP3    H131012   6.036   4.833   0.645
 3151TIP3    H231013   5.919   4.816   0.740
 3152TIP3   OH231014   3.469   3.787   6.549
 3152TIP3    H131015   3.558   3.766   6.522
 3152TIP3    H231016   3.444   3.862   6.496
 3153TIP3   OH231017   2.319   1.135   0.119
 3153TIP3    H131018   2.258   1.084   0.173
 3153TIP3    H231019   2.270   1.154   0.039
 3154TIP3   OH231020   5.241   5.921   7.757
 3154TIP3    H131021   5.242   5.889   7.667
 3154TIP3    H231022   5.279   5.850   7.808
 3155TIP3   OH231023   2.233   4.952   0.087
 3155TIP3    H131024   2.192   4.999   0.159
 3155TIP3    H231025   2.162   4.935   0.025
 3156TIP3   OH231026   2.948   4.691   1.234
 3156TIP3    H131027   2.984   4.745   1.305
 3156TIP3    H231028   2.938   4.604   1.272
 3157TIP3   OH231029   5.180   2.866   1.473
 3157TIP3    H131030   5.274   2.855   1.490
 3157TIP3    H231031   5.149   2.777   1.455
 3158TIP3   OH231032   0.082   5.127   1.725
 3158TIP3    H131033   0.062   5.208   1.679
 3158TIP3    H231034   0.136   5.154   1.800
 3159TIP3   OH231035   4.598   3.502   7.898
 3159TIP3    H131036   4.577   3.588   7.862
 3159TIP3    H231037   4.658   3.463   7.834
 3160TIP3   OH231038   4.331   4.323   8.108
 3160TIP3    H131039   4.281   4.275   8.174
 3160TIP3    H231040   4.273   4.395   8.082
 3161TIP3   OH231041   5.690   5.817   0.073
 3161TIP3    H131042   5.703   5.756   0.146
 3161TIP3    H231043   5.596   5.813   0.055
 3162TIP3   OH231044   2.125   0.680   1.153
 3162TIP3    H131045   2.087   0.609   1.101
 3162TIP3    H231046   2.086   0.670   1.240
 3163TIP3   OH231047   5.780   0.891   1.943
 3163TIP3    H131048   5.767   0.934   2.028
 3163TIP3    H231049   5.849   0.942   1.901
 3164TIP3   OH231050   4.121   0.185   8.660
 3164TIP3    H131051   4.049   0.221   8.712
 3164TIP3    H231052   4.179   0.143   8.724
 3165TIP3   OH231053   2.349   6.475   1.791
 3165TIP3    H131054   2.326   6.386   1.766
 3165TIP3    H231055   2.294   6.531   1.735
 3166TIP3   OH231056   1.871   6.117   7.008
 3166TIP3    H131057   1.943   6.180   7.010
 3166TIP3    H231058   1.902   6.044   7.061
 3167TIP3   OH231059   5.789   0.097   8.511
 3167TIP3    H131060   5.768   0.024   8.453
 3167TIP3    H231061   5.883   0.110   8.502
 3168TIP3   OH231062   3.400   3.284   0.205
 3168TIP3    H131063   3.468   3.244   0.260
 3168TIP3    H231064   3.449   3.333   0.139
 3169TIP3   OH231065   0.887   0.743   8.165
 3169TIP3    H131066   0.821   0.808   8.189
 3169TIP3    H231067   0.897   0.689   8.243
 3170TIP3   OH231068   5.103   3.897   6.833
 3170TIP3    H131069   5.131   3.972   6.782
 3170TIP3    H231070   5.059   3.840   6.770
 3171TIP3   OH231071   3.700   4.333   6.942
 3171TIP3    H131072   3.791   4.305   6.939
 3171TIP3    H231073   3.681   4.365   6.854
 3172TIP3   OH231074   5.742   4.530   7.405
 3172TIP3    H131075   5.750   4.535   7.500
 3172TIP3    H231076   5.803   4.461   7.379
 3173TIP3   OH231077   3.195   0.883   8.376
 3173TIP3    H131078   3.175   0.789   8.371
 3173TIP3    H231079   3.136   0.917   8.443
 3174TIP3   OH231080   3.254   6.010   0.436
 3174TIP3    H131081   3.264   5.915   0.440
 3174TIP3    H231082   3.221   6.027   0.348
 3175TIP3   OH231083   4.745   0.677   1.452
 3175TIP3    H131084   4.663   0.694   1.407
 3175TIP3    H231085   4.794   0.620   1.393
 3176TIP3   OH231086   4.357   4.479   0.302
 3176TIP3    H131087   4.319   4.454   0.386
 3176TIP3    H231088   4.452   4.471   0.315
 3177TIP3   OH231089   6.580   1.403   8.467
 3177TIP3    H131090   6.610   1.452   8.390
 3177TIP3    H231091   6.572   1.470   8.536
 3178TIP3   OH231092   3.595   4.455   0.939
 3178TIP3    H131093   3.530   4.437   0.871
 3178TIP3    H231094   3.568   4.401   1.013
 3179TIP3   OH231095   5.238   2.144   7.048
 3179TIP3    H131096   5.194   2.160   6.964
 3179TIP3    H231097   5.238   2.229   7.091
 3180TIP3   OH231098   0.690   5.842   1.527
 3180TIP3    H131099   0.597   5.834   1.503
 3180TIP3    H231100   0.729   5.891   1.455
 3181TIP3   OH231101   5.628   1.085   0.817
 3181TIP3    H131102   5.706   1.135   0.796
 3181TIP3    H231103   5.650   1.037   0.896
 3182TIP3   OH231104   3.661   5.517   8.351
 3182TIP3    H131105   3.753   5.496   8.367
 3182TIP3    H231106   3.663   5.583   8.281
 3183TIP3   OH231107   6.028   2.732   7.087
 3183TIP3    H131108   6.063   2.664   7.030
 3183TIP3    H231109   6.072   2.718   7.171
 3184TIP3   OH231110   6.246   5.659   7.158
 3184TIP3    H131111   6.185   5.590   7.131
 3184TIP3    H231112   6.191   5.726   7.198
 3185TIP3   OH231113   0.164   5.723   7.680
 3185TIP3    H131114   0.078   5.752   7.649
 3185TIP3    H231115   0.177   5.639   7.635
 3186TIP3   OH231116   3.004   4.600   6.961
 3186TIP3    H131117   2.978   4.587   7.052
 3186TIP3    H231118   3.039   4.515   6.934
 3187TIP3   OH231119   1.720   3.356   8.717
 3187TIP3    H131120   1.727   3.353   8.621
 3187TIP3    H231121   1.648   3.417   8.734
 3188TIP3   OH231122   6.248   0.870   8.423
 3188TIP3    H131123   6.163   0.847   8.461
 3188TIP3    H231124   6.258   0.964   8.442
 3189TIP3   OH231125   6.282   6.310   8.770
 3189TIP3    H131126   6.258   6.373   8.702
 3189TIP3    H231127   6.337   6.360   0.040
 3190TIP3   OH231128   2.063   1.403   0.114
 3190TIP3    H131129   1.985   1.405   0.170
 3190TIP3    H231130   2.047   1.330   0.054
 3191TIP3   OH231131   2.122   1.672   8.109
 3191TIP3    H131132   2.093   1.763   8.119
 3191TIP3    H231133   2.160   1.650   8.194
 3192TIP3   OH231134   5.210   3.710   7.284
 3192TIP3    H131135   5.202   3.770   7.209
 3192TIP3    H231136   5.131   3.726   7.335
 3193TIP3   OH231137   5.718   4.178   7.474
 3193TIP3    H131138   5.766   4.222   7.404
 3193TIP3    H231139   5.647   4.238   7.497
 3194TIP3   OH231140   1.450   1.106   7.302
 3194TIP3    H131141   1.444   1.180   7.242
 3194TIP3    H231142   1.543   1.098   7.323
 3195TIP3   OH231143   2.489   1.914   1.863
 3195TIP3    H131144   2.518   1.948   1.778
 3195TIP3    H231145   2.556   1.851   1.888
 3196TIP3   OH231146   0.684   3.962   8.704
 3196TIP3    H131147   0.634   3.889   8.666
 3196TIP3    H231148   0.766   3.921   8.734
 3197TIP3   OH231149   6.537   5.561   1.247
 3197TIP3    H131150   6.504   5.472   1.240
 3197TIP3    H231151   6.467   5.610   1.291
 3198TIP3   OH231152   1.017   3.764   2.374
 3198TIP3    H131153   1.045   3.682   2.416
 3198TIP3    H231154   0.971   3.736   2.295
 3199TIP3   OH231155   6.763   2.160   0.845
 3199TIP3    H131156   6.733   2.179   0.756
 3199TIP3    H231157   0.034   2.118   0.833
 3200TIP3   OH231158   5.035   2.417   1.245
 3200TIP3    H131159   4.973   2.429   1.317
 3200TIP3    H231160   4.982   2.382   1.174
 3201TIP3   OH231161   6.279   3.537   0.925
 3201TIP3    H131162   6.284   3.496   1.012
 3201TIP3    H231163   6.218   3.481   0.876
 3202TIP3   OH231164   1.861   6.232   8.578
 3202TIP3    H131165   1.844   6.153   8.527
 3202TIP3    H231166   1.935   6.208   8.634
 3203TIP3   OH231167   2.033   2.490   1.316
 3203TIP3    H131168   2.055   2.501   1.223
 3203TIP3    H231169   1.939   2.507   1.320
 3204TIP3   OH231170   3.804   1.863   1.747
 3204TIP3    H131171   3.732   1.917   1.780
 3204TIP3    H231172   3.874   1.925   1.730
 3205TIP3   OH231173   2.432   1.762   0.671
 3205TIP3    H131174   2.365   1.826   0.695
 3205TIP3    H231175   2.514   1.801   0.704
 3206TIP3   OH231176   2.126   0.115   1.030
 3206TIP3    H131177   2.207   0.156   0.999
 3206TIP3    H231178   2.155   0.046   1.090
 3207TIP3   OH231179   0.503   5.797   1.090
 3207TIP3    H131180   0.519   5.789   1.184
 3207TIP3    H231181   0.473   5.887   1.078
 3208TIP3   OH231182   6.419   3.363   8.453
 3208TIP3    H131183   6.428   3.323   8.366
 3208TIP3    H231184   6.351   3.429   8.442
 3209TIP3   OH231185   5.422   2.030   7.324
 3209TIP3    H131186   5.353   2.059   7.383
 3209TIP3    H231187   5.380   2.024   7.239
 3210TIP3   OH231188   5.276   1.336   0.075
 3210TIP3    H131189   5.345   1.271   0.065
 3210TIP3    H231190   5.230   1.310   0.156
 3211TIP3   OH231191   6.320   5.168   0.933
 3211TIP3    H131192   6.363   5.083   0.927
 3211TIP3    H231193   6.270   5.175   0.851
 3212TIP3   OH231194   1.720   0.476   1.196
 3212TIP3    H131195   1.643   0.421   1.179
 3212TIP3    H231196   1.684   0.563   1.212
 3213TIP3   OH231197   0.843   1.305   7.043
 3213TIP3    H131198   0.888   1.226   7.073
 3213TIP3    H231199   0.894   1.377   7.080
 3214TIP3   OH231200   0.374   5.731   6.276
 3214TIP3    H131201   0.462   5.757   6.302
 3214TIP3    H231202   0.343   5.803   6.222
 3215TIP3   OH231203   2.629   0.348   1.165
 3215TIP3    H131204   2.568   0.405   1.119
 3215TIP3    H231205   2.673   0.406   1.228
 3216TIP3   OH231206   5.580   2.328   8.195
 3216TIP3    H131207   5.647   2.293   8.136
 3216TIP3    H231208   5.514   2.259   8.199
 3217TIP3   OH231209   2.966   2.843   6.501
 3217TIP3    H131210   2.944   2.762   6.454
 3217TIP3    H231211   3.058   2.859   6.479
 3218TIP3   OH231212   6.156   4.542   2.865
 3218TIP3    H131213   6.095   4.511   2.799
 3218TIP3    H231214   6.106   4.603   2.918
 3219TIP3   OH231215   0.609   0.606   8.697
 3219TIP3    H131216   0.574   0.563   8.618
 3219TIP3    H231217   0.531   0.636   8.744
 3220TIP3   OH231218   0.533   0.035   1.375
 3220TIP3    H131219   0.510   0.024   1.282
 3220TIP3    H231220   0.487   6.777   1.419
 3221TIP3   OH231221   1.050   0.770   7.174
 3221TIP3    H131222   1.075   0.759   7.265
 3221TIP3    H231223   1.129   0.750   7.124
 3222TIP3   OH231224   0.854   2.819   1.699
 3222TIP3    H131225   0.914   2.800   1.770
 3222TIP3    H231226   0.836   2.913   1.706
 3223TIP3   OH231227   6.537   3.878   1.172
 3223TIP3    H131228   6.488   3.847   1.248
 3223TIP3    H231229   6.628   3.879   1.201
 3224TIP3   OH231230   0.103   6.039   7.497
 3224TIP3    H131231   0.107   6.013   7.405
 3224TIP3    H231232   0.014   6.014   7.524
 3225TIP3   OH231233   2.670   5.701   0.180
 3225TIP3    H131234   2.628   5.784   0.199
 3225TIP3    H231235   2.726   5.720   0.104
 3226TIP3   OH231236   0.215   3.535   8.000
 3226TIP3    H131237   0.153   3.603   8.028
 3226TIP3    H231238   0.160   3.461   7.976
 3227TIP3   OH231239   5.513   1.359   8.132
 3227TIP3    H131240   5.488   1.441   8.090
 3227TIP3    H231241   5.472   1.291   8.078
 3228TIP3   OH231242   0.386   5.832   7.766
 3228TIP3    H131243   0.318   5.778   7.724
 3228TIP3    H231244   0.351   5.921   7.761
 3229TIP3   OH231245   1.567   5.947   1.066
 3229TIP3    H131246   1.638   5.996   1.026
 3229TIP3    H231247   1.494   5.954   1.004
 3230TIP3   OH231248   3.283   6.197   0.623
 3230TIP3    H131249   3.274   6.115   0.575
 3230TIP3    H231250   3.245   6.178   0.709
 3231TIP3   OH231251   3.208   1.865   1.099
 3231TIP3    H131252   3.279   1.929   1.105
 3231TIP3    H231253   3.128   1.918   1.112
 3232TIP3   OH231254   3.578   4.649   7.396
 3232TIP3    H131255   3.623   4.656   7.312
 3232TIP3    H231256   3.490   4.683   7.378
 3233TIP3   OH231257   6.207   4.636   0.873
 3233TIP3    H131258   6.200   4.540   0.878
 3233TIP3    H231259   6.141   4.660   0.807
 3234TIP3   OH231260   4.588   2.922   1.783
 3234TIP3    H131261   4.585   3.014   1.757
 3234TIP3    H231262   4.538   2.877   1.716
 3235TIP3   OH231263   1.584   3.835   1.073
 3235TIP3    H131264   1.489   3.823   1.074
 3235TIP3    H231265   1.600   3.911   1.128
 3236TIP3   OH231266   4.082   3.924   0.020
 3236TIP3    H131267   4.034   3.842   0.033
 3236TIP3    H231268   4.097   3.958   0.108
 3237TIP3   OH231269   4.843   1.264   6.516
 3237TIP3    H131270   4.755   1.241   6.486
 3237TIP3    H231271   4.849   1.359   6.502
 3238TIP3   OH231272   3.530   2.537   1.282
 3238TIP3    H131273   3.542   2.589   1.362
 3238TIP3    H231274   3.540   2.599   1.211
 3239TIP3   OH231275   2.704   1.753   1.908
 3239TIP3    H131276   2.785   1.797   1.882
 3239TIP3    H231277   2.715   1.662   1.881
 3240TIP3   OH231278   6.144   0.362   1.670
 3240TIP3    H131279   6.058   0.403   1.655
 3240TIP3    H231280   6.183   0.414   1.740
 3241TIP3   OH231281   3.139   2.190   7.375
 3241TIP3    H131282   3.056   2.174   7.419
 3241TIP3    H231283   3.149   2.116   7.315
 3242TIP3   OH231284   2.986   6.547   1.877
 3242TIP3    H131285   2.961   6.457   1.857
 3242TIP3    H231286   3.065   6.562   1.825
 3243TIP3   OH231287   0.979   6.536   6.344
 3243TIP3    H131288   1.069   6.504   6.353
 3243TIP3    H231289   0.983   6.627   6.373
 3244TIP3   OH231290   2.775   6.739   0.912
 3244TIP3    H131291   2.811   6.656   0.881
 3244TIP3    H231292   2.694   6.715   0.956
 3245TIP3   OH231293   2.269   0.617   8.217
 3245TIP3    H131294   2.324   0.556   8.167
 3245TIP3    H231295   2.284   0.702   8.176
 3246TIP3   OH231296   4.986   4.938   6.992
 3246TIP3    H131297   4.931   5.005   7.032
 3246TIP3    H231298   4.965   4.857   7.039
 3247TIP3   OH231299   4.483   0.427   8.213
 3247TIP3    H131300   4.552   0.445   8.150
 3247TIP3    H231301   4.482   0.503   8.270
 3248TIP3   OH231302   1.284   6.042   8.669
 3248TIP3    H131303   1.287   5.986   8.591
 3248TIP3    H231304   1.192   6.038   8.697
 3249TIP3   OH231305   4.721   3.977   1.757
 3249TIP3    H131306   4.812   3.993   1.733
 3249TIP3    H231307   4.726   3.911   1.826
 3250TIP3   OH231308   3.523   5.880   8.781
 3250TIP3    H131309   3.615   5.857   8.767
 3250TIP3    H231310   3.526   5.947   0.059
 3251TIP3   OH231311   5.696   6.011   7.196
 3251TIP3    H131312   5.648   5.982   7.119
 3251TIP3    H231313   5.780   6.042   7.162
 3252TIP3   OH231314   2.427   6.230   1.332
 3252TIP3    H131315   2.379   6.205   1.411
 3252TIP3    H231316   2.373   6.196   1.260
 3253TIP3   OH231317   3.481   6.608   7.332
 3253TIP3    H131318   3.564   6.654   7.319
 3253TIP3    H231319   3.499   6.519   7.301
 3254TIP3   OH231320   1.866   5.979   6.277
 3254TIP3    H131321   1.912   6.063   6.269
 3254TIP3    H231322   1.932   5.918   6.309
 3255TIP3   OH231323   2.984   3.886   0.366
 3255TIP3    H131324   2.979   3.982   0.364
 3255TIP3    H231325   3.054   3.867   0.428
 3256TIP3   OH231326   3.751   6.552   1.244
 3256TIP3    H131327   3.700   6.563   1.164
 3256TIP3    H231328   3.831   6.601   1.229
 3257TIP3   OH231329   4.584   1.555   7.139
 3257TIP3    H131330   4.598   1.648   7.119
 3257TIP3    H231331   4.524   1.525   7.071
 3258TIP3   OH231332   5.833   2.767   0.112
 3258TIP3    H131333   5.839   2.795   0.203
 3258TIP3    H231334   5.778   2.834   0.070
 3259TIP3   OH231335   5.764   3.292   1.979
 3259TIP3    H131336   5.708   3.214   1.974
 3259TIP3    H231337   5.706   3.362   2.010
 3260TIP3   OH231338   6.256   4.328   8.496
 3260TIP3    H131339   6.256   4.391   8.424
 3260TIP3    H231340   6.192   4.362   8.559
 3261TIP3   OH231341   0.986   2.796   7.027
 3261TIP3    H131342   0.944   2.738   6.963
 3261TIP3    H231343   0.917   2.859   7.050
 3262TIP3   OH231344   0.305   1.632   7.954
 3262TIP3    H131345   0.351   1.609   8.035
 3262TIP3    H231346   0.266   1.549   7.925
 3263TIP3   OH231347   2.253   3.240   8.768
 3263TIP3    H131348   2.247   3.288   8.685
 3263TIP3    H231349   2.203   3.293   0.039
 3264TIP3   OH231350   0.647   3.739   7.079
 3264TIP3    H131351   0.643   3.743   6.983
 3264TIP3    H231352   0.686   3.822   7.105
 3265TIP3   OH231353   5.340   2.698   1.125
 3265TIP3    H131354   5.345   2.667   1.216
 3265TIP3    H231355   5.366   2.790   1.129
 3266TIP3   OH231356   4.269   6.623   0.983
 3266TIP3    H131357   4.244   6.533   0.964
 3266TIP3    H231358   4.250   6.634   1.076
 3267TIP3   OH231359   6.261   6.348   1.570
 3267TIP3    H131360   6.257   6.254   1.551
 3267TIP3    H231361   6.324   6.355   1.641
 3268TIP3   OH231362   2.891   0.736   8.418
 3268TIP3    H131363   2.884   0.818   8.369
 3268TIP3    H231364   2.824   0.744   8.487
 3269TIP3   OH231365   4.513   2.988   0.789
 3269TIP3    H131366   4.450   2.917   0.791
 3269TIP3    H231367   4.598   2.944   0.780
 3270TIP3   OH231368   0.738   1.668   1.460
 3270TIP3    H131369   0.711   1.617   1.537
 3270TIP3    H231370   0.665   1.729   1.445
 3271TIP3   OH231371   3.695   5.543   7.958
 3271TIP3    H131372   3.698   5.636   7.981
 3271TIP3    H231373   3.602   5.523   7.950
 3272TIP3   OH231374   2.051   2.325   8.653
 3272TIP3    H131375   2.119   2.384   8.621
 3272TIP3    H231376   2.030   2.270   8.578
 3273TIP3   OH231377   4.519   0.566   2.342
 3273TIP3    H131378   4.429   0.589   2.319
 3273TIP3    H231379   4.530   0.600   2.431
 3274TIP3   OH231380   2.166   5.811   7.570
 3274TIP3    H131381   2.091   5.752   7.573
 3274TIP3    H231382   2.218   5.780   7.496
 3275TIP3   OH231383   1.274   6.398   1.626
 3275TIP3    H131384   1.241   6.311   1.603
 3275TIP3    H231385   1.352   6.380   1.679
 3276TIP3   OH231386   2.852   2.531   2.727
 3276TIP3    H131387   2.851   2.451   2.673
 3276TIP3    H231388   2.906   2.508   2.802
 3277TIP3   OH231389   6.735   3.624   8.436
 3277TIP3    H131390   6.723   3.561   8.507
 3277TIP3    H231391   6.649   3.664   8.423
 3278TIP3   OH231392   4.870   4.968   0.685
 3278TIP3    H131393   4.903   5.056   0.704
 3278TIP3    H231394   4.775   4.978   0.680
 3279TIP3   OH231395   1.382   2.233   0.129
 3279TIP3    H131396   1.395   2.154   0.076
 3279TIP3    H231397   1.287   2.242   0.137
 3280TIP3   OH231398   4.021   0.482   8.193
 3280TIP3    H131399   3.991   0.567   8.226
 3280TIP3    H231400   4.102   0.501   8.147
 3281TIP3   OH231401   3.504   1.412   2.176
 3281TIP3    H131402   3.431   1.461   2.138
 3281TIP3    H231403   3.581   1.443   2.128
 3282TIP3   OH231404   3.964   1.885   0.188
 3282TIP3    H131405   3.995   1.970   0.218
 3282TIP3    H231406   3.974   1.889   0.092
 3283TIP3   OH231407   5.855   0.213   7.499
 3283TIP3    H131408   5.781   0.222   7.439
 3283TIP3    H231409   5.839   0.130   7.544
 3284TIP3   OH231410   2.753   1.548   6.660
 3284TIP3    H131411   2.677   1.593   6.697
 3284TIP3    H231412   2.789   1.610   6.596
 3285TIP3   OH231413   6.721   4.656   0.466
 3285TIP3    H131414   6.643   4.629   0.417
 3285TIP3    H231415   6.710   4.616   0.552
 3286TIP3   OH231416   4.870   5.141   7.582
 3286TIP3    H131417   4.839   5.230   7.598
 3286TIP3    H231418   4.802   5.102   7.527
 3287TIP3   OH231419   6.086   4.333   0.455
 3287TIP3    H131420   6.085   4.407   0.393
 3287TIP3    H231421   6.051   4.370   0.536
 3288TIP3   OH231422   0.544   1.054   1.156
 3288TIP3    H131423   0.590   1.012   1.082
 3288TIP3    H231424   0.474   1.104   1.115
 3289TIP3   OH231425   0.955   1.997   7.281
 3289TIP3    H131426   0.885   1.970   7.222
 3289TIP3    H231427   1.013   2.049   7.226
 3290TIP3   OH231428   3.613   5.719   1.208
 3290TIP3    H131429   3.597   5.632   1.172
 3290TIP3    H231430   3.537   5.735   1.265
 3291TIP3   OH231431   4.160   6.329   8.413
 3291TIP3    H131432   4.244   6.358   8.449
 3291TIP3    H231433   4.096   6.346   8.482
 3292TIP3   OH231434   1.086   5.318   0.745
 3292TIP3    H131435   1.047   5.257   0.681
 3292TIP3    H231436   1.160   5.357   0.697
 3293TIP3   OH231437   4.438   4.486   7.222
 3293TIP3    H131438   4.531   4.467   7.230
 3293TIP3    H231439   4.407   4.427   7.154
 3294TIP3   OH231440   0.580   5.796   0.382
 3294TIP3    H131441   0.559   5.730   0.448
 3294TIP3    H231442   0.519   5.778   0.310
 3295TIP3   OH231443   4.487   1.265   7.899
 3295TIP3    H131444   4.451   1.260   7.987
 3295TIP3    H231445   4.544   1.188   7.891
 3296TIP3   OH231446   2.075   6.637   0.485
 3296TIP3    H131447   2.145   6.654   0.550
 3296TIP3    H231448   2.001   6.607   0.538
 3297TIP3   OH231449   1.903   6.803   7.180
 3297TIP3    H131450   1.965   6.736   7.207
 3297TIP3    H231451   1.888   0.041   7.259
 3298TIP3   OH231452   3.342   5.956   7.457
 3298TIP3    H131453   3.253   5.931   7.481
 3298TIP3    H231454   3.356   5.915   7.371
 3299TIP3   OH231455   5.663   6.586   1.653
 3299TIP3    H131456   5.570   6.565   1.643
 3299TIP3    H231457   5.664   6.676   1.685
 3300TIP3   OH231458   3.226   1.182   1.355
 3300TIP3    H131459   3.181   1.263   1.381
 3300TIP3    H231460   3.242   1.136   1.437
 3301TIP3   OH231461   4.761   5.714   7.402
 3301TIP3    H131462   4.809   5.638   7.369
 3301TIP3    H231463   4.733   5.761   7.323
 3302TIP3   OH231464   5.438   0.069   8.352
 3302TIP3    H131465   5.503   0.001   8.334
 3302TIP3    H231466   5.452   0.092   8.444
 3303TIP3   OH231467   0.837   0.476   1.211
 3303TIP3    H131468   0.816   0.407   1.275
 3303TIP3    H231469   0.870   0.548   1.263
 3304TIP3   OH231470   3.025   0.456   0.958
 3304TIP3    H131471   2.986   0.527   1.009
 3304TIP3    H231472   2.997   0.472   0.868
 3305TIP3   OH231473   1.286   1.337   8.155
 3305TIP3    H131474   1.266   1.302   8.242
 3305TIP3    H231475   1.378   1.361   8.159
 3306TIP3   OH231476   1.451   2.507   6.974
 3306TIP3    H131477   1.495   2.554   7.045
 3306TIP3    H231478   1.361   2.495   7.005
 3307TIP3   OH231479   0.006   2.434   7.633
 3307TIP3    H131480   6.791   2.343   7.635
 3307TIP3    H231481   6.740   2.485   7.632
 3308TIP3   OH231482   3.102   2.082   1.282
 3308TIP3    H131483   3.099   2.127   1.197
 3308TIP3    H231484   3.061   2.143   1.343
 3309TIP3   OH231485   1.925   6.807   1.722
 3309TIP3    H131486   1.951   0.017   1.811
 3309TIP3    H231487   1.831   0.012   1.719
 3310TIP3   OH231488   0.004   6.741   7.626
 3310TIP3    H131489   0.018   6.789   7.708
 3310TIP3    H231490   6.766   6.665   7.652
 3311TIP3   OH231491   1.937   4.249   7.109
 3311TIP3    H131492   1.907   4.161   7.085
 3311TIP3    H231493   2.028   4.252   7.080
 3312TIP3   OH231494   0.249   4.796   7.678
 3312TIP3    H131495   0.209   4.877   7.644
 3312TIP3    H231496   0.299   4.825   7.755
 3313TIP3   OH231497   4.825   4.489   1.506
 3313TIP3    H131498   4.735   4.514   1.485
 3313TIP3    H231499   4.839   4.521   1.595
 3314TIP3   OH231500   2.255   1.693   7.887
 3314TIP3    H131501   2.311   1.760   7.927
 3314TIP3    H231502   2.198   1.664   7.958
 3315TIP3   OH231503   4.406   1.149   0.345
 3315TIP3    H131504   4.389   1.243   0.347
 3315TIP3    H231505   4.498   1.141   0.372
 3316TIP3   OH231506   5.482   5.533   1.781
 3316TIP3    H131507   5.397   5.495   1.804
 3316TIP3    H231508   5.460   5.616   1.739
 3317TIP3   OH231509   6.064   1.305   7.301
 3317TIP3    H131510   5.985   1.254   7.285
 3317TIP3    H231511   6.037   1.374   7.361
 3318TIP3   OH231512   1.342   2.455   0.963
 3318TIP3    H131513   1.413   2.398   0.993
 3318TIP3    H231514   1.368   2.543   0.991
 3319TIP3   OH231515   4.528   2.946   8.466
 3319TIP3    H131516   4.589   2.965   8.537
 3319TIP3    H231517   4.569   2.984   8.388
 3320TIP3   OH231518   1.749   2.178   0.283
 3320TIP3    H131519   1.671   2.123   0.295
 3320TIP3    H231520   1.714   2.265   0.265
 3321TIP3   OH231521   4.432   5.874   7.193
 3321TIP3    H131522   4.369   5.803   7.204
 3321TIP3    H231523   4.419   5.903   7.102
 3322TIP3   OH231524   0.605   2.635   6.757
 3322TIP3    H131525   0.648   2.609   6.675
 3322TIP3    H231526   0.512   2.626   6.739
 3323TIP3   OH231527   0.027   5.085   8.484
 3323TIP3    H131528   0.103   5.042   8.524
 3323TIP3    H231529   6.812   5.024   8.416
 3324TIP3   OH231530   6.086   2.386   0.216
 3324TIP3    H131531   5.992   2.384   0.196
 3324TIP3    H231532   6.128   2.348   0.139
 3325TIP3   OH231533   2.560   1.708   1.467
 3325TIP3    H131534   2.618   1.752   1.529
 3325TIP3    H231535   2.551   1.620   1.502
 3326TIP3   OH231536   4.945   5.449   8.534
 3326TIP3    H131537   4.955   5.426   8.626
 3326TIP3    H231538   5.033   5.470   8.504
 3327TIP3   OH231539   2.323   2.059   8.269
 3327TIP3    H131540   2.370   2.108   8.202
 3327TIP3    H231541   2.231   2.086   8.259
 3328TIP3   OH231542   2.734   6.476   1.399
 3328TIP3    H131543   2.711   6.468   1.492
 3328TIP3    H231544   2.799   6.545   1.396
 3329TIP3   OH231545   3.577   3.064   8.480
 3329TIP3    H131546   3.549   3.154   8.492
 3329TIP3    H231547   3.498   3.012   8.499
 3330TIP3   OH231548   3.322   6.154   2.165
 3330TIP3    H131549   3.338   6.141   2.259
 3330TIP3    H231550   3.323   6.065   2.129
 3331TIP3   OH231551   6.618   3.977   2.176
 3331TIP3    H131552   6.619   4.071   2.195
 3331TIP3    H231553   6.624   3.935   2.261
 3332TIP3   OH231554   3.866   4.237   2.368
 3332TIP3    H131555   3.912   4.313   2.404
 3332TIP3    H231556   3.800   4.275   2.309
 3333TIP3   OH231557   4.727   0.379   0.928
 3333TIP3    H131558   4.652   0.432   0.952
 3333TIP3    H231559   4.803   0.429   0.957
 3334TIP3   OH231560   3.644   2.677   0.340
 3334TIP3    H131561   3.648   2.622   0.262
 3334TIP3    H231562   3.574   2.740   0.322
 3335TIP3   OH231563   3.315   3.066   0.069
 3335TIP3    H131564   3.324   3.129   0.140
 3335TIP3    H231565   3.398   3.068   0.022
 3336TIP3   OH231566   2.919   1.552   8.412
 3336TIP3    H131567   2.992   1.519   8.463
 3336TIP3    H231568   2.912   1.645   8.435
 3337TIP3   OH231569   3.168   2.632   0.674
 3337TIP3    H131570   3.171   2.548   0.719
 3337TIP3    H231571   3.123   2.691   0.734
 3338TIP3   OH231572   6.784   3.832   1.299
 3338TIP3    H131573   0.035   3.762   1.305
 3338TIP3    H231574   6.765   3.854   1.390
 3339TIP3   OH231575   5.147   1.209   0.684
 3339TIP3    H131576   5.110   1.131   0.642
 3339TIP3    H231577   5.197   1.174   0.758
 3340TIP3   OH231578   5.892   2.203   7.112
 3340TIP3    H131579   5.917   2.242   7.028
 3340TIP3    H231580   5.796   2.204   7.111
 3341TIP3   OH231581   5.637   0.249   7.306
 3341TIP3    H131582   5.623   0.340   7.277
 3341TIP3    H231583   5.651   0.200   7.224
 3342TIP3   OH231584   5.083   4.051   1.624
 3342TIP3    H131585   5.082   4.144   1.646
 3342TIP3    H231586   5.072   4.007   1.709
 3343TIP3   OH231587   1.823   5.625   1.805
 3343TIP3    H131588   1.910   5.634   1.766
 3343TIP3    H231589   1.784   5.550   1.760
 3344TIP3   OH231590   1.324   3.201   8.536
 3344TIP3    H131591   1.275   3.123   8.564
 3344TIP3    H231592   1.257   3.262   8.506
 3345TIP3   OH231593   1.341   3.343   0.294
 3345TIP3    H131594   1.401   3.273   0.319
 3345TIP3    H231595   1.302   3.314   0.211
 3346TIP3   OH231596   5.702   2.602   0.524
 3346TIP3    H131597   5.743   2.549   0.456
 3346TIP3    H231598   5.726   2.692   0.503
 3347TIP3   OH231599   0.491   5.576   8.533
 3347TIP3    H131600   0.556   5.531   8.478
 3347TIP3    H231601   0.486   5.521   8.612
 3348TIP3   OH231602   1.627   5.621   1.017
 3348TIP3    H131603   1.667   5.668   1.090
 3348TIP3    H231604   1.539   5.656   1.012
 3349TIP3   OH231605   0.928   5.543   6.718
 3349TIP3    H131606   0.876   5.486   6.660
 3349TIP3    H231607   1.011   5.554   6.672
 3350TIP3   OH231608   6.668   0.266   1.025
 3350TIP3    H131609   6.580   0.259   0.986
 3350TIP3    H231610   6.652   0.260   1.119
 3351TIP3   OH231611   3.974   1.052   7.921
 3351TIP3    H131612   3.897   1.109   7.925
 3351TIP3    H231613   4.016   1.074   7.838
 3352TIP3   OH231614   5.026   2.360   8.748
 3352TIP3    H131615   5.100   2.314   8.708
 3352TIP3    H231616   5.061   2.447   8.767
 3353TIP3   OH231617   2.381   6.774   0.467
 3353TIP3    H131618   2.394   6.779   0.373
 3353TIP3    H231619   2.301   0.009   0.483
 3354TIP3   OH231620   6.275   1.040   0.135
 3354TIP3    H131621   6.181   1.046   0.150
 3354TIP3    H231622   6.284   1.011   0.044
 3355TIP3   OH231623   4.552   0.603   0.296
 3355TIP3    H131624   4.526   0.512   0.288
 3355TIP3    H231625   4.478   0.653   0.260
 3356TIP3   OH231626   1.313   4.999   0.247
 3356TIP3    H131627   1.346   4.984   0.335
 3356TIP3    H231628   1.389   5.032   0.198
 3357TIP3   OH231629   3.910   1.848   0.863
 3357TIP3    H131630   3.883   1.940   0.861
 3357TIP3    H231631   3.875   1.810   0.783
 3358TIP3   OH231632   0.908   1.593   7.425
 3358TIP3    H131633   0.918   1.677   7.469
 3358TIP3    H231634   0.916   1.528   7.495
 3359TIP3   OH231635   6.570   4.612   7.358
 3359TIP3    H131636   6.536   4.643   7.274
 3359TIP3    H231637   6.551   4.518   7.358
 3360TIP3   OH231638   1.059   0.972   0.271
 3360TIP3    H131639   1.120   1.044   0.285
 3360TIP3    H231640   1.036   0.977   0.178
 3361TIP3   OH231641   2.435   4.921   1.506
 3361TIP3    H131642   2.469   4.844   1.550
 3361TIP3    H231643   2.410   4.890   1.419
 3362TIP3   OH231644   0.277   2.095   1.069
 3362TIP3    H131645   0.329   2.111   0.990
 3362TIP3    H231646   0.233   2.012   1.053
 3363TIP3   OH231647   6.537   3.835   0.592
 3363TIP3    H131648   6.632   3.845   0.599
 3363TIP3    H231649   6.518   3.752   0.637
 3364TIP3   OH231650   0.440   6.158   6.453
 3364TIP3    H131651   0.512   6.221   6.449
 3364TIP3    H231652   0.482   6.074   6.436
 3365TIP3   OH231653   0.902   4.536   7.156
 3365TIP3    H131654   0.983   4.494   7.186
 3365TIP3    H231655   0.915   4.629   7.175
 3366TIP3   OH231656   3.829   6.188   2.434
 3366TIP3    H131657   3.787   6.237   2.363
 3366TIP3    H231658   3.905   6.241   2.457
 3367TIP3   OH231659   0.936   2.255   7.033
 3367TIP3    H131660   1.007   2.194   7.051
 3367TIP3    H231661   0.860   2.199   7.016
 3368TIP3   OH231662   2.237   0.659   2.555
 3368TIP3    H131663   2.175   0.676   2.626
 3368TIP3    H231664   2.182   0.647   2.478
 3369TIP3   OH231665   2.314   0.173   6.539
 3369TIP3    H131666   2.233   0.146   6.583
 3369TIP3    H231667   2.342   0.251   6.587
 3370TIP3   OH231668   5.402   3.577   0.279
 3370TIP3    H131669   5.405   3.490   0.241
 3370TIP3    H231670   5.456   3.631   0.221
 3371TIP3   OH231671   2.718   3.338   0.990
 3371TIP3    H131672   2.699   3.369   0.901
 3371TIP3    H231673   2.724   3.243   0.981
 3372TIP3   OH231674   2.222   1.195   7.625
 3372TIP3    H131675   2.267   1.273   7.590
 3372TIP3    H231676   2.141   1.190   7.575
 3373TIP3   OH231677   6.000   1.010   7.932
 3373TIP3    H131678   5.920   1.049   7.965
 3373TIP3    H231679   6.065   1.027   8.001
 3374TIP3   OH231680   1.798   6.649   8.761
 3374TIP3    H131681   1.784   6.711   8.689
 3374TIP3    H231682   1.851   6.579   8.723
 3375TIP3   OH231683   5.835   6.805   7.828
 3375TIP3    H131684   5.908   0.020   7.882
 3375TIP3    H231685   5.793   6.737   7.879
 3376TIP3   OH231686   5.349   1.155   2.416
 3376TIP3    H131687   5.260   1.189   2.411
 3376TIP3    H231688   5.402   1.230   2.444
 3377TIP3   OH231689   5.636   1.858   8.176
 3377TIP3    H131690   5.564   1.814   8.221
 3377TIP3    H231691   5.715   1.820   8.215
 3378TIP3   OH231692   3.214   0.528   6.794
 3378TIP3    H131693   3.159   0.581   6.737
 3378TIP3    H231694   3.153   0.472   6.842
 3379TIP3   OH231695   2.435   0.052   8.761
 3379TIP3    H131696   2.493   6.814   8.705
 3379TIP3    H231697   2.478   0.138   8.765
 3380TIP3   OH231698   6.432   6.732   8.571
 3380TIP3    H131699   6.470   6.790   8.505
 3380TIP3    H231700   6.431   6.784   8.651
 3381TIP3   OH231701   3.195   0.713   8.061
 3381TIP3    H131702   3.248   0.659   8.120
 3381TIP3    H231703   3.258   0.773   8.021
 3382TIP3   OH231704   6.156   0.366   0.349
 3382TIP3    H131705   6.075   0.333   0.390
 3382TIP3    H231706   6.138   0.458   0.333
 3383TIP3   OH231707   2.374   0.783   0.365
 3383TIP3    H131708   2.463   0.809   0.390
 3383TIP3    H231709   2.320   0.859   0.384
 3384TIP3   OH231710   0.076   1.401   1.606
 3384TIP3    H131711   0.079   1.434   1.516
 3384TIP3    H231712   0.110   1.474   1.658
 3385TIP3   OH231713   5.164   4.518   6.471
 3385TIP3    H131714   5.212   4.454   6.524
 3385TIP3    H231715   5.165   4.598   6.524
 3386TIP3   OH231716   2.663   0.633   0.483
 3386TIP3    H131717   2.662   0.713   0.536
 3386TIP3    H231718   2.570   0.608   0.475
 3387TIP3   OH231719   5.071   6.108   7.582
 3387TIP3    H131720   5.124   6.175   7.539
 3387TIP3    H231721   5.059   6.040   7.516
 3388TIP3   OH231722   5.743   2.573   0.810
 3388TIP3    H131723   5.760   2.584   0.717
 3388TIP3    H231724   5.812   2.625   0.853
 3389TIP3   OH231725   3.623   4.947   7.191
 3389TIP3    H131726   3.710   4.987   7.183
 3389TIP3    H231727   3.564   5.021   7.208
 3390TIP3   OH231728   2.720   5.965   6.550
 3390TIP3    H131729   2.626   5.986   6.553
 3390TIP3    H231730   2.763   6.050   6.557
 3391TIP3   OH231731   2.245   5.576   6.988
 3391TIP3    H131732   2.158   5.591   6.950
 3391TIP3    H231733   2.301   5.556   6.913
 3392TIP3   OH231734   6.729   4.049   7.187
 3392TIP3    H131735   6.720   4.028   7.094
 3392TIP3    H231736   6.668   3.991   7.231
 3393TIP3   OH231737   1.919   1.034   6.876
 3393TIP3    H131738   1.923   1.125   6.847
 3393TIP3    H231739   2.010   1.006   6.878
 3394TIP3   OH231740   6.005   3.272   2.184
 3394TIP3    H131741   5.910   3.272   2.170
 3394TIP3    H231742   6.024   3.360   2.215
 3395TIP3   OH231743   4.018   5.871   2.046
 3395TIP3    H131744   4.081   5.921   2.097
 3395TIP3    H231745   3.947   5.933   2.028
 3396TIP3   OH231746   5.045   0.239   0.843
 3396TIP3    H131747   4.970   0.224   0.900
 3396TIP3    H231748   5.115   0.267   0.902
 3397TIP3   OH231749   3.577   4.299   7.232
 3397TIP3    H131750   3.607   4.286   7.142
 3397TIP3    H231751   3.488   4.333   7.222
 3398TIP3   OH231752   4.462   3.151   1.142
 3398TIP3    H131753   4.532   3.100   1.101
 3398TIP3    H231754   4.391   3.151   1.077
 3399TIP3   OH231755   6.362   6.283   1.254
 3399TIP3    H131756   6.334   6.193   1.237
 3399TIP3    H231757   6.282   6.330   1.278
 3400TIP3   OH231758   4.090   4.406   1.983
 3400TIP3    H131759   4.023   4.438   2.043
 3400TIP3    H231760   4.167   4.391   2.038
 3401TIP3   OH231761   2.029   2.305   0.830
 3401TIP3    H131762   2.003   2.220   0.795
 3401TIP3    H231763   2.078   2.346   0.759
 3402TIP3   OH231764   1.846   0.184   7.677
 3402TIP3    H131765   1.862   0.090   7.668
 3402TIP3    H231766   1.871   0.221   7.593
 3403TIP3   OH231767   2.963   5.525   2.292
 3403TIP3    H131768   3.006   5.439   2.291
 3403TIP3    H231769   3.007   5.573   2.362
 3404TIP3   OH231770   4.187   4.384   7.680
 3404TIP3    H131771   4.192   4.391   7.775
 3404TIP3    H231772   4.131   4.458   7.654
 3405TIP3   OH231773   3.222   2.674   7.666
 3405TIP3    H131774   3.234   2.746   7.728
 3405TIP3    H231775   3.236   2.713   7.581
 3406TIP3   OH231776   3.687   4.443   6.670
 3406TIP3    H131777   3.713   4.352   6.655
 3406TIP3    H231778   3.711   4.488   6.589
 3407TIP3   OH231779   4.684   0.348   0.233
 3407TIP3    H131780   4.611   0.315   0.285
 3407TIP3    H231781   4.643   0.385   0.154
 3408TIP3   OH231782   3.575   6.253   8.369
 3408TIP3    H131783   3.625   6.215   8.442
 3408TIP3    H231784   3.642   6.277   8.305
 3409TIP3   OH231785   5.869   1.722   0.683
 3409TIP3    H131786   5.824   1.723   0.768
 3409TIP3    H231787   5.819   1.660   0.630
 3410TIP3   OH231788   1.431   3.894   7.883
 3410TIP3    H131789   1.511   3.850   7.853
 3410TIP3    H231790   1.364   3.825   7.883
 3411TIP3   OH231791   6.526   5.722   1.726
 3411TIP3    H131792   6.565   5.666   1.794
 3411TIP3    H231793   6.438   5.685   1.712
 3412TIP3   OH231794   4.282   4.672   0.950
 3412TIP3    H131795   4.192   4.698   0.929
 3412TIP3    H231796   4.310   4.735   1.017
 3413TIP3   OH231797   3.414   3.176   0.724
 3413TIP3    H131798   3.348   3.157   0.658
 3413TIP3    H231799   3.366   3.214   0.797
 3414TIP3   OH231800   3.892   4.656   8.626
 3414TIP3    H131801   3.873   4.583   8.567
 3414TIP3    H231802   3.925   4.725   8.569
 3415TIP3   OH231803   3.959   3.221   7.934
 3415TIP3    H131804   3.945   3.309   7.900
 3415TIP3    H231805   3.879   3.174   7.912
 3416TIP3   OH231806   3.362   3.251   0.977
 3416TIP3    H131807   3.276   3.255   1.017
 3416TIP3    H231808   3.404   3.175   1.016
 3417TIP3   OH231809   1.948   6.618   1.549
 3417TIP3    H131810   1.949   6.684   1.619
 3417TIP3    H231811   2.038   6.585   1.545
 3418TIP3   OH231812   5.370   5.268   1.082
 3418TIP3    H131813   5.371   5.172   1.078
 3418TIP3    H231814   5.459   5.294   1.062
 3419TIP3   OH231815   2.806   3.635   1.383
 3419TIP3    H131816   2.775   3.628   1.473
 3419TIP3    H231817   2.745   3.581   1.332
 3420TIP3   OH231818   5.866   1.236   8.737
 3420TIP3    H131819   5.881   1.277   0.032
 3420TIP3    H231820   5.942   1.263   8.685
 3421TIP3   OH231821   6.281   4.334   7.230
 3421TIP3    H131822   6.366   4.359   7.193
 3421TIP3    H231823   6.251   4.411   7.278
 3422TIP3   OH231824   5.084   0.330   1.158
 3422TIP3    H131825   5.172   0.345   1.125
 3422TIP3    H231826   5.085   0.365   1.247
 3423TIP3   OH231827   6.067   4.811   2.929
 3423TIP3    H131828   6.067   4.782   2.838
 3423TIP3    H231829   5.992   4.870   2.936
 3424TIP3   OH231830   0.725   5.510   2.092
 3424TIP3    H131831   0.714   5.417   2.072
 3424TIP3    H231832   0.647   5.534   2.141
 3425TIP3   OH231833   1.165   1.847   1.612
 3425TIP3    H131834   1.240   1.895   1.647
 3425TIP3    H231835   1.135   1.792   1.685
 3426TIP3   OH231836   3.748   5.663   0.155
 3426TIP3    H131837   3.657   5.646   0.180
 3426TIP3    H231838   3.798   5.594   0.199
 3427TIP3   OH231839   5.992   6.599   8.526
 3427TIP3    H131840   5.990   6.625   8.434
 3427TIP3    H231841   5.900   6.593   8.551
 3428TIP3   OH231842   4.626   2.417   8.464
 3428TIP3    H131843   4.586   2.394   8.381
 3428TIP3    H231844   4.717   2.388   8.455
 3429TIP3   OH231845   1.746   1.685   1.168
 3429TIP3    H131846   1.785   1.740   1.235
 3429TIP3    H231847   1.814   1.674   1.102
 3430TIP3   OH231848   2.290   5.184   2.150
 3430TIP3    H131849   2.225   5.219   2.210
 3430TIP3    H231850   2.351   5.135   2.205
 3431TIP3   OH231851   5.341   1.799   8.063
 3431TIP3    H131852   5.380   1.881   8.034
 3431TIP3    H231853   5.368   1.734   7.997
 3432TIP3   OH231854   6.593   0.410   7.306
 3432TIP3    H131855   6.679   0.368   7.310
 3432TIP3    H231856   6.550   0.369   7.231
 3433TIP3   OH231857   2.711   3.578   8.352
 3433TIP3    H131858   2.722   3.653   8.294
 3433TIP3    H231859   2.707   3.503   8.293
 3434TIP3   OH231860   2.656   1.247   8.574
 3434TIP3    H131861   2.576   1.293   8.601
 3434TIP3    H231862   2.628   1.156   8.560
 3435TIP3   OH231863   4.413   0.496   2.814
 3435TIP3    H131864   4.435   0.584   2.784
 3435TIP3    H231865   4.352   0.463   2.748
 3436TIP3   OH231866   1.913   0.884   1.366
 3436TIP3    H131867   1.960   0.801   1.358
 3436TIP3    H231868   1.940   0.919   1.451
 3437TIP3   OH231869   0.193   1.836   8.091
 3437TIP3    H131870   0.236   1.765   8.044
 3437TIP3    H231871   0.182   1.905   8.025
 3438TIP3   OH231872   0.446   4.051   7.637
 3438TIP3    H131873   0.416   3.981   7.579
 3438TIP3    H231874   0.468   4.123   7.578
 3439TIP3   OH231875   6.296   1.984   0.690
 3439TIP3    H131876   6.214   1.936   0.700
 3439TIP3    H231877   6.279   2.070   0.727
 3440TIP3   OH231878   0.572   0.786   1.797
 3440TIP3    H131879   0.608   0.798   1.885
 3440TIP3    H231880   0.479   0.765   1.812
 3441TIP3   OH231881   4.665   3.446   8.362
 3441TIP3    H131882   4.684   3.464   8.455
 3441TIP3    H231883   4.606   3.370   8.364
 3442TIP3   OH231884   1.603   4.718   1.876
 3442TIP3    H131885   1.584   4.798   1.925
 3442TIP3    H231886   1.518   4.687   1.845
 3443TIP3   OH231887   2.999   0.647   7.692
 3443TIP3    H131888   3.049   0.574   7.657
 3443TIP3    H231889   2.983   0.625   7.783
 3444TIP3   OH231890   2.684   4.129   1.443
 3444TIP3    H131891   2.653   4.040   1.428
 3444TIP3    H231892   2.619   4.185   1.400
 3445TIP3   OH231893   3.759   6.691   0.628
 3445TIP3    H131894   3.786   6.703   0.719
 3445TIP3    H231895   3.821   6.742   0.577
 3446TIP3   OH231896   6.168   0.197   0.697
 3446TIP3    H131897   6.150   0.183   0.790
 3446TIP3    H231898   6.224   0.274   0.695
 3447TIP3   OH231899   5.795   2.304   7.608
 3447TIP3    H131900   5.759   2.268   7.689
 3447TIP3    H231901   5.730   2.281   7.541
 3448TIP3   OH231902   3.540   6.373   7.170
 3448TIP3    H131903   3.607   6.428   7.129
 3448TIP3    H231904   3.514   6.312   7.101
 3449TIP3   OH231905   5.223   0.755   8.655
 3449TIP3    H131906   5.200   0.848   8.658
 3449TIP3    H231907   5.166   0.718   8.588
 3450TIP3   OH231908   5.592   0.711   1.443
 3450TIP3    H131909   5.680   0.739   1.470
 3450TIP3    H231910   5.537   0.727   1.520
 3451TIP3   OH231911   6.428   3.958   1.657
 3451TIP3    H131912   6.424   3.881   1.714
 3451TIP3    H231913   6.387   3.929   1.575
 3452TIP3   OH231914   4.749   5.048   1.594
 3452TIP3    H131915   4.737   5.069   1.686
 3452TIP3    H231916   4.663   5.062   1.555
 3453TIP3   OH231917   3.576   3.141   8.780
 3453TIP3    H131918   3.581   3.150   8.685
 3453TIP3    H231919   3.636   3.207   0.023
 3454TIP3   OH231920   0.889   3.178   8.479
 3454TIP3    H131921   0.805   3.161   8.437
 3454TIP3    H231922   0.929   3.091   8.489
 3455TIP3   OH231923   4.310   0.989   8.230
 3455TIP3    H131924   4.333   0.931   8.303
 3455TIP3    H231925   4.291   0.929   8.158
 3456TIP3   OH231926   6.212   3.192   8.475
 3456TIP3    H131927   6.297   3.219   8.442
 3456TIP3    H231928   6.164   3.274   8.489
 3457TIP3   OH231929   5.971   1.467   1.392
 3457TIP3    H131930   6.027   1.498   1.463
 3457TIP3    H231931   5.899   1.530   1.388
 3458TIP3   OH231932   1.531   5.076   6.889
 3458TIP3    H131933   1.547   5.047   6.799
 3458TIP3    H231934   1.457   5.023   6.919
 3459TIP3   OH231935   3.472   4.422   6.490
 3459TIP3    H131936   3.537   4.445   6.557
 3459TIP3    H231937   3.427   4.346   6.526
 3460TIP3   OH231938   6.078   5.339   1.263
 3460TIP3    H131939   6.032   5.330   1.179
 3460TIP3    H231940   6.018   5.300   1.327
 3461TIP3   OH231941   3.294   1.405   0.684
 3461TIP3    H131942   3.213   1.401   0.634
 3461TIP3    H231943   3.292   1.326   0.739
 3462TIP3   OH231944   0.662   0.498   1.777
 3462TIP3    H131945   0.637   0.519   1.687
 3462TIP3    H231946   0.582   0.507   1.828
 3463TIP3   OH231947   2.515   6.710   1.829
 3463TIP3    H131948   2.484   6.622   1.807
 3463TIP3    H231949   2.599   6.696   1.872
 3464TIP3   OH231950   4.065   5.215   1.599
 3464TIP3    H131951   4.016   5.250   1.673
 3464TIP3    H231952   4.005   5.153   1.558
 3465TIP3   OH231953   4.891   2.141   8.170
 3465TIP3    H131954   4.833   2.185   8.108
 3465TIP3    H231955   4.955   2.096   8.115
 3466TIP3   OH231956   4.733   0.516   2.134
 3466TIP3    H131957   4.650   0.500   2.178
 3466TIP3    H231958   4.800   0.506   2.202
 3467TIP3   OH231959   4.932   4.255   8.782
 3467TIP3    H131960   4.847   4.298   8.781
 3467TIP3    H231961   4.921   4.177   8.728
 3468TIP3   OH231962   5.044   0.211   1.828
 3468TIP3    H131963   5.017   0.217   1.736
 3468TIP3    H231964   5.034   0.300   1.862
 3469TIP3   OH231965   4.873   6.752   7.002
 3469TIP3    H131966   4.817   6.789   7.070
 3469TIP3    H231967   4.870   0.002   6.931
 3470TIP3   OH231968   3.162   0.491   7.538
 3470TIP3    H131969   3.108   0.540   7.476
 3470TIP3    H231970   3.224   0.556   7.572
 3471TIP3   OH231971   3.415   1.976   0.043
 3471TIP3    H131972   3.387   1.980   8.742
 3471TIP3    H231973   3.497   2.026   0.045
 3472TIP3   OH231974   2.632   3.036   0.217
 3472TIP3    H131975   2.596   3.036   0.129
 3472TIP3    H231976   2.556   3.048   0.274
 3473TIP3   OH231977   2.649   3.566   0.471
 3473TIP3    H131978   2.573   3.521   0.434
 3473TIP3    H231979   2.616   3.652   0.495
 3474TIP3   OH231980   6.169   6.727   1.993
 3474TIP3    H131981   6.243   6.689   1.946
 3474TIP3    H231982   6.179   0.007   1.981
 3475TIP3   OH231983   5.628   2.866   8.218
 3475TIP3    H131984   5.632   2.947   8.270
 3475TIP3    H231985   5.708   2.819   8.242
 3476TIP3   OH231986   4.779   0.864   0.308
 3476TIP3    H131987   4.814   0.826   0.388
 3476TIP3    H231988   4.734   0.943   0.336
 3477TIP3   OH231989   2.297   3.858   7.517
 3477TIP3    H131990   2.361   3.850   7.588
 3477TIP3    H231991   2.346   3.838   7.438
 3478TIP3   OH231992   6.213   3.781   8.703
 3478TIP3    H131993   6.280   3.826   8.755
 3478TIP3    H231994   6.182   3.848   8.642
 3479TIP3   OH231995   1.378   2.704   7.214
 3479TIP3    H131996   1.420   2.766   7.154
 3479TIP3    H231997   1.447   2.642   7.237
 3480TIP3   OH231998   4.214   3.697   1.460
 3480TIP3    H131999   4.219   3.623   1.520
 3480TIP3    H232000   4.285   3.755   1.487
 3481TIP3   OH232001   6.041   3.186   1.784
 3481TIP3    H132002   6.065   3.113   1.727
 3481TIP3    H232003   5.984   3.241   1.730
 3482TIP3   OH232004   4.255   0.988   8.767
 3482TIP3    H132005   4.285   1.076   8.746
 3482TIP3    H232006   4.160   0.990   8.753
 3483TIP3   OH232007   2.856   0.103   7.614
 3483TIP3    H132008   2.863   0.118   7.519
 3483TIP3    H232009   2.929   0.153   7.651
 3484TIP3   OH232010   1.840   5.363   1.381
 3484TIP3    H132011   1.935   5.369   1.377
 3484TIP3    H232012   1.819   5.275   1.349
 3485TIP3   OH232013   2.558   1.005   0.422
 3485TIP3    H132014   2.589   1.052   0.344
 3485TIP3    H232015   2.465   1.029   0.429
 3486TIP3   OH232016   6.703   0.357   8.158
 3486TIP3    H132017   6.632   0.408   8.118
 3486TIP3    H232018   6.781   0.411   8.145
 3487TIP3   OH232019   6.350   4.920   7.890
 3487TIP3    H132020   6.348   5.015   7.904
 3487TIP3    H232021   6.432   4.904   7.844
 3488TIP3   OH232022   0.562   5.669   7.467
 3488TIP3    H132023   0.607   5.716   7.396
 3488TIP3    H232024   0.469   5.683   7.450
 3489TIP3   OH232025   2.411   2.109   0.980
 3489TIP3    H132026   2.468   2.041   1.018
 3489TIP3    H232027   2.341   2.120   1.044
 3490TIP3   OH232028   4.757   2.490   7.733
 3490TIP3    H132029   4.833   2.549   7.731
 3490TIP3    H232030   4.745   2.463   7.642
 3491TIP3   OH232031   1.185   6.168   1.817
 3491TIP3    H132032   1.256   6.216   1.858
 3491TIP3    H232033   1.107   6.192   1.868
 3492TIP3   OH232034   0.861   3.460   2.023
 3492TIP3    H132035   0.883   3.377   1.980
 3492TIP3    H232036   0.847   3.436   2.115
 3493TIP3   OH232037   1.014   4.251   1.297
 3493TIP3    H132038   1.020   4.344   1.279
 3493TIP3    H232039   1.000   4.211   1.211
 3494TIP3   OH232040   4.981   6.792   1.391
 3494TIP3    H132041   4.964   6.703   1.360
 3494TIP3    H232042   5.018   6.780   1.479
 3495TIP3   OH232043   1.125   3.501   7.463
 3495TIP3    H132044   1.041   3.502   7.510
 3495TIP3    H232045   1.177   3.568   7.507
 3496TIP3   OH232046   1.947   1.664   0.994
 3496TIP3    H132047   1.920   1.585   0.946
 3496TIP3    H232048   2.016   1.702   0.940
 3497TIP3   OH232049   0.869   3.311   8.778
 3497TIP3    H132050   0.880   3.224   8.740
 3497TIP3    H232051   0.883   3.298   0.080
 3498TIP3   OH232052   2.139   2.238   2.182
 3498TIP3    H132053   2.095   2.284   2.111
 3498TIP3    H232054   2.220   2.288   2.197
 3499TIP3   OH232055   6.209   2.619   0.299
 3499TIP3    H132056   6.175   2.536   0.265
 3499TIP3    H232057   6.235   2.668   0.221
 3500TIP3   OH232058   4.586   2.648   8.654
 3500TIP3    H132059   4.506   2.674   8.608
 3500TIP3    H232060   4.604   2.559   8.624
 3501TIP3   OH232061   0.494   2.912   0.392
 3501TIP3    H132062   0.448   2.854   0.332
 3501TIP3    H232063   0.453   2.898   0.477
 3502TIP3   OH232064   4.437   4.433   0.895
 3502TIP3    H132065   4.406   4.523   0.888
 3502TIP3    H232066   4.382   4.393   0.962
 3503TIP3   OH232067   0.383   2.921   8.663
 3503TIP3    H132068   0.430   2.997   8.697
 3503TIP3    H232069   0.386   2.857   8.734
 3504TIP3   OH232070   2.073   3.263   7.826
 3504TIP3    H132071   2.015   3.337   7.845
 3504TIP3    H232072   2.120   3.290   7.746
 3505TIP3   OH232073   4.959   4.285   1.359
 3505TIP3    H132074   4.897   4.220   1.328
 3505TIP3    H232075   4.904   4.354   1.397
 3506TIP3   OH232076   0.374   2.352   6.584
 3506TIP3    H132077   0.308   2.327   6.648
 3506TIP3    H232078   0.353   2.443   6.563
 3507TIP3   OH232079   6.744   0.066   6.493
 3507TIP3    H132080   6.789   0.106   6.418
 3507TIP3    H232081   6.780   0.110   6.570
 3508TIP3   OH232082   1.659   6.167   7.240
 3508TIP3    H132083   1.642   6.195   7.150
 3508TIP3    H232084   1.579   6.120   7.265
 3509TIP3   OH232085   4.513   2.579   0.144
 3509TIP3    H132086   4.570   2.621   0.207
 3509TIP3    H232087   4.475   2.651   0.093
 3510TIP3   OH232088   0.737   4.229   1.869
 3510TIP3    H132089   0.729   4.230   1.964
 3510TIP3    H232090   0.755   4.320   1.845
 3511TIP3   OH232091   4.709   4.990   7.824
 3511TIP3    H132092   4.688   5.060   7.885
 3511TIP3    H232093   4.782   5.025   7.772
 3512TIP3   OH232094   2.449   0.577   0.718
 3512TIP3    H132095   2.390   0.650   0.739
 3512TIP3    H232096   2.426   0.552   0.629
 3513TIP3   OH232097   0.884   4.356   8.704
 3513TIP3    H132098   0.909   4.443   8.673
 3513TIP3    H232099   0.967   4.310   8.713
 3514TIP3   OH232100   3.615   5.898   0.452
 3514TIP3    H132101   3.707   5.920   0.435
 3514TIP3    H232102   3.607   5.807   0.424
 3515TIP3   OH232103   6.306   3.652   7.835
 3515TIP3    H132104   6.330   3.727   7.890
 3515TIP3    H232105   6.359   3.580   7.869
 3516TIP3   OH232106   1.490   2.062   8.331
 3516TIP3    H132107   1.473   1.995   8.265
 3516TIP3    H232108   1.421   2.127   8.318
 3517TIP3   OH232109   0.287   6.341   7.565
 3517TIP3    H132110   0.359   6.394   7.531
 3517TIP3    H232111   0.214   6.360   7.506
 3518TIP3   OH232112   3.455   5.889   0.709
 3518TIP3    H132113   3.514   5.880   0.634
 3518TIP3    H232114   3.508   5.861   0.784
 3519TIP3   OH232115   6.790   5.137   0.925
 3519TIP3    H132116   6.780   5.182   1.009
 3519TIP3    H232117   6.724   5.176   0.868
 3520TIP3   OH232118   1.185   3.360   6.344
 3520TIP3    H132119   1.208   3.441   6.299
 3520TIP3    H232120   1.092   3.348   6.325
 3521TIP3   OH232121   6.152   5.756   1.971
 3521TIP3    H132122   6.087   5.809   1.925
 3521TIP3    H232123   6.158   5.796   2.057
 3522TIP3   OH232124   0.414   6.810   1.144
 3522TIP3    H132125   0.401   6.755   1.066
 3522TIP3    H232126   0.328   6.811   1.187
 3523TIP3   OH232127   3.091   3.215   1.065
 3523TIP3    H132128   3.000   3.238   1.084
 3523TIP3    H232129   3.085   3.151   0.993
 3524TIP3   OH232130   5.245   0.954   6.830
 3524TIP3    H132131   5.191   1.032   6.844
 3524TIP3    H232132   5.333   0.981   6.858
 3525TIP3   OH232133   1.005   4.078   8.757
 3525TIP3    H132134   0.962   4.005   0.010
 3525TIP3    H232135   1.094   4.078   0.002
 3526TIP3   OH232136   1.253   0.153   8.333
 3526TIP3    H132137   1.338   0.172   8.291
 3526TIP3    H232138   1.191   0.153   8.261
 3527TIP3   OH232139   0.444   2.488   1.834
 3527TIP3    H132140   0.511   2.556   1.833
 3527TIP3    H232141   0.415   2.484   1.925
 3528TIP3   OH232142   2.972   5.545   1.868
 3528TIP3    H132143   2.953   5.599   1.944
 3528TIP3    H232144   2.985   5.457   1.904
 3529TIP3   OH232145   1.949   0.707   0.613
 3529TIP3    H132146   2.028   0.754   0.639
 3529TIP3    H232147   1.908   0.681   0.695
 3530TIP3   OH232148   1.685   2.156   1.357
 3530TIP3    H132149   1.719   2.096   1.291
 3530TIP3    H232150   1.754   2.162   1.422
 3531TIP3   OH232151   5.067   1.039   0.470
 3531TIP3    H132152   5.079   0.998   0.384
 3531TIP3    H232153   5.006   0.981   0.516
 3532TIP3   OH232154   5.566   0.451   0.800
 3532TIP3    H132155   5.645   0.465   0.852
 3532TIP3    H232156   5.544   0.359   0.814
 3533TIP3   OH232157   3.108   4.709   7.748
 3533TIP3    H132158   3.033   4.757   7.714
 3533TIP3    H232159   3.174   4.714   7.678
 3534TIP3   OH232160   4.836   4.519   7.689
 3534TIP3    H132161   4.875   4.606   7.680
 3534TIP3    H232162   4.885   4.478   7.760
 3535TIP3   OH232163   1.255   4.342   1.088
 3535TIP3    H132164   1.344   4.373   1.072
 3535TIP3    H232165   1.267   4.259   1.135
 3536TIP3   OH232166   4.437   5.128   7.031
 3536TIP3    H132167   4.378   5.095   6.964
 3536TIP3    H232168   4.521   5.085   7.012
 3537TIP3   OH232169   6.013   4.444   7.051
 3537TIP3    H132170   6.047   4.531   7.036
 3537TIP3    H232171   6.035   4.395   6.972
 3538TIP3   OH232172   5.189   1.321   8.023
 3538TIP3    H132173   5.253   1.251   8.010
 3538TIP3    H232174   5.178   1.361   7.937
 3539TIP3   OH232175   4.115   5.881   1.300
 3539TIP3    H132176   4.043   5.911   1.245
 3539TIP3    H232177   4.100   5.787   1.309
 3540TIP3   OH232178   4.422   3.299   1.583
 3540TIP3    H132179   4.355   3.346   1.633
 3540TIP3    H232180   4.425   3.346   1.499
 3541TIP3   OH232181   0.373   3.911   7.096
 3541TIP3    H132182   0.323   3.924   7.177
 3541TIP3    H232183   0.456   3.957   7.112
 3542TIP3   OH232184   5.809   4.773   6.606
 3542TIP3    H132185   5.794   4.769   6.511
 3542TIP3    H232186   5.723   4.755   6.645
 3543TIP3   OH232187   4.416   0.065   2.071
 3543TIP3    H132188   4.325   0.045   2.052
 3543TIP3    H232189   4.420   0.074   2.167
 3544TIP3   OH232190   6.785   0.439   7.587
 3544TIP3    H132191   6.748   0.356   7.558
 3544TIP3    H232192   0.065   0.423   7.590
 3545TIP3   OH232193   6.441   3.799   2.087
 3545TIP3    H132194   6.515   3.849   2.119
 3545TIP3    H232195   6.370   3.864   2.079
 3546TIP3   OH232196   5.410   0.085   7.401
 3546TIP3    H132197   5.421   6.805   7.388
 3546TIP3    H232198   5.483   0.124   7.352
 3547TIP3   OH232199   1.619   0.739   7.820
 3547TIP3    H132200   1.679   0.746   7.894
 3547TIP3    H232201   1.533   0.760   7.858
 3548TIP3   OH232202   0.256   5.041   0.866
 3548TIP3    H132203   0.178   5.035   0.920
 3548TIP3    H232204   0.224   5.036   0.776
 3549TIP3   OH232205   3.122   6.131   7.304
 3549TIP3    H132206   3.125   6.039   7.331
 3549TIP3    H232207   3.066   6.173   7.369
 3550TIP3   OH232208   4.330   4.722   7.132
 3550TIP3    H132209   4.385   4.796   7.107
 3550TIP3    H232210   4.392   4.652   7.153
 3551TIP3   OH232211   2.475   4.415   7.805
 3551TIP3    H132212   2.474   4.386   7.896
 3551TIP3    H232213   2.446   4.338   7.756
 3552TIP3   OH232214   1.172   0.495   8.222
 3552TIP3    H132215   1.266   0.492   8.202
 3552TIP3    H232216   1.167   0.525   8.312
 3553TIP3   OH232217   5.270   1.519   8.218
 3553TIP3    H132218   5.306   1.438   8.182
 3553TIP3    H232219   5.176   1.501   8.229
 3554TIP3   OH232220   0.222   5.555   0.515
 3554TIP3    H132221   0.314   5.581   0.519
 3554TIP3    H232222   0.205   5.541   0.422
 3555TIP3   OH232223   5.927   4.444   7.598
 3555TIP3    H132224   5.978   4.502   7.655
 3555TIP3    H232225   5.993   4.393   7.551
 3556TIP3   OH232226   0.423   5.971   8.030
 3556TIP3    H132227   0.328   5.964   8.040
 3556TIP3    H232228   0.443   5.912   7.957
 3557TIP3   OH232229   2.993   4.520   1.023
 3557TIP3    H132230   3.056   4.568   0.970
 3557TIP3    H232231   2.973   4.580   1.095
 3558TIP3   OH232232   5.952   3.254   0.400
 3558TIP3    H132233   5.863   3.278   0.374
 3558TIP3    H232234   5.977   3.320   0.465
 3559TIP3   OH232235   5.688   4.399   1.611
 3559TIP3    H132236   5.667   4.479   1.564
 3559TIP3    H232237   5.605   4.369   1.648
 3560TIP3   OH232238   4.539   0.309   8.499
 3560TIP3    H132239   4.632   0.289   8.486
 3560TIP3    H232240   4.515   0.361   8.422
 3561TIP3   OH232241   5.878   5.353   8.417
 3561TIP3    H132242   5.817   5.316   8.482
 3561TIP3    H232243   5.844   5.440   8.398
 3562TIP3   OH232244   2.832   6.741   7.855
 3562TIP3    H132245   2.859   6.764   7.766
 3562TIP3    H232246   2.914   6.719   7.899
 3563TIP3   OH232247   4.845   6.374   7.251
 3563TIP3    H132248   4.807   6.384   7.164
 3563TIP3    H232249   4.770   6.369   7.310
 3564TIP3   OH232250   4.835   6.343   8.229
 3564TIP3    H132251   4.748   6.311   8.205
 3564TIP3    H232252   4.895   6.277   8.195
 3565TIP3   OH232253   6.053   5.498   7.055
 3565TIP3    H132254   6.015   5.437   7.118
 3565TIP3    H232255   5.981   5.555   7.029
 3566TIP3   OH232256   1.432   6.167   0.052
 3566TIP3    H132257   1.504   6.115   0.017
 3566TIP3    H232258   1.359   6.148   8.785
 3567TIP3   OH232259   2.498   5.907   0.217
 3567TIP3    H132260   2.536   5.995   0.221
 3567TIP3    H232261   2.414   5.915   0.260
 3568TIP3   OH232262   0.716   6.361   8.278
 3568TIP3    H132263   0.665   6.293   8.234
 3568TIP3    H232264   0.685   6.360   8.368
 3569TIP3   OH232265   0.814   6.582   0.060
 3569TIP3    H132266   0.808   6.668   0.103
 3569TIP3    H232267   0.757   6.526   0.112
 3570TIP3   OH232268   0.089   4.158   1.812
 3570TIP3    H132269   0.016   4.216   1.794
 3570TIP3    H232270   0.141   4.204   1.878
 3571TIP3   OH232271   3.809   4.695   0.664
 3571TIP3    H132272   3.716   4.673   0.660
 3571TIP3    H232273   3.811   4.790   0.678
 3572TIP3   OH232274   4.296   0.719   1.499
 3572TIP3    H132275   4.213   0.767   1.497
 3572TIP3    H232276   4.347   0.762   1.568
 3573TIP3   OH232277   0.452   1.571   1.528
 3573TIP3    H132278   0.509   1.568   1.605
 3573TIP3    H232279   0.376   1.622   1.556
 3574TIP3   OH232280   5.477   1.275   7.557
 3574TIP3    H132281   5.521   1.342   7.609
 3574TIP3    H232282   5.440   1.323   7.483
 3575TIP3   OH232283   0.982   0.369   7.440
 3575TIP3    H132284   0.942   0.286   7.417
 3575TIP3    H232285   1.075   0.348   7.454
 3576TIP3   OH232286   1.437   0.924   1.453
 3576TIP3    H132287   1.354   0.971   1.449
 3576TIP3    H232288   1.502   0.992   1.470
 3577TIP3   OH232289   0.264   3.890   1.525
 3577TIP3    H132290   0.177   3.867   1.557
 3577TIP3    H232291   0.267   3.986   1.530
 3578TIP3   OH232292   1.560   4.480   8.665
 3578TIP3    H132293   1.475   4.500   8.705
 3578TIP3    H232294   1.554   4.388   8.640
 3579TIP3   OH232295   3.950   2.916   6.260
 3579TIP3    H132296   3.932   2.986   6.323
 3579TIP3    H232297   3.947   2.958   6.175
 3580TIP3   OH232298   4.120   4.109   0.506
 3580TIP3    H132299   4.136   4.202   0.493
 3580TIP3    H232300   4.028   4.104   0.531
 3581TIP3   OH232301   5.138   0.729   7.001
 3581TIP3    H132302   5.216   0.710   7.052
 3581TIP3    H232303   5.169   0.782   6.927
 3582TIP3   OH232304   0.616   5.931   0.057
 3582TIP3    H132305   0.537   5.913   0.109
 3582TIP3    H232306   0.606   5.878   8.769
 3583TIP3   OH232307   4.180   3.979   0.281
 3583TIP3    H132308   4.137   3.979   0.366
 3583TIP3    H232309   4.242   3.907   0.285
 3584TIP3   OH232310   6.051   1.874   1.824
 3584TIP3    H132311   5.970   1.826   1.811
 3584TIP3    H232312   6.107   1.847   1.751
 3585TIP3   OH232313   6.522   0.100   7.251
 3585TIP3    H132314   6.473   0.128   7.173
 3585TIP3    H232315   6.454   0.071   7.312
 3586TIP3   OH232316   0.023   2.019   2.433
 3586TIP3    H132317   6.772   2.083   2.406
 3586TIP3    H232318   0.058   1.985   2.351
 3587TIP3   OH232319   6.539   0.697   8.510
 3587TIP3    H132320   6.474   0.653   8.455
 3587TIP3    H232321   6.583   0.626   8.557
 3588TIP3   OH232322   1.563   3.426   1.748
 3588TIP3    H132323   1.498   3.436   1.678
 3588TIP3    H232324   1.645   3.407   1.703
 3589TIP3   OH232325   0.707   5.343   0.845
 3589TIP3    H132326   0.716   5.375   0.934
 3589TIP3    H232327   0.745   5.255   0.846
 3590TIP3   OH232328   1.549   1.409   8.504
 3590TIP3    H132329   1.635   1.432   8.541
 3590TIP3    H232330   1.524   1.487   8.455
 3591TIP3   OH232331   5.217   6.551   6.874
 3591TIP3    H132332   5.156   6.563   6.801
 3591TIP3    H232333   5.298   6.591   6.843
 3592TIP3   OH232334   4.806   5.392   7.668
 3592TIP3    H132335   4.899   5.414   7.662
 3592TIP3    H232336   4.777   5.430   7.750
 3593TIP3   OH232337   0.738   5.187   0.258
 3593TIP3    H132338   0.830   5.170   0.279
 3593TIP3    H232339   0.728   5.155   0.168
 3594TIP3   OH232340   3.631   4.514   1.633
 3594TIP3    H132341   3.695   4.539   1.699
 3594TIP3    H232342   3.572   4.454   1.679
 3595TIP3   OH232343   6.097   3.391   1.114
 3595TIP3    H132344   6.043   3.454   1.067
 3595TIP3    H232345   6.162   3.445   1.159
 3596TIP3   OH232346   3.066   5.975   1.077
 3596TIP3    H132347   3.144   5.953   1.026
 3596TIP3    H232348   3.024   6.047   1.029
 3597TIP3   OH232349   5.776   6.677   2.848
 3597TIP3    H132350   5.714   6.728   2.900
 3597TIP3    H232351   5.838   6.742   2.815
 3598TIP3   OH232352   5.707   6.324   6.552
 3598TIP3    H132353   5.613   6.338   6.546
 3598TIP3    H232354   5.716   6.229   6.566
 3599TIP3   OH232355   2.763   0.155   1.389
 3599TIP3    H132356   2.753   0.087   1.323
 3599TIP3    H232357   2.842   0.203   1.362
 3600TIP3   OH232358   4.964   6.503   6.712
 3600TIP3    H132359   4.880   6.467   6.683
 3600TIP3    H232360   4.957   6.597   6.696
 3601TIP3   OH232361   6.746   2.142   6.656
 3601TIP3    H132362   6.674   2.149   6.719
 3601TIP3    H232363   6.724   2.065   6.604
 3602TIP3   OH232364   1.575   4.439   0.456
 3602TIP3    H132365   1.586   4.524   0.500
 3602TIP3    H232366   1.482   4.420   0.462
 3603TIP3   OH232367   0.035   5.937   6.401
 3603TIP3    H132368   0.009   5.958   6.312
 3603TIP3    H232369   6.768   5.933   6.451
 3604TIP3   OH232370   3.362   3.958   8.545
 3604TIP3    H132371   3.453   3.961   8.574
 3604TIP3    H232372   3.339   3.865   8.546
 3605TIP3   OH232373   3.709   5.040   7.884
 3605TIP3    H132374   3.620   5.033   7.848
 3605TIP3    H232375   3.762   5.071   7.811
 3606TIP3   OH232376   0.561   6.720   8.432
 3606TIP3    H132377   0.631   6.771   8.472
 3606TIP3    H232378   0.593   6.702   8.343
 3607TIP3   OH232379   4.265   1.470   1.407
 3607TIP3    H132380   4.211   1.536   1.365
 3607TIP3    H232381   4.275   1.401   1.341
 3608TIP3   OH232382   4.311   2.956   2.606
 3608TIP3    H132383   4.215   2.965   2.611
 3608TIP3    H232384   4.325   2.862   2.592
 3609TIP3   OH232385   1.416   3.091   2.493
 3609TIP3    H132386   1.414   3.033   2.417
 3609TIP3    H232387   1.494   3.145   2.479
 3610TIP3   OH232388   3.877   2.396   0.303
 3610TIP3    H132389   3.898   2.488   0.285
 3610TIP3    H232390   3.833   2.397   0.388
 3611TIP3   OH232391   3.505   4.015   6.968
 3611TIP3    H132392   3.493   3.941   6.908
 3611TIP3    H232393   3.569   3.983   7.033
 3612TIP3   OH232394   3.014   2.483   8.653
 3612TIP3    H132395   2.963   2.501   8.732
 3612TIP3    H232396   2.990   2.553   8.592
 3613TIP3   OH232397   5.435   5.075   1.814
 3613TIP3    H132398   5.422   5.119   1.898
 3613TIP3    H232399   5.502   5.127   1.769
 3614TIP3   OH232400   4.120   5.774   0.189
 3614TIP3    H132401   4.117   5.777   0.094
 3614TIP3    H232402   4.045   5.827   0.217
 3615TIP3   OH232403   6.452   5.532   8.120
 3615TIP3    H132404   6.358   5.520   8.107
 3615TIP3    H232405   6.472   5.615   8.078
 3616TIP3   OH232406   3.131   5.751   7.812
 3616TIP3    H132407   3.118   5.845   7.826
 3616TIP3    H232408   3.052   5.722   7.766
 3617TIP3   OH232409   6.220   2.454   7.668
 3617TIP3    H132410   6.312   2.467   7.645
 3617TIP3    H232411   6.211   2.493   7.754
 3618TIP3   OH232412   3.644   3.856   0.240
 3618TIP3    H132413   3.573   3.792   0.245
 3618TIP3    H232414   3.714   3.820   0.294
 3619TIP3   OH232415   5.810   2.537   1.775
 3619TIP3    H132416   5.783   2.451   1.742
 3619TIP3    H232417   5.825   2.523   1.868
 3620TIP3   OH232418   0.744   0.667   7.311
 3620TIP3    H132419   0.769   0.752   7.345
 3620TIP3    H232420   0.690   0.687   7.234
 3621TIP3   OH232421   4.351   4.659   7.460
 3621TIP3    H132422   4.417   4.623   7.520
 3621TIP3    H232423   4.372   4.620   7.375
 3622TIP3   OH232424   0.681   0.964   7.447
 3622TIP3    H132425   0.773   0.988   7.454
 3622TIP3    H232426   0.635   1.048   7.443
 3623TIP3   OH232427   4.525   4.805   6.688
 3623TIP3    H132428   4.514   4.866   6.616
 3623TIP3    H232429   4.451   4.745   6.681
 3624TIP3   OH232430   3.204   0.362   8.492
 3624TIP3    H132431   3.263   0.302   8.448
 3624TIP3    H232432   3.222   0.350   8.586
 3625TIP3   OH232433   4.481   6.120   7.290
 3625TIP3    H132434   4.517   6.156   7.209
 3625TIP3    H232435   4.447   6.035   7.265
 3626TIP3   OH232436   3.216   3.331   1.752
 3626TIP3    H132437   3.299   3.294   1.722
 3626TIP3    H232438   3.220   3.423   1.723
 3627TIP3   OH232439   6.145   1.758   0.628
 3627TIP3    H132440   6.066   1.752   0.681
 3627TIP3    H232441   6.217   1.749   0.691
 3628TIP3   OH232442   6.435   4.996   7.502
 3628TIP3    H132443   6.427   4.906   7.532
 3628TIP3    H232444   6.412   4.993   7.409
 3629TIP3   OH232445   6.736   4.295   7.335
 3629TIP3    H132446   6.763   4.362   7.272
 3629TIP3    H232447   6.727   4.215   7.283
 3630TIP3   OH232448   0.366   6.679   0.115
 3630TIP3    H132449   0.453   6.677   0.157
 3630TIP3    H232450   0.358   6.769   0.082
 3631TIP3   OH232451   4.199   6.631   7.759
 3631TIP3    H132452   4.292   6.639   7.781
 3631TIP3    H232453   4.163   6.717   7.777
 3632TIP3   OH232454   1.015   5.998   8.468
 3632TIP3    H132455   0.929   5.963   8.493
 3632TIP3    H232456   0.996   6.062   8.400
 3633TIP3   OH232457   4.058   4.466   1.574
 3633TIP3    H132458   4.110   4.487   1.496
 3633TIP3    H232459   4.047   4.550   1.619
 3634TIP3   OH232460   1.778   5.231   0.694
 3634TIP3    H132461   1.746   5.205   0.781
 3634TIP3    H232462   1.739   5.167   0.634
 3635TIP3   OH232463   3.426   5.073   7.656
 3635TIP3    H132464   3.335   5.102   7.651
 3635TIP3    H232465   3.420   4.980   7.679
 3636TIP3   OH232466   0.505   5.346   0.635
 3636TIP3    H132467   0.546   5.354   0.721
 3636TIP3    H232468   0.423   5.300   0.651
 3637TIP3   OH232469   1.419   2.873   2.296
 3637TIP3    H132470   1.414   2.779   2.308
 3637TIP3    H232471   1.486   2.887   2.229
 3638TIP3   OH232472   4.757   5.588   0.124
 3638TIP3    H132473   4.663   5.604   0.134
 3638TIP3    H232474   4.781   5.632   0.042
 3639TIP3   OH232475   0.208   3.284   2.197
 3639TIP3    H132476   0.164   3.230   2.263
 3639TIP3    H232477   0.298   3.254   2.197
 3640TIP3   OH232478   2.158   4.437   7.859
 3640TIP3    H132479   2.210   4.500   7.810
 3640TIP3    H232480   2.137   4.368   7.796
 3641TIP3   OH232481   0.153   3.044   1.701
 3641TIP3    H132482   0.133   2.981   1.631
 3641TIP3    H232483   0.068   3.062   1.742
 3642TIP3   OH232484   3.824   5.983   0.946
 3642TIP3    H132485   3.845   6.031   1.026
 3642TIP3    H232486   3.812   5.893   0.975
 3643TIP3   OH232487   1.981   0.053   2.000
 3643TIP3    H132488   1.901   0.089   2.039
 3643TIP3    H232489   2.048   0.118   2.019
 3644TIP3   OH232490   1.172   5.218   7.620
 3644TIP3    H132491   1.114   5.199   7.693
 3644TIP3    H232492   1.135   5.170   7.546
 3645TIP3   OH232493   0.431   3.788   0.616
 3645TIP3    H132494   0.358   3.727   0.624
 3645TIP3    H232495   0.487   3.768   0.691
 3646TIP3   OH232496   1.577   6.498   0.516
 3646TIP3    H132497   1.587   6.465   0.427
 3646TIP3    H232498   1.640   6.570   0.522
 3647TIP3   OH232499   2.102   5.586   1.637
 3647TIP3    H132500   2.133   5.576   1.547
 3647TIP3    H232501   2.181   5.605   1.687
 3648TIP3   OH232502   0.545   0.983   0.045
 3648TIP3    H132503   0.559   1.071   0.008
 3648TIP3    H232504   0.471   0.949   8.787
 3649TIP3   OH232505   0.890   5.902   0.970
 3649TIP3    H132506   0.874   5.808   0.963
 3649TIP3    H232507   0.814   5.943   0.927
 3650TIP3   OH232508   5.133   3.211   8.126
 3650TIP3    H132509   5.215   3.188   8.168
 3650TIP3    H232510   5.074   3.232   8.199
 3651TIP3   OH232511   0.997   6.044   7.037
 3651TIP3    H132512   1.075   5.988   7.043
 3651TIP3    H232513   0.975   6.063   7.128
 3652TIP3   OH232514   0.456   4.779   8.551
 3652TIP3    H132515   0.495   4.758   8.467
 3652TIP3    H232516   0.434   4.872   8.544
 3653TIP3   OH232517   2.887   1.763   6.455
 3653TIP3    H132518   2.796   1.793   6.452
 3653TIP3    H232519   2.932   1.816   6.389
 3654TIP3   OH232520   5.354   5.830   1.865
 3654TIP3    H132521   5.282   5.858   1.922
 3654TIP3    H232522   5.348   5.734   1.864
 3655TIP3   OH232523   2.817   0.455   8.428
 3655TIP3    H132524   2.879   0.458   8.355
 3655TIP3    H232525   2.802   0.547   8.451
 3656TIP3   OH232526   5.738   1.259   7.770
 3656TIP3    H132527   5.743   1.217   7.856
 3656TIP3    H232528   5.759   1.351   7.787
 3657TIP3   OH232529   2.914   3.333   0.453
 3657TIP3    H132530   2.924   3.426   0.472
 3657TIP3    H232531   2.821   3.321   0.433
 3658TIP3   OH232532   6.154   3.775   1.595
 3658TIP3    H132533   6.207   3.794   1.672
 3658TIP3    H232534   6.071   3.819   1.612
 3659TIP3   OH232535   5.198   1.478   1.684
 3659TIP3    H132536   5.152   1.548   1.637
 3659TIP3    H232537   5.142   1.401   1.673
 3660TIP3   OH232538   5.752   1.913   0.026
 3660TIP3    H132539   5.663   1.943   0.009
 3660TIP3    H232540   5.741   1.827   0.066
 3661TIP3   OH232541   2.997   0.904   7.355
 3661TIP3    H132542   2.984   0.969   7.286
 3661TIP3    H232543   3.072   0.935   7.405
 3662TIP3   OH232544   0.765   1.094   7.728
 3662TIP3    H132545   0.737   1.161   7.790
 3662TIP3    H232546   0.797   1.142   7.652
 3663TIP3   OH232547   2.244   6.681   6.602
 3663TIP3    H132548   2.329   6.711   6.569
 3663TIP3    H232549   2.182   6.748   6.573
 3664TIP3   OH232550   1.540   4.073   1.210
 3664TIP3    H132551   1.454   4.071   1.254
 3664TIP3    H232552   1.600   4.107   1.277
 3665TIP3   OH232553   2.650   2.533   1.168
 3665TIP3    H132554   2.638   2.486   1.250
 3665TIP3    H232555   2.628   2.469   1.100
 3666TIP3   OH232556   5.284   0.094   1.936
 3666TIP3    H132557   5.354   0.158   1.927
 3666TIP3    H232558   5.204   0.142   1.915
 3667TIP3   OH232559   5.363   6.673   2.028
 3667TIP3    H132560   5.328   6.755   1.993
 3667TIP3    H232561   5.427   6.700   2.093
 3668TIP3   OH232562   5.592   2.095   7.547
 3668TIP3    H132563   5.673   2.050   7.522
 3668TIP3    H232564   5.534   2.084   7.471
 3669TIP3   OH232565   6.219   6.569   7.047
 3669TIP3    H132566   6.300   6.579   7.096
 3669TIP3    H232567   6.222   6.639   6.981
 3670TIP3   OH232568   5.322   1.099   2.119
 3670TIP3    H132569   5.362   1.128   2.200
 3670TIP3    H232570   5.269   1.173   2.090
 3671TIP3   OH232571   3.797   3.005   6.740
 3671TIP3    H132572   3.853   3.080   6.722
 3671TIP3    H232573   3.848   2.951   6.800
 3672TIP3   OH232574   2.848   0.255   1.016
 3672TIP3    H132575   2.924   0.304   1.049
 3672TIP3    H232576   2.773   0.299   1.055
 3673TIP3   OH232577   3.574   3.784   6.806
 3673TIP3    H132578   3.576   3.835   6.725
 3673TIP3    H232579   3.487   3.744   6.807
 3674TIP3   OH232580   6.398   0.041   1.530
 3674TIP3    H132581   6.303   0.036   1.537
 3674TIP3    H232582   6.418   0.135   1.524
 3675TIP3   OH232583   0.178   1.324   1.259
 3675TIP3    H132584   0.153   1.414   1.280
 3675TIP3    H232585   0.233   1.332   1.181
 3676TIP3   OH232586   5.566   3.790   0.200
 3676TIP3    H132587   5.658   3.792   0.176
 3676TIP3    H232588   5.542   3.882   0.210
 3677TIP3   OH232589   4.440   1.565   1.579
 3677TIP3    H132590   4.364   1.532   1.531
 3677TIP3    H232591   4.514   1.516   1.542
 3678TIP3   OH232592   4.038   3.873   8.108
 3678TIP3    H132593   3.977   3.847   8.039
 3678TIP3    H232594   3.988   3.861   8.189
 3679TIP3   OH232595   5.484   4.955   7.915
 3679TIP3    H132596   5.415   4.897   7.882
 3679TIP3    H232597   5.461   4.969   8.007
 3680TIP3   OH232598   6.391   6.040   8.413
 3680TIP3    H132599   6.342   6.106   8.461
 3680TIP3    H232600   6.475   6.081   8.392
 3681TIP3   OH232601   1.126   6.239   6.667
 3681TIP3    H132602   1.173   6.223   6.585
 3681TIP3    H232603   1.195   6.243   6.734
 3682TIP3   OH232604   1.380   2.638   8.025
 3682TIP3    H132605   1.286   2.638   8.003
 3682TIP3    H232606   1.419   2.576   7.963
 3683TIP3   OH232607   4.997   2.396   1.528
 3683TIP3    H132608   5.050   2.402   1.607
 3683TIP3    H232609   4.907   2.395   1.559
 3684TIP3   OH232610   5.995   1.009   2.163
 3684TIP3    H132611   5.994   1.000   2.258
 3684TIP3    H232612   5.905   1.030   2.140
 3685TIP3   OH232613   6.335   4.945   0.661
 3685TIP3    H132614   6.336   4.922   0.754
 3685TIP3    H232615   6.242   4.951   0.639
 3686TIP3   OH232616   0.015   5.972   6.992
 3686TIP3    H132617   6.750   5.929   7.023
 3686TIP3    H232618   0.006   5.975   6.897
 3687TIP3   OH232619   5.522   0.003   2.250
 3687TIP3    H132620   5.579   0.072   2.283
 3687TIP3    H232621   5.468   6.793   2.325
 3688TIP3   OH232622   1.749   0.574   8.238
 3688TIP3    H132623   1.834   0.569   8.194
 3688TIP3    H232624   1.702   0.643   8.191
 3689TIP3   OH232625   3.484   0.110   8.135
 3689TIP3    H132626   3.423   0.103   8.061
 3689TIP3    H232627   3.570   0.094   8.096
 3690TIP3   OH232628   3.277   3.393   8.692
 3690TIP3    H132629   3.190   3.430   8.680
 3690TIP3    H232630   3.322   3.454   8.751
 3691TIP3   OH232631   3.287   1.261   7.885
 3691TIP3    H132632   3.265   1.172   7.913
 3691TIP3    H232633   3.202   1.306   7.883
 3692TIP3   OH232634   5.571   0.863   8.659
 3692TIP3    H132635   5.588   0.817   8.577
 3692TIP3    H232636   5.513   0.804   8.707
 3693TIP3   OH232637   4.456   5.817   1.209
 3693TIP3    H132638   4.515   5.891   1.192
 3693TIP3    H232639   4.427   5.830   1.299
 3694TIP3   OH232640   4.745   0.063   7.234
 3694TIP3    H132641   4.714   0.151   7.216
 3694TIP3    H232642   4.796   0.071   7.315
 3695TIP3   OH232643   4.717   2.371   2.017
 3695TIP3    H132644   4.775   2.442   1.991
 3695TIP3    H232645   4.751   2.341   2.101
 3696TIP3   OH232646   4.952   2.076   0.579
 3696TIP3    H132647   4.996   2.087   0.664
 3696TIP3    H232648   4.982   2.151   0.527
 3697TIP3   OH232649   5.173   6.698   1.091
 3697TIP3    H132650   5.195   6.776   1.141
 3697TIP3    H232651   5.077   6.695   1.091
 3698TIP3   OH232652   3.196   4.585   0.005
 3698TIP3    H132653   3.185   4.498   0.044
 3698TIP3    H232654   3.266   4.573   8.732
 3699TIP3   OH232655   6.290   6.487   0.674
 3699TIP3    H132656   6.351   6.554   0.643
 3699TIP3    H232657   6.288   6.422   0.604
 3700TIP3   OH232658   3.872   0.142   0.882
 3700TIP3    H132659   3.960   0.104   0.872
 3700TIP3    H232660   3.814   0.066   0.886
 3701TIP3   OH232661   5.391   6.108   8.001
 3701TIP3    H132662   5.379   6.113   7.906
 3701TIP3    H232663   5.307   6.139   8.037
 3702TIP3   OH232664   4.144   1.909   7.349
 3702TIP3    H132665   4.218   1.876   7.401
 3702TIP3    H232666   4.099   1.831   7.318
 3703TIP3   OH232667   5.415   6.205   1.717
 3703TIP3    H132668   5.432   6.222   1.624
 3703TIP3    H232669   5.435   6.288   1.760
 3704TIP3   OH232670   6.454   5.270   8.698
 3704TIP3    H132671   6.368   5.284   8.739
 3704TIP3    H232672   6.492   5.197   8.747
 3705TIP3   OH232673   4.535   6.131   1.840
 3705TIP3    H132674   4.594   6.142   1.765
 3705TIP3    H232675   4.590   6.095   1.909
 3706TIP3   OH232676   1.842   0.805   7.099
 3706TIP3    H132677   1.764   0.838   7.145
 3706TIP3    H232678   1.888   0.883   7.071
 3707TIP3   OH232679   1.356   0.743   7.954
 3707TIP3    H132680   1.263   0.746   7.977
 3707TIP3    H232681   1.374   0.650   7.939
 3708TIP3   OH232682   4.665   1.625   7.819
 3708TIP3    H132683   4.606   1.690   7.857
 3708TIP3    H232684   4.707   1.583   7.894
 3709TIP3   OH232685   3.517   3.073   0.434
 3709TIP3    H132686   3.450   3.106   0.493
 3709TIP3    H232687   3.584   3.035   0.492
 3710TIP3   OH232688   3.436   0.336   0.726
 3710TIP3    H132689   3.363   0.397   0.729
 3710TIP3    H232690   3.482   0.358   0.645
 3711TIP3   OH232691   5.898   4.550   0.559
 3711TIP3    H132692   5.905   4.633   0.606
 3711TIP3    H232693   5.891   4.575   0.467
 3712TIP3   OH232694   5.575   2.498   8.401
 3712TIP3    H132695   5.521   2.569   8.365
 3712TIP3    H232696   5.591   2.440   8.326
 3713TIP3   OH232697   2.194   0.886   1.666
 3713TIP3    H132698   2.149   0.910   1.747
 3713TIP3    H232699   2.249   0.962   1.646
 3714TIP3   OH232700   5.953   0.363   1.978
 3714TIP3    H132701   5.944   0.458   1.984
 3714TIP3    H232702   5.972   0.334   2.067
 3715TIP3   OH232703   5.262   6.459   0.907
 3715TIP3    H132704   5.235   6.534   0.960
 3715TIP3    H232705   5.339   6.424   0.952
 3716TIP3   OH232706   4.796   6.502   1.775
 3716TIP3    H132707   4.749   6.540   1.701
 3716TIP3    H232708   4.847   6.430   1.737
 3717TIP3   OH232709   2.744   6.616   7.162
 3717TIP3    H132710   2.686   6.691   7.172
 3717TIP3    H232711   2.740   6.595   7.069
 3718TIP3   OH232712   6.048   1.775   2.556
 3718TIP3    H132713   5.958   1.806   2.570
 3718TIP3    H232714   6.045   1.683   2.583
 3719TIP3   OH232715   2.625   2.020   7.911
 3719TIP3    H132716   2.713   2.043   7.943
 3719TIP3    H232717   2.589   2.102   7.877
 3720TIP3   OH232718   5.568   3.546   8.748
 3720TIP3    H132719   5.551   3.458   8.782
 3720TIP3    H232720   5.650   3.573   8.789
 3721TIP3   OH232721   1.490   3.093   1.521
 3721TIP3    H132722   1.480   3.038   1.599
 3721TIP3    H232723   1.435   3.169   1.539
 3722TIP3   OH232724   3.911   4.092   6.834
 3722TIP3    H132725   3.978   4.131   6.778
 3722TIP3    H232726   3.832   4.090   6.780
 3723TIP3   OH232727   3.001   5.453   1.544
 3723TIP3    H132728   3.086   5.463   1.502
 3723TIP3    H232729   3.021   5.441   1.636
 3724TIP3   OH232730   5.154   2.080   8.575
 3724TIP3    H132731   5.122   2.130   8.499
 3724TIP3    H232732   5.231   2.034   8.542
 3725TIP3   OH232733   0.914   3.079   0.963
 3725TIP3    H132734   0.929   3.173   0.965
 3725TIP3    H232735   0.972   3.047   0.894
 3726TIP3   OH232736   3.215   5.242   8.272
 3726TIP3    H132737   3.288   5.285   8.317
 3726TIP3    H232738   3.250   5.157   8.246
 3727TIP3   OH232739   3.647   1.552   7.673
 3727TIP3    H132740   3.595   1.498   7.732
 3727TIP3    H232741   3.651   1.501   7.592
 3728TIP3   OH232742   2.504   6.317   6.682
 3728TIP3    H132743   2.475   6.367   6.759
 3728TIP3    H232744   2.597   6.335   6.676
 3729TIP3   OH232745   1.896   1.365   1.870
 3729TIP3    H132746   1.981   1.327   1.851
 3729TIP3    H232747   1.907   1.407   1.955
 3730TIP3   OH232748   3.151   3.264   6.598
 3730TIP3    H132749   3.069   3.222   6.571
 3730TIP3    H232750   3.126   3.320   6.671
 3731TIP3   OH232751   2.253   0.204   6.831
 3731TIP3    H132752   2.185   0.163   6.777
 3731TIP3    H232753   2.322   0.138   6.836
 3732TIP3   OH232754   1.030   0.951   1.072
 3732TIP3    H132755   0.946   0.992   1.091
 3732TIP3    H232756   1.094   1.006   1.116
 3733TIP3   OH232757   2.182   1.206   7.230
 3733TIP3    H132758   2.097   1.162   7.221
 3733TIP3    H232759   2.232   1.178   7.154
 3734TIP3   OH232760   4.307   1.836   1.908
 3734TIP3    H132761   4.243   1.853   1.977
 3734TIP3    H232762   4.278   1.753   1.868
 3735TIP3   OH232763   6.722   4.001   7.649
 3735TIP3    H132764   6.715   4.086   7.691
 3735TIP3    H232765   6.780   3.950   7.705
 3736TIP3   OH232766   2.652   3.792   0.822
 3736TIP3    H132767   2.659   3.701   0.792
 3736TIP3    H232768   2.718   3.840   0.772
 3737TIP3   OH232769   2.966   3.804   8.630
 3737TIP3    H132770   2.879   3.772   8.609
 3737TIP3    H232771   2.956   3.847   8.715
 3738TIP3   OH232772   3.001   0.549   7.965
 3738TIP3    H132773   3.078   0.604   7.976
 3738TIP3    H232774   3.032   0.461   7.986
 3739TIP3   OH232775   6.013   2.646   1.591
 3739TIP3    H132776   5.988   2.586   1.662
 3739TIP3    H232777   6.097   2.682   1.619
 3740TIP3   OH232778   5.021   0.902   0.158
 3740TIP3    H132779   5.011   0.972   0.093
 3740TIP3    H232780   4.932   0.886   0.190
 3741TIP3   OH232781   1.027   5.845   7.432
 3741TIP3    H132782   0.988   5.758   7.427
 3741TIP3    H232783   1.116   5.830   7.464
 3742TIP3   OH232784   2.573   6.205   7.487
 3742TIP3    H132785   2.623   6.259   7.547
 3742TIP3    H232786   2.577   6.252   7.404
 3743TIP3   OH232787   1.060   3.575   1.844
 3743TIP3    H132788   1.086   3.495   1.797
 3743TIP3    H232789   1.026   3.543   1.928
 3744TIP3   OH232790   1.374   0.974   0.092
 3744TIP3    H132791   1.347   1.048   0.038
 3744TIP3    H232792   1.458   1.000   0.129
 3745TIP3   OH232793   1.453   4.067   1.560
 3745TIP3    H132794   1.479   4.142   1.614
 3745TIP3    H232795   1.418   4.107   1.480
 3746TIP3   OH232796   2.224   4.318   0.726
 3746TIP3    H132797   2.144   4.369   0.716
 3746TIP3    H232798   2.246   4.324   0.818
 3747TIP3   OH232799   2.754   3.551   0.754
 3747TIP3    H132800   2.818   3.485   0.781
 3747TIP3    H232801   2.692   3.503   0.699
 3748TIP3   OH232802   2.986   2.282   0.233
 3748TIP3    H132803   2.955   2.315   0.318
 3748TIP3    H232804   3.082   2.281   0.242
 3749TIP3   OH232805   5.803   1.928   7.499
 3749TIP3    H132806   5.821   1.881   7.417
 3749TIP3    H232807   5.809   1.860   7.567
 3750TIP3   OH232808   3.036   4.059   0.891
 3750TIP3    H132809   3.018   3.967   0.873
 3750TIP3    H232810   2.951   4.097   0.911
 3751TIP3   OH232811   1.251   0.195   6.451
 3751TIP3    H132812   1.202   0.274   6.472
 3751TIP3    H232813   1.259   0.196   6.356
 3752TIP3   OH232814   1.986   2.595   7.990
 3752TIP3    H132815   1.971   2.558   7.903
 3752TIP3    H232816   2.023   2.522   8.040
 3753TIP3   OH232817   2.248   5.216   0.475
 3753TIP3    H132818   2.172   5.200   0.530
 3753TIP3    H232819   2.212   5.246   0.392
 3754TIP3   OH232820   5.913   4.562   6.355
 3754TIP3    H132821   5.855   4.485   6.354
 3754TIP3    H232822   5.854   4.636   6.342
 3755TIP3   OH232823   5.304   4.933   2.716
 3755TIP3    H132824   5.221   4.950   2.671
 3755TIP3    H232825   5.364   4.999   2.681
 3756TIP3   OH232826   3.911   2.270   1.957
 3756TIP3    H132827   3.957   2.346   1.994
 3756TIP3    H232828   3.976   2.229   1.900
 3757TIP3   OH232829   6.366   5.665   7.835
 3757TIP3    H132830   6.350   5.756   7.861
 3757TIP3    H232831   6.439   5.670   7.774
 3758TIP3   OH232832   0.577   6.752   0.358
 3758TIP3    H132833   0.649   6.781   0.301
 3758TIP3    H232834   0.564   0.011   0.418
 3759TIP3   OH232835   4.885   1.963   2.488
 3759TIP3    H132836   4.829   1.951   2.565
 3759TIP3    H232837   4.888   2.058   2.476
 3760TIP3   OH232838   5.202   0.248   7.764
 3760TIP3    H132839   5.179   0.262   7.856
 3760TIP3    H232840   5.255   0.168   7.765
 3761TIP3   OH232841   6.749   1.554   8.335
 3761TIP3    H132842   0.004   1.579   8.395
 3761TIP3    H232843   6.790   1.493   8.274
 3762TIP3   OH232844   4.827   6.451   2.300
 3762TIP3    H132845   4.915   6.456   2.263
 3762TIP3    H232846   4.781   6.388   2.244
 3763TIP3   OH232847   2.437   3.363   6.594
 3763TIP3    H132848   2.506   3.312   6.637
 3763TIP3    H232849   2.382   3.395   6.666
 3764TIP3   OH232850   3.633   5.278   8.208
 3764TIP3    H132851   3.563   5.283   8.142
 3764TIP3    H232852   3.628   5.362   8.254
 3765TIP3   OH232853   1.774   0.056   8.266
 3765TIP3    H132854   1.801   0.147   8.261
 3765TIP3    H232855   1.693   0.052   8.215
 3766TIP3   OH232856   3.213   0.291   1.031
 3766TIP3    H132857   3.261   0.327   1.105
 3766TIP3    H232858   3.153   0.361   1.006
 3767TIP3   OH232859   3.582   0.536   0.191
 3767TIP3    H132860   3.653   0.594   0.164
 3767TIP3    H232861   3.503   0.573   0.151
 3768TIP3   OH232862   1.927   2.232   6.954
 3768TIP3    H132863   2.009   2.186   6.937
 3768TIP3    H232864   1.862   2.162   6.968
 3769TIP3   OH232865   3.242   5.387   0.167
 3769TIP3    H132866   3.274   5.423   0.084
 3769TIP3    H232867   3.160   5.433   0.183
 3770TIP3   OH232868   4.147   3.399   8.278
 3770TIP3    H132869   4.124   3.306   8.275
 3770TIP3    H232870   4.225   3.406   8.223
 3771TIP3   OH232871   4.469   0.816   0.739
 3771TIP3    H132872   4.512   0.891   0.698
 3771TIP3    H232873   4.504   0.740   0.692
 3772TIP3   OH232874   6.359   5.176   1.996
 3772TIP3    H132875   6.303   5.214   1.928
 3772TIP3    H232876   6.352   5.238   2.069
 3773TIP3   OH232877   4.931   3.677   0.369
 3773TIP3    H132878   4.951   3.584   0.357
 3773TIP3    H232879   5.013   3.722   0.349
 3774TIP3   OH232880   1.753   0.230   0.146
 3774TIP3    H132881   1.720   0.307   0.193
 3774TIP3    H232882   1.689   0.161   0.164
 3775TIP3   OH232883   2.129   5.629   6.592
 3775TIP3    H132884   2.204   5.608   6.647
 3775TIP3    H232885   2.056   5.581   6.632
 3776TIP3   OH232886   6.573   6.464   8.595
 3776TIP3    H132887   6.590   6.393   8.657
 3776TIP3    H232888   6.624   6.538   8.628
 3777TIP3   OH232889   1.251   6.450   7.750
 3777TIP3    H132890   1.159   6.470   7.733
 3777TIP3    H232891   1.286   6.426   7.664
 3778TIP3   OH232892   6.510   4.738   7.570
 3778TIP3    H132893   6.589   4.763   7.618
 3778TIP3    H232894   6.542   4.690   7.494
 3779TIP3   OH232895   6.527   1.431   0.286
 3779TIP3    H132896   6.524   1.514   0.333
 3779TIP3    H232897   6.441   1.424   0.243
 3780TIP3   OH232898   3.066   4.228   7.726
 3780TIP3    H132899   2.987   4.232   7.779
 3780TIP3    H232900   3.085   4.320   7.704
 3781TIP3   OH232901   2.761   6.771   1.206
 3781TIP3    H132902   2.725   6.682   1.211
 3781TIP3    H232903   2.806   6.773   1.121
 3782TIP3   OH232904   2.556   4.325   7.434
 3782TIP3    H132905   2.613   4.380   7.380
 3782TIP3    H232906   2.479   4.308   7.379
 3783TIP3   OH232907   4.194   5.603   7.692
 3783TIP3    H132908   4.210   5.691   7.727
 3783TIP3    H232909   4.190   5.547   7.770
 3784TIP3   OH232910   3.472   1.236   1.937
 3784TIP3    H132911   3.456   1.262   2.027
 3784TIP3    H232912   3.388   1.251   1.893
 3785TIP3   OH232913   5.044   5.982   8.150
 3785TIP3    H132914   5.052   5.986   8.054
 3785TIP3    H232915   4.961   6.026   8.168
 3786TIP3   OH232916   0.789   5.636   1.012
 3786TIP3    H132917   0.701   5.613   1.043
 3786TIP3    H232918   0.848   5.602   1.079
 3787TIP3   OH232919   3.636   2.331   8.691
 3787TIP3    H132920   3.629   2.378   8.774
 3787TIP3    H232921   3.695   2.384   8.638
 3788TIP3   OH232922   4.087   1.753   6.923
 3788TIP3    H132923   4.041   1.752   6.839
 3788TIP3    H232924   4.134   1.836   6.924
 3789TIP3   OH232925   2.505   6.104   6.860
 3789TIP3    H132926   2.493   6.156   6.939
 3789TIP3    H232927   2.593   6.126   6.830
 3790TIP3   OH232928   5.017   6.055   7.881
 3790TIP3    H132929   5.082   5.986   7.869
 3790TIP3    H232930   5.027   6.110   7.804
 3791TIP3   OH232931   6.742   0.603   8.330
 3791TIP3    H132932   6.705   0.550   8.402
 3791TIP3    H232933   6.667   0.623   8.275
 3792TIP3   OH232934   4.701   5.403   8.412
 3792TIP3    H132935   4.670   5.480   8.365
 3792TIP3    H232936   4.774   5.435   8.466
 3793TIP3   OH232937   5.458   3.209   0.989
 3793TIP3    H132938   5.550   3.201   1.016
 3793TIP3    H232939   5.462   3.246   0.901
 3794TIP3   OH232940   5.075   2.875   1.165
 3794TIP3    H132941   5.000   2.817   1.151
 3794TIP3    H232942   5.086   2.878   1.260
 3795TIP3   OH232943   3.332   3.866   1.275
 3795TIP3    H132944   3.295   3.946   1.238
 3795TIP3    H232945   3.345   3.808   1.200
 3796TIP3   OH232946   6.516   5.082   1.273
 3796TIP3    H132947   6.600   5.037   1.263
 3796TIP3    H232948   6.465   5.024   1.330
 3797TIP3   OH232949   4.119   5.251   0.920
 3797TIP3    H132950   4.054   5.237   0.989
 3797TIP3    H232951   4.082   5.322   0.868
 3798TIP3   OH232952   2.666   4.605   8.076
 3798TIP3    H132953   2.680   4.551   8.154
 3798TIP3    H232954   2.669   4.695   8.108
 3799TIP3   OH232955   3.867   3.913   7.527
 3799TIP3    H132956   3.833   3.902   7.439
 3799TIP3    H232957   3.881   4.007   7.536
 3800TIP3   OH232958   1.359   4.636   1.013
 3800TIP3    H132959   1.358   4.621   0.919
 3800TIP3    H232960   1.291   4.579   1.048
 3801TIP3   OH232961   2.257   0.119   2.345
 3801TIP3    H132962   2.214   0.189   2.296
 3801TIP3    H232963   2.191   0.088   2.406
 3802TIP3   OH232964   0.540   6.289   8.477
 3802TIP3    H132965   0.505   6.204   8.452
 3802TIP3    H232966   0.590   6.272   8.556
 3803TIP3   OH232967   2.113   4.882   8.511
 3803TIP3    H132968   2.112   4.912   8.602
 3803TIP3    H232969   2.089   4.790   8.516
 3804TIP3   OH232970   0.370   5.330   6.975
 3804TIP3    H132971   0.371   5.288   6.889
 3804TIP3    H232972   0.462   5.346   6.995
 3805TIP3   OH232973   3.022   1.645   0.693
 3805TIP3    H132974   3.087   1.676   0.756
 3805TIP3    H232975   2.940   1.642   0.742
 3806TIP3   OH232976   0.484   4.679   1.019
 3806TIP3    H132977   0.461   4.594   0.981
 3806TIP3    H232978   0.490   4.661   1.113
 3807TIP3   OH232979   0.389   3.998   1.219
 3807TIP3    H132980   0.354   4.072   1.171
 3807TIP3    H232981   0.430   4.036   1.296
 3808TIP3   OH232982   4.121   0.750   7.114
 3808TIP3    H132983   4.215   0.750   7.098
 3808TIP3    H232984   4.111   0.702   7.196
 3809TIP3   OH232985   2.048   5.708   1.128
 3809TIP3    H132986   2.026   5.783   1.072
 3809TIP3    H232987   2.111   5.658   1.076
 3810TIP3   OH232988   6.617   6.099   0.004
 3810TIP3    H132989   6.597   6.193   0.008
 3810TIP3    H232990   6.702   6.094   8.751
 3811TIP3   OH232991   5.273   4.433   7.571
 3811TIP3    H132992   5.239   4.343   7.572
 3811TIP3    H232993   5.256   4.466   7.659
 3812TIP3   OH232994   4.358   0.343   0.685
 3812TIP3    H132995   4.339   0.391   0.765
 3812TIP3    H232996   4.397   0.261   0.715
 3813TIP3   OH232997   0.849   4.759   0.969
 3813TIP3    H132998   0.885   4.671   0.967
 3813TIP3    H232999   0.769   4.754   0.917
 3814TIP3   OH233000   4.309   1.114   7.427
 3814TIP3    H133001   4.311   1.145   7.517
 3814TIP3    H233002   4.218   1.088   7.412
 3815TIP3   OH233003   6.562   0.229   1.337
 3815TIP3    H133004   6.492   0.280   1.378
 3815TIP3    H233005   6.517   0.152   1.300
 3816TIP3   OH233006   1.149   5.424   1.429
 3816TIP3    H133007   1.173   5.357   1.493
 3816TIP3    H233008   1.209   5.411   1.356
 3817TIP3   OH233009   5.262   4.046   0.298
 3817TIP3    H133010   5.349   4.053   0.258
 3817TIP3    H233011   5.268   3.969   0.354
 3818TIP3   OH233012   6.354   5.747   1.368
 3818TIP3    H133013   6.318   5.788   1.447
 3818TIP3    H233014   6.357   5.818   1.304
 3819TIP3   OH233015   1.675   5.206   8.457
 3819TIP3    H133016   1.582   5.211   8.481
 3819TIP3    H233017   1.682   5.127   8.405
 3820TIP3   OH233018   0.228   6.487   7.853
 3820TIP3    H133019   0.200   6.576   7.875
 3820TIP3    H233020   0.196   6.473   7.764
 3821TIP3   OH233021   4.089   4.136   8.504
 3821TIP3    H133022   4.104   4.230   8.511
 3821TIP3    H233023   4.088   4.119   8.410
 3822TIP3   OH233024   5.936   6.785   1.097
 3822TIP3    H133025   5.896   6.746   1.175
 3822TIP3    H233026   6.030   6.773   1.110
 3823TIP3   OH233027   0.640   6.100   0.279
 3823TIP3    H133028   0.638   6.014   0.237
 3823TIP3    H233029   0.570   6.149   0.238
 3824TIP3   OH233030   2.849   5.181   2.431
 3824TIP3    H133031   2.915   5.140   2.375
 3824TIP3    H233032   2.860   5.275   2.416
 3825TIP3   OH233033   2.757   4.922   7.550
 3825TIP3    H133034   2.826   4.982   7.578
 3825TIP3    H233035   2.757   4.852   7.616
 3826TIP3   OH233036   0.162   2.051   7.922
 3826TIP3    H133037   0.134   2.027   7.834
 3826TIP3    H233038   0.181   2.145   7.916
 3827TIP3   OH233039   0.276   4.910   8.288
 3827TIP3    H133040   0.321   4.841   8.240
 3827TIP3    H233041   0.274   4.879   8.379
 3828TIP3   OH233042   0.288   6.281   0.518
 3828TIP3    H133043   0.303   6.257   0.427
 3828TIP3    H233044   0.347   6.355   0.534
 3829TIP3   OH233045   3.066   1.693   6.822
 3829TIP3    H133046   3.067   1.742   6.904
 3829TIP3    H233047   3.117   1.747   6.761
 3830TIP3   OH233048   3.010   5.011   0.255
 3830TIP3    H133049   2.983   5.089   0.304
 3830TIP3    H233050   3.104   5.023   0.241
 3831TIP3   OH233051   5.710   1.099   2.137
 3831TIP3    H133052   5.690   1.126   2.226
 3831TIP3    H233053   5.663   1.161   2.081
 3832TIP3   OH233054   6.769   5.524   7.965
 3832TIP3    H133055   6.746   5.600   7.912
 3832TIP3    H233056   6.766   5.450   7.904
 3833TIP3   OH233057   0.716   3.475   8.468
 3833TIP3    H133058   0.737   3.481   8.374
 3833TIP3    H233059   0.637   3.421   8.471
 3834TIP3   OH233060   6.079   6.088   6.613
 3834TIP3    H133061   6.041   6.007   6.649
 3834TIP3    H233062   6.026   6.158   6.650
 3835TIP3   OH233063   1.183   3.259   0.085
 3835TIP3    H133064   1.127   3.188   0.056
 3835TIP3    H233065   1.137   3.339   0.057
 3836TIP3   OH233066   1.382   5.915   2.009
 3836TIP3    H133067   1.410   5.833   2.051
 3836TIP3    H233068   1.395   5.982   2.075
 3837TIP3   OH233069   1.206   4.223   7.814
 3837TIP3    H133070   1.276   4.190   7.870
 3837TIP3    H233071   1.236   4.310   7.787
 3838TIP3   OH233072   1.645   4.713   7.323
 3838TIP3    H133073   1.665   4.803   7.295
 3838TIP3    H233074   1.645   4.717   7.418
 3839TIP3   OH233075   3.260   2.824   6.402
 3839TIP3    H133076   3.317   2.774   6.343
 3839TIP3    H233077   3.284   2.792   6.489
 3840TIP3   OH233078   0.692   5.545   1.369
 3840TIP3    H133079   0.766   5.602   1.347
 3840TIP3    H233080   0.688   5.482   1.298
 3841TIP3   OH233081   2.754   0.254   0.554
 3841TIP3    H133082   2.719   0.221   0.636
 3841TIP3    H233083   2.688   0.315   0.522
 3842TIP3   OH233084   0.932   1.221   6.291
 3842TIP3    H133085   0.938   1.269   6.374
 3842TIP3    H233086   1.010   1.248   6.242
 3843TIP3   OH233087   0.653   4.568   1.628
 3843TIP3    H133088   0.596   4.569   1.705
 3843TIP3    H233089   0.623   4.492   1.578
 3844TIP3   OH233090   0.440   5.824   8.642
 3844TIP3    H133091   0.485   5.748   8.603
 3844TIP3    H233092   0.358   5.788   8.675
 3845TIP3   OH233093   2.294   6.729   6.884
 3845TIP3    H133094   2.207   6.754   6.916
 3845TIP3    H233095   2.282   6.713   6.791
 3846TIP3   OH233096   2.766   3.064   7.827
 3846TIP3    H133097   2.706   3.133   7.854
 3846TIP3    H233098   2.835   3.064   7.894
 3847TIP3   OH233099   0.803   0.764   7.019
 3847TIP3    H133100   0.759   0.837   7.061
 3847TIP3    H233101   0.888   0.759   7.063
 3848TIP3   OH233102   1.736   6.434   0.996
 3848TIP3    H133103   1.672   6.480   1.051
 3848TIP3    H233104   1.774   6.368   1.054
 3849TIP3   OH233105   6.791   3.899   1.589
 3849TIP3    H133106   6.746   3.816   1.602
 3849TIP3    H233107   6.737   3.963   1.635
 3850TIP3   OH233108   3.897   0.586   0.322
 3850TIP3    H133109   3.895   0.549   0.233
 3850TIP3    H233110   3.948   0.523   0.373
 3851TIP3   OH233111   2.464   2.506   7.357
 3851TIP3    H133112   2.506   2.437   7.408
 3851TIP3    H233113   2.402   2.460   7.300
 3852TIP3   OH233114   3.053   0.088   2.479
 3852TIP3    H133115   3.095   0.106   2.395
 3852TIP3    H233116   2.962   0.069   2.457
 3853TIP3   OH233117   0.780   3.048   0.110
 3853TIP3    H133118   0.728   3.070   0.033
 3853TIP3    H233119   0.863   3.017   0.075
 3854TIP3   OH233120   5.827   0.654   8.479
 3854TIP3    H133121   5.741   0.685   8.451
 3854TIP3    H233122   5.808   0.595   8.552
 3855TIP3   OH233123   3.199   1.960   0.684
 3855TIP3    H133124   3.153   1.905   0.747
 3855TIP3    H233125   3.232   1.899   0.618
 3856TIP3   OH233126   5.599   0.632   2.098
 3856TIP3    H133127   5.529   0.571   2.121
 3856TIP3    H233128   5.555   0.717   2.090
 3857TIP3   OH233129   0.968   2.828   1.953
 3857TIP3    H133130   1.043   2.851   1.898
 3857TIP3    H233131   1.006   2.802   2.036
 3858TIP3   OH233132   5.521   4.433   1.259
 3858TIP3    H133133   5.505   4.520   1.223
 3858TIP3    H233134   5.483   4.437   1.347
 3859TIP3   OH233135   5.843   6.681   0.033
 3859TIP3    H133136   5.796   6.600   0.054
 3859TIP3    H233137   5.935   6.659   0.047
 3860TIP3   OH233138   5.596   0.163   0.879
 3860TIP3    H133139   5.674   0.156   0.824
 3860TIP3    H233140   5.550   0.081   0.866
 3861TIP3   OH233141   4.945   3.047   8.513
 3861TIP3    H133142   4.858   3.075   8.541
 3861TIP3    H233143   4.929   2.971   8.457
 3862TIP3   OH233144   2.689   2.834   7.327
 3862TIP3    H133145   2.708   2.740   7.321
 3862TIP3    H233146   2.607   2.845   7.278
 3863TIP3   OH233147   3.484   3.239   1.638
 3863TIP3    H133148   3.449   3.315   1.593
 3863TIP3    H233149   3.545   3.274   1.702
 3864TIP3   OH233150   5.720   0.555   1.810
 3864TIP3    H133151   5.700   0.625   1.872
 3864TIP3    H233152   5.640   0.547   1.756
 3865TIP3   OH233153   3.663   0.788   1.453
 3865TIP3    H133154   3.651   0.780   1.359
 3865TIP3    H233155   3.735   0.850   1.463
 3866TIP3   OH233156   0.640   5.652   6.770
 3866TIP3    H133157   0.710   5.704   6.810
 3866TIP3    H233158   0.663   5.648   6.677
 3867TIP3   OH233159   6.715   5.950   8.244
 3867TIP3    H133160   6.657   5.976   8.173
 3867TIP3    H233161   6.734   5.858   8.227
 3868TIP3   OH233162   2.229   5.262   7.853
 3868TIP3    H133163   2.314   5.285   7.890
 3868TIP3    H233164   2.192   5.199   7.914
 3869TIP3   OH233165   3.855   2.946   7.609
 3869TIP3    H133166   3.835   3.002   7.684
 3869TIP3    H233167   3.840   2.857   7.641
 3870TIP3   OH233168   1.093   4.553   1.525
 3870TIP3    H133169   1.086   4.566   1.620
 3870TIP3    H233170   1.006   4.574   1.492
 3871TIP3   OH233171   0.528   2.122   2.265
 3871TIP3    H133172   0.588   2.105   2.337
 3871TIP3    H233173   0.554   2.208   2.232
 3872TIP3   OH233174   5.160   3.140   1.459
 3872TIP3    H133175   5.183   3.162   1.368
 3872TIP3    H233176   5.160   3.044   1.461
 3873TIP3   OH233177   1.962   5.533   2.013
 3873TIP3    H133178   2.014   5.466   1.968
 3873TIP3    H233179   1.891   5.554   1.951
 3874TIP3   OH233180   3.747   6.749   7.273
 3874TIP3    H133181   3.815   6.733   7.338
 3874TIP3    H233182   3.756   0.027   7.250
 3875TIP3   OH233183   4.320   0.381   7.546
 3875TIP3    H133184   4.413   0.372   7.564
 3875TIP3    H233185   4.296   0.465   7.585
 3876TIP3   OH233186   3.607   0.809   7.619
 3876TIP3    H133187   3.607   0.904   7.607
 3876TIP3    H233188   3.684   0.792   7.674
 3877TIP3   OH233189   0.796   6.186   7.774
 3877TIP3    H133190   0.822   6.109   7.723
 3877TIP3    H233191   0.703   6.196   7.757
 3878TIP3   OH233192   3.003   5.459   8.016
 3878TIP3    H133193   3.032   5.508   8.092
 3878TIP3    H233194   3.032   5.369   8.032
 3879TIP3   OH233195   5.664   1.414   8.350
 3879TIP3    H133196   5.619   1.411   8.265
 3879TIP3    H233197   5.604   1.371   8.410
 3880TIP3   OH233198   4.946   5.751   7.649
 3880TIP3    H133199   4.870   5.773   7.703
 3880TIP3    H233200   4.962   5.830   7.597
 3881TIP3   OH233201   2.064   4.994   7.472
 3881TIP3    H133202   2.135   5.025   7.417
 3881TIP3    H233203   2.095   4.910   7.507
 3882TIP3   OH233204   5.598   6.633   2.636
 3882TIP3    H133205   5.617   6.725   2.620
 3882TIP3    H233206   5.645   6.613   2.717
 3883TIP3   OH233207   6.658   1.358   2.320
 3883TIP3    H133208   6.585   1.304   2.348
 3883TIP3    H233209   6.717   1.359   2.395
 3884TIP3   OH233210   2.644   1.950   7.513
 3884TIP3    H133211   2.655   1.957   7.418
 3884TIP3    H233212   2.550   1.964   7.527
 3885TIP3   OH233213   2.319   3.809   2.121
 3885TIP3    H133214   2.302   3.878   2.185
 3885TIP3    H233215   2.253   3.742   2.140
 3886TIP3   OH233216   5.222   2.523   8.450
 3886TIP3    H133217   5.254   2.561   8.368
 3886TIP3    H233218   5.166   2.591   8.487
 3887TIP3   OH233219   5.059   5.360   7.169
 3887TIP3    H133220   5.059   5.361   7.073
 3887TIP3    H233221   5.007   5.284   7.193
 3888TIP3   OH233222   1.369   0.729   0.877
 3888TIP3    H133223   1.353   0.646   0.922
 3888TIP3    H233224   1.359   0.707   0.784
 3889TIP3   OH233225   3.046   0.023   8.693
 3889TIP3    H133226   3.098   6.758   8.682
 3889TIP3    H233227   2.962   6.808   8.729
 3890TIP3   OH233228   0.027   6.260   0.200
 3890TIP3    H133229   0.013   6.326   0.132
 3890TIP3    H233230   0.122   6.262   0.217
 3891TIP3   OH233231   0.823   0.341   1.550
 3891TIP3    H133232   0.846   0.416   1.605
 3891TIP3    H233233   0.894   0.278   1.566
 3892TIP3   OH233234   3.799   4.614   0.234
 3892TIP3    H133235   3.835   4.553   0.169
 3892TIP3    H233236   3.707   4.589   0.242
 3893TIP3   OH233237   0.347   3.816   7.479
 3893TIP3    H133238   0.350   3.735   7.427
 3893TIP3    H233239   0.276   3.866   7.440
 3894TIP3   OH233240   1.144   2.714   8.379
 3894TIP3    H133241   1.227   2.666   8.382
 3894TIP3    H233242   1.119   2.713   8.287
 3895TIP3   OH233243   3.189   5.866   7.068
 3895TIP3    H133244   3.256   5.860   7.136
 3895TIP3    H233245   3.203   5.952   7.028
 3896TIP3   OH233246   1.349   2.918   8.346
 3896TIP3    H133247   1.328   2.891   8.435
 3896TIP3    H233248   1.339   2.839   8.293
 3897TIP3   OH233249   2.024   1.407   8.060
 3897TIP3    H133250   2.083   1.479   8.081
 3897TIP3    H233251   1.975   1.392   8.141
 3898TIP3   OH233252   0.485   1.120   1.579
 3898TIP3    H133253   0.562   1.133   1.635
 3898TIP3    H233254   0.486   1.195   1.520
 3899TIP3   OH233255   0.279   0.683   0.463
 3899TIP3    H133256   0.249   0.598   0.494
 3899TIP3    H233257   0.374   0.682   0.477
 3900TIP3   OH233258   4.437   0.711   2.678
 3900TIP3    H133259   4.482   0.766   2.614
 3900TIP3    H233260   4.371   0.769   2.717
 3901TIP3   OH233261   0.621   2.709   0.045
 3901TIP3    H133262   0.702   2.709   0.096
 3901TIP3    H233263   0.643   2.660   8.756
 3902TIP3   OH233264   5.907   3.474   7.288
 3902TIP3    H133265   5.967   3.399   7.282
 3902TIP3    H233266   5.878   3.475   7.379
 3903TIP3   OH233267   6.801   3.098   0.928
 3903TIP3    H133268   6.719   3.129   0.889
 3903TIP3    H233269   6.797   3.130   1.019
 3904TIP3   OH233270   5.768   5.225   1.598
 3904TIP3    H133271   5.789   5.296   1.536
 3904TIP3    H233272   5.704   5.264   1.658
 3905TIP3   OH233273   4.412   6.473   0.269
 3905TIP3    H133274   4.420   6.437   0.180
 3905TIP3    H233275   4.397   6.396   0.324
 3906TIP3   OH233276   6.532   6.011   0.723
 3906TIP3    H133277   6.557   5.965   0.803
 3906TIP3    H233278   6.473   6.081   0.753
 3907TIP3   OH233279   0.788   5.492   6.299
 3907TIP3    H133280   0.806   5.585   6.306
 3907TIP3    H233281   0.863   5.456   6.251
 3908TIP3   OH233282   4.463   1.340   1.728
 3908TIP3    H133283   4.558   1.344   1.720
 3908TIP3    H233284   4.432   1.424   1.694
 3909TIP3   OH233285   5.783   2.463   7.977
 3909TIP3    H133286   5.816   2.480   8.066
 3909TIP3    H233287   5.852   2.495   7.919
 3910TIP3   OH233288   3.751   2.287   8.343
 3910TIP3    H133289   3.818   2.299   8.277
 3910TIP3    H233290   3.781   2.212   8.394
 3911TIP3   OH233291   5.657   2.183   8.742
 3911TIP3    H133292   5.589   2.222   8.687
 3911TIP3    H233293   5.739   2.203   8.697
 3912TIP3   OH233294   5.987   5.699   8.063
 3912TIP3    H133295   6.041   5.627   8.032
 3912TIP3    H233296   5.897   5.666   8.057
 3913TIP3   OH233297   0.312   1.670   7.513
 3913TIP3    H133298   0.233   1.635   7.554
 3913TIP3    H233299   0.372   1.688   7.586
 3914TIP3   OH233300   4.511   4.601   1.141
 3914TIP3    H133301   4.491   4.665   1.209
 3914TIP3    H233302   4.440   4.538   1.145
 3915TIP3   OH233303   6.386   4.534   2.281
 3915TIP3    H133304   6.303   4.507   2.242
 3915TIP3    H233305   6.381   4.505   2.372
 3916TIP3   OH233306   1.669   4.231   0.317
 3916TIP3    H133307   1.637   4.309   0.362
 3916TIP3    H233308   1.653   4.160   0.378
 3917TIP3   OH233309   4.793   3.755   7.591
 3917TIP3    H133310   4.782   3.768   7.685
 3917TIP3    H233311   4.714   3.792   7.552
 3918TIP3   OH233312   1.414   2.149   0.599
 3918TIP3    H133313   1.350   2.157   0.670
 3918TIP3    H233314   1.461   2.232   0.599
 3919TIP3   OH233315   1.414   2.799   1.394
 3919TIP3    H133316   1.389   2.708   1.411
 3919TIP3    H233317   1.477   2.821   1.463
 3920TIP3   OH233318   5.133   5.333   1.213
 3920TIP3    H133319   5.061   5.314   1.153
 3920TIP3    H233320   5.212   5.303   1.167
 3921TIP3   OH233321   1.441   6.565   1.046
 3921TIP3    H133322   1.500   6.594   1.116
 3921TIP3    H233323   1.355   6.561   1.087
 3922TIP3   OH233324   1.308   3.592   7.275
 3922TIP3    H133325   1.223   3.568   7.312
 3922TIP3    H233326   1.372   3.544   7.329
 3923TIP3   OH233327   4.316   3.838   0.788
 3923TIP3    H133328   4.245   3.808   0.844
 3923TIP3    H233329   4.393   3.789   0.817
 3924TIP3   OH233330   5.710   1.558   7.402
 3924TIP3    H133331   5.784   1.616   7.387
 3924TIP3    H233332   5.750   1.474   7.426
 3925TIP3   OH233333   6.164   0.582   0.178
 3925TIP3    H133334   6.099   0.575   0.108
 3925TIP3    H233335   6.246   0.555   0.137
 3926TIP3   OH233336   1.246   6.407   1.240
 3926TIP3    H133337   1.264   6.491   1.281
 3926TIP3    H233338   1.166   6.421   1.189
 3927TIP3   OH233339   1.899   5.479   0.311
 3927TIP3    H133340   1.854   5.479   0.396
 3927TIP3    H233341   1.946   5.396   0.309
 3928TIP3   OH233342   5.230   2.566   8.083
 3928TIP3    H133343   5.211   2.486   8.034
 3928TIP3    H233344   5.158   2.625   8.063
 3929TIP3   OH233345   2.116   6.042   8.304
 3929TIP3    H133346   2.188   6.100   8.280
 3929TIP3    H233347   2.137   6.013   8.394
 3930TIP3   OH233348   4.634   5.287   8.114
 3930TIP3    H133349   4.557   5.334   8.080
 3930TIP3    H233350   4.634   5.307   8.208
 3931TIP3   OH233351   4.185   6.579   0.051
 3931TIP3    H133352   4.268   6.625   0.034
 3931TIP3    H233353   4.209   6.510   0.112
 3932TIP3   OH233354   3.098   6.509   2.380
 3932TIP3    H133355   3.074   6.580   2.439
 3932TIP3    H233356   3.038   6.518   2.306
 3933TIP3   OH233357   0.986   4.203   1.567
 3933TIP3    H133358   0.975   4.231   1.476
 3933TIP3    H233359   1.006   4.284   1.614
 3934TIP3   OH233360   5.095   5.007   7.608
 3934TIP3    H133361   5.008   5.041   7.590
 3934TIP3    H233362   5.109   5.022   7.701
 3935TIP3   OH233363   1.109   2.465   7.670
 3935TIP3    H133364   1.023   2.434   7.700
 3935TIP3    H233365   1.100   2.470   7.575
 3936TIP3   OH233366   0.344   0.240   1.899
 3936TIP3    H133367   0.312   0.177   1.964
 3936TIP3    H233368   0.315   0.204   1.815
 3937TIP3   OH233369   3.452   3.836   7.487
 3937TIP3    H133370   3.484   3.920   7.454
 3937TIP3    H233371   3.484   3.832   7.577
 3938TIP3   OH233372   5.426   0.845   2.075
 3938TIP3    H133373   5.400   0.921   2.127
 3938TIP3    H233374   5.435   0.879   1.986
 3939TIP3   OH233375   1.241   2.120   7.992
 3939TIP3    H133376   1.314   2.126   7.931
 3939TIP3    H233377   1.238   2.027   8.017
 3940TIP3   OH233378   4.722   2.505   7.388
 3940TIP3    H133379   4.638   2.472   7.417
 3940TIP3    H233380   4.720   2.599   7.409
 3941TIP3   OH233381   4.715   1.859   0.826
 3941TIP3    H133382   4.676   1.846   0.739
 3941TIP3    H233383   4.663   1.804   0.885
 3942TIP3   OH233384   2.544   0.611   8.382
 3942TIP3    H133385   2.486   0.592   8.309
 3942TIP3    H233386   2.541   0.533   8.438
 3943TIP3   OH233387   6.538   6.312   7.692
 3943TIP3    H133388   6.598   6.337   7.762
 3943TIP3    H233389   6.528   6.217   7.701
 3944TIP3   OH233390   4.526   1.054   1.040
 3944TIP3    H133391   4.443   1.075   0.997
 3944TIP3    H233392   4.554   1.137   1.078
 3945TIP3   OH233393   4.450   2.226   0.610
 3945TIP3    H133394   4.468   2.255   0.700
 3945TIP3    H233395   4.524   2.170   0.588
 3946TIP3   OH233396   4.070   0.051   7.836
 3946TIP3    H133397   4.025   0.117   7.783
 3946TIP3    H233398   4.084   0.094   7.921
 3947TIP3   OH233399   4.563   1.974   7.587
 3947TIP3    H133400   4.512   1.897   7.560
 3947TIP3    H233401   4.650   1.939   7.607
 3948TIP3   OH233402   3.620   0.483   0.838
 3948TIP3    H133403   3.621   0.483   0.934
 3948TIP3    H233404   3.552   0.419   0.815
 3949TIP3   OH233405   3.408   2.666   7.251
 3949TIP3    H133406   3.409   2.704   7.163
 3949TIP3    H233407   3.333   2.606   7.250
 3950TIP3   OH233408   4.689   1.201   7.375
 3950TIP3    H133409   4.661   1.192   7.284
 3950TIP3    H233410   4.668   1.292   7.397
 3951TIP3   OH233411   5.824   1.612   0.178
 3951TIP3    H133412   5.847   1.578   0.264
 3951TIP3    H233413   5.902   1.597   0.125
 3952TIP3   OH233414   5.682   4.807   7.428
 3952TIP3    H133415   5.730   4.725   7.441
 3952TIP3    H233416   5.599   4.793   7.473
 3953TIP3   OH233417   1.384   1.902   7.102
 3953TIP3    H133418   1.473   1.913   7.069
 3953TIP3    H233419   1.392   1.912   7.197
 3954TIP3   OH233420   0.866   3.128   8.017
 3954TIP3    H133421   0.855   3.041   7.977
 3954TIP3    H233422   0.855   3.189   7.944
 3955TIP3   OH233423   1.430   2.201   1.419
 3955TIP3    H133424   1.433   2.210   1.515
 3955TIP3    H233425   1.513   2.159   1.397
 3956TIP3   OH233426   3.012   2.124   6.895
 3956TIP3    H133427   2.978   2.192   6.952
 3956TIP3    H233428   3.084   2.085   6.944
 3957TIP3   OH233429   2.969   5.860   0.100
 3957TIP3    H133430   2.983   5.948   0.135
 3957TIP3    H233431   2.953   5.874   0.007
 3958TIP3   OH233432   0.784   5.315   1.650
 3958TIP3    H133433   0.715   5.359   1.600
 3958TIP3    H233434   0.824   5.385   1.702
 3959TIP3   OH233435   6.012   3.749   0.078
 3959TIP3    H133436   6.077   3.771   0.012
 3959TIP3    H233437   6.045   3.790   0.158
 3960TIP3   OH233438   3.569   5.778   7.568
 3960TIP3    H133439   3.486   5.778   7.521
 3960TIP3    H233440   3.559   5.709   7.633
 3961TIP3   OH233441   1.125   3.311   1.762
 3961TIP3    H133442   1.032   3.288   1.775
 3961TIP3    H233443   1.167   3.284   1.844
 3962TIP3   OH233444   4.800   0.623   0.100
 3962TIP3    H133445   4.745   0.606   0.177
 3962TIP3    H233446   4.802   0.539   0.054
 3963TIP3   OH233447   4.762   2.435   0.659
 3963TIP3    H133448   4.774   2.353   0.707
 3963TIP3    H233449   4.838   2.488   0.682
 3964TIP3   OH233450   1.724   1.731   1.675
 3964TIP3    H133451   1.661   1.778   1.619
 3964TIP3    H233452   1.707   1.639   1.658
 3965TIP3   OH233453   4.896   4.172   8.411
 3965TIP3    H133454   4.830   4.212   8.467
 3965TIP3    H233455   4.850   4.102   8.365
 3966TIP3   OH233456   0.511   2.937   6.750
 3966TIP3    H133457   0.417   2.939   6.766
 3966TIP3    H233458   0.536   3.029   6.738
 3967TIP3   OH233459   2.356   6.796   7.210
 3967TIP3    H133460   2.451   6.809   7.213
 3967TIP3    H233461   2.331   0.011   7.122
 3968TIP3   OH233462   4.246   3.601   7.672
 3968TIP3    H133463   4.288   3.681   7.703
 3968TIP3    H233464   4.277   3.590   7.582
 3969TIP3   OH233465   6.125   5.705   1.161
 3969TIP3    H133466   6.059   5.705   1.231
 3969TIP3    H233467   6.189   5.639   1.188
 3970TIP3   OH233468   2.063   5.076   1.859
 3970TIP3    H133469   2.081   5.170   1.849
 3970TIP3    H233470   1.968   5.070   1.862
 3971TIP3   OH233471   1.130   0.679   8.536
 3971TIP3    H133472   1.223   0.696   8.548
 3971TIP3    H233473   1.086   0.756   8.573
 3972TIP3   OH233474   0.144   1.758   1.534
 3972TIP3    H133475   0.177   1.847   1.550
 3972TIP3    H233476   0.070   1.749   1.593
 3973TIP3   OH233477   5.367   1.042   1.419
 3973TIP3    H133478   5.335   1.112   1.361
 3973TIP3    H233479   5.405   0.978   1.360
 3974TIP3   OH233480   6.552   6.540   2.449
 3974TIP3    H133481   6.521   6.492   2.526
 3974TIP3    H233482   6.492   6.615   2.442
 3975TIP3   OH233483   1.430   3.123   8.207
 3975TIP3    H133484   1.349   3.163   8.177
 3975TIP3    H233485   1.401   3.043   8.251
 3976TIP3   OH233486   1.493   4.222   8.630
 3976TIP3    H133487   1.534   4.136   8.624
 3976TIP3    H233488   1.478   4.235   8.724
 3977TIP3   OH233489   5.717   0.450   0.242
 3977TIP3    H133490   5.745   0.399   0.165
 3977TIP3    H233491   5.678   0.384   0.300
 3978TIP3   OH233492   6.529   6.077   6.717
 3978TIP3    H133493   6.601   6.123   6.758
 3978TIP3    H233494   6.569   6.031   6.643
 3979TIP3   OH233495   0.876   4.094   8.268
 3979TIP3    H133496   0.964   4.132   8.258
 3979TIP3    H233497   0.886   4.029   8.338
 3980TIP3   OH233498   4.789   1.938   1.177
 3980TIP3    H133499   4.693   1.943   1.177
 3980TIP3    H233500   4.812   1.921   1.086
 3981TIP3   OH233501   4.978   0.932   0.823
 3981TIP3    H133502   4.921   0.999   0.860
 3981TIP3    H233503   4.949   0.850   0.862
 3982TIP3   OH233504   0.290   0.006   2.024
 3982TIP3    H133505   0.309   6.763   2.098
 3982TIP3    H233506   0.345   6.787   1.953
 3983TIP3   OH233507   0.551   2.486   8.456
 3983TIP3    H133508   0.532   2.394   8.471
 3983TIP3    H233509   0.624   2.505   8.515
 3984TIP3   OH233510   0.301   1.571   8.284
 3984TIP3    H133511   0.266   1.616   8.361
 3984TIP3    H233512   0.232   1.510   8.259
 3985TIP3   OH233513   5.006   5.863   2.567
 3985TIP3    H133514   5.063   5.880   2.642
 3985TIP3    H233515   4.935   5.809   2.602
 3986TIP3   OH233516   4.550   6.380   0.535
 3986TIP3    H133517   4.478   6.420   0.585
 3986TIP3    H233518   4.628   6.398   0.588
 3987TIP3   OH233519   4.261   2.539   8.651
 3987TIP3    H133520   4.276   2.566   8.561
 3987TIP3    H233521   4.206   2.608   8.688
 3988TIP3   OH233522   2.928   1.294   8.687
 3988TIP3    H133523   2.845   1.304   8.639
 3988TIP3    H233524   2.919   1.351   8.763
 3989TIP3   OH233525   4.524   3.871   1.389
 3989TIP3    H133526   4.525   3.828   1.475
 3989TIP3    H233527   4.505   3.963   1.409
 3990TIP3   OH233528   6.304   3.505   1.244
 3990TIP3    H133529   6.393   3.489   1.274
 3990TIP3    H233530   6.301   3.600   1.231
 3991TIP3   OH233531   1.079   3.063   6.818
 3991TIP3    H133532   1.149   3.035   6.760
 3991TIP3    H233533   1.026   3.122   6.766
 3992TIP3   OH233534   6.543   1.560   7.073
 3992TIP3    H133535   6.622   1.606   7.101
 3992TIP3    H233536   6.495   1.625   7.021
 3993TIP3   OH233537   2.776   2.947   8.594
 3993TIP3    H133538   2.801   2.980   8.508
 3993TIP3    H233539   2.694   2.899   8.579
 3994TIP3   OH233540   0.069   3.152   7.573
 3994TIP3    H133541   0.054   3.115   7.660
 3994TIP3    H233542   0.057   3.247   7.585
 3995TIP3   OH233543   3.893   3.643   7.256
 3995TIP3    H133544   3.858   3.730   7.234
 3995TIP3    H233545   3.987   3.651   7.243
 3996TIP3   OH233546   4.650   1.401   2.412
 3996TIP3    H133547   4.735   1.444   2.403
 3996TIP3    H233548   4.588   1.474   2.417
 3997TIP3   OH233549   5.648   0.039   1.694
 3997TIP3    H133550   5.724   0.074   1.648
 3997TIP3    H233551   5.572   0.074   1.647
 3998TIP3   OH233552   0.959   3.746   7.476
 3998TIP3    H133553   0.906   3.806   7.528
 3998TIP3    H233554   1.049   3.768   7.499
 3999TIP3   OH233555   6.330   0.912   2.176
 3999TIP3    H133556   6.399   0.908   2.110
 3999TIP3    H233557   6.302   1.003   2.176
 4000TIP3   OH233558   5.665   1.465   1.253
 4000TIP3    H133559   5.751   1.476   1.212
 4000TIP3    H233560   5.647   1.371   1.246
 4001TIP3   OH233561   0.009   2.159   0.317
 4001TIP3    H133562   0.091   2.118   0.343
 4001TIP3    H233563   6.780   2.093   0.264
 4002TIP3   OH233564   5.899   6.005   1.591
 4002TIP3    H133565   5.890   6.052   1.509
 4002TIP3    H233566   5.837   6.047   1.651
 4003TIP3   OH233567   1.611   5.987   1.757
 4003TIP3    H133568   1.600   5.898   1.791
 4003TIP3    H233569   1.685   5.980   1.696
 4004TIP3   OH233570   1.867   0.851   8.758
 4004TIP3    H133571   1.870   0.778   8.695
 4004TIP3    H233572   1.822   0.814   0.043
 4005TIP3   OH233573   2.106   5.850   8.531
 4005TIP3    H133574   2.118   5.833   8.624
 4005TIP3    H233575   2.011   5.848   8.518
 4006TIP3   OH233576   1.285   1.451   1.953
 4006TIP3    H133577   1.191   1.453   1.934
 4006TIP3    H233578   1.303   1.360   1.976
 4007TIP3   OH233579   4.268   2.855   1.014
 4007TIP3    H133580   4.247   2.893   1.100
 4007TIP3    H233581   4.342   2.797   1.031
 4008TIP3   OH233582   5.231   2.701   6.723
 4008TIP3    H133583   5.152   2.672   6.678
 4008TIP3    H233584   5.199   2.755   6.796
 4009TIP3   OH233585   0.750   3.899   2.134
 4009TIP3    H133586   0.666   3.944   2.145
 4009TIP3    H233587   0.759   3.846   2.214
 4010TIP3   OH233588   2.162   4.294   7.291
 4010TIP3    H133589   2.101   4.346   7.343
 4010TIP3    H233590   2.112   4.216   7.267
 4011TIP3   OH233591   1.995   1.605   7.694
 4011TIP3    H133592   1.915   1.574   7.737
 4011TIP3    H233593   2.028   1.674   7.751
 4012TIP3   OH233594   0.499   4.398   8.101
 4012TIP3    H133595   0.553   4.403   8.180
 4012TIP3    H233596   0.535   4.467   8.044
 4013TIP3   OH233597   1.260   3.692   7.619
 4013TIP3    H133598   1.199   3.715   7.689
 4013TIP3    H233599   1.346   3.693   7.661
 4014TIP3   OH233600   0.210   2.100   0.710
 4014TIP3    H133601   0.279   2.099   0.776
 4014TIP3    H233602   0.253   2.069   0.630
 4015TIP3   OH233603   3.810   5.089   6.544
 4015TIP3    H133604   3.789   5.158   6.480
 4015TIP3    H233605   3.837   5.014   6.490
 4016TIP3   OH233606   5.707   5.368   8.688
 4016TIP3    H133607   5.704   5.323   8.773
 4016TIP3    H233608   5.633   5.428   8.690
 4017TIP3   OH233609   4.414   6.420   7.479
 4017TIP3    H133610   4.390   6.348   7.538
 4017TIP3    H233611   4.342   6.482   7.486
 4018TIP3   OH233612   2.621   6.642   0.469
 4018TIP3    H133613   2.540   6.682   0.500
 4018TIP3    H233614   2.665   6.612   0.549
 4019TIP3   OH233615   5.367   6.556   7.730
 4019TIP3    H133616   5.347   6.542   7.638
 4019TIP3    H233617   5.457   6.527   7.740
 4020TIP3   OH233618   6.564   5.231   0.809
 4020TIP3    H133619   6.553   5.303   0.747
 4020TIP3    H233620   6.485   5.234   0.864
 4021TIP3   OH233621   4.620   2.337   7.981
 4021TIP3    H133622   4.662   2.286   7.912
 4021TIP3    H233623   4.540   2.369   7.941
 4022TIP3   OH233624   6.726   6.393   2.196
 4022TIP3    H133625   6.653   6.454   2.211
 4022TIP3    H233626   6.728   6.381   2.101
 4023TIP3   OH233627   5.953   2.675   8.450
 4023TIP3    H133628   5.989   2.762   8.465
 4023TIP3    H233629   5.983   2.623   8.525
 4024TIP3   OH233630   0.227   2.310   7.834
 4024TIP3    H133631   0.315   2.308   7.794
 4024TIP3    H233632   0.175   2.363   7.774
 4025TIP3   OH233633   2.941   5.125   7.581
 4025TIP3    H133634   2.914   5.131   7.672
 4025TIP3    H233635   2.957   5.215   7.554
 4026TIP3   OH233636   6.344   2.995   1.568
 4026TIP3    H133637   6.306   3.046   1.497
 4026TIP3    H233638   6.369   3.060   1.634
 4027TIP3   OH233639   4.696   3.177   7.161
 4027TIP3    H133640   4.688   3.212   7.072
 4027TIP3    H233641   4.668   3.086   7.154
 4028TIP3   OH233642   3.506   3.420   7.162
 4028TIP3    H133643   3.491   3.506   7.201
 4028TIP3    H233644   3.458   3.422   7.079
 4029TIP3   OH233645   0.320   0.366   8.246
 4029TIP3    H133646   0.411   0.385   8.267
 4029TIP3    H233647   0.312   0.271   8.257
 4030TIP3   OH233648   1.508   3.561   0.906
 4030TIP3    H133649   1.527   3.535   0.996
 4030TIP3    H233650   1.593   3.563   0.863
 4031TIP3   OH233651   6.401   5.792   8.288
 4031TIP3    H133652   6.314   5.761   8.311
 4031TIP3    H233653   6.418   5.863   8.350
 4032TIP3   OH233654   5.721   2.589   6.972
 4032TIP3    H133655   5.687   2.678   6.975
 4032TIP3    H233656   5.814   2.600   6.951
 4033TIP3   OH233657   0.732   2.593   8.112
 4033TIP3    H133658   0.787   2.670   8.104
 4033TIP3    H233659   0.759   2.536   8.040
 4034TIP3   OH233660   0.125   3.460   1.991
 4034TIP3    H133661   0.134   3.403   2.067
 4034TIP3    H233662   0.152   3.406   1.917
 4035TIP3   OH233663   0.209   2.914   7.332
 4035TIP3    H133664   0.293   2.874   7.308
 4035TIP3    H233665   0.228   3.007   7.341
 4036TIP3   OH233666   5.755   6.405   1.468
 4036TIP3    H133667   5.720   6.467   1.532
 4036TIP3    H233668   5.837   6.375   1.507
 4037TIP3   OH233669   1.961   1.540   0.701
 4037TIP3    H133670   2.017   1.618   0.698
 4037TIP3    H233671   2.013   1.475   0.748
 4038TIP3   OH233672   2.411   4.284   7.090
 4038TIP3    H133673   2.328   4.269   7.134
 4038TIP3    H233674   2.420   4.209   7.030
 4039TIP3   OH233675   3.499   0.965   0.166
 4039TIP3    H133676   3.506   0.969   0.070
 4039TIP3    H233677   3.407   0.943   0.182
 4040TIP3   OH233678   1.567   2.427   7.614
 4040TIP3    H133679   1.577   2.426   7.518
 4040TIP3    H233680   1.614   2.348   7.643
 4041TIP3   OH233681   1.196   1.240   1.446
 4041TIP3    H133682   1.288   1.238   1.472
 4041TIP3    H233683   1.150   1.197   1.517
 4042TIP3   OH233684   1.728   4.768   6.782
 4042TIP3    H133685   1.778   4.726   6.712
 4042TIP3    H233686   1.776   4.849   6.801
 4043TIP3   OH233687   1.824   0.810   7.604
 4043TIP3    H133688   1.802   0.718   7.590
 4043TIP3    H233689   1.761   0.841   7.669
 4044TIP3   OH233690   5.269   2.951   8.041
 4044TIP3    H133691   5.201   2.985   7.983
 4044TIP3    H233692   5.242   2.861   8.060
 4045TIP3   OH233693   5.135   1.198   7.282
 4045TIP3    H133694   5.214   1.150   7.307
 4045TIP3    H233695   5.072   1.130   7.258
 4046TIP3   OH233696   6.529   2.972   7.647
 4046TIP3    H133697   6.511   3.010   7.733
 4046TIP3    H233698   6.476   3.024   7.586
 4047TIP3   OH233699   1.599   5.066   6.601
 4047TIP3    H133700   1.577   4.976   6.577
 4047TIP3    H233701   1.523   5.117   6.573
 4048TIP3   OH233702   3.369   2.909   8.559
 4048TIP3    H133703   3.402   2.826   8.593
 4048TIP3    H233704   3.274   2.903   8.571
 4049TIP3   OH233705   0.635   4.954   7.518
 4049TIP3    H133706   0.600   4.916   7.437
 4049TIP3    H233707   0.610   5.046   7.514
 4050TIP3   OH233708   3.141   3.071   1.679
 4050TIP3    H133709   3.163   3.102   1.767
 4050TIP3    H233710   3.180   3.136   1.620
 4051TIP3   OH233711   2.355   5.200   8.210
 4051TIP3    H133712   2.328   5.119   8.253
 4051TIP3    H233713   2.273   5.240   8.180
 4052TIP3   OH233714   6.245   3.711   7.197
 4052TIP3    H133715   6.287   3.789   7.161
 4052TIP3    H233716   6.299   3.688   7.273
 4053TIP3   OH233717   3.291   2.685   1.402
 4053TIP3    H133718   3.360   2.699   1.467
 4053TIP3    H233719   3.273   2.591   1.406
 4054TIP3   OH233720   3.159   3.303   7.244
 4054TIP3    H133721   3.165   3.394   7.215
 4054TIP3    H233722   3.241   3.287   7.291
 4055TIP3   OH233723   1.905   5.989   0.666
 4055TIP3    H133724   1.980   6.048   0.678
 4055TIP3    H233725   1.835   6.046   0.634
 4056TIP3   OH233726   4.746   0.973   1.325
 4056TIP3    H133727   4.708   1.000   1.409
 4056TIP3    H233728   4.672   0.955   1.269
 4057TIP3   OH233729   0.022   0.248   0.022
 4057TIP3    H133730   0.033   0.167   0.071
 4057TIP3    H233731   0.069   0.234   8.731
 4058TIP3   OH233732   3.477   6.048   0.245
 4058TIP3    H133733   3.494   5.994   0.322
 4058TIP3    H233734   3.383   6.064   0.247
 4059TIP3   OH233735   3.393   5.794   1.343
 4059TIP3    H133736   3.377   5.806   1.437
 4059TIP3    H233737   3.305   5.782   1.305
 4060TIP3   OH233738   4.725   6.277   8.597
 4060TIP3    H133739   4.787   6.238   8.536
 4060TIP3    H233740   4.718   6.215   8.669
 4061TIP3   OH233741   5.972   1.032   1.792
 4061TIP3    H133742   5.991   1.080   1.711
 4061TIP3    H233743   6.019   0.949   1.782
 4062TIP3   OH233744   6.199   2.178   7.578
 4062TIP3    H133745   6.149   2.176   7.497
 4062TIP3    H233746   6.240   2.265   7.579
 4063TIP3   OH233747   3.357   0.172   0.406
 4063TIP3    H133748   3.406   0.251   0.429
 4063TIP3    H233749   3.271   0.204   0.379
 4064TIP3   OH233750   4.885   4.738   7.221
 4064TIP3    H133751   4.895   4.643   7.234
 4064TIP3    H233752   4.959   4.776   7.267
 4065TIP3   OH233753   2.456   3.529   7.653
 4065TIP3    H133754   2.387   3.579   7.696
 4065TIP3    H233755   2.535   3.551   7.703
 4066TIP3   OH233756   3.415   5.450   1.936
 4066TIP3    H133757   3.493   5.410   1.899
 4066TIP3    H233758   3.347   5.438   1.870
 4067TIP3   OH233759   6.494   5.469   0.730
 4067TIP3    H133760   6.474   5.512   0.813
 4067TIP3    H233761   6.543   5.535   0.680
 4068TIP3   OH233762   0.085   4.896   0.138
 4068TIP3    H133763   0.042   4.919   0.221
 4068TIP3    H233764   0.175   4.926   0.149
 4069TIP3   OH233765   6.781   2.775   0.981
 4069TIP3    H133766   6.807   2.866   0.990
 4069TIP3    H233767   0.049   2.726   0.988
 4070TIP3   OH233768   6.747   0.898   8.166
 4070TIP3    H133769   6.716   0.934   8.083
 4070TIP3    H233770   6.696   0.818   8.178
 4071TIP3   OH233771   3.922   6.087   8.359
 4071TIP3    H133772   3.886   6.175   8.347
 4071TIP3    H233773   3.963   6.067   8.275
 4072TIP3   OH233774   1.230   6.120   6.407
 4072TIP3    H133775   1.253   6.030   6.432
 4072TIP3    H233776   1.312   6.158   6.375
 4073TIP3   OH233777   2.212   2.044   7.835
 4073TIP3    H133778   2.129   2.001   7.814
 4073TIP3    H233779   2.269   2.024   7.761
 4074TIP3   OH233780   0.488   3.325   8.409
 4074TIP3    H133781   0.470   3.416   8.383
 4074TIP3    H233782   0.405   3.294   8.446
 4075TIP3   OH233783   0.948   3.266   0.248
 4075TIP3    H133784   1.040   3.291   0.235
 4075TIP3    H233785   0.921   3.315   0.326
 4076TIP3   OH233786   3.332   5.260   2.127
 4076TIP3    H133787   3.375   5.246   2.212
 4076TIP3    H233788   3.384   5.328   2.085
 4077TIP3   OH233789   6.011   4.750   7.376
 4077TIP3    H133790   6.019   4.803   7.456
 4077TIP3    H233791   5.980   4.812   7.309
 4078TIP3   OH233792   4.564   0.935   7.711
 4078TIP3    H133793   4.632   0.974   7.765
 4078TIP3    H233794   4.608   0.911   7.630
 4079TIP3   OH233795   5.761   2.936   1.181
 4079TIP3    H133796   5.848   2.962   1.150
 4079TIP3    H233797   5.778   2.866   1.244
 4080TIP3   OH233798   5.132   2.678   1.872
 4080TIP3    H133799   5.127   2.593   1.828
 4080TIP3    H233800   5.225   2.700   1.871
 4081TIP3   OH233801   5.905   4.582   0.271
 4081TIP3    H133802   5.999   4.561   0.268
 4081TIP3    H233803   5.880   4.588   0.178
 4082TIP3   OH233804   4.968   6.462   7.526
 4082TIP3    H133805   4.887   6.501   7.558
 4082TIP3    H233806   4.942   6.407   7.452
 4083TIP3   OH233807   2.334   5.172   8.558
 4083TIP3    H133808   2.249   5.212   8.542
 4083TIP3    H233809   2.365   5.146   8.472
 4084TIP3   OH233810   0.358   2.156   0.484
 4084TIP3    H133811   0.427   2.219   0.505
 4084TIP3    H233812   0.328   2.181   0.397
 4085TIP3   OH233813   4.283   2.929   8.085
 4085TIP3    H133814   4.341   2.884   8.024
 4085TIP3    H233815   4.271   2.867   8.157
 4086TIP3   OH233816   2.335   3.558   1.244
 4086TIP3    H133817   2.416   3.564   1.194
 4086TIP3    H233818   2.343   3.626   1.311
 4087TIP3   OH233819   3.034   6.553   8.383
 4087TIP3    H133820   3.098   6.530   8.450
 4087TIP3    H233821   2.952   6.514   8.414
 4088TIP3   OH233822   2.125   5.562   0.134
 4088TIP3    H133823   2.146   5.482   0.085
 4088TIP3    H233824   2.078   5.531   0.211
 4089TIP3   OH233825   3.201   2.076   1.730
 4089TIP3    H133826   3.110   2.086   1.702
 4089TIP3    H233827   3.249   2.057   1.649
 4090TIP3   OH233828   1.056   5.164   1.211
 4090TIP3    H133829   1.137   5.211   1.230
 4090TIP3    H233830   1.062   5.143   1.118
 4091TIP3   OH233831   2.892   0.202   6.986
 4091TIP3    H133832   2.871   0.190   7.079
 4091TIP3    H233833   2.988   0.208   6.983
 4092TIP3   OH233834   2.157   2.708   7.315
 4092TIP3    H133835   2.196   2.738   7.397
 4092TIP3    H233836   2.189   2.769   7.249
 4093TIP3   OH233837   1.509   0.936   0.980
 4093TIP3    H133838   1.552   0.873   1.037
 4093TIP3    H233839   1.463   0.882   0.915
 4094TIP3   OH233840   0.465   5.717   1.396
 4094TIP3    H133841   0.544   5.663   1.387
 4094TIP3    H233842   0.397   5.668   1.349
 4095TIP3   OH233843   0.855   3.373   0.984
 4095TIP3    H133844   0.865   3.367   1.079
 4095TIP3    H233845   0.760   3.377   0.970
 4096TIP3   OH233846   3.616   1.071   7.593
 4096TIP3    H133847   3.531   1.115   7.593
 4096TIP3    H233848   3.671   1.126   7.648
 4097TIP3   OH233849   1.766   0.522   2.031
 4097TIP3    H133850   1.707   0.471   2.085
 4097TIP3    H233851   1.835   0.552   2.091
 4098TIP3   OH233852   2.475   2.085   8.685
 4098TIP3    H133853   2.394   2.049   8.650
 4098TIP3    H233854   2.465   2.079   8.780
 4099TIP3   OH233855   0.275   2.634   8.395
 4099TIP3    H133856   0.265   2.601   8.305
 4099TIP3    H233857   0.370   2.637   8.409
 4100TIP3   OH233858   0.444   0.256   7.841
 4100TIP3    H133859   0.396   0.187   7.796
 4100TIP3    H233860   0.500   0.209   7.903
 4101TIP3   OH233861   2.324   5.231   7.567
 4101TIP3    H133862   2.290   5.321   7.570
 4101TIP3    H233863   2.327   5.204   7.659
 4102TIP3   OH233864   4.867   0.442   8.683
 4102TIP3    H133865   4.956   0.449   8.718
 4102TIP3    H233866   4.871   0.370   8.621
 4103TIP3   OH233867   3.004   3.145   7.536
 4103TIP3    H133868   2.990   3.071   7.476
 4103TIP3    H233869   2.917   3.164   7.571
 4104TIP3   OH233870   3.073   6.527   7.825
 4104TIP3    H133871   3.150   6.506   7.877
 4104TIP3    H233872   3.105   6.536   7.735
 4105TIP3   OH233873   0.128   1.194   0.057
 4105TIP3    H133874   0.190   1.169   0.126
 4105TIP3    H233875   0.042   1.169   0.091
 4106TIP3   OH233876   6.281   6.601   1.366
 4106TIP3    H133877   6.243   6.630   1.449
 4106TIP3    H233878   6.376   6.608   1.379
 4107TIP3   OH233879   0.165   4.206   8.084
 4107TIP3    H133880   0.113   4.199   8.164
 4107TIP3    H233881   0.115   4.156   8.019
 4108TIP3   OH233882   1.695   1.500   0.639
 4108TIP3    H133883   1.698   1.419   0.588
 4108TIP3    H233884   1.787   1.518   0.661
 4109TIP3   OH233885   0.720   3.611   0.825
 4109TIP3    H133886   0.635   3.578   0.854
 4109TIP3    H233887   0.778   3.535   0.830
 4110TIP3   OH233888   4.870   6.556   8.059
 4110TIP3    H133889   4.851   6.477   8.108
 4110TIP3    H233890   4.890   6.526   7.970
 4111TIP3   OH233891   6.658   3.457   0.677
 4111TIP3    H133892   6.589   3.518   0.702
 4111TIP3    H233893   6.611   3.381   0.643
 4112TIP3   OH233894   0.684   1.824   0.507
 4112TIP3    H133895   0.767   1.871   0.501
 4112TIP3    H233896   0.641   1.840   0.422
 4113TIP3   OH233897   1.480   5.713   7.645
 4113TIP3    H133898   1.488   5.617   7.643
 4113TIP3    H233899   1.566   5.745   7.619
 4114TIP3   OH233900   2.914   4.084   1.578
 4114TIP3    H133901   2.896   4.009   1.635
 4114TIP3    H233902   2.847   4.080   1.510
 4115TIP3   OH233903   4.464   2.702   1.183
 4115TIP3    H133904   4.514   2.781   1.203
 4115TIP3    H233905   4.446   2.664   1.269
 4116TIP3   OH233906   3.067   4.558   7.263
 4116TIP3    H133907   2.985   4.512   7.249
 4116TIP3    H233908   3.053   4.608   7.344
 4117TIP3   OH233909   0.620   3.036   1.093
 4117TIP3    H133910   0.584   3.118   1.060
 4117TIP3    H233911   0.686   3.063   1.157
 4118TIP3   OH233912   0.678   6.793   7.495
 4118TIP3    H133913   0.692   6.700   7.515
 4118TIP3    H233914   0.599   6.795   7.440
 4119TIP3   OH233915   3.057   6.033   7.866
 4119TIP3    H133916   3.081   6.124   7.846
 4119TIP3    H233917   2.962   6.036   7.878
 4120TIP3   OH233918   0.367   2.816   0.141
 4120TIP3    H133919   0.291   2.759   0.134
 4120TIP3    H233920   0.438   2.769   0.097
 4121TIP3   OH233921   2.891   3.467   8.105
 4121TIP3    H133922   2.915   3.398   8.167
 4121TIP3    H233923   2.957   3.535   8.119
 4122TIP3   OH233924   0.263   3.200   8.488
 4122TIP3    H133925   0.276   3.136   8.558
 4122TIP3    H233926   0.181   3.242   8.509
 4123TIP3   OH233927   5.072   4.523   0.208
 4123TIP3    H133928   5.026   4.591   0.257
 4123TIP3    H233929   5.046   4.441   0.250
 4124TIP3   OH233930   4.570   5.915   0.185
 4124TIP3    H133931   4.634   5.893   0.252
 4124TIP3    H233932   4.550   5.831   0.143
 4125TIP3   OH233933   6.104   3.477   6.719
 4125TIP3    H133934   6.139   3.403   6.769
 4125TIP3    H233935   6.077   3.439   6.635
 4126TIP3   OH233936   2.719   0.291   1.770
 4126TIP3    H133937   2.627   0.276   1.746
 4126TIP3    H233938   2.729   0.248   1.855
 4127TIP3   OH233939   2.336   2.497   8.177
 4127TIP3    H133940   2.325   2.579   8.129
 4127TIP3    H233941   2.247   2.475   8.206
 4128TIP3   OH233942   6.354   2.919   0.759
 4128TIP3    H133943   6.435   2.881   0.792
 4128TIP3    H233944   6.338   2.876   0.676
 4129TIP3   OH233945   0.468   6.322   0.996
 4129TIP3    H133946   0.413   6.376   1.052
 4129TIP3    H233947   0.506   6.384   0.934
 4130TIP3   OH233948   2.345   0.223   8.544
 4130TIP3    H133949   2.320   0.140   8.584
 4130TIP3    H233950   2.305   0.221   8.457
 4131TIP3   OH233951   3.814   6.374   7.078
 4131TIP3    H133952   3.785   6.294   7.122
 4131TIP3    H233953   3.889   6.347   7.026
 4132TIP3   OH233954   2.527   2.933   8.172
 4132TIP3    H133955   2.476   2.945   8.092
 4132TIP3    H233956   2.616   2.918   8.141
 4133TIP3   OH233957   5.614   5.988   2.813
 4133TIP3    H133958   5.656   6.055   2.867
 4133TIP3    H233959   5.568   6.036   2.745
 4134TIP3   OH233960   0.147   3.934   0.965
 4134TIP3    H133961   0.212   3.886   1.017
 4134TIP3    H233962   0.198   3.970   0.891
 4135TIP3   OH233963   6.228   5.341   1.775
 4135TIP3    H133964   6.185   5.372   1.695
 4135TIP3    H233965   6.284   5.413   1.803
 4136TIP3   OH233966   3.766   2.522   1.566
 4136TIP3    H133967   3.828   2.459   1.530
 4136TIP3    H233968   3.791   2.606   1.527
 4137TIP3   OH233969   1.831   2.187   7.306
 4137TIP3    H133970   1.799   2.127   7.239
 4137TIP3    H233971   1.807   2.274   7.275
 4138TIP3   OH233972   2.547   0.577   7.240
 4138TIP3    H133973   2.538   0.626   7.322
 4138TIP3    H233974   2.460   0.541   7.224
 4139TIP3   OH233975   6.167   2.454   8.307
 4139TIP3    H133976   6.153   2.360   8.316
 4139TIP3    H233977   6.211   2.480   8.387
 4140TIP3   OH233978   3.320   2.811   7.478
 4140TIP3    H133979   3.238   2.816   7.429
 4140TIP3    H233980   3.387   2.796   7.410
 4141TIP3   OH233981   1.824   0.133   1.016
 4141TIP3    H133982   1.897   0.152   0.958
 4141TIP3    H233983   1.864   0.130   1.104
 4142TIP3   OH233984   0.738   2.773   1.036
 4142TIP3    H133985   0.717   2.862   1.063
 4142TIP3    H233986   0.787   2.736   1.110
 4143TIP3   OH233987   5.090   4.527   1.314
 4143TIP3    H133988   5.096   4.434   1.293
 4143TIP3    H233989   4.996   4.544   1.324
 4144TIP3   OH233990   3.652   3.762   8.330
 4144TIP3    H133991   3.676   3.793   8.417
 4144TIP3    H233992   3.564   3.725   8.342
 4145TIP3   OH233993   0.441   2.768   7.283
 4145TIP3    H133994   0.498   2.839   7.252
 4145TIP3    H233995   0.478   2.689   7.242
 4146TIP3   OH233996   3.483   5.754   0.968
 4146TIP3    H133997   3.548   5.762   1.038
 4146TIP3    H233998   3.414   5.816   0.992
 4147TIP3   OH233999   2.606   0.937   7.710
 4147TIP3    H134000   2.563   0.991   7.644
 4147TIP3    H234001   2.698   0.962   7.705
 4148TIP3   OH234002   0.779   1.123   0.215
 4148TIP3    H134003   0.733   1.057   0.163
 4148TIP3    H234004   0.788   1.198   0.156
 4149TIP3   OH234005   5.339   0.645   0.774
 4149TIP3    H134006   5.273   0.605   0.718
 4149TIP3    H234007   5.416   0.589   0.765
 4150TIP3   OH234008   3.822   4.094   0.487
 4150TIP3    H134009   3.747   4.036   0.497
 4150TIP3    H234010   3.807   4.163   0.552
 4151TIP3   OH234011   2.773   4.899   1.081
 4151TIP3    H134012   2.756   4.837   1.011
 4151TIP3    H234013   2.837   4.855   1.137
 4152TIP3   OH234014   5.058   3.206   0.092
 4152TIP3    H134015   4.967   3.181   0.109
 4152TIP3    H234016   5.086   3.151   0.019
 4153TIP3   OH234017   1.230   6.408   6.385
 4153TIP3    H134018   1.202   6.319   6.405
 4153TIP3    H234019   1.325   6.403   6.381
 4154TIP3   OH234020   1.963   2.461   7.738
 4154TIP3    H134021   1.969   2.528   7.669
 4154TIP3    H234022   1.888   2.407   7.712
 4155TIP3   OH234023   1.898   4.793   0.346
 4155TIP3    H134024   1.841   4.734   0.297
 4155TIP3    H234025   1.891   4.764   0.437
 4156TIP3   OH234026   2.530   1.673   6.759
 4156TIP3    H134027   2.524   1.758   6.716
 4156TIP3    H234028   2.479   1.682   6.839
 4157TIP3   OH234029   0.061   4.703   1.011
 4157TIP3    H134030   0.085   4.633   1.071
 4157TIP3    H234031   0.129   4.700   0.943
 4158TIP3   OH234032   5.493   2.145   1.908
 4158TIP3    H134033   5.557   2.217   1.910
 4158TIP3    H234034   5.493   2.115   1.817
 4159TIP3   OH234035   0.416   6.778   6.818
 4159TIP3    H134036   0.495   0.003   6.782
 4159TIP3    H234037   0.364   6.754   6.742
 4160TIP3   OH234038   1.938   0.707   1.859
 4160TIP3    H134039   1.989   0.788   1.855
 4160TIP3    H234040   1.958   0.670   1.945
 4161TIP3   OH234041   2.757   1.987   6.884
 4161TIP3    H134042   2.794   1.898   6.889
 4161TIP3    H234043   2.833   2.045   6.891
 4162TIP3   OH234044   2.541   3.211   7.239
 4162TIP3    H134045   2.468   3.222   7.179
 4162TIP3    H234046   2.596   3.143   7.198
 4163TIP3   OH234047   3.655   4.575   8.743
 4163TIP3    H134048   3.721   4.630   8.699
 4163TIP3    H234049   3.664   4.489   8.702
 4164TIP3   OH234050   0.527   0.127   7.011
 4164TIP3    H134051   0.523   0.065   6.939
 4164TIP3    H234052   0.451   0.105   7.066
 4165TIP3   OH234053   4.276   3.128   0.266
 4165TIP3    H134054   4.182   3.123   0.250
 4165TIP3    H234055   4.302   3.214   0.232
 4166TIP3   OH234056   2.937   0.213   6.703
 4166TIP3    H134057   2.907   0.304   6.703
 4166TIP3    H234058   2.867   0.165   6.659
 4167TIP3   OH234059   4.689   1.635   2.257
 4167TIP3    H134060   4.605   1.679   2.245
 4167TIP3    H234061   4.754   1.705   2.255
 4168TIP3   OH234062   5.871   4.562   1.286
 4168TIP3    H134063   5.801   4.573   1.351
 4168TIP3    H234064   5.939   4.514   1.333
 4169TIP3   OH234065   3.108   5.742   1.245
 4169TIP3    H134066   3.064   5.820   1.210
 4169TIP3    H234067   3.108   5.756   1.340
 4170TIP3   OH234068   3.502   5.092   1.020
 4170TIP3    H134069   3.568   5.081   1.088
 4170TIP3    H234070   3.421   5.111   1.068
 4171TIP3   OH234071   4.495   5.584   2.283
 4171TIP3    H134072   4.513   5.634   2.204
 4171TIP3    H234073   4.567   5.605   2.342
 4172TIP3   OH234074   4.303   4.154   7.635
 4172TIP3    H134075   4.244   4.087   7.671
 4172TIP3    H234076   4.255   4.236   7.645
 4173TIP3   OH234077   0.322   5.587   8.106
 4173TIP3    H134078   0.417   5.592   8.098
 4173TIP3    H234079   0.291   5.556   8.021
 4174TIP3   OH234080   1.618   3.664   8.059
 4174TIP3    H134081   1.562   3.700   7.990
 4174TIP3    H234082   1.557   3.631   8.125
 4175TIP3   OH234083   3.407   4.717   6.419
 4175TIP3    H134084   3.415   4.623   6.405
 4175TIP3    H234085   3.350   4.747   6.347
 4176TIP3   OH234086   2.665   1.036   0.836
 4176TIP3    H134087   2.745   1.082   0.862
 4176TIP3    H234088   2.595   1.080   0.884
 4177TIP3   OH234089   0.719   4.365   8.288
 4177TIP3    H134090   0.777   4.431   8.326
 4177TIP3    H234091   0.748   4.283   8.327
 4178TIP3   OH234092   1.508   0.165   6.930
 4178TIP3    H134093   1.434   0.199   6.981
 4178TIP3    H234094   1.570   0.238   6.927
 4179TIP3   OH234095   5.203   3.517   0.745
 4179TIP3    H134096   5.292   3.551   0.733
 4179TIP3    H234097   5.211   3.424   0.723
 4180TIP3   OH234098   5.892   1.473   7.832
 4180TIP3    H134099   5.965   1.426   7.793
 4180TIP3    H234100   5.930   1.519   7.907
 4181TIP3   OH234101   3.012   0.283   1.295
 4181TIP3    H134102   3.030   0.357   1.236
 4181TIP3    H234103   3.098   0.259   1.330
 4182TIP3   OH234104   3.945   1.234   2.588
 4182TIP3    H134105   3.942   1.140   2.572
 4182TIP3    H234106   3.949   1.274   2.501
 4183TIP3   OH234107   4.502   1.860   0.102
 4183TIP3    H134108   4.490   1.932   0.041
 4183TIP3    H234109   4.541   1.900   0.179
 4184TIP3   OH234110   4.440   0.902   7.316
 4184TIP3    H134111   4.392   0.976   7.352
 4184TIP3    H234112   4.447   0.921   7.223
 4185TIP3   OH234113   1.314   3.248   7.734
 4185TIP3    H134114   1.360   3.307   7.794
 4185TIP3    H234115   1.368   3.169   7.731
 4186TIP3   OH234116   4.571   1.765   8.056
 4186TIP3    H134117   4.518   1.688   8.076
 4186TIP3    H234118   4.650   1.754   8.111
 4187TIP3   OH234119   2.264   3.655   7.811
 4187TIP3    H134120   2.256   3.750   7.826
 4187TIP3    H234121   2.249   3.617   7.898
 4188TIP3   OH234122   5.529   1.403   0.770
 4188TIP3    H134123   5.457   1.348   0.740
 4188TIP3    H234124   5.560   1.360   0.850
 4189TIP3   OH234125   5.759   0.730   8.121
 4189TIP3    H134126   5.845   0.702   8.150
 4189TIP3    H234127   5.716   0.649   8.092
 4190TIP3   OH234128   2.717   1.770   7.935
 4190TIP3    H134129   2.803   1.771   7.977
 4190TIP3    H234130   2.701   1.861   7.909
 4191TIP3   OH234131   1.672   4.385   6.288
 4191TIP3    H134132   1.716   4.410   6.370
 4191TIP3    H234133   1.584   4.421   6.297
 4192TIP3   OH234134   2.773   4.165   0.884
 4192TIP3    H134135   2.826   4.244   0.871
 4192TIP3    H234136   2.686   4.190   0.854
 4193TIP3   OH234137   4.540   0.009   7.502
 4193TIP3    H134138   4.568   0.100   7.490
 4193TIP3    H234139   4.491   0.010   7.585
 4194TIP3   OH234140   3.647   1.416   1.765
 4194TIP3    H134141   3.738   1.420   1.796
 4194TIP3    H234142   3.602   1.360   1.828
 4195TIP3   OH234143   2.096   0.827   7.296
 4195TIP3    H134144   2.137   0.857   7.377
 4195TIP3    H234145   2.026   0.891   7.279
 4196TIP3   OH234146   4.467   5.976   0.832
 4196TIP3    H134147   4.502   5.889   0.851
 4196TIP3    H234148   4.545   6.030   0.816
 4197TIP3   OH234149   0.424   3.667   8.104
 4197TIP3    H134150   0.408   3.626   8.019
 4197TIP3    H234151   0.362   3.625   8.163
 4198TIP3   OH234152   1.972   3.317   1.290
 4198TIP3    H134153   1.976   3.413   1.296
 4198TIP3    H234154   1.889   3.300   1.246
 4199TIP3   OH234155   5.865   2.244   2.071
 4199TIP3    H134156   5.907   2.226   1.987
 4199TIP3    H234157   5.865   2.161   2.117
 4200TIP3   OH234158   0.768   3.146   1.317
 4200TIP3    H134159   0.689   3.159   1.369
 4200TIP3    H234160   0.799   3.234   1.298
 4201TIP3   OH234161   3.013   1.633   7.394
 4201TIP3    H134162   3.025   1.559   7.454
 4201TIP3    H234163   3.091   1.632   7.338
 4202TIP3   OH234164   0.519   5.180   7.407
 4202TIP3    H134165   0.554   5.254   7.358
 4202TIP3    H234166   0.424   5.186   7.397
 4203TIP3   OH234167   5.819   3.565   0.085
 4203TIP3    H134168   5.881   3.634   0.104
 4203TIP3    H234169   5.852   3.489   0.132
 4204TIP3   OH234170   5.237   3.499   8.752
 4204TIP3    H134171   5.200   3.414   8.730
 4204TIP3    H234172   5.161   3.552   8.778
 4205TIP3   OH234173   5.221   0.347   0.428
 4205TIP3    H134174   5.133   0.349   0.390
 4205TIP3    H234175   5.223   0.265   0.478
 4206TIP3   OH234176   3.878   3.218   6.190
 4206TIP3    H134177   3.814   3.267   6.242
 4206TIP3    H234178   3.953   3.209   6.248
 4207TIP3   OH234179   3.554   4.909   0.289
 4207TIP3    H134180   3.514   4.942   0.370
 4207TIP3    H234181   3.646   4.896   0.312
 4208TIP3   OH234182   3.618   6.500   2.516
 4208TIP3    H134183   3.528   6.471   2.498
 4208TIP3    H234184   3.624   6.499   2.611
 4209TIP3   OH234185   1.523   5.465   6.668
 4209TIP3    H134186   1.526   5.540   6.608
 4209TIP3    H234187   1.599   5.478   6.725
 4210TIP3   OH234188   6.681   2.781   0.717
 4210TIP3    H134189   6.746   2.717   0.746
 4210TIP3    H234190   6.606   2.766   0.775
 4211TIP3   OH234191   0.169   5.496   7.521
 4211TIP3    H134192   0.222   5.507   7.442
 4211TIP3    H234193   0.102   5.433   7.497
 4212TIP3   OH234194   2.073   2.916   8.230
 4212TIP3    H134195   2.076   2.983   8.299
 4212TIP3    H234196   1.989   2.871   8.245
 4213TIP3   OH234197   4.323   3.308   7.716
 4213TIP3    H134198   4.334   3.397   7.751
 4213TIP3    H234199   4.283   3.259   7.787
 4214TIP3   OH234200   4.144   1.166   0.560
 4214TIP3    H134201   4.210   1.214   0.611
 4214TIP3    H234202   4.191   1.134   0.483
 4215TIP3   OH234203   4.055   6.496   1.542
 4215TIP3    H134204   4.009   6.574   1.575
 4215TIP3    H234205   4.146   6.525   1.532
 4216TIP3   OH234206   3.503   3.725   0.671
 4216TIP3    H134207   3.431   3.693   0.725
 4216TIP3    H234208   3.498   3.673   0.591
 4217TIP3   OH234209   0.275   1.109   8.095
 4217TIP3    H134210   0.207   1.080   8.033
 4217TIP3    H234211   0.301   1.030   8.141
 4218TIP3   OH234212   1.787   0.983   0.559
 4218TIP3    H134213   1.844   0.910   0.537
 4218TIP3    H234214   1.708   0.941   0.595
 4219TIP3   OH234215   0.524   1.846   1.433
 4219TIP3    H134216   0.511   1.938   1.456
 4219TIP3    H234217   0.436   1.813   1.415
 4220TIP3   OH234218   2.783   4.375   1.157
 4220TIP3    H134219   2.716   4.355   1.093
 4220TIP3    H234220   2.858   4.404   1.105
 4221TIP3   OH234221   6.027   3.467   0.582
 4221TIP3    H134222   6.109   3.516   0.594
 4221TIP3    H234223   6.028   3.401   0.652
 4222TIP3   OH234224   2.561   2.459   8.578
 4222TIP3    H134225   2.572   2.384   8.637
 4222TIP3    H234226   2.563   2.421   8.490
 4223TIP3   OH234227   6.550   2.823   1.581
 4223TIP3    H134228   6.462   2.859   1.570
 4223TIP3    H234229   6.603   2.866   1.514
 4224TIP3   OH234230   5.707   6.312   1.184
 4224TIP3    H134231   5.750   6.229   1.207
 4224TIP3    H234232   5.720   6.367   1.262
 4225TIP3   OH234233   1.594   1.481   7.572
 4225TIP3    H134234   1.588   1.573   7.544
 4225TIP3    H234235   1.630   1.435   7.496
 4226TIP3   OH234236   5.876   4.703   7.800
 4226TIP3    H134237   5.924   4.684   7.881
 4226TIP3    H234238   5.810   4.633   7.794
 4227TIP3   OH234239   6.561   5.623   8.437
 4227TIP3    H134240   6.513   5.680   8.377
 4227TIP3    H234241   6.597   5.554   8.381
 4228TIP3   OH234242   5.478   5.691   8.441
 4228TIP3    H134243   5.464   5.770   8.492
 4228TIP3    H234244   5.416   5.698   8.368
 4229TIP3   OH234245   6.047   3.628   8.264
 4229TIP3    H134246   6.135   3.614   8.298
 4229TIP3    H234247   6.006   3.687   8.327
 4230TIP3   OH234248   6.339   4.326   1.513
 4230TIP3    H134249   6.310   4.416   1.520
 4230TIP3    H234250   6.263   4.278   1.480
 4231TIP3   OH234251   2.995   6.221   8.606
 4231TIP3    H134252   3.058   6.158   8.641
 4231TIP3    H234253   2.964   6.181   8.524
 4232TIP3   OH234254   2.022   0.362   2.062
 4232TIP3    H134255   2.047   0.446   2.098
 4232TIP3    H234256   1.943   0.380   2.010
 4233TIP3   OH234257   1.617   4.388   1.313
 4233TIP3    H134258   1.548   4.359   1.372
 4233TIP3    H234259   1.615   4.483   1.318
 4234TIP3   OH234260   4.705   2.882   1.169
 4234TIP3    H134261   4.739   2.943   1.235
 4234TIP3    H234262   4.721   2.925   1.086
 4235TIP3   OH234263   2.956   1.255   8.185
 4235TIP3    H134264   2.996   1.317   8.246
 4235TIP3    H234265   2.865   1.246   8.215
 4236TIP3   OH234266   1.680   3.815   8.523
 4236TIP3    H134267   1.684   3.890   8.583
 4236TIP3    H234268   1.726   3.844   8.445
 4237TIP3   OH234269   5.695   0.953   1.030
 4237TIP3    H134270   5.772   0.896   1.033
 4237TIP3    H234271   5.624   0.898   1.063
 4238TIP3   OH234272   1.177   4.592   7.794
 4238TIP3    H134273   1.110   4.658   7.813
 4238TIP3    H234274   1.238   4.636   7.735
 4239TIP3   OH234275   3.348   1.628   6.975
 4239TIP3    H134276   3.370   1.664   6.889
 4239TIP3    H234277   3.351   1.533   6.963
 4240TIP3   OH234278   1.123   6.258   2.223
 4240TIP3    H134279   1.075   6.279   2.304
 4240TIP3    H234280   1.185   6.190   2.249
 4241TIP3   OH234281   5.511   2.898   1.095
 4241TIP3    H134282   5.463   2.954   1.157
 4241TIP3    H234283   5.602   2.902   1.125
 4242TIP3   OH234284   4.202   3.666   0.598
 4242TIP3    H134285   4.230   3.743   0.648
 4242TIP3    H234286   4.238   3.592   0.648
 4243TIP3   OH234287   0.832   1.579   0.849
 4243TIP3    H134288   0.833   1.557   0.756
 4243TIP3    H234289   0.914   1.626   0.864
 4244TIP3   OH234290   1.493   1.438   2.141
 4244TIP3    H134291   1.435   1.448   2.066
 4244TIP3    H234292   1.438   1.398   2.209
 4245TIP3   OH234293   6.176   0.774   0.401
 4245TIP3    H134294   6.081   0.763   0.404
 4245TIP3    H234295   6.204   0.723   0.325
 4246TIP3   OH234296   3.730   2.875   8.119
 4246TIP3    H134297   3.705   2.804   8.059
 4246TIP3    H234298   3.693   2.953   8.079
 4247TIP3   OH234299   2.283   0.905   1.093
 4247TIP3    H134300   2.206   0.938   1.046
 4247TIP3    H234301   2.256   0.819   1.126
 4248TIP3   OH234302   4.204   6.663   1.252
 4248TIP3    H134303   4.210   6.594   1.318
 4248TIP3    H234304   4.111   6.664   1.227
 4249TIP3   OH234305   1.686   1.046   1.504
 4249TIP3    H134306   1.748   1.094   1.449
 4249TIP3    H234307   1.740   0.981   1.548
 4250TIP3   OH234308   6.102   0.597   6.672
 4250TIP3    H134309   6.190   0.621   6.701
 4250TIP3    H234310   6.111   0.584   6.578
 4251TIP3   OH234311   1.625   0.073   7.181
 4251TIP3    H134312   1.709   0.049   7.141
 4251TIP3    H234313   1.569   0.094   7.106
 4252TIP3   OH234314   2.181   2.131   1.732
 4252TIP3    H134315   2.134   2.197   1.680
 4252TIP3    H234316   2.212   2.179   1.809
 4253TIP3   OH234317   3.783   3.534   1.231
 4253TIP3    H134318   3.723   3.608   1.229
 4253TIP3    H234319   3.762   3.488   1.313
 4254TIP3   OH234320   2.936   1.622   8.115
 4254TIP3    H134321   2.911   1.606   8.207
 4254TIP3    H234322   3.021   1.665   8.121
 4255TIP3   OH234323   1.506   1.842   8.699
 4255TIP3    H134324   1.558   1.814   8.774
 4255TIP3    H234325   1.571   1.862   8.631
 4256TIP3   OH234326   1.526   6.334   0.757
 4256TIP3    H134327   1.546   6.382   0.677
 4256TIP3    H234328   1.587   6.370   0.822
 4257TIP3   OH234329   5.521   2.448   7.506
 4257TIP3    H134330   5.510   2.383   7.438
 4257TIP3    H234331   5.488   2.406   7.586
 4258TIP3   OH234332   1.869   3.423   0.589
 4258TIP3    H134333   1.847   3.499   0.644
 4258TIP3    H234334   1.788   3.373   0.585
 4259TIP3   OH234335   6.243   4.095   0.469
 4259TIP3    H134336   6.187   4.166   0.437
 4259TIP3    H234337   6.312   4.140   0.519
 4260TIP3   OH234338   0.081   1.564   1.358
 4260TIP3    H134339   0.017   1.593   1.293
 4260TIP3    H234340   0.104   1.643   1.407
 4261TIP3   OH234341   6.468   0.685   0.940
 4261TIP3    H134342   6.401   0.733   0.988
 4261TIP3    H234343   6.532   0.660   1.007
 4262TIP3   OH234344   5.323   3.765   8.501
 4262TIP3    H134345   5.325   3.766   8.405
 4262TIP3    H234346   5.311   3.857   8.526
 4263TIP3   OH234347   5.176   2.195   1.502
 4263TIP3    H134348   5.118   2.271   1.505
 4263TIP3    H234349   5.119   2.120   1.520
 4264TIP3   OH234350   6.794   4.791   1.403
 4264TIP3    H134351   6.755   4.707   1.426
 4264TIP3    H234352   6.770   4.849   1.476
 4265TIP3   OH234353   3.503   6.107   7.652
 4265TIP3    H134354   3.433   6.084   7.591
 4265TIP3    H234355   3.569   6.039   7.640
 4266TIP3   OH234356   5.934   0.452   7.656
 4266TIP3    H134357   5.946   0.520   7.589
 4266TIP3    H234358   5.934   0.370   7.606
 4267TIP3   OH234359   3.260   4.533   7.925
 4267TIP3    H134360   3.222   4.599   7.867
 4267TIP3    H234361   3.283   4.461   7.867
 4268TIP3   OH234362   2.864   4.410   0.795
 4268TIP3    H134363   2.902   4.468   0.861
 4268TIP3    H234364   2.889   4.449   0.712
 4269TIP3   OH234365   5.046   4.648   6.705
 4269TIP3    H134366   5.119   4.631   6.763
 4269TIP3    H234367   5.032   4.742   6.710
 4270TIP3   OH234368   2.004   5.083   8.344
 4270TIP3    H134369   1.925   5.100   8.396
 4270TIP3    H234370   2.064   5.039   8.405
 4271TIP3   OH234371   6.208   2.927   7.758
 4271TIP3    H134372   6.119   2.901   7.781
 4271TIP3    H234373   6.255   2.845   7.745
 4272TIP3   OH234374   0.953   6.264   0.672
 4272TIP3    H134375   1.020   6.201   0.697
 4272TIP3    H234376   0.904   6.221   0.603
 4273TIP3   OH234377   1.282   6.590   0.356
 4273TIP3    H134378   1.235   6.512   0.387
 4273TIP3    H234379   1.348   6.555   0.296
 4274TIP3   OH234380   2.917   1.186   0.564
 4274TIP3    H134381   2.846   1.237   0.604
 4274TIP3    H234382   2.989   1.249   0.553
 4275TIP3   OH234383   6.265   3.630   0.482
 4275TIP3    H134384   6.283   3.590   0.397
 4275TIP3    H234385   6.207   3.703   0.462
 4276TIP3   OH234386   2.679   3.117   0.597
 4276TIP3    H134387   2.615   3.050   0.576
 4276TIP3    H234388   2.763   3.070   0.599
 4277TIP3   OH234389   2.085   2.449   8.306
 4277TIP3    H134390   2.129   2.464   8.389
 4277TIP3    H234391   1.991   2.452   8.327
 4278TIP3   OH234392   4.924   3.684   7.354
 4278TIP3    H134393   4.874   3.751   7.307
 4278TIP3    H234394   4.872   3.665   7.432
 4279TIP3   OH234395   6.708   6.246   6.923
 4279TIP3    H134396   6.720   6.151   6.933
 4279TIP3    H234397   6.790   6.277   6.885
 4280TIP3   OH234398   4.756   4.281   7.116
 4280TIP3    H134399   4.797   4.327   7.043
 4280TIP3    H234400   4.735   4.349   7.179
 4281TIP3   OH234401   1.018   1.445   1.844
 4281TIP3    H134402   1.012   1.421   1.752
 4281TIP3    H234403   0.929   1.431   1.879
 4282TIP3   OH234404   0.060   2.761   1.686
 4282TIP3    H134405   6.795   2.733   1.640
 4282TIP3    H234406   0.132   2.724   1.635
 4283TIP3   OH234407   2.960   1.225   7.477
 4283TIP3    H134408   3.021   1.293   7.507
 4283TIP3    H234409   3.015   1.147   7.465
 4284TIP3   OH234410   4.041   4.456   1.141
 4284TIP3    H134411   3.998   4.480   1.059
 4284TIP3    H234412   3.974   4.409   1.190
 4285TIP3   OH234413   4.171   2.027   7.774
 4285TIP3    H134414   4.251   2.037   7.724
 4285TIP3    H234415   4.179   1.942   7.817
 4286TIP3   OH234416   5.052   4.310   6.323
 4286TIP3    H134417   5.140   4.272   6.329
 4286TIP3    H234418   5.067   4.405   6.326
 4287TIP3   OH234419   3.175   1.816   8.451
 4287TIP3    H134420   3.088   1.801   8.489
 4287TIP3    H234421   3.210   1.889   8.501
 4288TIP3   OH234422   3.049   4.878   8.478
 4288TIP3    H134423   3.082   4.951   8.531
 4288TIP3    H234424   2.960   4.863   8.510
 4289TIP3   OH234425   2.244   5.548   0.900
 4289TIP3    H134426   2.310   5.480   0.917
 4289TIP3    H234427   2.230   5.545   0.805
 4290TIP3   OH234428   1.375   1.226   8.391
 4290TIP3    H134429   1.324   1.202   8.468
 4290TIP3    H234430   1.454   1.266   8.426
 4291TIP3   OH234431   2.194   4.014   1.290
 4291TIP3    H134432   2.268   3.967   1.329
 4291TIP3    H234433   2.137   3.946   1.256
 4292TIP3   OH234434   0.715   4.702   7.372
 4292TIP3    H134435   0.775   4.628   7.370
 4292TIP3    H234436   0.753   4.762   7.437
 4293TIP3   OH234437   1.456   0.408   6.704
 4293TIP3    H134438   1.431   0.416   6.612
 4293TIP3    H234439   1.378   0.434   6.752
 4294TIP3   OH234440   4.999   6.543   0.339
 4294TIP3    H134441   4.914   6.577   0.369
 4294TIP3    H234442   5.059   6.560   0.412
 4295TIP3   OH234443   0.864   5.641   8.399
 4295TIP3    H134444   0.885   5.705   8.331
 4295TIP3    H234445   0.937   5.647   8.460
 4296TIP3   OH234446   5.642   4.628   1.481
 4296TIP3    H134447   5.650   4.707   1.535
 4296TIP3    H234448   5.581   4.652   1.412
 4297TIP3   OH234449   3.370   6.439   2.339
 4297TIP3    H134450   3.352   6.411   2.249
 4297TIP3    H234451   3.288   6.478   2.369
 4298TIP3   OH234452   1.936   5.544   7.418
 4298TIP3    H134453   1.870   5.475   7.419
 4298TIP3    H234454   1.889   5.622   7.390
 4299TIP3   OH234455   2.867   5.309   8.557
 4299TIP3    H134456   2.842   5.401   8.567
 4299TIP3    H234457   2.876   5.277   8.647
 4300TIP3   OH234458   0.379   5.309   8.376
 4300TIP3    H134459   0.354   5.396   8.406
 4300TIP3    H234460   0.462   5.323   8.330
 4301TIP3   OH234461   2.968   3.439   1.268
 4301TIP3    H134462   2.921   3.497   1.328
 4301TIP3    H234463   2.969   3.486   1.185
 4302TIP3   OH234464   0.658   0.801   2.412
 4302TIP3    H134465   0.670   0.720   2.363
 4302TIP3    H234466   0.688   0.780   2.501
 4303TIP3   OH234467   3.859   6.453   0.953
 4303TIP3    H134468   3.893   6.431   0.866
 4303TIP3    H234469   3.822   6.371   0.986
 4304TIP3   OH234470   6.440   2.059   2.057
 4304TIP3    H134471   6.419   1.967   2.043
 4304TIP3    H234472   6.521   2.058   2.108
 4305TIP3   OH234473   2.218   6.415   2.116
 4305TIP3    H134474   2.296   6.366   2.088
 4305TIP3    H234475   2.150   6.388   2.055
 4306TIP3   OH234476   6.755   4.408   8.029
 4306TIP3    H134477   6.745   4.365   7.944
 4306TIP3    H234478   6.721   4.345   8.092
 4307TIP3   OH234479   1.598   4.424   7.496
 4307TIP3    H134480   1.681   4.376   7.491
 4307TIP3    H234481   1.550   4.399   7.417
 4308TIP3   OH234482   0.643   1.406   0.368
 4308TIP3    H134483   0.738   1.403   0.361
 4308TIP3    H234484   0.621   1.329   0.421
 4309TIP3   OH234485   1.747   1.013   7.426
 4309TIP3    H134486   1.750   1.092   7.480
 4309TIP3    H234487   1.760   0.941   7.487
 4310TIP3   OH234488   3.361   2.287   0.873
 4310TIP3    H134489   3.428   2.342   0.913
 4310TIP3    H234490   3.382   2.198   0.904
 4311TIP3   OH234491   5.597   4.609   1.837
 4311TIP3    H134492   5.520   4.576   1.790
 4311TIP3    H234493   5.632   4.533   1.882
 4312TIP3   OH234494   6.002   4.898   7.152
 4312TIP3    H134495   6.079   4.844   7.134
 4312TIP3    H234496   5.986   4.944   7.069
 4313TIP3   OH234497   4.164   6.051   7.192
 4313TIP3    H134498   4.128   6.078   7.107
 4313TIP3    H234499   4.176   5.957   7.184
 4314TIP3   OH234500   2.718   1.184   7.632
 4314TIP3    H134501   2.741   1.156   7.721
 4314TIP3    H234502   2.802   1.198   7.589
 4315TIP3   OH234503   5.148   0.606   7.254
 4315TIP3    H134504   5.223   0.607   7.195
 4315TIP3    H234505   5.074   0.630   7.198
 4316TIP3   OH234506   2.585   0.752   1.614
 4316TIP3    H134507   2.539   0.680   1.657
 4316TIP3    H234508   2.516   0.809   1.582
 4317TIP3   OH234509   3.547   1.332   1.051
 4317TIP3    H134510   3.472   1.273   1.054
 4317TIP3    H234511   3.514   1.414   1.088
 4318TIP3   OH234512   3.610   5.197   7.059
 4318TIP3    H134513   3.517   5.218   7.047
 4318TIP3    H234514   3.646   5.196   6.970
 4319TIP3   OH234515   4.576   3.657   2.041
 4319TIP3    H134516   4.541   3.745   2.035
 4319TIP3    H234517   4.504   3.605   2.078
 4320TIP3   OH234518   5.811   6.016   1.307
 4320TIP3    H134519   5.798   6.005   1.212
 4320TIP3    H234520   5.774   5.937   1.345
 4321TIP3   OH234521   1.204   1.020   7.308
 4321TIP3    H134522   1.207   0.933   7.347
 4321TIP3    H234523   1.292   1.055   7.319
 4322TIP3   OH234524   6.058   4.720   8.309
 4322TIP3    H134525   6.042   4.812   8.331
 4322TIP3    H234526   6.078   4.721   8.215
 4323TIP3   OH234527   4.472   3.403   7.492
 4323TIP3    H134528   4.423   3.357   7.560
 4323TIP3    H234529   4.411   3.469   7.459
 4324TIP3   OH234530   1.741   1.481   0.058
 4324TIP3    H134531   1.693   1.458   0.138
 4324TIP3    H234532   1.758   1.574   0.066
 4325TIP3   OH234533   5.819   4.768   1.882
 4325TIP3    H134534   5.791   4.851   1.841
 4325TIP3    H234535   5.742   4.711   1.873
 4326TIP3   OH234536   4.728   2.538   1.655
 4326TIP3    H134537   4.671   2.462   1.646
 4326TIP3    H234538   4.696   2.582   1.734
 4327TIP3   OH234539   2.916   3.238   2.363
 4327TIP3    H134540   2.890   3.263   2.274
 4327TIP3    H234541   2.994   3.184   2.351
 4328TIP3   OH234542   3.569   1.757   0.920
 4328TIP3    H134543   3.644   1.735   0.864
 4328TIP3    H234544   3.497   1.704   0.884
 4329TIP3   OH234545   3.415   0.722   0.012
 4329TIP3    H134546   3.361   0.797   0.038
 4329TIP3    H234547   3.356   0.647   0.015
 4330TIP3   OH234548   3.283   4.992   6.324
 4330TIP3    H134549   3.189   5.003   6.340
 4330TIP3    H234550   3.288   4.924   6.257
 4331TIP3   OH234551   1.836   6.797   7.480
 4331TIP3    H134552   1.787   6.715   7.482
 4331TIP3    H234553   1.903   6.787   7.548
 4332TIP3   OH234554   3.445   2.401   2.651
 4332TIP3    H134555   3.442   2.437   2.740
 4332TIP3    H234556   3.354   2.397   2.624
 4333TIP3   OH234557   5.638   1.022   2.494
 4333TIP3    H134558   5.545   1.020   2.473
 4333TIP3    H234559   5.671   1.102   2.453
 4334TIP3   OH234560   1.933   1.948   1.551
 4334TIP3    H134561   1.905   2.019   1.607
 4334TIP3    H234562   1.865   1.882   1.559
 4335TIP3   OH234563   0.169   6.050   0.359
 4335TIP3    H134564   0.190   6.106   0.284
 4335TIP3    H234565   0.253   6.036   0.403
 4336TIP3   OH234566   3.703   2.034   7.523
 4336TIP3    H134567   3.692   1.939   7.533
 4336TIP3    H234568   3.774   2.056   7.582
 4337TIP3   OH234569   1.147   0.705   1.507
 4337TIP3    H134570   1.186   0.717   1.593
 4337TIP3    H234571   1.215   0.731   1.445
 4338TIP3   OH234572   4.893   4.023   0.286
 4338TIP3    H134573   4.806   4.063   0.286
 4338TIP3    H234574   4.880   3.938   0.242
 4339TIP3   OH234575   3.589   0.124   7.426
 4339TIP3    H134576   3.592   0.097   7.518
 4339TIP3    H234577   3.518   0.188   7.422
 4340TIP3   OH234578   6.476   2.004   7.517
 4340TIP3    H134579   6.439   1.995   7.429
 4340TIP3    H234580   6.481   2.098   7.531
 4341TIP3   OH234581   3.913   5.411   8.420
 4341TIP3    H134582   3.967   5.437   8.495
 4341TIP3    H234583   3.888   5.321   8.438
 4342TIP3   OH234584   6.726   1.872   7.496
 4342TIP3    H134585   6.709   1.780   7.517
 4342TIP3    H234586   6.640   1.914   7.500
 4343TIP3   OH234587   4.921   1.242   8.053
 4343TIP3    H134588   5.005   1.274   8.018
 4343TIP3    H234589   4.943   1.160   8.096
 4344TIP3   OH234590   6.194   0.623   7.487
 4344TIP3    H134591   6.229   0.708   7.515
 4344TIP3    H234592   6.263   0.561   7.509
 4345TIP3   OH234593   2.370   2.579   0.507
 4345TIP3    H134594   2.353   2.649   0.445
 4345TIP3    H234595   2.313   2.508   0.480
 4346TIP3   OH234596   6.786   2.158   2.117
 4346TIP3    H134597   6.742   2.076   2.139
 4346TIP3    H234598   6.742   2.224   2.171
 4347TIP3   OH234599   4.840   0.968   6.984
 4347TIP3    H134600   4.836   1.031   6.912
 4347TIP3    H234601   4.762   0.987   7.037
 4348TIP3   OH234602   2.390   1.170   8.391
 4348TIP3    H134603   2.391   1.191   8.484
 4348TIP3    H234604   2.443   1.091   8.384
 4349TIP3   OH234605   3.719   5.413   1.402
 4349TIP3    H134606   3.649   5.438   1.462
 4349TIP3    H234607   3.678   5.414   1.315
 4350TIP3   OH234608   0.810   0.847   0.294
 4350TIP3    H134609   0.769   0.858   0.380
 4350TIP3    H234610   0.891   0.898   0.299
 4351TIP3   OH234611   3.266   4.818   0.211
 4351TIP3    H134612   3.250   4.771   0.129
 4351TIP3    H234613   3.284   4.908   0.184
 4352TIP3   OH234614   5.702   3.070   0.729
 4352TIP3    H134615   5.780   3.015   0.734
 4352TIP3    H234616   5.628   3.009   0.736
 4353TIP3   OH234617   2.146   2.837   0.230
 4353TIP3    H134618   2.056   2.826   0.259
 4353TIP3    H234619   2.139   2.856   0.137
 4354TIP3   OH234620   2.204   2.104   7.044
 4354TIP3    H134621   2.175   2.095   6.953
 4354TIP3    H234622   2.256   2.026   7.061
 4355TIP3   OH234623   5.673   2.772   7.753
 4355TIP3    H134624   5.612   2.731   7.813
 4355TIP3    H234625   5.673   2.715   7.676
 4356TIP3   OH234626   6.600   0.969   6.927
 4356TIP3    H134627   6.625   1.001   7.013
 4356TIP3    H234628   6.593   0.874   6.937
 4357TIP3   OH234629   4.287   6.609   8.184
 4357TIP3    H134630   4.305   6.599   8.277
 4357TIP3    H234631   4.204   6.657   8.181
 4358TIP3   OH234632   1.246   1.978   8.696
 4358TIP3    H134633   1.320   1.919   8.680
 4358TIP3    H234634   1.179   1.922   8.736
 4359TIP3   OH234635   4.044   3.455   8.782
 4359TIP3    H134636   4.051   3.388   8.713
 4359TIP3    H234637   4.121   3.441   0.046
 4360TIP3   OH234638   1.090   0.469   7.031
 4360TIP3    H134639   1.013   0.479   7.088
 4360TIP3    H234640   1.114   0.377   7.041
 4361TIP3   OH234641   3.139   2.550   6.750
 4361TIP3    H134642   3.076   2.538   6.821
 4361TIP3    H234643   3.092   2.520   6.672
 4362TIP3   OH234644   6.501   5.863   0.066
 4362TIP3    H134645   6.407   5.878   0.053
 4362TIP3    H234646   6.539   5.951   0.064
 4363TIP3   OH234647   5.981   2.087   6.682
 4363TIP3    H134648   5.921   2.137   6.738
 4363TIP3    H234649   6.030   2.153   6.634
 4364TIP3   OH234650   1.784   0.669   0.812
 4364TIP3    H134651   1.740   0.584   0.811
 4364TIP3    H234652   1.841   0.665   0.889
 4365TIP3   OH234653   3.667   4.262   2.158
 4365TIP3    H134654   3.579   4.279   2.123
 4365TIP3    H234655   3.725   4.281   2.084
 4366TIP3   OH234656   2.557   1.537   8.007
 4366TIP3    H134657   2.605   1.618   7.990
 4366TIP3    H234658   2.625   1.469   8.007
 4367TIP3   OH234659   1.437   5.258   6.513
 4367TIP3    H134660   1.507   5.270   6.448
 4367TIP3    H234661   1.459   5.319   6.583
 4368TIP3   OH234662   1.877   0.610   8.588
 4368TIP3    H134663   1.813   0.543   8.610
 4368TIP3    H234664   1.958   0.561   8.573
 4369TIP3   OH234665   2.099   1.780   0.762
 4369TIP3    H134666   2.170   1.836   0.733
 4369TIP3    H234667   2.020   1.821   0.727
 4370TIP3   OH234668   1.317   3.919   6.322
 4370TIP3    H134669   1.296   3.927   6.229
 4370TIP3    H234670   1.239   3.879   6.360
 4371TIP3   OH234671   4.093   4.670   7.564
 4371TIP3    H134672   4.179   4.671   7.523
 4371TIP3    H234673   4.041   4.733   7.513
 4372TIP3   OH234674   2.818   5.635   2.084
 4372TIP3    H134675   2.733   5.623   2.127
 4372TIP3    H234676   2.880   5.587   2.138
 4373TIP3   OH234677   0.329   2.209   7.249
 4373TIP3    H134678   0.286   2.235   7.168
 4373TIP3    H234679   0.407   2.161   7.221
 4374TIP3   OH234680   4.657   4.595   7.065
 4374TIP3    H134681   4.656   4.619   7.158
 4374TIP3    H234682   4.746   4.564   7.049
 4375TIP3   OH234683   0.497   0.866   0.718
 4375TIP3    H134684   0.540   0.877   0.803
 4375TIP3    H234685   0.404   0.877   0.736
 4376TIP3   OH234686   4.087   4.140   6.458
 4376TIP3    H134687   4.074   4.069   6.521
 4376TIP3    H234688   4.134   4.099   6.385
 4377TIP3   OH234689   1.113   0.166   0.433
 4377TIP3    H134690   1.110   0.216   0.514
 4377TIP3    H234691   1.037   0.108   0.437
 4378TIP3   OH234692   5.644   6.236   7.978
 4378TIP3    H134693   5.655   6.141   7.979
 4378TIP3    H234694   5.554   6.250   8.005
 4379TIP3   OH234695   2.131   0.386   2.546
 4379TIP3    H134696   2.076   0.352   2.476
 4379TIP3    H234697   2.200   0.436   2.501
 4380TIP3   OH234698   0.623   5.083   6.228
 4380TIP3    H134699   0.545   5.029   6.221
 4380TIP3    H234700   0.593   5.164   6.269
 4381TIP3   OH234701   3.415   2.782   0.743
 4381TIP3    H134702   3.340   2.800   0.799
 4381TIP3    H234703   3.454   2.868   0.726
 4382TIP3   OH234704   4.281   0.517   0.274
 4382TIP3    H134705   4.206   0.492   0.219
 4382TIP3    H234706   4.244   0.523   0.363
 4383TIP3   OH234707   4.012   6.649   6.944
 4383TIP3    H134708   4.099   6.618   6.919
 4383TIP3    H234709   3.981   6.584   7.007
 4384TIP3   OH234710   2.782   5.943   0.390
 4384TIP3    H134711   2.746   5.977   0.308
 4384TIP3    H234712   2.769   6.014   0.453
 4385TIP3   OH234713   4.330   0.224   0.174
 4385TIP3    H134714   4.326   0.261   0.086
 4385TIP3    H234715   4.361   0.296   0.229
 4386TIP3   OH234716   1.241   6.245   8.419
 4386TIP3    H134717   1.162   6.191   8.421
 4386TIP3    H234718   1.250   6.278   8.508
 4387TIP3   OH234719   2.301   0.779   7.552
 4387TIP3    H134720   2.343   0.694   7.565
 4387TIP3    H234721   2.218   0.772   7.600
 4388TIP3   OH234722   6.748   1.468   7.360
 4388TIP3    H134723   6.718   1.511   7.441
 4388TIP3    H234724   6.738   1.535   7.292
 4389TIP3   OH234725   0.279   2.086   0.228
 4389TIP3    H134726   0.219   2.118   0.161
 4389TIP3    H234727   0.314   2.004   0.192
 4390TIP3   OH234728   4.454   3.413   1.348
 4390TIP3    H134729   4.393   3.471   1.302
 4390TIP3    H234730   4.507   3.374   1.278
 4391TIP3   OH234731   3.888   4.930   1.015
 4391TIP3    H134732   3.940   4.880   0.952
 4391TIP3    H234733   3.854   4.865   1.076
 4392TIP3   OH234734   4.058   5.505   0.818
 4392TIP3    H134735   4.092   5.592   0.837
 4392TIP3    H234736   4.012   5.515   0.734
 4393TIP3   OH234737   5.152   3.915   7.106
 4393TIP3    H134738   5.138   3.909   7.011
 4393TIP3    H234739   5.129   4.006   7.127
 4394TIP3   OH234740   6.257   5.602   7.544
 4394TIP3    H134741   6.227   5.689   7.518
 4394TIP3    H234742   6.301   5.616   7.627
 4395TIP3   OH234743   2.169   1.639   8.410
 4395TIP3    H134744   2.191   1.632   8.503
 4395TIP3    H234745   2.251   1.618   8.365
 4396TIP3   OH234746   0.888   6.458   1.917
 4396TIP3    H134747   0.794   6.460   1.898
 4396TIP3    H234748   0.904   6.368   1.945
 4397TIP3   OH234749   4.607   6.071   7.840
 4397TIP3    H134750   4.578   6.045   7.753
 4397TIP3    H234751   4.684   6.126   7.824
 4398TIP3   OH234752   2.611   1.639   8.384
 4398TIP3    H134753   2.578   1.711   8.330
 4398TIP3    H234754   2.585   1.560   8.338
 4399TIP3   OH234755   4.155   6.545   7.444
 4399TIP3    H134756   4.116   6.616   7.393
 4399TIP3    H234757   4.141   6.466   7.391
 4400TIP3   OH234758   2.271   6.265   7.659
 4400TIP3    H134759   2.277   6.193   7.597
 4400TIP3    H234760   2.307   6.230   7.741
 4401TIP3   OH234761   2.060   6.264   7.136
 4401TIP3    H134762   2.128   6.218   7.184
 4401TIP3    H234763   1.993   6.284   7.202
 4402TIP3   OH234764   4.126   3.552   0.343
 4402TIP3    H134765   4.158   3.576   0.430
 4402TIP3    H234766   4.167   3.615   0.284
 4403TIP3   OH234767   3.217   2.631   0.209
 4403TIP3    H134768   3.162   2.706   0.188
 4403TIP3    H234769   3.260   2.609   0.126
 4404TIP3   OH234770   0.755   4.932   0.557
 4404TIP3    H134771   0.799   4.848   0.542
 4404TIP3    H234772   0.785   4.958   0.644
 4405TIP3   OH234773   5.813   0.999   1.309
 4405TIP3    H134774   5.884   0.978   1.248
 4405TIP3    H234775   5.851   0.990   1.396
 4406TIP3   OH234776   0.543   2.379   0.476
 4406TIP3    H134777   0.634   2.371   0.445
 4406TIP3    H234778   0.498   2.429   0.408
 4407TIP3   OH234779   6.469   4.442   1.947
 4407TIP3    H134780   6.398   4.497   1.914
 4407TIP3    H234781   6.445   4.354   1.919
 4408TIP3   OH234782   6.026   5.355   7.808
 4408TIP3    H134783   5.995   5.381   7.721
 4408TIP3    H234784   6.022   5.259   7.807
 4409TIP3   OH234785   6.204   0.208   1.997
 4409TIP3    H134786   6.131   0.237   1.944
 4409TIP3    H234787   6.264   0.283   1.999
 4410TIP3   OH234788   4.386   4.349   1.574
 4410TIP3    H134789   4.332   4.410   1.525
 4410TIP3    H234790   4.367   4.368   1.666
 4411TIP3   OH234791   0.873   0.023   6.200
 4411TIP3    H134792   0.897   0.101   6.250
 4411TIP3    H234793   0.796   0.050   6.150
 4412TIP3   OH234794   5.126   3.957   0.621
 4412TIP3    H134795   5.167   3.898   0.558
 4412TIP3    H234796   5.033   3.953   0.601
 4413TIP3   OH234797   1.868   4.571   1.075
 4413TIP3    H134798   1.813   4.540   1.003
 4413TIP3    H234799   1.864   4.666   1.069
 4414TIP3   OH234800   5.490   1.822   7.095
 4414TIP3    H134801   5.507   1.850   7.185
 4414TIP3    H234802   5.514   1.730   7.093
 4415TIP3   OH234803   0.356   2.988   0.618
 4415TIP3    H134804   0.264   3.015   0.616
 4415TIP3    H234805   0.403   3.062   0.655
 4416TIP3   OH234806   2.454   4.941   1.200
 4416TIP3    H134807   2.515   4.950   1.126
 4416TIP3    H234808   2.408   4.859   1.182
 4417TIP3   OH234809   3.459   1.689   7.495
 4417TIP3    H134810   3.503   1.661   7.575
 4417TIP3    H234811   3.470   1.616   7.435
 4418TIP3   OH234812   3.934   4.489   0.494
 4418TIP3    H134813   3.862   4.524   0.443
 4418TIP3    H234814   3.921   4.525   0.582
 4419TIP3   OH234815   6.588   3.877   2.436
 4419TIP3    H134816   6.664   3.827   2.464
 4419TIP3    H234817   6.513   3.821   2.458
 4420TIP3   OH234818   5.132   5.571   1.620
 4420TIP3    H134819   5.163   5.660   1.603
 4420TIP3    H234820   5.201   5.532   1.674
 4421TIP3   OH234821   0.071   6.791   1.482
 4421TIP3    H134822   0.043   6.741   1.405
 4421TIP3    H234823   0.046   6.736   1.556
 4422TIP3   OH234824   2.440   6.581   1.419
 4422TIP3    H134825   2.478   6.543   1.340
 4422TIP3    H234826   2.508   6.638   1.454
 4423TIP3   OH234827   4.957   2.595   8.369
 4423TIP3    H134828   4.971   2.521   8.428
 4423TIP3    H234829   4.918   2.555   8.291
 4424TIP3   OH234830   4.369   5.294   0.834
 4424TIP3    H134831   4.369   5.384   0.803
 4424TIP3    H234832   4.289   5.288   0.887
 4425TIP3   OH234833   4.986   5.738   8.457
 4425TIP3    H134834   5.011   5.831   8.451
 4425TIP3    H234835   4.909   5.737   8.513
 4426TIP3   OH234836   1.803   5.097   0.225
 4426TIP3    H134837   1.879   5.153   0.211
 4426TIP3    H234838   1.839   5.009   0.235
 4427TIP3   OH234839   2.588   6.675   7.778
 4427TIP3    H134840   2.676   6.678   7.816
 4427TIP3    H234841   2.550   6.760   7.801
 4428TIP3   OH234842   2.409   2.702   6.463
 4428TIP3    H134843   2.364   2.776   6.504
 4428TIP3    H234844   2.490   2.738   6.428
 4429TIP3   OH234845   4.365   2.152   7.619
 4429TIP3    H134846   4.342   2.188   7.533
 4429TIP3    H234847   4.444   2.101   7.603
 4430TIP3   OH234848   4.132   3.939   1.167
 4430TIP3    H134849   4.114   3.944   1.073
 4430TIP3    H234850   4.061   3.887   1.203
 4431TIP3   OH234851   6.015   2.088   8.104
 4431TIP3    H134852   6.064   2.163   8.138
 4431TIP3    H234853   6.032   2.089   8.010
 4432TIP3   OH234854   1.168   5.546   7.349
 4432TIP3    H134855   1.082   5.527   7.387
 4432TIP3    H234856   1.165   5.508   7.261
 4433TIP3   OH234857   3.523   5.669   0.293
 4433TIP3    H134858   3.494   5.602   0.355
 4433TIP3    H234859   3.445   5.690   0.241
 4434TIP3   OH234860   1.641   6.756   6.803
 4434TIP3    H134861   1.720   6.793   6.764
 4434TIP3    H234862   1.598   0.015   6.845
 4435TIP3   OH234863   4.917   5.323   8.772
 4435TIP3    H134864   4.909   5.227   8.768
 4435TIP3    H234865   4.856   5.348   0.051
 4436TIP3   OH234866   3.426   5.802   7.251
 4436TIP3    H134867   3.522   5.795   7.253
 4436TIP3    H234868   3.396   5.715   7.275
 4437TIP3   OH234869   5.510   4.738   7.628
 4437TIP3    H134870   5.555   4.687   7.695
 4437TIP3    H234871   5.436   4.777   7.675
 4438TIP3   OH234872   0.009   3.709   7.537
 4438TIP3    H134873   6.772   3.774   7.488
 4438TIP3    H234874   0.037   3.646   7.470
 4439TIP3   OH234875   4.710   5.855   7.166
 4439TIP3    H134876   4.756   5.938   7.179
 4439TIP3    H234877   4.618   5.881   7.156
 4440TIP3   OH234878   3.855   2.229   7.719
 4440TIP3    H134879   3.793   2.272   7.778
 4440TIP3    H234880   3.858   2.286   7.642
 4441TIP3   OH234881   1.323   4.731   7.605
 4441TIP3    H134882   1.417   4.751   7.606
 4441TIP3    H234883   1.294   4.755   7.517
 4442TIP3   OH234884   6.558   2.910   0.398
 4442TIP3    H134885   6.474   2.913   0.444
 4442TIP3    H234886   6.615   2.968   0.447
 4443TIP3   OH234887   5.902   3.747   1.789
 4443TIP3    H134888   5.811   3.773   1.798
 4443TIP3    H234889   5.903   3.654   1.810
 4444TIP3   OH234890   5.835   2.707   2.418
 4444TIP3    H134891   5.915   2.759   2.410
 4444TIP3    H234892   5.834   2.679   2.510
 4445TIP3   OH234893   1.364   3.844   7.134
 4445TIP3    H134894   1.354   3.925   7.184
 4445TIP3    H234895   1.321   3.778   7.188
 4446TIP3   OH234896   2.619   0.398   1.501
 4446TIP3    H134897   2.610   0.307   1.472
 4446TIP3    H234898   2.559   0.447   1.445
 4447TIP3   OH234899   1.618   3.672   6.685
 4447TIP3    H134900   1.704   3.703   6.712
 4447TIP3    H234901   1.561   3.690   6.760
 4448TIP3   OH234902   4.679   5.101   1.877
 4448TIP3    H134903   4.593   5.059   1.884
 4448TIP3    H234904   4.736   5.048   1.932
 4449TIP3   OH234905   0.032   1.646   0.570
 4449TIP3    H134906   0.086   1.575   0.535
 4449TIP3    H234907   0.093   1.699   0.622
 4450TIP3   OH234908   5.605   2.023   0.440
 4450TIP3    H134909   5.637   2.065   0.360
 4450TIP3    H234910   5.518   1.990   0.418
 4451TIP3   OH234911   6.269   2.222   0.886
 4451TIP3    H134912   6.245   2.304   0.928
 4451TIP3    H234913   6.344   2.244   0.830
 4452TIP3   OH234914   4.807   2.667   7.128
 4452TIP3    H134915   4.835   2.758   7.127
 4452TIP3    H234916   4.785   2.649   7.220
 4453TIP3   OH234917   1.216   6.376   0.106
 4453TIP3    H134918   1.192   6.303   0.049
 4453TIP3    H234919   1.171   6.358   0.189
 4454TIP3   OH234920   6.328   6.763   7.376
 4454TIP3    H134921   6.386   6.688   7.361
 4454TIP3    H234922   6.256   6.727   7.428
 4455TIP3   OH234923   1.265   4.013   8.515
 4455TIP3    H134924   1.237   3.924   8.538
 4455TIP3    H234925   1.328   4.037   8.582
 4456TIP3   OH234926   6.640   6.358   1.246
 4456TIP3    H134927   6.552   6.325   1.262
 4456TIP3    H234928   6.691   6.327   1.321
 4457TIP3   OH234929   1.503   2.047   0.348
 4457TIP3    H134930   1.423   2.072   0.302
 4457TIP3    H234931   1.495   2.089   0.433
 4458TIP3   OH234932   1.502   3.636   7.743
 4458TIP3    H134933   1.485   3.547   7.775
 4458TIP3    H234934   1.570   3.625   7.677
 4459TIP3   OH234935   5.838   3.781   8.467
 4459TIP3    H134936   5.772   3.843   8.438
 4459TIP3    H234937   5.892   3.830   8.530
 4460TIP3   OH234938   5.090   1.134   1.516
 4460TIP3    H134939   5.123   1.110   1.603
 4460TIP3    H234940   5.124   1.066   1.458
 4461TIP3   OH234941   1.104   5.637   0.457
 4461TIP3    H134942   1.112   5.730   0.478
 4461TIP3    H234943   1.031   5.607   0.511
 4462TIP3   OH234944   5.919   3.893   1.146
 4462TIP3    H134945   5.970   3.937   1.214
 4462TIP3    H234946   5.872   3.964   1.101
 4463TIP3   OH234947   3.186   1.462   0.155
 4463TIP3    H134948   3.251   1.519   0.196
 4463TIP3    H234949   3.226   1.375   0.155
 4464TIP3   OH234950   5.702   4.037   0.519
 4464TIP3    H134951   5.749   4.010   0.440
 4464TIP3    H234952   5.646   3.962   0.540
 4465TIP3   OH234953   4.295   2.871   0.390
 4465TIP3    H134954   4.215   2.909   0.351
 4465TIP3    H234955   4.321   2.803   0.328
 4466TIP3   OH234956   2.276   1.663   1.380
 4466TIP3    H134957   2.351   1.716   1.410
 4466TIP3    H234958   2.308   1.621   1.300
 4467TIP3   OH234959   4.621   1.146   1.957
 4467TIP3    H134960   4.662   1.219   2.003
 4467TIP3    H234961   4.527   1.160   1.968
 4468TIP3   OH234962   1.958   1.735   6.767
 4468TIP3    H134963   1.923   1.824   6.761
 4468TIP3    H234964   2.033   1.735   6.708
 4469TIP3   OH234965   3.925   0.168   7.358
 4469TIP3    H134966   3.868   0.226   7.409
 4469TIP3    H234967   3.993   0.140   7.419
 4470TIP3   OH234968   3.828   0.663   8.104
 4470TIP3    H134969   3.738   0.635   8.120
 4470TIP3    H234970   3.846   0.726   8.174
 4471TIP3   OH234971   2.957   0.869   8.035
 4471TIP3    H134972   2.876   0.821   8.052
 4471TIP3    H234973   3.026   0.814   8.072
 4472TIP3   OH234974   1.645   0.872   1.259
 4472TIP3    H134975   1.611   0.878   1.348
 4472TIP3    H234976   1.739   0.886   1.269
 4473TIP3   OH234977   6.177   1.535   2.741
 4473TIP3    H134978   6.084   1.528   2.719
 4473TIP3    H234979   6.208   1.445   2.744
 4474TIP3   OH234980   5.130   4.863   0.304
 4474TIP3    H134981   5.158   4.823   0.387
 4474TIP3    H234982   5.191   4.827   0.239
 4475TIP3   OH234983   5.914   1.964   0.465
 4475TIP3    H134984   5.826   1.929   0.484
 4475TIP3    H234985   5.972   1.888   0.474
 4476TIP3   OH234986   4.339   4.632   7.793
 4476TIP3    H134987   4.324   4.625   7.887
 4476TIP3    H234988   4.366   4.723   7.779
 4477TIP3   OH234989   3.918   4.224   7.395
 4477TIP3    H134990   3.850   4.284   7.365
 4477TIP3    H234991   3.922   4.238   7.490
 4478TIP3   OH234992   4.394   2.345   7.823
 4478TIP3    H134993   4.413   2.295   7.744
 4478TIP3    H234994   4.299   2.357   7.822
 4479TIP3   OH234995   5.976   5.102   7.770
 4479TIP3    H134996   5.918   5.109   7.694
 4479TIP3    H234997   5.919   5.074   7.841
 4480TIP3   OH234998   2.412   6.561   8.109
 4480TIP3    H134999   2.347   6.621   8.071
 4480TIP3    H235000   2.492   6.613   8.116
 4481TIP3   OH235001   6.065   2.461   1.068
 4481TIP3    H135002   6.064   2.417   1.152
 4481TIP3    H235003   6.037   2.551   1.088
 4482TIP3   OH235004   6.375   5.089   0.113
 4482TIP3    H135005   6.467   5.066   0.113
 4482TIP3    H235006   6.338   5.047   0.035
 4483TIP3   OH235007   6.373   4.278   0.279
 4483TIP3    H135008   6.455   4.231   0.264
 4483TIP3    H235009   6.357   4.266   0.373
 4484TIP3   OH235010   6.184   4.467   0.236
 4484TIP3    H135011   6.255   4.407   0.259
 4484TIP3    H235012   6.223   4.526   0.171
 4485TIP3   OH235013   4.889   3.201   1.236
 4485TIP3    H135014   4.894   3.123   1.291
 4485TIP3    H235015   4.805   3.240   1.257
 4486TIP3   OH235016   4.226   5.017   6.238
 4486TIP3    H135017   4.218   5.059   6.324
 4486TIP3    H235018   4.261   4.931   6.257
 4487TIP3   OH235019   4.365   2.348   6.963
 4487TIP3    H135020   4.306   2.388   6.899
 4487TIP3    H235021   4.433   2.415   6.978
 4488TIP3   OH235022   6.050   2.324   2.250
 4488TIP3    H135023   6.015   2.324   2.340
 4488TIP3    H235024   5.972   2.326   2.194
 4489TIP3   OH235025   3.316   6.417   2.050
 4489TIP3    H135026   3.322   6.326   2.078
 4489TIP3    H235027   3.339   6.415   1.957
 4490TIP3   OH235028   1.376   6.268   1.987
 4490TIP3    H135029   1.367   6.203   2.056
 4490TIP3    H235030   1.424   6.340   2.027
 4491TIP3   OH235031   6.087   4.851   7.650
 4491TIP3    H135032   6.071   4.939   7.685
 4491TIP3    H235033   6.046   4.792   7.714
 4492TIP3   OH235034   4.653   4.482   8.448
 4492TIP3    H135035   4.708   4.477   8.526
 4492TIP3    H235036   4.567   4.505   8.481
 4493TIP3   OH235037   4.471   2.183   2.570
 4493TIP3    H135038   4.519   2.166   2.489
 4493TIP3    H235039   4.441   2.274   2.561
 4494TIP3   OH235040   0.869   0.396   7.862
 4494TIP3    H135041   0.838   0.465   7.920
 4494TIP3    H235042   0.829   0.417   7.777
 4495TIP3   OH235043   5.948   4.943   0.158
 4495TIP3    H135044   5.892   5.013   0.192
 4495TIP3    H235045   6.013   4.928   0.228
 4496TIP3   OH235046   3.708   2.075   0.005
 4496TIP3    H135047   3.775   2.112   0.063
 4496TIP3    H235048   3.654   2.150   8.771
 4497TIP3   OH235049   2.259   0.477   0.018
 4497TIP3    H135050   2.343   0.513   0.045
 4497TIP3    H235051   2.199   0.552   0.019
 4498TIP3   OH235052   5.426   5.891   0.030
 4498TIP3    H135053   5.443   5.979   0.063
 4498TIP3    H235054   5.400   5.904   8.729
 4499TIP3   OH235055   0.084   5.194   6.766
 4499TIP3    H135056   0.053   5.273   6.810
 4499TIP3    H235057   0.176   5.213   6.746
 4500TIP3   OH235058   5.709   6.542   8.548
 4500TIP3    H135059   5.636   6.568   8.492
 4500TIP3    H235060   5.667   6.495   8.621
 4501TIP3   OH235061   1.692   2.398   0.884
 4501TIP3    H135062   1.774   2.378   0.837
 4501TIP3    H235063   1.631   2.425   0.815
 4502TIP3   OH235064   1.085   2.177   1.106
 4502TIP3    H135065   1.040   2.260   1.087
 4502TIP3    H235066   1.070   2.123   1.029
 4503TIP3   OH235067   2.216   0.391   6.370
 4503TIP3    H135068   2.226   0.303   6.404
 4503TIP3    H235069   2.178   0.441   6.442
 4504TIP3   OH235070   0.157   3.842   6.602
 4504TIP3    H135071   0.166   3.759   6.554
 4504TIP3    H235072   0.088   3.889   6.555
 4505TIP3   OH235073   6.360   3.501   0.225
 4505TIP3    H135074   6.379   3.470   0.137
 4505TIP3    H235075   6.328   3.424   0.272
 4506TIP3   OH235076   0.246   5.911   6.061
 4506TIP3    H135077   0.287   5.836   6.018
 4506TIP3    H235078   0.319   5.967   6.087
 4507TIP3   OH235079   2.085   4.081   8.004
 4507TIP3    H135080   1.995   4.108   7.988
 4507TIP3    H235081   2.133   4.110   7.926
 4508TIP3   OH235082   6.451   5.429   0.239
 4508TIP3    H135083   6.392   5.464   0.172
 4508TIP3    H235084   6.393   5.386   0.302
 4509TIP3   OH235085   1.556   5.438   7.759
 4509TIP3    H135086   1.625   5.393   7.807
 4509TIP3    H235087   1.518   5.372   7.701
 4510TIP3   OH235088   6.284   1.656   8.450
 4510TIP3    H135089   6.353   1.714   8.416
 4510TIP3    H235090   6.309   1.640   8.541
 4511TIP3   OH235091   5.438   1.827   8.717
 4511TIP3    H135092   5.357   1.804   8.672
 4511TIP3    H235093   5.502   1.839   8.648
 4512TIP3   OH235094   2.128   4.355   8.517
 4512TIP3    H135095   2.117   4.450   8.517
 4512TIP3    H235096   2.167   4.335   8.432
 4513TIP3   OH235097   3.198   0.172   6.576
 4513TIP3    H135098   3.110   0.191   6.610
 4513TIP3    H235099   3.226   0.254   6.536
 4514TIP3   OH235100   5.438   6.148   2.022
 4514TIP3    H135101   5.350   6.113   2.038
 4514TIP3    H235102   5.458   6.199   2.100
 4515TIP3   OH235103   2.390   0.777   0.084
 4515TIP3    H135104   2.471   0.734   0.056
 4515TIP3    H235105   2.409   0.809   0.172
 4516TIP3   OH235106   0.350   4.993   0.216
 4516TIP3    H135107   0.333   5.034   0.300
 4516TIP3    H235108   0.384   4.907   0.238
 4517TIP3   OH235109   3.858   5.423   6.674
 4517TIP3    H135110   3.914   5.475   6.616
 4517TIP3    H235111   3.803   5.372   6.614
 4518TIP3   OH235112   2.154   0.036   7.422
 4518TIP3    H135113   2.221   0.001   7.364
 4518TIP3    H235114   2.141   6.782   7.488
 4519TIP3   OH235115   5.348   3.811   7.735
 4519TIP3    H135116   5.366   3.898   7.771
 4519TIP3    H235117   5.356   3.752   7.809
 4520TIP3   OH235118   0.913   1.972   1.390
 4520TIP3    H135119   0.855   1.911   1.435
 4520TIP3    H235120   0.855   2.028   1.339
 4521TIP3   OH235121   5.649   6.484   0.290
 4521TIP3    H135122   5.583   6.553   0.291
 4521TIP3    H235123   5.601   6.404   0.311
 4522TIP3   OH235124   2.207   0.667   8.501
 4522TIP3    H135125   2.151   0.590   8.509
 4522TIP3    H235126   2.220   0.677   8.407
 4523TIP3   OH235127   4.320   6.540   1.495
 4523TIP3    H135128   4.373   6.619   1.487
 4523TIP3    H235129   4.354   6.481   1.427
 4524TIP3   OH235130   3.640   1.154   2.211
 4524TIP3    H135131   3.568   1.214   2.191
 4524TIP3    H235132   3.598   1.080   2.256
 4525TIP3   OH235133   4.471   4.886   7.694
 4525TIP3    H135134   4.543   4.912   7.752
 4525TIP3    H235135   4.505   4.900   7.606
 4526TIP3   OH235136   0.171   2.601   2.388
 4526TIP3    H135137   0.162   2.511   2.420
 4526TIP3    H235138   0.118   2.653   2.448
 4527TIP3   OH235139   3.163   4.310   8.097
 4527TIP3    H135140   3.200   4.256   8.027
 4527TIP3    H235141   3.177   4.400   8.068
 4528TIP3   OH235142   6.756   1.871   1.327
 4528TIP3    H135143   6.715   1.957   1.317
 4528TIP3    H235144   6.798   1.875   1.413
 4529TIP3   OH235145   4.309   2.109   7.065
 4529TIP3    H135146   4.354   2.185   7.029
 4529TIP3    H235147   4.329   2.038   7.003
 4530TIP3   OH235148   2.330   3.146   1.643
 4530TIP3    H135149   2.404   3.135   1.703
 4530TIP3    H235150   2.334   3.070   1.585
 4531TIP3   OH235151   6.023   5.395   0.506
 4531TIP3    H135152   6.077   5.471   0.525
 4531TIP3    H235153   5.939   5.430   0.479
 4532TIP3   OH235154   6.036   4.776   2.644
 4532TIP3    H135155   6.031   4.842   2.575
 4532TIP3    H235156   6.086   4.704   2.605
 4533TIP3   OH235157   3.066   5.435   8.398
 4533TIP3    H135158   3.103   5.363   8.348
 4533TIP3    H235159   2.978   5.405   8.422
 4534TIP3   OH235160   0.175   4.898   8.651
 4534TIP3    H135161   0.128   4.904   8.734
 4534TIP3    H235162   0.190   4.804   8.639
 4535TIP3   OH235163   2.717   2.336   0.135
 4535TIP3    H135164   2.796   2.284   0.151
 4535TIP3    H235165   2.750   2.424   0.118
 4536TIP3   OH235166   1.298   3.119   0.491
 4536TIP3    H135167   1.225   3.110   0.429
 4536TIP3    H235168   1.323   3.029   0.510
 4537TIP3   OH235169   5.843   1.314   7.022
 4537TIP3    H135170   5.892   1.243   6.980
 4537TIP3    H235171   5.767   1.271   7.061
 4538TIP3   OH235172   1.872   4.417   1.326
 4538TIP3    H135173   1.897   4.489   1.267
 4538TIP3    H235174   1.779   4.403   1.309
 4539TIP3   OH235175   6.683   5.321   0.180
 4539TIP3    H135176   6.595   5.356   0.194
 4539TIP3    H235177   6.671   5.226   0.182
 4540TIP3   OH235178   0.758   6.321   1.447
 4540TIP3    H135179   0.721   6.352   1.529
 4540TIP3    H235180   0.758   6.225   1.456
 4541TIP3   OH235181   4.687   2.110   0.593
 4541TIP3    H135182   4.770   2.155   0.607
 4541TIP3    H235183   4.712   2.025   0.556
 4542TIP3   OH235184   0.529   2.813   0.737
 4542TIP3    H135185   0.452   2.861   0.707
 4542TIP3    H235186   0.596   2.880   0.750
 4543TIP3   OH235187   4.405   0.097   8.583
 4543TIP3    H135188   4.454   0.155   8.526
 4543TIP3    H235189   4.409   0.012   8.540
 4544TIP3   OH235190   5.517   2.962   7.638
 4544TIP3    H135191   5.560   2.898   7.694
 4544TIP3    H235192   5.430   2.926   7.622
 4545TIP3   OH235193   2.578   5.673   8.605
 4545TIP3    H135194   2.560   5.716   8.521
 4545TIP3    H235195   2.517   5.714   8.666
 4546TIP3   OH235196   0.355   4.722   8.089
 4546TIP3    H135197   0.279   4.669   8.113
 4546TIP3    H235198   0.395   4.675   8.015
 4547TIP3   OH235199   2.985   2.915   1.918
 4547TIP3    H135200   3.022   2.828   1.933
 4547TIP3    H235201   3.058   2.966   1.882
 4548TIP3   OH235202   2.271   0.234   0.528
 4548TIP3    H135203   2.217   0.200   0.457
 4548TIP3    H235204   2.355   0.255   0.486
 4549TIP3   OH235205   3.819   0.756   1.234
 4549TIP3    H135206   3.858   0.840   1.211
 4549TIP3    H235207   3.738   0.753   1.185
 4550TIP3   OH235208   4.510   5.019   1.460
 4550TIP3    H135209   4.502   5.098   1.407
 4550TIP3    H235210   4.443   5.028   1.528
 4551TIP3   OH235211   5.046   3.770   7.890
 4551TIP3    H135212   4.999   3.708   7.946
 4551TIP3    H235213   5.120   3.799   7.943
 4552TIP3   OH235214   6.609   1.982   7.827
 4552TIP3    H135215   6.553   1.956   7.900
 4552TIP3    H235216   6.566   1.944   7.750
 4553TIP3   OH235217   5.055   3.607   1.330
 4553TIP3    H135218   5.129   3.663   1.308
 4553TIP3    H235219   5.069   3.527   1.279
 4554TIP3   OH235220   4.850   4.563   0.485
 4554TIP3    H135221   4.944   4.546   0.477
 4554TIP3    H235222   4.819   4.496   0.546
 4555TIP3   OH235223   3.311   0.476   8.233
 4555TIP3    H135224   3.283   0.473   8.325
 4555TIP3    H235225   3.383   0.414   8.228
 4556TIP3   OH235226   6.485   3.696   7.028
 4556TIP3    H135227   6.420   3.767   7.028
 4556TIP3    H235228   6.515   3.692   7.119
 4557TIP3   OH235229   1.531   6.514   6.917
 4557TIP3    H135230   1.584   6.593   6.906
 4557TIP3    H235231   1.485   6.505   6.833
 4558TIP3   OH235232   4.101   6.142   6.688
 4558TIP3    H135233   4.006   6.143   6.682
 4558TIP3    H235234   4.124   6.227   6.727
 4559TIP3   OH235235   5.413   0.211   8.587
 4559TIP3    H135236   5.412   0.249   8.674
 4559TIP3    H235237   5.324   0.178   8.574
 4560TIP3   OH235238   5.346   6.163   0.784
 4560TIP3    H135239   5.340   6.114   0.866
 4560TIP3    H235240   5.328   6.254   0.808
 4561TIP3   OH235241   6.387   3.354   0.620
 4561TIP3    H135242   6.374   3.315   0.534
 4561TIP3    H235243   6.307   3.331   0.669
 4562TIP3   OH235244   3.371   6.599   2.678
 4562TIP3    H135245   3.293   6.544   2.689
 4562TIP3    H235246   3.335   6.687   2.665
 4563TIP3   OH235247   4.562   1.983   2.101
 4563TIP3    H135248   4.638   1.946   2.056
 4563TIP3    H235249   4.521   1.909   2.145
 4564TIP3   OH235250   6.390   6.522   7.522
 4564TIP3    H135251   6.346   6.484   7.446
 4564TIP3    H235252   6.481   6.492   7.514
 4565TIP3   OH235253   6.224   2.339   8.035
 4565TIP3    H135254   6.190   2.377   8.116
 4565TIP3    H235255   6.309   2.382   8.022
 4566TIP3   OH235256   0.447   0.021   7.377
 4566TIP3    H135257   0.408   0.060   7.298
 4566TIP3    H235258   0.380   0.033   7.445
 4567TIP3   OH235259   2.248   3.038   6.910
 4567TIP3    H135260   2.169   3.051   6.857
 4567TIP3    H235261   2.317   3.023   6.845
 4568TIP3   OH235262   2.647   2.833   2.672
 4568TIP3    H135263   2.741   2.821   2.657
 4568TIP3    H235264   2.609   2.747   2.655
 4569TIP3   OH235265   4.055   1.418   0.721
 4569TIP3    H135266   4.074   1.480   0.791
 4569TIP3    H235267   4.140   1.382   0.696
 4570TIP3   OH235268   3.443   4.729   8.676
 4570TIP3    H135269   3.429   4.726   8.581
 4570TIP3    H235270   3.501   4.655   8.694
 4571TIP3   OH235271   6.766   2.972   8.703
 4571TIP3    H135272   6.784   3.036   8.771
 4571TIP3    H235273   0.005   2.896   8.726
 4572TIP3   OH235274   6.704   4.924   1.900
 4572TIP3    H135275   6.713   5.018   1.916
 4572TIP3    H235276   6.790   4.888   1.918
 4573TIP3   OH235277   1.832   5.064   6.744
 4573TIP3    H135278   1.746   5.063   6.702
 4573TIP3    H235279   1.858   5.156   6.742
 4574TIP3   OH235280   0.444   3.675   0.880
 4574TIP3    H135281   0.507   3.744   0.902
 4574TIP3    H235282   0.396   3.661   0.961
 4575TIP3   OH235283   4.955   1.997   6.686
 4575TIP3    H135284   4.917   2.084   6.696
 4575TIP3    H235285   4.936   1.953   6.769
 4576TIP3   OH235286   1.698   4.748   2.222
 4576TIP3    H135287   1.716   4.658   2.248
 4576TIP3    H235288   1.610   4.745   2.183
 4577TIP3   OH235289   4.540   4.748   0.226
 4577TIP3    H135290   4.541   4.842   0.208
 4577TIP3    H235291   4.483   4.711   0.158
 4578TIP3   OH235292   5.802   4.998   1.747
 4578TIP3    H135293   5.759   5.076   1.711
 4578TIP3    H235294   5.891   5.026   1.766
 4579TIP3   OH235295   6.188   6.139   8.591
 4579TIP3    H135296   6.250   6.153   8.663
 4579TIP3    H235297   6.161   6.227   8.565
 4580TIP3   OH235298   4.551   4.527   1.454
 4580TIP3    H135299   4.503   4.551   1.374
 4580TIP3    H235300   4.501   4.454   1.490
 4581TIP3   OH235301   0.707   6.495   1.147
 4581TIP3    H135302   0.675   6.575   1.106
 4581TIP3    H235303   0.752   6.449   1.077
 4582TIP3   OH235304   5.365   0.566   2.556
 4582TIP3    H135305   5.345   0.598   2.468
 4582TIP3    H235306   5.322   0.628   2.614
 4583TIP3   OH235307   5.454   6.094   1.197
 4583TIP3    H135308   5.432   6.045   1.118
 4583TIP3    H235309   5.537   6.058   1.226
 4584TIP3   OH235310   5.049   5.002   1.332
 4584TIP3    H135311   4.959   5.033   1.347
 4584TIP3    H235312   5.051   4.914   1.369
 4585TIP3   OH235313   0.367   1.176   0.200
 4585TIP3    H135314   0.354   1.194   0.294
 4585TIP3    H235315   0.414   1.093   0.198
 4586TIP3   OH235316   2.209   6.459   6.242
 4586TIP3    H135317   2.237   6.550   6.231
 4586TIP3    H235318   2.147   6.443   6.171
 4587TIP3   OH235319   5.297   5.531   7.422
 4587TIP3    H135320   5.227   5.472   7.448
 4587TIP3    H235321   5.373   5.474   7.410
 4588TIP3   OH235322   4.466   4.144   7.393
 4588TIP3    H135323   4.414   4.159   7.314
 4588TIP3    H235324   4.413   4.180   7.464
 4589TIP3   OH235325   1.196   2.956   7.061
 4589TIP3    H135326   1.159   3.013   6.994
 4589TIP3    H235327   1.137   2.881   7.065
 4590TIP3   OH235328   1.875   4.838   1.676
 4590TIP3    H135329   1.838   4.859   1.762
 4590TIP3    H235330   1.941   4.906   1.662
 4591TIP3   OH235331   1.379   3.938   8.277
 4591TIP3    H135332   1.312   3.968   8.339
 4591TIP3    H235333   1.329   3.893   8.209
 4592TIP3   OH235334   1.762   6.038   7.883
 4592TIP3    H135335   1.759   6.028   7.788
 4592TIP3    H235336   1.747   6.132   7.898
 4593TIP3   OH235337   0.127   0.286   1.535
 4593TIP3    H135338   0.070   0.210   1.553
 4593TIP3    H235339   0.185   0.256   1.465
 4594TIP3   OH235340   1.585   0.051   8.546
 4594TIP3    H135341   1.680   0.039   8.552
 4594TIP3    H235342   1.556   6.797   8.487
 4595TIP3   OH235343   4.569   3.438   0.506
 4595TIP3    H135344   4.477   3.434   0.533
 4595TIP3    H235345   4.612   3.368   0.556
 4596TIP3   OH235346   4.347   3.849   7.614
 4596TIP3    H135347   4.307   3.894   7.539
 4596TIP3    H235348   4.427   3.899   7.631
 4597TIP3   OH235349   5.053   3.437   0.351
 4597TIP3    H135350   5.148   3.440   0.342
 4597TIP3    H235351   5.035   3.353   0.392
 4598TIP3   OH235352   5.903   2.339   2.522
 4598TIP3    H135353   5.949   2.287   2.587
 4598TIP3    H235354   5.854   2.404   2.573
 4599TIP3   OH235355   2.344   0.274   7.463
 4599TIP3    H135356   2.283   0.202   7.481
 4599TIP3    H235357   2.426   0.247   7.504
 4600TIP3   OH235358   1.782   5.300   2.172
 4600TIP3    H135359   1.787   5.212   2.136
 4600TIP3    H235360   1.872   5.321   2.199
 4601TIP3   OH235361   3.780   0.733   7.854
 4601TIP3    H135362   3.807   0.825   7.855
 4601TIP3    H235363   3.798   0.702   7.943
 4602TIP3   OH235364   3.193   4.600   6.603
 4602TIP3    H135365   3.262   4.593   6.670
 4602TIP3    H235366   3.235   4.648   6.531
 4603TIP3   OH235367   0.730   0.228   1.308
 4603TIP3    H135368   0.760   0.249   1.396
 4603TIP3    H235369   0.660   0.164   1.322
 4604TIP3   OH235370   0.752   3.318   7.497
 4604TIP3    H135371   0.783   3.258   7.429
 4604TIP3    H235372   0.726   3.397   7.449
 4605TIP3   OH235373   3.766   5.136   1.464
 4605TIP3    H135374   3.736   5.128   1.555
 4605TIP3    H235375   3.765   5.230   1.447
 4606TIP3   OH235376   5.047   3.306   8.558
 4606TIP3    H135377   4.982   3.311   8.628
 4606TIP3    H235378   5.039   3.217   8.524
 4607TIP3   OH235379   4.434   1.590   0.618
 4607TIP3    H135380   4.521   1.629   0.611
 4607TIP3    H235381   4.381   1.639   0.556
 4608TIP3   OH235382   4.716   3.271   7.561
 4608TIP3    H135383   4.629   3.299   7.532
 4608TIP3    H235384   4.762   3.352   7.580
 4609TIP3   OH235385   0.258   4.699   0.797
 4609TIP3    H135386   0.288   4.641   0.727
 4609TIP3    H235387   0.286   4.786   0.769
 4610TIP3   OH235388   5.472   6.123   2.649
 4610TIP3    H135389   5.465   6.218   2.643
 4610TIP3    H235390   5.415   6.090   2.579
 4611TIP3   OH235391   5.392   5.707   1.519
 4611TIP3    H135392   5.314   5.761   1.529
 4611TIP3    H235393   5.365   5.636   1.461
 4612TIP3   OH235394   6.319   1.319   0.084
 4612TIP3    H135395   6.255   1.311   0.014
 4612TIP3    H235396   6.324   1.231   0.122
 4613TIP3   OH235397   0.540   4.501   0.126
 4613TIP3    H135398   0.533   4.446   0.048
 4613TIP3    H235399   0.471   4.471   0.184
 4614TIP3   OH235400   6.357   3.747   2.457
 4614TIP3    H135401   6.318   3.702   2.381
 4614TIP3    H235402   6.379   3.676   2.518
 4615TIP3   OH235403   5.262   6.228   7.386
 4615TIP3    H135404   5.322   6.210   7.314
 4615TIP3    H235405   5.311   6.287   7.444
 4616TIP3   OH235406   5.649   4.249   8.201
 4616TIP3    H135407   5.663   4.221   8.110
 4616TIP3    H235408   5.727   4.300   8.223
 4617TIP3   OH235409   2.989   1.692   0.203
 4617TIP3    H135410   2.929   1.629   0.164
 4617TIP3    H235411   3.055   1.708   0.136
 4618TIP3   OH235412   5.837   2.311   1.235
 4618TIP3    H135413   5.872   2.317   1.146
 4618TIP3    H235414   5.832   2.402   1.265
 4619TIP3   OH235415   1.179   6.095   7.646
 4619TIP3    H135416   1.085   6.076   7.651
 4619TIP3    H235417   1.192   6.128   7.557
 4620TIP3   OH235418   5.218   6.343   0.264
 4620TIP3    H135419   5.146   6.406   0.261
 4620TIP3    H235420   5.185   6.272   0.319
 4621TIP3   OH235421   5.172   5.423   8.763
 4621TIP3    H135422   5.221   5.402   0.051
 4621TIP3    H235423   5.084   5.388   8.779
 4622TIP3   OH235424   4.645   4.134   0.169
 4622TIP3    H135425   4.655   4.215   0.120
 4622TIP3    H235426   4.554   4.134   0.198
 4623TIP3   OH235427   5.453   1.604   7.860
 4623TIP3    H135428   5.430   1.597   7.767
 4623TIP3    H235429   5.542   1.640   7.860
 4624TIP3   OH235430   2.455   0.283   7.040
 4624TIP3    H135431   2.402   0.298   6.962
 4624TIP3    H235432   2.409   0.328   7.110
 4625TIP3   OH235433   1.957   3.912   1.445
 4625TIP3    H135434   2.008   3.908   1.364
 4625TIP3    H235435   2.022   3.923   1.514
 4626TIP3   OH235436   1.642   5.403   0.202
 4626TIP3    H135437   1.732   5.436   0.209
 4626TIP3    H235438   1.645   5.316   0.243
 4627TIP3   OH235439   5.957   2.931   8.212
 4627TIP3    H135440   6.010   2.855   8.187
 4627TIP3    H235441   6.009   2.974   8.280
 4628TIP3   OH235442   3.182   2.485   7.393
 4628TIP3    H135443   3.092   2.518   7.383
 4628TIP3    H235444   3.172   2.394   7.420
 4629TIP3   OH235445   5.998   1.022   0.180
 4629TIP3    H135446   5.958   1.108   0.187
 4629TIP3    H235447   5.966   0.974   0.256
 4630TIP3   OH235448   1.389   1.159   1.725
 4630TIP3    H135449   1.382   1.192   1.814
 4630TIP3    H235450   1.319   1.094   1.717
 4631TIP3   OH235451   4.304   4.145   8.699
 4631TIP3    H135452   4.216   4.115   8.678
 4631TIP3    H235453   4.300   4.169   0.001
 4632TIP3   OH235454   2.025   2.173   0.328
 4632TIP3    H135455   2.069   2.166   0.243
 4632TIP3    H235456   1.945   2.221   0.310
 4633TIP3   OH235457   5.473   5.880   0.784
 4633TIP3    H135458   5.558   5.852   0.749
 4633TIP3    H235459   5.461   5.968   0.749
 4634TIP3   OH235460   5.641   2.323   1.563
 4634TIP3    H135461   5.613   2.235   1.587
 4634TIP3    H235462   5.592   2.381   1.621
 4635TIP3   OH235463   5.117   6.678   7.812
 4635TIP3    H135464   5.092   6.766   7.841
 4635TIP3    H235465   5.128   6.628   7.893
 4636TIP3   OH235466   3.218   3.579   7.143
 4636TIP3    H135467   3.176   3.640   7.082
 4636TIP3    H235468   3.253   3.635   7.212
 4637TIP3   OH235469   0.054   1.168   1.720
 4637TIP3    H135470   0.064   1.247   1.666
 4637TIP3    H235471   0.107   1.102   1.676
 4638TIP3   OH235472   1.240   3.488   0.836
 4638TIP3    H135473   1.328   3.466   0.867
 4638TIP3    H235474   1.234   3.583   0.849
 4639TIP3   OH235475   6.030   4.209   8.011
 4639TIP3    H135476   6.006   4.243   8.097
 4639TIP3    H235477   5.957   4.234   7.954
 4640TIP3   OH235478   6.045   0.611   2.292
 4640TIP3    H135479   6.029   0.558   2.369
 4640TIP3    H235480   6.106   0.679   2.321
 4641TIP3   OH235481   4.996   0.973   7.231
 4641TIP3    H135482   4.981   0.995   7.139
 4641TIP3    H235483   4.953   0.888   7.243
 4642TIP3   OH235484   1.632   5.250   8.159
 4642TIP3    H135485   1.620   5.182   8.226
 4642TIP3    H235486   1.596   5.211   8.079
 4643TIP3   OH235487   2.289   3.546   8.064
 4643TIP3    H135488   2.322   3.457   8.047
 4643TIP3    H235489   2.357   3.587   8.117
 4644TIP3   OH235490   3.446   4.799   7.021
 4644TIP3    H135491   3.525   4.824   7.068
 4644TIP3    H235492   3.436   4.864   6.952
 4645TIP3   OH235493   2.803   1.516   2.687
 4645TIP3    H135494   2.721   1.563   2.681
 4645TIP3    H235495   2.780   1.424   2.672
 4646TIP3   OH235496   0.558   2.473   1.417
 4646TIP3    H135497   0.464   2.476   1.400
 4646TIP3    H235498   0.565   2.437   1.505
 4647TIP3   OH235499   1.106   2.630   1.069
 4647TIP3    H135500   1.045   2.638   0.996
 4647TIP3    H235501   1.187   2.599   1.029
 4648TIP3   OH235502   6.330   2.761   0.516
 4648TIP3    H135503   6.291   2.753   0.429
 4648TIP3    H235504   6.407   2.704   0.514
 4649TIP3   OH235505   0.888   3.160   7.296
 4649TIP3    H135506   0.975   3.193   7.275
 4649TIP3    H235507   0.864   3.106   7.221
 4650TIP3   OH235508   1.249   5.045   7.871
 4650TIP3    H135509   1.259   5.057   7.777
 4650TIP3    H235510   1.338   5.027   7.903
 4651TIP3   OH235511   1.836   3.606   0.759
 4651TIP3    H135512   1.815   3.548   0.832
 4651TIP3    H235513   1.864   3.688   0.800
 4652TIP3   OH235514   1.355   0.976   8.149
 4652TIP3    H135515   1.360   1.042   8.080
 4652TIP3    H235516   1.267   0.938   8.139
 4653TIP3   OH235517   0.147   0.579   8.168
 4653TIP3    H135518   0.078   0.592   8.232
 4653TIP3    H235519   0.210   0.521   8.211
 4654TIP3   OH235520   6.051   3.020   7.073
 4654TIP3    H135521   6.138   3.043   7.040
 4654TIP3    H235522   6.049   2.924   7.071
 4655TIP3   OH235523   4.945   0.496   1.736
 4655TIP3    H135524   5.031   0.491   1.694
 4655TIP3    H235525   4.961   0.475   1.828
 4656TIP3   OH235526   3.420   4.762   8.408
 4656TIP3    H135527   3.401   4.854   8.393
 4656TIP3    H235528   3.468   4.734   8.330
 4657TIP3   OH235529   1.910   5.528   8.747
 4657TIP3    H135530   1.980   5.527   0.022
 4657TIP3    H235531   1.881   5.620   8.744
 4658TIP3   OH235532   4.221   3.413   1.721
 4658TIP3    H135533   4.227   3.501   1.759
 4658TIP3    H235534   4.175   3.361   1.787
 4659TIP3   OH235535   0.969   2.054   0.866
 4659TIP3    H135536   0.896   2.114   0.852
 4659TIP3    H235537   0.943   2.001   0.940
 4660TIP3   OH235538   4.854   1.141   8.419
 4660TIP3    H135539   4.895   1.119   8.335
 4660TIP3    H235540   4.859   1.236   8.423
 4661TIP3   OH235541   6.652   1.528   0.041
 4661TIP3    H135542   6.623   1.525   0.133
 4661TIP3    H235543   6.571   1.526   8.781
 4662TIP3   OH235544   3.808   6.576   8.499
 4662TIP3    H135545   3.842   6.627   8.426
 4662TIP3    H235546   3.858   6.605   8.575
 4663TIP3   OH235547   4.082   5.143   8.363
 4663TIP3    H135548   4.136   5.097   8.298
 4663TIP3    H235549   4.004   5.169   8.315
 4664TIP3   OH235550   3.558   4.064   7.375
 4664TIP3    H135551   3.556   4.156   7.348
 4664TIP3    H235552   3.602   4.019   7.303
 4665TIP3   OH235553   0.081   0.053   0.223
 4665TIP3    H135554   0.091   0.023   0.313
 4665TIP3    H235555   0.170   0.073   0.193
 4666TIP3   OH235556   0.638   5.882   8.238
 4666TIP3    H135557   0.558   5.848   8.198
 4666TIP3    H235558   0.709   5.849   8.183
 4667TIP3   OH235559   5.631   0.096   7.678
 4667TIP3    H135560   5.696   0.057   7.737
 4667TIP3    H235561   5.649   0.056   7.593
 4668TIP3   OH235562   4.405   4.021   8.035
 4668TIP3    H135563   4.406   3.928   8.055
 4668TIP3    H235564   4.421   4.027   7.941
 4669TIP3   OH235565   5.819   5.032   7.543
 4669TIP3    H135566   5.741   5.084   7.562
 4669TIP3    H235567   5.787   4.958   7.492
 4670TIP3   OH235568   1.925   2.942   7.438
 4670TIP3    H135569   1.877   3.022   7.460
 4670TIP3    H235570   1.861   2.889   7.390
 4671TIP3   OH235571   2.445   5.506   0.179
 4671TIP3    H135572   2.425   5.493   0.086
 4671TIP3    H235573   2.535   5.540   0.179
 4672TIP3   OH235574   2.217   0.798   7.996
 4672TIP3    H135575   2.312   0.808   8.002
 4672TIP3    H235576   2.200   0.793   7.902
 4673TIP3   OH235577   6.712   2.726   7.714
 4673TIP3    H135578   6.636   2.678   7.682
 4673TIP3    H235579   6.677   2.812   7.739
 4674TIP3   OH235580   6.152   4.109   7.153
 4674TIP3    H135581   6.215   4.170   7.192
 4674TIP3    H235582   6.084   4.165   7.116
 4675TIP3   OH235583   2.584   3.400   1.720
 4675TIP3    H135584   2.544   3.319   1.753
 4675TIP3    H235585   2.610   3.447   1.799
 4676TIP3   OH235586   6.292   0.581   7.946
 4676TIP3    H135587   6.270   0.595   8.038
 4676TIP3    H235588   6.310   0.669   7.912
 4677TIP3   OH235589   1.330   2.254   6.559
 4677TIP3    H135590   1.351   2.316   6.629
 4677TIP3    H235591   1.405   2.259   6.500
 4678TIP3   OH235592   4.207   5.244   7.468
 4678TIP3    H135593   4.270   5.231   7.397
 4678TIP3    H235594   4.181   5.155   7.493
 4679TIP3   OH235595   3.857   3.077   7.377
 4679TIP3    H135596   3.907   3.044   7.303
 4679TIP3    H235597   3.882   3.020   7.450
 4680TIP3   OH235598   3.249   1.262   8.238
 4680TIP3    H135599   3.208   1.224   8.160
 4680TIP3    H235600   3.309   1.328   8.204
 4681TIP3   OH235601   3.372   6.534   0.848
 4681TIP3    H135602   3.398   6.567   0.762
 4681TIP3    H235603   3.301   6.472   0.829
 4682TIP3   OH235604   3.501   6.173   6.986
 4682TIP3    H135605   3.551   6.163   6.905
 4682TIP3    H235606   3.412   6.145   6.963
 4683TIP3   OH235607   1.088   0.918   8.117
 4683TIP3    H135608   1.014   0.859   8.134
 4683TIP3    H235609   1.063   1.001   8.157
 4684TIP3   OH235610   6.584   3.126   0.140
 4684TIP3    H135611   6.667   3.080   0.150
 4684TIP3    H235612   6.574   3.177   0.220
 4685TIP3   OH235613   2.874   4.457   0.054
 4685TIP3    H135614   2.917   4.465   8.760
 4685TIP3    H235615   2.938   4.491   0.117
 4686TIP3   OH235616   4.122   4.124   8.219
 4686TIP3    H135617   4.060   4.157   8.154
 4686TIP3    H235618   4.135   4.032   8.196
 4687TIP3   OH235619   1.164   3.169   8.073
 4687TIP3    H135620   1.199   3.095   8.024
 4687TIP3    H235621   1.077   3.141   8.101
 4688TIP3   OH235622   0.394   1.000   6.812
 4688TIP3    H135623   0.354   0.920   6.848
 4688TIP3    H235624   0.469   0.969   6.762
 4689TIP3   OH235625   6.268   3.628   8.436
 4689TIP3    H135626   6.243   3.680   8.512
 4689TIP3    H235627   6.296   3.692   8.371
 4690TIP3   OH235628   4.510   3.654   0.882
 4690TIP3    H135629   4.597   3.641   0.845
 4690TIP3    H235630   4.527   3.673   0.975
 4691TIP3   OH235631   0.534   3.484   2.678
 4691TIP3    H135632   0.465   3.442   2.730
 4691TIP3    H235633   0.572   3.414   2.626
 4692TIP3   OH235634   4.655   5.403   7.311
 4692TIP3    H135635   4.680   5.353   7.233
 4692TIP3    H235636   4.736   5.444   7.341
 4693TIP3   OH235637   1.963   1.053   7.262
 4693TIP3    H135638   1.922   1.118   7.206
 4693TIP3    H235639   1.903   1.043   7.336
 4694TIP3   OH235640   1.278   6.251   0.827
 4694TIP3    H135641   1.309   6.215   0.910
 4694TIP3    H235642   1.358   6.274   0.779
 4695TIP3   OH235643   3.563   1.589   7.127
 4695TIP3    H135644   3.488   1.603   7.069
 4695TIP3    H235645   3.614   1.521   7.084
 4696TIP3   OH235646   5.654   2.033   1.444
 4696TIP3    H135647   5.693   2.013   1.359
 4696TIP3    H235648   5.729   2.053   1.500
 4697TIP3   OH235649   6.171   6.213   7.465
 4697TIP3    H135650   6.218   6.266   7.401
 4697TIP3    H235651   6.195   6.251   7.550
 4698TIP3   OH235652   5.636   0.321   8.459
 4698TIP3    H135653   5.670   0.231   8.467
 4698TIP3    H235654   5.541   0.312   8.471
 4699TIP3   OH235655   3.036   0.261   7.993
 4699TIP3    H135656   2.977   0.232   7.923
 4699TIP3    H235657   3.101   0.191   7.999
 4700TIP3   OH235658   1.097   1.425   1.270
 4700TIP3    H135659   1.006   1.407   1.296
 4700TIP3    H235660   1.150   1.381   1.337
 4701TIP3   OH235661   6.089   1.304   1.879
 4701TIP3    H135662   6.096   1.310   1.784
 4701TIP3    H235663   6.046   1.220   1.895
 4702TIP3   OH235664   0.359   4.721   0.249
 4702TIP3    H135665   0.291   4.680   0.302
 4702TIP3    H235666   0.374   4.659   0.178
 4703TIP3   OH235667   3.014   1.046   8.526
 4703TIP3    H135668   2.939   1.038   8.466
 4703TIP3    H235669   2.980   1.097   8.599
 4704TIP3   OH235670   0.185   6.545   0.259
 4704TIP3    H135671   0.243   6.470   0.273
 4704TIP3    H235672   0.223   6.590   0.183
 4705TIP3   OH235673   2.012   4.132   0.403
 4705TIP3    H135674   2.079   4.095   0.461
 4705TIP3    H235675   2.023   4.084   0.321
 4706TIP3   OH235676   5.170   1.279   0.325
 4706TIP3    H135677   5.225   1.338   0.375
 4706TIP3    H235678   5.152   1.206   0.384
 4707TIP3   OH235679   4.016   3.674   8.415
 4707TIP3    H135680   4.060   3.610   8.359
 4707TIP3    H235681   3.923   3.665   8.393
 4708TIP3   OH235682   6.695   5.947   7.343
 4708TIP3    H135683   6.728   5.908   7.262
 4708TIP3    H235684   6.601   5.957   7.328
 4709TIP3   OH235685   0.199   1.817   0.869
 4709TIP3    H135686   0.264   1.770   0.922
 4709TIP3    H235687   0.248   1.848   0.793
 4710TIP3   OH235688   0.299   6.499   1.638
 4710TIP3    H135689   0.347   6.423   1.605
 4710TIP3    H235690   0.321   6.569   1.577
 4711TIP3   OH235691   0.213   2.045   1.606
 4711TIP3    H135692   0.200   2.054   1.511
 4711TIP3    H235693   0.125   2.031   1.641
 4712TIP3   OH235694   5.512   4.107   1.682
 4712TIP3    H135695   5.606   4.123   1.676
 4712TIP3    H235696   5.500   4.064   1.766
 4713TIP3   OH235697   5.889   2.208   1.518
 4713TIP3    H135698   5.830   2.283   1.514
 4713TIP3    H235699   5.924   2.199   1.429
 4714TIP3   OH235700   2.701   4.200   7.637
 4714TIP3    H135701   2.661   4.245   7.562
 4714TIP3    H235702   2.727   4.271   7.696
 4715TIP3   OH235703   1.676   5.059   0.499
 4715TIP3    H135704   1.727   4.978   0.505
 4715TIP3    H235705   1.682   5.084   0.407
 4716TIP3   OH235706   0.514   3.888   0.363
 4716TIP3    H135707   0.594   3.938   0.372
 4716TIP3    H235708   0.492   3.860   0.453
 4717TIP3   OH235709   4.784   2.811   8.415
 4717TIP3    H135710   4.856   2.755   8.386
 4717TIP3    H235711   4.719   2.751   8.451
 4718TIP3   OH235712   4.885   2.362   8.524
 4718TIP3    H135713   4.963   2.310   8.502
 4718TIP3    H235714   4.887   2.369   8.619
 4719TIP3   OH235715   2.954   2.471   1.510
 4719TIP3    H135716   2.963   2.566   1.523
 4719TIP3    H235717   3.041   2.442   1.483
 4720TIP3   OH235718   2.823   1.661   7.669
 4720TIP3    H135719   2.747   1.705   7.707
 4720TIP3    H235720   2.896   1.720   7.687
 4721TIP3   OH235721   4.932   6.502   0.034
 4721TIP3    H135722   4.944   6.511   0.129
 4721TIP3    H235723   4.845   6.463   0.025
 4722TIP3   OH235724   1.967   3.301   8.171
 4722TIP3    H135725   1.986   3.388   8.208
 4722TIP3    H235726   1.942   3.248   8.247
 4723TIP3   OH235727   1.825   4.326   1.580
 4723TIP3    H135728   1.852   4.373   1.501
 4723TIP3    H235729   1.785   4.394   1.635
 4724TIP3   OH235730   0.125   5.144   7.959
 4724TIP3    H135731   0.032   5.130   7.940
 4724TIP3    H235732   0.127   5.223   8.013
 4725TIP3   OH235733   2.019   4.600   8.537
 4725TIP3    H135734   1.927   4.583   8.514
 4725TIP3    H235735   2.016   4.620   8.631
 4726TIP3   OH235736   5.333   0.741   7.771
 4726TIP3    H135737   5.393   0.814   7.761
 4726TIP3    H235738   5.389   0.664   7.774
 4727TIP3   OH235739   1.919   4.194   0.958
 4727TIP3    H135740   1.941   4.105   0.984
 4727TIP3    H235741   1.857   4.184   0.886
 4728TIP3   OH235742   2.357   1.193   8.116
 4728TIP3    H135743   2.289   1.128   8.138
 4728TIP3    H235744   2.376   1.237   8.198
 4729TIP3   OH235745   0.512   5.065   8.249
 4729TIP3    H135746   0.483   5.132   8.187
 4729TIP3    H235747   0.434   5.012   8.266
 4730TIP3   OH235748   6.677   5.617   2.568
 4730TIP3    H135749   6.661   5.542   2.626
 4730TIP3    H235750   6.625   5.688   2.605
 4731TIP3   OH235751   2.293   5.130   1.056
 4731TIP3    H135752   2.266   5.117   0.966
 4731TIP3    H235753   2.385   5.102   1.058
 4732TIP3   OH235754   2.031   2.465   7.228
 4732TIP3    H135755   1.942   2.477   7.263
 4732TIP3    H235756   2.074   2.548   7.245
 4733TIP3   OH235757   4.820   3.690   1.429
 4733TIP3    H135758   4.896   3.654   1.382
 4733TIP3    H235759   4.847   3.690   1.521
 4734TIP3   OH235760   4.842   6.097   7.197
 4734TIP3    H135761   4.871   6.168   7.254
 4734TIP3    H235762   4.878   6.119   7.111
 4735TIP3   OH235763   6.504   4.414   2.710
 4735TIP3    H135764   6.537   4.333   2.749
 4735TIP3    H235765   6.480   4.468   2.785
 4736TIP3   OH235766   3.153   2.473   8.401
 4736TIP3    H135767   3.078   2.507   8.353
 4736TIP3    H235768   3.140   2.504   8.491
 4737TIP3   OH235769   3.579   4.342   0.471
 4737TIP3    H135770   3.584   4.299   0.385
 4737TIP3    H235771   3.660   4.317   0.515
 4738TIP3   OH235772   4.166   2.365   8.413
 4738TIP3    H135773   4.238   2.305   8.393
 4738TIP3    H235774   4.129   2.333   8.495
 4739TIP3   OH235775   5.225   6.178   0.499
 4739TIP3    H135776   5.264   6.092   0.483
 4739TIP3    H235777   5.281   6.218   0.565
 4740TIP3   OH235778   1.424   2.519   1.467
 4740TIP3    H135779   1.513   2.489   1.451
 4740TIP3    H235780   1.369   2.463   1.413
 4741TIP3   OH235781   2.393   3.663   6.598
 4741TIP3    H135782   2.405   3.621   6.512
 4741TIP3    H235783   2.356   3.593   6.653
 4742TIP3   OH235784   2.089   4.397   0.347
 4742TIP3    H135785   2.081   4.453   0.424
 4742TIP3    H235786   2.075   4.308   0.380
 4743TIP3   OH235787   2.751   4.368   1.585
 4743TIP3    H135788   2.661   4.389   1.609
 4743TIP3    H235789   2.747   4.276   1.558
 4744TIP3   OH235790   6.006   2.604   1.995
 4744TIP3    H135791   5.979   2.693   1.969
 4744TIP3    H235792   6.039   2.615   2.084
 4745TIP3   OH235793   2.615   0.036   7.175
 4745TIP3    H135794   2.665   0.101   7.224
 4745TIP3    H235795   2.603   0.076   7.089
 4746TIP3   OH235796   3.599   1.293   6.569
 4746TIP3    H135797   3.680   1.259   6.532
 4746TIP3    H235798   3.572   1.362   6.507
 4747TIP3   OH235799   1.049   4.562   0.189
 4747TIP3    H135800   1.076   4.545   0.099
 4747TIP3    H235801   1.130   4.552   0.240
 4748TIP3   OH235802   2.404   0.911   0.739
 4748TIP3    H135803   2.404   1.002   0.709
 4748TIP3    H235804   2.493   0.896   0.770
 4749TIP3   OH235805   6.118   2.259   1.248
 4749TIP3    H135806   6.155   2.261   1.337
 4749TIP3    H235807   6.190   2.228   1.194
 4750TIP3   OH235808   1.157   5.504   2.221
 4750TIP3    H135809   1.139   5.411   2.210
 4750TIP3    H235810   1.097   5.532   2.290
 4751TIP3   OH235811   4.114   6.307   2.464
 4751TIP3    H135812   4.145   6.310   2.555
 4751TIP3    H235813   4.121   6.397   2.433
 4752TIP3   OH235814   4.769   1.166   6.776
 4752TIP3    H135815   4.684   1.208   6.792
 4752TIP3    H235816   4.801   1.208   6.696
 4753TIP3   OH235817   0.602   0.892   7.750
 4753TIP3    H135818   0.623   0.867   7.660
 4753TIP3    H235819   0.653   0.972   7.764
 4754TIP3   OH235820   4.255   6.068   1.111
 4754TIP3    H135821   4.277   5.984   1.152
 4754TIP3    H235822   4.185   6.103   1.166
 4755TIP3   OH235823   0.384   6.727   0.849
 4755TIP3    H135824   0.416   0.002   0.847
 4755TIP3    H235825   0.291   6.734   0.828
 4756TIP3   OH235826   6.760   6.796   7.169
 4756TIP3    H135827   6.687   6.813   7.230
 4756TIP3    H235828   6.724   6.735   7.105
 4757TIP3   OH235829   5.763   2.578   1.283
 4757TIP3    H135830   5.753   2.646   1.350
 4757TIP3    H235831   5.676   2.540   1.275
 4758TIP3   OH235832   2.932   2.085   8.352
 4758TIP3    H135833   2.864   2.112   8.413
 4758TIP3    H235834   3.012   2.086   8.403
 4759TIP3   OH235835   0.329   4.153   8.568
 4759TIP3    H135836   0.236   4.149   8.547
 4759TIP3    H235837   0.339   4.103   8.649
 4760TIP3   OH235838   1.064   2.770   8.122
 4760TIP3    H135839   1.002   2.819   8.175
 4760TIP3    H235840   1.089   2.830   8.052
 4761TIP3   OH235841   2.730   3.918   6.377
 4761TIP3    H135842   2.652   3.943   6.328
 4761TIP3    H235843   2.802   3.963   6.332
 4762TIP3   OH235844   3.689   1.679   0.686
 4762TIP3    H135845   3.732   1.670   0.601
 4762TIP3    H235846   3.724   1.607   0.738
 4763TIP3   OH235847   6.777   5.666   1.170
 4763TIP3    H135848   6.758   5.742   1.115
 4763TIP3    H235849   6.693   5.620   1.177
 4764TIP3   OH235850   0.594   1.585   1.766
 4764TIP3    H135851   0.648   1.529   1.823
 4764TIP3    H235852   0.560   1.652   1.825
 4765TIP3   OH235853   0.450   2.867   1.517
 4765TIP3    H135854   0.403   2.941   1.479
 4765TIP3    H235855   0.507   2.907   1.584
 4766TIP3   OH235856   0.074   5.771   1.436
 4766TIP3    H135857   0.009   5.770   1.367
 4766TIP3    H235858   0.158   5.764   1.391
 4767TIP3   OH235859   1.877   2.849   0.294
 4767TIP3    H135860   1.837   2.900   0.222
 4767TIP3    H235861   1.810   2.849   0.363
 4768TIP3   OH235862   1.649   0.436   8.600
 4768TIP3    H135863   1.658   0.411   8.509
 4768TIP3    H235864   1.609   0.360   8.642
 4769TIP3   OH235865   5.682   4.408   2.003
 4769TIP3    H135866   5.598   4.397   2.049
 4769TIP3    H235867   5.742   4.349   2.049
 4770TIP3   OH235868   5.944   3.145   7.293
 4770TIP3    H135869   5.851   3.149   7.316
 4770TIP3    H235870   5.946   3.106   7.205
 4771TIP3   OH235871   0.680   3.319   0.567
 4771TIP3    H135872   0.732   3.257   0.515
 4771TIP3    H235873   0.652   3.385   0.504
 4772TIP3   OH235874   2.492   2.787   1.433
 4772TIP3    H135875   2.582   2.819   1.435
 4772TIP3    H235876   2.491   2.724   1.361
 4773TIP3   OH235877   2.177   2.693   8.721
 4773TIP3    H135878   2.082   2.702   8.714
 4773TIP3    H235879   2.209   2.783   8.731
 4774TIP3   OH235880   2.338   0.426   2.193
 4774TIP3    H135881   2.308   0.514   2.219
 4774TIP3    H235882   2.362   0.384   2.276
 4775TIP3   OH235883   2.331   4.799   1.780
 4775TIP3    H135884   2.421   4.822   1.803
 4775TIP3    H235885   2.330   4.800   1.684
 4776TIP3   OH235886   2.988   1.924   0.877
 4776TIP3    H135887   2.949   1.885   0.954
 4776TIP3    H235888   2.963   2.016   0.881
 4777TIP3   OH235889   2.279   1.542   0.092
 4777TIP3    H135890   2.299   1.559   0.184
 4777TIP3    H235891   2.205   1.481   0.094
 4778TIP3   OH235892   4.912   0.481   7.121
 4778TIP3    H135893   4.863   0.421   7.065
 4778TIP3    H235894   4.977   0.426   7.165
 4779TIP3   OH235895   4.377   0.051   7.730
 4779TIP3    H135896   4.383   0.146   7.723
 4779TIP3    H235897   4.413   0.030   7.816
 4780TIP3   OH235898   2.776   3.983   7.447
 4780TIP3    H135899   2.710   4.033   7.496
 4780TIP3    H235900   2.823   4.049   7.396
 4781TIP3   OH235901   3.011   3.699   6.986
 4781TIP3    H135902   3.026   3.793   7.002
 4781TIP3    H235903   2.986   3.695   6.894
 4782TIP3   OH235904   0.816   4.741   0.233
 4782TIP3    H135905   0.880   4.674   0.210
 4782TIP3    H235906   0.838   4.815   0.176
 4783TIP3   OH235907   4.084   0.380   6.711
 4783TIP3    H135908   4.158   0.440   6.708
 4783TIP3    H235909   4.121   0.299   6.746
 4784TIP3   OH235910   6.349   3.957   6.748
 4784TIP3    H135911   6.437   3.957   6.710
 4784TIP3    H235912   6.301   4.023   6.697
 4785TIP3   OH235913   4.926   4.583   8.759
 4785TIP3    H135914   4.991   4.538   0.022
 4785TIP3    H235915   4.888   4.648   0.027
 4786TIP3   OH235916   4.463   2.325   8.239
 4786TIP3    H135917   4.465   2.313   8.144
 4786TIP3    H235918   4.433   2.415   8.251
 4787TIP3   OH235919   2.468   2.272   7.804
 4787TIP3    H135920   2.420   2.320   7.736
 4787TIP3    H235921   2.560   2.293   7.788
 4788TIP3   OH235922   4.314   2.848   0.662
 4788TIP3    H135923   4.308   2.754   0.677
 4788TIP3    H235924   4.298   2.858   0.568
 4789TIP3   OH235925   5.487   2.321   1.107
 4789TIP3    H135926   5.480   2.406   1.063
 4789TIP3    H235927   5.578   2.295   1.092
 4790TIP3   OH235928   0.177   5.166   2.026
 4790TIP3    H135929   0.157   5.091   2.082
 4790TIP3    H235930   0.253   5.207   2.067
 4791TIP3   OH235931   1.375   1.432   0.844
 4791TIP3    H135932   1.389   1.479   0.926
 4791TIP3    H235933   1.344   1.346   0.870
 4792TIP3   OH235934   5.617   5.315   0.960
 4792TIP3    H135935   5.621   5.220   0.946
 4792TIP3    H235936   5.647   5.352   0.877
 4793TIP3   OH235937   0.479   3.258   2.458
 4793TIP3    H135938   0.473   3.249   2.363
 4793TIP3    H235939   0.549   3.197   2.483
 4794TIP3   OH235940   3.833   1.440   7.332
 4794TIP3    H135941   3.833   1.445   7.236
 4794TIP3    H235942   3.842   1.531   7.361
 4795TIP3   OH235943   0.982   4.913   1.773
 4795TIP3    H135944   0.892   4.885   1.762
 4795TIP3    H235945   1.033   4.831   1.777
 4796TIP3   OH235946   5.991   2.450   7.394
 4796TIP3    H135947   6.064   2.487   7.345
 4796TIP3    H235948   5.915   2.464   7.337
 4797TIP3   OH235949   3.499   3.702   7.222
 4797TIP3    H135950   3.545   3.776   7.182
 4797TIP3    H235951   3.511   3.714   7.316
 4798TIP3   OH235952   3.586   0.531   1.122
 4798TIP3    H135953   3.491   0.539   1.129
 4798TIP3    H235954   3.613   0.484   1.200
 4799TIP3   OH235955   0.767   6.379   7.327
 4799TIP3    H135956   0.722   6.463   7.331
 4799TIP3    H235957   0.698   6.314   7.318
 4800TIP3   OH235958   4.973   1.976   8.757
 4800TIP3    H135959   5.029   2.027   8.698
 4800TIP3    H235960   4.896   2.031   8.770
 4801TIP3   OH235961   0.866   2.608   6.856
 4801TIP3    H135962   0.915   2.547   6.801
 4801TIP3    H235963   0.775   2.594   6.832
 4802TIP3   OH235964   1.336   3.307   6.648
 4802TIP3    H135965   1.288   3.337   6.571
 4802TIP3    H235966   1.268   3.284   6.711
 4803TIP3   OH235967   1.902   2.972   1.137
 4803TIP3    H135968   1.967   3.038   1.116
 4803TIP3    H235969   1.824   2.999   1.089
 4804TIP3   OH235970   4.560   1.660   7.557
 4804TIP3    H135971   4.596   1.662   7.645
 4804TIP3    H235972   4.609   1.590   7.513
 4805TIP3   OH235973   6.712   6.663   2.037
 4805TIP3    H135974   6.635   6.636   2.087
 4805TIP3    H235975   6.729   6.589   1.978
 4806TIP3   OH235976   0.045   2.375   0.148
 4806TIP3    H135977   0.022   2.346   0.059
 4806TIP3    H235978   0.026   2.300   0.204
 4807TIP3   OH235979   2.859   2.589   0.815
 4807TIP3    H135980   2.920   2.516   0.806
 4807TIP3    H235981   2.779   2.560   0.771
 4808TIP3   OH235982   6.587   1.934   6.986
 4808TIP3    H135983   6.531   1.878   6.933
 4808TIP3    H235984   6.670   1.937   6.938
 4809TIP3   OH235985   4.329   6.165   1.452
 4809TIP3    H135986   4.303   6.189   1.541
 4809TIP3    H235987   4.396   6.097   1.465
 4810TIP3   OH235988   5.735   5.609   8.062
 4810TIP3    H135989   5.671   5.538   8.066
 4810TIP3    H235990   5.702   5.667   7.993
 4811TIP3   OH235991   6.380   5.505   6.980
 4811TIP3    H135992   6.451   5.550   6.934
 4811TIP3    H235993   6.353   5.566   7.048
 4812TIP3   OH235994   4.636   3.188   1.726
 4812TIP3    H135995   4.640   3.260   1.789
 4812TIP3    H235996   4.565   3.212   1.667
 4813TIP3   OH235997   4.147   4.020   7.814
 4813TIP3    H135998   4.188   4.017   7.900
 4813TIP3    H235999   4.117   3.930   7.798
 4814TIP3   OH236000   3.049   2.730   1.111
 4814TIP3    H136001   2.976   2.719   1.171
 4814TIP3    H236002   3.076   2.641   1.089
 4815TIP3   OH236003   6.226   4.246   7.803
 4815TIP3    H136004   6.225   4.326   7.856
 4815TIP3    H236005   6.161   4.189   7.844
 4816TIP3   OH236006   4.709   3.567   2.614
 4816TIP3    H136007   4.762   3.542   2.538
 4816TIP3    H236008   4.692   3.484   2.659
 4817TIP3   OH236009   6.799   5.600   7.273
 4817TIP3    H136010   6.784   5.514   7.232
 4817TIP3    H236011   0.063   5.633   7.231
 4818TIP3   OH236012   0.846   4.329   8.060
 4818TIP3    H136013   0.816   4.364   8.144
 4818TIP3    H236014   0.940   4.313   8.073
 4819TIP3   OH236015   2.282   4.038   2.254
 4819TIP3    H136016   2.362   4.084   2.227
 4819TIP3    H236017   2.259   4.077   2.338
 4820TIP3   OH236018   5.545   6.034   7.617
 4820TIP3    H136019   5.548   5.973   7.543
 4820TIP3    H236020   5.610   6.001   7.678
 4821TIP3   OH236021   6.249   3.193   8.783
 4821TIP3    H136022   6.326   3.240   0.027
 4821TIP3    H236023   6.214   3.252   8.716
 4822TIP3   OH236024   4.039   6.239   7.577
 4822TIP3    H136025   4.080   6.158   7.606
 4822TIP3    H236026   3.959   6.212   7.533
 4823TIP3   OH236027   4.853   0.713   0.860
 4823TIP3    H136028   4.888   0.662   0.934
 4823TIP3    H236029   4.794   0.652   0.816
 4824TIP3   OH236030   5.389   0.008   0.487
 4824TIP3    H136031   5.363   0.034   0.398
 4824TIP3    H236032   5.388   6.727   0.484
 4825TIP3   OH236033   3.699   5.520   7.661
 4825TIP3    H136034   3.727   5.527   7.753
 4825TIP3    H236035   3.640   5.445   7.660
 4826TIP3   OH236036   6.667   4.359   6.566
 4826TIP3    H136037   6.614   4.309   6.628
 4826TIP3    H236038   6.656   4.451   6.594
 4827TIP3   OH236039   3.590   6.768   1.705
 4827TIP3    H136040   3.522   6.790   1.770
 4827TIP3    H236041   3.591   6.673   1.702
 4828TIP3   OH236042   6.294   1.826   1.298
 4828TIP3    H136043   6.260   1.895   1.241
 4828TIP3    H236044   6.383   1.812   1.268
 4829TIP3   OH236045   1.377   1.260   7.085
 4829TIP3    H136046   1.358   1.172   7.054
 4829TIP3    H236047   1.405   1.308   7.007
 4830TIP3   OH236048   3.312   0.686   7.354
 4830TIP3    H136049   3.227   0.708   7.392
 4830TIP3    H236050   3.372   0.681   7.428
 4831TIP3   OH236051   5.889   3.255   8.489
 4831TIP3    H136052   5.879   3.344   8.523
 4831TIP3    H236053   5.926   3.267   8.401
 4832TIP3   OH236054   2.044   4.184   1.687
 4832TIP3    H136055   1.960   4.193   1.642
 4832TIP3    H236056   2.103   4.151   1.619
 4833TIP3   OH236057   2.868   2.103   8.074
 4833TIP3    H136058   2.879   2.085   8.167
 4833TIP3    H236059   2.852   2.197   8.069
 4834TIP3   OH236060   5.588   1.632   1.859
 4834TIP3    H136061   5.534   1.653   1.783
 4834TIP3    H236062   5.558   1.545   1.887
 4835TIP3   OH236063   4.318   1.104   7.696
 4835TIP3    H136064   4.376   1.029   7.684
 4835TIP3    H236065   4.372   1.172   7.736
 4836TIP3   OH236066   5.651   0.360   2.049
 4836TIP3    H136067   5.673   0.453   2.048
 4836TIP3    H236068   5.664   0.332   2.140
 4837TIP3   OH236069   3.364   1.536   0.433
 4837TIP3    H136070   3.373   1.554   0.527
 4837TIP3    H236071   3.351   1.441   0.428
 4838TIP3   OH236072   3.182   4.783   1.909
 4838TIP3    H136073   3.212   4.696   1.936
 4838TIP3    H236074   3.104   4.798   1.962
 4839TIP3   OH236075   4.571   5.636   1.675
 4839TIP3    H136076   4.506   5.634   1.745
 4839TIP3    H236077   4.562   5.552   1.631
 4840TIP3   OH236078   6.680   4.542   0.705
 4840TIP3    H136079   6.657   4.491   0.783
 4840TIP3    H236080   6.656   4.632   0.728
 4841TIP3   OH236081   6.800   6.020   6.714
 4841TIP3    H136082   6.765   5.961   6.647
 4841TIP3    H236083   0.057   6.065   6.670
 4842TIP3   OH236084   6.429   5.835   0.365
 4842TIP3    H136085   6.442   5.896   0.292
 4842TIP3    H236086   6.334   5.828   0.373
 4843TIP3   OH236087   5.845   1.340   7.489
 4843TIP3    H136088   5.821   1.285   7.563
 4843TIP3    H236089   5.832   1.284   7.412
 4844TIP3   OH236090   3.429   2.005   8.555
 4844TIP3    H136091   3.433   2.064   8.480
 4844TIP3    H236092   3.516   1.967   8.559
 4845TIP3   OH236093   6.464   2.092   8.078
 4845TIP3    H136094   6.493   2.108   7.989
 4845TIP3    H236095   6.372   2.069   8.070
 4846TIP3   OH236096   3.379   2.713   6.621
 4846TIP3    H136097   3.447   2.735   6.684
 4846TIP3    H236098   3.383   2.618   6.613
 4847TIP3   OH236099   4.909   0.237   1.555
 4847TIP3    H136100   4.910   0.311   1.616
 4847TIP3    H236101   4.818   0.207   1.555
 4848TIP3   OH236102   1.000   4.223   0.997
 4848TIP3    H136103   1.084   4.252   1.033
 4848TIP3    H236104   1.014   4.220   0.903
 4849TIP3   OH236105   4.400   1.480   7.755
 4849TIP3    H136106   4.438   1.396   7.782
 4849TIP3    H236107   4.463   1.515   7.692
 4850TIP3   OH236108   6.497   6.365   7.097
 4850TIP3    H136109   6.513   6.302   7.167
 4850TIP3    H236110   6.562   6.342   7.030
 4851TIP3   OH236111   4.081   0.228   0.288
 4851TIP3    H136112   4.169   0.209   0.255
 4851TIP3    H236113   4.044   0.288   0.224
 4852TIP3   OH236114   4.801   3.076   0.343
 4852TIP3    H136115   4.710   3.084   0.372
 4852TIP3    H236116   4.852   3.119   0.412
 4853TIP3   OH236117   3.290   1.157   0.841
 4853TIP3    H136118   3.247   1.075   0.819
 4853TIP3    H236119   3.326   1.142   0.929
 4854TIP3   OH236120   4.250   0.599   6.706
 4854TIP3    H136121   4.325   0.542   6.687
 4854TIP3    H236122   4.285   0.664   6.768
 4855TIP3   OH236123   2.515   2.300   7.065
 4855TIP3    H136124   2.451   2.321   6.997
 4855TIP3    H236125   2.555   2.384   7.087
 4856TIP3   OH236126   5.259   2.377   7.889
 4856TIP3    H136127   5.313   2.339   7.820
 4856TIP3    H236128   5.169   2.370   7.856
 4857TIP3   OH236129   1.889   1.946   0.178
 4857TIP3    H136130   1.975   1.918   0.206
 4857TIP3    H236131   1.868   2.020   0.235
 4858TIP3   OH236132   0.500   3.626   7.288
 4858TIP3    H136133   0.539   3.678   7.218
 4858TIP3    H236134   0.573   3.584   7.332
 4859TIP3   OH236135   2.867   0.639   1.077
 4859TIP3    H136136   2.780   0.656   1.114
 4859TIP3    H236137   2.894   0.724   1.041
 4860TIP3   OH236138   3.337   1.365   1.595
 4860TIP3    H136139   3.249   1.371   1.633
 4860TIP3    H236140   3.370   1.455   1.596
 4861TIP3   OH236141   3.071   2.357   8.120
 4861TIP3    H136142   3.029   2.353   8.205
 4861TIP3    H236143   2.998   2.363   8.058
 4862TIP3   OH236144   2.591   5.648   0.914
 4862TIP3    H136145   2.626   5.718   0.859
 4862TIP3    H236146   2.627   5.665   1.001
 4863TIP3   OH236147   0.604   3.717   8.584
 4863TIP3    H136148   0.573   3.685   8.499
 4863TIP3    H236149   0.592   3.643   8.643
 4864TIP3   OH236150   6.799   4.187   0.710
 4864TIP3    H136151   6.770   4.097   0.721
 4864TIP3    H236152   6.738   4.239   0.763
 4865TIP3   OH236153   1.904   3.445   7.339
 4865TIP3    H136154   1.910   3.415   7.430
 4865TIP3    H236155   1.923   3.539   7.344
 4866TIP3   OH236156   1.295   2.501   0.365
 4866TIP3    H136157   1.203   2.519   0.350
 4866TIP3    H236158   1.336   2.587   0.369
 4867TIP3   OH236159   5.148   3.763   2.516
 4867TIP3    H136160   5.206   3.731   2.447
 4867TIP3    H236161   5.201   3.760   2.596
 4868TIP3   OH236162   2.323   5.425   7.219
 4868TIP3    H136163   2.312   5.487   7.146
 4868TIP3    H236164   2.371   5.351   7.182
 4869TIP3   OH236165   6.272   1.791   2.710
 4869TIP3    H136166   6.197   1.776   2.652
 4869TIP3    H236167   6.275   1.713   2.765
 4870TIP3   OH236168   4.208   4.724   8.543
 4870TIP3    H136169   4.236   4.650   8.489
 4870TIP3    H236170   4.143   4.769   8.490
 4871TIP3   OH236171   3.839   0.818   0.902
 4871TIP3    H136172   3.821   0.900   0.949
 4871TIP3    H236173   3.820   0.838   0.810
 4872TIP3   OH236174   1.303   0.713   6.707
 4872TIP3    H136175   1.253   0.640   6.743
 4872TIP3    H236176   1.392   0.700   6.738
 4873TIP3   OH236177   6.728   6.539   8.367
 4873TIP3    H136178   6.665   6.603   8.400
 4873TIP3    H236179   6.716   6.462   8.423
 4874TIP3   OH236180   1.664   6.706   6.478
 4874TIP3    H136181   1.654   6.683   6.385
 4874TIP3    H236182   1.742   6.762   6.480
 4875TIP3   OH236183   5.131   6.632   8.105
 4875TIP3    H136184   5.145   6.723   8.131
 4875TIP3    H236185   5.040   6.629   8.074
 4876TIP3   OH236186   3.456   3.039   1.162
 4876TIP3    H136187   3.369   3.014   1.194
 4876TIP3    H236188   3.493   3.092   1.232
 4877TIP3   OH236189   5.420   6.567   1.381
 4877TIP3    H136190   5.495   6.597   1.330
 4877TIP3    H236191   5.376   6.647   1.409
 4878TIP3   OH236192   1.344   1.716   1.381
 4878TIP3    H136193   1.397   1.697   1.304
 4878TIP3    H236194   1.368   1.648   1.444
 4879TIP3   OH236195   5.461   3.591   0.703
 4879TIP3    H136196   5.533   3.564   0.759
 4879TIP3    H236197   5.461   3.527   0.631
 4880TIP3   OH236198   3.262   5.429   6.648
 4880TIP3    H136199   3.257   5.508   6.702
 4880TIP3    H236200   3.174   5.392   6.653
 4881TIP3   OH236201   4.553   3.131   0.209
 4881TIP3    H136202   4.493   3.109   0.280
 4881TIP3    H236203   4.498   3.138   0.132
 4882TIP3   OH236204   0.438   5.034   8.567
 4882TIP3    H136205   0.417   5.099   8.500
 4882TIP3    H236206   0.369   5.044   8.633
 4883TIP3   OH236207   5.699   6.087   0.278
 4883TIP3    H136208   5.794   6.090   0.271
 4883TIP3    H236209   5.675   6.005   0.234
 4884TIP3   OH236210   0.004   0.711   7.809
 4884TIP3    H136211   0.025   0.743   7.721
 4884TIP3    H236212   0.063   0.759   7.867
 4885TIP3   OH236213   1.968   5.878   7.163
 4885TIP3    H136214   2.044   5.820   7.159
 4885TIP3    H236215   1.960   5.903   7.255
 4886TIP3   OH236216   2.170   2.486   1.709
 4886TIP3    H136217   2.080   2.453   1.700
 4886TIP3    H236218   2.210   2.427   1.773
 4887TIP3   OH236219   2.730   6.177   1.125
 4887TIP3    H136220   2.713   6.091   1.163
 4887TIP3    H236221   2.768   6.228   1.197
 4888TIP3   OH236222   1.177   0.400   7.904
 4888TIP3    H136223   1.141   0.488   7.897
 4888TIP3    H236224   1.100   0.344   7.915
 4889TIP3   OH236225   0.735   0.357   8.570
 4889TIP3    H136226   0.802   0.312   8.519
 4889TIP3    H236227   0.765   0.351   8.660
 4890TIP3   OH236228   4.185   4.947   7.199
 4890TIP3    H136229   4.211   4.861   7.166
 4890TIP3    H236230   4.179   5.002   7.121
 4891TIP3   OH236231   0.162   6.066   0.701
 4891TIP3    H136232   0.228   6.096   0.638
 4891TIP3    H236233   0.089   6.035   0.647
 4892TIP3   OH236234   6.135   5.007   8.571
 4892TIP3    H136235   6.178   5.082   8.531
 4892TIP3    H236236   6.199   4.936   8.567
 4893TIP3   OH236237   4.238   5.468   0.102
 4893TIP3    H136238   4.184   5.522   0.160
 4893TIP3    H236239   4.226   5.379   0.134
 4894TIP3   OH236240   0.391   3.725   2.398
 4894TIP3    H136241   0.317   3.777   2.430
 4894TIP3    H236242   0.366   3.634   2.413
 4895TIP3   OH236243   2.575   6.606   0.050
 4895TIP3    H136244   2.624   6.680   0.088
 4895TIP3    H236245   2.585   6.535   0.113
 4896TIP3   OH236246   5.059   4.248   7.936
 4896TIP3    H136247   5.080   4.207   8.020
 4896TIP3    H236248   5.054   4.342   7.955
 4897TIP3   OH236249   3.800   0.141   1.708
 4897TIP3    H136250   3.725   0.088   1.683
 4897TIP3    H236251   3.798   0.141   1.804
 4898TIP3   OH236252   5.974   1.083   7.665
 4898TIP3    H136253   5.986   1.053   7.755
 4898TIP3    H236254   6.043   1.148   7.652
 4899TIP3   OH236255   0.736   3.146   7.719
 4899TIP3    H136256   0.756   3.208   7.649
 4899TIP3    H236257   0.820   3.106   7.740
 4900TIP3   OH236258   4.814   5.720   8.107
 4900TIP3    H136259   4.828   5.680   8.193
 4900TIP3    H236260   4.900   5.717   8.065
 4901TIP3   OH236261   2.698   1.461   1.889
 4901TIP3    H136262   2.676   1.461   1.983
 4901TIP3    H236263   2.692   1.370   1.863
 4902TIP3   OH236264   1.999   4.702   8.786
 4902TIP3    H136265   1.989   4.643   0.070
 4902TIP3    H236266   1.921   4.758   8.789
 4903TIP3   OH236267   5.914   2.869   1.923
 4903TIP3    H136268   5.953   2.939   1.976
 4903TIP3    H236269   5.925   2.899   1.833
 4904TIP3   OH236270   3.649   1.856   8.456
 4904TIP3    H136271   3.730   1.890   8.418
 4904TIP3    H236272   3.588   1.851   8.383
 4905TIP3   OH236273   0.908   0.680   1.394
 4905TIP3    H136274   0.849   0.714   1.462
 4905TIP3    H236275   0.995   0.693   1.430
 4906TIP3   OH236276   3.989   6.561   7.219
 4906TIP3    H136277   4.047   6.486   7.204
 4906TIP3    H236278   3.901   6.524   7.224
 4907TIP3   OH236279   0.763   3.570   7.359
 4907TIP3    H136280   0.776   3.560   7.265
 4907TIP3    H236281   0.842   3.613   7.390
 4908TIP3   OH236282   0.517   4.948   0.958
 4908TIP3    H136283   0.502   4.853   0.959
 4908TIP3    H236284   0.431   4.985   0.935
 4909TIP3   OH236285   3.370   3.455   1.533
 4909TIP3    H136286   3.313   3.444   1.456
 4909TIP3    H236287   3.327   3.522   1.586
 4910TIP3   OH236288   0.958   5.571   7.844
 4910TIP3    H136289   0.910   5.532   7.771
 4910TIP3    H236290   1.050   5.567   7.817
 4911TIP3   OH236291   5.699   6.236   0.009
 4911TIP3    H136292   5.710   6.208   8.710
 4911TIP3    H236293   5.766   6.188   0.058
 4912TIP3   OH236294   5.309   1.697   1.387
 4912TIP3    H136295   5.346   1.642   1.317
 4912TIP3    H236296   5.235   1.741   1.346
 4913TIP3   OH236297   6.701   3.604   1.938
 4913TIP3    H136298   6.768   3.546   1.973
 4913TIP3    H236299   6.729   3.692   1.965
 4914TIP3   OH236300   2.354   4.847   7.847
 4914TIP3    H136301   2.412   4.810   7.780
 4914TIP3    H236302   2.386   4.810   7.929
 4915TIP3   OH236303   3.100   2.398   0.789
 4915TIP3    H136304   3.071   2.367   0.703
 4915TIP3    H236305   3.173   2.340   0.812
 4916TIP3   OH236306   3.698   3.178   1.817
 4916TIP3    H136307   3.664   3.123   1.747
 4916TIP3    H236308   3.727   3.116   1.884
 4917TIP3   OH236309   2.218   2.354   6.628
 4917TIP3    H136310   2.141   2.300   6.611
 4917TIP3    H236311   2.241   2.391   6.543
 4918TIP3   OH236312   6.433   3.222   8.211
 4918TIP3    H136313   6.459   3.130   8.216
 4918TIP3    H236314   6.348   3.221   8.166
 4919TIP3   OH236315   5.404   0.749   1.646
 4919TIP3    H136316   5.424   0.835   1.683
 4919TIP3    H236317   5.314   0.756   1.615
 4920TIP3   OH236318   6.538   2.210   6.828
 4920TIP3    H136319   6.443   2.214   6.825
 4920TIP3    H236320   6.563   2.278   6.890
 4921TIP3   OH236321   5.478   5.028   8.223
 4921TIP3    H136322   5.554   4.971   8.209
 4921TIP3    H236323   5.484   5.053   8.315
 4922TIP3   OH236324   1.128   5.388   8.716
 4922TIP3    H136325   1.129   5.425   0.013
 4922TIP3    H236326   1.047   5.338   8.711
 4923TIP3   OH236327   2.712   0.620   0.798
 4923TIP3    H136328   2.620   0.599   0.780
 4923TIP3    H236329   2.711   0.714   0.816
 4924TIP3   OH236330   1.491   5.437   6.080
 4924TIP3    H136331   1.505   5.483   6.163
 4924TIP3    H236332   1.502   5.505   6.014
 4925TIP3   OH236333   4.121   6.301   7.321
 4925TIP3    H136334   4.125   6.265   7.409
 4925TIP3    H236335   4.126   6.225   7.263
 4926TIP3   OH236336   6.361   3.490   7.466
 4926TIP3    H136337   6.407   3.430   7.525
 4926TIP3    H236338   6.292   3.437   7.427
 4927TIP3   OH236339   2.209   4.673   1.411
 4927TIP3    H136340   2.302   4.688   1.427
 4927TIP3    H236341   2.186   4.736   1.343
 4928TIP3   OH236342   6.416   3.383   7.958
 4928TIP3    H136343   6.322   3.364   7.954
 4928TIP3    H236344   6.435   3.389   8.052
 4929TIP3   OH236345   4.757   3.938   6.893
 4929TIP3    H136346   4.706   3.997   6.949
 4929TIP3    H236347   4.753   3.979   6.806
 4930TIP3   OH236348   4.828   3.633   8.026
 4930TIP3    H136349   4.750   3.598   7.982
 4930TIP3    H236350   4.796   3.657   8.113
 4931TIP3   OH236351   0.194   6.722   8.020
 4931TIP3    H136352   0.190   6.671   8.101
 4931TIP3    H236353   0.274   6.774   8.029
 4932TIP3   OH236354   3.036   5.573   0.187
 4932TIP3    H136355   3.014   5.663   0.164
 4932TIP3    H236356   2.956   5.538   0.226
 4933TIP3   OH236357   0.123   2.351   0.549
 4933TIP3    H136358   0.047   2.313   0.505
 4933TIP3    H236359   0.169   2.275   0.586
 4934TIP3   OH236360   5.553   5.140   8.493
 4934TIP3    H136361   5.647   5.127   8.478
 4934TIP3    H236362   5.542   5.130   8.587
 4935TIP3   OH236363   4.243   2.572   0.278
 4935TIP3    H136364   4.230   2.597   0.369
 4935TIP3    H236365   4.335   2.546   0.273
 4936TIP3   OH236366   5.317   3.640   7.963
 4936TIP3    H136367   5.359   3.669   8.044
 4936TIP3    H236368   5.247   3.582   7.992
 4937TIP3   OH236369   4.281   5.365   7.034
 4937TIP3    H136370   4.302   5.272   7.035
 4937TIP3    H236371   4.362   5.408   7.062
 4938TIP3   OH236372   6.457   4.130   1.947
 4938TIP3    H136373   6.491   4.146   1.859
 4938TIP3    H236374   6.522   4.073   1.988
 4939TIP3   OH236375   2.629   1.253   2.421
 4939TIP3    H136376   2.596   1.201   2.495
 4939TIP3    H236377   2.707   1.206   2.392
 4940TIP3   OH236378   0.957   6.243   0.193
 4940TIP3    H136379   0.916   6.317   0.147
 4940TIP3    H236380   0.994   6.282   0.272
 4941TIP3   OH236381   1.832   0.247   1.841
 4941TIP3    H136382   1.775   0.187   1.889
 4941TIP3    H236383   1.920   0.229   1.875
 4942TIP3   OH236384   6.311   5.315   0.470
 4942TIP3    H136385   6.221   5.348   0.461
 4942TIP3    H236386   6.309   5.263   0.550
 4943TIP3   OH236387   5.041   4.264   0.323
 4943TIP3    H136388   5.110   4.237   0.384
 4943TIP3    H236389   4.982   4.189   0.318
 4944TIP3   OH236390   2.085   3.080   7.267
 4944TIP3    H136391   2.134   3.014   7.219
 4944TIP3    H236392   2.037   3.030   7.333
 4945TIP3   OH236393   6.517   3.385   1.934
 4945TIP3    H136394   6.567   3.466   1.931
 4945TIP3    H236395   6.525   3.355   2.024
 4946TIP3   OH236396   0.475   0.525   7.772
 4946TIP3    H136397   0.432   0.443   7.795
 4946TIP3    H236398   0.490   0.568   7.856
 4947TIP3   OH236399   3.685   6.774   0.935
 4947TIP3    H136400   3.675   6.802   1.026
 4947TIP3    H236401   3.599   6.786   0.896
 4948TIP3   OH236402   2.722   2.036   6.195
 4948TIP3    H136403   2.771   2.054   6.276
 4948TIP3    H236404   2.752   2.104   6.134
 4949TIP3   OH236405   5.993   0.185   0.478
 4949TIP3    H136406   6.069   0.130   0.497
 4949TIP3    H236407   5.955   0.146   0.399
 4950TIP3   OH236408   0.716   6.490   7.598
 4950TIP3    H136409   0.775   6.432   7.550
 4950TIP3    H236410   0.699   6.445   7.680
 4951TIP3   OH236411   2.433   1.431   1.209
 4951TIP3    H136412   2.498   1.407   1.143
 4951TIP3    H236413   2.478   1.419   1.292
 4952TIP3   OH236414   3.505   6.796   0.260
 4952TIP3    H136415   3.459   0.043   0.317
 4952TIP3    H236416   3.598   6.810   0.280
 4953TIP3   OH236417   1.240   2.470   8.668
 4953TIP3    H136418   1.259   2.438   8.756
 4953TIP3    H236419   1.194   2.397   8.625
 4954TIP3   OH236420   4.466   0.311   0.437
 4954TIP3    H136421   4.536   0.255   0.471
 4954TIP3    H236422   4.407   0.324   0.511
 4955TIP3   OH236423   3.493   0.751   7.129
 4955TIP3    H136424   3.464   0.676   7.077
 4955TIP3    H236425   3.439   0.748   7.208
 4956TIP3   OH236426   4.220   1.626   1.752
 4956TIP3    H136427   4.146   1.636   1.692
 4956TIP3    H236428   4.212   1.537   1.786
 4957TIP3   OH236429   2.401   5.086   1.824
 4957TIP3    H136430   2.475   5.046   1.778
 4957TIP3    H236431   2.417   5.180   1.819
 4958TIP3   OH236432   6.682   6.308   8.140
 4958TIP3    H136433   6.723   6.375   8.194
 4958TIP3    H236434   6.659   6.354   8.059
 4959TIP3   OH236435   1.554   3.067   6.838
 4959TIP3    H136436   1.621   3.013   6.797
 4959TIP3    H236437   1.579   3.157   6.817
 4960TIP3   OH236438   6.112   5.936   2.171
 4960TIP3    H136439   6.128   5.990   2.248
 4960TIP3    H236440   6.017   5.923   2.170
 4961TIP3   OH236441   2.870   5.717   7.742
 4961TIP3    H136442   2.796   5.775   7.723
 4961TIP3    H236443   2.833   5.651   7.801
 4962TIP3   OH236444   6.364   4.901   2.055
 4962TIP3    H136445   6.272   4.876   2.043
 4962TIP3    H236446   6.366   4.996   2.037
 4963TIP3   OH236447   6.101   1.616   0.156
 4963TIP3    H136448   6.122   1.603   0.248
 4963TIP3    H236449   6.182   1.651   0.118
 4964TIP3   OH236450   5.077   3.435   6.159
 4964TIP3    H136451   5.002   3.380   6.180
 4964TIP3    H236452   5.039   3.522   6.146
 4965TIP3   OH236453   4.512   4.556   8.694
 4965TIP3    H136454   4.440   4.611   8.725
 4965TIP3    H236455   4.480   4.466   8.708
 4966TIP3   OH236456   3.942   0.627   8.475
 4966TIP3    H136457   4.035   0.649   8.476
 4966TIP3    H236458   3.902   0.695   8.421
 4967TIP3   OH236459   3.194   0.058   7.391
 4967TIP3    H136460   3.136   0.010   7.332
 4967TIP3    H236461   3.185   0.149   7.365
 4968TIP3   OH236462   1.467   4.596   7.120
 4968TIP3    H136463   1.488   4.645   7.041
 4968TIP3    H236464   1.511   4.644   7.190
 4969TIP3   OH236465   0.859   4.671   7.895
 4969TIP3    H136466   0.934   4.729   7.904
 4969TIP3    H236467   0.889   4.587   7.931
 4970TIP3   OH236468   1.488   4.855   7.953
 4970TIP3    H136469   1.517   4.765   7.969
 4970TIP3    H236470   1.536   4.907   8.017
 4971TIP3   OH236471   1.527   1.174   0.777
 4971TIP3    H136472   1.444   1.221   0.775
 4971TIP3    H236473   1.514   1.106   0.844
 4972TIP3   OH236474   4.392   1.250   8.152
 4972TIP3    H136475   4.479   1.226   8.183
 4972TIP3    H236476   4.335   1.181   8.186
 4973TIP3   OH236477   3.122   3.421   6.820
 4973TIP3    H136478   3.140   3.509   6.852
 4973TIP3    H236479   3.028   3.409   6.834
 4974TIP3   OH236480   5.820   0.182   1.508
 4974TIP3    H136481   5.826   0.247   1.578
 4974TIP3    H236482   5.909   0.149   1.499
 4975TIP3   OH236483   0.408   1.675   8.655
 4975TIP3    H136484   0.322   1.658   8.617
 4975TIP3    H236485   0.426   1.597   8.708
 4976TIP3   OH236486   6.696   0.138   2.226
 4976TIP3    H136487   6.708   0.045   2.246
 4976TIP3    H236488   6.601   0.150   2.226
 4977TIP3   OH236489   2.569   6.602   0.994
 4977TIP3    H136490   2.554   6.576   0.904
 4977TIP3    H236491   2.533   6.531   1.047
 4978TIP3   OH236492   3.913   2.217   0.109
 4978TIP3    H136493   3.945   2.191   0.196
 4978TIP3    H236494   3.887   2.309   0.120
 4979TIP3   OH236495   5.434   3.467   6.535
 4979TIP3    H136496   5.465   3.542   6.484
 4979TIP3    H236497   5.346   3.450   6.501
 4980TIP3   OH236498   0.877   3.734   8.345
 4980TIP3    H136499   0.807   3.770   8.291
 4980TIP3    H236500   0.881   3.792   8.421
 4981TIP3   OH236501   0.244   4.797   1.275
 4981TIP3    H136502   0.294   4.719   1.250
 4981TIP3    H236503   0.160   4.762   1.306
 4982TIP3   OH236504   1.616   4.563   8.240
 4982TIP3    H136505   1.634   4.475   8.209
 4982TIP3    H236506   1.604   4.614   8.160
 4983TIP3   OH236507   4.662   0.114   0.981
 4983TIP3    H136508   4.636   0.125   1.073
 4983TIP3    H236509   4.675   0.204   0.950
 4984TIP3   OH236510   4.222   0.892   2.128
 4984TIP3    H136511   4.132   0.883   2.096
 4984TIP3    H236512   4.276   0.894   2.049
 4985TIP3   OH236513   5.494   3.630   1.315
 4985TIP3    H136514   5.479   3.546   1.358
 4985TIP3    H236515   5.557   3.675   1.370
 4986TIP3   OH236516   0.998   0.869   0.631
 4986TIP3    H136517   1.041   0.849   0.714
 4986TIP3    H236518   1.067   0.907   0.577
 4987TIP3   OH236519   6.741   4.961   0.363
 4987TIP3    H136520   6.771   4.887   0.416
 4987TIP3    H236521   6.681   5.008   0.420
 4988TIP3   OH236522   4.184   1.348   1.161
 4988TIP3    H136523   4.237   1.327   1.084
 4988TIP3    H236524   4.096   1.361   1.127
 4989TIP3   OH236525   0.749   5.929   0.538
 4989TIP3    H136526   0.785   5.989   0.472
 4989TIP3    H236527   0.693   5.869   0.488
 4990TIP3   OH236528   4.567   1.643   8.497
 4990TIP3    H136529   4.654   1.662   8.533
 4990TIP3    H236530   4.532   1.729   8.474
 4991TIP3   OH236531   3.822   4.056   6.363
 4991TIP3    H136532   3.771   4.137   6.365
 4991TIP3    H236533   3.910   4.084   6.341
 4992TIP3   OH236534   0.122   6.369   6.824
 4992TIP3    H136535   0.164   6.438   6.875
 4992TIP3    H236536   0.180   6.355   6.749
 4993TIP3   OH236537   6.601   3.898   8.550
 4993TIP3    H136538   6.541   3.972   8.565
 4993TIP3    H236539   6.662   3.931   8.483
 4994TIP3   OH236540   2.724   0.736   8.028
 4994TIP3    H136541   2.689   0.674   7.963
 4994TIP3    H236542   2.648   0.789   8.053
 4995TIP3   OH236543   0.314   6.402   6.598
 4995TIP3    H136544   0.371   6.361   6.534
 4995TIP3    H236545   0.365   6.404   6.679
 4996TIP3   OH236546   4.702   3.084   0.961
 4996TIP3    H136547   4.637   3.109   0.896
 4996TIP3    H236548   4.786   3.105   0.920
 4997TIP3   OH236549   1.640   3.534   1.996
 4997TIP3    H136550   1.601   3.533   1.908
 4997TIP3    H236551   1.731   3.509   1.982
 4998TIP3   OH236552   0.549   3.047   1.715
 4998TIP3    H136553   0.608   3.101   1.662
 4998TIP3    H236554   0.554   3.086   1.802
 4999TIP3   OH236555   2.545   2.705   7.589
 4999TIP3    H136556   2.614   2.647   7.622
 4999TIP3    H236557   2.579   2.740   7.507
 5000TIP3   OH236558   0.181   4.236   7.415
 5000TIP3    H136559   0.096   4.276   7.434
 5000TIP3    H236560   0.236   4.260   7.490
 5001TIP3   OH236561   4.866   6.404   7.822
 5001TIP3    H136562   4.830   6.344   7.756
 5001TIP3    H236563   4.960   6.387   7.820
 5002TIP3   OH236564   6.807   6.042   6.149
 5002TIP3    H136565   0.082   6.013   6.127
 5002TIP3    H236566   6.803   6.132   6.119
 5003TIP3   OH236567   4.509   3.043   0.506
 5003TIP3    H136568   4.456   2.979   0.457
 5003TIP3    H236569   4.477   3.036   0.596
 5004TIP3   OH236570   2.038   3.962   0.188
 5004TIP3    H136571   1.961   3.923   0.147
 5004TIP3    H236572   2.080   4.013   0.118
 5005TIP3   OH236573   3.808   0.019   1.430
 5005TIP3    H136574   3.874   0.089   1.433
 5005TIP3    H236575   3.828   6.779   1.506
 5006TIP3   OH236576   2.214   1.386   6.960
 5006TIP3    H136577   2.143   1.342   6.913
 5006TIP3    H236578   2.276   1.316   6.980
 5007TIP3   OH236579   5.489   0.259   1.853
 5007TIP3    H136580   5.563   0.273   1.911
 5007TIP3    H236581   5.527   0.236   1.769
 5008TIP3   OH236582   0.639   1.579   7.822
 5008TIP3    H136583   0.593   1.631   7.756
 5008TIP3    H236584   0.636   1.634   7.901
 5009TIP3   OH236585   1.474   3.262   2.003
 5009TIP3    H136586   1.529   3.337   1.982
 5009TIP3    H236587   1.386   3.299   2.011
 5010TIP3   OH236588   2.776   2.788   6.900
 5010TIP3    H136589   2.834   2.863   6.885
 5010TIP3    H236590   2.709   2.795   6.832
 5011TIP3   OH236591   1.713   1.145   8.411
 5011TIP3    H136592   1.737   1.055   8.391
 5011TIP3    H236593   1.683   1.142   8.502
 5012TIP3   OH236594   2.866   0.043   1.743
 5012TIP3    H136595   2.808   6.808   1.800
 5012TIP3    H236596   2.821   0.127   1.730
 5013TIP3   OH236597   2.067   0.907   7.695
 5013TIP3    H136598   1.980   0.868   7.703
 5013TIP3    H236599   2.060   0.991   7.742
 5014TIP3   OH236600   6.239   2.268   0.509
 5014TIP3    H136601   6.282   2.312   0.435
 5014TIP3    H236602   6.300   2.279   0.582
 5015TIP3   OH236603   3.482   2.056   0.525
 5015TIP3    H136604   3.431   2.114   0.468
 5015TIP3    H236605   3.556   2.029   0.471
 5016TIP3   OH236606   0.886   2.062   2.212
 5016TIP3    H136607   0.854   2.105   2.291
 5016TIP3    H236608   0.875   2.128   2.143
 5017TIP3   OH236609   1.359   1.787   0.316
 5017TIP3    H136610   1.408   1.858   0.359
 5017TIP3    H236611   1.384   1.709   0.366
 5018TIP3   OH236612   2.544   1.422   7.652
 5018TIP3    H136613   2.594   1.341   7.655
 5018TIP3    H236614   2.584   1.473   7.581
 5019TIP3   OH236615   2.884   5.115   0.729
 5019TIP3    H136616   2.928   5.030   0.733
 5019TIP3    H236617   2.953   5.177   0.705
 5020TIP3   OH236618   0.409   5.178   1.456
 5020TIP3    H136619   0.472   5.137   1.396
 5020TIP3    H236620   0.400   5.115   1.527
 5021TIP3   OH236621   0.055   3.167   1.453
 5021TIP3    H136622   0.031   3.258   1.472
 5021TIP3    H236623   0.135   3.153   1.505
 5022TIP3   OH236624   4.369   1.832   7.476
 5022TIP3    H136625   4.424   1.757   7.498
 5022TIP3    H236626   4.413   1.874   7.402
 5023TIP3   OH236627   4.473   0.028   2.344
 5023TIP3    H136628   4.470   6.758   2.389
 5023TIP3    H236629   4.475   0.092   2.415
 5024TIP3   OH236630   2.772   5.871   7.227
 5024TIP3    H136631   2.793   5.956   7.189
 5024TIP3    H236632   2.788   5.882   7.321
 5025TIP3   OH236633   1.860   1.469   1.614
 5025TIP3    H136634   1.853   1.449   1.707
 5025TIP3    H236635   1.945   1.512   1.604
 5026TIP3   OH236636   1.529   3.690   8.345
 5026TIP3    H136637   1.562   3.731   8.424
 5026TIP3    H236638   1.513   3.763   8.285
 5027TIP3   OH236639   4.302   5.045   2.259
 5027TIP3    H136640   4.229   5.057   2.198
 5027TIP3    H236641   4.298   4.953   2.284
 5028TIP3   OH236642   1.888   3.337   1.709
 5028TIP3    H136643   1.883   3.325   1.804
 5028TIP3    H236644   1.873   3.431   1.696
 5029TIP3   OH236645   2.970   3.782   8.051
 5029TIP3    H136646   3.027   3.744   7.984
 5029TIP3    H236647   3.029   3.806   8.122
 5030TIP3   OH236648   4.269   1.833   1.550
 5030TIP3    H136649   4.301   1.769   1.613
 5030TIP3    H236650   4.215   1.782   1.490
 5031TIP3   OH236651   6.237   4.790   7.082
 5031TIP3    H136652   6.243   4.702   7.045
 5031TIP3    H236653   6.263   4.848   7.011
 5032TIP3   OH236654   6.395   2.904   8.104
 5032TIP3    H136655   6.407   2.810   8.092
 5032TIP3    H236656   6.363   2.913   8.194
 5033TIP3   OH236657   1.182   2.078   1.356
 5033TIP3    H136658   1.260   2.122   1.389
 5033TIP3    H236659   1.171   2.112   1.267
 5034TIP3   OH236660   0.049   6.425   8.741
 5034TIP3    H136661   0.131   6.467   8.713
 5034TIP3    H236662   6.814   6.496   8.782
 5035TIP3   OH236663   2.545   1.603   0.920
 5035TIP3    H136664   2.450   1.592   0.918
 5035TIP3    H236665   2.578   1.517   0.949
 5036TIP3   OH236666   5.264   6.126   8.685
 5036TIP3    H136667   5.337   6.154   8.741
 5036TIP3    H236668   5.292   6.149   8.597
 5037TIP3   OH236669   0.385   1.060   7.608
 5037TIP3    H136670   0.476   1.089   7.603
 5037TIP3    H236671   0.388   0.975   7.651
 5038TIP3   OH236672   6.708   1.924   1.598
 5038TIP3    H136673   6.634   1.981   1.614
 5038TIP3    H236674   6.673   1.835   1.611
 5039TIP3   OH236675   2.357   2.960   2.032
 5039TIP3    H136676   2.424   2.946   1.965
 5039TIP3    H236677   2.338   2.873   2.066
 5040TIP3   OH236678   6.395   1.973   0.440
 5040TIP3    H136679   6.343   1.996   0.517
 5040TIP3    H236680   6.338   1.916   0.388
 5041TIP3   OH236681   6.650   2.213   0.539
 5041TIP3    H136682   6.653   2.117   0.549
 5041TIP3    H236683   6.690   2.229   0.454
 5042TIP3   OH236684   0.273   4.314   6.672
 5042TIP3    H136685   0.244   4.328   6.582
 5042TIP3    H236686   0.267   4.220   6.685
 5043TIP3   OH236687   1.855   4.546   7.891
 5043TIP3    H136688   1.949   4.531   7.898
 5043TIP3    H236689   1.833   4.525   7.801
 5044TIP3   OH236690   3.026   1.302   7.815
 5044TIP3    H136691   2.984   1.216   7.811
 5044TIP3    H236692   2.983   1.346   7.889
 5045TIP3   OH236693   3.538   3.156   1.391
 5045TIP3    H136694   3.605   3.223   1.401
 5045TIP3    H236695   3.489   3.159   1.473
 5046TIP3   OH236696   6.177   0.678   1.855
 5046TIP3    H136697   6.196   0.686   1.949
 5046TIP3    H236698   6.256   0.639   1.818
 5047TIP3   OH236699   0.431   2.594   2.219
 5047TIP3    H136700   0.336   2.605   2.229
 5047TIP3    H236701   0.468   2.650   2.287
 5048TIP3   OH236702   6.463   4.076   0.648
 5048TIP3    H136703   6.432   4.067   0.738
 5048TIP3    H236704   6.507   3.993   0.629
 5049TIP3   OH236705   1.461   6.698   7.884
 5049TIP3    H136706   1.524   6.711   7.813
 5049TIP3    H236707   1.377   6.687   7.840
 5050TIP3   OH236708   3.900   4.180   7.113
 5050TIP3    H136709   3.919   4.165   7.020
 5050TIP3    H236710   3.827   4.122   7.132
 5051TIP3   OH236711   4.569   5.252   0.433
 5051TIP3    H136712   4.665   5.258   0.438
 5051TIP3    H236713   4.538   5.321   0.492
 5052TIP3   OH236714   6.307   2.237   7.240
 5052TIP3    H136715   6.324   2.178   7.166
 5052TIP3    H236716   6.225   2.280   7.218
 5053TIP3   OH236717   0.192   6.600   8.271
 5053TIP3    H136718   0.115   6.595   8.328
 5053TIP3    H236719   0.261   6.555   8.320
 5054TIP3   OH236720   0.510   6.593   1.471
 5054TIP3    H136721   0.576   6.555   1.529
 5054TIP3    H236722   0.530   6.557   1.384
 5055TIP3   OH236723   6.343   1.141   6.976
 5055TIP3    H136724   6.354   1.165   7.068
 5055TIP3    H236725   6.429   1.107   6.950
 5056TIP3   OH236726   0.001   3.263   8.558
 5056TIP3    H136727   6.757   3.337   8.570
 5056TIP3    H236728   6.790   3.200   8.625
 5057TIP3   OH236729   1.854   0.841   1.629
 5057TIP3    H136730   1.807   0.776   1.576
 5057TIP3    H236731   1.886   0.791   1.705
 5058TIP3   OH236732   2.824   3.412   0.119
 5058TIP3    H136733   2.813   3.498   0.159
 5058TIP3    H236734   2.755   3.358   0.157
 5059TIP3   OH236735   4.001   1.328   1.473
 5059TIP3    H136736   4.083   1.376   1.474
 5059TIP3    H236737   3.964   1.345   1.386
 5060TIP3   OH236738   4.398   6.310   2.578
 5060TIP3    H136739   4.329   6.253   2.611
 5060TIP3    H236740   4.471   6.297   2.638
 5061TIP3   OH236741   5.704   4.888   8.251
 5061TIP3    H136742   5.657   4.817   8.296
 5061TIP3    H236743   5.742   4.940   8.322
 5062TIP3   OH236744   5.305   5.091   7.243
 5062TIP3    H136745   5.264   5.008   7.266
 5062TIP3    H236746   5.273   5.152   7.310
 5063TIP3   OH236747   2.158   6.593   8.283
 5063TIP3    H136748   2.251   6.608   8.300
 5063TIP3    H236749   2.140   6.506   8.318
 5064TIP3   OH236750   0.214   5.176   7.662
 5064TIP3    H136751   0.188   5.220   7.743
 5064TIP3    H236752   0.303   5.207   7.646
 5065TIP3   OH236753   5.433   3.014   8.564
 5065TIP3    H136754   5.432   2.925   8.598
 5065TIP3    H236755   5.515   3.019   8.514
 5066TIP3   OH236756   4.518   1.565   0.981
 5066TIP3    H136757   4.498   1.655   1.007
 5066TIP3    H236758   4.589   1.574   0.917
 5067TIP3   OH236759   1.861   1.155   0.854
 5067TIP3    H136760   1.808   1.225   0.893
 5067TIP3    H236761   1.799   1.084   0.840
 5068TIP3   OH236762   5.305   3.168   1.207
 5068TIP3    H136763   5.384   3.151   1.259
 5068TIP3    H236764   5.337   3.172   1.116
 5069TIP3   OH236765   0.299   5.764   8.323
 5069TIP3    H136766   0.331   5.700   8.387
 5069TIP3    H236767   0.301   5.718   8.240
 5070TIP3   OH236768   6.047   1.238   1.590
 5070TIP3    H136769   6.013   1.280   1.511
 5070TIP3    H236770   6.135   1.209   1.566
 5071TIP3   OH236771   1.367   6.695   1.666
 5071TIP3    H136772   1.288   6.727   1.708
 5071TIP3    H236773   1.337   6.656   1.584
 5072TIP3   OH236774   5.961   6.552   1.808
 5072TIP3    H136775   6.038   6.525   1.860
 5072TIP3    H236776   5.886   6.526   1.862
 5073TIP3   OH236777   5.305   1.920   8.331
 5073TIP3    H136778   5.376   1.859   8.310
 5073TIP3    H236779   5.226   1.866   8.324
 5074TIP3   OH236780   3.193   1.221   1.852
 5074TIP3    H136781   3.119   1.281   1.842
 5074TIP3    H236782   3.194   1.199   1.945
 5075TIP3   OH236783   4.319   2.075   0.315
 5075TIP3    H136784   4.233   2.112   0.295
 5075TIP3    H236785   4.378   2.150   0.312
 5076TIP3   OH236786   2.463   0.260   0.320
 5076TIP3    H136787   2.457   0.356   0.321
 5076TIP3    H236788   2.386   0.232   0.271
 5077TIP3   OH236789   4.770   0.717   7.213
 5077TIP3    H136790   4.679   0.709   7.242
 5077TIP3    H236791   4.800   0.627   7.202
 5078TIP3   OH236792   0.770   4.835   8.203
 5078TIP3    H136793   0.839   4.781   8.166
 5078TIP3    H236794   0.760   4.908   8.142
 5079TIP3   OH236795   6.317   1.829   7.694
 5079TIP3    H136796   6.374   1.877   7.634
 5079TIP3    H236797   6.238   1.884   7.702
 5080TIP3   OH236798   1.498   6.396   0.220
 5080TIP3    H136799   1.468   6.334   0.154
 5080TIP3    H236800   1.547   6.461   0.171
 5081TIP3   OH236801   4.602   4.063   7.074
 5081TIP3    H136802   4.524   4.079   7.021
 5081TIP3    H236803   4.643   4.150   7.084
 5082TIP3   OH236804   3.087   0.287   1.739
 5082TIP3    H136805   3.089   0.345   1.815
 5082TIP3    H236806   2.999   0.298   1.703
 5083TIP3   OH236807   0.594   2.206   0.077
 5083TIP3    H136808   0.576   2.155   0.156
 5083TIP3    H236809   0.509   2.244   0.054
 5084TIP3   OH236810   3.011   3.330   7.787
 5084TIP3    H136811   3.079   3.274   7.751
 5084TIP3    H236812   2.948   3.270   7.827
 5085TIP3   OH236813   1.956   5.895   0.961
 5085TIP3    H136814   1.985   5.955   0.892
 5085TIP3    H236815   1.861   5.901   0.960
 5086TIP3   OH236816   2.575   5.068   0.984
 5086TIP3    H136817   2.666   5.039   0.993
 5086TIP3    H236818   2.566   5.088   0.891
 5087TIP3   OH236819   3.121   4.968   1.081
 5087TIP3    H136820   3.148   4.883   1.115
 5087TIP3    H236821   3.064   4.947   1.007
 5088TIP3   OH236822   0.413   2.544   2.586
 5088TIP3    H136823   0.363   2.574   2.511
 5088TIP3    H236824   0.347   2.525   2.653
 5089TIP3   OH236825   4.472   3.244   8.304
 5089TIP3    H136826   4.547   3.202   8.261
 5089TIP3    H236827   4.447   3.314   8.243
 5090TIP3   OH236828   2.120   4.941   0.608
 5090TIP3    H136829   2.129   4.992   0.689
 5090TIP3    H236830   2.040   4.891   0.620
 5091TIP3   OH236831   5.827   0.323   1.738
 5091TIP3    H136832   5.771   0.395   1.766
 5091TIP3    H236833   5.870   0.293   1.818
 5092TIP3   OH236834   3.392   2.893   7.745
 5092TIP3    H136835   3.391   2.899   7.650
 5092TIP3    H236836   3.455   2.959   7.773
 5093TIP3   OH236837   0.205   4.151   1.547
 5093TIP3    H136838   0.157   4.220   1.500
 5093TIP3    H236839   0.152   4.135   1.626
 5094TIP3   OH236840   1.487   3.700   6.939
 5094TIP3    H136841   1.414   3.747   6.978
 5094TIP3    H236842   1.463   3.608   6.945
 5095TIP3   OH236843   6.678   2.141   1.250
 5095TIP3    H136844   6.770   2.165   1.241
 5095TIP3    H236845   6.644   2.200   1.318
 5096TIP3   OH236846   4.569   2.594   0.557
 5096TIP3    H136847   4.587   2.599   0.463
 5096TIP3    H236848   4.639   2.538   0.592
 5097TIP3   OH236849   4.627   4.579   8.087
 5097TIP3    H136850   4.532   4.568   8.089
 5097TIP3    H236851   4.661   4.491   8.071
 5098TIP3   OH236852   4.610   2.900   8.762
 5098TIP3    H136853   4.612   2.821   8.708
 5098TIP3    H236854   4.696   2.904   0.012
 5099TIP3   OH236855   2.734   4.383   0.299
 5099TIP3    H136856   2.792   4.421   0.233
 5099TIP3    H236857   2.775   4.299   0.321
 5100TIP3   OH236858   6.556   1.807   1.821
 5100TIP3    H136859   6.646   1.817   1.852
 5100TIP3    H236860   6.504   1.793   1.900
 5101TIP3   OH236861   5.004   1.766   0.186
 5101TIP3    H136862   5.004   1.834   0.118
 5101TIP3    H236863   5.078   1.709   0.162
 5102TIP3   OH236864   5.349   3.877   1.883
 5102TIP3    H136865   5.442   3.878   1.904
 5102TIP3    H236866   5.305   3.857   1.966
 5103TIP3   OH236867   1.496   1.606   1.846
 5103TIP3    H136868   1.430   1.553   1.890
 5103TIP3    H236869   1.455   1.692   1.835
 5104TIP3   OH236870   0.574   1.564   8.232
 5104TIP3    H136871   0.479   1.565   8.239
 5104TIP3    H236872   0.593   1.629   8.164
 5105TIP3   OH236873   0.919   0.112   2.061
 5105TIP3    H136874   0.899   0.141   2.150
 5105TIP3    H236875   0.847   0.053   2.038
 5106TIP3   OH236876   3.511   3.483   0.014
 5106TIP3    H136877   3.566   3.559   8.787
 5106TIP3    H236878   3.573   3.415   0.041
 5107TIP3   OH236879   1.337   5.225   8.128
 5107TIP3    H136880   1.302   5.162   8.191
 5107TIP3    H236881   1.390   5.172   8.069
 5108TIP3   OH236882   2.082   5.914   1.453
 5108TIP3    H136883   2.090   5.887   1.545
 5108TIP3    H236884   2.010   5.977   1.453
 5109TIP3   OH236885   1.273   0.596   0.143
 5109TIP3    H136886   1.354   0.578   0.096
 5109TIP3    H236887   1.209   0.537   0.104
 5110TIP3   OH236888   0.388   5.988   0.511
 5110TIP3    H136889   0.428   6.067   0.547
 5110TIP3    H236890   0.458   5.923   0.514
 5111TIP3   OH236891   4.060   4.632   7.203
 5111TIP3    H136892   4.052   4.540   7.179
 5111TIP3    H236893   4.154   4.646   7.213
 5112TIP3   OH236894   1.864   5.474   1.061
 5112TIP3    H136895   1.891   5.544   1.120
 5112TIP3    H236896   1.780   5.503   1.026
 5113TIP3   OH236897   2.260   1.379   7.915
 5113TIP3    H136898   2.165   1.381   7.928
 5113TIP3    H236899   2.287   1.293   7.947
 5114TIP3   OH236900   4.298   6.406   0.724
 5114TIP3    H136901   4.267   6.340   0.786
 5114TIP3    H236902   4.236   6.403   0.652
 5115TIP3   OH236903   0.140   5.494   0.984
 5115TIP3    H136904   0.075   5.537   0.929
 5115TIP3    H236905   0.091   5.430   1.035
 5116TIP3   OH236906   4.833   1.540   8.650
 5116TIP3    H136907   4.762   1.569   8.707
 5116TIP3    H236908   4.905   1.601   8.668
 5117TIP3   OH236909   4.642   4.423   0.330
 5117TIP3    H136910   4.713   4.474   0.368
 5117TIP3    H236911   4.623   4.356   0.395
 5118TIP3   OH236912   1.471   5.337   0.967
 5118TIP3    H136913   1.527   5.412   0.988
 5118TIP3    H236914   1.532   5.264   0.957
 5119TIP3   OH236915   1.931   0.374   6.820
 5119TIP3    H136916   1.970   0.451   6.778
 5119TIP3    H236917   1.917   0.312   6.749
 5120TIP3   OH236918   3.294   1.895   7.600
 5120TIP3    H136919   3.352   1.970   7.595
 5120TIP3    H236920   3.344   1.822   7.564
 5121TIP3   OH236921   0.997   4.298   0.333
 5121TIP3    H136922   0.912   4.311   0.374
 5121TIP3    H236923   1.004   4.368   0.268
 5122TIP3   OH236924   2.990   1.743   8.620
 5122TIP3    H136925   2.907   1.772   8.657
 5122TIP3    H236926   3.033   1.695   8.691
 5123TIP3   OH236927   0.128   2.453   1.697
 5123TIP3    H136928   0.153   2.386   1.761
 5123TIP3    H236929   0.186   2.526   1.716
 5124TIP3   OH236930   6.134   2.572   6.892
 5124TIP3    H136931   6.223   2.562   6.925
 5124TIP3    H236932   6.145   2.594   6.800
 5125TIP3   OH236933   0.330   2.362   7.587
 5125TIP3    H136934   0.395   2.307   7.544
 5125TIP3    H236935   0.352   2.451   7.562
 5126TIP3   OH236936   0.445   0.684   1.003
 5126TIP3    H136937   0.533   0.664   0.969
 5126TIP3    H236938   0.446   0.649   1.092
 5127TIP3   OH236939   4.670   4.759   0.469
 5127TIP3    H136940   4.755   4.717   0.458
 5127TIP3    H236941   4.624   4.744   0.386
 5128TIP3   OH236942   4.777   6.000   0.497
 5128TIP3    H136943   4.801   5.927   0.440
 5128TIP3    H236944   4.845   6.065   0.483
 5129TIP3   OH236945   3.106   2.861   0.086
 5129TIP3    H136946   3.160   2.936   0.061
 5129TIP3    H236947   3.024   2.873   0.038
 5130TIP3   OH236948   0.863   2.511   7.117
 5130TIP3    H136949   0.875   2.576   7.048
 5130TIP3    H236950   0.893   2.429   7.078
 5131TIP3   OH236951   2.528   2.157   1.419
 5131TIP3    H136952   2.439   2.127   1.402
 5131TIP3    H236953   2.522   2.252   1.421
 5132TIP3   OH236954   4.975   2.220   0.298
 5132TIP3    H136955   4.950   2.244   0.209
 5132TIP3    H236956   5.038   2.149   0.288
 5133TIP3   OH236957   2.415   1.164   0.612
 5133TIP3    H136958   2.455   1.235   0.663
 5133TIP3    H236959   2.395   1.203   0.527
 5134TIP3   OH236960   2.097   4.080   0.721
 5134TIP3    H136961   2.123   4.160   0.765
 5134TIP3    H236962   2.004   4.069   0.742
 5135TIP3   OH236963   2.128   1.235   1.936
 5135TIP3    H136964   2.121   1.257   2.029
 5135TIP3    H236965   2.218   1.203   1.926
 5136TIP3   OH236966   5.806   5.733   1.836
 5136TIP3    H136967   5.864   5.657   1.835
 5136TIP3    H236968   5.862   5.806   1.864
 5137TIP3   OH236969   6.124   5.157   7.505
 5137TIP3    H136970   6.100   5.065   7.508
 5137TIP3    H236971   6.219   5.158   7.514
 5138TIP3   OH236972   3.034   4.315   6.940
 5138TIP3    H136973   2.954   4.303   6.991
 5138TIP3    H236974   3.050   4.229   6.901
 5139TIP3   OH236975   1.350   0.268   0.673
 5139TIP3    H136976   1.368   0.306   0.587
 5139TIP3    H236977   1.393   0.183   0.671
 5140TIP3   OH236978   4.126   2.364   7.813
 5140TIP3    H136979   4.103   2.277   7.782
 5140TIP3    H236980   4.055   2.420   7.780
 5141TIP3   OH236981   0.788   1.455   1.988
 5141TIP3    H136982   0.768   1.380   2.044
 5141TIP3    H236983   0.794   1.529   2.048
 5142TIP3   OH236984   3.536   3.466   7.747
 5142TIP3    H136985   3.487   3.494   7.670
 5142TIP3    H236986   3.526   3.538   7.809
 5143TIP3   OH236987   4.174   5.374   8.640
 5143TIP3    H136988   4.244   5.310   8.650
 5143TIP3    H236989   4.185   5.433   8.715
 5144TIP3   OH236990   3.402   6.549   0.196
 5144TIP3    H136991   3.389   6.503   0.279
 5144TIP3    H236992   3.451   6.628   0.220
 5145TIP3   OH236993   2.052   1.071   1.211
 5145TIP3    H136994   2.048   1.060   1.306
 5145TIP3    H236995   1.988   1.008   1.177
 5146TIP3   OH236996   6.245   5.816   1.630
 5146TIP3    H136997   6.204   5.860   1.705
 5146TIP3    H236998   6.201   5.731   1.624
 5147TIP3   OH236999   2.820   2.803   1.712
 5147TIP3    H137000   2.897   2.780   1.661
 5147TIP3    H237001   2.855   2.829   1.798
 5148TIP3   OH237002   2.177   6.604   7.757
 5148TIP3    H137003   2.256   6.552   7.747
 5148TIP3    H237004   2.176   6.629   7.850
 5149TIP3   OH237005   0.805   1.076   1.283
 5149TIP3    H137006   0.790   1.032   1.367
 5149TIP3    H237007   0.730   1.051   1.229
 5150TIP3   OH237008   3.444   6.681   7.803
 5150TIP3    H137009   3.394   6.697   7.722
 5150TIP3    H237010   3.390   6.620   7.852
 5151TIP3   OH237011   0.744   5.959   8.505
 5151TIP3    H137012   0.703   5.936   8.423
 5151TIP3    H237013   0.683   6.020   8.547
 5152TIP3   OH237014   4.171   5.263   0.266
 5152TIP3    H137015   4.233   5.201   0.228
 5152TIP3    H237016   4.089   5.213   0.273
 5153TIP3   OH237017   3.163   4.661   8.370
 5153TIP3    H137018   3.249   4.669   8.410
 5153TIP3    H237019   3.121   4.746   8.386
 5154TIP3   OH237020   1.111   0.397   1.166
 5154TIP3    H137021   1.180   0.398   1.100
 5154TIP3    H237022   1.054   0.470   1.143
 5155TIP3   OH237023   4.594   4.970   0.630
 5155TIP3    H137024   4.622   4.891   0.584
 5155TIP3    H237025   4.502   4.981   0.604
 5156TIP3   OH237026   3.198   3.559   1.318
 5156TIP3    H137027   3.203   3.652   1.294
 5156TIP3    H237028   3.112   3.531   1.288
 5157TIP3   OH237029   3.834   0.187   1.972
 5157TIP3    H137030   3.873   0.104   2.000
 5157TIP3    H237031   3.865   0.251   2.036
 5158TIP3   OH237032   3.792   1.252   7.854
 5158TIP3    H137033   3.754   1.333   7.887
 5158TIP3    H237034   3.870   1.279   7.807
 5159TIP3   OH237035   2.478   6.063   6.566
 5159TIP3    H137036   2.479   6.123   6.640
 5159TIP3    H237037   2.393   6.078   6.524
 5160TIP3   OH237038   4.368   2.212   1.072
 5160TIP3    H137039   4.358   2.254   1.157
 5160TIP3    H237040   4.328   2.126   1.083
 5161TIP3   OH237041   4.266   0.397   8.727
 5161TIP3    H137042   4.233   0.322   8.678
 5161TIP3    H237043   4.190   0.431   8.775
 5162TIP3   OH237044   6.574   3.774   8.254
 5162TIP3    H137045   6.493   3.809   8.290
 5162TIP3    H237046   6.546   3.710   8.188
 5163TIP3   OH237047   6.399   5.938   2.108
 5163TIP3    H137048   6.472   5.994   2.133
 5163TIP3    H237049   6.397   5.944   2.012
 5164TIP3   OH237050   5.129   0.540   0.611
 5164TIP3    H137051   5.162   0.470   0.555
 5164TIP3    H237052   5.081   0.598   0.552
 5165TIP3   OH237053   4.156   5.691   1.629
 5165TIP3    H137054   4.216   5.747   1.678
 5165TIP3    H237055   4.155   5.609   1.679
 5166TIP3   OH237056   0.962   3.465   1.530
 5166TIP3    H137057   0.888   3.521   1.552
 5166TIP3    H237058   0.987   3.425   1.613
 5167TIP3   OH237059   5.199   0.454   1.641
 5167TIP3    H137060   5.220   0.538   1.602
 5167TIP3    H237061   5.233   0.459   1.731
 5168TIP3   OH237062   0.929   2.643   1.481
 5168TIP3    H137063   0.934   2.722   1.535
 5168TIP3    H237064   0.881   2.580   1.536
 5169TIP3   OH237065   5.519   0.621   0.169
 5169TIP3    H137066   5.591   0.561   0.189
 5169TIP3    H237067   5.454   0.566   0.125
 5170TIP3   OH237068   4.690   0.552   8.485
 5170TIP3    H137069   4.760   0.616   8.467
 5170TIP3    H237070   4.717   0.509   8.566
 5171TIP3   OH237071   4.000   1.033   8.189
 5171TIP3    H137072   4.080   1.007   8.235
 5171TIP3    H237073   4.018   1.013   8.097
 5172TIP3   OH237074   6.272   3.267   0.373
 5172TIP3    H137075   6.197   3.321   0.398
 5172TIP3    H237076   6.234   3.192   0.327
 5173TIP3   OH237077   0.855   0.680   8.790
 5173TIP3    H137078   0.897   0.594   0.000
 5173TIP3    H237079   0.770   0.664   8.749
 5174TIP3   OH237080   2.724   6.073   7.951
 5174TIP3    H137081   2.779   6.150   7.965
 5174TIP3    H237082   2.702   6.042   8.039
 5175TIP3   OH237083   5.721   5.549   1.622
 5175TIP3    H137084   5.776   5.623   1.647
 5175TIP3    H237085   5.642   5.558   1.676
 5176TIP3   OH237086   0.374   0.780   8.665
 5176TIP3    H137087   0.341   0.869   8.657
 5176TIP3    H237088   0.348   0.752   8.752
 5177TIP3   OH237089   5.691   0.244   2.289
 5177TIP3    H137090   5.632   0.258   2.362
 5177TIP3    H237091   5.777   0.232   2.330
 5178TIP3   OH237092   3.986   1.649   7.447
 5178TIP3    H137093   3.930   1.708   7.498
 5178TIP3    H237094   4.066   1.640   7.499
 5179TIP3   OH237095   1.720   5.359   7.422
 5179TIP3    H137096   1.726   5.286   7.483
 5179TIP3    H237097   1.635   5.349   7.379
 5180TIP3   OH237098   2.908   1.857   0.545
 5180TIP3    H137099   2.826   1.880   0.589
 5180TIP3    H237100   2.949   1.793   0.603
 5181TIP3   OH237101   2.424   4.883   0.270
 5181TIP3    H137102   2.490   4.854   0.207
 5181TIP3    H237103   2.342   4.882   0.220
 5182TIP3   OH237104   5.656   1.873   2.007
 5182TIP3    H137105   5.667   1.810   1.936
 5182TIP3    H237106   5.570   1.912   1.990
 5183TIP3   OH237107   1.868   2.867   7.696
 5183TIP3    H137108   1.946   2.895   7.744
 5183TIP3    H237109   1.888   2.887   7.604
 5184TIP3   OH237110   5.455   1.975   1.254
 5184TIP3    H137111   5.390   2.042   1.234
 5184TIP3    H237112   5.406   1.905   1.296
 5185TIP3   OH237113   5.296   4.081   7.821
 5185TIP3    H137114   5.330   4.077   7.910
 5185TIP3    H237115   5.215   4.133   7.828
 5186TIP3   OH237116   3.498   0.648   8.135
 5186TIP3    H137117   3.461   0.588   8.070
 5186TIP3    H237118   3.454   0.626   8.216
 5187TIP3   OH237119   2.249   2.341   1.934
 5187TIP3    H137120   2.339   2.310   1.941
 5187TIP3    H237121   2.241   2.406   2.004
 5188TIP3   OH237122   6.533   1.075   1.195
 5188TIP3    H137123   6.486   1.051   1.116
 5188TIP3    H237124   6.582   1.154   1.170
 5189TIP3   OH237125   3.156   4.667   0.838
 5189TIP3    H137126   3.214   4.706   0.903
 5189TIP3    H237127   3.209   4.662   0.758
 5190TIP3   OH237128   2.118   0.468   0.306
 5190TIP3    H137129   2.040   0.432   0.349
 5190TIP3    H237130   2.090   0.485   0.216
 5191TIP3   OH237131   1.916   2.016   2.210
 5191TIP3    H137132   1.888   2.025   2.119
 5191TIP3    H237133   1.937   2.105   2.237
 5192TIP3   OH237134   4.035   2.981   0.140
 5192TIP3    H137135   4.062   2.890   0.126
 5192TIP3    H237136   4.018   3.015   0.053
 5193TIP3   OH237137   3.444   5.224   6.318
 5193TIP3    H137138   3.422   5.131   6.327
 5193TIP3    H237139   3.364   5.265   6.286
 5194TIP3   OH237140   1.129   3.494   2.386
 5194TIP3    H137141   1.119   3.412   2.434
 5194TIP3    H237142   1.185   3.471   2.312
 5195TIP3   OH237143   6.154   2.612   6.626
 5195TIP3    H137144   6.130   2.685   6.568
 5195TIP3    H237145   6.241   2.585   6.595
 5196TIP3   OH237146   5.139   5.871   0.696
 5196TIP3    H137147   5.148   5.953   0.746
 5196TIP3    H237148   5.229   5.849   0.670
 5197TIP3   OH237149   0.859   6.263   6.414
 5197TIP3    H137150   0.920   6.210   6.465
 5197TIP3    H237151   0.915   6.316   6.357
 5198TIP3   OH237152   6.121   4.502   8.655
 5198TIP3    H137153   6.168   4.557   8.718
 5198TIP3    H237154   6.033   4.493   8.691
 5199TIP3   OH237155   3.835   6.339   1.443
 5199TIP3    H137156   3.803   6.398   1.375
 5199TIP3    H237157   3.900   6.390   1.491
 5200TIP3   OH237158   4.148   5.866   6.385
 5200TIP3    H137159   4.147   5.938   6.323
 5200TIP3    H237160   4.057   5.836   6.390
 5201TIP3   OH237161   6.273   1.107   7.301
 5201TIP3    H137162   6.211   1.179   7.309
 5201TIP3    H237163   6.225   1.039   7.254
 5202TIP3   OH237164   4.961   2.074   1.612
 5202TIP3    H137165   4.912   2.087   1.531
 5202TIP3    H237166   4.921   2.133   1.675
 5203TIP3   OH237167   6.465   1.911   7.232
 5203TIP3    H137168   6.390   1.894   7.174
 5203TIP3    H237169   6.538   1.926   7.173
 5204TIP3   OH237170   5.936   2.906   7.438
 5204TIP3    H137171   6.020   2.951   7.443
 5204TIP3    H237172   5.871   2.976   7.435
 5205TIP3   OH237173   0.969   2.791   1.250
 5205TIP3    H137174   0.985   2.723   1.315
 5205TIP3    H237175   1.009   2.757   1.170
 5206TIP3   OH237176   2.687   0.675   1.878
 5206TIP3    H137177   2.711   0.590   1.915
 5206TIP3    H237178   2.633   0.654   1.802
 5207TIP3   OH237179   0.469   6.051   6.708
 5207TIP3    H137180   0.397   5.990   6.691
 5207TIP3    H237181   0.480   6.099   6.626
 5208TIP3   OH237182   2.398   5.230   1.557
 5208TIP3    H137183   2.372   5.276   1.637
 5208TIP3    H237184   2.417   5.141   1.585
 5209TIP3   OH237185   2.521   0.646   6.969
 5209TIP3    H137186   2.608   0.635   6.930
 5209TIP3    H237187   2.521   0.584   7.043
 5210TIP3   OH237188   4.307   1.646   8.637
 5210TIP3    H137189   4.273   1.585   8.572
 5210TIP3    H237190   4.362   1.707   8.587
 5211TIP3   OH237191   6.363   2.180   1.177
 5211TIP3    H137192   6.442   2.158   1.228
 5211TIP3    H237193   6.388   2.166   1.086
 5212TIP3   OH237194   3.476   3.375   6.885
 5212TIP3    H137195   3.403   3.318   6.863
 5212TIP3    H237196   3.455   3.459   6.844
 5213TIP3   OH237197   4.850   2.789   0.007
 5213TIP3    H137198   4.802   2.739   8.732
 5213TIP3    H237199   4.927   2.735   0.026
 5214TIP3   OH237200   5.057   1.940   8.000
 5214TIP3    H137201   5.009   1.859   7.981
 5214TIP3    H237202   5.129   1.912   8.057
 5215TIP3   OH237203   0.975   5.587   1.245
 5215TIP3    H137204   1.050   5.561   1.299
 5215TIP3    H237205   1.014   5.608   1.160
 5216TIP3   OH237206   4.139   2.747   0.065
 5216TIP3    H137207   4.224   2.789   0.053
 5216TIP3    H237208   4.156   2.676   0.127
 5217TIP3   OH237209   2.114   3.278   1.544
 5217TIP3    H137210   2.037   3.277   1.602
 5217TIP3    H237211   2.186   3.246   1.600
 5218TIP3   OH237212   1.559   3.992   6.131
 5218TIP3    H137213   1.521   3.974   6.045
 5218TIP3    H237214   1.633   4.050   6.114
 5219TIP3   OH237215   5.279   3.305   0.215
 5219TIP3    H137216   5.217   3.282   0.146
 5219TIP3    H237217   5.267   3.237   0.281
 5220TIP3   OH237218   3.370   4.768   7.305
 5220TIP3    H137219   3.364   4.758   7.210
 5220TIP3    H237220   3.348   4.860   7.322
 5221TIP3   OH237221   4.638   3.261   6.912
 5221TIP3    H137222   4.685   3.302   6.839
 5221TIP3    H237223   4.557   3.311   6.919
 5222TIP3   OH237224   6.467   1.471   6.690
 5222TIP3    H137225   6.526   1.415   6.740
 5222TIP3    H237226   6.521   1.502   6.617
 5223TIP3   OH237227   1.742   1.406   2.253
 5223TIP3    H137228   1.715   1.449   2.334
 5223TIP3    H237229   1.663   1.401   2.201
 5224TIP3   OH237230   2.362   1.145   1.847
 5224TIP3    H137231   2.375   1.136   1.753
 5224TIP3    H237232   2.450   1.145   1.884
 5225TIP3   OH237233   5.452   0.449   1.325
 5225TIP3    H137234   5.487   0.412   1.243
 5225TIP3    H237235   5.358   0.433   1.320
 5226TIP3   OH237236   1.231   6.755   8.531
 5226TIP3    H137237   1.207   6.808   8.455
 5226TIP3    H237238   1.158   6.694   8.541
 5227TIP3   OH237239   3.788   4.373   7.786
 5227TIP3    H137240   3.852   4.443   7.772
 5227TIP3    H237241   3.760   4.383   7.877
 5228TIP3   OH237242   5.761   6.018   1.044
 5228TIP3    H137243   5.703   5.943   1.031
 5228TIP3    H237244   5.774   6.053   0.955
 5229TIP3   OH237245   4.436   1.764   2.262
 5229TIP3    H137246   4.422   1.767   2.356
 5229TIP3    H237247   4.374   1.699   2.230
 5230TIP3   OH237248   3.027   0.511   7.011
 5230TIP3    H137249   2.945   0.512   7.060
 5230TIP3    H237250   3.001   0.495   6.921
 5231TIP3   OH237251   6.047   2.403   8.732
 5231TIP3    H137252   5.974   2.383   8.672
 5231TIP3    H237253   6.061   2.497   8.722
 5232TIP3   OH237254   3.492   0.527   1.379
 5232TIP3    H137255   3.428   0.528   1.450
 5232TIP3    H237256   3.566   0.478   1.414
 5233TIP3   OH237257   4.194   3.635   7.144
 5233TIP3    H137258   4.174   3.577   7.071
 5233TIP3    H237259   4.228   3.715   7.103
 5234TIP3   OH237260   6.155   3.477   1.527
 5234TIP3    H137261   6.129   3.568   1.538
 5234TIP3    H237262   6.076   3.426   1.548
 5235TIP3   OH237263   2.049   3.482   0.019
 5235TIP3    H137264   1.996   3.544   8.759
 5235TIP3    H237265   2.009   3.483   0.106
 5236TIP3   OH237266   2.731   0.209   7.891
 5236TIP3    H137267   2.752   0.263   7.815
 5236TIP3    H237268   2.758   0.120   7.866
 5237TIP3   OH237269   6.466   2.277   8.307
 5237TIP3    H137270   6.470   2.213   8.236
 5237TIP3    H237271   6.448   2.224   8.385
 5238TIP3   OH237272   3.125   0.014   7.781
 5238TIP3    H137273   3.134   0.107   7.764
 5238TIP3    H237274   3.168   6.786   7.707
 5239TIP3   OH237275   1.486   3.200   0.026
 5239TIP3    H137276   1.420   3.233   8.757
 5239TIP3    H237277   1.562   3.256   0.011
 5240TIP3   OH237278   5.144   2.181   6.798
 5240TIP3    H137279   5.154   2.166   6.704
 5240TIP3    H237280   5.059   2.224   6.807
 5241TIP3   OH237281   4.109   4.842   8.024
 5241TIP3    H137282   4.108   4.864   7.931
 5241TIP3    H237283   4.028   4.792   8.038
 5242TIP3   OH237284   6.235   0.773   2.440
 5242TIP3    H137285   6.283   0.701   2.481
 5242TIP3    H237286   6.302   0.837   2.416
 5243TIP3   OH237287   1.836   1.391   8.268
 5243TIP3    H137288   1.806   1.305   8.295
 5243TIP3    H237289   1.863   1.434   8.349
 5244TIP3   OH237290   1.983   4.843   6.326
 5244TIP3    H137291   2.006   4.930   6.293
 5244TIP3    H237292   2.066   4.805   6.353
 5245TIP3   OH237293   3.375   2.077   1.148
 5245TIP3    H137294   3.354   2.171   1.150
 5245TIP3    H237295   3.463   2.073   1.111
 5246TIP3   OH237296   2.570   2.203   8.372
 5246TIP3    H137297   2.485   2.160   8.366
 5246TIP3    H237298   2.622   2.146   8.429
 5247TIP3   OH237299   4.232   5.740   6.614
 5247TIP3    H137300   4.201   5.775   6.530
 5247TIP3    H237301   4.161   5.683   6.643
 5248TIP3   OH237302   5.206   2.567   0.278
 5248TIP3    H137303   5.257   2.589   0.357
 5248TIP3    H237304   5.246   2.487   0.245
 5249TIP3   OH237305   0.477   5.328   6.269
 5249TIP3    H137306   0.521   5.407   6.237
 5249TIP3    H237307   0.413   5.361   6.332
 5250TIP3   OH237308   4.305   1.844   2.633
 5250TIP3    H137309   4.260   1.913   2.683
 5250TIP3    H237310   4.236   1.803   2.582
 5251TIP3   OH237311   1.454   6.795   0.712
 5251TIP3    H137312   1.410   6.717   0.746
 5251TIP3    H237313   1.524   6.812   0.774
 5252TIP3   OH237314   1.349   0.694   0.610
 5252TIP3    H137315   1.352   0.613   0.559
 5252TIP3    H237316   1.280   0.746   0.568
 5253TIP3   OH237317   4.089   3.974   0.920
 5253TIP3    H137318   4.035   3.947   0.846
 5253TIP3    H237319   4.147   4.042   0.884
 5254TIP3   OH237320   1.107   2.711   0.357
 5254TIP3    H137321   1.158   2.740   0.432
 5254TIP3    H237322   1.126   2.775   0.289
 5255TIP3   OH237323   3.252   5.382   1.468
 5255TIP3    H137324   3.295   5.423   1.543
 5255TIP3    H237325   3.262   5.288   1.483
 5256TIP3   OH237326   5.256   1.860   6.672
 5256TIP3    H137327   5.229   1.946   6.639
 5256TIP3    H237328   5.318   1.880   6.742
 5257TIP3   OH237329   1.500   5.755   8.744
 5257TIP3    H137330   1.503   5.849   8.763
 5257TIP3    H237331   1.410   5.730   8.763
 5258TIP3   OH237332   1.028   0.648   7.948
 5258TIP3    H137333   0.977   0.645   8.030
 5258TIP3    H237334   0.993   0.724   7.902
 5259TIP3   OH237335   2.709   2.797   6.633
 5259TIP3    H137336   2.780   2.762   6.579
 5259TIP3    H237337   2.691   2.883   6.594
 5260TIP3   OH237338   1.684   0.426   7.403
 5260TIP3    H137339   1.689   0.471   7.488
 5260TIP3    H237340   1.774   0.423   7.372
 5261TIP3   OH237341   4.806   5.761   6.518
 5261TIP3    H137342   4.854   5.841   6.495
 5261TIP3    H237343   4.750   5.744   6.442
 5262TIP3   OH237344   6.099   6.603   8.049
 5262TIP3    H137345   6.180   6.627   8.094
 5262TIP3    H237346   6.039   6.675   8.069
 5263TIP3   OH237347   3.469   0.559   6.934
 5263TIP3    H137348   3.437   0.478   6.975
 5263TIP3    H237349   3.406   0.577   6.865
 5264TIP3   OH237350   3.697   5.947   2.310
 5264TIP3    H137351   3.746   6.010   2.362
 5264TIP3    H237352   3.667   5.996   2.234
 5265TIP3   OH237353   1.622   0.436   6.903
 5265TIP3    H137354   1.692   0.498   6.882
 5265TIP3    H237355   1.563   0.441   6.828
 5266TIP3   OH237356   5.622   6.282   0.673
 5266TIP3    H137357   5.548   6.245   0.720
 5266TIP3    H237358   5.699   6.244   0.715
 5267TIP3   OH237359   5.855   1.243   0.686
 5267TIP3    H137360   5.838   1.185   0.612
 5267TIP3    H237361   5.950   1.252   0.689
 5268TIP3   OH237362   6.580   2.377   2.108
 5268TIP3    H137363   6.485   2.364   2.098
 5268TIP3    H237364   6.592   2.397   2.201
 5269TIP3   OH237365   5.790   1.690   7.671
 5269TIP3    H137366   5.768   1.660   7.759
 5269TIP3    H237367   5.708   1.683   7.622
 5270TIP3   OH237368   1.562   5.727   1.779
 5270TIP3    H137369   1.642   5.676   1.790
 5270TIP3    H237370   1.514   5.712   1.861
 5271TIP3   OH237371   0.213   4.736   6.941
 5271TIP3    H137372   0.234   4.665   7.001
 5271TIP3    H237373   0.201   4.694   6.856
 5272TIP3   OH237374   6.329   4.451   6.494
 5272TIP3    H137375   6.385   4.398   6.437
 5272TIP3    H237376   6.240   4.424   6.473
 5273TIP3   OH237377   4.554   4.879   8.020
 5273TIP3    H137378   4.568   4.787   8.042
 5273TIP3    H237379   4.602   4.891   7.938
 5274TIP3   OH237380   3.479   6.704   0.605
 5274TIP3    H137381   3.488   6.737   0.516
 5274TIP3    H237382   3.568   6.693   0.636
 5275TIP3   OH237383   1.029   6.602   6.708
 5275TIP3    H137384   1.031   6.667   6.638
 5275TIP3    H237385   1.061   6.649   6.785
 5276TIP3   OH237386   1.652   0.401   2.485
 5276TIP3    H137387   1.640   0.359   2.570
 5276TIP3    H237388   1.668   0.329   2.424
 5277TIP3   OH237389   5.018   6.272   8.545
 5277TIP3    H137390   5.079   6.293   8.474
 5277TIP3    H237391   4.996   6.357   8.583
 5278TIP3   OH237392   5.804   3.838   8.172
 5278TIP3    H137393   5.797   3.743   8.169
 5278TIP3    H237394   5.721   3.869   8.135
 5279TIP3   OH237395   5.469   1.713   8.347
 5279TIP3    H137396   5.531   1.655   8.390
 5279TIP3    H237397   5.401   1.655   8.314
 5280TIP3   OH237398   4.233   0.464   0.907
 5280TIP3    H137399   4.207   0.398   0.972
 5280TIP3    H237400   4.151   0.508   0.884
 5281TIP3   OH237401   2.104   2.523   0.659
 5281TIP3    H137402   2.048   2.508   0.583
 5281TIP3    H237403   2.072   2.605   0.697
 5282TIP3   OH237404   2.520   6.134   1.651
 5282TIP3    H137405   2.469   6.150   1.572
 5282TIP3    H237406   2.462   6.082   1.707
 5283TIP3   OH237407   4.793   4.528   1.188
 5283TIP3    H137408   4.812   4.611   1.233
 5283TIP3    H237409   4.697   4.522   1.188
 5284TIP3   OH237410   2.277   2.906   7.142
 5284TIP3    H137411   2.361   2.862   7.147
 5284TIP3    H237412   2.283   2.960   7.064
 5285TIP3   OH237413   0.039   3.410   7.620
 5285TIP3    H137414   0.101   3.480   7.599
 5285TIP3    H237415   0.045   3.402   7.716
 5286TIP3   OH237416   5.912   1.543   2.657
 5286TIP3    H137417   5.839   1.531   2.596
 5286TIP3    H237418   5.873   1.534   2.744
 5287TIP3   OH237419   3.840   2.712   0.747
 5287TIP3    H137420   3.863   2.743   0.660
 5287TIP3    H237421   3.871   2.622   0.750
 5288TIP3   OH237422   5.442   3.752   7.468
 5288TIP3    H137423   5.401   3.772   7.552
 5288TIP3    H237424   5.369   3.747   7.406
 5289TIP3   OH237425   5.956   1.865   1.487
 5289TIP3    H137426   5.939   1.934   1.423
 5289TIP3    H237427   5.872   1.820   1.498
 5290TIP3   OH237428   3.358   2.640   8.318
 5290TIP3    H137429   3.444   2.599   8.329
 5290TIP3    H237430   3.296   2.573   8.348
 5291TIP3   OH237431   1.108   0.133   6.807
 5291TIP3    H137432   1.054   0.128   6.886
 5291TIP3    H237433   1.078   0.213   6.764
 5292TIP3   OH237434   2.582   4.706   6.574
 5292TIP3    H137435   2.568   4.621   6.531
 5292TIP3    H237436   2.564   4.689   6.666
 5293TIP3   OH237437   6.762   1.170   8.542
 5293TIP3    H137438   6.700   1.242   8.528
 5293TIP3    H237439   0.031   1.214   8.558
 5294TIP3   OH237440   6.090   1.810   2.084
 5294TIP3    H137441   6.027   1.869   2.126
 5294TIP3    H237442   6.113   1.853   2.002
 5295TIP3   OH237443   2.455   5.843   8.395
 5295TIP3    H137444   2.474   5.901   8.321
 5295TIP3    H237445   2.429   5.760   8.354
 5296TIP3   OH237446   3.823   2.705   7.730
 5296TIP3    H137447   3.869   2.639   7.678
 5296TIP3    H237448   3.888   2.736   7.793
 5297TIP3   OH237449   3.861   5.387   1.018
 5297TIP3    H137450   3.836   5.376   0.926
 5297TIP3    H237451   3.934   5.450   1.015
 5298TIP3   OH237452   5.520   3.390   1.761
 5298TIP3    H137453   5.545   3.299   1.743
 5298TIP3    H237454   5.536   3.401   1.855
 5299TIP3   OH237455   2.536   5.130   0.092
 5299TIP3    H137456   2.503   5.155   0.005
 5299TIP3    H237457   2.457   5.122   0.145
 5300TIP3   OH237458   4.287   0.644   7.680
 5300TIP3    H137459   4.352   0.706   7.713
 5300TIP3    H237460   4.210   0.658   7.735
 5301TIP3   OH237461   1.876   1.079   0.130
 5301TIP3    H137462   1.883   0.988   0.101
 5301TIP3    H237463   1.895   1.130   0.051
 5302TIP3   OH237464   4.760   2.132   0.044
 5302TIP3    H137465   4.732   2.088   0.124
 5302TIP3    H237466   4.700   2.206   0.035
 5303TIP3   OH237467   3.477   6.292   7.421
 5303TIP3    H137468   3.504   6.206   7.451
 5303TIP3    H237469   3.511   6.299   7.332
 5304TIP3   OH237470   6.595   3.308   2.187
 5304TIP3    H137471   6.629   3.391   2.222
 5304TIP3    H237472   6.624   3.242   2.250
 5305TIP3   OH237473   0.140   5.919   8.499
 5305TIP3    H137474   0.176   5.855   8.438
 5305TIP3    H237475   0.151   5.879   8.585
 5306TIP3   OH237476   1.371   4.384   6.453
 5306TIP3    H137477   1.275   4.388   6.446
 5306TIP3    H237478   1.391   4.429   6.534
 5307TIP3   OH237479   6.022   3.984   1.872
 5307TIP3    H137480   5.954   4.046   1.895
 5307TIP3    H237481   5.976   3.902   1.856
 5308TIP3   OH237482   1.632   3.021   1.286
 5308TIP3    H137483   1.687   2.952   1.324
 5308TIP3    H237484   1.561   3.034   1.348
 5309TIP3   OH237485   3.063   4.896   1.415
 5309TIP3    H137486   3.045   4.907   1.509
 5309TIP3    H237487   3.138   4.836   1.412
 5310TIP3   OH237488   4.487   5.335   1.118
 5310TIP3    H137489   4.514   5.327   1.026
 5310TIP3    H237490   4.403   5.381   1.114
 5311TIP3   OH237491   1.040   3.343   0.769
 5311TIP3    H137492   1.112   3.401   0.793
 5311TIP3    H237493   0.966   3.373   0.822
 5312TIP3   OH237494   2.458   2.760   0.861
 5312TIP3    H137495   2.483   2.822   0.930
 5312TIP3    H237496   2.521   2.775   0.791
 5313TIP3   OH237497   5.974   1.022   8.325
 5313TIP3    H137498   5.901   0.978   8.368
 5313TIP3    H237499   5.965   1.114   8.348
 5314TIP3   OH237500   1.504   0.540   0.029
 5314TIP3    H137501   1.535   0.451   0.009
 5314TIP3    H237502   1.514   0.587   8.737
 5315TIP3   OH237503   4.997   6.316   6.957
 5315TIP3    H137504   5.074   6.279   7.000
 5315TIP3    H237505   5.032   6.365   6.882
 5316TIP3   OH237506   6.159   6.286   7.007
 5316TIP3    H137507   6.195   6.242   6.930
 5316TIP3    H237508   6.159   6.379   6.984
 5317TIP3   OH237509   2.465   2.242   0.723
 5317TIP3    H137510   2.411   2.321   0.718
 5317TIP3    H237511   2.462   2.216   0.815
 5318TIP3   OH237512   1.525   3.502   1.267
 5318TIP3    H137513   1.550   3.459   1.349
 5318TIP3    H237514   1.598   3.560   1.247
 5319TIP3   OH237515   1.733   3.254   1.181
 5319TIP3    H137516   1.677   3.207   1.119
 5319TIP3    H237517   1.705   3.222   1.267
 5320TIP3   OH237518   2.675   5.489   0.693
 5320TIP3    H137519   2.606   5.533   0.742
 5320TIP3    H237520   2.650   5.499   0.601
 5321TIP3   OH237521   5.743   2.231   6.747
 5321TIP3    H137522   5.704   2.180   6.675
 5321TIP3    H237523   5.670   2.245   6.807
 5322TIP3   OH237524   6.219   3.275   1.973
 5322TIP3    H137525   6.175   3.256   1.890
 5322TIP3    H237526   6.152   3.265   2.039
 5323TIP3   OH237527   1.922   6.375   7.987
 5323TIP3    H137528   2.005   6.329   7.972
 5323TIP3    H237529   1.921   6.394   8.080
 5324TIP3   OH237530   6.629   1.200   0.136
 5324TIP3    H137531   6.580   1.195   0.054
 5324TIP3    H237532   6.601   1.282   0.176
 5325TIP3   OH237533   3.912   3.399   0.308
 5325TIP3    H137534   3.986   3.450   0.340
 5325TIP3    H237535   3.943   3.309   0.308
 5326TIP3   OH237536   6.332   2.887   1.172
 5326TIP3    H137537   6.332   2.847   1.258
 5326TIP3    H237538   6.422   2.917   1.158
 5327TIP3   OH237539   3.525   5.565   0.748
 5327TIP3    H137540   3.512   5.639   0.807
 5327TIP3    H237541   3.484   5.491   0.794
 5328TIP3   OH237542   6.092   2.125   7.824
 5328TIP3    H137543   6.161   2.170   7.873
 5328TIP3    H237544   6.112   2.142   7.732
 5329TIP3   OH237545   0.449   0.361   0.181
 5329TIP3    H137546   0.473   0.389   0.269
 5329TIP3    H237547   0.358   0.388   0.171
 5330TIP3   OH237548   0.854   0.144   7.647
 5330TIP3    H137549   0.780   0.196   7.678
 5330TIP3    H237550   0.824   0.103   7.566
 5331TIP3   OH237551   0.527   2.624   0.913
 5331TIP3    H137552   0.521   2.690   0.843
 5331TIP3    H237553   0.528   2.676   0.994
 5332TIP3   OH237554   5.708   2.529   0.142
 5332TIP3    H137555   5.751   2.479   0.212
 5332TIP3    H237556   5.755   2.612   0.140
 5333TIP3   OH237557   2.450   6.173   7.895
 5333TIP3    H137558   2.532   6.126   7.909
 5333TIP3    H237559   2.476   6.265   7.883
 5334TIP3   OH237560   2.688   3.384   7.934
 5334TIP3    H137561   2.761   3.398   7.994
 5334TIP3    H237562   2.700   3.451   7.866
 5335TIP3   OH237563   5.316   5.721   7.917
 5335TIP3    H137564   5.359   5.637   7.902
 5335TIP3    H237565   5.304   5.726   8.012
 5336TIP3   OH237566   3.850   0.833   8.315
 5336TIP3    H137567   3.898   0.916   8.307
 5336TIP3    H237568   3.759   0.859   8.329
 5337TIP3   OH237569   2.729   4.883   0.345
 5337TIP3    H137570   2.812   4.927   0.364
 5337TIP3    H237571   2.666   4.954   0.335
 5338TIP3   OH237572   5.667   4.167   7.960
 5338TIP3    H137573   5.676   4.078   7.926
 5338TIP3    H237574   5.716   4.221   7.898
 5339TIP3   OH237575   3.942   0.562   1.486
 5339TIP3    H137576   3.968   0.632   1.546
 5339TIP3    H237577   3.898   0.607   1.414
 5340TIP3   OH237578   6.209   4.558   7.404
 5340TIP3    H137579   6.241   4.559   7.494
 5340TIP3    H237580   6.139   4.623   7.403
 5341TIP3   OH237581   6.013   1.279   8.090
 5341TIP3    H137582   6.016   1.360   8.039
 5341TIP3    H237583   5.978   1.306   8.176
 5342TIP3   OH237584   1.463   2.989   7.708
 5342TIP3    H137585   1.538   3.020   7.759
 5342TIP3    H237586   1.488   2.900   7.682
 5343TIP3   OH237587   0.074   3.768   2.264
 5343TIP3    H137588   6.811   3.712   2.265
 5343TIP3    H237589   0.123   3.743   2.343
 5344TIP3   OH237590   3.630   2.730   7.496
 5344TIP3    H137591   3.576   2.651   7.494
 5344TIP3    H237592   3.692   2.714   7.567
 5345TIP3   OH237593   5.186   0.145   2.651
 5345TIP3    H137594   5.111   0.094   2.620
 5345TIP3    H237595   5.149   0.231   2.672
 5346TIP3   OH237596   0.363   1.862   1.734
 5346TIP3    H137597   0.351   1.923   1.662
 5346TIP3    H237598   0.300   1.889   1.800
 5347TIP3   OH237599   3.648   1.086   7.323
 5347TIP3    H137600   3.650   1.073   7.418
 5347TIP3    H237601   3.568   1.135   7.307
 5348TIP3   OH237602   3.186   1.056   7.503
 5348TIP3    H137603   3.178   1.001   7.581
 5348TIP3    H237604   3.264   1.109   7.520
 5349TIP3   OH237605   3.470   0.658   8.411
 5349TIP3    H137606   3.393   0.645   8.467
 5349TIP3    H237607   3.536   0.598   8.448
 5350TIP3   OH237608   1.127   2.224   0.126
 5350TIP3    H137609   1.068   2.283   0.172
 5350TIP3    H237610   1.080   2.200   0.046
 5351TIP3   OH237611   1.294   5.070   8.438
 5351TIP3    H137612   1.202   5.091   8.424
 5351TIP3    H237613   1.328   5.145   8.488
 5352TIP3   OH237614   3.872   1.211   0.811
 5352TIP3    H137615   3.821   1.132   0.790
 5352TIP3    H237616   3.963   1.181   0.813
 5353TIP3   OH237617   1.211   5.891   0.506
 5353TIP3    H137618   1.233   5.957   0.440
 5353TIP3    H237619   1.164   5.939   0.573
 5354TIP3   OH237620   4.230   0.051   1.713
 5354TIP3    H137621   4.319   0.069   1.741
 5354TIP3    H237622   4.184   0.024   1.793
 5355TIP3   OH237623   4.464   4.927   7.407
 5355TIP3    H137624   4.412   5.002   7.378
 5355TIP3    H237625   4.399   4.865   7.440
 5356TIP3   OH237626   5.179   5.227   7.444
 5356TIP3    H137627   5.188   5.264   7.532
 5356TIP3    H237628   5.110   5.161   7.453
 5357TIP3   OH237629   3.066   3.084   7.095
 5357TIP3    H137630   3.056   3.175   7.123
 5357TIP3    H237631   3.035   3.033   7.170
 5358TIP3   OH237632   4.045   2.763   7.893
 5358TIP3    H137633   4.085   2.824   7.955
 5358TIP3    H237634   4.118   2.735   7.837
 5359TIP3   OH237635   6.051   3.993   8.582
 5359TIP3    H137636   5.967   4.024   8.615
 5359TIP3    H237637   6.067   4.044   8.503
 5360TIP3   OH237638   4.068   2.206   1.148
 5360TIP3    H137639   4.153   2.250   1.144
 5360TIP3    H237640   4.037   2.205   1.058
 5361TIP3   OH237641   2.525   3.907   1.581
 5361TIP3    H137642   2.498   3.945   1.664
 5361TIP3    H237643   2.597   3.847   1.604
 5362TIP3   OH237644   2.579   4.993   7.305
 5362TIP3    H137645   2.639   4.984   7.379
 5362TIP3    H237646   2.622   5.056   7.246
 5363TIP3   OH237647   2.760   2.182   1.242
 5363TIP3    H137648   2.690   2.162   1.305
 5363TIP3    H237649   2.838   2.191   1.297
 5364TIP3   OH237650   2.472   3.895   7.730
 5364TIP3    H137651   2.557   3.895   7.775
 5364TIP3    H237652   2.408   3.881   7.800
 5365TIP3   OH237653   0.553   6.426   6.462
 5365TIP3    H137654   0.551   6.511   6.417
 5365TIP3    H237655   0.642   6.419   6.496
 5366TIP3   OH237656   0.431   4.590   1.267
 5366TIP3    H137657   0.507   4.533   1.270
 5366TIP3    H237658   0.405   4.600   1.359
 5367TIP3   OH237659   0.111   0.697   1.093
 5367TIP3    H137660   0.134   0.716   1.184
 5367TIP3    H237661   0.153   0.766   1.042
 5368TIP3   OH237662   2.894   2.039   7.190
 5368TIP3    H137663   2.814   2.064   7.236
 5368TIP3    H237664   2.947   1.996   7.257
 5369TIP3   OH237665   2.234   1.478   7.578
 5369TIP3    H137666   2.153   1.506   7.620
 5369TIP3    H237667   2.212   1.470   7.485
 5370TIP3   OH237668   6.604   6.216   8.390
 5370TIP3    H137669   6.660   6.238   8.316
 5370TIP3    H237670   6.539   6.287   8.393
 5371TIP3   OH237671   1.822   3.641   1.344
 5371TIP3    H137672   1.912   3.628   1.375
 5371TIP3    H237673   1.831   3.676   1.256
 5372TIP3   OH237674   4.057   1.015   0.848
 5372TIP3    H137675   4.069   0.946   0.913
 5372TIP3    H237676   4.122   0.996   0.781
 5373TIP3   OH237677   2.398   4.172   7.712
 5373TIP3    H137678   2.413   4.103   7.777
 5373TIP3    H237679   2.457   4.150   7.640
 5374TIP3   OH237680   5.736   4.730   0.401
 5374TIP3    H137681   5.778   4.669   0.340
 5374TIP3    H237682   5.663   4.767   0.350
 5375TIP3   OH237683   1.686   6.673   1.460
 5375TIP3    H137684   1.652   6.698   1.546
 5375TIP3    H237685   1.781   6.680   1.469
 5376TIP3   OH237686   6.136   2.011   1.068
 5376TIP3    H137687   6.212   1.959   1.043
 5376TIP3    H237688   6.096   2.037   0.985
 5377TIP3   OH237689   6.424   3.901   0.091
 5377TIP3    H137690   6.461   3.901   0.179
 5377TIP3    H237691   6.452   3.984   0.053
 5378TIP3   OH237692   2.186   1.891   1.617
 5378TIP3    H137693   2.204   1.970   1.669
 5378TIP3    H237694   2.094   1.899   1.592
 5379TIP3   OH237695   2.329   2.458   0.817
 5379TIP3    H137696   2.267   2.486   0.750
 5379TIP3    H237697   2.391   2.532   0.824
 5380TIP3   OH237698   0.749   6.450   6.898
 5380TIP3    H137699   0.758   6.457   6.802
 5380TIP3    H237700   0.832   6.412   6.927
 5381TIP3   OH237701   3.465   2.387   6.524
 5381TIP3    H137702   3.404   2.313   6.519
 5381TIP3    H237703   3.419   2.458   6.480
 5382TIP3   OH237704   5.441   6.606   8.247
 5382TIP3    H137705   5.429   6.614   8.153
 5382TIP3    H237706   5.479   6.518   8.259
 5383TIP3   OH237707   5.097   2.617   7.317
 5383TIP3    H137708   5.167   2.614   7.252
 5383TIP3    H237709   5.025   2.567   7.277
 5384TIP3   OH237710   3.672   5.012   1.230
 5384TIP3    H137711   3.727   4.935   1.217
 5384TIP3    H237712   3.716   5.063   1.298
 5385TIP3   OH237713   1.308   3.303   1.533
 5385TIP3    H137714   1.234   3.307   1.592
 5385TIP3    H237715   1.343   3.392   1.532
 5386TIP3   OH237716   6.590   2.923   1.179
 5386TIP3    H137717   6.594   2.829   1.197
 5386TIP3    H237718   6.659   2.960   1.235
 5387TIP3   OH237719   6.608   5.906   8.564
 5387TIP3    H137720   6.580   5.820   8.534
 5387TIP3    H237721   6.565   5.917   8.649
 5388TIP3   OH237722   2.422   1.020   7.527
 5388TIP3    H137723   2.378   0.935   7.535
 5388TIP3    H237724   2.367   1.080   7.578
 5389TIP3   OH237725   3.234   6.064   8.702
 5389TIP3    H137726   3.258   5.995   8.640
 5389TIP3    H237727   3.260   6.145   8.659
 5390TIP3   OH237728   0.948   4.083   6.987
 5390TIP3    H137729   0.967   4.176   6.974
 5390TIP3    H237730   1.005   4.057   7.059
 5391TIP3   OH237731   3.068   3.260   0.133
 5391TIP3    H137732   3.133   3.301   0.077
 5391TIP3    H237733   2.984   3.291   0.100
 5392TIP3   OH237734   5.508   4.843   1.989
 5392TIP3    H137735   5.481   4.899   1.916
 5392TIP3    H237736   5.513   4.755   1.952
 5393TIP3   OH237737   0.389   2.678   8.123
 5393TIP3    H137738   0.370   2.752   8.066
 5393TIP3    H237739   0.410   2.718   8.208
 5394TIP3   OH237740   5.734   4.579   1.032
 5394TIP3    H137741   5.784   4.660   1.037
 5394TIP3    H237742   5.756   4.532   1.112
 5395TIP3   OH237743   0.724   2.312   6.850
 5395TIP3    H137744   0.712   2.375   6.779
 5395TIP3    H237745   0.752   2.232   6.807
 5396TIP3   OH237746   0.613   2.798   7.945
 5396TIP3    H137747   0.522   2.824   7.956
 5396TIP3    H237748   0.619   2.713   7.990
 5397TIP3   OH237749   4.729   5.625   7.046
 5397TIP3    H137750   4.816   5.634   7.009
 5397TIP3    H237751   4.708   5.711   7.080
 5398TIP3   OH237752   0.847   2.895   8.225
 5398TIP3    H137753   0.833   2.971   8.169
 5398TIP3    H237754   0.831   2.926   8.314
 5399TIP3   OH237755   0.144   0.431   1.748
 5399TIP3    H137756   0.200   0.383   1.810
 5399TIP3    H237757   0.149   0.381   1.667
 5400TIP3   OH237758   6.318   3.835   0.986
 5400TIP3    H137759   6.296   3.805   1.074
 5400TIP3    H237760   6.317   3.755   0.933
 5401TIP3   OH237761   0.660   3.690   2.326
 5401TIP3    H137762   0.570   3.685   2.359
 5401TIP3    H237763   0.676   3.605   2.285
 5402TIP3   OH237764   2.706   3.611   7.775
 5402TIP3    H137765   2.722   3.704   7.786
 5402TIP3    H237766   2.725   3.595   7.682
 5403TIP3   OH237767   1.930   5.329   8.140
 5403TIP3    H137768   1.960   5.242   8.117
 5403TIP3    H237769   1.835   5.327   8.126
 5404TIP3   OH237770   4.055   4.797   0.869
 5404TIP3    H137771   4.100   4.873   0.905
 5404TIP3    H237772   4.029   4.824   0.781
 5405TIP3   OH237773   6.327   4.004   7.379
 5405TIP3    H137774   6.292   3.920   7.410
 5405TIP3    H237775   6.269   4.029   7.307
 5406TIP3   OH237776   2.299   4.457   6.486
 5406TIP3    H137777   2.387   4.479   6.515
 5406TIP3    H237778   2.312   4.421   6.398
 5407TIP3   OH237779   6.750   5.864   1.673
 5407TIP3    H137780   6.683   5.796   1.677
 5407TIP3    H237781   6.788   5.855   1.586
 5408TIP3   OH237782   4.556   5.312   7.572
 5408TIP3    H137783   4.591   5.326   7.484
 5408TIP3    H237784   4.628   5.337   7.630
 5409TIP3   OH237785   0.191   5.750   8.712
 5409TIP3    H137786   0.140   5.677   8.675
 5409TIP3    H237787   0.134   5.788   8.779
 5410TIP3   OH237788   3.029   3.471   8.601
 5410TIP3    H137789   2.950   3.419   8.615
 5410TIP3    H237790   3.025   3.539   8.669
 5411TIP3   OH237791   4.800   5.896   7.873
 5411TIP3    H137792   4.872   5.957   7.890
 5411TIP3    H237793   4.724   5.952   7.858
 5412TIP3   OH237794   1.406   1.319   8.790
 5412TIP3    H137795   1.368   1.239   8.754
 5412TIP3    H237796   1.491   1.327   8.747
 5413TIP3   OH237797   5.042   3.176   7.134
 5413TIP3    H137798   5.048   3.270   7.149
 5413TIP3    H237799   5.057   3.165   7.040
 5414TIP3   OH237800   2.874   2.092   6.419
 5414TIP3    H137801   2.865   2.187   6.411
 5414TIP3    H237802   2.948   2.080   6.479
 5415TIP3   OH237803   5.995   0.821   2.573
 5415TIP3    H137804   6.012   0.818   2.668
 5415TIP3    H237805   6.082   0.826   2.534
 5416TIP3   OH237806   4.877   5.496   1.583
 5416TIP3    H137807   4.971   5.505   1.569
 5416TIP3    H237808   4.847   5.584   1.606
 5417TIP3   OH237809   1.623   6.681   1.193
 5417TIP3    H137810   1.560   6.753   1.198
 5417TIP3    H237811   1.668   6.682   1.277
 5418TIP3   OH237812   2.551   0.509   0.063
 5418TIP3    H137813   2.605   0.560   0.123
 5418TIP3    H237814   2.590   0.422   0.064
 5419TIP3   OH237815   1.007   2.441   0.671
 5419TIP3    H137816   0.948   2.468   0.601
 5419TIP3    H237817   0.974   2.486   0.749
 5420TIP3   OH237818   5.320   1.790   2.482
 5420TIP3    H137819   5.274   1.745   2.553
 5420TIP3    H237820   5.259   1.858   2.454
 5421TIP3   OH237821   4.909   6.805   1.031
 5421TIP3    H137822   4.819   0.004   0.999
 5421TIP3    H237823   4.918   0.052   1.104
 5422TIP3   OH237824   0.247   5.350   6.436
 5422TIP3    H137825   0.273   5.272   6.484
 5422TIP3    H237826   0.151   5.349   6.440
 5423TIP3   OH237827   1.210   6.011   8.237
 5423TIP3    H137828   1.227   6.027   8.144
 5423TIP3    H237829   1.158   6.087   8.265
 5424TIP3   OH237830   0.198   4.436   1.380
 5424TIP3    H137831   0.120   4.398   1.420
 5424TIP3    H237832   0.240   4.485   1.451
 5425TIP3   OH237833   6.778   1.749   0.239
 5425TIP3    H137834   0.039   1.786   0.283
 5425TIP3    H237835   6.712   1.818   0.242
 5426TIP3   OH237836   2.603   5.392   6.739
 5426TIP3    H137837   2.683   5.341   6.724
 5426TIP3    H237838   2.533   5.328   6.744
 5427TIP3   OH237839   3.507   4.629   0.215
 5427TIP3    H137840   3.463   4.712   0.234
 5427TIP3    H237841   3.515   4.627   0.120
 5428TIP3   OH237842   0.583   2.335   7.081
 5428TIP3    H137843   0.670   2.344   7.042
 5428TIP3    H237844   0.540   2.419   7.064
 5429TIP3   OH237845   3.267   1.632   2.665
 5429TIP3    H137846   3.314   1.591   2.591
 5429TIP3    H237847   3.313   1.715   2.678
 5430TIP3   OH237848   5.508   4.240   1.028
 5430TIP3    H137849   5.501   4.311   1.091
 5430TIP3    H237850   5.423   4.195   1.032
 5431TIP3   OH237851   0.241   2.431   8.094
 5431TIP3    H137852   0.294   2.510   8.093
 5431TIP3    H237853   0.235   2.405   8.002
 5432TIP3   OH237854   5.495   5.558   1.270
 5432TIP3    H137855   5.517   5.545   1.178
 5432TIP3    H237856   5.553   5.499   1.318
 5433TIP3   OH237857   3.835   1.004   1.425
 5433TIP3    H137858   3.807   1.090   1.393
 5433TIP3    H237859   3.890   1.024   1.500
 5434TIP3   OH237860   6.642   0.431   8.572
 5434TIP3    H137861   6.698   0.357   8.593
 5434TIP3    H237862   6.553   0.397   8.576
 5435TIP3   OH237863   5.470   2.551   0.003
 5435TIP3    H137864   5.428   2.524   0.084
 5435TIP3    H237865   5.563   2.538   0.018
 5436TIP3   OH237866   2.107   3.734   0.308
 5436TIP3    H137867   2.082   3.823   0.285
 5436TIP3    H237868   2.168   3.744   0.381
 5437TIP3   OH237869   6.474   0.186   8.419
 5437TIP3    H137870   6.428   0.245   8.478
 5437TIP3    H237871   6.416   0.176   8.344
 5438TIP3   OH237872   0.202   5.066   1.233
 5438TIP3    H137873   0.286   5.107   1.252
 5438TIP3    H237874   0.218   4.972   1.245
 5439TIP3   OH237875   6.623   0.712   7.000
 5439TIP3    H137876   6.590   0.623   6.985
 5439TIP3    H237877   6.717   0.701   7.015
 5440TIP3   OH237878   6.663   2.266   1.658
 5440TIP3    H137879   6.742   2.235   1.702
 5440TIP3    H237880   6.591   2.239   1.715
 5441TIP3   OH237881   0.755   0.747   6.511
 5441TIP3    H137882   0.821   0.754   6.442
 5441TIP3    H237883   0.703   0.670   6.486
 5442TIP3   OH237884   2.037   5.296   0.626
 5442TIP3    H137885   2.065   5.372   0.677
 5442TIP3    H237886   1.944   5.313   0.609
 5443TIP3   OH237887   0.698   2.616   2.590
 5443TIP3    H137888   0.698   2.621   2.495
 5443TIP3    H237889   0.613   2.579   2.612
 5444TIP3   OH237890   0.031   6.391   0.636
 5444TIP3    H137891   0.024   6.459   0.702
 5444TIP3    H237892   0.124   6.388   0.613
 5445TIP3   OH237893   0.972   0.232   8.417
 5445TIP3    H137894   0.957   0.272   8.331
 5445TIP3    H237895   1.064   0.205   8.415
 5446TIP3   OH237896   5.422   2.003   2.145
 5446TIP3    H137897   5.334   2.026   2.178
 5446TIP3    H237898   5.442   2.072   2.082
 5447TIP3   OH237899   3.376   0.844   1.308
 5447TIP3    H137900   3.281   0.844   1.310
 5447TIP3    H237901   3.403   0.824   1.398
 5448TIP3   OH237902   1.923   1.782   1.876
 5448TIP3    H137903   1.916   1.712   1.941
 5448TIP3    H237904   1.867   1.754   1.804
 5449TIP3   OH237905   3.869   2.782   0.486
 5449TIP3    H137906   3.800   2.757   0.424
 5449TIP3    H237907   3.890   2.873   0.464
 5450TIP3   OH237908   2.822   2.609   7.652
 5450TIP3    H137909   2.855   2.623   7.563
 5450TIP3    H237910   2.848   2.688   7.700
 5451TIP3   OH237911   3.120   5.648   8.242
 5451TIP3    H137912   3.101   5.598   8.321
 5451TIP3    H237913   3.212   5.674   8.253
 5452TIP3   OH237914   6.504   4.220   1.685
 5452TIP3    H137915   6.472   4.131   1.669
 5452TIP3    H237916   6.452   4.275   1.627
 5453TIP3   OH237917   5.753   5.607   7.088
 5453TIP3    H137918   5.709   5.540   7.035
 5453TIP3    H237919   5.782   5.673   7.025
 5454TIP3   OH237920   5.112   3.485   8.055
 5454TIP3    H137921   5.063   3.519   8.130
 5454TIP3    H237922   5.106   3.390   8.065
 5455TIP3   OH237923   6.093   1.116   0.555
 5455TIP3    H137924   6.164   1.169   0.592
 5455TIP3    H237925   6.130   1.080   0.475
 5456TIP3   OH237926   1.716   5.926   7.604
 5456TIP3    H137927   1.738   5.834   7.619
 5456TIP3    H237928   1.749   5.944   7.516
 5457TIP3   OH237929   4.295   6.180   1.707
 5457TIP3    H137930   4.215   6.178   1.759
 5457TIP3    H237931   4.361   6.139   1.764
 5458TIP3   OH237932   2.362   2.744   1.697
 5458TIP3    H137933   2.386   2.666   1.746
 5458TIP3    H237934   2.384   2.723   1.606
 5459TIP3   OH237935   0.844   0.517   0.550
 5459TIP3    H137936   0.855   0.429   0.586
 5459TIP3    H237937   0.927   0.536   0.507
 5460TIP3   OH237938   2.507   3.103   8.789
 5460TIP3    H137939   2.441   3.146   0.052
 5460TIP3    H237940   2.518   3.162   8.714
 5461TIP3   OH237941   6.314   3.838   8.273
 5461TIP3    H137942   6.310   3.933   8.274
 5461TIP3    H237943   6.293   3.814   8.183
 5462TIP3   OH237944   6.261   3.534   1.867
 5462TIP3    H137945   6.286   3.453   1.911
 5462TIP3    H237946   6.171   3.550   1.896
 5463TIP3   OH237947   1.057   5.000   7.502
 5463TIP3    H137948   1.129   4.953   7.459
 5463TIP3    H237949   0.998   4.930   7.531
 5464TIP3   OH237950   2.496   3.941   7.156
 5464TIP3    H137951   2.491   4.008   7.088
 5464TIP3    H237952   2.417   3.889   7.144
 5465TIP3   OH237953   0.625   3.303   1.623
 5465TIP3    H137954   0.588   3.295   1.535
 5465TIP3    H237955   0.587   3.384   1.657
 5466TIP3   OH237956   4.309   4.751   0.024
 5466TIP3    H137957   4.253   4.764   0.100
 5466TIP3    H237958   4.251   4.716   8.747
 5467TIP3   OH237959   2.853   4.056   7.989
 5467TIP3    H137960   2.851   4.122   8.059
 5467TIP3    H237961   2.913   3.989   8.021
 5468TIP3   OH237962   2.516   3.161   7.546
 5468TIP3    H137963   2.524   3.133   7.455
 5468TIP3    H237964   2.570   3.240   7.552
 5469TIP3   OH237965   0.295   2.873   7.893
 5469TIP3    H137966   0.295   2.894   7.799
 5469TIP3    H237967   0.214   2.824   7.906
 5470TIP3   OH237968   5.624   4.943   7.173
 5470TIP3    H137969   5.550   4.919   7.229
 5470TIP3    H237970   5.697   4.954   7.234
 5471TIP3   OH237971   2.238   1.997   8.559
 5471TIP3    H137972   2.171   2.064   8.566
 5471TIP3    H237973   2.244   1.979   8.465
 5472TIP3   OH237974   4.174   2.976   6.470
 5472TIP3    H137975   4.114   2.918   6.423
 5472TIP3    H237976   4.160   3.062   6.432
 5473TIP3   OH237977   2.667   4.605   7.494
 5473TIP3    H137978   2.735   4.578   7.556
 5473TIP3    H237979   2.682   4.549   7.417
 5474TIP3   OH237980   5.774   1.845   2.663
 5474TIP3    H137981   5.738   1.934   2.667
 5474TIP3    H237982   5.719   1.794   2.722
 5475TIP3   OH237983   6.163   6.731   7.785
 5475TIP3    H137984   6.141   6.655   7.838
 5475TIP3    H237985   6.133   6.806   7.836
 5476TIP3   OH237986   2.463   3.163   8.314
 5476TIP3    H137987   2.466   3.231   8.247
 5476TIP3    H237988   2.505   3.087   8.274
 5477TIP3   OH237989   1.733   1.505   7.797
 5477TIP3    H137990   1.685   1.476   7.874
 5477TIP3    H237991   1.669   1.504   7.726
 5478TIP3   OH237992   6.323   0.117   8.170
 5478TIP3    H137993   6.327   0.162   8.086
 5478TIP3    H237994   6.230   0.118   8.194
 5479TIP3   OH237995   4.806   6.196   7.666
 5479TIP3    H137996   4.889   6.154   7.642
 5479TIP3    H237997   4.765   6.218   7.583
 5480TIP3   OH237998   3.151   6.301   2.574
 5480TIP3    H137999   3.101   6.345   2.506
 5480TIP3    H238000   3.217   6.251   2.527
 5481TIP3   OH238001   3.157   0.303   7.237
 5481TIP3    H138002   3.124   0.359   7.167
 5481TIP3    H238003   3.095   0.315   7.309
 5482TIP3   OH238004   3.081   1.332   7.094
 5482TIP3    H138005   3.173   1.356   7.093
 5482TIP3    H238006   3.051   1.347   7.004
 5483TIP3   OH238007   3.215   2.826   0.922
 5483TIP3    H138008   3.149   2.796   0.984
 5483TIP3    H238009   3.196   2.919   0.910
 5484TIP3   OH238010   4.221   3.552   7.927
 5484TIP3    H138011   4.127   3.547   7.946
 5484TIP3    H238012   4.226   3.586   7.838
 5485TIP3   OH238013   5.716   3.236   1.106
 5485TIP3    H138014   5.767   3.155   1.110
 5485TIP3    H238015   5.755   3.292   1.173
 5486TIP3   OH238016   6.217   5.078   6.757
 5486TIP3    H138017   6.178   5.050   6.674
 5486TIP3    H238018   6.242   4.997   6.801
 5487TIP3   OH238019   6.094   5.669   2.416
 5487TIP3    H138020   6.087   5.699   2.507
 5487TIP3    H238021   6.149   5.735   2.373
 5488TIP3   OH238022   5.772   3.476   7.049
 5488TIP3    H138023   5.701   3.413   7.048
 5488TIP3    H238024   5.807   3.472   7.138
 5489TIP3   OH238025   0.880   1.867   0.247
 5489TIP3    H138026   0.974   1.874   0.260
 5489TIP3    H238027   0.865   1.773   0.235
 5490TIP3   OH238028   3.372   1.249   7.604
 5490TIP3    H138029   3.340   1.253   7.694
 5490TIP3    H238030   3.400   1.339   7.584
 5491TIP3   OH238031   2.096   0.463   7.482
 5491TIP3    H138032   2.047   0.382   7.471
 5491TIP3    H238033   2.061   0.522   7.416
 5492TIP3   OH238034   3.095   4.484   7.570
 5492TIP3    H138035   3.048   4.567   7.580
 5492TIP3    H238036   3.187   4.508   7.569
 5493TIP3   OH238037   6.314   5.345   7.626
 5493TIP3    H138038   6.230   5.349   7.672
 5493TIP3    H238039   6.326   5.433   7.591
 5494TIP3   OH238040   0.934   0.997   7.389
 5494TIP3    H138041   0.991   1.058   7.342
 5494TIP3    H238042   0.972   0.992   7.477
 5495TIP3   OH238043   0.262   2.562   0.729
 5495TIP3    H138044   0.180   2.554   0.777
 5495TIP3    H238045   0.258   2.493   0.662
 5496TIP3   OH238046   2.823   5.288   7.329
 5496TIP3    H138047   2.895   5.297   7.391
 5496TIP3    H238048   2.747   5.269   7.384
 5497TIP3   OH238049   2.347   2.124   0.461
 5497TIP3    H138050   2.378   2.133   0.551
 5497TIP3    H238051   2.287   2.198   0.450
 5498TIP3   OH238052   5.884   0.589   2.097
 5498TIP3    H138053   5.818   0.658   2.098
 5498TIP3    H238054   5.954   0.622   2.153
 5499TIP3   OH238055   1.467   2.798   0.533
 5499TIP3    H138056   1.521   2.765   0.605
 5499TIP3    H238057   1.377   2.793   0.567
 5500TIP3   OH238058   1.056   4.908   0.527
 5500TIP3    H138059   1.102   4.961   0.592
 5500TIP3    H238060   1.028   4.969   0.460
 5501TIP3   OH238061   0.778   0.025   0.172
 5501TIP3    H138062   0.843   0.030   0.101
 5501TIP3    H238063   0.768   0.116   0.201
 5502TIP3   OH238064   5.175   4.653   7.032
 5502TIP3    H138065   5.122   4.574   7.038
 5502TIP3    H238066   5.256   4.624   6.990
 5503TIP3   OH238067   6.727   1.062   1.938
 5503TIP3    H138068   6.733   1.149   1.977
 5503TIP3    H238069   6.775   1.069   1.856
 5504TIP3   OH238070   6.744   3.167   1.994
 5504TIP3    H138071   6.688   3.222   2.049
 5504TIP3    H238072   6.729   3.199   1.905
 5505TIP3   OH238073   4.120   1.708   1.320
 5505TIP3    H138074   4.103   1.659   1.240
 5505TIP3    H238075   4.040   1.759   1.334
 5506TIP3   OH238076   2.816   5.542   1.373
 5506TIP3    H138077   2.865   5.523   1.453
 5506TIP3    H238078   2.860   5.490   1.305
 5507TIP3   OH238079   5.832   6.118   6.946
 5507TIP3    H138080   5.885   6.154   6.875
 5507TIP3    H238081   5.746   6.102   6.906
 5508TIP3   OH238082   5.002   4.492   8.052
 5508TIP3    H138083   5.020   4.499   8.146
 5508TIP3    H238084   4.993   4.583   8.023
 5509TIP3   OH238085   1.657   1.030   8.662
 5509TIP3    H138086   1.727   0.965   8.672
 5509TIP3    H238087   1.605   0.998   8.588
 5510TIP3   OH238088   0.092   6.234   8.382
 5510TIP3    H138089   0.108   6.209   8.291
 5510TIP3    H238090   0.166   6.291   8.405
 5511TIP3   OH238091   6.131   3.424   8.643
 5511TIP3    H138092   6.046   3.461   8.665
 5511TIP3    H238093   6.191   3.499   8.642
 5512TIP3   OH238094   3.105   6.408   1.189
 5512TIP3    H138095   3.097   6.374   1.101
 5512TIP3    H238096   3.100   6.331   1.246
 5513TIP3   OH238097   2.987   4.874   0.851
 5513TIP3    H138098   3.036   4.793   0.833
 5513TIP3    H238099   2.896   4.847   0.849
 5514TIP3   OH238100   4.552   0.216   7.924
 5514TIP3    H138101   4.565   0.173   8.008
 5514TIP3    H238102   4.640   0.227   7.888
 5515TIP3   OH238103   2.484   6.317   0.514
 5515TIP3    H138104   2.395   6.306   0.545
 5515TIP3    H238105   2.476   6.332   0.420
 5516TIP3   OH238106   3.049   3.963   7.083
 5516TIP3    H138107   3.075   3.959   7.175
 5516TIP3    H238108   2.986   4.035   7.079
 5517TIP3   OH238109   6.224   1.696   0.867
 5517TIP3    H138110   6.190   1.642   0.938
 5517TIP3    H238111   6.263   1.772   0.911
 5518TIP3   OH238112   2.523   3.136   1.845
 5518TIP3    H138113   2.528   3.178   1.930
 5518TIP3    H238114   2.563   3.050   1.857
 5519TIP3   OH238115   1.863   6.688   8.055
 5519TIP3    H138116   1.841   6.760   8.114
 5519TIP3    H238117   1.781   6.644   8.039
 5520TIP3   OH238118   4.859   4.395   0.698
 5520TIP3    H138119   4.928   4.408   0.763
 5520TIP3    H238120   4.829   4.305   0.713
 5521TIP3   OH238121   5.819   0.895   7.549
 5521TIP3    H138122   5.869   0.966   7.590
 5521TIP3    H238123   5.861   0.881   7.465
 5522TIP3   OH238124   3.980   0.857   0.345
 5522TIP3    H138125   3.960   0.776   0.298
 5522TIP3    H238126   4.066   0.883   0.311
 5523TIP3   OH238127   6.583   3.936   2.863
 5523TIP3    H138128   6.611   3.900   2.947
 5523TIP3    H238129   6.641   3.895   2.799
 5524TIP3   OH238130   0.371   4.151   0.280
 5524TIP3    H138131   0.386   4.068   0.324
 5524TIP3    H238132   0.446   4.162   0.221
 5525TIP3   OH238133   2.945   2.145   0.006
 5525TIP3    H138134   2.970   2.191   0.086
 5525TIP3    H238135   3.020   2.154   8.740
 5526TIP3   OH238136   5.646   0.503   8.019
 5526TIP3    H138137   5.702   0.428   7.998
 5526TIP3    H238138   5.601   0.523   7.937
 5527TIP3   OH238139   5.616   5.398   6.986
 5527TIP3    H138140   5.546   5.382   7.050
 5527TIP3    H238141   5.675   5.323   6.996
 5528TIP3   OH238142   5.230   2.921   0.113
 5528TIP3    H138143   5.218   2.985   0.043
 5528TIP3    H238144   5.147   2.923   0.162
 5529TIP3   OH238145   2.878   0.896   6.669
 5529TIP3    H138146   2.888   0.951   6.591
 5529TIP3    H238147   2.830   0.819   6.638
 5530TIP3   OH238148   3.524   6.551   1.416
 5530TIP3    H138149   3.508   6.541   1.510
 5530TIP3    H238150   3.618   6.541   1.406
 5531TIP3   OH238151   4.487   0.659   8.367
 5531TIP3    H138152   4.561   0.625   8.416
 5531TIP3    H238153   4.473   0.747   8.403
 5532TIP3   OH238154   1.259   0.348   7.437
 5532TIP3    H138155   1.317   0.271   7.439
 5532TIP3    H238156   1.288   0.402   7.510
 5533TIP3   OH238157   6.135   2.340   6.597
 5533TIP3    H138158   6.220   2.365   6.561
 5533TIP3    H238159   6.090   2.423   6.613
 5534TIP3   OH238160   3.292   5.178   1.156
 5534TIP3    H138161   3.233   5.247   1.188
 5534TIP3    H238162   3.252   5.096   1.187
 5535TIP3   OH238163   5.814   6.493   8.197
 5535TIP3    H138164   5.887   6.524   8.143
 5535TIP3    H238165   5.738   6.496   8.139
 5536TIP3   OH238166   4.284   3.869   7.331
 5536TIP3    H138167   4.194   3.899   7.318
 5536TIP3    H238168   4.334   3.910   7.261
 5537TIP3   OH238169   5.428   2.854   1.608
 5537TIP3    H138170   5.518   2.886   1.616
 5537TIP3    H238171   5.407   2.820   1.695
 5538TIP3   OH238172   1.470   3.404   8.183
 5538TIP3    H138173   1.474   3.313   8.212
 5538TIP3    H238174   1.515   3.453   8.252
 5539TIP3   OH238175   3.334   4.219   6.623
 5539TIP3    H138176   3.304   4.283   6.687
 5539TIP3    H238177   3.266   4.151   6.623
 5540TIP3   OH238178   0.648   3.580   0.050
 5540TIP3    H138179   0.731   3.626   0.043
 5540TIP3    H238180   0.586   3.648   0.078
 5541TIP3   OH238181   3.040   4.731   0.418
 5541TIP3    H138182   3.018   4.801   0.356
 5541TIP3    H238183   3.118   4.762   0.462
 5542TIP3   OH238184   5.757   4.478   8.525
 5542TIP3    H138185   5.798   4.409   8.473
 5542TIP3    H238186   5.666   4.481   8.493
 5543TIP3   OH238187   2.790   3.205   2.588
 5543TIP3    H138188   2.837   3.239   2.512
 5543TIP3    H238189   2.859   3.176   2.648
 5544TIP3   OH238190   3.112   2.675   1.919
 5544TIP3    H138191   3.087   2.616   1.991
 5544TIP3    H238192   3.189   2.633   1.880
 5545TIP3   OH238193   0.807   2.787   0.239
 5545TIP3    H138194   0.790   2.861   0.181
 5545TIP3    H238195   0.902   2.786   0.250
 5546TIP3   OH238196   4.434   6.730   0.381
 5546TIP3    H138197   4.419   6.778   0.299
 5546TIP3    H238198   4.450   6.640   0.353
 5547TIP3   OH238199   6.502   0.939   0.244
 5547TIP3    H138200   6.508   0.843   0.243
 5547TIP3    H238201   6.434   0.959   0.180
 5548TIP3   OH238202   5.603   2.565   2.378
 5548TIP3    H138203   5.538   2.612   2.325
 5548TIP3    H238204   5.686   2.607   2.356
 5549TIP3   OH238205   5.368   6.575   7.427
 5549TIP3    H138206   5.287   6.616   7.456
 5549TIP3    H238207   5.382   6.610   7.339
 5550TIP3   OH238208   2.447   0.640   2.364
 5550TIP3    H138209   2.465   0.556   2.406
 5550TIP3    H238210   2.352   0.641   2.353
 5551TIP3   OH238211   4.954   5.294   1.020
 5551TIP3    H138212   4.906   5.212   1.031
 5551TIP3    H238213   4.947   5.313   0.926
 5552TIP3   OH238214   2.974   4.662   1.665
 5552TIP3    H138215   2.928   4.745   1.677
 5552TIP3    H238216   2.915   4.610   1.610
 5553TIP3   OH238217   6.114   1.513   1.054
 5553TIP3    H138218   6.167   1.448   1.100
 5553TIP3    H238219   6.078   1.569   1.123
 5554TIP3   OH238220   0.140   0.002   1.164
 5554TIP3    H138221   0.070   6.759   1.195
 5554TIP3    H238222   0.113   0.027   1.076
 5555TIP3   OH238223   2.324   6.091   7.469
 5555TIP3    H138224   2.413   6.127   7.466
 5555TIP3    H238225   2.314   6.043   7.387
 5556TIP3   OH238226   2.634   3.848   0.415
 5556TIP3    H138227   2.662   3.805   0.334
 5556TIP3    H238228   2.707   3.905   0.438
 5557TIP3   OH238229   0.481   3.231   0.730
 5557TIP3    H138230   0.552   3.257   0.671
 5557TIP3    H238231   0.470   3.306   0.788
 5558TIP3   OH238232   3.211   0.011   8.039
 5558TIP3    H138233   3.196   0.015   7.945
 5558TIP3    H238234   3.126   6.803   8.076
 5559TIP3   OH238235   3.432   0.992   8.673
 5559TIP3    H138236   3.482   0.965   8.595
 5559TIP3    H238237   3.347   0.949   8.663
 5560TIP3   OH238238   0.517   0.712   7.536
 5560TIP3    H138239   0.593   0.751   7.493
 5560TIP3    H238240   0.511   0.624   7.499
 5561TIP3   OH238241   1.188   2.337   7.228
 5561TIP3    H138242   1.237   2.331   7.310
 5561TIP3    H238243   1.159   2.248   7.210
 5562TIP3   OH238244   6.793   0.918   8.669
 5562TIP3    H138245   6.799   1.012   8.658
 5562TIP3    H238246   0.024   0.881   8.594
 5563TIP3   OH238247   4.268   5.942   0.496
 5563TIP3    H138248   4.356   5.980   0.500
 5563TIP3    H238249   4.282   5.848   0.500
 5564TIP3   OH238250   3.186   6.439   8.574
 5564TIP3    H138251   3.251   6.371   8.555
 5564TIP3    H238252   3.121   6.396   8.629
 5565TIP3   OH238253   5.475   5.134   2.672
 5565TIP3    H138254   5.509   5.198   2.735
 5565TIP3    H238255   5.550   5.111   2.618
 5566TIP3   OH238256   3.973   0.911   7.639
 5566TIP3    H138257   3.966   1.001   7.606
 5566TIP3    H238258   3.959   0.856   7.562
 5567TIP3   OH238259   2.022   5.517   2.270
 5567TIP3    H138260   2.036   5.604   2.308
 5567TIP3    H238261   2.009   5.533   2.177
 5568TIP3   OH238262   2.656   6.675   6.524
 5568TIP3    H138263   2.690   6.590   6.498
 5568TIP3    H238264   2.578   6.687   6.470
 5569TIP3   OH238265   3.520   2.489   0.949
 5569TIP3    H138266   3.505   2.580   0.975
 5569TIP3    H238267   3.572   2.496   0.869
 5570TIP3   OH238268   6.309   3.067   2.143
 5570TIP3    H138269   6.277   2.998   2.086
 5570TIP3    H238270   6.319   3.143   2.086
 5571TIP3   OH238271   5.768   5.727   0.323
 5571TIP3    H138272   5.739   5.798   0.381
 5571TIP3    H238273   5.864   5.730   0.329
 5572TIP3   OH238274   3.334   5.980   8.013
 5572TIP3    H138275   3.413   5.966   8.065
 5572TIP3    H238276   3.337   5.912   7.946
 5573TIP3   OH238277   4.977   5.595   1.034
 5573TIP3    H138278   4.929   5.527   1.082
 5573TIP3    H238279   5.058   5.552   1.008
 5574TIP3   OH238280   6.663   3.586   2.276
 5574TIP3    H138281   6.584   3.574   2.224
 5574TIP3    H238282   6.637   3.563   2.365
 5575TIP3   OH238283   5.291   3.177   0.463
 5575TIP3    H138284   5.353   3.114   0.499
 5575TIP3    H238285   5.237   3.203   0.538
 5576TIP3   OH238286   0.300   3.039   1.364
 5576TIP3    H138287   0.304   3.118   1.311
 5576TIP3    H238288   0.274   2.970   1.302
 5577TIP3   OH238289   2.054   0.297   0.669
 5577TIP3    H138290   2.137   0.279   0.625
 5577TIP3    H238291   2.016   0.211   0.686
 5578TIP3   OH238292   0.678   1.939   0.021
 5578TIP3    H138293   0.676   2.014   8.753
 5578TIP3    H238294   0.758   1.950   0.072
 5579TIP3   OH238295   6.497   4.462   7.123
 5579TIP3    H138296   6.574   4.417   7.088
 5579TIP3    H238297   6.485   4.538   7.066
 5580TIP3   OH238298   1.838   1.974   1.234
 5580TIP3    H138299   1.923   1.936   1.258
 5580TIP3    H238300   1.861   2.050   1.181
 5581TIP3   OH238301   2.446   3.143   0.390
 5581TIP3    H138302   2.468   3.173   0.479
 5581TIP3    H238303   2.369   3.088   0.402
 5582TIP3   OH238304   3.323   4.513   0.409
 5582TIP3    H138305   3.389   4.552   0.351
 5582TIP3    H238306   3.373   4.480   0.484
 5583TIP3   OH238307   2.094   4.016   7.262
 5583TIP3    H138308   2.180   4.016   7.222
 5583TIP3    H238309   2.052   3.936   7.229
 5584TIP3   OH238310   1.698   1.635   8.078
 5584TIP3    H138311   1.750   1.686   8.016
 5584TIP3    H238312   1.763   1.584   8.127
 5585TIP3   OH238313   2.685   0.152   0.823
 5585TIP3    H138314   2.751   0.203   0.870
 5585TIP3    H238315   2.709   0.061   0.839
 5586TIP3   OH238316   0.186   2.602   7.251
 5586TIP3    H138317   0.244   2.618   7.176
 5586TIP3    H238318   0.237   2.544   7.308
 5587TIP3   OH238319   6.628   0.151   8.000
 5587TIP3    H138320   6.566   0.192   7.940
 5587TIP3    H238321   6.640   0.215   8.070
 5588TIP3   OH238322   0.995   5.052   0.305
 5588TIP3    H138323   0.979   4.991   0.233
 5588TIP3    H238324   1.090   5.064   0.307
 5589TIP3   OH238325   1.920   3.594   1.961
 5589TIP3    H138326   1.870   3.651   1.903
 5589TIP3    H238327   2.003   3.580   1.916
 5590TIP3   OH238328   4.834   0.514   0.671
 5590TIP3    H138329   4.929   0.501   0.669
 5590TIP3    H238330   4.799   0.430   0.700
 5591TIP3   OH238331   5.489   5.601   0.927
 5591TIP3    H138332   5.501   5.678   0.872
 5591TIP3    H238333   5.528   5.529   0.877
 5592TIP3   OH238334   1.142   5.752   0.785
 5592TIP3    H138335   1.225   5.747   0.737
 5592TIP3    H238336   1.078   5.716   0.724
 5593TIP3   OH238337   5.526   0.207   0.184
 5593TIP3    H138338   5.606   0.208   0.132
 5593TIP3    H238339   5.557   0.214   0.275
 5594TIP3   OH238340   0.641   4.084   8.129
 5594TIP3    H138341   0.674   4.023   8.063
 5594TIP3    H238342   0.719   4.109   8.179
 5595TIP3   OH238343   1.513   0.587   1.955
 5595TIP3    H138344   1.510   0.659   2.018
 5595TIP3    H238345   1.605   0.560   1.953
 5596TIP3   OH238346   4.698   3.416   1.492
 5596TIP3    H138347   4.724   3.506   1.470
 5596TIP3    H238348   4.620   3.399   1.439
 5597TIP3   OH238349   5.026   2.946   8.254
 5597TIP3    H138350   4.984   2.954   8.168
 5597TIP3    H238351   5.115   2.980   8.240
 5598TIP3   OH238352   6.653   3.366   0.315
 5598TIP3    H138353   6.610   3.451   0.305
 5598TIP3    H238354   6.704   3.375   0.396
 5599TIP3   OH238355   6.778   5.937   7.772
 5599TIP3    H138356   6.748   6.009   7.827
 5599TIP3    H238357   0.019   5.884   7.830
 5600TIP3   OH238358   4.547   4.944   0.921
 5600TIP3    H138359   4.608   4.870   0.916
 5600TIP3    H238360   4.557   4.989   0.837
 5601TIP3   OH238361   0.672   3.039   8.654
 5601TIP3    H138362   0.637   3.100   8.589
 5601TIP3    H238363   0.724   2.977   8.604
 5602TIP3   OH238364   2.931   1.305   6.581
 5602TIP3    H138365   2.920   1.225   6.529
 5602TIP3    H238366   2.961   1.370   6.518
 5603TIP3   OH238367   3.837   1.243   2.036
 5603TIP3    H138368   3.820   1.337   2.030
 5603TIP3    H238369   3.770   1.211   2.098
 5604TIP3   OH238370   6.551   2.080   1.011
 5604TIP3    H138371   6.602   2.113   1.086
 5604TIP3    H238372   6.616   2.072   0.941
 5605TIP3   OH238373   2.833   3.010   1.215
 5605TIP3    H138374   2.925   3.002   1.239
 5605TIP3    H238375   2.787   3.013   1.298
 5606TIP3   OH238376   5.652   5.012   0.177
 5606TIP3    H138377   5.658   4.992   0.084
 5606TIP3    H238378   5.557   5.020   0.193
 5607TIP3   OH238379   4.286   3.147   8.477
 5607TIP3    H138380   4.352   3.177   8.414
 5607TIP3    H238381   4.257   3.063   8.442
 5608TIP3   OH238382   5.556   3.330   0.116
 5608TIP3    H138383   5.463   3.323   0.136
 5608TIP3    H238384   5.591   3.242   0.131
 5609TIP3   OH238385   3.530   2.949   6.715
 5609TIP3    H138386   3.616   2.987   6.696
 5609TIP3    H238387   3.474   2.981   6.644
 5610TIP3   OH238388   6.328   4.367   2.509
 5610TIP3    H138389   6.332   4.274   2.487
 5610TIP3    H238390   6.377   4.375   2.590
 5611TIP3   OH238391   5.295   4.680   1.881
 5611TIP3    H138392   5.264   4.770   1.892
 5611TIP3    H238393   5.293   4.644   1.970
 5612TIP3   OH238394   1.694   5.175   0.952
 5612TIP3    H138395   1.690   5.114   1.025
 5612TIP3    H238396   1.782   5.213   0.957
 5613TIP3   OH238397   3.708   1.145   0.085
 5613TIP3    H138398   3.629   1.168   0.035
 5613TIP3    H238399   3.675   1.098   0.161
 5614TIP3   OH238400   3.098   2.612   2.388
 5614TIP3    H138401   3.059   2.552   2.452
 5614TIP3    H238402   3.192   2.609   2.407
 5615TIP3   OH238403   4.398   3.911   6.386
 5615TIP3    H138404   4.345   3.832   6.377
 5615TIP3    H238405   4.484   3.879   6.414
 5616TIP3   OH238406   1.206   0.484   6.785
 5616TIP3    H138407   1.170   0.480   6.873
 5616TIP3    H238408   1.160   0.416   6.737
 5617TIP3   OH238409   2.430   1.927   6.773
 5617TIP3    H138410   2.447   1.990   6.844
 5617TIP3    H238411   2.495   1.949   6.706
 5618TIP3   OH238412   2.147   1.189   8.716
 5618TIP3    H138413   2.170   1.152   8.631
 5618TIP3    H238414   2.051   1.187   8.718
 5619TIP3   OH238415   6.426   3.736   1.810
 5619TIP3    H138416   6.364   3.666   1.829
 5619TIP3    H238417   6.475   3.749   1.891
 5620TIP3   OH238418   3.534   4.323   2.415
 5620TIP3    H138419   3.604   4.306   2.353
 5620TIP3    H238420   3.502   4.237   2.440
 5621TIP3   OH238421   3.575   1.064   7.913
 5621TIP3    H138422   3.514   1.062   7.987
 5621TIP3    H238423   3.636   1.135   7.935
 5622TIP3   OH238424   3.489   5.072   0.522
 5622TIP3    H138425   3.561   5.127   0.492
 5622TIP3    H238426   3.472   5.101   0.611
 5623TIP3   OH238427   5.349   6.395   2.193
 5623TIP3    H138428   5.276   6.390   2.131
 5623TIP3    H238429   5.325   6.467   2.252
 5624TIP3   OH238430   4.281   0.181   7.350
 5624TIP3    H138431   4.231   0.108   7.386
 5624TIP3    H238432   4.332   0.214   7.423
 5625TIP3   OH238433   5.603   6.488   0.001
 5625TIP3    H138434   5.579   6.538   0.079
 5625TIP3    H238435   5.633   6.404   0.034
 5626TIP3   OH238436   1.539   4.361   1.016
 5626TIP3    H138437   1.588   4.357   1.099
 5626TIP3    H238438   1.594   4.414   0.959
 5627TIP3   OH238439   2.745   4.588   8.546
 5627TIP3    H138440   2.802   4.536   8.602
 5627TIP3    H238441   2.658   4.576   8.583
 5628TIP3   OH238442   4.426   5.201   7.298
 5628TIP3    H138443   4.419   5.169   7.208
 5628TIP3    H238444   4.508   5.249   7.300
 5629TIP3   OH238445   2.282   2.772   8.390
 5629TIP3    H138446   2.214   2.708   8.411
 5629TIP3    H238447   2.277   2.781   8.294
 5630TIP3   OH238448   1.580   0.048   8.073
 5630TIP3    H138449   1.558   0.006   7.990
 5630TIP3    H238450   1.523   0.125   8.077
 5631TIP3   OH238451   3.203   5.658   0.419
 5631TIP3    H138452   3.114   5.687   0.436
 5631TIP3    H238453   3.211   5.656   0.324
 5632TIP3   OH238454   0.797   6.095   1.812
 5632TIP3    H138455   0.851   6.077   1.735
 5632TIP3    H238456   0.848   6.157   1.863
 5633TIP3   OH238457   4.049   1.610   0.276
 5633TIP3    H138458   4.037   1.700   0.247
 5633TIP3    H238459   4.026   1.611   0.369
 5634TIP3   OH238460   5.330   5.800   7.508
 5634TIP3    H138461   5.420   5.816   7.479
 5634TIP3    H238462   5.316   5.707   7.490
 5635TIP3   OH238463   1.003   6.791   6.503
 5635TIP3    H138464   1.066   0.045   6.480
 5635TIP3    H238465   0.921   0.023   6.516
 5636TIP3   OH238466   3.873   5.411   0.236
 5636TIP3    H138467   3.837   5.349   0.299
 5636TIP3    H238468   3.933   5.359   0.182
 5637TIP3   OH238469   4.991   1.472   8.223
 5637TIP3    H138470   4.982   1.391   8.172
 5637TIP3    H238471   4.913   1.473   8.279
 5638TIP3   OH238472   1.710   4.029   8.699
 5638TIP3    H138473   1.794   4.071   8.680
 5638TIP3    H238474   1.723   3.984   8.782
 5639TIP3   OH238475   0.575   3.307   7.220
 5639TIP3    H138476   0.560   3.286   7.127
 5639TIP3    H238477   0.641   3.376   7.218
 5640TIP3   OH238478   6.169   3.282   0.815
 5640TIP3    H138479   6.229   3.225   0.865
 5640TIP3    H238480   6.082   3.250   0.838
 5641TIP3   OH238481   3.354   0.799   0.523
 5641TIP3    H138482   3.317   0.727   0.472
 5641TIP3    H238483   3.280   0.831   0.575
 5642TIP3   OH238484   1.311   6.255   6.872
 5642TIP3    H138485   1.354   6.247   6.957
 5642TIP3    H238486   1.382   6.256   6.809
 5643TIP3   OH238487   0.009   1.305   2.057
 5643TIP3    H138488   6.763   1.336   2.124
 5643TIP3    H238489   0.093   1.346   2.080
 5644TIP3   OH238490   3.423   5.507   0.010
 5644TIP3    H138491   3.367   5.576   8.767
 5644TIP3    H238492   3.490   5.495   8.734
 5645TIP3   OH238493   0.485   2.062   7.716
 5645TIP3    H138494   0.427   2.101   7.651
 5645TIP3    H238495   0.539   2.134   7.747
 5646TIP3   OH238496   1.105   2.635   7.249
 5646TIP3    H138497   1.069   2.605   7.166
 5646TIP3    H238498   1.198   2.652   7.230
 5647TIP3   OH238499   2.497   4.447   0.409
 5647TIP3    H138500   2.591   4.453   0.391
 5647TIP3    H238501   2.455   4.475   0.327
 5648TIP3   OH238502   1.758   1.223   7.596
 5648TIP3    H138503   1.733   1.190   7.682
 5648TIP3    H238504   1.696   1.293   7.578
 5649TIP3   OH238505   6.581   1.542   1.403
 5649TIP3    H138506   6.499   1.507   1.440
 5649TIP3    H238507   6.626   1.581   1.478
 5650TIP3   OH238508   3.744   5.192   7.482
 5650TIP3    H138509   3.761   5.109   7.526
 5650TIP3    H238510   3.829   5.237   7.481
 5651TIP3   OH238511   5.601   3.286   6.780
 5651TIP3    H138512   5.512   3.263   6.752
 5651TIP3    H238513   5.597   3.286   6.876
 5652TIP3   OH238514   6.283   6.072   1.544
 5652TIP3    H138515   6.283   5.983   1.579
 5652TIP3    H238516   6.245   6.063   1.456
 5653TIP3   OH238517   1.717   0.567   7.648
 5653TIP3    H138518   1.686   0.625   7.718
 5653TIP3    H238519   1.790   0.520   7.686
 5654TIP3   OH238520   0.006   4.864   8.206
 5654TIP3    H138521   6.789   4.800   8.143
 5654TIP3    H238522   0.102   4.857   8.202
 5655TIP3   OH238523   2.435   3.908   8.244
 5655TIP3    H138524   2.362   3.848   8.260
 5655TIP3    H238525   2.511   3.851   8.233
 5656TIP3   OH238526   3.899   0.818   7.376
 5656TIP3    H138527   3.966   0.750   7.375
 5656TIP3    H238528   3.823   0.777   7.335
 5657TIP3   OH238529   0.228   1.573   1.095
 5657TIP3    H138530   0.136   1.553   1.077
 5657TIP3    H238531   0.226   1.648   1.153
 5658TIP3   OH238532   1.142   2.218   8.574
 5658TIP3    H138533   1.205   2.149   8.590
 5658TIP3    H238534   1.065   2.193   8.625
 5659TIP3   OH238535   0.855   5.786   8.071
 5659TIP3    H138536   0.883   5.770   7.981
 5659TIP3    H238537   0.935   5.777   8.123
 5660TIP3   OH238538   3.810   2.733   8.336
 5660TIP3    H138539   3.783   2.791   8.265
 5660TIP3    H238540   3.861   2.665   8.293
 5661TIP3   OH238541   0.315   6.487   0.703
 5661TIP3    H138542   0.322   6.412   0.761
 5661TIP3    H238543   0.343   6.562   0.756
 5662TIP3   OH238544   3.870   6.548   0.337
 5662TIP3    H138545   3.826   6.529   0.420
 5662TIP3    H238546   3.922   6.469   0.319
 5663TIP3   OH238547   0.580   6.217   0.527
 5663TIP3    H138548   0.536   6.301   0.518
 5663TIP3    H238549   0.595   6.188   0.436
 5664TIP3   OH238550   4.362   3.196   0.840
 5664TIP3    H138551   4.289   3.177   0.781
 5664TIP3    H238552   4.425   3.125   0.825
 5665TIP3   OH238553   1.850   3.894   7.052
 5665TIP3    H138554   1.801   3.955   6.997
 5665TIP3    H238555   1.927   3.871   7.000
 5666TIP3   OH238556   1.434   2.651   8.570
 5666TIP3    H138557   1.349   2.609   8.580
 5666TIP3    H238558   1.482   2.627   8.649
 5667TIP3   OH238559   1.218   5.098   7.309
 5667TIP3    H138560   1.233   5.180   7.263
 5667TIP3    H238561   1.299   5.049   7.298
 5668TIP3   OH238562   0.721   6.024   1.304
 5668TIP3    H138563   0.784   6.016   1.232
 5668TIP3    H238564   0.665   6.097   1.278
 5669TIP3   OH238565   3.659   1.794   0.126
 5669TIP3    H138566   3.727   1.740   0.086
 5669TIP3    H238567   3.670   1.880   0.088
 5670TIP3   OH238568   4.356   5.979   2.059
 5670TIP3    H138569   4.299   6.027   2.120
 5670TIP3    H238570   4.444   6.009   2.080
 5671TIP3   OH238571   0.499   6.337   7.200
 5671TIP3    H138572   0.412   6.375   7.208
 5671TIP3    H238573   0.552   6.406   7.160
 5672TIP3   OH238574   3.442   5.275   8.467
 5672TIP3    H138575   3.525   5.245   8.432
 5672TIP3    H238576   3.440   5.242   8.556
 5673TIP3   OH238577   3.247   1.046   1.595
 5673TIP3    H138578   3.233   1.097   1.675
 5673TIP3    H238579   3.331   1.003   1.608
 5674TIP3   OH238580   1.320   3.803   1.162
 5674TIP3    H138581   1.245   3.748   1.143
 5674TIP3    H238582   1.322   3.810   1.258
 5675TIP3   OH238583   0.585   5.867   7.168
 5675TIP3    H138584   0.646   5.940   7.155
 5675TIP3    H238585   0.516   5.902   7.224
 5676TIP3   OH238586   0.765   4.346   7.324
 5676TIP3    H138587   0.839   4.285   7.322
 5676TIP3    H238588   0.784   4.409   7.254
 5677TIP3   OH238589   5.438   2.724   2.245
 5677TIP3    H138590   5.397   2.783   2.182
 5677TIP3    H238591   5.411   2.757   2.330
 5678TIP3   OH238592   5.513   4.744   0.253
 5678TIP3    H138593   5.496   4.710   0.165
 5678TIP3    H238594   5.460   4.823   0.259
 5679TIP3   OH238595   0.134   2.722   0.018
 5679TIP3    H138596   0.073   2.674   0.074
 5679TIP3    H238597   0.163   2.657   8.745
 5680TIP3   OH238598   1.509   2.274   1.075
 5680TIP3    H138599   1.567   2.263   1.150
 5680TIP3    H238600   1.567   2.296   1.002
 5681TIP3   OH238601   0.124   2.680   7.589
 5681TIP3    H138602   0.123   2.584   7.589
 5681TIP3    H238603   0.040   2.705   7.627
 5682TIP3   OH238604   2.144   6.113   6.569
 5682TIP3    H138605   2.179   6.197   6.538
 5682TIP3    H238606   2.121   6.066   6.489
 5683TIP3   OH238607   6.465   6.629   2.148
 5683TIP3    H138608   6.419   6.625   2.231
 5683TIP3    H238609   6.468   6.723   2.127
 5684TIP3   OH238610   0.887   1.872   1.066
 5684TIP3    H138611   0.971   1.854   1.108
 5684TIP3    H238612   0.825   1.815   1.112
 5685TIP3   OH238613   5.423   3.965   2.403
 5685TIP3    H138614   5.400   3.894   2.344
 5685TIP3    H238615   5.379   3.944   2.485
 5686TIP3   OH238616   1.708   3.888   1.562
 5686TIP3    H138617   1.686   3.980   1.544
 5686TIP3    H238618   1.788   3.873   1.512
 5687TIP3   OH238619   4.554   2.956   7.413
 5687TIP3    H138620   4.505   3.004   7.480
 5687TIP3    H238621   4.536   3.003   7.332
 5688TIP3   OH238622   4.946   1.328   7.589
 5688TIP3    H138623   4.920   1.240   7.561
 5688TIP3    H238624   4.867   1.364   7.630
 5689TIP3   OH238625   1.965   2.412   2.068
 5689TIP3    H138626   2.001   2.499   2.085
 5689TIP3    H238627   1.913   2.392   2.145
 5690TIP3   OH238628   0.961   3.947   8.503
 5690TIP3    H138629   0.971   4.016   8.569
 5690TIP3    H238630   1.024   3.880   8.529
 5691TIP3   OH238631   1.387   4.962   1.078
 5691TIP3    H138632   1.323   5.016   1.032
 5691TIP3    H238633   1.419   4.901   1.012
 5692TIP3   OH238634   3.238   0.015   2.674
 5692TIP3    H138635   3.270   0.097   2.711
 5692TIP3    H238636   3.151   0.036   2.640
 5693TIP3   OH238637   6.407   4.078   2.505
 5693TIP3    H138638   6.423   4.030   2.586
 5693TIP3    H238639   6.477   4.050   2.447
 5694TIP3   OH238640   3.932   3.085   8.711
 5694TIP3    H138641   3.904   3.035   8.634
 5694TIP3    H238642   3.988   3.154   8.676
 5695TIP3   OH238643   4.952   1.058   7.535
 5695TIP3    H138644   4.951   1.056   7.440
 5695TIP3    H238645   4.990   0.974   7.561
 5696TIP3   OH238646   2.197   2.660   1.472
 5696TIP3    H138647   2.214   2.619   1.557
 5696TIP3    H238648   2.134   2.601   1.429
 5697TIP3   OH238649   3.826   6.181   1.697
 5697TIP3    H138650   3.744   6.176   1.747
 5697TIP3    H238651   3.799   6.188   1.606
 5698TIP3   OH238652   0.770   6.292   0.979
 5698TIP3    H138653   0.760   6.207   0.935
 5698TIP3    H238654   0.704   6.348   0.938
 5699TIP3   OH238655   0.416   0.943   0.413
 5699TIP3    H138656   0.451   0.871   0.360
 5699TIP3    H238657   0.328   0.915   0.438
 5700TIP3   OH238658   1.865   2.008   8.703
 5700TIP3    H138659   1.781   2.051   8.686
 5700TIP3    H238660   1.888   2.034   0.001
 5701TIP3   OH238661   5.922   2.005   1.244
 5701TIP3    H138662   5.862   2.075   1.218
 5701TIP3    H238663   5.999   2.018   1.190
 5702TIP3   OH238664   1.498   5.366   7.246
 5702TIP3    H138665   1.405   5.349   7.230
 5702TIP3    H238666   1.542   5.333   7.168
 5703TIP3   OH238667   4.400   3.005   7.638
 5703TIP3    H138668   4.378   3.096   7.656
 5703TIP3    H238669   4.412   2.965   7.724
 5704TIP3   OH238670   6.688   3.561   7.761
 5704TIP3    H138671   6.712   3.502   7.690
 5704TIP3    H238672   6.723   3.646   7.735
 5705TIP3   OH238673   0.362   3.806   6.842
 5705TIP3    H138674   0.355   3.839   6.931
 5705TIP3    H238675   0.328   3.878   6.787
 5706TIP3   OH238676   5.914   4.990   6.896
 5706TIP3    H138677   5.967   4.982   6.817
 5706TIP3    H238678   5.827   4.960   6.870
 5707TIP3   OH238679   1.138   2.094   7.056
 5707TIP3    H138680   1.136   2.105   6.961
 5707TIP3    H238681   1.222   2.052   7.074
 5708TIP3   OH238682   2.516   4.442   1.699
 5708TIP3    H138683   2.522   4.438   1.795
 5708TIP3    H238684   2.423   4.431   1.680
 5709TIP3   OH238685   1.933   6.524   0.822
 5709TIP3    H138686   1.938   6.456   0.756
 5709TIP3    H238687   1.846   6.514   0.861
 5710TIP3   OH238688   5.923   0.578   0.433
 5710TIP3    H138689   5.917   0.525   0.512
 5710TIP3    H238690   5.871   0.531   0.368
 5711TIP3   OH238691   6.071   2.677   8.744
 5711TIP3    H138692   6.124   2.757   8.744
 5711TIP3    H238693   5.994   2.700   0.005
 5712TIP3   OH238694   3.745   0.470   7.713
 5712TIP3    H138695   3.795   0.536   7.762
 5712TIP3    H238696   3.733   0.398   7.775
 5713TIP3   OH238697   1.178   4.423   2.358
 5713TIP3    H138698   1.110   4.384   2.302
 5713TIP3    H238699   1.143   4.413   2.446
 5714TIP3   OH238700   6.772   4.412   8.614
 5714TIP3    H138701   6.752   4.325   8.579
 5714TIP3    H238702   6.738   4.410   8.704
 5715TIP3   OH238703   2.520   6.427   7.870
 5715TIP3    H138704   2.489   6.454   7.956
 5715TIP3    H238705   2.566   6.503   7.836
 5716TIP3   OH238706   6.686   3.291   6.880
 5716TIP3    H138707   6.747   3.220   6.898
 5716TIP3    H238708   6.623   3.254   6.818
 5717TIP3   OH238709   6.808   4.228   2.108
 5717TIP3    H138710   6.730   4.262   2.151
 5717TIP3    H238711   0.059   4.297   2.117
 5718TIP3   OH238712   3.364   0.030   1.094
 5718TIP3    H138713   3.341   0.120   1.116
 5718TIP3    H238714   3.396   0.034   1.004
 5719TIP3   OH238715   6.283   6.171   6.776
 5719TIP3    H138716   6.369   6.168   6.734
 5719TIP3    H238717   6.223   6.135   6.711
 5720TIP3   OH238718   2.391   4.901   8.621
 5720TIP3    H138719   2.402   4.886   8.714
 5720TIP3    H238720   2.364   4.992   8.614
 5721TIP3   OH238721   3.588   6.520   6.941
 5721TIP3    H138722   3.554   6.491   6.857
 5721TIP3    H238723   3.675   6.480   6.947
 5722TIP3   OH238724   4.754   3.878   7.229
 5722TIP3    H138725   4.680   3.822   7.253
 5722TIP3    H238726   4.713   3.961   7.203
 5723TIP3   OH238727   5.159   5.041   0.800
 5723TIP3    H138728   5.125   5.084   0.879
 5723TIP3    H238729   5.128   5.097   0.728
 5724TIP3   OH238730   3.793   5.300   0.745
 5724TIP3    H138731   3.855   5.235   0.711
 5724TIP3    H238732   3.803   5.376   0.688
 5725TIP3   OH238733   3.703   3.267   2.375
 5725TIP3    H138734   3.781   3.236   2.421
 5725TIP3    H238735   3.733   3.343   2.325
 5726TIP3   OH238736   3.108   0.034   1.631
 5726TIP3    H138737   3.018   0.014   1.657
 5726TIP3    H238738   3.123   0.122   1.664
 5727TIP3   OH238739   1.187   6.566   8.235
 5727TIP3    H138740   1.169   6.628   8.164
 5727TIP3    H238741   1.111   6.571   8.292
 5728TIP3   OH238742   2.448   4.649   1.077
 5728TIP3    H138743   2.456   4.686   0.989
 5728TIP3    H238744   2.361   4.676   1.106
 5729TIP3   OH238745   5.040   2.901   1.743
 5729TIP3    H138746   5.020   2.843   1.669
 5729TIP3    H238747   5.068   2.841   1.813
 5730TIP3   OH238748   2.940   3.597   0.543
 5730TIP3    H138749   3.022   3.628   0.580
 5730TIP3    H238750   2.876   3.608   0.614
 5731TIP3   OH238751   0.087   5.124   0.563
 5731TIP3    H138752   0.059   5.202   0.611
 5731TIP3    H238753   0.126   5.158   0.482
 5732TIP3   OH238754   0.935   4.491   0.945
 5732TIP3    H138755   0.952   4.403   0.979
 5732TIP3    H238756   0.894   4.477   0.860
 5733TIP3   OH238757   4.131   6.089   8.580
 5733TIP3    H138758   4.082   6.141   8.644
 5733TIP3    H238759   4.068   6.071   8.510
 5734TIP3   OH238760   0.051   6.439   1.062
 5734TIP3    H138761   0.030   6.459   0.971
 5734TIP3    H238762   6.792   6.387   1.094
 5735TIP3   OH238763   2.673   1.366   6.967
 5735TIP3    H138764   2.582   1.355   6.994
 5735TIP3    H238765   2.706   1.436   7.022
 5736TIP3   OH238766   6.569   3.681   7.987
 5736TIP3    H138767   6.598   3.676   7.896
 5736TIP3    H238768   6.627   3.620   8.034
 5737TIP3   OH238769   0.251   2.670   1.045
 5737TIP3    H138770   0.280   2.632   0.962
 5737TIP3    H238771   0.298   2.753   1.050
 5738TIP3   OH238772   3.472   3.242   2.147
 5738TIP3    H138773   3.477   3.325   2.195
 5738TIP3    H238774   3.496   3.266   2.058
 5739TIP3   OH238775   3.855   6.200   0.430
 5739TIP3    H138776   3.909   6.154   0.494
 5739TIP3    H238777   3.814   6.271   0.479
 5740TIP3   OH238778   3.862   6.417   6.720
 5740TIP3    H138779   3.849   6.325   6.698
 5740TIP3    H238780   3.776   6.457   6.704
 5741TIP3   OH238781   2.943   5.247   1.941
 5741TIP3    H138782   3.036   5.234   1.920
 5741TIP3    H238783   2.898   5.179   1.891
 5742TIP3   OH238784   5.765   6.665   0.869
 5742TIP3    H138785   5.838   6.705   0.916
 5742TIP3    H238786   5.781   6.571   0.877
 5743TIP3   OH238787   0.458   1.487   7.386
 5743TIP3    H138788   0.401   1.539   7.442
 5743TIP3    H238789   0.536   1.541   7.374
 5744TIP3   OH238790   2.901   3.904   0.095
 5744TIP3    H138791   2.933   3.896   0.185
 5744TIP3    H238792   2.885   3.998   0.084
 5745TIP3   OH238793   0.098   3.553   0.985
 5745TIP3    H138794   0.012   3.587   0.959
 5745TIP3    H238795   0.100   3.562   1.080
 5746TIP3   OH238796   1.762   2.989   8.093
 5746TIP3    H138797   1.828   2.957   8.155
 5746TIP3    H238798   1.723   2.910   8.056
 5747TIP3   OH238799   5.574   3.594   8.420
 5747TIP3    H138800   5.668   3.588   8.404
 5747TIP3    H238801   5.541   3.654   8.352
 5748TIP3   OH238802   1.293   3.366   2.211
 5748TIP3    H138803   1.333   3.304   2.272
 5748TIP3    H238804   1.220   3.317   2.172
 5749TIP3   OH238805   6.384   0.760   8.739
 5749TIP3    H138806   6.406   0.719   8.656
 5749TIP3    H238807   6.307   0.814   8.719
 5750TIP3   OH238808   0.687   2.151   8.164
 5750TIP3    H138809   0.678   2.244   8.141
 5750TIP3    H238810   0.659   2.105   8.085
 5751TIP3   OH238811   2.955   4.806   7.378
 5751TIP3    H138812   2.871   4.829   7.419
 5751TIP3    H238813   2.936   4.806   7.284
 5752TIP3   OH238814   4.415   5.009   6.552
 5752TIP3    H138815   4.328   5.033   6.519
 5752TIP3    H238816   4.476   5.062   6.501
 5753TIP3   OH238817   6.307   5.623   0.102
 5753TIP3    H138818   6.335   5.572   0.025
 5753TIP3    H238819   6.343   5.710   0.087
 5754TIP3   OH238820   6.501   2.775   0.954
 5754TIP3    H138821   6.434   2.764   1.021
 5754TIP3    H238822   6.581   2.795   1.002
 5755TIP3   OH238823   4.563   4.306   7.589
 5755TIP3    H138824   4.570   4.274   7.499
 5755TIP3    H238825   4.634   4.370   7.598
 5756TIP3   OH238826   0.742   5.623   7.193
 5756TIP3    H138827   0.810   5.636   7.126
 5756TIP3    H238828   0.691   5.704   7.192
 5757TIP3   OH238829   6.246   1.931   8.297
 5757TIP3    H138830   6.219   1.872   8.226
 5757TIP3    H238831   6.339   1.913   8.308
 5758TIP3   OH238832   3.702   0.380   1.580
 5758TIP3    H138833   3.779   0.429   1.549
 5758TIP3    H238834   3.737   0.294   1.604
 5759TIP3   OH238835   4.192   1.520   0.061
 5759TIP3    H138836   4.131   1.561   0.121
 5759TIP3    H238837   4.219   1.590   0.002
 5760TIP3   OH238838   2.076   3.552   1.389
 5760TIP3    H138839   2.101   3.486   1.454
 5760TIP3    H238840   2.155   3.565   1.337
 5761TIP3   OH238841   2.323   3.288   1.303
 5761TIP3    H138842   2.364   3.374   1.313
 5761TIP3    H238843   2.307   3.280   1.209
 5762TIP3   OH238844   0.505   4.345   8.678
 5762TIP3    H138845   0.445   4.283   8.636
 5762TIP3    H238846   0.590   4.326   8.638
 5763TIP3   OH238847   4.917   0.529   1.049
 5763TIP3    H138848   4.991   0.469   1.059
 5763TIP3    H238849   4.868   0.520   1.130
 5764TIP3   OH238850   4.939   6.766   1.917
 5764TIP3    H138851   5.007   6.701   1.900
 5764TIP3    H238852   4.971   0.031   1.875
 5765TIP3   OH238853   4.297   6.318   7.708
 5765TIP3    H138854   4.286   6.235   7.754
 5765TIP3    H238855   4.389   6.341   7.721
 5766TIP3   OH238856   3.339   0.046   6.842
 5766TIP3    H138857   3.321   6.784   6.788
 5766TIP3    H238858   3.383   0.010   6.920
 5767TIP3   OH238859   3.629   2.695   7.939
 5767TIP3    H138860   3.575   2.626   7.900
 5767TIP3    H238861   3.683   2.727   7.866
 5768TIP3   OH238862   4.654   0.802   8.193
 5768TIP3    H138863   4.744   0.788   8.222
 5768TIP3    H238864   4.601   0.748   8.252
 5769TIP3   OH238865   3.481   0.346   1.959
 5769TIP3    H138866   3.411   0.378   2.016
 5769TIP3    H238867   3.561   0.362   2.008
 5770TIP3   OH238868   6.338   6.670   1.798
 5770TIP3    H138869   6.299   6.640   1.716
 5770TIP3    H238870   6.408   6.730   1.771
 5771TIP3   OH238871   3.416   4.694   1.681
 5771TIP3    H138872   3.348   4.652   1.734
 5771TIP3    H238873   3.473   4.622   1.654
 5772TIP3   OH238874   3.111   5.118   8.632
 5772TIP3    H138875   3.052   5.188   8.602
 5772TIP3    H238876   3.195   5.139   8.591
 5773TIP3   OH238877   1.688   3.928   7.285
 5773TIP3    H138878   1.708   3.959   7.197
 5773TIP3    H238879   1.654   3.839   7.272
 5774TIP3   OH238880   3.690   2.400   1.820
 5774TIP3    H138881   3.720   2.444   1.740
 5774TIP3    H238882   3.752   2.329   1.832
 5775TIP3   OH238883   0.146   3.374   0.683
 5775TIP3    H138884   0.151   3.279   0.667
 5775TIP3    H238885   0.057   3.388   0.717
 5776TIP3   OH238886   5.283   3.788   1.284
 5776TIP3    H138887   5.355   3.725   1.296
 5776TIP3    H238888   5.306   3.835   1.203
 5777TIP3   OH238889   0.185   0.177   0.593
 5777TIP3    H138890   0.228   0.166   0.678
 5777TIP3    H238891   0.208   0.098   0.545
 5778TIP3   OH238892   3.173   2.217   8.641
 5778TIP3    H138893   3.112   2.286   8.668
 5778TIP3    H238894   3.244   2.264   8.597
 5779TIP3   OH238895   0.835   0.149   7.972
 5779TIP3    H138896   0.888   0.104   7.907
 5779TIP3    H238897   0.877   0.235   7.982
 5780TIP3   OH238898   4.045   3.847   1.663
 5780TIP3    H138899   4.012   3.770   1.617
 5780TIP3    H238900   4.078   3.904   1.593
 5781TIP3   OH238901   2.544   4.207   0.576
 5781TIP3    H138902   2.507   4.140   0.519
 5781TIP3    H238903   2.523   4.290   0.533
 5782TIP3   OH238904   3.834   3.519   7.723
 5782TIP3    H138905   3.904   3.555   7.670
 5782TIP3    H238906   3.799   3.447   7.671
 5783TIP3   OH238907   2.548   2.083   2.179
 5783TIP3    H138908   2.586   2.164   2.145
 5783TIP3    H238909   2.495   2.111   2.253
 5784TIP3   OH238910   4.408   0.461   7.161
 5784TIP3    H138911   4.318   0.438   7.182
 5784TIP3    H238912   4.402   0.542   7.111
 5785TIP3   OH238913   6.552   2.468   0.855
 5785TIP3    H138914   6.461   2.488   0.876
 5785TIP3    H238915   6.593   2.448   0.940
 5786TIP3   OH238916   6.473   1.119   8.228
 5786TIP3    H138917   6.411   1.078   8.169
 5786TIP3    H238918   6.509   1.047   8.280
 5787TIP3   OH238919   5.000   3.658   8.285
 5787TIP3    H138920   5.029   3.733   8.232
 5787TIP3    H238921   4.960   3.697   8.362
 5788TIP3   OH238922   2.600   3.790   2.072
 5788TIP3    H138923   2.510   3.791   2.104
 5788TIP3    H238924   2.653   3.776   2.151
 5789TIP3   OH238925   6.625   4.907   7.817
 5789TIP3    H138926   6.692   4.839   7.811
 5789TIP3    H238927   6.638   4.946   7.903
 5790TIP3   OH238928   0.895   5.932   7.669
 5790TIP3    H138929   0.912   5.864   7.604
 5790TIP3    H238930   0.805   5.916   7.697
 5791TIP3   OH238931   3.534   5.168   0.763
 5791TIP3    H138932   3.532   5.152   0.857
 5791TIP3    H238933   3.604   5.232   0.750
 5792TIP3   OH238934   1.900   1.283   8.719
 5792TIP3    H138935   1.834   1.340   8.759
 5792TIP3    H238936   1.909   1.317   8.629
 5793TIP3   OH238937   1.252   1.177   0.923
 5793TIP3    H138938   1.177   1.217   0.967
 5793TIP3    H238939   1.231   1.084   0.918
 5794TIP3   OH238940   2.017   4.500   0.601
 5794TIP3    H138941   1.975   4.421   0.634
 5794TIP3    H238942   1.946   4.563   0.589
 5795TIP3   OH238943   2.686   1.897   0.703
 5795TIP3    H138944   2.705   1.905   0.796
 5795TIP3    H238945   2.665   1.986   0.674
 5796TIP3   OH238946   2.824   0.973   8.317
 5796TIP3    H138947   2.849   1.048   8.263
 5796TIP3    H238948   2.733   0.956   8.293
 5797TIP3   OH238949   3.022   1.080   7.165
 5797TIP3    H138950   2.988   1.043   7.084
 5797TIP3    H238951   3.058   1.165   7.139
 5798TIP3   OH238952   3.209   5.710   0.705
 5798TIP3    H138953   3.191   5.708   0.611
 5798TIP3    H238954   3.285   5.767   0.714
 5799TIP3   OH238955   6.554   0.696   1.387
 5799TIP3    H138956   6.577   0.661   1.301
 5799TIP3    H238957   6.614   0.653   1.448
 5800TIP3   OH238958   5.705   5.269   7.655
 5800TIP3    H138959   5.793   5.284   7.619
 5800TIP3    H238960   5.700   5.326   7.731
 5801TIP3   OH238961   0.638   4.417   1.187
 5801TIP3    H138962   0.631   4.329   1.151
 5801TIP3    H238963   0.680   4.468   1.118
 5802TIP3   OH238964   4.428   4.807   1.296
 5802TIP3    H138965   4.445   4.876   1.361
 5802TIP3    H238966   4.345   4.832   1.255
 5803TIP3   OH238967   0.190   3.656   0.656
 5803TIP3    H138968   0.164   3.578   0.607
 5803TIP3    H238969   0.199   3.626   0.746
 5804TIP3   OH238970   1.027   6.675   7.950
 5804TIP3    H138971   1.099   6.691   7.889
 5804TIP3    H238972   0.949   6.706   7.904
 5805TIP3   OH238973   0.384   3.681   1.404
 5805TIP3    H138974   0.340   3.756   1.444
 5805TIP3    H238975   0.316   3.615   1.394
 5806TIP3   OH238976   3.534   4.746   7.903
 5806TIP3    H138977   3.551   4.728   7.996
 5806TIP3    H238978   3.463   4.687   7.879
 5807TIP3   OH238979   2.931   4.456   1.400
 5807TIP3    H138980   2.875   4.424   1.472
 5807TIP3    H238981   2.901   4.408   1.323
 5808TIP3   OH238982   1.261   1.453   7.241
 5808TIP3    H138983   1.283   1.461   7.334
 5808TIP3    H238984   1.332   1.399   7.205
 5809TIP3   OH238985   0.301   3.746   1.118
 5809TIP3    H138986   0.225   3.707   1.162
 5809TIP3    H238987   0.333   3.812   1.179
 5810TIP3   OH238988   3.746   3.785   6.478
 5810TIP3    H138989   3.768   3.869   6.437
 5810TIP3    H238990   3.819   3.768   6.538
 5811TIP3   OH238991   1.612   4.942   1.613
 5811TIP3    H138992   1.537   4.995   1.642
 5811TIP3    H238993   1.669   4.938   1.690
 5812TIP3   OH238994   6.496   1.374   8.153
 5812TIP3    H138995   6.568   1.406   8.099
 5812TIP3    H238996   6.519   1.283   8.174
 5813TIP3   OH238997   1.178   5.858   7.823
 5813TIP3    H138998   1.168   5.925   7.755
 5813TIP3    H238999   1.175   5.775   7.776
 5814TIP3   OH239000   1.225   1.686   7.070
 5814TIP3    H139001   1.262   1.622   7.131
 5814TIP3    H239002   1.277   1.765   7.085
 5815TIP3   OH239003   0.097   4.096   1.294
 5815TIP3    H139004   0.069   4.093   1.386
 5815TIP3    H239005   0.098   4.005   1.266
 5816TIP3   OH239006   4.173   5.818   8.716
 5816TIP3    H139007   4.150   5.903   8.678
 5816TIP3    H239008   4.207   5.767   8.642
 5817TIP3   OH239009   0.057   4.138   8.558
 5817TIP3    H139010   0.030   4.066   8.614
 5817TIP3    H239011   0.017   4.118   8.473
 5818TIP3   OH239012   5.399   2.733   7.431
 5818TIP3    H139013   5.441   2.659   7.474
 5818TIP3    H239014   5.437   2.736   7.344
 5819TIP3   OH239015   0.886   3.544   8.657
 5819TIP3    H139016   0.850   3.463   8.693
 5819TIP3    H239017   0.830   3.564   8.581
 5820TIP3   OH239018   0.311   4.429   0.267
 5820TIP3    H139019   0.245   4.444   0.199
 5820TIP3    H239020   0.321   4.334   0.271
 5821TIP3   OH239021   6.580   6.179   2.545
 5821TIP3    H139022   6.674   6.171   2.555
 5821TIP3    H239023   6.556   6.253   2.601
 5822TIP3   OH239024   3.108   5.121   7.105
 5822TIP3    H139025   3.057   5.045   7.134
 5822TIP3    H239026   3.049   5.167   7.045
 5823TIP3   OH239027   6.201   4.941   0.292
 5823TIP3    H139028   6.268   4.874   0.306
 5823TIP3    H239029   6.248   5.013   0.249
 5824TIP3   OH239030   1.074   4.839   7.850
 5824TIP3    H139031   1.094   4.875   7.764
 5824TIP3    H239032   1.142   4.874   7.908
 5825TIP3   OH239033   5.805   3.635   0.504
 5825TIP3    H139034   5.768   3.554   0.467
 5825TIP3    H239035   5.884   3.606   0.549
 5826TIP3   OH239036   0.675   0.481   8.048
 5826TIP3    H139037   0.611   0.539   8.009
 5826TIP3    H239038   0.655   0.483   8.142
 5827TIP3   OH239039   5.596   6.402   6.805
 5827TIP3    H139040   5.582   6.310   6.827
 5827TIP3    H239041   5.587   6.405   6.710
 5828TIP3   OH239042   5.822   0.408   8.266
 5828TIP3    H139043   5.822   0.331   8.209
 5828TIP3    H239044   5.760   0.386   8.335
 5829TIP3   OH239045   3.526   0.801   1.087
 5829TIP3    H139046   3.461   0.785   1.156
 5829TIP3    H239047   3.553   0.713   1.059
 5830TIP3   OH239048   0.455   3.751   0.138
 5830TIP3    H139049   0.416   3.678   0.187
 5830TIP3    H239050   0.483   3.812   0.206
 5831TIP3   OH239051   4.336   2.966   7.195
 5831TIP3    H139052   4.340   3.058   7.224
 5831TIP3    H239053   4.405   2.960   7.128
 5832TIP3   OH239054   4.907   6.761   0.541
 5832TIP3    H139055   4.955   6.702   0.599
 5832TIP3    H239056   4.818   6.725   0.539
 5833TIP3   OH239057   5.409   5.934   0.487
 5833TIP3    H139058   5.499   5.966   0.485
 5833TIP3    H239059   5.397   5.892   0.402
 5834TIP3   OH239060   6.750   6.118   0.991
 5834TIP3    H139061   6.713   6.033   0.969
 5834TIP3    H239062   6.695   6.181   0.944
 5835TIP3   OH239063   4.762   6.791   8.714
 5835TIP3    H139064   4.856   6.803   8.703
 5835TIP3    H239065   4.748   6.792   0.018
 5836TIP3   OH239066   2.799   3.901   1.747
 5836TIP3    H139067   2.830   3.850   1.822
 5836TIP3    H239068   2.705   3.912   1.762
 5837TIP3   OH239069   3.693   2.220   2.463
 5837TIP3    H139070   3.648   2.146   2.423
 5837TIP3    H239071   3.782   2.187   2.479
 5838TIP3   OH239072   3.652   4.202   8.367
 5838TIP3    H139073   3.557   4.195   8.360
 5838TIP3    H239074   3.686   4.146   8.298
 5839TIP3   OH239075   5.663   3.152   0.455
 5839TIP3    H139076   5.655   3.075   0.397
 5839TIP3    H239077   5.687   3.115   0.540
 5840TIP3   OH239078   5.393   4.539   0.807
 5840TIP3    H139079   5.386   4.487   0.887
 5840TIP3    H239080   5.445   4.484   0.747
 5841TIP3   OH239081   3.810   3.041   1.514
 5841TIP3    H139082   3.802   3.001   1.601
 5841TIP3    H239083   3.720   3.059   1.488
 5842TIP3   OH239084   2.778   2.424   1.732
 5842TIP3    H139085   2.688   2.456   1.718
 5842TIP3    H239086   2.821   2.437   1.647
 5843TIP3   OH239087   3.364   1.622   8.355
 5843TIP3    H139088   3.297   1.682   8.389
 5843TIP3    H239089   3.427   1.679   8.311
 5844TIP3   OH239090   6.550   6.286   0.902
 5844TIP3    H139091   6.462   6.257   0.880
 5844TIP3    H239092   6.538   6.373   0.940
 5845TIP3   OH239093   6.570   6.357   0.069
 5845TIP3    H139094   6.546   6.448   0.081
 5845TIP3    H239095   6.564   6.318   0.157
 5846TIP3   OH239096   0.689   4.566   2.027
 5846TIP3    H139097   0.747   4.616   2.084
 5846TIP3    H239098   0.708   4.474   2.047
 5847TIP3   OH239099   0.263   3.122   8.014
 5847TIP3    H139100   0.258   3.039   8.061
 5847TIP3    H239101   0.336   3.112   7.954
 5848TIP3   OH239102   5.806   1.341   1.716
 5848TIP3    H139103   5.888   1.324   1.670
 5848TIP3    H239104   5.756   1.396   1.655
 5849TIP3   OH239105   5.260   5.372   1.731
 5849TIP3    H139106   5.216   5.334   1.808
 5849TIP3    H239107   5.227   5.320   1.657
 5850TIP3   OH239108   4.944   2.226   1.066
 5850TIP3    H139109   4.873   2.213   1.003
 5850TIP3    H239110   5.017   2.260   1.014
 5851TIP3   OH239111   6.303   2.240   6.944
 5851TIP3    H139112   6.208   2.228   6.935
 5851TIP3    H239113   6.313   2.327   6.981
 5852TIP3   OH239114   5.353   3.561   1.902
 5852TIP3    H139115   5.339   3.654   1.882
 5852TIP3    H239116   5.362   3.519   1.817
 5853TIP3   OH239117   1.477   4.719   0.251
 5853TIP3    H139118   1.442   4.806   0.271
 5853TIP3    H239119   1.401   4.661   0.253
 5854TIP3   OH239120   2.577   5.344   8.205
 5854TIP3    H139121   2.490   5.307   8.220
 5854TIP3    H239122   2.637   5.272   8.225
 5855TIP3   OH239123   3.253   5.239   0.414
 5855TIP3    H139124   3.262   5.283   0.330
 5855TIP3    H239125   3.337   5.195   0.427
 5856TIP3   OH239126   5.281   2.344   8.657
 5856TIP3    H139127   5.374   2.363   8.670
 5856TIP3    H239128   5.256   2.396   8.581
 5857TIP3   OH239129   1.286   5.789   1.420
 5857TIP3    H139130   1.332   5.707   1.442
 5857TIP3    H239131   1.356   5.851   1.401
 5858TIP3   OH239132   1.191   5.883   1.778
 5858TIP3    H139133   1.254   5.897   1.849
 5858TIP3    H239134   1.208   5.954   1.716
 5859TIP3   OH239135   5.686   6.057   6.639
 5859TIP3    H139136   5.733   5.978   6.666
 5859TIP3    H239137   5.638   6.085   6.717
 5860TIP3   OH239138   0.643   0.350   7.640
 5860TIP3    H139139   0.571   0.339   7.702
 5860TIP3    H239140   0.674   0.439   7.655
 5861TIP3   OH239141   2.997   0.634   7.367
 5861TIP3    H139142   2.921   0.610   7.314
 5861TIP3    H239143   3.013   0.725   7.344
 5862TIP3   OH239144   4.440   5.551   0.834
 5862TIP3    H139145   4.429   5.569   0.741
 5862TIP3    H239146   4.533   5.569   0.851
 5863TIP3   OH239147   6.220   5.413   6.442
 5863TIP3    H139148   6.255   5.452   6.523
 5863TIP3    H239149   6.151   5.473   6.414
 5864TIP3   OH239150   4.763   5.308   1.423
 5864TIP3    H139151   4.811   5.226   1.435
 5864TIP3    H239152   4.805   5.370   1.482
 5865TIP3   OH239153   3.888   3.332   1.709
 5865TIP3    H139154   3.958   3.309   1.770
 5865TIP3    H239155   3.820   3.267   1.725
 5866TIP3   OH239156   3.253   3.193   6.891
 5866TIP3    H139157   3.197   3.271   6.885
 5866TIP3    H239158   3.268   3.168   6.800
 5867TIP3   OH239159   0.889   2.359   1.055
 5867TIP3    H139160   0.890   2.423   1.125
 5867TIP3    H239161   0.847   2.404   0.981
 5868TIP3   OH239162   5.774   2.580   2.656
 5868TIP3    H139163   5.776   2.637   2.733
 5868TIP3    H239164   5.694   2.529   2.665
 5869TIP3   OH239165   2.538   6.600   2.196
 5869TIP3    H139166   2.584   6.535   2.144
 5869TIP3    H239167   2.492   6.549   2.263
 5870TIP3   OH239168   0.033   0.676   1.820
 5870TIP3    H139169   0.117   0.722   1.812
 5870TIP3    H239170   0.057   0.583   1.826
 5871TIP3   OH239171   3.929   4.611   7.767
 5871TIP3    H139172   4.015   4.628   7.730
 5871TIP3    H239173   3.872   4.676   7.725
 5872TIP3   OH239174   2.908   6.265   0.493
 5872TIP3    H139175   2.922   6.244   0.400
 5872TIP3    H239176   2.823   6.225   0.514
 5873TIP3   OH239177   2.116   2.303   7.943
 5873TIP3    H139178   2.167   2.228   7.912
 5873TIP3    H239179   2.098   2.354   7.863
 5874TIP3   OH239180   2.066   4.833   2.037
 5874TIP3    H139181   2.019   4.917   2.038
 5874TIP3    H239182   2.000   4.769   2.012
 5875TIP3   OH239183   4.028   1.485   2.464
 5875TIP3    H139184   3.980   1.435   2.398
 5875TIP3    H239185   3.960   1.519   2.523
 5876TIP3   OH239186   0.653   5.579   1.651
 5876TIP3    H139187   0.663   5.674   1.662
 5876TIP3    H239188   0.634   5.568   1.557
 5877TIP3   OH239189   4.128   4.978   7.461
 5877TIP3    H139190   4.149   4.955   7.370
 5877TIP3    H239191   4.033   4.968   7.467
 5878TIP3   OH239192   1.121   3.654   1.353
 5878TIP3    H139193   1.172   3.585   1.310
 5878TIP3    H239194   1.071   3.607   1.421
 5879TIP3   OH239195   3.402   2.565   6.871
 5879TIP3    H139196   3.380   2.540   6.961
 5879TIP3    H239197   3.320   2.554   6.822
 5880TIP3   OH239198   6.637   5.507   0.448
 5880TIP3    H139199   6.570   5.466   0.394
 5880TIP3    H239200   6.687   5.434   0.484
 5881TIP3   OH239201   1.365   0.467   7.702
 5881TIP3    H139202   1.306   0.454   7.776
 5881TIP3    H239203   1.429   0.396   7.711
 5882TIP3   OH239204   2.545   1.491   8.789
 5882TIP3    H139205   2.635   1.503   0.029
 5882TIP3    H239206   2.490   1.520   0.071
 5883TIP3   OH239207   1.840   4.700   1.948
 5883TIP3    H139208   1.840   4.615   1.993
 5883TIP3    H239209   1.756   4.703   1.903
 5884TIP3   OH239210   3.490   3.321   8.512
 5884TIP3    H139211   3.432   3.351   8.441
 5884TIP3    H239212   3.447   3.351   8.592
 5885TIP3   OH239213   4.040   3.948   7.235
 5885TIP3    H139214   3.948   3.970   7.222
 5885TIP3    H239215   4.065   3.902   7.154
 5886TIP3   OH239216   2.349   5.741   8.743
 5886TIP3    H139217   2.357   5.787   0.036
 5886TIP3    H239218   2.269   5.690   8.752
 5887TIP3   OH239219   1.175   4.333   6.683
 5887TIP3    H139220   1.254   4.383   6.706
 5887TIP3    H239221   1.117   4.397   6.643
 5888TIP3   OH239222   5.403   1.965   6.889
 5888TIP3    H139223   5.364   2.045   6.923
 5888TIP3    H239224   5.425   1.913   6.966
 5889TIP3   OH239225   1.973   4.538   7.215
 5889TIP3    H139226   1.949   4.454   7.254
 5889TIP3    H239227   1.918   4.546   7.137
 5890TIP3   OH239228   1.709   1.746   0.161
 5890TIP3    H139229   1.765   1.823   0.160
 5890TIP3    H239230   1.679   1.739   0.252
 5891TIP3   OH239231   1.625   1.933   1.004
 5891TIP3    H139232   1.669   1.935   1.089
 5891TIP3    H239233   1.617   1.840   0.983
 5892TIP3   OH239234   5.030   1.742   2.007
 5892TIP3    H139235   5.056   1.827   2.043
 5892TIP3    H239236   5.107   1.711   1.960
 5893TIP3   OH239237   3.367   4.941   1.786
 5893TIP3    H139238   3.422   4.871   1.751
 5893TIP3    H239239   3.304   4.896   1.842
 5894TIP3   OH239240   6.049   2.656   0.639
 5894TIP3    H139241   6.049   2.615   0.552
 5894TIP3    H239242   6.034   2.583   0.699
 5895TIP3   OH239243   5.771   2.468   7.248
 5895TIP3    H139244   5.755   2.530   7.177
 5895TIP3    H239245   5.693   2.413   7.250
 5896TIP3   OH239246   4.780   0.199   8.533
 5896TIP3    H139247   4.796   0.142   8.459
 5896TIP3    H239248   4.760   0.140   8.606
 5897TIP3   OH239249   2.063   5.262   0.254
 5897TIP3    H139250   2.107   5.277   0.170
 5897TIP3    H239251   2.063   5.167   0.264
 5898TIP3   OH239252   2.049   5.929   8.008
 5898TIP3    H139253   2.106   5.924   8.085
 5898TIP3    H239254   1.977   5.869   8.028
 5899TIP3   OH239255   2.399   6.681   8.380
 5899TIP3    H139256   2.467   6.614   8.385
 5899TIP3    H239257   2.441   6.754   8.335
 5900TIP3   OH239258   0.916   4.559   7.517
 5900TIP3    H139259   0.961   4.488   7.563
 5900TIP3    H239260   0.938   4.638   7.567
 5901TIP3   OH239261   2.945   0.089   2.158
 5901TIP3    H139262   3.018   0.141   2.191
 5901TIP3    H239263   2.902   0.055   2.236
 5902TIP3   OH239264   5.192   4.939   1.879
 5902TIP3    H139265   5.266   4.995   1.855
 5902TIP3    H239266   5.137   4.936   1.800
 5903TIP3   OH239267   4.908   4.777   7.710
 5903TIP3    H139268   4.967   4.764   7.785
 5903TIP3    H239269   4.840   4.836   7.743
 5904TIP3   OH239270   0.757   5.384   6.551
 5904TIP3    H139271   0.769   5.411   6.460
 5904TIP3    H239272   0.675   5.335   6.551
 5905TIP3   OH239273   5.429   2.520   1.626
 5905TIP3    H139274   5.429   2.502   1.532
 5905TIP3    H239275   5.438   2.615   1.632
 5906TIP3   OH239276   3.250   5.105   1.462
 5906TIP3    H139277   3.173   5.075   1.509
 5906TIP3    H239278   3.274   5.031   1.406
 5907TIP3   OH239279   3.578   5.288   0.395
 5907TIP3    H139280   3.506   5.349   0.405
 5907TIP3    H239281   3.601   5.293   0.302
 5908TIP3   OH239282   3.384   4.393   8.631
 5908TIP3    H139283   3.468   4.374   8.674
 5908TIP3    H239284   3.392   4.355   8.544
 5909TIP3   OH239285   2.738   0.446   8.045
 5909TIP3    H139286   2.803   0.516   8.045
 5909TIP3    H239287   2.779   0.375   7.996
 5910TIP3   OH239288   5.055   6.302   0.998
 5910TIP3    H139289   4.982   6.361   0.979
 5910TIP3    H239290   5.132   6.345   0.962
 5911TIP3   OH239291   4.663   5.027   6.886
 5911TIP3    H139292   4.637   4.959   6.823
 5911TIP3    H239293   4.742   5.066   6.848
 5912TIP3   OH239294   1.545   0.775   6.837
 5912TIP3    H139295   1.550   0.788   6.932
 5912TIP3    H239296   1.626   0.729   6.815
 5913TIP3   OH239297   3.145   4.038   7.556
 5913TIP3    H139298   3.103   4.103   7.612
 5913TIP3    H239299   3.185   4.089   7.486
 5914TIP3   OH239300   6.093   4.268   7.489
 5914TIP3    H139301   6.127   4.210   7.557
 5914TIP3    H239302   6.167   4.280   7.428
 5915TIP3   OH239303   5.173   6.055   1.780
 5915TIP3    H139304   5.165   6.020   1.869
 5915TIP3    H239305   5.242   6.121   1.787
 5916TIP3   OH239306   4.826   3.515   8.667
 5916TIP3    H139307   4.856   3.599   8.632
 5916TIP3    H239308   4.888   3.496   8.737
 5917TIP3   OH239309   0.712   5.829   1.802
 5917TIP3    H139310   0.740   5.918   1.826
 5917TIP3    H239311   0.721   5.827   1.707
 5918TIP3   OH239312   0.218   5.971   7.177
 5918TIP3    H139313   0.149   6.025   7.139
 5918TIP3    H239314   0.215   5.890   7.127
 5919TIP3   OH239315   4.027   2.139   0.357
 5919TIP3    H139316   4.031   2.223   0.401
 5919TIP3    H239317   4.005   2.077   0.427
 5920TIP3   OH239318   1.074   5.226   2.134
 5920TIP3    H139319   1.003   5.195   2.078
 5920TIP3    H239320   1.151   5.178   2.104
 5921TIP3   OH239321   5.071   5.549   8.266
 5921TIP3    H139322   5.049   5.619   8.328
 5921TIP3    H239323   5.132   5.494   8.315
 5922TIP3   OH239324   6.560   0.720   0.470
 5922TIP3    H139325   6.536   0.652   0.408
 5922TIP3    H239326   6.476   0.751   0.506
 5923TIP3   OH239327   0.298   0.608   6.540
 5923TIP3    H139328   0.259   0.617   6.627
 5923TIP3    H239329   0.295   0.696   6.503
 5924TIP3   OH239330   2.335   3.020   7.965
 5924TIP3    H139331   2.298   3.069   8.039
 5924TIP3    H239332   2.347   3.085   7.896
 5925TIP3   OH239333   5.750   3.629   7.973
 5925TIP3    H139334   5.765   3.589   8.058
 5925TIP3    H239335   5.814   3.587   7.915
 5926TIP3   OH239336   3.379   1.117   1.126
 5926TIP3    H139337   3.317   1.136   1.196
 5926TIP3    H239338   3.436   1.049   1.162
 5927TIP3   OH239339   3.831   6.469   1.825
 5927TIP3    H139340   3.808   6.519   1.903
 5927TIP3    H239341   3.909   6.419   1.851
 5928TIP3   OH239342   2.560   5.821   0.543
 5928TIP3    H139343   2.588   5.843   0.631
 5928TIP3    H239344   2.624   5.862   0.486
 5929TIP3   OH239345   0.671   0.922   8.567
 5929TIP3    H139346   0.637   0.844   8.612
 5929TIP3    H239347   0.643   0.995   8.621
 5930TIP3   OH239348   2.162   4.709   7.497
 5930TIP3    H139349   2.177   4.671   7.411
 5930TIP3    H239350   2.250   4.727   7.531
 5931TIP3   OH239351   6.612   4.607   1.408
 5931TIP3    H139352   6.537   4.593   1.465
 5931TIP3    H239353   6.615   4.530   1.352
 5932TIP3   OH239354   1.139   1.867   7.458
 5932TIP3    H139355   1.083   1.864   7.380
 5932TIP3    H239356   1.079   1.885   7.530
 5933TIP3   OH239357   6.287   0.938   1.718
 5933TIP3    H139358   6.260   0.850   1.692
 5933TIP3    H239359   6.347   0.924   1.792
 5934TIP3   OH239360   6.233   6.348   7.698
 5934TIP3    H139361   6.220   6.371   7.790
 5934TIP3    H239362   6.327   6.360   7.683
 5935TIP3   OH239363   6.685   4.196   1.112
 5935TIP3    H139364   6.765   4.217   1.063
 5935TIP3    H239365   6.716   4.159   1.194
 5936TIP3   OH239366   4.952   3.824   6.588
 5936TIP3    H139367   4.911   3.767   6.523
 5936TIP3    H239368   4.950   3.911   6.549
 5937TIP3   OH239369   1.367   1.737   0.756
 5937TIP3    H139370   1.444   1.728   0.812
 5937TIP3    H239371   1.342   1.647   0.735
 5938TIP3   OH239372   5.079   1.654   7.989
 5938TIP3    H139373   5.155   1.693   8.033
 5938TIP3    H239374   5.034   1.606   8.059
 5939TIP3   OH239375   4.866   2.065   7.630
 5939TIP3    H139376   4.864   2.132   7.561
 5939TIP3    H239377   4.902   1.988   7.586
 5940TIP3   OH239378   6.343   2.830   0.095
 5940TIP3    H139379   6.266   2.876   0.062
 5940TIP3    H239380   6.401   2.900   0.126
 5941TIP3   OH239381   2.347   0.613   2.816
 5941TIP3    H139382   2.267   0.664   2.833
 5941TIP3    H239383   2.366   0.630   2.723
 5942TIP3   OH239384   4.982   2.346   7.530
 5942TIP3    H139385   4.994   2.337   7.436
 5942TIP3    H239386   5.053   2.404   7.558
 5943TIP3   OH239387   2.944   5.245   0.365
 5943TIP3    H139388   3.001   5.314   0.331
 5943TIP3    H239389   2.867   5.291   0.398
 5944TIP3   OH239390   2.902   1.429   0.142
 5944TIP3    H139391   2.869   1.452   0.230
 5944TIP3    H239392   2.995   1.415   0.155
 5945TIP3   OH239393   2.629   5.178   7.994
 5945TIP3    H139394   2.606   5.259   8.039
 5945TIP3    H239395   2.561   5.167   7.927
 5946TIP3   OH239396   3.987   3.541   7.506
 5946TIP3    H139397   4.047   3.480   7.463
 5946TIP3    H239398   3.941   3.584   7.434
 5947TIP3   OH239399   0.153   6.761   7.388
 5947TIP3    H139400   0.104   6.767   7.470
 5947TIP3    H239401   0.087   6.769   7.320
 5948TIP3   OH239402   2.040   6.154   8.767
 5948TIP3    H139403   2.112   6.120   8.714
 5948TIP3    H239404   2.042   6.100   0.055
 5949TIP3   OH239405   5.601   4.567   7.837
 5949TIP3    H139406   5.563   4.610   7.914
 5949TIP3    H239407   5.576   4.475   7.847
 5950TIP3   OH239408   5.495   6.630   6.904
 5950TIP3    H139409   5.519   6.544   6.871
 5950TIP3    H239410   5.567   6.688   6.877
 5951TIP3   OH239411   6.036   1.718   1.214
 5951TIP3    H139412   5.989   1.799   1.196
 5951TIP3    H239413   6.107   1.744   1.273
 5952TIP3   OH239414   4.262   2.346   0.046
 5952TIP3    H139415   4.276   2.403   8.762
 5952TIP3    H239416   4.274   2.403   0.123
 5953TIP3   OH239417   4.880   4.331   1.025
 5953TIP3    H139418   4.790   4.302   1.014
 5953TIP3    H239419   4.875   4.405   1.086
 5954TIP3   OH239420   4.562   2.955   7.053
 5954TIP3    H139421   4.601   2.970   6.967
 5954TIP3    H239422   4.552   2.860   7.059
 5955TIP3   OH239423   0.587   2.348   1.662
 5955TIP3    H139424   0.534   2.400   1.722
 5955TIP3    H239425   0.675   2.384   1.670
 5956TIP3   OH239426   3.607   1.391   7.453
 5956TIP3    H139427   3.552   1.325   7.411
 5956TIP3    H239428   3.691   1.385   7.407
 5957TIP3   OH239429   5.014   6.757   6.588
 5957TIP3    H139430   4.931   6.724   6.553
 5957TIP3    H239431   5.068   6.773   6.511
 5958TIP3   OH239432   1.485   0.124   6.650
 5958TIP3    H139433   1.400   0.149   6.615
 5958TIP3    H239434   1.519   0.204   6.690
 5959TIP3   OH239435   6.599   3.643   0.289
 5959TIP3    H139436   6.513   3.603   0.302
 5959TIP3    H239437   6.586   3.736   0.307
 5960TIP3   OH239438   5.558   1.105   1.606
 5960TIP3    H139439   5.590   1.183   1.560
 5960TIP3    H239440   5.480   1.079   1.558
 5961TIP3   OH239441   3.128   0.474   1.935
 5961TIP3    H139442   3.187   0.430   1.997
 5961TIP3    H239443   3.168   0.560   1.921
 5962TIP3   OH239444   1.142   2.882   1.764
 5962TIP3    H139445   1.124   2.917   1.677
 5962TIP3    H239446   1.231   2.911   1.784
 5963TIP3   OH239447   1.304   0.350   6.217
 5963TIP3    H139448   1.349   0.376   6.137
 5963TIP3    H239449   1.211   0.355   6.195
 5964TIP3   OH239450   1.351   0.284   0.402
 5964TIP3    H139451   1.427   0.244   0.361
 5964TIP3    H239452   1.289   0.212   0.415
 5965TIP3   OH239453   0.239   0.930   1.749
 5965TIP3    H139454   0.261   0.858   1.807
 5965TIP3    H239455   0.188   0.889   1.678
 5966TIP3   OH239456   5.874   0.451   0.700
 5966TIP3    H139457   5.900   0.449   0.792
 5966TIP3    H239458   5.841   0.363   0.683
 5967TIP3   OH239459   6.179   5.514   7.972
 5967TIP3    H139460   6.129   5.463   7.908
 5967TIP3    H239461   6.233   5.572   7.919
 5968TIP3   OH239462   0.839   4.571   8.386
 5968TIP3    H139463   0.928   4.577   8.353
 5968TIP3    H239464   0.808   4.661   8.390
 5969TIP3   OH239465   0.500   0.262   1.571
 5969TIP3    H139466   0.433   0.223   1.626
 5969TIP3    H239467   0.482   0.227   1.483
 5970TIP3   OH239468   6.345   5.484   2.570
 5970TIP3    H139469   6.420   5.491   2.631
 5970TIP3    H239470   6.384   5.494   2.483
 5971TIP3   OH239471   4.392   3.862   2.047
 5971TIP3    H139472   4.298   3.870   2.065
 5971TIP3    H239473   4.425   3.952   2.050
 5972TIP3   OH239474   5.811   2.374   0.359
 5972TIP3    H139475   5.859   2.324   0.425
 5972TIP3    H239476   5.736   2.319   0.337
 5973TIP3   OH239477   1.178   2.911   1.474
 5973TIP3    H139478   1.270   2.906   1.450
 5973TIP3    H239479   1.137   2.836   1.432
 5974TIP3   OH239480   5.467   1.821   0.283
 5974TIP3    H139481   5.479   1.743   0.228
 5974TIP3    H239482   5.450   1.786   0.370
 5975TIP3   OH239483   3.377   6.176   2.424
 5975TIP3    H139484   3.455   6.172   2.479
 5975TIP3    H239485   3.380   6.263   2.384
 5976TIP3   OH239486   4.917   2.702   1.532
 5976TIP3    H139487   4.981   2.645   1.490
 5976TIP3    H239488   4.849   2.643   1.564
 5977TIP3   OH239489   0.061   0.817   8.415
 5977TIP3    H139490   0.018   0.732   8.410
 5977TIP3    H239491   0.034   0.863   8.336
 5978TIP3   OH239492   5.691   1.720   7.945
 5978TIP3    H139493   5.652   1.807   7.934
 5978TIP3    H239494   5.748   1.729   8.021
 5979TIP3   OH239495   2.671   4.679   0.526
 5979TIP3    H139496   2.588   4.704   0.566
 5979TIP3    H239497   2.684   4.742   0.455
 5980TIP3   OH239498   4.868   2.495   8.119
 5980TIP3    H139499   4.937   2.462   8.061
 5980TIP3    H239500   4.787   2.465   8.080
 5981TIP3   OH239501   2.813   3.627   1.824
 5981TIP3    H139502   2.745   3.571   1.862
 5981TIP3    H239503   2.838   3.686   1.895
 5982TIP3   OH239504   4.373   3.491   2.129
 5982TIP3    H139505   4.333   3.487   2.216
 5982TIP3    H239506   4.313   3.442   2.073
 5983TIP3   OH239507   2.211   1.252   1.097
 5983TIP3    H139508   2.245   1.315   1.160
 5983TIP3    H239509   2.149   1.199   1.148
 5984TIP3   OH239510   6.745   0.871   1.015
 5984TIP3    H139511   6.796   0.930   1.071
 5984TIP3    H239512   6.764   0.784   1.048
 5985TIP3   OH239513   4.709   1.481   7.394
 5985TIP3    H139514   4.695   1.497   7.301
 5985TIP3    H239515   4.804   1.477   7.404
 5986TIP3   OH239516   3.210   3.411   0.699
 5986TIP3    H139517   3.190   3.399   0.606
 5986TIP3    H239518   3.288   3.465   0.700
 5987TIP3   OH239519   6.019   0.709   6.917
 5987TIP3    H139520   6.041   0.669   6.833
 5987TIP3    H239521   6.030   0.803   6.902
 5988TIP3   OH239522   5.704   6.146   1.815
 5988TIP3    H139523   5.704   6.242   1.820
 5988TIP3    H239524   5.766   6.118   1.882
 5989TIP3   OH239525   5.143   4.174   7.503
 5989TIP3    H139526   5.059   4.127   7.501
 5989TIP3    H239527   5.200   4.123   7.447
 5990TIP3   OH239528   2.950   3.316   0.791
 5990TIP3    H139529   3.042   3.317   0.763
 5990TIP3    H239530   2.906   3.260   0.727
 5991TIP3   OH239531   0.737   1.199   6.054
 5991TIP3    H139532   0.761   1.123   6.001
 5991TIP3    H239533   0.752   1.170   6.145
 5992TIP3   OH239534   0.152   3.994   7.893
 5992TIP3    H139535   0.076   3.948   7.929
 5992TIP3    H239536   0.184   3.938   7.823
 5993TIP3   OH239537   0.649   0.167   0.839
 5993TIP3    H139538   0.742   0.173   0.863
 5993TIP3    H239539   0.629   0.254   0.803
 5994TIP3   OH239540   0.297   3.295   1.737
 5994TIP3    H139541   0.373   3.283   1.794
 5994TIP3    H239542   0.257   3.208   1.731
 5995TIP3   OH239543   5.303   0.049   1.277
 5995TIP3    H139544   5.373   0.088   1.330
 5995TIP3    H239545   5.225   0.101   1.297
 5996TIP3   OH239546   0.368   4.324   7.582
 5996TIP3    H139547   0.438   4.368   7.632
 5996TIP3    H239548   0.401   4.322   7.492
 5997TIP3   OH239549   3.404   2.023   2.053
 5997TIP3    H139550   3.352   2.070   2.118
 5997TIP3    H239551   3.444   2.092   2.000
 5998TIP3   OH239552   4.185   0.131   6.757
 5998TIP3    H139553   4.105   0.097   6.717
 5998TIP3    H239554   4.250   0.128   6.688
 5999TIP3   OH239555   5.497   2.559   7.909
 5999TIP3    H139556   5.428   2.492   7.904
 5999TIP3    H239557   5.570   2.515   7.951
 6000TIP3   OH239558   5.015   0.063   7.961
 6000TIP3    H139559   4.919   0.062   7.958
 6000TIP3    H239560   5.036   0.109   8.042
 6001TIP3   OH239561   2.470   3.344   8.107
 6001TIP3    H139562   2.387   3.308   8.074
 6001TIP3    H239563   2.522   3.357   8.028
 6002TIP3   OH239564   4.778   2.185   1.802
 6002TIP3    H139565   4.754   2.251   1.866
 6002TIP3    H239566   4.695   2.141   1.781
 6003TIP3   OH239567   2.677   5.725   1.157
 6003TIP3    H139568   2.733   5.667   1.209
 6003TIP3    H239569   2.713   5.812   1.170
 6004TIP3   OH239570   4.743   0.773   2.349
 6004TIP3    H139571   4.834   0.749   2.331
 6004TIP3    H239572   4.691   0.701   2.314
 6005TIP3   OH239573   6.783   2.190   7.751
 6005TIP3    H139574   0.026   2.121   7.719
 6005TIP3    H239575   6.713   2.143   7.796
 6006TIP3   OH239576   4.713   0.455   1.264
 6006TIP3    H139577   4.636   0.481   1.214
 6006TIP3    H239578   4.701   0.361   1.281
 6007TIP3   OH239579   6.788   2.710   8.291
 6007TIP3    H139580   6.779   2.716   8.386
 6007TIP3    H239581   6.778   2.617   8.272
 6008TIP3   OH239582   0.398   5.789   0.148
 6008TIP3    H139583   0.374   5.702   0.116
 6008TIP3    H239584   0.314   5.830   0.169
 6009TIP3   OH239585   5.553   1.918   7.763
 6009TIP3    H139586   5.621   1.960   7.710
 6009TIP3    H239587   5.503   1.866   7.700
 6010TIP3   OH239588   0.225   1.133   1.466
 6010TIP3    H139589   0.204   1.197   1.398
 6010TIP3    H239590   0.297   1.173   1.515
 6011TIP3   OH239591   6.320   0.702   7.116
 6011TIP3    H139592   6.330   0.769   7.048
 6011TIP3    H239593   6.293   0.623   7.068
 6012TIP3   OH239594   2.061   2.123   0.627
 6012TIP3    H139595   1.991   2.059   0.639
 6012TIP3    H239596   2.060   2.142   0.533
 6013TIP3   OH239597   6.107   6.391   1.288
 6013TIP3    H139598   6.058   6.373   1.368
 6013TIP3    H239599   6.164   6.464   1.312
 6014TIP3   OH239600   1.145   3.183   2.469
 6014TIP3    H139601   1.213   3.172   2.536
 6014TIP3    H239602   1.137   3.097   2.429
 6015TIP3   OH239603   4.432   6.372   8.787
 6015TIP3    H139604   4.417   6.403   8.698
 6015TIP3    H239605   4.384   6.289   0.002
 6016TIP3   OH239606   5.306   2.646   7.140
 6016TIP3    H139607   5.379   2.703   7.164
 6016TIP3    H239608   5.343   2.585   7.077
 6017TIP3   OH239609   2.623   0.770   7.475
 6017TIP3    H139610   2.565   0.811   7.539
 6017TIP3    H239611   2.709   0.771   7.516
 6018TIP3   OH239612   5.644   1.190   1.206
 6018TIP3    H139613   5.679   1.113   1.250
 6018TIP3    H239614   5.705   1.206   1.134
 6019TIP3   OH239615   1.431   1.539   1.561
 6019TIP3    H139616   1.406   1.457   1.520
 6019TIP3    H239617   1.463   1.514   1.648
 6020TIP3   OH239618   1.679   2.090   8.013
 6020TIP3    H139619   1.615   2.122   7.950
 6020TIP3    H239620   1.687   1.997   7.994
 6021TIP3   OH239621   1.844   0.254   7.979
 6021TIP3    H139622   1.856   0.253   7.884
 6021TIP3    H239623   1.925   0.216   8.014
 6022TIP3   OH239624   0.265   2.326   7.001
 6022TIP3    H139625   0.241   2.301   6.911
 6022TIP3    H239626   0.303   2.414   6.992
 6023TIP3   OH239627   1.677   2.458   1.413
 6023TIP3    H139628   1.754   2.475   1.468
 6023TIP3    H239629   1.685   2.367   1.388
 6024TIP3   OH239630   0.036   3.499   0.478
 6024TIP3    H139631   0.008   3.469   0.565
 6024TIP3    H239632   0.075   3.422   0.437
 6025TIP3   OH239633   2.844   2.886   0.060
 6025TIP3    H139634   2.807   2.904   8.764
 6025TIP3    H239635   2.794   2.942   0.119
 6026TIP3   OH239636   6.345   6.079   0.219
 6026TIP3    H139637   6.305   6.103   0.136
 6026TIP3    H239638   6.427   6.128   0.221
 6027TIP3   OH239639   6.651   4.970   8.623
 6027TIP3    H139640   6.723   5.028   8.599
 6027TIP3    H239641   6.675   4.885   8.585
 6028TIP3   OH239642   1.557   6.339   8.639
 6028TIP3    H139643   1.631   6.345   8.579
 6028TIP3    H239644   1.545   6.245   8.653
 6029TIP3   OH239645   4.993   2.604   6.927
 6029TIP3    H139646   4.968   2.559   6.846
 6029TIP3    H239647   4.913   2.602   6.981
 6030TIP3   OH239648   3.055   0.365   8.228
 6030TIP3    H139649   3.150   0.371   8.241
 6030TIP3    H239650   3.046   0.329   8.139
 6031TIP3   OH239651   2.220   3.694   8.488
 6031TIP3    H139652   2.198   3.787   8.493
 6031TIP3    H239653   2.245   3.671   8.578
 6032TIP3   OH239654   3.168   5.260   6.375
 6032TIP3    H139655   3.173   5.294   6.464
 6032TIP3    H239656   3.086   5.295   6.341
 6033TIP3   OH239657   5.184   1.166   1.799
 6033TIP3    H139658   5.274   1.138   1.817
 6033TIP3    H239659   5.164   1.229   1.868
 6034TIP3   OH239660   1.789   3.462   0.999
 6034TIP3    H139661   1.762   3.393   1.060
 6034TIP3    H239662   1.884   3.458   0.999
 6035TIP3   OH239663   6.020   3.887   7.201
 6035TIP3    H139664   6.093   3.825   7.194
 6035TIP3    H239665   6.056   3.969   7.168
 6036TIP3   OH239666   3.089   1.745   7.762
 6036TIP3    H139667   3.055   1.803   7.830
 6036TIP3    H239668   3.140   1.802   7.704
 6037TIP3   OH239669   1.548   6.447   1.449
 6037TIP3    H139670   1.454   6.460   1.438
 6037TIP3    H239671   1.586   6.534   1.436
 6038TIP3   OH239672   1.058   0.123   1.130
 6038TIP3    H139673   1.081   0.104   1.221
 6038TIP3    H239674   1.032   0.215   1.130
 6039TIP3   OH239675   3.835   1.508   8.379
 6039TIP3    H139676   3.876   1.432   8.336
 6039TIP3    H239677   3.790   1.554   8.308
 6040TIP3   OH239678   2.086   3.661   2.188
 6040TIP3    H139679   2.105   3.607   2.264
 6040TIP3    H239680   2.035   3.605   2.130
 6041TIP3   OH239681   6.230   1.612   7.394
 6041TIP3    H139682   6.159   1.599   7.457
 6041TIP3    H239683   6.231   1.707   7.379
 6042TIP3   OH239684   1.505   5.924   1.356
 6042TIP3    H139685   1.522   5.931   1.262
 6042TIP3    H239686   1.485   6.014   1.382
 6043TIP3   OH239687   4.787   1.130   2.256
 6043TIP3    H139688   4.879   1.156   2.248
 6043TIP3    H239689   4.739   1.205   2.221
 6044TIP3   OH239690   2.197   4.820   1.116
 6044TIP3    H139691   2.151   4.855   1.192
 6044TIP3    H239692   2.145   4.848   1.041
 6045TIP3   OH239693   1.059   4.739   8.464
 6045TIP3    H139694   1.043   4.688   8.543
 6045TIP3    H239695   0.986   4.801   8.460
 6046TIP3   OH239696   0.136   5.333   8.547
 6046TIP3    H139697   0.121   5.254   8.495
 6046TIP3    H239698   0.184   5.301   8.624
 6047TIP3   OH239699   0.043   1.048   7.357
 6047TIP3    H139700   0.090   1.131   7.369
 6047TIP3    H239701   6.786   1.070   7.297
 6048TIP3   OH239702   0.824   3.982   7.654
 6048TIP3    H139703   0.736   4.015   7.638
 6048TIP3    H239704   0.847   4.016   7.740
 6049TIP3   OH239705   2.507   4.658   1.516
 6049TIP3    H139706   2.517   4.578   1.568
 6049TIP3    H239707   2.554   4.639   1.435
 6050TIP3   OH239708   4.574   6.292   8.179
 6050TIP3    H139709   4.553   6.203   8.152
 6050TIP3    H239710   4.492   6.327   8.212
 6051TIP3   OH239711   4.994   5.050   8.721
 6051TIP3    H139712   4.909   5.026   8.758
 6051TIP3    H239713   4.985   5.031   8.627
 6052TIP3   OH239714   0.992   2.448   7.409
 6052TIP3    H139715   1.048   2.460   7.332
 6052TIP3    H239716   0.928   2.519   7.404
 6053TIP3   OH239717   1.595   6.264   6.983
 6053TIP3    H139718   1.562   6.247   6.895
 6053TIP3    H239719   1.584   6.359   6.995
 6054TIP3   OH239720   1.182   3.997   0.652
 6054TIP3    H139721   1.229   3.979   0.733
 6054TIP3    H239722   1.245   3.977   0.583
 6055TIP3   OH239723   1.955   1.900   7.702
 6055TIP3    H139724   1.970   1.829   7.640
 6055TIP3    H239725   1.923   1.973   7.648
 6056TIP3   OH239726   4.013   0.466   0.543
 6056TIP3    H139727   4.065   0.403   0.493
 6056TIP3    H239728   3.961   0.413   0.603
 6057TIP3   OH239729   5.384   4.775   1.602
 6057TIP3    H139730   5.377   4.748   1.693
 6057TIP3    H239731   5.462   4.831   1.600
 6058TIP3   OH239732   1.675   2.685   8.154
 6058TIP3    H139733   1.676   2.589   8.150
 6058TIP3    H239734   1.680   2.712   8.062
 6059TIP3   OH239735   4.276   4.119   7.115
 6059TIP3    H139736   4.318   4.176   7.051
 6059TIP3    H239737   4.277   4.032   7.075
 6060TIP3   OH239738   3.739   6.135   7.172
 6060TIP3    H139739   3.783   6.062   7.129
 6060TIP3    H239740   3.646   6.116   7.165
 6061TIP3   OH239741   4.499   6.421   8.495
 6061TIP3    H139742   4.538   6.502   8.525
 6061TIP3    H239743   4.561   6.353   8.521
 6062TIP3   OH239744   0.928   1.299   0.387
 6062TIP3    H139745   1.006   1.295   0.443
 6062TIP3    H239746   0.918   1.210   0.354
 6063TIP3   OH239747   4.740   4.183   1.949
 6063TIP3    H139748   4.783   4.233   1.880
 6063TIP3    H239749   4.704   4.106   1.904
 6064TIP3   OH239750   1.034   6.704   2.215
 6064TIP3    H139751   1.015   6.793   2.184
 6064TIP3    H239752   0.947   6.665   2.227
 6065TIP3   OH239753   4.957   2.384   7.229
 6065TIP3    H139754   4.942   2.348   7.142
 6065TIP3    H239755   4.869   2.398   7.265
 6066TIP3   OH239756   1.511   3.131   7.486
 6066TIP3    H139757   1.458   3.100   7.412
 6066TIP3    H239758   1.509   3.059   7.549
 6067TIP3   OH239759   5.010   4.927   8.494
 6067TIP3    H139760   4.965   4.844   8.474
 6067TIP3    H239761   4.969   4.991   8.436
 6068TIP3   OH239762   4.811   6.517   8.434
 6068TIP3    H139763   4.833   6.456   8.365
 6068TIP3    H239764   4.789   6.462   8.509
 6069TIP3   OH239765   4.626   1.129   7.092
 6069TIP3    H139766   4.587   1.174   7.018
 6069TIP3    H239767   4.581   1.044   7.095
 6070TIP3   OH239768   0.660   3.123   8.328
 6070TIP3    H139769   0.617   3.203   8.357
 6070TIP3    H239770   0.617   3.101   8.245
 6071TIP3   OH239771   6.322   1.341   7.953
 6071TIP3    H139772   6.380   1.326   8.028
 6071TIP3    H239773   6.293   1.431   7.962
 6072TIP3   OH239774   2.902   3.050   6.876
 6072TIP3    H139775   2.889   3.145   6.873
 6072TIP3    H239776   2.963   3.037   6.949
 6073TIP3   OH239777   5.701   3.113   7.796
 6073TIP3    H139778   5.637   3.083   7.731
 6073TIP3    H239779   5.774   3.146   7.744
 6074TIP3   OH239780   5.640   3.875   7.663
 6074TIP3    H139781   5.682   3.923   7.735
 6074TIP3    H239782   5.603   3.797   7.705
 6075TIP3   OH239783   1.064   5.702   1.576
 6075TIP3    H139784   1.068   5.770   1.508
 6075TIP3    H239785   1.096   5.623   1.532
 6076TIP3   OH239786   4.001   5.216   0.018
 6076TIP3    H139787   4.026   5.277   8.740
 6076TIP3    H239788   3.946   5.151   8.766
 6077TIP3   OH239789   0.443   6.032   8.450
 6077TIP3    H139790   0.386   5.986   8.387
 6077TIP3    H239791   0.458   5.967   8.519
 6078TIP3   OH239792   6.046   4.440   1.461
 6078TIP3    H139793   6.111   4.508   1.476
 6078TIP3    H239794   5.976   4.459   1.524
 6079TIP3   OH239795   3.971   1.922   0.519
 6079TIP3    H139796   3.940   1.832   0.506
 6079TIP3    H239797   4.023   1.917   0.600
 6080TIP3   OH239798   1.086   0.000   1.395
 6080TIP3    H139799   1.071   0.075   1.454
 6080TIP3    H239800   0.998   6.789   1.366
 6081TIP3   OH239801   5.296   0.470   1.878
 6081TIP3    H139802   5.315   0.516   1.960
 6081TIP3    H239803   5.378   0.425   1.856
 6082TIP3   OH239804   1.228   5.216   0.980
 6082TIP3    H139805   1.183   5.251   0.903
 6082TIP3    H239806   1.318   5.250   0.973
 6083TIP3   OH239807   4.937   6.554   1.270
 6083TIP3    H139808   4.930   6.561   1.175
 6083TIP3    H239809   5.018   6.503   1.284
 6084TIP3   OH239810   5.994   4.267   1.067
 6084TIP3    H139811   5.917   4.214   1.091
 6084TIP3    H239812   5.973   4.301   0.980
 6085TIP3   OH239813   5.591   5.853   7.398
 6085TIP3    H139814   5.640   5.907   7.336
 6085TIP3    H239815   5.620   5.763   7.380
 6086TIP3   OH239816   1.412   2.970   1.751
 6086TIP3    H139817   1.450   2.905   1.810
 6086TIP3    H239818   1.394   3.045   1.807
 6087TIP3   OH239819   5.380   0.384   2.765
 6087TIP3    H139820   5.387   0.452   2.697
 6087TIP3    H239821   5.286   0.372   2.776
 6088TIP3   OH239822   5.285   4.107   1.011
 6088TIP3    H139823   5.263   4.144   1.097
 6088TIP3    H239824   5.240   4.022   1.010
 6089TIP3   OH239825   4.522   1.384   8.416
 6089TIP3    H139826   4.429   1.374   8.393
 6089TIP3    H239827   4.524   1.462   8.472
 6090TIP3   OH239828   1.114   1.072   1.683
 6090TIP3    H139829   1.075   1.140   1.738
 6090TIP3    H239830   1.060   0.995   1.699
 6091TIP3   OH239831   1.433   6.634   8.414
 6091TIP3    H139832   1.369   6.693   8.454
 6091TIP3    H239833   1.381   6.574   8.361
 6092TIP3   OH239834   1.874   6.409   7.329
 6092TIP3    H139835   1.828   6.478   7.280
 6092TIP3    H239836   1.811   6.337   7.333
 6093TIP3   OH239837   3.794   4.388   1.970
 6093TIP3    H139838   3.876   4.403   1.924
 6093TIP3    H239839   3.751   4.473   1.971
 6094TIP3   OH239840   2.536   6.443   1.208
 6094TIP3    H139841   2.611   6.441   1.268
 6094TIP3    H239842   2.486   6.364   1.229
 6095TIP3   OH239843   0.931   3.804   0.014
 6095TIP3    H139844   0.921   3.720   8.760
 6095TIP3    H239845   0.959   3.780   0.103
 6096TIP3   OH239846   4.765   1.095   0.891
 6096TIP3    H139847   4.750   1.083   0.797
 6096TIP3    H239848   4.699   1.039   0.933
 6097TIP3   OH239849   1.719   1.444   1.332
 6097TIP3    H139850   1.713   1.532   1.294
 6097TIP3    H239851   1.806   1.441   1.371
 6098TIP3   OH239852   3.049   1.536   6.517
 6098TIP3    H139853   3.000   1.616   6.501
 6098TIP3    H239854   3.134   1.565   6.550
 6099TIP3   OH239855   5.554   5.221   6.542
 6099TIP3    H139856   5.535   5.299   6.594
 6099TIP3    H239857   5.628   5.180   6.586
 6100TIP3   OH239858   3.824   5.876   1.240
 6100TIP3    H139859   3.797   5.951   1.293
 6100TIP3    H239860   3.745   5.823   1.232
 6101TIP3   OH239861   3.814   3.624   1.973
 6101TIP3    H139862   3.733   3.638   1.924
 6101TIP3    H239863   3.835   3.710   2.009
 6102TIP3   OH239864   1.271   2.715   7.723
 6102TIP3    H139865   1.252   2.749   7.636
 6102TIP3    H239866   1.221   2.634   7.730
 6103TIP3   OH239867   0.784   3.915   1.350
 6103TIP3    H139868   0.796   3.830   1.308
 6103TIP3    H239869   0.764   3.975   1.278
 6104TIP3   OH239870   1.574   2.102   7.538
 6104TIP3    H139871   1.488   2.088   7.497
 6104TIP3    H239872   1.628   2.030   7.505
 6105TIP3   OH239873   0.526   3.641   6.690
 6105TIP3    H139874   0.485   3.617   6.607
 6105TIP3    H239875   0.454   3.673   6.744
 6106TIP3   OH239876   3.899   6.710   1.651
 6106TIP3    H139877   3.869   6.791   1.692
 6106TIP3    H239878   3.856   6.640   1.701
 6107TIP3   OH239879   0.691   4.082   0.789
 6107TIP3    H139880   0.671   4.094   0.696
 6107TIP3    H239881   0.776   4.124   0.801
 6108TIP3   OH239882   6.464   2.078   8.503
 6108TIP3    H139883   6.375   2.057   8.529
 6108TIP3    H239884   6.517   2.006   8.538
 6109TIP3   OH239885   3.412   0.264   1.269
 6109TIP3    H139886   3.508   0.265   1.271
 6109TIP3    H239887   3.387   0.230   1.355
 6110TIP3   OH239888   5.198   0.282   8.080
 6110TIP3    H139889   5.288   0.296   8.049
 6110TIP3    H239890   5.205   0.205   8.137
 6111TIP3   OH239891   2.738   3.950   8.374
 6111TIP3    H139892   2.726   3.886   8.445
 6111TIP3    H239893   2.707   3.906   8.296
 6112TIP3   OH239894   3.170   4.293   8.787
 6112TIP3    H139895   3.222   4.343   8.724
 6112TIP3    H239896   3.124   4.228   8.733
 6113TIP3   OH239897   3.960   5.797   7.339
 6113TIP3    H139898   3.886   5.776   7.281
 6113TIP3    H239899   3.938   5.754   7.421
 6114TIP3   OH239900   0.825   6.144   8.040
 6114TIP3    H139901   0.735   6.137   8.072
 6114TIP3    H239902   0.817   6.153   7.945
 6115TIP3   OH239903   1.507   0.214   7.395
 6115TIP3    H139904   1.546   0.147   7.339
 6115TIP3    H239905   1.579   0.273   7.417
 6116TIP3   OH239906   0.730   3.998   7.126
 6116TIP3    H139907   0.804   4.038   7.080
 6116TIP3    H239908   0.663   4.065   7.127
 6117TIP3   OH239909   5.289   6.164   2.396
 6117TIP3    H139910   5.319   6.078   2.368
 6117TIP3    H239911   5.331   6.225   2.336
 6118TIP3   OH239912   2.536   4.736   7.233
 6118TIP3    H139913   2.511   4.828   7.248
 6118TIP3    H239914   2.588   4.713   7.310
 6119TIP3   OH239915   5.821   5.954   2.181
 6119TIP3    H139916   5.739   5.967   2.134
 6119TIP3    H239917   5.813   6.009   2.259
 6120TIP3   OH239918   3.240   3.050   1.970
 6120TIP3    H139919   3.294   3.125   1.997
 6120TIP3    H239920   3.227   3.000   2.051
 6121TIP3   OH239921   3.005   1.413   6.845
 6121TIP3    H139922   3.035   1.504   6.841
 6121TIP3    H239923   3.024   1.377   6.758
 6122TIP3   OH239924   1.480   6.102   7.606
 6122TIP3    H139925   1.551   6.043   7.629
 6122TIP3    H239926   1.420   6.098   7.681
 6123TIP3   OH239927   1.021   6.559   1.114
 6123TIP3    H139928   0.957   6.536   1.046
 6123TIP3    H239929   1.094   6.597   1.065
 6124TIP3   OH239930   1.676   4.319   8.129
 6124TIP3    H139931   1.707   4.253   8.067
 6124TIP3    H239932   1.653   4.268   8.207
 6125TIP3   OH239933   0.518   5.613   0.564
 6125TIP3    H139934   0.555   5.651   0.644
 6125TIP3    H239935   0.518   5.518   0.580
 6126TIP3   OH239936   1.398   5.782   0.661
 6126TIP3    H139937   1.351   5.847   0.608
 6126TIP3    H239938   1.457   5.739   0.600
 6127TIP3   OH239939   1.146   6.341   0.381
 6127TIP3    H139940   1.218   6.285   0.409
 6127TIP3    H239941   1.103   6.367   0.463
 6128TIP3   OH239942   5.190   3.073   8.683
 6128TIP3    H139943   5.113   3.062   8.628
 6128TIP3    H239944   5.264   3.058   8.625
 6129TIP3   OH239945   3.460   2.541   7.787
 6129TIP3    H139946   3.409   2.494   7.854
 6129TIP3    H239947   3.399   2.605   7.751
 6130TIP3   OH239948   4.353   4.184   0.195
 6130TIP3    H139949   4.290   4.125   0.238
 6130TIP3    H239950   4.326   4.272   0.222
 6131TIP3   OH239951   0.342   1.875   0.569
 6131TIP3    H139952   0.416   1.817   0.586
 6131TIP3    H239953   0.380   1.949   0.522
 6132TIP3   OH239954   2.851   2.005   0.228
 6132TIP3    H139955   2.866   2.021   0.135
 6132TIP3    H239956   2.764   2.043   0.245
 6133TIP3   OH239957   1.349   0.507   7.229
 6133TIP3    H139958   1.376   0.479   7.317
 6133TIP3    H239959   1.258   0.534   7.238
 6134TIP3   OH239960   1.696   6.776   0.869
 6134TIP3    H139961   1.739   6.691   0.875
 6134TIP3    H239962   1.731   0.012   0.942
 6135TIP3   OH239963   0.278   4.054   6.756
 6135TIP3    H139964   0.218   4.015   6.692
 6135TIP3    H239965   0.228   4.056   6.838
 6136TIP3   OH239966   3.400   2.286   7.064
 6136TIP3    H139967   3.451   2.297   7.144
 6136TIP3    H239968   3.331   2.352   7.069
 6137TIP3   OH239969   2.569   2.869   1.860
 6137TIP3    H139970   2.503   2.814   1.819
 6137TIP3    H239971   2.649   2.851   1.812
 6138TIP3   OH239972   4.240   2.509   1.761
 6138TIP3    H139973   4.281   2.506   1.848
 6138TIP3    H239974   4.200   2.596   1.757
 6139TIP3   OH239975   3.502   2.203   8.309
 6139TIP3    H139976   3.514   2.138   8.239
 6139TIP3    H239977   3.590   2.238   8.325
 6140TIP3   OH239978   6.185   6.797   0.536
 6140TIP3    H139979   6.114   6.734   0.549
 6140TIP3    H239980   6.171   0.049   0.602
 6141TIP3   OH239981   4.357   2.143   8.012
 6141TIP3    H139982   4.365   2.209   7.942
 6141TIP3    H239983   4.397   2.065   7.975
 6142TIP3   OH239984   0.470   0.394   0.444
 6142TIP3    H139985   0.377   0.410   0.458
 6142TIP3    H239986   0.512   0.476   0.470
 6143TIP3   OH239987   1.297   2.376   1.248
 6143TIP3    H139988   1.282   2.385   1.154
 6143TIP3    H239989   1.354   2.300   1.256
 6144TIP3   OH239990   3.144   1.343   8.492
 6144TIP3    H139991   3.186   1.292   8.424
 6144TIP3    H239992   3.095   1.279   8.544
 6145TIP3   OH239993   3.993   5.240   0.559
 6145TIP3    H139994   3.984   5.225   0.465
 6145TIP3    H239995   4.059   5.309   0.566
 6146TIP3   OH239996   1.734   4.980   1.880
 6146TIP3    H139997   1.644   5.011   1.876
 6146TIP3    H239998   1.756   4.979   1.973
 6147TIP3   OH239999   6.241   1.907   7.077
 6147TIP3    H140000   6.278   1.932   6.992
 6147TIP3    H240001   6.149   1.889   7.058
 6148TIP3   OH240002   0.882   0.939   2.290
 6148TIP3    H140003   0.806   0.896   2.329
 6148TIP3    H240004   0.875   1.030   2.319
 6149TIP3   OH240005   2.955   6.219   0.111
 6149TIP3    H140006   3.032   6.275   0.123
 6149TIP3    H240007   2.948   6.208   0.017
 6150TIP3   OH240008   4.663   4.377   0.057
 6150TIP3    H140009   4.683   4.422   0.140
 6150TIP3    H240010   4.605   4.438   0.011
 6151TIP3   OH240011   0.898   5.094   1.967
 6151TIP3    H140012   0.946   5.048   1.899
 6151TIP3    H240013   0.848   5.026   2.012
 6152TIP3   OH240014   3.512   4.751   0.678
 6152TIP3    H140015   3.459   4.724   0.604
 6152TIP3    H240016   3.558   4.830   0.649
 6153TIP3   OH240017   6.773   1.829   8.248
 6153TIP3    H140018   0.044   1.821   8.206
 6153TIP3    H240019   6.750   1.739   8.272
 6154TIP3   OH240020   4.383   6.365   1.282
 6154TIP3    H140021   4.478   6.358   1.280
 6154TIP3    H240022   4.352   6.283   1.320
 6155TIP3   OH240023   0.253   1.201   8.436
 6155TIP3    H140024   0.193   1.267   8.401
 6155TIP3    H240025   0.339   1.243   8.434
 6156TIP3   OH240026   0.566   6.700   8.099
 6156TIP3    H140027   0.648   6.653   8.086
 6156TIP3    H240028   0.589   6.792   8.092
 6157TIP3   OH240029   0.209   0.434   0.510
 6157TIP3    H140030   0.123   0.467   0.534
 6157TIP3    H240031   0.208   0.341   0.534
 6158TIP3   OH240032   4.979   1.567   0.636
 6158TIP3    H140033   5.027   1.645   0.607
 6158TIP3    H240034   5.046   1.511   0.675
 6159TIP3   OH240035   3.062   3.743   2.415
 6159TIP3    H140036   3.051   3.829   2.457
 6159TIP3    H240037   3.002   3.686   2.463
 6160TIP3   OH240038   0.219   2.042   1.333
 6160TIP3    H140039   0.267   2.093   1.268
 6160TIP3    H240040   0.202   1.958   1.290
 6161TIP3   OH240041   3.458   6.005   1.588
 6161TIP3    H140042   3.482   6.025   1.679
 6161TIP3    H240043   3.363   6.020   1.585
 6162TIP3   OH240044   2.208   5.734   7.209
 6162TIP3    H140045   2.293   5.754   7.250
 6162TIP3    H240046   2.227   5.664   7.147
 6163TIP3   OH240047   0.680   3.374   2.281
 6163TIP3    H140048   0.691   3.334   2.367
 6163TIP3    H240049   0.609   3.325   2.240
 6164TIP3   OH240050   1.030   1.092   0.022
 6164TIP3    H140051   0.994   1.030   8.749
 6164TIP3    H240052   0.969   1.166   0.021
 6165TIP3   OH240053   6.730   3.088   8.323
 6165TIP3    H140054   6.745   3.157   8.388
 6165TIP3    H240055   6.809   3.034   8.328
 6166TIP3   OH240056   6.308   2.559   0.801
 6166TIP3    H140057   6.287   2.596   0.716
 6166TIP3    H240058   6.236   2.586   0.858
 6167TIP3   OH240059   2.130   0.125   2.627
 6167TIP3    H140060   2.142   0.218   2.648
 6167TIP3    H240061   2.200   0.081   2.675
 6168TIP3   OH240062   5.733   6.435   1.903
 6168TIP3    H140063   5.691   6.423   1.988
 6168TIP3    H240064   5.663   6.469   1.847
 6169TIP3   OH240065   3.320   4.000   0.889
 6169TIP3    H140066   3.303   3.908   0.908
 6169TIP3    H240067   3.238   4.033   0.851
 6170TIP3   OH240068   4.036   0.192   8.095
 6170TIP3    H140069   4.013   0.284   8.109
 6170TIP3    H240070   4.119   0.180   8.141
 6171TIP3   OH240071   4.925   6.175   1.574
 6171TIP3    H140072   4.978   6.132   1.642
 6171TIP3    H240073   4.906   6.106   1.511
 6172TIP3   OH240074   0.778   2.379   7.949
 6172TIP3    H140075   0.778   2.389   7.854
 6172TIP3    H240076   0.865   2.343   7.969
 6173TIP3   OH240077   6.686   1.957   0.591
 6173TIP3    H140078   6.602   1.914   0.576
 6173TIP3    H240079   6.716   1.922   0.675
 6174TIP3   OH240080   6.534   4.098   7.916
 6174TIP3    H140081   6.567   4.167   7.858
 6174TIP3    H240082   6.473   4.143   7.975
 6175TIP3   OH240083   1.323   5.343   1.255
 6175TIP3    H140084   1.320   5.324   1.161
 6175TIP3    H240085   1.410   5.378   1.270
 6176TIP3   OH240086   0.811   3.963   0.259
 6176TIP3    H140087   0.858   3.919   0.330
 6176TIP3    H240088   0.760   3.893   0.218
 6177TIP3   OH240089   0.905   0.625   8.410
 6177TIP3    H140090   0.997   0.646   8.424
 6177TIP3    H240091   0.864   0.632   8.496
 6178TIP3   OH240092   5.617   1.156   0.387
 6178TIP3    H140093   5.636   1.073   0.429
 6178TIP3    H240094   5.521   1.158   0.380
 6179TIP3   OH240095   2.369   6.275   8.725
 6179TIP3    H140096   2.309   6.227   8.667
 6179TIP3    H240097   2.374   6.363   8.688
 6180TIP3   OH240098   2.423   0.569   1.364
 6180TIP3    H140099   2.366   0.537   1.295
 6180TIP3    H240100   2.364   0.613   1.426
 6181TIP3   OH240101   4.602   1.071   0.644
 6181TIP3    H140102   4.638   1.069   0.555
 6181TIP3    H240103   4.577   1.162   0.658
 6182TIP3   OH240104   0.148   2.941   8.318
 6182TIP3    H140105   0.090   2.876   8.281
 6182TIP3    H240106   0.220   2.890   8.356
 6183TIP3   OH240107   1.330   2.896   0.901
 6183TIP3    H140108   1.375   2.948   0.968
 6183TIP3    H240109   1.251   2.946   0.882
 6184TIP3   OH240110   4.943   1.025   7.854
 6184TIP3    H140111   4.997   0.970   7.911
 6184TIP3    H240112   4.987   1.022   7.769
 6185TIP3   OH240113   0.567   0.522   6.459
 6185TIP3    H140114   0.491   0.555   6.506
 6185TIP3    H240115   0.549   0.428   6.447
 6186TIP3   OH240116   5.718   3.037   7.450
 6186TIP3    H140117   5.632   3.022   7.489
 6186TIP3    H240118   5.699   3.077   7.365
 6187TIP3   OH240119   3.679   1.038   1.035
 6187TIP3    H140120   3.611   0.975   1.059
 6187TIP3    H240121   3.669   1.049   0.940
 6188TIP3   OH240122   2.015   2.178   6.524
 6188TIP3    H140123   1.969   2.096   6.506
 6188TIP3    H240124   1.950   2.247   6.508
 6189TIP3   OH240125   1.455   4.115   6.952
 6189TIP3    H140126   1.521   4.071   7.006
 6189TIP3    H240127   1.504   4.147   6.876
 6190TIP3   OH240128   4.363   2.734   8.487
 6190TIP3    H140129   4.280   2.782   8.490
 6190TIP3    H240130   4.429   2.801   8.469
 6191TIP3   OH240131   6.665   2.452   8.244
 6191TIP3    H140132   6.600   2.384   8.263
 6191TIP3    H240133   6.691   2.436   8.153
 6192TIP3   OH240134   2.175   1.610   0.503
 6192TIP3    H140135   2.203   1.622   0.594
 6192TIP3    H240136   2.198   1.520   0.482
 6193TIP3   OH240137   6.080   0.977   0.815
 6193TIP3    H140138   6.107   1.008   0.901
 6193TIP3    H240139   6.019   0.906   0.833
 6194TIP3   OH240140   5.439   2.105   1.638
 6194TIP3    H140141   5.363   2.147   1.597
 6194TIP3    H240142   5.474   2.046   1.571
 6195TIP3   OH240143   4.222   5.522   2.208
 6195TIP3    H140144   4.226   5.438   2.255
 6195TIP3    H240145   4.311   5.556   2.213
 6196TIP3   OH240146   6.283   5.902   1.074
 6196TIP3    H140147   6.223   5.829   1.090
 6196TIP3    H240148   6.365   5.861   1.047
 6197TIP3   OH240149   2.979   6.316   8.191
 6197TIP3    H140150   2.960   6.236   8.238
 6197TIP3    H240151   2.914   6.379   8.222
 6198TIP3   OH240152   5.381   0.364   0.020
 6198TIP3    H140153   5.437   0.328   0.089
 6198TIP3    H240154   5.292   0.345   0.050
 6199TIP3   OH240155   6.543   1.316   7.225
 6199TIP3    H140156   6.514   1.329   7.316
 6199TIP3    H240157   6.550   1.404   7.189
 6200TIP3   OH240158   0.849   0.131   7.329
 6200TIP3    H140159   0.776   0.082   7.367
 6200TIP3    H240160   0.816   0.157   7.243
 6201TIP3   OH240161   2.948   6.593   1.534
 6201TIP3    H140162   2.989   6.603   1.448
 6201TIP3    H240163   2.953   6.680   1.572
 6202TIP3   OH240164   6.389   0.823   7.347
 6202TIP3    H140165   6.425   0.781   7.269
 6202TIP3    H240166   6.299   0.789   7.353
 6203TIP3   OH240167   0.064   4.170   0.438
 6203TIP3    H140168   0.018   4.175   0.522
 6203TIP3    H240169   0.100   4.081   0.436
 6204TIP3   OH240170   0.480   4.167   1.756
 6204TIP3    H140171   0.427   4.230   1.805
 6204TIP3    H240172   0.570   4.195   1.770
 6205TIP3   OH240173   6.580   5.979   2.358
 6205TIP3    H140174   6.584   6.041   2.432
 6205TIP3    H240175   6.620   6.027   2.285
 6206TIP3   OH240176   3.261   0.567   0.358
 6206TIP3    H140177   3.255   0.472   0.366
 6206TIP3    H240178   3.290   0.583   0.268
 6207TIP3   OH240179   4.501   6.733   1.522
 6207TIP3    H140180   4.588   6.693   1.517
 6207TIP3    H240181   4.507   6.793   1.596
 6208TIP3   OH240182   6.148   4.478   2.172
 6208TIP3    H140183   6.154   4.385   2.192
 6208TIP3    H240184   6.074   4.485   2.112
 6209TIP3   OH240185   1.832   6.007   7.367
 6209TIP3    H140186   1.775   6.053   7.307
 6209TIP3    H240187   1.899   6.072   7.391
 6210TIP3   OH240188   1.787   3.148   7.581
 6210TIP3    H140189   1.795   3.111   7.669
 6210TIP3    H240190   1.696   3.175   7.574
 6211TIP3   OH240191   6.258   2.696   1.680
 6211TIP3    H140192   6.297   2.695   1.593
 6211TIP3    H240193   6.290   2.616   1.722
 6212TIP3   OH240194   0.693   6.012   0.796
 6212TIP3    H140195   0.732   5.981   0.715
 6212TIP3    H240196   0.599   6.010   0.779
 6213TIP3   OH240197   3.920   3.561   0.619
 6213TIP3    H140198   3.899   3.494   0.685
 6213TIP3    H240199   4.011   3.543   0.595
 6214TIP3   OH240200   2.406   4.075   6.504
 6214TIP3    H140201   2.432   4.117   6.586
 6214TIP3    H240202   2.478   4.093   6.444
 6215TIP3   OH240203   6.171   3.271   7.363
 6215TIP3    H140204   6.087   3.233   7.337
 6215TIP3    H240205   6.193   3.332   7.292
 6216TIP3   OH240206   6.746   5.603   0.806
 6216TIP3    H140207   6.705   5.665   0.866
 6216TIP3    H240208   6.782   5.658   0.736
 6217TIP3   OH240209   0.584   0.468   8.307
 6217TIP3    H140210   0.537   0.549   8.326
 6217TIP3    H240211   0.622   0.443   8.391
 6218TIP3   OH240212   2.444   0.540   1.721
 6218TIP3    H140213   2.490   0.469   1.675
 6218TIP3    H240214   2.397   0.497   1.792
 6219TIP3   OH240215   6.067   0.445   7.901
 6219TIP3    H140216   6.033   0.487   7.823
 6219TIP3    H240217   6.159   0.472   7.906
 6220TIP3   OH240218   3.485   1.768   1.177
 6220TIP3    H140219   3.391   1.783   1.169
 6220TIP3    H240220   3.515   1.759   1.086
 6221TIP3   OH240221   6.171   1.055   8.119
 6221TIP3    H140222   6.097   1.034   8.175
 6221TIP3    H240223   6.169   1.150   8.111
 6222TIP3   OH240224   3.992   1.732   8.438
 6222TIP3    H140225   4.027   1.723   8.350
 6222TIP3    H240226   3.909   1.684   8.437
 6223TIP3   OH240227   5.435   0.598   8.675
 6223TIP3    H140228   5.356   0.651   8.682
 6223TIP3    H240229   5.405   0.508   8.680
 6224TIP3   OH240230   0.489   6.474   0.477
 6224TIP3    H140231   0.442   6.528   0.541
 6224TIP3    H240232   0.546   6.536   0.431
 6225TIP3   OH240233   5.440   0.334   7.614
 6225TIP3    H140234   5.536   0.329   7.619
 6225TIP3    H240235   5.410   0.249   7.648
 6226TIP3   OH240236   0.630   4.134   0.526
 6226TIP3    H140237   0.539   4.163   0.538
 6226TIP3    H240238   0.674   4.210   0.488
 6227TIP3   OH240239   1.471   0.595   2.549
 6227TIP3    H140240   1.427   0.612   2.466
 6227TIP3    H240241   1.542   0.535   2.527
 6228TIP3   OH240242   1.755   2.097   8.276
 6228TIP3    H140243   1.763   2.105   8.181
 6228TIP3    H240244   1.663   2.073   8.290
 6229TIP3   OH240245   4.046   6.235   6.979
 6229TIP3    H140246   4.051   6.151   6.934
 6229TIP3    H240247   4.092   6.296   6.921
 6230TIP3   OH240248   1.516   1.878   1.537
 6230TIP3    H140249   1.479   1.945   1.595
 6230TIP3    H240250   1.440   1.831   1.503
 6231TIP3   OH240251   4.391   2.853   6.577
 6231TIP3    H140252   4.464   2.872   6.519
 6231TIP3    H240253   4.319   2.907   6.544
 6232TIP3   OH240254   4.319   0.198   8.188
 6232TIP3    H140255   4.373   0.274   8.212
 6232TIP3    H240256   4.382   0.135   8.152
 6233TIP3   OH240257   4.032   3.786   7.701
 6233TIP3    H140258   3.984   3.833   7.633
 6233TIP3    H240259   4.080   3.718   7.653
 6234TIP3   OH240260   2.113   5.303   8.493
 6234TIP3    H140261   2.140   5.394   8.504
 6234TIP3    H240262   2.072   5.299   8.407
 6235TIP3   OH240263   0.094   1.361   0.652
 6235TIP3    H140264   0.174   1.403   0.619
 6235TIP3    H240265   0.122   1.315   0.732
 6236TIP3   OH240266   2.420   6.491   6.893
 6236TIP3    H140267   2.373   6.573   6.909
 6236TIP3    H240268   2.353   6.423   6.905
 6237TIP3   OH240269   5.752   5.014   1.240
 6237TIP3    H140270   5.693   5.089   1.234
 6237TIP3    H240271   5.821   5.043   1.300
 6238TIP3   OH240272   4.006   4.769   8.311
 6238TIP3    H140273   4.000   4.826   8.234
 6238TIP3    H240274   3.983   4.682   8.277
 6239TIP3   OH240275   5.260   2.111   6.563
 6239TIP3    H140276   5.336   2.081   6.512
 6239TIP3    H240277   5.262   2.206   6.555
 6240TIP3   OH240278   3.746   1.689   8.181
 6240TIP3    H140279   3.769   1.781   8.176
 6240TIP3    H240280   3.682   1.676   8.110
 6241TIP3   OH240281   1.382   4.022   7.331
 6241TIP3    H140282   1.349   3.995   7.417
 6241TIP3    H240283   1.452   4.084   7.351
 6242TIP3   OH240284   4.303   0.721   2.331
 6242TIP3    H140285   4.253   0.748   2.409
 6242TIP3    H240286   4.279   0.785   2.264
 6243TIP3   OH240287   6.703   3.594   6.327
 6243TIP3    H140288   6.649   3.662   6.366
 6243TIP3    H240289   6.766   3.643   6.273
 6244TIP3   OH240290   1.885   4.238   8.697
 6244TIP3    H140291   1.838   4.308   8.741
 6244TIP3    H240292   1.956   4.282   8.651
 6245TIP3   OH240293   6.315   2.897   1.937
 6245TIP3    H140294   6.279   2.836   1.872
 6245TIP3    H240295   6.410   2.881   1.935
 6246TIP3   OH240296   4.751   3.880   2.026
 6246TIP3    H140297   4.807   3.905   2.099
 6246TIP3    H240298   4.727   3.789   2.044
 6247TIP3   OH240299   0.306   0.902   0.918
 6247TIP3    H140300   0.336   0.813   0.937
 6247TIP3    H240301   0.237   0.890   0.852
 6248TIP3   OH240302   0.663   1.965   0.809
 6248TIP3    H140303   0.695   1.911   0.736
 6248TIP3    H240304   0.681   2.055   0.781
 6249TIP3   OH240305   3.919   3.102   7.095
 6249TIP3    H140306   3.971   3.162   7.041
 6249TIP3    H240307   3.829   3.133   7.086
 6250TIP3   OH240308   6.090   5.000   0.536
 6250TIP3    H140309   6.138   5.005   0.454
 6250TIP3    H240310   6.002   5.031   0.514
 6251TIP3   OH240311   1.502   2.658   0.052
 6251TIP3    H140312   1.532   2.743   0.021
 6251TIP3    H240313   1.468   2.675   0.140
 6252TIP3   OH240314   1.201   4.622   7.119
 6252TIP3    H140315   1.295   4.611   7.129
 6252TIP3    H240316   1.188   4.635   7.025
 6253TIP3   OH240317   4.851   4.772   0.986
 6253TIP3    H140318   4.849   4.748   0.894
 6253TIP3    H240319   4.798   4.705   1.029
 6254TIP3   OH240320   5.707   4.764   8.578
 6254TIP3    H140321   5.723   4.671   8.562
 6254TIP3    H240322   5.777   4.790   8.638
 6255TIP3   OH240323   2.406   1.258   7.371
 6255TIP3    H140324   2.406   1.176   7.421
 6255TIP3    H240325   2.329   1.252   7.314
 6256TIP3   OH240326   2.162   1.003   8.360
 6256TIP3    H140327   2.166   0.993   8.265
 6256TIP3    H240328   2.246   1.042   8.383
 6257TIP3   OH240329   4.723   3.335   0.879
 6257TIP3    H140330   4.797   3.284   0.910
 6257TIP3    H240331   4.761   3.414   0.843
 6258TIP3   OH240332   5.523   3.267   7.926
 6258TIP3    H140333   5.590   3.225   7.872
 6258TIP3    H240334   5.499   3.201   7.991
 6259TIP3   OH240335   3.117   3.913   1.846
 6259TIP3    H140336   3.198   3.863   1.852
 6259TIP3    H240337   3.082   3.914   1.935
 6260TIP3   OH240338   3.056   2.124   0.475
 6260TIP3    H140339   3.137   2.162   0.441
 6260TIP3    H240340   3.079   2.094   0.563
 6261TIP3   OH240341   1.779   4.261   8.389
 6261TIP3    H140342   1.709   4.196   8.395
 6261TIP3    H240343   1.811   4.269   8.479
 6262TIP3   OH240344   2.944   5.768   1.663
 6262TIP3    H140345   2.936   5.845   1.721
 6262TIP3    H240346   2.954   5.694   1.723
 6263TIP3   OH240347   5.159   4.747   0.945
 6263TIP3    H140348   5.067   4.768   0.965
 6263TIP3    H240349   5.207   4.825   0.972
 6264TIP3   OH240350   1.724   4.638   0.186
 6264TIP3    H140351   1.638   4.641   0.227
 6264TIP3    H240352   1.735   4.545   0.162
 6265TIP3   OH240353   0.003   6.207   2.393
 6265TIP3    H140354   0.089   6.239   2.419
 6265TIP3    H240355   6.787   6.270   2.328
 6266TIP3   OH240356   5.365   2.788   7.820
 6266TIP3    H140357   5.386   2.712   7.873
 6266TIP3    H240358   5.330   2.852   7.883
 6267TIP3   OH240359   4.523   4.075   7.796
 6267TIP3    H140360   4.608   4.062   7.755
 6267TIP3    H240361   4.473   4.127   7.732
 6268TIP3   OH240362   0.377   3.863   6.316
 6268TIP3    H140363   0.357   3.837   6.406
 6268TIP3    H240364   0.402   3.782   6.272
 6269TIP3   OH240365   5.934   5.321   1.052
 6269TIP3    H140366   5.965   5.377   0.981
 6269TIP3    H240367   5.910   5.239   1.009
 6270TIP3   OH240368   2.778   2.361   8.003
 6270TIP3    H140369   2.750   2.385   7.914
 6270TIP3    H240370   2.710   2.396   8.060
 6271TIP3   OH240371   6.057   0.243   2.231
 6271TIP3    H140372   6.144   0.242   2.191
 6271TIP3    H240373   6.064   0.308   2.301
 6272TIP3   OH240374   0.654   6.676   0.977
 6272TIP3    H140375   0.653   6.771   0.975
 6272TIP3    H240376   0.571   6.649   0.938
 6273TIP3   OH240377   3.506   2.626   1.884
 6273TIP3    H140378   3.556   2.555   1.926
 6273TIP3    H240379   3.569   2.698   1.875
 6274TIP3   OH240380   1.797   5.487   8.487
 6274TIP3    H140381   1.772   5.395   8.477
 6274TIP3    H240382   1.802   5.500   8.581
 6275TIP3   OH240383   6.431   3.439   1.652
 6275TIP3    H140384   6.442   3.389   1.733
 6275TIP3    H240385   6.337   3.439   1.636
 6276TIP3   OH240386   0.736   2.862   6.926
 6276TIP3    H140387   0.688   2.892   6.849
 6276TIP3    H240388   0.761   2.772   6.905
 6277TIP3   OH240389   3.439   3.553   0.919
 6277TIP3    H140390   3.524   3.534   0.880
 6277TIP3    H240391   3.411   3.470   0.958
 6278TIP3   OH240392   1.766   6.633   0.298
 6278TIP3    H140393   1.766   6.727   0.317
 6278TIP3    H240394   1.780   6.627   0.203
 6279TIP3   OH240395   0.384   4.544   6.839
 6279TIP3    H140396   0.351   4.537   6.929
 6279TIP3    H240397   0.358   4.462   6.797
 6280TIP3   OH240398   3.236   1.695   7.215
 6280TIP3    H140399   3.274   1.672   7.130
 6280TIP3    H240400   3.280   1.776   7.240
 6281TIP3   OH240401   3.019   0.366   0.198
 6281TIP3    H140402   2.984   0.395   0.282
 6281TIP3    H240403   2.979   0.280   0.184
 6282TIP3   OH240404   6.555   1.178   0.471
 6282TIP3    H140405   6.571   1.264   0.431
 6282TIP3    H240406   6.566   1.193   0.565
 6283TIP3   OH240407   2.427   0.083   1.997
 6283TIP3    H140408   2.415   0.166   1.950
 6283TIP3    H240409   2.447   0.020   1.928
 6284TIP3   OH240410   6.768   0.430   6.978
 6284TIP3    H140411   6.680   0.436   6.941
 6284TIP3    H240412   0.010   0.419   6.901
 6285TIP3   OH240413   1.129   6.076   7.990
 6285TIP3    H140414   1.136   5.990   7.949
 6285TIP3    H240415   1.038   6.081   8.020
 6286TIP3   OH240416   6.150   2.494   1.394
 6286TIP3    H140417   6.175   2.452   1.476
 6286TIP3    H240418   6.069   2.540   1.415
 6287TIP3   OH240419   1.276   3.818   2.164
 6287TIP3    H140420   1.323   3.735   2.168
 6287TIP3    H240421   1.236   3.827   2.250
 6288TIP3   OH240422   0.794   6.535   8.098
 6288TIP3    H140423   0.742   6.479   8.155
 6288TIP3    H240424   0.874   6.553   8.148
 6289TIP3   OH240425   5.180   3.762   2.102
 6289TIP3    H140426   5.193   3.672   2.072
 6289TIP3    H240427   5.207   3.761   2.194
 6290TIP3   OH240428   6.507   4.662   8.747
 6290TIP3    H140429   6.443   4.592   8.763
 6290TIP3    H240430   6.576   4.646   0.020
 6291TIP3   OH240431   6.414   4.116   1.248
 6291TIP3    H140432   6.441   4.038   1.199
 6291TIP3    H240433   6.381   4.176   1.181
 6292TIP3   OH240434   6.383   2.839   8.378
 6292TIP3    H140435   6.466   2.853   8.424
 6292TIP3    H240436   6.365   2.746   8.388
 6293TIP3   OH240437   0.175   0.473   0.209
 6293TIP3    H140438   0.102   0.439   0.157
 6293TIP3    H240439   0.151   0.452   0.299
 6294TIP3   OH240440   3.468   5.989   1.109
 6294TIP3    H140441   3.413   6.064   1.134
 6294TIP3    H240442   3.491   5.948   1.193
 6295TIP3   OH240443   6.182   3.200   8.109
 6295TIP3    H140444   6.143   3.274   8.062
 6295TIP3    H240445   6.122   3.127   8.092
 6296TIP3   OH240446   1.792   2.784   1.407
 6296TIP3    H140447   1.827   2.702   1.371
 6296TIP3    H240448   1.737   2.757   1.480
 6297TIP3   OH240449   5.727   1.730   1.393
 6297TIP3    H140450   5.644   1.753   1.434
 6297TIP3    H240451   5.709   1.734   1.299
 6298TIP3   OH240452   0.278   3.350   0.944
 6298TIP3    H140453   0.216   3.423   0.948
 6298TIP3    H240454   0.242   3.292   0.878
 6299TIP3   OH240455   4.253   4.779   2.317
 6299TIP3    H140456   4.265   4.685   2.322
 6299TIP3    H240457   4.202   4.792   2.237
 6300TIP3   OH240458   1.775   1.549   8.515
 6300TIP3    H140459   1.816   1.594   8.589
 6300TIP3    H240460   1.725   1.618   8.470
 6301TIP3   OH240461   1.261   1.667   7.767
 6301TIP3    H140462   1.207   1.659   7.846
 6301TIP3    H240463   1.264   1.761   7.750
 6302TIP3   OH240464   4.240   0.512   1.331
 6302TIP3    H140465   4.279   0.582   1.383
 6302TIP3    H240466   4.174   0.555   1.278
 6303TIP3   OH240467   6.029   2.169   7.337
 6303TIP3    H140468   6.011   2.257   7.371
 6303TIP3    H240469   5.962   2.155   7.271
 6304TIP3   OH240470   4.138   3.675   2.264
 6304TIP3    H140471   4.114   3.616   2.193
 6304TIP3    H240472   4.150   3.760   2.221
 6305TIP3   OH240473   6.749   1.844   0.855
 6305TIP3    H140474   6.718   1.754   0.857
 6305TIP3    H240475   0.024   1.839   0.887
 6306TIP3   OH240476   4.507   0.100   1.789
 6306TIP3    H140477   4.547   0.039   1.852
 6306TIP3    H240478   4.572   0.169   1.779
 6307TIP3   OH240479   6.736   4.546   6.963
 6307TIP3    H140480   6.791   4.565   6.887
 6307TIP3    H240481   6.659   4.602   6.953
 6308TIP3   OH240482   0.723   4.987   7.242
 6308TIP3    H140483   0.657   5.048   7.273
 6308TIP3    H240484   0.679   4.902   7.241
 6309TIP3   OH240485   1.596   2.755   1.610
 6309TIP3    H140486   1.567   2.770   1.700
 6309TIP3    H240487   1.574   2.664   1.593
 6310TIP3   OH240488   4.287   2.573   0.565
 6310TIP3    H140489   4.380   2.592   0.554
 6310TIP3    H240490   4.274   2.572   0.660
 6311TIP3   OH240491   2.074   6.205   6.239
 6311TIP3    H140492   2.127   6.239   6.311
 6311TIP3    H240493   2.097   6.262   6.164
 6312TIP3   OH240494   1.891   6.504   8.553
 6312TIP3    H140495   1.908   6.416   8.587
 6312TIP3    H240496   1.869   6.491   8.461
 6313TIP3   OH240497   5.288   0.981   1.090
 6313TIP3    H140498   5.274   1.061   1.141
 6313TIP3    H240499   5.296   1.012   0.999
 6314TIP3   OH240500   4.143   4.726   1.262
 6314TIP3    H140501   4.078   4.759   1.324
 6314TIP3    H240502   4.091   4.685   1.192
 6315TIP3   OH240503   3.186   0.741   7.014
 6315TIP3    H140504   3.244   0.698   7.076
 6315TIP3    H240505   3.124   0.672   6.989
 6316TIP3   OH240506   4.857   6.482   0.971
 6316TIP3    H140507   4.813   6.403   0.941
 6316TIP3    H240508   4.786   6.543   0.993
 6317TIP3   OH240509   4.191   2.293   0.624
 6317TIP3    H140510   4.268   2.247   0.591
 6317TIP3    H240511   4.212   2.386   0.612
 6318TIP3   OH240512   5.361   5.385   0.426
 6318TIP3    H140513   5.373   5.317   0.492
 6318TIP3    H240514   5.449   5.412   0.402
 6319TIP3   OH240515   6.421   2.202   7.822
 6319TIP3    H140516   6.375   2.175   7.742
 6319TIP3    H240517   6.456   2.289   7.802
 6320TIP3   OH240518   3.884   1.744   7.091
 6320TIP3    H140519   3.863   1.655   7.117
 6320TIP3    H240520   3.970   1.738   7.050
 6321TIP3   OH240521   0.123   1.948   7.668
 6321TIP3    H140522   0.040   1.932   7.624
 6321TIP3    H240523   0.185   1.965   7.597
 6322TIP3   OH240524   0.751   1.960   8.348
 6322TIP3    H140525   0.699   2.025   8.300
 6322TIP3    H240526   0.687   1.896   8.378
 6323TIP3   OH240527   5.755   3.509   6.679
 6323TIP3    H140528   5.674   3.462   6.698
 6323TIP3    H240529   5.797   3.457   6.610
 6324TIP3   OH240530   3.953   0.279   1.406
 6324TIP3    H140531   3.989   0.364   1.431
 6324TIP3    H240532   4.028   0.220   1.405
 6325TIP3   OH240533   2.876   2.422   8.311
 6325TIP3    H140534   2.796   2.426   8.258
 6325TIP3    H240535   2.856   2.357   8.379
 6326TIP3   OH240536   4.116   4.792   2.045
 6326TIP3    H140537   4.098   4.759   1.956
 6326TIP3    H240538   4.122   4.887   2.034
 6327TIP3   OH240539   2.392   5.449   8.686
 6327TIP3    H140540   2.440   5.523   8.649
 6327TIP3    H240541   2.418   5.374   8.633
 6328TIP3   OH240542   4.049   2.871   7.312
 6328TIP3    H140543   4.111   2.825   7.368
 6328TIP3    H240544   4.103   2.927   7.257
 6329TIP3   OH240545   0.618   3.831   8.243
 6329TIP3    H140546   0.609   3.922   8.217
 6329TIP3    H240547   0.561   3.783   8.183
 6330TIP3   OH240548   4.099   2.764   2.223
 6330TIP3    H140549   4.186   2.731   2.245
 6330TIP3    H240550   4.040   2.693   2.246
 6331TIP3   OH240551   0.558   0.470   7.404
 6331TIP3    H140552   0.594   0.410   7.469
 6331TIP3    H240553   0.634   0.516   7.370
 6332TIP3   OH240554   1.577   3.007   8.501
 6332TIP3    H140555   1.518   3.082   8.493
 6332TIP3    H240556   1.549   2.947   8.432
 6333TIP3   OH240557   2.724   2.134   8.601
 6333TIP3    H140558   2.779   2.137   8.679
 6333TIP3    H240559   2.635   2.123   8.636
 6334TIP3   OH240560   5.891   6.181   7.414
 6334TIP3    H140561   5.895   6.097   7.368
 6334TIP3    H240562   5.982   6.212   7.415
 6335TIP3   OH240563   0.043   6.143   8.672
 6335TIP3    H140564   0.045   6.237   8.690
 6335TIP3    H240565   0.128   6.111   8.702
 6336TIP3   OH240566   3.402   6.271   1.122
 6336TIP3    H140567   3.321   6.277   1.071
 6336TIP3    H240568   3.375   6.288   1.212
 6337TIP3   OH240569   3.243   6.235   8.100
 6337TIP3    H140570   3.244   6.141   8.116
 6337TIP3    H240571   3.151   6.260   8.109
 6338TIP3   OH240572   6.087   0.689   0.672
 6338TIP3    H140573   6.008   0.699   0.725
 6338TIP3    H240574   6.066   0.618   0.611
 6339TIP3   OH240575   5.934   4.180   1.392
 6339TIP3    H140576   5.854   4.233   1.393
 6339TIP3    H240577   6.005   4.243   1.380
 6340TIP3   OH240578   3.415   2.838   6.932
 6340TIP3    H140579   3.439   2.747   6.914
 6340TIP3    H240580   3.469   2.889   6.872
 6341TIP3   OH240581   4.902   2.916   7.112
 6341TIP3    H140582   4.863   2.963   7.038
 6341TIP3    H240583   4.979   2.969   7.136
 6342TIP3   OH240584   6.367   6.067   8.125
 6342TIP3    H140585   6.349   5.990   8.179
 6342TIP3    H240586   6.317   6.137   8.165
 6343TIP3   OH240587   4.036   3.996   1.886
 6343TIP3    H140588   4.028   4.076   1.834
 6343TIP3    H240589   4.067   3.930   1.824
 6344TIP3   OH240590   0.542   1.065   8.010
 6344TIP3    H140591   0.570   1.034   8.096
 6344TIP3    H240592   0.446   1.062   8.013
 6345TIP3   OH240593   5.740   2.874   2.200
 6345TIP3    H140594   5.831   2.880   2.173
 6345TIP3    H240595   5.743   2.842   2.291
 6346TIP3   OH240596   3.455   0.499   7.873
 6346TIP3    H140597   3.530   0.440   7.875
 6346TIP3    H240598   3.443   0.520   7.780
 6347TIP3   OH240599   2.978   0.512   6.677
 6347TIP3    H140600   3.030   0.560   6.612
 6347TIP3    H240601   2.899   0.485   6.630
 6348TIP3   OH240602   5.532   5.949   1.641
 6348TIP3    H140603   5.469   5.910   1.580
 6348TIP3    H240604   5.614   5.952   1.591
 6349TIP3   OH240605   6.564   4.631   8.487
 6349TIP3    H140606   6.586   4.633   8.580
 6349TIP3    H240607   6.469   4.619   8.485
 6350TIP3   OH240608   1.802   5.659   7.162
 6350TIP3    H140609   1.835   5.612   7.086
 6350TIP3    H240610   1.857   5.737   7.167
 6351TIP3   OH240611   0.680   1.291   7.913
 6351TIP3    H140612   0.590   1.261   7.925
 6351TIP3    H240613   0.672   1.376   7.871
 6352TIP3   OH240614   3.742   2.387   0.553
 6352TIP3    H140615   3.682   2.455   0.584
 6352TIP3    H240616   3.720   2.310   0.604
 6353TIP3   OH240617   2.906   2.772   2.621
 6353TIP3    H140618   2.885   2.679   2.629
 6353TIP3    H240619   2.998   2.779   2.649
 6354TIP3   OH240620   6.454   1.368   1.174
 6354TIP3    H140621   6.502   1.425   1.233
 6354TIP3    H240622   6.366   1.363   1.212
 6355TIP3   OH240623   4.227   1.156   1.704
 6355TIP3    H140624   4.175   1.139   1.782
 6355TIP3    H240625   4.300   1.209   1.735
 6356TIP3   OH240626   1.935   0.057   1.298
 6356TIP3    H140627   2.030   0.067   1.307
 6356TIP3    H240628   1.921   6.777   1.293
 6357TIP3   OH240629   2.997   5.878   0.702
 6357TIP3    H140630   3.077   5.830   0.725
 6357TIP3    H240631   2.979   5.853   0.611
 6358TIP3   OH240632   3.666   3.334   0.490
 6358TIP3    H140633   3.724   3.366   0.422
 6358TIP3    H240634   3.707   3.252   0.519
 6359TIP3   OH240635   5.839   1.265   0.231
 6359TIP3    H140636   5.756   1.242   0.273
 6359TIP3    H240637   5.871   1.340   0.280
 6360TIP3   OH240638   3.072   3.586   0.275
 6360TIP3    H140639   3.091   3.586   0.181
 6360TIP3    H240640   2.987   3.629   0.282
 6361TIP3   OH240641   6.655   1.855   6.641
 6361TIP3    H140642   6.722   1.793   6.670
 6361TIP3    H240643   6.576   1.829   6.688
 6362TIP3   OH240644   0.283   1.037   8.673
 6362TIP3    H140645   0.206   1.041   8.730
 6362TIP3    H240646   0.260   1.093   8.598
 6363TIP3   OH240647   6.290   1.959   6.809
 6363TIP3    H140648   6.252   1.909   6.737
 6363TIP3    H240649   6.353   2.017   6.767
 6364TIP3   OH240650   0.804   6.455   6.631
 6364TIP3    H140651   0.886   6.500   6.650
 6364TIP3    H240652   0.824   6.399   6.556
 6365TIP3   OH240653   4.922   2.954   7.999
 6365TIP3    H140654   4.965   2.986   7.919
 6365TIP3    H240655   4.831   2.980   7.989
 6366TIP3   OH240656   5.395   4.980   0.267
 6366TIP3    H140657   5.357   4.968   0.354
 6366TIP3    H240658   5.324   5.018   0.215
 6367TIP3   OH240659   1.463   2.166   7.806
 6367TIP3    H140660   1.427   2.255   7.802
 6367TIP3    H240661   1.520   2.159   7.730
 6368TIP3   OH240662   5.827   5.453   1.418
 6368TIP3    H140663   5.868   5.532   1.382
 6368TIP3    H240664   5.788   5.481   1.501
 6369TIP3   OH240665   3.503   4.522   7.698
 6369TIP3    H140666   3.595   4.497   7.688
 6369TIP3    H240667   3.460   4.440   7.724
 6370TIP3   OH240668   4.143   2.783   1.657
 6370TIP3    H140669   4.092   2.758   1.580
 6370TIP3    H240670   4.080   2.829   1.714
 6371TIP3   OH240671   6.313   4.113   8.126
 6371TIP3    H140672   6.375   4.173   8.167
 6371TIP3    H240673   6.236   4.167   8.107
 6372TIP3   OH240674   4.471   0.467   6.644
 6372TIP3    H140675   4.542   0.411   6.676
 6372TIP3    H240676   4.413   0.407   6.597
 6373TIP3   OH240677   4.313   4.655   8.076
 6373TIP3    H140678   4.246   4.723   8.068
 6373TIP3    H240679   4.308   4.627   8.167
 6374TIP3   OH240680   0.844   3.998   1.746
 6374TIP3    H140681   0.800   4.060   1.805
 6374TIP3    H240682   0.885   4.054   1.680
 6375TIP3   OH240683   1.123   4.403   7.256
 6375TIP3    H140684   1.133   4.492   7.223
 6375TIP3    H240685   1.182   4.351   7.202
 6376TIP3   OH240686   5.607   0.652   1.164
 6376TIP3    H140687   5.582   0.679   1.252
 6376TIP3    H240688   5.527   0.615   1.127
 6377TIP3   OH240689   4.308   5.687   0.373
 6377TIP3    H140690   4.240   5.731   0.321
 6377TIP3    H240691   4.390   5.709   0.330
 6378TIP3   OH240692   4.412   3.427   8.094
 6378TIP3    H140693   4.339   3.461   8.042
 6378TIP3    H240694   4.489   3.445   8.041
 6379TIP3   OH240695   1.243   3.641   0.396
 6379TIP3    H140696   1.294   3.588   0.334
 6379TIP3    H240697   1.292   3.636   0.477
 6380TIP3   OH240698   3.980   1.675   1.638
 6380TIP3    H140699   3.983   1.722   1.555
 6380TIP3    H240700   3.926   1.731   1.695
 6381TIP3   OH240701   3.216   2.665   8.062
 6381TIP3    H140702   3.246   2.595   8.003
 6381TIP3    H240703   3.260   2.647   8.144
 6382TIP3   OH240704   5.653   2.243   7.829
 6382TIP3    H140705   5.653   2.154   7.864
 6382TIP3    H240706   5.680   2.297   7.903
 6383TIP3   OH240707   2.544   3.066   1.290
 6383TIP3    H140708   2.497   3.145   1.316
 6383TIP3    H240709   2.619   3.098   1.241
 6384TIP3   OH240710   2.295   1.825   1.127
 6384TIP3    H140711   2.246   1.908   1.124
 6384TIP3    H240712   2.372   1.845   1.181
 6385TIP3   OH240713   1.742   0.604   1.480
 6385TIP3    H140714   1.675   0.566   1.424
 6385TIP3    H240715   1.738   0.553   1.561
 6386TIP3   OH240716   2.858   5.057   7.872
 6386TIP3    H140717   2.850   4.964   7.893
 6386TIP3    H240718   2.787   5.098   7.922
 6387TIP3   OH240719   1.129   3.535   0.022
 6387TIP3    H140720   1.065   3.550   8.743
 6387TIP3    H240721   1.097   3.588   0.095
 6388TIP3   OH240722   6.618   2.894   8.485
 6388TIP3    H140723   6.668   2.913   8.564
 6388TIP3    H240724   6.623   2.974   8.434
 6389TIP3   OH240725   6.228   2.564   7.244
 6389TIP3    H140726   6.267   2.546   7.159
 6389TIP3    H240727   6.297   2.545   7.307
 6390TIP3   OH240728   2.155   5.624   1.381
 6390TIP3    H140729   2.216   5.572   1.329
 6390TIP3    H240730   2.100   5.668   1.316
 6391TIP3   OH240731   1.565   0.937   7.102
 6391TIP3    H140732   1.494   0.988   7.141
 6391TIP3    H240733   1.595   0.879   7.172
 6392TIP3   OH240734   6.593   2.394   1.392
 6392TIP3    H140735   6.578   2.383   1.486
 6392TIP3    H240736   6.686   2.412   1.384
 6393TIP3   OH240737   4.716   2.344   0.372
 6393TIP3    H140738   4.798   2.346   0.323
 6393TIP3    H240739   4.740   2.370   0.461
 6394TIP3   OH240740   6.319   3.139   1.017
 6394TIP3    H140741   6.318   3.057   1.066
 6394TIP3    H240742   6.383   3.193   1.062
 6395TIP3   OH240743   4.898   1.193   1.171
 6395TIP3    H140744   4.841   1.137   1.119
 6395TIP3    H240745   4.927   1.137   1.243
 6396TIP3   OH240746   3.539   5.473   1.636
 6396TIP3    H140747   3.447   5.497   1.646
 6396TIP3    H240748   3.551   5.397   1.694
 6397TIP3   OH240749   5.221   2.118   7.477
 6397TIP3    H140750   5.198   2.121   7.570
 6397TIP3    H240751   5.140   2.090   7.433
 6398TIP3   OH240752   1.582   0.441   6.278
 6398TIP3    H140753   1.515   0.382   6.313
 6398TIP3    H240754   1.533   0.510   6.234
 6399TIP3   OH240755   2.236   0.104   8.281
 6399TIP3    H140756   2.207   0.019   8.312
 6399TIP3    H240757   2.331   0.096   8.272
 6400TIP3   OH240758   5.946   4.265   8.274
 6400TIP3    H140759   5.914   4.195   8.330
 6400TIP3    H240760   5.983   4.330   8.334
 6401TIP3   OH240761   2.929   0.807   1.766
 6401TIP3    H140762   2.838   0.783   1.779
 6401TIP3    H240763   2.962   0.742   1.704
 6402TIP3   OH240764   6.770   5.306   1.955
 6402TIP3    H140765   6.731   5.315   2.041
 6402TIP3    H240766   0.048   5.286   1.972
 6403TIP3   OH240767   6.717   4.272   7.802
 6403TIP3    H140768   6.805   4.300   7.778
 6403TIP3    H240769   6.661   4.346   7.778
 6404TIP3   OH240770   0.884   3.149   2.024
 6404TIP3    H140771   0.888   3.083   1.955
 6404TIP3    H240772   0.802   3.130   2.071
 6405TIP3   OH240773   2.748   0.395   6.588
 6405TIP3    H140774   2.709   0.309   6.606
 6405TIP3    H240775   2.690   0.435   6.523
 6406TIP3   OH240776   4.953   1.846   7.502
 6406TIP3    H140777   4.957   1.754   7.526
 6406TIP3    H240778   4.913   1.847   7.415
 6407TIP3   OH240779   3.727   1.999   0.367
 6407TIP3    H140780   3.765   1.939   0.303
 6407TIP3    H240781   3.798   2.019   0.428
 6408TIP3   OH240782   4.295   5.706   8.211
 6408TIP3    H140783   4.248   5.624   8.217
 6408TIP3    H240784   4.265   5.746   8.129
 6409TIP3   OH240785   5.845   4.521   8.787
 6409TIP3    H140786   5.813   4.518   8.697
 6409TIP3    H240787   5.893   4.439   0.007
 6410TIP3   OH240788   4.827   3.021   6.885
 6410TIP3    H140789   4.873   2.998   6.804
 6410TIP3    H240790   4.779   3.101   6.864
 6411TIP3   OH240791   0.265   3.070   0.280
 6411TIP3    H140792   0.336   3.044   0.339
 6411TIP3    H240793   0.283   3.025   0.198
 6412TIP3   OH240794   1.361   1.995   7.395
 6412TIP3    H140795   1.418   1.928   7.432
 6412TIP3    H240796   1.273   1.959   7.403
 6413TIP3   OH240797   1.018   2.271   8.050
 6413TIP3    H140798   1.065   2.353   8.037
 6413TIP3    H240799   1.087   2.204   8.054
 6414TIP3   OH240800   5.221   4.218   1.247
 6414TIP3    H140801   5.132   4.234   1.277
 6414TIP3    H240802   5.272   4.208   1.328
 6415TIP3   OH240803   5.562   3.831   8.702
 6415TIP3    H140804   5.638   3.857   8.753
 6415TIP3    H240805   5.540   3.743   8.734
 6416TIP3   OH240806   5.795   5.702   7.655
 6416TIP3    H140807   5.781   5.667   7.567
 6416TIP3    H240808   5.872   5.758   7.646
 6417TIP3   OH240809   4.295   3.600   7.407
 6417TIP3    H140810   4.312   3.687   7.371
 6417TIP3    H240811   4.235   3.559   7.345
 6418TIP3   OH240812   3.436   6.780   7.089
 6418TIP3    H140813   3.431   6.802   7.181
 6418TIP3    H240814   3.504   6.713   7.084
 6419TIP3   OH240815   5.116   0.309   7.199
 6419TIP3    H140816   5.196   0.301   7.148
 6419TIP3    H240817   5.085   0.219   7.210
 6420TIP3   OH240818   1.915   2.210   1.087
 6420TIP3    H140819   1.917   2.200   0.992
 6420TIP3    H240820   1.892   2.302   1.101
 6421TIP3   OH240821   4.610   0.530   8.014
 6421TIP3    H140822   4.595   0.618   7.978
 6421TIP3    H240823   4.633   0.477   7.937
 6422TIP3   OH240824   3.733   3.091   7.809
 6422TIP3    H140825   3.669   3.155   7.777
 6422TIP3    H240826   3.693   3.055   7.889
 6423TIP3   OH240827   2.969   6.691   6.557
 6423TIP3    H140828   2.954   6.728   6.644
 6423TIP3    H240829   2.885   6.653   6.532
 6424TIP3   OH240830   5.646   4.638   7.177
 6424TIP3    H140831   5.666   4.573   7.245
 6424TIP3    H240832   5.676   4.721   7.214
 6425TIP3   OH240833   4.504   6.625   0.777
 6425TIP3    H140834   4.416   6.589   0.788
 6425TIP3    H240835   4.549   6.603   0.858
 6426TIP3   OH240836   5.488   4.785   0.899
 6426TIP3    H140837   5.541   4.707   0.889
 6426TIP3    H240838   5.399   4.758   0.876
 6427TIP3   OH240839   5.823   6.398   0.960
 6427TIP3    H140840   5.853   6.311   0.932
 6427TIP3    H240841   5.782   6.383   1.045
 6428TIP3   OH240842   4.909   0.066   7.479
 6428TIP3    H140843   4.932   6.790   7.456
 6428TIP3    H240844   4.990   0.115   7.469
 6429TIP3   OH240845   2.463   5.263   7.054
 6429TIP3    H140846   2.553   5.230   7.060
 6429TIP3    H240847   2.442   5.259   6.961
 6430TIP3   OH240848   6.122   2.936   8.428
 6430TIP3    H140849   6.212   2.904   8.422
 6430TIP3    H240850   6.130   3.023   8.467
 6431TIP3   OH240851   5.176   0.184   7.482
 6431TIP3    H140852   5.262   0.153   7.455
 6431TIP3    H240853   5.179   0.183   7.578
 6432TIP3   OH240854   5.672   2.757   1.746
 6432TIP3    H140855   5.683   2.806   1.828
 6432TIP3    H240856   5.728   2.681   1.757
 6433TIP3   OH240857   1.464   5.063   0.742
 6433TIP3    H140858   1.536   5.001   0.754
 6433TIP3    H240859   1.506   5.149   0.742
 6434TIP3   OH240860   3.573   2.679   8.628
 6434TIP3    H140861   3.635   2.642   8.565
 6434TIP3    H240862   3.627   2.703   8.703
 6435TIP3   OH240863   5.713   4.352   0.524
 6435TIP3    H140864   5.782   4.406   0.485
 6435TIP3    H240865   5.760   4.277   0.561
 6436TIP3   OH240866   4.908   3.105   2.181
 6436TIP3    H140867   4.963   3.042   2.229
 6436TIP3    H240868   4.882   3.058   2.102
 6437TIP3   OH240869   4.084   1.019   7.319
 6437TIP3    H140870   4.018   0.950   7.335
 6437TIP3    H240871   4.123   0.995   7.235
 6438TIP3   OH240872   3.502   2.162   7.969
 6438TIP3    H140873   3.465   2.250   7.977
 6438TIP3    H240874   3.591   2.175   7.937
 6439TIP3   OH240875   0.502   5.259   0.375
 6439TIP3    H140876   0.586   5.240   0.333
 6439TIP3    H240877   0.524   5.307   0.454
 6440TIP3   OH240878   0.362   1.360   8.075
 6440TIP3    H140879   0.434   1.350   8.138
 6440TIP3    H240880   0.329   1.271   8.062
 6441TIP3   OH240881   0.868   0.468   7.197
 6441TIP3    H140882   0.833   0.552   7.226
 6441TIP3    H240883   0.883   0.419   7.278
 6442TIP3   OH240884   1.377   5.848   7.134
 6442TIP3    H140885   1.419   5.770   7.171
 6442TIP3    H240886   1.405   5.919   7.193
 6443TIP3   OH240887   4.614   4.176   0.530
 6443TIP3    H140888   4.534   4.124   0.542
 6443TIP3    H240889   4.646   4.190   0.619
 6444TIP3   OH240890   5.095   0.825   7.632
 6444TIP3    H140891   5.180   0.821   7.676
 6444TIP3    H240892   5.075   0.735   7.609
 6445TIP3   OH240893   5.139   6.157   7.145
 6445TIP3    H140894   5.216   6.141   7.091
 6445TIP3    H240895   5.163   6.232   7.199
 6446TIP3   OH240896   2.855   0.450   1.604
 6446TIP3    H140897   2.776   0.456   1.550
 6446TIP3    H240898   2.831   0.388   1.674
 6447TIP3   OH240899   2.806   4.161   0.121
 6447TIP3    H140900   2.802   4.238   0.066
 6447TIP3    H240901   2.868   4.184   0.191
 6448TIP3   OH240902   3.678   5.817   7.931
 6448TIP3    H140903   3.666   5.901   7.975
 6448TIP3    H240904   3.599   5.806   7.879
 6449TIP3   OH240905   4.506   4.182   1.383
 6449TIP3    H140906   4.485   4.225   1.466
 6449TIP3    H240907   4.427   4.193   1.330
 6450TIP3   OH240908   3.062   3.040   0.813
 6450TIP3    H140909   3.060   3.121   0.762
 6450TIP3    H240910   2.996   2.984   0.772
 6451TIP3   OH240911   3.002   1.871   1.485
 6451TIP3    H140912   2.959   1.911   1.560
 6451TIP3    H240913   3.047   1.943   1.441
 6452TIP3   OH240914   1.026   5.898   1.387
 6452TIP3    H140915   1.120   5.878   1.385
 6452TIP3    H240916   1.011   5.947   1.306
 6453TIP3   OH240917   5.516   6.742   0.792
 6453TIP3    H140918   5.502   6.755   0.698
 6453TIP3    H240919   5.601   6.699   0.797
 6454TIP3   OH240920   6.243   1.932   8.574
 6454TIP3    H140921   6.161   1.936   8.623
 6454TIP3    H240922   6.217   1.929   8.482
 6455TIP3   OH240923   0.682   0.573   0.923
 6455TIP3    H140924   0.738   0.632   0.975
 6455TIP3    H240925   0.676   0.493   0.976
 6456TIP3   OH240926   0.990   1.210   8.155
 6456TIP3    H140927   1.056   1.257   8.207
 6456TIP3    H240928   0.917   1.196   8.215
 6457TIP3   OH240929   1.182   0.327   0.139
 6457TIP3    H140930   1.193   0.310   0.233
 6457TIP3    H240931   1.169   0.240   0.100
 6458TIP3   OH240932   5.122   1.891   1.739
 6458TIP3    H140933   5.106   1.808   1.694
 6458TIP3    H240934   5.063   1.953   1.696
 6459TIP3   OH240935   6.598   6.814   0.159
 6459TIP3    H140936   6.688   0.029   0.171
 6459TIP3    H240937   6.552   0.029   0.238
 6460TIP3   OH240938   0.467   2.225   8.501
 6460TIP3    H140939   0.419   2.203   8.421
 6460TIP3    H240940   0.404   2.210   8.571
 6461TIP3   OH240941   4.082   0.813   6.855
 6461TIP3    H140942   4.079   0.802   6.950
 6461TIP3    H240943   4.119   0.900   6.842
 6462TIP3   OH240944   0.742   0.608   7.721
 6462TIP3    H140945   0.654   0.636   7.747
 6462TIP3    H240946   0.797   0.684   7.737
 6463TIP3   OH240947   6.226   5.374   1.491
 6463TIP3    H140948   6.185   5.384   1.405
 6463TIP3    H240949   6.232   5.280   1.504
 6464TIP3   OH240950   3.910   0.191   6.954
 6464TIP3    H140951   3.841   0.125   6.961
 6464TIP3    H240952   3.992   0.141   6.956
 6465TIP3   OH240953   5.982   0.643   1.320
 6465TIP3    H140954   5.926   0.597   1.382
 6465TIP3    H240955   6.070   0.637   1.357
 6466TIP3   OH240956   0.137   2.491   8.627
 6466TIP3    H140957   0.091   2.415   8.592
 6466TIP3    H240958   0.179   2.531   8.551
 6467TIP3   OH240959   5.117   4.880   7.341
 6467TIP3    H140960   5.160   4.797   7.362
 6467TIP3    H240961   5.110   4.925   7.425
 6468TIP3   OH240962   3.728   5.168   8.551
 6468TIP3    H140963   3.725   5.088   8.499
 6468TIP3    H240964   3.753   5.139   8.639
 6469TIP3   OH240965   1.814   3.707   1.070
 6469TIP3    H140966   1.727   3.748   1.073
 6469TIP3    H240967   1.798   3.619   1.035
 6470TIP3   OH240968   4.663   1.492   1.450
 6470TIP3    H140969   4.728   1.490   1.521
 6470TIP3    H240970   4.715   1.500   1.370
 6471TIP3   OH240971   4.600   4.265   8.257
 6471TIP3    H140972   4.595   4.187   8.313
 6471TIP3    H240973   4.638   4.333   8.313
 6472TIP3   OH240974   3.355   6.715   7.535
 6472TIP3    H140975   3.296   6.767   7.480
 6472TIP3    H240976   3.418   6.678   7.473
 6473TIP3   OH240977   6.217   4.572   6.868
 6473TIP3    H140978   6.306   4.557   6.836
 6473TIP3    H240979   6.171   4.610   6.793
 6474TIP3   OH240980   4.133   0.748   2.531
 6474TIP3    H140981   4.143   0.824   2.589
 6474TIP3    H240982   4.038   0.735   2.525
 6475TIP3   OH240983   3.177   1.763   0.453
 6475TIP3    H140984   3.267   1.760   0.420
 6475TIP3    H240985   3.168   1.681   0.503
 6476TIP3   OH240986   3.091   3.853   7.349
 6476TIP3    H140987   3.136   3.770   7.363
 6476TIP3    H240988   3.128   3.912   7.416
 6477TIP3   OH240989   3.159   4.040   1.168
 6477TIP3    H140990   3.134   4.033   1.076
 6477TIP3    H240991   3.089   3.995   1.215
 6478TIP3   OH240992   1.319   4.835   8.555
 6478TIP3    H140993   1.254   4.781   8.512
 6478TIP3    H240994   1.309   4.922   8.516
 6479TIP3   OH240995   5.692   0.620   7.592
 6479TIP3    H140996   5.767   0.588   7.541
 6479TIP3    H240997   5.720   0.706   7.623
 6480TIP3   OH240998   5.103   2.592   0.962
 6480TIP3    H140999   5.019   2.630   0.989
 6480TIP3    H241000   5.153   2.585   1.043
 6481TIP3   OH241001   1.219   6.728   1.052
 6481TIP3    H141002   1.164   6.790   1.100
 6481TIP3    H241003   1.240   6.773   0.971
 6482TIP3   OH241004   6.622   6.566   7.339
 6482TIP3    H141005   6.631   6.476   7.372
 6482TIP3    H241006   6.695   6.577   7.278
 6483TIP3   OH241007   6.408   1.220   0.954
 6483TIP3    H141008   6.325   1.196   0.994
 6483TIP3    H241009   6.455   1.269   1.022
 6484TIP3   OH241010   6.525   6.537   1.039
 6484TIP3    H141011   6.431   6.556   1.045
 6484TIP3    H241012   6.542   6.472   1.106
 6485TIP3   OH241013   2.738   3.032   0.933
 6485TIP3    H141014   2.797   2.980   0.879
 6485TIP3    H241015   2.775   3.026   1.021
 6486TIP3   OH241016   0.974   4.326   7.678
 6486TIP3    H141017   0.898   4.296   7.728
 6486TIP3    H241018   1.050   4.297   7.730
 6487TIP3   OH241019   1.472   1.280   1.494
 6487TIP3    H141020   1.557   1.319   1.472
 6487TIP3    H241021   1.486   1.237   1.578
 6488TIP3   OH241022   0.723   2.470   6.582
 6488TIP3    H141023   0.699   2.381   6.556
 6488TIP3    H241024   0.784   2.499   6.514
 6489TIP3   OH241025   3.107   2.505   2.138
 6489TIP3    H141026   3.045   2.432   2.130
 6489TIP3    H241027   3.085   2.546   2.221
 6490TIP3   OH241028   3.179   6.579   0.496
 6490TIP3    H141029   3.187   6.485   0.476
 6490TIP3    H241030   3.270   6.609   0.499
 6491TIP3   OH241031   6.558   1.649   0.452
 6491TIP3    H141032   6.519   1.690   0.529
 6491TIP3    H241033   6.649   1.680   0.453
 6492TIP3   OH241034   3.132   3.808   0.709
 6492TIP3    H141035   3.176   3.773   0.632
 6492TIP3    H241036   3.188   3.783   0.782
 6493TIP3   OH241037   5.523   5.341   7.425
 6493TIP3    H141038   5.553   5.315   7.338
 6493TIP3    H241039   5.574   5.288   7.486
 6494TIP3   OH241040   2.277   2.965   0.760
 6494TIP3    H141041   2.291   2.875   0.787
 6494TIP3    H241042   2.301   2.967   0.667
 6495TIP3   OH241043   2.287   0.372   1.935
 6495TIP3    H141044   2.192   0.369   1.947
 6495TIP3    H241045   2.323   0.370   2.024
 6496TIP3   OH241046   6.521   5.273   8.201
 6496TIP3    H141047   6.568   5.273   8.285
 6496TIP3    H241048   6.513   5.366   8.178
 6497TIP3   OH241049   0.623   2.574   7.740
 6497TIP3    H141050   0.587   2.661   7.761
 6497TIP3    H241051   0.573   2.545   7.664
 6498TIP3   OH241052   4.264   2.792   7.484
 6498TIP3    H141053   4.350   2.801   7.443
 6498TIP3    H241054   4.269   2.849   7.561
 6499TIP3   OH241055   6.690   1.631   1.661
 6499TIP3    H141056   6.650   1.703   1.711
 6499TIP3    H241057   6.695   1.559   1.723
 6500TIP3   OH241058   6.156   2.171   8.376
 6500TIP3    H141059   6.184   2.190   8.466
 6500TIP3    H241060   6.199   2.088   8.354
 6501TIP3   OH241061   0.828   6.523   2.224
 6501TIP3    H141062   0.753   6.470   2.195
 6501TIP3    H241063   0.892   6.459   2.254
 6502TIP3   OH241064   2.595   1.406   2.156
 6502TIP3    H141065   2.501   1.419   2.167
 6502TIP3    H241066   2.619   1.340   2.221
 6503TIP3   OH241067   3.026   3.757   1.602
 6503TIP3    H141068   3.047   3.814   1.528
 6503TIP3    H241069   2.981   3.815   1.664
 6504TIP3   OH241070   2.803   1.632   0.862
 6504TIP3    H141071   2.849   1.661   0.941
 6504TIP3    H241072   2.711   1.646   0.882
 6505TIP3   OH241073   1.915   1.716   8.684
 6505TIP3    H141074   2.003   1.706   8.720
 6505TIP3    H241075   1.887   1.803   8.714
 6506TIP3   OH241076   3.135   2.403   2.617
 6506TIP3    H141077   3.113   2.348   2.542
 6506TIP3    H241078   3.083   2.369   2.689
 6507TIP3   OH241079   3.713   5.228   6.328
 6507TIP3    H141080   3.622   5.225   6.299
 6507TIP3    H241081   3.749   5.308   6.288
 6508TIP3   OH241082   2.662   3.648   1.600
 6508TIP3    H141083   2.718   3.630   1.676
 6508TIP3    H241084   2.603   3.574   1.596
 6509TIP3   OH241085   5.080   5.446   0.765
 6509TIP3    H141086   5.069   5.535   0.733
 6509TIP3    H241087   5.146   5.453   0.834
 6510TIP3   OH241088   5.265   5.140   8.066
 6510TIP3    H141089   5.204   5.142   8.140
 6510TIP3    H241090   5.343   5.097   8.102
 6511TIP3   OH241091   4.765   0.114   2.269
 6511TIP3    H141092   4.700   0.148   2.330
 6511TIP3    H241093   4.783   0.025   2.300
 6512TIP3   OH241094   4.691   1.090   7.918
 6512TIP3    H141095   4.785   1.078   7.909
 6512TIP3    H241096   4.681   1.130   8.005
 6513TIP3   OH241097   1.445   5.867   0.242
 6513TIP3    H141098   1.373   5.927   0.263
 6513TIP3    H241099   1.401   5.787   0.212
 6514TIP3   OH241100   3.811   3.246   8.318
 6514TIP3    H141101   3.864   3.180   8.275
 6514TIP3    H241102   3.724   3.208   8.323
 6515TIP3   OH241103   4.290   1.823   0.423
 6515TIP3    H141104   4.282   1.911   0.386
 6515TIP3    H241105   4.337   1.773   0.357
 6516TIP3   OH241106   2.503   1.876   1.263
 6516TIP3    H141107   2.539   1.799   1.307
 6516TIP3    H241108   2.508   1.946   1.328
 6517TIP3   OH241109   1.635   4.004   0.462
 6517TIP3    H141110   1.655   3.916   0.432
 6517TIP3    H241111   1.626   3.996   0.557
 6518TIP3   OH241112   1.556   5.015   0.126
 6518TIP3    H141113   1.635   5.059   0.157
 6518TIP3    H241114   1.585   4.960   0.054
 6519TIP3   OH241115   3.234   6.746   6.472
 6519TIP3    H141116   3.149   6.715   6.501
 6519TIP3    H241117   3.237   0.023   6.499
 6520TIP3   OH241118   1.418   4.351   7.278
 6520TIP3    H141119   1.378   4.314   7.199
 6520TIP3    H241120   1.438   4.442   7.254
 6521TIP3   OH241121   3.619   3.889   8.578
 6521TIP3    H141122   3.706   3.923   8.600
 6521TIP3    H241123   3.601   3.825   8.647
 6522TIP3   OH241124   6.363   6.639   8.163
 6522TIP3    H141125   6.456   6.617   8.162
 6522TIP3    H241126   6.361   6.734   8.176
 6523TIP3   OH241127   1.874   6.095   8.167
 6523TIP3    H141128   1.875   6.074   8.073
 6523TIP3    H241129   1.958   6.062   8.199
 6524TIP3   OH241130   0.066   6.371   7.398
 6524TIP3    H141131   6.792   6.353   7.427
 6524TIP3    H241132   0.066   6.351   7.305
 6525TIP3   OH241133   2.518   6.302   7.096
 6525TIP3    H141134   2.464   6.356   7.038
 6525TIP3    H241135   2.539   6.359   7.170
 6526TIP3   OH241136   1.858   6.784   8.512
 6526TIP3    H141137   1.876   6.692   8.492
 6526TIP3    H241138   1.829   0.006   8.429
 6527TIP3   OH241139   3.629   2.173   0.721
 6527TIP3    H141140   3.565   2.144   0.786
 6527TIP3    H241141   3.595   2.138   0.638
 6528TIP3   OH241142   1.768   5.782   1.208
 6528TIP3    H141143   1.763   5.807   1.300
 6528TIP3    H241144   1.714   5.848   1.162
 6529TIP3   OH241145   0.806   5.081   1.272
 6529TIP3    H141146   0.889   5.128   1.272
 6529TIP3    H241147   0.788   5.064   1.364
 6530TIP3   OH241148   5.781   1.896   6.634
 6530TIP3    H141149   5.756   1.882   6.726
 6530TIP3    H241150   5.856   1.955   6.639
 6531TIP3   OH241151   4.658   0.326   7.220
 6531TIP3    H141152   4.682   0.343   7.129
 6531TIP3    H241153   4.566   0.353   7.227
 6532TIP3   OH241154   1.112   0.208   7.695
 6532TIP3    H141155   1.136   0.295   7.726
 6532TIP3    H241156   1.017   0.212   7.684
 6533TIP3   OH241157   5.061   5.193   8.269
 6533TIP3    H141158   4.968   5.189   8.246
 6533TIP3    H241159   5.066   5.255   8.341
 6534TIP3   OH241160   3.348   4.281   7.775
 6534TIP3    H141161   3.282   4.217   7.747
 6534TIP3    H241162   3.430   4.232   7.776
 6535TIP3   OH241163   3.675   0.984   0.742
 6535TIP3    H141164   3.634   0.900   0.724
 6535TIP3    H241165   3.613   1.048   0.705
 6536TIP3   OH241166   2.062   6.594   7.228
 6536TIP3    H141167   2.025   6.523   7.279
 6536TIP3    H241168   2.157   6.577   7.230
 6537TIP3   OH241169   2.071   1.368   0.892
 6537TIP3    H141170   2.132   1.339   0.959
 6537TIP3    H241171   1.998   1.306   0.897
 6538TIP3   OH241172   4.689   6.395   0.068
 6538TIP3    H141173   4.698   6.302   0.086
 6538TIP3    H241174   4.611   6.402   0.013
 6539TIP3   OH241175   5.658   4.322   7.204
 6539TIP3    H141176   5.750   4.329   7.178
 6539TIP3    H241177   5.634   4.231   7.187
 6540TIP3   OH241178   5.121   0.350   0.094
 6540TIP3    H141179   5.125   0.444   0.081
 6540TIP3    H241180   5.056   0.338   0.164
 6541TIP3   OH241181   3.807   1.787   7.631
 6541TIP3    H141182   3.762   1.702   7.629
 6541TIP3    H241183   3.760   1.837   7.699
 6542TIP3   OH241184   0.968   0.049   8.781
 6542TIP3    H141185   1.018   0.013   0.063
 6542TIP3    H241186   1.034   0.087   8.723
 6543TIP3   OH241187   3.920   1.488   1.199
 6543TIP3    H141188   3.858   1.539   1.251
 6543TIP3    H241189   3.875   1.407   1.179
 6544TIP3   OH241190   5.260   4.995   1.112
 6544TIP3    H141191   5.319   4.967   1.182
 6544TIP3    H241192   5.185   5.033   1.158
 6545TIP3   OH241193   4.065   1.973   1.723
 6545TIP3    H141194   4.101   2.052   1.682
 6545TIP3    H241195   4.127   1.951   1.792
 6546TIP3   OH241196   3.750   4.270   0.679
 6546TIP3    H141197   3.673   4.224   0.713
 6546TIP3    H241198   3.789   4.311   0.755
 6547TIP3   OH241199   4.076   0.033   7.142
 6547TIP3    H141200   4.033   6.762   7.136
 6547TIP3    H241201   4.033   0.077   7.216
 6548TIP3   OH241202   6.592   0.951   7.639
 6548TIP3    H141203   6.532   0.876   7.634
 6548TIP3    H241204   6.676   0.916   7.610
 6549TIP3   OH241205   3.596   2.582   0.693
 6549TIP3    H141206   3.672   2.628   0.729
 6549TIP3    H241207   3.524   2.644   0.701
 6550TIP3   OH241208   3.566   4.848   6.582
 6550TIP3    H141209   3.509   4.777   6.555
 6550TIP3    H241210   3.575   4.903   6.504
 6551TIP3   OH241211   0.591   6.153   1.621
 6551TIP3    H141212   0.616   6.069   1.582
 6551TIP3    H241213   0.652   6.164   1.695
 6552TIP3   OH241214   2.115   0.280   8.096
 6552TIP3    H141215   2.111   0.200   8.148
 6552TIP3    H241216   2.208   0.301   8.091
 6553TIP3   OH241217   1.749   5.871   1.494
 6553TIP3    H141218   1.793   5.787   1.497
 6553TIP3    H241219   1.656   5.850   1.504
 6554TIP3   OH241220   2.236   6.033   6.819
 6554TIP3    H141221   2.196   6.055   6.735
 6554TIP3    H241222   2.330   6.031   6.801
 6555TIP3   OH241223   3.131   3.098   2.258
 6555TIP3    H141224   3.180   3.091   2.340
 6555TIP3    H241225   3.116   3.007   2.231
 6556TIP3   OH241226   6.392   0.694   1.647
 6556TIP3    H141227   6.438   0.631   1.703
 6556TIP3    H241228   6.462   0.748   1.610
 6557TIP3   OH241229   3.894   2.174   1.355
 6557TIP3    H141230   3.962   2.188   1.290
 6557TIP3    H241231   3.904   2.247   1.417
 6558TIP3   OH241232   5.192   1.587   6.629
 6558TIP3    H141233   5.263   1.523   6.637
 6558TIP3    H241234   5.235   1.672   6.623
 6559TIP3   OH241235   3.930   5.422   6.929
 6559TIP3    H141236   3.996   5.492   6.928
 6559TIP3    H241237   3.906   5.410   6.838
 6560TIP3   OH241238   1.240   2.932   7.942
 6560TIP3    H141239   1.305   2.876   7.984
 6560TIP3    H241240   1.243   2.906   7.850
 6561TIP3   OH241241   5.247   4.104   2.082
 6561TIP3    H141242   5.341   4.100   2.099
 6561TIP3    H241243   5.236   4.182   2.026
 6562TIP3   OH241244   2.496   2.433   1.709
 6562TIP3    H141245   2.487   2.345   1.747
 6562TIP3    H241246   2.503   2.490   1.785
 6563TIP3   OH241247   0.271   6.109   7.691
 6563TIP3    H141248   0.307   6.185   7.645
 6563TIP3    H241249   0.205   6.074   7.631
 6564TIP3   OH241250   2.736   5.159   7.102
 6564TIP3    H141251   2.790   5.154   7.023
 6564TIP3    H241252   2.772   5.234   7.150
 6565TIP3   OH241253   1.396   6.796   8.784
 6565TIP3    H141254   1.339   6.785   8.708
 6565TIP3    H241255   1.470   6.738   8.767
 6566TIP3   OH241256   4.326   0.338   6.446
 6566TIP3    H141257   4.341   0.324   6.353
 6566TIP3    H241258   4.321   0.249   6.483
 6567TIP3   OH241259   2.840   1.394   7.258
 6567TIP3    H141260   2.923   1.397   7.211
 6567TIP3    H241261   2.852   1.327   7.325
 6568TIP3   OH241262   1.578   1.652   0.933
 6568TIP3    H141263   1.644   1.645   0.864
 6568TIP3    H241264   1.624   1.625   1.013
 6569TIP3   OH241265   5.055   4.751   7.967
 6569TIP3    H141266   5.126   4.813   7.985
 6569TIP3    H241267   4.982   4.782   8.021
 6570TIP3   OH241268   0.778   4.059   1.120
 6570TIP3    H141269   0.856   4.072   1.067
 6570TIP3    H241270   0.710   4.112   1.077
 6571TIP3   OH241271   5.402   6.687   7.979
 6571TIP3    H141272   5.365   6.622   7.919
 6571TIP3    H241273   5.373   6.771   7.944
 6572TIP3   OH241274   2.916   2.550   6.939
 6572TIP3    H141275   2.843   2.606   6.967
 6572TIP3    H241276   2.911   2.474   6.996
 6573TIP3   OH241277   0.240   6.323   2.449
 6573TIP3    H141278   0.243   6.367   2.364
 6573TIP3    H241279   0.330   6.327   2.481
 6574TIP3   OH241280   2.917   1.048   6.432
 6574TIP3    H141281   2.879   0.981   6.374
 6574TIP3    H241282   3.007   1.058   6.401
 6575TIP3   OH241283   0.508   3.193   6.955
 6575TIP3    H141284   0.551   3.197   6.870
 6575TIP3    H241285   0.415   3.202   6.935
 6576TIP3   OH241286   1.112   1.946   0.329
 6576TIP3    H141287   1.193   1.903   0.357
 6576TIP3    H241288   1.132   2.040   0.333
 6577TIP3   OH241289   2.548   0.674   7.808
 6577TIP3    H141290   2.561   0.769   7.800
 6577TIP3    H241291   2.475   0.655   7.750
 6578TIP3   OH241292   1.771   5.652   7.618
 6578TIP3    H141293   1.808   5.615   7.698
 6578TIP3    H241294   1.773   5.581   7.555
 6579TIP3   OH241295   2.849   2.850   0.748
 6579TIP3    H141296   2.843   2.759   0.778
 6579TIP3    H241297   2.828   2.847   0.655
 6580TIP3   OH241298   2.846   0.149   0.138
 6580TIP3    H141299   2.778   0.106   0.189
 6580TIP3    H241300   2.891   0.077   0.093
 6581TIP3   OH241301   4.326   1.335   0.701
 6581TIP3    H141302   4.323   1.420   0.744
 6581TIP3    H241303   4.400   1.340   0.642
 6582TIP3   OH241304   2.912   2.833   7.789
 6582TIP3    H141305   2.987   2.842   7.848
 6582TIP3    H241306   2.885   2.922   7.769
 6583TIP3   OH241307   4.325   3.363   6.637
 6583TIP3    H141308   4.240   3.385   6.600
 6583TIP3    H241309   4.307   3.302   6.707
 6584TIP3   OH241310   6.245   5.891   8.735
 6584TIP3    H141311   6.152   5.914   8.731
 6584TIP3    H241312   6.280   5.922   8.651
 6585TIP3   OH241313   5.648   1.598   8.558
 6585TIP3    H141314   5.672   1.531   8.495
 6585TIP3    H241315   5.689   1.678   8.525
 6586TIP3   OH241316   2.142   3.767   6.320
 6586TIP3    H141317   2.089   3.828   6.268
 6586TIP3    H241318   2.164   3.697   6.258
 6587TIP3   OH241319   4.525   0.818   7.944
 6587TIP3    H141320   4.574   0.839   8.023
 6587TIP3    H241321   4.565   0.871   7.876
 6588TIP3   OH241322   4.875   2.671   1.125
 6588TIP3    H141323   4.855   2.580   1.147
 6588TIP3    H241324   4.790   2.716   1.132
 6589TIP3   OH241325   0.296   4.565   6.464
 6589TIP3    H141326   0.369   4.624   6.448
 6589TIP3    H241327   0.321   4.484   6.418
 6590TIP3   OH241328   6.053   4.862   1.477
 6590TIP3    H141329   6.034   4.816   1.559
 6590TIP3    H241330   6.067   4.793   1.413
 6591TIP3   OH241331   0.743   5.254   2.320
 6591TIP3    H141332   0.697   5.239   2.238
 6591TIP3    H241333   0.681   5.305   2.373
 6592TIP3   OH241334   4.378   2.830   6.854
 6592TIP3    H141335   4.349   2.855   6.767
 6592TIP3    H241336   4.302   2.841   6.910
 6593TIP3   OH241337   2.232   6.146   1.531
 6593TIP3    H141338   2.200   6.056   1.534
 6593TIP3    H241339   2.207   6.183   1.616
 6594TIP3   OH241340   2.135   4.173   6.951
 6594TIP3    H141341   2.154   4.083   6.926
 6594TIP3    H241342   2.184   4.226   6.888
 6595TIP3   OH241343   2.615   4.743   8.313
 6595TIP3    H141344   2.616   4.721   8.406
 6595TIP3    H241345   2.632   4.837   8.311
 6596TIP3   OH241346   6.304   3.914   7.019
 6596TIP3    H141347   6.317   3.939   6.927
 6596TIP3    H241348   6.249   3.984   7.055
 6597TIP3   OH241349   4.649   3.769   0.163
 6597TIP3    H141350   4.679   3.779   0.253
 6597TIP3    H241351   4.580   3.834   0.152
 6598TIP3   OH241352   5.285   4.834   7.750
 6598TIP3    H141353   5.223   4.891   7.705
 6598TIP3    H241354   5.244   4.747   7.748
 6599TIP3   OH241355   6.754   2.779   7.122
 6599TIP3    H141356   6.805   2.769   7.041
 6599TIP3    H241357   6.681   2.718   7.113
 6600TIP3   OH241358   0.152   1.608   8.535
 6600TIP3    H141359   0.128   1.534   8.591
 6600TIP3    H241360   0.090   1.677   8.557
 6601TIP3   OH241361   6.011   1.574   8.517
 6601TIP3    H141362   6.092   1.622   8.500
 6601TIP3    H241363   5.946   1.642   8.535
 6602TIP3   OH241364   5.520   3.548   7.765
 6602TIP3    H141365   5.566   3.476   7.807
 6602TIP3    H241366   5.451   3.573   7.827
 6603TIP3   OH241367   1.267   2.967   2.031
 6603TIP3    H141368   1.230   2.886   2.067
 6603TIP3    H241369   1.359   2.966   2.061
 6604TIP3   OH241370   4.127   5.629   1.970
 6604TIP3    H141371   4.068   5.701   1.995
 6604TIP3    H241372   4.195   5.630   2.038
 6605TIP3   OH241373   0.508   3.083   7.547
 6605TIP3    H141374   0.461   3.071   7.630
 6605TIP3    H241375   0.583   3.137   7.569
 6606TIP3   OH241376   4.349   1.468   2.293
 6606TIP3    H141377   4.277   1.525   2.268
 6606TIP3    H241378   4.382   1.505   2.374
 6607TIP3   OH241379   4.932   3.952   0.876
 6607TIP3    H141380   4.983   3.897   0.935
 6607TIP3    H241381   4.930   3.904   0.794
 6608TIP3   OH241382   4.264   1.969   0.682
 6608TIP3    H141383   4.349   2.013   0.688
 6608TIP3    H241384   4.236   1.984   0.592
 6609TIP3   OH241385   3.765   4.329   1.227
 6609TIP3    H141386   3.674   4.328   1.199
 6609TIP3    H241387   3.776   4.250   1.278
 6610TIP3   OH241388   6.050   5.887   0.454
 6610TIP3    H141389   6.024   5.801   0.485
 6610TIP3    H241390   6.134   5.904   0.497
 6611TIP3   OH241391   2.508   3.006   6.762
 6611TIP3    H141392   2.467   2.950   6.696
 6611TIP3    H241393   2.587   3.040   6.719
 6612TIP3   OH241394   0.281   6.721   8.531
 6612TIP3    H141395   0.376   6.729   8.524
 6612TIP3    H241396   0.266   6.627   8.545
 6613TIP3   OH241397   6.526   4.339   7.508
 6613TIP3    H141398   6.615   4.313   7.484
 6613TIP3    H241399   6.470   4.274   7.465
 6614TIP3   OH241400   5.910   0.364   1.176
 6614TIP3    H141401   5.986   0.372   1.234
 6614TIP3    H241402   5.834   0.379   1.232
 6615TIP3   OH241403   1.686   3.135   0.701
 6615TIP3    H141404   1.591   3.139   0.685
 6615TIP3    H241405   1.693   3.104   0.791
 6616TIP3   OH241406   3.928   3.594   1.583
 6616TIP3    H141407   3.834   3.608   1.590
 6616TIP3    H241408   3.942   3.508   1.624
 6617TIP3   OH241409   1.637   3.617   0.012
 6617TIP3    H141410   1.723   3.586   0.039
 6617TIP3    H241411   1.654   3.673   8.727
 6618TIP3   OH241412   3.756   6.786   0.337
 6618TIP3    H141413   3.812   0.012   0.403
 6618TIP3    H241414   3.802   6.706   0.311
 6619TIP3   OH241415   2.391   4.831   0.581
 6619TIP3    H141416   2.409   4.824   0.487
 6619TIP3    H241417   2.299   4.856   0.586
 6620TIP3   OH241418   6.497   2.198   0.206
 6620TIP3    H141419   6.513   2.284   0.245
 6620TIP3    H241420   6.410   2.174   0.237
 6621TIP3   OH241421   2.395   2.291   0.173
 6621TIP3    H141422   2.371   2.327   0.088
 6621TIP3    H241423   2.468   2.345   0.203
 6622TIP3   OH241424   2.207   5.983   0.809
 6622TIP3    H141425   2.257   6.065   0.808
 6622TIP3    H241426   2.208   5.955   0.900
 6623TIP3   OH241427   6.651   4.295   2.344
 6623TIP3    H141428   6.673   4.360   2.411
 6623TIP3    H241429   6.555   4.295   2.341
 6624TIP3   OH241430   4.876   2.599   1.972
 6624TIP3    H141431   4.959   2.623   1.929
 6624TIP3    H241432   4.813   2.662   1.937
 6625TIP3   OH241433   5.024   1.720   8.645
 6625TIP3    H141434   5.114   1.714   8.679
 6625TIP3    H241435   4.987   1.796   8.689
 6626TIP3   OH241436   3.540   3.980   0.534
 6626TIP3    H141437   3.469   4.018   0.482
 6626TIP3    H241438   3.496   3.919   0.593
 6627TIP3   OH241439   0.504   1.794   8.433
 6627TIP3    H141440   0.428   1.840   8.397
 6627TIP3    H241441   0.471   1.748   8.510
 6628TIP3   OH241442   4.749   6.735   7.881
 6628TIP3    H141443   4.661   6.710   7.910
 6628TIP3    H241444   4.807   6.690   7.943
 6629TIP3   OH241445   0.256   0.711   0.107
 6629TIP3    H141446   0.312   0.744   0.177
 6629TIP3    H241447   0.222   0.628   0.141
 6630TIP3   OH241448   4.921   3.418   7.854
 6630TIP3    H141449   4.974   3.452   7.926
 6630TIP3    H241450   4.955   3.462   7.776
 6631TIP3   OH241451   1.146   6.192   1.436
 6631TIP3    H141452   1.216   6.166   1.377
 6631TIP3    H241453   1.111   6.272   1.397
 6632TIP3   OH241454   4.444   6.645   7.947
 6632TIP3    H141455   4.410   6.618   8.032
 6632TIP3    H241456   4.473   6.564   7.905
 6633TIP3   OH241457   0.328   2.459   1.249
 6633TIP3    H141458   0.396   2.416   1.197
 6633TIP3    H241459   0.295   2.529   1.192
 6634TIP3   OH241460   4.157   1.226   8.530
 6634TIP3    H141461   4.076   1.242   8.578
 6634TIP3    H241462   4.141   1.144   8.483
 6635TIP3   OH241463   2.168   5.736   1.925
 6635TIP3    H141464   2.099   5.682   1.963
 6635TIP3    H241465   2.210   5.679   1.860
 6636TIP3   OH241466   3.997   1.303   8.266
 6636TIP3    H141467   4.048   1.222   8.258
 6636TIP3    H241468   3.999   1.340   8.177
 6637TIP3   OH241469   1.008   6.486   1.522
 6637TIP3    H141470   1.091   6.479   1.568
 6637TIP3    H241471   0.952   6.419   1.560
 6638TIP3   OH241472   3.680   4.112   0.119
 6638TIP3    H141473   3.751   4.118   0.183
 6638TIP3    H241474   3.653   4.020   0.122
 6639TIP3   OH241475   4.730   4.763   8.411
 6639TIP3    H141476   4.737   4.669   8.430
 6639TIP3    H241477   4.650   4.791   8.456
 6640TIP3   OH241478   0.508   0.720   7.126
 6640TIP3    H141479   0.475   0.763   7.205
 6640TIP3    H241480   0.452   0.754   7.056
 6641TIP3   OH241481   3.652   6.505   7.934
 6641TIP3    H141482   3.594   6.576   7.908
 6641TIP3    H241483   3.594   6.437   7.968
 6642TIP3   OH241484   0.345   2.005   6.791
 6642TIP3    H141485   0.333   2.002   6.696
 6642TIP3    H241486   0.357   1.914   6.817
 6643TIP3   OH241487   0.564   0.419   0.747
 6643TIP3    H141488   0.600   0.479   0.812
 6643TIP3    H241489   0.518   0.475   0.685
 6644TIP3   OH241490   0.545   3.181   6.247
 6644TIP3    H141491   0.534   3.240   6.322
 6644TIP3    H241492   0.639   3.164   6.244
 6645TIP3   OH241493   6.077   0.110   1.597
 6645TIP3    H141494   6.017   0.091   1.669
 6645TIP3    H241495   6.111   0.197   1.616
 6646TIP3   OH241496   3.181   1.372   7.410
 6646TIP3    H141497   3.179   1.428   7.488
 6646TIP3    H241498   3.152   1.429   7.339
 6647TIP3   OH241499   5.518   3.058   8.081
 6647TIP3    H141500   5.583   2.989   8.098
 6647TIP3    H241501   5.434   3.012   8.083
 6648TIP3   OH241502   2.737   2.337   7.710
 6648TIP3    H141503   2.775   2.424   7.695
 6648TIP3    H241504   2.749   2.290   7.627
 6649TIP3   OH241505   4.476   2.316   0.850
 6649TIP3    H141506   4.479   2.407   0.881
 6649TIP3    H241507   4.439   2.268   0.923
 6650TIP3   OH241508   1.564   6.694   7.366
 6650TIP3    H141509   1.590   6.771   7.317
 6650TIP3    H241510   1.468   6.698   7.367
 6651TIP3   OH241511   0.743   4.396   0.402
 6651TIP3    H141512   0.692   4.473   0.428
 6651TIP3    H241513   0.714   4.378   0.312
 6652TIP3   OH241514   5.742   5.740   0.791
 6652TIP3    H141515   5.743   5.655   0.748
 6652TIP3    H241516   5.830   5.749   0.827
 6653TIP3   OH241517   4.289   0.574   0.555
 6653TIP3    H141518   4.278   0.495   0.608
 6653TIP3    H241519   4.380   0.599   0.567
 6654TIP3   OH241520   0.919   2.391   0.201
 6654TIP3    H141521   0.905   2.434   0.116
 6654TIP3    H241522   0.945   2.462   0.260
 6655TIP3   OH241523   2.765   0.651   6.847
 6655TIP3    H141524   2.744   0.682   6.759
 6655TIP3    H241525   2.826   0.578   6.833
 6656TIP3   OH241526   5.832   2.392   8.585
 6656TIP3    H141527   5.764   2.451   8.553
 6656TIP3    H241528   5.851   2.334   8.511
 6657TIP3   OH241529   3.895   6.551   7.741
 6657TIP3    H141530   3.823   6.489   7.731
 6657TIP3    H241531   3.856   6.626   7.787
 6658TIP3   OH241532   5.730   0.857   1.630
 6658TIP3    H141533   5.721   0.865   1.725
 6658TIP3    H241534   5.700   0.942   1.596
 6659TIP3   OH241535   5.871   6.157   0.823
 6659TIP3    H141536   5.891   6.167   0.730
 6659TIP3    H241537   5.938   6.097   0.856
 6660TIP3   OH241538   1.999   0.300   0.087
 6660TIP3    H141539   2.033   0.214   0.062
 6660TIP3    H241540   1.908   0.285   0.110
 6661TIP3   OH241541   0.449   1.759   7.715
 6661TIP3    H141542   0.457   1.854   7.713
 6661TIP3    H241543   0.393   1.741   7.790
 6662TIP3   OH241544   2.616   2.449   8.211
 6662TIP3    H141545   2.580   2.376   8.262
 6662TIP3    H241546   2.548   2.516   8.215
 6663TIP3   OH241547   2.095   2.256   1.483
 6663TIP3    H141548   2.099   2.322   1.414
 6663TIP3    H241549   2.009   2.269   1.524
 6664TIP3   OH241550   2.669   3.630   7.466
 6664TIP3    H141551   2.701   3.546   7.433
 6664TIP3    H241552   2.574   3.624   7.458
 6665TIP3   OH241553   3.354   6.634   6.691
 6665TIP3    H141554   3.321   6.664   6.607
 6665TIP3    H241555   3.423   6.571   6.668
 6666TIP3   OH241556   0.130   4.514   0.077
 6666TIP3    H141557   0.161   4.512   8.778
 6666TIP3    H241558   0.042   4.551   0.072
 6667TIP3   OH241559   2.189   1.760   8.760
 6667TIP3    H141560   2.240   1.680   8.755
 6667TIP3    H241561   2.230   1.819   8.696
 6668TIP3   OH241562   1.934   2.054   1.905
 6668TIP3    H141563   1.946   1.960   1.890
 6668TIP3    H241564   1.994   2.096   1.843
 6669TIP3   OH241565   0.522   3.300   1.372
 6669TIP3    H141566   0.441   3.273   1.326
 6669TIP3    H241567   0.550   3.379   1.326
 6670TIP3   OH241568   3.671   0.224   8.578
 6670TIP3    H141569   3.666   0.243   8.672
 6670TIP3    H241570   3.674   0.128   8.574
 6671TIP3   OH241571   5.223   5.459   8.487
 6671TIP3    H141572   5.299   5.412   8.451
 6671TIP3    H241573   5.239   5.461   8.581
 6672TIP3   OH241574   3.137   4.206   2.367
 6672TIP3    H141575   3.166   4.295   2.386
 6672TIP3    H241576   3.196   4.176   2.298
 6673TIP3   OH241577   4.228   1.019   1.286
 6673TIP3    H141578   4.207   0.972   1.206
 6673TIP3    H241579   4.273   1.098   1.256
 6674TIP3   OH241580   6.391   5.355   6.741
 6674TIP3    H141581   6.466   5.298   6.762
 6674TIP3    H241582   6.406   5.433   6.794
 6675TIP3   OH241583   0.767   6.746   6.917
 6675TIP3    H141584   0.718   6.667   6.896
 6675TIP3    H241585   0.730   6.813   6.860
 6676TIP3   OH241586   1.208   5.651   1.990
 6676TIP3    H141587   1.162   5.603   2.059
 6676TIP3    H241588   1.295   5.669   2.027
 6677TIP3   OH241589   0.270   4.265   7.140
 6677TIP3    H141590   0.225   4.247   7.223
 6677TIP3    H241591   0.208   4.239   7.072
 6678TIP3   OH241592   5.527   2.816   7.159
 6678TIP3    H141593   5.516   2.902   7.120
 6678TIP3    H241594   5.619   2.813   7.186
 6679TIP3   OH241595   0.852   4.909   8.464
 6679TIP3    H141596   0.805   4.903   8.381
 6679TIP3    H241597   0.786   4.939   8.526
 6680TIP3   OH241598   2.791   0.774   2.134
 6680TIP3    H141599   2.786   0.740   2.045
 6680TIP3    H241600   2.775   0.868   2.125
 6681TIP3   OH241601   4.904   3.754   8.518
 6681TIP3    H141602   4.812   3.748   8.493
 6681TIP3    H241603   4.906   3.821   8.586
 6682TIP3   OH241604   3.583   2.471   0.133
 6682TIP3    H141605   3.492   2.485   0.105
 6682TIP3    H241606   3.580   2.394   0.189
 6683TIP3   OH241607   6.462   1.184   7.548
 6683TIP3    H141608   6.405   1.152   7.477
 6683TIP3    H241609   6.500   1.104   7.585
 6684TIP3   OH241610   6.799   3.412   1.529
 6684TIP3    H141611   0.028   3.451   1.453
 6684TIP3    H241612   6.781   3.486   1.587
 6685TIP3   OH241613   5.125   2.105   7.790
 6685TIP3    H141614   5.060   2.173   7.771
 6685TIP3    H241615   5.083   2.049   7.855
 6686TIP3   OH241616   3.432   5.198   1.683
 6686TIP3    H141617   3.479   5.179   1.601
 6686TIP3    H241618   3.403   5.112   1.714
 6687TIP3   OH241619   4.904   4.009   7.494
 6687TIP3    H141620   4.934   3.923   7.521
 6687TIP3    H241621   4.822   3.993   7.449
 6688TIP3   OH241622   5.281   4.393   1.486
 6688TIP3    H141623   5.215   4.324   1.492
 6688TIP3    H241624   5.237   4.463   1.437
 6689TIP3   OH241625   6.602   1.190   0.757
 6689TIP3    H141626   6.632   1.281   0.762
 6689TIP3    H241627   6.536   1.182   0.825
 6690TIP3   OH241628   3.366   4.169   0.441
 6690TIP3    H141629   3.294   4.181   0.503
 6690TIP3    H241630   3.432   4.233   0.467
 6691TIP3   OH241631   6.785   3.016   7.823
 6691TIP3    H141632   6.723   3.059   7.883
 6691TIP3    H241633   0.032   2.971   7.882
 6692TIP3   OH241634   0.691   4.360   6.978
 6692TIP3    H141635   0.703   4.406   6.895
 6692TIP3    H241636   0.775   4.370   7.023
 6693TIP3   OH241637   2.558   1.782   0.127
 6693TIP3    H141638   2.562   1.824   0.213
 6693TIP3    H241639   2.472   1.805   0.092
 6694TIP3   OH241640   3.403   6.360   6.507
 6694TIP3    H141641   3.392   6.269   6.533
 6694TIP3    H241642   3.326   6.379   6.453
 6695TIP3   OH241643   4.046   5.579   1.104
 6695TIP3    H141644   4.031   5.565   1.198
 6695TIP3    H241645   4.141   5.579   1.094
 6696TIP3   OH241646   4.709   2.793   0.726
 6696TIP3    H141647   4.787   2.738   0.715
 6696TIP3    H241648   4.636   2.733   0.715
 6697TIP3   OH241649   2.639   0.718   1.246
 6697TIP3    H141650   2.563   0.672   1.283
 6697TIP3    H241651   2.683   0.756   1.322
 6698TIP3   OH241652   0.141   1.903   1.907
 6698TIP3    H141653   0.190   1.942   1.979
 6698TIP3    H241654   0.069   1.856   1.950
 6699TIP3   OH241655   6.429   6.586   0.084
 6699TIP3    H141656   6.380   6.576   0.002
 6699TIP3    H241657   6.491   6.656   0.065
 6700TIP3   OH241658   5.371   1.440   1.893
 6700TIP3    H141659   5.312   1.444   1.818
 6700TIP3    H241660   5.323   1.390   1.959
 6701TIP3   OH241661   2.949   5.715   0.466
 6701TIP3    H141662   2.881   5.770   0.429
 6701TIP3    H241663   2.912   5.627   0.465
 6702TIP3   OH241664   1.304   1.841   1.894
 6702TIP3    H141665   1.304   1.898   1.817
 6702TIP3    H241666   1.340   1.895   1.964
 6703TIP3   OH241667   6.718   0.343   2.669
 6703TIP3    H141668   6.700   0.432   2.637
 6703TIP3    H241669   6.698   0.348   2.762
 6704TIP3   OH241670   6.297   4.327   0.829
 6704TIP3    H141671   6.308   4.316   0.924
 6704TIP3    H241672   6.386   4.337   0.796
 6705TIP3   OH241673   2.999   1.133   1.193
 6705TIP3    H141674   3.032   1.196   1.129
 6705TIP3    H241675   3.067   1.129   1.260
 6706TIP3   OH241676   0.738   3.124   0.370
 6706TIP3    H141677   0.762   3.100   0.280
 6706TIP3    H241678   0.676   3.057   0.397
 6707TIP3   OH241679   5.825   0.604   1.031
 6707TIP3    H141680   5.861   0.526   1.071
 6707TIP3    H241681   5.755   0.633   1.090
 6708TIP3   OH241682   6.479   2.467   7.922
 6708TIP3    H141683   6.482   2.496   7.831
 6708TIP3    H241684   6.570   2.470   7.951
 6709TIP3   OH241685   1.659   1.070   6.888
 6709TIP3    H141686   1.618   1.020   6.958
 6709TIP3    H241687   1.746   1.032   6.879
 6710TIP3   OH241688   5.569   0.746   8.365
 6710TIP3    H141689   5.637   0.757   8.298
 6710TIP3    H241690   5.543   0.654   8.357
 6711TIP3   OH241691   3.113   6.165   1.326
 6711TIP3    H141692   3.046   6.174   1.394
 6711TIP3    H241693   3.079   6.098   1.266
 6712TIP3   OH241694   0.060   2.752   7.942
 6712TIP3    H141695   0.002   2.734   7.868
 6712TIP3    H241696   0.002   2.787   8.010
 6713TIP3   OH241697   5.329   1.404   7.286
 6713TIP3    H141698   5.271   1.335   7.253
 6713TIP3    H241699   5.376   1.435   7.209
 6714TIP3   OH241700   1.496   4.646   1.246
 6714TIP3    H141701   1.417   4.595   1.264
 6714TIP3    H241702   1.497   4.655   1.150
 6715TIP3   OH241703   5.530   3.082   1.397
 6715TIP3    H141704   5.513   3.081   1.491
 6715TIP3    H241705   5.625   3.087   1.389
 6716TIP3   OH241706   3.923   0.984   1.134
 6716TIP3    H141707   3.845   1.029   1.100
 6716TIP3    H241708   3.925   1.005   1.227
 6717TIP3   OH241709   1.766   0.158   0.669
 6717TIP3    H141710   1.759   0.140   0.576
 6717TIP3    H241711   1.760   0.072   0.711
 6718TIP3   OH241712   6.423   0.274   0.929
 6718TIP3    H141713   6.442   0.207   0.864
 6718TIP3    H241714   6.337   0.250   0.964
 6719TIP3   OH241715   5.924   3.962   0.315
 6719TIP3    H141716   5.995   3.961   0.250
 6719TIP3    H241717   5.966   3.934   0.396
 6720TIP3   OH241718   1.856   3.685   6.789
 6720TIP3    H141719   1.874   3.645   6.703
 6720TIP3    H241720   1.942   3.703   6.826
 6721TIP3   OH241721   6.035   5.548   7.350
 6721TIP3    H141722   6.019   5.627   7.299
 6721TIP3    H241723   6.097   5.575   7.417
 6722TIP3   OH241724   1.047   0.988   7.628
 6722TIP3    H141725   1.091   1.069   7.654
 6722TIP3    H241726   1.117   0.934   7.590
 6723TIP3   OH241727   0.238   0.219   1.299
 6723TIP3    H141728   0.256   0.281   1.228
 6723TIP3    H241729   0.194   0.145   1.256
 6724TIP3   OH241730   4.263   1.948   1.166
 6724TIP3    H141731   4.251   1.919   1.075
 6724TIP3    H241732   4.197   1.899   1.215
 6725TIP3   OH241733   5.476   0.291   2.487
 6725TIP3    H141734   5.420   0.263   2.415
 6725TIP3    H241735   5.431   0.367   2.524
 6726TIP3   OH241736   4.744   3.963   8.269
 6726TIP3    H141737   4.750   3.990   8.177
 6726TIP3    H241738   4.727   3.869   8.266
 6727TIP3   OH241739   0.462   4.146   1.475
 6727TIP3    H141740   0.500   4.142   1.563
 6727TIP3    H241741   0.371   4.170   1.489
 6728TIP3   OH241742   6.279   3.736   7.550
 6728TIP3    H141743   6.307   3.650   7.520
 6728TIP3    H241744   6.313   3.743   7.639
 6729TIP3   OH241745   6.622   5.256   8.443
 6729TIP3    H141746   6.569   5.238   8.521
 6729TIP3    H241747   6.695   5.195   8.449
 6730TIP3   OH241748   5.921   0.868   7.295
 6730TIP3    H141749   5.985   0.911   7.238
 6730TIP3    H241750   5.921   0.777   7.265
 6731TIP3   OH241751   0.035   1.209   0.370
 6731TIP3    H141752   0.034   1.212   0.466
 6731TIP3    H241753   0.043   1.301   0.344
 6732TIP3   OH241754   4.028   5.120   6.734
 6732TIP3    H141755   3.947   5.120   6.683
 6732TIP3    H241756   4.083   5.187   6.694
 6733TIP3   OH241757   4.210   2.641   0.816
 6733TIP3    H141758   4.211   2.582   0.892
 6733TIP3    H241759   4.200   2.728   0.853
 6734TIP3   OH241760   1.790   5.309   7.850
 6734TIP3    H141761   1.801   5.404   7.841
 6734TIP3    H241762   1.857   5.271   7.794
 6735TIP3   OH241763   3.618   0.079   7.729
 6735TIP3    H141764   3.594   6.802   7.746
 6735TIP3    H241765   3.666   0.107   7.807
 6736TIP3   OH241766   4.880   2.958   1.392
 6736TIP3    H141767   4.886   2.989   1.482
 6736TIP3    H241768   4.867   2.863   1.400
 6737TIP3   OH241769   2.443   2.556   0.063
 6737TIP3    H141770   2.489   2.636   0.091
 6737TIP3    H241771   2.370   2.588   0.010
 6738TIP3   OH241772   6.290   1.470   7.085
 6738TIP3    H141773   6.370   1.506   7.122
 6738TIP3    H241774   6.241   1.436   7.160
 6739TIP3   OH241775   3.593   4.121   6.731
 6739TIP3    H141776   3.588   4.072   6.813
 6739TIP3    H241777   3.509   4.166   6.725
 6740TIP3   OH241778   4.593   6.036   7.543
 6740TIP3    H141779   4.660   5.971   7.522
 6740TIP3    H241780   4.553   6.058   7.459
 6741TIP3   OH241781   1.637   3.398   0.432
 6741TIP3    H141782   1.630   3.303   0.416
 6741TIP3    H241783   1.566   3.435   0.380
 6742TIP3   OH241784   3.636   6.074   1.373
 6742TIP3    H141785   3.602   6.040   1.456
 6742TIP3    H241786   3.589   6.155   1.358
 6743TIP3   OH241787   2.541   3.656   0.148
 6743TIP3    H141788   2.618   3.601   0.134
 6743TIP3    H241789   2.570   3.744   0.127
 6744TIP3   OH241790   6.000   2.428   0.797
 6744TIP3    H141791   6.019   2.428   0.891
 6744TIP3    H241792   5.943   2.352   0.784
 6745TIP3   OH241793   6.022   2.319   6.913
 6745TIP3    H141794   6.009   2.290   6.822
 6745TIP3    H241795   6.050   2.410   6.905
 6746TIP3   OH241796   1.587   4.281   6.730
 6746TIP3    H141797   1.637   4.222   6.674
 6746TIP3    H241798   1.651   4.345   6.761
 6747TIP3   OH241799   6.640   3.459   8.629
 6747TIP3    H141800   6.567   3.424   8.578
 6747TIP3    H241801   6.606   3.540   8.668
 6748TIP3   OH241802   1.168   0.959   2.401
 6748TIP3    H141803   1.094   0.913   2.362
 6748TIP3    H241804   1.184   1.032   2.341
 6749TIP3   OH241805   0.999   6.360   6.922
 6749TIP3    H141806   1.042   6.322   6.845
 6749TIP3    H241807   1.036   6.311   6.996
 6750TIP3   OH241808   5.986   3.293   6.930
 6750TIP3    H141809   6.070   3.275   6.888
 6750TIP3    H241810   5.965   3.213   6.978
 6751TIP3   OH241811   0.293   2.109   2.485
 6751TIP3    H141812   0.342   2.113   2.403
 6751TIP3    H241813   0.213   2.062   2.462
 6752TIP3   OH241814   6.300   1.565   8.196
 6752TIP3    H141815   6.358   1.489   8.202
 6752TIP3    H241816   6.293   1.597   8.286
 6753TIP3   OH241817   2.984   1.973   7.871
 6753TIP3    H141818   2.960   2.033   7.942
 6753TIP3    H241819   2.955   2.018   7.792
 6754TIP3   OH241820   4.569   5.115   2.220
 6754TIP3    H141821   4.627   5.043   2.194
 6754TIP3    H241822   4.484   5.073   2.235
 6755TIP3   OH241823   1.317   0.748   7.082
 6755TIP3    H141824   1.334   0.786   6.996
 6755TIP3    H241825   1.374   0.671   7.086
 6756TIP3   OH241826   0.620   3.827   1.053
 6756TIP3    H141827   0.660   3.911   1.070
 6756TIP3    H241828   0.534   3.832   1.094
 6757TIP3   OH241829   4.934   0.213   0.582
 6757TIP3    H141830   4.993   0.225   0.657
 6757TIP3    H241831   4.909   0.121   0.586
 6758TIP3   OH241832   4.233   5.433   1.635
 6758TIP3    H141833   4.318   5.397   1.610
 6758TIP3    H241834   4.173   5.358   1.632
 6759TIP3   OH241835   4.203   4.418   0.533
 6759TIP3    H141836   4.108   4.430   0.527
 6759TIP3    H241837   4.230   4.480   0.601
 6760TIP3   OH241838   2.374   6.534   8.675
 6760TIP3    H141839   2.345   6.610   8.625
 6760TIP3    H241840   2.436   6.569   8.740
 6761TIP3   OH241841   1.385   2.182   6.935
 6761TIP3    H141842   1.428   2.192   7.020
 6761TIP3    H241843   1.320   2.252   6.933
 6762TIP3   OH241844   6.159   4.703   0.056
 6762TIP3    H141845   6.069   4.728   0.074
 6762TIP3    H241846   6.198   4.780   0.014
 6763TIP3   OH241847   2.519   6.022   8.746
 6763TIP3    H141848   2.513   5.977   0.039
 6763TIP3    H241849   2.492   6.112   8.764
 6764TIP3   OH241850   6.115   5.693   8.327
 6764TIP3    H141851   6.089   5.765   8.385
 6764TIP3    H241852   6.057   5.700   8.251
 6765TIP3   OH241853   2.408   3.598   1.948
 6765TIP3    H141854   2.398   3.692   1.962
 6765TIP3    H241855   2.501   3.581   1.966
 6766TIP3   OH241856   1.112   1.237   7.704
 6766TIP3    H141857   1.198   1.235   7.745
 6766TIP3    H241858   1.051   1.258   7.775
 6767TIP3   OH241859   4.824   2.134   7.893
 6767TIP3    H141860   4.745   2.086   7.920
 6767TIP3    H241861   4.841   2.103   7.804
 6768TIP3   OH241862   0.605   1.233   7.426
 6768TIP3    H141863   0.548   1.310   7.434
 6768TIP3    H241864   0.691   1.265   7.452
 6769TIP3   OH241865   3.768   4.616   7.199
 6769TIP3    H141866   3.860   4.625   7.223
 6769TIP3    H241867   3.743   4.529   7.231
 6770TIP3   OH241868   2.937   1.085   1.836
 6770TIP3    H141869   2.907   1.071   1.926
 6770TIP3    H241870   2.951   0.997   1.801
 6771TIP3   OH241871   3.722   0.313   7.928
 6771TIP3    H141872   3.731   0.224   7.962
 6771TIP3    H241873   3.728   0.369   8.006
 6772TIP3   OH241874   3.320   6.500   7.963
 6772TIP3    H141875   3.366   6.418   7.948
 6772TIP3    H241876   3.300   6.501   8.057
 6773TIP3   OH241877   5.283   1.752   1.908
 6773TIP3    H141878   5.232   1.799   1.842
 6773TIP3    H241879   5.360   1.720   1.861
 6774TIP3   OH241880   2.319   5.047   7.349
 6774TIP3    H141881   2.329   5.116   7.414
 6774TIP3    H241882   2.406   5.007   7.344
 6775TIP3   OH241883   3.383   1.438   8.576
 6775TIP3    H141884   3.304   1.385   8.569
 6775TIP3    H241885   3.367   1.512   8.519
 6776TIP3   OH241886   6.178   1.905   7.370
 6776TIP3    H141887   6.192   1.912   7.275
 6776TIP3    H241888   6.138   1.988   7.395
 6777TIP3   OH241889   4.193   5.499   6.825
 6777TIP3    H141890   4.155   5.441   6.759
 6777TIP3    H241891   4.234   5.440   6.888
 6778TIP3   OH241892   3.181   0.771   1.950
 6778TIP3    H141893   3.137   0.734   2.027
 6778TIP3    H241894   3.109   0.792   1.890
 6779TIP3   OH241895   1.552   3.150   0.364
 6779TIP3    H141896   1.533   3.097   0.287
 6779TIP3    H241897   1.484   3.126   0.427
 6780TIP3   OH241898   2.051   3.087   0.848
 6780TIP3    H141899   2.007   3.058   0.767
 6780TIP3    H241900   2.143   3.062   0.835
 6781TIP3   OH241901   2.850   2.359   2.486
 6781TIP3    H141902   2.788   2.348   2.415
 6781TIP3    H241903   2.925   2.304   2.462
 6782TIP3   OH241904   5.893   0.642   7.149
 6782TIP3    H141905   5.958   0.677   7.088
 6782TIP3    H241906   5.811   0.642   7.099
 6783TIP3   OH241907   4.164   1.052   2.353
 6783TIP3    H141908   4.176   1.143   2.325
 6783TIP3    H241909   4.185   1.001   2.275
 6784TIP3   OH241910   6.089   2.619   2.257
 6784TIP3    H141911   6.061   2.538   2.298
 6784TIP3    H241912   6.096   2.682   2.329
 6785TIP3   OH241913   2.486   4.129   0.161
 6785TIP3    H141914   2.456   4.057   0.217
 6785TIP3    H241915   2.472   4.207   0.214
 6786TIP3   OH241916   1.588   6.157   2.382
 6786TIP3    H141917   1.683   6.161   2.366
 6786TIP3    H241918   1.575   6.210   2.460
 6787TIP3   OH241919   6.673   4.331   8.276
 6787TIP3    H141920   6.615   4.326   8.352
 6787TIP3    H241921   6.667   4.421   8.246
 6788TIP3   OH241922   1.897   2.564   0.061
 6788TIP3    H141923   1.969   2.501   0.064
 6788TIP3    H241924   1.825   2.519   0.106
 6789TIP3   OH241925   2.748   4.703   0.884
 6789TIP3    H141926   2.656   4.717   0.860
 6789TIP3    H241927   2.767   4.614   0.854
 6790TIP3   OH241928   1.299   4.287   7.518
 6790TIP3    H141929   1.205   4.300   7.503
 6790TIP3    H241930   1.340   4.324   7.440
 6791TIP3   OH241931   5.896   3.290   0.765
 6791TIP3    H141932   5.833   3.217   0.767
 6791TIP3    H241933   5.843   3.367   0.784
 6792TIP3   OH241934   3.545   4.130   0.812
 6792TIP3    H141935   3.473   4.078   0.848
 6792TIP3    H241936   3.599   4.153   0.888
 6793TIP3   OH241937   1.446   6.200   1.426
 6793TIP3    H141938   1.440   6.217   1.520
 6793TIP3    H241939   1.488   6.279   1.391
 6794TIP3   OH241940   5.796   3.495   8.232
 6794TIP3    H141941   5.805   3.399   8.230
 6794TIP3    H241942   5.886   3.527   8.234
 6795TIP3   OH241943   4.364   1.174   2.039
 6795TIP3    H141944   4.309   1.217   2.105
 6795TIP3    H241945   4.328   1.086   2.031
 6796TIP3   OH241946   3.607   0.365   7.218
 6796TIP3    H141947   3.518   0.355   7.252
 6796TIP3    H241948   3.663   0.334   7.290
 6797TIP3   OH241949   5.156   2.002   2.397
 6797TIP3    H141950   5.156   2.087   2.354
 6797TIP3    H241951   5.064   1.984   2.417
 6798TIP3   OH241952   5.076   2.228   8.363
 6798TIP3    H141953   5.155   2.265   8.323
 6798TIP3    H241954   5.011   2.231   8.293
 6799TIP3   OH241955   4.514   0.805   1.293
 6799TIP3    H141956   4.420   0.786   1.298
 6799TIP3    H241957   4.528   0.834   1.203
 6800TIP3   OH241958   5.497   0.472   1.590
 6800TIP3    H141959   5.453   0.551   1.622
 6800TIP3    H241960   5.504   0.486   1.496
 6801TIP3   OH241961   6.550   6.661   1.404
 6801TIP3    H141962   6.520   6.737   1.454
 6801TIP3    H241963   6.573   6.596   1.471
 6802TIP3   OH241964   3.942   1.896   1.353
 6802TIP3    H141965   3.947   1.991   1.365
 6802TIP3    H241966   3.848   1.877   1.355
 6803TIP3   OH241967   3.910   2.498   1.037
 6803TIP3    H141968   3.855   2.430   1.076
 6803TIP3    H241969   3.999   2.470   1.056
 6804TIP3   OH241970   0.931   5.196   0.548
 6804TIP3    H141971   0.929   5.136   0.474
 6804TIP3    H241972   0.839   5.216   0.566
 6805TIP3   OH241973   3.675   1.694   7.918
 6805TIP3    H141974   3.649   1.637   7.845
 6805TIP3    H241975   3.618   1.770   7.909
 6806TIP3   OH241976   4.329   0.808   0.159
 6806TIP3    H141977   4.302   0.871   0.092
 6806TIP3    H241978   4.309   0.722   0.121
 6807TIP3   OH241979   6.768   4.992   1.220
 6807TIP3    H141980   6.794   4.939   1.295
 6807TIP3    H241981   0.032   5.042   1.197
 6808TIP3   OH241982   2.956   4.225   0.348
 6808TIP3    H141983   3.039   4.223   0.301
 6808TIP3    H241984   2.944   4.317   0.373
 6809TIP3   OH241985   5.652   1.512   1.551
 6809TIP3    H141986   5.662   1.512   1.456
 6809TIP3    H241987   5.575   1.566   1.567
 6810TIP3   OH241988   5.635   0.656   0.567
 6810TIP3    H141989   5.671   0.588   0.510
 6810TIP3    H241990   5.579   0.609   0.628
 6811TIP3   OH241991   5.106   0.756   8.237
 6811TIP3    H141992   5.173   0.813   8.275
 6811TIP3    H241993   5.144   0.724   8.156
 6812TIP3   OH241994   1.117   6.055   0.721
 6812TIP3    H141995   1.186   6.109   0.759
 6812TIP3    H241996   1.102   5.986   0.785
 6813TIP3   OH241997   5.138   2.829   0.571
 6813TIP3    H141998   5.218   2.779   0.557
 6813TIP3    H241999   5.131   2.885   0.493
 6814TIP3   OH242000   2.510   1.638   2.366
 6814TIP3    H142001   2.487   1.553   2.329
 6814TIP3    H242002   2.566   1.679   2.299
 6815TIP3   OH242003   5.222   1.461   0.636
 6815TIP3    H142004   5.285   1.441   0.566
 6815TIP3    H242005   5.189   1.376   0.663
 6816TIP3   OH242006   5.785   3.912   0.036
 6816TIP3    H142007   5.825   3.991   8.790
 6816TIP3    H242008   5.860   3.854   0.053
 6817TIP3   OH242009   2.000   1.927   8.127
 6817TIP3    H142010   2.035   2.014   8.147
 6817TIP3    H242011   1.967   1.895   8.211
 6818TIP3   OH242012   1.255   3.070   7.314
 6818TIP3    H142013   1.197   3.146   7.312
 6818TIP3    H242014   1.262   3.043   7.222
 6819TIP3   OH242015   0.581   3.413   1.003
 6819TIP3    H142016   0.491   3.407   0.969
 6819TIP3    H242017   0.572   3.458   1.087
 6820TIP3   OH242018   5.369   0.457   7.397
 6820TIP3    H142019   5.370   0.416   7.483
 6820TIP3    H242020   5.449   0.426   7.354
 6821TIP3   OH242021   6.807   4.682   7.755
 6821TIP3    H142022   0.076   4.728   7.743
 6821TIP3    H242023   0.012   4.590   7.734
 6822TIP3   OH242024   2.958   6.093   0.852
 6822TIP3    H142025   2.866   6.104   0.824
 6822TIP3    H242026   2.985   6.012   0.808
 6823TIP3   OH242027   3.260   5.054   0.082
 6823TIP3    H142028   3.342   5.068   0.034
 6823TIP3    H242029   3.197   5.112   0.039
 6824TIP3   OH242030   0.495   6.322   2.524
 6824TIP3    H142031   0.556   6.296   2.455
 6824TIP3    H242032   0.499   6.418   2.525
 6825TIP3   OH242033   2.042   6.777   0.777
 6825TIP3    H142034   2.023   6.684   0.787
 6825TIP3    H242035   2.094   6.799   0.855
 6826TIP3   OH242036   0.886   5.661   1.926
 6826TIP3    H142037   0.815   5.703   1.877
 6826TIP3    H242038   0.842   5.607   1.991
 6827TIP3   OH242039   4.353   1.858   8.455
 6827TIP3    H142040   4.275   1.913   8.459
 6827TIP3    H242041   4.411   1.904   8.394
 6828TIP3   OH242042   4.570   3.723   1.157
 6828TIP3    H142043   4.577   3.794   1.222
 6828TIP3    H242044   4.571   3.643   1.209
 6829TIP3   OH242045   3.259   4.735   1.120
 6829TIP3    H142046   3.353   4.748   1.105
 6829TIP3    H242047   3.255   4.698   1.209
 6830TIP3   OH242048   1.873   6.397   0.396
 6830TIP3    H142049   1.845   6.481   0.360
 6830TIP3    H242050   1.875   6.338   0.320
 6831TIP3   OH242051   1.052   0.198   7.112
 6831TIP3    H142052   0.965   0.227   7.088
 6831TIP3    H242053   1.040   0.145   7.191
 6832TIP3   OH242054   3.202   1.725   0.004
 6832TIP3    H142055   3.237   1.641   0.035
 6832TIP3    H242056   3.273   1.763   8.744
 6833TIP3   OH242057   6.354   1.449   1.552
 6833TIP3    H142058   6.382   1.362   1.579
 6833TIP3    H242059   6.376   1.505   1.627
 6834TIP3   OH242060   0.861   5.333   0.007
 6834TIP3    H142061   0.808   5.367   0.079
 6834TIP3    H242062   0.798   5.301   8.734
 6835TIP3   OH242063   2.171   5.327   8.786
 6835TIP3    H142064   2.258   5.348   8.753
 6835TIP3    H242065   2.133   5.270   8.718
 6836TIP3   OH242066   1.691   0.501   0.235
 6836TIP3    H142067   1.778   0.528   0.206
 6836TIP3    H242068   1.630   0.552   0.182
 6837TIP3   OH242069   0.259   3.769   7.774
 6837TIP3    H142070   0.241   3.716   7.852
 6837TIP3    H242071   0.282   3.705   7.707
 6838TIP3   OH242072   4.408   5.804   1.474
 6838TIP3    H142073   4.484   5.757   1.509
 6838TIP3    H242074   4.345   5.805   1.546
 6839TIP3   OH242075   0.602   1.840   6.661
 6839TIP3    H142076   0.632   1.818   6.573
 6839TIP3    H242077   0.599   1.756   6.707
 6840TIP3   OH242078   6.426   1.371   2.019
 6840TIP3    H142079   6.393   1.290   2.058
 6840TIP3    H242080   6.433   1.352   1.926
 6841TIP3   OH242081   0.658   0.973   0.906
 6841TIP3    H142082   0.695   1.039   0.847
 6841TIP3    H242083   0.733   0.921   0.934
 6842TIP3   OH242084   0.011   2.747   2.555
 6842TIP3    H142085   0.006   2.822   2.495
 6842TIP3    H242086   0.000   2.786   2.642
 6843TIP3   OH242087   5.753   5.101   6.684
 6843TIP3    H142088   5.818   5.055   6.630
 6843TIP3    H242089   5.701   5.032   6.723
 6844TIP3   OH242090   5.414   1.151   7.936
 6844TIP3    H142091   5.433   1.139   7.843
 6844TIP3    H242092   5.384   1.065   7.965
 6845TIP3   OH242093   3.387   6.263   8.578
 6845TIP3    H142094   3.442   6.259   8.500
 6845TIP3    H242095   3.439   6.312   8.641
 6846TIP3   OH242096   3.126   1.810   8.130
 6846TIP3    H142097   3.044   1.839   8.170
 6846TIP3    H242098   3.183   1.887   8.133
 6847TIP3   OH242099   2.941   2.195   1.459
 6847TIP3    H142100   2.930   2.141   1.537
 6847TIP3    H242101   2.942   2.285   1.493
 6848TIP3   OH242102   6.719   4.677   8.016
 6848TIP3    H142103   6.708   4.687   7.921
 6848TIP3    H242104   6.732   4.583   8.029
 6849TIP3   OH242105   2.010   6.424   0.054
 6849TIP3    H142106   1.936   6.368   0.079
 6849TIP3    H242107   2.080   6.362   0.031
 6850TIP3   OH242108   1.609   1.093   0.135
 6850TIP3    H142109   1.609   1.056   0.047
 6850TIP3    H242110   1.698   1.078   0.167
 6851TIP3   OH242111   2.494   4.459   8.317
 6851TIP3    H142112   2.578   4.468   8.364
 6851TIP3    H242113   2.432   4.509   8.370
 6852TIP3   OH242114   2.933   5.983   1.834
 6852TIP3    H142115   2.999   6.032   1.783
 6852TIP3    H242116   2.980   5.957   1.914
 6853TIP3   OH242117   5.153   6.361   7.778
 6853TIP3    H142118   5.221   6.303   7.744
 6853TIP3    H242119   5.195   6.446   7.785
 6854TIP3   OH242120   3.199   5.459   6.945
 6854TIP3    H142121   3.130   5.410   6.901
 6854TIP3    H242122   3.207   5.540   6.896
 6855TIP3   OH242123   3.280   1.857   1.868
 6855TIP3    H142124   3.227   1.920   1.819
 6855TIP3    H242125   3.329   1.910   1.931
 6856TIP3   OH242126   2.297   2.385   6.878
 6856TIP3    H142127   2.281   2.373   6.785
 6856TIP3    H242128   2.236   2.324   6.921
 6857TIP3   OH242129   5.383   6.184   8.423
 6857TIP3    H142130   5.369   6.099   8.380
 6857TIP3    H242131   5.325   6.244   8.377
 6858TIP3   OH242132   0.712   6.099   7.076
 6858TIP3    H142133   0.721   6.194   7.064
 6858TIP3    H242134   0.800   6.070   7.100
 6859TIP3   OH242135   1.823   6.369   1.416
 6859TIP3    H142136   1.738   6.404   1.444
 6859TIP3    H242137   1.830   6.284   1.460
 6860TIP3   OH242138   2.627   3.886   0.065
 6860TIP3    H142139   2.607   3.979   0.067
 6860TIP3    H242140   2.720   3.880   0.084
 6861TIP3   OH242141   6.501   4.069   0.942
 6861TIP3    H142142   6.458   3.993   0.981
 6861TIP3    H242143   6.552   4.107   1.014
 6862TIP3   OH242144   2.793   4.023   1.128
 6862TIP3    H142145   2.785   4.044   1.035
 6862TIP3    H242146   2.748   4.094   1.172
 6863TIP3   OH242147   2.645   5.596   8.221
 6863TIP3    H142148   2.634   5.501   8.227
 6863TIP3    H242149   2.563   5.627   8.182
 6864TIP3   OH242150   1.347   4.107   8.002
 6864TIP3    H142151   1.413   4.107   8.072
 6864TIP3    H242152   1.360   4.024   7.956
 6865TIP3   OH242153   5.482   0.024   6.713
 6865TIP3    H142154   5.547   6.811   6.778
 6865TIP3    H242155   5.531   0.024   6.630
 6866TIP3   OH242156   2.938   5.409   1.148
 6866TIP3    H142157   2.922   5.369   1.063
 6866TIP3    H242158   3.033   5.407   1.160
 6867TIP3   OH242159   4.472   6.212   1.052
 6867TIP3    H142160   4.414   6.137   1.042
 6867TIP3    H242161   4.426   6.271   1.111
 6868TIP3   OH242162   0.217   0.246   8.591
 6868TIP3    H142163   0.233   0.259   8.497
 6868TIP3    H242164   0.272   0.172   8.615
 6869TIP3   OH242165   4.007   4.956   0.644
 6869TIP3    H142166   3.986   5.049   0.648
 6869TIP3    H242167   4.083   4.951   0.586
 6870TIP3   OH242168   0.861   1.328   0.041
 6870TIP3    H142169   0.833   1.371   8.751
 6870TIP3    H242170   0.883   1.400   0.099
 6871TIP3   OH242171   3.718   0.350   8.227
 6871TIP3    H142172   3.705   0.379   8.317
 6871TIP3    H242173   3.803   0.306   8.227
 6872TIP3   OH242174   5.133   5.702   8.725
 6872TIP3    H142175   5.122   5.675   8.634
 6872TIP3    H242176   5.145   5.620   8.773
 6873TIP3   OH242177   3.910   4.154   7.670
 6873TIP3    H142178   3.941   4.105   7.747
 6873TIP3    H242179   3.896   4.243   7.703
 6874TIP3   OH242180   6.438   3.156   1.762
 6874TIP3    H142181   6.427   3.231   1.821
 6874TIP3    H242182   6.380   3.089   1.798
 6875TIP3   OH242183   5.442   0.132   2.786
 6875TIP3    H142184   5.456   0.226   2.787
 6875TIP3    H242185   5.355   0.121   2.749
 6876TIP3   OH242186   1.453   6.168   7.873
 6876TIP3    H142187   1.544   6.197   7.864
 6876TIP3    H242188   1.459   6.075   7.893
 6877TIP3   OH242189   0.093   5.828   0.165
 6877TIP3    H142190   0.007   5.787   0.152
 6877TIP3    H242191   0.075   5.903   0.222
 6878TIP3   OH242192   4.894   6.174   1.182
 6878TIP3    H142193   4.979   6.147   1.215
 6878TIP3    H242194   4.913   6.210   1.095
 6879TIP3   OH242195   1.970   1.184   1.479
 6879TIP3    H142196   2.064   1.198   1.470
 6879TIP3    H242197   1.945   1.238   1.554
 6880TIP3   OH242198   2.527   3.878   1.174
 6880TIP3    H142199   2.475   3.899   1.097
 6880TIP3    H242200   2.617   3.871   1.141
 6881TIP3   OH242201   2.478   5.572   0.478
 6881TIP3    H142202   2.450   5.551   0.389
 6881TIP3    H242203   2.474   5.667   0.483
 6882TIP3   OH242204   4.578   6.039   7.014
 6882TIP3    H142205   4.537   6.085   6.941
 6882TIP3    H242206   4.672   6.053   7.002
 6883TIP3   OH242207   6.656   0.444   0.112
 6883TIP3    H142208   6.684   0.434   0.203
 6883TIP3    H242209   6.699   0.371   0.067
 6884TIP3   OH242210   2.524   0.074   8.278
 6884TIP3    H142211   2.619   0.074   8.271
 6884TIP3    H242212   2.494   0.137   8.212
 6885TIP3   OH242213   0.560   3.586   7.641
 6885TIP3    H142214   0.553   3.672   7.601
 6885TIP3    H242215   0.644   3.587   7.685
 6886TIP3   OH242216   6.723   4.701   0.125
 6886TIP3    H142217   6.792   4.767   0.125
 6886TIP3    H242218   6.702   4.689   0.218
 6887TIP3   OH242219   3.235   6.087   6.890
 6887TIP3    H142220   3.233   6.034   6.811
 6887TIP3    H242221   3.163   6.150   6.878
 6888TIP3   OH242222   3.305   4.656   7.559
 6888TIP3    H142223   3.337   4.697   7.478
 6888TIP3    H242224   3.381   4.611   7.594
 6889TIP3   OH242225   0.203   5.567   0.234
 6889TIP3    H142226   0.187   5.508   0.161
 6889TIP3    H242227   0.157   5.648   0.210
 6890TIP3   OH242228   3.122   4.925   7.575
 6890TIP3    H142229   3.070   4.890   7.502
 6890TIP3    H242230   3.070   4.997   7.610
 6891TIP3   OH242231   6.228   5.663   6.719
 6891TIP3    H142232   6.175   5.740   6.695
 6891TIP3    H242233   6.293   5.698   6.780
 6892TIP3   OH242234   6.642   6.098   2.104
 6892TIP3    H142235   6.698   6.028   2.071
 6892TIP3    H242236   6.664   6.174   2.050
 6893TIP3   OH242237   1.545   2.918   8.771
 6893TIP3    H142238   1.512   3.001   0.015
 6893TIP3    H242239   1.612   2.944   8.707
 6894TIP3   OH242240   4.436   2.620   1.458
 6894TIP3    H142241   4.474   2.548   1.509
 6894TIP3    H242242   4.448   2.697   1.513
 6895TIP3   OH242243   5.545   4.145   2.222
 6895TIP3    H142244   5.506   4.225   2.188
 6895TIP3    H242245   5.494   4.125   2.300
 6896TIP3   OH242246   4.064   2.265   8.644
 6896TIP3    H142247   3.986   2.240   8.694
 6896TIP3    H242248   4.131   2.280   8.711
 6897TIP3   OH242249   5.481   3.325   8.256
 6897TIP3    H142250   5.526   3.354   8.177
 6897TIP3    H242251   5.426   3.399   8.281
 6898TIP3   OH242252   3.789   3.465   2.182
 6898TIP3    H142253   3.815   3.494   2.094
 6898TIP3    H242254   3.837   3.523   2.241
 6899TIP3   OH242255   4.380   5.830   6.820
 6899TIP3    H142256   4.475   5.817   6.818
 6899TIP3    H242257   4.353   5.820   6.729
 6900TIP3   OH242258   0.681   0.110   1.755
 6900TIP3    H142259   0.669   0.175   1.686
 6900TIP3    H242260   0.677   0.160   1.837
 6901TIP3   OH242261   4.708   1.174   1.525
 6901TIP3    H142262   4.745   1.246   1.574
 6901TIP3    H242263   4.723   1.196   1.433
 6902TIP3   OH242264   4.065   3.556   2.016
 6902TIP3    H142265   3.971   3.560   1.999
 6902TIP3    H242266   4.088   3.464   2.002
 6903TIP3   OH242267   1.165   2.793   2.197
 6903TIP3    H142268   1.165   2.834   2.284
 6903TIP3    H242269   1.194   2.703   2.212
 6904TIP3   OH242270   3.262   1.163   0.451
 6904TIP3    H142271   3.317   1.224   0.400
 6904TIP3    H242272   3.194   1.135   0.389
 6905TIP3   OH242273   2.972   6.284   1.861
 6905TIP3    H142274   3.038   6.253   1.799
 6905TIP3    H242275   2.898   6.225   1.850
 6906TIP3   OH242276   0.202   6.469   1.903
 6906TIP3    H142277   0.223   6.507   1.818
 6906TIP3    H242278   0.113   6.437   1.894
 6907TIP3   OH242279   6.149   2.906   0.954
 6907TIP3    H142280   6.214   2.924   0.886
 6907TIP3    H242281   6.200   2.890   1.033
 6908TIP3   OH242282   1.248   2.176   0.390
 6908TIP3    H142283   1.278   2.164   0.480
 6908TIP3    H242284   1.277   2.263   0.366
 6909TIP3   OH242285   6.535   3.308   7.699
 6909TIP3    H142286   6.521   3.377   7.764
 6909TIP3    H242287   6.510   3.227   7.743
 6910TIP3   OH242288   5.443   4.061   7.551
 6910TIP3    H142289   5.383   4.063   7.625
 6910TIP3    H242290   5.438   4.149   7.514
 6911TIP3   OH242291   4.396   0.939   1.691
 6911TIP3    H142292   4.334   1.011   1.685
 6911TIP3    H242293   4.482   0.981   1.681
 6912TIP3   OH242294   5.710   5.213   8.195
 6912TIP3    H142295   5.699   5.119   8.207
 6912TIP3    H242296   5.804   5.228   8.200
 6913TIP3   OH242297   1.398   2.751   0.285
 6913TIP3    H142298   1.400   2.837   0.244
 6913TIP3    H242299   1.419   2.767   0.376
 6914TIP3   OH242300   1.645   3.763   6.443
 6914TIP3    H142301   1.681   3.687   6.396
 6914TIP3    H242302   1.633   3.732   6.533
 6915TIP3   OH242303   3.739   1.969   8.134
 6915TIP3    H142304   3.765   2.061   8.146
 6915TIP3    H242305   3.773   1.946   8.047
 6916TIP3   OH242306   6.619   5.823   7.054
 6916TIP3    H142307   6.617   5.751   6.992
 6916TIP3    H242308   6.561   5.796   7.125
 6917TIP3   OH242309   0.479   0.741   6.699
 6917TIP3    H142310   0.440   0.792   6.628
 6917TIP3    H242311   0.410   0.737   6.766
 6918TIP3   OH242312   6.395   4.965   1.725
 6918TIP3    H142313   6.387   4.908   1.801
 6918TIP3    H242314   6.446   5.040   1.756
 6919TIP3   OH242315   1.115   4.222   8.415
 6919TIP3    H142316   1.128   4.134   8.450
 6919TIP3    H242317   1.174   4.277   8.466
 6920TIP3   OH242318   6.434   0.215   7.668
 6920TIP3    H142319   6.415   0.124   7.690
 6920TIP3    H242320   6.528   0.216   7.649
 6921TIP3   OH242321   2.348   5.348   1.179
 6921TIP3    H142322   2.326   5.263   1.140
 6921TIP3    H242323   2.391   5.396   1.109
 6922TIP3   OH242324   3.733   4.740   1.147
 6922TIP3    H142325   3.695   4.672   1.203
 6922TIP3    H242326   3.677   4.742   1.070
 6923TIP3   OH242327   5.802   0.895   6.972
 6923TIP3    H142328   5.751   0.857   6.900
 6923TIP3    H242329   5.835   0.978   6.937
 6924TIP3   OH242330   0.791   3.622   7.775
 6924TIP3    H142331   0.863   3.684   7.766
 6924TIP3    H242332   0.796   3.591   7.866
 6925TIP3   OH242333   1.231   3.690   7.992
 6925TIP3    H142334   1.227   3.705   8.086
 6925TIP3    H242335   1.234   3.594   7.983
 6926TIP3   OH242336   1.164   3.763   8.583
 6926TIP3    H142337   1.222   3.722   8.647
 6926TIP3    H242338   1.142   3.693   8.522
 6927TIP3   OH242339   4.026   1.935   8.683
 6927TIP3    H142340   4.121   1.940   8.672
 6927TIP3    H242341   3.996   1.883   8.609
 6928TIP3   OH242342   1.342   6.757   6.838
 6928TIP3    H142343   1.249   6.769   6.856
 6928TIP3    H242344   1.386   0.013   6.885
 6929TIP3   OH242345   0.727   0.859   0.556
 6929TIP3    H142346   0.816   0.874   0.587
 6929TIP3    H242347   0.672   0.911   0.615
 6930TIP3   OH242348   4.142   2.707   8.239
 6930TIP3    H142349   4.069   2.646   8.253
 6930TIP3    H242350   4.217   2.651   8.219
 6931TIP3   OH242351   6.084   3.849   0.543
 6931TIP3    H142352   6.138   3.925   0.564
 6931TIP3    H242353   6.044   3.824   0.627
 6932TIP3   OH242354   2.386   2.915   1.115
 6932TIP3    H142355   2.417   2.828   1.139
 6932TIP3    H242356   2.425   2.974   1.180
 6933TIP3   OH242357   0.984   6.377   7.478
 6933TIP3    H142358   0.921   6.345   7.413
 6933TIP3    H242359   0.959   6.468   7.494
 6934TIP3   OH242360   5.423   1.663   0.500
 6934TIP3    H142361   5.351   1.683   0.561
 6934TIP3    H242362   5.400   1.578   0.464
 6935TIP3   OH242363   6.060   0.171   8.507
 6935TIP3    H142364   6.127   0.240   8.508
 6935TIP3    H242365   6.059   0.140   8.417
 6936TIP3   OH242366   5.236   5.498   0.996
 6936TIP3    H142367   5.296   5.428   1.022
 6936TIP3    H242368   5.292   5.575   0.986
 6937TIP3   OH242369   0.445   1.842   7.083
 6937TIP3    H142370   0.417   1.790   7.007
 6937TIP3    H242371   0.462   1.929   7.047
 6938TIP3   OH242372   4.205   4.085   1.535
 6938TIP3    H142373   4.144   4.134   1.590
 6938TIP3    H242374   4.285   4.079   1.587
 6939TIP3   OH242375   0.640   4.193   0.215
 6939TIP3    H142376   0.716   4.138   0.234
 6939TIP3    H242377   0.653   4.220   0.124
 6940TIP3   OH242378   5.892   1.481   0.425
 6940TIP3    H142379   5.979   1.503   0.459
 6940TIP3    H242380   5.834   1.490   0.501
 6941TIP3   OH242381   5.549   4.896   0.645
 6941TIP3    H142382   5.606   4.937   0.581
 6941TIP3    H242383   5.569   4.803   0.639
 6942TIP3   OH242384   3.059   1.467   2.627
 6942TIP3    H142385   3.097   1.552   2.649
 6942TIP3    H242386   2.979   1.463   2.679
 6943TIP3   OH242387   2.854   2.593   0.109
 6943TIP3    H142388   2.870   2.686   0.094
 6943TIP3    H242389   2.919   2.568   0.175
 6944TIP3   OH242390   4.512   2.596   7.763
 6944TIP3    H142391   4.455   2.523   7.787
 6944TIP3    H242392   4.600   2.557   7.759
 6945TIP3   OH242393   0.134   6.068   2.183
 6945TIP3    H142394   0.063   6.098   2.240
 6945TIP3    H242395   0.121   5.973   2.176
 6946TIP3   OH242396   3.925   4.210   8.040
 6946TIP3    H142397   3.891   4.127   8.005
 6946TIP3    H242398   3.850   4.269   8.042
 6947TIP3   OH242399   5.681   1.803   1.130
 6947TIP3    H142400   5.714   1.860   1.061
 6947TIP3    H242401   5.585   1.811   1.124
 6948TIP3   OH242402   5.708   3.394   0.343
 6948TIP3    H142403   5.661   3.384   0.260
 6948TIP3    H242404   5.680   3.318   0.395
 6949TIP3   OH242405   3.330   1.322   6.715
 6949TIP3    H142406   3.290   1.407   6.696
 6949TIP3    H242407   3.414   1.324   6.669
 6950TIP3   OH242408   4.786   1.850   8.481
 6950TIP3    H142409   4.784   1.940   8.448
 6950TIP3    H242410   4.857   1.849   8.545
 6951TIP3   OH242411   3.405   1.478   8.142
 6951TIP3    H142412   3.372   1.532   8.070
 6951TIP3    H242413   3.387   1.531   8.220
 6952TIP3   OH242414   0.747   2.160   0.341
 6952TIP3    H142415   0.789   2.075   0.328
 6952TIP3    H242416   0.810   2.223   0.307
 6953TIP3   OH242417   4.380   4.037   0.582
 6953TIP3    H142418   4.286   4.032   0.563
 6953TIP3    H242419   4.390   3.993   0.667
 6954TIP3   OH242420   6.216   5.072   1.539
 6954TIP3    H142421   6.272   5.033   1.606
 6954TIP3    H242422   6.183   4.998   1.488
 6955TIP3   OH242423   5.965   2.974   0.444
 6955TIP3    H142424   5.961   2.964   0.539
 6955TIP3    H242425   5.938   3.065   0.429
 6956TIP3   OH242426   3.872   4.009   8.639
 6956TIP3    H142427   3.922   4.035   8.561
 6956TIP3    H242428   3.938   3.980   8.701
 6957TIP3   OH242429   1.599   1.891   0.662
 6957TIP3    H142430   1.531   1.832   0.696
 6957TIP3    H242431   1.556   1.976   0.657
 6958TIP3   OH242432   2.801   3.299   7.358
 6958TIP3    H142433   2.714   3.275   7.327
 6958TIP3    H242434   2.811   3.390   7.330
 6959TIP3   OH242435   3.050   3.278   8.256
 6959TIP3    H142436   3.120   3.226   8.296
 6959TIP3    H242437   3.060   3.365   8.294
 6960TIP3   OH242438   3.565   5.319   0.134
 6960TIP3    H142439   3.484   5.368   0.149
 6960TIP3    H242440   3.613   5.371   0.070
 6961TIP3   OH242441   6.341   1.039   8.656
 6961TIP3    H142442   6.398   0.996   8.593
 6961TIP3    H242443   6.358   1.132   8.644
 6962TIP3   OH242444   3.422   1.296   0.277
 6962TIP3    H142445   3.403   1.263   0.189
 6962TIP3    H242446   3.504   1.344   0.268
 6963TIP3   OH242447   0.235   3.237   7.359
 6963TIP3    H142448   0.302   3.293   7.398
 6963TIP3    H242449   0.179   3.213   7.433
 6964TIP3   OH242450   4.759   5.700   8.667
 6964TIP3    H142451   4.689   5.765   8.678
 6964TIP3    H242452   4.713   5.619   8.648
 6965TIP3   OH242453   6.207   1.095   1.099
 6965TIP3    H142454   6.197   1.018   1.155
 6965TIP3    H242455   6.127   1.146   1.115
 6966TIP3   OH242456   2.660   6.702   8.092
 6966TIP3    H142457   2.708   6.777   8.127
 6966TIP3    H242458   2.718   6.668   8.023
 6967TIP3   OH242459   6.412   0.822   0.695
 6967TIP3    H142460   6.434   0.745   0.748
 6967TIP3    H242461   6.495   0.871   0.689
 6968TIP3   OH242462   1.236   0.806   1.807
 6968TIP3    H142463   1.254   0.833   1.897
 6968TIP3    H242464   1.311   0.750   1.784
 6969TIP3   OH242465   4.979   3.526   1.018
 6969TIP3    H142466   5.037   3.510   0.944
 6969TIP3    H242467   5.020   3.480   1.091
 6970TIP3   OH242468   6.513   1.698   7.404
 6970TIP3    H142469   6.438   1.638   7.399
 6970TIP3    H242470   6.485   1.774   7.353
 6971TIP3   OH242471   3.936   0.276   8.398
 6971TIP3    H142472   3.972   0.230   8.474
 6971TIP3    H242473   3.980   0.361   8.398
 6972TIP3   OH242474   3.127   4.088   0.590
 6972TIP3    H142475   3.089   4.071   0.677
 6972TIP3    H242476   3.111   4.181   0.574
 6973TIP3   OH242477   3.821   3.682   0.363
 6973TIP3    H142478   3.894   3.708   0.419
 6973TIP3    H242479   3.816   3.587   0.374
 6974TIP3   OH242480   0.466   4.528   0.631
 6974TIP3    H142481   0.412   4.467   0.580
 6974TIP3    H242482   0.505   4.585   0.565
 6975TIP3   OH242483   3.929   5.675   7.596
 6975TIP3    H142484   3.862   5.606   7.598
 6975TIP3    H242485   4.011   5.628   7.585
 6976TIP3   OH242486   1.746   2.254   7.743
 6976TIP3    H142487   1.786   2.181   7.697
 6976TIP3    H242488   1.762   2.236   7.836
 6977TIP3   OH242489   5.744   6.740   8.315
 6977TIP3    H142490   5.836   6.762   8.299
 6977TIP3    H242491   5.736   6.650   8.283
 6978TIP3   OH242492   3.692   0.629   7.259
 6978TIP3    H142493   3.655   0.541   7.256
 6978TIP3    H242494   3.638   0.680   7.198
 6979TIP3   OH242495   3.944   2.503   8.287
 6979TIP3    H142496   3.961   2.486   8.194
 6979TIP3    H242497   3.997   2.438   8.333
 6980TIP3   OH242498   3.809   3.894   2.313
 6980TIP3    H142499   3.843   3.978   2.343
 6980TIP3    H242500   3.811   3.900   2.217
 6981TIP3   OH242501   4.668   3.687   0.438
 6981TIP3    H142502   4.760   3.671   0.419
 6981TIP3    H242503   4.640   3.613   0.492
 6982TIP3   OH242504   0.530   4.198   7.140
 6982TIP3    H142505   0.440   4.224   7.119
 6982TIP3    H242506   0.585   4.266   7.100
 6983TIP3   OH242507   1.603   2.497   7.887
 6983TIP3    H142508   1.575   2.479   7.798
 6983TIP3    H242509   1.672   2.563   7.878
 6984TIP3   OH242510   1.331   3.707   1.837
 6984TIP3    H142511   1.397   3.749   1.893
 6984TIP3    H242512   1.254   3.697   1.892
 6985TIP3   OH242513   2.636   1.190   8.136
 6985TIP3    H142514   2.632   1.249   8.210
 6985TIP3    H242515   2.562   1.214   8.081
 6986TIP3   OH242516   3.130   3.640   8.784
 6986TIP3    H142517   3.203   3.700   0.006
 6986TIP3    H242518   3.064   3.692   8.738
 6987TIP3   OH242519   6.538   5.737   0.622
 6987TIP3    H142520   6.448   5.764   0.605
 6987TIP3    H242521   6.564   5.786   0.700
 6988TIP3   OH242522   5.950   1.634   6.681
 6988TIP3    H142523   5.929   1.717   6.639
 6988TIP3    H242524   5.899   1.635   6.762
 6989TIP3   OH242525   5.445   3.376   1.399
 6989TIP3    H142526   5.438   3.341   1.488
 6989TIP3    H242527   5.487   3.305   1.350
 6990TIP3   OH242528   3.434   1.248   0.007
 6990TIP3    H142529   3.416   1.326   8.746
 6990TIP3    H242530   3.416   1.175   8.739
 6991TIP3   OH242531   4.105   6.731   0.357
 6991TIP3    H142532   4.100   6.804   0.295
 6991TIP3    H242533   4.025   6.682   0.343
 6992TIP3   OH242534   0.185   4.675   0.480
 6992TIP3    H142535   0.206   4.751   0.534
 6992TIP3    H242536   0.094   4.689   0.453
 6993TIP3   OH242537   1.085   4.395   6.412
 6993TIP3    H142538   1.044   4.451   6.345
 6993TIP3    H242539   1.012   4.351   6.455
 6994TIP3   OH242540   3.972   6.305   8.662
 6994TIP3    H142541   3.991   6.362   8.736
 6994TIP3    H242542   3.878   6.316   8.647
 6995TIP3   OH242543   5.308   3.105   8.326
 6995TIP3    H142544   5.341   3.059   8.403
 6995TIP3    H242545   5.387   3.141   8.284
 6996TIP3   OH242546   0.989   5.238   6.655
 6996TIP3    H142547   0.898   5.265   6.663
 6996TIP3    H242548   0.991   5.184   6.576
 6997TIP3   OH242549   3.344   0.406   6.557
 6997TIP3    H142550   3.301   0.471   6.613
 6997TIP3    H242551   3.437   0.420   6.572
 6998TIP3   OH242552   3.934   4.329   6.576
 6998TIP3    H142553   4.003   4.393   6.596
 6998TIP3    H242554   3.981   4.257   6.533
 6999TIP3   OH242555   2.662   1.184   1.890
 6999TIP3    H142556   2.685   1.121   1.958
 6999TIP3    H242557   2.716   1.159   1.815
 7000TIP3   OH242558   4.294   5.553   7.444
 7000TIP3    H142559   4.293   5.458   7.439
 7000TIP3    H242560   4.248   5.573   7.526
 7001TIP3   OH242561   4.417   3.729   8.670
 7001TIP3    H142562   4.397   3.637   8.688
 7001TIP3    H242563   4.334   3.766   8.639
 7002TIP3   OH242564   0.648   1.733   0.977
 7002TIP3    H142565   0.696   1.686   0.908
 7002TIP3    H242566   0.641   1.822   0.943
 7003TIP3   OH242567   0.218   1.569   1.781
 7003TIP3    H142568   0.247   1.659   1.765
 7003TIP3    H242569   0.239   1.553   1.873
 7004TIP3   OH242570   6.298   6.399   7.278
 7004TIP3    H142571   6.369   6.361   7.227
 7004TIP3    H242572   6.236   6.431   7.213
 7005TIP3   OH242573   5.307   3.818   1.616
 7005TIP3    H142574   5.388   3.768   1.607
 7005TIP3    H242575   5.301   3.838   1.710
 7006TIP3   OH242576   1.983   6.277   7.668
 7006TIP3    H142577   1.988   6.200   7.612
 7006TIP3    H242578   2.073   6.308   7.675
 7007TIP3   OH242579   4.928   5.121   7.244
 7007TIP3    H142580   4.840   5.115   7.280
 7007TIP3    H242581   4.968   5.036   7.263
 7008TIP3   OH242582   6.626   4.561   2.505
 7008TIP3    H142583   6.586   4.517   2.580
 7008TIP3    H242584   6.601   4.653   2.515
 7009TIP3   OH242585   1.848   2.802   8.324
 7009TIP3    H142586   1.826   2.772   8.412
 7009TIP3    H242587   1.790   2.752   8.266
 7010TIP3   OH242588   2.764   5.519   7.903
 7010TIP3    H142589   2.853   5.491   7.927
 7010TIP3    H242590   2.723   5.541   7.987
 7011TIP3   OH242591   0.382   0.632   1.269
 7011TIP3    H142592   0.473   0.660   1.276
 7011TIP3    H242593   0.332   0.703   1.310
 7012TIP3   OH242594   4.960   3.183   0.942
 7012TIP3    H142595   4.971   3.187   1.037
 7012TIP3    H242596   5.038   3.138   0.910
 7013TIP3   OH242597   5.838   5.184   0.797
 7013TIP3    H142598   5.924   5.194   0.755
 7013TIP3    H242599   5.783   5.251   0.756
 7014TIP3   OH242600   2.349   5.554   6.735
 7014TIP3    H142601   2.374   5.646   6.742
 7014TIP3    H242602   2.427   5.509   6.703
 7015TIP3   OH242603   3.726   4.050   1.003
 7015TIP3    H142604   3.746   3.970   0.953
 7015TIP3    H242605   3.804   4.105   0.993
 7016TIP3   OH242606   3.295   5.796   0.128
 7016TIP3    H142607   3.234   5.862   0.162
 7016TIP3    H242608   3.340   5.841   0.057
 7017TIP3   OH242609   6.096   1.610   1.582
 7017TIP3    H142610   6.182   1.632   1.618
 7017TIP3    H242611   6.049   1.693   1.578
 7018TIP3   OH242612   4.581   6.329   1.594
 7018TIP3    H142613   4.596   6.236   1.575
 7018TIP3    H242614   4.488   6.343   1.577
 7019TIP3   OH242615   3.002   4.464   8.584
 7019TIP3    H142616   3.039   4.552   8.589
 7019TIP3    H242617   3.036   4.429   8.502
 7020TIP3   OH242618   5.791   4.930   0.805
 7020TIP3    H142619   5.699   4.943   0.828
 7020TIP3    H242620   5.828   5.019   0.804
 7021TIP3   OH242621   5.760   4.132   1.886
 7021TIP3    H142622   5.737   4.224   1.902
 7021TIP3    H242623   5.698   4.083   1.940
 7022TIP3   OH242624   4.159   5.426   8.278
 7022TIP3    H142625   4.147   5.361   8.348
 7022TIP3    H242626   4.074   5.468   8.270
 7023TIP3   OH242627   5.054   0.651   0.373
 7023TIP3    H142628   5.018   0.575   0.326
 7023TIP3    H242629   5.086   0.709   0.304
 7024TIP3   OH242630   0.875   3.394   1.263
 7024TIP3    H142631   0.933   3.409   1.338
 7024TIP3    H242632   0.848   3.482   1.236
 7025TIP3   OH242633   3.082   0.761   2.206
 7025TIP3    H142634   3.037   0.844   2.189
 7025TIP3    H242635   3.160   0.785   2.256
 7026TIP3   OH242636   1.690   3.391   8.439
 7026TIP3    H142637   1.720   3.312   8.393
 7026TIP3    H242638   1.747   3.460   8.406
 7027TIP3   OH242639   4.707   0.510   7.757
 7027TIP3    H142640   4.721   0.546   7.669
 7027TIP3    H242641   4.786   0.533   7.806
 7028TIP3   OH242642   4.366   5.592   1.083
 7028TIP3    H142643   4.372   5.598   0.988
 7028TIP3    H242644   4.399   5.676   1.114
 7029TIP3   OH242645   4.011   4.918   8.545
 7029TIP3    H142646   4.004   4.861   8.468
 7029TIP3    H242647   4.007   5.006   8.510
 7030TIP3   OH242648   0.434   2.120   0.853
 7030TIP3    H142649   0.512   2.066   0.841
 7030TIP3    H242650   0.462   2.209   0.831
 7031TIP3   OH242651   4.047   2.744   2.660
 7031TIP3    H142652   4.044   2.825   2.610
 7031TIP3    H242653   4.082   2.679   2.599
 7032TIP3   OH242654   2.204   6.500   0.283
 7032TIP3    H142655   2.227   6.574   0.226
 7032TIP3    H242656   2.161   6.541   0.358
 7033TIP3   OH242657   1.526   5.065   7.402
 7033TIP3    H142658   1.526   5.041   7.309
 7033TIP3    H242659   1.618   5.076   7.424
 7034TIP3   OH242660   1.807   2.092   0.833
 7034TIP3    H142661   1.807   2.044   0.750
 7034TIP3    H242662   1.746   2.044   0.889
 7035TIP3   OH242663   0.058   5.754   0.571
 7035TIP3    H142664   0.101   5.799   0.644
 7035TIP3    H242665   0.107   5.673   0.561
 7036TIP3   OH242666   0.714   6.732   2.077
 7036TIP3    H142667   0.633   6.682   2.078
 7036TIP3    H242668   0.782   6.669   2.100
 7037TIP3   OH242669   2.333   6.739   0.905
 7037TIP3    H142670   2.360   0.017   0.906
 7037TIP3    H242671   2.388   6.698   0.973
 7038TIP3   OH242672   0.152   4.493   8.431
 7038TIP3    H142673   0.217   4.499   8.501
 7038TIP3    H242674   0.068   4.494   8.476
 7039TIP3   OH242675   6.074   5.985   8.023
 7039TIP3    H142676   6.034   5.899   8.034
 7039TIP3    H242677   6.009   6.046   8.057
 7040TIP3   OH242678   5.162   1.842   1.174
 7040TIP3    H142679   5.165   1.938   1.173
 7040TIP3    H242680   5.073   1.821   1.203
 7041TIP3   OH242681   5.146   3.022   7.811
 7041TIP3    H142682   5.157   2.971   7.731
 7041TIP3    H242683   5.164   3.112   7.785
 7042TIP3   OH242684   1.383   3.326   0.678
 7042TIP3    H142685   1.310   3.367   0.723
 7042TIP3    H242686   1.344   3.254   0.628
 7043TIP3   OH242687   2.665   6.105   0.877
 7043TIP3    H142688   2.578   6.142   0.866
 7043TIP3    H242689   2.691   6.131   0.965
 7044TIP3   OH242690   2.084   2.083   7.296
 7044TIP3    H142691   2.110   2.114   7.209
 7044TIP3    H242692   1.996   2.120   7.308
 7045TIP3   OH242693   0.456   4.544   1.810
 7045TIP3    H142694   0.362   4.555   1.819
 7045TIP3    H242695   0.491   4.566   1.897
 7046TIP3   OH242696   0.361   4.973   6.982
 7046TIP3    H142697   0.408   4.980   6.898
 7046TIP3    H242698   0.287   4.916   6.963
 7047TIP3   OH242699   6.731   0.165   0.552
 7047TIP3    H142700   0.011   0.169   0.569
 7047TIP3    H242701   6.709   0.253   0.520
 7048TIP3   OH242702   6.383   5.187   7.901
 7048TIP3    H142703   6.441   5.231   7.964
 7048TIP3    H242704   6.309   5.247   7.891
 7049TIP3   OH242705   4.942   1.760   1.339
 7049TIP3    H142706   4.891   1.840   1.324
 7049TIP3    H242707   4.894   1.692   1.292
 7050TIP3   OH242708   2.694   6.125   0.204
 7050TIP3    H142709   2.651   6.205   0.233
 7050TIP3    H242710   2.781   6.154   0.174
 7051TIP3   OH242711   6.283   4.250   6.699
 7051TIP3    H142712   6.346   4.309   6.740
 7051TIP3    H242713   6.238   4.305   6.634
 7052TIP3   OH242714   0.720   2.795   8.475
 7052TIP3    H142715   0.763   2.747   8.404
 7052TIP3    H242716   0.685   2.727   8.532
 7053TIP3   OH242717   4.450   5.092   8.388
 7053TIP3    H142718   4.378   5.060   8.333
 7053TIP3    H242719   4.458   5.026   8.457
 7054TIP3   OH242720   4.494   4.070   8.470
 7054TIP3    H142721   4.439   4.024   8.406
 7054TIP3    H242722   4.431   4.105   8.534
 7055TIP3   OH242723   6.398   1.792   2.032
 7055TIP3    H142724   6.322   1.741   2.003
 7055TIP3    H242725   6.440   1.737   2.098
 7056TIP3   OH242726   3.881   5.936   7.046
 7056TIP3    H142727   3.890   5.942   6.951
 7056TIP3    H242728   3.958   5.886   7.074
 7057TIP3   OH242729   0.170   4.432   0.598
 7057TIP3    H142730   0.096   4.432   0.659
 7057TIP3    H242731   0.143   4.491   0.528
 7058TIP3   OH242732   3.301   4.159   7.040
 7058TIP3    H142733   3.230   4.095   7.049
 7058TIP3    H242734   3.379   4.106   7.025
 7059TIP3   OH242735   0.565   4.828   7.768
 7059TIP3    H142736   0.571   4.877   7.686
 7059TIP3    H242737   0.495   4.872   7.817
 7060TIP3   OH242738   1.408   0.610   1.696
 7060TIP3    H142739   1.482   0.612   1.756
 7060TIP3    H242740   1.375   0.520   1.701
 7061TIP3   OH242741   2.357   2.003   7.601
 7061TIP3    H142742   2.327   1.942   7.534
 7061TIP3    H242743   2.315   2.086   7.578
 7062TIP3   OH242744   2.690   0.720   8.661
 7062TIP3    H142745   2.621   0.658   8.635
 7062TIP3    H242746   2.741   0.673   8.727
 7063TIP3   OH242747   4.577   4.580   7.600
 7063TIP3    H142748   4.612   4.619   7.520
 7063TIP3    H242749   4.655   4.553   7.649
 7064TIP3   OH242750   2.358   2.643   1.224
 7064TIP3    H142751   2.308   2.667   1.301
 7064TIP3    H242752   2.297   2.592   1.170
 7065TIP3   OH242753   5.247   3.293   7.853
 7065TIP3    H142754   5.218   3.243   7.930
 7065TIP3    H242755   5.341   3.302   7.864
 7066TIP3   OH242756   1.462   6.222   1.716
 7066TIP3    H142757   1.528   6.153   1.707
 7066TIP3    H242758   1.402   6.189   1.783
 7067TIP3   OH242759   2.017   4.632   1.613
 7067TIP3    H142760   1.956   4.704   1.628
 7067TIP3    H242761   2.050   4.647   1.524
 7068TIP3   OH242762   2.755   2.947   1.490
 7068TIP3    H142763   2.779   2.883   1.557
 7068TIP3    H242764   2.762   3.032   1.534
 7069TIP3   OH242765   4.782   6.476   6.993
 7069TIP3    H142766   4.856   6.421   6.969
 7069TIP3    H242767   4.818   6.564   7.001
 7070TIP3   OH242768   5.598   5.855   1.997
 7070TIP3    H142769   5.647   5.797   1.938
 7070TIP3    H242770   5.583   5.801   2.075
 7071TIP3   OH242771   0.515   5.336   8.748
 7071TIP3    H142772   0.583   5.305   8.688
 7071TIP3    H242773   0.445   5.271   8.740
 7072LIG      O42774   4.113   5.444   7.911
 7072LIG     C142775   4.112   5.303   7.882
 7072LIG     C242776   3.969   5.285   7.810
 7072LIG     C342777   4.226   5.265   7.789
 7072LIG     H142778   4.118   5.243   7.975
 7072LIG     H242779   3.954   5.185   7.764
 7072LIG     H342780   3.964   5.359   7.727
 7072LIG     H442781   3.887   5.295   7.884
 7072LIG     H542782   4.208   5.161   7.755
 7072LIG     H642783   4.324   5.276   7.841
 7072LIG     H742784   4.228   5.328   7.698
 7072LIG     H842785   4.024   5.461   7.943
   6.81461   6.81461   8.79094
