Title t= 7000.00000 step= 3500000
42785
    1SAPS     N    1   4.845   3.532   6.561
    1SAPS   HN1    2   4.922   3.502   6.625
    1SAPS   HN2    3   4.877   3.546   6.463
    1SAPS   HN3    4   4.821   3.626   6.597
    1SAPS   C12    5   4.723   3.445   6.566
    1SAPS  H12A    6   4.662   3.476   6.482
    1SAPS   C13    7   4.745   3.291   6.550
    1SAPS  O13A    8   4.858   3.247   6.525
    1SAPS  O13B    9   4.644   3.222   6.523
    1SAPS   C11   10   4.635   3.467   6.699
    1SAPS  H11A   11   4.685   3.440   6.794
    1SAPS  H11B   12   4.555   3.391   6.690
    1SAPS     P   13   4.439   3.642   6.707
    1SAPS   O13   14   4.352   3.558   6.785
    1SAPS   O14   15   4.424   3.783   6.745
    1SAPS   O12   16   4.591   3.599   6.716
    1SAPS   O11   17   4.413   3.631   6.548
    1SAPS    C1   18   4.314   3.540   6.515
    1SAPS    HA   19   4.342   3.437   6.545
    1SAPS    HB   20   4.219   3.561   6.569
    1SAPS    C2   21   4.277   3.535   6.362
    1SAPS    HS   22   4.192   3.464   6.351
    1SAPS   O21   23   4.396   3.498   6.287
    1SAPS   C21   24   4.393   3.416   6.197
    1SAPS   O22   25   4.288   3.362   6.151
    1SAPS   C22   26   4.537   3.396   6.137
    1SAPS   H2R   27   4.584   3.496   6.129
    1SAPS   H2S   28   4.596   3.339   6.212
    1SAPS    C3   29   4.227   3.677   6.309
    1SAPS    HX   30   4.309   3.752   6.317
    1SAPS    HY   31   4.149   3.702   6.383
    1SAPS   O31   32   4.175   3.663   6.176
    1SAPS   C31   33   4.255   3.708   6.080
    1SAPS   O32   34   4.372   3.749   6.091
    1SAPS   C32   35   4.175   3.703   5.943
    1SAPS   H2X   36   4.104   3.787   5.960
    1SAPS   H2Y   37   4.126   3.603   5.933
    1SAPS   C23   38   4.534   3.314   6.004
    1SAPS   H3R   39   4.470   3.224   5.998
    1SAPS   H3S   40   4.639   3.280   5.990
    1SAPS   C24   41   4.501   3.418   5.891
    1SAPS   H4R   42   4.404   3.460   5.926
    1SAPS   H4S   43   4.488   3.360   5.798
    1SAPS   C25   44   4.613   3.517   5.868
    1SAPS   H5R   45   4.663   3.555   5.958
    1SAPS   C26   46   4.635   3.588   5.755
    1SAPS   H6R   47   4.723   3.654   5.750
    1SAPS   C27   48   4.558   3.582   5.629
    1SAPS   H7R   49   4.502   3.677   5.617
    1SAPS   H7S   50   4.474   3.510   5.647
    1SAPS   C28   51   4.644   3.558   5.507
    1SAPS   H8R   52   4.723   3.482   5.513
    1SAPS   C29   53   4.634   3.613   5.384
    1SAPS   H9R   54   4.704   3.575   5.309
    1SAPS  C210   55   4.545   3.726   5.347
    1SAPS  H10R   56   4.479   3.758   5.430
    1SAPS  H10S   57   4.481   3.694   5.262
    1SAPS  C211   58   4.623   3.852   5.314
    1SAPS  H11R   59   4.703   3.882   5.382
    1SAPS  C212   60   4.598   3.926   5.208
    1SAPS  H12R   61   4.669   4.006   5.187
    1SAPS  C213   62   4.485   3.893   5.109
    1SAPS  H13R   63   4.391   3.927   5.156
    1SAPS  H13S   64   4.455   3.787   5.091
    1SAPS  C214   65   4.512   3.964   4.981
    1SAPS  H14R   66   4.445   4.050   4.970
    1SAPS  C215   67   4.588   3.930   4.879
    1SAPS  H15R   68   4.588   3.991   4.787
    1SAPS  C216   69   4.678   3.812   4.870
    1SAPS  H16R   70   4.635   3.728   4.811
    1SAPS  H16S   71   4.702   3.770   4.969
    1SAPS  C217   72   4.819   3.854   4.801
    1SAPS  H17R   73   4.792   3.910   4.709
    1SAPS  H17S   74   4.871   3.759   4.776
    1SAPS  C218   75   4.908   3.944   4.879
    1SAPS  H18R   76   4.857   4.032   4.923
    1SAPS  H18S   77   4.982   3.970   4.800
    1SAPS  C219   78   4.977   3.878   5.000
    1SAPS  H19R   79   5.021   3.780   4.970
    1SAPS  H19S   80   4.903   3.866   5.082
    1SAPS  C220   81   5.086   3.964   5.054
    1SAPS  H20R   82   5.133   3.905   5.136
    1SAPS  H20S   83   5.048   4.055   5.104
    1SAPS  H20T   84   5.172   3.981   4.985
    1SAPS   C33   85   4.267   3.719   5.823
    1SAPS   H3X   86   4.321   3.624   5.800
    1SAPS   H3Y   87   4.334   3.806   5.842
    1SAPS   C34   88   4.185   3.767   5.705
    1SAPS   H4X   89   4.241   3.813   5.620
    1SAPS   H4Y   90   4.121   3.853   5.734
    1SAPS   C35   91   4.100   3.657   5.649
    1SAPS   H5X   92   4.050   3.599   5.729
    1SAPS   H5Y   93   4.158   3.584   5.589
    1SAPS   C36   94   3.998   3.712   5.554
    1SAPS   H6X   95   3.940   3.794   5.601
    1SAPS   H6Y   96   3.937   3.624   5.523
    1SAPS   C37   97   4.052   3.771   5.418
    1SAPS   H7X   98   4.129   3.846   5.447
    1SAPS   H7Y   99   3.967   3.820   5.365
    1SAPS   C38  100   4.111   3.673   5.321
    1SAPS   H8X  101   4.062   3.573   5.320
    1SAPS   H8Y  102   4.215   3.647   5.351
    1SAPS   C39  103   4.108   3.723   5.176
    1SAPS   H9X  104   4.206   3.775   5.167
    1SAPS   H9Y  105   4.033   3.804   5.161
    1SAPS  C310  106   4.086   3.608   5.079
    1SAPS  H10X  107   3.993   3.555   5.109
    1SAPS  H10Y  108   4.170   3.537   5.082
    1SAPS  C311  109   4.055   3.651   4.934
    1SAPS  H11X  110   3.949   3.683   4.936
    1SAPS  H11Y  111   4.063   3.568   4.861
    1SAPS  C312  112   4.143   3.769   4.883
    1SAPS  H12X  113   4.252   3.756   4.902
    1SAPS  H12Y  114   4.110   3.861   4.936
    1SAPS  C313  115   4.115   3.793   4.737
    1SAPS  H13X  116   4.010   3.830   4.732
    1SAPS  H13Y  117   4.116   3.706   4.668
    1SAPS  C314  118   4.209   3.905   4.683
    1SAPS  H14X  119   4.312   3.876   4.713
    1SAPS  H14Y  120   4.189   4.003   4.730
    1SAPS  C315  121   4.193   3.915   4.528
    1SAPS  H15X  122   4.091   3.955   4.508
    1SAPS  H15Y  123   4.203   3.816   4.479
    1SAPS  C316  124   4.301   4.006   4.464
    1SAPS  H16X  125   4.393   3.963   4.509
    1SAPS  H16Y  126   4.288   4.109   4.502
    1SAPS  C317  127   4.302   3.993   4.311
    1SAPS  H17X  128   4.198   3.996   4.272
    1SAPS  H17Y  129   4.352   3.897   4.290
    1SAPS  C318  130   4.374   4.101   4.227
    1SAPS  H18X  131   4.351   4.091   4.119
    1SAPS  H18Y  132   4.482   4.094   4.250
    1SAPS  H18Z  133   4.342   4.204   4.251
    2SAPS     N  134   4.964   6.109   6.891
    2SAPS   HN1  135   4.947   6.010   6.864
    2SAPS   HN2  136   4.985   6.154   6.799
    2SAPS   HN3  137   5.046   6.118   6.955
    2SAPS   C12  138   4.846   6.179   6.946
    2SAPS  H12A  139   4.840   6.147   7.049
    2SAPS   C13  140   4.836   6.341   6.937
    2SAPS  O13A  141   4.922   6.400   6.868
    2SAPS  O13B  142   4.728   6.392   6.982
    2SAPS   C11  143   4.716   6.114   6.888
    2SAPS  H11A  144   4.696   6.135   6.781
    2SAPS  H11B  145   4.633   6.160   6.946
    2SAPS     P  146   4.738   5.854   6.822
    2SAPS   O13  147   4.882   5.858   6.795
    2SAPS   O14  148   4.684   5.726   6.870
    2SAPS   O12  149   4.708   5.976   6.920
    2SAPS   O11  150   4.680   5.885   6.679
    2SAPS    C1  151   4.542   5.879   6.653
    2SAPS    HA  152   4.476   5.887   6.742
    2SAPS    HB  153   4.519   5.965   6.586
    2SAPS    C2  154   4.516   5.749   6.577
    2SAPS    HS  155   4.545   5.669   6.648
    2SAPS   O21  156   4.592   5.754   6.457
    2SAPS   C21  157   4.681   5.653   6.445
    2SAPS   O22  158   4.687   5.561   6.527
    2SAPS   C22  159   4.772   5.668   6.329
    2SAPS   H2R  160   4.724   5.750   6.271
    2SAPS   H2S  161   4.876   5.702   6.349
    2SAPS    C3  162   4.364   5.712   6.535
    2SAPS    HX  163   4.302   5.710   6.628
    2SAPS    HY  164   4.368   5.607   6.499
    2SAPS   O31  165   4.305   5.800   6.436
    2SAPS   C31  166   4.339   5.790   6.307
    2SAPS   O32  167   4.410   5.699   6.259
    2SAPS   C32  168   4.274   5.905   6.239
    2SAPS   H2X  169   4.322   5.994   6.284
    2SAPS   H2Y  170   4.164   5.914   6.254
    2SAPS   C23  171   4.769   5.545   6.231
    2SAPS   H3R  172   4.669   5.496   6.237
    2SAPS   H3S  173   4.844   5.466   6.254
    2SAPS   C24  174   4.803   5.583   6.087
    2SAPS   H4R  175   4.857   5.498   6.041
    2SAPS   H4S  176   4.870   5.671   6.084
    2SAPS   C25  177   4.674   5.633   6.026
    2SAPS   H5R  178   4.610   5.680   6.101
    2SAPS   C26  179   4.644   5.648   5.893
    2SAPS   H6R  180   4.549   5.696   5.865
    2SAPS   C27  181   4.724   5.605   5.777
    2SAPS   H7R  182   4.800   5.534   5.817
    2SAPS   H7S  183   4.780   5.697   5.748
    2SAPS   C28  184   4.638   5.537   5.681
    2SAPS   H8R  185   4.572   5.453   5.706
    2SAPS   C29  186   4.635   5.577   5.554
    2SAPS   H9R  187   4.562   5.536   5.482
    2SAPS  C210  188   4.728   5.678   5.481
    2SAPS  H10R  189   4.822   5.620   5.473
    2SAPS  H10S  190   4.758   5.769   5.539
    2SAPS  C211  191   4.670   5.719   5.349
    2SAPS  H11R  192   4.565   5.753   5.351
    2SAPS  C212  193   4.734   5.725   5.230
    2SAPS  H12R  194   4.674   5.758   5.144
    2SAPS  C213  195   4.878   5.709   5.203
    2SAPS  H13R  196   4.932   5.767   5.281
    2SAPS  H13S  197   4.902   5.764   5.109
    2SAPS  C214  198   4.922   5.569   5.210
    2SAPS  H14R  199   4.866   5.505   5.140
    2SAPS  C215  200   5.021   5.512   5.278
    2SAPS  H15R  201   5.038   5.405   5.261
    2SAPS  C216  202   5.121   5.576   5.376
    2SAPS  H16R  203   5.138   5.685   5.362
    2SAPS  H16S  204   5.219   5.529   5.352
    2SAPS  C217  205   5.092   5.550   5.524
    2SAPS  H17R  206   5.085   5.440   5.539
    2SAPS  H17S  207   5.008   5.614   5.556
    2SAPS  C218  208   5.201   5.589   5.622
    2SAPS  H18R  209   5.238   5.693   5.607
    2SAPS  H18S  210   5.289   5.523   5.607
    2SAPS  C219  211   5.166   5.579   5.768
    2SAPS  H19R  212   5.072   5.635   5.789
    2SAPS  H19S  213   5.242   5.638   5.823
    2SAPS  C220  214   5.159   5.436   5.816
    2SAPS  H20R  215   5.108   5.438   5.915
    2SAPS  H20S  216   5.257   5.387   5.836
    2SAPS  H20T  217   5.097   5.366   5.756
    2SAPS   C33  218   4.319   5.907   6.090
    2SAPS   H3X  219   4.259   5.829   6.038
    2SAPS   H3Y  220   4.428   5.890   6.083
    2SAPS   C34  221   4.284   6.042   6.018
    2SAPS   H4X  222   4.337   6.126   6.067
    2SAPS   H4Y  223   4.174   6.061   6.011
    2SAPS   C35  224   4.324   6.025   5.871
    2SAPS   H5X  225   4.290   5.921   5.852
    2SAPS   H5Y  226   4.435   6.028   5.871
    2SAPS   C36  227   4.270   6.136   5.782
    2SAPS   H6X  228   4.272   6.231   5.841
    2SAPS   H6Y  229   4.165   6.115   5.755
    2SAPS   C37  230   4.345   6.149   5.655
    2SAPS   H7X  231   4.438   6.202   5.685
    2SAPS   H7Y  232   4.290   6.215   5.585
    2SAPS   C38  233   4.366   6.015   5.579
    2SAPS   H8X  234   4.286   6.012   5.503
    2SAPS   H8Y  235   4.375   5.931   5.651
    2SAPS   C39  236   4.491   6.026   5.498
    2SAPS   H9X  237   4.499   5.933   5.437
    2SAPS   H9Y  238   4.579   6.041   5.564
    2SAPS  C310  239   4.494   6.142   5.394
    2SAPS  H10X  240   4.525   6.237   5.442
    2SAPS  H10Y  241   4.400   6.165   5.339
    2SAPS  C311  242   4.598   6.115   5.278
    2SAPS  H11X  243   4.573   6.010   5.253
    2SAPS  H11Y  244   4.692   6.106   5.338
    2SAPS  C312  245   4.598   6.222   5.173
    2SAPS  H12X  246   4.675   6.202   5.095
    2SAPS  H12Y  247   4.628   6.318   5.221
    2SAPS  C313  248   4.465   6.238   5.102
    2SAPS  H13X  249   4.395   6.285   5.174
    2SAPS  H13Y  250   4.433   6.135   5.075
    2SAPS  C314  251   4.468   6.320   4.966
    2SAPS  H14X  252   4.536   6.260   4.902
    2SAPS  H14Y  253   4.528   6.408   4.998
    2SAPS  C315  254   4.339   6.348   4.897
    2SAPS  H15X  255   4.275   6.420   4.950
    2SAPS  H15Y  256   4.279   6.258   4.872
    2SAPS  C316  257   4.370   6.399   4.757
    2SAPS  H16X  258   4.445   6.328   4.716
    2SAPS  H16Y  259   4.420   6.498   4.751
    2SAPS  C317  260   4.254   6.400   4.662
    2SAPS  H17X  261   4.180   6.449   4.729
    2SAPS  H17Y  262   4.212   6.302   4.629
    2SAPS  C318  263   4.266   6.492   4.544
    2SAPS  H18X  264   4.176   6.504   4.479
    2SAPS  H18Y  265   4.347   6.458   4.476
    2SAPS  H18Z  266   4.298   6.594   4.574
    3SAPS     N  267   5.100   3.946   6.449
    3SAPS   HN1  268   5.153   3.964   6.361
    3SAPS   HN2  269   5.102   4.041   6.492
    3SAPS   HN3  270   5.152   3.885   6.515
    3SAPS   C12  271   4.954   3.905   6.433
    3SAPS  H12A  272   4.952   3.818   6.368
    3SAPS   C13  273   4.890   3.848   6.562
    3SAPS  O13A  274   4.960   3.813   6.657
    3SAPS  O13B  275   4.777   3.796   6.545
    3SAPS   C11  276   4.877   4.031   6.384
    3SAPS  H11A  277   4.779   3.989   6.353
    3SAPS  H11B  278   4.925   4.064   6.289
    3SAPS     P  279   4.962   4.250   6.507
    3SAPS   O13  280   4.901   4.358   6.588
    3SAPS   O14  281   5.083   4.186   6.565
    3SAPS   O12  282   4.852   4.135   6.483
    3SAPS   O11  283   4.990   4.313   6.372
    3SAPS    C1  284   4.879   4.364   6.300
    3SAPS    HA  285   4.797   4.289   6.291
    3SAPS    HB  286   4.841   4.454   6.353
    3SAPS    C2  287   4.921   4.406   6.159
    3SAPS    HS  288   4.845   4.479   6.124
    3SAPS   O21  289   4.935   4.289   6.071
    3SAPS   C21  290   4.824   4.245   6.022
    3SAPS   O22  291   4.715   4.289   6.048
    3SAPS   C22  292   4.854   4.120   5.944
    3SAPS   H2R  293   4.942   4.135   5.878
    3SAPS   H2S  294   4.888   4.045   6.019
    3SAPS    C3  295   5.059   4.478   6.166
    3SAPS    HX  296   5.127   4.394   6.193
    3SAPS    HY  297   5.052   4.541   6.258
    3SAPS   O31  298   5.105   4.553   6.050
    3SAPS   C31  299   5.034   4.659   6.028
    3SAPS   O32  300   4.943   4.700   6.103
    3SAPS   C32  301   5.073   4.716   5.891
    3SAPS   H2X  302   5.178   4.700   5.860
    3SAPS   H2Y  303   5.043   4.822   5.906
    3SAPS   C23  304   4.736   4.064   5.857
    3SAPS   H3R  305   4.639   4.089   5.906
    3SAPS   H3S  306   4.748   3.954   5.860
    3SAPS   C24  307   4.744   4.110   5.712
    3SAPS   H4R  308   4.659   4.057   5.663
    3SAPS   H4S  309   4.835   4.063   5.669
    3SAPS   C25  310   4.741   4.260   5.709
    3SAPS   H5R  311   4.655   4.303   5.761
    3SAPS   C26  312   4.844   4.333   5.663
    3SAPS   H6R  313   4.824   4.441   5.657
    3SAPS   C27  314   4.978   4.291   5.617
    3SAPS   H7R  315   4.978   4.180   5.619
    3SAPS   H7S  316   5.050   4.324   5.695
    3SAPS   C28  317   5.030   4.341   5.485
    3SAPS   H8R  318   5.112   4.415   5.487
    3SAPS   C29  319   4.974   4.312   5.361
    3SAPS   H9R  320   5.015   4.358   5.270
    3SAPS  C210  321   4.853   4.228   5.330
    3SAPS  H10R  322   4.834   4.157   5.413
    3SAPS  H10S  323   4.876   4.161   5.244
    3SAPS  C211  324   4.729   4.309   5.313
    3SAPS  H11R  325   4.691   4.357   5.405
    3SAPS  C212  326   4.673   4.339   5.199
    3SAPS  H12R  327   4.584   4.405   5.204
    3SAPS  C213  328   4.707   4.290   5.060
    3SAPS  H13R  329   4.616   4.295   4.996
    3SAPS  H13S  330   4.720   4.180   5.061
    3SAPS  C214  331   4.816   4.348   4.975
    3SAPS  H14R  332   4.892   4.402   5.033
    3SAPS  C215  333   4.820   4.351   4.839
    3SAPS  H15R  334   4.911   4.391   4.791
    3SAPS  C216  335   4.717   4.294   4.746
    3SAPS  H16R  336   4.666   4.372   4.686
    3SAPS  H16S  337   4.641   4.228   4.793
    3SAPS  C217  338   4.776   4.211   4.628
    3SAPS  H17R  339   4.690   4.176   4.566
    3SAPS  H17S  340   4.841   4.126   4.654
    3SAPS  C218  341   4.856   4.299   4.527
    3SAPS  H18R  342   4.939   4.333   4.592
    3SAPS  H18S  343   4.803   4.392   4.497
    3SAPS  C219  344   4.931   4.229   4.408
    3SAPS  H19R  345   5.001   4.308   4.374
    3SAPS  H19S  346   4.988   4.138   4.438
    3SAPS  C220  347   4.833   4.210   4.287
    3SAPS  H20R  348   4.780   4.304   4.261
    3SAPS  H20S  349   4.753   4.136   4.308
    3SAPS  H20T  350   4.879   4.172   4.193
    3SAPS   C33  351   4.991   4.669   5.774
    3SAPS   H3X  352   4.885   4.673   5.805
    3SAPS   H3Y  353   5.009   4.564   5.742
    3SAPS   C34  354   5.003   4.755   5.650
    3SAPS   H4X  355   5.105   4.750   5.608
    3SAPS   H4Y  356   4.993   4.862   5.679
    3SAPS   C35  357   4.911   4.708   5.534
    3SAPS   H5X  358   4.938   4.601   5.524
    3SAPS   H5Y  359   4.805   4.723   5.564
    3SAPS   C36  360   4.940   4.786   5.397
    3SAPS   H6X  361   5.050   4.805   5.390
    3SAPS   H6Y  362   4.886   4.883   5.404
    3SAPS   C37  363   4.876   4.709   5.283
    3SAPS   H7X  364   4.823   4.624   5.330
    3SAPS   H7Y  365   4.951   4.664   5.215
    3SAPS   C38  366   4.768   4.793   5.216
    3SAPS   H8X  367   4.813   4.881   5.166
    3SAPS   H8Y  368   4.696   4.827   5.294
    3SAPS   C39  369   4.696   4.724   5.095
    3SAPS   H9X  370   4.665   4.621   5.123
    3SAPS   H9Y  371   4.773   4.712   5.016
    3SAPS  C310  372   4.595   4.810   5.026
    3SAPS  H10X  373   4.647   4.898   4.981
    3SAPS  H10Y  374   4.531   4.848   5.108
    3SAPS  C311  375   4.527   4.751   4.907
    3SAPS  H11X  376   4.459   4.671   4.945
    3SAPS  H11Y  377   4.592   4.701   4.832
    3SAPS  C312  378   4.450   4.861   4.830
    3SAPS  H12X  379   4.408   4.938   4.898
    3SAPS  H12Y  380   4.369   4.808   4.774
    3SAPS  C313  381   4.532   4.940   4.727
    3SAPS  H13X  382   4.597   4.866   4.676
    3SAPS  H13Y  383   4.602   5.007   4.781
    3SAPS  C314  384   4.454   5.021   4.624
    3SAPS  H14X  385   4.350   4.982   4.618
    3SAPS  H14Y  386   4.497   5.003   4.523
    3SAPS  C315  387   4.456   5.173   4.651
    3SAPS  H15X  388   4.560   5.210   4.645
    3SAPS  H15Y  389   4.426   5.194   4.756
    3SAPS  C316  390   4.371   5.256   4.546
    3SAPS  H16X  391   4.272   5.208   4.558
    3SAPS  H16Y  392   4.415   5.236   4.446
    3SAPS  C317  393   4.367   5.403   4.582
    3SAPS  H17X  394   4.471   5.435   4.603
    3SAPS  H17Y  395   4.307   5.423   4.674
    3SAPS  C318  396   4.319   5.489   4.466
    3SAPS  H18X  397   4.362   5.591   4.480
    3SAPS  H18Y  398   4.208   5.489   4.460
    3SAPS  H18Z  399   4.359   5.441   4.374
    4SAPS     N  400   1.643   2.378   6.735
    4SAPS   HN1  401   1.606   2.304   6.673
    4SAPS   HN2  402   1.673   2.454   6.671
    4SAPS   HN3  403   1.726   2.341   6.787
    4SAPS   C12  404   1.539   2.420   6.827
    4SAPS  H12A  405   1.511   2.332   6.883
    4SAPS   C13  406   1.596   2.530   6.916
    4SAPS  O13A  407   1.702   2.597   6.890
    4SAPS  O13B  408   1.533   2.551   7.025
    4SAPS   C11  409   1.422   2.464   6.738
    4SAPS  H11A  410   1.462   2.545   6.672
    4SAPS  H11B  411   1.343   2.507   6.802
    4SAPS     P  412   1.350   2.352   6.526
    4SAPS   O13  413   1.267   2.233   6.494
    4SAPS   O14  414   1.306   2.481   6.471
    4SAPS   O12  415   1.354   2.357   6.679
    4SAPS   O11  416   1.508   2.341   6.490
    4SAPS    C1  417   1.547   2.234   6.398
    4SAPS    HA  418   1.658   2.233   6.393
    4SAPS    HB  419   1.527   2.133   6.440
    4SAPS    C2  420   1.498   2.240   6.245
    4SAPS    HS  421   1.592   2.213   6.194
    4SAPS   O21  422   1.462   2.370   6.210
    4SAPS   C21  423   1.556   2.465   6.209
    4SAPS   O22  424   1.675   2.457   6.238
    4SAPS   C22  425   1.480   2.589   6.169
    4SAPS   H2R  426   1.406   2.565   6.090
    4SAPS   H2S  427   1.429   2.619   6.263
    4SAPS    C3  428   1.392   2.137   6.203
    4SAPS    HX  429   1.297   2.166   6.251
    4SAPS    HY  430   1.424   2.041   6.249
    4SAPS   O31  431   1.389   2.120   6.062
    4SAPS   C31  432   1.309   2.200   5.991
    4SAPS   O32  433   1.228   2.278   6.042
    4SAPS   C32  434   1.327   2.187   5.838
    4SAPS   H2X  435   1.249   2.116   5.803
    4SAPS   H2Y  436   1.427   2.142   5.821
    4SAPS   C23  437   1.556   2.721   6.122
    4SAPS   H3R  438   1.622   2.754   6.205
    4SAPS   H3S  439   1.486   2.799   6.087
    4SAPS   C24  440   1.636   2.698   5.990
    4SAPS   H4R  441   1.571   2.657   5.910
    4SAPS   H4S  442   1.701   2.611   6.011
    4SAPS   C25  443   1.706   2.826   5.951
    4SAPS   H5R  444   1.765   2.874   6.030
    4SAPS   C26  445   1.694   2.885   5.829
    4SAPS   H6R  446   1.726   2.988   5.810
    4SAPS   C27  447   1.619   2.807   5.718
    4SAPS   H7R  448   1.508   2.808   5.721
    4SAPS   H7S  449   1.639   2.698   5.715
    4SAPS   C28  450   1.659   2.850   5.580
    4SAPS   H8R  451   1.768   2.865   5.571
    4SAPS   C29  452   1.580   2.892   5.482
    4SAPS   H9R  453   1.625   2.904   5.382
    4SAPS  C210  454   1.431   2.885   5.473
    4SAPS  H10R  455   1.387   2.985   5.488
    4SAPS  H10S  456   1.392   2.824   5.557
    4SAPS  C211  457   1.370   2.827   5.347
    4SAPS  H11R  458   1.316   2.731   5.357
    4SAPS  C212  459   1.365   2.891   5.230
    4SAPS  H12R  460   1.315   2.840   5.146
    4SAPS  C213  461   1.425   3.024   5.191
    4SAPS  H13R  462   1.447   3.085   5.282
    4SAPS  H13S  463   1.355   3.096   5.144
    4SAPS  C214  464   1.545   3.010   5.106
    4SAPS  H14R  465   1.639   3.043   5.153
    4SAPS  C215  466   1.546   2.973   4.978
    4SAPS  H15R  467   1.640   2.951   4.926
    4SAPS  C216  468   1.425   2.919   4.901
    4SAPS  H16R  469   1.330   2.894   4.953
    4SAPS  H16S  470   1.464   2.826   4.856
    4SAPS  C217  471   1.402   3.001   4.774
    4SAPS  H17R  472   1.481   2.984   4.698
    4SAPS  H17S  473   1.398   3.106   4.808
    4SAPS  C218  474   1.262   2.976   4.719
    4SAPS  H18R  475   1.194   3.047   4.770
    4SAPS  H18S  476   1.231   2.872   4.740
    4SAPS  C219  477   1.241   3.024   4.567
    4SAPS  H19R  478   1.265   3.130   4.544
    4SAPS  H19S  479   1.134   2.999   4.549
    4SAPS  C220  480   1.337   2.941   4.469
    4SAPS  H20R  481   1.437   2.957   4.515
    4SAPS  H20S  482   1.351   2.989   4.370
    4SAPS  H20T  483   1.319   2.832   4.468
    4SAPS   C33  484   1.305   2.319   5.751
    4SAPS   H3X  485   1.205   2.365   5.766
    4SAPS   H3Y  486   1.312   2.297   5.643
    4SAPS   C34  487   1.425   2.415   5.764
    4SAPS   H4X  488   1.428   2.471   5.860
    4SAPS   H4Y  489   1.398   2.489   5.686
    4SAPS   C35  490   1.566   2.349   5.730
    4SAPS   H5X  491   1.579   2.264   5.800
    4SAPS   H5Y  492   1.649   2.421   5.748
    4SAPS   C36  493   1.596   2.293   5.589
    4SAPS   H6X  494   1.517   2.228   5.545
    4SAPS   H6Y  495   1.692   2.238   5.595
    4SAPS   C37  496   1.607   2.413   5.492
    4SAPS   H7X  497   1.667   2.489   5.547
    4SAPS   H7Y  498   1.508   2.459   5.471
    4SAPS   C38  499   1.675   2.369   5.362
    4SAPS   H8X  500   1.635   2.273   5.323
    4SAPS   H8Y  501   1.780   2.341   5.387
    4SAPS   C39  502   1.665   2.482   5.256
    4SAPS   H9X  503   1.721   2.573   5.289
    4SAPS   H9Y  504   1.559   2.512   5.242
    4SAPS  C310  505   1.719   2.442   5.122
    4SAPS  H10X  506   1.656   2.366   5.071
    4SAPS  H10Y  507   1.819   2.396   5.138
    4SAPS  C311  508   1.751   2.556   5.031
    4SAPS  H11X  509   1.826   2.629   5.069
    4SAPS  H11Y  510   1.650   2.602   5.021
    4SAPS  C312  511   1.782   2.527   4.884
    4SAPS  H12X  512   1.712   2.452   4.841
    4SAPS  H12Y  513   1.883   2.480   4.886
    4SAPS  C313  514   1.786   2.648   4.794
    4SAPS  H13X  515   1.854   2.727   4.834
    4SAPS  H13Y  516   1.686   2.695   4.786
    4SAPS  C314  517   1.836   2.620   4.649
    4SAPS  H14X  518   1.787   2.528   4.612
    4SAPS  H14Y  519   1.946   2.604   4.650
    4SAPS  C315  520   1.807   2.736   4.547
    4SAPS  H15X  521   1.863   2.708   4.455
    4SAPS  H15Y  522   1.853   2.831   4.580
    4SAPS  C316  523   1.655   2.761   4.523
    4SAPS  H16X  524   1.650   2.848   4.454
    4SAPS  H16Y  525   1.621   2.800   4.621
    4SAPS  C317  526   1.564   2.643   4.473
    4SAPS  H17X  527   1.461   2.676   4.499
    4SAPS  H17Y  528   1.578   2.551   4.533
    4SAPS  C318  529   1.568   2.608   4.319
    4SAPS  H18X  530   1.671   2.581   4.288
    4SAPS  H18Y  531   1.532   2.695   4.261
    4SAPS  H18Z  532   1.501   2.522   4.299
    5SAPS     N  533   5.282   4.865   6.870
    5SAPS   HN1  534   5.236   4.953   6.839
    5SAPS   HN2  535   5.318   4.878   6.967
    5SAPS   HN3  536   5.364   4.845   6.810
    5SAPS   C12  537   5.191   4.758   6.857
    5SAPS  H12A  538   5.199   4.692   6.943
    5SAPS   C13  539   5.038   4.786   6.853
    5SAPS  O13A  540   5.001   4.904   6.834
    5SAPS  O13B  541   4.956   4.695   6.829
    5SAPS   C11  542   5.231   4.670   6.728
    5SAPS  H11A  543   5.212   4.720   6.631
    5SAPS  H11B  544   5.159   4.586   6.733
    5SAPS     P  545   5.453   4.578   6.610
    5SAPS   O13  546   5.538   4.693   6.573
    5SAPS   O14  547   5.520   4.447   6.625
    5SAPS   O12  548   5.366   4.621   6.737
    5SAPS   O11  549   5.339   4.562   6.502
    5SAPS    C1  550   5.288   4.437   6.457
    5SAPS    HA  551   5.240   4.381   6.540
    5SAPS    HB  552   5.196   4.463   6.401
    5SAPS    C2  553   5.376   4.359   6.358
    5SAPS    HS  554   5.479   4.340   6.396
    5SAPS   O21  555   5.389   4.447   6.247
    5SAPS   C21  556   5.489   4.427   6.175
    5SAPS   O22  557   5.593   4.360   6.187
    5SAPS   C22  558   5.481   4.518   6.045
    5SAPS   H2R  559   5.373   4.537   6.025
    5SAPS   H2S  560   5.540   4.610   6.063
    5SAPS    C3  561   5.305   4.226   6.317
    5SAPS    HX  562   5.202   4.245   6.278
    5SAPS    HY  563   5.294   4.158   6.404
    5SAPS   O31  564   5.381   4.156   6.213
    5SAPS   C31  565   5.343   4.033   6.170
    5SAPS   O32  566   5.249   3.975   6.226
    5SAPS   C32  567   5.426   3.984   6.057
    5SAPS   H2X  568   5.441   3.875   6.072
    5SAPS   H2Y  569   5.525   4.034   6.070
    5SAPS   C23  570   5.545   4.446   5.930
    5SAPS   H3R  571   5.488   4.353   5.911
    5SAPS   H3S  572   5.650   4.417   5.955
    5SAPS   C24  573   5.545   4.514   5.798
    5SAPS   H4R  574   5.597   4.466   5.713
    5SAPS   H4S  575   5.596   4.611   5.816
    5SAPS   C25  576   5.399   4.529   5.752
    5SAPS   H5R  577   5.315   4.480   5.804
    5SAPS   C26  578   5.361   4.612   5.651
    5SAPS   H6R  579   5.253   4.631   5.640
    5SAPS   C27  580   5.462   4.688   5.563
    5SAPS   H7R  581   5.568   4.678   5.595
    5SAPS   H7S  582   5.439   4.794   5.542
    5SAPS   C28  583   5.450   4.620   5.433
    5SAPS   H8R  584   5.442   4.510   5.443
    5SAPS   C29  585   5.421   4.669   5.318
    5SAPS   H9R  586   5.391   4.605   5.234
    5SAPS  C210  587   5.424   4.810   5.281
    5SAPS  H10R  588   5.487   4.873   5.346
    5SAPS  H10S  589   5.322   4.853   5.293
    5SAPS  C211  590   5.460   4.836   5.132
    5SAPS  H11R  591   5.414   4.776   5.053
    5SAPS  C212  592   5.542   4.937   5.099
    5SAPS  H12R  593   5.565   4.943   4.992
    5SAPS  C213  594   5.632   5.023   5.185
    5SAPS  H13R  595   5.580   5.067   5.273
    5SAPS  H13S  596   5.660   5.114   5.127
    5SAPS  C214  597   5.754   4.949   5.237
    5SAPS  H14R  598   5.815   4.903   5.159
    5SAPS  C215  599   5.798   4.922   5.361
    5SAPS  H15R  600   5.884   4.859   5.390
    5SAPS  C216  601   5.722   4.952   5.490
    5SAPS  H16R  602   5.676   4.859   5.531
    5SAPS  H16S  603   5.640   5.025   5.474
    5SAPS  C217  604   5.818   5.008   5.595
    5SAPS  H17R  605   5.835   5.117   5.583
    5SAPS  H17S  606   5.911   4.948   5.586
    5SAPS  C218  607   5.771   4.983   5.741
    5SAPS  H18R  608   5.668   5.018   5.766
    5SAPS  H18S  609   5.839   5.049   5.799
    5SAPS  C219  610   5.794   4.837   5.795
    5SAPS  H19R  611   5.893   4.796   5.763
    5SAPS  H19S  612   5.723   4.766   5.748
    5SAPS  C220  613   5.771   4.838   5.946
    5SAPS  H20R  614   5.804   4.739   5.982
    5SAPS  H20S  615   5.665   4.847   5.980
    5SAPS  H20T  616   5.834   4.915   5.997
    5SAPS   C33  617   5.374   4.031   5.919
    5SAPS   H3X  618   5.332   4.132   5.936
    5SAPS   H3Y  619   5.289   3.967   5.887
    5SAPS   C34  620   5.477   4.034   5.803
    5SAPS   H4X  621   5.487   3.929   5.768
    5SAPS   H4Y  622   5.575   4.067   5.843
    5SAPS   C35  623   5.434   4.124   5.693
    5SAPS   H5X  624   5.451   4.226   5.733
    5SAPS   H5Y  625   5.323   4.119   5.686
    5SAPS   C36  626   5.493   4.087   5.557
    5SAPS   H6X  627   5.455   3.988   5.523
    5SAPS   H6Y  628   5.604   4.084   5.564
    5SAPS   C37  629   5.447   4.196   5.453
    5SAPS   H7X  630   5.520   4.278   5.467
    5SAPS   H7Y  631   5.340   4.224   5.462
    5SAPS   C38  632   5.460   4.138   5.311
    5SAPS   H8X  633   5.381   4.062   5.293
    5SAPS   H8Y  634   5.558   4.086   5.303
    5SAPS   C39  635   5.457   4.249   5.201
    5SAPS   H9X  636   5.507   4.210   5.111
    5SAPS   H9Y  637   5.510   4.343   5.230
    5SAPS  C310  638   5.312   4.284   5.167
    5SAPS  H10X  639   5.269   4.349   5.247
    5SAPS  H10Y  640   5.257   4.189   5.150
    5SAPS  C311  641   5.311   4.363   5.041
    5SAPS  H11X  642   5.320   4.298   4.952
    5SAPS  H11Y  643   5.397   4.434   5.042
    5SAPS  C312  644   5.194   4.462   5.029
    5SAPS  H12X  645   5.195   4.527   5.119
    5SAPS  H12Y  646   5.092   4.419   5.044
    5SAPS  C313  647   5.201   4.550   4.902
    5SAPS  H13X  648   5.297   4.606   4.898
    5SAPS  H13Y  649   5.118   4.622   4.912
    5SAPS  C314  650   5.204   4.469   4.770
    5SAPS  H14X  651   5.128   4.389   4.751
    5SAPS  H14Y  652   5.306   4.425   4.770
    5SAPS  C315  653   5.194   4.567   4.655
    5SAPS  H15X  654   5.240   4.663   4.689
    5SAPS  H15Y  655   5.086   4.582   4.635
    5SAPS  C316  656   5.267   4.524   4.522
    5SAPS  H16X  657   5.216   4.431   4.489
    5SAPS  H16Y  658   5.378   4.522   4.525
    5SAPS  C317  659   5.239   4.636   4.412
    5SAPS  H17X  660   5.272   4.614   4.308
    5SAPS  H17Y  661   5.275   4.735   4.447
    5SAPS  C318  662   5.082   4.641   4.386
    5SAPS  H18X  663   5.058   4.533   4.372
    5SAPS  H18Y  664   5.064   4.698   4.292
    5SAPS  H18Z  665   5.036   4.693   4.473
    6SAPS     N  666   2.266   4.195   7.077
    6SAPS   HN1  667   2.347   4.229   7.021
    6SAPS   HN2  668   2.181   4.189   7.018
    6SAPS   HN3  669   2.250   4.259   7.158
    6SAPS   C12  670   2.299   4.052   7.117
    6SAPS  H12A  671   2.380   4.060   7.188
    6SAPS   C13  672   2.185   3.974   7.186
    6SAPS  O13A  673   2.078   4.034   7.213
    6SAPS  O13B  674   2.188   3.848   7.207
    6SAPS   C11  675   2.345   3.979   6.986
    6SAPS  H11A  676   2.256   3.957   6.923
    6SAPS  H11B  677   2.383   3.885   7.032
    6SAPS     P  678   2.510   3.964   6.789
    6SAPS   O13  679   2.571   3.851   6.861
    6SAPS   O14  680   2.409   3.924   6.690
    6SAPS   O12  681   2.436   4.054   6.901
    6SAPS   O11  682   2.627   4.053   6.729
    6SAPS    C1  683   2.734   4.107   6.806
    6SAPS    HA  684   2.703   4.126   6.911
    6SAPS    HB  685   2.824   4.042   6.815
    6SAPS    C2  686   2.773   4.230   6.733
    6SAPS    HS  687   2.860   4.259   6.796
    6SAPS   O21  688   2.673   4.337   6.733
    6SAPS   C21  689   2.721   4.453   6.731
    6SAPS   O22  690   2.841   4.482   6.726
    6SAPS   C22  691   2.616   4.566   6.732
    6SAPS   H2R  692   2.530   4.510   6.688
    6SAPS   H2S  693   2.586   4.587   6.836
    6SAPS    C3  694   2.817   4.194   6.590
    6SAPS    HX  695   2.730   4.143   6.543
    6SAPS    HY  696   2.889   4.109   6.585
    6SAPS   O31  697   2.841   4.308   6.507
    6SAPS   C31  698   2.974   4.337   6.503
    6SAPS   O32  699   3.061   4.277   6.566
    6SAPS   C32  700   2.995   4.452   6.416
    6SAPS   H2X  701   2.981   4.542   6.480
    6SAPS   H2Y  702   2.926   4.455   6.329
    6SAPS   C23  703   2.656   4.690   6.653
    6SAPS   H3R  704   2.721   4.656   6.570
    6SAPS   H3S  705   2.717   4.762   6.712
    6SAPS   C24  706   2.533   4.760   6.599
    6SAPS   H4R  707   2.478   4.796   6.688
    6SAPS   H4S  708   2.467   4.692   6.541
    6SAPS   C25  709   2.572   4.878   6.519
    6SAPS   H5R  710   2.589   4.966   6.583
    6SAPS   C26  711   2.560   4.896   6.387
    6SAPS   H6R  712   2.597   4.988   6.340
    6SAPS   C27  713   2.494   4.806   6.287
    6SAPS   H7R  714   2.401   4.775   6.340
    6SAPS   H7S  715   2.550   4.712   6.269
    6SAPS   C28  716   2.454   4.879   6.164
    6SAPS   H8R  717   2.351   4.917   6.175
    6SAPS   C29  718   2.523   4.910   6.054
    6SAPS   H9R  719   2.481   4.964   5.968
    6SAPS  C210  720   2.672   4.880   6.039
    6SAPS  H10R  721   2.725   4.825   6.120
    6SAPS  H10S  722   2.735   4.971   6.037
    6SAPS  C211  723   2.696   4.804   5.913
    6SAPS  H11R  724   2.622   4.723   5.906
    6SAPS  C212  725   2.761   4.851   5.803
    6SAPS  H12R  726   2.754   4.797   5.707
    6SAPS  C213  727   2.842   4.977   5.802
    6SAPS  H13R  728   2.930   4.966   5.735
    6SAPS  H13S  729   2.888   5.005   5.899
    6SAPS  C214  730   2.756   5.091   5.755
    6SAPS  H14R  731   2.664   5.112   5.812
    6SAPS  C215  732   2.772   5.158   5.642
    6SAPS  H15R  733   2.694   5.227   5.605
    6SAPS  C216  734   2.884   5.139   5.547
    6SAPS  H16R  735   2.938   5.045   5.572
    6SAPS  H16S  736   2.956   5.224   5.548
    6SAPS  C217  737   2.821   5.130   5.405
    6SAPS  H17R  738   2.901   5.139   5.329
    6SAPS  H17S  739   2.746   5.208   5.378
    6SAPS  C218  740   2.734   5.003   5.371
    6SAPS  H18R  741   2.684   5.015   5.273
    6SAPS  H18S  742   2.655   5.001   5.449
    6SAPS  C219  743   2.803   4.867   5.385
    6SAPS  H19R  744   2.870   4.864   5.474
    6SAPS  H19S  745   2.874   4.869   5.299
    6SAPS  C220  746   2.711   4.749   5.368
    6SAPS  H20R  747   2.766   4.661   5.329
    6SAPS  H20S  748   2.628   4.780   5.301
    6SAPS  H20T  749   2.662   4.729   5.465
    6SAPS   C33  750   3.144   4.459   6.364
    6SAPS   H3X  751   3.211   4.444   6.452
    6SAPS   H3Y  752   3.179   4.549   6.309
    6SAPS   C34  753   3.166   4.350   6.260
    6SAPS   H4X  754   3.156   4.253   6.315
    6SAPS   H4Y  755   3.270   4.358   6.222
    6SAPS   C35  756   3.073   4.361   6.131
    6SAPS   H5X  757   3.048   4.468   6.116
    6SAPS   H5Y  758   2.972   4.325   6.160
    6SAPS   C36  759   3.123   4.287   6.011
    6SAPS   H6X  760   3.110   4.179   6.032
    6SAPS   H6Y  761   3.231   4.299   5.992
    6SAPS   C37  762   3.058   4.313   5.880
    6SAPS   H7X  763   3.065   4.416   5.838
    6SAPS   H7Y  764   2.951   4.293   5.902
    6SAPS   C38  765   3.113   4.225   5.767
    6SAPS   H8X  766   3.098   4.118   5.795
    6SAPS   H8Y  767   3.220   4.255   5.767
    6SAPS   C39  768   3.039   4.256   5.637
    6SAPS   H9X  769   3.025   4.366   5.641
    6SAPS   H9Y  770   2.937   4.211   5.640
    6SAPS  C310  771   3.108   4.216   5.501
    6SAPS  H10X  772   3.214   4.247   5.498
    6SAPS  H10Y  773   3.062   4.274   5.419
    6SAPS  C311  774   3.098   4.058   5.483
    6SAPS  H11X  775   2.990   4.037   5.498
    6SAPS  H11Y  776   3.163   4.013   5.561
    6SAPS  C312  777   3.152   4.019   5.349
    6SAPS  H12X  778   3.259   4.046   5.334
    6SAPS  H12Y  779   3.101   4.085   5.276
    6SAPS  C313  780   3.134   3.871   5.312
    6SAPS  H13X  781   3.031   3.848   5.279
    6SAPS  H13Y  782   3.163   3.810   5.401
    6SAPS  C314  783   3.236   3.819   5.205
    6SAPS  H14X  784   3.262   3.716   5.235
    6SAPS  H14Y  785   3.329   3.879   5.217
    6SAPS  C315  786   3.196   3.833   5.055
    6SAPS  H15X  787   3.159   3.938   5.049
    6SAPS  H15Y  788   3.118   3.758   5.033
    6SAPS  C316  789   3.297   3.797   4.945
    6SAPS  H16X  790   3.345   3.702   4.977
    6SAPS  H16Y  791   3.372   3.879   4.947
    6SAPS  C317  792   3.231   3.797   4.810
    6SAPS  H17X  793   3.174   3.889   4.785
    6SAPS  H17Y  794   3.159   3.713   4.821
    6SAPS  C318  795   3.331   3.776   4.698
    6SAPS  H18X  796   3.404   3.697   4.724
    6SAPS  H18Y  797   3.386   3.871   4.680
    6SAPS  H18Z  798   3.266   3.759   4.609
    7SAPS     N  799   3.131   0.326   7.151
    7SAPS   HN1  800   3.140   0.345   7.253
    7SAPS   HN2  801   3.200   0.254   7.119
    7SAPS   HN3  802   3.164   0.411   7.101
    7SAPS   C12  803   3.000   0.280   7.107
    7SAPS  H12A  804   2.986   0.178   7.139
    7SAPS   C13  805   2.880   0.356   7.180
    7SAPS  O13A  806   2.900   0.456   7.251
    7SAPS  O13B  807   2.760   0.315   7.163
    7SAPS   C11  808   2.983   0.299   6.949
    7SAPS  H11A  809   3.000   0.408   6.931
    7SAPS  H11B  810   2.879   0.270   6.923
    7SAPS     P  811   3.049   0.170   6.748
    7SAPS   O13  812   3.178   0.146   6.683
    7SAPS   O14  813   2.973   0.048   6.775
    7SAPS   O12  814   3.087   0.250   6.876
    7SAPS   O11  815   2.954   0.261   6.650
    7SAPS    C1  816   3.006   0.317   6.531
    7SAPS    HA  817   2.947   0.408   6.507
    7SAPS    HB  818   3.112   0.350   6.542
    7SAPS    C2  819   3.000   0.219   6.416
    7SAPS    HS  820   3.029   0.120   6.459
    7SAPS   O21  821   3.095   0.270   6.313
    7SAPS   C21  822   3.118   0.175   6.219
    7SAPS   O22  823   3.090   0.060   6.227
    7SAPS   C22  824   3.190   0.244   6.106
    7SAPS   H2R  825   3.160   0.350   6.103
    7SAPS   H2S  826   3.298   0.246   6.129
    7SAPS    C3  827   2.846   0.216   6.379
    7SAPS    HX  828   2.795   0.198   6.476
    7SAPS    HY  829   2.831   0.136   6.304
    7SAPS   O31  830   2.806   0.342   6.320
    7SAPS   C31  831   2.687   0.401   6.340
    7SAPS   O32  832   2.601   0.366   6.414
    7SAPS   C32  833   2.669   0.516   6.244
    7SAPS   H2X  834   2.760   0.579   6.255
    7SAPS   H2Y  835   2.580   0.574   6.278
    7SAPS   C23  836   3.175   0.182   5.962
    7SAPS   H3R  837   3.199   0.268   5.895
    7SAPS   H3S  838   3.073   0.145   5.943
    7SAPS   C24  839   3.266   0.064   5.934
    7SAPS   H4R  840   3.226   6.837   5.853
    7SAPS   H4S  841   3.271   6.828   6.016
    7SAPS   C25  842   3.411   0.092   5.885
    7SAPS   H5R  843   3.491   0.075   5.959
    7SAPS   C26  844   3.437   0.138   5.763
    7SAPS   H6R  845   3.543   0.155   5.741
    7SAPS   C27  846   3.349   0.167   5.645
    7SAPS   H7R  847   3.285   0.252   5.676
    7SAPS   H7S  848   3.277   0.084   5.628
    7SAPS   C28  849   3.422   0.185   5.519
    7SAPS   H8R  850   3.495   0.107   5.493
    7SAPS   C29  851   3.419   0.289   5.428
    7SAPS   H9R  852   3.483   0.281   5.339
    7SAPS  C210  853   3.334   0.413   5.437
    7SAPS  H10R  854   3.333   0.443   5.544
    7SAPS  H10S  855   3.234   0.375   5.409
    7SAPS  C211  856   3.368   0.524   5.343
    7SAPS  H11R  857   3.431   0.600   5.393
    7SAPS  C212  858   3.317   0.537   5.220
    7SAPS  H12R  859   3.364   0.616   5.160
    7SAPS  C213  860   3.241   0.438   5.135
    7SAPS  H13R  861   3.230   0.340   5.185
    7SAPS  H13S  862   3.311   0.418   5.051
    7SAPS  C214  863   3.110   0.504   5.091
    7SAPS  H14R  864   3.070   0.574   5.165
    7SAPS  C215  865   3.038   0.484   4.984
    7SAPS  H15R  866   2.944   0.539   4.973
    7SAPS  C216  867   3.070   0.384   4.871
    7SAPS  H16R  868   2.971   0.336   4.862
    7SAPS  H16S  869   3.131   0.296   4.901
    7SAPS  C217  870   3.115   0.453   4.741
    7SAPS  H17R  871   3.045   0.530   4.703
    7SAPS  H17S  872   3.123   0.376   4.661
    7SAPS  C218  873   3.250   0.531   4.761
    7SAPS  H18R  874   3.329   0.462   4.799
    7SAPS  H18S  875   3.229   0.608   4.838
    7SAPS  C219  876   3.300   0.596   4.637
    7SAPS  H19R  877   3.213   0.650   4.595
    7SAPS  H19S  878   3.339   0.514   4.573
    7SAPS  C220  879   3.415   0.690   4.648
    7SAPS  H20R  880   3.449   0.740   4.555
    7SAPS  H20S  881   3.496   0.640   4.706
    7SAPS  H20T  882   3.389   0.775   4.715
    7SAPS   C33  883   2.639   0.486   6.098
    7SAPS   H3X  884   2.552   0.420   6.078
    7SAPS   H3Y  885   2.720   0.429   6.047
    7SAPS   C34  886   2.607   0.607   6.013
    7SAPS   H4X  887   2.697   0.673   6.012
    7SAPS   H4Y  888   2.526   0.667   6.057
    7SAPS   C35  889   2.561   0.561   5.874
    7SAPS   H5X  890   2.459   0.517   5.868
    7SAPS   H5Y  891   2.630   0.491   5.822
    7SAPS   C36  892   2.561   0.685   5.779
    7SAPS   H6X  893   2.663   0.730   5.776
    7SAPS   H6Y  894   2.500   0.768   5.821
    7SAPS   C37  895   2.498   0.647   5.641
    7SAPS   H7X  896   2.396   0.604   5.645
    7SAPS   H7Y  897   2.557   0.555   5.620
    7SAPS   C38  898   2.496   0.745   5.526
    7SAPS   H8X  899   2.599   0.751   5.484
    7SAPS   H8Y  900   2.467   0.847   5.561
    7SAPS   C39  901   2.416   0.706   5.400
    7SAPS   H9X  902   2.308   0.700   5.424
    7SAPS   H9Y  903   2.442   0.604   5.363
    7SAPS  C310  904   2.439   0.813   5.291
    7SAPS  H10X  905   2.549   0.816   5.275
    7SAPS  H10Y  906   2.396   0.910   5.323
    7SAPS  C311  907   2.374   0.772   5.161
    7SAPS  H11X  908   2.369   0.865   5.100
    7SAPS  H11Y  909   2.272   0.742   5.192
    7SAPS  C312  910   2.446   0.666   5.079
    7SAPS  H12X  911   2.360   0.625   5.021
    7SAPS  H12Y  912   2.485   0.582   5.140
    7SAPS  C313  913   2.559   0.724   4.984
    7SAPS  H13X  914   2.618   0.792   5.050
    7SAPS  H13Y  915   2.509   0.772   4.897
    7SAPS  C314  916   2.645   0.608   4.936
    7SAPS  H14X  917   2.681   0.552   5.025
    7SAPS  H14Y  918   2.742   0.645   4.895
    7SAPS  C315  919   2.583   0.511   4.833
    7SAPS  H15X  920   2.511   0.569   4.771
    7SAPS  H15Y  921   2.525   0.440   4.895
    7SAPS  C316  922   2.679   0.433   4.744
    7SAPS  H16X  923   2.752   0.382   4.809
    7SAPS  H16Y  924   2.737   0.501   4.678
    7SAPS  C317  925   2.615   0.326   4.661
    7SAPS  H17X  926   2.548   0.385   4.596
    7SAPS  H17Y  927   2.558   0.271   4.739
    7SAPS  C318  928   2.715   0.232   4.593
    7SAPS  H18X  929   2.793   0.197   4.665
    7SAPS  H18Y  930   2.760   0.302   4.520
    7SAPS  H18Z  931   2.663   0.151   4.538
    8SAPS     N  932   1.785   1.328   6.615
    8SAPS   HN1  933   1.682   1.342   6.626
    8SAPS   HN2  934   1.839   1.389   6.551
    8SAPS   HN3  935   1.804   1.231   6.583
    8SAPS   C12  936   1.865   1.344   6.739
    8SAPS  H12A  937   1.836   1.437   6.785
    8SAPS   C13  938   1.851   1.223   6.840
    8SAPS  O13A  939   1.789   1.118   6.810
    8SAPS  O13B  940   1.909   1.233   6.953
    8SAPS   C11  941   2.015   1.345   6.686
    8SAPS  H11A  942   2.042   1.244   6.648
    8SAPS  H11B  943   2.079   1.376   6.772
    8SAPS     P  944   2.153   1.525   6.551
    8SAPS   O13  945   2.122   1.621   6.443
    8SAPS   O14  946   2.194   1.578   6.684
    8SAPS   O12  947   2.028   1.429   6.573
    8SAPS   O11  948   2.264   1.425   6.501
    8SAPS    C1  949   2.253   1.350   6.379
    8SAPS    HA  950   2.300   1.252   6.401
    8SAPS    HB  951   2.148   1.326   6.352
    8SAPS    C2  952   2.322   1.417   6.260
    8SAPS    HS  953   2.282   1.520   6.243
    8SAPS   O21  954   2.302   1.323   6.157
    8SAPS   C21  955   2.267   1.368   6.036
    8SAPS   O22  956   2.255   1.484   6.007
    8SAPS   C22  957   2.266   1.241   5.948
    8SAPS   H2R  958   2.338   1.171   5.993
    8SAPS   H2S  959   2.161   1.204   5.953
    8SAPS    C3  960   2.474   1.438   6.292
    8SAPS    HX  961   2.517   1.336   6.290
    8SAPS    HY  962   2.486   1.482   6.393
    8SAPS   O31  963   2.537   1.531   6.198
    8SAPS   C31  964   2.613   1.483   6.106
    8SAPS   O32  965   2.644   1.369   6.085
    8SAPS   C32  966   2.656   1.587   6.002
    8SAPS   H2X  967   2.677   1.685   6.050
    8SAPS   H2Y  968   2.569   1.595   5.933
    8SAPS   C23  969   2.302   1.276   5.803
    8SAPS   H3R  970   2.231   1.353   5.767
    8SAPS   H3S  971   2.283   1.178   5.754
    8SAPS   C24  972   2.441   1.324   5.763
    8SAPS   H4R  973   2.468   1.427   5.798
    8SAPS   H4S  974   2.438   1.319   5.652
    8SAPS   C25  975   2.548   1.235   5.810
    8SAPS   H5R  976   2.559   1.244   5.919
    8SAPS   C26  977   2.636   1.156   5.741
    8SAPS   H6R  978   2.716   1.097   5.788
    8SAPS   C27  979   2.627   1.127   5.598
    8SAPS   H7R  980   2.556   1.186   5.536
    8SAPS   H7S  981   2.588   1.022   5.597
    8SAPS   C28  982   2.759   1.134   5.528
    8SAPS   H8R  983   2.844   1.166   5.589
    8SAPS   C29  984   2.777   1.127   5.396
    8SAPS   H9R  985   2.879   1.132   5.358
    8SAPS  C210  986   2.667   1.095   5.301
    8SAPS  H10R  987   2.574   1.058   5.351
    8SAPS  H10S  988   2.712   1.014   5.239
    8SAPS  C211  989   2.628   1.215   5.228
    8SAPS  H11R  990   2.615   1.303   5.292
    8SAPS  C212  991   2.593   1.218   5.099
    8SAPS  H12R  992   2.568   1.317   5.059
    8SAPS  C213  993   2.618   1.107   4.994
    8SAPS  H13R  994   2.545   1.026   5.015
    8SAPS  H13S  995   2.718   1.062   5.013
    8SAPS  C214  996   2.599   1.146   4.847
    8SAPS  H14R  997   2.688   1.197   4.806
    8SAPS  C215  998   2.502   1.107   4.759
    8SAPS  H15R  999   2.503   1.157   4.661
    8SAPS  C216 1000   2.368   1.047   4.794
    8SAPS  H16R 1001   2.299   1.130   4.768
    8SAPS  H16S 1002   2.360   1.023   4.902
    8SAPS  C217 1003   2.332   0.928   4.704
    8SAPS  H17R 1004   2.405   0.847   4.726
    8SAPS  H17S 1005   2.330   0.952   4.596
    8SAPS  C218 1006   2.197   0.861   4.754
    8SAPS  H18R 1007   2.110   0.922   4.722
    8SAPS  H18S 1008   2.206   0.862   4.864
    8SAPS  C219 1009   2.173   0.728   4.698
    8SAPS  H19R 1010   2.243   0.652   4.741
    8SAPS  H19S 1011   2.186   0.737   4.588
    8SAPS  C220 1012   2.026   0.694   4.724
    8SAPS  H20R 1013   2.006   0.595   4.676
    8SAPS  H20S 1014   1.963   0.772   4.677
    8SAPS  H20T 1015   2.000   0.685   4.832
    8SAPS   C33 1016   2.793   1.543   5.927
    8SAPS   H3X 1017   2.774   1.454   5.864
    8SAPS   H3Y 1018   2.859   1.510   6.010
    8SAPS   C34 1019   2.859   1.650   5.829
    8SAPS   H4X 1020   2.953   1.618   5.778
    8SAPS   H4Y 1021   2.904   1.721   5.901
    8SAPS   C35 1022   2.755   1.711   5.734
    8SAPS   H5X 1023   2.809   1.800   5.695
    8SAPS   H5Y 1024   2.670   1.748   5.794
    8SAPS   C36 1025   2.699   1.618   5.627
    8SAPS   H6X 1026   2.652   1.535   5.685
    8SAPS   H6Y 1027   2.777   1.568   5.566
    8SAPS   C37 1028   2.606   1.694   5.531
    8SAPS   H7X 1029   2.664   1.773   5.478
    8SAPS   H7Y 1030   2.522   1.746   5.582
    8SAPS   C38 1031   2.547   1.599   5.433
    8SAPS   H8X 1032   2.476   1.537   5.490
    8SAPS   H8Y 1033   2.629   1.539   5.389
    8SAPS   C39 1034   2.477   1.661   5.315
    8SAPS   H9X 1035   2.553   1.666   5.235
    8SAPS   H9Y 1036   2.437   1.762   5.339
    8SAPS  C310 1037   2.367   1.563   5.266
    8SAPS  H10X 1038   2.282   1.571   5.337
    8SAPS  H10Y 1039   2.407   1.459   5.269
    8SAPS  C311 1040   2.308   1.605   5.132
    8SAPS  H11X 1041   2.392   1.624   5.061
    8SAPS  H11Y 1042   2.260   1.705   5.133
    8SAPS  C312 1043   2.191   1.509   5.084
    8SAPS  H12X 1044   2.123   1.550   5.006
    8SAPS  H12Y 1045   2.118   1.495   5.167
    8SAPS  C313 1046   2.232   1.366   5.054
    8SAPS  H13X 1047   2.340   1.353   5.076
    8SAPS  H13Y 1048   2.210   1.341   4.948
    8SAPS  C314 1049   2.168   1.253   5.130
    8SAPS  H14X 1050   2.192   1.158   5.077
    8SAPS  H14Y 1051   2.058   1.268   5.127
    8SAPS  C315 1052   2.222   1.237   5.273
    8SAPS  H15X 1053   2.208   1.328   5.336
    8SAPS  H15Y 1054   2.333   1.228   5.266
    8SAPS  C316 1055   2.169   1.114   5.347
    8SAPS  H16X 1056   2.199   1.025   5.287
    8SAPS  H16Y 1057   2.058   1.117   5.347
    8SAPS  C317 1058   2.229   1.100   5.492
    8SAPS  H17X 1059   2.202   1.189   5.553
    8SAPS  H17Y 1060   2.340   1.109   5.483
    8SAPS  C318 1061   2.199   0.972   5.559
    8SAPS  H18X 1062   2.262   0.970   5.651
    8SAPS  H18Y 1063   2.231   0.881   5.505
    8SAPS  H18Z 1064   2.094   0.976   5.593
    9SAPS     N 1065   0.695   4.353   6.773
    9SAPS   HN1 1066   0.747   4.387   6.690
    9SAPS   HN2 1067   0.691   4.249   6.777
    9SAPS   HN3 1068   0.593   4.371   6.776
    9SAPS   C12 1069   0.752   4.421   6.894
    9SAPS  H12A 1070   0.709   4.520   6.897
    9SAPS   C13 1071   0.722   4.341   7.023
    9SAPS  O13A 1072   0.673   4.224   7.017
    9SAPS  O13B 1073   0.750   4.389   7.139
    9SAPS   C11 1074   0.910   4.431   6.868
    9SAPS  H11A 1075   0.957   4.337   6.831
    9SAPS  H11B 1076   0.952   4.447   6.969
    9SAPS     P 1077   1.023   4.665   6.832
    9SAPS   O13 1078   0.944   4.786   6.809
    9SAPS   O14 1079   1.077   4.630   6.963
    9SAPS   O12 1080   0.941   4.540   6.782
    9SAPS   O11 1081   1.142   4.670   6.727
    9SAPS    C1 1082   1.217   4.555   6.686
    9SAPS    HA 1083   1.294   4.527   6.761
    9SAPS    HB 1084   1.158   4.461   6.674
    9SAPS    C2 1085   1.297   4.591   6.558
    9SAPS    HS 1086   1.373   4.667   6.589
    9SAPS   O21 1087   1.201   4.633   6.456
    9SAPS   C21 1088   1.178   4.765   6.454
    9SAPS   O22 1089   1.228   4.844   6.528
    9SAPS   C22 1090   1.076   4.799   6.346
    9SAPS   H2R 1091   1.078   4.720   6.267
    9SAPS   H2S 1092   0.978   4.781   6.394
    9SAPS    C3 1093   1.373   4.466   6.507
    9SAPS    HX 1094   1.301   4.389   6.472
    9SAPS    HY 1095   1.425   4.436   6.601
    9SAPS   O31 1096   1.476   4.503   6.406
    9SAPS   C31 1097   1.541   4.412   6.357
    9SAPS   O32 1098   1.532   4.292   6.379
    9SAPS   C32 1099   1.655   4.467   6.267
    9SAPS   H2X 1100   1.748   4.445   6.323
    9SAPS   H2Y 1101   1.656   4.578   6.273
    9SAPS   C23 1102   1.074   4.940   6.288
    9SAPS   H3R 1103   1.048   5.011   6.369
    9SAPS   H3S 1104   0.985   4.945   6.223
    9SAPS   C24 1105   1.205   4.977   6.223
    9SAPS   H4R 1106   1.227   4.906   6.140
    9SAPS   H4S 1107   1.288   4.968   6.296
    9SAPS   C25 1108   1.197   5.120   6.173
    9SAPS   H5R 1109   1.153   5.185   6.251
    9SAPS   C26 1110   1.253   5.174   6.063
    9SAPS   H6R 1111   1.230   5.280   6.046
    9SAPS   C27 1112   1.325   5.108   5.954
    9SAPS   H7R 1113   1.258   5.070   5.874
    9SAPS   H7S 1114   1.374   5.015   5.990
    9SAPS   C28 1115   1.440   5.195   5.899
    9SAPS   H8R 1116   1.477   5.276   5.963
    9SAPS   C29 1117   1.495   5.201   5.772
    9SAPS   H9R 1118   1.576   5.272   5.751
    9SAPS  C210 1119   1.444   5.122   5.660
    9SAPS  H10R 1120   1.419   5.023   5.703
    9SAPS  H10S 1121   1.522   5.087   5.591
    9SAPS  C211 1122   1.333   5.195   5.578
    9SAPS  H11R 1123   1.241   5.216   5.635
    9SAPS  C212 1124   1.331   5.230   5.447
    9SAPS  H12R 1125   1.237   5.275   5.412
    9SAPS  C213 1126   1.449   5.210   5.352
    9SAPS  H13R 1127   1.407   5.161   5.262
    9SAPS  H13S 1128   1.532   5.147   5.390
    9SAPS  C214 1129   1.502   5.342   5.313
    9SAPS  H14R 1130   1.494   5.422   5.388
    9SAPS  C215 1131   1.563   5.381   5.195
    9SAPS  H15R 1132   1.610   5.480   5.200
    9SAPS  C216 1133   1.580   5.291   5.072
    9SAPS  H16R 1134   1.570   5.184   5.099
    9SAPS  H16S 1135   1.686   5.303   5.039
    9SAPS  C217 1136   1.500   5.346   4.964
    9SAPS  H17R 1137   1.527   5.450   4.935
    9SAPS  H17S 1138   1.393   5.359   4.991
    9SAPS  C218 1139   1.499   5.268   4.835
    9SAPS  H18R 1140   1.593   5.266   4.775
    9SAPS  H18S 1141   1.426   5.312   4.764
    9SAPS  C219 1142   1.436   5.126   4.865
    9SAPS  H19R 1143   1.350   5.146   4.932
    9SAPS  H19S 1144   1.500   5.045   4.906
    9SAPS  C220 1145   1.356   5.071   4.744
    9SAPS  H20R 1146   1.339   4.961   4.746
    9SAPS  H20S 1147   1.414   5.086   4.650
    9SAPS  H20T 1148   1.255   5.117   4.740
    9SAPS   C33 1149   1.651   4.407   6.132
    9SAPS   H3X 1150   1.553   4.427   6.082
    9SAPS   H3Y 1151   1.656   4.296   6.144
    9SAPS   C34 1152   1.769   4.449   6.046
    9SAPS   H4X 1153   1.871   4.424   6.084
    9SAPS   H4Y 1154   1.778   4.560   6.042
    9SAPS   C35 1155   1.760   4.408   5.891
    9SAPS   H5X 1156   1.664   4.444   5.849
    9SAPS   H5Y 1157   1.779   4.299   5.902
    9SAPS   C36 1158   1.871   4.479   5.809
    9SAPS   H6X 1159   1.970   4.454   5.852
    9SAPS   H6Y 1160   1.857   4.589   5.812
    9SAPS   C37 1161   1.864   4.429   5.668
    9SAPS   H7X 1162   1.759   4.415   5.636
    9SAPS   H7Y 1163   1.927   4.337   5.660
    9SAPS   C38 1164   1.934   4.531   5.572
    9SAPS   H8X 1165   2.037   4.548   5.608
    9SAPS   H8Y 1166   1.872   4.621   5.589
    9SAPS   C39 1167   1.932   4.478   5.427
    9SAPS   H9X 1168   1.837   4.425   5.407
    9SAPS   H9Y 1169   2.011   4.400   5.423
    9SAPS  C310 1170   1.938   4.589   5.321
    9SAPS  H10X 1171   2.030   4.651   5.330
    9SAPS  H10Y 1172   1.848   4.651   5.337
    9SAPS  C311 1173   1.937   4.526   5.181
    9SAPS  H11X 1174   1.833   4.502   5.149
    9SAPS  H11Y 1175   1.989   4.429   5.198
    9SAPS  C312 1176   2.008   4.612   5.078
    9SAPS  H12X 1177   1.975   4.717   5.096
    9SAPS  H12Y 1178   1.968   4.574   4.982
    9SAPS  C313 1179   2.163   4.620   5.082
    9SAPS  H13X 1180   2.203   4.521   5.051
    9SAPS  H13Y 1181   2.191   4.658   5.183
    9SAPS  C314 1182   2.222   4.729   4.996
    9SAPS  H14X 1183   2.331   4.748   4.994
    9SAPS  H14Y 1184   2.177   4.824   5.032
    9SAPS  C315 1185   2.185   4.702   4.849
    9SAPS  H15X 1186   2.080   4.668   4.835
    9SAPS  H15Y 1187   2.249   4.614   4.826
    9SAPS  C316 1188   2.221   4.819   4.750
    9SAPS  H16X 1189   2.324   4.836   4.788
    9SAPS  H16Y 1190   2.155   4.905   4.775
    9SAPS  C317 1191   2.222   4.797   4.595
    9SAPS  H17X 1192   2.289   4.713   4.566
    9SAPS  H17Y 1193   2.279   4.879   4.546
    9SAPS  C318 1194   2.094   4.769   4.524
    9SAPS  H18X 1195   2.033   4.859   4.499
    9SAPS  H18Y 1196   2.033   4.699   4.586
    9SAPS  H18Z 1197   2.113   4.719   4.426
   10SAPS     N 1198   1.798   4.030   7.200
   10SAPS   HN1 1199   1.734   3.966   7.251
   10SAPS   HN2 1200   1.820   4.008   7.100
   10SAPS   HN3 1201   1.894   4.026   7.240
   10SAPS   C12 1202   1.744   4.169   7.212
   10SAPS  H12A 1203   1.641   4.150   7.185
   10SAPS   C13 1204   1.742   4.233   7.343
   10SAPS  O13A 1205   1.807   4.177   7.439
   10SAPS  O13B 1206   1.672   4.335   7.362
   10SAPS   C11 1207   1.823   4.268   7.122
   10SAPS  H11A 1208   1.930   4.281   7.149
   10SAPS  H11B 1209   1.788   4.371   7.143
   10SAPS     P 1210   1.905   4.157   6.906
   10SAPS   O13 1211   1.914   4.019   6.956
   10SAPS   O14 1212   1.866   4.172   6.763
   10SAPS   O12 1213   1.800   4.241   6.982
   10SAPS   O11 1214   2.043   4.227   6.936
   10SAPS    C1 1215   2.060   4.371   6.918
   10SAPS    HA 1216   1.980   4.428   6.969
   10SAPS    HB 1217   2.154   4.400   6.969
   10SAPS    C2 1218   2.060   4.412   6.767
   10SAPS    HS 1219   1.955   4.414   6.730
   10SAPS   O21 1220   2.124   4.312   6.677
   10SAPS   C21 1221   2.252   4.279   6.684
   10SAPS   O22 1222   2.324   4.298   6.784
   10SAPS   C22 1223   2.291   4.207   6.554
   10SAPS   H2R 1224   2.272   4.098   6.567
   10SAPS   H2S 1225   2.225   4.241   6.471
   10SAPS    C3 1226   2.119   4.554   6.743
   10SAPS    HX 1227   2.208   4.560   6.809
   10SAPS    HY 1228   2.050   4.632   6.780
   10SAPS   O31 1229   2.159   4.589   6.606
   10SAPS   C31 1230   2.059   4.601   6.522
   10SAPS   O32 1231   1.939   4.574   6.540
   10SAPS   C32 1232   2.118   4.627   6.382
   10SAPS   H2X 1233   2.160   4.533   6.339
   10SAPS   H2Y 1234   2.204   4.696   6.396
   10SAPS   C23 1235   2.433   4.241   6.514
   10SAPS   H3R 1236   2.464   4.155   6.451
   10SAPS   H3S 1237   2.488   4.236   6.610
   10SAPS   C24 1238   2.459   4.377   6.453
   10SAPS   H4R 1239   2.565   4.407   6.445
   10SAPS   H4S 1240   2.406   4.458   6.507
   10SAPS   C25 1241   2.398   4.387   6.316
   10SAPS   H5R 1242   2.291   4.365   6.309
   10SAPS   C26 1243   2.460   4.408   6.197
   10SAPS   H6R 1244   2.400   4.424   6.106
   10SAPS   C27 1245   2.610   4.431   6.179
   10SAPS   H7R 1246   2.656   4.459   6.276
   10SAPS   H7S 1247   2.634   4.523   6.122
   10SAPS   C28 1248   2.666   4.302   6.118
   10SAPS   H8R 1249   2.695   4.233   6.198
   10SAPS   C29 1250   2.676   4.273   5.987
   10SAPS   H9R 1251   2.720   4.179   5.951
   10SAPS  C210 1252   2.623   4.358   5.880
   10SAPS  H10R 1253   2.551   4.426   5.929
   10SAPS  H10S 1254   2.560   4.297   5.812
   10SAPS  C211 1255   2.723   4.429   5.803
   10SAPS  H11R 1256   2.800   4.483   5.861
   10SAPS  C212 1257   2.735   4.434   5.665
   10SAPS  H12R 1258   2.819   4.495   5.629
   10SAPS  C213 1259   2.633   4.372   5.572
   10SAPS  H13R 1260   2.599   4.450   5.501
   10SAPS  H13S 1261   2.537   4.340   5.619
   10SAPS  C214 1262   2.701   4.264   5.492
   10SAPS  H14R 1263   2.720   4.176   5.555
   10SAPS  C215 1264   2.757   4.269   5.368
   10SAPS  H15R 1265   2.816   4.186   5.328
   10SAPS  C216 1266   2.744   4.375   5.270
   10SAPS  H16R 1267   2.702   4.464   5.321
   10SAPS  H16S 1268   2.659   4.334   5.211
   10SAPS  C217 1269   2.864   4.411   5.179
   10SAPS  H17R 1270   2.942   4.452   5.247
   10SAPS  H17S 1271   2.836   4.493   5.109
   10SAPS  C218 1272   2.925   4.304   5.094
   10SAPS  H18R 1273   2.958   4.218   5.156
   10SAPS  H18S 1274   3.012   4.337   5.032
   10SAPS  C219 1275   2.823   4.235   4.999
   10SAPS  H19R 1276   2.763   4.317   4.954
   10SAPS  H19S 1277   2.758   4.165   5.054
   10SAPS  C220 1278   2.896   4.143   4.899
   10SAPS  H20R 1279   2.815   4.113   4.828
   10SAPS  H20S 1280   2.948   4.058   4.947
   10SAPS  H20T 1281   2.970   4.201   4.840
   10SAPS   C33 1282   2.019   4.694   6.277
   10SAPS   H3X 1283   1.978   4.790   6.314
   10SAPS   H3Y 1284   1.932   4.627   6.260
   10SAPS   C34 1285   2.096   4.718   6.145
   10SAPS   H4X 1286   2.174   4.793   6.168
   10SAPS   H4Y 1287   2.023   4.772   6.081
   10SAPS   C35 1288   2.158   4.608   6.057
   10SAPS   H5X 1289   2.086   4.524   6.047
   10SAPS   H5Y 1290   2.244   4.565   6.112
   10SAPS   C36 1291   2.216   4.661   5.924
   10SAPS   H6X 1292   2.284   4.749   5.934
   10SAPS   H6Y 1293   2.128   4.702   5.871
   10SAPS   C37 1294   2.271   4.550   5.829
   10SAPS   H7X 1295   2.179   4.499   5.793
   10SAPS   H7Y 1296   2.339   4.480   5.882
   10SAPS   C38 1297   2.347   4.609   5.710
   10SAPS   H8X 1298   2.355   4.527   5.636
   10SAPS   H8Y 1299   2.442   4.650   5.752
   10SAPS   C39 1300   2.284   4.721   5.627
   10SAPS   H9X 1301   2.262   4.799   5.704
   10SAPS   H9Y 1302   2.187   4.694   5.580
   10SAPS  C310 1303   2.379   4.783   5.524
   10SAPS  H10X 1304   2.434   4.703   5.470
   10SAPS  H10Y 1305   2.457   4.851   5.566
   10SAPS  C311 1306   2.292   4.863   5.420
   10SAPS  H11X 1307   2.208   4.917   5.468
   10SAPS  H11Y 1308   2.241   4.789   5.355
   10SAPS  C312 1309   2.383   4.958   5.339
   10SAPS  H12X 1310   2.461   4.895   5.290
   10SAPS  H12Y 1311   2.429   5.030   5.410
   10SAPS  C313 1312   2.306   5.038   5.238
   10SAPS  H13X 1313   2.226   5.098   5.286
   10SAPS  H13Y 1314   2.253   4.974   5.165
   10SAPS  C314 1315   2.395   5.140   5.160
   10SAPS  H14X 1316   2.496   5.102   5.133
   10SAPS  H14Y 1317   2.410   5.218   5.239
   10SAPS  C315 1318   2.353   5.226   5.035
   10SAPS  H15X 1319   2.409   5.322   5.044
   10SAPS  H15Y 1320   2.248   5.255   5.052
   10SAPS  C316 1321   2.362   5.171   4.888
   10SAPS  H16X 1322   2.347   5.255   4.816
   10SAPS  H16Y 1323   2.289   5.089   4.874
   10SAPS  C317 1324   2.497   5.120   4.854
   10SAPS  H17X 1325   2.503   5.019   4.900
   10SAPS  H17Y 1326   2.562   5.195   4.905
   10SAPS  C318 1327   2.525   5.081   4.710
   10SAPS  H18X 1328   2.629   5.044   4.699
   10SAPS  H18Y 1329   2.510   5.163   4.636
   10SAPS  H18Z 1330   2.468   4.993   4.673
   11SAPS     N 1331   3.301   3.103   2.313
   11SAPS   HN1 1332   3.367   3.150   2.248
   11SAPS   HN2 1333   3.241   3.174   2.361
   11SAPS   HN3 1334   3.362   3.056   2.383
   11SAPS   C12 1335   3.213   2.985   2.272
   11SAPS  H12A 1336   3.150   2.954   2.354
   11SAPS   C13 1337   3.118   3.025   2.160
   11SAPS  O13A 1338   3.143   3.135   2.101
   11SAPS  O13B 1339   3.055   2.932   2.102
   11SAPS   C11 1340   3.297   2.867   2.236
   11SAPS  H11A 1341   3.349   2.879   2.139
   11SAPS  H11B 1342   3.228   2.782   2.217
   11SAPS     P 1343   3.537   2.767   2.289
   11SAPS   O13 1344   3.515   2.637   2.230
   11SAPS   O14 1345   3.598   2.859   2.193
   11SAPS   O12 1346   3.393   2.827   2.339
   11SAPS   O11 1347   3.616   2.759   2.424
   11SAPS    C1 1348   3.549   2.710   2.541
   11SAPS    HA 1349   3.471   2.632   2.526
   11SAPS    HB 1350   3.634   2.664   2.596
   11SAPS    C2 1351   3.492   2.820   2.636
   11SAPS    HS 1352   3.392   2.851   2.598
   11SAPS   O21 1353   3.595   2.924   2.635
   11SAPS   C21 1354   3.559   3.046   2.586
   11SAPS   O22 1355   3.448   3.072   2.541
   11SAPS   C22 1356   3.675   3.142   2.608
   11SAPS   H2R 1357   3.691   3.152   2.717
   11SAPS   H2S 1358   3.769   3.097   2.570
   11SAPS    C3 1359   3.476   2.771   2.779
   11SAPS    HX 1360   3.455   2.855   2.848
   11SAPS    HY 1361   3.577   2.736   2.810
   11SAPS   O31 1362   3.391   2.660   2.790
   11SAPS   C31 1363   3.263   2.693   2.822
   11SAPS   O32 1364   3.222   2.806   2.833
   11SAPS   C32 1365   3.184   2.565   2.856
   11SAPS   H2X 1366   3.197   2.493   2.772
   11SAPS   H2Y 1367   3.075   2.588   2.861
   11SAPS   C23 1368   3.668   3.292   2.552
   11SAPS   H3R 1369   3.570   3.320   2.508
   11SAPS   H3S 1370   3.730   3.295   2.460
   11SAPS   C24 1371   3.716   3.402   2.648
   11SAPS   H4R 1372   3.647   3.412   2.735
   11SAPS   H4S 1373   3.716   3.496   2.588
   11SAPS   C25 1374   3.859   3.389   2.694
   11SAPS   H5R 1375   3.936   3.427   2.626
   11SAPS   C26 1376   3.902   3.351   2.819
   11SAPS   H6R 1377   4.008   3.333   2.842
   11SAPS   C27 1378   3.811   3.314   2.936
   11SAPS   H7R 1379   3.713   3.280   2.895
   11SAPS   H7S 1380   3.791   3.402   3.001
   11SAPS   C28 1381   3.882   3.208   3.026
   11SAPS   H8R 1382   3.856   3.104   3.005
   11SAPS   C29 1383   3.955   3.238   3.136
   11SAPS   H9R 1384   3.983   3.157   3.205
   11SAPS  C210 1385   3.984   3.378   3.186
   11SAPS  H10R 1386   3.903   3.402   3.258
   11SAPS  H10S 1387   3.970   3.455   3.108
   11SAPS  C211 1388   4.132   3.400   3.237
   11SAPS  H11R 1389   4.209   3.397   3.158
   11SAPS  C212 1390   4.168   3.413   3.371
   11SAPS  H12R 1391   4.273   3.415   3.403
   11SAPS  C213 1392   4.071   3.411   3.488
   11SAPS  H13R 1393   3.979   3.471   3.471
   11SAPS  H13S 1394   4.118   3.466   3.573
   11SAPS  C214 1395   4.033   3.269   3.525
   11SAPS  H14R 1396   4.025   3.194   3.445
   11SAPS  C215 1397   4.000   3.232   3.656
   11SAPS  H15R 1398   3.987   3.124   3.673
   11SAPS  C216 1399   3.996   3.319   3.777
   11SAPS  H16R 1400   3.973   3.424   3.750
   11SAPS  H16S 1401   4.097   3.326   3.823
   11SAPS  C217 1402   3.887   3.287   3.876
   11SAPS  H17R 1403   3.788   3.261   3.833
   11SAPS  H17S 1404   3.891   3.367   3.953
   11SAPS  C218 1405   3.922   3.152   3.950
   11SAPS  H18R 1406   4.027   3.161   3.986
   11SAPS  H18S 1407   3.915   3.068   3.878
   11SAPS  C219 1408   3.841   3.128   4.075
   11SAPS  H19R 1409   3.738   3.137   4.036
   11SAPS  H19S 1410   3.854   3.208   4.151
   11SAPS  C220 1411   3.867   2.991   4.138
   11SAPS  H20R 1412   3.851   2.914   4.060
   11SAPS  H20S 1413   3.787   2.975   4.214
   11SAPS  H20T 1414   3.968   2.978   4.182
   11SAPS   C33 1415   3.244   2.501   2.978
   11SAPS   H3X 1416   3.354   2.490   2.970
   11SAPS   H3Y 1417   3.206   2.397   2.988
   11SAPS   C34 1418   3.199   2.568   3.109
   11SAPS   H4X 1419   3.094   2.541   3.132
   11SAPS   H4Y 1420   3.192   2.677   3.090
   11SAPS   C35 1421   3.296   2.545   3.224
   11SAPS   H5X 1422   3.251   2.603   3.308
   11SAPS   H5Y 1423   3.397   2.581   3.196
   11SAPS   C36 1424   3.301   2.396   3.265
   11SAPS   H6X 1425   3.345   2.340   3.180
   11SAPS   H6Y 1426   3.202   2.349   3.284
   11SAPS   C37 1427   3.408   2.375   3.375
   11SAPS   H7X 1428   3.473   2.464   3.362
   11SAPS   H7Y 1429   3.467   2.286   3.345
   11SAPS   C38 1430   3.344   2.362   3.519
   11SAPS   H8X 1431   3.272   2.277   3.515
   11SAPS   H8Y 1432   3.292   2.459   3.533
   11SAPS   C39 1433   3.437   2.332   3.638
   11SAPS   H9X 1434   3.534   2.386   3.642
   11SAPS   H9Y 1435   3.459   2.224   3.619
   11SAPS  C310 1436   3.376   2.354   3.773
   11SAPS  H10X 1437   3.285   2.292   3.758
   11SAPS  H10Y 1438   3.360   2.462   3.794
   11SAPS  C311 1439   3.459   2.285   3.883
   11SAPS  H11X 1440   3.565   2.318   3.883
   11SAPS  H11Y 1441   3.452   2.174   3.880
   11SAPS  C312 1442   3.413   2.323   4.024
   11SAPS  H12X 1443   3.302   2.321   4.029
   11SAPS  H12Y 1444   3.449   2.425   4.049
   11SAPS  C313 1445   3.473   2.233   4.138
   11SAPS  H13X 1446   3.577   2.203   4.113
   11SAPS  H13Y 1447   3.417   2.138   4.156
   11SAPS  C314 1448   3.469   2.315   4.265
   11SAPS  H14X 1449   3.360   2.319   4.287
   11SAPS  H14Y 1450   3.499   2.421   4.251
   11SAPS  C315 1451   3.552   2.256   4.388
   11SAPS  H15X 1452   3.655   2.240   4.348
   11SAPS  H15Y 1453   3.508   2.160   4.422
   11SAPS  C316 1454   3.562   2.358   4.499
   11SAPS  H16X 1455   3.465   2.385   4.546
   11SAPS  H16Y 1456   3.601   2.454   4.460
   11SAPS  C317 1457   3.643   2.307   4.617
   11SAPS  H17X 1458   3.573   2.234   4.661
   11SAPS  H17Y 1459   3.651   2.387   4.694
   11SAPS  C318 1460   3.782   2.240   4.587
   11SAPS  H18X 1461   3.830   2.223   4.685
   11SAPS  H18Y 1462   3.843   2.305   4.521
   11SAPS  H18Z 1463   3.769   2.141   4.536
   12SAPS     N 1464   2.677   2.368   1.991
   12SAPS   HN1 1465   2.634   2.408   1.905
   12SAPS   HN2 1466   2.660   2.426   2.076
   12SAPS   HN3 1467   2.779   2.355   1.977
   12SAPS   C12 1468   2.593   2.245   2.002
   12SAPS  H12A 1469   2.513   2.259   2.073
   12SAPS   C13 1470   2.534   2.222   1.862
   12SAPS  O13A 1471   2.564   2.305   1.766
   12SAPS  O13B 1472   2.445   2.136   1.847
   12SAPS   C11 1473   2.670   2.111   2.037
   12SAPS  H11A 1474   2.739   2.088   1.953
   12SAPS  H11B 1475   2.597   2.027   2.035
   12SAPS     P 1476   2.748   1.994   2.269
   12SAPS   O13 1477   2.626   1.913   2.257
   12SAPS   O14 1478   2.872   1.918   2.256
   12SAPS   O12 1479   2.742   2.117   2.162
   12SAPS   O11 1480   2.749   2.068   2.408
   12SAPS    C1 1481   2.738   2.210   2.423
   12SAPS    HA 1482   2.839   2.249   2.397
   12SAPS    HB 1483   2.651   2.251   2.368
   12SAPS    C2 1484   2.711   2.241   2.577
   12SAPS    HS 1485   2.713   2.352   2.587
   12SAPS   O21 1486   2.812   2.173   2.654
   12SAPS   C21 1487   2.936   2.234   2.657
   12SAPS   O22 1488   2.964   2.348   2.617
   12SAPS   C22 1489   3.039   2.140   2.725
   12SAPS   H2R 1490   3.065   2.061   2.651
   12SAPS   H2S 1491   3.125   2.207   2.746
   12SAPS    C3 1492   2.570   2.187   2.608
   12SAPS    HX 1493   2.569   2.076   2.602
   12SAPS    HY 1494   2.507   2.215   2.520
   12SAPS   O31 1495   2.509   2.245   2.725
   12SAPS   C31 1496   2.521   2.168   2.831
   12SAPS   O32 1497   2.574   2.061   2.845
   12SAPS   C32 1498   2.463   2.253   2.942
   12SAPS   H2X 1499   2.359   2.284   2.916
   12SAPS   H2Y 1500   2.536   2.335   2.961
   12SAPS   C23 1501   2.983   2.069   2.853
   12SAPS   H3R 1502   2.893   2.006   2.835
   12SAPS   H3S 1503   2.950   2.142   2.930
   12SAPS   C24 1504   3.083   1.972   2.925
   12SAPS   H4R 1505   3.181   2.024   2.922
   12SAPS   H4S 1506   3.092   1.880   2.864
   12SAPS   C25 1507   3.023   1.949   3.067
   12SAPS   H5R 1508   2.925   1.898   3.061
   12SAPS   C26 1509   3.077   1.948   3.187
   12SAPS   H6R 1510   3.028   1.935   3.284
   12SAPS   C27 1511   3.217   2.001   3.214
   12SAPS   H7R 1512   3.224   2.060   3.308
   12SAPS   H7S 1513   3.241   2.068   3.128
   12SAPS   C28 1514   3.318   1.892   3.218
   12SAPS   H8R 1515   3.366   1.868   3.122
   12SAPS   C29 1516   3.374   1.844   3.330
   12SAPS   H9R 1517   3.440   1.756   3.330
   12SAPS  C210 1518   3.336   1.885   3.470
   12SAPS  H10R 1519   3.327   1.993   3.496
   12SAPS  H10S 1520   3.417   1.850   3.538
   12SAPS  C211 1521   3.207   1.816   3.513
   12SAPS  H11R 1522   3.181   1.725   3.457
   12SAPS  C212 1523   3.123   1.858   3.608
   12SAPS  H12R 1524   3.033   1.795   3.620
   12SAPS  C213 1525   3.137   1.977   3.699
   12SAPS  H13R 1526   3.038   2.014   3.734
   12SAPS  H13S 1527   3.193   2.057   3.647
   12SAPS  C214 1528   3.212   1.926   3.824
   12SAPS  H14R 1529   3.302   1.870   3.795
   12SAPS  C215 1530   3.197   1.974   3.948
   12SAPS  H15R 1531   3.265   1.926   4.020
   12SAPS  C216 1532   3.091   2.070   4.006
   12SAPS  H16R 1533   3.011   2.097   3.934
   12SAPS  H16S 1534   3.131   2.174   4.015
   12SAPS  C217 1535   3.026   2.028   4.136
   12SAPS  H17R 1536   3.010   1.918   4.131
   12SAPS  H17S 1537   2.921   2.064   4.132
   12SAPS  C218 1538   3.097   2.059   4.266
   12SAPS  H18R 1539   3.205   2.068   4.241
   12SAPS  H18S 1540   3.088   1.976   4.339
   12SAPS  C219 1541   3.074   2.198   4.329
   12SAPS  H19R 1542   2.969   2.234   4.321
   12SAPS  H19S 1543   3.131   2.283   4.285
   12SAPS  C220 1544   3.117   2.190   4.485
   12SAPS  H20R 1545   3.064   2.103   4.530
   12SAPS  H20S 1546   3.074   2.281   4.532
   12SAPS  H20T 1547   3.227   2.176   4.499
   12SAPS   C33 1548   2.438   2.169   3.077
   12SAPS   H3X 1549   2.536   2.124   3.100
   12SAPS   H3Y 1550   2.378   2.079   3.055
   12SAPS   C34 1551   2.384   2.244   3.204
   12SAPS   H4X 1552   2.293   2.301   3.176
   12SAPS   H4Y 1553   2.456   2.322   3.239
   12SAPS   C35 1554   2.362   2.143   3.319
   12SAPS   H5X 1555   2.456   2.097   3.358
   12SAPS   H5Y 1556   2.296   2.066   3.273
   12SAPS   C36 1557   2.288   2.210   3.434
   12SAPS   H6X 1558   2.206   2.268   3.385
   12SAPS   H6Y 1559   2.363   2.277   3.481
   12SAPS   C37 1560   2.222   2.113   3.543
   12SAPS   H7X 1561   2.292   2.042   3.592
   12SAPS   H7Y 1562   2.147   2.050   3.491
   12SAPS   C38 1563   2.143   2.196   3.647
   12SAPS   H8X 1564   2.064   2.259   3.600
   12SAPS   H8Y 1565   2.224   2.258   3.692
   12SAPS   C39 1566   2.073   2.099   3.746
   12SAPS   H9X 1567   2.153   2.048   3.805
   12SAPS   H9Y 1568   2.016   2.028   3.682
   12SAPS  C310 1569   1.980   2.183   3.839
   12SAPS  H10X 1570   1.902   2.230   3.775
   12SAPS  H10Y 1571   2.031   2.271   3.884
   12SAPS  C311 1572   1.915   2.082   3.938
   12SAPS  H11X 1573   1.858   2.013   3.873
   12SAPS  H11Y 1574   1.843   2.138   4.002
   12SAPS  C312 1575   2.009   2.007   4.033
   12SAPS  H12X 1576   2.081   2.064   4.095
   12SAPS  H12Y 1577   2.075   1.938   3.977
   12SAPS  C313 1578   1.929   1.929   4.135
   12SAPS  H13X 1579   1.872   1.985   4.213
   12SAPS  H13Y 1580   2.014   1.881   4.188
   12SAPS  C314 1581   1.827   1.826   4.081
   12SAPS  H14X 1582   1.886   1.748   4.028
   12SAPS  H14Y 1583   1.755   1.860   4.004
   12SAPS  C315 1584   1.756   1.758   4.198
   12SAPS  H15X 1585   1.746   1.813   4.294
   12SAPS  H15Y 1586   1.811   1.671   4.241
   12SAPS  C316 1587   1.610   1.727   4.149
   12SAPS  H16X 1588   1.577   1.816   4.091
   12SAPS  H16Y 1589   1.533   1.716   4.228
   12SAPS  C317 1590   1.602   1.594   4.064
   12SAPS  H17X 1591   1.602   1.506   4.132
   12SAPS  H17Y 1592   1.693   1.596   4.001
   12SAPS  C318 1593   1.476   1.569   3.974
   12SAPS  H18X 1594   1.506   1.504   3.889
   12SAPS  H18Y 1595   1.450   1.667   3.930
   12SAPS  H18Z 1596   1.391   1.525   4.030
   13SAPS     N 1597   5.505   0.497   2.102
   13SAPS   HN1 1598   5.447   0.542   2.175
   13SAPS   HN2 1599   5.450   0.421   2.057
   13SAPS   HN3 1600   5.590   0.454   2.143
   13SAPS   C12 1601   5.530   0.599   1.993
   13SAPS  H12A 1602   5.612   0.655   2.036
   13SAPS   C13 1603   5.587   0.558   1.856
   13SAPS  O13A 1604   5.618   0.435   1.841
   13SAPS  O13B 1605   5.618   0.646   1.769
   13SAPS   C11 1606   5.410   0.698   1.969
   13SAPS  H11A 1607   5.334   0.662   1.897
   13SAPS  H11B 1608   5.461   0.781   1.916
   13SAPS     P 1609   5.227   0.676   2.153
   13SAPS   O13 1610   5.164   0.585   2.049
   13SAPS   O14 1611   5.289   0.610   2.267
   13SAPS   O12 1612   5.349   0.758   2.083
   13SAPS   O11 1613   5.116   0.778   2.203
   13SAPS    C1 1614   5.146   0.913   2.240
   13SAPS    HA 1615   5.249   0.940   2.209
   13SAPS    HB 1616   5.069   0.986   2.207
   13SAPS    C2 1617   5.142   0.938   2.394
   13SAPS    HS 1618   5.236   0.902   2.441
   13SAPS   O21 1619   5.022   0.884   2.453
   13SAPS   C21 1620   5.030   0.836   2.572
   13SAPS   O22 1621   5.128   0.846   2.645
   13SAPS   C22 1622   4.884   0.793   2.613
   13SAPS   H2R 1623   4.828   0.889   2.622
   13SAPS   H2S 1624   4.844   0.728   2.532
   13SAPS    C3 1625   5.131   1.090   2.424
   13SAPS    HX 1626   5.031   1.122   2.388
   13SAPS    HY 1627   5.212   1.132   2.360
   13SAPS   O31 1628   5.147   1.131   2.560
   13SAPS   C31 1629   5.222   1.226   2.595
   13SAPS   O32 1630   5.288   1.292   2.514
   13SAPS   C32 1631   5.204   1.255   2.743
   13SAPS   H2X 1632   5.119   1.315   2.781
   13SAPS   H2Y 1633   5.295   1.311   2.775
   13SAPS   C23 1634   4.862   0.712   2.745
   13SAPS   H3R 1635   4.931   0.627   2.761
   13SAPS   H3S 1636   4.762   0.666   2.728
   13SAPS   C24 1637   4.876   0.802   2.876
   13SAPS   H4R 1638   4.816   0.895   2.869
   13SAPS   H4S 1639   4.984   0.828   2.879
   13SAPS   C25 1640   4.838   0.707   2.990
   13SAPS   H5R 1641   4.866   0.602   2.975
   13SAPS   C26 1642   4.782   0.729   3.110
   13SAPS   H6R 1643   4.771   0.653   3.189
   13SAPS   C27 1644   4.748   0.866   3.166
   13SAPS   H7R 1645   4.795   0.944   3.103
   13SAPS   H7S 1646   4.794   0.882   3.266
   13SAPS   C28 1647   4.601   0.906   3.171
   13SAPS   H8R 1648   4.565   0.907   3.068
   13SAPS   C29 1649   4.515   0.931   3.267
   13SAPS   H9R 1650   4.409   0.947   3.243
   13SAPS  C210 1651   4.553   0.946   3.415
   13SAPS  H10R 1652   4.655   0.906   3.434
   13SAPS  H10S 1653   4.490   0.878   3.477
   13SAPS  C211 1654   4.528   1.084   3.467
   13SAPS  H11R 1655   4.445   1.146   3.430
   13SAPS  C212 1656   4.590   1.140   3.568
   13SAPS  H12R 1657   4.547   1.235   3.604
   13SAPS  C213 1658   4.693   1.074   3.650
   13SAPS  H13R 1659   4.677   0.965   3.651
   13SAPS  H13S 1660   4.670   1.099   3.756
   13SAPS  C214 1661   4.833   1.106   3.606
   13SAPS  H14R 1662   4.843   1.136   3.501
   13SAPS  C215 1663   4.942   1.066   3.668
   13SAPS  H15R 1664   5.042   1.092   3.629
   13SAPS  C216 1665   4.948   1.005   3.803
   13SAPS  H16R 1666   4.849   1.023   3.848
   13SAPS  H16S 1667   5.016   1.069   3.863
   13SAPS  C217 1668   4.990   0.859   3.825
   13SAPS  H17R 1669   5.063   0.828   3.748
   13SAPS  H17S 1670   4.903   0.790   3.828
   13SAPS  C218 1671   5.058   0.844   3.963
   13SAPS  H18R 1672   5.139   0.920   3.966
   13SAPS  H18S 1673   5.099   0.741   3.959
   13SAPS  C219 1674   4.958   0.858   4.075
   13SAPS  H19R 1675   4.879   0.780   4.078
   13SAPS  H19S 1676   4.902   0.954   4.072
   13SAPS  C220 1677   5.014   0.873   4.218
   13SAPS  H20R 1678   5.066   0.971   4.222
   13SAPS  H20S 1679   5.092   0.803   4.253
   13SAPS  H20T 1680   4.940   0.868   4.301
   13SAPS   C33 1681   5.207   1.133   2.828
   13SAPS   H3X 1682   5.292   1.066   2.801
   13SAPS   H3Y 1683   5.113   1.076   2.811
   13SAPS   C34 1684   5.228   1.155   2.970
   13SAPS   H4X 1685   5.162   1.236   3.010
   13SAPS   H4Y 1686   5.336   1.175   2.985
   13SAPS   C35 1687   5.191   1.031   3.049
   13SAPS   H5X 1688   5.280   0.965   3.038
   13SAPS   H5Y 1689   5.099   0.980   3.014
   13SAPS   C36 1690   5.161   1.044   3.202
   13SAPS   H6X 1691   5.073   1.111   3.215
   13SAPS   H6Y 1692   5.252   1.093   3.245
   13SAPS   C37 1693   5.147   0.908   3.269
   13SAPS   H7X 1694   5.243   0.855   3.254
   13SAPS   H7Y 1695   5.060   0.852   3.229
   13SAPS   C38 1696   5.139   0.918   3.425
   13SAPS   H8X 1697   5.093   0.828   3.473
   13SAPS   H8Y 1698   5.067   0.999   3.449
   13SAPS   C39 1699   5.275   0.957   3.488
   13SAPS   H9X 1700   5.314   1.050   3.443
   13SAPS   H9Y 1701   5.349   0.879   3.460
   13SAPS  C310 1702   5.287   0.947   3.643
   13SAPS  H10X 1703   5.264   0.850   3.692
   13SAPS  H10Y 1704   5.213   1.018   3.687
   13SAPS  C311 1705   5.421   0.994   3.698
   13SAPS  H11X 1706   5.441   1.102   3.677
   13SAPS  H11Y 1707   5.494   0.939   3.635
   13SAPS  C312 1708   5.435   0.959   3.843
   13SAPS  H12X 1709   5.432   0.850   3.861
   13SAPS  H12Y 1710   5.342   0.998   3.889
   13SAPS  C313 1711   5.566   1.017   3.900
   13SAPS  H13X 1712   5.554   1.127   3.904
   13SAPS  H13Y 1713   5.662   1.000   3.847
   13SAPS  C314 1714   5.596   0.995   4.053
   13SAPS  H14X 1715   5.623   0.888   4.068
   13SAPS  H14Y 1716   5.515   1.015   4.127
   13SAPS  C315 1717   5.714   1.085   4.101
   13SAPS  H15X 1718   5.697   1.195   4.095
   13SAPS  H15Y 1719   5.806   1.072   4.041
   13SAPS  C316 1720   5.763   1.055   4.245
   13SAPS  H16X 1721   5.872   1.078   4.244
   13SAPS  H16Y 1722   5.754   0.946   4.261
   13SAPS  C317 1723   5.684   1.111   4.358
   13SAPS  H17X 1724   5.586   1.059   4.351
   13SAPS  H17Y 1725   5.668   1.221   4.347
   13SAPS  C318 1726   5.751   1.086   4.495
   13SAPS  H18X 1727   5.696   1.136   4.577
   13SAPS  H18Y 1728   5.858   1.117   4.486
   13SAPS  H18Z 1729   5.751   0.976   4.509
   14SAPS     N 1730   5.815   3.155   2.159
   14SAPS   HN1 1731   5.799   3.113   2.065
   14SAPS   HN2 1732   5.890   3.095   2.200
   14SAPS   HN3 1733   5.741   3.134   2.229
   14SAPS   C12 1734   5.848   3.297   2.148
   14SAPS  H12A 1735   5.862   3.340   2.246
   14SAPS   C13 1736   5.969   3.339   2.069
   14SAPS  O13A 1737   6.013   3.271   1.978
   14SAPS  O13B 1738   6.015   3.455   2.090
   14SAPS   C11 1739   5.717   3.368   2.081
   14SAPS  H11A 1740   5.718   3.341   1.974
   14SAPS  H11B 1741   5.714   3.479   2.094
   14SAPS     P 1742   5.455   3.325   2.074
   14SAPS   O13 1743   5.469   3.409   1.951
   14SAPS   O14 1744   5.398   3.190   2.064
   14SAPS   O12 1745   5.601   3.317   2.131
   14SAPS   O11 1746   5.373   3.407   2.185
   14SAPS    C1 1747   5.444   3.515   2.254
   14SAPS    HA 1748   5.537   3.546   2.203
   14SAPS    HB 1749   5.379   3.603   2.274
   14SAPS    C2 1750   5.483   3.467   2.394
   14SAPS    HS 1751   5.508   3.359   2.393
   14SAPS   O21 1752   5.386   3.494   2.491
   14SAPS   C21 1753   5.292   3.405   2.519
   14SAPS   O22 1754   5.276   3.296   2.465
   14SAPS   C22 1755   5.208   3.452   2.635
   14SAPS   H2R 1756   5.261   3.418   2.726
   14SAPS   H2S 1757   5.211   3.563   2.641
   14SAPS    C3 1758   5.618   3.539   2.447
   14SAPS    HX 1759   5.613   3.649   2.456
   14SAPS    HY 1760   5.682   3.510   2.361
   14SAPS   O31 1761   5.665   3.470   2.575
   14SAPS   C31 1762   5.791   3.488   2.606
   14SAPS   O32 1763   5.857   3.572   2.540
   14SAPS   C32 1764   5.834   3.402   2.716
   14SAPS   H2X 1765   5.889   3.323   2.659
   14SAPS   H2Y 1766   5.755   3.349   2.773
   14SAPS   C23 1767   5.057   3.416   2.622
   14SAPS   H3R 1768   5.040   3.306   2.616
   14SAPS   H3S 1769   5.006   3.465   2.537
   14SAPS   C24 1770   4.983   3.477   2.743
   14SAPS   H4R 1771   5.003   3.586   2.753
   14SAPS   H4S 1772   5.040   3.441   2.832
   14SAPS   C25 1773   4.835   3.451   2.751
   14SAPS   H5R 1774   4.777   3.473   2.661
   14SAPS   C26 1775   4.773   3.375   2.847
   14SAPS   H6R 1776   4.664   3.360   2.839
   14SAPS   C27 1777   4.830   3.334   2.976
   14SAPS   H7R 1778   4.919   3.268   2.981
   14SAPS   H7S 1779   4.756   3.278   3.037
   14SAPS   C28 1780   4.861   3.453   3.070
   14SAPS   H8R 1781   4.868   3.551   3.019
   14SAPS   C29 1782   4.890   3.436   3.200
   14SAPS   H9R 1783   4.928   3.518   3.262
   14SAPS  C210 1784   4.889   3.299   3.266
   14SAPS  H10R 1785   4.906   3.221   3.188
   14SAPS  H10S 1786   4.784   3.282   3.296
   14SAPS  C211 1787   4.980   3.275   3.386
   14SAPS  H11R 1788   5.031   3.366   3.423
   14SAPS  C212 1789   5.006   3.156   3.449
   14SAPS  H12R 1790   5.073   3.160   3.536
   14SAPS  C213 1791   4.969   3.016   3.405
   14SAPS  H13R 1792   4.886   3.024   3.331
   14SAPS  H13S 1793   4.936   2.953   3.491
   14SAPS  C214 1794   5.086   2.942   3.333
   14SAPS  H14R 1795   5.126   2.986   3.240
   14SAPS  C215 1796   5.160   2.838   3.370
   14SAPS  H15R 1797   5.244   2.808   3.306
   14SAPS  C216 1798   5.138   2.750   3.490
   14SAPS  H16R 1799   5.060   2.673   3.471
   14SAPS  H16S 1800   5.097   2.811   3.573
   14SAPS  C217 1801   5.272   2.683   3.540
   14SAPS  H17R 1802   5.349   2.762   3.537
   14SAPS  H17S 1803   5.307   2.608   3.465
   14SAPS  C218 1804   5.248   2.623   3.683
   14SAPS  H18R 1805   5.189   2.529   3.684
   14SAPS  H18S 1806   5.186   2.699   3.735
   14SAPS  C219 1807   5.377   2.585   3.758
   14SAPS  H19R 1808   5.467   2.615   3.701
   14SAPS  H19S 1809   5.383   2.475   3.770
   14SAPS  C220 1810   5.379   2.654   3.896
   14SAPS  H20R 1811   5.287   2.638   3.955
   14SAPS  H20S 1812   5.384   2.765   3.893
   14SAPS  H20T 1813   5.464   2.613   3.955
   14SAPS   C33 1814   5.927   3.475   2.814
   14SAPS   H3X 1815   5.941   3.582   2.788
   14SAPS   H3Y 1816   6.021   3.417   2.811
   14SAPS   C34 1817   5.868   3.469   2.957
   14SAPS   H4X 1818   5.943   3.504   3.030
   14SAPS   H4Y 1819   5.843   3.363   2.982
   14SAPS   C35 1820   5.734   3.543   2.977
   14SAPS   H5X 1821   5.657   3.493   2.915
   14SAPS   H5Y 1822   5.731   3.650   2.948
   14SAPS   C36 1823   5.678   3.528   3.119
   14SAPS   H6X 1824   5.682   3.429   3.170
   14SAPS   H6Y 1825   5.571   3.557   3.114
   14SAPS   C37 1826   5.739   3.620   3.229
   14SAPS   H7X 1827   5.741   3.722   3.185
   14SAPS   H7Y 1828   5.846   3.595   3.247
   14SAPS   C38 1829   5.653   3.617   3.358
   14SAPS   H8X 1830   5.542   3.608   3.350
   14SAPS   H8Y 1831   5.657   3.719   3.402
   14SAPS   C39 1832   5.710   3.518   3.459
   14SAPS   H9X 1833   5.820   3.531   3.468
   14SAPS   H9Y 1834   5.690   3.411   3.435
   14SAPS  C310 1835   5.654   3.542   3.604
   14SAPS  H10X 1836   5.618   3.647   3.617
   14SAPS  H10Y 1837   5.742   3.529   3.671
   14SAPS  C311 1838   5.540   3.450   3.634
   14SAPS  H11X 1839   5.580   3.349   3.610
   14SAPS  H11Y 1840   5.454   3.472   3.567
   14SAPS  C312 1841   5.485   3.436   3.776
   14SAPS  H12X 1842   5.396   3.369   3.769
   14SAPS  H12Y 1843   5.443   3.535   3.805
   14SAPS  C313 1844   5.580   3.372   3.883
   14SAPS  H13X 1845   5.687   3.401   3.880
   14SAPS  H13Y 1846   5.575   3.262   3.864
   14SAPS  C314 1847   5.519   3.401   4.022
   14SAPS  H14X 1848   5.419   3.353   4.022
   14SAPS  H14Y 1849   5.492   3.508   4.038
   14SAPS  C315 1850   5.607   3.355   4.137
   14SAPS  H15X 1851   5.704   3.408   4.137
   14SAPS  H15Y 1852   5.636   3.249   4.125
   14SAPS  C316 1853   5.534   3.366   4.276
   14SAPS  H16X 1854   5.545   3.470   4.315
   14SAPS  H16Y 1855   5.590   3.300   4.346
   14SAPS  C317 1856   5.387   3.325   4.280
   14SAPS  H17X 1857   5.380   3.222   4.240
   14SAPS  H17Y 1858   5.335   3.400   4.217
   14SAPS  C318 1859   5.340   3.342   4.426
   14SAPS  H18X 1860   5.342   3.451   4.445
   14SAPS  H18Y 1861   5.409   3.297   4.500
   14SAPS  H18Z 1862   5.241   3.305   4.459
   15SAPS     N 1863   4.093   3.240   1.771
   15SAPS   HN1 1864   4.067   3.199   1.679
   15SAPS   HN2 1865   4.106   3.163   1.840
   15SAPS   HN3 1866   4.015   3.301   1.806
   15SAPS   C12 1867   4.220   3.322   1.773
   15SAPS  H12A 1868   4.302   3.258   1.743
   15SAPS   C13 1869   4.229   3.443   1.684
   15SAPS  O13A 1870   4.141   3.461   1.596
   15SAPS  O13B 1871   4.330   3.516   1.693
   15SAPS   C11 1872   4.257   3.364   1.914
   15SAPS  H11A 1873   4.199   3.455   1.938
   15SAPS  H11B 1874   4.362   3.401   1.920
   15SAPS     P 1875   4.248   3.272   2.162
   15SAPS   O13 1876   4.124   3.215   2.227
   15SAPS   O14 1877   4.375   3.214   2.206
   15SAPS   O12 1878   4.225   3.263   2.010
   15SAPS   O11 1879   4.248   3.424   2.187
   15SAPS    C1 1880   4.116   3.489   2.213
   15SAPS    HA 1881   4.113   3.593   2.173
   15SAPS    HB 1882   4.031   3.435   2.166
   15SAPS    C2 1883   4.104   3.519   2.357
   15SAPS    HS 1884   4.195   3.576   2.387
   15SAPS   O21 1885   4.093   3.400   2.429
   15SAPS   C21 1886   4.195   3.376   2.519
   15SAPS   O22 1887   4.273   3.465   2.552
   15SAPS   C22 1888   4.192   3.233   2.564
   15SAPS   H2R 1889   4.115   3.209   2.641
   15SAPS   H2S 1890   4.176   3.171   2.473
   15SAPS    C3 1891   3.983   3.617   2.387
   15SAPS    HX 1892   3.890   3.566   2.356
   15SAPS    HY 1893   3.980   3.709   2.325
   15SAPS   O31 1894   3.972   3.651   2.532
   15SAPS   C31 1895   4.042   3.755   2.568
   15SAPS   O32 1896   4.106   3.826   2.488
   15SAPS   C32 1897   4.037   3.758   2.723
   15SAPS   H2X 1898   4.107   3.837   2.757
   15SAPS   H2Y 1899   4.082   3.671   2.774
   15SAPS   C23 1900   4.323   3.184   2.632
   15SAPS   H3R 1901   4.413   3.238   2.597
   15SAPS   H3S 1902   4.342   3.075   2.624
   15SAPS   C24 1903   4.326   3.217   2.779
   15SAPS   H4R 1904   4.321   3.326   2.801
   15SAPS   H4S 1905   4.429   3.190   2.813
   15SAPS   C25 1906   4.232   3.130   2.853
   15SAPS   H5R 1907   4.126   3.124   2.827
   15SAPS   C26 1908   4.268   3.050   2.958
   15SAPS   H6R 1909   4.181   3.009   3.011
   15SAPS   C27 1910   4.401   3.040   3.037
   15SAPS   H7R 1911   4.470   2.985   2.969
   15SAPS   H7S 1912   4.383   2.963   3.115
   15SAPS   C28 1913   4.460   3.169   3.078
   15SAPS   H8R 1914   4.490   3.238   2.998
   15SAPS   C29 1915   4.477   3.208   3.210
   15SAPS   H9R 1916   4.502   3.314   3.230
   15SAPS  C210 1917   4.448   3.123   3.331
   15SAPS  H10R 1918   4.435   3.020   3.293
   15SAPS  H10S 1919   4.349   3.152   3.371
   15SAPS  C211 1920   4.542   3.135   3.445
   15SAPS  H11R 1921   4.644   3.108   3.414
   15SAPS  C212 1922   4.524   3.195   3.564
   15SAPS  H12R 1923   4.619   3.194   3.621
   15SAPS  C213 1924   4.402   3.265   3.627
   15SAPS  H13R 1925   4.322   3.275   3.551
   15SAPS  H13S 1926   4.438   3.367   3.656
   15SAPS  C214 1927   4.349   3.187   3.748
   15SAPS  H14R 1928   4.296   3.091   3.737
   15SAPS  C215 1929   4.372   3.235   3.874
   15SAPS  H15R 1930   4.344   3.166   3.955
   15SAPS  C216 1931   4.438   3.362   3.922
   15SAPS  H16R 1932   4.372   3.409   3.997
   15SAPS  H16S 1933   4.443   3.428   3.833
   15SAPS  C217 1934   4.589   3.331   3.960
   15SAPS  H17R 1935   4.639   3.422   4.000
   15SAPS  H17S 1936   4.658   3.304   3.877
   15SAPS  C218 1937   4.617   3.225   4.071
   15SAPS  H18R 1938   4.609   3.129   4.017
   15SAPS  H18S 1939   4.555   3.234   4.163
   15SAPS  C219 1940   4.767   3.228   4.111
   15SAPS  H19R 1941   4.843   3.250   4.033
   15SAPS  H19S 1942   4.799   3.130   4.151
   15SAPS  C220 1943   4.808   3.327   4.223
   15SAPS  H20R 1944   4.919   3.338   4.223
   15SAPS  H20S 1945   4.777   3.299   4.326
   15SAPS  H20T 1946   4.763   3.423   4.190
   15SAPS   C33 1947   3.894   3.778   2.777
   15SAPS   H3X 1948   3.845   3.678   2.775
   15SAPS   H3Y 1949   3.838   3.845   2.708
   15SAPS   C34 1950   3.890   3.833   2.919
   15SAPS   H4X 1951   3.786   3.848   2.954
   15SAPS   H4Y 1952   3.929   3.937   2.930
   15SAPS   C35 1953   3.963   3.756   3.030
   15SAPS   H5X 1954   4.071   3.757   3.002
   15SAPS   H5Y 1955   3.931   3.649   3.034
   15SAPS   C36 1956   3.941   3.817   3.165
   15SAPS   H6X 1957   3.841   3.783   3.202
   15SAPS   H6Y 1958   3.944   3.928   3.157
   15SAPS   C37 1959   4.036   3.799   3.288
   15SAPS   H7X 1960   4.137   3.823   3.249
   15SAPS   H7Y 1961   4.030   3.693   3.323
   15SAPS   C38 1962   3.989   3.883   3.413
   15SAPS   H8X 1963   3.884   3.849   3.430
   15SAPS   H8Y 1964   3.989   3.990   3.386
   15SAPS   C39 1965   4.069   3.876   3.543
   15SAPS   H9X 1966   4.164   3.926   3.515
   15SAPS   H9Y 1967   4.072   3.773   3.585
   15SAPS  C310 1968   4.015   3.962   3.656
   15SAPS  H10X 1969   3.907   3.958   3.683
   15SAPS  H10Y 1970   4.032   4.064   3.615
   15SAPS  C311 1971   4.099   3.940   3.786
   15SAPS  H11X 1972   4.095   4.036   3.842
   15SAPS  H11Y 1973   4.208   3.933   3.764
   15SAPS  C312 1974   4.058   3.810   3.856
   15SAPS  H12X 1975   4.065   3.723   3.788
   15SAPS  H12Y 1976   3.950   3.820   3.879
   15SAPS  C313 1977   4.148   3.770   3.976
   15SAPS  H13X 1978   4.164   3.862   4.037
   15SAPS  H13Y 1979   4.244   3.733   3.934
   15SAPS  C314 1980   4.078   3.650   4.046
   15SAPS  H14X 1981   4.073   3.568   3.971
   15SAPS  H14Y 1982   3.976   3.685   4.069
   15SAPS  C315 1983   4.158   3.593   4.158
   15SAPS  H15X 1984   4.154   3.661   4.247
   15SAPS  H15Y 1985   4.262   3.570   4.128
   15SAPS  C316 1986   4.095   3.458   4.217
   15SAPS  H16X 1987   4.160   3.425   4.302
   15SAPS  H16Y 1988   4.091   3.376   4.142
   15SAPS  C317 1989   3.949   3.465   4.258
   15SAPS  H17X 1990   3.929   3.371   4.314
   15SAPS  H17Y 1991   3.885   3.474   4.168
   15SAPS  C318 1992   3.918   3.576   4.360
   15SAPS  H18X 1993   3.811   3.573   4.391
   15SAPS  H18Y 1994   3.934   3.676   4.315
   15SAPS  H18Z 1995   3.978   3.560   4.452
   16SAPS     N 1996   6.166   3.754   1.418
   16SAPS   HN1 1997   6.103   3.671   1.419
   16SAPS   HN2 1998   6.206   3.759   1.322
   16SAPS   HN3 1999   6.238   3.743   1.492
   16SAPS   C12 2000   6.072   3.866   1.437
   16SAPS  H12A 2001   6.129   3.958   1.440
   16SAPS   C13 2002   5.972   3.896   1.321
   16SAPS  O13A 2003   5.965   3.821   1.220
   16SAPS  O13B 2004   5.928   4.011   1.302
   16SAPS   C11 2005   6.007   3.863   1.586
   16SAPS  H11A 2006   5.932   3.781   1.593
   16SAPS  H11B 2007   5.953   3.958   1.603
   16SAPS     P 2008   6.114   3.775   1.810
   16SAPS   O13 2009   6.056   3.634   1.790
   16SAPS   O14 2010   6.247   3.782   1.868
   16SAPS   O12 2011   6.115   3.867   1.682
   16SAPS   O11 2012   6.009   3.854   1.896
   16SAPS    C1 2013   6.020   3.996   1.917
   16SAPS    HA 2014   6.124   4.027   1.938
   16SAPS    HB 2015   5.968   4.040   1.830
   16SAPS    C2 2016   5.932   4.039   2.035
   16SAPS    HS 2017   5.966   4.137   2.075
   16SAPS   O21 2018   5.935   3.941   2.145
   16SAPS   C21 2019   6.041   3.939   2.213
   16SAPS   O22 2020   6.143   4.012   2.205
   16SAPS   C22 2021   6.036   3.813   2.299
   16SAPS   H2R 2022   5.931   3.783   2.319
   16SAPS   H2S 2023   6.098   3.730   2.259
   16SAPS    C3 2024   5.777   4.059   2.000
   16SAPS    HX 2025   5.742   3.959   1.966
   16SAPS    HY 2026   5.777   4.133   1.917
   16SAPS   O31 2027   5.703   4.106   2.111
   16SAPS   C31 2028   5.684   4.233   2.128
   16SAPS   O32 2029   5.734   4.321   2.053
   16SAPS   C32 2030   5.599   4.254   2.256
   16SAPS   H2X 2031   5.554   4.157   2.284
   16SAPS   H2Y 2032   5.504   4.302   2.225
   16SAPS   C23 2033   6.072   3.850   2.445
   16SAPS   H3R 2034   6.177   3.886   2.444
   16SAPS   H3S 2035   6.076   3.751   2.494
   16SAPS   C24 2036   5.984   3.958   2.505
   16SAPS   H4R 2037   5.990   4.049   2.440
   16SAPS   H4S 2038   6.032   3.989   2.601
   16SAPS   C25 2039   5.833   3.920   2.522
   16SAPS   H5R 2040   5.783   3.901   2.426
   16SAPS   C26 2041   5.759   3.899   2.632
   16SAPS   H6R 2042   5.656   3.861   2.624
   16SAPS   C27 2043   5.811   3.917   2.766
   16SAPS   H7R 2044   5.865   4.014   2.762
   16SAPS   H7S 2045   5.884   3.835   2.780
   16SAPS   C28 2046   5.726   3.920   2.892
   16SAPS   H8R 2047   5.624   3.879   2.888
   16SAPS   C29 2048   5.775   3.957   3.017
   16SAPS   H9R 2049   5.711   3.962   3.106
   16SAPS  C210 2050   5.918   3.986   3.052
   16SAPS  H10R 2051   5.922   4.083   3.107
   16SAPS  H10S 2052   5.982   4.000   2.963
   16SAPS  C211 2053   5.995   3.893   3.150
   16SAPS  H11R 2054   6.074   3.833   3.102
   16SAPS  C212 2055   5.990   3.887   3.284
   16SAPS  H12R 2056   6.062   3.816   3.329
   16SAPS  C213 2057   5.909   3.965   3.377
   16SAPS  H13R 2058   5.822   3.903   3.406
   16SAPS  H13S 2059   5.865   4.055   3.327
   16SAPS  C214 2060   5.999   4.020   3.491
   16SAPS  H14R 2061   6.082   4.086   3.463
   16SAPS  C215 2062   5.987   3.991   3.622
   16SAPS  H15R 2063   6.066   4.030   3.688
   16SAPS  C216 2064   5.882   3.914   3.694
   16SAPS  H16R 2065   5.827   3.847   3.625
   16SAPS  H16S 2066   5.806   3.987   3.727
   16SAPS  C217 2067   5.931   3.849   3.828
   16SAPS  H17R 2068   5.839   3.837   3.889
   16SAPS  H17S 2069   6.001   3.915   3.883
   16SAPS  C218 2070   5.985   3.705   3.821
   16SAPS  H18R 2071   6.075   3.705   3.756
   16SAPS  H18S 2072   5.913   3.629   3.783
   16SAPS  C219 2073   6.020   3.656   3.961
   16SAPS  H19R 2074   6.076   3.742   4.004
   16SAPS  H19S 2075   6.093   3.572   3.955
   16SAPS  C220 2076   5.896   3.609   4.037
   16SAPS  H20R 2077   5.917   3.558   4.133
   16SAPS  H20S 2078   5.827   3.545   3.977
   16SAPS  H20T 2079   5.844   3.700   4.074
   16SAPS   C33 2080   5.673   4.339   2.355
   16SAPS   H3X 2081   5.702   4.434   2.306
   16SAPS   H3Y 2082   5.765   4.294   2.399
   16SAPS   C34 2083   5.574   4.379   2.466
   16SAPS   H4X 2084   5.478   4.417   2.424
   16SAPS   H4Y 2085   5.621   4.452   2.534
   16SAPS   C35 2086   5.531   4.253   2.535
   16SAPS   H5X 2087   5.613   4.180   2.555
   16SAPS   H5Y 2088   5.461   4.191   2.475
   16SAPS   C36 2089   5.464   4.277   2.671
   16SAPS   H6X 2090   5.414   4.184   2.706
   16SAPS   H6Y 2091   5.386   4.355   2.660
   16SAPS   C37 2092   5.570   4.331   2.774
   16SAPS   H7X 2093   5.603   4.434   2.748
   16SAPS   H7Y 2094   5.657   4.262   2.774
   16SAPS   C38 2095   5.521   4.331   2.924
   16SAPS   H8X 2096   5.469   4.236   2.947
   16SAPS   H8Y 2097   5.446   4.410   2.946
   16SAPS   C39 2098   5.637   4.349   3.031
   16SAPS   H9X 2099   5.698   4.441   3.015
   16SAPS   H9Y 2100   5.709   4.264   3.030
   16SAPS  C310 2101   5.578   4.329   3.175
   16SAPS  H10X 2102   5.518   4.236   3.174
   16SAPS  H10Y 2103   5.506   4.411   3.194
   16SAPS  C311 2104   5.689   4.324   3.281
   16SAPS  H11X 2105   5.730   4.426   3.268
   16SAPS  H11Y 2106   5.774   4.257   3.257
   16SAPS  C312 2107   5.629   4.297   3.419
   16SAPS  H12X 2108   5.571   4.202   3.419
   16SAPS  H12Y 2109   5.562   4.383   3.438
   16SAPS  C313 2110   5.736   4.300   3.525
   16SAPS  H13X 2111   5.792   4.395   3.517
   16SAPS  H13Y 2112   5.813   4.220   3.510
   16SAPS  C314 2113   5.680   4.278   3.667
   16SAPS  H14X 2114   5.697   4.170   3.684
   16SAPS  H14Y 2115   5.570   4.298   3.672
   16SAPS  C315 2116   5.743   4.357   3.776
   16SAPS  H15X 2117   5.712   4.464   3.775
   16SAPS  H15Y 2118   5.850   4.354   3.746
   16SAPS  C316 2119   5.703   4.298   3.914
   16SAPS  H16X 2120   5.776   4.217   3.931
   16SAPS  H16Y 2121   5.598   4.262   3.916
   16SAPS  C317 2122   5.704   4.406   4.018
   16SAPS  H17X 2123   5.610   4.465   4.007
   16SAPS  H17Y 2124   5.785   4.482   4.007
   16SAPS  C318 2125   5.699   4.355   4.163
   16SAPS  H18X 2126   5.785   4.286   4.175
   16SAPS  H18Y 2127   5.615   4.285   4.182
   16SAPS  H18Z 2128   5.691   4.431   4.244
   17SAPS     N 2129   1.352   2.072   1.502
   17SAPS   HN1 2130   1.425   2.035   1.567
   17SAPS   HN2 2131   1.364   2.029   1.408
   17SAPS   HN3 2132   1.352   2.175   1.490
   17SAPS   C12 2133   1.222   2.021   1.541
   17SAPS  H12A 2134   1.200   2.070   1.635
   17SAPS   C13 2135   1.111   2.061   1.434
   17SAPS  O13A 2136   1.133   2.126   1.326
   17SAPS  O13B 2137   0.994   2.020   1.469
   17SAPS   C11 2138   1.227   1.869   1.568
   17SAPS  H11A 2139   1.252   1.814   1.474
   17SAPS  H11B 2140   1.125   1.832   1.589
   17SAPS     P 2141   1.301   1.835   1.809
   17SAPS   O13 2142   1.205   1.723   1.831
   17SAPS   O14 2143   1.433   1.826   1.880
   17SAPS   O12 2144   1.334   1.839   1.656
   17SAPS   O11 2145   1.233   1.970   1.850
   17SAPS    C1 2146   1.300   2.067   1.928
   17SAPS    HA 2147   1.408   2.046   1.937
   17SAPS    HB 2148   1.288   2.171   1.890
   17SAPS    C2 2149   1.230   2.056   2.063
   17SAPS    HS 2150   1.270   2.145   2.116
   17SAPS   O21 2151   1.249   1.934   2.137
   17SAPS   C21 2152   1.370   1.910   2.184
   17SAPS   O22 2153   1.473   1.977   2.162
   17SAPS   C22 2154   1.356   1.778   2.265
   17SAPS   H2R 2155   1.259   1.782   2.320
   17SAPS   H2S 2156   1.333   1.693   2.197
   17SAPS    C3 2157   1.078   2.079   2.041
   17SAPS    HX 2158   1.050   1.994   1.975
   17SAPS    HY 2159   1.057   2.172   1.984
   17SAPS   O31 2160   0.991   2.063   2.159
   17SAPS   C31 2161   1.015   2.160   2.247
   17SAPS   O32 2162   1.079   2.262   2.222
   17SAPS   C32 2163   0.960   2.123   2.387
   17SAPS   H2X 2164   0.855   2.087   2.384
   17SAPS   H2Y 2165   0.974   2.218   2.443
   17SAPS   C23 2166   1.484   1.755   2.342
   17SAPS   H3R 2167   1.503   1.849   2.398
   17SAPS   H3S 2168   1.565   1.756   2.266
   17SAPS   C24 2169   1.475   1.625   2.421
   17SAPS   H4R 2170   1.404   1.564   2.361
   17SAPS   H4S 2171   1.416   1.641   2.514
   17SAPS   C25 2172   1.610   1.556   2.440
   17SAPS   H5R 2173   1.645   1.487   2.362
   17SAPS   C26 2174   1.690   1.588   2.541
   17SAPS   H6R 2175   1.788   1.541   2.555
   17SAPS   C27 2176   1.651   1.679   2.653
   17SAPS   H7R 2177   1.565   1.632   2.706
   17SAPS   H7S 2178   1.606   1.770   2.606
   17SAPS   C28 2179   1.763   1.726   2.746
   17SAPS   H8R 2180   1.823   1.811   2.709
   17SAPS   C29 2181   1.792   1.697   2.875
   17SAPS   H9R 2182   1.884   1.730   2.926
   17SAPS  C210 2183   1.717   1.585   2.941
   17SAPS  H10R 2184   1.749   1.479   2.926
   17SAPS  H10S 2185   1.619   1.579   2.890
   17SAPS  C211 2186   1.687   1.606   3.087
   17SAPS  H11R 2187   1.588   1.649   3.106
   17SAPS  C212 2188   1.778   1.592   3.179
   17SAPS  H12R 2189   1.761   1.621   3.284
   17SAPS  C213 2190   1.909   1.521   3.170
   17SAPS  H13R 2191   1.977   1.607   3.152
   17SAPS  H13S 2192   1.909   1.450   3.084
   17SAPS  C214 2193   1.956   1.453   3.294
   17SAPS  H14R 2194   1.932   1.503   3.389
   17SAPS  C215 2195   2.046   1.348   3.292
   17SAPS  H15R 2196   2.055   1.307   3.394
   17SAPS  C216 2197   2.109   1.282   3.175
   17SAPS  H16R 2198   2.198   1.218   3.191
   17SAPS  H16S 2199   2.142   1.350   3.093
   17SAPS  C217 2200   2.004   1.183   3.110
   17SAPS  H17R 2201   1.916   1.241   3.077
   17SAPS  H17S 2202   1.960   1.120   3.190
   17SAPS  C218 2203   2.050   1.102   2.987
   17SAPS  H18R 2204   2.104   1.010   3.020
   17SAPS  H18S 2205   2.100   1.178   2.924
   17SAPS  C219 2206   1.931   1.054   2.895
   17SAPS  H19R 2207   1.834   1.073   2.945
   17SAPS  H19S 2208   1.932   0.946   2.870
   17SAPS  C220 2209   1.923   1.131   2.769
   17SAPS  H20R 2210   1.970   1.074   2.686
   17SAPS  H20S 2211   1.957   1.237   2.771
   17SAPS  H20T 2212   1.814   1.132   2.750
   17SAPS   C33 2213   1.043   2.009   2.456
   17SAPS   H3X 2214   1.153   2.027   2.452
   17SAPS   H3Y 2215   1.020   1.911   2.409
   17SAPS   C34 2216   0.995   1.993   2.603
   17SAPS   H4X 2217   0.886   1.987   2.584
   17SAPS   H4Y 2218   1.009   2.092   2.651
   17SAPS   C35 2219   1.051   1.874   2.676
   17SAPS   H5X 2220   1.152   1.905   2.711
   17SAPS   H5Y 2221   1.063   1.788   2.606
   17SAPS   C36 2222   0.961   1.835   2.786
   17SAPS   H6X 2223   0.993   1.734   2.819
   17SAPS   H6Y 2224   0.854   1.823   2.756
   17SAPS   C37 2225   0.976   1.926   2.905
   17SAPS   H7X 2226   0.926   2.020   2.875
   17SAPS   H7Y 2227   1.082   1.954   2.921
   17SAPS   C38 2228   0.927   1.868   3.042
   17SAPS   H8X 2229   1.004   1.793   3.071
   17SAPS   H8Y 2230   0.826   1.822   3.036
   17SAPS   C39 2231   0.931   1.981   3.149
   17SAPS   H9X 2232   0.858   2.059   3.118
   17SAPS   H9Y 2233   1.029   2.033   3.140
   17SAPS  C310 2234   0.907   1.944   3.291
   17SAPS  H10X 2235   0.950   1.843   3.310
   17SAPS  H10Y 2236   0.797   1.929   3.299
   17SAPS  C311 2237   0.937   2.051   3.391
   17SAPS  H11X 2238   0.894   2.143   3.344
   17SAPS  H11Y 2239   1.047   2.061   3.398
   17SAPS  C312 2240   0.869   2.014   3.525
   17SAPS  H12X 2241   0.766   1.982   3.498
   17SAPS  H12Y 2242   0.868   2.105   3.588
   17SAPS  C313 2243   0.936   1.897   3.601
   17SAPS  H13X 2244   1.044   1.917   3.614
   17SAPS  H13Y 2245   0.923   1.810   3.534
   17SAPS  C314 2246   0.857   1.863   3.726
   17SAPS  H14X 2247   0.750   1.853   3.700
   17SAPS  H14Y 2248   0.868   1.958   3.783
   17SAPS  C315 2249   0.915   1.739   3.792
   17SAPS  H15X 2250   1.021   1.757   3.817
   17SAPS  H15Y 2251   0.920   1.654   3.721
   17SAPS  C316 2252   0.855   1.697   3.930
   17SAPS  H16X 2253   0.907   1.601   3.952
   17SAPS  H16Y 2254   0.750   1.682   3.898
   17SAPS  C317 2255   0.870   1.807   4.039
   17SAPS  H17X 2256   0.841   1.903   3.991
   17SAPS  H17Y 2257   0.978   1.816   4.063
   17SAPS  C318 2258   0.790   1.788   4.167
   17SAPS  H18X 2259   0.822   1.687   4.199
   17SAPS  H18Y 2260   0.683   1.788   4.135
   17SAPS  H18Z 2261   0.812   1.867   4.243
   18SAPS     N 2262   4.466   2.864   1.864
   18SAPS   HN1 2263   4.538   2.864   1.939
   18SAPS   HN2 2264   4.457   2.788   1.793
   18SAPS   HN3 2265   4.493   2.946   1.805
   18SAPS   C12 2266   4.326   2.878   1.918
   18SAPS  H12A 2267   4.321   2.944   2.004
   18SAPS   C13 2268   4.221   2.948   1.820
   18SAPS  O13A 2269   4.267   2.979   1.708
   18SAPS  O13B 2270   4.099   2.962   1.846
   18SAPS   C11 2271   4.273   2.728   1.950
   18SAPS  H11A 2272   4.250   2.688   1.849
   18SAPS  H11B 2273   4.183   2.753   2.010
   18SAPS     P 2274   4.327   2.498   2.054
   18SAPS   O13 2275   4.278   2.429   1.929
   18SAPS   O14 2276   4.436   2.439   2.131
   18SAPS   O12 2277   4.368   2.650   2.022
   18SAPS   O11 2278   4.201   2.513   2.151
   18SAPS    C1 2279   4.181   2.609   2.253
   18SAPS    HA 2280   4.236   2.705   2.240
   18SAPS    HB 2281   4.074   2.633   2.265
   18SAPS    C2 2282   4.232   2.567   2.398
   18SAPS    HS 2283   4.336   2.536   2.378
   18SAPS   O21 2284   4.153   2.477   2.472
   18SAPS   C21 2285   4.221   2.376   2.527
   18SAPS   O22 2286   4.343   2.366   2.534
   18SAPS   C22 2287   4.122   2.285   2.584
   18SAPS   H2R 2288   4.054   2.346   2.647
   18SAPS   H2S 2289   4.049   2.244   2.510
   18SAPS    C3 2290   4.218   2.698   2.492
   18SAPS    HX 2291   4.113   2.733   2.485
   18SAPS    HY 2292   4.275   2.784   2.451
   18SAPS   O31 2293   4.248   2.680   2.631
   18SAPS   C31 2294   4.374   2.668   2.658
   18SAPS   O32 2295   4.471   2.675   2.586
   18SAPS   C32 2296   4.388   2.630   2.808
   18SAPS   H2X 2297   4.457   2.693   2.869
   18SAPS   H2Y 2298   4.439   2.533   2.793
   18SAPS   C23 2299   4.184   2.179   2.689
   18SAPS   H3R 2300   4.278   2.146   2.641
   18SAPS   H3S 2301   4.107   2.100   2.704
   18SAPS   C24 2302   4.215   2.242   2.825
   18SAPS   H4R 2303   4.122   2.249   2.886
   18SAPS   H4S 2304   4.254   2.344   2.802
   18SAPS   C25 2305   4.318   2.169   2.903
   18SAPS   H5R 2306   4.417   2.170   2.854
   18SAPS   C26 2307   4.303   2.124   3.031
   18SAPS   H6R 2308   4.386   2.080   3.088
   18SAPS   C27 2309   4.179   2.131   3.117
   18SAPS   H7R 2310   4.172   2.039   3.177
   18SAPS   H7S 2311   4.082   2.148   3.066
   18SAPS   C28 2312   4.200   2.258   3.194
   18SAPS   H8R 2313   4.208   2.354   3.140
   18SAPS   C29 2314   4.231   2.273   3.325
   18SAPS   H9R 2315   4.251   2.374   3.364
   18SAPS  C210 2316   4.258   2.161   3.427
   18SAPS  H10R 2317   4.369   2.149   3.421
   18SAPS  H10S 2318   4.216   2.063   3.397
   18SAPS  C211 2319   4.219   2.195   3.568
   18SAPS  H11R 2320   4.113   2.178   3.594
   18SAPS  C212 2321   4.297   2.247   3.663
   18SAPS  H12R 2322   4.262   2.274   3.763
   18SAPS  C213 2323   4.440   2.300   3.642
   18SAPS  H13R 2324   4.437   2.409   3.664
   18SAPS  H13S 2325   4.486   2.301   3.541
   18SAPS  C214 2326   4.528   2.240   3.752
   18SAPS  H14R 2327   4.603   2.170   3.713
   18SAPS  C215 2328   4.521   2.259   3.884
   18SAPS  H15R 2329   4.593   2.200   3.943
   18SAPS  C216 2330   4.431   2.345   3.975
   18SAPS  H16R 2331   4.379   2.272   4.042
   18SAPS  H16S 2332   4.359   2.418   3.932
   18SAPS  C217 2333   4.515   2.440   4.062
   18SAPS  H17R 2334   4.575   2.504   3.994
   18SAPS  H17S 2335   4.591   2.388   4.125
   18SAPS  C218 2336   4.432   2.519   4.164
   18SAPS  H18R 2337   4.346   2.461   4.204
   18SAPS  H18S 2338   4.397   2.615   4.121
   18SAPS  C219 2339   4.523   2.565   4.278
   18SAPS  H19R 2340   4.615   2.610   4.234
   18SAPS  H19S 2341   4.555   2.477   4.338
   18SAPS  C220 2342   4.464   2.661   4.379
   18SAPS  H20R 2343   4.367   2.622   4.417
   18SAPS  H20S 2344   4.438   2.763   4.343
   18SAPS  H20T 2345   4.535   2.669   4.464
   18SAPS   C33 2346   4.252   2.638   2.894
   18SAPS   H3X 2347   4.177   2.569   2.851
   18SAPS   H3Y 2348   4.210   2.741   2.889
   18SAPS   C34 2349   4.282   2.595   3.038
   18SAPS   H4X 2350   4.362   2.518   3.032
   18SAPS   H4Y 2351   4.183   2.555   3.069
   18SAPS   C35 2352   4.323   2.703   3.140
   18SAPS   H5X 2353   4.243   2.779   3.156
   18SAPS   H5Y 2354   4.420   2.751   3.116
   18SAPS   C36 2355   4.337   2.638   3.280
   18SAPS   H6X 2356   4.433   2.584   3.269
   18SAPS   H6Y 2357   4.261   2.564   3.313
   18SAPS   C37 2358   4.380   2.737   3.391
   18SAPS   H7X 2359   4.294   2.807   3.400
   18SAPS   H7Y 2360   4.472   2.790   3.358
   18SAPS   C38 2361   4.417   2.672   3.530
   18SAPS   H8X 2362   4.508   2.610   3.516
   18SAPS   H8Y 2363   4.327   2.613   3.558
   18SAPS   C39 2364   4.443   2.775   3.635
   18SAPS   H9X 2365   4.350   2.836   3.638
   18SAPS   H9Y 2366   4.533   2.836   3.609
   18SAPS  C310 2367   4.464   2.707   3.766
   18SAPS  H10X 2368   4.551   2.637   3.766
   18SAPS  H10Y 2369   4.378   2.637   3.779
   18SAPS  C311 2370   4.475   2.794   3.889
   18SAPS  H11X 2371   4.469   2.729   3.979
   18SAPS  H11Y 2372   4.387   2.862   3.887
   18SAPS  C312 2373   4.604   2.876   3.889
   18SAPS  H12X 2374   4.586   2.953   3.967
   18SAPS  H12Y 2375   4.613   2.929   3.792
   18SAPS  C313 2376   4.727   2.785   3.904
   18SAPS  H13X 2377   4.738   2.720   3.815
   18SAPS  H13Y 2378   4.724   2.718   3.992
   18SAPS  C314 2379   4.847   2.876   3.927
   18SAPS  H14X 2380   4.934   2.816   3.962
   18SAPS  H14Y 2381   4.828   2.940   4.016
   18SAPS  C315 2382   4.879   2.959   3.799
   18SAPS  H15X 2383   4.790   3.022   3.779
   18SAPS  H15Y 2384   4.899   2.886   3.717
   18SAPS  C316 2385   5.006   3.053   3.809
   18SAPS  H16X 2386   4.977   3.139   3.874
   18SAPS  H16Y 2387   5.034   3.097   3.711
   18SAPS  C317 2388   5.139   3.002   3.843
   18SAPS  H17X 2389   5.158   2.924   3.766
   18SAPS  H17Y 2390   5.142   2.966   3.948
   18SAPS  C318 2391   5.249   3.110   3.841
   18SAPS  H18X 2392   5.348   3.060   3.837
   18SAPS  H18Y 2393   5.255   3.179   3.928
   18SAPS  H18Z 2394   5.242   3.182   3.756
   19SAPS     N 2395   4.268   5.045   1.825
   19SAPS   HN1 2396   4.344   5.069   1.892
   19SAPS   HN2 2397   4.313   5.039   1.731
   19SAPS   HN3 2398   4.195   5.119   1.825
   19SAPS   C12 2399   4.219   4.905   1.855
   19SAPS  H12A 2400   4.122   4.907   1.904
   19SAPS   C13 2401   4.213   4.809   1.733
   19SAPS  O13A 2402   4.241   4.866   1.624
   19SAPS  O13B 2403   4.163   4.693   1.747
   19SAPS   C11 2404   4.302   4.848   1.963
   19SAPS  H11A 2405   4.405   4.834   1.922
   19SAPS  H11B 2406   4.263   4.745   1.975
   19SAPS     P 2407   4.396   4.897   2.205
   19SAPS   O13 2408   4.443   4.757   2.204
   19SAPS   O14 2409   4.506   4.995   2.226
   19SAPS   O12 2410   4.310   4.930   2.074
   19SAPS   O11 2411   4.290   4.912   2.315
   19SAPS    C1 2412   4.216   4.805   2.365
   19SAPS    HA 2413   4.106   4.821   2.357
   19SAPS    HB 2414   4.232   4.712   2.307
   19SAPS    C2 2415   4.260   4.773   2.510
   19SAPS    HS 2416   4.213   4.675   2.534
   19SAPS   O21 2417   4.220   4.872   2.607
   19SAPS   C21 2418   4.089   4.878   2.638
   19SAPS   O22 2419   4.000   4.818   2.589
   19SAPS   C22 2420   4.070   4.991   2.737
   19SAPS   H2R 2421   4.154   4.995   2.810
   19SAPS   H2S 2422   4.078   5.088   2.683
   19SAPS    C3 2423   4.423   4.753   2.523
   19SAPS    HX 2424   4.465   4.855   2.517
   19SAPS    HY 2425   4.456   4.692   2.436
   19SAPS   O31 2426   4.442   4.702   2.658
   19SAPS   C31 2427   4.561   4.634   2.675
   19SAPS   O32 2428   4.642   4.616   2.588
   19SAPS   C32 2429   4.564   4.575   2.816
   19SAPS   H2X 2430   4.520   4.473   2.810
   19SAPS   H2Y 2431   4.504   4.633   2.889
   19SAPS   C23 2432   3.940   5.005   2.825
   19SAPS   H3R 2433   3.860   5.009   2.747
   19SAPS   H3S 2434   3.935   5.102   2.878
   19SAPS   C24 2435   3.921   4.884   2.926
   19SAPS   H4R 2436   4.015   4.869   2.984
   19SAPS   H4S 2437   3.909   4.790   2.868
   19SAPS   C25 2438   3.801   4.925   3.011
   19SAPS   H5R 2439   3.704   4.945   2.963
   19SAPS   C26 2440   3.808   4.953   3.146
   19SAPS   H6R 2441   3.716   4.983   3.198
   19SAPS   C27 2442   3.931   4.948   3.231
   19SAPS   H7R 2443   3.901   4.996   3.327
   19SAPS   H7S 2444   4.016   5.002   3.185
   19SAPS   C28 2445   3.985   4.807   3.262
   19SAPS   H8R 2446   4.035   4.760   3.177
   19SAPS   C29 2447   3.971   4.740   3.376
   19SAPS   H9R 2448   4.002   4.634   3.385
   19SAPS  C210 2449   3.913   4.781   3.512
   19SAPS  H10R 2450   3.923   4.692   3.578
   19SAPS  H10S 2451   3.805   4.808   3.504
   19SAPS  C211 2452   3.979   4.904   3.581
   19SAPS  H11R 2453   4.050   4.964   3.523
   19SAPS  C212 2454   3.967   4.935   3.713
   19SAPS  H12R 2455   4.014   5.031   3.742
   19SAPS  C213 2456   3.889   4.865   3.824
   19SAPS  H13R 2457   3.955   4.797   3.881
   19SAPS  H13S 2458   3.815   4.795   3.780
   19SAPS  C214 2459   3.829   4.960   3.925
   19SAPS  H14R 2460   3.789   5.050   3.876
   19SAPS  C215 2461   3.845   4.962   4.057
   19SAPS  H15R 2462   3.793   5.035   4.120
   19SAPS  C216 2463   3.931   4.864   4.125
   19SAPS  H16R 2464   4.028   4.859   4.072
   19SAPS  H16S 2465   3.886   4.763   4.118
   19SAPS  C217 2466   3.963   4.911   4.268
   19SAPS  H17R 2467   3.879   4.939   4.335
   19SAPS  H17S 2468   4.026   5.002   4.261
   19SAPS  C218 2469   4.028   4.809   4.359
   19SAPS  H18R 2470   4.100   4.740   4.309
   19SAPS  H18S 2471   3.948   4.743   4.399
   19SAPS  C219 2472   4.083   4.879   4.487
   19SAPS  H19R 2473   3.999   4.940   4.527
   19SAPS  H19S 2474   4.166   4.947   4.459
   19SAPS  C220 2475   4.126   4.780   4.585
   19SAPS  H20R 2476   4.159   4.826   4.681
   19SAPS  H20S 2477   4.214   4.729   4.539
   19SAPS  H20T 2478   4.050   4.702   4.602
   19SAPS   C33 2479   4.711   4.572   2.874
   19SAPS   H3X 2480   4.770   4.664   2.853
   19SAPS   H3Y 2481   4.760   4.484   2.828
   19SAPS   C34 2482   4.729   4.549   3.022
   19SAPS   H4X 2483   4.815   4.482   3.045
   19SAPS   H4Y 2484   4.638   4.504   3.068
   19SAPS   C35 2485   4.749   4.683   3.102
   19SAPS   H5X 2486   4.661   4.745   3.078
   19SAPS   H5Y 2487   4.843   4.729   3.063
   19SAPS   C36 2488   4.759   4.650   3.249
   19SAPS   H6X 2489   4.835   4.570   3.262
   19SAPS   H6Y 2490   4.663   4.604   3.281
   19SAPS   C37 2491   4.784   4.776   3.334
   19SAPS   H7X 2492   4.695   4.839   3.312
   19SAPS   H7Y 2493   4.868   4.832   3.288
   19SAPS   C38 2494   4.791   4.754   3.488
   19SAPS   H8X 2495   4.718   4.675   3.515
   19SAPS   H8Y 2496   4.773   4.843   3.553
   19SAPS   C39 2497   4.929   4.693   3.517
   19SAPS   H9X 2498   5.015   4.765   3.520
   19SAPS   H9Y 2499   4.943   4.628   3.428
   19SAPS  C310 2500   4.935   4.620   3.658
   19SAPS  H10X 2501   5.039   4.581   3.660
   19SAPS  H10Y 2502   4.863   4.536   3.650
   19SAPS  C311 2503   4.904   4.709   3.776
   19SAPS  H11X 2504   4.798   4.735   3.794
   19SAPS  H11Y 2505   4.973   4.796   3.770
   19SAPS  C312 2506   4.945   4.633   3.903
   19SAPS  H12X 2507   5.035   4.571   3.887
   19SAPS  H12Y 2508   4.864   4.560   3.926
   19SAPS  C313 2509   4.962   4.727   4.026
   19SAPS  H13X 2510   5.049   4.795   4.015
   19SAPS  H13Y 2511   5.006   4.666   4.107
   19SAPS  C314 2512   4.836   4.809   4.068
   19SAPS  H14X 2513   4.751   4.740   4.084
   19SAPS  H14Y 2514   4.796   4.878   3.991
   19SAPS  C315 2515   4.858   4.879   4.197
   19SAPS  H15X 2516   4.966   4.907   4.195
   19SAPS  H15Y 2517   4.843   4.811   4.283
   19SAPS  C316 2518   4.775   5.005   4.211
   19SAPS  H16X 2519   4.671   4.987   4.177
   19SAPS  H16Y 2520   4.829   5.079   4.149
   19SAPS  C317 2521   4.775   5.049   4.362
   19SAPS  H17X 2522   4.878   5.073   4.396
   19SAPS  H17Y 2523   4.735   4.964   4.420
   19SAPS  C318 2524   4.699   5.176   4.398
   19SAPS  H18X 2525   4.740   5.262   4.342
   19SAPS  H18Y 2526   4.711   5.193   4.507
   19SAPS  H18Z 2527   4.590   5.159   4.381
   20SAPS     N 2528   4.955   5.532   1.954
   20SAPS   HN1 2529   5.009   5.484   2.029
   20SAPS   HN2 2530   4.852   5.526   1.969
   20SAPS   HN3 2531   4.970   5.479   1.866
   20SAPS   C12 2532   4.981   5.686   1.935
   20SAPS  H12A 2533   5.086   5.688   1.908
   20SAPS   C13 2534   4.914   5.734   1.811
   20SAPS  O13A 2535   4.837   5.660   1.747
   20SAPS  O13B 2536   4.941   5.856   1.770
   20SAPS   C11 2537   4.941   5.775   2.058
   20SAPS  H11A 2538   4.833   5.760   2.080
   20SAPS  H11B 2539   4.974   5.879   2.037
   20SAPS     P 2540   5.107   5.780   2.262
   20SAPS   O13 2541   5.228   5.700   2.265
   20SAPS   O14 2542   5.113   5.920   2.223
   20SAPS   O12 2543   5.005   5.708   2.168
   20SAPS   O11 2544   5.049   5.777   2.413
   20SAPS    C1 2545   4.907   5.796   2.436
   20SAPS    HA 2546   4.846   5.772   2.346
   20SAPS    HB 2547   4.880   5.732   2.523
   20SAPS    C2 2548   4.873   5.943   2.475
   20SAPS    HS 2549   4.932   6.004   2.404
   20SAPS   O21 2550   4.923   5.957   2.607
   20SAPS   C21 2551   4.938   6.085   2.644
   20SAPS   O22 2552   4.908   6.181   2.581
   20SAPS   C22 2553   5.016   6.092   2.776
   20SAPS   H2R 2554   5.120   6.095   2.737
   20SAPS   H2S 2555   4.986   6.186   2.827
   20SAPS    C3 2556   4.716   5.969   2.460
   20SAPS    HX 2557   4.696   5.952   2.352
   20SAPS    HY 2558   4.690   6.074   2.483
   20SAPS   O31 2559   4.637   5.873   2.531
   20SAPS   C31 2560   4.598   5.891   2.653
   20SAPS   O32 2561   4.618   5.991   2.721
   20SAPS   C32 2562   4.505   5.782   2.697
   20SAPS   H2X 2563   4.561   5.686   2.704
   20SAPS   H2Y 2564   4.433   5.771   2.613
   20SAPS   C23 2565   4.993   5.972   2.870
   20SAPS   H3R 2566   5.034   5.879   2.824
   20SAPS   H3S 2567   4.885   5.945   2.875
   20SAPS   C24 2568   5.054   5.989   3.007
   20SAPS   H4R 2569   5.165   5.987   3.003
   20SAPS   H4S 2570   5.023   5.898   3.064
   20SAPS   C25 2571   5.020   6.116   3.080
   20SAPS   H5R 2572   4.947   6.181   3.030
   20SAPS   C26 2573   5.073   6.171   3.188
   20SAPS   H6R 2574   5.019   6.257   3.229
   20SAPS   C27 2575   5.178   6.112   3.270
   20SAPS   H7R 2576   5.249   6.189   3.309
   20SAPS   H7S 2577   5.241   6.040   3.214
   20SAPS   C28 2578   5.117   6.023   3.375
   20SAPS   H8R 2579   5.053   5.944   3.332
   20SAPS   C29 2580   5.137   6.026   3.510
   20SAPS   H9R 2581   5.079   5.963   3.579
   20SAPS  C210 2582   5.239   6.114   3.580
   20SAPS  H10R 2583   5.327   6.111   3.514
   20SAPS  H10S 2584   5.261   6.068   3.679
   20SAPS  C211 2585   5.192   6.259   3.596
   20SAPS  H11R 2586   5.154   6.313   3.509
   20SAPS  C212 2587   5.211   6.328   3.719
   20SAPS  H12R 2588   5.175   6.432   3.729
   20SAPS  C213 2589   5.255   6.269   3.850
   20SAPS  H13R 2590   5.345   6.204   3.839
   20SAPS  H13S 2591   5.181   6.205   3.902
   20SAPS  C214 2592   5.301   6.378   3.943
   20SAPS  H14R 2593   5.396   6.426   3.919
   20SAPS  C215 2594   5.219   6.430   4.038
   20SAPS  H15R 2595   5.261   6.509   4.103
   20SAPS  C216 2596   5.081   6.386   4.068
   20SAPS  H16R 2597   5.068   6.398   4.177
   20SAPS  H16S 2598   5.060   6.278   4.048
   20SAPS  C217 2599   4.982   6.476   3.988
   20SAPS  H17R 2600   4.886   6.421   3.999
   20SAPS  H17S 2601   5.003   6.482   3.879
   20SAPS  C218 2602   4.973   6.613   4.056
   20SAPS  H18R 2603   5.078   6.645   4.075
   20SAPS  H18S 2604   4.925   6.601   4.155
   20SAPS  C219 2605   4.886   6.718   3.980
   20SAPS  H19R 2606   4.793   6.659   3.966
   20SAPS  H19S 2607   4.943   6.740   3.888
   20SAPS  C220 2608   4.858   0.005   4.069
   20SAPS  H20R 2609   4.785   6.823   4.150
   20SAPS  H20S 2610   4.820   0.084   4.001
   20SAPS  H20T 2611   4.957   0.032   4.111
   20SAPS   C33 2612   4.424   5.809   2.825
   20SAPS   H3X 2613   4.342   5.737   2.804
   20SAPS   H3Y 2614   4.387   5.914   2.832
   20SAPS   C34 2615   4.506   5.762   2.948
   20SAPS   H4X 2616   4.592   5.832   2.954
   20SAPS   H4Y 2617   4.536   5.657   2.927
   20SAPS   C35 2618   4.412   5.759   3.068
   20SAPS   H5X 2619   4.325   5.695   3.043
   20SAPS   H5Y 2620   4.373   5.860   3.094
   20SAPS   C36 2621   4.484   5.718   3.200
   20SAPS   H6X 2622   4.551   5.796   3.243
   20SAPS   H6Y 2623   4.553   5.633   3.182
   20SAPS   C37 2624   4.389   5.691   3.317
   20SAPS   H7X 2625   4.314   5.611   3.300
   20SAPS   H7Y 2626   4.325   5.780   3.333
   20SAPS   C38 2627   4.463   5.661   3.447
   20SAPS   H8X 2628   4.526   5.747   3.478
   20SAPS   H8Y 2629   4.528   5.579   3.410
   20SAPS   C39 2630   4.377   5.616   3.574
   20SAPS   H9X 2631   4.392   5.507   3.584
   20SAPS   H9Y 2632   4.272   5.654   3.571
   20SAPS  C310 2633   4.426   5.675   3.714
   20SAPS  H10X 2634   4.385   5.778   3.710
   20SAPS  H10Y 2635   4.537   5.678   3.711
   20SAPS  C311 2636   4.394   5.605   3.847
   20SAPS  H11X 2637   4.425   5.498   3.850
   20SAPS  H11Y 2638   4.287   5.593   3.870
   20SAPS  C312 2639   4.455   5.673   3.975
   20SAPS  H12X 2640   4.401   5.769   3.988
   20SAPS  H12Y 2641   4.560   5.701   3.954
   20SAPS  C313 2642   4.460   5.584   4.099
   20SAPS  H13X 2643   4.382   5.506   4.086
   20SAPS  H13Y 2644   4.444   5.637   4.195
   20SAPS  C314 2645   4.587   5.498   4.117
   20SAPS  H14X 2646   4.621   5.480   4.013
   20SAPS  H14Y 2647   4.560   5.398   4.157
   20SAPS  C315 2648   4.686   5.563   4.215
   20SAPS  H15X 2649   4.720   5.665   4.188
   20SAPS  H15Y 2650   4.782   5.510   4.198
   20SAPS  C316 2651   4.642   5.556   4.356
   20SAPS  H16X 2652   4.614   5.454   4.390
   20SAPS  H16Y 2653   4.560   5.630   4.361
   20SAPS  C317 2654   4.746   5.601   4.455
   20SAPS  H17X 2655   4.699   5.611   4.556
   20SAPS  H17Y 2656   4.771   5.708   4.440
   20SAPS  C318 2657   4.868   5.509   4.460
   20SAPS  H18X 2658   4.939   5.540   4.541
   20SAPS  H18Y 2659   4.927   5.520   4.367
   20SAPS  H18Z 2660   4.851   5.401   4.475
   21CHL1    C3 2661   1.675   3.933   6.113
   21CHL1    H3 2662   1.747   4.018   6.116
   21CHL1    O3 2663   1.641   3.883   6.247
   21CHL1   H3' 2664   1.611   3.794   6.233
   21CHL1    C4 2665   1.549   3.981   6.049
   21CHL1   H4A 2666   1.474   3.900   6.057
   21CHL1   H4B 2667   1.520   4.065   6.116
   21CHL1    C5 2668   1.550   4.022   5.909
   21CHL1    C6 2669   1.513   4.139   5.866
   21CHL1    H6 2670   1.475   4.209   5.941
   21CHL1    C7 2671   1.528   4.173   5.715
   21CHL1   H7A 2672   1.432   4.215   5.679
   21CHL1   H7B 2673   1.608   4.250   5.710
   21CHL1    C8 2674   1.569   4.064   5.621
   21CHL1    H8 2675   1.482   3.997   5.605
   21CHL1   C14 2676   1.623   4.129   5.498
   21CHL1   H14 2677   1.713   4.181   5.537
   21CHL1   C15 2678   1.549   4.240   5.419
   21CHL1  H15A 2679   1.440   4.220   5.424
   21CHL1  H15B 2680   1.559   4.341   5.464
   21CHL1   C16 2681   1.609   4.238   5.278
   21CHL1  H16A 2682   1.522   4.219   5.212
   21CHL1  H16B 2683   1.650   4.337   5.248
   21CHL1   C17 2684   1.708   4.119   5.266
   21CHL1   H17 2685   1.807   4.160   5.296
   21CHL1   C13 2686   1.661   4.029   5.387
   21CHL1   C18 2687   1.543   3.936   5.332
   21CHL1  H18A 2688   1.498   3.873   5.412
   21CHL1  H18B 2689   1.454   3.993   5.299
   21CHL1  H18C 2690   1.582   3.884   5.242
   21CHL1   C12 2691   1.770   3.938   5.436
   21CHL1  H12A 2692   1.810   3.863   5.365
   21CHL1  H12B 2693   1.861   4.001   5.448
   21CHL1   C11 2694   1.733   3.883   5.573
   21CHL1  H11A 2695   1.661   3.805   5.542
   21CHL1  H11B 2696   1.816   3.829   5.623
   21CHL1    C9 2697   1.670   3.978   5.681
   21CHL1    H9 2698   1.755   4.046   5.701
   21CHL1   C10 2699   1.625   3.918   5.818
   21CHL1   C19 2700   1.535   3.792   5.798
   21CHL1  H19A 2701   1.451   3.813   5.727
   21CHL1  H19B 2702   1.601   3.715   5.754
   21CHL1  H19C 2703   1.491   3.749   5.890
   21CHL1    C1 2704   1.758   3.869   5.886
   21CHL1   H1A 2705   1.811   3.792   5.827
   21CHL1   H1B 2706   1.823   3.958   5.872
   21CHL1    C2 2707   1.742   3.822   6.035
   21CHL1   H2A 2708   1.845   3.797   6.069
   21CHL1   H2B 2709   1.682   3.729   6.034
   21CHL1   C20 2710   1.730   4.067   5.122
   21CHL1   H20 2711   1.630   4.029   5.092
   21CHL1   C21 2712   1.826   3.951   5.108
   21CHL1  H21A 2713   1.846   3.928   5.001
   21CHL1  H21B 2714   1.802   3.848   5.144
   21CHL1  H21C 2715   1.921   3.982   5.156
   21CHL1   C22 2716   1.773   4.187   5.028
   21CHL1  H22A 2717   1.713   4.280   5.037
   21CHL1  H22B 2718   1.874   4.214   5.066
   21CHL1   C23 2719   1.798   4.170   4.873
   21CHL1  H23A 2720   1.889   4.107   4.874
   21CHL1  H23B 2721   1.709   4.125   4.824
   21CHL1   C24 2722   1.835   4.295   4.801
   21CHL1  H24A 2723   1.749   4.365   4.797
   21CHL1  H24B 2724   1.917   4.332   4.866
   21CHL1   C25 2725   1.899   4.273   4.660
   21CHL1   H25 2726   1.972   4.189   4.667
   21CHL1   C26 2727   1.796   4.238   4.547
   21CHL1  H26A 2728   1.834   4.252   4.444
   21CHL1  H26B 2729   1.759   4.134   4.552
   21CHL1  H26C 2730   1.713   4.311   4.559
   21CHL1   C27 2731   1.971   4.398   4.628
   21CHL1  H27A 2732   1.899   4.481   4.642
   21CHL1  H27B 2733   2.057   4.421   4.696
   21CHL1  H27C 2734   2.007   4.406   4.524
   22CHL1    C3 2735   2.216   1.797   5.982
   22CHL1    H3 2736   2.203   1.903   6.011
   22CHL1    O3 2737   2.252   1.721   6.098
   22CHL1   H3' 2738   2.255   1.633   6.060
   22CHL1    C4 2739   2.075   1.759   5.938
   22CHL1   H4A 2740   2.081   1.650   5.917
   22CHL1   H4B 2741   1.998   1.774   6.016
   22CHL1    C5 2742   2.031   1.822   5.802
   22CHL1    C6 2743   1.914   1.890   5.783
   22CHL1    H6 2744   1.843   1.890   5.867
   22CHL1    C7 2745   1.870   1.940   5.645
   22CHL1   H7A 2746   1.771   1.904   5.611
   22CHL1   H7B 2747   1.866   2.050   5.660
   22CHL1    C8 2748   1.971   1.907   5.528
   22CHL1    H8 2749   1.954   1.801   5.497
   22CHL1   C14 2750   1.951   1.996   5.405
   22CHL1   H14 2751   1.982   2.098   5.436
   22CHL1   C15 2752   1.803   2.018   5.366
   22CHL1  H15A 2753   1.738   1.929   5.363
   22CHL1  H15B 2754   1.752   2.087   5.437
   22CHL1   C16 2755   1.822   2.075   5.220
   22CHL1  H16A 2756   1.761   2.011   5.154
   22CHL1  H16B 2757   1.778   2.175   5.200
   22CHL1   C17 2758   1.970   2.067   5.180
   22CHL1   H17 2759   2.011   2.167   5.204
   22CHL1   C13 2760   2.029   1.960   5.276
   22CHL1   C18 2761   1.995   1.816   5.221
   22CHL1  H18A 2762   2.050   1.793   5.128
   22CHL1  H18B 2763   2.018   1.741   5.299
   22CHL1  H18C 2764   1.888   1.807   5.194
   22CHL1   C12 2765   2.173   1.975   5.321
   22CHL1  H12A 2766   2.244   1.949   5.240
   22CHL1  H12B 2767   2.202   2.078   5.350
   22CHL1   C11 2768   2.199   1.891   5.448
   22CHL1  H11A 2769   2.176   1.789   5.411
   22CHL1  H11B 2770   2.305   1.909   5.477
   22CHL1    C9 2771   2.113   1.913   5.578
   22CHL1    H9 2772   2.127   2.016   5.616
   22CHL1   C10 2773   2.137   1.812   5.693
   22CHL1   C19 2774   2.141   1.663   5.645
   22CHL1  H19A 2775   2.207   1.648   5.556
   22CHL1  H19B 2776   2.175   1.602   5.731
   22CHL1  H19C 2777   2.040   1.623   5.621
   22CHL1    C1 2778   2.283   1.848   5.748
   22CHL1   H1A 2779   2.351   1.841   5.660
   22CHL1   H1B 2780   2.279   1.955   5.778
   22CHL1    C2 2781   2.320   1.774   5.878
   22CHL1   H2A 2782   2.418   1.817   5.909
   22CHL1   H2B 2783   2.332   1.664   5.862
   22CHL1   C20 2784   1.986   2.042   5.029
   22CHL1   H20 2785   1.954   1.938   5.006
   22CHL1   C21 2786   2.132   2.069   4.995
   22CHL1  H21A 2787   2.155   2.174   4.967
   22CHL1  H21B 2788   2.153   2.004   4.908
   22CHL1  H21C 2789   2.209   2.035   5.069
   22CHL1   C22 2790   1.903   2.140   4.935
   22CHL1  H22A 2791   1.794   2.118   4.941
   22CHL1  H22B 2792   1.925   2.243   4.970
   22CHL1   C23 2793   1.940   2.132   4.789
   22CHL1  H23A 2794   2.046   2.165   4.783
   22CHL1  H23B 2795   1.938   2.024   4.764
   22CHL1   C24 2796   1.845   2.220   4.705
   22CHL1  H24A 2797   1.738   2.208   4.733
   22CHL1  H24B 2798   1.879   2.326   4.715
   22CHL1   C25 2799   1.848   2.178   4.553
   22CHL1   H25 2800   1.813   2.073   4.547
   22CHL1   C26 2801   1.768   2.283   4.477
   22CHL1  H26A 2802   1.685   2.326   4.537
   22CHL1  H26B 2803   1.837   2.359   4.433
   22CHL1  H26C 2804   1.715   2.235   4.392
   22CHL1   C27 2805   1.994   2.179   4.490
   22CHL1  H27A 2806   2.040   2.279   4.504
   22CHL1  H27B 2807   2.062   2.104   4.535
   22CHL1  H27C 2808   1.980   2.141   4.386
   23CHL1    C3 2809   1.009   3.464   5.817
   23CHL1    H3 2810   1.002   3.564   5.864
   23CHL1    O3 2811   0.987   3.366   5.912
   23CHL1   H3' 2812   1.058   3.378   5.976
   23CHL1    C4 2813   0.894   3.463   5.710
   23CHL1   H4A 2814   0.877   3.357   5.680
   23CHL1   H4B 2815   0.800   3.498   5.758
   23CHL1    C5 2816   0.915   3.554   5.591
   23CHL1    C6 2817   0.823   3.639   5.541
   23CHL1    H6 2818   0.729   3.650   5.597
   23CHL1    C7 2819   0.835   3.737   5.425
   23CHL1   H7A 2820   0.738   3.740   5.371
   23CHL1   H7B 2821   0.840   3.844   5.453
   23CHL1    C8 2822   0.962   3.705   5.348
   23CHL1    H8 2823   0.942   3.620   5.279
   23CHL1   C14 2824   0.999   3.831   5.267
   23CHL1   H14 2825   1.016   3.921   5.330
   23CHL1   C15 2826   0.882   3.892   5.174
   23CHL1  H15A 2827   0.816   3.815   5.129
   23CHL1  H15B 2828   0.822   3.961   5.237
   23CHL1   C16 2829   0.964   3.945   5.055
   23CHL1  H16A 2830   0.943   3.888   4.962
   23CHL1  H16B 2831   0.936   4.051   5.037
   23CHL1   C17 2832   1.116   3.937   5.090
   23CHL1   H17 2833   1.140   4.024   5.155
   23CHL1   C13 2834   1.123   3.821   5.180
   23CHL1   C18 2835   1.103   3.698   5.084
   23CHL1  H18A 2836   1.181   3.707   5.005
   23CHL1  H18B 2837   1.109   3.599   5.134
   23CHL1  H18C 2838   1.000   3.704   5.043
   23CHL1   C12 2839   1.245   3.801   5.269
   23CHL1  H12A 2840   1.341   3.779   5.218
   23CHL1  H12B 2841   1.257   3.895   5.326
   23CHL1   C11 2842   1.220   3.678   5.364
   23CHL1  H11A 2843   1.236   3.584   5.307
   23CHL1  H11B 2844   1.306   3.674   5.435
   23CHL1    C9 2845   1.083   3.673   5.440
   23CHL1    H9 2846   1.098   3.765   5.500
   23CHL1   C10 2847   1.057   3.546   5.528
   23CHL1   C19 2848   1.061   3.422   5.432
   23CHL1  H19A 2849   1.165   3.415   5.394
   23CHL1  H19B 2850   1.021   3.334   5.486
   23CHL1  H19C 2851   1.002   3.428   5.338
   23CHL1    C1 2852   1.173   3.536   5.632
   23CHL1   H1A 2853   1.258   3.495   5.573
   23CHL1   H1B 2854   1.210   3.627   5.684
   23CHL1    C2 2855   1.141   3.433   5.749
   23CHL1   H2A 2856   1.229   3.435   5.817
   23CHL1   H2B 2857   1.133   3.330   5.709
   23CHL1   C20 2858   1.216   3.949   4.976
   23CHL1   H20 2859   1.249   3.855   4.926
   23CHL1   C21 2860   1.338   4.018   5.019
   23CHL1  H21A 2861   1.327   4.128   5.033
   23CHL1  H21B 2862   1.420   4.014   4.944
   23CHL1  H21C 2863   1.387   3.956   5.097
   23CHL1   C22 2864   1.147   4.019   4.851
   23CHL1  H22A 2865   1.058   3.962   4.819
   23CHL1  H22B 2866   1.112   4.120   4.880
   23CHL1   C23 2867   1.250   4.044   4.736
   23CHL1  H23A 2868   1.313   4.129   4.768
   23CHL1  H23B 2869   1.309   3.952   4.716
   23CHL1   C24 2870   1.188   4.083   4.605
   23CHL1  H24A 2871   1.128   3.995   4.573
   23CHL1  H24B 2872   1.140   4.182   4.619
   23CHL1   C25 2873   1.299   4.109   4.500
   23CHL1   H25 2874   1.389   4.145   4.553
   23CHL1   C26 2875   1.343   3.981   4.427
   23CHL1  H26A 2876   1.397   3.995   4.332
   23CHL1  H26B 2877   1.401   3.906   4.485
   23CHL1  H26C 2878   1.252   3.927   4.394
   23CHL1   C27 2879   1.248   4.224   4.402
   23CHL1  H27A 2880   1.309   4.247   4.312
   23CHL1  H27B 2881   1.154   4.189   4.355
   23CHL1  H27C 2882   1.227   4.323   4.448
   24CHL1    C3 2883   3.400   4.924   6.285
   24CHL1    H3 2884   3.394   5.024   6.237
   24CHL1    O3 2885   3.407   4.941   6.428
   24CHL1   H3' 2886   3.399   4.852   6.462
   24CHL1    C4 2887   3.275   4.840   6.254
   24CHL1   H4A 2888   3.274   4.743   6.308
   24CHL1   H4B 2889   3.185   4.894   6.291
   24CHL1    C5 2890   3.261   4.803   6.110
   24CHL1    C6 2891   3.146   4.817   6.048
   24CHL1    H6 2892   3.059   4.856   6.103
   24CHL1    C7 2893   3.119   4.775   5.910
   24CHL1   H7A 2894   3.022   4.721   5.904
   24CHL1   H7B 2895   3.116   4.870   5.853
   24CHL1    C8 2896   3.228   4.697   5.840
   24CHL1    H8 2897   3.209   4.588   5.851
   24CHL1   C14 2898   3.223   4.721   5.684
   24CHL1   H14 2899   3.241   4.830   5.677
   24CHL1   C15 2900   3.086   4.689   5.614
   24CHL1  H15A 2901   3.043   4.593   5.651
   24CHL1  H15B 2902   3.013   4.769   5.635
   24CHL1   C16 2903   3.127   4.682   5.468
   24CHL1  H16A 2904   3.082   4.593   5.420
   24CHL1  H16B 2905   3.093   4.769   5.409
   24CHL1   C17 2906   3.283   4.677   5.465
   24CHL1   H17 2907   3.325   4.778   5.443
   24CHL1   C13 2908   3.330   4.644   5.605
   24CHL1   C18 2909   3.308   4.489   5.630
   24CHL1  H18A 2910   3.380   4.443   5.558
   24CHL1  H18B 2911   3.329   4.451   5.732
   24CHL1  H18C 2912   3.212   4.458   5.584
   24CHL1   C12 2913   3.470   4.693   5.656
   24CHL1  H12A 2914   3.546   4.622   5.617
   24CHL1  H12B 2915   3.486   4.796   5.618
   24CHL1   C11 2916   3.489   4.686   5.814
   24CHL1  H11A 2917   3.482   4.577   5.832
   24CHL1  H11B 2918   3.591   4.705   5.853
   24CHL1    C9 2919   3.367   4.743   5.891
   24CHL1    H9 2920   3.358   4.850   5.864
   24CHL1   C10 2921   3.389   4.748   6.045
   24CHL1   C19 2922   3.397   4.610   6.098
   24CHL1  H19A 2923   3.403   4.620   6.209
   24CHL1  H19B 2924   3.309   4.548   6.070
   24CHL1  H19C 2925   3.485   4.550   6.067
   24CHL1    C1 2926   3.517   4.833   6.089
   24CHL1   H1A 2927   3.604   4.779   6.047
   24CHL1   H1B 2928   3.507   4.931   6.038
   24CHL1    C2 2929   3.529   4.856   6.242
   24CHL1   H2A 2930   3.618   4.915   6.271
   24CHL1   H2B 2931   3.532   4.754   6.286
   24CHL1   C20 2932   3.334   4.595   5.344
   24CHL1   H20 2933   3.332   4.488   5.373
   24CHL1   C21 2934   3.484   4.633   5.323
   24CHL1  H21A 2935   3.486   4.730   5.268
   24CHL1  H21B 2936   3.534   4.549   5.271
   24CHL1  H21C 2937   3.530   4.629   5.424
   24CHL1   C22 2938   3.250   4.632   5.223
   24CHL1  H22A 2939   3.158   4.571   5.227
   24CHL1  H22B 2940   3.223   4.739   5.212
   24CHL1   C23 2941   3.309   4.585   5.090
   24CHL1  H23A 2942   3.407   4.628   5.059
   24CHL1  H23B 2943   3.318   4.476   5.107
   24CHL1   C24 2944   3.210   4.608   4.978
   24CHL1  H24A 2945   3.110   4.577   5.015
   24CHL1  H24B 2946   3.200   4.715   4.951
   24CHL1   C25 2947   3.244   4.522   4.849
   24CHL1   H25 2948   3.245   4.414   4.877
   24CHL1   C26 2949   3.121   4.517   4.753
   24CHL1  H26A 2950   3.161   4.494   4.652
   24CHL1  H26B 2951   3.046   4.442   4.787
   24CHL1  H26C 2952   3.068   4.614   4.742
   24CHL1   C27 2953   3.375   4.570   4.777
   24CHL1  H27A 2954   3.354   4.653   4.707
   24CHL1  H27B 2955   3.455   4.596   4.850
   24CHL1  H27C 2956   3.413   4.484   4.717
   25CHL1    C3 2957   6.416   5.934   5.839
   25CHL1    H3 2958   6.458   6.036   5.825
   25CHL1    O3 2959   6.410   5.904   5.976
   25CHL1   H3' 2960   6.366   5.819   5.983
   25CHL1    C4 2961   6.278   5.929   5.772
   25CHL1   H4A 2962   6.213   5.840   5.790
   25CHL1   H4B 2963   6.229   6.017   5.820
   25CHL1    C5 2964   6.293   5.948   5.626
   25CHL1    C6 2965   6.231   6.046   5.556
   25CHL1    H6 2966   6.172   6.119   5.613
   25CHL1    C7 2967   6.231   6.075   5.409
   25CHL1   H7A 2968   6.129   6.108   5.381
   25CHL1   H7B 2969   6.299   6.162   5.393
   25CHL1    C8 2970   6.285   5.957   5.333
   25CHL1    H8 2971   6.213   5.873   5.339
   25CHL1   C14 2972   6.328   5.989   5.194
   25CHL1   H14 2973   6.415   6.058   5.202
   25CHL1   C15 2974   6.239   6.069   5.103
   25CHL1  H15A 2975   6.131   6.044   5.112
   25CHL1  H15B 2976   6.248   6.179   5.117
   25CHL1   C16 2977   6.263   6.025   4.960
   25CHL1  H16A 2978   6.176   5.966   4.924
   25CHL1  H16B 2979   6.272   6.120   4.902
   25CHL1   C17 2980   6.387   5.935   4.970
   25CHL1   H17 2981   6.480   5.995   4.969
   25CHL1   C13 2982   6.381   5.871   5.109
   25CHL1   C18 2983   6.282   5.755   5.097
   25CHL1  H18A 2984   6.331   5.664   5.055
   25CHL1  H18B 2985   6.253   5.716   5.197
   25CHL1  H18C 2986   6.187   5.781   5.045
   25CHL1   C12 2987   6.515   5.832   5.173
   25CHL1  H12A 2988   6.581   5.761   5.121
   25CHL1  H12B 2989   6.570   5.927   5.153
   25CHL1   C11 2990   6.493   5.795   5.318
   25CHL1  H11A 2991   6.441   5.697   5.321
   25CHL1  H11B 2992   6.589   5.780   5.373
   25CHL1    C9 2993   6.411   5.900   5.399
   25CHL1    H9 2994   6.479   5.988   5.404
   25CHL1   C10 2995   6.387   5.853   5.545
   25CHL1   C19 2996   6.324   5.708   5.546
   25CHL1  H19A 2997   6.236   5.701   5.478
   25CHL1  H19B 2998   6.386   5.626   5.506
   25CHL1  H19C 2999   6.286   5.681   5.647
   25CHL1    C1 3000   6.519   5.835   5.624
   25CHL1   H1A 3001   6.578   5.746   5.592
   25CHL1   H1B 3002   6.580   5.926   5.604
   25CHL1    C2 3003   6.507   5.822   5.779
   25CHL1   H2A 3004   6.612   5.831   5.814
   25CHL1   H2B 3005   6.459   5.726   5.810
   25CHL1   C20 3006   6.402   5.841   4.845
   25CHL1   H20 3007   6.307   5.783   4.837
   25CHL1   C21 3008   6.529   5.748   4.842
   25CHL1  H21A 3009   6.615   5.819   4.848
   25CHL1  H21B 3010   6.542   5.693   4.747
   25CHL1  H21C 3011   6.544   5.682   4.930
   25CHL1   C22 3012   6.396   5.917   4.712
   25CHL1  H22A 3013   6.413   5.856   4.621
   25CHL1  H22B 3014   6.289   5.946   4.701
   25CHL1   C23 3015   6.494   6.031   4.706
   25CHL1  H23A 3016   6.453   6.121   4.757
   25CHL1  H23B 3017   6.595   6.002   4.744
   25CHL1   C24 3018   6.513   6.085   4.560
   25CHL1  H24A 3019   6.413   6.117   4.524
   25CHL1  H24B 3020   6.570   6.179   4.572
   25CHL1   C25 3021   6.589   5.992   4.460
   25CHL1   H25 3022   6.550   5.888   4.453
   25CHL1   C26 3023   6.562   6.049   4.315
   25CHL1  H26A 3024   6.610   5.978   4.245
   25CHL1  H26B 3025   6.452   6.052   4.298
   25CHL1  H26C 3026   6.599   6.153   4.302
   25CHL1   C27 3027   6.735   5.982   4.492
   25CHL1  H27A 3028   6.751   5.959   4.599
   25CHL1  H27B 3029   6.792   5.911   4.429
   25CHL1  H27C 3030   6.775   6.085   4.479
   26CHL1    C3 3031   4.032   3.224   5.978
   26CHL1    H3 3032   4.094   3.133   5.960
   26CHL1    O3 3033   4.058   3.262   6.112
   26CHL1   H3' 3034   4.146   3.298   6.121
   26CHL1    C4 3035   4.059   3.338   5.882
   26CHL1   H4A 3036   3.997   3.429   5.897
   26CHL1   H4B 3037   4.165   3.365   5.898
   26CHL1    C5 3038   4.035   3.299   5.739
   26CHL1    C6 3039   4.131   3.306   5.649
   26CHL1    H6 3040   4.230   3.346   5.673
   26CHL1    C7 3041   4.122   3.272   5.500
   26CHL1   H7A 3042   4.158   3.360   5.444
   26CHL1   H7B 3043   4.189   3.186   5.478
   26CHL1    C8 3044   3.975   3.241   5.459
   26CHL1    H8 3045   3.930   3.341   5.440
   26CHL1   C14 3046   3.971   3.161   5.331
   26CHL1   H14 3047   4.020   3.070   5.371
   26CHL1   C15 3048   4.063   3.209   5.217
   26CHL1  H15A 3049   4.043   3.319   5.219
   26CHL1  H15B 3050   4.169   3.183   5.235
   26CHL1   C16 3051   4.007   3.137   5.091
   26CHL1  H16A 3052   3.963   3.205   5.016
   26CHL1  H16B 3053   4.081   3.067   5.047
   26CHL1   C17 3054   3.887   3.056   5.139
   26CHL1   H17 3055   3.924   2.956   5.170
   26CHL1   C13 3056   3.839   3.127   5.271
   26CHL1   C18 3057   3.752   3.257   5.237
   26CHL1  H18A 3058   3.732   3.317   5.329
   26CHL1  H18B 3059   3.798   3.310   5.151
   26CHL1  H18C 3060   3.655   3.221   5.199
   26CHL1   C12 3061   3.756   3.051   5.369
   26CHL1  H12A 3062   3.652   3.049   5.328
   26CHL1  H12B 3063   3.794   2.947   5.378
   26CHL1   C11 3064   3.755   3.116   5.514
   26CHL1  H11A 3065   3.691   3.207   5.505
   26CHL1  H11B 3066   3.703   3.043   5.579
   26CHL1    C9 3067   3.898   3.167   5.569
   26CHL1    H9 3068   3.963   3.080   5.593
   26CHL1   C10 3069   3.894   3.243   5.701
   26CHL1   C19 3070   3.795   3.359   5.703
   26CHL1  H19A 3071   3.830   3.439   5.635
   26CHL1  H19B 3072   3.693   3.325   5.675
   26CHL1  H19C 3073   3.785   3.412   5.800
   26CHL1    C1 3074   3.852   3.145   5.817
   26CHL1   H1A 3075   3.741   3.144   5.817
   26CHL1   H1B 3076   3.910   3.054   5.794
   26CHL1    C2 3077   3.885   3.192   5.962
   26CHL1   H2A 3078   3.855   3.106   6.027
   26CHL1   H2B 3079   3.837   3.286   5.996
   26CHL1   C20 3080   3.780   3.032   5.026
   26CHL1   H20 3081   3.721   3.123   5.004
   26CHL1   C21 3082   3.694   2.912   5.071
   26CHL1  H21A 3083   3.629   2.939   5.157
   26CHL1  H21B 3084   3.759   2.832   5.115
   26CHL1  H21C 3085   3.633   2.876   4.986
   26CHL1   C22 3086   3.840   2.997   4.891
   26CHL1  H22A 3087   3.937   3.046   4.868
   26CHL1  H22B 3088   3.865   2.889   4.889
   26CHL1   C23 3089   3.740   3.014   4.772
   26CHL1  H23A 3090   3.636   3.015   4.810
   26CHL1  H23B 3091   3.772   3.109   4.724
   26CHL1   C24 3092   3.752   2.889   4.673
   26CHL1  H24A 3093   3.853   2.892   4.627
   26CHL1  H24B 3094   3.752   2.792   4.727
   26CHL1   C25 3095   3.653   2.877   4.559
   26CHL1   H25 3096   3.659   2.978   4.513
   26CHL1   C26 3097   3.692   2.774   4.446
   26CHL1  H26A 3098   3.633   2.788   4.354
   26CHL1  H26B 3099   3.800   2.771   4.421
   26CHL1  H26C 3100   3.657   2.681   4.495
   26CHL1   C27 3101   3.513   2.857   4.605
   26CHL1  H27A 3102   3.472   2.929   4.679
   26CHL1  H27B 3103   3.443   2.884   4.523
   26CHL1  H27C 3104   3.502   2.753   4.644
   27CHL1    C3 3105   0.291   2.605   5.889
   27CHL1    H3 3106   0.261   2.704   5.851
   27CHL1    O3 3107   0.253   2.580   6.021
   27CHL1   H3' 3108   0.309   2.642   6.068
   27CHL1    C4 3109   0.220   2.490   5.812
   27CHL1   H4A 3110   0.269   2.392   5.830
   27CHL1   H4B 3111   0.111   2.481   5.830
   27CHL1    C5 3112   0.260   2.511   5.664
   27CHL1    C6 3113   0.170   2.536   5.566
   27CHL1    H6 3114   0.065   2.549   5.596
   27CHL1    C7 3115   0.187   2.551   5.418
   27CHL1   H7A 3116   0.114   2.490   5.360
   27CHL1   H7B 3117   0.167   2.659   5.400
   27CHL1    C8 3118   0.324   2.518   5.376
   27CHL1    H8 3119   0.340   2.410   5.357
   27CHL1   C14 3120   0.359   2.603   5.253
   27CHL1   H14 3121   0.359   2.713   5.268
   27CHL1   C15 3122   0.258   2.598   5.131
   27CHL1  H15A 3123   0.218   2.496   5.115
   27CHL1  H15B 3124   0.184   2.675   5.163
   27CHL1   C16 3125   0.352   2.639   5.016
   27CHL1  H16A 3126   0.355   2.563   4.936
   27CHL1  H16B 3127   0.312   2.732   4.970
   27CHL1   C17 3128   0.497   2.662   5.063
   27CHL1   H17 3129   0.521   2.763   5.104
   27CHL1   C13 3130   0.499   2.573   5.199
   27CHL1   C18 3131   0.502   2.419   5.166
   27CHL1  H18A 3132   0.406   2.384   5.121
   27CHL1  H18B 3133   0.576   2.402   5.085
   27CHL1  H18C 3134   0.530   2.351   5.249
   27CHL1   C12 3135   0.603   2.612   5.296
   27CHL1  H12A 3136   0.700   2.577   5.254
   27CHL1  H12B 3137   0.609   2.721   5.314
   27CHL1   C11 3138   0.581   2.536   5.432
   27CHL1  H11A 3139   0.618   2.432   5.420
   27CHL1  H11B 3140   0.654   2.574   5.506
   27CHL1    C9 3141   0.433   2.562   5.482
   27CHL1    H9 3142   0.426   2.673   5.481
   27CHL1   C10 3143   0.413   2.513   5.632
   27CHL1   C19 3144   0.466   2.374   5.636
   27CHL1  H19A 3145   0.575   2.381   5.615
   27CHL1  H19B 3146   0.446   2.326   5.734
   27CHL1  H19C 3147   0.423   2.306   5.560
   27CHL1    C1 3148   0.490   2.604   5.732
   27CHL1   H1A 3149   0.598   2.587   5.712
   27CHL1   H1B 3150   0.472   2.707   5.695
   27CHL1    C2 3151   0.447   2.594   5.876
   27CHL1   H2A 3152   0.496   2.660   5.951
   27CHL1   H2B 3153   0.476   2.491   5.906
   27CHL1   C20 3154   0.601   2.644   4.946
   27CHL1   H20 3155   0.592   2.546   4.896
   27CHL1   C21 3156   0.751   2.651   4.994
   27CHL1  H21A 3157   0.769   2.545   5.019
   27CHL1  H21B 3158   0.766   2.716   5.082
   27CHL1  H21C 3159   0.828   2.675   4.918
   27CHL1   C22 3160   0.587   2.757   4.833
   27CHL1  H22A 3161   0.670   2.720   4.769
   27CHL1  H22B 3162   0.489   2.741   4.785
   27CHL1   C23 3163   0.615   2.909   4.872
   27CHL1  H23A 3164   0.551   2.921   4.962
   27CHL1  H23B 3165   0.722   2.920   4.900
   27CHL1   C24 3166   0.564   3.017   4.770
   27CHL1  H24A 3167   0.462   2.997   4.729
   27CHL1  H24B 3168   0.553   3.109   4.831
   27CHL1   C25 3169   0.660   3.049   4.653
   27CHL1   H25 3170   0.759   3.071   4.699
   27CHL1   C26 3171   0.687   2.933   4.556
   27CHL1  H26A 3172   0.753   2.970   4.474
   27CHL1  H26B 3173   0.728   2.842   4.604
   27CHL1  H26C 3174   0.589   2.906   4.512
   27CHL1   C27 3175   0.594   3.167   4.575
   27CHL1  H27A 3176   0.578   3.246   4.652
   27CHL1  H27B 3177   0.499   3.123   4.539
   27CHL1  H27C 3178   0.649   3.201   4.485
   28CHL1    C3 3179   4.936   2.106   5.880
   28CHL1    H3 3180   4.970   2.198   5.829
   28CHL1    O3 3181   4.875   2.135   6.007
   28CHL1   H3' 3182   4.939   2.122   6.078
   28CHL1    C4 3183   4.829   2.061   5.774
   28CHL1   H4A 3184   4.790   1.962   5.807
   28CHL1   H4B 3185   4.758   2.146   5.769
   28CHL1    C5 3186   4.891   2.042   5.637
   28CHL1    C6 3187   4.846   2.102   5.527
   28CHL1    H6 3188   4.765   2.177   5.532
   28CHL1    C7 3189   4.913   2.081   5.393
   28CHL1   H7A 3190   4.845   2.080   5.305
   28CHL1   H7B 3191   4.983   2.164   5.368
   28CHL1    C8 3192   5.001   1.949   5.392
   28CHL1    H8 3193   4.937   1.860   5.377
   28CHL1   C14 3194   5.092   1.954   5.268
   28CHL1   H14 3195   5.158   2.041   5.287
   28CHL1   C15 3196   5.026   1.981   5.129
   28CHL1  H15A 3197   4.947   1.903   5.112
   28CHL1  H15B 3198   4.986   2.084   5.137
   28CHL1   C16 3199   5.133   1.948   5.029
   28CHL1  H16A 3200   5.093   1.877   4.953
   28CHL1  H16B 3201   5.162   2.042   4.977
   28CHL1   C17 3202   5.254   1.882   5.110
   28CHL1   H17 3203   5.319   1.968   5.136
   28CHL1   C13 3204   5.199   1.838   5.246
   28CHL1   C18 3205   5.122   1.703   5.223
   28CHL1  H18A 3206   5.186   1.620   5.188
   28CHL1  H18B 3207   5.074   1.665   5.316
   28CHL1  H18C 3208   5.038   1.704   5.150
   28CHL1   C12 3209   5.292   1.837   5.367
   28CHL1  H12A 3210   5.359   1.749   5.364
   28CHL1  H12B 3211   5.357   1.928   5.370
   28CHL1   C11 3212   5.208   1.834   5.500
   28CHL1  H11A 3213   5.157   1.735   5.499
   28CHL1  H11B 3214   5.281   1.849   5.582
   28CHL1    C9 3215   5.093   1.938   5.509
   28CHL1    H9 3216   5.151   2.032   5.516
   28CHL1   C10 3217   5.004   1.939   5.640
   28CHL1   C19 3218   4.927   1.805   5.644
   28CHL1  H19A 3219   4.870   1.791   5.738
   28CHL1  H19B 3220   4.850   1.804   5.564
   28CHL1  H19C 3221   5.010   1.731   5.634
   28CHL1    C1 3222   5.096   1.952   5.770
   28CHL1   H1A 3223   5.153   1.858   5.786
   28CHL1   H1B 3224   5.164   2.036   5.749
   28CHL1    C2 3225   5.027   1.993   5.904
   28CHL1   H2A 3226   5.107   2.021   5.975
   28CHL1   H2B 3227   4.978   1.900   5.940
   28CHL1   C20 3228   5.344   1.790   5.029
   28CHL1   H20 3229   5.271   1.714   4.993
   28CHL1   C21 3230   5.450   1.719   5.112
   28CHL1  H21A 3231   5.498   1.643   5.047
   28CHL1  H21B 3232   5.413   1.656   5.195
   28CHL1  H21C 3233   5.529   1.785   5.155
   28CHL1   C22 3234   5.409   1.860   4.904
   28CHL1  H22A 3235   5.323   1.909   4.854
   28CHL1  H22B 3236   5.474   1.943   4.940
   28CHL1   C23 3237   5.479   1.770   4.800
   28CHL1  H23A 3238   5.558   1.709   4.850
   28CHL1  H23B 3239   5.402   1.698   4.765
   28CHL1   C24 3240   5.540   1.845   4.685
   28CHL1  H24A 3241   5.581   1.768   4.617
   28CHL1  H24B 3242   5.472   1.898   4.615
   28CHL1   C25 3243   5.654   1.940   4.719
   28CHL1   H25 3244   5.695   1.920   4.820
   28CHL1   C26 3245   5.771   1.921   4.619
   28CHL1  H26A 3246   5.797   1.816   4.595
   28CHL1  H26B 3247   5.749   1.972   4.523
   28CHL1  H26C 3248   5.862   1.972   4.657
   28CHL1   C27 3249   5.607   2.084   4.698
   28CHL1  H27A 3250   5.563   2.098   4.597
   28CHL1  H27B 3251   5.528   2.108   4.772
   28CHL1  H27C 3252   5.681   2.165   4.718
   29CHL1    C3 3253   2.802   3.700   6.582
   29CHL1    H3 3254   2.878   3.631   6.540
   29CHL1    O3 3255   2.790   3.703   6.724
   29CHL1   H3' 3256   2.760   3.790   6.751
   29CHL1    C4 3257   2.841   3.845   6.532
   29CHL1   H4A 3258   2.785   3.922   6.589
   29CHL1   H4B 3259   2.948   3.852   6.563
   29CHL1    C5 3260   2.824   3.861   6.380
   29CHL1    C6 3261   2.921   3.906   6.304
   29CHL1    H6 3262   3.010   3.949   6.353
   29CHL1    C7 3263   2.925   3.907   6.157
   29CHL1   H7A 3264   2.946   4.009   6.120
   29CHL1   H7B 3265   3.016   3.850   6.130
   29CHL1    C8 3266   2.795   3.863   6.090
   29CHL1    H8 3267   2.725   3.949   6.086
   29CHL1   C14 3268   2.823   3.807   5.949
   29CHL1   H14 3269   2.884   3.715   5.964
   29CHL1   C15 3270   2.908   3.898   5.856
   29CHL1  H15A 3271   2.887   4.006   5.864
   29CHL1  H15B 3272   3.016   3.877   5.873
   29CHL1   C16 3273   2.868   3.854   5.712
   29CHL1  H16A 3274   2.822   3.938   5.654
   29CHL1  H16B 3275   2.948   3.818   5.643
   29CHL1   C17 3276   2.755   3.750   5.726
   29CHL1   H17 3277   2.803   3.650   5.733
   29CHL1   C13 3278   2.693   3.776   5.871
   29CHL1   C18 3279   2.613   3.902   5.850
   29CHL1  H18A 3280   2.578   3.944   5.947
   29CHL1  H18B 3281   2.656   3.992   5.801
   29CHL1  H18C 3282   2.519   3.877   5.796
   29CHL1   C12 3283   2.608   3.668   5.944
   29CHL1  H12A 3284   2.504   3.652   5.908
   29CHL1  H12B 3285   2.666   3.573   5.944
   29CHL1   C11 3286   2.589   3.711   6.090
   29CHL1  H11A 3287   2.518   3.797   6.090
   29CHL1  H11B 3288   2.543   3.624   6.141
   29CHL1    C9 3289   2.714   3.759   6.171
   29CHL1    H9 3290   2.777   3.668   6.173
   29CHL1   C10 3291   2.695   3.798   6.317
   29CHL1   C19 3292   2.581   3.900   6.324
   29CHL1  H19A 3293   2.551   3.928   6.428
   29CHL1  H19B 3294   2.598   3.994   6.268
   29CHL1  H19C 3295   2.486   3.859   6.283
   29CHL1    C1 3296   2.658   3.669   6.392
   29CHL1   H1A 3297   2.551   3.647   6.372
   29CHL1   H1B 3298   2.726   3.588   6.358
   29CHL1    C2 3299   2.661   3.674   6.543
   29CHL1   H2A 3300   2.621   3.584   6.594
   29CHL1   H2B 3301   2.594   3.759   6.568
   29CHL1   C20 3302   2.655   3.742   5.603
   29CHL1   H20 3303   2.589   3.832   5.608
   29CHL1   C21 3304   2.550   3.624   5.614
   29CHL1  H21A 3305   2.469   3.649   5.542
   29CHL1  H21B 3306   2.512   3.613   5.718
   29CHL1  H21C 3307   2.595   3.530   5.576
   29CHL1   C22 3308   2.724   3.734   5.470
   29CHL1  H22A 3309   2.799   3.815   5.457
   29CHL1  H22B 3310   2.786   3.643   5.460
   29CHL1   C23 3311   2.629   3.741   5.360
   29CHL1  H23A 3312   2.556   3.657   5.355
   29CHL1  H23B 3313   2.579   3.840   5.365
   29CHL1   C24 3314   2.705   3.735   5.219
   29CHL1  H24A 3315   2.784   3.812   5.233
   29CHL1  H24B 3316   2.760   3.639   5.215
   29CHL1   C25 3317   2.621   3.766   5.093
   29CHL1   H25 3318   2.561   3.859   5.104
   29CHL1   C26 3319   2.709   3.750   4.975
   29CHL1  H26A 3320   2.762   3.653   4.966
   29CHL1  H26B 3321   2.641   3.760   4.888
   29CHL1  H26C 3322   2.786   3.830   4.962
   29CHL1   C27 3323   2.505   3.662   5.094
   29CHL1  H27A 3324   2.441   3.680   5.183
   29CHL1  H27B 3325   2.445   3.676   5.001
   29CHL1  H27C 3326   2.555   3.563   5.099
   30CHL1    C3 3327   3.248   3.716   6.491
   30CHL1    H3 3328   3.177   3.797   6.463
   30CHL1    O3 3329   3.299   3.737   6.619
   30CHL1   H3' 3330   3.234   3.705   6.682
   30CHL1    C4 3331   3.176   3.584   6.472
   30CHL1   H4A 3332   3.242   3.507   6.517
   30CHL1   H4B 3333   3.083   3.570   6.531
   30CHL1    C5 3334   3.136   3.546   6.327
   30CHL1    C6 3335   3.011   3.501   6.294
   30CHL1    H6 3336   2.929   3.498   6.367
   30CHL1    C7 3337   2.980   3.464   6.151
   30CHL1   H7A 3338   2.925   3.367   6.156
   30CHL1   H7B 3339   2.920   3.543   6.101
   30CHL1    C8 3340   3.101   3.444   6.057
   30CHL1    H8 3341   3.147   3.347   6.088
   30CHL1   C14 3342   3.056   3.444   5.909
   30CHL1   H14 3343   2.999   3.539   5.901
   30CHL1   C15 3344   2.951   3.340   5.870
   30CHL1  H15A 3345   2.991   3.239   5.894
   30CHL1  H15B 3346   2.865   3.342   5.940
   30CHL1   C16 3347   2.932   3.355   5.720
   30CHL1  H16A 3348   2.941   3.253   5.679
   30CHL1  H16B 3349   2.840   3.408   5.686
   30CHL1   C17 3350   3.058   3.432   5.672
   30CHL1   H17 3351   3.027   3.533   5.640
   30CHL1   C13 3352   3.153   3.449   5.796
   30CHL1   C18 3353   3.257   3.336   5.809
   30CHL1  H18A 3354   3.303   3.334   5.911
   30CHL1  H18B 3355   3.211   3.236   5.794
   30CHL1  H18C 3356   3.341   3.357   5.739
   30CHL1   C12 3357   3.224   3.585   5.812
   30CHL1  H12A 3358   3.289   3.598   5.722
   30CHL1  H12B 3359   3.142   3.659   5.813
   30CHL1   C11 3360   3.289   3.602   5.957
   30CHL1  H11A 3361   3.373   3.530   5.952
   30CHL1  H11B 3362   3.321   3.706   5.976
   30CHL1    C9 3363   3.194   3.560   6.076
   30CHL1    H9 3364   3.121   3.644   6.070
   30CHL1   C10 3365   3.250   3.563   6.219
   30CHL1   C19 3366   3.348   3.443   6.230
   30CHL1  H19A 3367   3.363   3.422   6.338
   30CHL1  H19B 3368   3.315   3.350   6.178
   30CHL1  H19C 3369   3.443   3.471   6.178
   30CHL1    C1 3370   3.320   3.698   6.255
   30CHL1   H1A 3371   3.407   3.695   6.186
   30CHL1   H1B 3372   3.259   3.788   6.230
   30CHL1    C2 3373   3.367   3.724   6.393
   30CHL1   H2A 3374   3.423   3.820   6.404
   30CHL1   H2B 3375   3.443   3.649   6.424
   30CHL1   C20 3376   3.123   3.368   5.551
   30CHL1   H20 3377   3.160   3.265   5.574
   30CHL1   C21 3378   3.234   3.451   5.485
   30CHL1  H21A 3379   3.257   3.419   5.382
   30CHL1  H21B 3380   3.325   3.428   5.544
   30CHL1  H21C 3381   3.214   3.560   5.485
   30CHL1   C22 3382   3.012   3.357   5.432
   30CHL1  H22A 3383   2.915   3.320   5.470
   30CHL1  H22B 3384   2.989   3.463   5.407
   30CHL1   C23 3385   3.053   3.263   5.322
   30CHL1  H23A 3386   3.146   3.302   5.274
   30CHL1  H23B 3387   3.062   3.166   5.375
   30CHL1   C24 3388   2.942   3.247   5.220
   30CHL1  H24A 3389   2.968   3.174   5.140
   30CHL1  H24B 3390   2.867   3.192   5.281
   30CHL1   C25 3391   2.886   3.365   5.140
   30CHL1   H25 3392   2.866   3.451   5.207
   30CHL1   C26 3393   2.978   3.420   5.026
   30CHL1  H26A 3394   3.025   3.339   4.966
   30CHL1  H26B 3395   2.915   3.480   4.957
   30CHL1  H26C 3396   3.050   3.496   5.064
   30CHL1   C27 3397   2.747   3.351   5.071
   30CHL1  H27A 3398   2.714   3.438   5.010
   30CHL1  H27B 3399   2.757   3.263   5.005
   30CHL1  H27C 3400   2.671   3.343   5.152
   31CHL1    C3 3401   2.059   4.024   6.219
   31CHL1    H3 3402   1.971   3.958   6.199
   31CHL1    O3 3403   2.077   4.024   6.361
   31CHL1   H3' 3404   2.137   3.949   6.373
   31CHL1    C4 3405   2.180   3.955   6.164
   31CHL1   H4A 3406   2.280   3.992   6.197
   31CHL1   H4B 3407   2.166   3.853   6.206
   31CHL1    C5 3408   2.165   3.946   6.014
   31CHL1    C6 3409   2.157   3.831   5.944
   31CHL1    H6 3410   2.154   3.735   5.999
   31CHL1    C7 3411   2.154   3.838   5.795
   31CHL1   H7A 3412   2.226   3.764   5.753
   31CHL1   H7B 3413   2.052   3.823   5.755
   31CHL1    C8 3414   2.210   3.975   5.731
   31CHL1    H8 3415   2.319   3.982   5.751
   31CHL1   C14 3416   2.174   3.981   5.584
   31CHL1   H14 3417   2.063   3.985   5.581
   31CHL1   C15 3418   2.211   3.863   5.498
   31CHL1  H15A 3419   2.317   3.833   5.517
   31CHL1  H15B 3420   2.143   3.780   5.526
   31CHL1   C16 3421   2.201   3.912   5.353
   31CHL1  H16A 3422   2.284   3.885   5.285
   31CHL1  H16B 3423   2.113   3.874   5.296
   31CHL1   C17 3424   2.183   4.066   5.361
   31CHL1   H17 3425   2.075   4.089   5.362
   31CHL1   C13 3426   2.227   4.102   5.509
   31CHL1   C18 3427   2.381   4.118   5.516
   31CHL1  H18A 3428   2.427   4.138   5.614
   31CHL1  H18B 3429   2.429   4.034   5.460
   31CHL1  H18C 3430   2.413   4.214   5.471
   31CHL1   C12 3431   2.161   4.226   5.576
   31CHL1  H12A 3432   2.172   4.319   5.517
   31CHL1  H12B 3433   2.054   4.197   5.578
   31CHL1   C11 3434   2.187   4.231   5.728
   31CHL1  H11A 3435   2.289   4.267   5.751
   31CHL1  H11B 3436   2.111   4.302   5.766
   31CHL1    C9 3437   2.147   4.093   5.804
   31CHL1    H9 3438   2.037   4.082   5.790
   31CHL1   C10 3439   2.174   4.089   5.956
   31CHL1   C19 3440   2.315   4.152   5.976
   31CHL1  H19A 3441   2.382   4.105   5.901
   31CHL1  H19B 3442   2.301   4.260   5.953
   31CHL1  H19C 3443   2.359   4.154   6.078
   31CHL1    C1 3444   2.065   4.169   6.022
   31CHL1   H1A 3445   2.075   4.275   5.990
   31CHL1   H1B 3446   1.968   4.131   5.982
   31CHL1    C2 3447   2.052   4.167   6.174
   31CHL1   H2A 3448   1.954   4.211   6.203
   31CHL1   H2B 3449   2.136   4.220   6.223
   31CHL1   C20 3450   2.247   4.137   5.243
   31CHL1   H20 3451   2.354   4.107   5.252
   31CHL1   C21 3452   2.242   4.290   5.254
   31CHL1  H21A 3453   2.280   4.343   5.163
   31CHL1  H21B 3454   2.300   4.328   5.341
   31CHL1  H21C 3455   2.136   4.322   5.262
   31CHL1   C22 3456   2.196   4.096   5.104
   31CHL1  H22A 3457   2.191   3.986   5.091
   31CHL1  H22B 3458   2.093   4.139   5.096
   31CHL1   C23 3459   2.283   4.125   4.980
   31CHL1  H23A 3460   2.309   4.231   4.962
   31CHL1  H23B 3461   2.371   4.057   4.988
   31CHL1   C24 3462   2.216   4.064   4.853
   31CHL1  H24A 3463   2.184   3.959   4.868
   31CHL1  H24B 3464   2.120   4.105   4.816
   31CHL1   C25 3465   2.314   4.061   4.733
   31CHL1   H25 3466   2.398   3.998   4.767
   31CHL1   C26 3467   2.255   3.984   4.618
   31CHL1  H26A 3468   2.254   3.877   4.650
   31CHL1  H26B 3469   2.150   4.014   4.598
   31CHL1  H26C 3470   2.318   3.994   4.528
   31CHL1   C27 3471   2.344   4.196   4.670
   31CHL1  H27A 3472   2.257   4.239   4.615
   31CHL1  H27B 3473   2.378   4.268   4.748
   31CHL1  H27C 3474   2.427   4.180   4.597
   32CHL1    C3 3475   2.186   2.318   6.038
   32CHL1    H3 3476   2.286   2.273   6.023
   32CHL1    O3 3477   2.160   2.296   6.176
   32CHL1   H3' 3478   2.078   2.341   6.196
   32CHL1    C4 3479   2.182   2.477   6.014
   32CHL1   H4A 3480   2.081   2.514   6.041
   32CHL1   H4B 3481   2.262   2.514   6.082
   32CHL1    C5 3482   2.210   2.510   5.865
   32CHL1    C6 3483   2.314   2.590   5.830
   32CHL1    H6 3484   2.367   2.655   5.901
   32CHL1    C7 3485   2.339   2.621   5.682
   32CHL1   H7A 3486   2.334   2.731   5.674
   32CHL1   H7B 3487   2.437   2.584   5.646
   32CHL1    C8 3488   2.219   2.585   5.584
   32CHL1    H8 3489   2.128   2.646   5.602
   32CHL1   C14 3490   2.272   2.612   5.440
   32CHL1   H14 3491   2.361   2.546   5.431
   32CHL1   C15 3492   2.327   2.749   5.395
   32CHL1  H15A 3493   2.265   2.834   5.431
   32CHL1  H15B 3494   2.433   2.763   5.423
   32CHL1   C16 3495   2.327   2.749   5.241
   32CHL1  H16A 3496   2.259   2.829   5.203
   32CHL1  H16B 3497   2.433   2.767   5.212
   32CHL1   C17 3498   2.272   2.606   5.202
   32CHL1   H17 3499   2.360   2.539   5.204
   32CHL1   C13 3500   2.187   2.556   5.328
   32CHL1   C18 3501   2.041   2.621   5.321
   32CHL1  H18A 3502   1.985   2.612   5.417
   32CHL1  H18B 3503   2.042   2.729   5.294
   32CHL1  H18C 3504   1.974   2.571   5.248
   32CHL1   C12 3505   2.165   2.408   5.363
   32CHL1  H12A 3506   2.095   2.373   5.283
   32CHL1  H12B 3507   2.258   2.349   5.348
   32CHL1   C11 3508   2.101   2.371   5.504
   32CHL1  H11A 3509   1.997   2.411   5.509
   32CHL1  H11B 3510   2.098   2.260   5.510
   32CHL1    C9 3511   2.181   2.439   5.617
   32CHL1    H9 3512   2.278   2.385   5.623
   32CHL1   C10 3513   2.126   2.424   5.762
   32CHL1   C19 3514   1.980   2.480   5.773
   32CHL1  H19A 3515   1.916   2.424   5.702
   32CHL1  H19B 3516   1.937   2.461   5.874
   32CHL1  H19C 3517   1.971   2.588   5.750
   32CHL1    C1 3518   2.124   2.273   5.795
   32CHL1   H1A 3519   2.049   2.218   5.735
   32CHL1   H1B 3520   2.220   2.217   5.781
   32CHL1    C2 3521   2.086   2.251   5.947
   32CHL1   H2A 3522   2.089   2.141   5.958
   32CHL1   H2B 3523   1.981   2.283   5.966
   32CHL1   C20 3524   2.208   2.607   5.069
   32CHL1   H20 3525   2.108   2.652   5.050
   32CHL1   C21 3526   2.191   2.454   5.022
   32CHL1  H21A 3527   2.188   2.449   4.911
   32CHL1  H21B 3528   2.091   2.425   5.058
   32CHL1  H21C 3529   2.269   2.383   5.058
   32CHL1   C22 3530   2.298   2.678   4.967
   32CHL1  H22A 3531   2.346   2.768   5.012
   32CHL1  H22B 3532   2.373   2.608   4.926
   32CHL1   C23 3533   2.210   2.726   4.845
   32CHL1  H23A 3534   2.152   2.638   4.810
   32CHL1  H23B 3535   2.148   2.810   4.883
   32CHL1   C24 3536   2.296   2.781   4.728
   32CHL1  H24A 3537   2.324   2.887   4.750
   32CHL1  H24B 3538   2.398   2.737   4.730
   32CHL1   C25 3539   2.233   2.764   4.590
   32CHL1   H25 3540   2.193   2.661   4.578
   32CHL1   C26 3541   2.109   2.849   4.573
   32CHL1  H26A 3542   2.044   2.844   4.663
   32CHL1  H26B 3543   2.139   2.956   4.565
   32CHL1  H26C 3544   2.064   2.819   4.476
   32CHL1   C27 3545   2.332   2.789   4.477
   32CHL1  H27A 3546   2.426   2.735   4.496
   32CHL1  H27B 3547   2.285   2.744   4.386
   32CHL1  H27C 3548   2.348   2.894   4.444
   33CHL1    C3 3549   0.504   1.510   5.680
   33CHL1    H3 3550   0.400   1.542   5.705
   33CHL1    O3 3551   0.595   1.526   5.789
   33CHL1   H3' 3552   0.660   1.457   5.771
   33CHL1    C4 3553   0.495   1.369   5.632
   33CHL1   H4A 3554   0.598   1.347   5.597
   33CHL1   H4B 3555   0.473   1.298   5.715
   33CHL1    C5 3556   0.415   1.342   5.511
   33CHL1    C6 3557   0.323   1.253   5.505
   33CHL1    H6 3558   0.302   1.183   5.588
   33CHL1    C7 3559   0.245   1.227   5.377
   33CHL1   H7A 3560   0.230   1.117   5.367
   33CHL1   H7B 3561   0.149   1.280   5.399
   33CHL1    C8 3562   0.311   1.278   5.246
   33CHL1    H8 3563   0.396   1.208   5.232
   33CHL1   C14 3564   0.221   1.276   5.125
   33CHL1   H14 3565   0.144   1.350   5.156
   33CHL1   C15 3566   0.149   1.144   5.083
   33CHL1  H15A 3567   0.211   1.052   5.079
   33CHL1  H15B 3568   0.062   1.124   5.148
   33CHL1   C16 3569   0.091   1.179   4.943
   33CHL1  H16A 3570   0.118   1.098   4.872
   33CHL1  H16B 3571   6.819   1.182   4.956
   33CHL1   C17 3572   0.139   1.317   4.898
   33CHL1   H17 3573   0.064   1.392   4.930
   33CHL1   C13 3574   0.266   1.339   4.990
   33CHL1   C18 3575   0.380   1.259   4.932
   33CHL1  H18A 3576   0.341   1.164   4.891
   33CHL1  H18B 3577   0.445   1.302   4.853
   33CHL1  H18C 3578   0.453   1.229   5.011
   33CHL1   C12 3579   0.286   1.492   5.026
   33CHL1  H12A 3580   0.322   1.547   4.937
   33CHL1  H12B 3581   0.185   1.528   5.055
   33CHL1   C11 3582   0.391   1.502   5.141
   33CHL1  H11A 3583   0.480   1.455   5.095
   33CHL1  H11B 3584   0.418   1.608   5.159
   33CHL1    C9 3585   0.346   1.424   5.273
   33CHL1    H9 3586   0.254   1.479   5.301
   33CHL1   C10 3587   0.447   1.434   5.388
   33CHL1   C19 3588   0.587   1.389   5.332
   33CHL1  H19A 3589   0.658   1.395   5.418
   33CHL1  H19B 3590   0.579   1.283   5.300
   33CHL1  H19C 3591   0.627   1.446   5.245
   33CHL1    C1 3592   0.455   1.581   5.431
   33CHL1   H1A 3593   0.493   1.649   5.352
   33CHL1   H1B 3594   0.354   1.616   5.464
   33CHL1    C2 3595   0.545   1.607   5.562
   33CHL1   H2A 3596   0.531   1.712   5.595
   33CHL1   H2B 3597   0.647   1.589   5.524
   33CHL1   C20 3598   0.152   1.330   4.749
   33CHL1   H20 3599   0.209   1.240   4.718
   33CHL1   C21 3600   0.230   1.459   4.718
   33CHL1  H21A 3601   0.188   1.555   4.755
   33CHL1  H21B 3602   0.229   1.465   4.607
   33CHL1  H21C 3603   0.337   1.459   4.747
   33CHL1   C22 3604   0.010   1.323   4.686
   33CHL1  H22A 3605   6.793   1.231   4.715
   33CHL1  H22B 3606   6.792   1.414   4.715
   33CHL1   C23 3607   0.011   1.323   4.530
   33CHL1  H23A 3608   0.067   1.413   4.498
   33CHL1  H23B 3609   0.076   1.240   4.497
   33CHL1   C24 3610   6.715   1.299   4.460
   33CHL1  H24A 3611   6.681   1.193   4.459
   33CHL1  H24B 3612   6.642   1.360   4.517
   33CHL1   C25 3613   6.716   1.345   4.311
   33CHL1   H25 3614   6.750   1.451   4.317
   33CHL1   C26 3615   6.826   1.282   4.222
   33CHL1  H26A 3616   6.798   1.177   4.198
   33CHL1  H26B 3617   0.018   1.348   4.138
   33CHL1  H26C 3618   0.080   1.281   4.284
   33CHL1   C27 3619   6.582   1.325   4.235
   33CHL1  H27A 3620   6.584   1.351   4.127
   33CHL1  H27B 3621   6.573   1.215   4.226
   33CHL1  H27C 3622   6.501   1.384   4.283
   34CHL1    C3 3623   2.825   2.723   6.476
   34CHL1    H3 3624   2.932   2.693   6.474
   34CHL1    O3 3625   2.790   2.733   6.614
   34CHL1   H3' 3626   2.863   2.772   6.663
   34CHL1    C4 3627   2.800   2.861   6.417
   34CHL1   H4A 3628   2.696   2.889   6.442
   34CHL1   H4B 3629   2.859   2.939   6.469
   34CHL1    C5 3630   2.810   2.865   6.273
   34CHL1    C6 3631   2.894   2.947   6.209
   34CHL1    H6 3632   2.955   3.012   6.273
   34CHL1    C7 3633   2.917   2.953   6.058
   34CHL1   H7A 3634   2.904   3.058   6.024
   34CHL1   H7B 3635   3.018   2.912   6.038
   34CHL1    C8 3636   2.816   2.868   5.972
   34CHL1    H8 3637   2.718   2.921   5.974
   34CHL1   C14 3638   2.868   2.852   5.826
   34CHL1   H14 3639   2.963   2.796   5.836
   34CHL1   C15 3640   2.900   2.975   5.748
   34CHL1  H15A 3641   2.819   3.050   5.762
   34CHL1  H15B 3642   2.989   3.037   5.774
   34CHL1   C16 3643   2.887   2.929   5.600
   34CHL1  H16A 3644   2.811   2.994   5.552
   34CHL1  H16B 3645   2.984   2.933   5.545
   34CHL1   C17 3646   2.830   2.788   5.601
   34CHL1   H17 3647   2.917   2.719   5.594
   34CHL1   C13 3648   2.765   2.771   5.741
   34CHL1   C18 3649   2.630   2.834   5.735
   34CHL1  H18A 3650   2.631   2.934   5.688
   34CHL1  H18B 3651   2.555   2.767   5.687
   34CHL1  H18C 3652   2.585   2.840   5.836
   34CHL1   C12 3653   2.767   2.625   5.803
   34CHL1  H12A 3654   2.693   2.558   5.753
   34CHL1  H12B 3655   2.870   2.585   5.800
   34CHL1   C11 3656   2.718   2.632   5.953
   34CHL1  H11A 3657   2.608   2.617   5.960
   34CHL1  H11B 3658   2.760   2.534   5.986
   34CHL1    C9 3659   2.794   2.736   6.043
   34CHL1    H9 3660   2.896   2.692   6.049
   34CHL1   C10 3661   2.740   2.752   6.189
   34CHL1   C19 3662   2.592   2.800   6.192
   34CHL1  H19A 3663   2.552   2.815   6.294
   34CHL1  H19B 3664   2.581   2.903   6.151
   34CHL1  H19C 3665   2.520   2.739   6.132
   34CHL1    C1 3666   2.748   2.613   6.261
   34CHL1   H1A 3667   2.672   2.543   6.219
   34CHL1   H1B 3668   2.845   2.559   6.253
   34CHL1    C2 3669   2.726   2.623   6.413
   34CHL1   H2A 3670   2.743   2.521   6.454
   34CHL1   H2B 3671   2.624   2.650   6.448
   34CHL1   C20 3672   2.745   2.737   5.479
   34CHL1   H20 3673   2.648   2.792   5.474
   34CHL1   C21 3674   2.727   2.589   5.485
   34CHL1  H21A 3675   2.696   2.550   5.385
   34CHL1  H21B 3676   2.641   2.570   5.552
   34CHL1  H21C 3677   2.820   2.536   5.513
   34CHL1   C22 3678   2.825   2.779   5.345
   34CHL1  H22A 3679   2.848   2.887   5.355
   34CHL1  H22B 3680   2.921   2.725   5.353
   34CHL1   C23 3681   2.746   2.757   5.216
   34CHL1  H23A 3682   2.729   2.649   5.194
   34CHL1  H23B 3683   2.652   2.814   5.226
   34CHL1   C24 3684   2.821   2.812   5.090
   34CHL1  H24A 3685   2.845   2.919   5.102
   34CHL1  H24B 3686   2.924   2.771   5.103
   34CHL1   C25 3687   2.776   2.789   4.946
   34CHL1   H25 3688   2.786   2.679   4.932
   34CHL1   C26 3689   2.630   2.829   4.927
   34CHL1  H26A 3690   2.611   2.807   4.820
   34CHL1  H26B 3691   2.564   2.760   4.984
   34CHL1  H26C 3692   2.608   2.937   4.939
   34CHL1   C27 3693   2.869   2.858   4.853
   34CHL1  H27A 3694   2.968   2.809   4.868
   34CHL1  H27B 3695   2.826   2.843   4.752
   34CHL1  H27C 3696   2.885   2.964   4.881
   35CHL1    C3 3697   4.420   5.266   6.208
   35CHL1    H3 3698   4.467   5.366   6.217
   35CHL1    O3 3699   4.439   5.208   6.336
   35CHL1   H3' 3700   4.364   5.149   6.348
   35CHL1    C4 3701   4.269   5.276   6.195
   35CHL1   H4A 3702   4.221   5.177   6.208
   35CHL1   H4B 3703   4.225   5.344   6.271
   35CHL1    C5 3704   4.242   5.319   6.053
   35CHL1    C6 3705   4.174   5.430   6.037
   35CHL1    H6 3706   4.140   5.484   6.127
   35CHL1    C7 3707   4.146   5.496   5.905
   35CHL1   H7A 3708   4.039   5.526   5.911
   35CHL1   H7B 3709   4.200   5.593   5.906
   35CHL1    C8 3710   4.178   5.420   5.776
   35CHL1    H8 3711   4.094   5.347   5.777
   35CHL1   C14 3712   4.195   5.505   5.652
   35CHL1   H14 3713   4.289   5.559   5.677
   35CHL1   C15 3714   4.097   5.624   5.621
   35CHL1  H15A 3715   3.991   5.596   5.638
   35CHL1  H15B 3716   4.111   5.715   5.683
   35CHL1   C16 3717   4.124   5.643   5.469
   35CHL1  H16A 3718   4.035   5.638   5.403
   35CHL1  H16B 3719   4.178   5.740   5.460
   35CHL1   C17 3720   4.228   5.537   5.425
   35CHL1   H17 3721   4.327   5.579   5.453
   35CHL1   C13 3722   4.204   5.424   5.525
   35CHL1   C18 3723   4.080   5.334   5.489
   35CHL1  H18A 3724   4.109   5.248   5.426
   35CHL1  H18B 3725   4.019   5.304   5.577
   35CHL1  H18C 3726   4.016   5.406   5.434
   35CHL1   C12 3727   4.322   5.319   5.535
   35CHL1  H12A 3728   4.330   5.254   5.445
   35CHL1  H12B 3729   4.419   5.374   5.532
   35CHL1   C11 3730   4.309   5.237   5.666
   35CHL1  H11A 3731   4.211   5.186   5.660
   35CHL1  H11B 3732   4.389   5.161   5.678
   35CHL1    C9 3733   4.304   5.329   5.794
   35CHL1    H9 3734   4.392   5.395   5.788
   35CHL1   C10 3735   4.313   5.258   5.934
   35CHL1   C19 3736   4.246   5.120   5.908
   35CHL1  H19A 3737   4.291   5.058   5.828
   35CHL1  H19B 3738   4.239   5.060   6.000
   35CHL1  H19C 3739   4.142   5.142   5.874
   35CHL1    C1 3740   4.465   5.241   5.969
   35CHL1   H1A 3741   4.520   5.187   5.890
   35CHL1   H1B 3742   4.521   5.336   5.982
   35CHL1    C2 3743   4.490   5.181   6.107
   35CHL1   H2A 3744   4.598   5.179   6.133
   35CHL1   H2B 3745   4.444   5.080   6.110
   35CHL1   C20 3746   4.227   5.513   5.274
   35CHL1   H20 3747   4.128   5.469   5.249
   35CHL1   C21 3748   4.336   5.418   5.230
   35CHL1  H21A 3749   4.430   5.456   5.277
   35CHL1  H21B 3750   4.345   5.419   5.120
   35CHL1  H21C 3751   4.321   5.313   5.263
   35CHL1   C22 3752   4.233   5.643   5.192
   35CHL1  H22A 3753   4.133   5.688   5.211
   35CHL1  H22B 3754   4.320   5.704   5.224
   35CHL1   C23 3755   4.248   5.631   5.038
   35CHL1  H23A 3756   4.345   5.584   5.011
   35CHL1  H23B 3757   4.166   5.564   5.006
   35CHL1   C24 3758   4.247   5.771   4.970
   35CHL1  H24A 3759   4.167   5.834   5.015
   35CHL1  H24B 3760   4.345   5.821   4.983
   35CHL1   C25 3761   4.226   5.775   4.816
   35CHL1   H25 3762   4.317   5.724   4.777
   35CHL1   C26 3763   4.107   5.699   4.759
   35CHL1  H26A 3764   4.133   5.591   4.756
   35CHL1  H26B 3765   4.008   5.707   4.808
   35CHL1  H26C 3766   4.087   5.733   4.655
   35CHL1   C27 3767   4.227   5.924   4.774
   35CHL1  H27A 3768   4.128   5.969   4.795
   35CHL1  H27B 3769   4.304   5.989   4.822
   35CHL1  H27C 3770   4.234   5.926   4.663
   36CHL1    C3 3771   0.061   4.014   6.075
   36CHL1    H3 3772   0.114   4.110   6.062
   36CHL1    O3 3773   0.002   4.018   6.205
   36CHL1   H3' 3774   0.076   3.990   6.260
   36CHL1    C4 3775   6.782   4.000   5.975
   36CHL1   H4A 3776   6.732   3.904   6.000
   36CHL1   H4B 3777   6.713   4.081   6.008
   36CHL1    C5 3778   6.831   4.004   5.832
   36CHL1    C6 3779   6.787   4.094   5.744
   36CHL1    H6 3780   6.704   4.158   5.777
   36CHL1    C7 3781   6.820   4.101   5.594
   36CHL1   H7A 3782   6.724   4.110   5.539
   36CHL1   H7B 3783   0.036   4.192   5.563
   36CHL1    C8 3784   0.046   3.965   5.548
   36CHL1    H8 3785   6.799   3.896   5.533
   36CHL1   C14 3786   0.119   3.982   5.414
   36CHL1   H14 3787   0.205   4.047   5.440
   36CHL1   C15 3788   0.041   4.044   5.291
   36CHL1  H15A 3789   6.782   3.990   5.293
   36CHL1  H15B 3790   0.026   4.153   5.296
   36CHL1   C16 3791   0.125   3.992   5.176
   36CHL1  H16A 3792   0.053   3.948   5.103
   36CHL1  H16B 3793   0.184   4.074   5.131
   36CHL1   C17 3794   0.233   3.886   5.221
   36CHL1   H17 3795   0.328   3.942   5.232
   36CHL1   C13 3796   0.185   3.851   5.361
   36CHL1   C18 3797   0.075   3.731   5.349
   36CHL1  H18A 3798   6.832   3.770   5.283
   36CHL1  H18B 3799   0.112   3.637   5.302
   36CHL1  H18C 3800   0.029   3.711   5.448
   36CHL1   C12 3801   0.298   3.816   5.461
   36CHL1  H12A 3802   0.362   3.731   5.430
   36CHL1  H12B 3803   0.364   3.904   5.468
   36CHL1   C11 3804   0.243   3.801   5.606
   36CHL1  H11A 3805   0.169   3.718   5.606
   36CHL1  H11B 3806   0.323   3.780   5.681
   36CHL1    C9 3807   0.153   3.920   5.654
   36CHL1    H9 3808   0.230   3.999   5.664
   36CHL1   C10 3809   0.103   3.894   5.798
   36CHL1   C19 3810   0.031   3.753   5.804
   36CHL1  H19A 3811   0.104   3.670   5.812
   36CHL1  H19B 3812   6.812   3.751   5.899
   36CHL1  H19C 3813   6.805   3.733   5.716
   36CHL1    C1 3814   0.216   3.909   5.903
   36CHL1   H1A 3815   0.294   3.831   5.890
   36CHL1   H1B 3816   0.261   4.009   5.885
   36CHL1    C2 3817   0.162   3.901   6.049
   36CHL1   H2A 3818   0.238   3.902   6.130
   36CHL1   H2B 3819   0.112   3.802   6.050
   36CHL1   C20 3820   0.257   3.778   5.109
   36CHL1   H20 3821   0.163   3.721   5.095
   36CHL1   C21 3822   0.369   3.685   5.157
   36CHL1  H21A 3823   0.382   3.603   5.083
   36CHL1  H21B 3824   0.361   3.644   5.260
   36CHL1  H21C 3825   0.465   3.738   5.174
   36CHL1   C22 3826   0.294   3.829   4.967
   36CHL1  H22A 3827   0.279   3.749   4.890
   36CHL1  H22B 3828   0.213   3.900   4.941
   36CHL1   C23 3829   0.431   3.895   4.953
   36CHL1  H23A 3830   0.436   3.973   5.033
   36CHL1  H23B 3831   0.510   3.817   4.959
   36CHL1   C24 3832   0.454   3.957   4.815
   36CHL1  H24A 3833   0.420   3.881   4.741
   36CHL1  H24B 3834   0.386   4.043   4.797
   36CHL1   C25 3835   0.601   3.989   4.772
   36CHL1   H25 3836   0.663   3.899   4.790
   36CHL1   C26 3837   0.615   4.036   4.632
   36CHL1  H26A 3838   0.554   3.971   4.566
   36CHL1  H26B 3839   0.572   4.137   4.614
   36CHL1  H26C 3840   0.720   4.037   4.596
   36CHL1   C27 3841   0.677   4.093   4.868
   36CHL1  H27A 3842   0.782   4.089   4.833
   36CHL1  H27B 3843   0.627   4.193   4.864
   36CHL1  H27C 3844   0.674   4.052   4.971
   37CHL1    C3 3845   1.105   0.194   5.916
   37CHL1    H3 3846   0.997   0.169   5.901
   37CHL1    O3 3847   1.118   0.223   6.050
   37CHL1   H3' 3848   1.210   0.234   6.077
   37CHL1    C4 3849   1.197   0.067   5.885
   37CHL1   H4A 3850   1.298   0.093   5.923
   37CHL1   H4B 3851   1.160   6.822   5.948
   37CHL1    C5 3852   1.201   0.039   5.731
   37CHL1    C6 3853   1.168   6.755   5.680
   37CHL1    H6 3854   1.152   6.670   5.748
   37CHL1    C7 3855   1.155   6.716   5.536
   37CHL1   H7A 3856   1.189   6.613   5.513
   37CHL1   H7B 3857   1.048   6.707   5.508
   37CHL1    C8 3858   1.224   6.811   5.440
   37CHL1    H8 3859   1.332   6.785   5.448
   37CHL1   C14 3860   1.176   6.789   5.300
   37CHL1   H14 3861   1.066   6.803   5.303
   37CHL1   C15 3862   1.186   6.646   5.246
   37CHL1  H15A 3863   1.275   6.593   5.285
   37CHL1  H15B 3864   1.094   6.592   5.279
   37CHL1   C16 3865   1.180   6.659   5.091
   37CHL1  H16A 3866   1.267   6.618   5.036
   37CHL1  H16B 3867   1.089   6.613   5.046
   37CHL1   C17 3868   1.180   6.817   5.062
   37CHL1   H17 3869   1.074   0.009   5.045
   37CHL1   C13 3870   1.235   0.041   5.198
   37CHL1   C18 3871   1.391   0.029   5.189
   37CHL1  H18A 3872   1.427   6.765   5.161
   37CHL1  H18B 3873   1.428   0.106   5.118
   37CHL1  H18C 3874   1.434   0.058   5.287
   37CHL1   C12 3875   1.200   0.183   5.235
   37CHL1  H12A 3876   1.251   0.248   5.160
   37CHL1  H12B 3877   1.091   0.204   5.233
   37CHL1   C11 3878   1.244   0.219   5.378
   37CHL1  H11A 3879   1.354   0.232   5.376
   37CHL1  H11B 3880   1.203   0.316   5.415
   37CHL1    C9 3881   1.199   0.120   5.485
   37CHL1    H9 3882   1.089   0.124   5.479
   37CHL1   C10 3883   1.225   0.160   5.636
   37CHL1   C19 3884   1.376   0.200   5.644
   37CHL1  H19A 3885   1.410   0.203   5.750
   37CHL1  H19B 3886   1.438   0.121   5.597
   37CHL1  H19C 3887   1.401   0.300   5.602
   37CHL1    C1 3888   1.119   0.268   5.668
   37CHL1   H1A 3889   1.131   0.362   5.610
   37CHL1   H1B 3890   1.017   0.238   5.636
   37CHL1    C2 3891   1.123   0.313   5.820
   37CHL1   H2A 3892   1.027   0.368   5.825
   37CHL1   H2B 3893   1.213   0.377   5.826
   37CHL1   C20 3894   1.246   0.015   4.927
   37CHL1   H20 3895   1.351   6.817   4.926
   37CHL1   C21 3896   1.243   0.170   4.897
   37CHL1  H21A 3897   1.311   0.228   4.963
   37CHL1  H21B 3898   1.140   0.211   4.900
   37CHL1  H21C 3899   1.271   0.187   4.790
   37CHL1   C22 3900   1.186   6.778   4.804
   37CHL1  H22A 3901   1.189   6.671   4.831
   37CHL1  H22B 3902   1.083   6.815   4.786
   37CHL1   C23 3903   1.262   6.794   4.672
   37CHL1  H23A 3904   1.261   0.059   4.633
   37CHL1  H23B 3905   1.371   6.788   4.695
   37CHL1   C24 3906   1.239   6.686   4.567
   37CHL1  H24A 3907   1.295   6.595   4.596
   37CHL1  H24B 3908   1.134   6.652   4.576
   37CHL1   C25 3909   1.273   6.718   4.420
   37CHL1   H25 3910   1.274   6.622   4.364
   37CHL1   C26 3911   1.168   6.817   4.361
   37CHL1  H26A 3912   1.069   6.776   4.391
   37CHL1  H26B 3913   1.189   0.084   4.390
   37CHL1  H26C 3914   1.173   6.828   4.250
   37CHL1   C27 3915   1.411   6.787   4.407
   37CHL1  H27A 3916   1.431   6.807   4.299
   37CHL1  H27B 3917   1.427   0.037   4.473
   37CHL1  H27C 3918   1.485   6.711   4.440
   38CHL1    C3 3919   1.562   0.709   6.056
   38CHL1    H3 3920   1.672   0.720   6.072
   38CHL1    O3 3921   1.503   0.697   6.186
   38CHL1   H3' 3922   1.550   0.764   6.235
   38CHL1    C4 3923   1.496   0.824   5.987
   38CHL1   H4A 3924   1.385   0.817   5.999
   38CHL1   H4B 3925   1.530   0.913   6.044
   38CHL1    C5 3926   1.517   0.823   5.836
   38CHL1    C6 3927   1.546   0.938   5.779
   38CHL1    H6 3928   1.564   1.018   5.852
   38CHL1    C7 3929   1.548   0.958   5.631
   38CHL1   H7A 3930   1.499   1.052   5.599
   38CHL1   H7B 3931   1.652   0.960   5.592
   38CHL1    C8 3932   1.472   0.849   5.559
   38CHL1    H8 3933   1.366   0.871   5.586
   38CHL1   C14 3934   1.492   0.856   5.407
   38CHL1   H14 3935   1.599   0.837   5.382
   38CHL1   C15 3936   1.444   0.985   5.342
   38CHL1  H15A 3937   1.349   1.012   5.393
   38CHL1  H15B 3938   1.515   1.069   5.358
   38CHL1   C16 3939   1.413   0.952   5.199
   38CHL1  H16A 3940   1.306   0.978   5.182
   38CHL1  H16B 3941   1.476   0.990   5.115
   38CHL1   C17 3942   1.430   0.800   5.189
   38CHL1   H17 3943   1.535   0.785   5.157
   38CHL1   C13 3944   1.410   0.745   5.334
   38CHL1   C18 3945   1.258   0.745   5.375
   38CHL1  H18A 3946   1.209   0.666   5.313
   38CHL1  H18B 3947   1.239   0.705   5.477
   38CHL1  H18C 3948   1.196   0.836   5.359
   38CHL1   C12 3949   1.476   0.618   5.363
   38CHL1  H12A 3950   1.420   0.534   5.318
   38CHL1  H12B 3951   1.583   0.621   5.332
   38CHL1   C11 3952   1.482   0.591   5.517
   38CHL1  H11A 3953   1.384   0.547   5.546
   38CHL1  H11B 3954   1.556   0.509   5.533
   38CHL1    C9 3955   1.514   0.709   5.610
   38CHL1    H9 3956   1.625   0.719   5.610
   38CHL1   C10 3957   1.474   0.695   5.764
   38CHL1   C19 3958   1.320   0.680   5.776
   38CHL1  H19A 3959   1.303   0.675   5.885
   38CHL1  H19B 3960   1.278   0.776   5.738
   38CHL1  H19C 3961   1.268   0.591   5.735
   38CHL1    C1 3962   1.553   0.582   5.827
   38CHL1   H1A 3963   1.520   0.489   5.777
   38CHL1   H1B 3964   1.655   0.594   5.784
   38CHL1    C2 3965   1.537   0.575   5.984
   38CHL1   H2A 3966   1.598   0.493   6.027
   38CHL1   H2B 3967   1.430   0.548   6.000
   38CHL1   C20 3968   1.350   0.738   5.073
   38CHL1   H20 3969   1.245   0.759   5.102
   38CHL1   C21 3970   1.370   0.590   5.059
   38CHL1  H21A 3971   1.317   0.556   4.967
   38CHL1  H21B 3972   1.323   0.533   5.142
   38CHL1  H21C 3973   1.478   0.571   5.045
   38CHL1   C22 3974   1.364   0.810   4.931
   38CHL1  H22A 3975   1.296   0.755   4.863
   38CHL1  H22B 3976   1.336   0.917   4.942
   38CHL1   C23 3977   1.510   0.807   4.854
   38CHL1  H23A 3978   1.582   0.871   4.909
   38CHL1  H23B 3979   1.532   0.698   4.858
   38CHL1   C24 3980   1.497   0.853   4.705
   38CHL1  H24A 3981   1.400   0.808   4.673
   38CHL1  H24B 3982   1.478   0.963   4.698
   38CHL1   C25 3983   1.623   0.839   4.615
   38CHL1   H25 3984   1.712   0.885   4.663
   38CHL1   C26 3985   1.653   0.697   4.577
   38CHL1  H26A 3986   1.573   0.648   4.517
   38CHL1  H26B 3987   1.746   0.681   4.519
   38CHL1  H26C 3988   1.657   0.636   4.670
   38CHL1   C27 3989   1.599   0.919   4.487
   38CHL1  H27A 3990   1.564   1.024   4.497
   38CHL1  H27B 3991   1.699   0.922   4.439
   38CHL1  H27C 3992   1.535   0.857   4.421
   39CHL1    C3 3993   3.486   1.403   6.437
   39CHL1    H3 3994   3.587   1.359   6.452
   39CHL1    O3 3995   3.432   1.391   6.565
   39CHL1   H3' 3996   3.339   1.412   6.551
   39CHL1    C4 3997   3.501   1.550   6.402
   39CHL1   H4A 3998   3.412   1.611   6.428
   39CHL1   H4B 3999   3.572   1.604   6.468
   39CHL1    C5 4000   3.533   1.584   6.255
   39CHL1    C6 4001   3.619   1.680   6.218
   39CHL1    H6 4002   3.663   1.755   6.285
   39CHL1    C7 4003   3.660   1.709   6.073
   39CHL1   H7A 4004   3.648   1.819   6.063
   39CHL1   H7B 4005   3.764   1.680   6.047
   39CHL1    C8 4006   3.574   1.633   5.969
   39CHL1    H8 4007   3.481   1.692   5.957
   39CHL1   C14 4008   3.652   1.621   5.842
   39CHL1   H14 4009   3.744   1.564   5.866
   39CHL1   C15 4010   3.714   1.748   5.786
   39CHL1  H15A 4011   3.643   1.832   5.776
   39CHL1  H15B 4012   3.808   1.771   5.840
   39CHL1   C16 4013   3.751   1.713   5.639
   39CHL1  H16A 4014   3.730   1.797   5.569
   39CHL1  H16B 4015   3.861   1.697   5.637
   39CHL1   C17 4016   3.686   1.577   5.605
   39CHL1   H17 4017   3.762   1.498   5.624
   39CHL1   C13 4018   3.585   1.557   5.725
   39CHL1   C18 4019   3.459   1.647   5.691
   39CHL1  H18A 4020   3.393   1.610   5.609
   39CHL1  H18B 4021   3.394   1.658   5.780
   39CHL1  H18C 4022   3.482   1.749   5.653
   39CHL1   C12 4023   3.552   1.411   5.767
   39CHL1  H12A 4024   3.498   1.361   5.684
   39CHL1  H12B 4025   3.641   1.347   5.784
   39CHL1   C11 4026   3.471   1.404   5.898
   39CHL1  H11A 4027   3.370   1.444   5.872
   39CHL1  H11B 4028   3.453   1.300   5.934
   39CHL1    C9 4029   3.543   1.493   6.015
   39CHL1    H9 4030   3.640   1.442   6.033
   39CHL1   C10 4031   3.465   1.485   6.150
   39CHL1   C19 4032   3.321   1.537   6.145
   39CHL1  H19A 4033   3.311   1.644   6.119
   39CHL1  H19B 4034   3.255   1.472   6.083
   39CHL1  H19C 4035   3.269   1.539   6.244
   39CHL1    C1 4036   3.470   1.336   6.198
   39CHL1   H1A 4037   3.410   1.270   6.132
   39CHL1   H1B 4038   3.572   1.291   6.196
   39CHL1    C2 4039   3.412   1.313   6.340
   39CHL1   H2A 4040   3.417   1.203   6.359
   39CHL1   H2B 4041   3.305   1.337   6.320
   39CHL1   C20 4042   3.638   1.550   5.463
   39CHL1   H20 4043   3.528   1.554   5.474
   39CHL1   C21 4044   3.683   1.402   5.427
   39CHL1  H21A 4045   3.794   1.399   5.425
   39CHL1  H21B 4046   3.644   1.366   5.330
   39CHL1  H21C 4047   3.650   1.340   5.513
   39CHL1   C22 4048   3.694   1.657   5.358
   39CHL1  H22A 4049   3.640   1.754   5.368
   39CHL1  H22B 4050   3.800   1.665   5.388
   39CHL1   C23 4051   3.676   1.623   5.216
   39CHL1  H23A 4052   3.715   1.711   5.160
   39CHL1  H23B 4053   3.736   1.534   5.188
   39CHL1   C24 4054   3.529   1.623   5.173
   39CHL1  H24A 4055   3.458   1.570   5.241
   39CHL1  H24B 4056   3.506   1.731   5.178
   39CHL1   C25 4057   3.513   1.588   5.023
   39CHL1   H25 4058   3.408   1.597   4.989
   39CHL1   C26 4059   3.600   1.686   4.932
   39CHL1  H26A 4060   3.706   1.670   4.960
   39CHL1  H26B 4061   3.595   1.674   4.822
   39CHL1  H26C 4062   3.567   1.787   4.965
   39CHL1   C27 4063   3.557   1.445   4.987
   39CHL1  H27A 4064   3.554   1.438   4.877
   39CHL1  H27B 4065   3.660   1.423   5.022
   39CHL1  H27C 4066   3.484   1.377   5.037
   40CHL1    C3 4067   3.618   3.980   6.186
   40CHL1    H3 4068   3.630   3.875   6.151
   40CHL1    O3 4069   3.630   3.992   6.328
   40CHL1   H3' 4070   3.553   4.036   6.364
   40CHL1    C4 4071   3.735   4.060   6.132
   40CHL1   H4A 4072   3.721   4.160   6.178
   40CHL1   H4B 4073   3.827   4.008   6.167
   40CHL1    C5 4074   3.737   4.075   5.980
   40CHL1    C6 4075   3.846   4.040   5.911
   40CHL1    H6 4076   3.936   4.003   5.962
   40CHL1    C7 4077   3.857   4.052   5.761
   40CHL1   H7A 4078   3.949   4.101   5.724
   40CHL1   H7B 4079   3.845   3.954   5.711
   40CHL1    C8 4080   3.748   4.131   5.690
   40CHL1    H8 4081   3.771   4.237   5.711
   40CHL1   C14 4082   3.740   4.100   5.536
   40CHL1   H14 4083   3.717   3.991   5.529
   40CHL1   C15 4084   3.867   4.124   5.459
   40CHL1  H15A 4085   3.899   4.224   5.495
   40CHL1  H15B 4086   3.947   4.051   5.485
   40CHL1   C16 4087   3.820   4.135   5.310
   40CHL1  H16A 4088   3.867   4.234   5.289
   40CHL1  H16B 4089   3.849   4.051   5.243
   40CHL1   C17 4090   3.663   4.153   5.315
   40CHL1   H17 4091   3.625   4.053   5.283
   40CHL1   C13 4092   3.632   4.174   5.465
   40CHL1   C18 4093   3.653   4.325   5.492
   40CHL1  H18A 4094   3.656   4.353   5.600
   40CHL1  H18B 4095   3.746   4.355   5.439
   40CHL1  H18C 4096   3.583   4.391   5.436
   40CHL1   C12 4097   3.501   4.118   5.522
   40CHL1  H12A 4098   3.419   4.178   5.477
   40CHL1  H12B 4099   3.490   4.010   5.502
   40CHL1   C11 4100   3.491   4.145   5.673
   40CHL1  H11A 4101   3.490   4.255   5.690
   40CHL1  H11B 4102   3.397   4.101   5.713
   40CHL1    C9 4103   3.616   4.092   5.753
   40CHL1    H9 4104   3.612   3.983   5.732
   40CHL1   C10 4105   3.609   4.117   5.909
   40CHL1   C19 4106   3.575   4.267   5.932
   40CHL1  H19A 4107   3.626   4.343   5.868
   40CHL1  H19B 4108   3.464   4.270   5.920
   40CHL1  H19C 4109   3.590   4.300   6.037
   40CHL1    C1 4110   3.497   4.027   5.973
   40CHL1   H1A 4111   3.398   4.052   5.929
   40CHL1   H1B 4112   3.519   3.924   5.938
   40CHL1    C2 4113   3.488   4.038   6.123
   40CHL1   H2A 4114   3.412   3.968   6.163
   40CHL1   H2B 4115   3.478   4.144   6.154
   40CHL1   C20 4116   3.610   4.246   5.198
   40CHL1   H20 4117   3.649   4.347   5.224
   40CHL1   C21 4118   3.456   4.263   5.209
   40CHL1  H21A 4119   3.416   4.159   5.218
   40CHL1  H21B 4120   3.413   4.315   5.120
   40CHL1  H21C 4121   3.434   4.322   5.300
   40CHL1   C22 4122   3.649   4.195   5.056
   40CHL1  H22A 4123   3.756   4.166   5.064
   40CHL1  H22B 4124   3.600   4.096   5.043
   40CHL1   C23 4125   3.630   4.296   4.949
   40CHL1  H23A 4126   3.526   4.335   4.950
   40CHL1  H23B 4127   3.698   4.380   4.973
   40CHL1   C24 4128   3.660   4.244   4.807
   40CHL1  H24A 4129   3.650   4.333   4.741
   40CHL1  H24B 4130   3.767   4.218   4.799
   40CHL1   C25 4131   3.566   4.130   4.758
   40CHL1   H25 4132   3.568   4.054   4.839
   40CHL1   C26 4133   3.422   4.182   4.737
   40CHL1  H26A 4134   3.368   4.217   4.827
   40CHL1  H26B 4135   3.428   4.252   4.651
   40CHL1  H26C 4136   3.361   4.097   4.699
   40CHL1   C27 4137   3.622   4.073   4.631
   40CHL1  H27A 4138   3.611   4.148   4.550
   40CHL1  H27B 4139   3.732   4.057   4.638
   40CHL1  H27C 4140   3.565   3.982   4.600
   41CHL1    C3 4141   0.749   4.585   5.954
   41CHL1    H3 4142   0.840   4.523   5.964
   41CHL1    O3 4143   0.680   4.563   6.076
   41CHL1   H3' 4144   0.606   4.624   6.078
   41CHL1    C4 4145   0.786   4.733   5.942
   41CHL1   H4A 4146   0.695   4.796   5.945
   41CHL1   H4B 4147   0.862   4.767   6.016
   41CHL1    C5 4148   0.855   4.763   5.806
   41CHL1    C6 4149   0.974   4.826   5.796
   41CHL1    H6 4150   1.036   4.852   5.883
   41CHL1    C7 4151   1.038   4.866   5.662
   41CHL1   H7A 4152   1.083   4.967   5.664
   41CHL1   H7B 4153   1.120   4.795   5.637
   41CHL1    C8 4154   0.936   4.860   5.547
   41CHL1    H8 4155   0.869   4.947   5.561
   41CHL1   C14 4156   1.000   4.885   5.414
   41CHL1   H14 4157   1.058   4.792   5.396
   41CHL1   C15 4158   1.106   4.991   5.400
   41CHL1  H15A 4159   1.072   5.086   5.447
   41CHL1  H15B 4160   1.198   4.955   5.452
   41CHL1   C16 4161   1.132   4.992   5.251
   41CHL1  H16A 4162   1.145   5.094   5.211
   41CHL1  H16B 4163   1.226   4.941   5.223
   41CHL1   C17 4164   1.020   4.908   5.183
   41CHL1   H17 4165   1.069   4.808   5.175
   41CHL1   C13 4166   0.909   4.886   5.292
   41CHL1   C18 4167   0.807   5.002   5.297
   41CHL1  H18A 4168   0.730   4.978   5.373
   41CHL1  H18B 4169   0.858   5.095   5.330
   41CHL1  H18C 4170   0.761   5.025   5.199
   41CHL1   C12 4171   0.842   4.747   5.287
   41CHL1  H12A 4172   0.763   4.754   5.209
   41CHL1  H12B 4173   0.907   4.665   5.251
   41CHL1   C11 4174   0.763   4.714   5.414
   41CHL1  H11A 4175   0.669   4.774   5.414
   41CHL1  H11B 4176   0.739   4.605   5.409
   41CHL1    C9 4177   0.848   4.735   5.549
   41CHL1    H9 4178   0.929   4.659   5.545
   41CHL1   C10 4179   0.773   4.721   5.686
   41CHL1   C19 4180   0.638   4.792   5.680
   41CHL1  H19A 4181   0.610   4.836   5.778
   41CHL1  H19B 4182   0.662   4.876   5.612
   41CHL1  H19C 4183   0.566   4.724   5.629
   41CHL1    C1 4184   0.744   4.564   5.705
   41CHL1   H1A 4185   0.684   4.516   5.624
   41CHL1   H1B 4186   0.842   4.512   5.699
   41CHL1    C2 4187   0.673   4.528   5.840
   41CHL1   H2A 4188   0.678   4.417   5.845
   41CHL1   H2B 4189   0.567   4.562   5.840
   41CHL1   C20 4190   0.975   4.935   5.041
   41CHL1   H20 4191   0.871   4.895   5.045
   41CHL1   C21 4192   1.070   4.854   4.950
   41CHL1  H21A 4193   1.174   4.887   4.970
   41CHL1  H21B 4194   1.048   4.859   4.841
   41CHL1  H21C 4195   1.055   4.745   4.969
   41CHL1   C22 4196   0.967   5.085   5.011
   41CHL1  H22A 4197   0.919   5.131   5.100
   41CHL1  H22B 4198   1.059   5.145   4.996
   41CHL1   C23 4199   0.872   5.108   4.892
   41CHL1  H23A 4200   0.929   5.095   4.797
   41CHL1  H23B 4201   0.781   5.046   4.903
   41CHL1   C24 4202   0.814   5.249   4.897
   41CHL1  H24A 4203   0.751   5.258   4.988
   41CHL1  H24B 4204   0.895   5.324   4.890
   41CHL1   C25 4205   0.717   5.286   4.787
   41CHL1   H25 4206   0.634   5.213   4.786
   41CHL1   C26 4207   0.656   5.422   4.803
   41CHL1  H26A 4208   0.604   5.435   4.901
   41CHL1  H26B 4209   0.735   5.501   4.808
   41CHL1  H26C 4210   0.584   5.452   4.725
   41CHL1   C27 4211   0.775   5.272   4.642
   41CHL1  H27A 4212   0.865   5.335   4.626
   41CHL1  H27B 4213   0.801   5.165   4.628
   41CHL1  H27C 4214   0.701   5.303   4.566
   42CHL1    C3 4215   5.629   3.593   5.885
   42CHL1    H3 4216   5.519   3.591   5.889
   42CHL1    O3 4217   5.677   3.606   6.018
   42CHL1   H3' 4218   5.769   3.633   6.015
   42CHL1    C4 4219   5.688   3.461   5.823
   42CHL1   H4A 4220   5.798   3.445   5.825
   42CHL1   H4B 4221   5.641   3.387   5.890
   42CHL1    C5 4222   5.636   3.442   5.677
   42CHL1    C6 4223   5.581   3.326   5.637
   42CHL1    H6 4224   5.566   3.240   5.705
   42CHL1    C7 4225   5.548   3.295   5.494
   42CHL1   H7A 4226   5.593   3.199   5.461
   42CHL1   H7B 4227   5.438   3.283   5.498
   42CHL1    C8 4228   5.586   3.406   5.388
   42CHL1    H8 4229   5.692   3.392   5.358
   42CHL1   C14 4230   5.506   3.396   5.265
   42CHL1   H14 4231   5.401   3.413   5.298
   42CHL1   C15 4232   5.496   3.258   5.189
   42CHL1  H15A 4233   5.595   3.208   5.189
   42CHL1  H15B 4234   5.425   3.197   5.249
   42CHL1   C16 4235   5.446   3.298   5.051
   42CHL1  H16A 4236   5.523   3.260   4.981
   42CHL1  H16B 4237   5.343   3.266   5.027
   42CHL1   C17 4238   5.434   3.452   5.053
   42CHL1   H17 4239   5.332   3.475   5.089
   42CHL1   C13 4240   5.531   3.500   5.164
   42CHL1   C18 4241   5.675   3.481   5.114
   42CHL1  H18A 4242   5.690   3.552   5.030
   42CHL1  H18B 4243   5.746   3.512   5.193
   42CHL1  H18C 4244   5.697   3.386   5.061
   42CHL1   C12 4245   5.503   3.646   5.216
   42CHL1  H12A 4246   5.532   3.721   5.139
   42CHL1  H12B 4247   5.395   3.672   5.227
   42CHL1   C11 4248   5.584   3.663   5.339
   42CHL1  H11A 4249   5.684   3.686   5.297
   42CHL1  H11B 4250   5.555   3.750   5.402
   42CHL1    C9 4251   5.568   3.551   5.448
   42CHL1    H9 4252   5.462   3.558   5.477
   42CHL1   C10 4253   5.652   3.565   5.581
   42CHL1   C19 4254   5.805   3.575   5.545
   42CHL1  H19A 4255   5.862   3.565   5.640
   42CHL1  H19B 4256   5.845   3.478   5.509
   42CHL1  H19C 4257   5.823   3.654   5.469
   42CHL1    C1 4258   5.605   3.694   5.654
   42CHL1   H1A 4259   5.618   3.783   5.589
   42CHL1   H1B 4260   5.496   3.674   5.664
   42CHL1    C2 4261   5.669   3.714   5.800
   42CHL1   H2A 4262   5.638   3.814   5.837
   42CHL1   H2B 4263   5.779   3.722   5.798
   42CHL1   C20 4264   5.433   3.525   4.926
   42CHL1   H20 4265   5.467   3.630   4.937
   42CHL1   C21 4266   5.294   3.531   4.868
   42CHL1  H21A 4267   5.216   3.560   4.941
   42CHL1  H21B 4268   5.262   3.433   4.826
   42CHL1  H21C 4269   5.295   3.603   4.783
   42CHL1   C22 4270   5.531   3.476   4.822
   42CHL1  H22A 4271   5.631   3.466   4.867
   42CHL1  H22B 4272   5.500   3.374   4.791
   42CHL1   C23 4273   5.529   3.559   4.692
   42CHL1  H23A 4274   5.431   3.561   4.640
   42CHL1  H23B 4275   5.556   3.663   4.721
   42CHL1   C24 4276   5.631   3.495   4.596
   42CHL1  H24A 4277   5.611   3.385   4.597
   42CHL1  H24B 4278   5.614   3.536   4.494
   42CHL1   C25 4279   5.777   3.516   4.638
   42CHL1   H25 4280   5.793   3.462   4.734
   42CHL1   C26 4281   5.865   3.453   4.532
   42CHL1  H26A 4282   5.861   3.498   4.431
   42CHL1  H26B 4283   5.973   3.443   4.558
   42CHL1  H26C 4284   5.842   3.344   4.523
   42CHL1   C27 4285   5.825   3.660   4.663
   42CHL1  H27A 4286   5.797   3.692   4.766
   42CHL1  H27B 4287   5.935   3.676   4.661
   42CHL1  H27C 4288   5.791   3.736   4.590
   43CHL1    C3 4289   6.371   1.818   6.201
   43CHL1    H3 4290   6.269   1.837   6.242
   43CHL1    O3 4291   6.468   1.839   6.308
   43CHL1   H3' 4292   6.548   1.806   6.267
   43CHL1    C4 4293   6.366   1.672   6.162
   43CHL1   H4A 4294   6.472   1.647   6.137
   43CHL1   H4B 4295   6.352   1.614   6.256
   43CHL1    C5 4296   6.268   1.640   6.051
   43CHL1    C6 4297   6.167   1.551   6.068
   43CHL1    H6 4298   6.159   1.497   6.164
   43CHL1    C7 4299   6.072   1.501   5.962
   43CHL1   H7A 4300   6.084   1.393   5.940
   43CHL1   H7B 4301   5.971   1.522   6.004
   43CHL1    C8 4302   6.096   1.574   5.818
   43CHL1    H8 4303   6.174   1.514   5.767
   43CHL1   C14 4304   5.966   1.587   5.732
   43CHL1   H14 4305   5.908   1.660   5.793
   43CHL1   C15 4306   5.875   1.464   5.710
   43CHL1  H15A 4307   5.949   1.381   5.706
   43CHL1  H15B 4308   5.819   1.455   5.806
   43CHL1   C16 4309   5.788   1.498   5.593
   43CHL1  H16A 4310   5.808   1.410   5.527
   43CHL1  H16B 4311   5.681   1.515   5.616
   43CHL1   C17 4312   5.850   1.632   5.536
   43CHL1   H17 4313   5.792   1.710   5.588
   43CHL1   C13 4314   5.989   1.652   5.594
   43CHL1   C18 4315   6.099   1.571   5.520
   43CHL1  H18A 4316   6.188   1.561   5.585
   43CHL1  H18B 4317   6.075   1.465   5.497
   43CHL1  H18C 4318   6.118   1.626   5.426
   43CHL1   C12 4319   6.034   1.796   5.614
   43CHL1  H12A 4320   6.060   1.838   5.515
   43CHL1  H12B 4321   5.955   1.854   5.666
   43CHL1   C11 4322   6.160   1.801   5.705
   43CHL1  H11A 4323   6.237   1.755   5.640
   43CHL1  H11B 4324   6.182   1.907   5.730
   43CHL1    C9 4325   6.149   1.714   5.835
   43CHL1    H9 4326   6.072   1.776   5.887
   43CHL1   C10 4327   6.275   1.729   5.925
   43CHL1   C19 4328   6.399   1.679   5.839
   43CHL1  H19A 4329   6.499   1.683   5.887
   43CHL1  H19B 4330   6.375   1.574   5.811
   43CHL1  H19C 4331   6.416   1.738   5.746
   43CHL1    C1 4332   6.310   1.878   5.960
   43CHL1   H1A 4333   6.326   1.948   5.875
   43CHL1   H1B 4334   6.219   1.920   6.008
   43CHL1    C2 4335   6.406   1.901   6.074
   43CHL1   H2A 4336   6.398   2.008   6.103
   43CHL1   H2B 4337   6.510   1.881   6.040
   43CHL1   C20 4338   5.837   1.656   5.379
   43CHL1   H20 4339   5.929   1.712   5.355
   43CHL1   C21 4340   5.712   1.755   5.366
   43CHL1  H21A 4341   5.618   1.704   5.398
   43CHL1  H21B 4342   5.711   1.782   5.259
   43CHL1  H21C 4343   5.736   1.848   5.422
   43CHL1   C22 4344   5.825   1.529   5.295
   43CHL1  H22A 4345   5.913   1.465   5.318
   43CHL1  H22B 4346   5.730   1.475   5.313
   43CHL1   C23 4347   5.824   1.552   5.140
   43CHL1  H23A 4348   5.729   1.597   5.104
   43CHL1  H23B 4349   5.897   1.632   5.112
   43CHL1   C24 4350   5.839   1.422   5.058
   43CHL1  H24A 4351   5.947   1.398   5.057
   43CHL1  H24B 4352   5.805   1.332   5.113
   43CHL1   C25 4353   5.777   1.412   4.918
   43CHL1   H25 4354   5.805   1.313   4.876
   43CHL1   C26 4355   5.624   1.420   4.924
   43CHL1  H26A 4356   5.590   1.365   4.833
   43CHL1  H26B 4357   5.584   1.363   5.010
   43CHL1  H26C 4358   5.593   1.526   4.921
   43CHL1   C27 4359   5.842   1.512   4.823
   43CHL1  H27A 4360   5.797   1.503   4.721
   43CHL1  H27B 4361   5.835   1.619   4.853
   43CHL1  H27C 4362   5.949   1.486   4.814
   44CHL1    C3 4363   0.059   3.013   5.756
   44CHL1    H3 4364   6.787   3.030   5.750
   44CHL1    O3 4365   0.089   2.973   5.885
   44CHL1   H3' 4366   0.183   2.968   5.902
   44CHL1    C4 4367   0.108   2.912   5.651
   44CHL1   H4A 4368   0.214   2.897   5.680
   44CHL1   H4B 4369   0.064   2.811   5.667
   44CHL1    C5 4370   0.096   2.955   5.506
   44CHL1    C6 4371   0.033   2.880   5.414
   44CHL1    H6 4372   6.816   2.787   5.437
   44CHL1    C7 4373   0.027   2.919   5.269
   44CHL1   H7A 4374   0.055   2.831   5.208
   44CHL1   H7B 4375   6.761   2.941   5.240
   44CHL1    C8 4376   0.119   3.036   5.234
   44CHL1    H8 4377   0.222   2.994   5.242
   44CHL1   C14 4378   0.090   3.089   5.087
   44CHL1   H14 4379   6.829   3.138   5.088
   44CHL1   C15 4380   0.087   2.982   4.975
   44CHL1  H15A 4381   0.159   2.897   4.978
   44CHL1  H15B 4382   6.824   2.938   4.975
   44CHL1   C16 4383   0.118   3.072   4.852
   44CHL1  H16A 4384   0.208   3.043   4.793
   44CHL1  H16B 4385   0.036   3.084   4.778
   44CHL1   C17 4386   0.150   3.217   4.906
   44CHL1   H17 4387   0.051   3.267   4.903
   44CHL1   C13 4388   0.189   3.200   5.053
   44CHL1   C18 4389   0.338   3.154   5.069
   44CHL1  H18A 4390   0.358   3.054   5.023
   44CHL1  H18B 4391   0.413   3.229   5.035
   44CHL1  H18C 4392   0.360   3.142   5.177
   44CHL1   C12 4393   0.157   3.321   5.154
   44CHL1  H12A 4394   0.227   3.407   5.144
   44CHL1  H12B 4395   0.055   3.355   5.126
   44CHL1   C11 4396   0.181   3.279   5.302
   44CHL1  H11A 4397   0.290   3.265   5.322
   44CHL1  H11B 4398   0.143   3.361   5.368
   44CHL1    C9 4399   0.110   3.150   5.337
   44CHL1    H9 4400   0.001   3.164   5.352
   44CHL1   C10 4401   0.155   3.098   5.481
   44CHL1   C19 4402   0.310   3.076   5.482
   44CHL1  H19A 4403   0.346   3.019   5.394
   44CHL1  H19B 4404   0.357   3.176   5.488
   44CHL1  H19C 4405   0.345   3.020   5.572
   44CHL1    C1 4406   0.103   3.192   5.591
   44CHL1   H1A 4407   0.147   3.294   5.582
   44CHL1   H1B 4408   6.835   3.213   5.565
   44CHL1    C2 4409   0.129   3.150   5.734
   44CHL1   H2A 4410   0.094   3.233   5.799
   44CHL1   H2B 4411   0.236   3.132   5.759
   44CHL1   C20 4412   0.245   3.302   4.813
   44CHL1   H20 4413   0.343   3.251   4.811
   44CHL1   C21 4414   0.259   3.449   4.858
   44CHL1  H21A 4415   0.154   3.484   4.861
   44CHL1  H21B 4416   0.319   3.507   4.784
   44CHL1  H21C 4417   0.300   3.456   4.961
   44CHL1   C22 4418   0.208   3.297   4.662
   44CHL1  H22A 4419   0.303   3.336   4.620
   44CHL1  H22B 4420   0.205   3.191   4.630
   44CHL1   C23 4421   0.091   3.381   4.619
   44CHL1  H23A 4422   0.010   3.359   4.692
   44CHL1  H23B 4423   0.096   3.491   4.627
   44CHL1   C24 4424   0.037   3.346   4.475
   44CHL1  H24A 4425   0.118   3.387   4.410
   44CHL1  H24B 4426   0.018   3.237   4.471
   44CHL1   C25 4427   6.744   3.415   4.439
   44CHL1   H25 4428   6.738   3.518   4.480
   44CHL1   C26 4429   6.717   3.420   4.288
   44CHL1  H26A 4430   6.705   3.321   4.240
   44CHL1  H26B 4431   6.628   3.481   4.261
   44CHL1  H26C 4432   6.800   3.466   4.229
   44CHL1   C27 4433   6.633   3.340   4.505
   44CHL1  H27A 4434   6.543   3.401   4.480
   44CHL1  H27B 4435   6.625   3.232   4.479
   44CHL1  H27C 4436   6.647   3.344   4.615
   45CHL1    C3 4437   6.475   4.389   5.723
   45CHL1    H3 4438   6.394   4.460   5.753
   45CHL1    O3 4439   6.531   4.324   5.835
   45CHL1   H3' 4440   6.579   4.400   5.869
   45CHL1    C4 4441   6.426   4.288   5.624
   45CHL1   H4A 4442   6.518   4.229   5.605
   45CHL1   H4B 4443   6.342   4.228   5.668
   45CHL1    C5 4444   6.378   4.343   5.494
   45CHL1    C6 4445   6.249   4.339   5.449
   45CHL1    H6 4446   6.172   4.289   5.509
   45CHL1    C7 4447   6.209   4.388   5.316
   45CHL1   H7A 4448   6.146   4.311   5.267
   45CHL1   H7B 4449   6.152   4.480   5.343
   45CHL1    C8 4450   6.329   4.418   5.222
   45CHL1    H8 4451   6.374   4.323   5.187
   45CHL1   C14 4452   6.278   4.488   5.094
   45CHL1   H14 4453   6.244   4.587   5.131
   45CHL1   C15 4454   6.170   4.430   5.002
   45CHL1  H15A 4455   6.180   4.319   4.993
   45CHL1  H15B 4456   6.068   4.439   5.045
   45CHL1   C16 4457   6.204   4.480   4.855
   45CHL1  H16A 4458   6.227   4.388   4.797
   45CHL1  H16B 4459   6.127   4.534   4.796
   45CHL1   C17 4460   6.336   4.564   4.871
   45CHL1   H17 4461   6.297   4.666   4.895
   45CHL1   C13 4462   6.402   4.518   5.001
   45CHL1   C18 4463   6.474   4.392   4.965
   45CHL1  H18A 4464   6.561   4.413   4.899
   45CHL1  H18B 4465   6.515   4.340   5.054
   45CHL1  H18C 4466   6.412   4.306   4.932
   45CHL1   C12 4467   6.495   4.617   5.066
   45CHL1  H12A 4468   6.582   4.638   5.001
   45CHL1  H12B 4469   6.448   4.717   5.080
   45CHL1   C11 4470   6.546   4.565   5.197
   45CHL1  H11A 4471   6.626   4.489   5.182
   45CHL1  H11B 4472   6.582   4.653   5.255
   45CHL1    C9 4473   6.439   4.503   5.292
   45CHL1    H9 4474   6.382   4.588   5.336
   45CHL1   C10 4475   6.494   4.424   5.417
   45CHL1   C19 4476   6.601   4.322   5.374
   45CHL1  H19A 4477   6.669   4.294   5.458
   45CHL1  H19B 4478   6.569   4.230   5.322
   45CHL1  H19C 4479   6.678   4.356   5.302
   45CHL1    C1 4480   6.548   4.531   5.517
   45CHL1   H1A 4481   6.635   4.575   5.465
   45CHL1   H1B 4482   6.480   4.613   5.548
   45CHL1    C2 4483   6.584   4.479   5.658
   45CHL1   H2A 4484   6.610   4.561   5.729
   45CHL1   H2B 4485   6.679   4.420   5.661
   45CHL1   C20 4486   6.423   4.592   4.748
   45CHL1   H20 4487   6.525   4.621   4.780
   45CHL1   C21 4488   6.353   4.711   4.677
   45CHL1  H21A 4489   6.402   4.745   4.583
   45CHL1  H21B 4490   6.375   4.796   4.745
   45CHL1  H21C 4491   6.244   4.693   4.670
   45CHL1   C22 4492   6.428   4.482   4.645
   45CHL1  H22A 4493   6.468   4.390   4.693
   45CHL1  H22B 4494   6.325   4.455   4.614
   45CHL1   C23 4495   6.521   4.506   4.530
   45CHL1  H23A 4496   6.495   4.595   4.469
   45CHL1  H23B 4497   6.626   4.512   4.566
   45CHL1   C24 4498   6.541   4.382   4.438
   45CHL1  H24A 4499   6.566   4.298   4.505
   45CHL1  H24B 4500   6.449   4.367   4.377
   45CHL1   C25 4501   6.657   4.405   4.337
   45CHL1   H25 4502   6.741   4.426   4.406
   45CHL1   C26 4503   6.681   4.279   4.249
   45CHL1  H26A 4504   6.583   4.254   4.204
   45CHL1  H26B 4505   6.765   4.288   4.177
   45CHL1  H26C 4506   6.707   4.195   4.316
   45CHL1   C27 4507   6.634   4.531   4.252
   45CHL1  H27A 4508   6.722   4.532   4.184
   45CHL1  H27B 4509   6.537   4.511   4.202
   45CHL1  H27C 4510   6.631   4.630   4.303
   46CHL1    C3 4511   2.319   5.746   6.329
   46CHL1    H3 4512   2.399   5.821   6.338
   46CHL1    O3 4513   2.307   5.676   6.453
   46CHL1   H3' 4514   2.226   5.625   6.461
   46CHL1    C4 4515   2.189   5.815   6.290
   46CHL1   H4A 4516   2.095   5.756   6.297
   46CHL1   H4B 4517   2.170   5.896   6.364
   46CHL1    C5 4518   2.197   5.875   6.154
   46CHL1    C6 4519   2.186   6.007   6.140
   46CHL1    H6 4520   2.168   6.072   6.226
   46CHL1    C7 4521   2.199   6.075   6.009
   46CHL1   H7A 4522   2.117   6.150   6.003
   46CHL1   H7B 4523   2.295   6.131   6.004
   46CHL1    C8 4524   2.181   5.981   5.891
   46CHL1    H8 4525   2.074   5.949   5.892
   46CHL1   C14 4526   2.198   6.046   5.756
   46CHL1   H14 4527   2.308   6.062   5.757
   46CHL1   C15 4528   2.125   6.184   5.734
   46CHL1  H15A 4529   2.017   6.173   5.759
   46CHL1  H15B 4530   2.161   6.262   5.804
   46CHL1   C16 4531   2.147   6.206   5.584
   46CHL1  H16A 4532   2.051   6.238   5.538
   46CHL1  H16B 4533   2.217   6.289   5.559
   46CHL1   C17 4534   2.217   6.079   5.524
   46CHL1   H17 4535   2.326   6.097   5.530
   46CHL1   C13 4536   2.188   5.968   5.628
   46CHL1   C18 4537   2.038   5.919   5.611
   46CHL1  H18A 4538   1.982   6.000   5.559
   46CHL1  H18B 4539   2.024   5.832   5.545
   46CHL1  H18C 4540   1.992   5.888   5.707
   46CHL1   C12 4541   2.275   5.851   5.649
   46CHL1  H12A 4542   2.253   5.777   5.569
   46CHL1  H12B 4543   2.384   5.875   5.647
   46CHL1   C11 4544   2.243   5.772   5.769
   46CHL1  H11A 4545   2.137   5.740   5.767
   46CHL1  H11B 4546   2.297   5.676   5.788
   46CHL1    C9 4547   2.263   5.854   5.905
   46CHL1    H9 4548   2.372   5.874   5.902
   46CHL1   C10 4549   2.237   5.774   6.040
   46CHL1   C19 4550   2.116   5.686   6.015
   46CHL1  H19A 4551   2.118   5.621   5.925
   46CHL1  H19B 4552   2.095   5.621   6.103
   46CHL1  H19C 4553   2.030   5.754   6.001
   46CHL1    C1 4554   2.358   5.699   6.085
   46CHL1   H1A 4555   2.381   5.622   6.008
   46CHL1   H1B 4556   2.449   5.764   6.085
   46CHL1    C2 4557   2.351   5.640   6.229
   46CHL1   H2A 4558   2.451   5.597   6.252
   46CHL1   H2B 4559   2.274   5.560   6.229
   46CHL1   C20 4560   2.189   6.039   5.381
   46CHL1   H20 4561   2.104   5.968   5.373
   46CHL1   C21 4562   2.311   5.967   5.317
   46CHL1  H21A 4563   2.400   6.033   5.314
   46CHL1  H21B 4564   2.296   5.944   5.209
   46CHL1  H21C 4565   2.336   5.874   5.373
   46CHL1   C22 4566   2.144   6.156   5.288
   46CHL1  H22A 4567   2.048   6.187   5.333
   46CHL1  H22B 4568   2.216   6.240   5.294
   46CHL1   C23 4569   2.113   6.102   5.139
   46CHL1  H23A 4570   2.214   6.076   5.102
   46CHL1  H23B 4571   2.056   6.007   5.150
   46CHL1   C24 4572   2.055   6.213   5.049
   46CHL1  H24A 4573   1.967   6.263   5.093
   46CHL1  H24B 4574   2.132   6.293   5.050
   46CHL1   C25 4575   2.017   6.165   4.909
   46CHL1   H25 4576   2.093   6.099   4.861
   46CHL1   C26 4577   1.878   6.101   4.919
   46CHL1  H26A 4578   1.806   6.177   4.957
   46CHL1  H26B 4579   1.857   6.079   4.812
   46CHL1  H26C 4580   1.888   6.010   4.983
   46CHL1   C27 4581   2.013   6.280   4.812
   46CHL1  H27A 4582   1.971   6.371   4.861
   46CHL1  H27B 4583   2.115   6.318   4.790
   46CHL1  H27C 4584   1.972   6.256   4.712
   47CHL1    C3 4585   3.957   4.381   6.085
   47CHL1    H3 4586   3.865   4.328   6.052
   47CHL1    O3 4587   4.009   4.301   6.190
   47CHL1   H3' 4588   4.105   4.311   6.196
   47CHL1    C4 4589   4.066   4.382   5.971
   47CHL1   H4A 4590   4.159   4.411   6.024
   47CHL1   H4B 4591   4.066   4.277   5.934
   47CHL1    C5 4592   4.034   4.477   5.863
   47CHL1    C6 4593   4.033   4.435   5.736
   47CHL1    H6 4594   4.061   4.330   5.716
   47CHL1    C7 4595   3.985   4.521   5.621
   47CHL1   H7A 4596   4.057   4.519   5.536
   47CHL1   H7B 4597   3.891   4.469   5.591
   47CHL1    C8 4598   3.971   4.670   5.654
   47CHL1    H8 4599   4.074   4.711   5.654
   47CHL1   C14 4600   3.887   4.735   5.549
   47CHL1   H14 4601   3.785   4.692   5.554
   47CHL1   C15 4602   3.931   4.712   5.404
   47CHL1  H15A 4603   4.040   4.733   5.409
   47CHL1  H15B 4604   3.909   4.610   5.365
   47CHL1   C16 4605   3.862   4.827   5.327
   47CHL1  H16A 4606   3.942   4.872   5.264
   47CHL1  H16B 4607   3.779   4.789   5.264
   47CHL1   C17 4608   3.802   4.925   5.434
   47CHL1   H17 4609   3.697   4.895   5.455
   47CHL1   C13 4610   3.877   4.890   5.560
   47CHL1   C18 4611   4.014   4.958   5.555
   47CHL1  H18A 4612   4.057   4.967   5.454
   47CHL1  H18B 4613   3.995   5.062   5.588
   47CHL1  H18C 4614   4.079   4.906   5.630
   47CHL1   C12 4615   3.813   4.916   5.697
   47CHL1  H12A 4616   3.832   5.020   5.732
   47CHL1  H12B 4617   3.705   4.891   5.688
   47CHL1   C11 4618   3.883   4.841   5.818
   47CHL1  H11A 4619   3.977   4.897   5.837
   47CHL1  H11B 4620   3.815   4.864   5.903
   47CHL1    C9 4621   3.906   4.692   5.794
   47CHL1    H9 4622   3.809   4.638   5.793
   47CHL1   C10 4623   3.983   4.617   5.909
   47CHL1   C19 4624   4.103   4.699   5.949
   47CHL1  H19A 4625   4.094   4.805   5.983
   47CHL1  H19B 4626   4.155   4.642   6.029
   47CHL1  H19C 4627   4.173   4.699   5.862
   47CHL1    C1 4628   3.881   4.609   6.032
   47CHL1   H1A 4629   3.866   4.710   6.077
   47CHL1   H1B 4630   3.795   4.558   5.985
   47CHL1    C2 4631   3.925   4.514   6.147
   47CHL1   H2A 4632   3.838   4.511   6.216
   47CHL1   H2B 4633   4.010   4.556   6.205
   47CHL1   C20 4634   3.798   5.066   5.369
   47CHL1   H20 4635   3.900   5.068   5.325
   47CHL1   C21 4636   3.767   5.171   5.472
   47CHL1  H21A 4637   3.836   5.180   5.558
   47CHL1  H21B 4638   3.667   5.156   5.517
   47CHL1  H21C 4639   3.773   5.267   5.416
   47CHL1   C22 4640   3.704   5.070   5.249
   47CHL1  H22A 4641   3.730   4.985   5.182
   47CHL1  H22B 4642   3.601   5.060   5.290
   47CHL1   C23 4643   3.687   5.206   5.178
   47CHL1  H23A 4644   3.631   5.275   5.245
   47CHL1  H23B 4645   3.787   5.236   5.139
   47CHL1   C24 4646   3.604   5.200   5.045
   47CHL1  H24A 4647   3.644   5.123   4.976
   47CHL1  H24B 4648   3.497   5.175   5.061
   47CHL1   C25 4649   3.597   5.328   4.975
   47CHL1   H25 4650   3.699   5.370   4.964
   47CHL1   C26 4651   3.542   5.304   4.838
   47CHL1  H26A 4652   3.544   5.393   4.772
   47CHL1  H26B 4653   3.605   5.224   4.793
   47CHL1  H26C 4654   3.437   5.270   4.851
   47CHL1   C27 4655   3.513   5.445   5.037
   47CHL1  H27A 4656   3.406   5.420   5.023
   47CHL1  H27B 4657   3.532   5.463   5.146
   47CHL1  H27C 4658   3.533   5.544   4.990
   48CHL1    C3 4659   1.199   5.672   5.960
   48CHL1    H3 4660   1.092   5.700   5.961
   48CHL1    O3 4661   1.240   5.648   6.093
   48CHL1   H3' 4662   1.258   5.737   6.125
   48CHL1    C4 4663   1.205   5.538   5.885
   48CHL1   H4A 4664   1.301   5.483   5.892
   48CHL1   H4B 4665   1.146   5.458   5.935
   48CHL1    C5 4666   1.175   5.550   5.737
   48CHL1    C6 4667   1.074   5.474   5.687
   48CHL1    H6 4668   1.016   5.403   5.748
   48CHL1    C7 4669   1.036   5.473   5.540
   48CHL1   H7A 4670   1.029   5.371   5.497
   48CHL1   H7B 4671   0.935   5.518   5.525
   48CHL1    C8 4672   1.137   5.556   5.453
   48CHL1    H8 4673   1.230   5.497   5.440
   48CHL1   C14 4674   1.081   5.581   5.315
   48CHL1   H14 4675   0.988   5.636   5.342
   48CHL1   C15 4676   1.047   5.458   5.233
   48CHL1  H15A 4677   1.128   5.382   5.232
   48CHL1  H15B 4678   0.963   5.398   5.274
   48CHL1   C16 4679   1.024   5.506   5.091
   48CHL1  H16A 4680   1.072   5.436   5.019
   48CHL1  H16B 4681   0.914   5.513   5.078
   48CHL1   C17 4682   1.089   5.649   5.089
   48CHL1   H17 4683   1.003   5.720   5.090
   48CHL1   C13 4684   1.163   5.669   5.222
   48CHL1   C18 4685   1.308   5.610   5.203
   48CHL1  H18A 4686   1.299   5.507   5.162
   48CHL1  H18B 4687   1.372   5.664   5.130
   48CHL1  H18C 4688   1.358   5.609   5.301
   48CHL1   C12 4689   1.166   5.807   5.292
   48CHL1  H12A 4690   1.225   5.880   5.233
   48CHL1  H12B 4691   1.062   5.848   5.293
   48CHL1   C11 4692   1.229   5.804   5.436
   48CHL1  H11A 4693   1.338   5.786   5.422
   48CHL1  H11B 4694   1.234   5.905   5.482
   48CHL1    C9 4695   1.171   5.692   5.523
   48CHL1    H9 4696   1.068   5.723   5.550
   48CHL1   C10 4697   1.252   5.663   5.658
   48CHL1   C19 4698   1.397   5.606   5.624
   48CHL1  H19A 4699   1.457   5.668   5.554
   48CHL1  H19B 4700   1.453   5.606   5.720
   48CHL1  H19C 4701   1.392   5.505   5.579
   48CHL1    C1 4702   1.246   5.793   5.741
   48CHL1   H1A 4703   1.319   5.867   5.701
   48CHL1   H1B 4704   1.140   5.824   5.744
   48CHL1    C2 4705   1.294   5.774   5.887
   48CHL1   H2A 4706   1.287   5.877   5.930
   48CHL1   H2B 4707   1.396   5.732   5.895
   48CHL1   C20 4708   1.157   5.681   4.952
   48CHL1   H20 4709   1.253   5.627   4.945
   48CHL1   C21 4710   1.194   5.834   4.950
   48CHL1  H21A 4711   1.100   5.893   4.955
   48CHL1  H21B 4712   1.259   5.847   5.039
   48CHL1  H21C 4713   1.244   5.866   4.855
   48CHL1   C22 4714   1.064   5.648   4.832
   48CHL1  H22A 4715   1.048   5.539   4.829
   48CHL1  H22B 4716   0.965   5.697   4.839
   48CHL1   C23 4717   1.121   5.690   4.689
   48CHL1  H23A 4718   1.126   5.801   4.681
   48CHL1  H23B 4719   1.223   5.650   4.671
   48CHL1   C24 4720   1.023   5.635   4.587
   48CHL1  H24A 4721   1.037   5.524   4.588
   48CHL1  H24B 4722   0.921   5.654   4.628
   48CHL1   C25 4723   1.038   5.699   4.450
   48CHL1   H25 4724   1.142   5.717   4.414
   48CHL1   C26 4725   0.968   5.598   4.361
   48CHL1  H26A 4726   0.940   5.650   4.267
   48CHL1  H26B 4727   1.037   5.513   4.342
   48CHL1  H26C 4728   0.871   5.561   4.400
   48CHL1   C27 4729   0.946   5.829   4.437
   48CHL1  H27A 4730   0.981   5.904   4.510
   48CHL1  H27B 4731   0.949   5.866   4.332
   48CHL1  H27C 4732   0.839   5.801   4.447
   49CHL1    C3 4733   4.189   4.129   2.931
   49CHL1    H3 4734   4.083   4.130   2.964
   49CHL1    O3 4735   4.189   4.092   2.795
   49CHL1   H3' 4736   4.279   4.107   2.766
   49CHL1    C4 4737   4.244   4.274   2.958
   49CHL1   H4A 4738   4.346   4.271   2.912
   49CHL1   H4B 4739   4.190   4.346   2.892
   49CHL1    C5 4740   4.260   4.314   3.101
   49CHL1    C6 4741   4.204   4.430   3.145
   49CHL1    H6 4742   4.144   4.491   3.076
   49CHL1    C7 4743   4.224   4.498   3.284
   49CHL1   H7A 4744   4.241   4.608   3.282
   49CHL1   H7B 4745   4.128   4.488   3.340
   49CHL1    C8 4746   4.335   4.419   3.356
   49CHL1    H8 4747   4.436   4.447   3.319
   49CHL1   C14 4748   4.329   4.464   3.508
   49CHL1   H14 4749   4.229   4.430   3.544
   49CHL1   C15 4750   4.334   4.609   3.550
   49CHL1  H15A 4751   4.426   4.656   3.508
   49CHL1  H15B 4752   4.243   4.667   3.525
   49CHL1   C16 4753   4.363   4.608   3.695
   49CHL1  H16A 4754   4.451   4.674   3.714
   49CHL1  H16B 4755   4.273   4.646   3.748
   49CHL1   C17 4756   4.388   4.452   3.732
   49CHL1   H17 4757   4.292   4.402   3.757
   49CHL1   C13 4758   4.422   4.385   3.594
   49CHL1   C18 4759   4.577   4.419   3.570
   49CHL1  H18A 4760   4.592   4.528   3.583
   49CHL1  H18B 4761   4.643   4.363   3.639
   49CHL1  H18C 4762   4.614   4.380   3.472
   49CHL1   C12 4763   4.391   4.237   3.576
   49CHL1  H12A 4764   4.464   4.176   3.633
   49CHL1  H12B 4765   4.291   4.217   3.621
   49CHL1   C11 4766   4.400   4.187   3.437
   49CHL1  H11A 4767   4.506   4.201   3.409
   49CHL1  H11B 4768   4.373   4.079   3.434
   49CHL1    C9 4769   4.319   4.266   3.331
   49CHL1    H9 4770   4.212   4.248   3.351
   49CHL1   C10 4771   4.349   4.220   3.183
   49CHL1   C19 4772   4.498   4.229   3.144
   49CHL1  H19A 4773   4.541   4.330   3.158
   49CHL1  H19B 4774   4.555   4.159   3.209
   49CHL1  H19C 4775   4.520   4.204   3.038
   49CHL1    C1 4776   4.284   4.076   3.156
   49CHL1   H1A 4777   4.367   4.020   3.204
   49CHL1   H1B 4778   4.189   4.060   3.212
   49CHL1    C2 4779   4.268   4.027   3.016
   49CHL1   H2A 4780   4.205   3.936   3.018
   49CHL1   H2B 4781   4.366   4.003   2.968
   49CHL1   C20 4782   4.486   4.445   3.854
   49CHL1   H20 4783   4.590   4.470   3.826
   49CHL1   C21 4784   4.487   4.302   3.913
   49CHL1  H21A 4785   4.499   4.226   3.833
   49CHL1  H21B 4786   4.385   4.286   3.953
   49CHL1  H21C 4787   4.576   4.287   3.977
   49CHL1   C22 4788   4.443   4.542   3.970
   49CHL1  H22A 4789   4.458   4.646   3.935
   49CHL1  H22B 4790   4.332   4.542   3.978
   49CHL1   C23 4791   4.516   4.516   4.105
   49CHL1  H23A 4792   4.489   4.414   4.140
   49CHL1  H23B 4793   4.625   4.533   4.093
   49CHL1   C24 4794   4.474   4.628   4.207
   49CHL1  H24A 4795   4.482   4.730   4.166
   49CHL1  H24B 4796   4.363   4.617   4.212
   49CHL1   C25 4797   4.534   4.607   4.347
   49CHL1   H25 4798   4.644   4.612   4.336
   49CHL1   C26 4799   4.493   4.731   4.426
   49CHL1  H26A 4800   4.387   4.758   4.407
   49CHL1  H26B 4801   4.511   4.711   4.534
   49CHL1  H26C 4802   4.556   4.812   4.386
   49CHL1   C27 4803   4.482   4.481   4.418
   49CHL1  H27A 4804   4.521   4.475   4.521
   49CHL1  H27B 4805   4.371   4.489   4.428
   49CHL1  H27C 4806   4.511   4.380   4.381
   50CHL1    C3 4807   4.004   1.605   2.646
   50CHL1    H3 4808   3.912   1.662   2.619
   50CHL1    O3 4809   4.098   1.595   2.538
   50CHL1   H3' 4810   4.170   1.535   2.560
   50CHL1    C4 4811   4.078   1.657   2.769
   50CHL1   H4A 4812   4.179   1.613   2.783
   50CHL1   H4B 4813   4.094   1.765   2.746
   50CHL1    C5 4814   4.001   1.652   2.902
   50CHL1    C6 4815   3.975   1.760   2.981
   50CHL1    H6 4816   4.019   1.858   2.956
   50CHL1    C7 4817   3.907   1.751   3.115
   50CHL1   H7A 4818   3.983   1.790   3.185
   50CHL1   H7B 4819   3.811   1.806   3.123
   50CHL1    C8 4820   3.871   1.607   3.165
   50CHL1    H8 4821   3.966   1.576   3.214
   50CHL1   C14 4822   3.761   1.607   3.273
   50CHL1   H14 4823   3.668   1.645   3.226
   50CHL1   C15 4824   3.778   1.691   3.406
   50CHL1  H15A 4825   3.885   1.684   3.436
   50CHL1  H15B 4826   3.751   1.794   3.376
   50CHL1   C16 4827   3.688   1.623   3.509
   50CHL1  H16A 4828   3.759   1.592   3.589
   50CHL1  H16B 4829   3.614   1.701   3.537
   50CHL1   C17 4830   3.627   1.493   3.437
   50CHL1   H17 4831   3.536   1.532   3.388
   50CHL1   C13 4832   3.733   1.462   3.325
   50CHL1   C18 4833   3.861   1.409   3.399
   50CHL1  H18A 4834   3.833   1.320   3.459
   50CHL1  H18B 4835   3.937   1.373   3.327
   50CHL1  H18C 4836   3.920   1.483   3.458
   50CHL1   C12 4837   3.687   1.371   3.208
   50CHL1  H12A 4838   3.662   1.268   3.242
   50CHL1  H12B 4839   3.595   1.411   3.161
   50CHL1   C11 4840   3.795   1.373   3.093
   50CHL1  H11A 4841   3.875   1.312   3.140
   50CHL1  H11B 4842   3.756   1.300   3.019
   50CHL1    C9 4843   3.834   1.515   3.051
   50CHL1    H9 4844   3.744   1.568   3.013
   50CHL1   C10 4845   3.939   1.517   2.938
   50CHL1   C19 4846   4.060   1.422   2.973
   50CHL1  H19A 4847   4.030   1.315   2.976
   50CHL1  H19B 4848   4.146   1.417   2.902
   50CHL1  H19C 4849   4.106   1.446   3.072
   50CHL1    C1 4850   3.870   1.468   2.808
   50CHL1   H1A 4851   3.830   1.365   2.822
   50CHL1   H1B 4852   3.777   1.526   2.792
   50CHL1    C2 4853   3.952   1.468   2.683
   50CHL1   H2A 4854   3.891   1.428   2.599
   50CHL1   H2B 4855   4.035   1.395   2.695
   50CHL1   C20 4856   3.588   1.388   3.541
   50CHL1   H20 4857   3.669   1.362   3.614
   50CHL1   C21 4858   3.537   1.262   3.475
   50CHL1  H21A 4859   3.465   1.279   3.393
   50CHL1  H21B 4860   3.474   1.200   3.542
   50CHL1  H21C 4861   3.625   1.196   3.458
   50CHL1   C22 4862   3.472   1.456   3.634
   50CHL1  H22A 4863   3.410   1.524   3.572
   50CHL1  H22B 4864   3.403   1.372   3.656
   50CHL1   C23 4865   3.500   1.525   3.769
   50CHL1  H23A 4866   3.583   1.476   3.823
   50CHL1  H23B 4867   3.543   1.627   3.755
   50CHL1   C24 4868   3.373   1.520   3.855
   50CHL1  H24A 4869   3.295   1.582   3.808
   50CHL1  H24B 4870   3.327   1.419   3.852
   50CHL1   C25 4871   3.391   1.574   4.000
   50CHL1   H25 4872   3.471   1.651   3.995
   50CHL1   C26 4873   3.270   1.643   4.051
   50CHL1  H26A 4874   3.185   1.575   4.074
   50CHL1  H26B 4875   3.294   1.701   4.143
   50CHL1  H26C 4876   3.231   1.717   3.978
   50CHL1   C27 4877   3.432   1.467   4.102
   50CHL1  H27A 4878   3.518   1.420   4.050
   50CHL1  H27B 4879   3.459   1.494   4.206
   50CHL1  H27C 4880   3.353   1.388   4.101
   51CHL1    C3 4881   3.770   2.770   3.114
   51CHL1    H3 4882   3.702   2.849   3.153
   51CHL1    O3 4883   3.766   2.778   2.975
   51CHL1   H3' 4884   3.788   2.870   2.956
   51CHL1    C4 4885   3.911   2.792   3.161
   51CHL1   H4A 4886   3.977   2.714   3.117
   51CHL1   H4B 4887   3.941   2.890   3.117
   51CHL1    C5 4888   3.927   2.781   3.311
   51CHL1    C6 4889   3.984   2.877   3.380
   51CHL1    H6 4890   4.010   2.969   3.325
   51CHL1    C7 4891   4.017   2.870   3.531
   51CHL1   H7A 4892   4.112   2.914   3.568
   51CHL1   H7B 4893   3.934   2.932   3.570
   51CHL1    C8 4894   3.984   2.729   3.589
   51CHL1    H8 4895   4.072   2.662   3.574
   51CHL1   C14 4896   3.965   2.723   3.737
   51CHL1   H14 4897   3.874   2.786   3.750
   51CHL1   C15 4898   4.073   2.790   3.826
   51CHL1  H15A 4899   4.176   2.776   3.786
   51CHL1  H15B 4900   4.069   2.901   3.824
   51CHL1   C16 4901   4.050   2.723   3.967
   51CHL1  H16A 4902   4.139   2.668   4.005
   51CHL1  H16B 4903   4.036   2.795   4.051
   51CHL1   C17 4904   3.927   2.630   3.946
   51CHL1   H17 4905   3.834   2.690   3.950
   51CHL1   C13 4906   3.932   2.588   3.799
   51CHL1   C18 4907   4.050   2.484   3.795
   51CHL1  H18A 4908   4.037   2.389   3.851
   51CHL1  H18B 4909   4.077   2.458   3.690
   51CHL1  H18C 4910   4.150   2.523   3.822
   51CHL1   C12 4911   3.798   2.537   3.742
   51CHL1  H12A 4912   3.799   2.434   3.782
   51CHL1  H12B 4913   3.709   2.589   3.784
   51CHL1   C11 4914   3.817   2.521   3.589
   51CHL1  H11A 4915   3.893   2.447   3.557
   51CHL1  H11B 4916   3.715   2.486   3.565
   51CHL1    C9 4917   3.863   2.655   3.524
   51CHL1    H9 4918   3.777   2.722   3.548
   51CHL1   C10 4919   3.873   2.655   3.372
   51CHL1   C19 4920   3.970   2.539   3.331
   51CHL1  H19A 4921   3.992   2.542   3.223
   51CHL1  H19B 4922   4.064   2.538   3.390
   51CHL1  H19C 4923   3.920   2.441   3.352
   51CHL1    C1 4924   3.727   2.628   3.317
   51CHL1   H1A 4925   3.706   2.524   3.349
   51CHL1   H1B 4926   3.661   2.703   3.367
   51CHL1    C2 4927   3.715   2.634   3.160
   51CHL1   H2A 4928   3.611   2.623   3.123
   51CHL1   H2B 4929   3.776   2.550   3.118
   51CHL1   C20 4930   3.911   2.520   4.055
   51CHL1   H20 4931   3.857   2.434   4.010
   51CHL1   C21 4932   3.802   2.572   4.163
   51CHL1  H21A 4933   3.762   2.499   4.236
   51CHL1  H21B 4934   3.711   2.605   4.109
   51CHL1  H21C 4935   3.850   2.655   4.220
   51CHL1   C22 4936   4.039   2.449   4.108
   51CHL1  H22A 4937   4.120   2.415   4.040
   51CHL1  H22B 4938   4.072   2.524   4.183
   51CHL1   C23 4939   4.008   2.329   4.195
   51CHL1  H23A 4940   3.930   2.358   4.268
   51CHL1  H23B 4941   3.964   2.249   4.131
   51CHL1   C24 4942   4.134   2.277   4.266
   51CHL1  H24A 4943   4.214   2.250   4.194
   51CHL1  H24B 4944   4.185   2.364   4.314
   51CHL1   C25 4945   4.103   2.152   4.360
   51CHL1   H25 4946   3.998   2.138   4.393
   51CHL1   C26 4947   4.142   2.016   4.296
   51CHL1  H26A 4948   4.244   2.004   4.253
   51CHL1  H26B 4949   4.125   1.934   4.368
   51CHL1  H26C 4950   4.069   1.993   4.215
   51CHL1   C27 4951   4.206   2.163   4.479
   51CHL1  H27A 4952   4.207   2.077   4.549
   51CHL1  H27B 4953   4.303   2.191   4.432
   51CHL1  H27C 4954   4.177   2.254   4.536
   52CHL1    C3 4955   3.160   3.961   3.058
   52CHL1    H3 4956   3.056   3.953   3.097
   52CHL1    O3 4957   3.164   3.951   2.916
   52CHL1   H3' 4958   3.164   3.858   2.893
   52CHL1    C4 4959   3.218   4.089   3.108
   52CHL1   H4A 4960   3.322   4.112   3.078
   52CHL1   H4B 4961   3.163   4.173   3.061
   52CHL1    C5 4962   3.214   4.099   3.259
   52CHL1    C6 4963   3.150   4.201   3.317
   52CHL1    H6 4964   3.095   4.273   3.254
   52CHL1    C7 4965   3.155   4.230   3.462
   52CHL1   H7A 4966   3.166   4.338   3.481
   52CHL1   H7B 4967   3.055   4.204   3.504
   52CHL1    C8 4968   3.253   4.136   3.541
   52CHL1    H8 4969   3.353   4.179   3.522
   52CHL1   C14 4970   3.223   4.138   3.685
   52CHL1   H14 4971   3.127   4.084   3.702
   52CHL1   C15 4972   3.200   4.279   3.745
   52CHL1  H15A 4973   3.295   4.335   3.734
   52CHL1  H15B 4974   3.107   4.334   3.719
   52CHL1   C16 4975   3.183   4.241   3.893
   52CHL1  H16A 4976   3.213   4.317   3.969
   52CHL1  H16B 4977   3.075   4.223   3.912
   52CHL1   C17 4978   3.265   4.107   3.908
   52CHL1   H17 4979   3.183   4.036   3.932
   52CHL1   C13 4980   3.332   4.081   3.771
   52CHL1   C18 4981   3.476   4.140   3.751
   52CHL1  H18A 4982   3.466   4.246   3.780
   52CHL1  H18B 4983   3.559   4.095   3.809
   52CHL1  H18C 4984   3.511   4.115   3.648
   52CHL1   C12 4985   3.345   3.927   3.738
   52CHL1  H12A 4986   3.431   3.891   3.798
   52CHL1  H12B 4987   3.271   3.860   3.786
   52CHL1   C11 4988   3.366   3.911   3.582
   52CHL1  H11A 4989   3.467   3.944   3.552
   52CHL1  H11B 4990   3.358   3.801   3.565
   52CHL1    C9 4991   3.262   3.991   3.491
   52CHL1    H9 4992   3.160   3.948   3.506
   52CHL1   C10 4993   3.287   3.985   3.338
   52CHL1   C19 4994   3.437   3.991   3.295
   52CHL1  H19A 4995   3.445   3.955   3.191
   52CHL1  H19B 4996   3.464   4.098   3.309
   52CHL1  H19C 4997   3.498   3.917   3.351
   52CHL1    C1 4998   3.237   3.849   3.284
   52CHL1   H1A 4999   3.304   3.766   3.315
   52CHL1   H1B 5000   3.133   3.827   3.315
   52CHL1    C2 5001   3.229   3.842   3.124
   52CHL1   H2A 5002   3.172   3.749   3.103
   52CHL1   H2B 5003   3.332   3.829   3.083
   52CHL1   C20 5004   3.355   4.089   4.032
   52CHL1   H20 5005   3.430   4.011   4.005
   52CHL1   C21 5006   3.264   4.030   4.145
   52CHL1  H21A 5007   3.207   3.940   4.111
   52CHL1  H21B 5008   3.196   4.107   4.186
   52CHL1  H21C 5009   3.327   3.997   4.230
   52CHL1   C22 5010   3.435   4.212   4.080
   52CHL1  H22A 5011   3.476   4.273   3.996
   52CHL1  H22B 5012   3.378   4.275   4.151
   52CHL1   C23 5013   3.569   4.183   4.164
   52CHL1  H23A 5014   3.586   4.279   4.217
   52CHL1  H23B 5015   3.533   4.118   4.246
   52CHL1   C24 5016   3.675   4.140   4.072
   52CHL1  H24A 5017   3.650   4.043   4.024
   52CHL1  H24B 5018   3.693   4.228   4.006
   52CHL1   C25 5019   3.801   4.138   4.158
   52CHL1   H25 5020   3.821   4.245   4.181
   52CHL1   C26 5021   3.800   4.059   4.286
   52CHL1  H26A 5022   3.727   4.092   4.363
   52CHL1  H26B 5023   3.783   3.949   4.276
   52CHL1  H26C 5024   3.899   4.069   4.335
   52CHL1   C27 5025   3.917   4.080   4.072
   52CHL1  H27A 5026   3.911   3.969   4.076
   52CHL1  H27B 5027   3.915   4.122   3.969
   52CHL1  H27C 5028   4.015   4.111   4.113
   53CHL1    C3 5029   3.311   3.202   2.985
   53CHL1    H3 5030   3.313   3.300   3.036
   53CHL1    O3 5031   3.294   3.225   2.852
   53CHL1   H3' 5032   3.227   3.294   2.859
   53CHL1    C4 5033   3.446   3.143   3.011
   53CHL1   H4A 5034   3.455   3.048   2.953
   53CHL1   H4B 5035   3.524   3.216   2.981
   53CHL1    C5 5036   3.473   3.107   3.157
   53CHL1    C6 5037   3.569   3.165   3.227
   53CHL1    H6 5038   3.634   3.235   3.172
   53CHL1    C7 5039   3.596   3.129   3.368
   53CHL1   H7A 5040   3.702   3.103   3.388
   53CHL1   H7B 5041   3.579   3.218   3.431
   53CHL1    C8 5042   3.516   3.006   3.425
   53CHL1    H8 5043   3.556   2.913   3.381
   53CHL1   C14 5044   3.521   3.003   3.577
   53CHL1   H14 5045   3.470   3.096   3.611
   53CHL1   C15 5046   3.660   2.993   3.646
   53CHL1  H15A 5047   3.726   2.921   3.594
   53CHL1  H15B 5048   3.716   3.087   3.631
   53CHL1   C16 5049   3.619   2.960   3.794
   53CHL1  H16A 5050   3.667   2.868   3.834
   53CHL1  H16B 5051   3.647   3.049   3.855
   53CHL1   C17 5052   3.467   2.931   3.800
   53CHL1   H17 5053   3.409   3.024   3.814
   53CHL1   C13 5054   3.430   2.898   3.648
   53CHL1   C18 5055   3.471   2.756   3.615
   53CHL1  H18A 5056   3.401   2.686   3.664
   53CHL1  H18B 5057   3.464   2.738   3.506
   53CHL1  H18C 5058   3.570   2.735   3.661
   53CHL1   C12 5059   3.281   2.923   3.603
   53CHL1  H12A 5060   3.222   2.834   3.632
   53CHL1  H12B 5061   3.256   3.025   3.639
   53CHL1   C11 5062   3.275   2.925   3.451
   53CHL1  H11A 5063   3.297   2.823   3.411
   53CHL1  H11B 5064   3.178   2.957   3.406
   53CHL1    C9 5065   3.377   3.024   3.382
   53CHL1    H9 5066   3.340   3.121   3.421
   53CHL1   C10 5067   3.362   3.025   3.227
   53CHL1   C19 5068   3.373   2.879   3.177
   53CHL1  H19A 5069   3.474   2.835   3.188
   53CHL1  H19B 5070   3.304   2.808   3.228
   53CHL1  H19C 5071   3.346   2.881   3.070
   53CHL1    C1 5072   3.227   3.078   3.185
   53CHL1   H1A 5073   3.142   3.010   3.207
   53CHL1   H1B 5074   3.203   3.170   3.243
   53CHL1    C2 5075   3.204   3.110   3.037
   53CHL1   H2A 5076   3.101   3.149   3.024
   53CHL1   H2B 5077   3.217   3.022   2.971
   53CHL1   C20 5078   3.426   2.839   3.916
   53CHL1   H20 5079   3.484   2.748   3.892
   53CHL1   C21 5080   3.276   2.797   3.916
   53CHL1  H21A 5081   3.198   2.875   3.932
   53CHL1  H21B 5082   3.270   2.727   4.002
   53CHL1  H21C 5083   3.249   2.738   3.826
   53CHL1   C22 5084   3.465   2.896   4.054
   53CHL1  H22A 5085   3.437   2.821   4.131
   53CHL1  H22B 5086   3.575   2.903   4.061
   53CHL1   C23 5087   3.397   3.028   4.099
   53CHL1  H23A 5088   3.409   3.112   4.027
   53CHL1  H23B 5089   3.290   2.998   4.102
   53CHL1   C24 5090   3.440   3.066   4.240
   53CHL1  H24A 5091   3.440   2.973   4.300
   53CHL1  H24B 5092   3.545   3.103   4.244
   53CHL1   C25 5093   3.346   3.171   4.315
   53CHL1   H25 5094   3.240   3.138   4.311
   53CHL1   C26 5095   3.389   3.198   4.458
   53CHL1  H26A 5096   3.389   3.110   4.526
   53CHL1  H26B 5097   3.491   3.242   4.457
   53CHL1  H26C 5098   3.326   3.282   4.495
   53CHL1   C27 5099   3.368   3.298   4.226
   53CHL1  H27A 5100   3.336   3.289   4.120
   53CHL1  H27B 5101   3.310   3.381   4.271
   53CHL1  H27C 5102   3.475   3.328   4.231
   54CHL1    C3 5103   2.547   3.160   3.227
   54CHL1    H3 5104   2.577   3.264   3.255
   54CHL1    O3 5105   2.512   3.161   3.090
   54CHL1   H3' 5106   2.587   3.143   3.033
   54CHL1    C4 5107   2.665   3.064   3.254
   54CHL1   H4A 5108   2.626   2.962   3.233
   54CHL1   H4B 5109   2.750   3.096   3.190
   54CHL1    C5 5110   2.710   3.074   3.401
   54CHL1    C6 5111   2.836   3.109   3.438
   54CHL1    H6 5112   2.904   3.123   3.352
   54CHL1    C7 5113   2.889   3.114   3.577
   54CHL1   H7A 5114   2.990   3.066   3.579
   54CHL1   H7B 5115   2.911   3.220   3.600
   54CHL1    C8 5116   2.793   3.046   3.672
   54CHL1    H8 5117   2.802   2.936   3.656
   54CHL1   C14 5118   2.839   3.075   3.814
   54CHL1   H14 5119   2.842   3.185   3.828
   54CHL1   C15 5120   2.980   3.026   3.859
   54CHL1  H15A 5121   2.993   2.921   3.825
   54CHL1  H15B 5122   3.066   3.086   3.823
   54CHL1   C16 5123   2.969   3.024   4.016
   54CHL1  H16A 5124   3.007   2.926   4.053
   54CHL1  H16B 5125   3.035   3.108   4.046
   54CHL1   C17 5126   2.820   3.057   4.045
   54CHL1   H17 5127   2.819   3.167   4.056
   54CHL1   C13 5128   2.741   3.021   3.922
   54CHL1   C18 5129   2.729   2.867   3.899
   54CHL1  H18A 5130   2.707   2.833   3.796
   54CHL1  H18B 5131   2.814   2.806   3.937
   54CHL1  H18C 5132   2.635   2.848   3.955
   54CHL1   C12 5133   2.611   3.102   3.903
   54CHL1  H12A 5134   2.524   3.087   3.970
   54CHL1  H12B 5135   2.635   3.210   3.895
   54CHL1   C11 5136   2.552   3.062   3.765
   54CHL1  H11A 5137   2.523   2.955   3.773
   54CHL1  H11B 5138   2.457   3.111   3.735
   54CHL1    C9 5139   2.648   3.093   3.647
   54CHL1    H9 5140   2.654   3.204   3.644
   54CHL1   C10 5141   2.594   3.052   3.502
   54CHL1   C19 5142   2.548   2.908   3.504
   54CHL1  H19A 5143   2.451   2.893   3.554
   54CHL1  H19B 5144   2.536   2.869   3.400
   54CHL1  H19C 5145   2.619   2.832   3.544
   54CHL1    C1 5146   2.469   3.138   3.469
   54CHL1   H1A 5147   2.377   3.109   3.524
   54CHL1   H1B 5148   2.482   3.247   3.488
   54CHL1    C2 5149   2.431   3.124   3.321
   54CHL1   H2A 5150   2.353   3.198   3.294
   54CHL1   H2B 5151   2.398   3.022   3.290
   54CHL1   C20 5152   2.781   2.985   4.176
   54CHL1   H20 5153   2.783   2.878   4.147
   54CHL1   C21 5154   2.629   3.017   4.220
   54CHL1  H21A 5155   2.620   3.127   4.219
   54CHL1  H21B 5156   2.613   2.988   4.326
   54CHL1  H21C 5157   2.552   2.965   4.159
   54CHL1   C22 5158   2.875   2.996   4.296
   54CHL1  H22A 5159   2.836   2.911   4.358
   54CHL1  H22B 5160   2.974   2.968   4.254
   54CHL1   C23 5161   2.875   3.131   4.364
   54CHL1  H23A 5162   2.967   3.172   4.318
   54CHL1  H23B 5163   2.788   3.187   4.323
   54CHL1   C24 5164   2.875   3.127   4.514
   54CHL1  H24A 5165   2.776   3.085   4.543
   54CHL1  H24B 5166   2.965   3.068   4.540
   54CHL1   C25 5167   2.885   3.261   4.582
   54CHL1   H25 5168   2.815   3.329   4.530
   54CHL1   C26 5169   2.845   3.259   4.728
   54CHL1  H26A 5170   2.837   3.363   4.767
   54CHL1  H26B 5171   2.743   3.215   4.737
   54CHL1  H26C 5172   2.914   3.194   4.785
   54CHL1   C27 5173   3.024   3.322   4.548
   54CHL1  H27A 5174   3.028   3.429   4.578
   54CHL1  H27B 5175   3.107   3.266   4.595
   54CHL1  H27C 5176   3.046   3.333   4.440
   55CHL1    C3 5177   3.800   5.923   2.809
   55CHL1    H3 5178   3.694   5.899   2.833
   55CHL1    O3 5179   3.792   5.928   2.664
   55CHL1   H3' 5180   3.871   5.887   2.629
   55CHL1    C4 5181   3.833   6.069   2.847
   55CHL1   H4A 5182   3.930   6.095   2.798
   55CHL1   H4B 5183   3.755   6.140   2.811
   55CHL1    C5 5184   3.839   6.072   2.997
   55CHL1    C6 5185   3.768   6.161   3.061
   55CHL1    H6 5186   3.705   6.236   3.010
   55CHL1    C7 5187   3.769   6.172   3.211
   55CHL1   H7A 5188   3.766   6.278   3.244
   55CHL1   H7B 5189   3.680   6.122   3.255
   55CHL1    C8 5190   3.885   6.096   3.279
   55CHL1    H8 5191   3.976   6.160   3.272
   55CHL1   C14 5192   3.853   6.073   3.425
   55CHL1   H14 5193   3.761   6.011   3.431
   55CHL1   C15 5194   3.825   6.193   3.516
   55CHL1  H15A 5195   3.902   6.270   3.495
   55CHL1  H15B 5196   3.730   6.244   3.488
   55CHL1   C16 5197   3.833   6.128   3.658
   55CHL1  H16A 5198   3.869   6.205   3.730
   55CHL1  H16B 5199   3.728   6.120   3.694
   55CHL1   C17 5200   3.913   5.991   3.646
   55CHL1   H17 5201   3.834   5.914   3.656
   55CHL1   C13 5202   3.968   5.999   3.502
   55CHL1   C18 5203   4.094   6.084   3.510
   55CHL1  H18A 5204   4.179   6.037   3.563
   55CHL1  H18B 5205   4.130   6.123   3.412
   55CHL1  H18C 5206   4.075   6.174   3.572
   55CHL1   C12 5207   3.994   5.869   3.438
   55CHL1  H12A 5208   4.082   5.824   3.489
   55CHL1  H12B 5209   3.905   5.806   3.462
   55CHL1   C11 5210   4.025   5.890   3.289
   55CHL1  H11A 5211   4.108   5.964   3.283
   55CHL1  H11B 5212   4.043   5.794   3.236
   55CHL1    C9 5213   3.918   5.966   3.209
   55CHL1    H9 5214   3.827   5.904   3.227
   55CHL1   C10 5215   3.938   5.973   3.058
   55CHL1   C19 5216   4.083   6.029   3.036
   55CHL1  H19A 5217   4.109   6.026   2.927
   55CHL1  H19B 5218   4.085   6.125   3.090
   55CHL1  H19C 5219   4.161   5.960   3.075
   55CHL1    C1 5220   3.926   5.830   2.997
   55CHL1   H1A 5221   4.020   5.774   3.019
   55CHL1   H1B 5222   3.835   5.795   3.051
   55CHL1    C2 5223   3.905   5.827   2.844
   55CHL1   H2A 5224   3.879   5.724   2.812
   55CHL1   H2B 5225   4.000   5.858   2.794
   55CHL1   C20 5226   4.008   5.975   3.767
   55CHL1   H20 5227   4.078   6.061   3.765
   55CHL1   C21 5228   4.075   5.833   3.763
   55CHL1  H21A 5229   4.152   5.829   3.683
   55CHL1  H21B 5230   4.002   5.750   3.753
   55CHL1  H21C 5231   4.118   5.810   3.863
   55CHL1   C22 5232   3.928   5.989   3.904
   55CHL1  H22A 5233   3.865   6.081   3.904
   55CHL1  H22B 5234   3.867   5.896   3.907
   55CHL1   C23 5235   4.023   5.997   4.023
   55CHL1  H23A 5236   4.049   5.894   4.052
   55CHL1  H23B 5237   4.111   6.053   3.983
   55CHL1   C24 5238   3.969   6.082   4.137
   55CHL1  H24A 5239   3.965   6.189   4.107
   55CHL1  H24B 5240   3.876   6.038   4.179
   55CHL1   C25 5241   4.078   6.088   4.258
   55CHL1   H25 5242   4.177   6.118   4.217
   55CHL1   C26 5243   4.026   6.191   4.364
   55CHL1  H26A 5244   4.106   6.208   4.439
   55CHL1  H26B 5245   4.018   6.292   4.320
   55CHL1  H26C 5246   3.933   6.167   4.420
   55CHL1   C27 5247   4.094   5.951   4.328
   55CHL1  H27A 5248   3.987   5.927   4.346
   55CHL1  H27B 5249   4.146   5.882   4.259
   55CHL1  H27C 5250   4.144   5.952   4.427
   56CHL1    C3 5251   5.780   1.843   2.831
   56CHL1    H3 5252   5.695   1.913   2.838
   56CHL1    O3 5253   5.831   1.846   2.699
   56CHL1   H3' 5254   5.772   1.789   2.648
   56CHL1    C4 5255   5.893   1.897   2.924
   56CHL1   H4A 5256   5.983   1.838   2.897
   56CHL1   H4B 5257   5.908   2.004   2.897
   56CHL1    C5 5258   5.857   1.883   3.068
   56CHL1    C6 5259   5.854   1.992   3.146
   56CHL1    H6 5260   5.870   2.091   3.102
   56CHL1    C7 5261   5.825   1.985   3.289
   56CHL1   H7A 5262   5.897   2.049   3.345
   56CHL1   H7B 5263   5.720   2.009   3.314
   56CHL1    C8 5264   5.818   1.841   3.351
   56CHL1    H8 5265   5.921   1.799   3.350
   56CHL1   C14 5266   5.775   1.852   3.493
   56CHL1   H14 5267   5.669   1.885   3.507
   56CHL1   C15 5268   5.845   1.947   3.594
   56CHL1  H15A 5269   5.953   1.934   3.570
   56CHL1  H15B 5270   5.828   2.055   3.574
   56CHL1   C16 5271   5.804   1.891   3.725
   56CHL1  H16A 5272   5.888   1.869   3.794
   56CHL1  H16B 5273   5.739   1.960   3.783
   56CHL1   C17 5274   5.717   1.761   3.698
   56CHL1   H17 5275   5.608   1.781   3.691
   56CHL1   C13 5276   5.762   1.713   3.565
   56CHL1   C18 5277   5.905   1.648   3.582
   56CHL1  H18A 5278   5.953   1.628   3.485
   56CHL1  H18B 5279   5.973   1.719   3.633
   56CHL1  H18C 5280   5.900   1.554   3.642
   56CHL1   C12 5281   5.665   1.621   3.477
   56CHL1  H12A 5282   5.646   1.519   3.514
   56CHL1  H12B 5283   5.568   1.675   3.478
   56CHL1   C11 5284   5.707   1.609   3.335
   56CHL1  H11A 5285   5.797   1.545   3.322
   56CHL1  H11B 5286   5.624   1.564   3.275
   56CHL1    C9 5287   5.734   1.746   3.261
   56CHL1    H9 5288   5.637   1.795   3.243
   56CHL1   C10 5289   5.811   1.743   3.117
   56CHL1   C19 5290   5.948   1.662   3.107
   56CHL1  H19A 5291   6.031   1.682   3.178
   56CHL1  H19B 5292   5.926   1.556   3.131
   56CHL1  H19C 5293   5.979   1.665   3.001
   56CHL1    C1 5294   5.705   1.688   3.013
   56CHL1   H1A 5295   5.682   1.581   3.030
   56CHL1   H1B 5296   5.606   1.733   3.037
   56CHL1    C2 5297   5.731   1.711   2.865
   56CHL1   H2A 5298   5.636   1.677   2.820
   56CHL1   H2B 5299   5.805   1.634   2.835
   56CHL1   C20 5300   5.712   1.669   3.827
   56CHL1   H20 5301   5.813   1.625   3.848
   56CHL1   C21 5302   5.620   1.559   3.790
   56CHL1  H21A 5303   5.526   1.604   3.752
   56CHL1  H21B 5304   5.593   1.492   3.874
   56CHL1  H21C 5305   5.677   1.494   3.720
   56CHL1   C22 5306   5.674   1.736   3.960
   56CHL1  H22A 5307   5.744   1.817   3.990
   56CHL1  H22B 5308   5.567   1.767   3.955
   56CHL1   C23 5309   5.673   1.638   4.081
   56CHL1  H23A 5310   5.609   1.550   4.057
   56CHL1  H23B 5311   5.773   1.594   4.101
   56CHL1   C24 5312   5.632   1.709   4.210
   56CHL1  H24A 5313   5.690   1.804   4.209
   56CHL1  H24B 5314   5.528   1.748   4.203
   56CHL1   C25 5315   5.645   1.632   4.344
   56CHL1   H25 5316   5.601   1.704   4.416
   56CHL1   C26 5317   5.556   1.506   4.334
   56CHL1  H26A 5318   5.455   1.541   4.302
   56CHL1  H26B 5319   5.597   1.433   4.261
   56CHL1  H26C 5320   5.557   1.461   4.436
   56CHL1   C27 5321   5.786   1.620   4.385
   56CHL1  H27A 5322   5.793   1.594   4.493
   56CHL1  H27B 5323   5.821   1.529   4.332
   56CHL1  H27C 5324   5.852   1.708   4.375
   57CHL1    C3 5325   4.511   6.824   2.820
   57CHL1    H3 5326   4.530   0.094   2.836
   57CHL1    O3 5327   4.521   6.791   2.684
   57CHL1   H3' 5328   4.517   6.697   2.666
   57CHL1    C4 5329   4.622   6.745   2.897
   57CHL1   H4A 5330   4.618   6.638   2.868
   57CHL1   H4B 5331   4.719   6.765   2.847
   57CHL1    C5 5332   4.617   6.760   3.048
   57CHL1    C6 5333   4.730   6.786   3.115
   57CHL1    H6 5334   4.831   6.789   3.071
   57CHL1    C7 5335   4.737   6.821   3.260
   57CHL1   H7A 5336   4.819   6.767   3.311
   57CHL1   H7B 5337   4.758   0.092   3.265
   57CHL1    C8 5338   4.603   6.791   3.336
   57CHL1    H8 5339   4.600   6.681   3.353
   57CHL1   C14 5340   4.602   0.032   3.462
   57CHL1   H14 5341   4.599   0.140   3.437
   57CHL1   C15 5342   4.722   0.011   3.552
   57CHL1  H15A 5343   4.736   6.741   3.570
   57CHL1  H15B 5344   4.811   0.055   3.502
   57CHL1   C16 5345   4.682   0.085   3.677
   57CHL1  H16A 5346   4.709   0.043   3.776
   57CHL1  H16B 5347   4.727   0.186   3.674
   57CHL1   C17 5348   4.526   0.095   3.671
   57CHL1   H17 5349   4.491   0.197   3.645
   57CHL1   C13 5350   4.479   0.007   3.553
   57CHL1   C18 5351   4.473   6.695   3.595
   57CHL1  H18A 5352   4.377   6.668   3.646
   57CHL1  H18B 5353   4.490   6.629   3.508
   57CHL1  H18C 5354   4.552   6.681   3.672
   57CHL1   C12 5355   4.354   0.043   3.471
   57CHL1  H12A 5356   4.272   0.012   3.539
   57CHL1  H12B 5357   4.335   0.150   3.451
   57CHL1   C11 5358   4.355   6.810   3.340
   57CHL1  H11A 5359   4.348   6.700   3.355
   57CHL1  H11B 5360   4.260   6.822   3.284
   57CHL1    C9 5361   4.476   6.828   3.252
   57CHL1    H9 5362   4.489   0.098   3.235
   57CHL1   C10 5363   4.475   6.756   3.110
   57CHL1   C19 5364   4.465   6.607   3.132
   57CHL1  H19A 5365   4.516   6.550   3.212
   57CHL1  H19B 5366   4.359   6.585   3.155
   57CHL1  H19C 5367   4.471   6.545   3.040
   57CHL1    C1 5368   4.361   6.808   3.027
   57CHL1   H1A 5369   4.263   6.787   3.076
   57CHL1   H1B 5370   4.366   0.080   3.036
   57CHL1    C2 5371   4.371   6.784   2.871
   57CHL1   H2A 5372   4.293   0.000   2.815
   57CHL1   H2B 5373   4.339   6.678   2.871
   57CHL1   C20 5374   4.451   0.070   3.809
   57CHL1   H20 5375   4.474   6.804   3.839
   57CHL1   C21 5376   4.306   0.086   3.789
   57CHL1  H21A 5377   4.248   6.837   3.751
   57CHL1  H21B 5378   4.277   0.176   3.731
   57CHL1  H21C 5379   4.256   0.113   3.885
   57CHL1   C22 5380   4.493   0.161   3.932
   57CHL1  H22A 5381   4.449   0.112   4.022
   57CHL1  H22B 5382   4.603   0.169   3.942
   57CHL1   C23 5383   4.456   0.307   3.921
   57CHL1  H23A 5384   4.502   0.355   3.831
   57CHL1  H23B 5385   4.345   0.320   3.917
   57CHL1   C24 5386   4.512   0.392   4.042
   57CHL1  H24A 5387   4.456   0.362   4.133
   57CHL1  H24B 5388   4.619   0.359   4.043
   57CHL1   C25 5389   4.513   0.546   4.031
   57CHL1   H25 5390   4.410   0.589   4.034
   57CHL1   C26 5391   4.588   0.608   4.155
   57CHL1  H26A 5392   4.591   0.719   4.149
   57CHL1  H26B 5393   4.525   0.576   4.240
   57CHL1  H26C 5394   4.691   0.569   4.168
   57CHL1   C27 5395   4.567   0.598   3.891
   57CHL1  H27A 5396   4.676   0.578   3.889
   57CHL1  H27B 5397   4.523   0.564   3.795
   57CHL1  H27C 5398   4.539   0.706   3.897
   58CHL1    C3 5399   4.541   0.425   2.584
   58CHL1    H3 5400   4.631   0.488   2.598
   58CHL1    O3 5401   4.545   0.368   2.451
   58CHL1   H3' 5402   4.533   0.440   2.389
   58CHL1    C4 5403   4.534   0.317   2.686
   58CHL1   H4A 5404   4.451   0.254   2.647
   58CHL1   H4B 5405   4.617   0.243   2.684
   58CHL1    C5 5406   4.511   0.368   2.827
   58CHL1    C6 5407   4.596   0.334   2.925
   58CHL1    H6 5408   4.683   0.270   2.901
   58CHL1    C7 5409   4.583   0.369   3.071
   58CHL1   H7A 5410   4.610   0.281   3.133
   58CHL1   H7B 5411   4.660   0.444   3.098
   58CHL1    C8 5412   4.441   0.428   3.100
   58CHL1    H8 5413   4.382   0.334   3.102
   58CHL1   C14 5414   4.436   0.488   3.237
   58CHL1   H14 5415   4.484   0.588   3.237
   58CHL1   C15 5416   4.498   0.414   3.358
   58CHL1  H15A 5417   4.474   0.306   3.360
   58CHL1  H15B 5418   4.608   0.430   3.362
   58CHL1   C16 5419   4.445   0.485   3.481
   58CHL1  H16A 5420   4.405   0.414   3.557
   58CHL1  H16B 5421   4.528   0.542   3.526
   58CHL1   C17 5422   4.333   0.583   3.430
   58CHL1   H17 5423   4.389   0.679   3.419
   58CHL1   C13 5424   4.299   0.537   3.288
   58CHL1   C18 5425   4.208   0.416   3.295
   58CHL1  H18A 5426   4.194   0.365   3.197
   58CHL1  H18B 5427   4.253   0.337   3.359
   58CHL1  H18C 5428   4.104   0.432   3.329
   58CHL1   C12 5429   4.252   0.654   3.191
   58CHL1  H12A 5430   4.146   0.679   3.213
   58CHL1  H12B 5431   4.311   0.748   3.197
   58CHL1   C11 5432   4.258   0.596   3.042
   58CHL1  H11A 5433   4.180   0.517   3.032
   58CHL1  H11B 5434   4.232   0.684   2.980
   58CHL1    C9 5435   4.396   0.528   2.995
   58CHL1    H9 5436   4.477   0.604   2.995
   58CHL1   C10 5437   4.393   0.464   2.849
   58CHL1   C19 5438   4.258   0.384   2.835
   58CHL1  H19A 5439   4.239   0.326   2.743
   58CHL1  H19B 5440   4.253   0.307   2.915
   58CHL1  H19C 5441   4.178   0.460   2.844
   58CHL1    C1 5442   4.393   0.576   2.743
   58CHL1   H1A 5443   4.297   0.631   2.748
   58CHL1   H1B 5444   4.467   0.654   2.769
   58CHL1    C2 5445   4.417   0.519   2.600
   58CHL1   H2A 5446   4.439   0.608   2.538
   58CHL1   H2B 5447   4.324   0.464   2.574
   58CHL1   C20 5448   4.222   0.604   3.535
   58CHL1   H20 5449   4.173   0.507   3.560
   58CHL1   C21 5450   4.109   0.681   3.477
   58CHL1  H21A 5451   4.047   0.625   3.404
   58CHL1  H21B 5452   4.153   0.776   3.439
   58CHL1  H21C 5453   4.028   0.718   3.543
   58CHL1   C22 5454   4.275   0.657   3.673
   58CHL1  H22A 5455   4.340   0.587   3.730
   58CHL1  H22B 5456   4.347   0.739   3.650
   58CHL1   C23 5457   4.165   0.700   3.772
   58CHL1  H23A 5458   4.213   0.762   3.850
   58CHL1  H23B 5459   4.102   0.776   3.722
   58CHL1   C24 5460   4.087   0.590   3.844
   58CHL1  H24A 5461   3.992   0.554   3.799
   58CHL1  H24B 5462   4.146   0.496   3.850
   58CHL1   C25 5463   4.063   0.628   3.995
   58CHL1   H25 5464   4.158   0.673   4.032
   58CHL1   C26 5465   3.954   0.739   3.997
   58CHL1  H26A 5466   3.881   0.709   3.918
   58CHL1  H26B 5467   3.908   0.730   4.098
   58CHL1  H26C 5468   3.993   0.840   3.973
   58CHL1   C27 5469   4.016   0.505   4.070
   58CHL1  H27A 5470   4.093   0.425   4.070
   58CHL1  H27B 5471   4.011   0.528   4.178
   58CHL1  H27C 5472   3.923   0.461   4.027
   59CHL1    C3 5473   2.889   4.640   2.932
   59CHL1    H3 5474   2.821   4.557   2.963
   59CHL1    O3 5475   2.894   4.650   2.792
   59CHL1   H3' 5476   2.943   4.575   2.758
   59CHL1    C4 5477   2.830   4.774   2.985
   59CHL1   H4A 5478   2.880   4.861   2.936
   59CHL1   H4B 5479   2.724   4.779   2.950
   59CHL1    C5 5480   2.838   4.791   3.140
   59CHL1    C6 5481   2.738   4.821   3.222
   59CHL1    H6 5482   2.634   4.833   3.187
   59CHL1    C7 5483   2.755   4.836   3.372
   59CHL1   H7A 5484   2.694   4.926   3.396
   59CHL1   H7B 5485   2.697   4.759   3.428
   59CHL1    C8 5486   2.898   4.846   3.419
   59CHL1    H8 5487   2.936   4.943   3.380
   59CHL1   C14 5488   2.896   4.847   3.569
   59CHL1   H14 5489   2.854   4.749   3.601
   59CHL1   C15 5490   2.803   4.944   3.639
   59CHL1  H15A 5491   2.808   5.045   3.595
   59CHL1  H15B 5492   2.697   4.912   3.642
   59CHL1   C16 5493   2.852   4.940   3.790
   59CHL1  H16A 5494   2.885   5.037   3.833
   59CHL1  H16B 5495   2.769   4.910   3.857
   59CHL1   C17 5496   2.978   4.845   3.793
   59CHL1   H17 5497   2.943   4.740   3.807
   59CHL1   C13 5498   3.032   4.842   3.644
   59CHL1   C18 5499   3.110   4.970   3.613
   59CHL1  H18A 5500   3.130   4.991   3.506
   59CHL1  H18B 5501   3.054   5.057   3.653
   59CHL1  H18C 5502   3.207   4.974   3.668
   59CHL1   C12 5503   3.117   4.723   3.593
   59CHL1  H12A 5504   3.223   4.745   3.618
   59CHL1  H12B 5505   3.071   4.634   3.641
   59CHL1   C11 5506   3.118   4.716   3.438
   59CHL1  H11A 5507   3.194   4.789   3.405
   59CHL1  H11B 5508   3.164   4.618   3.414
   59CHL1    C9 5509   2.987   4.737   3.359
   59CHL1    H9 5510   2.938   4.640   3.383
   59CHL1   C10 5511   2.978   4.739   3.202
   59CHL1   C19 5512   3.082   4.841   3.162
   59CHL1  H19A 5513   3.078   4.941   3.211
   59CHL1  H19B 5514   3.182   4.794   3.174
   59CHL1  H19C 5515   3.071   4.879   3.059
   59CHL1    C1 5516   3.024   4.598   3.148
   59CHL1   H1A 5517   3.124   4.565   3.182
   59CHL1   H1B 5518   2.953   4.521   3.185
   59CHL1    C2 5519   3.021   4.589   2.992
   59CHL1   H2A 5520   3.052   4.494   2.944
   59CHL1   H2B 5521   3.105   4.657   2.967
   59CHL1   C20 5522   3.070   4.870   3.911
   59CHL1   H20 5523   3.093   4.978   3.920
   59CHL1   C21 5524   3.210   4.804   3.891
   59CHL1  H21A 5525   3.208   4.693   3.880
   59CHL1  H21B 5526   3.283   4.828   3.971
   59CHL1  H21C 5527   3.262   4.835   3.798
   59CHL1   C22 5528   3.025   4.827   4.056
   59CHL1  H22A 5529   3.029   4.716   4.068
   59CHL1  H22B 5530   3.109   4.849   4.125
   59CHL1   C23 5531   2.894   4.884   4.111
   59CHL1  H23A 5532   2.903   4.993   4.090
   59CHL1  H23B 5533   2.809   4.848   4.049
   59CHL1   C24 5534   2.866   4.860   4.261
   59CHL1  H24A 5535   2.878   4.751   4.272
   59CHL1  H24B 5536   2.936   4.927   4.316
   59CHL1   C25 5537   2.725   4.912   4.303
   59CHL1   H25 5538   2.646   4.845   4.263
   59CHL1   C26 5539   2.697   4.899   4.452
   59CHL1  H26A 5540   2.714   4.791   4.472
   59CHL1  H26B 5541   2.773   4.958   4.507
   59CHL1  H26C 5542   2.593   4.927   4.476
   59CHL1   C27 5543   2.711   5.057   4.267
   59CHL1  H27A 5544   2.612   5.098   4.294
   59CHL1  H27B 5545   2.792   5.109   4.323
   59CHL1  H27C 5546   2.730   5.081   4.160
   60CHL1    C3 5547   5.430   5.624   2.855
   60CHL1    H3 5548   5.430   5.519   2.893
   60CHL1    O3 5549   5.394   5.634   2.719
   60CHL1   H3' 5550   5.332   5.705   2.700
   60CHL1    C4 5551   5.330   5.713   2.940
   60CHL1   H4A 5552   5.319   5.810   2.888
   60CHL1   H4B 5553   5.226   5.675   2.933
   60CHL1    C5 5554   5.379   5.727   3.083
   60CHL1    C6 5555   5.299   5.686   3.178
   60CHL1    H6 5556   5.199   5.642   3.163
   60CHL1    C7 5557   5.334   5.697   3.322
   60CHL1   H7A 5558   5.250   5.741   3.381
   60CHL1   H7B 5559   5.338   5.593   3.361
   60CHL1    C8 5560   5.459   5.776   3.349
   60CHL1    H8 5561   5.432   5.883   3.354
   60CHL1   C14 5562   5.508   5.746   3.489
   60CHL1   H14 5563   5.539   5.639   3.491
   60CHL1   C15 5564   5.414   5.746   3.612
   60CHL1  H15A 5565   5.338   5.825   3.631
   60CHL1  H15B 5566   5.357   5.652   3.628
   60CHL1   C16 5567   5.513   5.743   3.728
   60CHL1  H16A 5568   5.479   5.818   3.803
   60CHL1  H16B 5569   5.501   5.648   3.785
   60CHL1   C17 5570   5.658   5.758   3.672
   60CHL1   H17 5571   5.695   5.654   3.657
   60CHL1   C13 5572   5.640   5.822   3.530
   60CHL1   C18 5573   5.615   5.975   3.537
   60CHL1  H18A 5574   5.713   6.026   3.552
   60CHL1  H18B 5575   5.576   6.021   3.444
   60CHL1  H18C 5576   5.548   5.999   3.622
   60CHL1   C12 5577   5.747   5.773   3.434
   60CHL1  H12A 5578   5.847   5.817   3.454
   60CHL1  H12B 5579   5.756   5.663   3.440
   60CHL1   C11 5580   5.704   5.805   3.289
   60CHL1  H11A 5581   5.683   5.914   3.287
   60CHL1  H11B 5582   5.784   5.779   3.216
   60CHL1    C9 5583   5.568   5.745   3.245
   60CHL1    H9 5584   5.577   5.635   3.250
   60CHL1   C10 5585   5.527   5.775   3.098
   60CHL1   C19 5586   5.528   5.922   3.069
   60CHL1  H19A 5587   5.483   5.981   3.153
   60CHL1  H19B 5588   5.633   5.955   3.075
   60CHL1  H19C 5589   5.480   5.944   2.971
   60CHL1    C1 5590   5.617   5.689   3.005
   60CHL1   H1A 5591   5.713   5.742   2.988
   60CHL1   H1B 5592   5.643   5.586   3.039
   60CHL1    C2 5593   5.564   5.680   2.863
   60CHL1   H2A 5594   5.639   5.612   2.817
   60CHL1   H2B 5595   5.568   5.777   2.810
   60CHL1   C20 5596   5.748   5.836   3.772
   60CHL1   H20 5597   5.711   5.939   3.791
   60CHL1   C21 5598   5.893   5.851   3.727
   60CHL1  H21A 5599   5.948   5.915   3.799
   60CHL1  H21B 5600   5.891   5.903   3.629
   60CHL1  H21C 5601   5.948   5.757   3.706
   60CHL1   C22 5602   5.744   5.760   3.907
   60CHL1  H22A 5603   5.647   5.773   3.958
   60CHL1  H22B 5604   5.755   5.651   3.888
   60CHL1   C23 5605   5.850   5.803   4.012
   60CHL1  H23A 5606   5.951   5.780   3.973
   60CHL1  H23B 5607   5.847   5.910   4.042
   60CHL1   C24 5608   5.839   5.731   4.151
   60CHL1  H24A 5609   5.733   5.735   4.183
   60CHL1  H24B 5610   5.857   5.622   4.134
   60CHL1   C25 5611   5.924   5.786   4.263
   60CHL1   H25 5612   5.932   5.714   4.348
   60CHL1   C26 5613   6.068   5.790   4.220
   60CHL1  H26A 5614   6.092   5.872   4.149
   60CHL1  H26B 5615   6.130   5.821   4.306
   60CHL1  H26C 5616   6.107   5.692   4.183
   60CHL1   C27 5617   5.871   5.919   4.329
   60CHL1  H27A 5618   5.936   5.950   4.413
   60CHL1  H27B 5619   5.889   5.998   4.253
   60CHL1  H27C 5620   5.766   5.907   4.365
   61CHL1    C3 5621   5.231   2.012   2.733
   61CHL1    H3 5622   5.125   1.996   2.762
   61CHL1    O3 5623   5.254   2.002   2.595
   61CHL1   H3' 5624   5.335   2.051   2.580
   61CHL1    C4 5625   5.278   2.147   2.786
   61CHL1   H4A 5626   5.382   2.161   2.750
   61CHL1   H4B 5627   5.222   2.231   2.740
   61CHL1    C5 5628   5.281   2.160   2.941
   61CHL1    C6 5629   5.237   2.279   3.000
   61CHL1    H6 5630   5.205   2.369   2.946
   61CHL1    C7 5631   5.241   2.293   3.146
   61CHL1   H7A 5632   5.282   2.392   3.176
   61CHL1   H7B 5633   5.139   2.307   3.187
   61CHL1    C8 5634   5.311   2.186   3.234
   61CHL1    H8 5635   5.418   2.215   3.233
   61CHL1   C14 5636   5.260   2.178   3.379
   61CHL1   H14 5637   5.154   2.145   3.377
   61CHL1   C15 5638   5.264   2.309   3.463
   61CHL1  H15A 5639   5.365   2.353   3.448
   61CHL1  H15B 5640   5.187   2.386   3.442
   61CHL1   C16 5641   5.249   2.256   3.604
   61CHL1  H16A 5642   5.328   2.304   3.666
   61CHL1  H16B 5643   5.144   2.278   3.633
   61CHL1   C17 5644   5.263   2.099   3.598
   61CHL1   H17 5645   5.160   2.056   3.596
   61CHL1   C13 5646   5.332   2.080   3.464
   61CHL1   C18 5647   5.486   2.114   3.478
   61CHL1  H18A 5648   5.530   2.123   3.376
   61CHL1  H18B 5649   5.507   2.215   3.521
   61CHL1  H18C 5650   5.544   2.037   3.533
   61CHL1   C12 5651   5.322   1.935   3.405
   61CHL1  H12A 5652   5.389   1.869   3.464
   61CHL1  H12B 5653   5.219   1.893   3.410
   61CHL1   C11 5654   5.367   1.936   3.260
   61CHL1  H11A 5655   5.477   1.944   3.267
   61CHL1  H11B 5656   5.335   1.839   3.216
   61CHL1    C9 5657   5.297   2.046   3.172
   61CHL1    H9 5658   5.188   2.027   3.169
   61CHL1   C10 5659   5.339   2.039   3.021
   61CHL1   C19 5660   5.492   2.049   3.013
   61CHL1  H19A 5661   5.542   2.129   3.072
   61CHL1  H19B 5662   5.533   1.953   3.049
   61CHL1  H19C 5663   5.535   2.061   2.911
   61CHL1    C1 5664   5.300   1.905   2.966
   61CHL1   H1A 5665   5.364   1.820   2.999
   61CHL1   H1B 5666   5.193   1.890   2.992
   61CHL1    C2 5667   5.315   1.897   2.808
   61CHL1   H2A 5668   5.268   1.805   2.769
   61CHL1   H2B 5669   5.425   1.900   2.790
   61CHL1   C20 5670   5.327   2.035   3.722
   61CHL1   H20 5671   5.438   2.041   3.720
   61CHL1   C21 5672   5.305   1.879   3.719
   61CHL1  H21A 5673   5.373   1.821   3.653
   61CHL1  H21B 5674   5.197   1.870   3.696
   61CHL1  H21C 5675   5.321   1.837   3.821
   61CHL1   C22 5676   5.271   2.087   3.858
   61CHL1  H22A 5677   5.257   2.197   3.859
   61CHL1  H22B 5678   5.174   2.034   3.872
   61CHL1   C23 5679   5.373   2.063   3.973
   61CHL1  H23A 5680   5.367   1.962   4.020
   61CHL1  H23B 5681   5.473   2.089   3.932
   61CHL1   C24 5682   5.348   2.175   4.082
   61CHL1  H24A 5683   5.332   2.272   4.030
   61CHL1  H24B 5684   5.252   2.145   4.129
   61CHL1   C25 5685   5.460   2.187   4.190
   61CHL1   H25 5686   5.554   2.191   4.131
   61CHL1   C26 5687   5.448   2.312   4.278
   61CHL1  H26A 5688   5.424   2.400   4.215
   61CHL1  H26B 5689   5.382   2.305   4.368
   61CHL1  H26C 5690   5.550   2.330   4.318
   61CHL1   C27 5691   5.487   2.053   4.272
   61CHL1  H27A 5692   5.590   2.047   4.313
   61CHL1  H27B 5693   5.411   2.050   4.353
   61CHL1  H27C 5694   5.479   1.962   4.208
   62CHL1    C3 5695   1.732   0.508   3.195
   62CHL1    H3 5696   1.701   0.615   3.187
   62CHL1    O3 5697   1.793   0.479   3.068
   62CHL1   H3' 5698   1.823   0.388   3.067
   62CHL1    C4 5699   1.834   0.497   3.312
   62CHL1   H4A 5700   1.888   0.400   3.309
   62CHL1   H4B 5701   1.919   0.567   3.297
   62CHL1    C5 5702   1.786   0.513   3.457
   62CHL1    C6 5703   1.832   0.603   3.547
   62CHL1    H6 5704   1.919   0.664   3.519
   62CHL1    C7 5705   1.773   0.617   3.681
   62CHL1   H7A 5706   1.862   0.636   3.745
   62CHL1   H7B 5707   1.713   0.710   3.683
   62CHL1    C8 5708   1.681   0.510   3.733
   62CHL1    H8 5709   1.743   0.419   3.748
   62CHL1   C14 5710   1.600   0.548   3.851
   62CHL1   H14 5711   1.536   0.632   3.817
   62CHL1   C15 5712   1.674   0.607   3.970
   62CHL1  H15A 5713   1.762   0.544   3.996
   62CHL1  H15B 5714   1.712   0.707   3.939
   62CHL1   C16 5715   1.570   0.589   4.077
   62CHL1  H16A 5716   1.627   0.548   4.162
   62CHL1  H16B 5717   1.526   0.687   4.106
   62CHL1   C17 5718   1.455   0.496   4.031
   62CHL1   H17 5719   1.371   0.564   4.005
   62CHL1   C13 5720   1.508   0.437   3.903
   62CHL1   C18 5721   1.590   0.307   3.930
   62CHL1  H18A 5722   1.653   0.273   3.845
   62CHL1  H18B 5723   1.658   0.308   4.018
   62CHL1  H18C 5724   1.516   0.224   3.930
   62CHL1   C12 5725   1.403   0.424   3.790
   62CHL1  H12A 5726   1.325   0.347   3.807
   62CHL1  H12B 5727   1.350   0.522   3.794
   62CHL1   C11 5728   1.468   0.384   3.661
   62CHL1  H11A 5729   1.508   0.284   3.690
   62CHL1  H11B 5730   1.383   0.377   3.590
   62CHL1    C9 5731   1.583   0.480   3.616
   62CHL1    H9 5732   1.541   0.579   3.590
   62CHL1   C10 5733   1.654   0.434   3.484
   62CHL1   C19 5734   1.692   0.282   3.497
   62CHL1  H19A 5735   1.732   0.246   3.400
   62CHL1  H19B 5736   1.764   0.259   3.578
   62CHL1  H19C 5737   1.601   0.218   3.511
   62CHL1    C1 5738   1.558   0.460   3.366
   62CHL1   H1A 5739   1.469   0.394   3.372
   62CHL1   H1B 5740   1.535   0.567   3.379
   62CHL1    C2 5741   1.611   0.422   3.224
   62CHL1   H2A 5742   1.536   0.443   3.145
   62CHL1   H2B 5743   1.633   0.313   3.213
   62CHL1   C20 5744   1.402   0.403   4.140
   62CHL1   H20 5745   1.485   0.339   4.177
   62CHL1   C21 5746   1.286   0.304   4.085
   62CHL1  H21A 5747   1.213   0.365   4.028
   62CHL1  H21B 5748   1.231   0.254   4.168
   62CHL1  H21C 5749   1.328   0.229   4.014
   62CHL1   C22 5750   1.352   0.486   4.259
   62CHL1  H22A 5751   1.402   0.585   4.265
   62CHL1  H22B 5752   1.245   0.506   4.240
   62CHL1   C23 5753   1.359   0.412   4.386
   62CHL1  H23A 5754   1.301   0.318   4.379
   62CHL1  H23B 5755   1.465   0.382   4.397
   62CHL1   C24 5756   1.313   0.490   4.506
   62CHL1  H24A 5757   1.377   0.458   4.591
   62CHL1  H24B 5758   1.341   0.597   4.493
   62CHL1   C25 5759   1.168   0.480   4.558
   62CHL1   H25 5760   1.102   0.540   4.491
   62CHL1   C26 5761   1.132   0.333   4.557
   62CHL1  H26A 5762   1.104   0.292   4.457
   62CHL1  H26B 5763   1.216   0.278   4.605
   62CHL1  H26C 5764   1.050   0.314   4.629
   62CHL1   C27 5765   1.160   0.536   4.697
   62CHL1  H27A 5766   1.218   0.631   4.699
   62CHL1  H27B 5767   1.054   0.554   4.724
   62CHL1  H27C 5768   1.212   0.479   4.777
   63CHL1    C3 5769   4.560   5.264   2.559
   63CHL1    H3 5770   4.660   5.217   2.567
   63CHL1    O3 5771   4.542   5.299   2.422
   63CHL1   H3' 5772   4.465   5.356   2.425
   63CHL1    C4 5773   4.442   5.184   2.609
   63CHL1   H4A 5774   4.355   5.249   2.585
   63CHL1   H4B 5775   4.446   5.093   2.545
   63CHL1    C5 5776   4.458   5.157   2.757
   63CHL1    C6 5777   4.434   5.034   2.793
   63CHL1    H6 5778   4.407   4.950   2.726
   63CHL1    C7 5779   4.428   4.983   2.934
   63CHL1   H7A 5780   4.344   4.911   2.947
   63CHL1   H7B 5781   4.526   4.933   2.953
   63CHL1    C8 5782   4.406   5.101   3.032
   63CHL1    H8 5783   4.298   5.125   3.025
   63CHL1   C14 5784   4.441   5.055   3.172
   63CHL1   H14 5785   4.547   5.023   3.181
   63CHL1   C15 5786   4.370   4.924   3.220
   63CHL1  H15A 5787   4.263   4.923   3.190
   63CHL1  H15B 5788   4.431   4.841   3.178
   63CHL1   C16 5789   4.388   4.924   3.370
   63CHL1  H16A 5790   4.290   4.931   3.422
   63CHL1  H16B 5791   4.438   4.830   3.403
   63CHL1   C17 5792   4.463   5.059   3.401
   63CHL1   H17 5793   4.573   5.045   3.388
   63CHL1   C13 5794   4.420   5.152   3.287
   63CHL1   C18 5795   4.279   5.185   3.316
   63CHL1  H18A 5796   4.204   5.103   3.316
   63CHL1  H18B 5797   4.277   5.229   3.418
   63CHL1  H18C 5798   4.229   5.247   3.239
   63CHL1   C12 5799   4.502   5.277   3.250
   63CHL1  H12A 5800   4.487   5.362   3.319
   63CHL1  H12B 5801   4.607   5.246   3.232
   63CHL1   C11 5802   4.466   5.331   3.109
   63CHL1  H11A 5803   4.361   5.363   3.126
   63CHL1  H11B 5804   4.528   5.416   3.075
   63CHL1    C9 5805   4.489   5.225   3.003
   63CHL1    H9 5806   4.598   5.207   3.013
   63CHL1   C10 5807   4.484   5.271   2.855
   63CHL1   C19 5808   4.355   5.362   2.851
   63CHL1  H19A 5809   4.341   5.406   2.750
   63CHL1  H19B 5810   4.265   5.308   2.887
   63CHL1  H19C 5811   4.357   5.450   2.919
   63CHL1    C1 5812   4.603   5.354   2.793
   63CHL1   H1A 5813   4.606   5.449   2.851
   63CHL1   H1B 5814   4.700   5.299   2.794
   63CHL1    C2 5815   4.571   5.388   2.645
   63CHL1   H2A 5816   4.665   5.439   2.612
   63CHL1   H2B 5817   4.487   5.458   2.626
   63CHL1   C20 5818   4.458   5.108   3.545
   63CHL1   H20 5819   4.354   5.138   3.568
   63CHL1   C21 5820   4.558   5.223   3.569
   63CHL1  H21A 5821   4.553   5.261   3.673
   63CHL1  H21B 5822   4.533   5.305   3.499
   63CHL1  H21C 5823   4.661   5.194   3.540
   63CHL1   C22 5824   4.500   4.994   3.639
   63CHL1  H22A 5825   4.462   4.894   3.607
   63CHL1  H22B 5826   4.610   4.979   3.633
   63CHL1   C23 5827   4.471   5.014   3.786
   63CHL1  H23A 5828   4.505   4.932   3.853
   63CHL1  H23B 5829   4.526   5.102   3.825
   63CHL1   C24 5830   4.323   5.027   3.820
   63CHL1  H24A 5831   4.277   5.104   3.755
   63CHL1  H24B 5832   4.275   4.930   3.795
   63CHL1   C25 5833   4.286   5.068   3.968
   63CHL1   H25 5834   4.175   5.081   3.960
   63CHL1   C26 5835   4.317   4.954   4.069
   63CHL1  H26A 5836   4.239   4.957   4.148
   63CHL1  H26B 5837   4.322   4.853   4.024
   63CHL1  H26C 5838   4.413   4.974   4.122
   63CHL1   C27 5839   4.342   5.210   4.019
   63CHL1  H27A 5840   4.294   5.237   4.116
   63CHL1  H27B 5841   4.451   5.192   4.032
   63CHL1  H27C 5842   4.328   5.285   3.938
   64CHL1    C3 5843   2.629   2.783   2.953
   64CHL1    H3 5844   2.602   2.877   3.005
   64CHL1    O3 5845   2.608   2.815   2.817
   64CHL1   H3' 5846   2.547   2.749   2.785
   64CHL1    C4 5847   2.782   2.766   2.987
   64CHL1   H4A 5848   2.820   2.684   2.923
   64CHL1   H4B 5849   2.840   2.851   2.945
   64CHL1    C5 5850   2.806   2.735   3.132
   64CHL1    C6 5851   2.902   2.793   3.209
   64CHL1    H6 5852   2.966   2.871   3.164
   64CHL1    C7 5853   2.936   2.750   3.352
   64CHL1   H7A 5854   3.044   2.732   3.371
   64CHL1   H7B 5855   2.888   2.826   3.417
   64CHL1    C8 5856   2.870   2.612   3.387
   64CHL1    H8 5857   2.935   2.531   3.349
   64CHL1   C14 5858   2.875   2.585   3.546
   64CHL1   H14 5859   2.813   2.668   3.585
   64CHL1   C15 5860   3.017   2.595   3.615
   64CHL1  H15A 5861   3.081   2.539   3.544
   64CHL1  H15B 5862   3.054   2.699   3.632
   64CHL1   C16 5863   2.980   2.526   3.744
   64CHL1  H16A 5864   3.030   2.427   3.753
   64CHL1  H16B 5865   3.019   2.594   3.822
   64CHL1   C17 5866   2.828   2.491   3.747
   64CHL1   H17 5867   2.783   2.590   3.772
   64CHL1   C13 5868   2.797   2.469   3.595
   64CHL1   C18 5869   2.866   2.338   3.547
   64CHL1  H18A 5870   2.864   2.339   3.435
   64CHL1  H18B 5871   2.973   2.318   3.567
   64CHL1  H18C 5872   2.795   2.258   3.574
   64CHL1   C12 5873   2.651   2.480   3.552
   64CHL1  H12A 5874   2.605   2.382   3.576
   64CHL1  H12B 5875   2.605   2.571   3.595
   64CHL1   C11 5876   2.638   2.489   3.398
   64CHL1  H11A 5877   2.667   2.391   3.353
   64CHL1  H11B 5878   2.534   2.512   3.366
   64CHL1    C9 5879   2.724   2.603   3.336
   64CHL1    H9 5880   2.682   2.696   3.380
   64CHL1   C10 5881   2.719   2.620   3.180
   64CHL1   C19 5882   2.774   2.494   3.117
   64CHL1  H19A 5883   2.875   2.473   3.159
   64CHL1  H19B 5884   2.723   2.399   3.144
   64CHL1  H19C 5885   2.784   2.494   3.007
   64CHL1    C1 5886   2.566   2.639   3.135
   64CHL1   H1A 5887   2.518   2.545   3.170
   64CHL1   H1B 5888   2.520   2.722   3.192
   64CHL1    C2 5889   2.548   2.656   2.992
   64CHL1   H2A 5890   2.441   2.673   2.967
   64CHL1   H2B 5891   2.582   2.576   2.922
   64CHL1   C20 5892   2.780   2.383   3.852
   64CHL1   H20 5893   2.812   2.288   3.804
   64CHL1   C21 5894   2.622   2.396   3.882
   64CHL1  H21A 5895   2.602   2.500   3.914
   64CHL1  H21B 5896   2.608   2.331   3.971
   64CHL1  H21C 5897   2.559   2.368   3.796
   64CHL1   C22 5898   2.866   2.381   3.986
   64CHL1  H22A 5899   2.833   2.293   4.047
   64CHL1  H22B 5900   2.971   2.362   3.955
   64CHL1   C23 5901   2.860   2.518   4.070
   64CHL1  H23A 5902   2.899   2.598   4.004
   64CHL1  H23B 5903   2.751   2.538   4.080
   64CHL1   C24 5904   2.927   2.513   4.209
   64CHL1  H24A 5905   2.898   2.421   4.266
   64CHL1  H24B 5906   3.037   2.508   4.196
   64CHL1   C25 5907   2.889   2.636   4.303
   64CHL1   H25 5908   2.909   2.723   4.237
   64CHL1   C26 5909   2.743   2.633   4.343
   64CHL1  H26A 5910   2.706   2.729   4.385
   64CHL1  H26B 5911   2.669   2.595   4.270
   64CHL1  H26C 5912   2.733   2.548   4.414
   64CHL1   C27 5913   2.985   2.652   4.415
   64CHL1  H27A 5914   2.984   2.755   4.456
   64CHL1  H27B 5915   2.984   2.573   4.493
   64CHL1  H27C 5916   3.085   2.640   4.368
   65CHL1    C3 5917   0.847   0.142   2.520
   65CHL1    H3 5918   0.784   0.220   2.568
   65CHL1    O3 5919   0.814   0.134   2.381
   65CHL1   H3' 5920   0.882   0.072   2.355
   65CHL1    C4 5921   0.994   0.177   2.532
   65CHL1   H4A 5922   1.054   0.097   2.483
   65CHL1   H4B 5923   1.026   0.266   2.473
   65CHL1    C5 5924   1.035   0.177   2.680
   65CHL1    C6 5925   1.099   0.284   2.742
   65CHL1    H6 5926   1.116   0.370   2.676
   65CHL1    C7 5927   1.138   0.285   2.887
   65CHL1   H7A 5928   1.233   0.342   2.902
   65CHL1   H7B 5929   1.056   0.336   2.942
   65CHL1    C8 5930   1.148   0.145   2.948
   65CHL1    H8 5931   1.232   0.080   2.916
   65CHL1   C14 5932   1.153   0.168   3.099
   65CHL1   H14 5933   1.055   0.216   3.121
   65CHL1   C15 5934   1.259   0.265   3.158
   65CHL1  H15A 5935   1.358   0.246   3.112
   65CHL1  H15B 5936   1.226   0.368   3.131
   65CHL1   C16 5937   1.261   0.224   3.303
   65CHL1  H16A 5938   1.358   0.180   3.334
   65CHL1  H16B 5939   1.227   0.314   3.359
   65CHL1   C17 5940   1.155   0.107   3.316
   65CHL1   H17 5941   1.060   0.162   3.333
   65CHL1   C13 5942   1.145   0.038   3.178
   65CHL1   C18 5943   1.264   6.793   3.140
   65CHL1  H18A 5944   1.360   0.010   3.152
   65CHL1  H18B 5945   1.265   6.702   3.204
   65CHL1  H18C 5946   1.275   6.754   3.036
   65CHL1   C12 5947   1.022   6.799   3.146
   65CHL1  H12A 5948   1.021   6.700   3.195
   65CHL1  H12B 5949   0.936   0.019   3.186
   65CHL1   C11 5950   0.997   6.779   2.996
   65CHL1  H11A 5951   1.074   6.709   2.956
   65CHL1  H11B 5952   0.896   6.734   2.984
   65CHL1    C9 5953   1.012   0.072   2.913
   65CHL1    H9 5954   0.922   0.136   2.932
   65CHL1   C10 5955   1.006   0.052   2.759
   65CHL1   C19 5956   1.110   6.783   2.707
   65CHL1  H19A 5957   1.091   6.760   2.600
   65CHL1  H19B 5958   1.215   6.814   2.726
   65CHL1  H19C 5959   1.098   6.685   2.757
   65CHL1    C1 5960   0.866   0.001   2.728
   65CHL1   H1A 5961   0.849   6.741   2.775
   65CHL1   H1B 5962   0.801   0.070   2.786
   65CHL1    C2 5963   0.826   0.007   2.577
   65CHL1   H2A 5964   0.718   6.826   2.560
   65CHL1   H2B 5965   0.890   6.769   2.528
   65CHL1   C20 5966   1.182   0.014   3.432
   65CHL1   H20 5967   1.261   6.782   3.399
   65CHL1   C21 5968   1.057   6.772   3.481
   65CHL1  H21A 5969   0.992   0.001   3.540
   65CHL1  H21B 5970   1.084   6.682   3.540
   65CHL1  H21C 5971   1.003   6.736   3.391
   65CHL1   C22 5972   1.220   0.086   3.565
   65CHL1  H22A 5973   1.306   0.155   3.553
   65CHL1  H22B 5974   1.134   0.146   3.602
   65CHL1   C23 5975   1.257   6.820   3.677
   65CHL1  H23A 5976   1.171   6.761   3.714
   65CHL1  H23B 5977   1.331   6.749   3.634
   65CHL1   C24 5978   1.321   0.041   3.805
   65CHL1  H24A 5979   1.404   0.113   3.787
   65CHL1  H24B 5980   1.244   0.101   3.858
   65CHL1   C25 5981   1.373   6.764   3.895
   65CHL1   H25 5982   1.417   6.686   3.830
   65CHL1   C26 5983   1.468   6.811   4.013
   65CHL1  H26A 5984   1.412   0.040   4.081
   65CHL1  H26B 5985   1.510   6.719   4.059
   65CHL1  H26C 5986   1.560   0.026   3.981
   65CHL1   C27 5987   1.259   6.677   3.957
   65CHL1  H27A 5988   1.194   6.626   3.884
   65CHL1  H27B 5989   1.297   6.595   4.021
   65CHL1  H27C 5990   1.204   6.743   4.028
   66CHL1    C3 5991   4.592   1.581   2.969
   66CHL1    H3 5992   4.671   1.521   3.020
   66CHL1    O3 5993   4.599   1.580   2.831
   66CHL1   H3' 5994   4.606   1.487   2.808
   66CHL1    C4 5995   4.458   1.503   3.002
   66CHL1   H4A 5996   4.381   1.542   2.932
   66CHL1   H4B 5997   4.459   1.395   2.974
   66CHL1    C5 5998   4.429   1.519   3.153
   66CHL1    C6 5999   4.409   1.418   3.235
   66CHL1    H6 6000   4.404   1.316   3.193
   66CHL1    C7 6001   4.381   1.427   3.383
   66CHL1   H7A 6002   4.308   1.350   3.414
   66CHL1   H7B 6003   4.471   1.400   3.444
   66CHL1    C8 6004   4.336   1.566   3.422
   66CHL1    H8 6005   4.232   1.570   3.384
   66CHL1   C14 6006   4.343   1.581   3.572
   66CHL1   H14 6007   4.446   1.561   3.607
   66CHL1   C15 6008   4.262   1.474   3.649
   66CHL1  H15A 6009   4.158   1.464   3.613
   66CHL1  H15B 6010   4.299   1.369   3.658
   66CHL1   C16 6011   4.235   1.538   3.784
   66CHL1  H16A 6012   4.124   1.545   3.793
   66CHL1  H16B 6013   4.272   1.481   3.873
   66CHL1   C17 6014   4.283   1.682   3.777
   66CHL1   H17 6015   4.389   1.676   3.812
   66CHL1   C13 6016   4.297   1.716   3.625
   66CHL1   C18 6017   4.155   1.746   3.562
   66CHL1  H18A 6018   4.147   1.726   3.453
   66CHL1  H18B 6019   4.079   1.680   3.610
   66CHL1  H18C 6020   4.142   1.856   3.565
   66CHL1   C12 6021   4.399   1.820   3.571
   66CHL1  H12A 6022   4.376   1.924   3.602
   66CHL1  H12B 6023   4.494   1.787   3.617
   66CHL1   C11 6024   4.408   1.810   3.419
   66CHL1  H11A 6025   4.310   1.849   3.383
   66CHL1  H11B 6026   4.495   1.870   3.385
   66CHL1    C9 6027   4.431   1.669   3.361
   66CHL1    H9 6028   4.526   1.627   3.400
   66CHL1   C10 6029   4.433   1.664   3.210
   66CHL1   C19 6030   4.294   1.719   3.152
   66CHL1  H19A 6031   4.205   1.659   3.182
   66CHL1  H19B 6032   4.271   1.825   3.178
   66CHL1  H19C 6033   4.303   1.721   3.042
   66CHL1    C1 6034   4.557   1.740   3.166
   66CHL1   H1A 6035   4.547   1.848   3.190
   66CHL1   H1B 6036   4.642   1.705   3.228
   66CHL1    C2 6037   4.588   1.730   3.020
   66CHL1   H2A 6038   4.694   1.764   3.018
   66CHL1   H2B 6039   4.526   1.791   2.951
   66CHL1   C20 6040   4.204   1.783   3.870
   66CHL1   H20 6041   4.111   1.811   3.816
   66CHL1   C21 6042   4.294   1.908   3.869
   66CHL1  H21A 6043   4.399   1.877   3.889
   66CHL1  H21B 6044   4.271   1.984   3.947
   66CHL1  H21C 6045   4.293   1.967   3.775
   66CHL1   C22 6046   4.191   1.731   4.015
   66CHL1  H22A 6047   4.155   1.808   4.086
   66CHL1  H22B 6048   4.114   1.651   4.009
   66CHL1   C23 6049   4.324   1.677   4.080
   66CHL1  H23A 6050   4.364   1.596   4.015
   66CHL1  H23B 6051   4.400   1.758   4.074
   66CHL1   C24 6052   4.296   1.609   4.223
   66CHL1  H24A 6053   4.241   1.680   4.288
   66CHL1  H24B 6054   4.228   1.525   4.200
   66CHL1   C25 6055   4.416   1.563   4.305
   66CHL1   H25 6056   4.488   1.504   4.245
   66CHL1   C26 6057   4.494   1.678   4.365
   66CHL1  H26A 6058   4.424   1.756   4.402
   66CHL1  H26B 6059   4.549   1.657   4.459
   66CHL1  H26C 6060   4.558   1.721   4.285
   66CHL1   C27 6061   4.361   1.474   4.417
   66CHL1  H27A 6062   4.295   1.530   4.487
   66CHL1  H27B 6063   4.452   1.456   4.478
   66CHL1  H27C 6064   4.316   1.379   4.380
   67CHL1    C3 6065   4.569   6.282   2.881
   67CHL1    H3 6066   4.520   6.380   2.865
   67CHL1    O3 6067   4.580   6.242   2.747
   67CHL1   H3' 6068   4.608   6.150   2.743
   67CHL1    C4 6069   4.705   6.295   2.946
   67CHL1   H4A 6070   4.768   6.208   2.921
   67CHL1   H4B 6071   4.748   6.385   2.895
   67CHL1    C5 6072   4.701   6.306   3.098
   67CHL1    C6 6073   4.760   6.400   3.172
   67CHL1    H6 6074   4.827   6.477   3.131
   67CHL1    C7 6075   4.765   6.395   3.326
   67CHL1   H7A 6076   4.868   6.416   3.359
   67CHL1   H7B 6077   4.708   6.479   3.371
   67CHL1    C8 6078   4.722   6.256   3.394
   67CHL1    H8 6079   4.808   6.187   3.380
   67CHL1   C14 6080   4.690   6.274   3.543
   67CHL1   H14 6081   4.602   6.340   3.536
   67CHL1   C15 6082   4.782   6.352   3.633
   67CHL1  H15A 6083   4.889   6.326   3.618
   67CHL1  H15B 6084   4.751   6.458   3.629
   67CHL1   C16 6085   4.737   6.304   3.779
   67CHL1  H16A 6086   4.828   6.282   3.837
   67CHL1  H16B 6087   4.687   6.389   3.831
   67CHL1   C17 6088   4.631   6.193   3.757
   67CHL1   H17 6089   4.531   6.243   3.764
   67CHL1   C13 6090   4.646   6.142   3.615
   67CHL1   C18 6091   4.765   6.045   3.621
   67CHL1  H18A 6092   4.789   6.014   3.516
   67CHL1  H18B 6093   4.849   6.088   3.679
   67CHL1  H18C 6094   4.745   5.944   3.661
   67CHL1   C12 6095   4.521   6.089   3.545
   67CHL1  H12A 6096   4.493   5.989   3.586
   67CHL1  H12B 6097   4.433   6.155   3.559
   67CHL1   C11 6098   4.531   6.077   3.387
   67CHL1  H11A 6099   4.603   5.993   3.377
   67CHL1  H11B 6100   4.432   6.036   3.356
   67CHL1    C9 6101   4.597   6.200   3.321
   67CHL1    H9 6102   4.525   6.283   3.336
   67CHL1   C10 6103   4.616   6.195   3.165
   67CHL1   C19 6104   4.685   6.058   3.127
   67CHL1  H19A 6105   4.695   6.054   3.016
   67CHL1  H19B 6106   4.774   6.047   3.191
   67CHL1  H19C 6107   4.618   5.974   3.156
   67CHL1    C1 6108   4.475   6.207   3.108
   67CHL1   H1A 6109   4.411   6.130   3.156
   67CHL1   H1B 6110   4.423   6.298   3.146
   67CHL1    C2 6111   4.476   6.188   2.955
   67CHL1   H2A 6112   4.371   6.208   2.924
   67CHL1   H2B 6113   4.489   6.080   2.934
   67CHL1   C20 6114   4.630   6.095   3.879
   67CHL1   H20 6115   4.732   6.054   3.892
   67CHL1   C21 6116   4.548   5.972   3.848
   67CHL1  H21A 6117   4.543   5.910   3.940
   67CHL1  H21B 6118   4.594   5.904   3.774
   67CHL1  H21C 6119   4.445   6.001   3.817
   67CHL1   C22 6120   4.583   6.164   4.012
   67CHL1  H22A 6121   4.648   6.253   4.022
   67CHL1  H22B 6122   4.475   6.190   3.998
   67CHL1   C23 6123   4.601   6.082   4.139
   67CHL1  H23A 6124   4.569   5.976   4.131
   67CHL1  H23B 6125   4.706   6.065   4.168
   67CHL1   C24 6126   4.525   6.144   4.260
   67CHL1  H24A 6127   4.569   6.244   4.280
   67CHL1  H24B 6128   4.419   6.154   4.229
   67CHL1   C25 6129   4.540   6.056   4.391
   67CHL1   H25 6130   4.648   6.056   4.418
   67CHL1   C26 6131   4.489   6.131   4.516
   67CHL1  H26A 6132   4.526   6.084   4.610
   67CHL1  H26B 6133   4.520   6.237   4.509
   67CHL1  H26C 6134   4.378   6.127   4.515
   67CHL1   C27 6135   4.480   5.912   4.391
   67CHL1  H27A 6136   4.522   5.845   4.313
   67CHL1  H27B 6137   4.489   5.865   4.491
   67CHL1  H27C 6138   4.374   5.922   4.358
   68CHL1    C3 6139   1.831   5.182   3.000
   68CHL1    H3 6140   1.771   5.272   3.023
   68CHL1    O3 6141   1.873   5.178   2.865
   68CHL1   H3' 6142   1.939   5.108   2.864
   68CHL1    C4 6143   1.960   5.179   3.081
   68CHL1   H4A 6144   2.024   5.095   3.045
   68CHL1   H4B 6145   2.008   5.276   3.054
   68CHL1    C5 6146   1.942   5.171   3.233
   68CHL1    C6 6147   1.996   5.257   3.320
   68CHL1    H6 6148   2.056   5.340   3.280
   68CHL1    C7 6149   1.989   5.248   3.466
   68CHL1   H7A 6150   2.087   5.247   3.517
   68CHL1   H7B 6151   1.929   5.330   3.510
   68CHL1    C8 6152   1.926   5.113   3.515
   68CHL1    H8 6153   2.007   5.038   3.522
   68CHL1   C14 6154   1.865   5.136   3.650
   68CHL1   H14 6155   1.772   5.194   3.631
   68CHL1   C15 6156   1.948   5.210   3.753
   68CHL1  H15A 6157   2.052   5.173   3.760
   68CHL1  H15B 6158   1.955   5.319   3.735
   68CHL1   C16 6159   1.886   5.173   3.885
   68CHL1  H16A 6160   1.955   5.112   3.947
   68CHL1  H16B 6161   1.851   5.249   3.958
   68CHL1   C17 6162   1.770   5.076   3.855
   68CHL1   H17 6163   1.686   5.148   3.842
   68CHL1   C13 6164   1.807   5.012   3.722
   68CHL1   C18 6165   1.917   4.901   3.745
   68CHL1  H18A 6166   1.994   4.933   3.819
   68CHL1  H18B 6167   1.875   4.801   3.764
   68CHL1  H18C 6168   1.958   4.893   3.642
   68CHL1   C12 6169   1.694   4.954   3.628
   68CHL1  H12A 6170   1.659   4.852   3.657
   68CHL1  H12B 6171   1.602   5.017   3.620
   68CHL1   C11 6172   1.739   4.927   3.481
   68CHL1  H11A 6173   1.809   4.841   3.490
   68CHL1  H11B 6174   1.651   4.908   3.416
   68CHL1    C9 6175   1.818   5.055   3.421
   68CHL1    H9 6176   1.743   5.137   3.419
   68CHL1   C10 6177   1.860   5.043   3.276
   68CHL1   C19 6178   1.950   4.923   3.256
   68CHL1  H19A 6179   1.980   4.915   3.149
   68CHL1  H19B 6180   2.036   4.913   3.327
   68CHL1  H19C 6181   1.884   4.838   3.280
   68CHL1    C1 6182   1.736   5.035   3.185
   68CHL1   H1A 6183   1.677   4.942   3.201
   68CHL1   H1B 6184   1.669   5.113   3.228
   68CHL1    C2 6185   1.750   5.055   3.038
   68CHL1   H2A 6186   1.649   5.066   2.993
   68CHL1   H2B 6187   1.789   4.970   2.978
   68CHL1   C20 6188   1.735   4.990   3.969
   68CHL1   H20 6189   1.809   4.907   3.971
   68CHL1   C21 6190   1.598   4.925   3.946
   68CHL1  H21A 6191   1.512   4.994   3.961
   68CHL1  H21B 6192   1.577   4.842   4.017
   68CHL1  H21C 6193   1.590   4.877   3.847
   68CHL1   C22 6194   1.738   5.063   4.106
   68CHL1  H22A 6195   1.838   5.105   4.129
   68CHL1  H22B 6196   1.671   5.150   4.092
   68CHL1   C23 6197   1.703   4.965   4.226
   68CHL1  H23A 6198   1.595   4.943   4.238
   68CHL1  H23B 6199   1.759   4.872   4.202
   68CHL1   C24 6200   1.735   5.027   4.369
   68CHL1  H24A 6201   1.845   5.035   4.377
   68CHL1  H24B 6202   1.693   5.130   4.373
   68CHL1   C25 6203   1.664   4.955   4.480
   68CHL1   H25 6204   1.558   4.936   4.455
   68CHL1   C26 6205   1.713   4.807   4.488
   68CHL1  H26A 6206   1.824   4.801   4.494
   68CHL1  H26B 6207   1.673   4.746   4.572
   68CHL1  H26C 6208   1.688   4.758   4.392
   68CHL1   C27 6209   1.685   5.017   4.616
   68CHL1  H27A 6210   1.621   4.964   4.689
   68CHL1  H27B 6211   1.792   4.998   4.641
   68CHL1  H27C 6212   1.667   5.127   4.616
   69CHL1    C3 6213   0.731   2.754   2.765
   69CHL1    H3 6214   0.728   2.655   2.815
   69CHL1    O3 6215   0.768   2.724   2.631
   69CHL1   H3' 6216   0.776   2.811   2.592
   69CHL1    C4 6217   0.590   2.818   2.765
   69CHL1   H4A 6218   0.581   2.909   2.702
   69CHL1   H4B 6219   0.522   2.741   2.722
   69CHL1    C5 6220   0.551   2.853   2.915
   69CHL1    C6 6221   0.441   2.802   2.965
   69CHL1    H6 6222   0.377   2.735   2.906
   69CHL1    C7 6223   0.389   2.841   3.106
   69CHL1   H7A 6224   0.286   2.879   3.092
   69CHL1   H7B 6225   0.372   2.751   3.169
   69CHL1    C8 6226   0.475   2.947   3.175
   69CHL1    H8 6227   0.444   3.042   3.126
   69CHL1   C14 6228   0.448   2.952   3.326
   69CHL1   H14 6229   0.482   2.854   3.365
   69CHL1   C15 6230   0.306   2.968   3.382
   69CHL1  H15A 6231   0.255   3.048   3.324
   69CHL1  H15B 6232   0.246   2.875   3.374
   69CHL1   C16 6233   0.320   3.000   3.533
   69CHL1  H16A 6234   0.259   3.080   3.580
   69CHL1  H16B 6235   0.327   2.904   3.589
   69CHL1   C17 6236   0.474   3.050   3.549
   69CHL1   H17 6237   0.529   2.961   3.585
   69CHL1   C13 6238   0.531   3.059   3.407
   69CHL1   C18 6239   0.494   3.198   3.351
   69CHL1  H18A 6240   0.387   3.210   3.380
   69CHL1  H18B 6241   0.558   3.272   3.403
   69CHL1  H18C 6242   0.499   3.204   3.240
   69CHL1   C12 6243   0.682   3.010   3.393
   69CHL1  H12A 6244   0.748   3.089   3.434
   69CHL1  H12B 6245   0.696   2.909   3.438
   69CHL1   C11 6246   0.720   2.995   3.242
   69CHL1  H11A 6247   0.721   3.102   3.214
   69CHL1  H11B 6248   0.817   2.942   3.244
   69CHL1    C9 6249   0.624   2.918   3.149
   69CHL1    H9 6250   0.644   2.813   3.180
   69CHL1   C10 6251   0.657   2.925   2.997
   69CHL1   C19 6252   0.662   3.077   2.955
   69CHL1  H19A 6253   0.569   3.133   2.980
   69CHL1  H19B 6254   0.750   3.133   2.993
   69CHL1  H19C 6255   0.672   3.089   2.845
   69CHL1    C1 6256   0.804   2.874   2.973
   69CHL1   H1A 6257   0.884   2.930   3.027
   69CHL1   H1B 6258   0.804   2.773   3.019
   69CHL1    C2 6259   0.839   2.843   2.828
   69CHL1   H2A 6260   0.943   2.803   2.828
   69CHL1   H2B 6261   0.849   2.939   2.773
   69CHL1   C20 6262   0.493   3.151   3.653
   69CHL1   H20 6263   0.449   3.248   3.622
   69CHL1   C21 6264   0.649   3.167   3.672
   69CHL1  H21A 6265   0.688   3.066   3.698
   69CHL1  H21B 6266   0.671   3.240   3.752
   69CHL1  H21C 6267   0.705   3.196   3.580
   69CHL1   C22 6268   0.429   3.113   3.783
   69CHL1  H22A 6269   0.319   3.097   3.782
   69CHL1  H22B 6270   0.474   3.018   3.819
   69CHL1   C23 6271   0.448   3.215   3.897
   69CHL1  H23A 6272   0.557   3.207   3.921
   69CHL1  H23B 6273   0.428   3.318   3.860
   69CHL1   C24 6274   0.384   3.185   4.030
   69CHL1  H24A 6275   0.423   3.085   4.059
   69CHL1  H24B 6276   0.436   3.255   4.098
   69CHL1   C25 6277   0.233   3.208   4.049
   69CHL1   H25 6278   0.183   3.167   3.959
   69CHL1   C26 6279   0.183   3.144   4.176
   69CHL1  H26A 6280   0.073   3.150   4.164
   69CHL1  H26B 6281   0.227   3.042   4.188
   69CHL1  H26C 6282   0.205   3.204   4.267
   69CHL1   C27 6283   0.208   3.362   4.047
   69CHL1  H27A 6284   0.238   3.410   3.951
   69CHL1  H27B 6285   0.100   3.375   4.065
   69CHL1  H27C 6286   0.262   3.413   4.130
   70CHL1    C3 6287   2.807   0.414   2.740
   70CHL1    H3 6288   2.854   0.313   2.731
   70CHL1    O3 6289   2.785   0.467   2.608
   70CHL1   H3' 6290   2.690   0.461   2.594
   70CHL1    C4 6291   2.676   0.399   2.815
   70CHL1   H4A 6292   2.613   0.491   2.812
   70CHL1   H4B 6293   2.623   0.316   2.765
   70CHL1    C5 6294   2.686   0.350   2.956
   70CHL1    C6 6295   2.623   0.241   3.000
   70CHL1    H6 6296   2.562   0.183   2.930
   70CHL1    C7 6297   2.622   0.190   3.142
   70CHL1   H7A 6298   2.519   0.157   3.166
   70CHL1   H7B 6299   2.685   0.099   3.152
   70CHL1    C8 6300   2.680   0.296   3.238
   70CHL1    H8 6301   2.601   0.373   3.243
   70CHL1   C14 6302   2.718   0.223   3.370
   70CHL1   H14 6303   2.797   0.148   3.346
   70CHL1   C15 6304   2.609   0.144   3.434
   70CHL1  H15A 6305   2.515   0.203   3.421
   70CHL1  H15B 6306   2.586   0.049   3.382
   70CHL1   C16 6307   2.647   0.138   3.583
   70CHL1  H16A 6308   2.574   0.205   3.633
   70CHL1  H16B 6309   2.648   0.037   3.630
   70CHL1   C17 6310   2.784   0.210   3.599
   70CHL1   H17 6311   2.870   0.142   3.584
   70CHL1   C13 6312   2.785   0.308   3.481
   70CHL1   C18 6313   2.689   0.430   3.516
   70CHL1  H18A 6314   2.697   0.497   3.428
   70CHL1  H18B 6315   2.586   0.392   3.533
   70CHL1  H18C 6316   2.734   0.479   3.605
   70CHL1   C12 6317   2.916   0.364   3.419
   70CHL1  H12A 6318   2.965   0.441   3.483
   70CHL1  H12B 6319   2.986   0.279   3.409
   70CHL1   C11 6320   2.895   0.438   3.281
   70CHL1  H11A 6321   2.854   0.540   3.301
   70CHL1  H11B 6322   2.990   0.473   3.234
   70CHL1    C9 6323   2.804   0.361   3.178
   70CHL1    H9 6324   2.868   0.272   3.161
   70CHL1   C10 6325   2.775   0.438   3.046
   70CHL1   C19 6326   2.689   0.563   3.058
   70CHL1  H19A 6327   2.586   0.557   3.100
   70CHL1  H19B 6328   2.746   0.632   3.123
   70CHL1  H19C 6329   2.673   0.621   2.964
   70CHL1    C1 6330   2.912   0.478   2.976
   70CHL1   H1A 6331   2.962   0.562   3.029
   70CHL1   H1B 6332   2.978   0.389   2.984
   70CHL1    C2 6333   2.898   0.507   2.818
   70CHL1   H2A 6334   2.999   0.513   2.770
   70CHL1   H2B 6335   2.854   0.609   2.812
   70CHL1   C20 6336   2.792   0.257   3.744
   70CHL1   H20 6337   2.712   0.329   3.771
   70CHL1   C21 6338   2.926   0.325   3.763
   70CHL1  H21A 6339   2.999   0.264   3.706
   70CHL1  H21B 6340   2.953   0.332   3.871
   70CHL1  H21C 6341   2.942   0.429   3.727
   70CHL1   C22 6342   2.775   0.147   3.862
   70CHL1  H22A 6343   2.709   0.064   3.828
   70CHL1  H22B 6344   2.878   0.107   3.875
   70CHL1   C23 6345   2.722   0.206   3.996
   70CHL1  H23A 6346   2.770   0.136   4.068
   70CHL1  H23B 6347   2.786   0.295   4.014
   70CHL1   C24 6348   2.569   0.219   4.003
   70CHL1  H24A 6349   2.544   0.304   3.937
   70CHL1  H24B 6350   2.521   0.129   3.959
   70CHL1   C25 6351   2.516   0.248   4.146
   70CHL1   H25 6352   2.585   0.327   4.181
   70CHL1   C26 6353   2.374   0.309   4.137
   70CHL1  H26A 6354   2.385   0.410   4.092
   70CHL1  H26B 6355   2.313   0.240   4.074
   70CHL1  H26C 6356   2.324   0.312   4.237
   70CHL1   C27 6357   2.534   0.133   4.250
   70CHL1  H27A 6358   2.500   0.167   4.350
   70CHL1  H27B 6359   2.482   0.043   4.210
   70CHL1  H27C 6360   2.642   0.109   4.268
   71CHL1    C3 6361   5.948   5.853   2.771
   71CHL1    H3 6362   5.864   5.804   2.825
   71CHL1    O3 6363   5.933   5.830   2.634
   71CHL1   H3' 6364   5.891   5.913   2.611
   71CHL1    C4 6365   5.943   6.006   2.800
   71CHL1   H4A 6366   6.014   6.061   2.734
   71CHL1   H4B 6367   5.847   6.043   2.758
   71CHL1    C5 6368   5.957   6.043   2.946
   71CHL1    C6 6369   5.859   6.120   3.003
   71CHL1    H6 6370   5.778   6.156   2.938
   71CHL1    C7 6371   5.859   6.150   3.150
   71CHL1   H7A 6372   5.826   6.255   3.166
   71CHL1   H7B 6373   5.792   6.085   3.210
   71CHL1    C8 6374   6.005   6.135   3.205
   71CHL1    H8 6375   6.058   6.225   3.170
   71CHL1   C14 6376   5.993   6.142   3.361
   71CHL1   H14 6377   5.933   6.053   3.389
   71CHL1   C15 6378   5.926   6.267   3.425
   71CHL1  H15A 6379   5.964   6.353   3.366
   71CHL1  H15B 6380   5.816   6.252   3.417
   71CHL1   C16 6381   5.983   6.271   3.563
   71CHL1  H16A 6382   6.037   6.367   3.580
   71CHL1  H16B 6383   5.896   6.260   3.631
   71CHL1   C17 6384   6.091   6.155   3.579
   71CHL1   H17 6385   6.033   6.062   3.599
   71CHL1   C13 6386   6.130   6.135   3.431
   71CHL1   C18 6387   6.220   6.258   3.383
   71CHL1  H18A 6388   6.253   6.248   3.277
   71CHL1  H18B 6389   6.168   6.355   3.399
   71CHL1  H18C 6390   6.314   6.261   3.443
   71CHL1   C12 6391   6.203   6.005   3.393
   71CHL1  H12A 6392   6.308   6.007   3.429
   71CHL1  H12B 6393   6.147   5.916   3.427
   71CHL1   C11 6394   6.211   5.986   3.237
   71CHL1  H11A 6395   6.299   6.044   3.201
   71CHL1  H11B 6396   6.232   5.882   3.205
   71CHL1    C9 6397   6.075   6.003   3.162
   71CHL1    H9 6398   6.016   5.917   3.200
   71CHL1   C10 6399   6.084   5.989   3.007
   71CHL1   C19 6400   6.209   6.055   2.948
   71CHL1  H19A 6401   6.205   6.043   2.837
   71CHL1  H19B 6402   6.225   6.164   2.963
   71CHL1  H19C 6403   6.305   6.011   2.983
   71CHL1    C1 6404   6.102   5.832   2.970
   71CHL1   H1A 6405   6.208   5.806   2.991
   71CHL1   H1B 6406   6.036   5.768   3.032
   71CHL1    C2 6407   6.080   5.795   2.818
   71CHL1   H2A 6408   6.093   5.685   2.827
   71CHL1   H2B 6409   6.164   5.837   2.758
   71CHL1   C20 6410   6.193   6.186   3.686
   71CHL1   H20 6411   6.238   6.286   3.665
   71CHL1   C21 6412   6.301   6.079   3.690
   71CHL1  H21A 6413   6.250   5.980   3.691
   71CHL1  H21B 6414   6.371   6.098   3.774
   71CHL1  H21C 6415   6.367   6.088   3.601
   71CHL1   C22 6416   6.125   6.193   3.830
   71CHL1  H22A 6417   6.035   6.257   3.816
   71CHL1  H22B 6418   6.083   6.094   3.860
   71CHL1   C23 6419   6.216   6.245   3.937
   71CHL1  H23A 6420   6.293   6.168   3.956
   71CHL1  H23B 6421   6.274   6.329   3.893
   71CHL1   C24 6422   6.144   6.317   4.059
   71CHL1  H24A 6423   6.218   6.373   4.120
   71CHL1  H24B 6424   6.074   6.388   4.012
   71CHL1   C25 6425   6.076   6.225   4.160
   71CHL1   H25 6426   6.018   6.144   4.110
   71CHL1   C26 6427   6.183   6.164   4.253
   71CHL1  H26A 6428   6.131   6.110   4.335
   71CHL1  H26B 6429   6.254   6.102   4.194
   71CHL1  H26C 6430   6.236   6.250   4.298
   71CHL1   C27 6431   5.972   6.301   4.237
   71CHL1  H27A 6432   6.011   6.400   4.267
   71CHL1  H27B 6433   5.879   6.310   4.176
   71CHL1  H27C 6434   5.947   6.240   4.326
   72CHL1    C3 6435   0.094   4.769   2.507
   72CHL1    H3 6436   0.077   4.879   2.516
   72CHL1    O3 6437   0.104   4.731   2.368
   72CHL1   H3' 6438   0.174   4.788   2.335
   72CHL1    C4 6439   0.233   4.742   2.578
   72CHL1   H4A 6440   0.264   4.641   2.543
   72CHL1   H4B 6441   0.295   4.821   2.533
   72CHL1    C5 6442   0.232   4.755   2.729
   72CHL1    C6 6443   0.327   4.826   2.797
   72CHL1    H6 6444   0.400   4.892   2.747
   72CHL1    C7 6445   0.322   4.845   2.948
   72CHL1   H7A 6446   0.427   4.844   2.985
   72CHL1   H7B 6447   0.268   4.937   2.977
   72CHL1    C8 6448   0.236   4.731   3.018
   72CHL1    H8 6449   0.296   4.640   2.999
   72CHL1   C14 6450   0.217   4.765   3.165
   72CHL1   H14 6451   0.161   4.861   3.170
   72CHL1   C15 6452   0.341   4.795   3.251
   72CHL1  H15A 6453   0.431   4.735   3.223
   72CHL1  H15B 6454   0.353   4.904   3.233
   72CHL1   C16 6455   0.304   4.768   3.388
   72CHL1  H16A 6456   0.358   4.676   3.420
   72CHL1  H16B 6457   0.321   4.853   3.457
   72CHL1   C17 6458   0.151   4.724   3.383
   72CHL1   H17 6459   0.097   4.820   3.371
   72CHL1   C13 6460   0.134   4.662   3.242
   72CHL1   C18 6461   0.208   4.527   3.228
   72CHL1  H18A 6462   0.314   4.541   3.258
   72CHL1  H18B 6463   0.163   4.451   3.296
   72CHL1  H18C 6464   0.205   4.488   3.124
   72CHL1   C12 6465   6.833   4.657   3.178
   72CHL1  H12A 6466   6.763   4.592   3.234
   72CHL1  H12B 6467   6.781   4.754   3.194
   72CHL1   C11 6468   0.003   4.617   3.032
   72CHL1  H11A 6469   0.038   4.512   3.018
   72CHL1  H11B 6470   6.742   4.631   2.986
   72CHL1    C9 6471   0.101   4.717   2.950
   72CHL1    H9 6472   0.044   4.813   2.954
   72CHL1   C10 6473   0.116   4.691   2.801
   72CHL1   C19 6474   0.136   4.537   2.786
   72CHL1  H19A 6475   0.156   4.515   2.679
   72CHL1  H19B 6476   0.216   4.487   2.844
   72CHL1  H19C 6477   0.038   4.489   2.805
   72CHL1    C1 6478   6.822   4.730   2.736
   72CHL1   H1A 6479   6.744   4.667   2.785
   72CHL1   H1B 6480   6.793   4.836   2.752
   72CHL1    C2 6481   6.817   4.694   2.582
   72CHL1   H2A 6482   6.719   4.725   2.542
   72CHL1   H2B 6483   6.820   4.584   2.563
   72CHL1   C20 6484   0.097   4.661   3.516
   72CHL1   H20 6485   0.149   4.564   3.523
   72CHL1   C21 6486   6.783   4.627   3.501
   72CHL1  H21A 6487   6.735   4.714   3.451
   72CHL1  H21B 6488   6.762   4.626   3.610
   72CHL1  H21C 6489   6.762   4.530   3.451
   72CHL1   C22 6490   0.117   4.741   3.646
   72CHL1  H22A 6491   0.051   4.710   3.729
   72CHL1  H22B 6492   0.216   4.706   3.685
   72CHL1   C23 6493   0.116   4.891   3.637
   72CHL1  H23A 6494   0.214   4.925   3.597
   72CHL1  H23B 6495   0.039   4.933   3.568
   72CHL1   C24 6496   0.109   4.949   3.777
   72CHL1  H24A 6497   0.034   4.905   3.845
   72CHL1  H24B 6498   0.208   4.929   3.824
   72CHL1   C25 6499   0.091   5.104   3.767
   72CHL1   H25 6500   0.169   5.133   3.693
   72CHL1   C26 6501   6.787   5.150   3.733
   72CHL1  H26A 6502   6.715   5.150   3.818
   72CHL1  H26B 6503   6.784   5.247   3.679
   72CHL1  H26C 6504   6.736   5.080   3.664
   72CHL1   C27 6505   0.125   5.163   3.900
   72CHL1  H27A 6506   0.096   5.270   3.894
   72CHL1  H27B 6507   0.059   5.129   3.982
   72CHL1  H27C 6508   0.232   5.154   3.930
   73CHL1    C3 6509   1.193   5.035   2.795
   73CHL1    H3 6510   1.261   5.120   2.816
   73CHL1    O3 6511   1.186   4.997   2.659
   73CHL1   H3' 6512   1.273   4.999   2.619
   73CHL1    C4 6513   1.238   4.908   2.880
   73CHL1   H4A 6514   1.165   4.827   2.859
   73CHL1   H4B 6515   1.339   4.883   2.840
   73CHL1    C5 6516   1.241   4.931   3.029
   73CHL1    C6 6517   1.354   4.914   3.095
   73CHL1    H6 6518   1.435   4.861   3.043
   73CHL1    C7 6519   1.363   4.917   3.246
   73CHL1   H7A 6520   1.405   4.821   3.283
   73CHL1   H7B 6521   1.430   5.001   3.276
   73CHL1    C8 6522   1.224   4.929   3.316
   73CHL1    H8 6523   1.169   4.833   3.310
   73CHL1   C14 6524   1.229   4.986   3.457
   73CHL1   H14 6525   1.265   5.090   3.442
   73CHL1   C15 6526   1.337   4.921   3.543
   73CHL1  H15A 6527   1.335   4.812   3.518
   73CHL1  H15B 6528   1.434   4.963   3.510
   73CHL1   C16 6529   1.287   4.949   3.685
   73CHL1  H16A 6530   1.251   4.856   3.734
   73CHL1  H16B 6531   1.368   4.990   3.748
   73CHL1   C17 6532   1.156   5.036   3.678
   73CHL1   H17 6533   1.205   5.136   3.672
   73CHL1   C13 6534   1.106   4.997   3.540
   73CHL1   C18 6535   1.045   4.857   3.560
   73CHL1  H18A 6536   1.123   4.786   3.594
   73CHL1  H18B 6537   0.968   4.852   3.640
   73CHL1  H18C 6538   1.008   4.821   3.462
   73CHL1   C12 6539   1.008   5.088   3.464
   73CHL1  H12A 6540   0.908   5.070   3.509
   73CHL1  H12B 6541   1.030   5.194   3.491
   73CHL1   C11 6542   1.001   5.062   3.309
   73CHL1  H11A 6543   0.938   4.972   3.301
   73CHL1  H11B 6544   0.952   5.151   3.264
   73CHL1    C9 6545   1.138   5.034   3.235
   73CHL1    H9 6546   1.196   5.129   3.224
   73CHL1   C10 6547   1.117   4.986   3.090
   73CHL1   C19 6548   1.003   4.877   3.077
   73CHL1  H19A 6549   0.981   4.861   2.970
   73CHL1  H19B 6550   1.035   4.781   3.123
   73CHL1  H19C 6551   0.906   4.908   3.121
   73CHL1    C1 6552   1.068   5.111   3.004
   73CHL1   H1A 6553   0.967   5.133   3.044
   73CHL1   H1B 6554   1.152   5.182   3.021
   73CHL1    C2 6555   1.056   5.083   2.851
   73CHL1   H2A 6556   1.035   5.178   2.797
   73CHL1   H2B 6557   0.975   5.012   2.822
   73CHL1   C20 6558   1.068   5.029   3.800
   73CHL1   H20 6559   1.012   4.934   3.815
   73CHL1   C21 6560   0.971   5.152   3.784
   73CHL1  H21A 6561   0.897   5.142   3.702
   73CHL1  H21B 6562   1.034   5.242   3.768
   73CHL1  H21C 6563   0.913   5.167   3.878
   73CHL1   C22 6564   1.150   5.054   3.930
   73CHL1  H22A 6565   1.235   4.983   3.946
   73CHL1  H22B 6566   1.191   5.157   3.927
   73CHL1   C23 6567   1.067   5.043   4.062
   73CHL1  H23A 6568   0.994   5.126   4.074
   73CHL1  H23B 6569   1.016   4.946   4.043
   73CHL1   C24 6570   1.161   5.022   4.178
   73CHL1  H24A 6571   1.228   4.937   4.153
   73CHL1  H24B 6572   1.212   5.117   4.203
   73CHL1   C25 6573   1.099   4.968   4.308
   73CHL1   H25 6574   1.050   4.871   4.286
   73CHL1   C26 6575   1.221   4.934   4.404
   73CHL1  H26A 6576   1.311   4.888   4.358
   73CHL1  H26B 6577   1.245   5.029   4.455
   73CHL1  H26C 6578   1.180   4.864   4.480
   73CHL1   C27 6579   1.004   5.064   4.386
   73CHL1  H27A 6580   0.977   5.019   4.484
   73CHL1  H27B 6581   1.058   5.159   4.408
   73CHL1  H27C 6582   0.914   5.082   4.324
   74CHL1    C3 6583   0.963   4.281   2.582
   74CHL1    H3 6584   0.882   4.356   2.594
   74CHL1    O3 6585   0.979   4.228   2.450
   74CHL1   H3' 6586   0.992   4.135   2.470
   74CHL1    C4 6587   1.091   4.352   2.628
   74CHL1   H4A 6588   1.169   4.282   2.591
   74CHL1   H4B 6589   1.108   4.440   2.561
   74CHL1    C5 6590   1.111   4.380   2.780
   74CHL1    C6 6591   1.150   4.498   2.830
   74CHL1    H6 6592   1.179   4.582   2.764
   74CHL1    C7 6593   1.172   4.531   2.982
   74CHL1   H7A 6594   1.269   4.584   2.998
   74CHL1   H7B 6595   1.088   4.598   3.010
   74CHL1    C8 6596   1.169   4.400   3.070
   74CHL1    H8 6597   1.274   4.363   3.061
   74CHL1   C14 6598   1.147   4.438   3.211
   74CHL1   H14 6599   1.048   4.487   3.213
   74CHL1   C15 6600   1.247   4.532   3.271
   74CHL1  H15A 6601   1.350   4.526   3.230
   74CHL1  H15B 6602   1.227   4.636   3.237
   74CHL1   C16 6603   1.219   4.517   3.419
   74CHL1  H16A 6604   1.318   4.503   3.467
   74CHL1  H16B 6605   1.169   4.608   3.458
   74CHL1   C17 6606   1.143   4.384   3.442
   74CHL1   H17 6607   1.037   4.411   3.459
   74CHL1   C13 6608   1.148   4.317   3.303
   74CHL1   C18 6609   1.282   4.236   3.286
   74CHL1  H18A 6610   1.291   4.201   3.181
   74CHL1  H18B 6611   1.373   4.294   3.312
   74CHL1  H18C 6612   1.279   4.149   3.355
   74CHL1   C12 6613   1.038   4.221   3.270
   74CHL1  H12A 6614   1.037   4.128   3.331
   74CHL1  H12B 6615   0.946   4.281   3.286
   74CHL1   C11 6616   1.045   4.177   3.119
   74CHL1  H11A 6617   1.123   4.098   3.116
   74CHL1  H11B 6618   0.956   4.117   3.094
   74CHL1    C9 6619   1.067   4.299   3.024
   74CHL1    H9 6620   0.970   4.352   3.029
   74CHL1   C10 6621   1.079   4.258   2.872
   74CHL1   C19 6622   1.195   4.157   2.864
   74CHL1  H19A 6623   1.165   4.057   2.900
   74CHL1  H19B 6624   1.231   4.139   2.761
   74CHL1  H19C 6625   1.281   4.187   2.928
   74CHL1    C1 6626   0.941   4.203   2.822
   74CHL1   H1A 6627   0.911   4.107   2.870
   74CHL1   H1B 6628   0.857   4.272   2.844
   74CHL1    C2 6629   0.939   4.163   2.672
   74CHL1   H2A 6630   0.851   4.100   2.650
   74CHL1   H2B 6631   1.020   4.087   2.670
   74CHL1   C20 6632   1.185   4.307   3.566
   74CHL1   H20 6633   1.271   4.238   3.552
   74CHL1   C21 6634   1.073   4.203   3.598
   74CHL1  H21A 6635   1.069   4.115   3.529
   74CHL1  H21B 6636   0.973   4.250   3.607
   74CHL1  H21C 6637   1.079   4.165   3.702
   74CHL1   C22 6638   1.199   4.391   3.699
   74CHL1  H22A 6639   1.230   4.327   3.785
   74CHL1  H22B 6640   1.282   4.457   3.667
   74CHL1   C23 6641   1.080   4.469   3.747
   74CHL1  H23A 6642   1.017   4.496   3.659
   74CHL1  H23B 6643   1.014   4.394   3.796
   74CHL1   C24 6644   1.110   4.584   3.841
   74CHL1  H24A 6645   1.163   4.663   3.784
   74CHL1  H24B 6646   1.017   4.633   3.877
   74CHL1   C25 6647   1.186   4.562   3.968
   74CHL1   H25 6648   1.262   4.483   3.949
   74CHL1   C26 6649   1.252   4.688   4.024
   74CHL1  H26A 6650   1.321   4.728   3.947
   74CHL1  H26B 6651   1.173   4.763   4.048
   74CHL1  H26C 6652   1.313   4.673   4.115
   74CHL1   C27 6653   1.084   4.512   4.070
   74CHL1  H27A 6654   1.009   4.439   4.033
   74CHL1  H27B 6655   1.129   4.460   4.157
   74CHL1  H27C 6656   1.034   4.605   4.105
   75CHL1    C3 6657   0.906   3.236   2.682
   75CHL1    H3 6658   0.821   3.171   2.712
   75CHL1    O3 6659   0.919   3.227   2.543
   75CHL1   H3' 6660   0.961   3.311   2.525
   75CHL1    C4 6661   0.870   3.380   2.734
   75CHL1   H4A 6662   0.939   3.450   2.682
   75CHL1   H4B 6663   0.768   3.405   2.696
   75CHL1    C5 6664   0.877   3.388   2.887
   75CHL1    C6 6665   0.766   3.419   2.951
   75CHL1    H6 6666   0.674   3.439   2.893
   75CHL1    C7 6667   0.768   3.440   3.104
   75CHL1   H7A 6668   0.722   3.538   3.129
   75CHL1   H7B 6669   0.691   3.373   3.147
   75CHL1    C8 6670   0.901   3.425   3.179
   75CHL1    H8 6671   0.949   3.522   3.153
   75CHL1   C14 6672   0.882   3.398   3.326
   75CHL1   H14 6673   0.837   3.297   3.334
   75CHL1   C15 6674   0.800   3.504   3.409
   75CHL1  H15A 6675   0.804   3.606   3.366
   75CHL1  H15B 6676   0.691   3.479   3.407
   75CHL1   C16 6677   0.844   3.495   3.549
   75CHL1  H16A 6678   0.878   3.595   3.585
   75CHL1  H16B 6679   0.769   3.456   3.620
   75CHL1   C17 6680   0.958   3.389   3.545
   75CHL1   H17 6681   0.902   3.295   3.560
   75CHL1   C13 6682   1.018   3.384   3.402
   75CHL1   C18 6683   1.100   3.508   3.375
   75CHL1  H18A 6684   1.120   3.522   3.266
   75CHL1  H18B 6685   1.041   3.596   3.408
   75CHL1  H18C 6686   1.194   3.506   3.434
   75CHL1   C12 6687   1.091   3.255   3.347
   75CHL1  H12A 6688   1.198   3.263   3.376
   75CHL1  H12B 6689   1.034   3.169   3.386
   75CHL1   C11 6690   1.106   3.262   3.193
   75CHL1  H11A 6691   1.200   3.314   3.164
   75CHL1  H11B 6692   1.135   3.162   3.154
   75CHL1    C9 6693   0.981   3.310   3.115
   75CHL1    H9 6694   0.909   3.228   3.136
   75CHL1   C10 6695   1.001   3.333   2.954
   75CHL1   C19 6696   1.118   3.433   2.936
   75CHL1  H19A 6697   1.117   3.456   2.827
   75CHL1  H19B 6698   1.107   3.528   2.991
   75CHL1  H19C 6699   1.213   3.393   2.977
   75CHL1    C1 6700   1.044   3.197   2.888
   75CHL1   H1A 6701   1.144   3.161   2.920
   75CHL1   H1B 6702   0.974   3.118   2.922
   75CHL1    C2 6703   1.041   3.197   2.737
   75CHL1   H2A 6704   1.063   3.092   2.709
   75CHL1   H2B 6705   1.112   3.268   2.689
   75CHL1   C20 6706   1.058   3.402   3.663
   75CHL1   H20 6707   1.097   3.504   3.685
   75CHL1   C21 6708   1.183   3.314   3.642
   75CHL1  H21A 6709   1.257   3.349   3.567
   75CHL1  H21B 6710   1.160   3.208   3.616
   75CHL1  H21C 6711   1.240   3.313   3.737
   75CHL1   C22 6712   0.981   3.361   3.795
   75CHL1  H22A 6713   0.873   3.389   3.789
   75CHL1  H22B 6714   0.986   3.250   3.797
   75CHL1   C23 6715   1.056   3.422   3.919
   75CHL1  H23A 6716   1.163   3.392   3.921
   75CHL1  H23B 6717   1.055   3.532   3.901
   75CHL1   C24 6718   0.987   3.389   4.050
   75CHL1  H24A 6719   1.026   3.458   4.129
   75CHL1  H24B 6720   0.877   3.402   4.055
   75CHL1   C25 6721   1.014   3.249   4.113
   75CHL1   H25 6722   0.977   3.172   4.042
   75CHL1   C26 6723   1.162   3.220   4.132
   75CHL1  H26A 6724   1.213   3.231   4.034
   75CHL1  H26B 6725   1.220   3.291   4.196
   75CHL1  H26C 6726   1.180   3.117   4.168
   75CHL1   C27 6727   0.934   3.224   4.246
   75CHL1  H27A 6728   0.826   3.239   4.229
   75CHL1  H27B 6729   0.958   3.122   4.284
   75CHL1  H27C 6730   0.955   3.293   4.330
   76CHL1    C3 6731   6.380   4.827   2.689
   76CHL1    H3 6732   6.482   4.819   2.731
   76CHL1    O3 6733   6.361   4.792   2.556
   76CHL1   H3' 6734   6.267   4.796   2.536
   76CHL1    C4 6735   6.307   4.726   2.780
   76CHL1   H4A 6736   6.198   4.730   2.759
   76CHL1   H4B 6737   6.328   4.620   2.753
   76CHL1    C5 6738   6.334   4.762   2.927
   76CHL1    C6 6739   6.411   4.672   2.998
   76CHL1    H6 6740   6.442   4.572   2.963
   76CHL1    C7 6741   6.438   4.695   3.147
   76CHL1   H7A 6742   6.417   4.597   3.195
   76CHL1   H7B 6743   6.543   4.720   3.170
   76CHL1    C8 6744   6.347   4.808   3.204
   76CHL1    H8 6745   6.244   4.767   3.209
   76CHL1   C14 6746   6.405   4.841   3.344
   76CHL1   H14 6747   6.509   4.866   3.315
   76CHL1   C15 6748   6.405   4.728   3.447
   76CHL1  H15A 6749   6.318   4.659   3.449
   76CHL1  H15B 6750   6.491   4.663   3.418
   76CHL1   C16 6751   6.424   4.798   3.580
   76CHL1  H16A 6752   6.356   4.767   3.662
   76CHL1  H16B 6753   6.530   4.787   3.614
   76CHL1   C17 6754   6.407   4.951   3.554
   76CHL1   H17 6755   6.505   4.995   3.526
   76CHL1   C13 6756   6.334   4.958   3.417
   76CHL1   C18 6757   6.184   4.916   3.444
   76CHL1  H18A 6758   6.118   4.999   3.477
   76CHL1  H18B 6759   6.136   4.897   3.346
   76CHL1  H18C 6760   6.183   4.830   3.514
   76CHL1   C12 6761   6.334   5.081   3.332
   76CHL1  H12A 6762   6.295   5.169   3.387
   76CHL1  H12B 6763   6.440   5.114   3.319
   76CHL1   C11 6764   6.293   5.057   3.187
   76CHL1  H11A 6765   6.182   5.055   3.185
   76CHL1  H11B 6766   6.329   5.133   3.114
   76CHL1    C9 6767   6.353   4.930   3.118
   76CHL1    H9 6768   6.459   4.962   3.105
   76CHL1   C10 6769   6.297   4.903   2.975
   76CHL1   C19 6770   6.145   4.898   2.980
   76CHL1  H19A 6771   6.113   4.820   3.052
   76CHL1  H19B 6772   6.087   4.982   3.025
   76CHL1  H19C 6773   6.103   4.886   2.878
   76CHL1    C1 6774   6.347   5.005   2.864
   76CHL1   H1A 6775   6.290   5.099   2.883
   76CHL1   H1B 6776   6.457   5.015   2.877
   76CHL1    C2 6777   6.320   4.962   2.714
   76CHL1   H2A 6778   6.368   5.042   2.653
   76CHL1   H2B 6779   6.210   4.972   2.704
   76CHL1   C20 6780   6.375   5.042   3.678
   76CHL1   H20 6781   6.266   5.039   3.699
   76CHL1   C21 6782   6.414   5.192   3.642
   76CHL1  H21A 6783   6.516   5.189   3.596
   76CHL1  H21B 6784   6.426   5.260   3.729
   76CHL1  H21C 6785   6.339   5.222   3.566
   76CHL1   C22 6786   6.444   5.000   3.809
   76CHL1  H22A 6787   6.431   4.894   3.841
   76CHL1  H22B 6788   6.553   4.991   3.788
   76CHL1   C23 6789   6.411   5.082   3.933
   76CHL1  H23A 6790   6.427   5.191   3.918
   76CHL1  H23B 6791   6.305   5.066   3.960
   76CHL1   C24 6792   6.498   5.025   4.051
   76CHL1  H24A 6793   6.470   4.922   4.083
   76CHL1  H24B 6794   6.603   5.010   4.018
   76CHL1   C25 6795   6.512   5.121   4.169
   76CHL1   H25 6796   6.515   5.224   4.129
   76CHL1   C26 6797   6.382   5.105   4.253
   76CHL1  H26A 6798   6.387   5.193   4.321
   76CHL1  H26B 6799   6.297   5.113   4.181
   76CHL1  H26C 6800   6.371   5.007   4.303
   76CHL1   C27 6801   6.635   5.084   4.254
   76CHL1  H27A 6802   6.736   5.099   4.210
   76CHL1  H27B 6803   6.636   5.149   4.344
   76CHL1  H27C 6804   6.620   4.982   4.295
   77SOPE     N 6805   3.463   2.627   6.816
   77SOPE   HN1 6806   3.390   2.556   6.794
   77SOPE   HN2 6807   3.530   2.569   6.869
   77SOPE   HN3 6808   3.431   2.705   6.877
   77SOPE   C12 6809   3.520   2.682   6.684
   77SOPE  H12A 6810   3.435   2.722   6.625
   77SOPE  H12B 6811   3.559   2.589   6.638
   77SOPE   C11 6812   3.638   2.780   6.708
   77SOPE  H11A 6813   3.665   2.807   6.604
   77SOPE  H11B 6814   3.728   2.731   6.752
   77SOPE     P 6815   3.672   2.983   6.867
   77SOPE   O13 6816   3.794   3.034   6.800
   77SOPE   O14 6817   3.688   2.922   7.004
   77SOPE   O12 6818   3.590   2.903   6.771
   77SOPE   O11 6819   3.579   3.106   6.890
   77SOPE    C1 6820   3.467   3.130   6.808
   77SOPE    HA 6821   3.391   3.172   6.878
   77SOPE    HB 6822   3.413   3.040   6.774
   77SOPE    C2 6823   3.498   3.228   6.688
   77SOPE    HS 6824   3.412   3.266   6.628
   77SOPE   O21 6825   3.586   3.171   6.588
   77SOPE   C21 6826   3.535   3.075   6.510
   77SOPE   O22 6827   3.432   3.019   6.519
   77SOPE   C22 6828   3.643   3.047   6.401
   77SOPE   H2R 6829   3.617   2.951   6.351
   77SOPE   H2S 6830   3.748   3.052   6.438
   77SOPE    C3 6831   3.561   3.364   6.746
   77SOPE    HX 6832   3.645   3.339   6.815
   77SOPE    HY 6833   3.481   3.420   6.800
   77SOPE   O31 6834   3.603   3.441   6.632
   77SOPE   C31 6835   3.737   3.451   6.607
   77SOPE   O32 6836   3.824   3.401   6.671
   77SOPE   C32 6837   3.746   3.541   6.488
   77SOPE   H2X 6838   3.765   3.641   6.532
   77SOPE   H2Y 6839   3.648   3.530   6.437
   77SOPE   C23 6840   3.639   3.152   6.289
   77SOPE   H3R 6841   3.736   3.135   6.238
   77SOPE   H3S 6842   3.637   3.255   6.332
   77SOPE   C24 6843   3.536   3.139   6.182
   77SOPE   H4R 6844   3.450   3.112   6.247
   77SOPE   H4S 6845   3.515   3.238   6.137
   77SOPE   C25 6846   3.541   3.027   6.077
   77SOPE   H5R 6847   3.635   3.047   6.020
   77SOPE   H5S 6848   3.558   2.929   6.126
   77SOPE   C26 6849   3.415   3.029   5.989
   77SOPE   H6R 6850   3.321   3.025   6.049
   77SOPE   H6S 6851   3.430   3.127   5.939
   77SOPE   C27 6852   3.415   2.922   5.881
   77SOPE   H7R 6853   3.499   2.935   5.810
   77SOPE   H7S 6854   3.437   2.827   5.934
   77SOPE   C28 6855   3.287   2.928   5.795
   77SOPE   H8R 6856   3.200   2.915   5.862
   77SOPE   H8S 6857   3.291   3.027   5.744
   77SOPE   C29 6858   3.283   2.815   5.692
   77SOPE   H91 6859   3.304   2.719   5.740
   77SOPE  C210 6860   3.282   2.820   5.560
   77SOPE  H101 6861   3.281   2.720   5.515
   77SOPE  C211 6862   3.281   2.941   5.471
   77SOPE  H11R 6863   3.321   3.032   5.520
   77SOPE  H11S 6864   3.175   2.962   5.444
   77SOPE  C212 6865   3.364   2.906   5.340
   77SOPE  H12R 6866   3.444   2.835   5.370
   77SOPE  H12S 6867   3.409   2.995   5.289
   77SOPE  C213 6868   3.281   2.834   5.236
   77SOPE  H13R 6869   3.224   2.746   5.273
   77SOPE  H13S 6870   3.340   2.807   5.146
   77SOPE  C214 6871   3.177   2.929   5.175
   77SOPE  H14R 6872   3.198   3.031   5.214
   77SOPE  H14S 6873   3.077   2.905   5.217
   77SOPE  C215 6874   3.166   2.918   5.019
   77SOPE  H15R 6875   3.076   2.977   4.994
   77SOPE  H15S 6876   3.145   2.810   5.006
   77SOPE  C216 6877   3.282   2.976   4.932
   77SOPE  H16R 6878   3.243   2.969   4.829
   77SOPE  H16S 6879   3.373   2.912   4.934
   77SOPE  C217 6880   3.307   3.126   4.950
   77SOPE  H17R 6881   3.360   3.152   5.045
   77SOPE  H17S 6882   3.210   3.178   4.938
   77SOPE  C218 6883   3.383   3.190   4.831
   77SOPE  H18R 6884   3.325   3.189   4.736
   77SOPE  H18S 6885   3.478   3.135   4.817
   77SOPE  H18T 6886   3.409   3.296   4.854
   77SOPE   C33 6887   3.868   3.513   6.397
   77SOPE   H3X 6888   3.865   3.405   6.370
   77SOPE   H3Y 6889   3.962   3.519   6.456
   77SOPE   C34 6890   3.869   3.585   6.267
   77SOPE   H4X 6891   3.963   3.553   6.216
   77SOPE   H4Y 6892   3.874   3.694   6.291
   77SOPE   C35 6893   3.746   3.564   6.179
   77SOPE   H5X 6894   3.653   3.604   6.225
   77SOPE   H5Y 6895   3.740   3.458   6.146
   77SOPE   C36 6896   3.765   3.647   6.047
   77SOPE   H6X 6897   3.855   3.609   5.993
   77SOPE   H6Y 6898   3.797   3.752   6.062
   77SOPE   C37 6899   3.641   3.628   5.950
   77SOPE   H7X 6900   3.551   3.677   5.993
   77SOPE   H7Y 6901   3.617   3.522   5.931
   77SOPE   C38 6902   3.679   3.686   5.814
   77SOPE   H8X 6903   3.781   3.648   5.792
   77SOPE   H8Y 6904   3.680   3.797   5.820
   77SOPE   C39 6905   3.590   3.643   5.701
   77SOPE   H9X 6906   3.491   3.683   5.731
   77SOPE   H9Y 6907   3.597   3.532   5.698
   77SOPE  C310 6908   3.621   3.709   5.567
   77SOPE  H10X 6909   3.729   3.690   5.548
   77SOPE  H10Y 6910   3.611   3.819   5.579
   77SOPE  C311 6911   3.540   3.649   5.454
   77SOPE  H11X 6912   3.434   3.681   5.464
   77SOPE  H11Y 6913   3.540   3.539   5.464
   77SOPE  C312 6914   3.599   3.692   5.313
   77SOPE  H12X 6915   3.710   3.685   5.325
   77SOPE  H12Y 6916   3.559   3.795   5.303
   77SOPE  C313 6917   3.553   3.604   5.194
   77SOPE  H13X 6918   3.450   3.634   5.164
   77SOPE  H13Y 6919   3.538   3.499   5.225
   77SOPE  C314 6920   3.646   3.615   5.068
   77SOPE  H14X 6921   3.753   3.619   5.097
   77SOPE  H14Y 6922   3.624   3.712   5.019
   77SOPE  C315 6923   3.625   3.496   4.972
   77SOPE  H15X 6924   3.522   3.487   4.931
   77SOPE  H15Y 6925   3.635   3.402   5.030
   77SOPE  C316 6926   3.727   3.492   4.859
   77SOPE  H16X 6927   3.823   3.453   4.899
   77SOPE  H16Y 6928   3.753   3.593   4.821
   77SOPE  C317 6929   3.685   3.399   4.739
   77SOPE  H17X 6930   3.601   3.450   4.687
   77SOPE  H17Y 6931   3.640   3.303   4.774
   77SOPE  C318 6932   3.790   3.376   4.635
   77SOPE  H18X 6933   3.820   3.473   4.592
   77SOPE  H18Y 6934   3.751   3.315   4.551
   77SOPE  H18Z 6935   3.885   3.333   4.674
   78SOPE     N 6936   2.519   3.591   6.914
   78SOPE   HN1 6937   2.546   3.687   6.885
   78SOPE   HN2 6938   2.551   3.513   6.854
   78SOPE   HN3 6939   2.415   3.602   6.910
   78SOPE   C12 6940   2.554   3.558   7.055
   78SOPE  H12A 6941   2.476   3.492   7.100
   78SOPE  H12B 6942   2.568   3.655   7.108
   78SOPE   C11 6943   2.687   3.473   7.059
   78SOPE  H11A 6944   2.749   3.502   7.147
   78SOPE  H11B 6945   2.756   3.500   6.976
   78SOPE     P 6946   2.657   3.246   6.927
   78SOPE   O13 6947   2.601   3.124   6.977
   78SOPE   O14 6948   2.791   3.244   6.859
   78SOPE   O12 6949   2.675   3.330   7.057
   78SOPE   O11 6950   2.560   3.324   6.830
   78SOPE    C1 6951   2.435   3.277   6.799
   78SOPE    HA 6952   2.377   3.359   6.751
   78SOPE    HB 6953   2.375   3.229   6.879
   78SOPE    C2 6954   2.437   3.172   6.687
   78SOPE    HS 6955   2.507   3.092   6.717
   78SOPE   O21 6956   2.458   3.235   6.552
   78SOPE   C21 6957   2.578   3.202   6.508
   78SOPE   O22 6958   2.650   3.117   6.552
   78SOPE   C22 6959   2.610   3.299   6.399
   78SOPE   H2R 6960   2.688   3.369   6.437
   78SOPE   H2S 6961   2.527   3.360   6.358
   78SOPE    C3 6962   2.304   3.092   6.676
   78SOPE    HX 6963   2.216   3.154   6.650
   78SOPE    HY 6964   2.283   3.044   6.774
   78SOPE   O31 6965   2.331   2.981   6.595
   78SOPE   C31 6966   2.235   2.894   6.559
   78SOPE   O32 6967   2.120   2.909   6.599
   78SOPE   C32 6968   2.301   2.785   6.470
   78SOPE   H2X 6969   2.366   2.738   6.547
   78SOPE   H2Y 6970   2.370   2.829   6.394
   78SOPE   C23 6971   2.681   3.224   6.289
   78SOPE   H3R 6972   2.652   3.118   6.277
   78SOPE   H3S 6973   2.790   3.209   6.308
   78SOPE   C24 6974   2.661   3.274   6.145
   78SOPE   H4R 6975   2.693   3.380   6.150
   78SOPE   H4S 6976   2.724   3.215   6.075
   78SOPE   C25 6977   2.513   3.249   6.110
   78SOPE   H5R 6978   2.491   3.140   6.120
   78SOPE   H5S 6979   2.449   3.314   6.172
   78SOPE   C26 6980   2.480   3.292   5.962
   78SOPE   H6R 6981   2.375   3.256   5.953
   78SOPE   H6S 6982   2.492   3.401   5.940
   78SOPE   C27 6983   2.561   3.202   5.860
   78SOPE   H7R 6984   2.669   3.204   5.885
   78SOPE   H7S 6985   2.516   3.103   5.882
   78SOPE   C28 6986   2.533   3.250   5.714
   78SOPE   H8R 6987   2.424   3.243   5.695
   78SOPE   H8S 6988   2.552   3.360   5.715
   78SOPE   C29 6989   2.619   3.201   5.596
   78SOPE   H91 6990   2.727   3.224   5.590
   78SOPE  C210 6991   2.569   3.156   5.477
   78SOPE  H101 6992   2.637   3.127   5.395
   78SOPE  C211 6993   2.432   3.135   5.438
   78SOPE  H11R 6994   2.370   3.166   5.525
   78SOPE  H11S 6995   2.428   3.027   5.416
   78SOPE  C212 6996   2.372   3.215   5.324
   78SOPE  H12R 6997   2.400   3.322   5.323
   78SOPE  H12S 6998   2.264   3.195   5.339
   78SOPE  C213 6999   2.405   3.156   5.180
   78SOPE  H13R 7000   2.380   3.049   5.164
   78SOPE  H13S 7001   2.514   3.164   5.160
   78SOPE  C214 7002   2.339   3.238   5.076
   78SOPE  H14R 7003   2.365   3.345   5.081
   78SOPE  H14S 7004   2.229   3.243   5.092
   78SOPE  C215 7005   2.364   3.175   4.939
   78SOPE  H15R 7006   2.308   3.079   4.938
   78SOPE  H15S 7007   2.472   3.148   4.941
   78SOPE  C216 7008   2.311   3.265   4.826
   78SOPE  H16R 7009   2.353   3.367   4.841
   78SOPE  H16S 7010   2.200   3.264   4.830
   78SOPE  C217 7011   2.339   3.203   4.684
   78SOPE  H17R 7012   2.299   3.273   4.607
   78SOPE  H17S 7013   2.291   3.104   4.673
   78SOPE  C218 7014   2.478   3.180   4.645
   78SOPE  H18R 7015   2.543   3.270   4.646
   78SOPE  H18S 7016   2.472   3.121   4.551
   78SOPE  H18T 7017   2.521   3.105   4.715
   78SOPE   C33 7018   2.200   2.689   6.406
   78SOPE   H3X 7019   2.131   2.650   6.483
   78SOPE   H3Y 7020   2.248   2.604   6.353
   78SOPE   C34 7021   2.106   2.742   6.292
   78SOPE   H4X 7022   2.039   2.817   6.339
   78SOPE   H4Y 7023   2.045   2.659   6.252
   78SOPE   C35 7024   2.188   2.800   6.174
   78SOPE   H5X 7025   2.266   2.725   6.151
   78SOPE   H5Y 7026   2.236   2.893   6.213
   78SOPE   C36 7027   2.095   2.845   6.063
   78SOPE   H6X 7028   2.005   2.897   6.100
   78SOPE   H6Y 7029   2.055   2.751   6.020
   78SOPE   C37 7030   2.151   2.927   5.956
   78SOPE   H7X 7031   2.193   2.871   5.870
   78SOPE   H7Y 7032   2.234   2.992   5.991
   78SOPE   C38 7033   2.051   3.034   5.903
   78SOPE   H8X 7034   2.066   3.125   5.965
   78SOPE   H8Y 7035   1.944   3.006   5.906
   78SOPE   C39 7036   2.092   3.079   5.763
   78SOPE   H9X 7037   2.200   3.062   5.742
   78SOPE   H9Y 7038   2.069   3.187   5.761
   78SOPE  C310 7039   2.009   3.010   5.652
   78SOPE  H10X 7040   1.905   2.999   5.688
   78SOPE  H10Y 7041   2.042   2.911   5.614
   78SOPE  C311 7042   1.977   3.111   5.534
   78SOPE  H11X 7043   2.062   3.179   5.514
   78SOPE  H11Y 7044   1.894   3.178   5.566
   78SOPE  C312 7045   1.939   3.037   5.403
   78SOPE  H12X 7046   1.840   2.987   5.409
   78SOPE  H12Y 7047   2.012   2.959   5.374
   78SOPE  C313 7048   1.927   3.139   5.283
   78SOPE  H13X 7049   2.020   3.200   5.286
   78SOPE  H13Y 7050   1.835   3.201   5.273
   78SOPE  C314 7051   1.949   3.064   5.150
   78SOPE  H14X 7052   1.896   2.966   5.147
   78SOPE  H14Y 7053   2.057   3.037   5.143
   78SOPE  C315 7054   1.906   3.146   5.026
   78SOPE  H15X 7055   1.942   3.247   5.054
   78SOPE  H15Y 7056   1.794   3.147   5.028
   78SOPE  C316 7057   1.971   3.092   4.899
   78SOPE  H16X 7058   1.952   2.982   4.900
   78SOPE  H16Y 7059   2.081   3.099   4.916
   78SOPE  C317 7060   1.932   3.150   4.768
   78SOPE  H17X 7061   1.997   3.110   4.687
   78SOPE  H17Y 7062   1.963   3.255   4.786
   78SOPE  C318 7063   1.792   3.122   4.727
   78SOPE  H18X 7064   1.773   3.013   4.738
   78SOPE  H18Y 7065   1.766   3.151   4.623
   78SOPE  H18Z 7066   1.723   3.178   4.793
   79SOPE     N 7067   5.055   1.192   6.842
   79SOPE   HN1 7068   5.113   1.260   6.894
   79SOPE   HN2 7069   5.113   1.107   6.835
   79SOPE   HN3 7070   5.031   1.237   6.751
   79SOPE   C12 7071   4.934   1.167   6.935
   79SOPE  H12A 7072   4.886   1.266   6.947
   79SOPE  H12B 7073   4.968   1.124   7.032
   79SOPE   C11 7074   4.829   1.074   6.884
   79SOPE  H11A 7075   4.784   1.126   6.796
   79SOPE  H11B 7076   4.747   1.066   6.959
   79SOPE     P 7077   4.799   0.835   6.797
   79SOPE   O13 7078   4.676   0.817   6.874
   79SOPE   O14 7079   4.882   0.712   6.782
   79SOPE   O12 7080   4.889   0.948   6.861
   79SOPE   O11 7081   4.758   0.912   6.661
   79SOPE    C1 7082   4.797   0.848   6.532
   79SOPE    HA 7083   4.797   0.737   6.539
   79SOPE    HB 7084   4.904   0.875   6.519
   79SOPE    C2 7085   4.700   0.882   6.418
   79SOPE    HS 7086   4.600   0.845   6.449
   79SOPE   O21 7087   4.742   0.820   6.296
   79SOPE   C21 7088   4.646   0.759   6.221
   79SOPE   O22 7089   4.531   0.741   6.247
   79SOPE   C22 7090   4.727   0.709   6.098
   79SOPE   H2R 7091   4.787   0.623   6.133
   79SOPE   H2S 7092   4.802   0.787   6.068
   79SOPE    C3 7093   4.696   1.032   6.408
   79SOPE    HX 7094   4.800   1.069   6.418
   79SOPE    HY 7095   4.643   1.071   6.498
   79SOPE   O31 7096   4.661   1.094   6.279
   79SOPE   C31 7097   4.532   1.120   6.268
   79SOPE   O32 7098   4.448   1.101   6.355
   79SOPE   C32 7099   4.508   1.172   6.129
   79SOPE   H2X 7100   4.578   1.127   6.055
   79SOPE   H2Y 7101   4.541   1.278   6.132
   79SOPE   C23 7102   4.646   0.683   5.970
   79SOPE   H3R 7103   4.555   0.623   5.994
   79SOPE   H3S 7104   4.715   0.632   5.899
   79SOPE   C24 7105   4.601   0.815   5.908
   79SOPE   H4R 7106   4.505   0.840   5.959
   79SOPE   H4S 7107   4.669   0.895   5.945
   79SOPE   C25 7108   4.595   0.811   5.749
   79SOPE   H5R 7109   4.590   0.918   5.720
   79SOPE   H5S 7110   4.694   0.768   5.721
   79SOPE   C26 7111   4.479   0.727   5.697
   79SOPE   H6R 7112   4.494   0.627   5.743
   79SOPE   H6S 7113   4.377   0.768   5.713
   79SOPE   C27 7114   4.513   0.694   5.548
   79SOPE   H7R 7115   4.558   0.787   5.506
   79SOPE   H7S 7116   4.597   0.624   5.564
   79SOPE   C28 7117   4.394   0.650   5.472
   79SOPE   H8R 7118   4.429   0.595   5.383
   79SOPE   H8S 7119   4.336   0.576   5.531
   79SOPE   C29 7120   4.303   0.762   5.429
   79SOPE   H91 7121   4.231   0.786   5.508
   79SOPE  C210 7122   4.321   0.841   5.324
   79SOPE  H101 7123   4.241   0.912   5.297
   79SOPE  C211 7124   4.418   0.826   5.217
   79SOPE  H11R 7125   4.514   0.778   5.246
   79SOPE  H11S 7126   4.442   0.924   5.172
   79SOPE  C212 7127   4.367   0.751   5.088
   79SOPE  H12R 7128   4.334   0.647   5.112
   79SOPE  H12S 7129   4.455   0.751   5.021
   79SOPE  C213 7130   4.247   0.817   5.017
   79SOPE  H13R 7131   4.265   0.925   4.998
   79SOPE  H13S 7132   4.157   0.801   5.080
   79SOPE  C214 7133   4.221   0.755   4.877
   79SOPE  H14R 7134   4.114   0.776   4.855
   79SOPE  H14S 7135   4.230   0.645   4.865
   79SOPE  C215 7136   4.295   0.810   4.759
   79SOPE  H15R 7137   4.404   0.814   4.781
   79SOPE  H15S 7138   4.266   0.917   4.755
   79SOPE  C216 7139   4.252   0.735   4.627
   79SOPE  H16R 7140   4.141   0.733   4.620
   79SOPE  H16S 7141   4.277   0.627   4.630
   79SOPE  C217 7142   4.303   0.794   4.497
   79SOPE  H17R 7143   4.412   0.814   4.495
   79SOPE  H17S 7144   4.255   0.893   4.480
   79SOPE  C218 7145   4.283   0.701   4.375
   79SOPE  H18R 7146   4.307   0.757   4.282
   79SOPE  H18S 7147   4.180   0.659   4.376
   79SOPE  H18T 7148   4.344   0.608   4.383
   79SOPE   C33 7149   4.365   1.154   6.086
   79SOPE   H3X 7150   4.287   1.188   6.158
   79SOPE   H3Y 7151   4.357   1.043   6.074
   79SOPE   C34 7152   4.338   1.213   5.940
   79SOPE   H4X 7153   4.342   1.322   5.956
   79SOPE   H4Y 7154   4.237   1.170   5.919
   79SOPE   C35 7155   4.428   1.172   5.827
   79SOPE   H5X 7156   4.451   1.064   5.837
   79SOPE   H5Y 7157   4.525   1.225   5.828
   79SOPE   C36 7158   4.374   1.210   5.688
   79SOPE   H6X 7159   4.356   1.319   5.696
   79SOPE   H6Y 7160   4.277   1.155   5.686
   79SOPE   C37 7161   4.470   1.172   5.575
   79SOPE   H7X 7162   4.493   1.064   5.579
   79SOPE   H7Y 7163   4.563   1.233   5.580
   79SOPE   C38 7164   4.396   1.211   5.447
   79SOPE   H8X 7165   4.378   1.320   5.456
   79SOPE   H8Y 7166   4.302   1.155   5.427
   79SOPE   C39 7167   4.490   1.187   5.329
   79SOPE   H9X 7168   4.540   1.089   5.340
   79SOPE   H9Y 7169   4.568   1.267   5.330
   79SOPE  C310 7170   4.409   1.193   5.195
   79SOPE  H10X 7171   4.345   1.283   5.184
   79SOPE  H10Y 7172   4.339   1.107   5.195
   79SOPE  C311 7173   4.509   1.176   5.079
   79SOPE  H11X 7174   4.540   1.069   5.072
   79SOPE  H11Y 7175   4.605   1.224   5.110
   79SOPE  C312 7176   4.460   1.222   4.939
   79SOPE  H12X 7177   4.439   1.331   4.947
   79SOPE  H12Y 7178   4.373   1.162   4.903
   79SOPE  C313 7179   4.564   1.218   4.824
   79SOPE  H13X 7180   4.621   1.124   4.843
   79SOPE  H13Y 7181   4.646   1.291   4.841
   79SOPE  C314 7182   4.502   1.221   4.684
   79SOPE  H14X 7183   4.462   1.322   4.665
   79SOPE  H14Y 7184   4.420   1.147   4.694
   79SOPE  C315 7185   4.588   1.167   4.574
   79SOPE  H15X 7186   4.686   1.131   4.614
   79SOPE  H15Y 7187   4.612   1.242   4.496
   79SOPE  C316 7188   4.525   1.033   4.514
   79SOPE  H16X 7189   4.420   1.055   4.486
   79SOPE  H16Y 7190   4.529   0.959   4.597
   79SOPE  C317 7191   4.601   0.977   4.381
   79SOPE  H17X 7192   4.585   0.867   4.378
   79SOPE  H17Y 7193   4.710   0.979   4.404
   79SOPE  C318 7194   4.552   1.045   4.253
   79SOPE  H18X 7195   4.564   1.155   4.257
   79SOPE  H18Y 7196   4.451   1.012   4.222
   79SOPE  H18Z 7197   4.624   1.017   4.172
   80SOPE     N 7198   1.705   2.864   6.922
   80SOPE   HN1 7199   1.696   2.763   6.947
   80SOPE   HN2 7200   1.797   2.876   6.874
   80SOPE   HN3 7201   1.700   2.930   7.002
   80SOPE   C12 7202   1.604   2.892   6.815
   80SOPE  H12A 7203   1.532   2.965   6.858
   80SOPE  H12B 7204   1.554   2.797   6.785
   80SOPE   C11 7205   1.665   2.957   6.690
   80SOPE  H11A 7206   1.588   2.962   6.610
   80SOPE  H11B 7207   1.740   2.881   6.659
   80SOPE     P 7208   1.660   3.215   6.742
   80SOPE   O13 7209   1.741   3.284   6.843
   80SOPE   O14 7210   1.515   3.192   6.776
   80SOPE   O12 7211   1.735   3.083   6.715
   80SOPE   O11 7212   1.671   3.297   6.602
   80SOPE    C1 7213   1.797   3.295   6.539
   80SOPE    HA 7214   1.851   3.198   6.538
   80SOPE    HB 7215   1.870   3.361   6.591
   80SOPE    C2 7216   1.778   3.335   6.390
   80SOPE    HS 7217   1.732   3.435   6.380
   80SOPE   O21 7218   1.703   3.226   6.324
   80SOPE   C21 7219   1.578   3.256   6.301
   80SOPE   O22 7220   1.517   3.351   6.344
   80SOPE   C22 7221   1.530   3.159   6.210
   80SOPE   H2R 7222   1.420   3.144   6.219
   80SOPE   H2S 7223   1.566   3.055   6.228
   80SOPE    C3 7224   1.911   3.369   6.319
   80SOPE    HX 7225   1.974   3.287   6.361
   80SOPE    HY 7226   1.955   3.467   6.348
   80SOPE   O31 7227   1.905   3.355   6.175
   80SOPE   C31 7228   2.001   3.428   6.105
   80SOPE   O32 7229   2.081   3.501   6.159
   80SOPE   C32 7230   1.964   3.418   5.959
   80SOPE   H2X 7231   1.868   3.474   5.950
   80SOPE   H2Y 7232   1.936   3.311   5.947
   80SOPE   C23 7233   1.561   3.208   6.068
   80SOPE   H3R 7234   1.543   3.122   6.000
   80SOPE   H3S 7235   1.667   3.242   6.064
   80SOPE   C24 7236   1.468   3.329   6.021
   80SOPE   H4R 7237   1.368   3.287   5.996
   80SOPE   H4S 7238   1.448   3.394   6.108
   80SOPE   C25 7239   1.521   3.403   5.894
   80SOPE   H5R 7240   1.450   3.482   5.865
   80SOPE   H5S 7241   1.611   3.459   5.928
   80SOPE   C26 7242   1.552   3.300   5.783
   80SOPE   H6R 7243   1.626   3.221   5.807
   80SOPE   H6S 7244   1.455   3.250   5.766
   80SOPE   C27 7245   1.614   3.377   5.660
   80SOPE   H7R 7246   1.544   3.462   5.643
   80SOPE   H7S 7247   1.712   3.426   5.681
   80SOPE   C28 7248   1.626   3.289   5.536
   80SOPE   H8R 7249   1.696   3.342   5.468
   80SOPE   H8S 7250   1.671   3.191   5.566
   80SOPE   C29 7251   1.491   3.278   5.462
   80SOPE   H91 7252   1.425   3.191   5.477
   80SOPE  C210 7253   1.461   3.355   5.355
   80SOPE  H101 7254   1.370   3.335   5.296
   80SOPE  C211 7255   1.555   3.469   5.300
   80SOPE  H11R 7256   1.629   3.508   5.373
   80SOPE  H11S 7257   1.499   3.550   5.249
   80SOPE  C212 7258   1.649   3.416   5.186
   80SOPE  H12R 7259   1.689   3.320   5.227
   80SOPE  H12S 7260   1.732   3.488   5.172
   80SOPE  C213 7261   1.589   3.392   5.049
   80SOPE  H13R 7262   1.490   3.344   5.036
   80SOPE  H13S 7263   1.654   3.325   4.987
   80SOPE  C214 7264   1.585   3.525   4.962
   80SOPE  H14R 7265   1.658   3.597   5.003
   80SOPE  H14S 7266   1.484   3.569   4.977
   80SOPE  C215 7267   1.596   3.506   4.810
   80SOPE  H15R 7268   1.519   3.428   4.792
   80SOPE  H15S 7269   1.689   3.451   4.787
   80SOPE  C216 7270   1.592   3.625   4.713
   80SOPE  H16R 7271   1.492   3.672   4.726
   80SOPE  H16S 7272   1.593   3.587   4.608
   80SOPE  C217 7273   1.701   3.732   4.743
   80SOPE  H17R 7274   1.792   3.675   4.769
   80SOPE  H17S 7275   1.669   3.788   4.834
   80SOPE  C218 7276   1.736   3.835   4.632
   80SOPE  H18R 7277   1.663   3.916   4.613
   80SOPE  H18S 7278   1.743   3.767   4.544
   80SOPE  H18T 7279   1.825   3.893   4.661
   80SOPE   C33 7280   2.078   3.447   5.861
   80SOPE   H3X 7281   2.147   3.361   5.851
   80SOPE   H3Y 7282   2.124   3.547   5.870
   80SOPE   C34 7283   2.001   3.457   5.724
   80SOPE   H4X 7284   1.938   3.548   5.720
   80SOPE   H4Y 7285   1.939   3.365   5.721
   80SOPE   C35 7286   2.099   3.450   5.601
   80SOPE   H5X 7287   2.161   3.359   5.590
   80SOPE   H5Y 7288   2.165   3.538   5.619
   80SOPE   C36 7289   2.023   3.477   5.476
   80SOPE   H6X 7290   1.957   3.564   5.497
   80SOPE   H6Y 7291   1.960   3.391   5.446
   80SOPE   C37 7292   2.119   3.521   5.366
   80SOPE   H7X 7293   2.212   3.462   5.350
   80SOPE   H7Y 7294   2.157   3.623   5.389
   80SOPE   C38 7295   2.053   3.523   5.228
   80SOPE   H8X 7296   1.957   3.579   5.225
   80SOPE   H8Y 7297   2.045   3.423   5.178
   80SOPE   C39 7298   2.151   3.571   5.114
   80SOPE   H9X 7299   2.238   3.503   5.104
   80SOPE   H9Y 7300   2.191   3.670   5.145
   80SOPE  C310 7301   2.070   3.588   4.980
   80SOPE  H10X 7302   1.980   3.651   4.999
   80SOPE  H10Y 7303   2.033   3.486   4.957
   80SOPE  C311 7304   2.162   3.637   4.870
   80SOPE  H11X 7305   2.248   3.567   4.861
   80SOPE  H11Y 7306   2.197   3.740   4.891
   80SOPE  C312 7307   2.090   3.661   4.741
   80SOPE  H12X 7308   2.169   3.708   4.679
   80SOPE  H12Y 7309   2.013   3.741   4.747
   80SOPE  C313 7310   2.026   3.536   4.679
   80SOPE  H13X 7311   1.939   3.503   4.740
   80SOPE  H13Y 7312   2.098   3.452   4.684
   80SOPE  C314 7313   1.981   3.537   4.529
   80SOPE  H14X 7314   1.907   3.620   4.524
   80SOPE  H14Y 7315   1.931   3.443   4.498
   80SOPE  C315 7316   2.097   3.576   4.428
   80SOPE  H15X 7317   2.169   3.491   4.425
   80SOPE  H15Y 7318   2.153   3.664   4.466
   80SOPE  C316 7319   2.050   3.602   4.281
   80SOPE  H16X 7320   2.132   3.646   4.220
   80SOPE  H16Y 7321   1.962   3.669   4.281
   80SOPE  C317 7322   1.998   3.474   4.209
   80SOPE  H17X 7323   1.906   3.444   4.264
   80SOPE  H17Y 7324   2.078   3.397   4.211
   80SOPE  C318 7325   1.965   3.493   4.058
   80SOPE  H18X 7326   1.951   3.394   4.009
   80SOPE  H18Y 7327   2.048   3.533   3.996
   80SOPE  H18Z 7328   1.884   3.570   4.055
   81SOPE     N 7329   5.130   6.715   6.447
   81SOPE   HN1 7330   5.174   6.638   6.501
   81SOPE   HN2 7331   5.039   6.738   6.494
   81SOPE   HN3 7332   5.109   6.678   6.352
   81SOPE   C12 7333   5.218   6.829   6.420
   81SOPE  H12A 7334   5.165   0.053   6.345
   81SOPE  H12B 7335   5.313   6.791   6.376
   81SOPE   C11 7336   5.234   0.074   6.546
   81SOPE  H11A 7337   5.274   0.175   6.522
   81SOPE  H11B 7338   5.302   0.027   6.619
   81SOPE     P 7339   5.065   0.211   6.706
   81SOPE   O13 7340   5.184   0.261   6.779
   81SOPE   O14 7341   4.963   0.156   6.800
   81SOPE   O12 7342   5.104   0.096   6.601
   81SOPE   O11 7343   5.003   0.325   6.613
   81SOPE    C1 7344   4.936   0.306   6.488
   81SOPE    HA 7345   4.839   0.360   6.498
   81SOPE    HB 7346   4.896   0.203   6.478
   81SOPE    C2 7347   5.026   0.361   6.374
   81SOPE    HS 7348   5.119   0.300   6.381
   81SOPE   O21 7349   5.057   0.504   6.411
   81SOPE   C21 7350   5.175   0.545   6.384
   81SOPE   O22 7351   5.272   0.479   6.342
   81SOPE   C22 7352   5.179   0.699   6.405
   81SOPE   H2R 7353   5.286   0.720   6.424
   81SOPE   H2S 7354   5.105   0.731   6.481
   81SOPE    C3 7355   4.941   0.356   6.242
   81SOPE    HX 7356   4.875   0.446   6.245
   81SOPE    HY 7357   4.873   0.268   6.246
   81SOPE   O31 7358   5.017   0.368   6.122
   81SOPE   C31 7359   5.121   0.294   6.088
   81SOPE   O32 7360   5.152   0.189   6.149
   81SOPE   C32 7361   5.202   0.362   5.984
   81SOPE   H2X 7362   5.268   0.440   6.028
   81SOPE   H2Y 7363   5.131   0.413   5.916
   81SOPE   C23 7364   5.133   0.766   6.272
   81SOPE   H3R 7365   5.028   0.737   6.251
   81SOPE   H3S 7366   5.188   0.721   6.186
   81SOPE   C24 7367   5.141   0.921   6.284
   81SOPE   H4R 7368   5.122   0.953   6.389
   81SOPE   H4S 7369   5.244   0.955   6.260
   81SOPE   C25 7370   5.042   0.989   6.184
   81SOPE   H5R 7371   5.076   0.963   6.081
   81SOPE   H5S 7372   4.937   0.959   6.205
   81SOPE   C26 7373   5.047   1.143   6.200
   81SOPE   H6R 7374   4.984   1.179   6.284
   81SOPE   H6S 7375   5.151   1.179   6.211
   81SOPE   C27 7376   4.996   1.215   6.071
   81SOPE   H7R 7377   4.994   1.321   6.104
   81SOPE   H7S 7378   5.062   1.208   5.982
   81SOPE   C28 7379   4.858   1.169   6.026
   81SOPE   H8R 7380   4.847   1.059   6.035
   81SOPE   H8S 7381   4.793   1.201   6.109
   81SOPE   C29 7382   4.812   1.217   5.896
   81SOPE   H91 7383   4.727   1.285   5.913
   81SOPE  C210 7384   4.841   1.187   5.768
   81SOPE  H101 7385   4.774   1.222   5.688
   81SOPE  C211 7386   4.954   1.094   5.726
   81SOPE  H11R 7387   4.946   0.995   5.777
   81SOPE  H11S 7388   5.053   1.127   5.763
   81SOPE  C212 7389   4.974   1.078   5.582
   81SOPE  H12R 7390   5.060   1.008   5.568
   81SOPE  H12S 7391   4.997   1.167   5.520
   81SOPE  C213 7392   4.870   0.986   5.518
   81SOPE  H13R 7393   4.769   1.030   5.500
   81SOPE  H13S 7394   4.856   0.897   5.583
   81SOPE  C214 7395   4.929   0.939   5.379
   81SOPE  H14R 7396   4.991   0.848   5.391
   81SOPE  H14S 7397   5.001   1.018   5.347
   81SOPE  C215 7398   4.818   0.917   5.274
   81SOPE  H15R 7399   4.792   1.018   5.238
   81SOPE  H15S 7400   4.729   0.866   5.319
   81SOPE  C216 7401   4.854   0.833   5.150
   81SOPE  H16R 7402   4.884   0.734   5.189
   81SOPE  H16S 7403   4.940   0.871   5.090
   81SOPE  C217 7404   4.735   0.811   5.051
   81SOPE  H17R 7405   4.685   0.909   5.041
   81SOPE  H17S 7406   4.675   0.738   5.110
   81SOPE  C218 7407   4.765   0.760   4.915
   81SOPE  H18R 7408   4.815   0.827   4.842
   81SOPE  H18S 7409   4.669   0.718   4.875
   81SOPE  H18T 7410   4.822   0.666   4.931
   81SOPE   C33 7411   5.282   0.283   5.889
   81SOPE   H3X 7412   5.274   0.329   5.788
   81SOPE   H3Y 7413   5.245   0.179   5.874
   81SOPE   C34 7414   5.424   0.274   5.921
   81SOPE   H4X 7415   5.440   0.211   6.012
   81SOPE   H4Y 7416   5.475   0.373   5.920
   81SOPE   C35 7417   5.502   0.200   5.802
   81SOPE   H5X 7418   5.462   0.096   5.799
   81SOPE   H5Y 7419   5.608   0.186   5.830
   81SOPE   C36 7420   5.477   0.260   5.663
   81SOPE   H6X 7421   5.577   0.243   5.618
   81SOPE   H6Y 7422   5.474   0.371   5.668
   81SOPE   C37 7423   5.374   0.187   5.578
   81SOPE   H7X 7424   5.271   0.203   5.616
   81SOPE   H7Y 7425   5.405   0.082   5.560
   81SOPE   C38 7426   5.371   0.242   5.437
   81SOPE   H8X 7427   5.463   0.216   5.381
   81SOPE   H8Y 7428   5.368   0.352   5.449
   81SOPE   C39 7429   5.248   0.200   5.353
   81SOPE   H9X 7430   5.234   0.236   5.249
   81SOPE   H9Y 7431   5.154   0.229   5.404
   81SOPE  C310 7432   5.237   0.046   5.331
   81SOPE  H10X 7433   5.216   6.830   5.426
   81SOPE  H10Y 7434   5.337   0.008   5.298
   81SOPE  C311 7435   5.128   0.004   5.228
   81SOPE  H11X 7436   5.027   0.050   5.235
   81SOPE  H11Y 7437   5.102   6.737   5.252
   81SOPE  C312 7438   5.170   0.015   5.079
   81SOPE  H12X 7439   5.234   6.770   5.045
   81SOPE  H12Y 7440   5.220   0.112   5.056
   81SOPE  C313 7441   5.043   6.837   4.994
   81SOPE  H13X 7442   4.968   0.079   5.007
   81SOPE  H13Y 7443   4.987   6.748   5.031
   81SOPE  C314 7444   5.078   6.804   4.844
   81SOPE  H14X 7445   5.146   6.716   4.846
   81SOPE  H14Y 7446   5.136   0.055   4.814
   81SOPE  C315 7447   4.955   6.784   4.754
   81SOPE  H15X 7448   4.864   0.004   4.781
   81SOPE  H15Y 7449   4.918   6.680   4.765
   81SOPE  C316 7450   4.986   6.794   4.604
   81SOPE  H16X 7451   5.021   0.058   4.579
   81SOPE  H16Y 7452   4.898   6.771   4.541
   81SOPE  C317 7453   5.106   6.704   4.558
   81SOPE  H17X 7454   5.104   6.605   4.607
   81SOPE  H17Y 7455   5.197   6.743   4.607
   81SOPE  C318 7456   5.118   6.689   4.408
   81SOPE  H18X 7457   5.110   6.790   4.363
   81SOPE  H18Y 7458   5.048   6.621   4.355
   81SOPE  H18Z 7459   5.222   6.654   4.391
   82SOPE     N 7460   1.971   0.955   6.948
   82SOPE   HN1 7461   2.026   0.980   7.033
   82SOPE   HN2 7462   2.044   0.948   6.873
   82SOPE   HN3 7463   1.897   1.020   6.916
   82SOPE   C12 7464   1.918   0.814   6.948
   82SOPE  H12A 7465   1.844   0.810   7.031
   82SOPE  H12B 7466   1.999   0.743   6.977
   82SOPE   C11 7467   1.857   0.760   6.814
   82SOPE  H11A 7468   1.783   0.837   6.787
   82SOPE  H11B 7469   1.802   0.665   6.832
   82SOPE     P 7470   1.924   0.750   6.563
   82SOPE   O13 7471   2.050   0.761   6.486
   82SOPE   O14 7472   1.815   0.841   6.533
   82SOPE   O12 7473   1.964   0.749   6.712
   82SOPE   O11 7474   1.858   0.606   6.547
   82SOPE    C1 7475   1.942   0.499   6.583
   82SOPE    HA 7476   1.898   0.444   6.669
   82SOPE    HB 7477   2.047   0.530   6.606
   82SOPE    C2 7478   1.955   0.406   6.457
   82SOPE    HS 7479   2.023   0.323   6.490
   82SOPE   O21 7480   2.022   0.476   6.346
   82SOPE   C21 7481   2.144   0.510   6.372
   82SOPE   O22 7482   2.211   0.467   6.461
   82SOPE   C22 7483   2.218   0.579   6.254
   82SOPE   H2R 7484   2.288   0.503   6.215
   82SOPE   H2S 7485   2.280   0.658   6.302
   82SOPE    C3 7486   1.812   0.346   6.412
   82SOPE    HX 7487   1.750   0.433   6.382
   82SOPE    HY 7488   1.762   0.299   6.500
   82SOPE   O31 7489   1.839   0.247   6.311
   82SOPE   C31 7490   1.734   0.217   6.227
   82SOPE   O32 7491   1.624   0.256   6.233
   82SOPE   C32 7492   1.793   0.139   6.107
   82SOPE   H2X 7493   1.836   0.040   6.136
   82SOPE   H2Y 7494   1.877   0.202   6.071
   82SOPE   C23 7495   2.136   0.642   6.139
   82SOPE   H3R 7496   2.071   0.717   6.189
   82SOPE   H3S 7497   2.075   0.568   6.083
   82SOPE   C24 7498   2.232   0.723   6.045
   82SOPE   H4R 7499   2.304   0.781   6.105
   82SOPE   H4S 7500   2.296   0.659   5.980
   82SOPE   C25 7501   2.163   0.826   5.949
   82SOPE   H5R 7502   2.135   0.919   6.003
   82SOPE   H5S 7503   2.240   0.861   5.877
   82SOPE   C26 7504   2.032   0.776   5.891
   82SOPE   H6R 7505   1.976   0.724   5.971
   82SOPE   H6S 7506   1.958   0.854   5.864
   82SOPE   C27 7507   2.056   0.678   5.772
   82SOPE   H7R 7508   2.108   0.727   5.686
   82SOPE   H7S 7509   2.125   0.599   5.809
   82SOPE   C28 7510   1.924   0.621   5.720
   82SOPE   H8R 7511   1.888   0.558   5.803
   82SOPE   H8S 7512   1.848   0.700   5.703
   82SOPE   C29 7513   1.936   0.542   5.588
   82SOPE   H91 7514   1.923   0.433   5.594
   82SOPE  C210 7515   1.958   0.585   5.466
   82SOPE  H101 7516   1.987   0.516   5.386
   82SOPE  C211 7517   1.982   0.725   5.417
   82SOPE  H11R 7518   2.062   0.735   5.341
   82SOPE  H11S 7519   2.012   0.789   5.503
   82SOPE  C212 7520   1.853   0.780   5.361
   82SOPE  H12R 7521   1.850   0.888   5.387
   82SOPE  H12S 7522   1.767   0.728   5.407
   82SOPE  C213 7523   1.849   0.778   5.201
   82SOPE  H13R 7524   1.740   0.796   5.192
   82SOPE  H13S 7525   1.860   0.672   5.172
   82SOPE  C214 7526   1.939   0.882   5.143
   82SOPE  H14R 7527   2.042   0.841   5.153
   82SOPE  H14S 7528   1.946   0.959   5.223
   82SOPE  C215 7529   1.902   0.943   5.012
   82SOPE  H15R 7530   1.839   0.866   4.963
   82SOPE  H15S 7531   1.992   0.970   4.952
   82SOPE  C216 7532   1.811   1.071   5.017
   82SOPE  H16R 7533   1.861   1.154   5.072
   82SOPE  H16S 7534   1.727   1.049   5.086
   82SOPE  C217 7535   1.761   1.128   4.887
   82SOPE  H17R 7536   1.723   1.229   4.914
   82SOPE  H17S 7537   1.683   1.066   4.838
   82SOPE  C218 7538   1.866   1.149   4.776
   82SOPE  H18R 7539   1.923   1.240   4.803
   82SOPE  H18S 7540   1.817   1.167   4.678
   82SOPE  H18T 7541   1.929   1.058   4.765
   82SOPE   C33 7542   1.681   0.133   5.998
   82SOPE   H3X 7543   1.640   0.235   5.979
   82SOPE   H3Y 7544   1.604   0.060   6.031
   82SOPE   C34 7545   1.740   0.100   5.859
   82SOPE   H4X 7546   1.658   0.068   5.791
   82SOPE   H4Y 7547   1.808   0.012   5.863
   82SOPE   C35 7548   1.804   0.215   5.779
   82SOPE   H5X 7549   1.893   0.258   5.829
   82SOPE   H5Y 7550   1.725   0.291   5.763
   82SOPE   C36 7551   1.859   0.180   5.643
   82SOPE   H6X 7552   1.909   0.082   5.623
   82SOPE   H6Y 7553   1.941   0.249   5.613
   82SOPE   C37 7554   1.747   0.200   5.533
   82SOPE   H7X 7555   1.664   0.265   5.568
   82SOPE   H7Y 7556   1.714   0.098   5.504
   82SOPE   C38 7557   1.787   0.264   5.396
   82SOPE   H8X 7558   1.877   0.224   5.346
   82SOPE   H8Y 7559   1.788   0.374   5.416
   82SOPE   C39 7560   1.673   0.246   5.295
   82SOPE   H9X 7561   1.580   0.283   5.343
   82SOPE   H9Y 7562   1.664   0.143   5.256
   82SOPE  C310 7563   1.690   0.333   5.172
   82SOPE  H10X 7564   1.795   0.322   5.136
   82SOPE  H10Y 7565   1.667   0.441   5.185
   82SOPE  C311 7566   1.606   0.281   5.050
   82SOPE  H11X 7567   1.499   0.299   5.072
   82SOPE  H11Y 7568   1.627   0.172   5.037
   82SOPE  C312 7569   1.645   0.340   4.918
   82SOPE  H12X 7570   1.756   0.335   4.914
   82SOPE  H12Y 7571   1.634   0.451   4.912
   82SOPE  C313 7572   1.605   0.259   4.791
   82SOPE  H13X 7573   1.494   0.253   4.781
   82SOPE  H13Y 7574   1.639   0.154   4.796
   82SOPE  C314 7575   1.669   0.326   4.668
   82SOPE  H14X 7576   1.614   0.414   4.629
   82SOPE  H14Y 7577   1.644   0.252   4.589
   82SOPE  C315 7578   1.820   0.360   4.677
   82SOPE  H15X 7579   1.872   0.267   4.708
   82SOPE  H15Y 7580   1.838   0.448   4.743
   82SOPE  C316 7581   1.877   0.403   4.536
   82SOPE  H16X 7582   1.983   0.431   4.554
   82SOPE  H16Y 7583   1.833   0.501   4.508
   82SOPE  C317 7584   1.857   0.292   4.437
   82SOPE  H17X 7585   1.747   0.300   4.426
   82SOPE  H17Y 7586   1.890   0.194   4.478
   82SOPE  C318 7587   1.918   0.320   4.303
   82SOPE  H18X 7588   2.018   0.273   4.291
   82SOPE  H18Y 7589   1.918   0.429   4.283
   82SOPE  H18Z 7590   1.860   0.273   4.220
   83SOPE     N 7591   2.098   2.585   2.008
   83SOPE   HN1 7592   2.198   2.575   2.035
   83SOPE   HN2 7593   2.076   2.686   1.992
   83SOPE   HN3 7594   2.038   2.556   2.087
   83SOPE   C12 7595   2.038   2.507   1.895
   83SOPE  H12A 7596   2.097   2.413   1.891
   83SOPE  H12B 7597   2.062   2.558   1.799
   83SOPE   C11 7598   1.887   2.493   1.894
   83SOPE  H11A 7599   1.859   2.433   1.983
   83SOPE  H11B 7600   1.856   2.439   1.802
   83SOPE     P 7601   1.673   2.645   1.858
   83SOPE   O13 7602   1.628   2.513   1.797
   83SOPE   O14 7603   1.660   2.770   1.781
   83SOPE   O12 7604   1.826   2.621   1.901
   83SOPE   O11 7605   1.602   2.652   1.997
   83SOPE    C1 7606   1.682   2.718   2.100
   83SOPE    HA 7607   1.699   2.822   2.067
   83SOPE    HB 7608   1.775   2.664   2.129
   83SOPE    C2 7609   1.593   2.736   2.233
   83SOPE    HS 7610   1.669   2.762   2.309
   83SOPE   O21 7611   1.524   2.613   2.266
   83SOPE   C21 7612   1.584   2.492   2.277
   83SOPE   O22 7613   1.696   2.467   2.248
   83SOPE   C22 7614   1.481   2.379   2.325
   83SOPE   H2R 7615   1.434   2.339   2.233
   83SOPE   H2S 7616   1.400   2.431   2.381
   83SOPE    C3 7617   1.499   2.855   2.221
   83SOPE    HX 7618   1.449   2.839   2.124
   83SOPE    HY 7619   1.555   2.951   2.214
   83SOPE   O31 7620   1.387   2.865   2.314
   83SOPE   C31 7621   1.425   2.893   2.440
   83SOPE   O32 7622   1.540   2.921   2.476
   83SOPE   C32 7623   1.302   2.899   2.539
   83SOPE   H2X 7624   1.214   2.856   2.487
   83SOPE   H2Y 7625   1.277   3.006   2.560
   83SOPE   C23 7626   1.544   2.278   2.421
   83SOPE   H3R 7627   1.592   2.343   2.497
   83SOPE   H3S 7628   1.621   2.224   2.361
   83SOPE   C24 7629   1.460   2.183   2.499
   83SOPE   H4R 7630   1.382   2.237   2.558
   83SOPE   H4S 7631   1.399   2.114   2.437
   83SOPE   C25 7632   1.540   2.121   2.614
   83SOPE   H5R 7633   1.633   2.066   2.586
   83SOPE   H5S 7634   1.582   2.211   2.664
   83SOPE   C26 7635   1.456   2.042   2.712
   83SOPE   H6R 7636   1.355   2.087   2.718
   83SOPE   H6S 7637   1.440   1.949   2.653
   83SOPE   C27 7638   1.526   2.019   2.847
   83SOPE   H7R 7639   1.618   1.966   2.815
   83SOPE   H7S 7640   1.555   2.114   2.898
   83SOPE   C28 7641   1.463   1.917   2.950
   83SOPE   H8R 7642   1.430   1.830   2.888
   83SOPE   H8S 7643   1.548   1.893   3.018
   83SOPE   C29 7644   1.348   1.985   3.026
   83SOPE   H91 7645   1.287   2.059   2.973
   83SOPE  C210 7646   1.305   1.953   3.152
   83SOPE  H101 7647   1.216   2.007   3.190
   83SOPE  C211 7648   1.346   1.841   3.240
   83SOPE  H11R 7649   1.412   1.881   3.320
   83SOPE  H11S 7650   1.405   1.763   3.187
   83SOPE  C212 7651   1.222   1.774   3.309
   83SOPE  H12R 7652   1.154   1.734   3.231
   83SOPE  H12S 7653   1.166   1.854   3.363
   83SOPE  C213 7654   1.260   1.664   3.412
   83SOPE  H13R 7655   1.358   1.689   3.458
   83SOPE  H13S 7656   1.272   1.576   3.345
   83SOPE  C214 7657   1.167   1.637   3.522
   83SOPE  H14R 7658   1.070   1.599   3.483
   83SOPE  H14S 7659   1.145   1.729   3.580
   83SOPE  C215 7660   1.217   1.532   3.630
   83SOPE  H15R 7661   1.158   1.559   3.721
   83SOPE  H15S 7662   1.319   1.543   3.671
   83SOPE  C216 7663   1.193   1.390   3.587
   83SOPE  H16R 7664   1.262   1.358   3.505
   83SOPE  H16S 7665   1.094   1.375   3.540
   83SOPE  C217 7666   1.188   1.278   3.703
   83SOPE  H17R 7667   1.114   1.311   3.779
   83SOPE  H17S 7668   1.285   1.274   3.757
   83SOPE  C218 7669   1.154   1.133   3.666
   83SOPE  H18R 7670   1.223   1.087   3.592
   83SOPE  H18S 7671   1.054   1.142   3.619
   83SOPE  H18T 7672   1.136   1.068   3.755
   83SOPE   C33 7673   1.340   2.826   2.666
   83SOPE   H3X 7674   1.433   2.850   2.722
   83SOPE   H3Y 7675   1.372   2.724   2.636
   83SOPE   C34 7676   1.237   2.824   2.777
   83SOPE   H4X 7677   1.140   2.781   2.746
   83SOPE   H4Y 7678   1.225   2.929   2.811
   83SOPE   C35 7679   1.302   2.753   2.898
   83SOPE   H5X 7680   1.394   2.807   2.930
   83SOPE   H5Y 7681   1.346   2.655   2.870
   83SOPE   C36 7682   1.208   2.718   3.027
   83SOPE   H6X 7683   1.257   2.636   3.084
   83SOPE   H6Y 7684   1.116   2.675   2.983
   83SOPE   C37 7685   1.183   2.835   3.111
   83SOPE   H7X 7686   1.115   2.899   3.052
   83SOPE   H7Y 7687   1.276   2.895   3.124
   83SOPE   C38 7688   1.124   2.790   3.250
   83SOPE   H8X 7689   1.189   2.709   3.291
   83SOPE   H8Y 7690   1.021   2.759   3.222
   83SOPE   C39 7691   1.107   2.895   3.363
   83SOPE   H9X 7692   1.019   2.960   3.343
   83SOPE   H9Y 7693   1.205   2.949   3.358
   83SOPE  C310 7694   1.087   2.829   3.500
   83SOPE  H10X 7695   1.159   2.747   3.514
   83SOPE  H10Y 7696   0.987   2.781   3.497
   83SOPE  C311 7697   1.084   2.922   3.614
   83SOPE  H11X 7698   1.000   2.993   3.601
   83SOPE  H11Y 7699   1.175   2.985   3.624
   83SOPE  C312 7700   1.062   2.854   3.748
   83SOPE  H12X 7701   1.133   2.771   3.770
   83SOPE  H12Y 7702   0.962   2.809   3.730
   83SOPE  C313 7703   1.061   2.958   3.870
   83SOPE  H13X 7704   0.973   3.027   3.864
   83SOPE  H13Y 7705   1.152   3.021   3.870
   83SOPE  C314 7706   1.053   2.886   3.999
   83SOPE  H14X 7707   1.077   2.956   4.082
   83SOPE  H14Y 7708   1.129   2.805   3.997
   83SOPE  C315 7709   0.911   2.824   4.026
   83SOPE  H15X 7710   0.889   2.772   3.930
   83SOPE  H15Y 7711   0.835   2.903   4.041
   83SOPE  C316 7712   0.918   2.721   4.134
   83SOPE  H16X 7713   0.947   2.782   4.222
   83SOPE  H16Y 7714   0.998   2.645   4.122
   83SOPE  C317 7715   0.774   2.666   4.165
   83SOPE  H17X 7716   0.744   2.625   4.066
   83SOPE  H17Y 7717   0.721   2.762   4.180
   83SOPE  C318 7718   0.754   2.561   4.275
   83SOPE  H18X 7719   0.649   2.527   4.282
   83SOPE  H18Y 7720   0.790   2.598   4.373
   83SOPE  H18Z 7721   0.818   2.474   4.247
   84SOPE     N 7722   0.912   0.832   2.252
   84SOPE   HN1 7723   1.003   0.812   2.206
   84SOPE   HN2 7724   0.922   0.914   2.314
   84SOPE   HN3 7725   0.900   0.750   2.315
   84SOPE   C12 7726   0.790   0.863   2.169
   84SOPE  H12A 7727   0.810   0.817   2.070
   84SOPE  H12B 7728   0.788   0.970   2.141
   84SOPE   C11 7729   0.653   0.815   2.220
   84SOPE  H11A 7730   0.578   0.850   2.147
   84SOPE  H11B 7731   0.626   0.866   2.315
   84SOPE     P 7732   0.585   0.561   2.159
   84SOPE   O13 7733   0.685   0.488   2.077
   84SOPE   O14 7734   0.481   0.631   2.083
   84SOPE   O12 7735   0.666   0.673   2.238
   84SOPE   O11 7736   0.522   0.478   2.280
   84SOPE    C1 7737   0.397   0.519   2.341
   84SOPE    HA 7738   0.311   0.482   2.282
   84SOPE    HB 7739   0.400   0.629   2.352
   84SOPE    C2 7740   0.379   0.458   2.484
   84SOPE    HS 7741   0.293   0.503   2.537
   84SOPE   O21 7742   0.501   0.479   2.565
   84SOPE   C21 7743   0.525   0.602   2.599
   84SOPE   O22 7744   0.446   0.696   2.595
   84SOPE   C22 7745   0.677   0.621   2.621
   84SOPE   H2R 7746   0.706   0.688   2.537
   84SOPE   H2S 7747   0.723   0.520   2.612
   84SOPE    C3 7748   0.344   0.307   2.486
   84SOPE    HX 7749   0.435   0.272   2.431
   84SOPE    HY 7750   0.262   0.267   2.423
   84SOPE   O31 7751   0.343   0.244   2.619
   84SOPE   C31 7752   0.412   0.121   2.624
   84SOPE   O32 7753   0.455   0.067   2.527
   84SOPE   C32 7754   0.391   0.060   2.763
   84SOPE   H2X 7755   0.283   0.037   2.779
   84SOPE   H2Y 7756   0.422   0.146   2.827
   84SOPE   C23 7757   0.712   0.694   2.753
   84SOPE   H3R 7758   0.671   0.798   2.757
   84SOPE   H3S 7759   0.822   0.703   2.767
   84SOPE   C24 7760   0.656   0.609   2.868
   84SOPE   H4R 7761   0.686   0.664   2.960
   84SOPE   H4S 7762   0.546   0.594   2.871
   84SOPE   C25 7763   0.705   0.465   2.875
   84SOPE   H5R 7764   0.667   0.402   2.792
   84SOPE   H5S 7765   0.812   0.474   2.846
   84SOPE   C26 7766   0.694   0.395   3.008
   84SOPE   H6R 7767   0.589   0.374   3.037
   84SOPE   H6S 7768   0.746   0.298   2.988
   84SOPE   C27 7769   0.777   0.462   3.119
   84SOPE   H7R 7770   0.862   0.519   3.075
   84SOPE   H7S 7771   0.723   0.551   3.158
   84SOPE   C28 7772   0.820   0.365   3.228
   84SOPE   H8R 7773   0.733   0.318   3.279
   84SOPE   H8S 7774   0.871   0.282   3.174
   84SOPE   C29 7775   0.925   0.425   3.321
   84SOPE   H91 7776   1.023   0.428   3.270
   84SOPE  C210 7777   0.926   0.441   3.451
   84SOPE  H101 7778   1.020   0.471   3.500
   84SOPE  C211 7779   0.806   0.427   3.543
   84SOPE  H11R 7780   0.718   0.389   3.487
   84SOPE  H11S 7781   0.771   0.525   3.580
   84SOPE  C212 7782   0.832   0.346   3.670
   84SOPE  H12R 7783   0.871   0.245   3.646
   84SOPE  H12S 7784   0.729   0.330   3.709
   84SOPE  C213 7785   0.935   0.402   3.772
   84SOPE  H13R 7786   1.039   0.370   3.747
   84SOPE  H13S 7787   0.916   0.350   3.868
   84SOPE  C214 7788   0.932   0.555   3.790
   84SOPE  H14R 7789   0.833   0.592   3.825
   84SOPE  H14S 7790   0.944   0.609   3.694
   84SOPE  C215 7791   1.041   0.607   3.885
   84SOPE  H15R 7792   1.140   0.604   3.836
   84SOPE  H15S 7793   1.036   0.543   3.976
   84SOPE  C216 7794   1.019   0.749   3.949
   84SOPE  H16R 7795   0.922   0.753   4.002
   84SOPE  H16S 7796   1.015   0.833   3.875
   84SOPE  C217 7797   1.138   0.782   4.044
   84SOPE  H17R 7798   1.172   0.701   4.112
   84SOPE  H17S 7799   1.102   0.861   4.113
   84SOPE  C218 7800   1.258   0.833   3.969
   84SOPE  H18R 7801   1.240   0.927   3.914
   84SOPE  H18S 7802   1.291   0.754   3.899
   84SOPE  H18T 7803   1.346   0.841   4.036
   84SOPE   C33 7804   0.484   6.776   2.800
   84SOPE   H3X 7805   0.593   6.793   2.793
   84SOPE   H3Y 7806   0.463   6.696   2.725
   84SOPE   C34 7807   0.451   6.715   2.946
   84SOPE   H4X 7808   0.512   6.624   2.963
   84SOPE   H4Y 7809   0.343   6.701   2.968
   84SOPE   C35 7810   0.499   6.802   3.057
   84SOPE   H5X 7811   0.436   0.055   3.053
   84SOPE   H5Y 7812   0.603   0.003   3.051
   84SOPE   C36 7813   0.461   6.733   3.195
   84SOPE   H6X 7814   0.512   6.635   3.192
   84SOPE   H6Y 7815   0.351   6.720   3.197
   84SOPE   C37 7816   0.521   6.819   3.318
   84SOPE   H7X 7817   0.481   0.084   3.308
   84SOPE   H7Y 7818   0.632   6.821   3.314
   84SOPE   C38 7819   0.485   6.766   3.454
   84SOPE   H8X 7820   0.493   6.655   3.462
   84SOPE   H8Y 7821   0.380   6.789   3.481
   84SOPE   C39 7822   0.565   0.005   3.561
   84SOPE   H9X 7823   0.592   0.107   3.525
   84SOPE   H9Y 7824   0.663   6.792   3.571
   84SOPE  C310 7825   0.491   0.019   3.699
   84SOPE  H10X 7826   0.450   6.759   3.729
   84SOPE  H10Y 7827   0.394   0.072   3.686
   84SOPE  C311 7828   0.581   0.071   3.812
   84SOPE  H11X 7829   0.544   0.168   3.851
   84SOPE  H11Y 7830   0.680   0.101   3.770
   84SOPE  C312 7831   0.591   6.807   3.926
   84SOPE  H12X 7832   0.594   6.701   3.893
   84SOPE  H12Y 7833   0.502   6.832   3.988
   84SOPE  C313 7834   0.717   6.832   4.007
   84SOPE  H13X 7835   0.794   6.794   3.936
   84SOPE  H13Y 7836   0.721   6.760   4.091
   84SOPE  C314 7837   0.728   0.136   4.057
   84SOPE  H14X 7838   0.644   0.163   4.124
   84SOPE  H14Y 7839   0.726   0.199   3.966
   84SOPE  C315 7840   0.857   0.147   4.132
   84SOPE  H15X 7841   0.946   0.149   4.067
   84SOPE  H15Y 7842   0.870   0.053   4.190
   84SOPE  C316 7843   0.876   0.273   4.231
   84SOPE  H16X 7844   0.985   0.275   4.250
   84SOPE  H16Y 7845   0.815   0.269   4.324
   84SOPE  C317 7846   0.843   0.405   4.163
   84SOPE  H17X 7847   0.739   0.416   4.125
   84SOPE  H17Y 7848   0.909   0.412   4.074
   84SOPE  C318 7849   0.860   0.527   4.247
   84SOPE  H18X 7850   0.856   0.621   4.188
   84SOPE  H18Y 7851   0.962   0.510   4.286
   84SOPE  H18Z 7852   0.799   0.529   4.340
   85SOPE     N 7853   5.135   4.311   1.558
   85SOPE   HN1 7854   5.178   4.249   1.487
   85SOPE   HN2 7855   5.124   4.404   1.511
   85SOPE   HN3 7856   5.199   4.318   1.639
   85SOPE   C12 7857   5.008   4.246   1.597
   85SOPE  H12A 7858   5.040   4.163   1.665
   85SOPE  H12B 7859   4.957   4.215   1.504
   85SOPE   C11 7860   4.920   4.337   1.679
   85SOPE  H11A 7861   4.853   4.274   1.741
   85SOPE  H11B 7862   4.849   4.399   1.619
   85SOPE     P 7863   5.001   4.406   1.923
   85SOPE   O13 7864   4.874   4.446   1.995
   85SOPE   O14 7865   5.126   4.481   1.960
   85SOPE   O12 7866   4.991   4.430   1.763
   85SOPE   O11 7867   5.030   4.251   1.935
   85SOPE    C1 7868   5.161   4.191   1.949
   85SOPE    HA 7869   5.241   4.267   1.942
   85SOPE    HB 7870   5.179   4.113   1.871
   85SOPE    C2 7871   5.192   4.112   2.077
   85SOPE    HS 7872   5.116   4.032   2.091
   85SOPE   O21 7873   5.205   4.208   2.183
   85SOPE   C21 7874   5.113   4.206   2.276
   85SOPE   O22 7875   5.051   4.104   2.301
   85SOPE   C22 7876   5.103   4.343   2.333
   85SOPE   H2R 7877   5.085   4.408   2.245
   85SOPE   H2S 7878   5.199   4.380   2.375
   85SOPE    C3 7879   5.316   4.035   2.057
   85SOPE    HX 7880   5.382   4.096   1.992
   85SOPE    HY 7881   5.300   3.946   1.993
   85SOPE   O31 7882   5.375   4.000   2.187
   85SOPE   C31 7883   5.316   3.903   2.267
   85SOPE   O32 7884   5.231   3.828   2.232
   85SOPE   C32 7885   5.368   3.889   2.407
   85SOPE   H2X 7886   5.433   3.977   2.428
   85SOPE   H2Y 7887   5.433   3.800   2.395
   85SOPE   C23 7888   5.006   4.357   2.448
   85SOPE   H3R 7889   4.905   4.323   2.418
   85SOPE   H3S 7890   4.995   4.464   2.478
   85SOPE   C24 7891   5.048   4.284   2.581
   85SOPE   H4R 7892   5.048   4.174   2.568
   85SOPE   H4S 7893   5.154   4.305   2.605
   85SOPE   C25 7894   4.963   4.324   2.697
   85SOPE   H5R 7895   4.958   4.434   2.711
   85SOPE   H5S 7896   4.859   4.288   2.686
   85SOPE   C26 7897   5.004   4.252   2.821
   85SOPE   H6R 7898   4.909   4.262   2.877
   85SOPE   H6S 7899   5.011   4.144   2.798
   85SOPE   C27 7900   5.131   4.303   2.889
   85SOPE   H7R 7901   5.224   4.288   2.830
   85SOPE   H7S 7902   5.121   4.413   2.877
   85SOPE   C28 7903   5.147   4.250   3.028
   85SOPE   H8R 7904   5.147   4.139   3.035
   85SOPE   H8S 7905   5.251   4.277   3.055
   85SOPE   C29 7906   5.042   4.310   3.117
   85SOPE   H91 7907   4.946   4.317   3.064
   85SOPE  C210 7908   5.057   4.360   3.242
   85SOPE  H101 7909   4.972   4.395   3.301
   85SOPE  C211 7910   5.179   4.348   3.337
   85SOPE  H11R 7911   5.253   4.428   3.312
   85SOPE  H11S 7912   5.228   4.254   3.305
   85SOPE  C212 7913   5.145   4.338   3.485
   85SOPE  H12R 7914   5.071   4.255   3.492
   85SOPE  H12S 7915   5.085   4.429   3.507
   85SOPE  C213 7916   5.271   4.328   3.575
   85SOPE  H13R 7917   5.334   4.419   3.583
   85SOPE  H13S 7918   5.329   4.238   3.548
   85SOPE  C214 7919   5.218   4.309   3.718
   85SOPE  H14R 7920   5.149   4.223   3.714
   85SOPE  H14S 7921   5.149   4.393   3.743
   85SOPE  C215 7922   5.325   4.308   3.825
   85SOPE  H15R 7923   5.389   4.397   3.805
   85SOPE  H15S 7924   5.394   4.224   3.804
   85SOPE  C216 7925   5.274   4.310   3.973
   85SOPE  H16R 7926   5.204   4.395   3.989
   85SOPE  H16S 7927   5.363   4.339   4.033
   85SOPE  C217 7928   5.226   4.169   4.017
   85SOPE  H17R 7929   5.312   4.099   4.018
   85SOPE  H17S 7930   5.154   4.132   3.941
   85SOPE  C218 7931   5.185   4.174   4.158
   85SOPE  H18R 7932   5.176   4.083   4.221
   85SOPE  H18S 7933   5.091   4.230   4.177
   85SOPE  H18T 7934   5.255   4.239   4.214
   85SOPE   C33 7935   5.253   3.877   2.504
   85SOPE   H3X 7936   5.236   3.767   2.509
   85SOPE   H3Y 7937   5.159   3.916   2.460
   85SOPE   C34 7938   5.285   3.929   2.644
   85SOPE   H4X 7939   5.209   4.005   2.670
   85SOPE   H4Y 7940   5.384   3.979   2.653
   85SOPE   C35 7941   5.275   3.819   2.751
   85SOPE   H5X 7942   5.360   3.748   2.746
   85SOPE   H5Y 7943   5.177   3.769   2.734
   85SOPE   C36 7944   5.273   3.877   2.893
   85SOPE   H6X 7945   5.178   3.934   2.904
   85SOPE   H6Y 7946   5.363   3.941   2.881
   85SOPE   C37 7947   5.287   3.767   2.999
   85SOPE   H7X 7948   5.358   3.694   2.954
   85SOPE   H7Y 7949   5.192   3.717   3.028
   85SOPE   C38 7950   5.352   3.806   3.132
   85SOPE   H8X 7951   5.447   3.862   3.117
   85SOPE   H8Y 7952   5.390   3.708   3.167
   85SOPE   C39 7953   5.253   3.863   3.222
   85SOPE   H9X 7954   5.192   3.781   3.267
   85SOPE   H9Y 7955   5.185   3.920   3.156
   85SOPE  C310 7956   5.312   3.959   3.328
   85SOPE  H10X 7957   5.238   4.027   3.374
   85SOPE  H10Y 7958   5.378   4.035   3.281
   85SOPE  C311 7959   5.391   3.883   3.435
   85SOPE  H11X 7960   5.494   3.859   3.402
   85SOPE  H11Y 7961   5.335   3.791   3.461
   85SOPE  C312 7962   5.397   3.954   3.575
   85SOPE  H12X 7963   5.287   3.973   3.582
   85SOPE  H12Y 7964   5.449   4.050   3.556
   85SOPE  C313 7965   5.453   3.873   3.692
   85SOPE  H13X 7966   5.559   3.842   3.676
   85SOPE  H13Y 7967   5.388   3.784   3.696
   85SOPE  C314 7968   5.441   3.932   3.833
   85SOPE  H14X 7969   5.343   3.980   3.851
   85SOPE  H14Y 7970   5.517   4.013   3.834
   85SOPE  C315 7971   5.474   3.823   3.940
   85SOPE  H15X 7972   5.557   3.757   3.907
   85SOPE  H15Y 7973   5.388   3.753   3.937
   85SOPE  C316 7974   5.504   3.873   4.087
   85SOPE  H16X 7975   5.415   3.929   4.124
   85SOPE  H16Y 7976   5.587   3.946   4.096
   85SOPE  C317 7977   5.536   3.760   4.188
   85SOPE  H17X 7978   5.622   3.694   4.161
   85SOPE  H17Y 7979   5.451   3.689   4.185
   85SOPE  C318 7980   5.560   3.824   4.324
   85SOPE  H18X 7981   5.505   3.920   4.328
   85SOPE  H18Y 7982   5.670   3.834   4.338
   85SOPE  H18Z 7983   5.524   3.761   4.408
   86SOPE     N 7984   5.333   1.734   2.446
   86SOPE   HN1 7985   5.251   1.787   2.409
   86SOPE   HN2 7986   5.392   1.809   2.488
   86SOPE   HN3 7987   5.394   1.699   2.371
   86SOPE   C12 7988   5.294   1.623   2.540
   86SOPE  H12A 7989   5.236   1.546   2.484
   86SOPE  H12B 7990   5.226   1.662   2.618
   86SOPE   C11 7991   5.418   1.570   2.612
   86SOPE  H11A 7992   5.400   1.495   2.692
   86SOPE  H11B 7993   5.473   1.642   2.677
   86SOPE     P 7994   5.668   1.540   2.498
   86SOPE   O13 7995   5.699   1.664   2.568
   86SOPE   O14 7996   5.686   1.549   2.357
   86SOPE   O12 7997   5.515   1.516   2.516
   86SOPE   O11 7998   5.728   1.413   2.563
   86SOPE    C1 7999   5.670   1.287   2.521
   86SOPE    HA 8000   5.752   1.221   2.485
   86SOPE    HB 8001   5.602   1.297   2.434
   86SOPE    C2 8002   5.601   1.218   2.641
   86SOPE    HS 8003   5.511   1.280   2.659
   86SOPE   O21 8004   5.690   1.209   2.755
   86SOPE   C21 8005   5.660   1.275   2.866
   86SOPE   O22 8006   5.553   1.334   2.886
   86SOPE   C22 8007   5.771   1.238   2.970
   86SOPE   H2R 8008   5.857   1.308   2.957
   86SOPE   H2S 8009   5.811   1.135   2.954
   86SOPE    C3 8010   5.561   1.078   2.597
   86SOPE    HX 8011   5.634   1.024   2.534
   86SOPE    HY 8012   5.466   1.081   2.539
   86SOPE   O31 8013   5.533   0.995   2.709
   86SOPE   C31 8014   5.515   0.865   2.682
   86SOPE   O32 8015   5.534   0.815   2.569
   86SOPE   C32 8016   5.464   0.797   2.812
   86SOPE   H2X 8017   5.370   0.852   2.833
   86SOPE   H2Y 8018   5.549   0.819   2.880
   86SOPE   C23 8019   5.722   1.254   3.114
   86SOPE   H3R 8020   5.640   1.182   3.134
   86SOPE   H3S 8021   5.687   1.359   3.124
   86SOPE   C24 8022   5.828   1.236   3.216
   86SOPE   H4R 8023   5.893   1.147   3.203
   86SOPE   H4S 8024   5.890   1.328   3.215
   86SOPE   C25 8025   5.772   1.230   3.358
   86SOPE   H5R 8026   5.692   1.301   3.390
   86SOPE   H5S 8027   5.714   1.136   3.359
   86SOPE   C26 8028   5.882   1.225   3.471
   86SOPE   H6R 8029   5.941   1.133   3.454
   86SOPE   H6S 8030   5.953   1.309   3.459
   86SOPE   C27 8031   5.834   1.220   3.615
   86SOPE   H7R 8032   5.782   1.314   3.641
   86SOPE   H7S 8033   5.757   1.140   3.610
   86SOPE   C28 8034   5.954   1.189   3.712
   86SOPE   H8R 8035   5.905   1.152   3.805
   86SOPE   H8S 8036   6.014   1.107   3.666
   86SOPE   C29 8037   6.049   1.303   3.748
   86SOPE   H91 8038   6.070   1.365   3.660
   86SOPE  C210 8039   6.109   1.317   3.862
   86SOPE  H101 8040   6.169   1.409   3.867
   86SOPE  C211 8041   6.081   1.253   3.991
   86SOPE  H11R 8042   5.986   1.196   3.995
   86SOPE  H11S 8043   6.083   1.340   4.060
   86SOPE  C212 8044   6.200   1.162   4.046
   86SOPE  H12R 8045   6.284   1.229   4.072
   86SOPE  H12S 8046   6.246   1.094   3.971
   86SOPE  C213 8047   6.171   1.072   4.165
   86SOPE  H13R 8048   6.259   1.005   4.175
   86SOPE  H13S 8049   6.079   1.015   4.140
   86SOPE  C214 8050   6.131   1.145   4.295
   86SOPE  H14R 8051   6.076   1.080   4.366
   86SOPE  H14S 8052   6.062   1.227   4.267
   86SOPE  C215 8053   6.253   1.195   4.360
   86SOPE  H15R 8054   6.288   1.290   4.313
   86SOPE  H15S 8055   6.339   1.124   4.353
   86SOPE  C216 8056   6.238   1.231   4.507
   86SOPE  H16R 8057   6.175   1.161   4.566
   86SOPE  H16S 8058   6.171   1.320   4.512
   86SOPE  C217 8059   6.376   1.252   4.573
   86SOPE  H17R 8060   6.426   1.323   4.504
   86SOPE  H17S 8061   6.434   1.157   4.575
   86SOPE  C218 8062   6.376   1.304   4.725
   86SOPE  H18R 8063   6.389   1.222   4.799
   86SOPE  H18S 8064   6.283   1.365   4.728
   86SOPE  H18T 8065   6.461   1.375   4.741
   86SOPE   C33 8066   5.433   0.650   2.800
   86SOPE   H3X 8067   5.526   0.594   2.777
   86SOPE   H3Y 8068   5.354   0.636   2.723
   86SOPE   C34 8069   5.361   0.593   2.927
   86SOPE   H4X 8070   5.337   0.486   2.911
   86SOPE   H4Y 8071   5.267   0.653   2.929
   86SOPE   C35 8072   5.439   0.612   3.061
   86SOPE   H5X 8073   5.464   0.720   3.067
   86SOPE   H5Y 8074   5.529   0.547   3.056
   86SOPE   C36 8075   5.360   0.570   3.183
   86SOPE   H6X 8076   5.328   0.464   3.177
   86SOPE   H6Y 8077   5.275   0.641   3.191
   86SOPE   C37 8078   5.443   0.592   3.314
   86SOPE   H7X 8079   5.475   0.696   3.332
   86SOPE   H7Y 8080   5.541   0.540   3.305
   86SOPE   C38 8081   5.372   0.537   3.443
   86SOPE   H8X 8082   5.326   0.437   3.433
   86SOPE   H8Y 8083   5.296   0.612   3.474
   86SOPE   C39 8084   5.476   0.518   3.550
   86SOPE   H9X 8085   5.540   0.608   3.556
   86SOPE   H9Y 8086   5.536   0.427   3.529
   86SOPE  C310 8087   5.417   0.510   3.689
   86SOPE  H10X 8088   5.341   0.429   3.692
   86SOPE  H10Y 8089   5.361   0.605   3.701
   86SOPE  C311 8090   5.516   0.489   3.803
   86SOPE  H11X 8091   5.584   0.577   3.805
   86SOPE  H11Y 8092   5.588   0.408   3.780
   86SOPE  C312 8093   5.444   0.477   3.942
   86SOPE  H12X 8094   5.392   0.378   3.948
   86SOPE  H12Y 8095   5.376   0.562   3.962
   86SOPE  C313 8096   5.556   0.469   4.048
   86SOPE  H13X 8097   5.626   0.554   4.033
   86SOPE  H13Y 8098   5.617   0.378   4.029
   86SOPE  C314 8099   5.508   0.472   4.195
   86SOPE  H14X 8100   5.586   0.422   4.257
   86SOPE  H14Y 8101   5.420   0.404   4.188
   86SOPE  C315 8102   5.474   0.616   4.232
   86SOPE  H15X 8103   5.431   0.673   4.147
   86SOPE  H15Y 8104   5.571   0.663   4.263
   86SOPE  C316 8105   5.371   0.622   4.347
   86SOPE  H16X 8106   5.423   0.562   4.425
   86SOPE  H16Y 8107   5.273   0.579   4.315
   86SOPE  C317 8108   5.346   0.764   4.406
   86SOPE  H17X 8109   5.315   0.829   4.322
   86SOPE  H17Y 8110   5.436   0.813   4.449
   86SOPE  C318 8111   5.249   0.766   4.528
   86SOPE  H18X 8112   5.249   0.864   4.580
   86SOPE  H18Y 8113   5.285   0.698   4.608
   86SOPE  H18Z 8114   5.148   0.741   4.490
   87SOPE     N 8115   0.178   0.392   2.044
   87SOPE   HN1 8116   0.216   0.298   2.065
   87SOPE   HN2 8117   0.250   0.446   1.991
   87SOPE   HN3 8118   0.165   0.440   2.135
   87SOPE   C12 8119   0.058   0.389   1.960
   87SOPE  H12A 8120   0.050   0.491   1.916
   87SOPE  H12B 8121   6.806   0.354   2.013
   87SOPE   C11 8122   0.078   0.292   1.844
   87SOPE  H11A 8123   0.167   0.321   1.785
   87SOPE  H11B 8124   6.833   0.319   1.775
   87SOPE     P 8125   6.790   0.070   1.887
   87SOPE   O13 8126   6.818   6.780   1.825
   87SOPE   O14 8127   6.672   0.144   1.831
   87SOPE   O12 8128   0.078   0.163   1.892
   87SOPE   O11 8129   6.755   0.039   2.039
   87SOPE    C1 8130   0.022   6.832   2.124
   87SOPE    HA 8131   0.104   0.068   2.132
   87SOPE    HB 8132   0.074   6.741   2.089
   87SOPE    C2 8133   6.815   6.805   2.270
   87SOPE    HS 8134   6.750   6.716   2.254
   87SOPE   O21 8135   6.748   0.071   2.330
   87SOPE   C21 8136   6.647   0.046   2.412
   87SOPE   O22 8137   6.601   6.773   2.436
   87SOPE   C22 8138   6.595   0.184   2.452
   87SOPE   H2R 8139   6.560   0.223   2.353
   87SOPE   H2S 8140   6.685   0.245   2.474
   87SOPE    C3 8141   0.091   6.765   2.362
   87SOPE    HX 8142   0.165   0.008   2.378
   87SOPE    HY 8143   0.155   6.691   2.311
   87SOPE   O31 8144   0.050   6.723   2.493
   87SOPE   C31 8145   0.007   6.596   2.509
   87SOPE   O32 8146   0.003   6.510   2.426
   87SOPE   C32 8147   6.800   6.568   2.652
   87SOPE   H2X 8148   0.006   6.468   2.671
   87SOPE   H2Y 8149   6.689   6.567   2.659
   87SOPE   C23 8150   6.483   0.207   2.551
   87SOPE   H3R 8151   6.411   0.123   2.562
   87SOPE   H3S 8152   6.421   0.294   2.520
   87SOPE   C24 8153   6.535   0.220   2.691
   87SOPE   H4R 8154   6.537   0.118   2.734
   87SOPE   H4S 8155   6.636   0.267   2.691
   87SOPE   C25 8156   6.426   0.294   2.779
   87SOPE   H5R 8157   6.418   0.402   2.758
   87SOPE   H5S 8158   6.324   0.259   2.752
   87SOPE   C26 8159   6.459   0.279   2.933
   87SOPE   H6R 8160   6.364   0.307   2.984
   87SOPE   H6S 8161   6.482   0.171   2.944
   87SOPE   C27 8162   6.579   0.359   2.974
   87SOPE   H7R 8163   6.675   0.310   2.946
   87SOPE   H7S 8164   6.566   0.452   2.914
   87SOPE   C28 8165   6.579   0.387   3.122
   87SOPE   H8R 8166   6.665   0.454   3.144
   87SOPE   H8S 8167   6.487   0.437   3.158
   87SOPE   C29 8168   6.599   0.270   3.216
   87SOPE   H91 8169   6.595   0.173   3.165
   87SOPE  C210 8170   6.637   0.280   3.346
   87SOPE  H101 8171   6.682   0.191   3.392
   87SOPE  C211 8172   6.663   0.414   3.424
   87SOPE  H11R 8173   6.593   0.493   3.391
   87SOPE  H11S 8174   6.770   0.443   3.410
   87SOPE  C212 8175   6.664   0.398   3.578
   87SOPE  H12R 8176   6.698   0.293   3.593
   87SOPE  H12S 8177   6.560   0.405   3.615
   87SOPE  C213 8178   6.760   0.498   3.651
   87SOPE  H13R 8179   6.755   0.601   3.610
   87SOPE  H13S 8180   0.023   0.472   3.614
   87SOPE  C214 8181   6.767   0.490   3.811
   87SOPE  H14R 8182   6.755   0.384   3.841
   87SOPE  H14S 8183   6.677   0.542   3.851
   87SOPE  C215 8184   0.051   0.552   3.868
   87SOPE  H15R 8185   0.021   0.641   3.926
   87SOPE  H15S 8186   0.125   0.583   3.791
   87SOPE  C216 8187   0.122   0.459   3.971
   87SOPE  H16R 8188   0.221   0.508   3.986
   87SOPE  H16S 8189   0.144   0.362   3.922
   87SOPE  C217 8190   0.043   0.427   4.099
   87SOPE  H17R 8191   0.113   0.365   4.159
   87SOPE  H17S 8192   6.805   0.353   4.066
   87SOPE  C218 8193   6.807   0.534   4.172
   87SOPE  H18R 8194   0.035   0.604   4.226
   87SOPE  H18S 8195   6.749   0.483   4.252
   87SOPE  H18T 8196   6.746   0.600   4.105
   87SOPE   C33 8197   0.024   6.658   2.766
   87SOPE   H3X 8198   6.838   6.764   2.741
   87SOPE   H3Y 8199   0.134   6.657   2.751
   87SOPE   C34 8200   0.002   6.629   2.916
   87SOPE   H4X 8201   0.049   6.530   2.931
   87SOPE   H4Y 8202   6.731   6.618   2.927
   87SOPE   C35 8203   0.050   6.732   3.016
   87SOPE   H5X 8204   6.834   6.824   2.986
   87SOPE   H5Y 8205   0.158   6.755   3.006
   87SOPE   C36 8206   0.007   6.705   3.164
   87SOPE   H6X 8207   0.047   6.612   3.209
   87SOPE   H6Y 8208   6.735   6.696   3.151
   87SOPE   C37 8209   0.029   6.823   3.261
   87SOPE   H7X 8210   6.798   0.066   3.234
   87SOPE   H7Y 8211   0.131   0.029   3.260
   87SOPE   C38 8212   6.830   6.777   3.400
   87SOPE   H8X 8213   0.032   6.674   3.414
   87SOPE   H8Y 8214   6.720   6.770   3.403
   87SOPE   C39 8215   0.055   0.023   3.503
   87SOPE   H9X 8216   0.047   0.132   3.482
   87SOPE   H9Y 8217   0.161   6.831   3.488
   87SOPE  C310 8218   0.000   6.820   3.642
   87SOPE  H10X 8219   0.008   6.711   3.661
   87SOPE  H10Y 8220   6.739   0.029   3.651
   87SOPE  C311 8221   0.067   0.039   3.767
   87SOPE  H11X 8222   0.058   0.149   3.766
   87SOPE  H11Y 8223   0.176   0.021   3.777
   87SOPE  C312 8224   6.835   6.812   3.888
   87SOPE  H12X 8225   0.017   6.703   3.893
   87SOPE  H12Y 8226   6.726   6.834   3.880
   87SOPE  C313 8227   0.040   0.039   4.020
   87SOPE  H13X 8228   6.826   0.132   4.051
   87SOPE  H13Y 8229   0.144   0.072   4.001
   87SOPE  C314 8230   0.033   6.778   4.132
   87SOPE  H14X 8231   0.098   6.697   4.091
   87SOPE  H14Y 8232   6.766   6.748   4.146
   87SOPE  C315 8233   0.084   6.835   4.261
   87SOPE  H15X 8234   0.170   0.059   4.226
   87SOPE  H15Y 8235   0.127   6.744   4.307
   87SOPE  C316 8236   6.825   0.074   4.341
   87SOPE  H16X 8237   6.734   0.019   4.373
   87SOPE  H16Y 8238   6.787   0.156   4.277
   87SOPE  C317 8239   0.043   0.131   4.473
   87SOPE  H17X 8240   6.805   0.199   4.517
   87SOPE  H17Y 8241   0.143   0.178   4.460
   87SOPE  C318 8242   0.066   0.027   4.580
   87SOPE  H18X 8243   0.129   0.060   4.666
   87SOPE  H18Y 8244   0.126   6.783   4.537
   87SOPE  H18Z 8245   6.806   6.826   4.614
   88SOPE     N 8246   1.367   5.349   2.115
   88SOPE   HN1 8247   1.345   5.396   2.024
   88SOPE   HN2 8248   1.456   5.385   2.152
   88SOPE   HN3 8249   1.377   5.246   2.100
   88SOPE   C12 8250   1.274   5.374   2.227
   88SOPE  H12A 8251   1.293   5.307   2.313
   88SOPE  H12B 8252   1.172   5.366   2.182
   88SOPE   C11 8253   1.288   5.524   2.280
   88SOPE  H11A 8254   1.380   5.525   2.343
   88SOPE  H11B 8255   1.200   5.544   2.344
   88SOPE     P 8256   1.223   5.755   2.168
   88SOPE   O13 8257   1.083   5.718   2.139
   88SOPE   O14 8258   1.304   5.837   2.075
   88SOPE   O12 8259   1.302   5.619   2.177
   88SOPE   O11 8260   1.227   5.815   2.315
   88SOPE    C1 8261   1.354   5.843   2.377
   88SOPE    HA 8262   1.376   5.952   2.374
   88SOPE    HB 8263   1.444   5.793   2.335
   88SOPE    C2 8264   1.345   5.793   2.523
   88SOPE    HS 8265   1.330   5.686   2.500
   88SOPE   O21 8266   1.231   5.846   2.592
   88SOPE   C21 8267   1.172   5.754   2.669
   88SOPE   O22 8268   1.191   5.634   2.670
   88SOPE   C22 8269   1.070   5.816   2.759
   88SOPE   H2R 8270   0.986   5.743   2.770
   88SOPE   H2S 8271   1.045   5.915   2.715
   88SOPE    C3 8272   1.476   5.822   2.598
   88SOPE    HX 8273   1.491   5.932   2.598
   88SOPE    HY 8274   1.556   5.770   2.540
   88SOPE   O31 8275   1.476   5.769   2.729
   88SOPE   C31 8276   1.515   5.837   2.826
   88SOPE   O32 8277   1.552   5.954   2.822
   88SOPE   C32 8278   1.530   5.748   2.953
   88SOPE   H2X 8279   1.619   5.682   2.954
   88SOPE   H2Y 8280   1.437   5.688   2.951
   88SOPE   C23 8281   1.116   5.851   2.905
   88SOPE   H3R 8282   1.197   5.927   2.898
   88SOPE   H3S 8283   1.154   5.762   2.961
   88SOPE   C24 8284   1.009   5.896   2.999
   88SOPE   H4R 8285   0.958   5.991   2.969
   88SOPE   H4S 8286   0.930   5.819   3.004
   88SOPE   C25 8287   1.071   5.935   3.132
   88SOPE   H5R 8288   1.124   5.851   3.183
   88SOPE   H5S 8289   1.142   6.020   3.128
   88SOPE   C26 8290   0.967   5.983   3.237
   88SOPE   H6R 8291   0.909   6.069   3.197
   88SOPE   H6S 8292   0.892   5.902   3.250
   88SOPE   C27 8293   1.038   6.022   3.359
   88SOPE   H7R 8294   1.104   5.937   3.388
   88SOPE   H7S 8295   1.093   6.117   3.344
   88SOPE   C28 8296   0.930   6.042   3.473
   88SOPE   H8R 8297   0.981   6.078   3.565
   88SOPE   H8S 8298   0.864   6.124   3.438
   88SOPE   C29 8299   0.860   5.920   3.510
   88SOPE   H91 8300   0.883   5.837   3.441
   88SOPE  C210 8301   0.782   5.907   3.620
   88SOPE  H101 8302   0.731   5.813   3.647
   88SOPE  C211 8303   0.745   6.018   3.719
   88SOPE  H11R 8304   0.634   6.025   3.714
   88SOPE  H11S 8305   0.783   6.118   3.690
   88SOPE  C212 8306   0.792   5.998   3.864
   88SOPE  H12R 8307   0.769   5.894   3.896
   88SOPE  H12S 8308   0.738   6.072   3.928
   88SOPE  C213 8309   0.944   6.030   3.872
   88SOPE  H13R 8310   0.954   6.139   3.851
   88SOPE  H13S 8311   0.999   5.972   3.795
   88SOPE  C214 8312   1.007   5.988   4.010
   88SOPE  H14R 8313   0.950   5.908   4.061
   88SOPE  H14S 8314   0.993   6.080   4.071
   88SOPE  C215 8315   1.158   5.973   4.013
   88SOPE  H15R 8316   1.207   6.064   3.970
   88SOPE  H15S 8317   1.178   5.890   3.943
   88SOPE  C216 8318   1.213   5.946   4.152
   88SOPE  H16R 8319   1.290   5.866   4.144
   88SOPE  H16S 8320   1.136   5.902   4.218
   88SOPE  C217 8321   1.280   6.060   4.220
   88SOPE  H17R 8322   1.355   6.093   4.145
   88SOPE  H17S 8323   1.326   6.032   4.317
   88SOPE  C218 8324   1.176   6.170   4.238
   88SOPE  H18R 8325   1.096   6.126   4.300
   88SOPE  H18S 8326   1.145   6.198   4.135
   88SOPE  H18T 8327   1.215   6.263   4.284
   88SOPE   C33 8328   1.536   5.837   3.080
   88SOPE   H3X 8329   1.615   5.913   3.098
   88SOPE   H3Y 8330   1.563   5.766   3.161
   88SOPE   C34 8331   1.401   5.886   3.129
   88SOPE   H4X 8332   1.332   5.799   3.115
   88SOPE   H4Y 8333   1.366   5.971   3.066
   88SOPE   C35 8334   1.409   5.929   3.278
   88SOPE   H5X 8335   1.330   6.005   3.296
   88SOPE   H5Y 8336   1.504   5.985   3.292
   88SOPE   C36 8337   1.401   5.812   3.371
   88SOPE   H6X 8338   1.477   5.734   3.351
   88SOPE   H6Y 8339   1.306   5.756   3.360
   88SOPE   C37 8340   1.407   5.847   3.524
   88SOPE   H7X 8341   1.335   5.928   3.548
   88SOPE   H7Y 8342   1.494   5.906   3.559
   88SOPE   C38 8343   1.388   5.729   3.614
   88SOPE   H8X 8344   1.471   5.658   3.595
   88SOPE   H8Y 8345   1.294   5.677   3.587
   88SOPE   C39 8346   1.383   5.753   3.765
   88SOPE   H9X 8347   1.368   5.658   3.822
   88SOPE   H9Y 8348   1.306   5.830   3.787
   88SOPE  C310 8349   1.507   5.830   3.811
   88SOPE  H10X 8350   1.520   5.927   3.759
   88SOPE  H10Y 8351   1.594   5.761   3.815
   88SOPE  C311 8352   1.512   5.863   3.966
   88SOPE  H11X 8353   1.429   5.931   3.995
   88SOPE  H11Y 8354   1.602   5.928   3.974
   88SOPE  C312 8355   1.522   5.748   4.065
   88SOPE  H12X 8356   1.599   5.690   4.010
   88SOPE  H12Y 8357   1.425   5.693   4.064
   88SOPE  C313 8358   1.560   5.770   4.214
   88SOPE  H13X 8359   1.468   5.814   4.259
   88SOPE  H13Y 8360   1.639   5.848   4.210
   88SOPE  C314 8361   1.611   5.646   4.296
   88SOPE  H14X 8362   1.521   5.582   4.310
   88SOPE  H14Y 8363   1.625   5.671   4.403
   88SOPE  C315 8364   1.724   5.562   4.235
   88SOPE  H15X 8365   1.804   5.623   4.188
   88SOPE  H15Y 8366   1.682   5.521   4.141
   88SOPE  C316 8367   1.797   5.461   4.318
   88SOPE  H16X 8368   1.720   5.400   4.370
   88SOPE  H16Y 8369   1.860   5.505   4.398
   88SOPE  C317 8370   1.875   5.371   4.218
   88SOPE  H17X 8371   1.803   5.355   4.134
   88SOPE  H17Y 8372   1.885   5.272   4.266
   88SOPE  C318 8373   2.009   5.432   4.184
   88SOPE  H18X 8374   2.014   5.473   4.081
   88SOPE  H18Y 8375   2.087   5.354   4.199
   88SOPE  H18Z 8376   2.040   5.510   4.258
   89SAPC     N 8377   5.243   2.870   6.326
   89SAPC   C12 8378   5.379   2.936   6.356
   89SAPC  H12A 8379   5.442   2.918   6.271
   89SAPC  H12B 8380   5.433   2.890   6.438
   89SAPC   C13 8381   5.281   2.729   6.280
   89SAPC  H13A 8382   5.197   2.669   6.250
   89SAPC  H13B 8383   5.342   2.742   6.192
   89SAPC  H13C 8384   5.350   2.679   6.346
   89SAPC   C14 8385   5.159   2.869   6.450
   89SAPC  H14A 8386   5.149   2.971   6.482
   89SAPC  H14B 8387   5.056   2.853   6.421
   89SAPC  H14C 8388   5.185   2.801   6.530
   89SAPC   C15 8389   5.176   2.944   6.218
   89SAPC  H15A 8390   5.084   2.890   6.202
   89SAPC  H15B 8391   5.155   3.044   6.252
   89SAPC  H15C 8392   5.227   2.947   6.123
   89SAPC   C11 8393   5.381   3.087   6.386
   89SAPC  H11A 8394   5.465   3.117   6.452
   89SAPC  H11B 8395   5.282   3.113   6.428
   89SAPC     P 8396   5.379   3.315   6.229
   89SAPC   O13 8397   5.239   3.357   6.247
   89SAPC   O14 8398   5.482   3.385   6.309
   89SAPC   O12 8399   5.393   3.155   6.264
   89SAPC   O11 8400   5.430   3.317   6.078
   89SAPC    C1 8401   5.417   3.199   5.999
   89SAPC    HA 8402   5.500   3.204   5.925
   89SAPC    HB 8403   5.437   3.100   6.045
   89SAPC    C2 8404   5.282   3.190   5.937
   89SAPC    HS 8405   5.201   3.158   6.006
   89SAPC   O21 8406   5.286   3.114   5.812
   89SAPC   C21 8407   5.271   2.979   5.822
   89SAPC   O22 8408   5.272   2.916   5.928
   89SAPC   C22 8409   5.258   2.917   5.683
   89SAPC   H2R 8410   5.323   2.969   5.609
   89SAPC   H2S 8411   5.283   2.809   5.679
   89SAPC    C3 8412   5.241   3.332   5.886
   89SAPC    HX 8413   5.329   3.375   5.833
   89SAPC    HY 8414   5.213   3.402   5.968
   89SAPC   O31 8415   5.144   3.326   5.777
   89SAPC   C31 8416   5.023   3.289   5.801
   89SAPC   O32 8417   4.982   3.241   5.910
   89SAPC   C32 8418   4.933   3.327   5.682
   89SAPC   H2X 8419   4.978   3.308   5.582
   89SAPC   H2Y 8420   4.912   3.436   5.669
   89SAPC   C23 8421   5.116   2.925   5.622
   89SAPC   H3R 8422   5.095   3.025   5.579
   89SAPC   H3S 8423   5.048   2.886   5.701
   89SAPC   C24 8424   5.127   2.833   5.492
   89SAPC   H4R 8425   5.140   2.730   5.532
   89SAPC   H4S 8426   5.215   2.858   5.430
   89SAPC   C25 8427   5.002   2.846   5.417
   89SAPC   H5R 8428   4.915   2.807   5.472
   89SAPC   C26 8429   4.987   2.907   5.296
   89SAPC   H6R 8430   4.885   2.897   5.257
   89SAPC   C27 8431   5.097   2.966   5.212
   89SAPC   H7R 8432   5.064   2.974   5.106
   89SAPC   H7S 8433   5.186   2.900   5.198
   89SAPC   C28 8434   5.165   3.092   5.255
   89SAPC   H8R 8435   5.269   3.068   5.281
   89SAPC   C29 8436   5.121   3.218   5.270
   89SAPC   H9R 8437   5.186   3.303   5.296
   89SAPC  C210 8438   4.975   3.259   5.246
   89SAPC  H10R 8439   4.940   3.286   5.348
   89SAPC  H10S 8440   4.916   3.169   5.221
   89SAPC  C211 8441   4.968   3.368   5.141
   89SAPC  H11R 8442   4.984   3.332   5.038
   89SAPC  C212 8443   4.966   3.501   5.162
   89SAPC  H12R 8444   4.955   3.572   5.079
   89SAPC  C213 8445   4.969   3.568   5.300
   89SAPC  H13R 8446   4.926   3.502   5.378
   89SAPC  H13S 8447   4.905   3.657   5.280
   89SAPC  C214 8448   5.108   3.615   5.334
   89SAPC  H14R 8449   5.180   3.608   5.251
   89SAPC  C215 8450   5.152   3.642   5.458
   89SAPC  H15R 8451   5.258   3.671   5.468
   89SAPC  C216 8452   5.064   3.650   5.573
   89SAPC  H16R 8453   5.094   3.566   5.639
   89SAPC  H16S 8454   4.957   3.642   5.544
   89SAPC  C217 8455   5.087   3.790   5.639
   89SAPC  H17R 8456   5.065   3.875   5.571
   89SAPC  H17S 8457   5.192   3.801   5.673
   89SAPC  C218 8458   4.996   3.809   5.761
   89SAPC  H18R 8459   4.892   3.778   5.739
   89SAPC  H18S 8460   5.002   3.918   5.782
   89SAPC  C219 8461   5.031   3.716   5.877
   89SAPC  H19R 8462   5.129   3.754   5.912
   89SAPC  H19S 8463   5.038   3.609   5.848
   89SAPC  C220 8464   4.930   3.732   5.991
   89SAPC  H20R 8465   4.830   3.699   5.955
   89SAPC  H20S 8466   4.926   3.836   6.029
   89SAPC  H20T 8467   4.977   3.672   6.071
   89SAPC   C33 8468   4.797   3.260   5.688
   89SAPC   H3X 8469   4.723   3.330   5.645
   89SAPC   H3Y 8470   4.761   3.243   5.792
   89SAPC   C34 8471   4.797   3.124   5.616
   89SAPC   H4X 8472   4.861   3.055   5.674
   89SAPC   H4Y 8473   4.845   3.131   5.516
   89SAPC   C35 8474   4.661   3.064   5.603
   89SAPC   H5X 8475   4.608   3.058   5.700
   89SAPC   H5Y 8476   4.658   2.971   5.542
   89SAPC   C36 8477   4.550   3.144   5.524
   89SAPC   H6X 8478   4.542   3.238   5.583
   89SAPC   H6Y 8479   4.455   3.086   5.530
   89SAPC   C37 8480   4.584   3.162   5.379
   89SAPC   H7X 8481   4.589   3.058   5.338
   89SAPC   H7Y 8482   4.683   3.212   5.388
   89SAPC   C38 8483   4.483   3.252   5.306
   89SAPC   H8X 8484   4.467   3.349   5.358
   89SAPC   H8Y 8485   4.385   3.201   5.301
   89SAPC   C39 8486   4.529   3.285   5.154
   89SAPC   H9X 8487   4.575   3.189   5.124
   89SAPC   H9Y 8488   4.616   3.353   5.163
   89SAPC  C310 8489   4.426   3.339   5.066
   89SAPC  H10X 8490   4.387   3.434   5.108
   89SAPC  H10Y 8491   4.346   3.262   5.070
   89SAPC  C311 8492   4.473   3.353   4.920
   89SAPC  H11X 8493   4.513   3.253   4.890
   89SAPC  H11Y 8494   4.566   3.413   4.909
   89SAPC  C312 8495   4.373   3.390   4.808
   89SAPC  H12X 8496   4.423   3.413   4.712
   89SAPC  H12Y 8497   4.324   3.487   4.829
   89SAPC  C313 8498   4.266   3.282   4.784
   89SAPC  H13X 8499   4.200   3.286   4.873
   89SAPC  H13Y 8500   4.323   3.188   4.768
   89SAPC  C314 8501   4.177   3.311   4.664
   89SAPC  H14X 8502   4.240   3.354   4.583
   89SAPC  H14Y 8503   4.108   3.396   4.682
   89SAPC  C315 8504   4.095   3.195   4.613
   89SAPC  H15X 8505   4.023   3.231   4.537
   89SAPC  H15Y 8506   4.030   3.145   4.687
   89SAPC  C316 8507   4.177   3.089   4.534
   89SAPC  H16X 8508   4.234   3.025   4.603
   89SAPC  H16Y 8509   4.253   3.144   4.475
   89SAPC  C317 8510   4.089   2.984   4.465
   89SAPC  H17X 8511   4.011   3.042   4.412
   89SAPC  H17Y 8512   4.051   2.926   4.551
   89SAPC  C318 8513   4.160   2.891   4.360
   89SAPC  H18X 8514   4.225   2.944   4.288
   89SAPC  H18Y 8515   4.078   2.843   4.303
   89SAPC  H18Z 8516   4.212   2.808   4.413
   90SAPC     N 8517   2.963   6.414   6.625
   90SAPC   C12 8518   3.004   6.270   6.590
   90SAPC  H12A 8519   2.914   6.211   6.606
   90SAPC  H12B 8520   3.067   6.229   6.667
   90SAPC   C13 8521   2.859   6.459   6.521
   90SAPC  H13A 8522   2.886   6.440   6.418
   90SAPC  H13B 8523   2.772   6.396   6.530
   90SAPC  H13C 8524   2.837   6.564   6.535
   90SAPC   C14 8525   2.914   6.418   6.764
   90SAPC  H14A 8526   2.879   6.515   6.794
   90SAPC  H14B 8527   2.847   6.334   6.779
   90SAPC  H14C 8528   2.997   6.405   6.831
   90SAPC   C15 8529   3.073   6.512   6.621
   90SAPC  H15A 8530   3.137   6.496   6.707
   90SAPC  H15B 8531   3.133   6.492   6.534
   90SAPC  H15C 8532   3.038   6.614   6.621
   90SAPC   C11 8533   3.065   6.247   6.453
   90SAPC  H11A 8534   2.993   6.272   6.372
   90SAPC  H11B 8535   3.086   6.143   6.423
   90SAPC     P 8536   3.322   6.277   6.466
   90SAPC   O13 8537   3.425   6.373   6.414
   90SAPC   O14 8538   3.325   6.251   6.610
   90SAPC   O12 8539   3.175   6.330   6.423
   90SAPC   O11 8540   3.327   6.137   6.392
   90SAPC    C1 8541   3.284   6.125   6.257
   90SAPC    HA 8542   3.236   6.025   6.249
   90SAPC    HB 8543   3.205   6.196   6.225
   90SAPC    C2 8544   3.407   6.124   6.157
   90SAPC    HS 8545   3.454   6.225   6.161
   90SAPC   O21 8546   3.355   6.096   6.027
   90SAPC   C21 8547   3.430   6.139   5.930
   90SAPC   O22 8548   3.534   6.205   5.949
   90SAPC   C22 8549   3.364   6.121   5.796
   90SAPC   H2R 8550   3.288   6.039   5.799
   90SAPC   H2S 8551   3.304   6.210   5.767
   90SAPC    C3 8552   3.504   6.020   6.199
   90SAPC    HX 8553   3.539   6.049   6.300
   90SAPC    HY 8554   3.592   6.029   6.131
   90SAPC   O31 8555   3.446   5.881   6.201
   90SAPC   C31 8556   3.462   5.814   6.094
   90SAPC   O32 8557   3.528   5.839   5.992
   90SAPC   C32 8558   3.383   5.686   6.115
   90SAPC   H2X 8559   3.323   5.683   6.209
   90SAPC   H2Y 8560   3.450   5.599   6.127
   90SAPC   C23 8561   3.461   6.086   5.684
   90SAPC   H3R 8562   3.509   5.993   5.722
   90SAPC   H3S 8563   3.536   6.165   5.662
   90SAPC   C24 8564   3.394   6.054   5.546
   90SAPC   H4R 8565   3.346   5.957   5.572
   90SAPC   H4S 8566   3.484   6.031   5.486
   90SAPC   C25 8567   3.296   6.154   5.491
   90SAPC   H5R 8568   3.322   6.258   5.515
   90SAPC   C26 8569   3.182   6.125   5.426
   90SAPC   H6R 8570   3.120   6.212   5.402
   90SAPC   C27 8571   3.138   5.985   5.385
   90SAPC   H7R 8572   3.217   5.912   5.410
   90SAPC   H7S 8573   3.145   5.993   5.274
   90SAPC   C28 8574   3.007   5.931   5.434
   90SAPC   H8R 8575   3.003   5.863   5.520
   90SAPC   C29 8576   2.884   5.964   5.378
   90SAPC   H9R 8577   2.792   5.932   5.430
   90SAPC  C210 8578   2.848   6.056   5.259
   90SAPC  H10R 8579   2.764   6.002   5.211
   90SAPC  H10S 8580   2.933   6.068   5.189
   90SAPC  C211 8581   2.799   6.193   5.306
   90SAPC  H11R 8582   2.818   6.216   5.412
   90SAPC  C212 8583   2.721   6.273   5.231
   90SAPC  H12R 8584   2.696   6.373   5.267
   90SAPC  C213 8585   2.679   6.267   5.089
   90SAPC  H13R 8586   2.720   6.185   5.026
   90SAPC  H13S 8587   2.699   6.365   5.041
   90SAPC  C214 8588   2.531   6.245   5.093
   90SAPC  H14R 8589   2.487   6.190   5.178
   90SAPC  C215 8590   2.433   6.272   5.002
   90SAPC  H15R 8591   2.325   6.262   5.018
   90SAPC  C216 8592   2.457   6.319   4.862
   90SAPC  H16R 8593   2.374   6.280   4.798
   90SAPC  H16S 8594   2.544   6.269   4.816
   90SAPC  C217 8595   2.481   6.469   4.841
   90SAPC  H17R 8596   2.558   6.512   4.908
   90SAPC  H17S 8597   2.385   6.524   4.853
   90SAPC  C218 8598   2.525   6.502   4.703
   90SAPC  H18R 8599   2.623   6.452   4.692
   90SAPC  H18S 8600   2.547   6.611   4.705
   90SAPC  C219 8601   2.417   6.469   4.594
   90SAPC  H19R 8602   2.321   6.521   4.612
   90SAPC  H19S 8603   2.399   6.359   4.603
   90SAPC  C220 8604   2.476   6.490   4.450
   90SAPC  H20R 8605   2.582   6.458   4.441
   90SAPC  H20S 8606   2.477   6.597   4.419
   90SAPC  H20T 8607   2.415   6.427   4.383
   90SAPC   C33 8608   3.297   5.664   5.986
   90SAPC   H3X 8609   3.271   5.557   5.998
   90SAPC   H3Y 8610   3.376   5.663   5.908
   90SAPC   C34 8611   3.171   5.748   5.978
   90SAPC   H4X 8612   3.185   5.853   5.946
   90SAPC   H4Y 8613   3.124   5.745   6.079
   90SAPC   C35 8614   3.065   5.674   5.889
   90SAPC   H5X 8615   2.980   5.746   5.886
   90SAPC   H5Y 8616   3.019   5.583   5.935
   90SAPC   C36 8617   3.113   5.649   5.749
   90SAPC   H6X 8618   3.209   5.596   5.764
   90SAPC   H6Y 8619   3.138   5.747   5.703
   90SAPC   C37 8620   3.006   5.589   5.657
   90SAPC   H7X 8621   2.941   5.668   5.615
   90SAPC   H7Y 8622   2.945   5.517   5.716
   90SAPC   C38 8623   3.064   5.522   5.533
   90SAPC   H8X 8624   2.985   5.471   5.473
   90SAPC   H8Y 8625   3.137   5.443   5.561
   90SAPC   C39 8626   3.139   5.618   5.448
   90SAPC   H9X 8627   3.204   5.697   5.492
   90SAPC   H9Y 8628   3.056   5.680   5.406
   90SAPC  C310 8629   3.221   5.556   5.339
   90SAPC  H10X 8630   3.249   5.451   5.365
   90SAPC  H10Y 8631   3.310   5.616   5.311
   90SAPC  C311 8632   3.144   5.543   5.210
   90SAPC  H11X 8633   3.046   5.493   5.227
   90SAPC  H11Y 8634   3.200   5.473   5.144
   90SAPC  C312 8635   3.120   5.680   5.136
   90SAPC  H12X 8636   3.218   5.726   5.111
   90SAPC  H12Y 8637   3.062   5.744   5.207
   90SAPC  C313 8638   3.034   5.671   5.005
   90SAPC  H13X 8639   2.991   5.769   4.975
   90SAPC  H13Y 8640   2.945   5.607   5.024
   90SAPC  C314 8641   3.115   5.619   4.890
   90SAPC  H14X 8642   3.173   5.529   4.921
   90SAPC  H14Y 8643   3.198   5.688   4.865
   90SAPC  C315 8644   3.029   5.586   4.764
   90SAPC  H15X 8645   2.955   5.667   4.744
   90SAPC  H15Y 8646   2.970   5.496   4.791
   90SAPC  C316 8647   3.106   5.576   4.628
   90SAPC  H16X 8648   3.151   5.675   4.606
   90SAPC  H16Y 8649   3.029   5.557   4.550
   90SAPC  C317 8650   3.198   5.455   4.621
   90SAPC  H17X 8651   3.281   5.467   4.695
   90SAPC  H17Y 8652   3.233   5.429   4.518
   90SAPC  C318 8653   3.130   5.324   4.658
   90SAPC  H18X 8654   3.045   5.308   4.589
   90SAPC  H18Y 8655   3.093   5.341   4.761
   90SAPC  H18Z 8656   3.208   5.245   4.662
   91SAPC     N 8657   1.256   5.687   6.592
   91SAPC   C12 8658   1.117   5.738   6.555
   91SAPC  H12A 8659   1.065   5.661   6.501
   91SAPC  H12B 8660   1.128   5.829   6.496
   91SAPC   C13 8661   1.250   5.587   6.706
   91SAPC  H13A 8662   1.211   5.639   6.792
   91SAPC  H13B 8663   1.184   5.507   6.676
   91SAPC  H13C 8664   1.344   5.542   6.734
   91SAPC   C14 8665   1.323   5.627   6.466
   91SAPC  H14A 8666   1.425   5.596   6.483
   91SAPC  H14B 8667   1.264   5.545   6.428
   91SAPC  H14C 8668   1.338   5.704   6.392
   91SAPC   C15 8669   1.342   5.796   6.645
   91SAPC  H15A 8670   1.289   5.842   6.727
   91SAPC  H15B 8671   1.434   5.746   6.671
   91SAPC  H15C 8672   1.364   5.880   6.581
   91SAPC   C11 8673   1.027   5.780   6.680
   91SAPC  H11A 8674   0.949   5.840   6.630
   91SAPC  H11B 8675   1.094   5.840   6.745
   91SAPC     P 8676   0.814   5.683   6.793
   91SAPC   O13 8677   0.783   5.570   6.888
   91SAPC   O14 8678   0.778   5.820   6.845
   91SAPC   O12 8679   0.966   5.671   6.749
   91SAPC   O11 8680   0.735   5.667   6.657
   91SAPC    C1 8681   0.737   5.549   6.584
   91SAPC    HA 8682   0.842   5.516   6.567
   91SAPC    HB 8683   0.702   5.461   6.643
   91SAPC    C2 8684   0.657   5.558   6.452
   91SAPC    HS 8685   0.690   5.473   6.389
   91SAPC   O21 8686   0.681   5.678   6.378
   91SAPC   C21 8687   0.807   5.714   6.349
   91SAPC   O22 8688   0.900   5.640   6.356
   91SAPC   C22 8689   0.816   5.852   6.293
   91SAPC   H2R 8690   0.718   5.901   6.272
   91SAPC   H2S 8691   0.873   5.911   6.368
   91SAPC    C3 8692   0.509   5.526   6.483
   91SAPC    HX 8693   0.471   5.601   6.557
   91SAPC    HY 8694   0.508   5.440   6.554
   91SAPC   O31 8695   0.432   5.505   6.362
   91SAPC   C31 8696   0.356   5.612   6.332
   91SAPC   O32 8697   0.341   5.711   6.400
   91SAPC   C32 8698   0.299   5.588   6.192
   91SAPC   H2X 8699   0.217   5.514   6.199
   91SAPC   H2Y 8700   0.375   5.545   6.123
   91SAPC   C23 8701   0.887   5.861   6.152
   91SAPC   H3R 8702   0.988   5.817   6.162
   91SAPC   H3S 8703   0.906   5.968   6.126
   91SAPC   C24 8704   0.802   5.788   6.039
   91SAPC   H4R 8705   0.786   5.684   6.074
   91SAPC   H4S 8706   0.867   5.790   5.949
   91SAPC   C25 8707   0.674   5.857   6.019
   91SAPC   H5R 8708   0.653   5.941   6.086
   91SAPC   C26 8709   0.593   5.820   5.917
   91SAPC   H6R 8710   0.501   5.879   5.908
   91SAPC   C27 8711   0.614   5.706   5.824
   91SAPC   H7R 8712   0.549   5.632   5.875
   91SAPC   H7S 8713   0.721   5.679   5.821
   91SAPC   C28 8714   0.567   5.728   5.680
   91SAPC   H8R 8715   0.481   5.669   5.644
   91SAPC   C29 8716   0.631   5.797   5.590
   91SAPC   H9R 8717   0.593   5.817   5.489
   91SAPC  C210 8718   0.765   5.870   5.612
   91SAPC  H10R 8719   0.838   5.801   5.659
   91SAPC  H10S 8720   0.750   5.958   5.677
   91SAPC  C211 8721   0.834   5.906   5.477
   91SAPC  H11R 8722   0.920   5.848   5.440
   91SAPC  C212 8723   0.775   5.994   5.392
   91SAPC  H12R 8724   0.827   6.016   5.298
   91SAPC  C213 8725   0.646   6.076   5.408
   91SAPC  H13R 8726   0.651   6.133   5.504
   91SAPC  H13S 8727   0.565   6.000   5.409
   91SAPC  C214 8728   0.620   6.167   5.290
   91SAPC  H14R 8729   0.669   6.266   5.295
   91SAPC  C215 8730   0.546   6.147   5.174
   91SAPC  H15R 8731   0.539   6.227   5.098
   91SAPC  C216 8732   0.478   6.016   5.141
   91SAPC  H16R 8733   0.393   6.019   5.070
   91SAPC  H16S 8734   0.440   5.970   5.235
   91SAPC  C217 8735   0.573   5.917   5.078
   91SAPC  H17R 8736   0.513   5.824   5.094
   91SAPC  H17S 8737   0.669   5.907   5.134
   91SAPC  C218 8738   0.595   5.926   4.920
   91SAPC  H18R 8739   0.675   5.999   4.898
   91SAPC  H18S 8740   0.501   5.964   4.876
   91SAPC  C219 8741   0.619   5.782   4.854
   91SAPC  H19R 8742   0.532   5.714   4.864
   91SAPC  H19S 8743   0.697   5.733   4.916
   91SAPC  C220 8744   0.653   5.796   4.708
   91SAPC  H20R 8745   0.659   5.692   4.669
   91SAPC  H20S 8746   0.747   5.850   4.686
   91SAPC  H20T 8747   0.564   5.833   4.652
   91SAPC   C33 8748   0.240   5.720   6.130
   91SAPC   H3X 8749   0.327   5.788   6.120
   91SAPC   H3Y 8750   0.166   5.768   6.198
   91SAPC   C34 8751   0.184   5.704   5.988
   91SAPC   H4X 8752   0.100   5.632   5.981
   91SAPC   H4Y 8753   0.261   5.653   5.926
   91SAPC   C35 8754   0.163   5.838   5.915
   91SAPC   H5X 8755   0.266   5.881   5.911
   91SAPC   H5Y 8756   0.098   5.913   5.965
   91SAPC   C36 8757   0.091   5.822   5.780
   91SAPC   H6X 8758   0.012   5.898   5.763
   91SAPC   H6Y 8759   0.037   5.725   5.790
   91SAPC   C37 8760   0.184   5.826   5.664
   91SAPC   H7X 8761   0.264   5.752   5.688
   91SAPC   H7Y 8762   0.228   5.927   5.652
   91SAPC   C38 8763   0.124   5.772   5.540
   91SAPC   H8X 8764   0.017   5.804   5.532
   91SAPC   H8Y 8765   0.113   5.662   5.549
   91SAPC   C39 8766   0.180   5.828   5.413
   91SAPC   H9X 8767   0.279   5.778   5.409
   91SAPC   H9Y 8768   0.175   5.939   5.403
   91SAPC  C310 8769   0.103   5.779   5.284
   91SAPC  H10X 8770   0.006   5.832   5.271
   91SAPC  H10Y 8771   0.084   5.670   5.295
   91SAPC  C311 8772   0.179   5.795   5.155
   91SAPC  H11X 8773   0.273   5.739   5.173
   91SAPC  H11Y 8774   0.198   5.902   5.128
   91SAPC  C312 8775   0.105   5.729   5.037
   91SAPC  H12X 8776   0.018   5.793   5.013
   91SAPC  H12Y 8777   0.090   5.622   5.066
   91SAPC  C313 8778   0.186   5.725   4.904
   91SAPC  H13X 8779   0.288   5.683   4.916
   91SAPC  H13Y 8780   0.214   5.830   4.880
   91SAPC  C314 8781   0.109   5.653   4.794
   91SAPC  H14X 8782   0.019   5.714   4.772
   91SAPC  H14Y 8783   0.081   5.546   4.812
   91SAPC  C315 8784   0.182   5.639   4.659
   91SAPC  H15X 8785   0.125   5.583   4.582
   91SAPC  H15Y 8786   0.276   5.582   4.680
   91SAPC  C316 8787   0.210   5.774   4.594
   91SAPC  H16X 8788   0.298   5.817   4.647
   91SAPC  H16Y 8789   0.122   5.840   4.611
   91SAPC  C317 8790   0.232   5.767   4.448
   91SAPC  H17X 8791   0.135   5.759   4.395
   91SAPC  H17Y 8792   0.291   5.679   4.416
   91SAPC  C318 8793   0.295   5.893   4.398
   91SAPC  H18X 8794   0.226   5.980   4.401
   91SAPC  H18Y 8795   0.332   5.880   4.294
   91SAPC  H18Z 8796   0.380   5.910   4.467
   92SAPC     N 8797   6.589   5.191   6.889
   92SAPC   C12 8798   6.536   5.063   6.842
   92SAPC  H12A 8799   6.428   5.064   6.845
   92SAPC  H12B 8800   6.581   4.985   6.902
   92SAPC   C13 8801   6.541   5.306   6.811
   92SAPC  H13A 8802   6.598   5.396   6.828
   92SAPC  H13B 8803   6.549   5.276   6.707
   92SAPC  H13C 8804   6.439   5.335   6.831
   92SAPC   C14 8805   6.559   5.215   7.038
   92SAPC  H14A 8806   6.565   5.321   7.058
   92SAPC  H14B 8807   6.455   5.197   7.063
   92SAPC  H14C 8808   6.632   5.164   7.098
   92SAPC   C15 8809   6.734   5.195   6.869
   92SAPC  H15A 8810   6.775   5.283   6.915
   92SAPC  H15B 8811   6.780   5.114   6.925
   92SAPC  H15C 8812   6.763   5.184   6.765
   92SAPC   C11 8813   6.571   5.015   6.701
   92SAPC  H11A 8814   6.557   5.094   6.624
   92SAPC  H11B 8815   6.507   4.928   6.677
   92SAPC     P 8816   6.739   4.828   6.607
   92SAPC   O13 8817   0.041   4.796   6.635
   92SAPC   O14 8818   6.642   4.723   6.633
   92SAPC   O12 8819   6.701   4.964   6.688
   92SAPC   O11 8820   6.729   4.871   6.456
   92SAPC    C1 8821   6.766   5.003   6.429
   92SAPC    HA 8822   6.671   5.058   6.412
   92SAPC    HB 8823   6.820   5.054   6.513
   92SAPC    C2 8824   6.830   5.037   6.296
   92SAPC    HS 8825   6.821   5.148   6.293
   92SAPC   O21 8826   6.757   4.976   6.187
   92SAPC   C21 8827   6.639   5.032   6.147
   92SAPC   O22 8828   6.593   5.133   6.194
   92SAPC   C22 8829   6.575   4.945   6.038
   92SAPC   H2R 8830   6.641   4.856   6.032
   92SAPC   H2S 8831   6.474   4.917   6.075
   92SAPC    C3 8832   0.140   4.989   6.292
   92SAPC    HX 8833   0.148   4.888   6.336
   92SAPC    HY 8834   0.204   5.048   6.360
   92SAPC   O31 8835   0.206   4.987   6.168
   92SAPC   C31 8836   0.251   5.111   6.122
   92SAPC   O32 8837   0.233   5.220   6.177
   92SAPC   C32 8838   0.310   5.088   5.986
   92SAPC   H2X 8839   0.227   5.056   5.920
   92SAPC   H2Y 8840   0.397   5.021   6.003
   92SAPC   C23 8841   6.558   5.007   5.896
   92SAPC   H3R 8842   6.651   5.046   5.850
   92SAPC   H3S 8843   6.506   5.102   5.918
   92SAPC   C24 8844   6.491   4.916   5.791
   92SAPC   H4R 8845   6.555   4.825   5.803
   92SAPC   H4S 8846   6.501   4.955   5.687
   92SAPC   C25 8847   6.353   4.869   5.823
   92SAPC   H5R 8848   6.349   4.810   5.916
   92SAPC   C26 8849   6.235   4.880   5.753
   92SAPC   H6R 8850   6.144   4.844   5.805
   92SAPC   C27 8851   6.217   4.933   5.612
   92SAPC   H7R 8852   6.304   4.999   5.590
   92SAPC   H7S 8853   6.127   4.999   5.608
   92SAPC   C28 8854   6.222   4.831   5.508
   92SAPC   H8R 8855   6.222   4.729   5.550
   92SAPC   C29 8856   6.224   4.849   5.376
   92SAPC   H9R 8857   6.247   4.765   5.309
   92SAPC  C210 8858   6.232   4.982   5.309
   92SAPC  H10R 8859   6.288   5.052   5.375
   92SAPC  H10S 8860   6.128   5.021   5.312
   92SAPC  C211 8861   6.291   4.983   5.175
   92SAPC  H11R 8862   6.391   5.030   5.171
   92SAPC  C212 8863   6.236   4.944   5.066
   92SAPC  H12R 8864   6.290   4.936   4.971
   92SAPC  C213 8865   6.091   4.883   5.068
   92SAPC  H13R 8866   6.002   4.946   5.090
   92SAPC  H13S 8867   6.071   4.820   5.157
   92SAPC  C214 8868   6.061   4.786   4.949
   92SAPC  H14R 8869   6.106   4.689   4.975
   92SAPC  C215 8870   5.982   4.814   4.838
   92SAPC  H15R 8871   5.946   4.733   4.772
   92SAPC  C216 8872   5.918   4.953   4.811
   92SAPC  H16R 8873   5.983   5.037   4.842
   92SAPC  H16S 8874   5.820   4.971   4.860
   92SAPC  C217 8875   5.908   4.976   4.655
   92SAPC  H17R 8876   5.847   5.066   4.631
   92SAPC  H17S 8877   5.854   4.894   4.604
   92SAPC  C218 8878   6.044   4.986   4.585
   92SAPC  H18R 8879   6.026   4.981   4.476
   92SAPC  H18S 8880   6.108   4.897   4.602
   92SAPC  C219 8881   6.130   5.099   4.645
   92SAPC  H19R 8882   6.162   5.073   4.748
   92SAPC  H19S 8883   6.058   5.184   4.649
   92SAPC  C220 8884   6.252   5.125   4.559
   92SAPC  H20R 8885   6.220   5.173   4.464
   92SAPC  H20S 8886   6.305   5.028   4.551
   92SAPC  H20T 8887   6.318   5.196   4.612
   92SAPC   C33 8888   0.380   5.214   5.924
   92SAPC   H3X 8889   0.459   5.182   5.853
   92SAPC   H3Y 8890   0.444   5.256   6.005
   92SAPC   C34 8891   0.285   5.321   5.884
   92SAPC   H4X 8892   0.351   5.390   5.826
   92SAPC   H4Y 8893   0.242   5.375   5.971
   92SAPC   C35 8894   0.161   5.276   5.808
   92SAPC   H5X 8895   0.108   5.369   5.778
   92SAPC   H5Y 8896   0.096   5.215   5.874
   92SAPC   C36 8897   0.186   5.190   5.689
   92SAPC   H6X 8898   0.082   5.160   5.663
   92SAPC   H6Y 8899   0.247   5.100   5.710
   92SAPC   C37 8900   0.254   5.278   5.581
   92SAPC   H7X 8901   0.351   5.315   5.621
   92SAPC   H7Y 8902   0.195   5.372   5.568
   92SAPC   C38 8903   0.277   5.192   5.451
   92SAPC   H8X 8904   0.349   5.255   5.395
   92SAPC   H8Y 8905   0.188   5.173   5.388
   92SAPC   C39 8906   0.352   5.062   5.476
   92SAPC   H9X 8907   0.289   4.971   5.490
   92SAPC   H9Y 8908   0.417   5.068   5.566
   92SAPC  C310 8909   0.429   5.019   5.353
   92SAPC  H10X 8910   0.505   4.939   5.364
   92SAPC  H10Y 8911   0.481   5.111   5.318
   92SAPC  C311 8912   0.336   4.968   5.238
   92SAPC  H11X 8913   0.272   5.054   5.208
   92SAPC  H11Y 8914   0.270   4.883   5.264
   92SAPC  C312 8915   0.417   4.935   5.117
   92SAPC  H12X 8916   0.491   4.856   5.142
   92SAPC  H12Y 8917   0.477   5.020   5.076
   92SAPC  C313 8918   0.330   4.890   5.006
   92SAPC  H13X 8919   0.268   4.968   4.956
   92SAPC  H13Y 8920   0.262   4.809   5.041
   92SAPC  C314 8921   0.418   4.839   4.893
   92SAPC  H14X 8922   0.350   4.763   4.849
   92SAPC  H14Y 8923   0.502   4.788   4.944
   92SAPC  C315 8924   0.454   4.952   4.801
   92SAPC  H15X 8925   0.503   5.040   4.848
   92SAPC  H15Y 8926   0.354   4.989   4.767
   92SAPC  C316 8927   0.533   4.905   4.676
   92SAPC  H16X 8928   0.572   4.988   4.614
   92SAPC  H16Y 8929   0.468   4.835   4.620
   92SAPC  C317 8930   0.655   4.822   4.714
   92SAPC  H17X 8931   0.627   4.715   4.726
   92SAPC  H17Y 8932   0.692   4.862   4.810
   92SAPC  C318 8933   0.771   4.825   4.614
   92SAPC  H18X 8934   0.800   4.931   4.597
   92SAPC  H18Y 8935   0.754   4.775   4.516
   92SAPC  H18Z 8936   0.865   4.794   4.664
   93SAPC     N 8937   1.130   6.304   6.918
   93SAPC   C12 8938   1.160   6.446   6.864
   93SAPC  H12A 8939   1.171   6.511   6.949
   93SAPC  H12B 8940   1.081   6.484   6.801
   93SAPC   C13 8941   0.999   6.299   6.991
   93SAPC  H13A 8942   1.002   6.381   7.062
   93SAPC  H13B 8943   0.915   6.316   6.927
   93SAPC  H13C 8944   0.994   6.204   7.044
   93SAPC   C14 8945   1.128   6.216   6.803
   93SAPC  H14A 8946   1.045   6.236   6.737
   93SAPC  H14B 8947   1.222   6.229   6.751
   93SAPC  H14C 8948   1.107   6.116   6.837
   93SAPC   C15 8949   1.244   6.261   7.009
   93SAPC  H15A 8950   1.344   6.271   6.969
   93SAPC  H15B 8951   1.243   6.304   7.108
   93SAPC  H15C 8952   1.245   6.157   7.037
   93SAPC   C11 8953   1.295   6.463   6.789
   93SAPC  H11A 8954   1.371   6.399   6.841
   93SAPC  H11B 8955   1.344   6.563   6.788
   93SAPC     P 8956   1.382   6.330   6.585
   93SAPC   O13 8957   1.506   6.400   6.611
   93SAPC   O14 8958   1.372   6.188   6.631
   93SAPC   O12 8959   1.272   6.420   6.652
   93SAPC   O11 8960   1.356   6.334   6.433
   93SAPC    C1 8961   1.237   6.375   6.373
   93SAPC    HA 8962   1.145   6.333   6.420
   93SAPC    HB 8963   1.233   6.485   6.389
   93SAPC    C2 8964   1.240   6.352   6.224
   93SAPC    HS 8965   1.283   6.250   6.212
   93SAPC   O21 8966   1.318   6.453   6.155
   93SAPC   C21 8967   1.381   6.400   6.048
   93SAPC   O22 8968   1.385   6.283   6.016
   93SAPC   C22 8969   1.448   6.511   5.975
   93SAPC   H2R 8970   1.381   6.595   5.947
   93SAPC   H2S 8971   1.522   6.543   6.051
   93SAPC    C3 8972   1.094   6.347   6.166
   93SAPC    HX 8973   1.026   6.420   6.215
   93SAPC    HY 8974   1.048   6.260   6.217
   93SAPC   O31 8975   1.087   6.344   6.023
   93SAPC   C31 8976   1.116   6.226   5.960
   93SAPC   O32 8977   1.134   6.118   6.020
   93SAPC   C32 8978   1.144   6.240   5.808
   93SAPC   H2X 8979   1.233   6.177   5.787
   93SAPC   H2Y 8980   1.192   6.339   5.789
   93SAPC   C23 8981   1.532   6.462   5.844
   93SAPC   H3R 8982   1.451   6.426   5.777
   93SAPC   H3S 8983   1.588   6.374   5.880
   93SAPC   C24 8984   1.628   6.562   5.778
   93SAPC   H4R 8985   1.717   6.501   5.749
   93SAPC   H4S 8986   1.658   6.642   5.848
   93SAPC   C25 8987   1.570   6.631   5.657
   93SAPC   H5R 8988   1.545   6.735   5.679
   93SAPC   C26 8989   1.558   6.578   5.530
   93SAPC   H6R 8990   1.525   6.634   5.442
   93SAPC   C27 8991   1.594   6.434   5.499
   93SAPC   H7R 8992   1.514   6.385   5.438
   93SAPC   H7S 8993   1.584   6.380   5.595
   93SAPC   C28 8994   1.731   6.429   5.431
   93SAPC   H8R 8995   1.808   6.467   5.500
   93SAPC   C29 8996   1.765   6.391   5.306
   93SAPC   H9R 8997   1.868   6.410   5.272
   93SAPC  C210 8998   1.651   6.359   5.200
   93SAPC  H10R 8999   1.559   6.313   5.243
   93SAPC  H10S 9000   1.693   6.282   5.132
   93SAPC  C211 9001   1.601   6.478   5.124
   93SAPC  H11R 9002   1.638   6.574   5.163
   93SAPC  C212 9003   1.519   6.480   5.017
   93SAPC  H12R 9004   1.481   6.579   4.985
   93SAPC  C213 9005   1.458   6.357   4.962
   93SAPC  H13R 9006   1.373   6.331   5.029
   93SAPC  H13S 9007   1.535   6.276   4.966
   93SAPC  C214 9008   1.405   6.370   4.810
   93SAPC  H14R 9009   1.387   6.473   4.778
   93SAPC  C215 9010   1.406   6.272   4.724
   93SAPC  H15R 9011   1.359   6.294   4.627
   93SAPC  C216 9012   1.445   6.121   4.736
   93SAPC  H16R 9013   1.348   6.068   4.743
   93SAPC  H16S 9014   1.511   6.099   4.823
   93SAPC  C217 9015   1.520   6.067   4.611
   93SAPC  H17R 9016   1.456   6.091   4.523
   93SAPC  H17S 9017   1.531   5.956   4.603
   93SAPC  C218 9018   1.658   6.126   4.597
   93SAPC  H18R 9019   1.716   6.094   4.686
   93SAPC  H18S 9020   1.660   6.236   4.580
   93SAPC  C219 9021   1.728   6.070   4.470
   93SAPC  H19R 9022   1.729   5.959   4.478
   93SAPC  H19S 9023   1.836   6.089   4.491
   93SAPC  C220 9024   1.674   6.129   4.346
   93SAPC  H20R 9025   1.563   6.121   4.337
   93SAPC  H20S 9026   1.722   6.099   4.250
   93SAPC  H20T 9027   1.704   6.235   4.356
   93SAPC   C33 9028   1.026   6.203   5.717
   93SAPC   H3X 9029   0.945   6.279   5.718
   93SAPC   H3Y 9030   0.987   6.103   5.746
   93SAPC   C34 9031   1.071   6.175   5.570
   93SAPC   H4X 9032   0.996   6.124   5.505
   93SAPC   H4Y 9033   1.150   6.097   5.575
   93SAPC   C35 9034   1.139   6.289   5.492
   93SAPC   H5X 9035   1.233   6.309   5.548
   93SAPC   H5Y 9036   1.066   6.373   5.492
   93SAPC   C36 9037   1.182   6.258   5.344
   93SAPC   H6X 9038   1.262   6.181   5.337
   93SAPC   H6Y 9039   1.230   6.354   5.314
   93SAPC   C37 9040   1.066   6.219   5.246
   93SAPC   H7X 9041   0.970   6.270   5.270
   93SAPC   H7Y 9042   1.041   6.112   5.263
   93SAPC   C38 9043   1.102   6.237   5.094
   93SAPC   H8X 9044   1.192   6.179   5.064
   93SAPC   H8Y 9045   1.110   6.346   5.073
   93SAPC   C39 9046   0.988   6.192   5.003
   93SAPC   H9X 9047   0.898   6.251   5.031
   93SAPC   H9Y 9048   0.961   6.089   5.033
   93SAPC  C310 9049   1.015   6.205   4.854
   93SAPC  H10X 9050   1.106   6.147   4.827
   93SAPC  H10Y 9051   1.035   6.314   4.839
   93SAPC  C311 9052   0.888   6.164   4.776
   93SAPC  H11X 9053   0.800   6.211   4.823
   93SAPC  H11Y 9054   0.872   6.055   4.795
   93SAPC  C312 9055   0.904   6.181   4.622
   93SAPC  H12X 9056   0.989   6.117   4.590
   93SAPC  H12Y 9057   0.923   6.289   4.609
   93SAPC  C313 9058   0.769   6.147   4.553
   93SAPC  H13X 9059   0.689   6.222   4.576
   93SAPC  H13Y 9060   0.719   6.061   4.602
   93SAPC  C314 9061   0.775   6.127   4.398
   93SAPC  H14X 9062   0.882   6.115   4.369
   93SAPC  H14Y 9063   0.747   6.224   4.350
   93SAPC  C315 9064   0.676   6.021   4.357
   93SAPC  H15X 9065   0.575   6.066   4.360
   93SAPC  H15Y 9066   0.680   5.925   4.414
   93SAPC  C316 9067   0.691   5.973   4.212
   93SAPC  H16X 9068   0.795   5.940   4.194
   93SAPC  H16Y 9069   0.677   6.060   4.144
   93SAPC  C317 9070   0.595   5.860   4.173
   93SAPC  H17X 9071   0.617   5.824   4.070
   93SAPC  H17Y 9072   0.492   5.901   4.169
   93SAPC  C318 9073   0.584   5.733   4.259
   93SAPC  H18X 9074   0.521   5.669   4.193
   93SAPC  H18Y 9075   0.534   5.765   4.353
   93SAPC  H18Z 9076   0.677   5.678   4.285
   94SAPC     N 9077   0.552   4.922   6.994
   94SAPC   C12 9078   0.643   4.867   6.884
   94SAPC  H12A 9079   0.721   4.805   6.924
   94SAPC  H12B 9080   0.685   4.957   6.842
   94SAPC   C13 9081   0.417   4.957   6.941
   94SAPC  H13A 9082   0.363   4.867   6.916
   94SAPC  H13B 9083   0.364   5.015   7.015
   94SAPC  H13C 9084   0.425   5.016   6.851
   94SAPC   C14 9085   0.535   4.825   7.105
   94SAPC  H14A 9086   0.471   4.874   7.177
   94SAPC  H14B 9087   0.488   4.735   7.069
   94SAPC  H14C 9088   0.630   4.799   7.151
   94SAPC   C15 9089   0.608   5.044   7.058
   94SAPC  H15A 9090   0.655   5.110   6.986
   94SAPC  H15B 9091   0.541   5.098   7.122
   94SAPC  H15C 9092   0.684   5.012   7.129
   94SAPC   C11 9093   0.587   4.792   6.772
   94SAPC  H11A 9094   0.666   4.784   6.695
   94SAPC  H11B 9095   0.497   4.835   6.722
   94SAPC     P 9096   0.412   4.590   6.795
   94SAPC   O13 9097   0.422   4.452   6.749
   94SAPC   O14 9098   0.339   4.620   6.918
   94SAPC   O12 9099   0.557   4.657   6.813
   94SAPC   O11 9100   0.340   4.669   6.685
   94SAPC    C1 9101   0.327   4.635   6.548
   94SAPC    HA 9102   0.294   4.530   6.543
   94SAPC    HB 9103   0.266   4.709   6.491
   94SAPC    C2 9104   0.465   4.661   6.480
   94SAPC    HS 9105   0.551   4.625   6.540
   94SAPC   O21 9106   0.470   4.796   6.447
   94SAPC   C21 9107   0.587   4.842   6.410
   94SAPC   O22 9108   0.691   4.779   6.419
   94SAPC   C22 9109   0.578   4.995   6.366
   94SAPC   H2R 9110   0.498   4.990   6.289
   94SAPC   H2S 9111   0.537   5.056   6.449
   94SAPC    C3 9112   0.466   4.574   6.353
   94SAPC    HX 9113   0.466   4.471   6.393
   94SAPC    HY 9114   0.561   4.588   6.297
   94SAPC   O31 9115   0.348   4.584   6.273
   94SAPC   C31 9116   0.352   4.662   6.168
   94SAPC   O32 9117   0.437   4.741   6.138
   94SAPC   C32 9118   0.229   4.629   6.083
   94SAPC   H2X 9119   0.135   4.651   6.136
   94SAPC   H2Y 9120   0.226   4.518   6.075
   94SAPC   C23 9121   0.708   5.037   6.298
   94SAPC   H3R 9122   0.729   4.970   6.211
   94SAPC   H3S 9123   0.788   5.042   6.375
   94SAPC   C24 9124   0.685   5.184   6.248
   94SAPC   H4R 9125   0.647   5.254   6.325
   94SAPC   H4S 9126   0.612   5.189   6.165
   94SAPC   C25 9127   0.813   5.249   6.202
   94SAPC   H5R 9128   0.884   5.250   6.287
   94SAPC   C26 9129   0.848   5.286   6.082
   94SAPC   H6R 9130   0.946   5.337   6.074
   94SAPC   C27 9131   0.757   5.296   5.960
   94SAPC   H7R 9132   0.787   5.378   5.890
   94SAPC   H7S 9133   0.652   5.316   5.990
   94SAPC   C28 9134   0.760   5.171   5.885
   94SAPC   H8R 9135   0.782   5.078   5.941
   94SAPC   C29 9136   0.737   5.157   5.756
   94SAPC   H9R 9137   0.737   5.055   5.714
   94SAPC  C210 9138   0.690   5.268   5.662
   94SAPC  H10R 9139   0.761   5.350   5.642
   94SAPC  H10S 9140   0.598   5.320   5.694
   94SAPC  C211 9141   0.682   5.215   5.525
   94SAPC  H11R 9142   0.693   5.107   5.507
   94SAPC  C212 9143   0.657   5.304   5.419
   94SAPC  H12R 9144   0.645   5.250   5.323
   94SAPC  C213 9145   0.641   5.452   5.430
   94SAPC  H13R 9146   0.675   5.487   5.529
   94SAPC  H13S 9147   0.532   5.478   5.431
   94SAPC  C214 9148   0.698   5.539   5.318
   94SAPC  H14R 9149   0.801   5.578   5.324
   94SAPC  C215 9150   0.626   5.570   5.207
   94SAPC  H15R 9151   0.688   5.624   5.135
   94SAPC  C216 9152   0.486   5.542   5.169
   94SAPC  H16R 9153   0.480   5.585   5.066
   94SAPC  H16S 9154   0.414   5.595   5.235
   94SAPC  C217 9155   0.453   5.390   5.148
   94SAPC  H17R 9156   0.467   5.330   5.241
   94SAPC  H17S 9157   0.527   5.348   5.077
   94SAPC  C218 9158   0.315   5.364   5.093
   94SAPC  H18R 9159   0.269   5.464   5.076
   94SAPC  H18S 9160   0.251   5.312   5.168
   94SAPC  C219 9161   0.314   5.281   4.961
   94SAPC  H19R 9162   0.366   5.185   4.982
   94SAPC  H19S 9163   0.383   5.316   4.882
   94SAPC  C220 9164   0.176   5.242   4.920
   94SAPC  H20R 9165   0.129   5.329   4.870
   94SAPC  H20S 9166   0.107   5.226   5.005
   94SAPC  H20T 9167   0.181   5.161   4.844
   94SAPC   C33 9168   0.236   4.706   5.954
   94SAPC   H3X 9169   0.331   4.691   5.899
   94SAPC   H3Y 9170   0.234   4.816   5.971
   94SAPC   C34 9171   0.131   4.676   5.844
   94SAPC   H4X 9172   0.035   4.665   5.899
   94SAPC   H4Y 9173   0.169   4.585   5.792
   94SAPC   C35 9174   0.107   4.796   5.748
   94SAPC   H5X 9175   0.193   4.809   5.679
   94SAPC   H5Y 9176   0.089   4.884   5.813
   94SAPC   C36 9177   6.825   4.773   5.658
   94SAPC   H6X 9178   6.731   4.747   5.711
   94SAPC   H6Y 9179   0.013   4.684   5.597
   94SAPC   C37 9180   6.800   4.892   5.557
   94SAPC   H7X 9181   0.045   4.888   5.484
   94SAPC   H7Y 9182   6.798   4.991   5.608
   94SAPC   C38 9183   6.687   4.867   5.464
   94SAPC   H8X 9184   6.595   4.837   5.519
   94SAPC   H8Y 9185   6.720   4.783   5.399
   94SAPC   C39 9186   6.647   4.986   5.376
   94SAPC   H9X 9187   6.628   5.065   5.452
   94SAPC   H9Y 9188   6.549   4.969   5.327
   94SAPC  C310 9189   6.745   5.010   5.258
   94SAPC  H10X 9190   0.011   5.009   5.296
   94SAPC  H10Y 9191   6.719   5.105   5.208
   94SAPC  C311 9192   6.720   4.909   5.148
   94SAPC  H11X 9193   6.613   4.881   5.139
   94SAPC  H11Y 9194   6.766   4.813   5.179
   94SAPC  C312 9195   6.780   4.955   5.016
   94SAPC  H12X 9196   0.048   4.979   5.039
   94SAPC  H12Y 9197   6.736   5.054   4.989
   94SAPC  C313 9198   6.755   4.859   4.906
   94SAPC  H13X 9199   6.649   4.868   4.872
   94SAPC  H13Y 9200   6.778   4.754   4.933
   94SAPC  C314 9201   0.009   4.892   4.784
   94SAPC  H14X 9202   0.110   4.867   4.822
   94SAPC  H14Y 9203   0.001   4.998   4.752
   94SAPC  C315 9204   6.803   4.799   4.668
   94SAPC  H15X 9205   6.694   4.806   4.650
   94SAPC  H15Y 9206   6.829   4.696   4.699
   94SAPC  C316 9207   0.024   4.842   4.532
   94SAPC  H16X 9208   6.829   4.948   4.524
   94SAPC  H16Y 9209   6.809   4.787   4.451
   94SAPC  C317 9210   0.175   4.810   4.520
   94SAPC  H17X 9211   0.229   4.842   4.611
   94SAPC  H17Y 9212   0.221   4.870   4.439
   94SAPC  C318 9213   0.205   4.667   4.506
   94SAPC  H18X 9214   0.169   4.622   4.411
   94SAPC  H18Y 9215   0.175   4.599   4.588
   94SAPC  H18Z 9216   0.315   4.654   4.511
   95SAPC     N 9217   3.978   6.113   2.410
   95SAPC   C12 9218   4.103   6.025   2.428
   95SAPC  H12A 9219   4.188   6.086   2.455
   95SAPC  H12B 9220   4.122   5.974   2.335
   95SAPC   C13 9221   4.003   6.238   2.337
   95SAPC  H13A 9222   3.921   6.307   2.348
   95SAPC  H13B 9223   4.092   6.286   2.373
   95SAPC  H13C 9224   4.015   6.211   2.233
   95SAPC   C14 9225   3.876   6.039   2.333
   95SAPC  H14A 9226   3.861   5.946   2.385
   95SAPC  H14B 9227   3.780   6.088   2.322
   95SAPC  H14C 9228   3.908   6.009   2.234
   95SAPC   C15 9229   3.922   6.157   2.541
   95SAPC  H15A 9230   3.827   6.201   2.518
   95SAPC  H15B 9231   3.919   6.076   2.613
   95SAPC  H15C 9232   3.992   6.220   2.594
   95SAPC   C11 9233   4.092   5.910   2.527
   95SAPC  H11A 9234   4.084   5.956   2.628
   95SAPC  H11B 9235   4.192   5.861   2.531
   95SAPC     P 9236   4.012   5.711   2.392
   95SAPC   O13 9237   3.886   5.663   2.336
   95SAPC   O14 9238   4.112   5.755   2.298
   95SAPC   O12 9239   3.983   5.827   2.493
   95SAPC   O11 9240   4.072   5.588   2.471
   95SAPC    C1 9241   4.039   5.560   2.611
   95SAPC    HA 9242   4.120   5.508   2.667
   95SAPC    HB 9243   4.030   5.654   2.669
   95SAPC    C2 9244   3.905   5.478   2.614
   95SAPC    HS 9245   3.876   5.432   2.518
   95SAPC   O21 9246   3.799   5.568   2.653
   95SAPC   C21 9247   3.679   5.516   2.652
   95SAPC   O22 9248   3.650   5.407   2.601
   95SAPC   C22 9249   3.580   5.612   2.706
   95SAPC   H2R 9250   3.569   5.586   2.813
   95SAPC   H2S 9251   3.616   5.718   2.708
   95SAPC    C3 9252   3.927   5.359   2.721
   95SAPC    HX 9253   4.013   5.302   2.682
   95SAPC    HY 9254   3.842   5.287   2.723
   95SAPC   O31 9255   3.964   5.394   2.856
   95SAPC   C31 9256   3.890   5.434   2.949
   95SAPC   O32 9257   3.775   5.467   2.947
   95SAPC   C32 9258   3.984   5.460   3.065
   95SAPC   H2X 9259   4.062   5.534   3.036
   95SAPC   H2Y 9260   4.034   5.362   3.079
   95SAPC   C23 9261   3.436   5.624   2.647
   95SAPC   H3R 9262   3.400   5.520   2.630
   95SAPC   H3S 9263   3.444   5.691   2.558
   95SAPC   C24 9264   3.349   5.707   2.741
   95SAPC   H4R 9265   3.412   5.791   2.775
   95SAPC   H4S 9266   3.322   5.660   2.839
   95SAPC   C25 9267   3.236   5.779   2.669
   95SAPC   H5R 9268   3.260   5.819   2.569
   95SAPC   C26 9269   3.114   5.805   2.717
   95SAPC   H6R 9270   3.044   5.863   2.655
   95SAPC   C27 9271   3.063   5.787   2.857
   95SAPC   H7R 9272   2.985   5.863   2.880
   95SAPC   H7S 9273   3.136   5.805   2.938
   95SAPC   C28 9274   3.003   5.646   2.884
   95SAPC   H8R 9275   3.006   5.578   2.797
   95SAPC   C29 9276   2.923   5.626   2.994
   95SAPC   H9R 9277   2.888   5.525   3.020
   95SAPC  C210 9278   2.920   5.725   3.106
   95SAPC  H10R 9279   2.913   5.832   3.079
   95SAPC  H10S 9280   3.020   5.706   3.152
   95SAPC  C211 9281   2.813   5.696   3.214
   95SAPC  H11R 9282   2.738   5.622   3.182
   95SAPC  C212 9283   2.779   5.770   3.320
   95SAPC  H12R 9284   2.690   5.735   3.373
   95SAPC  C213 9285   2.843   5.894   3.376
   95SAPC  H13R 9286   2.796   5.978   3.321
   95SAPC  H13S 9287   2.951   5.896   3.349
   95SAPC  C214 9288   2.837   5.915   3.526
   95SAPC  H14R 9289   2.747   5.969   3.557
   95SAPC  C215 9290   2.921   5.868   3.617
   95SAPC  H15R 9291   2.903   5.889   3.723
   95SAPC  C216 9292   3.025   5.766   3.574
   95SAPC  H16R 9293   3.111   5.765   3.645
   95SAPC  H16S 9294   3.068   5.793   3.475
   95SAPC  C217 9295   2.980   5.624   3.569
   95SAPC  H17R 9296   3.067   5.563   3.538
   95SAPC  H17S 9297   2.912   5.609   3.482
   95SAPC  C218 9298   2.930   5.578   3.703
   95SAPC  H18R 9299   2.838   5.636   3.729
   95SAPC  H18S 9300   3.011   5.592   3.777
   95SAPC  C219 9301   2.894   5.434   3.707
   95SAPC  H19R 9302   2.840   5.405   3.799
   95SAPC  H19S 9303   2.987   5.373   3.708
   95SAPC  C220 9304   2.818   5.381   3.589
   95SAPC  H20R 9305   2.864   5.396   3.489
   95SAPC  H20S 9306   2.714   5.420   3.591
   95SAPC  H20T 9307   2.819   5.270   3.594
   95SAPC   C33 9308   3.914   5.489   3.199
   95SAPC   H3X 9309   3.811   5.449   3.209
   95SAPC   H3Y 9310   3.902   5.600   3.197
   95SAPC   C34 9311   4.008   5.457   3.319
   95SAPC   H4X 9312   4.107   5.506   3.303
   95SAPC   H4Y 9313   4.032   5.348   3.323
   95SAPC   C35 9314   3.937   5.485   3.449
   95SAPC   H5X 9315   3.837   5.437   3.452
   95SAPC   H5Y 9316   3.932   5.595   3.457
   95SAPC   C36 9317   4.007   5.432   3.574
   95SAPC   H6X 9318   4.103   5.487   3.584
   95SAPC   H6Y 9319   4.031   5.325   3.559
   95SAPC   C37 9320   3.933   5.448   3.698
   95SAPC   H7X 9321   3.829   5.410   3.692
   95SAPC   H7Y 9322   3.913   5.554   3.723
   95SAPC   C38 9323   4.002   5.386   3.816
   95SAPC   H8X 9324   4.100   5.437   3.830
   95SAPC   H8Y 9325   4.018   5.277   3.812
   95SAPC   C39 9326   3.931   5.410   3.947
   95SAPC   H9X 9327   3.997   5.370   4.027
   95SAPC   H9Y 9328   3.836   5.351   3.950
   95SAPC  C310 9329   3.912   5.551   3.983
   95SAPC  H10X 9330   3.847   5.599   3.906
   95SAPC  H10Y 9331   4.008   5.607   3.985
   95SAPC  C311 9332   3.836   5.567   4.129
   95SAPC  H11X 9333   3.905   5.579   4.215
   95SAPC  H11Y 9334   3.778   5.474   4.146
   95SAPC  C312 9335   3.743   5.689   4.122
   95SAPC  H12X 9336   3.682   5.684   4.030
   95SAPC  H12Y 9337   3.816   5.771   4.114
   95SAPC  C313 9338   3.656   5.712   4.241
   95SAPC  H13X 9339   3.734   5.734   4.318
   95SAPC  H13Y 9340   3.607   5.615   4.266
   95SAPC  C314 9341   3.565   5.829   4.238
   95SAPC  H14X 9342   3.615   5.918   4.193
   95SAPC  H14Y 9343   3.519   5.850   4.337
   95SAPC  C315 9344   3.444   5.801   4.150
   95SAPC  H15X 9345   3.389   5.711   4.187
   95SAPC  H15Y 9346   3.474   5.764   4.049
   95SAPC  C316 9347   3.338   5.917   4.151
   95SAPC  H16X 9348   3.319   5.944   4.257
   95SAPC  H16Y 9349   3.249   5.878   4.097
   95SAPC  C317 9350   3.380   6.039   4.071
   95SAPC  H17X 9351   3.407   6.007   3.968
   95SAPC  H17Y 9352   3.474   6.072   4.119
   95SAPC  C318 9353   3.287   6.173   4.073
   95SAPC  H18X 9354   3.337   6.264   4.033
   95SAPC  H18Y 9355   3.259   6.179   4.180
   95SAPC  H18Z 9356   3.199   6.145   4.012
   96SAPC     N 9357   3.807   2.416   2.284
   96SAPC   C12 9358   3.681   2.332   2.290
   96SAPC  H12A 9359   3.602   2.386   2.341
   96SAPC  H12B 9360   3.687   2.257   2.368
   96SAPC   C13 9361   3.792   2.508   2.175
   96SAPC  H13A 9362   3.807   2.457   2.081
   96SAPC  H13B 9363   3.691   2.546   2.174
   96SAPC  H13C 9364   3.865   2.587   2.176
   96SAPC   C14 9365   3.817   2.500   2.411
   96SAPC  H14A 9366   3.842   2.441   2.498
   96SAPC  H14B 9367   3.895   2.574   2.404
   96SAPC  H14C 9368   3.719   2.544   2.425
   96SAPC   C15 9369   3.931   2.337   2.269
   96SAPC  H15A 9370   3.943   2.263   2.346
   96SAPC  H15B 9371   3.926   2.283   2.175
   96SAPC  H15C 9372   4.020   2.396   2.253
   96SAPC   C11 9373   3.622   2.274   2.161
   96SAPC  H11A 9374   3.587   2.349   2.088
   96SAPC  H11B 9375   3.528   2.222   2.190
   96SAPC     P 9376   3.721   2.034   2.149
   96SAPC   O13 9377   3.604   1.955   2.095
   96SAPC   O14 9378   3.859   1.980   2.125
   96SAPC   O12 9379   3.709   2.186   2.086
   96SAPC   O11 9380   3.699   2.054   2.304
   96SAPC    C1 9381   3.750   1.960   2.400
   96SAPC    HA 9382   3.750   1.857   2.358
   96SAPC    HB 9383   3.851   1.993   2.432
   96SAPC    C2 9384   3.663   1.951   2.523
   96SAPC    HS 9385   3.589   1.877   2.485
   96SAPC   O21 9386   3.615   2.080   2.552
   96SAPC   C21 9387   3.485   2.091   2.570
   96SAPC   O22 9388   3.403   2.008   2.564
   96SAPC   C22 9389   3.446   2.243   2.593
   96SAPC   H2R 9390   3.529   2.296   2.541
   96SAPC   H2S 9391   3.352   2.262   2.538
   96SAPC    C3 9392   3.734   1.903   2.651
   96SAPC    HX 9393   3.817   1.973   2.677
   96SAPC    HY 9394   3.778   1.805   2.625
   96SAPC   O31 9395   3.649   1.894   2.765
   96SAPC   C31 9396   3.560   1.787   2.763
   96SAPC   O32 9397   3.565   1.697   2.680
   96SAPC   C32 9398   3.449   1.811   2.867
   96SAPC   H2X 9399   3.400   1.907   2.840
   96SAPC   H2Y 9400   3.498   1.833   2.964
   96SAPC   C23 9401   3.463   2.300   2.740
   96SAPC   H3R 9402   3.384   2.246   2.796
   96SAPC   H3S 9403   3.427   2.405   2.729
   96SAPC   C24 9404   3.604   2.282   2.794
   96SAPC   H4R 9405   3.670   2.317   2.711
   96SAPC   H4S 9406   3.630   2.174   2.802
   96SAPC   C25 9407   3.634   2.352   2.920
   96SAPC   H5R 9408   3.614   2.460   2.932
   96SAPC   C26 9409   3.677   2.292   3.036
   96SAPC   H6R 9410   3.703   2.344   3.129
   96SAPC   C27 9411   3.700   2.143   3.061
   96SAPC   H7R 9412   3.806   2.120   3.084
   96SAPC   H7S 9413   3.694   2.072   2.976
   96SAPC   C28 9414   3.615   2.082   3.170
   96SAPC   H8R 9415   3.524   2.034   3.131
   96SAPC   C29 9416   3.635   2.086   3.303
   96SAPC   H9R 9417   3.558   2.038   3.366
   96SAPC  C210 9418   3.744   2.156   3.375
   96SAPC  H10R 9419   3.690   2.218   3.449
   96SAPC  H10S 9420   3.796   2.226   3.307
   96SAPC  C211 9421   3.839   2.054   3.442
   96SAPC  H11R 9422   3.920   2.009   3.383
   96SAPC  C212 9423   3.843   2.031   3.569
   96SAPC  H12R 9424   3.913   1.953   3.602
   96SAPC  C213 9425   3.758   2.093   3.682
   96SAPC  H13R 9426   3.695   2.181   3.656
   96SAPC  H13S 9427   3.828   2.124   3.762
   96SAPC  C214 9428   3.661   1.987   3.724
   96SAPC  H14R 9429   3.560   2.003   3.682
   96SAPC  C215 9430   3.679   1.877   3.795
   96SAPC  H15R 9431   3.593   1.826   3.841
   96SAPC  C216 9432   3.807   1.827   3.859
   96SAPC  H16R 9433   3.894   1.870   3.805
   96SAPC  H16S 9434   3.820   1.719   3.839
   96SAPC  C217 9435   3.829   1.877   4.002
   96SAPC  H17R 9436   3.861   1.984   4.002
   96SAPC  H17S 9437   3.921   1.823   4.033
   96SAPC  C218 9438   3.716   1.851   4.103
   96SAPC  H18R 9439   3.663   1.754   4.099
   96SAPC  H18S 9440   3.646   1.925   4.060
   96SAPC  C219 9441   3.746   1.915   4.245
   96SAPC  H19R 9442   3.646   1.937   4.287
   96SAPC  H19S 9443   3.798   2.011   4.224
   96SAPC  C220 9444   3.820   1.817   4.338
   96SAPC  H20R 9445   3.799   1.848   4.442
   96SAPC  H20S 9446   3.926   1.800   4.310
   96SAPC  H20T 9447   3.780   1.714   4.324
   96SAPC   C33 9448   3.350   1.698   2.894
   96SAPC   H3X 9449   3.289   1.679   2.803
   96SAPC   H3Y 9450   3.271   1.722   2.968
   96SAPC   C34 9451   3.419   1.569   2.930
   96SAPC   H4X 9452   3.489   1.581   3.015
   96SAPC   H4Y 9453   3.471   1.524   2.844
   96SAPC   C35 9454   3.325   1.457   2.984
   96SAPC   H5X 9455   3.382   1.362   2.995
   96SAPC   H5Y 9456   3.233   1.450   2.922
   96SAPC   C36 9457   3.289   1.502   3.125
   96SAPC   H6X 9458   3.195   1.562   3.118
   96SAPC   H6Y 9459   3.367   1.558   3.179
   96SAPC   C37 9460   3.249   1.379   3.202
   96SAPC   H7X 9461   3.333   1.308   3.210
   96SAPC   H7Y 9462   3.167   1.340   3.138
   96SAPC   C38 9463   3.201   1.421   3.344
   96SAPC   H8X 9464   3.162   1.525   3.342
   96SAPC   H8Y 9465   3.299   1.427   3.396
   96SAPC   C39 9466   3.114   1.317   3.411
   96SAPC   H9X 9467   3.169   1.231   3.455
   96SAPC   H9Y 9468   3.050   1.265   3.337
   96SAPC  C310 9469   3.018   1.375   3.518
   96SAPC  H10X 9470   2.931   1.309   3.536
   96SAPC  H10Y 9471   2.972   1.473   3.494
   96SAPC  C311 9472   3.093   1.398   3.652
   96SAPC  H11X 9473   3.190   1.451   3.636
   96SAPC  H11Y 9474   3.125   1.300   3.693
   96SAPC  C312 9475   3.022   1.481   3.763
   96SAPC  H12X 9476   2.987   1.577   3.718
   96SAPC  H12Y 9477   3.096   1.512   3.840
   96SAPC  C313 9478   2.903   1.412   3.832
   96SAPC  H13X 9479   2.922   1.302   3.831
   96SAPC  H13Y 9480   2.816   1.424   3.764
   96SAPC  C314 9481   2.868   1.469   3.970
   96SAPC  H14X 9482   2.929   1.419   4.049
   96SAPC  H14Y 9483   2.763   1.447   3.997
   96SAPC  C315 9484   2.882   1.626   3.980
   96SAPC  H15X 9485   2.820   1.665   3.896
   96SAPC  H15Y 9486   2.984   1.663   3.958
   96SAPC  C316 9487   2.828   1.682   4.106
   96SAPC  H16X 9488   2.724   1.643   4.115
   96SAPC  H16Y 9489   2.812   1.792   4.106
   96SAPC  C317 9490   2.923   1.656   4.231
   96SAPC  H17X 9491   3.025   1.699   4.223
   96SAPC  H17Y 9492   2.935   1.546   4.241
   96SAPC  C318 9493   2.858   1.710   4.361
   96SAPC  H18X 9494   2.871   1.629   4.436
   96SAPC  H18Y 9495   2.748   1.722   4.348
   96SAPC  H18Z 9496   2.917   1.797   4.396
   97SAPC     N 9497   3.363   1.232   2.201
   97SAPC   C12 9498   3.403   1.096   2.254
   97SAPC  H12A 9499   3.503   1.069   2.224
   97SAPC  H12B 9500   3.350   1.026   2.192
   97SAPC   C13 9501   3.364   1.235   2.054
   97SAPC  H13A 9502   3.448   1.186   2.007
   97SAPC  H13B 9503   3.279   1.182   2.015
   97SAPC  H13C 9504   3.353   1.339   2.030
   97SAPC   C14 9505   3.234   1.277   2.258
   97SAPC  H14A 9506   3.214   1.379   2.229
   97SAPC  H14B 9507   3.149   1.217   2.231
   97SAPC  H14C 9508   3.232   1.261   2.365
   97SAPC   C15 9509   3.467   1.334   2.251
   97SAPC  H15A 9510   3.463   1.322   2.359
   97SAPC  H15B 9511   3.559   1.319   2.197
   97SAPC  H15C 9512   3.418   1.430   2.247
   97SAPC   C11 9513   3.385   1.056   2.402
   97SAPC  H11A 9514   3.425   1.130   2.475
   97SAPC  H11B 9515   3.439   0.964   2.432
   97SAPC     P 9516   3.158   0.911   2.386
   97SAPC   O13 9517   3.017   0.938   2.344
   97SAPC   O14 9518   3.246   0.826   2.297
   97SAPC   O12 9519   3.241   1.033   2.436
   97SAPC   O11 9520   3.138   0.826   2.515
   97SAPC    C1 9521   3.254   0.797   2.610
   97SAPC    HA 9522   3.322   0.885   2.608
   97SAPC    HB 9523   3.227   0.783   2.717
   97SAPC    C2 9524   3.329   0.674   2.556
   97SAPC    HS 9525   3.362   0.683   2.450
   97SAPC   O21 9526   3.247   0.556   2.567
   97SAPC   C21 9527   3.271   0.461   2.473
   97SAPC   O22 9528   3.368   0.461   2.402
   97SAPC   C22 9529   3.156   0.368   2.452
   97SAPC   H2R 9530   3.076   0.383   2.528
   97SAPC   H2S 9531   3.101   0.386   2.357
   97SAPC    C3 9532   3.462   0.654   2.640
   97SAPC    HX 9533   3.535   0.737   2.627
   97SAPC    HY 9534   3.511   0.564   2.596
   97SAPC   O31 9535   3.446   0.633   2.787
   97SAPC   C31 9536   3.422   0.511   2.833
   97SAPC   O32 9537   3.437   0.409   2.767
   97SAPC   C32 9538   3.356   0.519   2.968
   97SAPC   H2X 9539   3.246   0.521   2.952
   97SAPC   H2Y 9540   3.393   0.608   3.023
   97SAPC   C23 9541   3.201   0.223   2.463
   97SAPC   H3R 9542   3.274   0.191   2.385
   97SAPC   H3S 9543   3.120   0.152   2.432
   97SAPC   C24 9544   3.256   0.192   2.605
   97SAPC   H4R 9545   3.355   0.241   2.610
   97SAPC   H4S 9546   3.279   0.084   2.619
   97SAPC   C25 9547   3.173   0.244   2.722
   97SAPC   H5R 9548   3.175   0.352   2.747
   97SAPC   C26 9549   3.101   0.171   2.807
   97SAPC   H6R 9550   3.046   0.217   2.891
   97SAPC   C27 9551   3.069   0.025   2.795
   97SAPC   H7R 9552   3.077   6.834   2.688
   97SAPC   H7S 9553   2.960   0.021   2.818
   97SAPC   C28 9554   3.162   6.784   2.872
   97SAPC   H8R 9555   3.259   6.778   2.819
   97SAPC   C29 9556   3.151   6.738   2.994
   97SAPC   H9R 9557   3.226   6.672   3.040
   97SAPC  C210 9558   3.026   6.760   3.072
   97SAPC  H10R 9559   2.974   6.665   3.095
   97SAPC  H10S 9560   2.952   6.814   3.009
   97SAPC  C211 9561   3.044   6.832   3.206
   97SAPC  H11R 9562   3.066   0.101   3.199
   97SAPC  C212 9563   3.034   6.781   3.331
   97SAPC  H12R 9564   3.040   0.014   3.415
   97SAPC  C213 9565   3.009   6.644   3.386
   97SAPC  H13R 9566   3.097   6.629   3.452
   97SAPC  H13S 9567   3.024   6.574   3.301
   97SAPC  C214 9568   2.870   6.625   3.443
   97SAPC  H14R 9569   2.801   6.599   3.361
   97SAPC  C215 9570   2.835   6.621   3.577
   97SAPC  H15R 9571   2.730   6.594   3.598
   97SAPC  C216 9572   2.916   6.663   3.694
   97SAPC  H16R 9573   2.852   6.732   3.753
   97SAPC  H16S 9574   3.007   6.717   3.658
   97SAPC  C217 9575   2.943   6.542   3.786
   97SAPC  H17R 9576   2.853   6.476   3.790
   97SAPC  H17S 9577   2.947   6.583   3.890
   97SAPC  C218 9578   3.056   6.453   3.749
   97SAPC  H18R 9579   3.153   6.507   3.757
   97SAPC  H18S 9580   3.045   6.433   3.640
   97SAPC  C219 9581   3.070   6.317   3.825
   97SAPC  H19R 9582   3.073   6.341   3.934
   97SAPC  H19S 9583   3.171   6.274   3.811
   97SAPC  C220 9584   2.960   6.210   3.798
   97SAPC  H20R 9585   2.856   6.251   3.803
   97SAPC  H20S 9586   2.962   6.135   3.880
   97SAPC  H20T 9587   2.970   6.158   3.700
   97SAPC   C33 9588   3.398   0.407   3.068
   97SAPC   H3X 9589   3.508   0.395   3.074
   97SAPC   H3Y 9590   3.355   0.310   3.034
   97SAPC   C34 9591   3.336   0.428   3.213
   97SAPC   H4X 9592   3.228   0.452   3.206
   97SAPC   H4Y 9593   3.389   0.511   3.265
   97SAPC   C35 9594   3.358   0.305   3.309
   97SAPC   H5X 9595   3.468   0.293   3.321
   97SAPC   H5Y 9596   3.298   0.222   3.266
   97SAPC   C36 9597   3.306   0.335   3.448
   97SAPC   H6X 9598   3.205   0.382   3.439
   97SAPC   H6Y 9599   3.366   0.405   3.509
   97SAPC   C37 9600   3.285   0.207   3.530
   97SAPC   H7X 9601   3.266   0.122   3.461
   97SAPC   H7Y 9602   3.191   0.228   3.586
   97SAPC   C38 9603   3.408   0.178   3.618
   97SAPC   H8X 9604   3.441   0.252   3.693
   97SAPC   H8Y 9605   3.495   0.172   3.549
   97SAPC   C39 9606   3.395   0.046   3.701
   97SAPC   H9X 9607   3.481   0.038   3.771
   97SAPC   H9Y 9608   3.410   6.797   3.634
   97SAPC  C310 9609   3.275   0.037   3.789
   97SAPC  H10X 9610   3.186   0.011   3.727
   97SAPC  H10Y 9611   3.260   0.140   3.828
   97SAPC  C311 9612   3.277   6.760   3.899
   97SAPC  H11X 9613   3.374   6.788   3.946
   97SAPC  H11Y 9614   3.273   6.662   3.847
   97SAPC  C312 9615   3.155   6.770   4.001
   97SAPC  H12X 9616   3.068   6.780   3.934
   97SAPC  H12Y 9617   3.155   0.017   4.071
   97SAPC  C313 9618   3.155   6.638   4.078
   97SAPC  H13X 9619   3.156   6.559   3.999
   97SAPC  H13Y 9620   3.063   6.625   4.139
   97SAPC  C314 9621   3.276   6.623   4.166
   97SAPC  H14X 9622   3.284   6.717   4.224
   97SAPC  H14Y 9623   3.374   6.619   4.113
   97SAPC  C315 9624   3.272   6.508   4.269
   97SAPC  H15X 9625   3.335   6.423   4.238
   97SAPC  H15Y 9626   3.166   6.477   4.284
   97SAPC  C316 9627   3.318   6.545   4.410
   97SAPC  H16X 9628   3.274   6.635   4.459
   97SAPC  H16Y 9629   3.425   6.577   4.404
   97SAPC  C317 9630   3.302   6.443   4.518
   97SAPC  H17X 9631   3.194   6.418   4.513
   97SAPC  H17Y 9632   3.325   6.478   4.621
   97SAPC  C318 9633   3.377   6.313   4.501
   97SAPC  H18X 9634   3.486   6.321   4.521
   97SAPC  H18Y 9635   3.363   6.293   4.393
   97SAPC  H18Z 9636   3.338   6.231   4.566
   98SAPC     N 9637   6.065   1.479   2.493
   98SAPC   C12 9638   6.219   1.460   2.488
   98SAPC  H12A 9639   6.253   1.489   2.586
   98SAPC  H12B 9640   6.268   1.523   2.414
   98SAPC   C13 9641   6.006   1.378   2.593
   98SAPC  H13A 9642   5.898   1.384   2.583
   98SAPC  H13B 9643   6.040   1.277   2.580
   98SAPC  H13C 9644   6.031   1.399   2.696
   98SAPC   C14 9645   6.029   1.618   2.534
   98SAPC  H14A 9646   5.921   1.631   2.528
   98SAPC  H14B 9647   6.031   1.649   2.637
   98SAPC  H14C 9648   6.098   1.691   2.494
   98SAPC   C15 9649   6.003   1.465   2.362
   98SAPC  H15A 9650   5.897   1.486   2.368
   98SAPC  H15B 9651   6.047   1.529   2.286
   98SAPC  H15C 9652   6.013   1.364   2.324
   98SAPC   C11 9653   6.271   1.314   2.474
   98SAPC  H11A 9654   6.246   1.269   2.572
   98SAPC  H11B 9655   6.381   1.298   2.475
   98SAPC     P 9656   6.146   1.097   2.365
   98SAPC   O13 9657   6.031   1.095   2.272
   98SAPC   O14 9658   6.246   0.996   2.334
   98SAPC   O12 9659   6.218   1.242   2.359
   98SAPC   O11 9660   6.088   1.071   2.509
   98SAPC    C1 9661   6.012   0.953   2.527
   98SAPC    HA 9662   5.918   0.953   2.469
   98SAPC    HB 9663   6.073   0.863   2.504
   98SAPC    C2 9664   5.965   0.932   2.675
   98SAPC    HS 9665   5.897   1.020   2.689
   98SAPC   O21 9666   6.067   0.931   2.775
   98SAPC   C21 9667   6.119   1.052   2.812
   98SAPC   O22 9668   6.066   1.156   2.782
   98SAPC   C22 9669   6.236   1.025   2.900
   98SAPC   H2R 9670   6.213   1.003   3.007
   98SAPC   H2S 9671   6.281   0.929   2.869
   98SAPC    C3 9672   5.870   0.810   2.683
   98SAPC    HX 9673   5.931   0.720   2.661
   98SAPC    HY 9674   5.807   0.817   2.591
   98SAPC   O31 9675   5.791   0.812   2.805
   98SAPC   C31 9676   5.858   0.749   2.907
   98SAPC   O32 9677   5.956   0.676   2.893
   98SAPC   C32 9678   5.805   0.804   3.040
   98SAPC   H2X 9679   5.697   0.783   3.049
   98SAPC   H2Y 9680   5.837   0.910   3.038
   98SAPC   C23 9681   6.341   1.135   2.888
   98SAPC   H3R 9682   6.385   1.152   2.788
   98SAPC   H3S 9683   6.425   1.097   2.951
   98SAPC   C24 9684   6.301   1.269   2.952
   98SAPC   H4R 9685   6.242   1.322   2.874
   98SAPC   H4S 9686   6.389   1.334   2.972
   98SAPC   C25 9687   6.228   1.272   3.081
   98SAPC   H5R 9688   6.119   1.278   3.077
   98SAPC   C26 9689   6.279   1.243   3.208
   98SAPC   H6R 9690   6.208   1.250   3.292
   98SAPC   C27 9691   6.424   1.215   3.246
   98SAPC   H7R 9692   6.483   1.202   3.153
   98SAPC   H7S 9693   6.436   1.113   3.287
   98SAPC   C28 9694   6.479   1.327   3.329
   98SAPC   H8R 9695   6.466   1.425   3.280
   98SAPC   C29 9696   6.550   1.326   3.445
   98SAPC   H9R 9697   6.596   1.421   3.475
   98SAPC  C210 9698   6.598   1.205   3.526
   98SAPC  H10R 9699   6.615   1.120   3.456
   98SAPC  H10S 9700   6.518   1.165   3.592
   98SAPC  C211 9701   6.731   1.221   3.589
   98SAPC  H11R 9702   6.809   1.262   3.523
   98SAPC  C212 9703   6.772   1.199   3.714
   98SAPC  H12R 9704   0.038   1.230   3.730
   98SAPC  C213 9705   6.690   1.147   3.830
   98SAPC  H13R 9706   6.584   1.130   3.802
   98SAPC  H13S 9707   6.688   1.225   3.909
   98SAPC  C214 9708   6.739   1.020   3.892
   98SAPC  H14R 9709   0.000   1.022   3.938
   98SAPC  C215 9710   6.680   0.902   3.895
   98SAPC  H15R 9711   6.731   0.825   3.955
   98SAPC  C216 9712   6.552   0.872   3.821
   98SAPC  H16R 9713   6.478   0.952   3.844
   98SAPC  H16S 9714   6.509   0.778   3.861
   98SAPC  C217 9715   6.567   0.850   3.666
   98SAPC  H17R 9716   6.642   0.769   3.650
   98SAPC  H17S 9717   6.609   0.943   3.621
   98SAPC  C218 9718   6.425   0.823   3.613
   98SAPC  H18R 9719   6.362   0.909   3.645
   98SAPC  H18S 9720   6.376   0.737   3.663
   98SAPC  C219 9721   6.429   0.809   3.458
   98SAPC  H19R 9722   6.489   0.717   3.445
   98SAPC  H19S 9723   6.473   0.898   3.408
   98SAPC  C220 9724   6.294   0.783   3.396
   98SAPC  H20R 9725   6.305   0.763   3.288
   98SAPC  H20S 9726   6.214   0.856   3.421
   98SAPC  H20T 9727   6.255   0.687   3.437
   98SAPC   C33 9728   5.860   0.737   3.167
   98SAPC   H3X 9729   5.971   0.739   3.161
   98SAPC   H3Y 9730   5.826   0.631   3.173
   98SAPC   C34 9731   5.809   0.797   3.303
   98SAPC   H4X 9732   5.698   0.803   3.297
   98SAPC   H4Y 9733   5.855   0.898   3.313
   98SAPC   C35 9734   5.849   0.707   3.431
   98SAPC   H5X 9735   5.956   0.678   3.420
   98SAPC   H5Y 9736   5.780   0.620   3.435
   98SAPC   C36 9737   5.841   0.773   3.569
   98SAPC   H6X 9738   5.735   0.803   3.587
   98SAPC   H6Y 9739   5.897   0.868   3.561
   98SAPC   C37 9740   5.896   0.695   3.691
   98SAPC   H7X 9741   5.997   0.653   3.670
   98SAPC   H7Y 9742   5.832   0.605   3.704
   98SAPC   C38 9743   5.918   0.781   3.814
   98SAPC   H8X 9744   5.816   0.811   3.844
   98SAPC   H8Y 9745   5.975   0.871   3.782
   98SAPC   C39 9746   5.974   0.702   3.929
   98SAPC   H9X 9747   6.084   0.691   3.914
   98SAPC   H9Y 9748   5.930   0.601   3.932
   98SAPC  C310 9749   5.951   0.757   4.067
   98SAPC  H10X 9750   5.846   0.751   4.100
   98SAPC  H10Y 9751   5.985   0.863   4.075
   98SAPC  C311 9752   6.019   0.678   4.187
   98SAPC  H11X 9753   6.126   0.707   4.185
   98SAPC  H11Y 9754   5.996   0.570   4.180
   98SAPC  C312 9755   5.966   0.734   4.324
   98SAPC  H12X 9756   5.857   0.715   4.334
   98SAPC  H12Y 9757   5.973   0.845   4.321
   98SAPC  C313 9758   6.050   0.692   4.447
   98SAPC  H13X 9759   6.039   0.772   4.524
   98SAPC  H13Y 9760   6.157   0.702   4.421
   98SAPC  C314 9761   6.008   0.551   4.496
   98SAPC  H14X 9762   6.060   0.538   4.593
   98SAPC  H14Y 9763   6.045   0.474   4.425
   98SAPC  C315 9764   5.866   0.524   4.528
   98SAPC  H15X 9765   5.833   0.424   4.564
   98SAPC  H15Y 9766   5.801   0.532   4.439
   98SAPC  C316 9767   5.801   0.628   4.621
   98SAPC  H16X 9768   5.818   0.732   4.583
   98SAPC  H16Y 9769   5.856   0.636   4.717
   98SAPC  C317 9770   5.651   0.596   4.656
   98SAPC  H17X 9771   5.635   0.489   4.680
   98SAPC  H17Y 9772   5.602   0.636   4.564
   98SAPC  C318 9773   5.604   0.675   4.777
   98SAPC  H18X 9774   5.497   0.655   4.798
   98SAPC  H18Y 9775   5.619   0.780   4.746
   98SAPC  H18Z 9776   5.667   0.638   4.862
   99SAPC     N 9777   3.050   5.160   2.202
   99SAPC   C12 9778   3.177   5.121   2.124
   99SAPC  H12A 9779   3.189   5.192   2.044
   99SAPC  H12B 9780   3.157   5.031   2.069
   99SAPC   C13 9781   3.014   5.047   2.298
   99SAPC  H13A 9782   2.928   5.081   2.355
   99SAPC  H13B 9783   2.988   4.953   2.251
   99SAPC  H13C 9784   3.103   5.039   2.358
   99SAPC   C14 9785   3.061   5.296   2.266
   99SAPC  H14A 9786   3.121   5.282   2.356
   99SAPC  H14B 9787   3.111   5.367   2.202
   99SAPC  H14C 9788   2.964   5.327   2.301
   99SAPC   C15 9789   2.939   5.162   2.103
   99SAPC  H15A 9790   2.845   5.130   2.147
   99SAPC  H15B 9791   2.930   5.261   2.061
   99SAPC  H15C 9792   2.955   5.097   2.018
   99SAPC   C11 9793   3.303   5.112   2.204
   99SAPC  H11A 9794   3.318   5.199   2.271
   99SAPC  H11B 9795   3.391   5.129   2.137
   99SAPC     P 9796   3.359   4.859   2.194
   99SAPC   O13 9797   3.270   4.849   2.077
   99SAPC   O14 9798   3.504   4.863   2.162
   99SAPC   O12 9799   3.316   4.987   2.272
   99SAPC   O11 9800   3.336   4.732   2.285
   99SAPC    C1 9801   3.239   4.726   2.392
   99SAPC    HA 9802   3.162   4.806   2.394
   99SAPC    HB 9803   3.190   4.626   2.386
   99SAPC    C2 9804   3.313   4.730   2.531
   99SAPC    HS 9805   3.235   4.705   2.607
   99SAPC   O21 9806   3.369   4.861   2.557
   99SAPC   C21 9807   3.280   4.957   2.583
   99SAPC   O22 9808   3.159   4.943   2.584
   99SAPC   C22 9809   3.344   5.095   2.609
   99SAPC   H2R 9810   3.383   5.110   2.506
   99SAPC   H2S 9811   3.261   5.168   2.620
   99SAPC    C3 9812   3.427   4.613   2.554
   99SAPC    HX 9813   3.505   4.635   2.477
   99SAPC    HY 9814   3.379   4.516   2.531
   99SAPC   O31 9815   3.472   4.625   2.684
   99SAPC   C31 9816   3.605   4.599   2.706
   99SAPC   O32 9817   3.680   4.562   2.613
   99SAPC   C32 9818   3.648   4.642   2.852
   99SAPC   H2X 9819   3.609   4.746   2.855
   99SAPC   H2Y 9820   3.758   4.628   2.860
   99SAPC   C23 9821   3.451   5.081   2.718
   99SAPC   H3R 9822   3.481   5.185   2.745
   99SAPC   H3S 9823   3.540   5.032   2.675
   99SAPC   C24 9824   3.404   5.006   2.843
   99SAPC   H4R 9825   3.496   5.012   2.906
   99SAPC   H4S 9826   3.398   4.897   2.824
   99SAPC   C25 9827   3.287   5.058   2.919
   99SAPC   H5R 9828   3.199   5.068   2.855
   99SAPC   C26 9829   3.285   5.104   3.049
   99SAPC   H6R 9830   3.188   5.129   3.095
   99SAPC   C27 9831   3.396   5.113   3.154
   99SAPC   H7R 9832   3.401   5.211   3.208
   99SAPC   H7S 9833   3.493   5.103   3.101
   99SAPC   C28 9834   3.371   4.996   3.254
   99SAPC   H8R 9835   3.333   4.902   3.211
   99SAPC   C29 9836   3.419   4.982   3.378
   99SAPC   H9R 9837   3.381   4.895   3.434
   99SAPC  C210 9838   3.470   5.090   3.464
   99SAPC  H10R 9839   3.423   5.072   3.563
   99SAPC  H10S 9840   3.418   5.184   3.436
   99SAPC  C211 9841   3.620   5.125   3.491
   99SAPC  H11R 9842   3.692   5.093   3.414
   99SAPC  C212 9843   3.676   5.187   3.602
   99SAPC  H12R 9844   3.784   5.204   3.593
   99SAPC  C213 9845   3.598   5.221   3.724
   99SAPC  H13R 9846   3.667   5.229   3.811
   99SAPC  H13S 9847   3.534   5.133   3.744
   99SAPC  C214 9848   3.527   5.353   3.716
   99SAPC  H14R 9849   3.529   5.405   3.619
   99SAPC  C215 9850   3.446   5.398   3.808
   99SAPC  H15R 9851   3.407   5.501   3.794
   99SAPC  C216 9852   3.425   5.329   3.942
   99SAPC  H16R 9853   3.462   5.398   4.020
   99SAPC  H16S 9854   3.490   5.241   3.961
   99SAPC  C217 9855   3.277   5.310   3.963
   99SAPC  H17R 9856   3.247   5.231   3.891
   99SAPC  H17S 9857   3.222   5.404   3.942
   99SAPC  C218 9858   3.228   5.265   4.104
   99SAPC  H18R 9859   3.272   5.330   4.182
   99SAPC  H18S 9860   3.265   5.160   4.107
   99SAPC  C219 9861   3.072   5.259   4.126
   99SAPC  H19R 9862   3.058   5.233   4.234
   99SAPC  H19S 9863   3.033   5.188   4.050
   99SAPC  C220 9864   3.006   5.399   4.123
   99SAPC  H20R 9865   3.070   5.477   4.170
   99SAPC  H20S 9866   2.906   5.407   4.171
   99SAPC  H20T 9867   2.983   5.433   4.020
   99SAPC   C33 9868   3.583   4.555   2.965
   99SAPC   H3X 9869   3.610   4.449   2.946
   99SAPC   H3Y 9870   3.473   4.551   2.948
   99SAPC   C34 9871   3.617   4.601   3.106
   99SAPC   H4X 9872   3.597   4.709   3.119
   99SAPC   H4Y 9873   3.726   4.593   3.127
   99SAPC   C35 9874   3.532   4.526   3.218
   99SAPC   H5X 9875   3.562   4.420   3.234
   99SAPC   H5Y 9876   3.428   4.528   3.180
   99SAPC   C36 9877   3.533   4.614   3.353
   99SAPC   H6X 9878   3.474   4.707   3.339
   99SAPC   H6Y 9879   3.637   4.636   3.384
   99SAPC   C37 9880   3.474   4.547   3.479
   99SAPC   H7X 9881   3.520   4.450   3.508
   99SAPC   H7Y 9882   3.363   4.538   3.467
   99SAPC   C38 9883   3.521   4.634   3.599
   99SAPC   H8X 9884   3.493   4.741   3.586
   99SAPC   H8Y 9885   3.632   4.632   3.598
   99SAPC   C39 9886   3.483   4.580   3.735
   99SAPC   H9X 9887   3.525   4.477   3.748
   99SAPC   H9Y 9888   3.375   4.557   3.738
   99SAPC  C310 9889   3.532   4.672   3.856
   99SAPC  H10X 9890   3.487   4.773   3.859
   99SAPC  H10Y 9891   3.640   4.687   3.836
   99SAPC  C311 9892   3.513   4.601   3.992
   99SAPC  H11X 9893   3.559   4.500   3.993
   99SAPC  H11Y 9894   3.405   4.593   4.016
   99SAPC  C312 9895   3.592   4.669   4.106
   99SAPC  H12X 9896   3.540   4.764   4.130
   99SAPC  H12Y 9897   3.697   4.675   4.071
   99SAPC  C313 9898   3.601   4.581   4.232
   99SAPC  H13X 9899   3.667   4.625   4.309
   99SAPC  H13Y 9900   3.650   4.486   4.201
   99SAPC  C314 9901   3.469   4.547   4.295
   99SAPC  H14X 9902   3.477   4.490   4.390
   99SAPC  H14Y 9903   3.412   4.480   4.226
   99SAPC  C315 9904   3.370   4.663   4.328
   99SAPC  H15X 9905   3.292   4.599   4.372
   99SAPC  H15Y 9906   3.345   4.707   4.229
   99SAPC  C316 9907   3.420   4.758   4.423
   99SAPC  H16X 9908   3.493   4.815   4.361
   99SAPC  H16Y 9909   3.472   4.713   4.510
   99SAPC  C317 9910   3.310   4.857   4.470
   99SAPC  H17X 9911   3.364   4.914   4.549
   99SAPC  H17Y 9912   3.222   4.804   4.512
   99SAPC  C318 9913   3.253   4.958   4.374
   99SAPC  H18X 9914   3.207   5.042   4.432
   99SAPC  H18Y 9915   3.174   4.923   4.305
   99SAPC  H18Z 9916   3.326   5.001   4.302
  100SAPC     N 9917   1.870   4.429   1.773
  100SAPC   C12 9918   1.902   4.485   1.914
  100SAPC  H12A 9919   1.821   4.467   1.982
  100SAPC  H12B 9920   1.918   4.592   1.912
  100SAPC   C13 9921   1.763   4.518   1.713
  100SAPC  H13A 9922   1.778   4.624   1.706
  100SAPC  H13B 9923   1.733   4.495   1.612
  100SAPC  H13C 9924   1.676   4.504   1.775
  100SAPC   C14 9925   1.989   4.444   1.697
  100SAPC  H14A 9926   2.024   4.546   1.689
  100SAPC  H14B 9927   2.072   4.386   1.736
  100SAPC  H14C 9928   1.969   4.408   1.597
  100SAPC   C15 9929   1.830   4.284   1.778
  100SAPC  H15A 9930   1.804   4.248   1.680
  100SAPC  H15B 9931   1.919   4.235   1.816
  100SAPC  H15C 9932   1.747   4.270   1.845
  100SAPC   C11 9933   2.022   4.415   1.979
  100SAPC  H11A 9934   2.058   4.468   2.070
  100SAPC  H11B 9935   2.110   4.415   1.910
  100SAPC     P 9936   1.929   4.233   2.152
  100SAPC   O13 9937   2.033   4.251   2.257
  100SAPC   O14 9938   1.798   4.300   2.178
  100SAPC   O12 9939   1.992   4.277   2.010
  100SAPC   O11 9940   1.900   4.080   2.130
  100SAPC    C1 9941   1.988   3.969   2.123
  100SAPC    HA 9942   1.984   3.935   2.017
  100SAPC    HB 9943   2.095   3.997   2.133
  100SAPC    C2 9944   1.952   3.862   2.231
  100SAPC    HS 9945   1.856   3.815   2.200
  100SAPC   O21 9946   1.945   3.932   2.361
  100SAPC   C21 9947   1.822   3.973   2.388
  100SAPC   O22 9948   1.722   3.942   2.325
  100SAPC   C22 9949   1.810   4.074   2.498
  100SAPC   H2R 9950   1.887   4.052   2.576
  100SAPC   H2S 9951   1.830   4.175   2.459
  100SAPC    C3 9952   2.054   3.747   2.241
  100SAPC    HX 9953   2.147   3.806   2.248
  100SAPC    HY 9954   2.043   3.697   2.142
  100SAPC   O31 9955   2.039   3.659   2.357
  100SAPC   C31 9956   1.940   3.579   2.354
  100SAPC   O32 9957   1.845   3.585   2.274
  100SAPC   C32 9958   1.938   3.470   2.460
  100SAPC   H2X 9959   2.034   3.480   2.515
  100SAPC   H2Y 9960   1.933   3.367   2.419
  100SAPC   C23 9961   1.673   4.061   2.570
  100SAPC   H3R 9962   1.620   3.968   2.543
  100SAPC   H3S 9963   1.611   4.151   2.546
  100SAPC   C24 9964   1.676   4.058   2.723
  100SAPC   H4R 9965   1.736   3.968   2.747
  100SAPC   H4S 9966   1.569   4.048   2.755
  100SAPC   C25 9967   1.731   4.183   2.791
  100SAPC   H5R 9968   1.764   4.265   2.725
  100SAPC   C26 9969   1.752   4.187   2.928
  100SAPC   H6R 9970   1.774   4.286   2.971
  100SAPC   C27 9971   1.733   4.071   3.023
  100SAPC   H7R 9972   1.837   4.057   3.061
  100SAPC   H7S 9973   1.704   3.971   2.985
  100SAPC   C28 9974   1.636   4.098   3.142
  100SAPC   H8R 9975   1.540   4.141   3.111
  100SAPC   C29 9976   1.657   4.087   3.277
  100SAPC   H9R 9977   1.570   4.115   3.339
  100SAPC  C210 9978   1.794   4.056   3.330
  100SAPC  H10R 9979   1.861   3.996   3.264
  100SAPC  H10S 9980   1.795   4.007   3.430
  100SAPC  C211 9981   1.862   4.195   3.338
  100SAPC  H11R 9982   1.835   4.265   3.258
  100SAPC  C212 9983   1.957   4.219   3.425
  100SAPC  H12R 9984   2.006   4.318   3.422
  100SAPC  C213 9985   2.014   4.131   3.535
  100SAPC  H13R 9986   2.124   4.139   3.542
  100SAPC  H13S 9987   1.993   4.026   3.502
  100SAPC  C214 9988   1.942   4.151   3.662
  100SAPC  H14R 9989   1.845   4.099   3.667
  100SAPC  C215 9990   1.986   4.206   3.778
  100SAPC  H15R 9991   1.916   4.226   3.861
  100SAPC  C216 9992   2.113   4.280   3.798
  100SAPC  H16R 9993   2.187   4.274   3.715
  100SAPC  H16S 9994   2.161   4.241   3.890
  100SAPC  C217 9995   2.080   4.433   3.816
  100SAPC  H17R 9996   2.017   4.480   3.738
  100SAPC  H17S 9997   2.181   4.476   3.801
  100SAPC  C218 9998   2.020   4.467   3.956
  100SAPC  H18R 9999   2.077   4.399   4.023
  100SAPC  H18S10000   1.918   4.427   3.975
  100SAPC  C21910001   2.037   4.612   3.994
  100SAPC  H19R10002   1.984   4.679   3.923
  100SAPC  H19S10003   2.146   4.636   3.985
  100SAPC  C22010004   1.984   4.649   4.135
  100SAPC  H20R10005   2.040   4.603   4.219
  100SAPC  H20S10006   1.882   4.607   4.150
  100SAPC  H20T10007   1.976   4.759   4.154
  100SAPC   C3310008   1.818   3.495   2.552
  100SAPC   H3X10009   1.759   3.402   2.562
  100SAPC   H3Y10010   1.741   3.567   2.516
  100SAPC   C3410011   1.851   3.525   2.697
  100SAPC   H4X10012   1.926   3.604   2.718
  100SAPC   H4Y10013   1.873   3.430   2.751
  100SAPC   C3510014   1.720   3.567   2.778
  100SAPC   H5X10015   1.643   3.488   2.764
  100SAPC   H5Y10016   1.678   3.660   2.733
  100SAPC   C3610017   1.747   3.571   2.931
  100SAPC   H6X10018   1.782   3.473   2.971
  100SAPC   H6Y10019   1.651   3.597   2.980
  100SAPC   C3710020   1.830   3.695   2.951
  100SAPC   H7X10021   1.777   3.785   2.911
  100SAPC   H7Y10022   1.923   3.686   2.891
  100SAPC   C3810023   1.873   3.713   3.098
  100SAPC   H8X10024   1.803   3.786   3.145
  100SAPC   H8Y10025   1.973   3.761   3.088
  100SAPC   C3910026   1.894   3.589   3.186
  100SAPC   H9X10027   1.968   3.521   3.139
  100SAPC   H9Y10028   1.792   3.543   3.189
  100SAPC  C31010029   1.934   3.619   3.332
  100SAPC  H10X10030   2.029   3.678   3.336
  100SAPC  H10Y10031   1.963   3.528   3.388
  100SAPC  C31110032   1.830   3.684   3.416
  100SAPC  H11X10033   1.731   3.634   3.402
  100SAPC  H11Y10034   1.815   3.788   3.379
  100SAPC  C31210035   1.867   3.704   3.566
  100SAPC  H12X10036   1.967   3.752   3.574
  100SAPC  H12Y10037   1.871   3.611   3.626
  100SAPC  C31310038   1.761   3.792   3.630
  100SAPC  H13X10039   1.669   3.731   3.633
  100SAPC  H13Y10040   1.741   3.872   3.555
  100SAPC  C31410041   1.806   3.841   3.770
  100SAPC  H14X10042   1.898   3.903   3.770
  100SAPC  H14Y10043   1.830   3.756   3.838
  100SAPC  C31510044   1.685   3.907   3.832
  100SAPC  H15X10045   1.604   3.831   3.837
  100SAPC  H15Y10046   1.652   3.991   3.766
  100SAPC  C31610047   1.709   3.980   3.964
  100SAPC  H16X10048   1.609   4.023   3.987
  100SAPC  H16Y10049   1.777   4.067   3.972
  100SAPC  C31710050   1.753   3.887   4.073
  100SAPC  H17X10051   1.862   3.873   4.059
  100SAPC  H17Y10052   1.708   3.786   4.064
  100SAPC  C31810053   1.723   3.945   4.213
  100SAPC  H18X10054   1.777   3.882   4.287
  100SAPC  H18Y10055   1.614   3.934   4.230
  100SAPC  H18Z10056   1.757   4.050   4.230
  101OSM      N10057   4.084   3.014   7.015
  101OSM    C1510058   4.221   3.073   7.033
  101OSM   H15A10059   4.237   3.108   7.134
  101OSM   H15B10060   4.231   3.154   6.962
  101OSM   H15C10061   4.286   2.990   7.010
  101OSM    C1410062   4.058   2.889   7.096
  101OSM   H14A10063   3.955   2.860   7.081
  101OSM   H14B10064   4.058   2.910   7.202
  101OSM   H14C10065   4.130   2.812   7.073
  101OSM    C1310066   3.982   3.120   7.041
  101OSM   H13A10067   3.961   3.133   7.146
  101OSM   H13B10068   3.895   3.090   6.985
  101OSM   H13C10069   4.012   3.214   6.998
  101OSM    C1210070   4.073   2.981   6.864
  101OSM   H12A10071   4.134   3.063   6.827
  101OSM   H12B10072   3.973   2.984   6.824
  101OSM    C1110073   4.134   2.848   6.817
  101OSM   H11A10074   4.096   2.835   6.713
  101OSM   H11B10075   4.093   2.766   6.878
  101OSM      P10076   4.360   2.731   6.773
  101OSM    O1310077   4.501   2.774   6.763
  101OSM    O1410078   4.337   2.615   6.860
  101OSM    O1110079   4.315   2.692   6.626
  101OSM    O1210080   4.275   2.858   6.821
  101OSM    C1S10081   4.289   2.793   6.524
  101OSM    H1S10082   4.386   2.843   6.503
  101OSM    H1T10083   4.225   2.872   6.567
  101OSM     NF10084   4.235   2.848   6.291
  101OSM    HNF10085   4.166   2.920   6.286
  101OSM    C2S10086   4.222   2.740   6.390
  101OSM    H2S10087   4.292   2.658   6.364
  101OSM    C3S10088   4.089   2.694   6.423
  101OSM    H3S10089   4.032   2.777   6.470
  101OSM     O310090   4.090   2.593   6.523
  101OSM    HO310091   4.157   2.606   6.591
  101OSM    C4S10092   4.015   2.655   6.296
  101OSM    H4S10093   4.071   2.586   6.231
  101OSM    C5S10094   3.897   2.703   6.255
  101OSM    H5S10095   3.851   2.788   6.307
  101OSM    C6S10096   3.822   2.663   6.125
  101OSM    H6S10097   3.712   2.658   6.139
  101OSM    H6T10098   3.857   2.568   6.080
  101OSM    C7S10099   3.861   2.763   6.018
  101OSM    H7S10100   3.963   2.748   5.977
  101OSM    H7T10101   3.865   2.866   6.059
  101OSM    C8S10102   3.760   2.772   5.903
  101OSM    H8S10103   3.770   2.866   5.845
  101OSM    H8T10104   3.657   2.785   5.942
  101OSM    C9S10105   3.780   2.658   5.797
  101OSM    H9S10106   3.748   2.560   5.840
  101OSM    H9T10107   3.889   2.639   5.785
  101OSM   C10S10108   3.709   2.689   5.664
  101OSM   H10S10109   3.745   2.789   5.631
  101OSM   H10T10110   3.598   2.700   5.669
  101OSM   C11S10111   3.729   2.585   5.558
  101OSM   H11S10112   3.683   2.485   5.576
  101OSM   H11T10113   3.836   2.569   5.532
  101OSM   C12S10114   3.651   2.621   5.432
  101OSM   H12S10115   3.704   2.715   5.409
  101OSM   H12T10116   3.549   2.648   5.465
  101OSM   C13S10117   3.657   2.516   5.316
  101OSM   H13S10118   3.619   2.427   5.370
  101OSM   H13T10119   3.764   2.503   5.289
  101OSM   C14S10120   3.570   2.557   5.196
  101OSM   H14S10121   3.595   2.659   5.162
  101OSM   H14T10122   3.462   2.558   5.221
  101OSM   C15S10123   3.590   2.469   5.073
  101OSM   H15S10124   3.557   2.368   5.105
  101OSM   H15T10125   3.699   2.460   5.052
  101OSM   C16S10126   3.508   2.514   4.950
  101OSM   H16S10127   3.545   2.454   4.863
  101OSM   H16T10128   3.519   2.621   4.920
  101OSM   C17S10129   3.355   2.491   4.959
  101OSM   H17S10130   3.310   2.535   5.051
  101OSM   H17T10131   3.323   2.385   4.963
  101OSM   C18S10132   3.285   2.558   4.833
  101OSM   H18S10133   3.180   2.527   4.813
  101OSM   H18T10134   3.343   2.532   4.742
  101OSM   H18U10135   3.307   2.667   4.837
  101OSM    C1F10136   4.351   2.867   6.222
  101OSM     OF10137   4.444   2.789   6.248
  101OSM    C2F10138   4.348   2.986   6.135
  101OSM    H2F10139   4.444   3.041   6.142
  101OSM    H2G10140   4.272   3.059   6.171
  101OSM    C3F10141   4.335   2.948   5.988
  101OSM    H3F10142   4.425   2.898   5.946
  101OSM    H3G10143   4.316   3.038   5.925
  101OSM    C4F10144   4.216   2.852   5.958
  101OSM    H4F10145   4.133   2.877   6.028
  101OSM    H4G10146   4.247   2.746   5.968
  101OSM    C5F10147   4.160   2.859   5.811
  101OSM    H5F10148   4.124   2.964   5.802
  101OSM    H5G10149   4.063   2.806   5.811
  101OSM    C6F10150   4.249   2.825   5.703
  101OSM    H6F10151   4.273   2.716   5.707
  101OSM    H6G10152   4.347   2.877   5.709
  101OSM    C7F10153   4.195   2.864   5.566
  101OSM    H7F10154   4.175   2.973   5.555
  101OSM    H7G10155   4.099   2.813   5.546
  101OSM    C8F10156   4.300   2.833   5.455
  101OSM    H8F10157   4.299   2.724   5.436
  101OSM    H8G10158   4.399   2.860   5.497
  101OSM    C9F10159   4.276   2.905   5.332
  101OSM    H9F10160   4.193   2.978   5.330
  101OSM   C10F10161   4.345   2.886   5.214
  101OSM   H10F10162   4.331   2.959   5.133
  101OSM   C11F10163   4.466   2.791   5.200
  101OSM   H11F10164   4.459   2.704   5.269
  101OSM   H11G10165   4.554   2.849   5.234
  101OSM   C12F10166   4.509   2.749   5.062
  101OSM   H12F10167   4.423   2.703   5.009
  101OSM   H12G10168   4.586   2.670   5.074
  101OSM   C13F10169   4.556   2.863   4.972
  101OSM   H13F10170   4.654   2.901   5.009
  101OSM   H13G10171   4.483   2.946   4.964
  101OSM   C14F10172   4.590   2.834   4.819
  101OSM   H14F10173   4.508   2.776   4.771
  101OSM   H14G10174   4.679   2.767   4.814
  101OSM   C15F10175   4.612   2.958   4.737
  101OSM   H15F10176   4.715   2.997   4.754
  101OSM   H15G10177   4.533   3.035   4.746
  101OSM   C16F10178   4.598   2.932   4.583
  101OSM   H16F10179   4.490   2.910   4.568
  101OSM   H16G10180   4.663   2.845   4.559
  101OSM   C17F10181   4.642   3.047   4.488
  101OSM   H17F10182   4.634   3.021   4.380
  101OSM   H17G10183   4.751   3.069   4.497
  101OSM   C18F10184   4.577   3.185   4.515
  101OSM   H18F10185   4.591   3.230   4.615
  101OSM   H18G10186   4.469   3.179   4.492
  101OSM   H18H10187   4.620   3.256   4.441
  102OSM      N10188   4.520   2.394   6.610
  102OSM    C1510189   4.585   2.261   6.571
  102OSM   H15A10190   4.653   2.275   6.489
  102OSM   H15B10191   4.507   2.190   6.548
  102OSM   H15C10192   4.645   2.231   6.656
  102OSM    C1410193   4.630   2.490   6.628
  102OSM   H14A10194   4.701   2.488   6.547
  102OSM   H14B10195   4.680   2.468   6.721
  102OSM   H14C10196   4.594   2.591   6.644
  102OSM    C1310197   4.439   2.447   6.501
  102OSM   H13A10198   4.488   2.445   6.405
  102OSM   H13B10199   4.402   2.547   6.519
  102OSM   H13C10200   4.351   2.384   6.499
  102OSM    C1210201   4.436   2.369   6.737
  102OSM   H12A10202   4.382   2.460   6.758
  102OSM   H12B10203   4.503   2.339   6.816
  102OSM    C1110204   4.334   2.247   6.733
  102OSM   H11A10205   4.253   2.276   6.663
  102OSM   H11B10206   4.287   2.219   6.829
  102OSM      P10207   4.297   2.006   6.628
  102OSM    O1310208   4.379   1.884   6.619
  102OSM    O1410209   4.174   2.003   6.716
  102OSM    O1110210   4.242   2.044   6.485
  102OSM    O1210211   4.389   2.125   6.673
  102OSM    C1S10212   4.338   2.055   6.381
  102OSM    H1S10213   4.386   1.958   6.360
  102OSM    H1T10214   4.420   2.128   6.396
  102OSM     NF10215   4.352   2.092   6.136
  102OSM    HNF10216   4.383   2.176   6.092
  102OSM    C2S10217   4.267   2.111   6.254
  102OSM    H2S10218   4.172   2.056   6.239
  102OSM    C3S10219   4.217   2.255   6.270
  102OSM    H3S10220   4.299   2.326   6.296
  102OSM     O310221   4.123   2.270   6.380
  102OSM    HO310222   4.119   2.185   6.424
  102OSM    C4S10223   4.151   2.297   6.143
  102OSM    H4S10224   4.054   2.250   6.124
  102OSM    C5S10225   4.195   2.402   6.066
  102OSM    H5S10226   4.273   2.466   6.110
  102OSM    C6S10227   4.127   2.458   5.947
  102OSM    H6S10228   4.097   2.565   5.954
  102OSM    H6T10229   4.025   2.415   5.938
  102OSM    C7S10230   4.193   2.442   5.812
  102OSM    H7S10231   4.237   2.341   5.800
  102OSM    H7T10232   4.279   2.511   5.801
  102OSM    C8S10233   4.108   2.471   5.688
  102OSM    H8S10234   4.065   2.573   5.683
  102OSM    H8T10235   4.015   2.413   5.699
  102OSM    C9S10236   4.177   2.430   5.555
  102OSM    H9S10237   4.208   2.324   5.542
  102OSM    H9T10238   4.276   2.480   5.549
  102OSM   C10S10239   4.107   2.473   5.423
  102OSM   H10S10240   4.060   2.574   5.425
  102OSM   H10T10241   4.017   2.411   5.401
  102OSM   C11S10242   4.191   2.480   5.301
  102OSM   H11S10243   4.212   2.378   5.263
  102OSM   H11T10244   4.292   2.522   5.324
  102OSM   C12S10245   4.147   2.572   5.180
  102OSM   H12S10246   4.215   2.569   5.092
  102OSM   H12T10247   4.146   2.675   5.222
  102OSM   C13S10248   4.002   2.542   5.138
  102OSM   H13S10249   3.927   2.583   5.209
  102OSM   H13T10250   3.993   2.432   5.126
  102OSM   C14S10251   3.962   2.611   4.997
  102OSM   H14S10252   3.997   2.717   4.996
  102OSM   H14T10253   3.852   2.602   4.984
  102OSM   C15S10254   4.020   2.527   4.885
  102OSM   H15S10255   3.997   2.420   4.899
  102OSM   H15T10256   4.131   2.527   4.880
  102OSM   C16S10257   3.965   2.579   4.748
  102OSM   H16S10258   3.989   2.688   4.754
  102OSM   H16T10259   3.855   2.574   4.743
  102OSM   C17S10260   4.044   2.518   4.627
  102OSM   H17S10261   4.035   2.407   4.620
  102OSM   H17T10262   4.150   2.548   4.640
  102OSM   C18S10263   3.993   2.559   4.495
  102OSM   H18S10264   4.035   2.501   4.410
  102OSM   H18T10265   4.000   2.670   4.489
  102OSM   H18U10266   3.884   2.536   4.489
  102OSM    C1F10267   4.409   1.976   6.094
  102OSM     OF10268   4.399   1.869   6.147
  102OSM    C2F10269   4.490   1.991   5.973
  102OSM    H2F10270   4.544   1.896   5.953
  102OSM    H2G10271   4.561   2.072   6.001
  102OSM    C3F10272   4.406   2.052   5.857
  102OSM    H3F10273   4.366   2.153   5.879
  102OSM    H3G10274   4.318   1.987   5.839
  102OSM    C4F10275   4.487   2.063   5.731
  102OSM    H4F10276   4.564   1.984   5.722
  102OSM    H4G10277   4.536   2.163   5.730
  102OSM    C5F10278   4.400   2.056   5.602
  102OSM    H5F10279   4.310   2.120   5.616
  102OSM    H5G10280   4.364   1.951   5.596
  102OSM    C6F10281   4.470   2.091   5.474
  102OSM    H6F10282   4.547   2.013   5.458
  102OSM    H6G10283   4.529   2.181   5.499
  102OSM    C7F10284   4.379   2.105   5.353
  102OSM    H7F10285   4.323   2.199   5.371
  102OSM    H7G10286   4.311   2.017   5.360
  102OSM    C8F10287   4.452   2.102   5.220
  102OSM    H8F10288   4.508   2.006   5.220
  102OSM    H8G10289   4.533   2.177   5.216
  102OSM    C9F10290   4.349   2.110   5.113
  102OSM    H9F10291   4.301   2.013   5.092
  102OSM   C10F10292   4.336   2.205   5.022
  102OSM   H10F10293   4.251   2.197   4.953
  102OSM   C11F10294   4.416   2.333   5.017
  102OSM   H11F10295   4.494   2.345   5.096
  102OSM   H11G10296   4.347   2.418   5.029
  102OSM   C12F10297   4.489   2.333   4.883
  102OSM   H12F10298   4.571   2.258   4.879
  102OSM   H12G10299   4.538   2.432   4.872
  102OSM   C13F10300   4.399   2.316   4.755
  102OSM   H13F10301   4.317   2.391   4.764
  102OSM   H13G10302   4.361   2.212   4.746
  102OSM   C14F10303   4.470   2.372   4.626
  102OSM   H14F10304   4.450   2.481   4.638
  102OSM   H14G10305   4.405   2.337   4.543
  102OSM   C15F10306   4.624   2.340   4.596
  102OSM   H15F10307   4.682   2.349   4.691
  102OSM   H15G10308   4.670   2.411   4.525
  102OSM   C16F10309   4.644   2.205   4.543
  102OSM   H16F10310   4.579   2.143   4.608
  102OSM   H16G10311   4.748   2.173   4.561
  102OSM   C17F10312   4.617   2.190   4.393
  102OSM   H17F10313   4.667   2.269   4.334
  102OSM   H17G10314   4.509   2.201   4.371
  102OSM   C18F10315   4.650   2.044   4.353
  102OSM   H18F10316   4.565   1.990   4.400
  102OSM   H18G10317   4.744   2.012   4.401
  102OSM   H18H10318   4.654   2.032   4.242
  103OSM      N10319   4.855   4.814   6.500
  103OSM    C1510320   4.810   4.824   6.352
  103OSM   H15A10321   4.870   4.771   6.279
  103OSM   H15B10322   4.794   4.926   6.322
  103OSM   H15C10323   4.715   4.773   6.349
  103OSM    C1410324   4.854   4.670   6.542
  103OSM   H14A10325   4.894   4.605   6.466
  103OSM   H14B10326   4.751   4.642   6.553
  103OSM   H14C10327   4.911   4.668   6.634
  103OSM    C1310328   4.996   4.868   6.504
  103OSM   H13A10329   5.005   4.974   6.483
  103OSM   H13B10330   5.063   4.821   6.434
  103OSM   H13C10331   5.037   4.849   6.601
  103OSM    C1210332   4.763   4.894   6.598
  103OSM   H12A10333   4.775   4.998   6.574
  103OSM   H12B10334   4.810   4.874   6.693
  103OSM    C1110335   4.615   4.863   6.604
  103OSM   H11A10336   4.572   4.890   6.505
  103OSM   H11B10337   4.582   4.938   6.680
  103OSM      P10338   4.475   4.646   6.611
  103OSM    O1310339   4.494   4.510   6.675
  103OSM    O1410340   4.355   4.725   6.648
  103OSM    O1110341   4.484   4.635   6.455
  103OSM    O1210342   4.602   4.730   6.653
  103OSM    C1S10343   4.490   4.504   6.385
  103OSM    H1S10344   4.430   4.424   6.433
  103OSM    H1T10345   4.595   4.467   6.387
  103OSM     NF10346   4.444   4.385   6.170
  103OSM    HNF10347   4.509   4.376   6.095
  103OSM    C2S10348   4.443   4.515   6.237
  103OSM    H2S10349   4.343   4.561   6.250
  103OSM    C3S10350   4.530   4.620   6.165
  103OSM    H3S10351   4.637   4.590   6.167
  103OSM     O310352   4.526   4.746   6.225
  103OSM    HO310353   4.467   4.743   6.301
  103OSM    C4S10354   4.493   4.649   6.025
  103OSM    H4S10355   4.409   4.720   6.018
  103OSM    C5S10356   4.559   4.599   5.919
  103OSM    H5S10357   4.640   4.528   5.939
  103OSM    C6S10358   4.525   4.613   5.774
  103OSM    H6S10359   4.436   4.550   5.753
  103OSM    H6T10360   4.601   4.568   5.707
  103OSM    C7S10361   4.492   4.756   5.727
  103OSM    H7S10362   4.568   4.828   5.763
  103OSM    H7T10363   4.396   4.785   5.774
  103OSM    C8S10364   4.484   4.753   5.571
  103OSM    H8S10365   4.573   4.698   5.532
  103OSM    H8T10366   4.490   4.856   5.532
  103OSM    C9S10367   4.343   4.692   5.519
  103OSM    H9S10368   4.274   4.768   5.563
  103OSM    H9T10369   4.328   4.591   5.563
  103OSM   C10S10370   4.329   4.693   5.372
  103OSM   H10S10371   4.241   4.635   5.336
  103OSM   H10T10372   4.421   4.648   5.329
  103OSM   C11S10373   4.307   4.832   5.318
  103OSM   H11S10374   4.402   4.890   5.319
  103OSM   H11T10375   4.234   4.886   5.383
  103OSM   C12S10376   4.251   4.851   5.169
  103OSM   H12S10377   4.172   4.774   5.160
  103OSM   H12T10378   4.316   4.819   5.084
  103OSM   C13S10379   4.192   4.988   5.139
  103OSM   H13S10380   4.281   5.054   5.142
  103OSM   H13T10381   4.133   5.029   5.224
  103OSM   C14S10382   4.119   4.989   5.007
  103OSM   H14S10383   4.048   4.904   5.010
  103OSM   H14T10384   4.184   4.967   4.919
  103OSM   C15S10385   4.041   5.118   4.974
  103OSM   H15S10386   3.980   5.161   5.057
  103OSM   H15T10387   3.985   5.091   4.882
  103OSM   C16S10388   4.129   5.230   4.932
  103OSM   H16S10389   4.198   5.195   4.853
  103OSM   H16T10390   4.191   5.264   5.018
  103OSM   C17S10391   4.051   5.361   4.884
  103OSM   H17S10392   4.132   5.429   4.850
  103OSM   H17T10393   3.995   5.407   4.968
  103OSM   C18S10394   3.951   5.322   4.769
  103OSM   H18S10395   3.894   5.405   4.724
  103OSM   H18T10396   3.875   5.247   4.799
  103OSM   H18U10397   4.015   5.268   4.695
  103OSM    C1F10398   4.365   4.283   6.206
  103OSM     OF10399   4.267   4.301   6.280
  103OSM    C2F10400   4.403   4.149   6.152
  103OSM    H2F10401   4.386   4.077   6.236
  103OSM    H2G10402   4.513   4.154   6.142
  103OSM    C3F10403   4.316   4.105   6.028
  103OSM    H3F10404   4.208   4.121   6.047
  103OSM    H3G10405   4.334   3.996   6.018
  103OSM    C4F10406   4.351   4.187   5.896
  103OSM    H4F10407   4.462   4.188   5.893
  103OSM    H4G10408   4.305   4.288   5.903
  103OSM    C5F10409   4.314   4.114   5.771
  103OSM    H5F10410   4.207   4.087   5.765
  103OSM    H5G10411   4.369   4.017   5.772
  103OSM    C6F10412   4.357   4.204   5.645
  103OSM    H6F10413   4.468   4.196   5.635
  103OSM    H6G10414   4.329   4.308   5.672
  103OSM    C7F10415   4.297   4.169   5.508
  103OSM    H7F10416   4.192   4.134   5.504
  103OSM    H7G10417   4.345   4.071   5.486
  103OSM    C8F10418   4.324   4.286   5.411
  103OSM    H8F10419   4.400   4.359   5.445
  103OSM    H8G10420   4.236   4.353   5.404
  103OSM    C9F10421   4.360   4.235   5.268
  103OSM    H9F10422   4.457   4.185   5.256
  103OSM   C10F10423   4.295   4.256   5.151
  103OSM   H10F10424   4.340   4.214   5.060
  103OSM   C11F10425   4.156   4.298   5.142
  103OSM   H11F10426   4.096   4.293   5.235
  103OSM   H11G10427   4.096   4.225   5.083
  103OSM   C12F10428   4.142   4.439   5.086
  103OSM   H12F10429   4.198   4.459   4.992
  103OSM   H12G10430   4.182   4.519   5.152
  103OSM   C13F10431   3.990   4.481   5.070
  103OSM   H13F10432   3.936   4.463   5.165
  103OSM   H13G10433   3.953   4.405   4.998
  103OSM   C14F10434   3.954   4.616   5.021
  103OSM   H14F10435   4.023   4.630   4.935
  103OSM   H14G10436   3.979   4.682   5.106
  103OSM   C15F10437   3.807   4.637   4.977
  103OSM   H15F10438   3.746   4.603   5.063
  103OSM   H15G10439   3.768   4.577   4.892
  103OSM   C16F10440   3.770   4.780   4.947
  103OSM   H16F10441   3.790   4.844   5.036
  103OSM   H16G10442   3.661   4.766   4.935
  103OSM   C17F10443   3.830   4.837   4.818
  103OSM   H17F10444   3.941   4.843   4.814
  103OSM   H17G10445   3.803   4.945   4.805
  103OSM   C18F10446   3.784   4.762   4.690
  103OSM   H18F10447   3.675   4.739   4.691
  103OSM   H18G10448   3.837   4.664   4.683
  103OSM   H18H10449   3.813   4.821   4.601
  104OSM      N10450   5.892   3.017   6.632
  104OSM    C1510451   6.033   3.038   6.670
  104OSM   H15A10452   6.052   3.098   6.758
  104OSM   H15B10453   6.098   3.084   6.597
  104OSM   H15C10454   6.078   2.940   6.680
  104OSM    C1410455   5.820   2.940   6.744
  104OSM   H14A10456   5.810   3.003   6.831
  104OSM   H14B10457   5.884   2.858   6.773
  104OSM   H14C10458   5.722   2.900   6.722
  104OSM    C1310459   5.833   3.150   6.606
  104OSM   H13A10460   5.838   3.207   6.698
  104OSM   H13B10461   5.729   3.141   6.576
  104OSM   H13C10462   5.884   3.199   6.524
  104OSM    C1210463   5.881   2.942   6.503
  104OSM   H12A10464   5.953   2.862   6.511
  104OSM   H12B10465   5.924   3.000   6.423
  104OSM    C1110466   5.727   2.899   6.473
  104OSM   H11A10467   5.724   2.862   6.368
  104OSM   H11B10468   5.658   2.985   6.473
  104OSM      P10469   5.756   2.644   6.556
  104OSM    O1310470   5.862   2.642   6.664
  104OSM    O1410471   5.645   2.545   6.558
  104OSM    O1110472   5.834   2.639   6.414
  104OSM    O1210473   5.693   2.785   6.559
  104OSM    C1S10474   5.751   2.628   6.296
  104OSM    H1S10475   5.658   2.688   6.306
  104OSM    H1T10476   5.726   2.521   6.285
  104OSM     NF10477   5.725   2.651   6.060
  104OSM    HNF10478   5.704   2.559   6.027
  104OSM    C2S10479   5.822   2.672   6.167
  104OSM    H2S10480   5.842   2.781   6.167
  104OSM    C3S10481   5.953   2.590   6.152
  104OSM    H3S10482   5.944   2.480   6.161
  104OSM     O310483   6.051   2.611   6.252
  104OSM    HO310484   5.995   2.655   6.316
  104OSM    C4S10485   6.016   2.618   6.015
  104OSM    H4S10486   5.983   2.541   5.945
  104OSM    C5S10487   6.104   2.713   5.977
  104OSM    H5S10488   6.142   2.792   6.044
  104OSM    C6S10489   6.140   2.726   5.831
  104OSM    H6S10490   6.251   2.728   5.823
  104OSM    H6T10491   6.112   2.827   5.795
  104OSM    C7S10492   6.082   2.631   5.721
  104OSM    H7S10493   5.971   2.622   5.724
  104OSM    H7T10494   6.133   2.533   5.733
  104OSM    C8S10495   6.108   2.687   5.580
  104OSM    H8S10496   6.214   2.714   5.561
  104OSM    H8T10497   6.051   2.782   5.569
  104OSM    C9S10498   6.065   2.578   5.469
  104OSM    H9S10499   5.964   2.534   5.487
  104OSM    H9T10500   6.129   2.491   5.495
  104OSM   C10S10501   6.079   2.628   5.323
  104OSM   H10S10502   6.162   2.701   5.319
  104OSM   H10T10503   5.994   2.693   5.294
  104OSM   C11S10504   6.094   2.513   5.226
  104OSM   H11S10505   6.003   2.450   5.235
  104OSM   H11T10506   6.179   2.449   5.259
  104OSM   C12S10507   6.113   2.563   5.085
  104OSM   H12S10508   6.206   2.621   5.069
  104OSM   H12T10509   6.026   2.631   5.073
  104OSM   C13S10510   6.104   2.455   4.973
  104OSM   H13S10511   6.020   2.391   5.007
  104OSM   H13T10512   6.197   2.395   4.977
  104OSM   C14S10513   6.070   2.504   4.830
  104OSM   H14S10514   6.149   2.574   4.794
  104OSM   H14T10515   5.980   2.569   4.833
  104OSM   C15S10516   6.058   2.379   4.741
  104OSM   H15S10517   6.018   2.295   4.803
  104OSM   H15T10518   6.160   2.350   4.706
  104OSM   C16S10519   5.950   2.408   4.634
  104OSM   H16S10520   5.985   2.507   4.597
  104OSM   H16T10521   5.853   2.417   4.687
  104OSM   C17S10522   5.938   2.294   4.536
  104OSM   H17S10523   5.918   2.198   4.588
  104OSM   H17T10524   6.035   2.277   4.484
  104OSM   C18S10525   5.833   2.305   4.420
  104OSM   H18S10526   5.811   2.199   4.395
  104OSM   H18T10527   5.883   2.352   4.333
  104OSM   H18U10528   5.747   2.368   4.451
  104OSM    C1F10529   5.630   2.732   6.030
  104OSM     OF10530   5.584   2.813   6.106
  104OSM    C2F10531   5.556   2.713   5.892
  104OSM    H2F10532   5.504   2.809   5.872
  104OSM    H2G10533   5.482   2.633   5.914
  104OSM    C3F10534   5.655   2.670   5.775
  104OSM    H3F10535   5.673   2.561   5.783
  104OSM    H3G10536   5.752   2.722   5.789
  104OSM    C4F10537   5.594   2.702   5.635
  104OSM    H4F10538   5.563   2.808   5.629
  104OSM    H4G10539   5.501   2.644   5.616
  104OSM    C5F10540   5.677   2.667   5.519
  104OSM    H5F10541   5.700   2.559   5.514
  104OSM    H5G10542   5.776   2.715   5.530
  104OSM    C6F10543   5.605   2.708   5.383
  104OSM    H6F10544   5.558   2.808   5.385
  104OSM    H6G10545   5.525   2.633   5.362
  104OSM    C7F10546   5.707   2.712   5.264
  104OSM    H7F10547   5.762   2.616   5.258
  104OSM    H7G10548   5.785   2.785   5.292
  104OSM    C8F10549   5.658   2.754   5.131
  104OSM    H8F10550   5.592   2.667   5.112
  104OSM    H8G10551   5.745   2.754   5.062
  104OSM    C9F10552   5.583   2.885   5.125
  104OSM    H9F10553   5.632   2.951   5.198
  104OSM   C10F10554   5.478   2.921   5.041
  104OSM   H10F10555   5.430   3.020   5.047
  104OSM   C11F10556   5.407   2.835   4.941
  104OSM   H11F10557   5.312   2.807   4.992
  104OSM   H11G10558   5.459   2.741   4.916
  104OSM   C12F10559   5.363   2.893   4.808
  104OSM   H12F10560   5.340   2.808   4.740
  104OSM   H12G10561   5.446   2.948   4.758
  104OSM   C13F10562   5.232   2.977   4.806
  104OSM   H13F10563   5.245   3.075   4.857
  104OSM   H13G10564   5.160   2.902   4.843
  104OSM   C14F10565   5.179   3.000   4.660
  104OSM   H14F10566   5.176   2.905   4.601
  104OSM   H14G10567   5.256   3.055   4.601
  104OSM   C15F10568   5.039   3.062   4.659
  104OSM   H15F10569   4.979   3.001   4.730
  104OSM   H15G10570   5.003   3.059   4.554
  104OSM   C16F10571   5.043   3.217   4.690
  104OSM   H16F10572   5.139   3.257   4.653
  104OSM   H16G10573   5.053   3.222   4.801
  104OSM   C17F10574   4.926   3.304   4.640
  104OSM   H17F10575   4.828   3.260   4.668
  104OSM   H17G10576   4.930   3.312   4.529
  104OSM   C18F10577   4.946   3.445   4.696
  104OSM   H18F10578   4.969   3.435   4.804
  104OSM   H18G10579   4.857   3.509   4.678
  104OSM   H18H10580   5.032   3.488   4.639
  105OSM      N10581   6.019   4.108   6.561
  105OSM    C1510582   6.069   4.145   6.431
  105OSM   H15A10583   6.032   4.075   6.357
  105OSM   H15B10584   6.175   4.128   6.436
  105OSM   H15C10585   6.040   4.242   6.395
  105OSM    C1410586   6.050   3.966   6.596
  105OSM   H14A10587   5.974   3.910   6.543
  105OSM   H14B10588   6.030   3.934   6.697
  105OSM   H14C10589   6.146   3.934   6.558
  105OSM    C1310590   6.081   4.196   6.660
  105OSM   H13A10591   6.039   4.173   6.757
  105OSM   H13B10592   6.059   4.302   6.649
  105OSM   H13C10593   6.189   4.195   6.647
  105OSM    C1210594   5.868   4.137   6.572
  105OSM   H12A10595   5.856   4.244   6.564
  105OSM   H12B10596   5.834   4.102   6.668
  105OSM    C1110597   5.775   4.071   6.479
  105OSM   H11A10598   5.806   4.105   6.378
  105OSM   H11B10599   5.670   4.107   6.485
  105OSM      P10600   5.698   3.839   6.390
  105OSM    O1310601   5.711   3.698   6.428
  105OSM    O1410602   5.562   3.902   6.372
  105OSM    O1110603   5.771   3.862   6.250
  105OSM    O1210604   5.783   3.930   6.488
  105OSM    C1S10605   5.903   3.813   6.228
  105OSM    H1S10606   5.899   3.702   6.238
  105OSM    H1T10607   5.982   3.858   6.292
  105OSM     NF10608   6.065   3.769   6.038
  105OSM    HNF10609   6.155   3.813   6.032
  105OSM    C2S10610   5.950   3.854   6.082
  105OSM    H2S10611   5.858   3.848   6.019
  105OSM    C3S10612   5.979   4.012   6.079
  105OSM    H3S10613   6.073   4.037   6.133
  105OSM     O310614   5.875   4.096   6.127
  105OSM    HO310615   5.808   4.032   6.149
  105OSM    C4S10616   6.003   4.048   5.934
  105OSM    H4S10617   6.109   4.060   5.907
  105OSM    C5S10618   5.912   4.054   5.833
  105OSM    H5S10619   5.804   4.040   5.852
  105OSM    C6S10620   5.946   4.096   5.692
  105OSM    H6S10621   6.048   4.139   5.687
  105OSM    H6T10622   5.876   4.177   5.660
  105OSM    C7S10623   5.918   3.993   5.579
  105OSM    H7S10624   5.820   3.942   5.594
  105OSM    H7T10625   5.998   3.918   5.598
  105OSM    C8S10626   5.939   4.042   5.433
  105OSM    H8S10627   6.038   4.092   5.429
  105OSM    H8T10628   5.851   4.104   5.405
  105OSM    C9S10629   5.927   3.930   5.335
  105OSM    H9S10630   5.840   3.865   5.355
  105OSM    H9T10631   6.015   3.862   5.341
  105OSM   C10S10632   5.908   3.962   5.190
  105OSM   H10S10633   5.951   3.873   5.138
  105OSM   H10T10634   5.968   4.051   5.159
  105OSM   C11S10635   5.767   3.967   5.130
  105OSM   H11S10636   5.714   4.055   5.174
  105OSM   H11T10637   5.711   3.872   5.141
  105OSM   C12S10638   5.772   4.010   4.987
  105OSM   H12S10639   5.843   3.957   4.920
  105OSM   H12T10640   5.794   4.117   4.969
  105OSM   C13S10641   5.636   3.989   4.920
  105OSM   H13S10642   5.559   4.043   4.978
  105OSM   H13T10643   5.613   3.880   4.911
  105OSM   C14S10644   5.640   4.043   4.778
  105OSM   H14S10645   5.724   3.990   4.730
  105OSM   H14T10646   5.669   4.148   4.798
  105OSM   C15S10647   5.513   4.008   4.705
  105OSM   H15S10648   5.505   3.899   4.722
  105OSM   H15T10649   5.520   4.026   4.595
  105OSM   C16S10650   5.387   4.066   4.753
  105OSM   H16S10651   5.403   4.175   4.770
  105OSM   H16T10652   5.372   4.018   4.852
  105OSM   C17S10653   5.265   4.046   4.665
  105OSM   H17S10654   5.258   4.113   4.577
  105OSM   H17T10655   5.174   4.077   4.720
  105OSM   C18S10656   5.240   3.903   4.617
  105OSM   H18S10657   5.214   3.829   4.696
  105OSM   H18T10658   5.328   3.857   4.567
  105OSM   H18U10659   5.156   3.891   4.546
  105OSM    C1F10660   6.048   3.639   6.011
  105OSM     OF10661   5.933   3.597   5.996
  105OSM    C2F10662   6.172   3.547   5.986
  105OSM    H2F10663   6.188   3.488   6.079
  105OSM    H2G10664   6.254   3.622   5.983
  105OSM    C3F10665   6.171   3.466   5.858
  105OSM    H3F10666   6.087   3.394   5.864
  105OSM    H3G10667   6.263   3.406   5.846
  105OSM    C4F10668   6.173   3.560   5.734
  105OSM    H4F10669   6.265   3.618   5.714
  105OSM    H4G10670   6.083   3.625   5.738
  105OSM    C5F10671   6.160   3.476   5.602
  105OSM    H5F10672   6.065   3.420   5.611
  105OSM    H5G10673   6.247   3.408   5.597
  105OSM    C6F10674   6.141   3.566   5.477
  105OSM    H6F10675   6.232   3.629   5.468
  105OSM    H6G10676   6.062   3.641   5.497
  105OSM    C7F10677   6.106   3.480   5.355
  105OSM    H7F10678   6.023   3.412   5.383
  105OSM    H7G10679   6.196   3.417   5.337
  105OSM    C8F10680   6.062   3.566   5.237
  105OSM    H8F10681   6.143   3.643   5.237
  105OSM    H8G10682   5.966   3.618   5.257
  105OSM    C9F10683   6.030   3.493   5.107
  105OSM    H9F10684   5.947   3.421   5.111
  105OSM   C10F10685   6.081   3.518   4.982
  105OSM   H10F10686   6.058   3.445   4.903
  105OSM   C11F10687   6.209   3.592   4.968
  105OSM   H11F10688   6.270   3.570   5.059
  105OSM   H11G10689   6.203   3.702   4.963
  105OSM   C12F10690   6.276   3.549   4.840
  105OSM   H12F10691   6.254   3.441   4.829
  105OSM   H12G10692   6.386   3.559   4.858
  105OSM   C13F10693   6.238   3.612   4.701
  105OSM   H13F10694   6.227   3.722   4.711
  105OSM   H13G10695   6.139   3.571   4.672
  105OSM   C14F10696   6.341   3.581   4.588
  105OSM   H14F10697   6.360   3.472   4.586
  105OSM   H14G10698   6.436   3.636   4.603
  105OSM   C15F10699   6.282   3.626   4.452
  105OSM   H15F10700   6.211   3.709   4.474
  105OSM   H15G10701   6.208   3.554   4.411
  105OSM   C16F10702   6.381   3.662   4.336
  105OSM   H16F10703   6.431   3.566   4.311
  105OSM   H16G10704   6.456   3.731   4.380
  105OSM   C17F10705   6.311   3.727   4.222
  105OSM   H17F10706   6.249   3.813   4.255
  105OSM   H17G10707   6.231   3.663   4.179
  105OSM   C18F10708   6.403   3.758   4.105
  105OSM   H18F10709   6.340   3.770   4.015
  105OSM   H18G10710   6.468   3.670   4.085
  105OSM   H18H10711   6.458   3.852   4.125
  106OSM      N10712   4.355   1.478   7.068
  106OSM    C1510713   4.323   1.390   7.180
  106OSM   H15A10714   4.379   1.408   7.271
  106OSM   H15B10715   4.346   1.285   7.171
  106OSM   H15C10716   4.216   1.398   7.187
  106OSM    C1410717   4.338   1.619   7.116
  106OSM   H14A10718   4.331   1.682   7.028
  106OSM   H14B10719   4.407   1.653   7.192
  106OSM   H14C10720   4.246   1.619   7.172
  106OSM    C1310721   4.498   1.459   7.028
  106OSM   H13A10722   4.520   1.359   6.991
  106OSM   H13B10723   4.562   1.482   7.112
  106OSM   H13C10724   4.531   1.521   6.946
  106OSM    C1210725   4.265   1.459   6.945
  106OSM   H12A10726   4.161   1.475   6.969
  106OSM   H12B10727   4.270   1.355   6.918
  106OSM    C1110728   4.292   1.540   6.821
  106OSM   H11A10729   4.297   1.651   6.827
  106OSM   H11B10730   4.197   1.530   6.764
  106OSM      P10731   4.392   1.361   6.670
  106OSM    O1310732   4.529   1.306   6.652
  106OSM    O1410733   4.294   1.270   6.730
  106OSM    O1110734   4.339   1.412   6.525
  106OSM    O1210735   4.410   1.493   6.753
  106OSM    C1S10736   4.413   1.523   6.474
  106OSM    H1S10737   4.523   1.514   6.485
  106OSM    H1T10738   4.390   1.617   6.529
  106OSM     NF10739   4.489   1.624   6.256
  106OSM    HNF10740   4.459   1.710   6.214
  106OSM    C2S10741   4.388   1.540   6.316
  106OSM    H2S10742   4.407   1.438   6.276
  106OSM    C3S10743   4.240   1.585   6.282
  106OSM    H3S10744   4.231   1.692   6.313
  106OSM     O310745   4.150   1.508   6.359
  106OSM    HO310746   4.201   1.448   6.413
  106OSM    C4S10747   4.215   1.562   6.138
  106OSM    H4S10748   4.184   1.459   6.114
  106OSM    C5S10749   4.201   1.651   6.037
  106OSM    H5S10750   4.220   1.759   6.051
  106OSM    C6S10751   4.150   1.616   5.903
  106OSM    H6S10752   4.095   1.703   5.861
  106OSM    H6T10753   4.072   1.538   5.911
  106OSM    C7S10754   4.263   1.584   5.809
  106OSM    H7S10755   4.319   1.502   5.859
  106OSM    H7T10756   4.335   1.666   5.788
  106OSM    C8S10757   4.188   1.552   5.677
  106OSM    H8S10758   4.090   1.501   5.690
  106OSM    H8T10759   4.257   1.487   5.618
  106OSM    C9S10760   4.176   1.673   5.586
  106OSM    H9S10761   4.272   1.729   5.586
  106OSM    H9T10762   4.089   1.726   5.630
  106OSM   C10S10763   4.160   1.630   5.443
  106OSM   H10S10764   4.067   1.570   5.441
  106OSM   H10T10765   4.227   1.550   5.405
  106OSM   C11S10766   4.173   1.748   5.336
  106OSM   H11S10767   4.280   1.776   5.341
  106OSM   H11T10768   4.106   1.827   5.376
  106OSM   C12S10769   4.123   1.710   5.198
  106OSM   H12S10770   4.152   1.793   5.130
  106OSM   H12T10771   4.012   1.705   5.203
  106OSM   C13S10772   4.174   1.580   5.137
  106OSM   H13S10773   4.121   1.504   5.198
  106OSM   H13T10774   4.280   1.557   5.161
  106OSM   C14S10775   4.143   1.558   4.989
  106OSM   H14S10776   4.174   1.459   4.949
  106OSM   H14T10777   4.197   1.636   4.931
  106OSM   C15S10778   3.989   1.567   4.960
  106OSM   H15S10779   3.944   1.664   4.988
  106OSM   H15T10780   3.944   1.488   5.023
  106OSM   C16S10781   3.946   1.522   4.820
  106OSM   H16S10782   3.838   1.537   4.804
  106OSM   H16T10783   3.969   1.413   4.814
  106OSM   C17S10784   4.030   1.590   4.710
  106OSM   H17S10785   4.135   1.561   4.729
  106OSM   H17T10786   4.018   1.699   4.724
  106OSM   C18S10787   3.993   1.574   4.562
  106OSM   H18S10788   4.070   1.627   4.502
  106OSM   H18T10789   3.899   1.632   4.547
  106OSM   H18U10790   3.976   1.471   4.524
  106OSM    C1F10791   4.619   1.584   6.257
  106OSM     OF10792   4.648   1.472   6.299
  106OSM    C2F10793   4.718   1.691   6.222
  106OSM    H2F10794   4.759   1.734   6.315
  106OSM    H2G10795   4.667   1.768   6.159
  106OSM    C3F10796   4.845   1.664   6.136
  106OSM    H3F10797   4.909   1.607   6.206
  106OSM    H3G10798   4.894   1.759   6.107
  106OSM    C4F10799   4.818   1.579   6.016
  106OSM    H4F10800   4.772   1.482   6.046
  106OSM    H4G10801   4.918   1.556   5.973
  106OSM    C5F10802   4.726   1.648   5.912
  106OSM    H5F10803   4.758   1.752   5.890
  106OSM    H5G10804   4.623   1.668   5.951
  106OSM    C6F10805   4.711   1.570   5.783
  106OSM    H6F10806   4.692   1.463   5.806
  106OSM    H6G10807   4.810   1.579   5.734
  106OSM    C7F10808   4.620   1.625   5.682
  106OSM    H7F10809   4.639   1.734   5.673
  106OSM    H7G10810   4.514   1.625   5.715
  106OSM    C8F10811   4.649   1.557   5.541
  106OSM    H8F10812   4.617   1.452   5.562
  106OSM    H8G10813   4.754   1.572   5.508
  106OSM    C9F10814   4.543   1.604   5.440
  106OSM    H9F10815   4.452   1.641   5.490
  106OSM   C10F10816   4.551   1.624   5.310
  106OSM   H10F10817   4.467   1.670   5.256
  106OSM   C11F10818   4.676   1.578   5.240
  106OSM   H11F10819   4.692   1.469   5.258
  106OSM   H11G10820   4.763   1.640   5.267
  106OSM   C12F10821   4.658   1.602   5.088
  106OSM   H12F10822   4.561   1.555   5.061
  106OSM   H12G10823   4.733   1.548   5.028
  106OSM   C13F10824   4.667   1.748   5.051
  106OSM   H13F10825   4.745   1.797   5.114
  106OSM   H13G10826   4.571   1.793   5.086
  106OSM   C14F10827   4.697   1.785   4.904
  106OSM   H14F10828   4.793   1.735   4.880
  106OSM   H14G10829   4.715   1.894   4.900
  106OSM   C15F10830   4.582   1.747   4.806
  106OSM   H15F10831   4.561   1.639   4.816
  106OSM   H15G10832   4.615   1.772   4.702
  106OSM   C16F10833   4.460   1.843   4.825
  106OSM   H16F10834   4.501   1.943   4.799
  106OSM   H16G10835   4.432   1.828   4.932
  106OSM   C17F10836   4.346   1.814   4.728
  106OSM   H17F10837   4.308   1.712   4.747
  106OSM   H17G10838   4.400   1.804   4.631
  106OSM   C18F10839   4.228   1.909   4.749
  106OSM   H18F10840   4.161   1.903   4.660
  106OSM   H18G10841   4.261   2.014   4.755
  106OSM   H18H10842   4.186   1.880   4.848
  107OSM      N10843   3.666   6.574   6.854
  107OSM    C1510844   3.723   6.546   6.987
  107OSM   H15A10845   3.681   6.618   7.056
  107OSM   H15B10846   3.829   6.558   6.997
  107OSM   H15C10847   3.704   6.445   7.021
  107OSM    C1410848   3.515   6.558   6.856
  107OSM   H14A10849   3.472   6.617   6.936
  107OSM   H14B10850   3.485   6.459   6.885
  107OSM   H14C10851   3.484   6.585   6.756
  107OSM    C1310852   3.696   6.722   6.827
  107OSM   H13A10853   3.802   6.742   6.817
  107OSM   H13B10854   3.662   6.782   6.911
  107OSM   H13C10855   3.644   6.756   6.739
  107OSM    C1210856   3.735   6.492   6.742
  107OSM   H12A10857   3.694   6.392   6.753
  107OSM   H12B10858   3.840   6.493   6.763
  107OSM    C1110859   3.698   6.535   6.601
  107OSM   H11A10860   3.662   6.639   6.584
  107OSM   H11B10861   3.605   6.478   6.577
  107OSM      P10862   3.871   6.604   6.417
  107OSM    O1310863   3.780   6.719   6.406
  107OSM    O1410864   4.013   6.636   6.461
  107OSM    O1110865   3.875   6.547   6.266
  107OSM    O1210866   3.806   6.496   6.510
  107OSM    C1S10867   3.753   6.502   6.206
  107OSM    H1S10868   3.671   6.565   6.248
  107OSM    H1T10869   3.733   6.395   6.229
  107OSM     NF10870   3.631   6.478   5.989
  107OSM    HNF10871   3.626   6.385   5.953
  107OSM    C2S10872   3.758   6.513   6.048
  107OSM    H2S10873   3.785   6.617   6.020
  107OSM    C3S10874   3.872   6.422   5.995
  107OSM    H3S10875   3.839   6.316   6.003
  107OSM     O310876   3.997   6.435   6.064
  107OSM    HO310877   3.970   6.494   6.134
  107OSM    C4S10878   3.897   6.439   5.846
  107OSM    H4S10879   3.889   6.350   5.781
  107OSM    C5S10880   3.934   6.560   5.787
  107OSM    H5S10881   3.947   6.643   5.858
  107OSM    C6S10882   3.969   6.584   5.645
  107OSM    H6S10883   4.053   6.657   5.637
  107OSM    H6T10884   3.884   6.631   5.591
  107OSM    C7S10885   4.031   6.469   5.562
  107OSM    H7S10886   3.948   6.399   5.541
  107OSM    H7T10887   4.118   6.431   5.620
  107OSM    C8S10888   4.092   6.526   5.436
  107OSM    H8S10889   4.169   6.603   5.456
  107OSM    H8T10890   4.008   6.585   5.395
  107OSM    C9S10891   4.135   6.423   5.335
  107OSM    H9S10892   4.048   6.365   5.299
  107OSM    H9T10893   4.218   6.359   5.373
  107OSM   C10S10894   4.169   6.491   5.202
  107OSM   H10S10895   4.188   6.413   5.125
  107OSM   H10T10896   4.265   6.547   5.212
  107OSM   C11S10897   4.069   6.594   5.155
  107OSM   H11S10898   4.056   6.684   5.218
  107OSM   H11T10899   3.967   6.551   5.142
  107OSM   C12S10900   4.106   6.656   5.022
  107OSM   H12S10901   4.155   6.579   4.960
  107OSM   H12T10902   4.183   6.736   5.037
  107OSM   C13S10903   3.978   6.705   4.940
  107OSM   H13S10904   3.922   6.782   4.996
  107OSM   H13T10905   3.917   6.613   4.925
  107OSM   C14S10906   4.021   6.781   4.815
  107OSM   H14S10907   4.107   6.735   4.761
  107OSM   H14T10908   4.059   0.043   4.845
  107OSM   C15S10909   3.910   6.816   4.709
  107OSM   H15S10910   3.824   0.019   4.766
  107OSM   H15T10911   3.875   6.720   4.665
  107OSM   C16S10912   3.939   0.082   4.603
  107OSM   H16S10913   4.040   0.064   4.561
  107OSM   H16T10914   3.943   0.182   4.652
  107OSM   C17S10915   3.836   0.092   4.491
  107OSM   H17S10916   3.730   0.102   4.524
  107OSM   H17T10917   3.827   0.003   4.424
  107OSM   C18S10918   3.867   0.209   4.400
  107OSM   H18S10919   3.964   0.198   4.348
  107OSM   H18T10920   3.867   0.306   4.455
  107OSM   H18U10921   3.793   0.226   4.319
  107OSM    C1F10922   3.520   6.542   5.991
  107OSM     OF10923   3.510   6.649   6.056
  107OSM    C2F10924   3.410   6.493   5.910
  107OSM    H2F10925   3.320   6.545   5.949
  107OSM    H2G10926   3.383   6.389   5.938
  107OSM    C3F10927   3.426   6.504   5.756
  107OSM    H3F10928   3.324   6.498   5.713
  107OSM    H3G10929   3.480   6.417   5.713
  107OSM    C4F10930   3.495   6.633   5.707
  107OSM    H4F10931   3.593   6.649   5.757
  107OSM    H4G10932   3.421   6.712   5.730
  107OSM    C5F10933   3.508   6.644   5.552
  107OSM    H5F10934   3.568   6.736   5.533
  107OSM    H5G10935   3.410   6.677   5.511
  107OSM    C6F10936   3.563   6.518   5.484
  107OSM    H6F10937   3.488   6.438   5.500
  107OSM    H6G10938   3.654   6.494   5.544
  107OSM    C7F10939   3.591   6.541   5.334
  107OSM    H7F10940   3.651   6.634   5.325
  107OSM    H7G10941   3.501   6.568   5.275
  107OSM    C8F10942   3.660   6.424   5.262
  107OSM    H8F10943   3.763   6.419   5.303
  107OSM    H8G10944   3.680   6.454   5.156
  107OSM    C9F10945   3.604   6.287   5.298
  107OSM    H9F10946   3.646   6.250   5.393
  107OSM   C10F10947   3.529   6.215   5.220
  107OSM   H10F10948   3.486   6.123   5.262
  107OSM   C11F10949   3.466   6.270   5.094
  107OSM   H11F10950   3.536   6.281   5.008
  107OSM   H11G10951   3.440   6.376   5.115
  107OSM   C12F10952   3.339   6.197   5.057
  107OSM   H12F10953   3.275   6.192   5.148
  107OSM   H12G10954   3.364   6.092   5.034
  107OSM   C13F10955   3.273   6.268   4.937
  107OSM   H13F10956   3.352   6.271   4.859
  107OSM   H13G10957   3.236   6.371   4.958
  107OSM   C14F10958   3.152   6.177   4.894
  107OSM   H14F10959   3.097   6.162   4.989
  107OSM   H14G10960   3.177   6.080   4.846
  107OSM   C15F10961   3.056   6.259   4.797
  107OSM   H15F10962   3.116   6.291   4.710
  107OSM   H15G10963   3.010   6.347   4.848
  107OSM   C16F10964   2.952   6.168   4.740
  107OSM   H16F10965   2.920   6.092   4.815
  107OSM   H16G10966   2.994   6.100   4.663
  107OSM   C17F10967   2.827   6.232   4.663
  107OSM   H17F10968   2.873   6.289   4.579
  107OSM   H17G10969   2.787   6.306   4.736
  107OSM   C18F10970   2.721   6.131   4.619
  107OSM   H18F10971   2.639   6.180   4.563
  107OSM   H18G10972   2.684   6.082   4.712
  107OSM   H18H10973   2.777   6.056   4.560
  108OSM      N10974   6.696   6.248   6.862
  108OSM    C1510975   6.787   6.313   6.956
  108OSM   H15A10976   6.740   6.309   7.054
  108OSM   H15B10977   6.813   6.414   6.925
  108OSM   H15C10978   0.046   6.266   6.959
  108OSM    C1410979   6.564   6.328   6.859
  108OSM   H14A10980   6.486   6.289   6.796
  108OSM   H14B10981   6.589   6.428   6.827
  108OSM   H14C10982   6.519   6.349   6.955
  108OSM    C1310983   6.763   6.257   6.725
  108OSM   H13A10984   0.029   6.232   6.729
  108OSM   H13B10985   6.757   6.357   6.685
  108OSM   H13C10986   6.714   6.188   6.658
  108OSM    C1210987   6.676   6.108   6.908
  108OSM   H12A10988   6.631   6.114   7.006
  108OSM   H12B10989   6.769   6.055   6.919
  108OSM    C1110990   6.578   6.024   6.827
  108OSM   H11A10991   6.483   6.081   6.824
  108OSM   H11B10992   6.563   5.930   6.885
  108OSM      P10993   6.726   5.875   6.676
  108OSM    O1310994   0.031   5.911   6.702
  108OSM    O1410995   6.672   5.754   6.737
  108OSM    O1110996   6.723   5.844   6.519
  108OSM    O1210997   6.626   6.000   6.694
  108OSM    C1S10998   6.669   5.937   6.426
  108OSM    H1S10999   6.733   6.028   6.429
  108OSM    H1T11000   6.564   5.969   6.445
  108OSM     NF11001   6.656   5.968   6.183
  108OSM    HNF11002   6.579   5.955   6.121
  108OSM    C2S11003   6.679   5.870   6.290
  108OSM    H2S11004   6.780   5.825   6.276
  108OSM    C3S11005   6.583   5.756   6.281
  108OSM    H3S11006   6.483   5.803   6.273
  108OSM     O311007   6.579   5.674   6.396
  108OSM    HO311008   6.635   5.719   6.460
  108OSM    C4S11009   6.602   5.674   6.152
  108OSM    H4S11010   6.521   5.691   6.079
  108OSM    C5S11011   6.698   5.576   6.133
  108OSM    H5S11012   6.761   5.550   6.219
  108OSM    C6S11013   6.701   5.486   6.011
  108OSM    H6S11014   6.767   5.399   6.035
  108OSM    H6T11015   6.748   5.542   5.928
  108OSM    C7S11016   6.567   5.427   5.946
  108OSM    H7S11017   6.498   5.510   5.919
  108OSM    H7T11018   6.519   5.360   6.020
  108OSM    C8S11019   6.592   5.348   5.814
  108OSM    H8S11020   6.490   5.317   5.784
  108OSM    H8T11021   6.661   5.267   5.847
  108OSM    C9S11022   6.635   5.423   5.691
  108OSM    H9S11023   6.728   5.483   5.706
  108OSM    H9T11024   6.554   5.496   5.671
  108OSM   C10S11025   6.651   5.345   5.558
  108OSM   H10S11026   6.588   5.255   5.544
  108OSM   H10T11027   6.751   5.297   5.552
  108OSM   C11S11028   6.647   5.440   5.439
  108OSM   H11S11029   6.740   5.502   5.436
  108OSM   H11T11030   6.555   5.502   5.440
  108OSM   C12S11031   6.637   5.378   5.299
  108OSM   H12S11032   6.546   5.315   5.299
  108OSM   H12T11033   6.721   5.308   5.278
  108OSM   C13S11034   6.627   5.481   5.189
  108OSM   H13S11035   6.708   5.554   5.210
  108OSM   H13T11036   6.524   5.522   5.196
  108OSM   C14S11037   6.669   5.423   5.046
  108OSM   H14S11038   6.762   5.367   5.069
  108OSM   H14T11039   6.684   5.502   4.968
  108OSM   C15S11040   6.567   5.314   4.992
  108OSM   H15S11041   6.472   5.366   4.966
  108OSM   H15T11042   6.557   5.237   5.071
  108OSM   C16S11043   6.620   5.253   4.866
  108OSM   H16S11044   6.579   5.150   4.857
  108OSM   H16T11045   6.730   5.242   4.868
  108OSM   C17S11046   6.582   5.324   4.736
  108OSM   H17S11047   6.640   5.418   4.743
  108OSM   H17T11048   6.473   5.346   4.733
  108OSM   C18S11049   6.640   5.253   4.612
  108OSM   H18S11050   6.622   5.315   4.521
  108OSM   H18T11051   6.588   5.157   4.596
  108OSM   H18U11052   6.749   5.237   4.626
  108OSM    C1F11053   6.750   6.067   6.156
  108OSM     OF11054   0.027   6.069   6.214
  108OSM    C2F11055   6.696   6.185   6.079
  108OSM    H2F11056   6.728   6.280   6.128
  108OSM    H2G11057   6.585   6.179   6.078
  108OSM    C3F11058   6.741   6.190   5.931
  108OSM    H3F11059   6.697   6.108   5.871
  108OSM    H3G11060   0.013   6.182   5.924
  108OSM    C4F11061   6.713   6.328   5.873
  108OSM    H4F11062   6.743   6.405   5.947
  108OSM    H4G11063   6.607   6.350   5.848
  108OSM    C5F11064   6.788   6.343   5.740
  108OSM    H5F11065   0.052   6.301   5.742
  108OSM    H5G11066   6.810   6.451   5.722
  108OSM    C6F11067   6.715   6.273   5.626
  108OSM    H6F11068   6.692   6.173   5.668
  108OSM    H6G11069   6.779   6.260   5.536
  108OSM    C7F11070   6.577   6.349   5.591
  108OSM    H7F11071   6.589   6.447   5.642
  108OSM    H7G11072   6.496   6.290   5.639
  108OSM    C8F11073   6.558   6.369   5.440
  108OSM    H8F11074   6.473   6.439   5.425
  108OSM    H8G11075   6.527   6.269   5.400
  108OSM    C9F11076   6.667   6.436   5.360
  108OSM    H9F11077   6.703   6.532   5.401
  108OSM   C10F11078   6.709   6.409   5.236
  108OSM   H10F11079   6.789   6.473   5.196
  108OSM   C11F11080   6.688   6.281   5.159
  108OSM   H11F11081   6.613   6.209   5.198
  108OSM   H11G11082   6.787   6.231   5.158
  108OSM   C12F11083   6.634   6.322   5.021
  108OSM   H12F11084   6.534   6.368   5.035
  108OSM   H12G11085   6.614   6.225   4.970
  108OSM   C13F11086   6.733   6.399   4.931
  108OSM   H13F11087   6.829   6.343   4.925
  108OSM   H13G11088   6.752   6.501   4.969
  108OSM   C14F11089   6.688   6.406   4.786
  108OSM   H14F11090   6.581   6.433   4.775
  108OSM   H14G11091   6.702   6.304   4.745
  108OSM   C15F11092   6.757   6.505   4.693
  108OSM   H15F11093   0.030   6.494   4.697
  108OSM   H15G11094   6.751   6.604   4.744
  108OSM   C16F11095   6.707   6.505   4.551
  108OSM   H16F11096   6.733   6.601   4.501
  108OSM   H16G11097   6.596   6.497   4.548
  108OSM   C17F11098   6.767   6.387   4.472
  108OSM   H17F11099   6.734   6.403   4.367
  108OSM   H17G11100   6.750   6.286   4.515
  108OSM   C18F11101   0.084   6.394   4.455
  108OSM   H18F11102   0.123   6.494   4.427
  108OSM   H18G11103   0.110   6.336   4.364
  108OSM   H18H11104   0.140   6.358   4.544
  109OSM      N11105   2.596   2.474   7.097
  109OSM    C1511106   2.718   2.514   7.168
  109OSM   H15A11107   2.720   2.489   7.272
  109OSM   H15B11108   2.746   2.618   7.154
  109OSM   H15C11109   2.807   2.471   7.125
  109OSM    C1411110   2.583   2.324   7.096
  109OSM   H14A11111   2.620   2.276   7.185
  109OSM   H14B11112   2.645   2.292   7.014
  109OSM   H14C11113   2.477   2.312   7.077
  109OSM    C1311114   2.474   2.512   7.180
  109OSM   H13A11115   2.467   2.445   7.264
  109OSM   H13B11116   2.387   2.514   7.116
  109OSM   H13C11117   2.484   2.617   7.205
  109OSM    C1211118   2.604   2.519   6.952
  109OSM   H12A11119   2.571   2.621   6.951
  109OSM   H12B11120   2.530   2.465   6.894
  109OSM    C1111121   2.744   2.515   6.886
  109OSM   H11A11122   2.829   2.574   6.927
  109OSM   H11B11123   2.725   2.564   6.787
  109OSM      P11124   2.940   2.327   6.905
  109OSM    O1311125   2.973   2.387   7.036
  109OSM    O1411126   2.940   2.183   6.899
  109OSM    O1111127   3.035   2.386   6.792
  109OSM    O1211128   2.798   2.382   6.864
  109OSM    C1S11129   3.070   2.285   6.697
  109OSM    H1S11130   2.981   2.225   6.671
  109OSM    H1T11131   3.154   2.218   6.726
  109OSM     NF11132   3.086   2.252   6.445
  109OSM    HNF11133   3.171   2.222   6.403
  109OSM    C2S11134   3.110   2.349   6.557
  109OSM    H2S11135   3.044   2.438   6.543
  109OSM    C3S11136   3.249   2.408   6.572
  109OSM    H3S11137   3.312   2.316   6.568
  109OSM     O311138   3.271   2.469   6.699
  109OSM    HO311139   3.195   2.434   6.745
  109OSM    C4S11140   3.298   2.495   6.452
  109OSM    H4S11141   3.365   2.440   6.384
  109OSM    C5S11142   3.279   2.629   6.427
  109OSM    H5S11143   3.218   2.697   6.489
  109OSM    C6S11144   3.349   2.695   6.307
  109OSM    H6S11145   3.446   2.741   6.335
  109OSM    H6T11146   3.286   2.775   6.264
  109OSM    C7S11147   3.382   2.606   6.183
  109OSM    H7S11148   3.457   2.527   6.203
  109OSM    H7T11149   3.424   2.676   6.108
  109OSM    C8S11150   3.253   2.541   6.128
  109OSM    H8S11151   3.171   2.615   6.124
  109OSM    H8T11152   3.212   2.459   6.191
  109OSM    C9S11153   3.257   2.468   5.990
  109OSM    H9S11154   3.307   2.369   5.996
  109OSM    H9T11155   3.306   2.528   5.909
  109OSM   C10S11156   3.110   2.442   5.940
  109OSM   H10S11157   3.053   2.536   5.958
  109OSM   H10T11158   3.072   2.369   6.015
  109OSM   C11S11159   3.094   2.390   5.801
  109OSM   H11S11160   2.984   2.387   5.789
  109OSM   H11T11161   3.150   2.294   5.793
  109OSM   C12S11162   3.158   2.486   5.698
  109OSM   H12S11163   3.263   2.510   5.727
  109OSM   H12T11164   3.107   2.585   5.696
  109OSM   C13S11165   3.179   2.436   5.549
  109OSM   H13S11166   3.201   2.327   5.551
  109OSM   H13T11167   3.261   2.501   5.510
  109OSM   C14S11168   3.055   2.454   5.461
  109OSM   H14S11169   3.016   2.558   5.458
  109OSM   H14T11170   2.986   2.384   5.513
  109OSM   C15S11171   3.085   2.379   5.325
  109OSM   H15S11172   3.091   2.270   5.341
  109OSM   H15T11173   3.182   2.420   5.289
  109OSM   C16S11174   2.976   2.406   5.229
  109OSM   H16S11175   2.962   2.516   5.220
  109OSM   H16T11176   2.881   2.365   5.268
  109OSM   C17S11177   3.014   2.358   5.091
  109OSM   H17S11178   3.042   2.254   5.119
  109OSM   H17T11179   3.100   2.416   5.052
  109OSM   C18S11180   2.905   2.352   4.983
  109OSM   H18S11181   2.811   2.308   5.023
  109OSM   H18T11182   2.945   2.288   4.902
  109OSM   H18U11183   2.871   2.449   4.939
  109OSM    C1F11184   2.967   2.227   6.396
  109OSM     OF11185   2.872   2.274   6.457
  109OSM    C2F11186   2.950   2.141   6.269
  109OSM    H2F11187   2.929   2.040   6.310
  109OSM    H2G11188   3.054   2.133   6.231
  109OSM    C3F11189   2.847   2.195   6.170
  109OSM    H3F11190   2.875   2.298   6.138
  109OSM    H3G11191   2.744   2.187   6.210
  109OSM    C4F11192   2.855   2.128   6.037
  109OSM    H4F11193   2.849   2.017   6.049
  109OSM    H4G11194   2.952   2.144   5.985
  109OSM    C5F11195   2.737   2.176   5.951
  109OSM    H5F11196   2.772   2.273   5.910
  109OSM    H5G11197   2.642   2.195   6.005
  109OSM    C6F11198   2.701   2.086   5.831
  109OSM    H6F11199   2.677   1.982   5.863
  109OSM    H6G11200   2.793   2.080   5.770
  109OSM    C7F11201   2.588   2.135   5.736
  109OSM    H7F11202   2.600   2.246   5.736
  109OSM    H7G11203   2.491   2.104   5.781
  109OSM    C8F11204   2.583   2.072   5.600
  109OSM    H8F11205   2.534   1.973   5.594
  109OSM    H8G11206   2.688   2.061   5.568
  109OSM    C9F11207   2.500   2.168   5.511
  109OSM    H9F11208   2.437   2.238   5.567
  109OSM   C10F11209   2.500   2.169   5.376
  109OSM   H10F11210   2.424   2.229   5.324
  109OSM   C11F11211   2.575   2.076   5.290
  109OSM   H11F11212   2.510   1.995   5.249
  109OSM   H11G11213   2.664   2.038   5.344
  109OSM   C12F11214   2.631   2.151   5.167
  109OSM   H12F11215   2.709   2.087   5.121
  109OSM   H12G11216   2.682   2.244   5.203
  109OSM   C13F11217   2.525   2.191   5.061
  109OSM   H13F11218   2.566   2.288   5.025
  109OSM   H13G11219   2.423   2.212   5.099
  109OSM   C14F11220   2.523   2.101   4.938
  109OSM   H14F11221   2.424   2.109   4.889
  109OSM   H14G11222   2.525   1.997   4.977
  109OSM   C15F11223   2.633   2.117   4.838
  109OSM   H15F11224   2.727   2.076   4.880
  109OSM   H15G11225   2.655   2.224   4.817
  109OSM   C16F11226   2.607   2.042   4.702
  109OSM   H16F11227   2.512   2.082   4.660
  109OSM   H16G11228   2.617   1.932   4.709
  109OSM   C17F11229   2.725   2.070   4.606
  109OSM   H17F11230   2.818   2.050   4.664
  109OSM   H17G11231   2.722   2.181   4.602
  109OSM   C18F11232   2.723   1.993   4.472
  109OSM   H18F11233   2.748   1.890   4.503
  109OSM   H18G11234   2.797   2.029   4.398
  109OSM   H18H11235   2.624   1.997   4.421
  110OSM      N11236   5.679   6.286   6.605
  110OSM    C1511237   5.739   6.253   6.742
  110OSM   H15A11238   5.736   6.343   6.801
  110OSM   H15B11239   5.842   6.224   6.729
  110OSM   H15C11240   5.684   6.178   6.797
  110OSM    C1411241   5.700   6.160   6.527
  110OSM   H14A11242   5.660   6.167   6.428
  110OSM   H14B11243   5.664   6.076   6.585
  110OSM   H14C11244   5.805   6.135   6.515
  110OSM    C1311245   5.534   6.312   6.616
  110OSM   H13A11246   5.485   6.328   6.521
  110OSM   H13B11247   5.500   6.379   6.693
  110OSM   H13C11248   5.491   6.221   6.655
  110OSM    C1211249   5.740   6.404   6.536
  110OSM   H12A11250   5.700   6.402   6.436
  110OSM   H12B11251   5.847   6.396   6.524
  110OSM    C1111252   5.714   6.540   6.602
  110OSM   H11A11253   5.689   6.512   6.706
  110OSM   H11B11254   5.625   6.593   6.564
  110OSM      P11255   5.897   6.690   6.503
  110OSM    O1311256   5.890   6.828   6.548
  110OSM    O1411257   6.029   6.638   6.469
  110OSM    O1111258   5.798   6.682   6.377
  110OSM    O1211259   5.828   6.610   6.608
  110OSM    C1S11260   5.808   6.794   6.280
  110OSM    H1S11261   5.913   6.793   6.243
  110OSM    H1T11262   5.788   0.054   6.327
  110OSM     NF11263   5.758   0.032   6.048
  110OSM    HNF11264   5.708   0.118   6.046
  110OSM    C2S11265   5.724   6.771   6.156
  110OSM    H2S11266   5.751   6.667   6.128
  110OSM    C3S11267   5.572   6.760   6.191
  110OSM    H3S11268   5.537   0.022   6.223
  110OSM     O311269   5.542   6.672   6.296
  110OSM    HO311270   5.626   6.666   6.343
  110OSM    C4S11271   5.496   6.732   6.065
  110OSM    H4S11272   5.470   6.828   6.018
  110OSM    C5S11273   5.459   6.610   6.016
  110OSM    H5S11274   5.466   6.516   6.074
  110OSM    C6S11275   5.383   6.597   5.885
  110OSM    H6S11276   5.334   6.692   5.857
  110OSM    H6T11277   5.312   6.511   5.880
  110OSM    C7S11278   5.494   6.574   5.779
  110OSM    H7S11279   5.561   6.486   5.787
  110OSM    H7T11280   5.561   6.663   5.776
  110OSM    C8S11281   5.432   6.559   5.641
  110OSM    H8S11282   5.363   6.645   5.626
  110OSM    H8T11283   5.370   6.467   5.642
  110OSM    C9S11284   5.528   6.547   5.526
  110OSM    H9S11285   5.599   6.461   5.523
  110OSM    H9T11286   5.577   6.646   5.526
  110OSM   C10S11287   5.461   6.529   5.390
  110OSM   H10S11288   5.374   6.598   5.396
  110OSM   H10T11289   5.425   6.424   5.380
  110OSM   C11S11290   5.524   6.569   5.260
  110OSM   H11S11291   5.627   6.530   5.245
  110OSM   H11T11292   5.538   6.679   5.253
  110OSM   C12S11293   5.440   6.515   5.136
  110OSM   H12S11294   5.332   6.535   5.154
  110OSM   H12T11295   5.459   6.406   5.137
  110OSM   C13S11296   5.494   6.576   5.000
  110OSM   H13S11297   5.597   6.537   4.984
  110OSM   H13T11298   5.488   6.686   4.994
  110OSM   C14S11299   5.405   6.516   4.887
  110OSM   H14S11300   5.298   6.534   4.914
  110OSM   H14T11301   5.434   6.409   4.882
  110OSM   C15S11302   5.450   6.586   4.760
  110OSM   H15S11303   5.560   6.600   4.770
  110OSM   H15T11304   5.408   6.687   4.742
  110OSM   C16S11305   5.434   6.491   4.636
  110OSM   H16S11306   5.329   6.493   4.600
  110OSM   H16T11307   5.453   6.383   4.650
  110OSM   C17S11308   5.510   6.538   4.516
  110OSM   H17S11309   5.510   6.649   4.517
  110OSM   H17T11310   5.452   6.513   4.426
  110OSM   C18S11311   5.659   6.487   4.483
  110OSM   H18S11312   5.699   6.440   4.575
  110OSM   H18T11313   5.714   6.581   4.463
  110OSM   H18U11314   5.651   6.409   4.404
  110OSM    C1F11315   5.869   0.017   5.974
  110OSM     OF11316   5.939   6.754   5.995
  110OSM    C2F11317   5.902   0.126   5.880
  110OSM    H2F11318   5.990   0.189   5.907
  110OSM    H2G11319   5.817   0.197   5.874
  110OSM    C3F11320   5.932   0.073   5.742
  110OSM    H3F11321   6.022   0.009   5.753
  110OSM    H3G11322   5.965   0.158   5.679
  110OSM    C4F11323   5.813   0.011   5.672
  110OSM    H4F11324   5.719   0.066   5.697
  110OSM    H4G11325   5.813   6.744   5.705
  110OSM    C5F11326   5.825   0.014   5.514
  110OSM    H5F11327   5.782   6.754   5.483
  110OSM    H5G11328   5.930   0.018   5.480
  110OSM    C6F11329   5.753   0.128   5.438
  110OSM    H6F11330   5.759   0.224   5.493
  110OSM    H6G11331   5.646   0.098   5.438
  110OSM    C7F11332   5.798   0.151   5.294
  110OSM    H7F11333   5.782   0.066   5.225
  110OSM    H7G11334   5.905   0.181   5.291
  110OSM    C8F11335   5.729   0.277   5.234
  110OSM    H8F11336   5.734   0.362   5.305
  110OSM    H8G11337   5.625   0.239   5.240
  110OSM    C9F11338   5.778   0.315   5.099
  110OSM    H9F11339   5.886   0.338   5.099
  110OSM   C10F11340   5.706   0.331   4.988
  110OSM   H10F11341   5.756   0.345   4.892
  110OSM   C11F11342   5.553   0.304   4.977
  110OSM   H11F11343   5.510   0.400   4.942
  110OSM   H11G11344   5.513   0.284   5.078
  110OSM   C12F11345   5.515   0.194   4.872
  110OSM   H12F11346   5.520   0.097   4.925
  110OSM   H12G11347   5.589   0.190   4.789
  110OSM   C13F11348   5.384   0.206   4.796
  110OSM   H13F11349   5.309   0.210   4.878
  110OSM   H13G11350   5.360   0.115   4.737
  110OSM   C14F11351   5.373   0.323   4.697
  110OSM   H14F11352   5.463   0.325   4.633
  110OSM   H14G11353   5.371   0.416   4.758
  110OSM   C15F11354   5.242   0.328   4.621
  110OSM   H15F11355   5.231   0.237   4.559
  110OSM   H15G11356   5.242   0.409   4.545
  110OSM   C16F11357   5.130   0.364   4.714
  110OSM   H16F11358   5.161   0.449   4.779
  110OSM   H16G11359   5.108   0.282   4.786
  110OSM   C17F11360   5.007   0.390   4.630
  110OSM   H17F11361   4.982   0.302   4.568
  110OSM   H17G11362   5.035   0.457   4.546
  110OSM   C18F11363   4.893   0.462   4.704
  110OSM   H18F11364   4.930   0.555   4.753
  110OSM   H18G11365   4.854   0.399   4.787
  110OSM   H18H11366   4.817   0.489   4.628
  111OSM      N11367   1.742   3.677   6.778
  111OSM    C1511368   1.704   3.816   6.818
  111OSM   H15A11369   1.661   3.864   6.731
  111OSM   H15B11370   1.778   3.878   6.866
  111OSM   H15C11371   1.618   3.808   6.883
  111OSM    C1411372   1.863   3.686   6.690
  111OSM   H14A11373   1.830   3.726   6.596
  111OSM   H14B11374   1.900   3.586   6.671
  111OSM   H14C11375   1.953   3.732   6.726
  111OSM    C1311376   1.792   3.605   6.903
  111OSM   H13A11377   1.761   3.657   6.993
  111OSM   H13B11378   1.899   3.592   6.903
  111OSM   H13C11379   1.760   3.502   6.903
  111OSM    C1211380   1.627   3.606   6.711
  111OSM   H12A11381   1.549   3.591   6.785
  111OSM   H12B11382   1.652   3.504   6.687
  111OSM    C1111383   1.572   3.677   6.589
  111OSM   H11A11384   1.505   3.612   6.529
  111OSM   H11B11385   1.656   3.696   6.519
  111OSM      P11386   1.357   3.799   6.688
  111OSM    O1311387   1.353   3.703   6.797
  111OSM    O1411388   1.338   3.941   6.735
  111OSM    O1111389   1.244   3.760   6.583
  111OSM    O1211390   1.498   3.798   6.626
  111OSM    C1S11391   1.225   3.845   6.469
  111OSM    H1S11392   1.315   3.836   6.404
  111OSM    H1T11393   1.210   3.950   6.503
  111OSM     NF11394   1.102   3.854   6.255
  111OSM    HNF11395   1.051   3.938   6.243
  111OSM    C2S11396   1.103   3.798   6.387
  111OSM    H2S11397   1.113   3.688   6.370
  111OSM    C3S11398   0.980   3.814   6.471
  111OSM    H3S11399   0.969   3.921   6.499
  111OSM     O311400   0.983   3.743   6.600
  111OSM    HO311401   1.077   3.736   6.616
  111OSM    C4S11402   0.846   3.796   6.397
  111OSM    H4S11403   0.793   3.891   6.379
  111OSM    C5S11404   0.774   3.680   6.368
  111OSM    H5S11405   0.828   3.585   6.383
  111OSM    C6S11406   0.634   3.668   6.308
  111OSM    H6S11407   0.581   3.764   6.327
  111OSM    H6T11408   0.577   3.589   6.360
  111OSM    C7S11409   0.627   3.632   6.162
  111OSM    H7S11410   0.528   3.590   6.136
  111OSM    H7T11411   0.697   3.547   6.145
  111OSM    C8S11412   0.644   3.765   6.079
  111OSM    H8S11413   0.742   3.815   6.095
  111OSM    H8T11414   0.566   3.836   6.113
  111OSM    C9S11415   0.635   3.757   5.923
  111OSM    H9S11416   0.546   3.698   5.892
  111OSM    H9T11417   0.729   3.711   5.886
  111OSM   C10S11418   0.619   3.897   5.866
  111OSM   H10S11419   0.705   3.954   5.907
  111OSM   H10T11420   0.526   3.950   5.895
  111OSM   C11S11421   0.647   3.910   5.710
  111OSM   H11S11422   0.594   3.827   5.661
  111OSM   H11T11423   0.754   3.892   5.688
  111OSM   C12S11424   0.587   4.034   5.641
  111OSM   H12S11425   0.630   4.127   5.681
  111OSM   H12T11426   0.477   4.042   5.653
  111OSM   C13S11427   0.609   4.038   5.493
  111OSM   H13S11428   0.581   3.945   5.438
  111OSM   H13T11429   0.720   4.043   5.485
  111OSM   C14S11430   0.552   4.156   5.423
  111OSM   H14S11431   0.608   4.248   5.453
  111OSM   H14T11432   0.446   4.162   5.455
  111OSM   C15S11433   0.556   4.155   5.267
  111OSM   H15S11434   0.488   4.080   5.222
  111OSM   H15T11435   0.661   4.136   5.236
  111OSM   C16S11436   0.519   4.290   5.200
  111OSM   H16S11437   0.436   4.338   5.255
  111OSM   H16T11438   0.476   4.277   5.099
  111OSM   C17S11439   0.629   4.395   5.180
  111OSM   H17S11440   0.712   4.358   5.116
  111OSM   H17T11441   0.682   4.404   5.278
  111OSM   C18S11442   0.575   4.533   5.149
  111OSM   H18S11443   0.534   4.531   5.046
  111OSM   H18T11444   0.654   4.610   5.143
  111OSM   H18U11445   0.500   4.562   5.226
  111OSM    C1F11446   1.176   3.814   6.154
  111OSM     OF11447   1.250   3.712   6.160
  111OSM    C2F11448   1.153   3.900   6.032
  111OSM    H2F11449   1.244   3.962   6.014
  111OSM    H2G11450   1.070   3.973   6.048
  111OSM    C3F11451   1.125   3.821   5.906
  111OSM    H3F11452   1.035   3.757   5.924
  111OSM    H3G11453   1.215   3.760   5.881
  111OSM    C4F11454   1.080   3.917   5.788
  111OSM    H4F11455   1.010   3.988   5.837
  111OSM    H4G11456   1.030   3.856   5.710
  111OSM    C5F11457   1.199   3.988   5.716
  111OSM    H5F11458   1.267   3.911   5.675
  111OSM    H5G11459   1.264   4.051   5.781
  111OSM    C6F11460   1.172   4.067   5.586
  111OSM    H6F11461   1.159   3.983   5.515
  111OSM    H6G11462   1.256   4.128   5.548
  111OSM    C7F11463   1.042   4.151   5.600
  111OSM    H7F11464   1.039   4.193   5.703
  111OSM    H7G11465   0.961   4.075   5.599
  111OSM    C8F11466   1.011   4.258   5.497
  111OSM    H8F11467   0.904   4.288   5.498
  111OSM    H8G11468   1.035   4.208   5.400
  111OSM    C9F11469   1.098   4.376   5.514
  111OSM    H9F11470   1.099   4.427   5.611
  111OSM   C10F11471   1.175   4.431   5.416
  111OSM   H10F11472   1.238   4.518   5.440
  111OSM   C11F11473   1.194   4.378   5.278
  111OSM   H11F11474   1.163   4.271   5.273
  111OSM   H11G11475   1.301   4.396   5.254
  111OSM   C12F11476   1.107   4.457   5.179
  111OSM   H12F11477   1.144   4.559   5.157
  111OSM   H12G11478   1.006   4.483   5.218
  111OSM   C13F11479   1.093   4.394   5.042
  111OSM   H13F11480   1.047   4.294   5.058
  111OSM   H13G11481   1.188   4.386   4.986
  111OSM   C14F11482   1.001   4.466   4.944
  111OSM   H14F11483   1.047   4.559   4.904
  111OSM   H14G11484   0.908   4.501   4.995
  111OSM   C15F11485   0.962   4.400   4.809
  111OSM   H15F11486   0.915   4.301   4.829
  111OSM   H15G11487   1.050   4.388   4.744
  111OSM   C16F11488   0.852   4.477   4.742
  111OSM   H16F11489   0.898   4.570   4.701
  111OSM   H16G11490   0.768   4.510   4.808
  111OSM   C17F11491   0.789   4.405   4.619
  111OSM   H17F11492   0.682   4.434   4.613
  111OSM   H17G11493   0.782   4.296   4.638
  111OSM   C18F11494   0.866   4.415   4.489
  111OSM   H18F11495   0.885   4.520   4.459
  111OSM   H18G11496   0.811   4.358   4.411
  111OSM   H18H11497   0.967   4.370   4.499
  112OSM      N11498   3.979   1.040   7.246
  112OSM    C1511499   4.111   0.995   7.190
  112OSM   H15A11500   4.170   1.081   7.161
  112OSM   H15B11501   4.082   0.941   7.100
  112OSM   H15C11502   4.154   0.924   7.258
  112OSM    C1411503   3.913   0.917   7.300
  112OSM   H14A11504   3.904   0.841   7.223
  112OSM   H14B11505   3.811   0.933   7.332
  112OSM   H14C11506   3.976   0.862   7.368
  112OSM    C1311507   4.003   1.134   7.363
  112OSM   H13A11508   4.075   1.091   7.431
  112OSM   H13B11509   3.913   1.152   7.421
  112OSM   H13C11510   4.028   1.235   7.333
  112OSM    C1211511   3.878   1.108   7.159
  112OSM   H12A11512   3.918   1.204   7.131
  112OSM   H12B11513   3.799   1.155   7.216
  112OSM    C1111514   3.842   1.035   7.031
  112OSM   H11A11515   3.759   1.091   6.983
  112OSM   H11B11516   3.805   0.932   7.050
  112OSM      P11517   3.935   0.962   6.796
  112OSM    O1311518   4.067   0.929   6.745
  112OSM    O1411519   3.830   0.858   6.806
  112OSM    O1111520   3.873   1.087   6.716
  112OSM    O1211521   3.951   1.027   6.941
  112OSM    C1S11522   3.916   1.135   6.587
  112OSM    H1S11523   3.875   1.074   6.504
  112OSM    H1T11524   4.027   1.132   6.588
  112OSM     NF11525   3.900   1.316   6.415
  112OSM    HNF11526   3.979   1.377   6.409
  112OSM    C2S11527   3.872   1.281   6.557
  112OSM    H2S11528   3.762   1.275   6.574
  112OSM    C3S11529   3.943   1.380   6.656
  112OSM    H3S11530   4.046   1.339   6.656
  112OSM     O311531   3.885   1.370   6.791
  112OSM    HO311532   3.842   1.284   6.797
  112OSM    C4S11533   3.944   1.519   6.610
  112OSM    H4S11534   4.039   1.546   6.561
  112OSM    C5S11535   3.844   1.613   6.606
  112OSM    H5S11536   3.754   1.590   6.664
  112OSM    C6S11537   3.850   1.750   6.533
  112OSM    H6S11538   3.888   1.819   6.611
  112OSM    H6T11539   3.749   1.778   6.497
  112OSM    C7S11540   3.939   1.752   6.409
  112OSM    H7S11541   3.907   1.663   6.349
  112OSM    H7T11542   4.044   1.741   6.441
  112OSM    C8S11543   3.918   1.883   6.332
  112OSM    H8S11544   3.982   1.956   6.386
  112OSM    H8T11545   3.814   1.922   6.335
  112OSM    C9S11546   3.977   1.873   6.195
  112OSM    H9S11547   3.949   1.778   6.144
  112OSM    H9T11548   4.088   1.868   6.196
  112OSM   C10S11549   3.915   1.983   6.104
  112OSM   H10S11550   3.929   2.079   6.159
  112OSM   H10T11551   3.806   1.975   6.084
  112OSM   C11S11552   3.985   2.003   5.968
  112OSM   H11S11553   4.006   1.899   5.935
  112OSM   H11T11554   4.087   2.044   5.984
  112OSM   C12S11555   3.906   2.079   5.858
  112OSM   H12S11556   3.905   2.187   5.884
  112OSM   H12T11557   3.800   2.049   5.847
  112OSM   C13S11558   3.974   2.073   5.719
  112OSM   H13S11559   4.002   1.972   5.681
  112OSM   H13T11560   4.063   2.139   5.726
  112OSM   C14S11561   3.892   2.135   5.603
  112OSM   H14S11562   3.885   2.245   5.615
  112OSM   H14T11563   3.791   2.088   5.605
  112OSM   C15S11564   3.963   2.120   5.467
  112OSM   H15S11565   4.010   2.022   5.447
  112OSM   H15T11566   4.049   2.190   5.476
  112OSM   C16S11567   3.873   2.152   5.348
  112OSM   H16S11568   3.831   2.254   5.359
  112OSM   H16T11569   3.788   2.082   5.354
  112OSM   C17S11570   3.946   2.148   5.219
  112OSM   H17S11571   3.998   2.050   5.215
  112OSM   H17T11572   4.026   2.225   5.211
  112OSM   C18S11573   3.857   2.169   5.094
  112OSM   H18S11574   3.921   2.200   5.009
  112OSM   H18T11575   3.788   2.254   5.111
  112OSM   H18U11576   3.799   2.080   5.061
  112OSM    C1F11577   3.841   1.265   6.307
  112OSM     OF11578   3.744   1.189   6.317
  112OSM    C2F11579   3.906   1.304   6.176
  112OSM    H2F11580   3.997   1.368   6.179
  112OSM    H2G11581   3.832   1.375   6.134
  112OSM    C3F11582   3.912   1.190   6.073
  112OSM    H3F11583   3.813   1.140   6.070
  112OSM    H3G11584   3.978   1.104   6.096
  112OSM    C4F11585   3.939   1.235   5.927
  112OSM    H4F11586   4.027   1.303   5.934
  112OSM    H4G11587   3.851   1.300   5.906
  112OSM    C5F11588   3.950   1.122   5.819
  112OSM    H5F11589   3.862   1.054   5.822
  112OSM    H5G11590   4.038   1.057   5.837
  112OSM    C6F11591   3.947   1.168   5.671
  112OSM    H6F11592   4.045   1.218   5.658
  112OSM    H6G11593   3.862   1.238   5.653
  112OSM    C7F11594   3.941   1.053   5.570
  112OSM    H7F11595   3.863   0.984   5.608
  112OSM    H7G11596   4.040   1.001   5.567
  112OSM    C8F11597   3.914   1.089   5.420
  112OSM    H8F11598   3.822   1.150   5.425
  112OSM    H8G11599   3.892   0.993   5.367
  112OSM    C9F11600   4.022   1.171   5.357
  112OSM    H9F11601   4.109   1.179   5.425
  112OSM   C10F11602   4.037   1.217   5.229
  112OSM   H10F11603   4.131   1.266   5.201
  112OSM   C11F11604   3.927   1.203   5.125
  112OSM   H11F11605   3.870   1.298   5.117
  112OSM   H11G11606   3.852   1.124   5.146
  112OSM   C12F11607   4.010   1.170   4.993
  112OSM   H12F11608   4.057   1.074   5.023
  112OSM   H12G11609   4.096   1.238   4.974
  112OSM   C13F11610   3.927   1.159   4.866
  112OSM   H13F11611   3.862   1.247   4.848
  112OSM   H13G11612   3.857   1.073   4.875
  112OSM   C14F11613   4.022   1.140   4.742
  112OSM   H14F11614   4.069   1.041   4.759
  112OSM   H14G11615   4.106   1.212   4.734
  112OSM   C15F11616   3.949   1.131   4.606
  112OSM   H15F11617   3.904   1.231   4.588
  112OSM   H15G11618   3.868   1.056   4.607
  112OSM   C16F11619   4.034   1.090   4.483
  112OSM   H16F11620   4.084   0.994   4.506
  112OSM   H16G11621   4.106   1.174   4.491
  112OSM   C17F11622   3.949   1.078   4.354
  112OSM   H17F11623   3.911   1.181   4.338
  112OSM   H17G11624   3.870   1.002   4.373
  112OSM   C18F11625   4.013   1.025   4.225
  112OSM   H18F11626   4.115   1.069   4.217
  112OSM   H18G11627   3.960   1.049   4.130
  112OSM   H18H11628   4.015   0.914   4.230
  113OSM      N11629   0.979   1.735   6.710
  113OSM    C1511630   1.104   1.814   6.735
  113OSM   H15A11631   1.160   1.786   6.823
  113OSM   H15B11632   1.072   1.915   6.753
  113OSM   H15C11633   1.174   1.813   6.653
  113OSM    C1411634   0.998   1.588   6.720
  113OSM   H14A11635   1.084   1.536   6.681
  113OSM   H14B11636   0.912   1.537   6.679
  113OSM   H14C11637   0.993   1.552   6.822
  113OSM    C1311638   0.882   1.768   6.817
  113OSM   H13A11639   0.930   1.740   6.909
  113OSM   H13B11640   0.788   1.716   6.811
  113OSM   H13C11641   0.866   1.875   6.813
  113OSM    C1211642   0.932   1.766   6.570
  113OSM   H12A11643   0.993   1.716   6.495
  113OSM   H12B11644   0.955   1.869   6.548
  113OSM    C1111645   0.792   1.720   6.527
  113OSM   H11A11646   0.779   1.751   6.421
  113OSM   H11B11647   0.717   1.773   6.589
  113OSM      P11648   0.641   1.517   6.517
  113OSM    O1311649   0.674   1.375   6.499
  113OSM    O1411650   0.561   1.557   6.636
  113OSM    O1111651   0.585   1.579   6.386
  113OSM    O1211652   0.785   1.579   6.530
  113OSM    C1S11653   0.583   1.493   6.270
  113OSM    H1S11654   0.532   1.396   6.287
  113OSM    H1T11655   0.684   1.482   6.225
  113OSM     NF11656   0.466   1.465   6.058
  113OSM    HNF11657   0.512   1.471   5.970
  113OSM    C2S11658   0.504   1.562   6.153
  113OSM    H2S11659   0.404   1.596   6.186
  113OSM    C3S11660   0.576   1.689   6.096
  113OSM    H3S11661   0.677   1.667   6.055
  113OSM     O311662   0.617   1.778   6.195
  113OSM    HO311663   0.595   1.714   6.263
  113OSM    C4S11664   0.490   1.766   5.986
  113OSM    H4S11665   0.511   1.727   5.886
  113OSM    C5S11666   0.398   1.868   6.008
  113OSM    H5S11667   0.372   1.904   6.109
  113OSM    C6S11668   0.327   1.946   5.901
  113OSM    H6S11669   0.337   2.052   5.932
  113OSM    H6T11670   0.217   1.927   5.903
  113OSM    C7S11671   0.385   1.931   5.756
  113OSM    H7S11672   0.394   1.824   5.728
  113OSM    H7T11673   0.485   1.978   5.749
  113OSM    C8S11674   0.300   2.002   5.650
  113OSM    H8S11675   0.319   2.111   5.647
  113OSM    H8T11676   0.194   1.980   5.675
  113OSM    C9S11677   0.344   1.961   5.511
  113OSM    H9S11678   0.326   1.852   5.498
  113OSM    H9T11679   0.453   1.968   5.494
  113OSM   C10S11680   0.269   2.035   5.403
  113OSM   H10S11681   0.295   2.143   5.401
  113OSM   H10T11682   0.158   2.026   5.408
  113OSM   C11S11683   0.311   1.976   5.262
  113OSM   H11S11684   0.275   1.872   5.280
  113OSM   H11T11685   0.422   1.982   5.252
  113OSM   C12S11686   0.253   2.045   5.142
  113OSM   H12S11687   0.223   2.148   5.169
  113OSM   H12T11688   0.171   1.989   5.093
  113OSM   C13S11689   0.360   2.067   5.038
  113OSM   H13S11690   0.432   1.984   5.023
  113OSM   H13T11691   0.430   2.144   5.075
  113OSM   C14S11692   0.303   2.118   4.909
  113OSM   H14S11693   0.257   2.219   4.918
  113OSM   H14T11694   0.219   2.053   4.876
  113OSM   C15S11695   0.408   2.135   4.794
  113OSM   H15S11696   0.368   2.123   4.690
  113OSM   H15T11697   0.499   2.073   4.803
  113OSM   C16S11698   0.476   2.263   4.799
  113OSM   H16S11699   0.545   2.265   4.886
  113OSM   H16T11700   0.407   2.349   4.815
  113OSM   C17S11701   0.557   2.316   4.674
  113OSM   H17S11702   0.619   2.406   4.696
  113OSM   H17T11703   0.477   2.353   4.607
  113OSM   C18S11704   0.650   2.210   4.610
  113OSM   H18S11705   0.721   2.155   4.675
  113OSM   H18T11706   0.706   2.253   4.525
  113OSM   H18U11707   0.590   2.127   4.568
  113OSM    C1F11708   0.375   1.370   6.076
  113OSM     OF11709   0.325   1.357   6.185
  113OSM    C2F11710   0.335   1.288   5.952
  113OSM    H2F11711   0.419   1.228   5.911
  113OSM    H2G11712   0.297   1.360   5.876
  113OSM    C3F11713   0.211   1.195   5.998
  113OSM    H3F11714   0.146   1.262   6.058
  113OSM    H3G11715   0.239   1.108   6.062
  113OSM    C4F11716   0.136   1.151   5.871
  113OSM    H4F11717   0.216   1.106   5.808
  113OSM    H4G11718   0.116   1.243   5.812
  113OSM    C5F11719   0.006   1.074   5.871
  113OSM    H5F11720   6.765   1.105   5.942
  113OSM    H5G11721   0.034   0.972   5.907
  113OSM    C6F11722   6.767   1.058   5.738
  113OSM    H6F11723   6.745   1.159   5.697
  113OSM    H6G11724   6.675   1.000   5.762
  113OSM    C7F11725   0.008   0.964   5.651
  113OSM    H7F11726   0.036   0.879   5.718
  113OSM    H7G11727   0.108   1.002   5.619
  113OSM    C8F11728   6.771   0.911   5.527
  113OSM    H8F11729   6.670   0.868   5.547
  113OSM    H8G11730   6.826   0.826   5.482
  113OSM    C9F11731   6.750   1.018   5.423
  113OSM    H9F11732   6.752   1.115   5.475
  113OSM   C10F11733   6.717   0.993   5.292
  113OSM   H10F11734   6.708   1.075   5.219
  113OSM   C11F11735   6.705   0.864   5.216
  113OSM   H11F11736   6.768   0.784   5.261
  113OSM   H11G11737   6.743   0.878   5.112
  113OSM   C12F11738   6.554   0.824   5.210
  113OSM   H12F11739   6.521   0.813   5.316
  113OSM   H12G11740   6.538   0.730   5.153
  113OSM   C13F11741   6.461   0.936   5.152
  113OSM   H13F11742   6.490   1.033   5.197
  113OSM   H13G11743   6.355   0.916   5.176
  113OSM   C14F11744   6.486   0.967   4.999
  113OSM   H14F11745   6.593   0.990   4.980
  113OSM   H14G11746   6.426   1.060   4.986
  113OSM   C15F11747   6.446   0.856   4.900
  113OSM   H15F11748   6.515   0.771   4.919
  113OSM   H15G11749   6.463   0.892   4.796
  113OSM   C16F11750   6.301   0.817   4.913
  113OSM   H16F11751   6.233   0.897   4.950
  113OSM   H16G11752   6.285   0.735   4.987
  113OSM   C17F11753   6.242   0.757   4.780
  113OSM   H17F11754   6.241   0.830   4.696
  113OSM   H17G11755   6.137   0.733   4.809
  113OSM   C18F11756   6.313   0.627   4.735
  113OSM   H18F11757   6.319   0.556   4.820
  113OSM   H18G11758   6.420   0.647   4.711
  113OSM   H18H11759   6.259   0.587   4.646
  114OSM      N11760   6.753   0.552   6.977
  114OSM    C1511761   6.689   0.666   6.905
  114OSM   H15A11762   6.602   0.635   6.850
  114OSM   H15B11763   6.759   0.713   6.838
  114OSM   H15C11764   6.668   0.751   6.968
  114OSM    C1411765   0.029   0.605   7.063
  114OSM   H14A11766   6.827   0.682   7.128
  114OSM   H14B11767   0.094   0.650   6.989
  114OSM   H14C11768   0.077   0.532   7.126
  114OSM    C1311769   6.654   0.487   7.065
  114OSM   H13A11770   6.586   0.431   7.002
  114OSM   H13B11771   6.595   0.553   7.128
  114OSM   H13C11772   6.704   0.413   7.126
  114OSM    C1211773   6.799   0.450   6.875
  114OSM   H12A11774   0.026   0.497   6.804
  114OSM   H12B11775   6.713   0.421   6.815
  114OSM    C1111776   0.022   0.320   6.918
  114OSM   H11A11777   0.102   0.358   6.985
  114OSM   H11B11778   0.075   0.272   6.833
  114OSM      P11779   6.666   0.129   6.955
  114OSM    O1311780   6.678   0.003   7.034
  114OSM    O1411781   6.537   0.201   6.954
  114OSM    O1111782   6.710   0.103   6.806
  114OSM    O1211783   6.775   0.232   6.994
  114OSM    C1S11784   6.806   0.009   6.762
  114OSM    H1S11785   6.770   6.748   6.795
  114OSM    H1T11786   0.062   0.041   6.810
  114OSM     NF11787   0.096   6.746   6.575
  114OSM    HNF11788   0.191   6.772   6.561
  114OSM    C2S11789   0.001   0.009   6.609
  114OSM    H2S11790   6.740   6.833   6.562
  114OSM    C3S11791   0.040   0.151   6.559
  114OSM    H3S11792   0.140   0.158   6.606
  114OSM     O311793   6.782   0.245   6.605
  114OSM    HO311794   6.726   0.195   6.664
  114OSM    C4S11795   0.051   0.158   6.404
  114OSM    H4S11796   0.159   0.165   6.381
  114OSM    C5S11797   6.793   0.160   6.309
  114OSM    H5S11798   6.689   0.170   6.343
  114OSM    C6S11799   6.809   0.187   6.164
  114OSM    H6S11800   6.812   0.086   6.117
  114OSM    H6T11801   0.064   0.244   6.146
  114OSM    C7S11802   6.701   0.263   6.091
  114OSM    H7S11803   6.709   0.367   6.128
  114OSM    H7T11804   6.600   0.221   6.106
  114OSM    C8S11805   6.731   0.268   5.941
  114OSM    H8S11806   6.648   0.311   5.881
  114OSM    H8T11807   6.731   0.165   5.899
  114OSM    C9S11808   0.028   0.340   5.907
  114OSM    H9S11809   0.118   0.297   5.956
  114OSM    H9T11810   0.025   0.443   5.949
  114OSM   C10S11811   0.056   0.349   5.759
  114OSM   H10S11812   6.812   0.397   5.701
  114OSM   H10T11813   0.073   0.247   5.720
  114OSM   C11S11814   0.186   0.426   5.731
  114OSM   H11S11815   0.272   0.362   5.760
  114OSM   H11T11816   0.179   0.516   5.796
  114OSM   C12S11817   0.207   0.479   5.590
  114OSM   H12S11818   0.301   0.538   5.581
  114OSM   H12T11819   0.120   0.540   5.557
  114OSM   C13S11820   0.210   0.369   5.492
  114OSM   H13S11821   0.116   0.310   5.496
  114OSM   H13T11822   0.290   0.297   5.518
  114OSM   C14S11823   0.234   0.404   5.348
  114OSM   H14S11824   0.311   0.483   5.338
  114OSM   H14T11825   0.141   0.454   5.313
  114OSM   C15S11826   0.275   0.282   5.259
  114OSM   H15S11827   0.191   0.212   5.275
  114OSM   H15T11828   0.376   0.243   5.285
  114OSM   C16S11829   0.280   0.332   5.109
  114OSM   H16S11830   0.342   0.424   5.110
  114OSM   H16T11831   0.178   0.366   5.080
  114OSM   C17S11832   0.340   0.241   5.004
  114OSM   H17S11833   0.431   0.190   5.042
  114OSM   H17T11834   0.360   0.316   4.924
  114OSM   C18S11835   0.242   0.144   4.937
  114OSM   H18S11836   0.209   0.079   5.021
  114OSM   H18T11837   0.295   0.080   4.863
  114OSM   H18U11838   0.151   0.195   4.900
  114OSM    C1F11839   0.061   6.614   6.578
  114OSM     OF11840   6.785   6.572   6.581
  114OSM    C2F11841   0.166   6.512   6.578
  114OSM    H2F11842   0.163   6.459   6.675
  114OSM    H2G11843   0.269   6.544   6.553
  114OSM    C3F11844   0.131   6.404   6.471
  114OSM    H3F11845   0.032   6.356   6.486
  114OSM    H3G11846   0.213   6.330   6.483
  114OSM    C4F11847   0.113   6.451   6.325
  114OSM    H4F11848   0.015   6.504   6.325
  114OSM    H4G11849   0.106   6.365   6.256
  114OSM    C5F11850   0.223   6.546   6.276
  114OSM    H5F11851   0.323   6.504   6.300
  114OSM    H5G11852   0.200   6.642   6.327
  114OSM    C6F11853   0.220   6.572   6.127
  114OSM    H6F11854   0.213   6.474   6.074
  114OSM    H6G11855   0.321   6.612   6.105
  114OSM    C7F11856   0.110   6.664   6.097
  114OSM    H7F11857   0.144   6.765   6.127
  114OSM    H7G11858   0.025   6.638   6.164
  114OSM    C8F11859   0.064   6.683   5.950
  114OSM    H8F11860   6.798   6.721   5.959
  114OSM    H8G11861   0.049   6.578   5.914
  114OSM    C9F11862   0.153   6.765   5.857
  114OSM    H9F11863   0.249   6.798   5.898
  114OSM   C10F11864   0.116   6.805   5.733
  114OSM   H10F11865   0.192   0.005   5.664
  114OSM   C11F11866   6.820   6.779   5.677
  114OSM   H11F11867   6.752   0.025   5.701
  114OSM   H11G11868   6.783   6.682   5.718
  114OSM   C12F11869   6.812   6.752   5.519
  114OSM   H12F11870   6.718   6.695   5.503
  114OSM   H12G11871   0.068   6.704   5.485
  114OSM   C13F11872   6.799   0.045   5.445
  114OSM   H13F11873   0.042   0.108   5.487
  114OSM   H13G11874   6.705   0.099   5.470
  114OSM   C14F11875   6.811   0.030   5.293
  114OSM   H14F11876   0.063   6.811   5.263
  114OSM   H14G11877   6.838   0.132   5.258
  114OSM   C15F11878   6.684   6.816   5.215
  114OSM   H15F11879   6.601   0.049   5.232
  114OSM   H15G11880   6.654   6.720   5.263
  114OSM   C16F11881   6.710   6.808   5.056
  114OSM   H16F11882   6.802   6.747   5.042
  114OSM   H16G11883   6.740   0.074   5.031
  114OSM   C17F11884   6.585   6.757   4.987
  114OSM   H17F11885   6.499   6.808   5.035
  114OSM   H17G11886   6.570   6.648   4.999
  114OSM   C18F11887   6.590   6.803   4.842
  114OSM   H18F11888   6.531   6.729   4.784
  114OSM   H18G11889   6.698   6.801   4.817
  114OSM   H18H11890   6.560   0.070   4.825
  115OSM      N11891   0.523   2.622   6.768
  115OSM    C1511892   0.564   2.655   6.907
  115OSM   H15A11893   0.625   2.744   6.897
  115OSM   H15B11894   0.629   2.580   6.949
  115OSM   H15C11895   0.479   2.671   6.971
  115OSM    C1411896   0.644   2.619   6.678
  115OSM   H14A11897   0.681   2.717   6.651
  115OSM   H14B11898   0.614   2.566   6.588
  115OSM   H14C11899   0.718   2.559   6.727
  115OSM    C1311900   0.463   2.489   6.762
  115OSM   H13A11901   0.520   2.413   6.813
  115OSM   H13B11902   0.447   2.456   6.661
  115OSM   H13C11903   0.363   2.482   6.804
  115OSM    C1211904   0.428   2.727   6.710
  115OSM   H12A11905   0.490   2.814   6.700
  115OSM   H12B11906   0.348   2.742   6.781
  115OSM    C1111907   0.353   2.689   6.581
  115OSM   H11A11908   0.432   2.669   6.505
  115OSM   H11B11909   0.313   2.775   6.523
  115OSM      P11910   0.112   2.584   6.623
  115OSM    O1311911   0.052   2.452   6.604
  115OSM    O1411912   0.094   2.646   6.760
  115OSM    O1111913   0.043   2.679   6.521
  115OSM    O1211914   0.267   2.574   6.592
  115OSM    C1S11915   0.067   2.677   6.377
  115OSM    H1S11916   0.029   2.580   6.339
  115OSM    H1T11917   0.177   2.690   6.361
  115OSM     NF11918   6.827   2.759   6.159
  115OSM    HNF11919   0.056   2.793   6.094
  115OSM    C2S11920   6.838   2.791   6.301
  115OSM    H2S11921   6.737   2.796   6.347
  115OSM    C3S11922   0.063   2.934   6.334
  115OSM    H3S11923   0.174   2.924   6.324
  115OSM     O311924   0.043   2.970   6.470
  115OSM    HO311925   0.010   2.884   6.500
  115OSM    C4S11926   0.027   3.049   6.235
  115OSM    H4S11927   0.085   3.039   6.141
  115OSM    C5S11928   6.773   3.143   6.251
  115OSM    H5S11929   6.698   3.143   6.331
  115OSM    C6S11930   6.763   3.245   6.139
  115OSM    H6S11931   6.800   3.212   6.039
  115OSM    H6T11932   6.826   3.336   6.154
  115OSM    C7S11933   6.615   3.311   6.124
  115OSM    H7S11934   6.578   3.324   6.227
  115OSM    H7T11935   6.545   3.235   6.083
  115OSM    C8S11936   6.612   3.432   6.036
  115OSM    H8S11937   6.694   3.501   6.063
  115OSM    H8T11938   6.511   3.477   6.031
  115OSM    C9S11939   6.653   3.405   5.884
  115OSM    H9S11940   6.613   3.303   5.867
  115OSM    H9T11941   6.764   3.409   5.883
  115OSM   C10S11942   6.590   3.499   5.783
  115OSM   H10S11943   6.600   3.607   5.809
  115OSM   H10T11944   6.480   3.483   5.783
  115OSM   C11S11945   6.657   3.464   5.647
  115OSM   H11S11946   6.638   3.356   5.629
  115OSM   H11T11947   6.765   3.489   5.650
  115OSM   C12S11948   6.585   3.546   5.535
  115OSM   H12S11949   6.609   3.648   5.572
  115OSM   H12T11950   6.474   3.548   5.531
  115OSM   C13S11951   6.640   3.498   5.403
  115OSM   H13S11952   6.583   3.402   5.398
  115OSM   H13T11953   6.746   3.465   5.404
  115OSM   C14S11954   6.598   3.579   5.278
  115OSM   H14S11955   6.617   3.686   5.303
  115OSM   H14T11956   6.489   3.566   5.262
  115OSM   C15S11957   6.673   3.529   5.153
  115OSM   H15S11958   6.663   3.418   5.144
  115OSM   H15T11959   6.780   3.556   5.164
  115OSM   C16S11960   6.623   3.598   5.024
  115OSM   H16S11961   6.645   3.705   5.044
  115OSM   H16T11962   6.514   3.580   5.017
  115OSM   C17S11963   6.707   3.558   4.906
  115OSM   H17S11964   6.693   3.453   4.874
  115OSM   H17T11965   6.816   3.559   4.930
  115OSM   C18S11966   6.687   3.664   4.792
  115OSM   H18S11967   6.698   3.612   4.695
  115OSM   H18T11968   6.763   3.744   4.803
  115OSM   H18U11969   6.583   3.703   4.803
  115OSM    C1F11970   6.738   2.677   6.114
  115OSM     OF11971   6.672   2.609   6.191
  115OSM    C2F11972   6.720   2.683   5.964
  115OSM    H2F11973   6.819   2.666   5.916
  115OSM    H2G11974   6.689   2.788   5.944
  115OSM    C3F11975   6.630   2.575   5.904
  115OSM    H3F11976   6.526   2.586   5.941
  115OSM    H3G11977   6.665   2.477   5.945
  115OSM    C4F11978   6.628   2.552   5.747
  115OSM    H4F11979   6.626   2.441   5.734
  115OSM    H4G11980   6.722   2.578   5.694
  115OSM    C5F11981   6.510   2.607   5.669
  115OSM    H5F11982   6.512   2.718   5.671
  115OSM    H5G11983   6.416   2.585   5.725
  115OSM    C6F11984   6.487   2.563   5.525
  115OSM    H6F11985   6.396   2.613   5.485
  115OSM    H6G11986   6.490   2.452   5.520
  115OSM    C7F11987   6.602   2.601   5.430
  115OSM    H7F11988   6.694   2.582   5.489
  115OSM    H7G11989   6.608   2.709   5.407
  115OSM    C8F11990   6.593   2.531   5.301
  115OSM    H8F11991   6.564   2.426   5.323
  115OSM    H8G11992   6.696   2.528   5.259
  115OSM    C9F11993   6.488   2.577   5.207
  115OSM    H9F11994   6.383   2.552   5.229
  115OSM   C10F11995   6.499   2.646   5.092
  115OSM   H10F11996   6.412   2.689   5.040
  115OSM   C11F11997   6.632   2.690   5.031
  115OSM   H11F11998   6.722   2.674   5.094
  115OSM   H11G11999   6.625   2.800   5.031
  115OSM   C12F12000   6.663   2.617   4.894
  115OSM   H12F12001   6.597   2.655   4.813
  115OSM   H12G12002   6.644   2.510   4.915
  115OSM   C13F12003   6.813   2.622   4.845
  115OSM   H13F12004   0.048   2.584   4.919
  115OSM   H13G12005   6.836   2.730   4.840
  115OSM   C14F12006   6.830   2.574   4.699
  115OSM   H14F12007   6.756   2.623   4.632
  115OSM   H14G12008   6.813   2.464   4.704
  115OSM   C15F12009   0.136   2.599   4.656
  115OSM   H15F12010   0.163   2.545   4.562
  115OSM   H15G12011   0.207   2.571   4.736
  115OSM   C16F12012   0.167   2.742   4.615
  115OSM   H16F12013   0.148   2.806   4.704
  115OSM   H16G12014   0.102   2.781   4.534
  115OSM   C17F12015   0.309   2.769   4.565
  115OSM   H17F12016   0.371   2.699   4.625
  115OSM   H17G12017   0.348   2.872   4.583
  115OSM   C18F12018   0.337   2.733   4.421
  115OSM   H18F12019   0.304   2.631   4.393
  115OSM   H18G12020   0.446   2.745   4.408
  115OSM   H18H12021   0.288   2.795   4.342
  116OSM      N12022   1.281   1.159   6.711
  116OSM    C1512023   1.133   1.176   6.708
  116OSM   H15A12024   1.078   1.102   6.652
  116OSM   H15B12025   1.111   1.270   6.659
  116OSM   H15C12026   1.089   1.181   6.807
  116OSM    C1412027   1.309   1.019   6.756
  116OSM   H14A12028   1.415   1.005   6.737
  116OSM   H14B12029   1.263   0.958   6.681
  116OSM   H14C12030   1.280   0.989   6.856
  116OSM    C1312031   1.335   1.177   6.574
  116OSM   H13A12032   1.442   1.163   6.571
  116OSM   H13B12033   1.307   1.278   6.548
  116OSM   H13C12034   1.291   1.108   6.504
  116OSM    C1212035   1.348   1.262   6.798
  116OSM   H12A12036   1.451   1.264   6.767
  116OSM   H12B12037   1.340   1.231   6.902
  116OSM    C1112038   1.290   1.399   6.806
  116OSM   H11A12039   1.336   1.460   6.886
  116OSM   H11B12040   1.181   1.398   6.828
  116OSM      P12041   1.439   1.529   6.629
  116OSM    O1312042   1.484   1.642   6.710
  116OSM    O1412043   1.537   1.420   6.605
  116OSM    O1112044   1.404   1.588   6.492
  116OSM    O1212045   1.301   1.468   6.678
  116OSM    C1S12046   1.269   1.589   6.440
  116OSM    H1S12047   1.232   1.693   6.452
  116OSM    H1T12048   1.206   1.509   6.485
  116OSM     NF12049   1.142   1.621   6.234
  116OSM    HNF12050   1.073   1.550   6.217
  116OSM    C2S12051   1.273   1.574   6.282
  116OSM    H2S12052   1.353   1.641   6.245
  116OSM    C3S12053   1.315   1.433   6.237
  116OSM    H3S12054   1.242   1.357   6.273
  116OSM     O312055   1.418   1.376   6.319
  116OSM    HO312056   1.425   1.423   6.402
  116OSM    C4S12057   1.346   1.437   6.088
  116OSM    H4S12058   1.264   1.467   6.022
  116OSM    C5S12059   1.456   1.402   6.031
  116OSM    H5S12060   1.544   1.382   6.094
  116OSM    C6S12061   1.495   1.396   5.884
  116OSM    H6S12062   1.529   1.292   5.862
  116OSM    H6T12063   1.579   1.467   5.869
  116OSM    C7S12064   1.385   1.419   5.788
  116OSM    H7S12065   1.328   1.514   5.801
  116OSM    H7T12066   1.312   1.336   5.795
  116OSM    C8S12067   1.433   1.413   5.645
  116OSM    H8S12068   1.477   1.312   5.630
  116OSM    H8T12069   1.510   1.489   5.619
  116OSM    C9S12070   1.322   1.418   5.546
  116OSM    H9S12071   1.285   1.522   5.530
  116OSM    H9T12072   1.245   1.348   5.586
  116OSM   C10S12073   1.371   1.361   5.415
  116OSM   H10S12074   1.372   1.250   5.414
  116OSM   H10T12075   1.476   1.391   5.392
  116OSM   C11S12076   1.278   1.392   5.296
  116OSM   H11S12077   1.257   1.501   5.290
  116OSM   H11T12078   1.182   1.338   5.305
  116OSM   C12S12079   1.327   1.359   5.159
  116OSM   H12S12080   1.325   1.249   5.147
  116OSM   H12T12081   1.428   1.399   5.139
  116OSM   C13S12082   1.242   1.425   5.050
  116OSM   H13S12083   1.203   1.518   5.096
  116OSM   H13T12084   1.164   1.350   5.021
  116OSM   C14S12085   1.327   1.462   4.923
  116OSM   H14S12086   1.371   1.362   4.903
  116OSM   H14T12087   1.417   1.515   4.959
  116OSM   C15S12088   1.262   1.520   4.806
  116OSM   H15S12089   1.230   1.623   4.831
  116OSM   H15T12090   1.169   1.464   4.783
  116OSM   C16S12091   1.348   1.536   4.677
  116OSM   H16S12092   1.394   1.441   4.641
  116OSM   H16T12093   1.430   1.603   4.712
  116OSM   C17S12094   1.284   1.607   4.560
  116OSM   H17S12095   1.247   1.708   4.587
  116OSM   H17T12096   1.185   1.562   4.541
  116OSM   C18S12097   1.375   1.631   4.437
  116OSM   H18S12098   1.401   1.539   4.380
  116OSM   H18T12099   1.476   1.670   4.462
  116OSM   H18U12100   1.321   1.703   4.372
  116OSM    C1F12101   1.116   1.747   6.209
  116OSM     OF12102   1.208   1.831   6.203
  116OSM    C2F12103   0.975   1.782   6.171
  116OSM    H2F12104   0.923   1.800   6.268
  116OSM    H2G12105   0.930   1.697   6.117
  116OSM    C3F12106   0.963   1.906   6.072
  116OSM    H3F12107   1.020   1.986   6.124
  116OSM    H3G12108   0.854   1.922   6.054
  116OSM    C4F12109   1.022   1.863   5.937
  116OSM    H4F12110   1.125   1.826   5.951
  116OSM    H4G12111   1.017   1.954   5.873
  116OSM    C5F12112   0.943   1.748   5.866
  116OSM    H5F12113   0.834   1.765   5.879
  116OSM    H5G12114   0.972   1.650   5.909
  116OSM    C6F12115   0.991   1.741   5.716
  116OSM    H6F12116   1.097   1.711   5.707
  116OSM    H6G12117   0.988   1.842   5.670
  116OSM    C7F12118   0.899   1.653   5.637
  116OSM    H7F12119   0.805   1.709   5.621
  116OSM    H7G12120   0.872   1.566   5.700
  116OSM    C8F12121   0.956   1.589   5.506
  116OSM    H8F12122   0.881   1.521   5.461
  116OSM    H8G12123   1.045   1.527   5.530
  116OSM    C9F12124   0.998   1.710   5.424
  116OSM    H9F12125   1.068   1.782   5.469
  116OSM   C10F12126   0.966   1.730   5.296
  116OSM   H10F12127   1.002   1.826   5.257
  116OSM   C11F12128   0.863   1.662   5.209
  116OSM   H11F12129   0.786   1.736   5.178
  116OSM   H11G12130   0.807   1.589   5.271
  116OSM   C12F12131   0.909   1.586   5.086
  116OSM   H12F12132   0.950   1.485   5.110
  116OSM   H12G12133   0.986   1.649   5.035
  116OSM   C13F12134   0.798   1.563   4.979
  116OSM   H13F12135   0.757   1.662   4.949
  116OSM   H13G12136   0.721   1.504   5.033
  116OSM   C14F12137   0.845   1.482   4.860
  116OSM   H14F12138   0.909   1.404   4.907
  116OSM   H14G12139   0.915   1.536   4.793
  116OSM   C15F12140   0.727   1.416   4.789
  116OSM   H15F12141   0.658   1.488   4.739
  116OSM   H15G12142   0.665   1.369   4.868
  116OSM   C16F12143   0.772   1.299   4.697
  116OSM   H16F12144   0.678   1.243   4.678
  116OSM   H16G12145   0.848   1.252   4.763
  116OSM   C17F12146   0.833   1.364   4.568
  116OSM   H17F12147   0.944   1.365   4.578
  116OSM   H17G12148   0.803   1.471   4.556
  116OSM   C18F12149   0.773   1.295   4.444
  116OSM   H18F12150   0.663   1.299   4.451
  116OSM   H18G12151   0.799   1.187   4.447
  116OSM   H18H12152   0.820   1.337   4.352
  117OSM      N12153   0.896   3.861   6.974
  117OSM    C1512154   0.886   3.843   7.119
  117OSM   H15A12155   0.798   3.788   7.148
  117OSM   H15B12156   0.893   3.941   7.165
  117OSM   H15C12157   0.965   3.783   7.163
  117OSM    C1412158   1.040   3.881   6.943
  117OSM   H14A12159   1.067   3.858   6.841
  117OSM   H14B12160   1.098   3.814   7.004
  117OSM   H14C12161   1.064   3.984   6.969
  117OSM    C1312162   0.855   3.730   6.918
  117OSM   H13A12163   0.864   3.732   6.810
  117OSM   H13B12164   0.753   3.707   6.944
  117OSM   H13C12165   0.912   3.647   6.958
  117OSM    C1212166   0.803   3.969   6.917
  117OSM   H12A12167   0.801   4.050   6.988
  117OSM   H12B12168   0.705   3.924   6.913
  117OSM    C1112169   0.836   4.025   6.778
  117OSM   H11A12170   0.861   3.933   6.721
  117OSM   H11B12171   0.926   4.091   6.775
  117OSM      P12172   0.605   4.025   6.652
  117OSM    O1312173   0.588   3.894   6.712
  117OSM    O1412174   0.495   4.121   6.663
  117OSM    O1112175   0.652   4.012   6.500
  117OSM    O1212176   0.729   4.094   6.724
  117OSM    C1S12177   0.724   4.126   6.446
  117OSM    H1S12178   0.833   4.114   6.465
  117OSM    H1T12179   0.693   4.224   6.487
  117OSM     NF12180   0.773   4.232   6.230
  117OSM    HNF12181   0.737   4.324   6.223
  117OSM    C2S12182   0.688   4.132   6.295
  117OSM    H2S12183   0.715   4.033   6.253
  117OSM    C3S12184   0.533   4.131   6.267
  117OSM    H3S12185   0.499   4.222   6.321
  117OSM     O312186   0.460   4.021   6.313
  117OSM    HO312187   0.517   3.976   6.376
  117OSM    C4S12188   0.506   4.144   6.121
  117OSM    H4S12189   0.549   4.063   6.059
  117OSM    C5S12190   0.444   4.243   6.056
  117OSM    H5S12191   0.402   4.329   6.110
  117OSM    C6S12192   0.433   4.238   5.906
  117OSM    H6S12193   0.427   4.140   5.854
  117OSM    H6T12194   0.520   4.293   5.863
  117OSM    C7S12195   0.297   4.303   5.857
  117OSM    H7S12196   0.289   4.405   5.901
  117OSM    H7T12197   0.212   4.246   5.899
  117OSM    C8S12198   0.282   4.317   5.702
  117OSM    H8S12199   0.180   4.358   5.687
  117OSM    H8T12200   0.270   4.213   5.664
  117OSM    C9S12201   0.393   4.399   5.640
  117OSM    H9S12202   0.490   4.344   5.641
  117OSM    H9T12203   0.413   4.490   5.701
  117OSM   C10S12204   0.350   4.443   5.499
  117OSM   H10S12205   0.325   4.346   5.450
  117OSM   H10T12206   0.438   4.487   5.447
  117OSM   C11S12207   0.229   4.539   5.491
  117OSM   H11S12208   0.259   4.631   5.547
  117OSM   H11T12209   0.144   4.500   5.550
  117OSM   C12S12210   0.189   4.587   5.347
  117OSM   H12S12211   0.280   4.635   5.306
  117OSM   H12T12212   0.112   4.666   5.347
  117OSM   C13S12213   0.146   4.472   5.256
  117OSM   H13S12214   0.096   4.397   5.321
  117OSM   H13T12215   0.240   4.424   5.220
  117OSM   C14S12216   0.057   4.516   5.138
  117OSM   H14S12217   0.105   4.587   5.068
  117OSM   H14T12218   6.810   4.580   5.170
  117OSM   C15S12219   0.004   4.395   5.056
  117OSM   H15S12220   6.767   4.419   4.978
  117OSM   H15T12221   6.794   4.328   5.130
  117OSM   C16S12222   0.127   4.337   4.975
  117OSM   H16S12223   0.086   4.240   4.939
  117OSM   H16T12224   0.226   4.344   5.026
  117OSM   C17S12225   0.142   4.416   4.839
  117OSM   H17S12226   0.201   4.504   4.869
  117OSM   H17T12227   0.052   4.444   4.780
  117OSM   C18S12228   0.231   4.336   4.737
  117OSM   H18S12229   0.334   4.330   4.779
  117OSM   H18T12230   0.237   4.388   4.639
  117OSM   H18U12231   0.192   4.232   4.732
  117OSM    C1F12232   0.898   4.212   6.205
  117OSM     OF12233   0.957   4.109   6.230
  117OSM    C2F12234   0.973   4.329   6.149
  117OSM    H2F12235   1.036   4.375   6.228
  117OSM    H2G12236   0.895   4.398   6.110
  117OSM    C3F12237   1.073   4.284   6.040
  117OSM    H3F12238   1.026   4.204   5.978
  117OSM    H3G12239   1.164   4.239   6.085
  117OSM    C4F12240   1.132   4.389   5.950
  117OSM    H4F12241   1.066   4.445   5.880
  117OSM    H4G12242   1.201   4.331   5.885
  117OSM    C5F12243   1.218   4.476   6.048
  117OSM    H5F12244   1.268   4.407   6.119
  117OSM    H5G12245   1.150   4.539   6.109
  117OSM    C6F12246   1.327   4.552   5.971
  117OSM    H6F12247   1.395   4.477   5.925
  117OSM    H6G12248   1.395   4.606   6.039
  117OSM    C7F12249   1.274   4.660   5.865
  117OSM    H7F12250   1.223   4.736   5.929
  117OSM    H7G12251   1.193   4.612   5.806
  117OSM    C8F12252   1.384   4.720   5.769
  117OSM    H8F12253   1.451   4.774   5.839
  117OSM    H8G12254   1.334   4.794   5.703
  117OSM    C9F12255   1.469   4.617   5.685
  117OSM    H9F12256   1.478   4.517   5.731
  117OSM   C10F12257   1.536   4.646   5.569
  117OSM   H10F12258   1.596   4.561   5.536
  117OSM   C11F12259   1.540   4.780   5.504
  117OSM   H11F12260   1.639   4.809   5.461
  117OSM   H11G12261   1.508   4.863   5.570
  117OSM   C12F12262   1.443   4.787   5.377
  117OSM   H12F12263   1.454   4.895   5.353
  117OSM   H12G12264   1.339   4.770   5.413
  117OSM   C13F12265   1.463   4.696   5.258
  117OSM   H13F12266   1.368   4.704   5.202
  117OSM   H13G12267   1.476   4.590   5.289
  117OSM   C14F12268   1.581   4.741   5.166
  117OSM   H14F12269   1.678   4.723   5.216
  117OSM   H14G12270   1.570   4.849   5.140
  117OSM   C15F12271   1.579   4.660   5.038
  117OSM   H15F12272   1.584   4.551   5.059
  117OSM   H15G12273   1.659   4.688   4.966
  117OSM   C16F12274   1.445   4.685   4.959
  117OSM   H16F12275   1.431   4.794   4.946
  117OSM   H16G12276   1.358   4.649   5.019
  117OSM   C17F12277   1.453   4.620   4.821
  117OSM   H17F12278   1.496   4.519   4.840
  117OSM   H17G12279   1.532   4.671   4.761
  117OSM   C18F12280   1.313   4.605   4.747
  117OSM   H18F12281   1.328   4.580   4.640
  117OSM   H18G12282   1.265   4.705   4.752
  117OSM   H18H12283   1.251   4.538   4.809
  118OSM      N12284   0.456   3.543   6.694
  118OSM    C1512285   0.598   3.584   6.676
  118OSM   H15A12286   0.665   3.539   6.747
  118OSM   H15B12287   0.604   3.691   6.688
  118OSM   H15C12288   0.632   3.558   6.576
  118OSM    C1412289   0.416   3.559   6.841
  118OSM   H14A12290   0.433   3.658   6.879
  118OSM   H14B12291   0.483   3.502   6.904
  118OSM   H14C12292   0.312   3.536   6.862
  118OSM    C1312293   0.360   3.624   6.612
  118OSM   H13A12294   0.262   3.579   6.602
  118OSM   H13B12295   0.391   3.614   6.509
  118OSM   H13C12296   0.344   3.722   6.654
  118OSM    C1212297   0.437   3.397   6.652
  118OSM   H12A12298   0.332   3.372   6.655
  118OSM   H12B12299   0.490   3.337   6.724
  118OSM    C1112300   0.484   3.356   6.501
  118OSM   H11A12301   0.510   3.248   6.506
  118OSM   H11B12302   0.578   3.407   6.471
  118OSM      P12303   0.267   3.292   6.383
  118OSM    O1312304   0.296   3.161   6.450
  118OSM    O1412305   0.141   3.365   6.410
  118OSM    O1112306   0.270   3.267   6.228
  118OSM    O1212307   0.387   3.381   6.404
  118OSM    C1S12308   0.375   3.204   6.158
  118OSM    H1S12309   0.377   3.094   6.170
  118OSM    H1T12310   0.472   3.236   6.201
  118OSM     NF12311   0.468   3.150   5.941
  118OSM    HNF12312   0.549   3.204   5.917
  118OSM    C2S12313   0.368   3.230   6.007
  118OSM    H2S12314   0.265   3.200   5.975
  118OSM    C3S12315   0.381   3.381   5.988
  118OSM    H3S12316   0.483   3.416   6.016
  118OSM     O312317   0.294   3.470   6.055
  118OSM    HO312318   0.243   3.410   6.110
  118OSM    C4S12319   0.365   3.417   5.849
  118OSM    H4S12320   0.261   3.422   5.812
  118OSM    C5S12321   0.464   3.421   5.763
  118OSM    H5S12322   0.567   3.414   5.800
  118OSM    C6S12323   0.447   3.432   5.609
  118OSM    H6S12324   0.439   3.538   5.578
  118OSM    H6T12325   0.355   3.378   5.580
  118OSM    C7S12326   0.567   3.369   5.543
  118OSM    H7S12327   0.568   3.260   5.560
  118OSM    H7T12328   0.661   3.411   5.585
  118OSM    C8S12329   0.575   3.401   5.397
  118OSM    H8S12330   0.558   3.510   5.380
  118OSM    H8T12331   0.492   3.340   5.355
  118OSM    C9S12332   0.702   3.350   5.341
  118OSM    H9S12333   0.725   3.255   5.395
  118OSM    H9T12334   0.780   3.428   5.347
  118OSM   C10S12335   0.684   3.327   5.190
  118OSM   H10S12336   0.593   3.267   5.169
  118OSM   H10T12337   0.761   3.253   5.161
  118OSM   C11S12338   0.668   3.445   5.101
  118OSM   H11S12339   0.751   3.519   5.104
  118OSM   H11T12340   0.577   3.502   5.128
  118OSM   C12S12341   0.651   3.409   4.950
  118OSM   H12S12342   0.573   3.334   4.927
  118OSM   H12T12343   0.743   3.354   4.919
  118OSM   C13S12344   0.649   3.534   4.867
  118OSM   H13S12345   0.755   3.565   4.876
  118OSM   H13T12346   0.574   3.606   4.905
  118OSM   C14S12347   0.621   3.502   4.716
  118OSM   H14S12348   0.523   3.452   4.704
  118OSM   H14T12349   0.702   3.431   4.688
  118OSM   C15S12350   0.611   3.628   4.627
  118OSM   H15S12351   0.713   3.673   4.624
  118OSM   H15T12352   0.548   3.706   4.675
  118OSM   C16S12353   0.557   3.616   4.479
  118OSM   H16S12354   0.536   3.719   4.444
  118OSM   H16T12355   0.464   3.557   4.466
  118OSM   C17S12356   0.661   3.544   4.387
  118OSM   H17S12357   0.697   3.451   4.436
  118OSM   H17T12358   0.751   3.608   4.381
  118OSM   C18S12359   0.622   3.514   4.236
  118OSM   H18S12360   0.709   3.464   4.188
  118OSM   H18T12361   0.587   3.589   4.162
  118OSM   H18U12362   0.546   3.434   4.233
  118OSM    C1F12363   0.448   3.021   5.916
  118OSM     OF12364   0.348   2.962   5.959
  118OSM    C2F12365   0.547   2.957   5.838
  118OSM    H2F12366   0.493   2.910   5.752
  118OSM    H2G12367   0.594   2.876   5.899
  118OSM    C3F12368   0.658   3.043   5.779
  118OSM    H3F12369   0.720   3.080   5.863
  118OSM    H3G12370   0.610   3.134   5.735
  118OSM    C4F12371   0.740   2.971   5.667
  118OSM    H4F12372   0.683   2.960   5.572
  118OSM    H4G12373   0.764   2.870   5.706
  118OSM    C5F12374   0.866   3.054   5.636
  118OSM    H5F12375   0.926   3.075   5.727
  118OSM    H5G12376   0.843   3.157   5.599
  118OSM    C6F12377   0.958   2.978   5.540
  118OSM    H6F12378   0.949   2.869   5.561
  118OSM    H6G12379   1.065   3.006   5.548
  118OSM    C7F12380   0.912   3.000   5.400
  118OSM    H7F12381   0.913   3.109   5.378
  118OSM    H7G12382   0.814   2.950   5.387
  118OSM    C8F12383   0.993   2.941   5.283
  118OSM    H8F12384   0.998   2.833   5.307
  118OSM    H8G12385   1.099   2.974   5.294
  118OSM    C9F12386   0.940   2.981   5.147
  118OSM    H9F12387   0.873   2.904   5.106
  118OSM   C10F12388   0.981   3.090   5.077
  118OSM   H10F12389   0.937   3.118   4.980
  118OSM   C11F12390   1.074   3.201   5.129
  118OSM   H11F12391   1.136   3.172   5.217
  118OSM   H11G12392   1.019   3.287   5.174
  118OSM   C12F12393   1.165   3.255   5.014
  118OSM   H12F12394   1.231   3.174   4.977
  118OSM   H12G12395   1.217   3.344   5.055
  118OSM   C13F12396   1.096   3.316   4.889
  118OSM   H13F12397   1.031   3.402   4.916
  118OSM   H13G12398   1.027   3.245   4.839
  118OSM   C14F12399   1.194   3.380   4.785
  118OSM   H14F12400   1.275   3.310   4.757
  118OSM   H14G12401   1.234   3.464   4.845
  118OSM   C15F12402   1.118   3.430   4.662
  118OSM   H15F12403   1.017   3.461   4.697
  118OSM   H15G12404   1.098   3.350   4.587
  118OSM   C16F12405   1.186   3.548   4.597
  118OSM   H16F12406   1.267   3.495   4.543
  118OSM   H16G12407   1.226   3.616   4.675
  118OSM   C17F12408   1.089   3.636   4.505
  118OSM   H17F12409   1.048   3.574   4.423
  118OSM   H17G12410   1.159   3.710   4.462
  118OSM   C18F12411   0.976   3.701   4.577
  118OSM   H18F12412   0.920   3.754   4.497
  118OSM   H18G12413   1.008   3.772   4.657
  118OSM   H18H12414   0.911   3.627   4.626
  119OSM      N12415   3.514   1.059   6.674
  119OSM    C1512416   3.587   1.049   6.545
  119OSM   H15A12417   3.609   1.144   6.498
  119OSM   H15B12418   3.532   0.989   6.474
  119OSM   H15C12419   3.685   1.009   6.566
  119OSM    C1412420   3.525   0.922   6.743
  119OSM   H14A12421   3.515   0.840   6.673
  119OSM   H14B12422   3.458   0.918   6.828
  119OSM   H14C12423   3.627   0.914   6.776
  119OSM    C1312424   3.565   1.171   6.764
  119OSM   H13A12425   3.556   1.267   6.717
  119OSM   H13B12426   3.669   1.150   6.788
  119OSM   H13C12427   3.497   1.173   6.848
  119OSM    C1212428   3.374   1.106   6.648
  119OSM   H12A12429   3.376   1.206   6.609
  119OSM   H12B12430   3.319   1.111   6.741
  119OSM    C1112431   3.280   1.030   6.553
  119OSM   H11A12432   3.289   0.921   6.571
  119OSM   H11B12433   3.310   1.040   6.447
  119OSM      P12434   3.084   1.207   6.521
  119OSM    O1312435   2.950   1.214   6.584
  119OSM    O1412436   3.175   1.318   6.556
  119OSM    O1112437   3.059   1.198   6.372
  119OSM    O1212438   3.147   1.069   6.568
  119OSM    C1S12439   3.095   1.084   6.291
  119OSM    H1S12440   3.071   0.992   6.347
  119OSM    H1T12441   3.205   1.084   6.275
  119OSM     NF12442   3.099   0.971   6.082
  119OSM    HNF12443   3.190   0.978   6.042
  119OSM    C2S12444   3.052   1.093   6.147
  119OSM    H2S12445   2.941   1.093   6.142
  119OSM    C3S12446   3.101   1.228   6.080
  119OSM    H3S12447   3.212   1.237   6.079
  119OSM     O312448   3.052   1.334   6.162
  119OSM    HO312449   3.046   1.291   6.248
  119OSM    C4S12450   3.047   1.254   5.940
  119OSM    H4S12451   2.940   1.279   5.931
  119OSM    C5S12452   3.119   1.272   5.832
  119OSM    H5S12453   3.227   1.252   5.831
  119OSM    C6S12454   3.074   1.331   5.697
  119OSM    H6S12455   2.989   1.402   5.713
  119OSM    H6T12456   3.039   1.248   5.633
  119OSM    C7S12457   3.187   1.406   5.629
  119OSM    H7S12458   3.272   1.336   5.610
  119OSM    H7T12459   3.223   1.489   5.693
  119OSM    C8S12460   3.145   1.447   5.489
  119OSM    H8S12461   3.197   1.542   5.463
  119OSM    H8T12462   3.035   1.459   5.479
  119OSM    C9S12463   3.173   1.349   5.368
  119OSM    H9S12464   3.104   1.263   5.386
  119OSM    H9T12465   3.272   1.303   5.387
  119OSM   C10S12466   3.157   1.407   5.225
  119OSM   H10S12467   3.252   1.463   5.211
  119OSM   H10T12468   3.075   1.482   5.231
  119OSM   C11S12469   3.137   1.304   5.113
  119OSM   H11S12470   3.056   1.233   5.140
  119OSM   H11T12471   3.226   1.237   5.122
  119OSM   C12S12472   3.114   1.373   4.984
  119OSM   H12S12473   3.212   1.415   4.950
  119OSM   H12T12474   3.035   1.450   4.997
  119OSM   C13S12475   3.058   1.281   4.869
  119OSM   H13S12476   2.950   1.260   4.884
  119OSM   H13T12477   3.106   1.181   4.872
  119OSM   C14S12478   3.076   1.327   4.733
  119OSM   H14S12479   3.183   1.307   4.710
  119OSM   H14T12480   3.056   1.436   4.722
  119OSM   C15S12481   2.995   1.254   4.623
  119OSM   H15S12482   2.889   1.245   4.656
  119OSM   H15T12483   3.024   1.148   4.607
  119OSM   C16S12484   3.014   1.316   4.484
  119OSM   H16S12485   3.122   1.317   4.462
  119OSM   H16T12486   2.989   1.424   4.484
  119OSM   C17S12487   2.938   1.247   4.370
  119OSM   H17S12488   2.941   1.136   4.375
  119OSM   H17T12489   3.003   1.277   4.285
  119OSM   C18S12490   2.794   1.306   4.348
  119OSM   H18S12491   2.746   1.269   4.255
  119OSM   H18T12492   2.810   1.415   4.332
  119OSM   H18U12493   2.731   1.277   4.435
  119OSM    C1F12494   3.049   0.857   6.119
  119OSM     OF12495   2.951   0.855   6.196
  119OSM    C2F12496   3.130   0.735   6.086
  119OSM    H2F12497   3.192   0.698   6.171
  119OSM    H2G12498   3.211   0.765   6.016
  119OSM    C3F12499   3.047   0.616   6.027
  119OSM    H3F12500   2.980   0.572   6.104
  119OSM    H3G12501   3.122   0.541   5.996
  119OSM    C4F12502   2.969   0.655   5.903
  119OSM    H4F12503   2.913   0.748   5.927
  119OSM    H4G12504   2.896   0.578   5.868
  119OSM    C5F12505   3.059   0.678   5.789
  119OSM    H5F12506   3.121   0.588   5.768
  119OSM    H5G12507   3.131   0.761   5.809
  119OSM    C6F12508   2.999   0.711   5.654
  119OSM    H6F12509   2.928   0.795   5.668
  119OSM    H6G12510   2.947   0.620   5.616
  119OSM    C7F12511   3.108   0.758   5.551
  119OSM    H7F12512   3.184   0.678   5.532
  119OSM    H7G12513   3.165   0.847   5.585
  119OSM    C8F12514   3.042   0.783   5.410
  119OSM    H8F12515   2.941   0.828   5.415
  119OSM    H8G12516   3.038   0.680   5.370
  119OSM    C9F12517   3.122   0.883   5.328
  119OSM    H9F12518   3.228   0.888   5.356
  119OSM   C10F12519   3.087   0.940   5.209
  119OSM   H10F12520   3.157   1.016   5.171
  119OSM   C11F12521   2.959   0.913   5.134
  119OSM   H11F12522   2.899   1.004   5.150
  119OSM   H11G12523   2.905   0.825   5.175
  119OSM   C12F12524   3.001   0.909   4.980
  119OSM   H12F12525   3.060   0.817   4.961
  119OSM   H12G12526   3.075   0.988   4.955
  119OSM   C13F12527   2.892   0.923   4.872
  119OSM   H13F12528   2.864   1.029   4.854
  119OSM   H13G12529   2.811   0.861   4.916
  119OSM   C14F12530   2.938   0.873   4.738
  119OSM   H14F12531   2.966   0.766   4.730
  119OSM   H14G12532   3.028   0.927   4.703
  119OSM   C15F12533   2.822   0.903   4.636
  119OSM   H15F12534   2.832   1.011   4.612
  119OSM   H15G12535   2.726   0.885   4.688
  119OSM   C16F12536   2.826   0.817   4.508
  119OSM   H16F12537   2.843   0.709   4.524
  119OSM   H16G12538   2.911   0.842   4.441
  119OSM   C17F12539   2.695   0.828   4.432
  119OSM   H17F12540   2.713   0.793   4.328
  119OSM   H17G12541   2.655   0.931   4.425
  119OSM   C18F12542   2.583   0.729   4.492
  119OSM   H18F12543   2.505   0.721   4.414
  119OSM   H18G12544   2.534   0.773   4.581
  119OSM   H18H12545   2.627   0.628   4.505
  120OSM      N12546   6.294   4.788   6.420
  120OSM    C1512547   6.322   4.935   6.434
  120OSM   H15A12548   6.270   4.975   6.520
  120OSM   H15B12549   6.299   5.001   6.351
  120OSM   H15C12550   6.426   4.962   6.448
  120OSM    C1412551   6.352   4.739   6.293
  120OSM   H14A12552   6.302   4.784   6.208
  120OSM   H14B12553   6.344   4.632   6.289
  120OSM   H14C12554   6.458   4.759   6.298
  120OSM    C1312555   6.368   4.704   6.524
  120OSM   H13A12556   6.313   4.707   6.617
  120OSM   H13B12557   6.463   4.752   6.543
  120OSM   H13C12558   6.372   4.600   6.495
  120OSM    C1212559   6.146   4.769   6.420
  120OSM   H12A12560   6.123   4.672   6.379
  120OSM   H12B12561   6.106   4.840   6.349
  120OSM    C1112562   6.084   4.772   6.565
  120OSM   H11A12563   6.136   4.697   6.629
  120OSM   H11B12564   5.983   4.739   6.532
  120OSM      P12565   5.969   4.972   6.696
  120OSM    O1312566   5.913   4.882   6.805
  120OSM    O1412567   6.023   5.105   6.728
  120OSM    O1112568   5.871   4.991   6.578
  120OSM    O1212569   6.085   4.899   6.623
  120OSM    C1S12570   5.899   5.078   6.472
  120OSM    H1S12571   6.008   5.074   6.450
  120OSM    H1T12572   5.869   5.181   6.502
  120OSM     NF12573   5.866   5.115   6.222
  120OSM    HNF12574   5.802   5.177   6.178
  120OSM    C2S12575   5.820   5.041   6.340
  120OSM    H2S12576   5.847   4.935   6.323
  120OSM    C3S12577   5.668   5.042   6.362
  120OSM    H3S12578   5.652   5.151   6.367
  120OSM     O312579   5.631   4.972   6.483
  120OSM    HO312580   5.714   4.970   6.531
  120OSM    C4S12581   5.583   4.981   6.242
  120OSM    H4S12582   5.632   4.895   6.194
  120OSM    C5S12583   5.460   5.015   6.194
  120OSM    H5S12584   5.386   5.075   6.249
  120OSM    C6S12585   5.399   4.947   6.073
  120OSM    H6S12586   5.301   4.899   6.095
  120OSM    H6T12587   5.465   4.860   6.052
  120OSM    C7S12588   5.408   5.029   5.945
  120OSM    H7S12589   5.515   5.026   5.916
  120OSM    H7T12590   5.369   5.132   5.958
  120OSM    C8S12591   5.323   4.984   5.832
  120OSM    H8S12592   5.214   4.990   5.850
  120OSM    H8T12593   5.350   4.880   5.804
  120OSM    C9S12594   5.345   5.083   5.709
  120OSM    H9S12595   5.441   5.066   5.655
  120OSM    H9T12596   5.341   5.186   5.750
  120OSM   C10S12597   5.236   5.063   5.600
  120OSM   H10S12598   5.145   5.108   5.647
  120OSM   H10T12599   5.214   4.959   5.568
  120OSM   C11S12600   5.269   5.132   5.464
  120OSM   H11S12601   5.355   5.085   5.412
  120OSM   H11T12602   5.282   5.242   5.478
  120OSM   C12S12603   5.152   5.124   5.366
  120OSM   H12S12604   5.066   5.190   5.388
  120OSM   H12T12605   5.114   5.020   5.377
  120OSM   C13S12606   5.194   5.151   5.221
  120OSM   H13S12607   5.293   5.105   5.205
  120OSM   H13T12608   5.209   5.261   5.213
  120OSM   C14S12609   5.098   5.104   5.120
  120OSM   H14S12610   5.133   5.145   5.022
  120OSM   H14T12611   4.997   5.150   5.130
  120OSM   C15S12612   5.093   4.946   5.104
  120OSM   H15S12613   5.053   4.902   5.198
  120OSM   H15T12614   5.197   4.907   5.097
  120OSM   C16S12615   5.025   4.901   4.972
  120OSM   H16S12616   4.934   4.965   4.966
  120OSM   H16T12617   4.980   4.800   4.986
  120OSM   C17S12618   5.100   4.923   4.839
  120OSM   H17S12619   5.165   4.835   4.818
  120OSM   H17T12620   5.172   5.007   4.840
  120OSM   C18S12621   5.011   4.953   4.720
  120OSM   H18S12622   5.077   4.974   4.632
  120OSM   H18T12623   4.948   5.044   4.730
  120OSM   H18U12624   4.939   4.869   4.708
  120OSM    C1F12625   5.994   5.104   6.182
  120OSM     OF12626   6.064   5.010   6.222
  120OSM    C2F12627   6.038   5.205   6.080
  120OSM    H2F12628   6.105   5.274   6.136
  120OSM    H2G12629   5.944   5.258   6.053
  120OSM    C3F12630   6.118   5.142   5.964
  120OSM    H3F12631   6.046   5.082   5.904
  120OSM    H3G12632   6.193   5.066   5.993
  120OSM    C4F12633   6.171   5.246   5.863
  120OSM    H4F12634   6.246   5.194   5.800
  120OSM    H4G12635   6.223   5.329   5.916
  120OSM    C5F12636   6.067   5.316   5.773
  120OSM    H5F12637   6.006   5.382   5.838
  120OSM    H5G12638   5.998   5.238   5.734
  120OSM    C6F12639   6.128   5.394   5.658
  120OSM    H6F12640   6.215   5.450   5.699
  120OSM    H6G12641   6.043   5.458   5.625
  120OSM    C7F12642   6.165   5.308   5.538
  120OSM    H7F12643   6.106   5.215   5.535
  120OSM    H7G12644   6.270   5.274   5.548
  120OSM    C8F12645   6.167   5.399   5.410
  120OSM    H8F12646   6.218   5.346   5.327
  120OSM    H8G12647   6.228   5.488   5.438
  120OSM    C9F12648   6.023   5.444   5.366
  120OSM    H9F12649   5.973   5.529   5.416
  120OSM   C10F12650   5.962   5.387   5.259
  120OSM   H10F12651   5.862   5.419   5.226
  120OSM   C11F12652   6.002   5.264   5.182
  120OSM   H11F12653   5.924   5.186   5.198
  120OSM   H11G12654   6.100   5.220   5.211
  120OSM   C12F12655   6.013   5.288   5.038
  120OSM   H12F12656   5.913   5.307   4.993
  120OSM   H12G12657   6.048   5.195   4.988
  120OSM   C13F12658   6.107   5.404   5.000
  120OSM   H13F12659   6.208   5.380   5.039
  120OSM   H13G12660   6.076   5.499   5.049
  120OSM   C14F12661   6.112   5.428   4.845
  120OSM   H14F12662   6.006   5.427   4.814
  120OSM   H14G12663   6.169   5.343   4.800
  120OSM   C15F12664   6.179   5.557   4.809
  120OSM   H15F12665   6.288   5.538   4.799
  120OSM   H15G12666   6.157   5.619   4.899
  120OSM   C16F12667   6.138   5.635   4.683
  120OSM   H16F12668   6.142   5.740   4.718
  120OSM   H16G12669   6.033   5.606   4.661
  120OSM   C17F12670   6.229   5.625   4.566
  120OSM   H17F12671   6.326   5.668   4.601
  120OSM   H17G12672   6.188   5.689   4.486
  120OSM   C18F12673   6.265   5.482   4.519
  120OSM   H18F12674   6.189   5.427   4.459
  120OSM   H18G12675   6.295   5.425   4.610
  120OSM   H18H12676   6.352   5.473   4.449
  121OSM      N12677   0.343   1.178   6.570
  121OSM    C1512678   0.379   1.187   6.421
  121OSM   H15A12679   0.458   1.261   6.417
  121OSM   H15B12680   0.297   1.216   6.357
  121OSM   H15C12681   0.412   1.087   6.396
  121OSM    C1412682   0.469   1.147   6.644
  121OSM   H14A12683   0.511   1.051   6.614
  121OSM   H14B12684   0.457   1.136   6.751
  121OSM   H14C12685   0.540   1.227   6.628
  121OSM    C1312686   0.292   1.306   6.617
  121OSM   H13A12687   0.371   1.374   6.646
  121OSM   H13B12688   0.235   1.289   6.707
  121OSM   H13C12689   0.224   1.344   6.542
  121OSM    C1212690   0.246   1.068   6.580
  121OSM   H12A12691   0.296   0.978   6.547
  121OSM   H12B12692   0.150   1.081   6.533
  121OSM    C1112693   0.195   1.035   6.723
  121OSM   H11A12694   0.286   1.034   6.787
  121OSM   H11B12695   0.166   0.929   6.735
  121OSM      P12696   6.805   1.174   6.725
  121OSM    O1312697   6.698   1.124   6.815
  121OSM    O1412698   6.816   1.319   6.711
  121OSM    O1112699   6.801   1.109   6.584
  121OSM    O1212700   0.110   1.125   6.779
  121OSM    C1S12701   6.710   1.166   6.487
  121OSM    H1S12702   6.737   1.273   6.472
  121OSM    H1T12703   6.606   1.147   6.522
  121OSM     NF12704   6.651   1.142   6.248
  121OSM    HNF12705   6.575   1.081   6.223
  121OSM    C2S12706   6.733   1.080   6.349
  121OSM    H2S12707   6.837   1.085   6.311
  121OSM    C3S12708   6.696   0.937   6.386
  121OSM    H3S12709   6.596   0.936   6.433
  121OSM     O312710   6.780   0.876   6.488
  121OSM    HO312711   6.803   0.958   6.532
  121OSM    C4S12712   6.688   0.858   6.263
  121OSM    H4S12713   6.589   0.835   6.221
  121OSM    C5S12714   6.799   0.808   6.199
  121OSM    H5S12715   0.063   0.816   6.239
  121OSM    C6S12716   6.802   0.728   6.078
  121OSM    H6S12717   0.003   0.629   6.109
  121OSM    H6T12718   0.041   0.766   6.008
  121OSM    C7S12719   6.666   0.722   5.995
  121OSM    H7S12720   6.628   0.824   5.972
  121OSM    H7T12721   6.593   0.670   6.060
  121OSM    C8S12722   6.682   0.650   5.858
  121OSM    H8S12723   6.728   0.550   5.872
  121OSM    H8T12724   6.750   0.697   5.784
  121OSM    C9S12725   6.543   0.621   5.785
  121OSM    H9S12726   6.505   0.709   5.729
  121OSM    H9T12727   6.464   0.598   5.860
  121OSM   C10S12728   6.545   0.506   5.684
  121OSM   H10S12729   6.440   0.490   5.651
  121OSM   H10T12730   6.577   0.409   5.726
  121OSM   C11S12731   6.616   0.547   5.555
  121OSM   H11S12732   6.717   0.588   5.573
  121OSM   H11T12733   6.551   0.628   5.515
  121OSM   C12S12734   6.624   0.435   5.451
  121OSM   H12S12735   6.525   0.395   5.419
  121OSM   H12T12736   6.685   0.345   5.472
  121OSM   C13S12737   6.676   0.491   5.322
  121OSM   H13S12738   6.780   0.516   5.351
  121OSM   H13T12739   6.605   0.574   5.303
  121OSM   C14S12740   6.678   0.394   5.205
  121OSM   H14S12741   6.580   0.342   5.204
  121OSM   H14T12742   6.755   0.317   5.224
  121OSM   C15S12743   6.705   0.466   5.069
  121OSM   H15S12744   6.809   0.502   5.054
  121OSM   H15T12745   6.643   0.556   5.047
  121OSM   C16S12746   6.691   0.358   4.963
  121OSM   H16S12747   6.608   0.287   4.985
  121OSM   H16T12748   6.775   0.286   4.948
  121OSM   C17S12749   6.662   0.429   4.833
  121OSM   H17S12750   6.751   0.480   4.791
  121OSM   H17T12751   6.580   0.503   4.847
  121OSM   C18S12752   6.602   0.331   4.722
  121OSM   H18S12753   6.602   0.393   4.629
  121OSM   H18T12754   6.498   0.306   4.752
  121OSM   H18U12755   6.660   0.238   4.707
  121OSM    C1F12756   6.671   1.265   6.196
  121OSM     OF12757   6.768   1.328   6.225
  121OSM    C2F12758   6.565   1.318   6.104
  121OSM    H2F12759   6.621   1.365   6.020
  121OSM    H2G12760   6.506   1.396   6.158
  121OSM    C3F12761   6.479   1.198   6.051
  121OSM    H3F12762   6.395   1.174   6.119
  121OSM    H3G12763   6.539   1.106   6.031
  121OSM    C4F12764   6.413   1.237   5.915
  121OSM    H4F12765   6.489   1.240   5.835
  121OSM    H4G12766   6.375   1.341   5.923
  121OSM    C5F12767   6.299   1.149   5.871
  121OSM    H5F12768   6.245   1.199   5.788
  121OSM    H5G12769   6.226   1.146   5.955
  121OSM    C6F12770   6.358   1.006   5.837
  121OSM    H6F12771   6.399   0.964   5.932
  121OSM    H6G12772   6.441   1.009   5.763
  121OSM    C7F12773   6.250   0.913   5.786
  121OSM    H7F12774   6.161   0.927   5.851
  121OSM    H7G12775   6.287   0.809   5.794
  121OSM    C8F12776   6.207   0.953   5.644
  121OSM    H8F12777   6.292   0.958   5.574
  121OSM    H8G12778   6.173   1.058   5.639
  121OSM    C9F12779   6.102   0.853   5.599
  121OSM    H9F12780   6.010   0.852   5.660
  121OSM   C10F12781   6.108   0.756   5.501
  121OSM   H10F12782   6.012   0.706   5.483
  121OSM   C11F12783   6.209   0.741   5.391
  121OSM   H11F12784   6.279   0.828   5.394
  121OSM   H11G12785   6.163   0.733   5.290
  121OSM   C12F12786   6.296   0.621   5.421
  121OSM   H12F12787   6.332   0.619   5.526
  121OSM   H12G12788   6.391   0.622   5.365
  121OSM   C13F12789   6.233   0.484   5.369
  121OSM   H13F12790   6.126   0.488   5.398
  121OSM   H13G12791   6.280   0.396   5.418
  121OSM   C14F12792   6.237   0.465   5.216
  121OSM   H14F12793   6.339   0.496   5.186
  121OSM   H14G12794   6.164   0.531   5.163
  121OSM   C15F12795   6.224   0.325   5.154
  121OSM   H15F12796   6.118   0.293   5.165
  121OSM   H15G12797   6.293   0.252   5.201
  121OSM   C16F12798   6.262   0.331   5.009
  121OSM   H16F12799   6.369   0.358   5.010
  121OSM   H16G12800   6.203   0.411   4.960
  121OSM   C17F12801   6.258   0.190   4.941
  121OSM   H17F12802   6.318   0.114   4.995
  121OSM   H17G12803   6.306   0.208   4.842
  121OSM   C18F12804   6.115   0.129   4.911
  121OSM   H18F12805   6.050   0.138   5.000
  121OSM   H18G12806   6.117   0.027   4.867
  121OSM   H18H12807   6.070   0.193   4.832
  122OSM      N12808   6.754   4.364   6.690
  122OSM    C1512809   0.006   4.441   6.596
  122OSM   H15A12810   6.818   4.417   6.494
  122OSM   H15B12811   0.104   4.397   6.608
  122OSM   H15C12812   0.013   4.546   6.616
  122OSM    C1412813   6.803   4.389   6.832
  122OSM   H14A12814   0.065   4.354   6.846
  122OSM   H14B12815   6.745   4.330   6.901
  122OSM   H14C12816   6.798   4.495   6.853
  122OSM    C1312817   6.619   4.427   6.685
  122OSM   H13A12818   6.580   4.435   6.584
  122OSM   H13B12819   6.625   4.530   6.715
  122OSM   H13C12820   6.543   4.392   6.753
  122OSM    C1212821   6.766   4.217   6.652
  122OSM   H12A12822   6.710   4.155   6.719
  122OSM   H12B12823   0.032   4.187   6.656
  122OSM    C1112824   6.715   4.173   6.514
  122OSM   H11A12825   6.722   4.064   6.493
  122OSM   H11B12826   6.791   4.209   6.442
  122OSM      P12827   6.455   4.152   6.535
  122OSM    O1312828   6.493   4.014   6.576
  122OSM    O1412829   6.395   4.250   6.629
  122OSM    O1112830   6.361   4.143   6.410
  122OSM    O1212831   6.585   4.229   6.485
  122OSM    C1S12832   6.423   4.105   6.280
  122OSM    H1S12833   6.442   3.996   6.267
  122OSM    H1T12834   6.526   4.147   6.276
  122OSM     NF12835   6.406   4.108   6.036
  122OSM    HNF12836   6.434   4.169   5.961
  122OSM    C2S12837   6.352   4.167   6.154
  122OSM    H2S12838   6.248   4.129   6.165
  122OSM    C3S12839   6.349   4.327   6.157
  122OSM    H3S12840   6.454   4.362   6.147
  122OSM     O312841   6.288   4.378   6.276
  122OSM    HO312842   6.308   4.307   6.337
  122OSM    C4S12843   6.285   4.397   6.043
  122OSM    H4S12844   6.363   4.436   5.976
  122OSM    C5S12845   6.159   4.430   6.010
  122OSM    H5S12846   6.074   4.423   6.081
  122OSM    C6S12847   6.115   4.513   5.892
  122OSM    H6S12848   6.196   4.553   5.827
  122OSM    H6T12849   6.051   4.601   5.914
  122OSM    C7S12850   6.039   4.415   5.798
  122OSM    H7S12851   5.960   4.358   5.852
  122OSM    H7T12852   6.119   4.347   5.761
  122OSM    C8S12853   5.979   4.497   5.679
  122OSM    H8S12854   6.058   4.559   5.631
  122OSM    H8T12855   5.914   4.573   5.728
  122OSM    C9S12856   5.905   4.423   5.578
  122OSM    H9S12857   5.824   4.359   5.619
  122OSM    H9T12858   5.970   4.349   5.526
  122OSM   C10S12859   5.844   4.510   5.464
  122OSM   H10S12860   5.916   4.590   5.436
  122OSM   H10T12861   5.748   4.556   5.496
  122OSM   C11S12862   5.814   4.439   5.331
  122OSM   H11S12863   5.731   4.365   5.338
  122OSM   H11T12864   5.911   4.390   5.308
  122OSM   C12S12865   5.779   4.543   5.221
  122OSM   H12S12866   5.868   4.607   5.202
  122OSM   H12T12867   5.687   4.597   5.253
  122OSM   C13S12868   5.765   4.483   5.086
  122OSM   H13S12869   5.700   4.393   5.078
  122OSM   H13T12870   5.865   4.455   5.046
  122OSM   C14S12871   5.710   4.577   4.973
  122OSM   H14S12872   5.768   4.668   4.949
  122OSM   H14T12873   5.607   4.604   5.005
  122OSM   C15S12874   5.695   4.500   4.841
  122OSM   H15S12875   5.652   4.572   4.769
  122OSM   H15T12876   5.624   4.414   4.848
  122OSM   C16S12877   5.825   4.437   4.790
  122OSM   H16S12878   5.846   4.335   4.829
  122OSM   H16T12879   5.905   4.500   4.835
  122OSM   C17S12880   5.835   4.447   4.640
  122OSM   H17S12881   5.933   4.396   4.626
  122OSM   H17T12882   5.831   4.551   4.601
  122OSM   C18S12883   5.732   4.354   4.576
  122OSM   H18S12884   5.744   4.252   4.618
  122OSM   H18T12885   5.755   4.352   4.467
  122OSM   H18U12886   5.628   4.387   4.595
  122OSM    C1F12887   6.378   3.980   6.002
  122OSM     OF12888   6.298   3.920   6.067
  122OSM    C2F12889   6.445   3.926   5.884
  122OSM    H2F12890   6.480   3.823   5.906
  122OSM    H2G12891   6.528   3.995   5.861
  122OSM    C3F12892   6.352   3.924   5.758
  122OSM    H3F12893   6.309   4.026   5.749
  122OSM    H3G12894   6.270   3.849   5.769
  122OSM    C4F12895   6.432   3.884   5.635
  122OSM    H4F12896   6.433   3.775   5.617
  122OSM    H4G12897   6.534   3.927   5.650
  122OSM    C5F12898   6.360   3.937   5.502
  122OSM    H5F12899   6.350   4.048   5.503
  122OSM    H5G12900   6.254   3.905   5.492
  122OSM    C6F12901   6.432   3.884   5.378
  122OSM    H6F12902   6.438   3.774   5.369
  122OSM    H6G12903   6.536   3.922   5.377
  122OSM    C7F12904   6.358   3.934   5.255
  122OSM    H7F12905   6.355   4.045   5.247
  122OSM    H7G12906   6.257   3.889   5.267
  122OSM    C8F12907   6.403   3.869   5.115
  122OSM    H8F12908   6.320   3.871   5.041
  122OSM    H8G12909   6.428   3.762   5.127
  122OSM    C9F12910   6.528   3.929   5.065
  122OSM    H9F12911   6.603   3.936   5.145
  122OSM   C10F12912   6.569   3.956   4.937
  122OSM   H10F12913   6.668   4.001   4.921
  122OSM   C11F12914   6.478   3.932   4.816
  122OSM   H11F12915   6.414   3.842   4.828
  122OSM   H11G12916   6.557   3.905   4.743
  122OSM   C12F12917   6.396   4.054   4.775
  122OSM   H12F12918   6.469   4.128   4.735
  122OSM   H12G12919   6.341   4.089   4.865
  122OSM   C13F12920   6.289   4.018   4.672
  122OSM   H13F12921   6.222   3.939   4.710
  122OSM   H13G12922   6.336   3.973   4.581
  122OSM   C14F12923   6.204   4.139   4.622
  122OSM   H14F12924   6.270   4.220   4.585
  122OSM   H14G12925   6.153   4.177   4.712
  122OSM   C15F12926   6.107   4.110   4.502
  122OSM   H15F12927   6.163   4.054   4.424
  122OSM   H15G12928   6.076   4.212   4.469
  122OSM   C16F12929   6.000   4.017   4.542
  122OSM   H16F12930   5.949   4.045   4.637
  122OSM   H16G12931   6.040   3.913   4.550
  122OSM   C17F12932   5.874   4.023   4.450
  122OSM   H17F12933   5.820   4.120   4.453
  122OSM   H17G12934   5.799   3.947   4.483
  122OSM   C18F12935   5.917   3.993   4.302
  122OSM   H18F12936   5.841   4.032   4.232
  122OSM   H18G12937   5.934   3.885   4.283
  122OSM   H18H12938   6.006   4.051   4.270
  123OSM      N12939   2.629   3.063   2.359
  123OSM    C1512940   2.775   3.093   2.376
  123OSM   H15A12941   2.807   3.050   2.469
  123OSM   H15B12942   2.805   3.197   2.383
  123OSM   H15C12943   2.843   3.062   2.298
  123OSM    C1412944   2.558   3.093   2.485
  123OSM   H14A12945   2.451   3.088   2.469
  123OSM   H14B12946   2.579   3.195   2.512
  123OSM   H14C12947   2.580   3.025   2.567
  123OSM    C1312948   2.566   3.140   2.244
  123OSM   H13A12949   2.468   3.104   2.219
  123OSM   H13B12950   2.627   3.126   2.156
  123OSM   H13C12951   2.552   3.244   2.272
  123OSM    C1212952   2.624   2.918   2.320
  123OSM   H12A12953   2.697   2.853   2.366
  123OSM   H12B12954   2.653   2.918   2.216
  123OSM    C1112955   2.492   2.837   2.317
  123OSM   H11A12956   2.419   2.890   2.252
  123OSM   H11B12957   2.441   2.823   2.414
  123OSM      P12958   2.587   2.597   2.296
  123OSM    O1312959   2.579   2.486   2.198
  123OSM    O1412960   2.721   2.636   2.349
  123OSM    O1112961   2.496   2.561   2.411
  123OSM    O1212962   2.516   2.722   2.235
  123OSM    C1S12963   2.357   2.529   2.405
  123OSM    H1S12964   2.335   2.462   2.318
  123OSM    H1T12965   2.302   2.624   2.387
  123OSM     NF12966   2.156   2.426   2.493
  123OSM    HNF12967   2.077   2.483   2.514
  123OSM    C2S12968   2.284   2.480   2.524
  123OSM    H2S12969   2.349   2.399   2.564
  123OSM    C3S12970   2.297   2.593   2.632
  123OSM    H3S12971   2.234   2.677   2.596
  123OSM     O312972   2.435   2.645   2.646
  123OSM    HO312973   2.475   2.625   2.561
  123OSM    C4S12974   2.255   2.538   2.767
  123OSM    H4S12975   2.346   2.494   2.811
  123OSM    C5S12976   2.140   2.561   2.840
  123OSM    H5S12977   2.072   2.636   2.799
  123OSM    C6S12978   2.134   2.510   2.983
  123OSM    H6S12979   2.210   2.430   2.990
  123OSM    H6T12980   2.035   2.461   2.995
  123OSM    C7S12981   2.159   2.618   3.090
  123OSM    H7S12982   2.068   2.679   3.108
  123OSM    H7T12983   2.247   2.678   3.057
  123OSM    C8S12984   2.194   2.561   3.230
  123OSM    H8S12985   2.286   2.500   3.235
  123OSM    H8T12986   2.118   2.482   3.246
  123OSM    C9S12987   2.185   2.652   3.349
  123OSM    H9S12988   2.082   2.693   3.345
  123OSM    H9T12989   2.258   2.736   3.345
  123OSM   C10S12990   2.228   2.570   3.471
  123OSM   H10S12991   2.338   2.555   3.472
  123OSM   H10T12992   2.164   2.480   3.472
  123OSM   C11S12993   2.210   2.662   3.584
  123OSM   H11S12994   2.111   2.706   3.608
  123OSM   H11T12995   2.267   2.755   3.567
  123OSM   C12S12996   2.268   2.601   3.716
  123OSM   H12S12997   2.375   2.574   3.705
  123OSM   H12T12998   2.203   2.517   3.747
  123OSM   C13S12999   2.276   2.713   3.826
  123OSM   H13S13000   2.177   2.762   3.817
  123OSM   H13T13001   2.361   2.778   3.798
  123OSM   C14S13002   2.287   2.648   3.966
  123OSM   H14S13003   2.337   2.713   4.041
  123OSM   H14T13004   2.344   2.554   3.953
  123OSM   C15S13005   2.153   2.615   4.040
  123OSM   H15S13006   2.079   2.579   3.966
  123OSM   H15T13007   2.105   2.711   4.070
  123OSM   C16S13008   2.180   2.509   4.154
  123OSM   H16S13009   2.254   2.543   4.230
  123OSM   H16T13010   2.232   2.418   4.117
  123OSM   C17S13011   2.052   2.494   4.230
  123OSM   H17S13012   1.996   2.590   4.232
  123OSM   H17T13013   2.074   2.457   4.332
  123OSM   C18S13014   1.976   2.386   4.158
  123OSM   H18S13015   1.959   2.400   4.049
  123OSM   H18T13016   1.873   2.385   4.199
  123OSM   H18U13017   2.024   2.288   4.180
  123OSM    C1F13018   2.144   2.306   2.441
  123OSM     OF13019   2.246   2.241   2.425
  123OSM    C2F13020   2.009   2.258   2.420
  123OSM    H2F13021   1.994   2.241   2.311
  123OSM    H2G13022   1.937   2.340   2.441
  123OSM    C3F13023   1.962   2.146   2.515
  123OSM    H3F13024   2.011   2.049   2.492
  123OSM    H3G13025   1.854   2.139   2.489
  123OSM    C4F13026   1.981   2.183   2.666
  123OSM    H4F13027   1.930   2.281   2.679
  123OSM    H4G13028   2.090   2.202   2.675
  123OSM    C5F13029   1.929   2.089   2.775
  123OSM    H5F13030   1.933   1.986   2.732
  123OSM    H5G13031   1.821   2.102   2.797
  123OSM    C6F13032   2.005   2.104   2.908
  123OSM    H6F13033   2.007   2.215   2.913
  123OSM    H6G13034   2.111   2.073   2.905
  123OSM    C7F13035   1.924   2.040   3.029
  123OSM    H7F13036   1.917   1.929   3.033
  123OSM    H7G13037   1.821   2.078   3.015
  123OSM    C8F13038   1.973   2.081   3.172
  123OSM    H8F13039   2.083   2.061   3.176
  123OSM    H8G13040   1.928   2.016   3.250
  123OSM    C9F13041   1.937   2.225   3.199
  123OSM    H9F13042   2.005   2.304   3.166
  123OSM   C10F13043   1.821   2.257   3.267
  123OSM   H10F13044   1.812   2.366   3.266
  123OSM   C11F13045   1.705   2.180   3.328
  123OSM   H11F13046   1.698   2.083   3.273
  123OSM   H11G13047   1.610   2.237   3.319
  123OSM   C12F13048   1.738   2.141   3.474
  123OSM   H12F13049   1.758   2.228   3.539
  123OSM   H12G13050   1.830   2.078   3.474
  123OSM   C13F13051   1.616   2.068   3.533
  123OSM   H13F13052   1.576   1.990   3.463
  123OSM   H13G13053   1.533   2.140   3.550
  123OSM   C14F13054   1.654   2.008   3.665
  123OSM   H14F13055   1.663   2.091   3.738
  123OSM   H14G13056   1.748   1.949   3.663
  123OSM   C15F13057   1.552   1.910   3.723
  123OSM   H15F13058   1.609   1.869   3.809
  123OSM   H15G13059   1.516   1.830   3.655
  123OSM   C16F13060   1.427   1.990   3.762
  123OSM   H16F13061   1.374   2.017   3.668
  123OSM   H16G13062   1.450   2.085   3.816
  123OSM   C17F13063   1.328   1.913   3.850
  123OSM   H17F13064   1.363   1.858   3.940
  123OSM   H17G13065   1.287   1.827   3.793
  123OSM   C18F13066   1.210   1.991   3.917
  123OSM   H18F13067   1.137   1.917   3.954
  123OSM   H18G13068   1.152   2.061   3.854
  123OSM   H18H13069   1.243   2.036   4.013
  124OSM      N13070   2.940   3.900   2.396
  124OSM    C1513071   2.995   3.808   2.296
  124OSM   H15A13072   2.997   3.709   2.337
  124OSM   H15B13073   3.092   3.839   2.261
  124OSM   H15C13074   2.925   3.795   2.215
  124OSM    C1413075   3.023   3.914   2.521
  124OSM   H14A13076   2.985   3.989   2.588
  124OSM   H14B13077   3.123   3.952   2.507
  124OSM   H14C13078   3.032   3.818   2.569
  124OSM    C1313079   2.919   4.032   2.330
  124OSM   H13A13080   2.882   4.020   2.230
  124OSM   H13B13081   3.013   4.086   2.324
  124OSM   H13C13082   2.847   4.086   2.390
  124OSM    C1213083   2.804   3.845   2.427
  124OSM   H12A13084   2.741   3.822   2.343
  124OSM   H12B13085   2.745   3.909   2.491
  124OSM    C1113086   2.801   3.711   2.513
  124OSM   H11A13087   2.694   3.683   2.522
  124OSM   H11B13088   2.835   3.731   2.617
  124OSM      P13089   2.798   3.477   2.393
  124OSM    O1313090   2.710   3.505   2.275
  124OSM    O1413091   2.900   3.370   2.375
  124OSM    O1113092   2.709   3.413   2.513
  124OSM    O1213093   2.868   3.599   2.453
  124OSM    C1S13094   2.753   3.402   2.645
  124OSM    H1S13095   2.838   3.469   2.667
  124OSM    H1T13096   2.773   3.294   2.663
  124OSM     NF13097   2.684   3.396   2.879
  124OSM    HNF13098   2.650   3.313   2.923
  124OSM    C2S13099   2.637   3.430   2.748
  124OSM    H2S13100   2.612   3.538   2.741
  124OSM    C3S13101   2.496   3.369   2.699
  124OSM    H3S13102   2.502   3.259   2.693
  124OSM     O313103   2.452   3.405   2.566
  124OSM    HO313104   2.536   3.437   2.530
  124OSM    C4S13105   2.380   3.396   2.801
  124OSM    H4S13106   2.388   3.331   2.890
  124OSM    C5S13107   2.315   3.510   2.818
  124OSM    H5S13108   2.322   3.599   2.753
  124OSM    C6S13109   2.226   3.523   2.940
  124OSM    H6S13110   2.190   3.427   2.981
  124OSM    H6T13111   2.133   3.572   2.905
  124OSM    C7S13112   2.285   3.592   3.063
  124OSM    H7S13113   2.203   3.601   3.138
  124OSM    H7T13114   2.318   3.694   3.037
  124OSM    C8S13115   2.404   3.529   3.131
  124OSM    H8S13116   2.494   3.547   3.067
  124OSM    H8T13117   2.391   3.419   3.136
  124OSM    C9S13118   2.420   3.587   3.262
  124OSM    H9S13119   2.399   3.696   3.253
  124OSM    H9T13120   2.524   3.590   3.301
  124OSM   C10S13121   2.323   3.528   3.371
  124OSM   H10S13122   2.340   3.419   3.387
  124OSM   H10T13123   2.215   3.536   3.348
  124OSM   C11S13124   2.340   3.591   3.511
  124OSM   H11S13125   2.322   3.700   3.506
  124OSM   H11T13126   2.446   3.594   3.544
  124OSM   C12S13127   2.256   3.523   3.616
  124OSM   H12S13128   2.297   3.419   3.610
  124OSM   H12T13129   2.149   3.515   3.589
  124OSM   C13S13130   2.275   3.591   3.755
  124OSM   H13S13131   2.384   3.584   3.773
  124OSM   H13T13132   2.224   3.529   3.832
  124OSM   C14S13133   2.211   3.723   3.790
  124OSM   H14S13134   2.101   3.733   3.778
  124OSM   H14T13135   2.263   3.804   3.734
  124OSM   C15S13136   2.229   3.774   3.933
  124OSM   H15S13137   2.338   3.790   3.943
  124OSM   H15T13138   2.195   3.698   4.006
  124OSM   C16S13139   2.160   3.907   3.957
  124OSM   H16S13140   2.069   3.912   3.894
  124OSM   H16T13141   2.228   3.992   3.935
  124OSM   C17S13142   2.134   3.920   4.110
  124OSM   H17S13143   2.067   3.835   4.136
  124OSM   H17T13144   2.075   4.013   4.125
  124OSM   C18S13145   2.252   3.906   4.202
  124OSM   H18S13146   2.309   4.001   4.199
  124OSM   H18T13147   2.325   3.832   4.165
  124OSM   H18U13148   2.213   3.888   4.304
  124OSM    C1F13149   2.790   3.455   2.933
  124OSM     OF13150   2.840   3.554   2.882
  124OSM    C2F13151   2.847   3.389   3.059
  124OSM    H2F13152   2.892   3.294   3.025
  124OSM    H2G13153   2.760   3.362   3.123
  124OSM    C3F13154   2.956   3.470   3.131
  124OSM    H3F13155   2.921   3.574   3.142
  124OSM    H3G13156   3.050   3.481   3.071
  124OSM    C4F13157   2.981   3.393   3.260
  124OSM    H4F13158   3.000   3.288   3.232
  124OSM    H4G13159   2.890   3.411   3.320
  124OSM    C5F13160   3.107   3.441   3.346
  124OSM    H5F13161   3.114   3.551   3.349
  124OSM    H5G13162   3.194   3.415   3.282
  124OSM    C6F13163   3.112   3.375   3.478
  124OSM    H6F13164   3.135   3.267   3.473
  124OSM    H6G13165   3.013   3.392   3.527
  124OSM    C7F13166   3.216   3.438   3.570
  124OSM    H7F13167   3.188   3.545   3.569
  124OSM    H7G13168   3.318   3.427   3.527
  124OSM    C8F13169   3.191   3.387   3.713
  124OSM    H8F13170   3.178   3.276   3.709
  124OSM    H8G13171   3.090   3.421   3.741
  124OSM    C9F13172   3.300   3.417   3.802
  124OSM    H9F13173   3.401   3.405   3.761
  124OSM   C10F13174   3.291   3.486   3.915
  124OSM   H10F13175   3.381   3.516   3.970
  124OSM   C11F13176   3.157   3.536   3.973
  124OSM   H11F13177   3.096   3.447   4.001
  124OSM   H11G13178   3.108   3.591   3.890
  124OSM   C12F13179   3.166   3.642   4.083
  124OSM   H12F13180   3.220   3.723   4.029
  124OSM   H12G13181   3.229   3.615   4.170
  124OSM   C13F13182   3.037   3.698   4.136
  124OSM   H13F13183   2.952   3.709   4.065
  124OSM   H13G13184   3.059   3.801   4.171
  124OSM   C14F13185   2.985   3.614   4.254
  124OSM   H14F13186   3.070   3.610   4.326
  124OSM   H14G13187   2.973   3.510   4.215
  124OSM   C15F13188   2.861   3.655   4.327
  124OSM   H15F13189   2.824   3.573   4.392
  124OSM   H15G13190   2.786   3.682   4.249
  124OSM   C16F13191   2.876   3.780   4.424
  124OSM   H16F13192   2.774   3.820   4.444
  124OSM   H16G13193   2.929   3.859   4.365
  124OSM   C17F13194   2.937   3.746   4.561
  124OSM   H17F13195   3.047   3.732   4.551
  124OSM   H17G13196   2.878   3.654   4.582
  124OSM   C18F13197   2.901   3.844   4.668
  124OSM   H18F13198   2.912   3.948   4.633
  124OSM   H18G13199   2.966   3.817   4.754
  124OSM   H18H13200   2.794   3.841   4.701
  125OSM      N13201   4.364   6.465   1.940
  125OSM    C1513202   4.444   6.413   2.055
  125OSM   H15A13203   4.428   6.309   2.080
  125OSM   H15B13204   4.424   6.465   2.148
  125OSM   H15C13205   4.550   6.429   2.042
  125OSM    C1413206   4.394   6.605   1.932
  125OSM   H14A13207   4.501   6.618   1.937
  125OSM   H14B13208   4.353   6.663   2.014
  125OSM   H14C13209   4.353   6.638   1.837
  125OSM    C1313210   4.405   6.391   1.819
  125OSM   H13A13211   4.390   6.289   1.851
  125OSM   H13B13212   4.510   6.394   1.795
  125OSM   H13C13213   4.352   6.427   1.732
  125OSM    C1213214   4.213   6.445   1.969
  125OSM   H12A13215   4.192   6.344   1.939
  125OSM   H12B13216   4.153   6.502   1.900
  125OSM    C1113217   4.148   6.467   2.113
  125OSM   H11A13218   4.181   6.387   2.183
  125OSM   H11B13219   4.037   6.466   2.104
  125OSM      P13220   4.221   6.621   2.312
  125OSM    O1313221   4.293   6.511   2.376
  125OSM    O1413222   4.283   6.756   2.331
  125OSM    O1113223   4.071   6.616   2.374
  125OSM    O1213224   4.198   6.593   2.158
  125OSM    C1S13225   4.034   6.551   2.496
  125OSM    H1S13226   4.090   6.455   2.500
  125OSM    H1T13227   3.924   6.534   2.508
  125OSM     NF13228   4.016   6.562   2.738
  125OSM    HNF13229   3.923   6.582   2.770
  125OSM    C2S13230   4.061   6.632   2.618
  125OSM    H2S13231   4.169   6.656   2.631
  125OSM    C3S13232   3.987   6.773   2.610
  125OSM    H3S13233   3.878   6.752   2.604
  125OSM     O313234   4.016   0.002   2.485
  125OSM    HO313235   4.061   6.779   2.426
  125OSM    C4S13236   4.020   0.023   2.721
  125OSM    H4S13237   4.126   0.052   2.726
  125OSM    C5S13238   3.929   0.070   2.812
  125OSM    H5S13239   3.822   0.045   2.805
  125OSM    C6S13240   3.966   0.154   2.933
  125OSM    H6S13241   3.935   0.259   2.918
  125OSM    H6T13242   4.077   0.152   2.940
  125OSM    C7S13243   3.923   0.088   3.063
  125OSM    H7S13244   3.961   6.823   3.074
  125OSM    H7T13245   3.812   0.083   3.061
  125OSM    C8S13246   3.957   0.168   3.188
  125OSM    H8S13247   3.932   0.275   3.170
  125OSM    H8T13248   4.064   0.150   3.210
  125OSM    C9S13249   3.880   0.114   3.306
  125OSM    H9S13250   3.850   0.008   3.290
  125OSM    H9T13251   3.789   0.177   3.306
  125OSM   C10S13252   3.940   0.137   3.441
  125OSM   H10S13253   3.951   0.245   3.464
  125OSM   H10T13254   4.040   0.089   3.440
  125OSM   C11S13255   3.848   0.084   3.549
  125OSM   H11S13256   3.825   6.815   3.538
  125OSM   H11T13257   3.757   0.148   3.556
  125OSM   C12S13258   3.923   0.105   3.681
  125OSM   H12S13259   3.893   0.207   3.714
  125OSM   H12T13260   4.033   0.100   3.668
  125OSM   C13S13261   3.871   0.012   3.802
  125OSM   H13S13262   3.927   6.755   3.812
  125OSM   H13T13263   3.763   6.835   3.784
  125OSM   C14S13264   3.881   0.090   3.934
  125OSM   H14S13265   3.847   0.194   3.921
  125OSM   H14T13266   3.985   0.107   3.972
  125OSM   C15S13267   3.808   0.021   4.051
  125OSM   H15S13268   3.848   0.067   4.143
  125OSM   H15T13269   3.844   6.754   4.045
  125OSM   C16S13270   3.658   0.036   4.053
  125OSM   H16S13271   3.625   6.794   4.122
  125OSM   H16T13272   3.610   0.014   3.955
  125OSM   C17S13273   3.604   0.174   4.103
  125OSM   H17S13274   3.664   0.252   4.052
  125OSM   H17T13275   3.625   0.178   4.212
  125OSM   C18S13276   3.460   0.197   4.076
  125OSM   H18S13277   3.439   0.207   3.967
  125OSM   H18T13278   3.429   0.291   4.126
  125OSM   H18U13279   3.391   0.127   4.126
  125OSM    C1F13280   4.094   6.472   2.791
  125OSM     OF13281   4.199   6.437   2.742
  125OSM    C2F13282   4.049   6.408   2.920
  125OSM    H2F13283   4.065   6.298   2.931
  125OSM    H2G13284   3.938   6.408   2.925
  125OSM    C3F13285   4.096   6.488   3.041
  125OSM    H3F13286   4.082   6.596   3.021
  125OSM    H3G13287   4.206   6.474   3.052
  125OSM    C4F13288   4.037   6.449   3.176
  125OSM    H4F13289   4.043   6.339   3.193
  125OSM    H4G13290   3.932   6.487   3.176
  125OSM    C5F13291   4.114   6.529   3.289
  125OSM    H5F13292   4.095   6.637   3.271
  125OSM    H5G13293   4.224   6.512   3.293
  125OSM    C6F13294   4.071   6.492   3.435
  125OSM    H6F13295   4.086   6.383   3.452
  125OSM    H6G13296   3.963   6.506   3.453
  125OSM    C7F13297   4.131   6.569   3.556
  125OSM    H7F13298   4.138   6.677   3.534
  125OSM    H7G13299   4.237   6.538   3.562
  125OSM    C8F13300   4.066   6.542   3.697
  125OSM    H8F13301   3.961   6.572   3.679
  125OSM    H8G13302   4.119   6.606   3.771
  125OSM    C9F13303   4.051   6.396   3.738
  125OSM    H9F13304   4.030   6.326   3.655
  125OSM   C10F13305   4.070   6.352   3.866
  125OSM   H10F13306   4.082   6.246   3.891
  125OSM   C11F13307   4.100   6.442   3.985
  125OSM   H11F13308   4.027   6.451   4.068
  125OSM   H11G13309   4.132   6.545   3.957
  125OSM   C12F13310   4.223   6.372   4.051
  125OSM   H12F13311   4.304   6.387   3.976
  125OSM   H12G13312   4.213   6.262   4.062
  125OSM   C13F13313   4.266   6.430   4.186
  125OSM   H13F13314   4.352   6.373   4.228
  125OSM   H13G13315   4.176   6.427   4.251
  125OSM   C14F13316   4.305   6.577   4.189
  125OSM   H14F13317   4.313   6.613   4.294
  125OSM   H14G13318   4.225   6.638   4.144
  125OSM   C15F13319   4.432   6.601   4.117
  125OSM   H15F13320   4.439   6.711   4.104
  125OSM   H15G13321   4.436   6.558   4.015
  125OSM   C16F13322   4.562   6.563   4.194
  125OSM   H16F13323   4.645   6.569   4.120
  125OSM   H16G13324   4.544   6.454   4.207
  125OSM   C17F13325   4.590   6.639   4.324
  125OSM   H17F13326   4.499   6.620   4.384
  125OSM   H17G13327   4.591   6.748   4.305
  125OSM   C18F13328   4.712   6.593   4.405
  125OSM   H18F13329   4.701   6.486   4.431
  125OSM   H18G13330   4.719   6.655   4.497
  125OSM   H18H13331   4.800   6.606   4.339
  126OSM      N13332   2.393   1.543   2.184
  126OSM    C1513333   2.276   1.635   2.191
  126OSM   H15A13334   2.231   1.674   2.101
  126OSM   H15B13335   2.298   1.731   2.237
  126OSM   H15C13336   2.189   1.603   2.247
  126OSM    C1413337   2.370   1.438   2.088
  126OSM   H14A13338   2.266   1.411   2.078
  126OSM   H14B13339   2.428   1.351   2.112
  126OSM   H14C13340   2.396   1.464   1.986
  126OSM    C1313341   2.507   1.625   2.148
  126OSM   H13A13342   2.588   1.560   2.116
  126OSM   H13B13343   2.536   1.696   2.223
  126OSM   H13C13344   2.479   1.675   2.056
  126OSM    C1213345   2.420   1.477   2.317
  126OSM   H12A13346   2.340   1.411   2.347
  126OSM   H12B13347   2.414   1.554   2.392
  126OSM    C1113348   2.554   1.402   2.323
  126OSM   H11A13349   2.574   1.392   2.432
  126OSM   H11B13350   2.641   1.463   2.294
  126OSM      P13351   2.656   1.174   2.277
  126OSM    O1313352   2.600   1.046   2.239
  126OSM    O1413353   2.772   1.208   2.196
  126OSM    O1113354   2.694   1.165   2.428
  126OSM    O1213355   2.544   1.279   2.252
  126OSM    C1S13356   2.797   1.244   2.486
  126OSM    H1S13357   2.781   1.352   2.466
  126OSM    H1T13358   2.894   1.213   2.442
  126OSM     NF13359   2.903   1.319   2.695
  126OSM    HNF13360   2.981   1.269   2.733
  126OSM    C2S13361   2.807   1.226   2.637
  126OSM    H2S13362   2.705   1.250   2.676
  126OSM    C3S13363   2.830   1.074   2.663
  126OSM    H3S13364   2.907   1.039   2.590
  126OSM     O313365   2.714   1.001   2.630
  126OSM    HO313366   2.673   1.060   2.567
  126OSM    C4S13367   2.867   1.037   2.803
  126OSM    H4S13368   2.785   1.058   2.872
  126OSM    C5S13369   2.985   0.974   2.822
  126OSM    H5S13370   3.046   0.974   2.730
  126OSM    C6S13371   3.033   0.918   2.953
  126OSM    H6S13372   3.115   0.987   2.980
  126OSM    H6T13373   3.081   0.818   2.942
  126OSM    C7S13374   2.921   0.906   3.063
  126OSM    H7S13375   2.857   0.818   3.038
  126OSM    H7T13376   2.854   0.994   3.058
  126OSM    C8S13377   2.983   0.889   3.205
  126OSM    H8S13378   3.068   0.958   3.225
  126OSM    H8T13379   3.013   0.783   3.213
  126OSM    C9S13380   2.879   0.905   3.319
  126OSM    H9S13381   2.784   0.849   3.300
  126OSM    H9T13382   2.858   1.014   3.316
  126OSM   C10S13383   2.941   0.861   3.453
  126OSM   H10S13384   3.047   0.893   3.451
  126OSM   H10T13385   2.932   0.752   3.471
  126OSM   C11S13386   2.885   0.935   3.573
  126OSM   H11S13387   2.921   1.038   3.555
  126OSM   H11T13388   2.934   0.898   3.665
  126OSM   C12S13389   2.728   0.921   3.591
  126OSM   H12S13390   2.704   0.816   3.563
  126OSM   H12T13391   2.681   0.983   3.512
  126OSM   C13S13392   2.678   0.960   3.726
  126OSM   H13S13393   2.702   0.870   3.788
  126OSM   H13T13394   2.568   0.950   3.715
  126OSM   C14S13395   2.721   1.094   3.780
  126OSM   H14S13396   2.674   1.159   3.702
  126OSM   H14T13397   2.832   1.101   3.783
  126OSM   C15S13398   2.673   1.128   3.926
  126OSM   H15S13399   2.719   1.228   3.938
  126OSM   H15T13400   2.721   1.054   3.993
  126OSM   C16S13401   2.522   1.131   3.957
  126OSM   H16S13402   2.490   1.025   3.953
  126OSM   H16T13403   2.465   1.173   3.872
  126OSM   C17S13404   2.496   1.199   4.085
  126OSM   H17S13405   2.520   1.306   4.066
  126OSM   H17T13406   2.568   1.163   4.161
  126OSM   C18S13407   2.355   1.187   4.147
  126OSM   H18S13408   2.331   1.079   4.137
  126OSM   H18T13409   2.279   1.241   4.086
  126OSM   H18U13410   2.356   1.208   4.256
  126OSM    C1F13411   2.896   1.458   2.701
  126OSM     OF13412   2.800   1.515   2.653
  126OSM    C2F13413   3.004   1.535   2.765
  126OSM    H2F13414   3.005   1.631   2.709
  126OSM    H2G13415   3.097   1.475   2.764
  126OSM    C3F13416   2.967   1.570   2.912
  126OSM    H3F13417   2.882   1.641   2.911
  126OSM    H3G13418   3.048   1.636   2.948
  126OSM    C4F13419   2.922   1.458   3.011
  126OSM    H4F13420   3.008   1.388   3.017
  126OSM    H4G13421   2.840   1.391   2.978
  126OSM    C5F13422   2.884   1.525   3.151
  126OSM    H5F13423   2.962   1.602   3.166
  126OSM    H5G13424   2.905   1.444   3.225
  126OSM    C6F13425   2.739   1.562   3.174
  126OSM    H6F13426   2.669   1.483   3.140
  126OSM    H6G13427   2.703   1.649   3.116
  126OSM    C7F13428   2.718   1.572   3.331
  126OSM    H7F13429   2.742   1.481   3.389
  126OSM    H7G13430   2.615   1.609   3.350
  126OSM    C8F13431   2.814   1.686   3.394
  126OSM    H8F13432   2.920   1.670   3.363
  126OSM    H8G13433   2.818   1.670   3.504
  126OSM    C9F13434   2.772   1.829   3.361
  126OSM    H9F13435   2.760   1.852   3.254
  126OSM   C10F13436   2.757   1.931   3.450
  126OSM   H10F13437   2.733   2.032   3.413
  126OSM   C11F13438   2.768   1.927   3.605
  126OSM   H11F13439   2.857   1.979   3.648
  126OSM   H11G13440   2.774   1.820   3.633
  126OSM   C12F13441   2.653   1.992   3.686
  126OSM   H12F13442   2.571   1.920   3.668
  126OSM   H12G13443   2.624   2.095   3.656
  126OSM   C13F13444   2.687   1.997   3.836
  126OSM   H13F13445   2.772   2.067   3.845
  126OSM   H13G13446   2.720   1.896   3.868
  126OSM   C14F13447   2.558   2.028   3.915
  126OSM   H14F13448   2.481   1.959   3.875
  126OSM   H14G13449   2.524   2.131   3.890
  126OSM   C15F13450   2.559   2.009   4.065
  126OSM   H15F13451   2.608   2.094   4.118
  126OSM   H15G13452   2.633   1.929   4.083
  126OSM   C16F13453   2.428   1.985   4.137
  126OSM   H16F13454   2.452   1.940   4.236
  126OSM   H16G13455   2.359   1.918   4.081
  126OSM   C17F13456   2.343   2.105   4.172
  126OSM   H17F13457   2.270   2.066   4.247
  126OSM   H17G13458   2.287   2.140   4.082
  126OSM   C18F13459   2.402   2.227   4.222
  126OSM   H18F13460   2.478   2.189   4.294
  126OSM   H18G13461   2.320   2.274   4.280
  126OSM   H18H13462   2.448   2.292   4.145
  127OSM      N13463   1.949   3.106   1.767
  127OSM    C1513464   2.082   3.170   1.791
  127OSM   H15A13465   2.079   3.269   1.747
  127OSM   H15B13466   2.162   3.111   1.751
  127OSM   H15C13467   2.091   3.181   1.898
  127OSM    C1413468   1.845   3.207   1.804
  127OSM   H14A13469   1.747   3.165   1.795
  127OSM   H14B13470   1.866   3.296   1.746
  127OSM   H14C13471   1.849   3.241   1.906
  127OSM    C1313472   1.934   3.079   1.616
  127OSM   H13A13473   1.997   2.996   1.590
  127OSM   H13B13474   1.960   3.163   1.553
  127OSM   H13C13475   1.832   3.056   1.587
  127OSM    C1213476   1.922   2.976   1.846
  127OSM   H12A13477   2.003   2.907   1.826
  127OSM   H12B13478   1.834   2.931   1.802
  127OSM    C1113479   1.917   2.985   2.000
  127OSM   H11A13480   1.905   2.883   2.043
  127OSM   H11B13481   1.829   3.048   2.026
  127OSM      P13482   2.163   2.952   2.061
  127OSM    O1313483   2.162   2.830   1.970
  127OSM    O1413484   2.282   3.038   2.056
  127OSM    O1113485   2.156   2.902   2.205
  127OSM    O1213486   2.037   3.044   2.047
  127OSM    C1S13487   2.041   2.867   2.281
  127OSM    H1S13488   2.001   2.766   2.254
  127OSM    H1T13489   1.969   2.951   2.271
  127OSM     NF13490   1.954   2.827   2.513
  127OSM    HNF13491   1.899   2.895   2.559
  127OSM    C2S13492   2.071   2.868   2.434
  127OSM    H2S13493   2.157   2.801   2.457
  127OSM    C3S13494   2.116   3.009   2.482
  127OSM    H3S13495   2.034   3.076   2.448
  127OSM     O313496   2.231   3.056   2.412
  127OSM    HO313497   2.246   2.995   2.339
  127OSM    C4S13498   2.138   3.025   2.631
  127OSM    H4S13499   2.235   2.985   2.664
  127OSM    C5S13500   2.045   3.069   2.716
  127OSM    H5S13501   1.951   3.108   2.674
  127OSM    C6S13502   2.059   3.068   2.866
  127OSM    H6S13503   1.961   3.028   2.901
  127OSM    H6T13504   2.058   3.175   2.898
  127OSM    C7S13505   2.166   2.990   2.946
  127OSM    H7S13506   2.266   3.008   2.900
  127OSM    H7T13507   2.155   2.881   2.930
  127OSM    C8S13508   2.168   3.023   3.102
  127OSM    H8S13509   2.217   3.122   3.114
  127OSM    H8T13510   2.228   2.943   3.151
  127OSM    C9S13511   2.031   3.035   3.171
  127OSM    H9S13512   1.977   2.939   3.156
  127OSM    H9T13513   1.969   3.117   3.130
  127OSM   C10S13514   2.049   3.044   3.325
  127OSM   H10S13515   2.134   3.112   3.345
  127OSM   H10T13516   2.071   2.938   3.348
  127OSM   C11S13517   1.923   3.089   3.404
  127OSM   H11S13518   1.833   3.032   3.372
  127OSM   H11T13519   1.904   3.194   3.374
  127OSM   C12S13520   1.952   3.069   3.560
  127OSM   H12S13521   2.001   2.969   3.566
  127OSM   H12T13522   1.858   3.043   3.614
  127OSM   C13S13523   2.040   3.170   3.632
  127OSM   H13S13524   1.992   3.270   3.625
  127OSM   H13T13525   2.135   3.181   3.577
  127OSM   C14S13526   2.086   3.119   3.776
  127OSM   H14S13527   2.129   3.016   3.766
  127OSM   H14T13528   1.988   3.107   3.828
  127OSM   C15S13529   2.184   3.212   3.844
  127OSM   H15S13530   2.134   3.307   3.873
  127OSM   H15T13531   2.268   3.235   3.774
  127OSM   C16S13532   2.243   3.170   3.981
  127OSM   H16S13533   2.304   3.256   4.016
  127OSM   H16T13534   2.323   3.092   3.981
  127OSM   C17S13535   2.136   3.121   4.082
  127OSM   H17S13536   2.086   3.027   4.050
  127OSM   H17T13537   2.060   3.201   4.091
  127OSM   C18S13538   2.196   3.091   4.219
  127OSM   H18S13539   2.264   3.174   4.248
  127OSM   H18T13540   2.244   2.991   4.212
  127OSM   H18U13541   2.114   3.081   4.293
  127OSM    C1F13542   1.905   2.708   2.511
  127OSM     OF13543   1.964   2.617   2.451
  127OSM    C2F13544   1.776   2.703   2.589
  127OSM    H2F13545   1.691   2.684   2.519
  127OSM    H2G13546   1.766   2.802   2.638
  127OSM    C3F13547   1.785   2.596   2.693
  127OSM    H3F13548   1.823   2.647   2.784
  127OSM    H3G13549   1.842   2.508   2.656
  127OSM    C4F13550   1.656   2.543   2.735
  127OSM    H4F13551   1.606   2.488   2.651
  127OSM    H4G13552   1.582   2.621   2.763
  127OSM    C5F13553   1.663   2.446   2.849
  127OSM    H5F13554   1.730   2.364   2.815
  127OSM    H5G13555   1.565   2.396   2.863
  127OSM    C6F13556   1.714   2.493   2.981
  127OSM    H6F13557   1.824   2.506   2.979
  127OSM    H6G13558   1.696   2.405   3.048
  127OSM    C7F13559   1.649   2.616   3.041
  127OSM    H7F13560   1.538   2.616   3.031
  127OSM    H7G13561   1.691   2.706   2.991
  127OSM    C8F13562   1.675   2.620   3.196
  127OSM    H8F13563   1.786   2.613   3.194
  127OSM    H8G13564   1.630   2.528   3.239
  127OSM    C9F13565   1.637   2.745   3.265
  127OSM    H9F13566   1.565   2.808   3.211
  127OSM   C10F13567   1.695   2.798   3.376
  127OSM   H10F13568   1.648   2.887   3.421
  127OSM   C11F13569   1.794   2.728   3.464
  127OSM   H11F13570   1.869   2.805   3.494
  127OSM   H11G13571   1.851   2.653   3.406
  127OSM   C12F13572   1.745   2.671   3.595
  127OSM   H12F13573   1.843   2.640   3.639
  127OSM   H12G13574   1.693   2.575   3.576
  127OSM   C13F13575   1.677   2.771   3.684
  127OSM   H13F13576   1.578   2.801   3.642
  127OSM   H13G13577   1.726   2.869   3.700
  127OSM   C14F13578   1.664   2.713   3.827
  127OSM   H14F13579   1.758   2.671   3.869
  127OSM   H14G13580   1.601   2.623   3.814
  127OSM   C15F13581   1.595   2.809   3.919
  127OSM   H15F13582   1.562   2.763   4.015
  127OSM   H15G13583   1.519   2.870   3.867
  127OSM   C16F13584   1.692   2.925   3.975
  127OSM   H16F13585   1.685   3.017   3.912
  127OSM   H16G13586   1.799   2.896   3.973
  127OSM   C17F13587   1.669   2.939   4.121
  127OSM   H17F13588   1.673   2.847   4.183
  127OSM   H17G13589   1.569   2.986   4.134
  127OSM   C18F13590   1.758   3.051   4.182
  127OSM   H18F13591   1.736   3.147   4.130
  127OSM   H18G13592   1.865   3.022   4.180
  127OSM   H18H13593   1.735   3.061   4.290
  128OSM      N13594   1.751   0.539   1.963
  128OSM    C1513595   1.898   0.528   1.943
  128OSM   H15A13596   1.946   0.625   1.951
  128OSM   H15B13597   1.931   0.484   1.850
  128OSM   H15C13598   1.941   0.468   2.022
  128OSM    C1413599   1.691   0.621   1.853
  128OSM   H14A13600   1.587   0.632   1.880
  128OSM   H14B13601   1.706   0.581   1.754
  128OSM   H14C13602   1.734   0.720   1.845
  128OSM    C1313603   1.690   0.400   1.973
  128OSM   H13A13604   1.724   0.352   1.882
  128OSM   H13B13605   1.583   0.407   1.982
  128OSM   H13C13606   1.725   0.350   2.062
  128OSM    C1213607   1.710   0.614   2.091
  128OSM   H12A13608   1.603   0.611   2.100
  128OSM   H12B13609   1.742   0.717   2.079
  128OSM    C1113610   1.765   0.553   2.224
  128OSM   H11A13611   1.792   0.451   2.190
  128OSM   H11B13612   1.682   0.551   2.297
  128OSM      P13613   1.943   0.659   2.393
  128OSM    O1313614   2.090   0.641   2.387
  128OSM    O1413615   1.894   0.792   2.422
  128OSM    O1113616   1.872   0.555   2.486
  128OSM    O1213617   1.878   0.616   2.264
  128OSM    C1S13618   1.910   0.554   2.630
  128OSM    H1S13619   2.021   0.556   2.630
  128OSM    H1T13620   1.904   0.452   2.673
  128OSM     NF13621   1.906   0.636   2.849
  128OSM    HNF13622   1.856   0.582   2.916
  128OSM    C2S13623   1.844   0.653   2.720
  128OSM    H2S13624   1.861   0.754   2.676
  128OSM    C3S13625   1.691   0.635   2.721
  128OSM    H3S13626   1.661   0.531   2.745
  128OSM     O313627   1.620   0.661   2.603
  128OSM    HO313628   1.692   0.656   2.540
  128OSM    C4S13629   1.633   0.723   2.828
  128OSM    H4S13630   1.660   0.829   2.824
  128OSM    C5S13631   1.547   0.692   2.929
  128OSM    H5S13632   1.524   0.586   2.945
  128OSM    C6S13633   1.485   0.792   3.029
  128OSM    H6S13634   1.497   0.733   3.123
  128OSM    H6T13635   1.378   0.808   3.007
  128OSM    C7S13636   1.547   0.930   3.051
  128OSM    H7S13637   1.539   1.005   2.969
  128OSM    H7T13638   1.652   0.924   3.085
  128OSM    C8S13639   1.484   0.987   3.185
  128OSM    H8S13640   1.511   0.909   3.259
  128OSM    H8T13641   1.375   0.998   3.170
  128OSM    C9S13642   1.533   1.124   3.227
  128OSM    H9S13643   1.575   1.178   3.140
  128OSM    H9T13644   1.622   1.106   3.290
  128OSM   C10S13645   1.423   1.209   3.294
  128OSM   H10S13646   1.378   1.152   3.378
  128OSM   H10T13647   1.354   1.235   3.211
  128OSM   C11S13648   1.483   1.342   3.340
  128OSM   H11S13649   1.400   1.415   3.344
  128OSM   H11T13650   1.558   1.368   3.262
  128OSM   C12S13651   1.549   1.326   3.477
  128OSM   H12S13652   1.620   1.241   3.487
  128OSM   H12T13653   1.468   1.295   3.547
  128OSM   C13S13654   1.625   1.455   3.521
  128OSM   H13S13655   1.551   1.529   3.558
  128OSM   H13T13656   1.688   1.481   3.433
  128OSM   C14S13657   1.721   1.414   3.632
  128OSM   H14S13658   1.792   1.335   3.599
  128OSM   H14T13659   1.655   1.374   3.713
  128OSM   C15S13660   1.811   1.532   3.677
  128OSM   H15S13661   1.750   1.604   3.735
  128OSM   H15T13662   1.861   1.581   3.591
  128OSM   C16S13663   1.930   1.494   3.767
  128OSM   H16S13664   1.970   1.589   3.809
  128OSM   H16T13665   2.008   1.459   3.696
  128OSM   C17S13666   1.906   1.384   3.873
  128OSM   H17S13667   1.890   1.288   3.821
  128OSM   H17T13668   1.817   1.399   3.938
  128OSM   C18S13669   2.027   1.360   3.965
  128OSM   H18S13670   1.996   1.281   4.036
  128OSM   H18T13671   2.067   1.452   4.013
  128OSM   H18U13672   2.105   1.321   3.897
  128OSM    C1F13673   2.027   0.664   2.868
  128OSM     OF13674   2.092   0.722   2.776
  128OSM    C2F13675   2.086   0.603   2.990
  128OSM    H2F13676   2.095   0.493   2.974
  128OSM    H2G13677   2.024   0.626   3.079
  128OSM    C3F13678   2.225   0.650   3.022
  128OSM    H3F13679   2.238   0.757   2.994
  128OSM    H3G13680   2.295   0.599   2.952
  128OSM    C4F13681   2.263   0.623   3.164
  128OSM    H4F13682   2.199   0.684   3.231
  128OSM    H4G13683   2.366   0.659   3.183
  128OSM    C5F13684   2.237   0.474   3.206
  128OSM    H5F13685   2.318   0.425   3.148
  128OSM    H5G13686   2.132   0.454   3.173
  128OSM    C6F13687   2.250   0.449   3.353
  128OSM    H6F13688   2.168   0.500   3.409
  128OSM    H6G13689   2.344   0.478   3.404
  128OSM    C7F13690   2.231   0.300   3.377
  128OSM    H7F13691   2.322   0.258   3.330
  128OSM    H7G13692   2.144   0.254   3.325
  128OSM    C8F13693   2.230   0.261   3.517
  128OSM    H8F13694   2.311   0.309   3.576
  128OSM    H8G13695   2.253   0.153   3.514
  128OSM    C9F13696   2.100   0.278   3.596
  128OSM    H9F13697   2.016   0.219   3.557
  128OSM   C10F13698   2.087   0.355   3.704
  128OSM   H10F13699   1.991   0.370   3.756
  128OSM   C11F13700   2.195   0.427   3.780
  128OSM   H11F13701   2.294   0.377   3.775
  128OSM   H11G13702   2.176   0.439   3.889
  128OSM   C12F13703   2.215   0.573   3.719
  128OSM   H12F13704   2.135   0.648   3.739
  128OSM   H12G13705   2.229   0.578   3.609
  128OSM   C13F13706   2.343   0.634   3.766
  128OSM   H13F13707   2.374   0.712   3.694
  128OSM   H13G13708   2.425   0.559   3.756
  128OSM   C14F13709   2.345   0.677   3.914
  128OSM   H14F13710   2.330   0.585   3.975
  128OSM   H14G13711   2.263   0.749   3.934
  128OSM   C15F13712   2.481   0.738   3.950
  128OSM   H15F13713   2.464   0.784   4.050
  128OSM   H15G13714   2.486   0.818   3.873
  128OSM   C16F13715   2.598   0.637   3.943
  128OSM   H16F13716   2.632   0.609   3.841
  128OSM   H16G13717   2.558   0.541   3.983
  128OSM   C17F13718   2.719   0.684   4.027
  128OSM   H17F13719   2.678   0.697   4.129
  128OSM   H17G13720   2.750   0.784   3.989
  128OSM   C18F13721   2.840   0.596   4.017
  128OSM   H18F13722   2.928   0.643   4.066
  128OSM   H18G13723   2.874   0.567   3.915
  128OSM   H18H13724   2.831   0.499   4.070
  129OSM      N13725   3.967   0.047   2.084
  129OSM    C1513726   4.077   0.111   2.164
  129OSM   H15A13727   4.132   0.038   2.221
  129OSM   H15B13728   4.032   0.173   2.241
  129OSM   H15C13729   4.146   0.172   2.109
  129OSM    C1413730   3.895   0.156   2.014
  129OSM   H14A13731   3.949   0.194   1.929
  129OSM   H14B13732   3.850   0.236   2.071
  129OSM   H14C13733   3.808   0.103   1.978
  129OSM    C1313734   4.039   6.793   1.986
  129OSM   H13A13735   3.966   6.757   1.915
  129OSM   H13B13736   4.074   6.708   2.042
  129OSM   H13C13737   4.126   0.002   1.943
  129OSM    C1213738   3.880   6.797   2.181
  129OSM   H12A13739   3.833   0.019   2.257
  129OSM   H12B13740   3.939   6.729   2.241
  129OSM    C1113741   3.758   6.720   2.120
  129OSM   H11A13742   3.714   6.660   2.202
  129OSM   H11B13743   3.799   6.653   2.041
  129OSM      P13744   3.554   0.047   2.168
  129OSM    O1313745   3.517   0.180   2.109
  129OSM    O1413746   3.448   6.791   2.197
  129OSM    O1113747   3.645   0.071   2.298
  129OSM    O1213748   3.658   6.812   2.072
  129OSM    C1S13749   3.577   0.137   2.409
  129OSM    H1S13750   3.518   0.057   2.459
  129OSM    H1T13751   3.495   0.207   2.382
  129OSM     NF13752   3.614   0.197   2.649
  129OSM    HNF13753   3.593   0.289   2.680
  129OSM    C2S13754   3.676   0.191   2.513
  129OSM    H2S13755   3.766   0.126   2.518
  129OSM    C3S13756   3.724   0.326   2.458
  129OSM    H3S13757   3.654   0.410   2.441
  129OSM     O313758   3.787   0.305   2.325
  129OSM    HO313759   3.763   0.214   2.306
  129OSM    C4S13760   3.833   0.385   2.552
  129OSM    H4S13761   3.912   0.319   2.588
  129OSM    C5S13762   3.829   0.513   2.606
  129OSM    H5S13763   3.747   0.579   2.575
  129OSM    C6S13764   3.938   0.587   2.694
  129OSM    H6S13765   3.986   0.671   2.639
  129OSM    H6T13766   4.015   0.515   2.729
  129OSM    C7S13767   3.868   0.644   2.816
  129OSM    H7S13768   3.775   0.694   2.781
  129OSM    H7T13769   3.920   0.733   2.859
  129OSM    C8S13770   3.852   0.547   2.929
  129OSM    H8S13771   3.951   0.502   2.954
  129OSM    H8T13772   3.794   0.462   2.886
  129OSM    C9S13773   3.781   0.615   3.047
  129OSM    H9S13774   3.676   0.640   3.022
  129OSM    H9T13775   3.835   0.704   3.086
  129OSM   C10S13776   3.782   0.523   3.172
  129OSM   H10S13777   3.888   0.526   3.202
  129OSM   H10T13778   3.757   0.421   3.137
  129OSM   C11S13779   3.696   0.562   3.296
  129OSM   H11S13780   3.591   0.574   3.262
  129OSM   H11T13781   3.725   0.661   3.337
  129OSM   C12S13782   3.709   0.461   3.418
  129OSM   H12S13783   3.819   0.473   3.424
  129OSM   H12T13784   3.672   0.365   3.375
  129OSM   C13S13785   3.639   0.519   3.540
  129OSM   H13S13786   3.529   0.512   3.527
  129OSM   H13T13787   3.668   0.625   3.556
  129OSM   C14S13788   3.683   0.443   3.675
  129OSM   H14S13789   3.793   0.436   3.665
  129OSM   H14T13790   3.653   0.336   3.665
  129OSM   C15S13791   3.640   0.521   3.795
  129OSM   H15S13792   3.664   0.628   3.781
  129OSM   H15T13793   3.706   0.494   3.881
  129OSM   C16S13794   3.495   0.510   3.825
  129OSM   H16S13795   3.454   0.409   3.844
  129OSM   H16T13796   3.444   0.565   3.742
  129OSM   C17S13797   3.460   0.585   3.950
  129OSM   H17S13798   3.502   0.687   3.945
  129OSM   H17T13799   3.504   0.543   4.043
  129OSM   C18S13800   3.310   0.572   3.987
  129OSM   H18S13801   3.297   0.468   4.023
  129OSM   H18T13802   3.252   0.595   3.894
  129OSM   H18U13803   3.289   0.650   4.063
  129OSM    C1F13804   3.590   0.093   2.735
  129OSM     OF13805   3.587   6.818   2.682
  129OSM    C2F13806   3.553   0.119   2.885
  129OSM    H2F13807   3.461   0.181   2.890
  129OSM    H2G13808   3.637   0.176   2.930
  129OSM    C3F13809   3.538   6.825   2.966
  129OSM    H3F13810   3.635   6.772   2.964
  129OSM    H3G13811   3.460   6.766   2.914
  129OSM    C4F13812   3.493   0.000   3.111
  129OSM    H4F13813   3.394   0.050   3.119
  129OSM    H4G13814   3.562   0.069   3.164
  129OSM    C5F13815   3.485   6.702   3.181
  129OSM    H5F13816   3.581   6.646   3.168
  129OSM    H5G13817   3.405   6.632   3.147
  129OSM    C6F13818   3.467   6.715   3.337
  129OSM    H6F13819   3.389   6.792   3.353
  129OSM    H6G13820   3.559   6.763   3.375
  129OSM    C7F13821   3.413   6.586   3.411
  129OSM    H7F13822   3.339   6.542   3.341
  129OSM    H7G13823   3.358   6.620   3.500
  129OSM    C8F13824   3.529   6.483   3.444
  129OSM    H8F13825   3.579   6.469   3.346
  129OSM    H8G13826   3.476   6.392   3.479
  129OSM    C9F13827   3.639   6.531   3.533
  129OSM    H9F13828   3.724   6.570   3.475
  129OSM   C10F13829   3.633   6.543   3.668
  129OSM   H10F13830   3.715   6.586   3.727
  129OSM   C11F13831   3.517   6.515   3.755
  129OSM   H11F13832   3.424   6.481   3.704
  129OSM   H11G13833   3.481   6.614   3.792
  129OSM   C12F13834   3.548   6.415   3.860
  129OSM   H12F13835   3.591   6.319   3.824
  129OSM   H12G13836   3.455   6.394   3.918
  129OSM   C13F13837   3.641   6.476   3.970
  129OSM   H13F13838   3.613   6.580   3.994
  129OSM   H13G13839   3.749   6.477   3.945
  129OSM   C14F13840   3.631   6.393   4.101
  129OSM   H14F13841   3.642   6.287   4.066
  129OSM   H14G13842   3.529   6.401   4.143
  129OSM   C15F13843   3.733   6.423   4.209
  129OSM   H15F13844   3.831   6.446   4.161
  129OSM   H15G13845   3.748   6.328   4.265
  129OSM   C16F13846   3.695   6.534   4.314
  129OSM   H16F13847   3.602   6.504   4.368
  129OSM   H16G13848   3.670   6.628   4.260
  129OSM   C17F13849   3.810   6.564   4.415
  129OSM   H17F13850   3.824   6.474   4.478
  129OSM   H17G13851   3.783   6.643   4.488
  129OSM   C18F13852   3.941   6.595   4.354
  129OSM   H18F13853   4.015   6.627   4.430
  129OSM   H18G13854   3.938   6.685   4.289
  129OSM   H18H13855   3.978   6.509   4.294
  130OSM      N13856   3.298   4.430   1.986
  130OSM    C1513857   3.176   4.497   1.940
  130OSM   H15A13858   3.166   4.463   1.838
  130OSM   H15B13859   3.170   4.601   1.968
  130OSM   H15C13860   3.090   4.456   1.991
  130OSM    C1413861   3.295   4.282   1.939
  130OSM   H14A13862   3.285   4.272   1.832
  130OSM   H14B13863   3.237   4.212   1.998
  130OSM   H14C13864   3.386   4.231   1.965
  130OSM    C1313865   3.409   4.496   1.918
  130OSM   H13A13866   3.395   4.602   1.926
  130OSM   H13B13867   3.406   4.477   1.811
  130OSM   H13C13868   3.509   4.473   1.952
  130OSM    C1213869   3.304   4.435   2.142
  130OSM   H12A13870   3.211   4.396   2.180
  130OSM   H12B13871   3.303   4.536   2.178
  130OSM    C1113872   3.416   4.366   2.228
  130OSM   H11A13873   3.406   4.399   2.333
  130OSM   H11B13874   3.511   4.397   2.181
  130OSM      P13875   3.310   4.134   2.276
  130OSM    O1313876   3.237   4.213   2.381
  130OSM    O1413877   3.236   4.087   2.160
  130OSM    O1113878   3.392   4.018   2.349
  130OSM    O1213879   3.423   4.222   2.208
  130OSM    C1S13880   3.497   4.056   2.442
  130OSM    H1S13881   3.485   4.157   2.486
  130OSM    H1T13882   3.595   4.049   2.390
  130OSM     NF13883   3.588   4.014   2.675
  130OSM    HNF13884   3.685   3.996   2.659
  130OSM    C2S13885   3.495   3.965   2.577
  130OSM    H2S13886   3.392   3.972   2.617
  130OSM    C3S13887   3.520   3.813   2.537
  130OSM    H3S13888   3.618   3.792   2.490
  130OSM     O313889   3.434   3.759   2.432
  130OSM    HO313890   3.405   3.840   2.390
  130OSM    C4S13891   3.515   3.725   2.658
  130OSM    H4S13892   3.607   3.682   2.700
  130OSM    C5S13893   3.404   3.684   2.721
  130OSM    H5S13894   3.303   3.717   2.694
  130OSM    C6S13895   3.405   3.586   2.834
  130OSM    H6S13896   3.433   3.485   2.797
  130OSM    H6T13897   3.303   3.584   2.876
  130OSM    C7S13898   3.512   3.625   2.940
  130OSM    H7S13899   3.500   3.734   2.952
  130OSM    H7T13900   3.614   3.592   2.908
  130OSM    C8S13901   3.481   3.561   3.079
  130OSM    H8S13902   3.484   3.451   3.067
  130OSM    H8T13903   3.383   3.596   3.120
  130OSM    C9S13904   3.587   3.602   3.176
  130OSM    H9S13905   3.602   3.712   3.176
  130OSM    H9T13906   3.680   3.549   3.145
  130OSM   C10S13907   3.553   3.546   3.316
  130OSM   H10S13908   3.553   3.436   3.306
  130OSM   H10T13909   3.453   3.587   3.343
  130OSM   C11S13910   3.643   3.589   3.430
  130OSM   H11S13911   3.661   3.699   3.426
  130OSM   H11T13912   3.745   3.546   3.418
  130OSM   C12S13913   3.590   3.564   3.568
  130OSM   H12S13914   3.586   3.457   3.601
  130OSM   H12T13915   3.493   3.614   3.590
  130OSM   C13S13916   3.689   3.628   3.672
  130OSM   H13S13917   3.719   3.732   3.646
  130OSM   H13T13918   3.779   3.563   3.661
  130OSM   C14S13919   3.636   3.618   3.809
  130OSM   H14S13920   3.621   3.509   3.825
  130OSM   H14T13921   3.538   3.671   3.814
  130OSM   C15S13922   3.723   3.665   3.926
  130OSM   H15S13923   3.747   3.773   3.925
  130OSM   H15T13924   3.824   3.621   3.916
  130OSM   C16S13925   3.661   3.636   4.062
  130OSM   H16S13926   3.737   3.661   4.139
  130OSM   H16T13927   3.641   3.527   4.076
  130OSM   C17S13928   3.539   3.718   4.097
  130OSM   H17S13929   3.460   3.688   4.025
  130OSM   H17T13930   3.568   3.824   4.082
  130OSM   C18S13931   3.491   3.704   4.243
  130OSM   H18S13932   3.433   3.610   4.244
  130OSM   H18T13933   3.423   3.785   4.278
  130OSM   H18U13934   3.576   3.679   4.310
  130OSM    C1F13935   3.557   4.121   2.740
  130OSM     OF13936   3.451   4.182   2.745
  130OSM    C2F13937   3.669   4.181   2.817
  130OSM    H2F13938   3.681   4.285   2.780
  130OSM    H2G13939   3.763   4.126   2.793
  130OSM    C3F13940   3.642   4.175   2.976
  130OSM    H3F13941   3.609   4.073   3.006
  130OSM    H3G13942   3.554   4.237   3.001
  130OSM    C4F13943   3.764   4.201   3.059
  130OSM    H4F13944   3.794   4.308   3.056
  130OSM    H4G13945   3.851   4.134   3.043
  130OSM    C5F13946   3.731   4.174   3.208
  130OSM    H5F13947   3.724   4.064   3.225
  130OSM    H5G13948   3.626   4.207   3.225
  130OSM    C6F13949   3.838   4.229   3.301
  130OSM    H6F13950   3.829   4.339   3.291
  130OSM    H6G13951   3.931   4.189   3.256
  130OSM    C7F13952   3.808   4.195   3.444
  130OSM    H7F13953   3.823   4.099   3.499
  130OSM    H7G13954   3.698   4.203   3.459
  130OSM    C8F13955   3.870   4.306   3.536
  130OSM    H8F13956   3.847   4.405   3.492
  130OSM    H8G13957   3.980   4.289   3.537
  130OSM    C9F13958   3.802   4.306   3.669
  130OSM    H9F13959   3.699   4.269   3.673
  130OSM   C10F13960   3.854   4.353   3.785
  130OSM   H10F13961   3.792   4.340   3.874
  130OSM   C11F13962   3.981   4.443   3.792
  130OSM   H11F13963   3.949   4.549   3.781
  130OSM   H11G13964   4.040   4.414   3.703
  130OSM   C12F13965   4.063   4.424   3.924
  130OSM   H12F13966   4.155   4.482   3.903
  130OSM   H12G13967   4.096   4.318   3.934
  130OSM   C13F13968   3.995   4.466   4.048
  130OSM   H13F13969   3.898   4.412   4.046
  130OSM   H13G13970   3.980   4.575   4.035
  130OSM   C14F13971   4.076   4.446   4.179
  130OSM   H14F13972   4.169   4.504   4.191
  130OSM   H14G13973   4.119   4.344   4.185
  130OSM   C15F13974   3.980   4.457   4.304
  130OSM   H15F13975   3.907   4.372   4.302
  130OSM   H15G13976   3.922   4.551   4.293
  130OSM   C16F13977   4.047   4.453   4.442
  130OSM   H16F13978   4.109   4.544   4.460
  130OSM   H16G13979   4.110   4.362   4.453
  130OSM   C17F13980   3.936   4.436   4.548
  130OSM   H17F13981   3.878   4.345   4.520
  130OSM   H17G13982   3.864   4.519   4.533
  130OSM   C18F13983   3.982   4.412   4.690
  130OSM   H18F13984   3.999   4.303   4.701
  130OSM   H18G13985   3.900   4.441   4.759
  130OSM   H18H13986   4.078   4.464   4.708
  131OSM      N13987   0.947   0.271   2.007
  131OSM    C1513988   1.044   0.174   1.975
  131OSM   H15A13989   0.997   0.093   1.922
  131OSM   H15B13990   1.093   0.147   2.067
  131OSM   H15C13991   1.128   0.206   1.914
  131OSM    C1413992   0.880   0.324   1.885
  131OSM   H14A13993   0.795   0.383   1.917
  131OSM   H14B13994   0.850   0.242   1.821
  131OSM   H14C13995   0.941   0.394   1.829
  131OSM    C1313996   0.840   0.208   2.086
  131OSM   H13A13997   0.782   0.147   2.018
  131OSM   H13B13998   0.773   0.281   2.127
  131OSM   H13C13999   0.883   0.152   2.168
  131OSM    C1214000   1.003   0.389   2.088
  131OSM   H12A14001   0.921   0.435   2.140
  131OSM   H12B14002   1.041   0.473   2.032
  131OSM    C1114003   1.114   0.356   2.191
  131OSM   H11A14004   1.070   0.273   2.251
  131OSM   H11B14005   1.121   0.443   2.259
  131OSM      P14006   1.312   0.440   2.056
  131OSM    O1314007   1.374   0.369   1.945
  131OSM    O1414008   1.225   0.555   2.012
  131OSM    O1114009   1.430   0.475   2.155
  131OSM    O1214010   1.239   0.324   2.133
  131OSM    C1S14011   1.401   0.551   2.274
  131OSM    H1S14012   1.300   0.598   2.269
  131OSM    H1T14013   1.470   0.637   2.291
  131OSM     NF14014   1.388   0.544   2.522
  131OSM    HNF14015   1.471   0.577   2.567
  131OSM    C2S14016   1.393   0.456   2.401
  131OSM    H2S14017   1.300   0.395   2.403
  131OSM    C3S14018   1.520   0.357   2.412
  131OSM    H3S14019   1.604   0.422   2.447
  131OSM     O314020   1.563   0.292   2.282
  131OSM    HO314021   1.509   0.349   2.225
  131OSM    C4S14022   1.494   0.247   2.511
  131OSM    H4S14023   1.418   0.176   2.476
  131OSM    C5S14024   1.575   0.223   2.614
  131OSM    H5S14025   1.650   0.298   2.642
  131OSM    C6S14026   1.580   0.098   2.699
  131OSM    H6S14027   1.668   0.036   2.674
  131OSM    H6T14028   1.492   0.033   2.680
  131OSM    C7S14029   1.578   0.145   2.842
  131OSM    H7S14030   1.479   0.188   2.866
  131OSM    H7T14031   1.646   0.232   2.855
  131OSM    C8S14032   1.608   0.023   2.925
  131OSM    H8S14033   1.697   6.807   2.886
  131OSM    H8T14034   1.524   6.790   2.913
  131OSM    C9S14035   1.627   0.042   3.079
  131OSM    H9S14036   1.534   0.094   3.111
  131OSM    H9T14037   1.714   0.110   3.087
  131OSM   C10S14038   1.645   6.753   3.165
  131OSM   H10S14039   1.733   6.696   3.127
  131OSM   H10T14040   1.550   6.696   3.155
  131OSM   C11S14041   1.652   6.779   3.322
  131OSM   H11S14042   1.560   6.837   3.344
  131OSM   H11T14043   1.742   0.003   3.340
  131OSM   C12S14044   1.640   6.653   3.411
  131OSM   H12S14045   1.717   6.582   3.375
  131OSM   H12T14046   1.541   6.614   3.380
  131OSM   C13S14047   1.645   6.680   3.559
  131OSM   H13S14048   1.623   6.584   3.611
  131OSM   H13T14049   1.560   6.747   3.585
  131OSM   C14S14050   1.778   6.734   3.612
  131OSM   H14S14051   1.795   6.831   3.560
  131OSM   H14T14052   1.866   6.675   3.580
  131OSM   C15S14053   1.785   6.748   3.770
  131OSM   H15S14054   1.792   6.647   3.817
  131OSM   H15T14055   1.686   6.782   3.809
  131OSM   C16S14056   1.899   6.833   3.825
  131OSM   H16S14057   1.889   0.101   3.793
  131OSM   H16T14058   1.998   6.802   3.784
  131OSM   C17S14059   1.934   6.805   3.970
  131OSM   H17S14060   1.975   6.702   3.969
  131OSM   H17T14061   1.842   6.810   4.032
  131OSM   C18S14062   2.045   0.058   4.029
  131OSM   H18S14063   2.137   0.050   3.968
  131OSM   H18T14064   2.083   0.031   4.130
  131OSM   H18U14065   2.002   0.160   4.031
  131OSM    C1F14066   1.277   0.611   2.546
  131OSM     OF14067   1.168   0.557   2.522
  131OSM    C2F14068   1.291   0.742   2.610
  131OSM    H2F14069   1.385   0.787   2.570
  131OSM    H2G14070   1.320   0.727   2.717
  131OSM    C3F14071   1.167   0.837   2.597
  131OSM    H3F14072   1.085   0.785   2.650
  131OSM    H3G14073   1.146   0.847   2.488
  131OSM    C4F14074   1.196   0.970   2.668
  131OSM    H4F14075   1.138   1.061   2.639
  131OSM    H4G14076   1.301   0.993   2.639
  131OSM    C5F14077   1.188   0.968   2.824
  131OSM    H5F14078   1.248   1.055   2.857
  131OSM    H5G14079   1.224   0.868   2.857
  131OSM    C6F14080   1.043   0.982   2.871
  131OSM    H6F14081   0.978   0.927   2.800
  131OSM    H6G14082   1.016   1.086   2.844
  131OSM    C7F14083   1.012   0.960   3.020
  131OSM    H7F14084   0.913   1.009   3.031
  131OSM    H7G14085   1.087   1.011   3.085
  131OSM    C8F14086   0.975   0.812   3.053
  131OSM    H8F14087   0.897   0.772   2.984
  131OSM    H8G14088   0.934   0.803   3.156
  131OSM    C9F14089   1.095   0.717   3.023
  131OSM    H9F14090   1.124   0.695   2.920
  131OSM   C10F14091   1.171   0.676   3.122
  131OSM   H10F14092   1.265   0.629   3.090
  131OSM   C11F14093   1.154   0.711   3.265
  131OSM   H11F14094   1.071   0.665   3.323
  131OSM   H11G14095   1.149   0.821   3.279
  131OSM   C12F14096   1.279   0.648   3.336
  131OSM   H12F14097   1.371   0.678   3.282
  131OSM   H12G14098   1.269   0.539   3.318
  131OSM   C13F14099   1.297   0.674   3.489
  131OSM   H13F14100   1.339   0.586   3.542
  131OSM   H13G14101   1.196   0.694   3.531
  131OSM   C14F14102   1.387   0.797   3.510
  131OSM   H14F14103   1.344   0.878   3.447
  131OSM   H14G14104   1.488   0.769   3.470
  131OSM   C15F14105   1.395   0.855   3.656
  131OSM   H15F14106   1.430   0.777   3.727
  131OSM   H15G14107   1.294   0.888   3.687
  131OSM   C16F14108   1.502   0.965   3.650
  131OSM   H16F14109   1.462   1.033   3.573
  131OSM   H16G14110   1.593   0.921   3.604
  131OSM   C17F14111   1.545   1.046   3.779
  131OSM   H17F14112   1.452   1.096   3.813
  131OSM   H17G14113   1.611   1.128   3.746
  131OSM   C18F14114   1.604   0.954   3.886
  131OSM   H18F14115   1.525   0.896   3.938
  131OSM   H18G14116   1.650   1.026   3.957
  131OSM   H18H14117   1.684   0.890   3.844
  132OSM      N14118   5.654   6.596   2.165
  132OSM    C1514119   5.565   6.548   2.053
  132OSM   H15A14120   5.502   6.468   2.088
  132OSM   H15B14121   5.620   6.529   1.962
  132OSM   H15C14122   5.494   6.625   2.025
  132OSM    C1414123   5.577   6.659   2.283
  132OSM   H14A14124   5.647   6.690   2.358
  132OSM   H14B14125   5.501   6.591   2.318
  132OSM   H14C14126   5.537   6.752   2.245
  132OSM    C1314127   5.740   6.491   2.228
  132OSM   H13A14128   5.811   6.547   2.288
  132OSM   H13B14129   5.802   6.435   2.159
  132OSM   H13C14130   5.675   6.431   2.290
  132OSM    C1214131   5.743   6.706   2.102
  132OSM   H12A14132   5.810   6.755   2.171
  132OSM   H12B14133   5.679   6.786   2.069
  132OSM    C1114134   5.826   6.666   1.976
  132OSM   H11A14135   5.848   6.763   1.927
  132OSM   H11B14136   5.753   6.615   1.908
  132OSM      P14137   6.076   6.653   2.060
  132OSM    O1314138   6.182   6.552   2.038
  132OSM    O1414139   6.102   6.788   2.005
  132OSM    O1114140   6.053   6.657   2.226
  132OSM    O1214141   5.941   6.590   2.007
  132OSM    C1S14142   6.077   6.536   2.303
  132OSM    H1S14143   6.098   6.451   2.235
  132OSM    H1T14144   5.984   6.515   2.362
  132OSM     NF14145   6.215   6.443   2.483
  132OSM    HNF14146   6.170   6.448   2.572
  132OSM    C2S14147   6.194   6.563   2.401
  132OSM    H2S14148   6.287   6.576   2.342
  132OSM    C3S14149   6.178   6.693   2.482
  132OSM    H3S14150   6.081   6.691   2.537
  132OSM     O314151   6.169   6.822   2.419
  132OSM    HO314152   6.109   6.799   2.348
  132OSM    C4S14153   6.295   6.704   2.576
  132OSM    H4S14154   6.390   6.725   2.524
  132OSM    C5S14155   6.281   6.701   2.712
  132OSM    H5S14156   6.183   6.673   2.752
  132OSM    C6S14157   6.390   6.723   2.815
  132OSM    H6S14158   6.425   6.828   2.806
  132OSM    H6T14159   6.476   6.653   2.808
  132OSM    C7S14160   6.325   6.697   2.950
  132OSM    H7S14161   6.260   6.606   2.948
  132OSM    H7T14162   6.249   6.771   2.983
  132OSM    C8S14163   6.425   6.679   3.059
  132OSM    H8S14164   6.479   6.776   3.068
  132OSM    H8T14165   6.495   6.596   3.036
  132OSM    C9S14166   6.356   6.646   3.192
  132OSM    H9S14167   6.321   6.541   3.186
  132OSM    H9T14168   6.270   6.715   3.207
  132OSM   C10S14169   6.446   6.655   3.307
  132OSM   H10S14170   6.485   6.758   3.318
  132OSM   H10T14171   6.527   6.578   3.297
  132OSM   C11S14172   6.371   6.626   3.436
  132OSM   H11S14173   6.336   6.522   3.422
  132OSM   H11T14174   6.282   6.689   3.455
  132OSM   C12S14175   6.471   6.629   3.547
  132OSM   H12S14176   6.429   6.678   3.637
  132OSM   H12T14177   6.557   6.690   3.513
  132OSM   C13S14178   6.512   6.488   3.588
  132OSM   H13S14179   6.535   6.432   3.495
  132OSM   H13T14180   6.427   6.435   3.635
  132OSM   C14S14181   6.634   6.482   3.671
  132OSM   H14S14182   6.717   6.552   3.646
  132OSM   H14T14183   6.681   6.384   3.649
  132OSM   C15S14184   6.607   6.482   3.815
  132OSM   H15S14185   6.527   6.407   3.834
  132OSM   H15T14186   6.575   6.581   3.854
  132OSM   C16S14187   6.736   6.440   3.897
  132OSM   H16S14188   6.817   6.504   3.856
  132OSM   H16T14189   6.758   6.334   3.872
  132OSM   C17S14190   6.726   6.444   4.052
  132OSM   H17S14191   6.718   6.551   4.083
  132OSM   H17T14192   6.820   6.404   4.096
  132OSM   C18S14193   6.602   6.371   4.100
  132OSM   H18S14194   6.597   6.372   4.211
  132OSM   H18T14195   6.601   6.268   4.057
  132OSM   H18U14196   6.505   6.415   4.068
  132OSM    C1F14197   6.254   6.332   2.437
  132OSM     OF14198   6.293   6.312   2.324
  132OSM    C2F14199   6.232   6.205   2.521
  132OSM    H2F14200   6.225   6.124   2.446
  132OSM    H2G14201   6.134   6.222   2.569
  132OSM    C3F14202   6.357   6.177   2.614
  132OSM    H3F14203   6.445   6.166   2.548
  132OSM    H3G14204   6.348   6.081   2.670
  132OSM    C4F14205   6.382   6.285   2.716
  132OSM    H4F14206   6.284   6.299   2.766
  132OSM    H4G14207   6.406   6.381   2.664
  132OSM    C5F14208   6.496   6.228   2.813
  132OSM    H5F14209   6.586   6.239   2.749
  132OSM    H5G14210   6.476   6.121   2.833
  132OSM    C6F14211   6.515   6.307   2.940
  132OSM    H6F14212   6.421   6.297   2.999
  132OSM    H6G14213   6.516   6.417   2.929
  132OSM    C7F14214   6.630   6.271   3.033
  132OSM    H7F14215   6.730   6.282   2.985
  132OSM    H7G14216   6.624   6.162   3.055
  132OSM    C8F14217   6.618   6.340   3.172
  132OSM    H8F14218   6.518   6.326   3.219
  132OSM    H8G14219   6.637   6.448   3.155
  132OSM    C9F14220   6.726   6.303   3.267
  132OSM    H9F14221   6.821   6.355   3.249
  132OSM   C10F14222   6.730   6.220   3.371
  132OSM   H10F14223   6.831   6.206   3.414
  132OSM   C11F14224   6.615   6.124   3.417
  132OSM   H11F14225   6.541   6.111   3.336
  132OSM   H11G14226   6.556   6.151   3.508
  132OSM   C12F14227   6.671   5.988   3.467
  132OSM   H12F14228   6.734   5.932   3.395
  132OSM   H12G14229   6.584   5.931   3.504
  132OSM   C13F14230   6.762   5.987   3.592
  132OSM   H13F14231   6.808   6.085   3.620
  132OSM   H13G14232   0.012   5.921   3.577
  132OSM   C14F14233   6.690   5.925   3.713
  132OSM   H14F14234   6.646   5.826   3.687
  132OSM   H14G14235   6.610   5.985   3.761
  132OSM   C15F14236   6.793   5.899   3.820
  132OSM   H15F14237   0.048   5.862   3.773
  132OSM   H15G14238   6.770   5.810   3.881
  132OSM   C16F14239   6.823   6.026   3.907
  132OSM   H16F14240   6.724   6.052   3.951
  132OSM   H16G14241   0.006   6.108   3.836
  132OSM   C17F14242   0.083   6.012   4.024
  132OSM   H17F14243   0.187   6.020   3.987
  132OSM   H17G14244   0.074   5.923   4.091
  132OSM   C18F14245   0.071   6.136   4.112
  132OSM   H18F14246   0.151   6.134   4.189
  132OSM   H18G14247   6.810   6.147   4.160
  132OSM   H18H14248   0.082   6.225   4.047
  133OSM      N14249   4.593   3.534   2.334
  133OSM    C1514250   4.471   3.603   2.296
  133OSM   H15A14251   4.473   3.673   2.214
  133OSM   H15B14252   4.435   3.665   2.376
  133OSM   H15C14253   4.389   3.534   2.277
  133OSM    C1414254   4.710   3.630   2.348
  133OSM   H14A14255   4.803   3.577   2.333
  133OSM   H14B14256   4.708   3.672   2.447
  133OSM   H14C14257   4.697   3.702   2.268
  133OSM    C1314258   4.570   3.457   2.461
  133OSM   H13A14259   4.654   3.397   2.493
  133OSM   H13B14260   4.482   3.396   2.456
  133OSM   H13C14261   4.547   3.525   2.542
  133OSM    C1214262   4.619   3.425   2.239
  133OSM   H12A14263   4.609   3.463   2.138
  133OSM   H12B14264   4.546   3.347   2.249
  133OSM    C1114265   4.748   3.350   2.249
  133OSM   H11A14266   4.779   3.313   2.350
  133OSM   H11B14267   4.824   3.422   2.212
  133OSM      P14268   4.867   3.130   2.180
  133OSM    O1314269   4.845   3.019   2.082
  133OSM    O1414270   4.993   3.203   2.168
  133OSM    O1114271   4.850   3.070   2.320
  133OSM    O1214272   4.745   3.232   2.168
  133OSM    C1S14273   4.780   2.949   2.343
  133OSM    H1S14274   4.832   2.866   2.291
  133OSM    H1T14275   4.676   2.968   2.308
  133OSM     NF14276   4.757   2.756   2.506
  133OSM    HNF14277   4.667   2.720   2.528
  133OSM    C2S14278   4.778   2.907   2.495
  133OSM    H2S14279   4.877   2.937   2.537
  133OSM    C3S14280   4.673   2.995   2.563
  133OSM    H3S14281   4.581   2.963   2.510
  133OSM     O314282   4.691   3.134   2.525
  133OSM    HO314283   4.713   3.118   2.433
  133OSM    C4S14284   4.678   2.967   2.717
  133OSM    H4S14285   4.635   2.869   2.744
  133OSM    C5S14286   4.744   3.029   2.815
  133OSM    H5S14287   4.804   3.115   2.782
  133OSM    C6S14288   4.760   2.986   2.957
  133OSM    H6S14289   4.704   3.064   3.014
  133OSM    H6T14290   4.862   3.007   2.994
  133OSM    C7S14291   4.734   2.839   2.988
  133OSM    H7S14292   4.802   2.775   2.928
  133OSM    H7T14293   4.633   2.814   2.949
  133OSM    C8S14294   4.741   2.810   3.140
  133OSM    H8S14295   4.643   2.825   3.190
  133OSM    H8T14296   4.826   2.868   3.180
  133OSM    C9S14297   4.761   2.660   3.166
  133OSM    H9S14298   4.852   2.638   3.107
  133OSM    H9T14299   4.681   2.596   3.122
  133OSM   C10S14300   4.784   2.621   3.316
  133OSM   H10S14301   4.688   2.638   3.369
  133OSM   H10T14302   4.864   2.689   3.350
  133OSM   C11S14303   4.825   2.474   3.325
  133OSM   H11S14304   4.935   2.471   3.314
  133OSM   H11T14305   4.765   2.423   3.246
  133OSM   C12S14306   4.799   2.412   3.466
  133OSM   H12S14307   4.811   2.302   3.459
  133OSM   H12T14308   4.690   2.424   3.488
  133OSM   C13S14309   4.891   2.461   3.582
  133OSM   H13S14310   4.887   2.572   3.580
  133OSM   H13T14311   4.993   2.417   3.577
  133OSM   C14S14312   4.831   2.433   3.721
  133OSM   H14S14313   4.799   2.327   3.717
  133OSM   H14T14314   4.740   2.497   3.729
  133OSM   C15S14315   4.939   2.461   3.830
  133OSM   H15S14316   4.965   2.569   3.824
  133OSM   H15T14317   5.042   2.429   3.802
  133OSM   C16S14318   4.898   2.422   3.968
  133OSM   H16S14319   4.857   2.319   3.962
  133OSM   H16T14320   4.822   2.488   4.013
  133OSM   C17S14321   5.012   2.429   4.076
  133OSM   H17S14322   5.033   2.537   4.092
  133OSM   H17T14323   5.105   2.383   4.038
  133OSM   C18S14324   4.963   2.364   4.205
  133OSM   H18S14325   4.876   2.417   4.248
  133OSM   H18T14326   5.037   2.359   4.288
  133OSM   H18U14327   4.929   2.260   4.187
  133OSM    C1F14328   4.845   2.654   2.486
  133OSM     OF14329   4.956   2.683   2.438
  133OSM    C2F14330   4.805   2.509   2.515
  133OSM    H2F14331   4.814   2.448   2.423
  133OSM    H2G14332   4.698   2.514   2.543
  133OSM    C3F14333   4.874   2.444   2.639
  133OSM    H3F14334   4.983   2.458   2.625
  133OSM    H3G14335   4.854   2.335   2.633
  133OSM    C4F14336   4.822   2.495   2.767
  133OSM    H4F14337   4.713   2.474   2.762
  133OSM    H4G14338   4.837   2.605   2.771
  133OSM    C5F14339   4.887   2.424   2.883
  133OSM    H5F14340   4.899   2.505   2.957
  133OSM    H5G14341   4.989   2.382   2.867
  133OSM    C6F14342   4.793   2.322   2.943
  133OSM    H6F14343   4.719   2.282   2.871
  133OSM    H6G14344   4.733   2.361   3.028
  133OSM    C7F14345   4.872   2.193   2.988
  133OSM    H7F14346   4.945   2.227   3.065
  133OSM    H7G14347   4.931   2.144   2.907
  133OSM    C8F14348   4.794   2.083   3.059
  133OSM    H8F14349   4.704   2.054   3.001
  133OSM    H8G14350   4.750   2.127   3.151
  133OSM    C9F14351   4.887   1.966   3.090
  133OSM    H9F14352   4.918   1.909   3.001
  133OSM   C10F14353   4.932   1.933   3.213
  133OSM   H10F14354   4.994   1.843   3.226
  133OSM   C11F14355   4.902   2.002   3.344
  133OSM   H11F14356   4.886   2.112   3.330
  133OSM   H11G14357   4.984   1.976   3.414
  133OSM   C12F14358   4.770   1.945   3.416
  133OSM   H12F14359   4.756   1.836   3.404
  133OSM   H12G14360   4.687   1.996   3.362
  133OSM   C13F14361   4.754   1.989   3.555
  133OSM   H13F14362   4.659   1.939   3.584
  133OSM   H13G14363   4.740   2.098   3.566
  133OSM   C14F14364   4.856   1.929   3.653
  133OSM   H14F14365   4.946   1.992   3.633
  133OSM   H14G14366   4.880   1.824   3.628
  133OSM   C15F14367   4.805   1.942   3.802
  133OSM   H15F14368   4.706   1.893   3.799
  133OSM   H15G14369   4.791   2.049   3.830
  133OSM   C16F14370   4.904   1.884   3.905
  133OSM   H16F14371   5.000   1.931   3.875
  133OSM   H16G14372   4.926   1.777   3.888
  133OSM   C17F14373   4.855   1.906   4.045
  133OSM   H17F14374   4.757   1.853   4.043
  133OSM   H17G14375   4.832   2.007   4.084
  133OSM   C18F14376   4.956   1.838   4.144
  133OSM   H18F14377   4.908   1.835   4.244
  133OSM   H18G14378   5.049   1.899   4.151
  133OSM   H18H14379   4.985   1.740   4.099
  134OSM      N14380   5.636   5.202   2.120
  134OSM    C1514381   5.732   5.226   2.231
  134OSM   H15A14382   5.688   5.222   2.329
  134OSM   H15B14383   5.779   5.323   2.225
  134OSM   H15C14384   5.816   5.160   2.220
  134OSM    C1414385   5.714   5.221   1.995
  134OSM   H14A14386   5.761   5.317   2.007
  134OSM   H14B14387   5.660   5.212   1.901
  134OSM   H14C14388   5.795   5.150   1.991
  134OSM    C1314389   5.592   5.070   2.130
  134OSM   H13A14390   5.676   5.002   2.140
  134OSM   H13B14391   5.533   5.048   2.042
  134OSM   H13C14392   5.518   5.058   2.208
  134OSM    C1214393   5.521   5.302   2.131
  134OSM   H12A14394   5.565   5.400   2.144
  134OSM   H12B14395   5.473   5.284   2.226
  134OSM    C1114396   5.413   5.303   2.021
  134OSM   H11A14397   5.395   5.205   1.973
  134OSM   H11B14398   5.432   5.375   1.938
  134OSM      P14399   5.172   5.260   2.120
  134OSM    O1314400   5.037   5.322   2.091
  134OSM    O1414401   5.200   5.124   2.069
  134OSM    O1114402   5.172   5.248   2.278
  134OSM    O1214403   5.294   5.349   2.081
  134OSM    C1S14404   5.171   5.362   2.356
  134OSM    H1S14405   5.074   5.413   2.340
  134OSM    H1T14406   5.247   5.432   2.315
  134OSM     NF14407   5.171   5.439   2.604
  134OSM    HNF14408   5.241   5.496   2.646
  134OSM    C2S14409   5.202   5.334   2.505
  134OSM    H2S14410   5.133   5.251   2.533
  134OSM    C3S14411   5.353   5.281   2.511
  134OSM    H3S14412   5.418   5.366   2.481
  134OSM     O314413   5.383   5.170   2.423
  134OSM    HO314414   5.301   5.157   2.375
  134OSM    C4S14415   5.402   5.253   2.655
  134OSM    H4S14416   5.433   5.338   2.718
  134OSM    C5S14417   5.406   5.140   2.723
  134OSM    H5S14418   5.373   5.047   2.674
  134OSM    C6S14419   5.424   5.122   2.870
  134OSM    H6S14420   5.523   5.076   2.887
  134OSM    H6T14421   5.355   5.052   2.922
  134OSM    C7S14422   5.441   5.249   2.958
  134OSM    H7S14423   5.348   5.308   2.943
  134OSM    H7T14424   5.528   5.306   2.922
  134OSM    C8S14425   5.477   5.216   3.107
  134OSM    H8S14426   5.572   5.159   3.118
  134OSM    H8T14427   5.400   5.144   3.141
  134OSM    C9S14428   5.464   5.344   3.192
  134OSM    H9S14429   5.359   5.379   3.178
  134OSM    H9T14430   5.522   5.424   3.142
  134OSM   C10S14431   5.500   5.320   3.342
  134OSM   H10S14432   5.542   5.418   3.374
  134OSM   H10T14433   5.586   5.250   3.347
  134OSM   C11S14434   5.374   5.287   3.422
  134OSM   H11S14435   5.365   5.180   3.448
  134OSM   H11T14436   5.286   5.320   3.364
  134OSM   C12S14437   5.369   5.357   3.559
  134OSM   H12S14438   5.290   5.305   3.617
  134OSM   H12T14439   5.340   5.464   3.544
  134OSM   C13S14440   5.490   5.335   3.655
  134OSM   H13S14441   5.579   5.383   3.610
  134OSM   H13T14442   5.518   5.228   3.654
  134OSM   C14S14443   5.453   5.362   3.800
  134OSM   H14S14444   5.364   5.299   3.823
  134OSM   H14T14445   5.433   5.470   3.814
  134OSM   C15S14446   5.557   5.326   3.905
  134OSM   H15S14447   5.656   5.374   3.889
  134OSM   H15T14448   5.570   5.216   3.899
  134OSM   C16S14449   5.514   5.361   4.049
  134OSM   H16S14450   5.591   5.310   4.112
  134OSM   H16T14451   5.411   5.332   4.077
  134OSM   C17S14452   5.532   5.510   4.077
  134OSM   H17S14453   5.474   5.563   3.999
  134OSM   H17T14454   5.635   5.551   4.069
  134OSM   C18S14455   5.474   5.553   4.214
  134OSM   H18S14456   5.482   5.661   4.235
  134OSM   H18T14457   5.530   5.491   4.287
  134OSM   H18U14458   5.365   5.530   4.224
  134OSM    C1F14459   5.043   5.457   2.630
  134OSM     OF14460   4.955   5.388   2.579
  134OSM    C2F14461   5.010   5.565   2.732
  134OSM    H2F14462   4.918   5.617   2.698
  134OSM    H2G14463   5.097   5.634   2.731
  134OSM    C3F14464   4.968   5.514   2.880
  134OSM    H3F14465   5.056   5.450   2.902
  134OSM    H3G14466   4.880   5.449   2.862
  134OSM    C4F14467   4.932   5.619   2.980
  134OSM    H4F14468   4.848   5.677   2.937
  134OSM    H4G14469   5.017   5.690   2.983
  134OSM    C5F14470   4.896   5.563   3.113
  134OSM    H5F14471   4.975   5.491   3.143
  134OSM    H5G14472   4.796   5.515   3.104
  134OSM    C6F14473   4.866   5.679   3.212
  134OSM    H6F14474   4.798   5.759   3.175
  134OSM    H6G14475   4.963   5.728   3.235
  134OSM    C7F14476   4.816   5.618   3.349
  134OSM    H7F14477   4.737   5.543   3.330
  134OSM    H7G14478   4.769   5.701   3.408
  134OSM    C8F14479   4.924   5.554   3.438
  134OSM    H8F14480   5.003   5.630   3.456
  134OSM    H8G14481   4.960   5.463   3.386
  134OSM    C9F14482   4.854   5.511   3.565
  134OSM    H9F14483   4.759   5.456   3.553
  134OSM   C10F14484   4.890   5.530   3.696
  134OSM   H10F14485   4.839   5.474   3.776
  134OSM   C11F14486   5.020   5.596   3.744
  134OSM   H11F14487   5.048   5.678   3.675
  134OSM   H11G14488   5.092   5.512   3.756
  134OSM   C12F14489   5.015   5.669   3.881
  134OSM   H12F14490   4.960   5.605   3.953
  134OSM   H12G14491   4.948   5.754   3.855
  134OSM   C13F14492   5.153   5.719   3.926
  134OSM   H13F14493   5.196   5.764   3.833
  134OSM   H13G14494   5.215   5.630   3.947
  134OSM   C14F14495   5.158   5.808   4.044
  134OSM   H14F14496   5.131   5.913   4.017
  134OSM   H14G14497   5.261   5.819   4.083
  134OSM   C15F14498   5.066   5.765   4.156
  134OSM   H15F14499   5.083   5.656   4.174
  134OSM   H15G14500   4.960   5.781   4.129
  134OSM   C16F14501   5.076   5.834   4.290
  134OSM   H16F14502   4.995   5.799   4.358
  134OSM   H16G14503   5.052   5.942   4.282
  134OSM   C17F14504   5.203   5.814   4.368
  134OSM   H17F14505   5.217   5.898   4.440
  134OSM   H17G14506   5.300   5.820   4.314
  134OSM   C18F14507   5.195   5.680   4.441
  134OSM   H18F14508   5.110   5.669   4.511
  134OSM   H18G14509   5.279   5.674   4.513
  134OSM   H18H14510   5.200   5.598   4.367
  135OSM      N14511   0.039   1.458   1.878
  135OSM    C1514512   0.189   1.464   1.840
  135OSM   H15A14513   0.241   1.546   1.888
  135OSM   H15B14514   0.203   1.483   1.735
  135OSM   H15C14515   0.243   1.371   1.849
  135OSM    C1414516   6.812   1.575   1.824
  135OSM   H14A14517   6.708   1.584   1.853
  135OSM   H14B14518   6.815   1.578   1.717
  135OSM   H14C14519   0.013   1.671   1.853
  135OSM    C1314520   6.816   1.331   1.824
  135OSM   H13A14521   0.006   1.305   1.723
  135OSM   H13B14522   6.709   1.341   1.823
  135OSM   H13C14523   0.012   1.246   1.882
  135OSM    C1214524   0.027   1.455   2.030
  135OSM   H12A14525   6.762   1.435   2.057
  135OSM   H12B14526   0.045   1.557   2.059
  135OSM    C1114527   0.116   1.349   2.106
  135OSM   H11A14528   0.087   1.355   2.213
  135OSM   H11B14529   0.223   1.379   2.109
  135OSM      P14530   0.202   1.109   2.035
  135OSM    O1314531   0.148   1.007   1.943
  135OSM    O1414532   0.328   1.171   1.988
  135OSM    O1114533   0.237   1.046   2.174
  135OSM    O1214534   0.092   1.214   2.064
  135OSM    C1S14535   0.137   1.025   2.269
  135OSM    H1S14536   0.065   0.950   2.232
  135OSM    H1T14537   0.082   1.120   2.291
  135OSM     NF14538   0.098   0.909   2.491
  135OSM    HNF14539   0.104   0.937   2.587
  135OSM    C2S14540   0.195   0.967   2.399
  135OSM    H2S14541   0.267   0.885   2.378
  135OSM    C3S14542   0.280   1.086   2.466
  135OSM    H3S14543   0.206   1.166   2.485
  135OSM     O314544   0.388   1.132   2.386
  135OSM    HO314545   0.372   1.075   2.310
  135OSM    C4S14546   0.335   1.045   2.592
  135OSM    H4S14547   0.389   0.949   2.597
  135OSM    C5S14548   0.317   1.108   2.712
  135OSM    H5S14549   0.271   1.208   2.711
  135OSM    C6S14550   0.351   1.047   2.843
  135OSM    H6S14551   0.280   1.089   2.918
  135OSM    H6T14552   0.451   1.080   2.877
  135OSM    C7S14553   0.336   0.897   2.855
  135OSM    H7S14554   0.405   0.850   2.782
  135OSM    H7T14555   0.235   0.870   2.817
  135OSM    C8S14556   0.341   0.843   2.995
  135OSM    H8S14557   0.315   0.735   2.986
  135OSM    H8T14558   0.252   0.884   3.048
  135OSM    C9S14559   0.476   0.867   3.069
  135OSM    H9S14560   0.504   0.974   3.053
  135OSM    H9T14561   0.552   0.800   3.023
  135OSM   C10S14562   0.451   0.812   3.212
  135OSM   H10S14563   0.420   0.706   3.213
  135OSM   H10T14564   0.376   0.875   3.264
  135OSM   C11S14565   0.586   0.820   3.296
  135OSM   H11S14566   0.619   0.925   3.307
  135OSM   H11T14567   0.672   0.764   3.253
  135OSM   C12S14568   0.565   0.761   3.438
  135OSM   H12S14569   0.550   0.651   3.429
  135OSM   H12T14570   0.468   0.802   3.473
  135OSM   C13S14571   0.677   0.785   3.538
  135OSM   H13S14572   0.775   0.753   3.496
  135OSM   H13T14573   0.671   0.725   3.632
  135OSM   C14S14574   0.682   0.921   3.597
  135OSM   H14S14575   0.582   0.927   3.645
  135OSM   H14T14576   0.669   0.999   3.518
  135OSM   C15S14577   0.810   0.945   3.678
  135OSM   H15S14578   0.894   0.966   3.608
  135OSM   H15T14579   0.834   0.866   3.752
  135OSM   C16S14580   0.794   1.072   3.760
  135OSM   H16S14581   0.738   1.151   3.705
  135OSM   H16T14582   0.891   1.120   3.783
  135OSM   C17S14583   0.707   1.034   3.878
  135OSM   H17S14584   0.755   0.947   3.927
  135OSM   H17T14585   0.611   0.996   3.836
  135OSM   C18S14586   0.694   1.144   3.983
  135OSM   H18S14587   0.606   1.205   3.952
  135OSM   H18T14588   0.793   1.194   3.996
  135OSM   H18U14589   0.665   1.109   4.084
  135OSM    C1F14590   0.027   0.802   2.453
  135OSM     OF14591   0.049   0.741   2.350
  135OSM    C2F14592   6.741   0.765   2.541
  135OSM    H2F14593   6.666   0.756   2.459
  135OSM    H2G14594   6.714   0.848   2.610
  135OSM    C3F14595   6.766   0.639   2.619
  135OSM    H3F14596   6.802   0.564   2.546
  135OSM    H3G14597   6.667   0.607   2.660
  135OSM    C4F14598   0.014   0.664   2.737
  135OSM    H4F14599   6.799   0.721   2.815
  135OSM    H4G14600   0.104   0.723   2.707
  135OSM    C5F14601   0.041   0.530   2.796
  135OSM    H5F14602   0.059   0.466   2.707
  135OSM    H5G14603   6.784   0.491   2.837
  135OSM    C6F14604   0.147   0.525   2.901
  135OSM    H6F14605   0.107   0.575   2.991
  135OSM    H6G14606   0.233   0.572   2.848
  135OSM    C7F14607   0.174   0.382   2.940
  135OSM    H7F14608   0.256   0.329   2.886
  135OSM    H7G14609   0.085   0.323   2.910
  135OSM    C8F14610   0.196   0.353   3.089
  135OSM    H8F14611   0.218   0.245   3.101
  135OSM    H8G14612   0.106   0.365   3.153
  135OSM    C9F14613   0.313   0.420   3.156
  135OSM    H9F14614   0.373   0.492   3.099
  135OSM   C10F14615   0.351   0.405   3.286
  135OSM   H10F14616   0.450   0.435   3.325
  135OSM   C11F14617   0.283   0.308   3.377
  135OSM   H11F14618   0.302   0.209   3.330
  135OSM   H11G14619   0.174   0.328   3.373
  135OSM   C12F14620   0.350   0.314   3.519
  135OSM   H12F14621   0.454   0.278   3.505
  135OSM   H12G14622   0.301   0.238   3.584
  135OSM   C13F14623   0.359   0.449   3.577
  135OSM   H13F14624   0.262   0.501   3.588
  135OSM   H13G14625   0.437   0.504   3.521
  135OSM   C14F14626   0.412   0.415   3.722
  135OSM   H14F14627   0.490   0.336   3.725
  135OSM   H14G14628   0.321   0.388   3.780
  135OSM   C15F14629   0.466   0.540   3.794
  135OSM   H15F14630   0.385   0.611   3.824
  135OSM   H15G14631   0.516   0.602   3.717
  135OSM   C16F14632   0.558   0.518   3.904
  135OSM   H16F14633   0.642   0.451   3.878
  135OSM   H16G14634   0.502   0.460   3.980
  135OSM   C17F14635   0.612   0.656   3.956
  135OSM   H17F14636   0.630   0.722   3.869
  135OSM   H17G14637   0.709   0.633   4.006
  135OSM   C18F14638   0.514   0.723   4.062
  135OSM   H18F14639   0.437   0.791   4.021
  135OSM   H18G14640   0.587   0.789   4.114
  135OSM   H18H14641   0.478   0.648   4.135
  136OSM      N14642   1.806   4.854   2.376
  136OSM    C1514643   1.694   4.885   2.461
  136OSM   H15A14644   1.658   4.802   2.519
  136OSM   H15B14645   1.607   4.925   2.411
  136OSM   H15C14646   1.730   4.967   2.522
  136OSM    C1414647   1.835   4.978   2.301
  136OSM   H14A14648   1.878   5.056   2.362
  136OSM   H14B14649   1.741   5.014   2.260
  136OSM   H14C14650   1.904   4.971   2.218
  136OSM    C1314651   1.922   4.830   2.473
  136OSM   H13A14652   1.929   4.906   2.550
  136OSM   H13B14653   2.013   4.819   2.415
  136OSM   H13C14654   1.913   4.745   2.538
  136OSM    C1214655   1.766   4.736   2.289
  136OSM   H12A14656   1.687   4.770   2.224
  136OSM   H12B14657   1.727   4.653   2.347
  136OSM    C1114658   1.879   4.666   2.209
  136OSM   H11A14659   1.832   4.575   2.168
  136OSM   H11B14660   1.947   4.619   2.283
  136OSM      P14661   2.081   4.790   2.114
  136OSM    O1314662   2.156   4.734   2.000
  136OSM    O1414663   2.075   4.936   2.121
  136OSM    O1114664   2.154   4.735   2.246
  136OSM    O1214665   1.935   4.736   2.100
  136OSM    C1S14666   2.245   4.828   2.310
  136OSM    H1S14667   2.196   4.919   2.350
  136OSM    H1T14668   2.327   4.861   2.242
  136OSM     NF14669   2.388   4.858   2.510
  136OSM    HNF14670   2.487   4.843   2.502
  136OSM    C2S14671   2.303   4.763   2.436
  136OSM    H2S14672   2.214   4.735   2.496
  136OSM    C3S14673   2.383   4.638   2.395
  136OSM    H3S14674   2.475   4.662   2.338
  136OSM     O314675   2.307   4.540   2.320
  136OSM    HO314676   2.230   4.591   2.294
  136OSM    C4S14677   2.420   4.575   2.523
  136OSM    H4S14678   2.524   4.592   2.556
  136OSM    C5S14679   2.340   4.494   2.600
  136OSM    H5S14680   2.239   4.470   2.565
  136OSM    C6S14681   2.374   4.430   2.730
  136OSM    H6S14682   2.337   4.326   2.745
  136OSM    H6T14683   2.324   4.490   2.808
  136OSM    C7S14684   2.521   4.440   2.771
  136OSM    H7S14685   2.557   4.544   2.783
  136OSM    H7T14686   2.597   4.396   2.703
  136OSM    C8S14687   2.549   4.357   2.906
  136OSM    H8S14688   2.655   4.372   2.938
  136OSM    H8T14689   2.545   4.247   2.888
  136OSM    C9S14690   2.449   4.388   3.026
  136OSM    H9S14691   2.347   4.363   2.992
  136OSM    H9T14692   2.439   4.498   3.037
  136OSM   C10S14693   2.482   4.329   3.170
  136OSM   H10S14694   2.484   4.219   3.152
  136OSM   H10T14695   2.389   4.357   3.224
  136OSM   C11S14696   2.612   4.379   3.230
  136OSM   H11S14697   2.613   4.490   3.223
  136OSM   H11T14698   2.691   4.326   3.172
  136OSM   C12S14699   2.634   4.345   3.380
  136OSM   H12S14700   2.650   4.236   3.374
  136OSM   H12T14701   2.544   4.364   3.442
  136OSM   C13S14702   2.744   4.423   3.446
  136OSM   H13S14703   2.722   4.531   3.435
  136OSM   H13T14704   2.839   4.404   3.391
  136OSM   C14S14705   2.749   4.383   3.594
  136OSM   H14S14706   2.777   4.275   3.605
  136OSM   H14T14707   2.645   4.400   3.628
  136OSM   C15S14708   2.831   4.470   3.685
  136OSM   H15S14709   2.798   4.576   3.681
  136OSM   H15T14710   2.937   4.470   3.651
  136OSM   C16S14711   2.823   4.418   3.834
  136OSM   H16S14712   2.889   4.329   3.833
  136OSM   H16T14713   2.720   4.387   3.862
  136OSM   C17S14714   2.890   4.509   3.935
  136OSM   H17S14715   2.832   4.604   3.928
  136OSM   H17T14716   2.996   4.532   3.910
  136OSM   C18S14717   2.876   4.464   4.082
  136OSM   H18S14718   2.913   4.362   4.108
  136OSM   H18T14719   2.771   4.461   4.118
  136OSM   H18U14720   2.927   4.536   4.150
  136OSM    C1F14721   2.345   4.960   2.584
  136OSM     OF14722   2.221   4.983   2.586
  136OSM    C2F14723   2.448   5.038   2.659
  136OSM    H2F14724   2.459   5.142   2.621
  136OSM    H2G14725   2.543   4.981   2.658
  136OSM    C3F14726   2.411   5.046   2.811
  136OSM    H3F14727   2.310   5.087   2.830
  136OSM    H3G14728   2.485   5.119   2.850
  136OSM    C4F14729   2.421   4.915   2.885
  136OSM    H4F14730   2.527   4.884   2.881
  136OSM    H4G14731   2.360   4.835   2.838
  136OSM    C5F14732   2.380   4.930   3.030
  136OSM    H5F14733   2.295   5.003   3.029
  136OSM    H5G14734   2.456   4.980   3.094
  136OSM    C6F14735   2.338   4.799   3.095
  136OSM    H6F14736   2.409   4.713   3.095
  136OSM    H6G14737   2.257   4.752   3.034
  136OSM    C7F14738   2.284   4.817   3.243
  136OSM    H7F14739   2.204   4.743   3.264
  136OSM    H7G14740   2.229   4.914   3.252
  136OSM    C8F14741   2.393   4.807   3.352
  136OSM    H8F14742   2.460   4.894   3.335
  136OSM    H8G14743   2.458   4.716   3.350
  136OSM    C9F14744   2.317   4.821   3.479
  136OSM    H9F14745   2.241   4.901   3.477
  136OSM   C10F14746   2.342   4.756   3.590
  136OSM   H10F14747   2.282   4.781   3.678
  136OSM   C11F14748   2.454   4.661   3.619
  136OSM   H11F14749   2.539   4.665   3.548
  136OSM   H11G14750   2.431   4.553   3.610
  136OSM   C12F14751   2.521   4.691   3.758
  136OSM   H12F14752   2.492   4.795   3.787
  136OSM   H12G14753   2.631   4.688   3.748
  136OSM   C13F14754   2.453   4.597   3.861
  136OSM   H13F14755   2.466   4.492   3.827
  136OSM   H13G14756   2.343   4.615   3.856
  136OSM   C14F14757   2.495   4.615   4.007
  136OSM   H14F14758   2.466   4.715   4.045
  136OSM   H14G14759   2.605   4.596   4.013
  136OSM   C15F14760   2.428   4.509   4.090
  136OSM   H15F14761   2.467   4.406   4.074
  136OSM   H15G14762   2.322   4.509   4.056
  136OSM   C16F14763   2.431   4.540   4.242
  136OSM   H16F14764   2.428   4.650   4.259
  136OSM   H16G14765   2.535   4.521   4.275
  136OSM   C17F14766   2.327   4.457   4.320
  136OSM   H17F14767   2.229   4.499   4.289
  136OSM   H17G14768   2.326   4.486   4.428
  136OSM   C18F14769   2.326   4.312   4.304
  136OSM   H18F14770   2.286   4.294   4.202
  136OSM   H18G14771   2.257   4.258   4.372
  136OSM   H18H14772   2.430   4.274   4.308
  137OSM      N14773   0.624   2.431   1.699
  137OSM    C1514774   0.661   2.376   1.563
  137OSM   H15A14775   0.741   2.434   1.519
  137OSM   H15B14776   0.585   2.365   1.487
  137OSM   H15C14777   0.701   2.277   1.581
  137OSM    C1414778   0.590   2.574   1.681
  137OSM   H14A14779   0.512   2.590   1.609
  137OSM   H14B14780   0.684   2.618   1.651
  137OSM   H14C14781   0.549   2.617   1.772
  137OSM    C1314782   0.504   2.346   1.744
  137OSM   H13A14783   0.524   2.241   1.735
  137OSM   H13B14784   0.413   2.369   1.689
  137OSM   H13C14785   0.490   2.375   1.847
  137OSM    C1214786   0.746   2.407   1.792
  137OSM   H12A14787   0.833   2.448   1.742
  137OSM   H12B14788   0.756   2.300   1.783
  137OSM    C1114789   0.738   2.445   1.939
  137OSM   H11A14790   0.837   2.418   1.980
  137OSM   H11B14791   0.662   2.393   2.002
  137OSM      P14792   0.841   2.683   1.944
  137OSM    O1314793   0.938   2.636   1.838
  137OSM    O1414794   0.792   2.823   1.939
  137OSM    O1114795   0.912   2.661   2.084
  137OSM    O1214796   0.719   2.580   1.949
  137OSM    C1S14797   0.838   2.651   2.205
  137OSM    H1S14798   0.740   2.601   2.189
  137OSM    H1T14799   0.816   2.749   2.251
  137OSM     NF14800   0.823   2.512   2.408
  137OSM    HNF14801   0.838   2.552   2.498
  137OSM    C2S14802   0.913   2.557   2.305
  137OSM    H2S14803   0.949   2.465   2.252
  137OSM    C3S14804   1.039   2.624   2.362
  137OSM    H3S14805   1.002   2.707   2.425
  137OSM     O314806   1.121   2.668   2.255
  137OSM    HO314807   1.071   2.662   2.173
  137OSM    C4S14808   1.109   2.521   2.448
  137OSM    H4S14809   1.158   2.438   2.395
  137OSM    C5S14810   1.094   2.522   2.582
  137OSM    H5S14811   1.030   2.596   2.631
  137OSM    C6S14812   1.152   2.415   2.672
  137OSM    H6S14813   1.253   2.438   2.712
  137OSM    H6T14814   1.162   2.325   2.608
  137OSM    C7S14815   1.058   2.377   2.781
  137OSM    H7S14816   0.967   2.326   2.743
  137OSM    H7T14817   1.019   2.472   2.824
  137OSM    C8S14818   1.125   2.289   2.891
  137OSM    H8S14819   1.199   2.221   2.845
  137OSM    H8T14820   1.048   2.228   2.942
  137OSM    C9S14821   1.173   2.374   3.008
  137OSM    H9S14822   1.087   2.430   3.050
  137OSM    H9T14823   1.247   2.445   2.965
  137OSM   C10S14824   1.232   2.295   3.124
  137OSM   H10S14825   1.314   2.231   3.087
  137OSM   H10T14826   1.161   2.223   3.170
  137OSM   C11S14827   1.285   2.389   3.236
  137OSM   H11S14828   1.200   2.460   3.241
  137OSM   H11T14829   1.377   2.443   3.206
  137OSM   C12S14830   1.298   2.324   3.373
  137OSM   H12S14831   1.390   2.263   3.374
  137OSM   H12T14832   1.205   2.266   3.391
  137OSM   C13S14833   1.324   2.435   3.474
  137OSM   H13S14834   1.224   2.483   3.484
  137OSM   H13T14835   1.395   2.514   3.444
  137OSM   C14S14836   1.365   2.375   3.607
  137OSM   H14S14837   1.472   2.347   3.603
  137OSM   H14T14838   1.290   2.293   3.614
  137OSM   C15S14839   1.353   2.463   3.733
  137OSM   H15S14840   1.256   2.515   3.724
  137OSM   H15T14841   1.444   2.528   3.727
  137OSM   C16S14842   1.377   2.388   3.869
  137OSM   H16S14843   1.472   2.333   3.856
  137OSM   H16T14844   1.300   2.310   3.884
  137OSM   C17S14845   1.382   2.489   3.983
  137OSM   H17S14846   1.429   2.581   3.940
  137OSM   H17T14847   1.443   2.460   4.071
  137OSM   C18S14848   1.248   2.529   4.033
  137OSM   H18S14849   1.191   2.440   4.066
  137OSM   H18T14850   1.193   2.586   3.955
  137OSM   H18U14851   1.251   2.581   4.131
  137OSM    C1F14852   0.724   2.425   2.388
  137OSM     OF14853   0.733   2.344   2.288
  137OSM    C2F14854   0.618   2.411   2.492
  137OSM    H2F14855   0.573   2.313   2.467
  137OSM    H2G14856   0.536   2.485   2.479
  137OSM    C3F14857   0.661   2.401   2.638
  137OSM    H3F14858   0.706   2.497   2.670
  137OSM    H3G14859   0.754   2.342   2.650
  137OSM    C4F14860   0.554   2.362   2.740
  137OSM    H4F14861   0.499   2.278   2.692
  137OSM    H4G14862   0.498   2.454   2.763
  137OSM    C5F14863   0.625   2.299   2.861
  137OSM    H5F14864   0.691   2.218   2.821
  137OSM    H5G14865   0.546   2.254   2.924
  137OSM    C6F14866   0.694   2.408   2.937
  137OSM    H6F14867   0.618   2.486   2.963
  137OSM    H6G14868   0.776   2.455   2.879
  137OSM    C7F14869   0.745   2.365   3.075
  137OSM    H7F14870   0.827   2.436   3.098
  137OSM    H7G14871   0.782   2.260   3.067
  137OSM    C8F14872   0.638   2.362   3.190
  137OSM    H8F14873   0.668   2.304   3.279
  137OSM    H8G14874   0.553   2.305   3.147
  137OSM    C9F14875   0.608   2.505   3.238
  137OSM    H9F14876   0.523   2.553   3.189
  137OSM   C10F14877   0.692   2.562   3.331
  137OSM   H10F14878   0.678   2.666   3.364
  137OSM   C11F14879   0.822   2.512   3.391
  137OSM   H11F14880   0.892   2.599   3.388
  137OSM   H11G14881   0.870   2.422   3.347
  137OSM   C12F14882   0.800   2.474   3.541
  137OSM   H12F14883   0.739   2.381   3.535
  137OSM   H12G14884   0.749   2.554   3.600
  137OSM   C13F14885   0.934   2.443   3.606
  137OSM   H13F14886   1.002   2.531   3.615
  137OSM   H13G14887   0.995   2.373   3.545
  137OSM   C14F14888   0.907   2.362   3.733
  137OSM   H14F14889   1.000   2.332   3.787
  137OSM   H14G14890   0.850   2.275   3.693
  137OSM   C15F14891   0.829   2.429   3.853
  137OSM   H15F14892   0.758   2.501   3.806
  137OSM   H15G14893   0.889   2.499   3.916
  137OSM   C16F14894   0.752   2.332   3.936
  137OSM   H16F14895   0.676   2.283   3.871
  137OSM   H16G14896   0.703   2.382   4.022
  137OSM   C17F14897   0.832   2.214   3.992
  137OSM   H17F14898   0.853   2.151   3.902
  137OSM   H17G14899   0.769   2.147   4.054
  137OSM   C18F14900   0.959   2.259   4.063
  137OSM   H18F14901   1.019   2.180   4.113
  137OSM   H18G14902   0.927   2.339   4.134
  137OSM   H18H14903   1.026   2.315   3.994
  138OSM      N14904   5.498   5.935   2.147
  138OSM    C1514905   5.370   6.015   2.112
  138OSM   H15A14906   5.346   6.080   2.194
  138OSM   H15B14907   5.282   5.953   2.117
  138OSM   H15C14908   5.374   6.050   2.010
  138OSM    C1414909   5.471   5.864   2.284
  138OSM   H14A14910   5.423   5.931   2.354
  138OSM   H14B14911   5.562   5.824   2.324
  138OSM   H14C14912   5.405   5.780   2.265
  138OSM    C1314913   5.530   5.826   2.042
  138OSM   H13A14914   5.618   5.770   2.071
  138OSM   H13B14915   5.551   5.874   1.948
  138OSM   H13C14916   5.447   5.757   2.050
  138OSM    C1214917   5.617   6.024   2.165
  138OSM   H12A14918   5.641   6.074   2.073
  138OSM   H12B14919   5.701   5.957   2.175
  138OSM    C1114920   5.611   6.117   2.291
  138OSM   H11A14921   5.600   6.058   2.384
  138OSM   H11B14922   5.518   6.178   2.285
  138OSM      P14923   5.852   6.174   2.395
  138OSM    O1314924   5.829   6.055   2.477
  138OSM    O1414925   5.977   6.190   2.324
  138OSM    O1114926   5.844   6.301   2.489
  138OSM    O1214927   5.729   6.190   2.293
  138OSM    C1S14928   5.717   6.334   2.546
  138OSM    H1S14929   5.639   6.255   2.540
  138OSM    H1T14930   5.691   6.435   2.510
  138OSM     NF14931   5.602   6.392   2.754
  138OSM    HNF14932   5.568   6.486   2.763
  138OSM    C2S14933   5.730   6.359   2.701
  138OSM    H2S14934   5.768   6.271   2.757
  138OSM    C3S14935   5.840   6.472   2.717
  138OSM    H3S14936   5.811   6.554   2.649
  138OSM     O314937   5.970   6.434   2.676
  138OSM    HO314938   5.955   6.364   2.611
  138OSM    C4S14939   5.851   6.538   2.856
  138OSM    H4S14940   5.783   6.622   2.879
  138OSM    C5S14941   5.940   6.506   2.953
  138OSM    H5S14942   6.001   6.415   2.941
  138OSM    C6S14943   5.959   6.574   3.087
  138OSM    H6S14944   6.041   6.649   3.078
  138OSM    H6T14945   5.998   6.490   3.147
  138OSM    C7S14946   5.831   6.644   3.156
  138OSM    H7S14947   5.757   6.568   3.189
  138OSM    H7T14948   5.792   6.710   3.075
  138OSM    C8S14949   5.882   6.734   3.277
  138OSM    H8S14950   5.791   6.786   3.314
  138OSM    H8T14951   5.946   6.818   3.242
  138OSM    C9S14952   5.953   6.656   3.387
  138OSM    H9S14953   6.055   6.626   3.353
  138OSM    H9T14954   5.901   6.563   3.418
  138OSM   C10S14955   5.970   6.728   3.515
  138OSM   H10S14956   5.877   6.768   3.561
  138OSM   H10T14957   6.038   6.816   3.509
  138OSM   C11S14958   6.038   6.638   3.614
  138OSM   H11S14959   6.112   6.571   3.565
  138OSM   H11T14960   5.960   6.566   3.647
  138OSM   C12S14961   6.101   6.706   3.744
  138OSM   H12S14962   6.023   6.764   3.798
  138OSM   H12T14963   6.183   6.770   3.705
  138OSM   C13S14964   6.165   6.602   3.839
  138OSM   H13S14965   6.205   6.524   3.771
  138OSM   H13T14966   6.089   6.547   3.899
  138OSM   C14S14967   6.267   6.661   3.935
  138OSM   H14S14968   6.327   6.740   3.885
  138OSM   H14T14969   6.331   6.573   3.960
  138OSM   C15S14970   6.208   6.723   4.061
  138OSM   H15S14971   6.136   6.645   4.095
  138OSM   H15T14972   6.146   6.809   4.028
  138OSM   C16S14973   6.306   6.750   4.175
  138OSM   H16S14974   6.258   6.803   4.260
  138OSM   H16T14975   6.400   6.798   4.138
  138OSM   C17S14976   6.348   6.615   4.233
  138OSM   H17S14977   6.359   6.532   4.159
  138OSM   H17T14978   6.268   6.580   4.301
  138OSM   C18S14979   6.488   6.627   4.293
  138OSM   H18S14980   6.520   6.532   4.341
  138OSM   H18T14981   6.496   6.705   4.371
  138OSM   H18U14982   6.564   6.645   4.215
  138OSM    C1F14983   5.514   6.297   2.775
  138OSM     OF14984   5.539   6.174   2.755
  138OSM    C2F14985   5.381   6.341   2.827
  138OSM    H2F14986   5.315   6.345   2.737
  138OSM    H2G14987   5.385   6.446   2.864
  138OSM    C3F14988   5.332   6.252   2.938
  138OSM    H3F14989   5.341   6.153   2.889
  138OSM    H3G14990   5.223   6.257   2.957
  138OSM    C4F14991   5.423   6.258   3.059
  138OSM    H4F14992   5.522   6.212   3.039
  138OSM    H4G14993   5.385   6.180   3.128
  138OSM    C5F14994   5.432   6.391   3.138
  138OSM    H5F14995   5.331   6.415   3.178
  138OSM    H5G14996   5.457   6.484   3.083
  138OSM    C6F14997   5.541   6.387   3.247
  138OSM    H6F14998   5.642   6.384   3.201
  138OSM    H6G14999   5.535   6.297   3.311
  138OSM    C7F15000   5.515   6.515   3.338
  138OSM    H7F15001   5.406   6.508   3.359
  138OSM    H7G15002   5.526   6.603   3.272
  138OSM    C8F15003   5.584   6.521   3.478
  138OSM    H8F15004   5.559   6.609   3.540
  138OSM    H8G15005   5.693   6.504   3.472
  138OSM    C9F15006   5.523   6.414   3.564
  138OSM    H9F15007   5.450   6.347   3.516
  138OSM   C10F15008   5.573   6.368   3.683
  138OSM   H10F15009   5.495   6.313   3.737
  138OSM   C11F15010   5.695   6.418   3.749
  138OSM   H11F15011   5.759   6.482   3.683
  138OSM   H11G15012   5.755   6.333   3.787
  138OSM   C12F15013   5.663   6.501   3.870
  138OSM   H12F15014   5.763   6.527   3.911
  138OSM   H12G15015   5.606   6.443   3.945
  138OSM   C13F15016   5.579   6.622   3.845
  138OSM   H13F15017   5.474   6.602   3.816
  138OSM   H13G15018   5.633   6.674   3.763
  138OSM   C14F15019   5.577   6.705   3.974
  138OSM   H14F15020   5.675   6.756   3.985
  138OSM   H14G15021   5.558   6.645   4.065
  138OSM   C15F15022   5.479   6.823   3.979
  138OSM   H15F15023   5.378   6.780   3.961
  138OSM   H15G15024   5.507   0.042   3.888
  138OSM   C16F15025   5.493   0.084   4.095
  138OSM   H16F15026   5.409   0.152   4.072
  138OSM   H16G15027   5.584   0.148   4.095
  138OSM   C17F15028   5.464   0.014   4.228
  138OSM   H17F15029   5.545   6.779   4.244
  138OSM   H17G15030   5.371   6.794   4.207
  138OSM   C18F15031   5.462   0.107   4.340
  138OSM   H18F15032   5.552   0.171   4.335
  138OSM   H18G15033   5.481   0.050   4.434
  138OSM   H18H15034   5.361   0.153   4.352
  139OSM      N15035   1.203   1.394   1.646
  139OSM    C1515036   1.093   1.497   1.619
  139OSM   H15A15037   1.144   1.591   1.607
  139OSM   H15B15038   1.027   1.510   1.704
  139OSM   H15C15039   1.039   1.464   1.532
  139OSM    C1415040   1.319   1.420   1.557
  139OSM   H14A15041   1.357   1.519   1.578
  139OSM   H14B15042   1.306   1.396   1.452
  139OSM   H14C15043   1.394   1.347   1.584
  139OSM    C1315044   1.249   1.417   1.784
  139OSM   H13A15045   1.340   1.367   1.814
  139OSM   H13B15046   1.177   1.374   1.851
  139OSM   H13C15047   1.257   1.524   1.801
  139OSM    C1215048   1.138   1.254   1.629
  139OSM   H12A15049   1.213   1.180   1.649
  139OSM   H12B15050   1.099   1.242   1.528
  139OSM    C1115051   1.015   1.221   1.717
  139OSM   H11A15052   0.984   1.124   1.673
  139OSM   H11B15053   0.936   1.293   1.687
  139OSM      P15054   1.106   1.071   1.918
  139OSM    O1315055   1.013   0.961   1.907
  139OSM    O1415056   1.241   1.064   1.858
  139OSM    O1115057   1.136   1.100   2.072
  139OSM    O1215058   1.047   1.208   1.861
  139OSM    C1S15059   1.061   1.179   2.161
  139OSM    H1S15060   0.963   1.129   2.176
  139OSM    H1T15061   1.032   1.281   2.127
  139OSM     NF15062   1.054   1.237   2.393
  139OSM    HNF15063   1.040   1.336   2.392
  139OSM    C2S15064   1.142   1.193   2.290
  139OSM    H2S15065   1.184   1.092   2.309
  139OSM    C3S15066   1.278   1.268   2.275
  139OSM    H3S15067   1.249   1.368   2.234
  139OSM     O315068   1.373   1.212   2.179
  139OSM    HO315069   1.307   1.184   2.116
  139OSM    C4S15070   1.350   1.283   2.412
  139OSM    H4S15071   1.295   1.354   2.476
  139OSM    C5S15072   1.449   1.207   2.464
  139OSM    H5S15073   1.472   1.115   2.409
  139OSM    C6S15074   1.494   1.222   2.609
  139OSM    H6S15075   1.602   1.245   2.621
  139OSM    H6T15076   1.489   1.125   2.663
  139OSM    C7S15077   1.417   1.331   2.700
  139OSM    H7S15078   1.307   1.325   2.688
  139OSM    H7T15079   1.449   1.429   2.659
  139OSM    C8S15080   1.453   1.324   2.848
  139OSM    H8S15081   1.560   1.340   2.875
  139OSM    H8T15082   1.427   1.223   2.887
  139OSM    C9S15083   1.381   1.435   2.938
  139OSM    H9S15084   1.419   1.535   2.908
  139OSM    H9T15085   1.415   1.420   3.042
  139OSM   C10S15086   1.225   1.435   2.922
  139OSM   H10S15087   1.184   1.335   2.947
  139OSM   H10T15088   1.186   1.478   2.827
  139OSM   C11S15089   1.157   1.514   3.042
  139OSM   H11S15090   1.158   1.624   3.034
  139OSM   H11T15091   1.210   1.504   3.140
  139OSM   C12S15092   1.014   1.474   3.077
  139OSM   H12S15093   0.951   1.462   2.986
  139OSM   H12T15094   0.981   1.555   3.145
  139OSM   C13S15095   1.016   1.341   3.166
  139OSM   H13S15096   1.073   1.362   3.259
  139OSM   H13T15097   1.078   1.266   3.112
  139OSM   C14S15098   0.874   1.281   3.183
  139OSM   H14S15099   0.893   1.187   3.239
  139OSM   H14T15100   0.835   1.246   3.085
  139OSM   C15S15101   0.766   1.365   3.255
  139OSM   H15S15102   0.660   1.333   3.245
  139OSM   H15T15103   0.764   1.464   3.207
  139OSM   C16S15104   0.803   1.387   3.402
  139OSM   H16S15105   0.894   1.451   3.408
  139OSM   H16T15106   0.834   1.289   3.444
  139OSM   C17S15107   0.689   1.444   3.483
  139OSM   H17S15108   0.734   1.448   3.585
  139OSM   H17T15109   0.602   1.374   3.483
  139OSM   C18S15110   0.638   1.585   3.454
  139OSM   H18S15111   0.663   1.656   3.537
  139OSM   H18T15112   0.532   1.595   3.423
  139OSM   H18U15113   0.689   1.634   3.368
  139OSM    C1F15114   0.956   1.160   2.435
  139OSM     OF15115   0.945   1.042   2.407
  139OSM    C2F15116   0.863   1.233   2.523
  139OSM    H2F15117   0.798   1.306   2.470
  139OSM    H2G15118   0.927   1.285   2.598
  139OSM    C3F15119   0.777   1.134   2.598
  139OSM    H3F15120   0.842   1.054   2.639
  139OSM    H3G15121   0.716   1.081   2.523
  139OSM    C4F15122   0.676   1.200   2.680
  139OSM    H4F15123   0.633   1.115   2.737
  139OSM    H4G15124   0.600   1.250   2.617
  139OSM    C5F15125   0.734   1.285   2.790
  139OSM    H5F15126   0.796   1.362   2.740
  139OSM    H5G15127   0.794   1.210   2.845
  139OSM    C6F15128   0.654   1.355   2.894
  139OSM    H6F15129   0.716   1.429   2.947
  139OSM    H6G15130   0.618   1.277   2.964
  139OSM    C7F15131   0.534   1.433   2.836
  139OSM    H7F15132   0.473   1.472   2.921
  139OSM    H7G15133   0.468   1.362   2.782
  139OSM    C8F15134   0.575   1.548   2.738
  139OSM    H8F15135   0.611   1.500   2.645
  139OSM    H8G15136   0.652   1.604   2.796
  139OSM    C9F15137   0.462   1.648   2.736
  139OSM    H9F15138   0.398   1.633   2.648
  139OSM   C10F15139   0.428   1.758   2.803
  139OSM   H10F15140   0.341   1.819   2.775
  139OSM   C11F15141   0.505   1.818   2.916
  139OSM   H11F15142   0.535   1.922   2.889
  139OSM   H11G15143   0.594   1.754   2.933
  139OSM   C12F15144   0.422   1.815   3.048
  139OSM   H12F15145   0.393   1.709   3.069
  139OSM   H12G15146   0.323   1.866   3.050
  139OSM   C13F15147   0.508   1.857   3.171
  139OSM   H13F15148   0.536   1.963   3.160
  139OSM   H13G15149   0.594   1.787   3.174
  139OSM   C14F15150   0.430   1.850   3.308
  139OSM   H14F15151   0.381   1.756   3.338
  139OSM   H14G15152   0.352   1.928   3.291
  139OSM   C15F15153   0.511   1.912   3.430
  139OSM   H15F15154   0.550   2.013   3.405
  139OSM   H15G15155   0.600   1.847   3.441
  139OSM   C16F15156   0.435   1.924   3.564
  139OSM   H16F15157   0.512   1.946   3.641
  139OSM   H16G15158   0.383   1.828   3.584
  139OSM   C17F15159   0.322   2.033   3.566
  139OSM   H17F15160   0.297   2.057   3.672
  139OSM   H17G15161   0.235   1.986   3.517
  139OSM   C18F15162   0.368   2.159   3.498
  139OSM   H18F15163   0.309   2.246   3.536
  139OSM   H18G15164   0.388   2.174   3.390
  139OSM   H18H15165   0.469   2.180   3.540
  140OSM      N15166   4.928   0.009   1.597
  140OSM    C1515167   4.951   0.152   1.548
  140OSM   H15A15168   4.860   0.210   1.541
  140OSM   H15B15169   4.982   0.140   1.446
  140OSM   H15C15170   5.037   0.193   1.598
  140OSM    C1415171   4.840   6.786   1.489
  140OSM   H14A15172   4.889   6.775   1.393
  140OSM   H14B15173   4.755   0.011   1.473
  140OSM   H14C15174   4.805   6.685   1.506
  140OSM    C1315175   5.065   6.787   1.606
  140OSM   H13A15176   5.044   6.681   1.602
  140OSM   H13B15177   5.106   6.810   1.703
  140OSM   H13C15178   5.126   6.815   1.521
  140OSM    C1215179   4.859   0.006   1.732
  140OSM   H12A15180   4.823   6.744   1.749
  140OSM   H12B15181   4.768   0.064   1.722
  140OSM    C1115182   4.935   0.050   1.858
  140OSM   H11A15183   4.878   0.069   1.951
  140OSM   H11B15184   4.971   0.152   1.835
  140OSM      P15185   5.174   6.818   1.955
  140OSM    O1315186   5.255   6.694   1.972
  140OSM    O1415187   5.241   0.091   1.888
  140OSM    O1115188   5.131   0.019   2.101
  140OSM    O1215189   5.038   6.794   1.885
  140OSM    C1S15190   5.042   6.785   2.186
  140OSM    H1S15191   5.102   6.704   2.233
  140OSM    H1T15192   4.950   6.736   2.147
  140OSM     NF15193   4.920   6.803   2.406
  140OSM    HNF15194   4.826   6.833   2.423
  140OSM    C2S15195   4.994   0.036   2.300
  140OSM    H2S15196   5.075   0.084   2.358
  140OSM    C3S15197   4.923   0.163   2.253
  140OSM    H3S15198   4.817   0.134   2.231
  140OSM     O315199   4.973   0.216   2.126
  140OSM    HO315200   5.034   0.143   2.111
  140OSM    C4S15201   4.923   0.276   2.358
  140OSM    H4S15202   4.846   0.279   2.436
  140OSM    C5S15203   5.029   0.361   2.379
  140OSM    H5S15204   5.115   0.350   2.310
  140OSM    C6S15205   5.033   0.462   2.493
  140OSM    H6S15206   4.949   0.441   2.562
  140OSM    H6T15207   5.026   0.566   2.455
  140OSM    C7S15208   5.163   0.441   2.583
  140OSM    H7S15209   5.178   0.531   2.647
  140OSM    H7T15210   5.255   0.439   2.519
  140OSM    C8S15211   5.169   0.309   2.664
  140OSM    H8S15212   5.274   0.273   2.672
  140OSM    H8T15213   5.119   0.229   2.604
  140OSM    C9S15214   5.101   0.332   2.800
  140OSM    H9S15215   5.012   0.398   2.792
  140OSM    H9T15216   5.168   0.381   2.873
  140OSM   C10S15217   5.048   0.207   2.864
  140OSM   H10S15218   5.139   0.143   2.858
  140OSM   H10T15219   4.966   0.169   2.799
  140OSM   C11S15220   4.995   0.212   3.012
  140OSM   H11S15221   4.958   0.110   3.036
  140OSM   H11T15222   4.908   0.281   3.015
  140OSM   C12S15223   5.089   0.260   3.120
  140OSM   H12S15224   5.142   0.354   3.092
  140OSM   H12T15225   5.162   0.178   3.134
  140OSM   C13S15226   5.021   0.279   3.253
  140OSM   H13S15227   5.103   0.290   3.327
  140OSM   H13T15228   4.952   0.195   3.274
  140OSM   C14S15229   4.929   0.405   3.272
  140OSM   H14S15230   4.836   0.375   3.325
  140OSM   H14T15231   4.904   0.453   3.175
  140OSM   C15S15232   4.996   0.522   3.357
  140OSM   H15S15233   4.946   0.620   3.342
  140OSM   H15T15234   5.103   0.529   3.328
  140OSM   C16S15235   4.986   0.507   3.510
  140OSM   H16S15236   5.062   0.566   3.567
  140OSM   H16T15237   5.012   0.401   3.533
  140OSM   C17S15238   4.846   0.539   3.574
  140OSM   H17S15239   4.859   0.516   3.682
  140OSM   H17T15240   4.779   0.458   3.539
  140OSM   C18S15241   4.804   0.682   3.550
  140OSM   H18S15242   4.890   0.750   3.564
  140OSM   H18T15243   4.733   0.715   3.629
  140OSM   H18U15244   4.762   0.702   3.449
  140OSM    C1F15245   4.976   6.706   2.486
  140OSM     OF15246   5.092   6.676   2.477
  140OSM    C2F15247   4.885   6.642   2.585
  140OSM    H2F15248   4.817   6.573   2.530
  140OSM    H2G15249   4.815   6.712   2.635
  140OSM    C3F15250   4.973   6.568   2.693
  140OSM    H3F15251   5.055   6.507   2.650
  140OSM    H3G15252   4.897   6.497   2.733
  140OSM    C4F15253   5.010   6.659   2.818
  140OSM    H4F15254   4.929   6.677   2.892
  140OSM    H4G15255   5.045   6.755   2.774
  140OSM    C5F15256   5.123   6.599   2.901
  140OSM    H5F15257   5.213   6.598   2.835
  140OSM    H5G15258   5.087   6.499   2.933
  140OSM    C6F15259   5.162   6.677   3.022
  140OSM    H6F15260   5.130   6.783   3.012
  140OSM    H6G15261   5.271   6.688   3.040
  140OSM    C7F15262   5.097   6.620   3.151
  140OSM    H7F15263   5.131   6.515   3.167
  140OSM    H7G15264   4.986   6.619   3.148
  140OSM    C8F15265   5.140   6.703   3.274
  140OSM    H8F15266   5.100   6.806   3.262
  140OSM    H8G15267   5.251   6.703   3.266
  140OSM    C9F15268   5.100   6.649   3.412
  140OSM    H9F15269   5.007   6.591   3.402
  140OSM   C10F15270   5.163   6.673   3.532
  140OSM   H10F15271   5.115   6.636   3.623
  140OSM   C11F15272   5.279   6.759   3.556
  140OSM   H11F15273   5.345   6.772   3.467
  140OSM   H11G15274   5.340   6.709   3.634
  140OSM   C12F15275   5.236   0.059   3.586
  140OSM   H12F15276   5.163   0.103   3.515
  140OSM   H12G15277   5.315   0.138   3.587
  140OSM   C13F15278   5.178   0.082   3.731
  140OSM   H13F15279   5.264   0.068   3.800
  140OSM   H13G15280   5.111   6.835   3.753
  140OSM   C14F15281   5.101   0.210   3.752
  140OSM   H14F15282   5.004   0.206   3.698
  140OSM   H14G15283   5.162   0.289   3.702
  140OSM   C15F15284   5.101   0.235   3.898
  140OSM   H15F15285   5.200   0.245   3.947
  140OSM   H15G15286   5.042   0.152   3.943
  140OSM   C16F15287   5.019   0.358   3.944
  140OSM   H16F15288   4.910   0.336   3.947
  140OSM   H16G15289   5.033   0.450   3.884
  140OSM   C17F15290   5.056   0.411   4.083
  140OSM   H17F15291   5.009   0.510   4.096
  140OSM   H17G15292   5.167   0.419   4.090
  140OSM   C18F15293   5.015   0.320   4.205
  140OSM   H18F15294   5.059   0.219   4.193
  140OSM   H18G15295   4.905   0.311   4.215
  140OSM   H18H15296   5.051   0.367   4.299
  141OSM      N15297   1.197   3.850   1.847
  141OSM    C1515298   1.270   3.788   1.730
  141OSM   H15A15299   1.365   3.838   1.718
  141OSM   H15B15300   1.214   3.800   1.638
  141OSM   H15C15301   1.285   3.682   1.746
  141OSM    C1415302   1.297   3.859   1.964
  141OSM   H14A15303   1.312   3.764   2.013
  141OSM   H14B15304   1.261   3.918   2.047
  141OSM   H14C15305   1.391   3.899   1.931
  141OSM    C1315306   1.173   3.991   1.814
  141OSM   H13A15307   1.115   4.044   1.888
  141OSM   H13B15308   1.112   3.992   1.725
  141OSM   H13C15309   1.254   4.051   1.774
  141OSM    C1215310   1.074   3.776   1.885
  141OSM   H12A15311   1.105   3.679   1.923
  141OSM   H12B15312   1.000   3.777   1.806
  141OSM    C1115313   0.990   3.830   2.004
  141OSM   H11A15314   1.067   3.841   2.083
  141OSM   H11B15315   0.919   3.754   2.043
  141OSM      P15316   0.799   3.994   1.944
  141OSM    O1315317   0.808   4.117   1.858
  141OSM    O1415318   0.719   3.878   1.882
  141OSM    O1115319   0.731   4.033   2.082
  141OSM    O1215320   0.946   3.959   1.979
  141OSM    C1S15321   0.738   3.945   2.195
  141OSM    H1S15322   0.843   3.910   2.198
  141OSM    H1T15323   0.675   3.855   2.179
  141OSM     NF15324   0.713   3.929   2.437
  141OSM    HNF15325   0.627   3.915   2.486
  141OSM    C2S15326   0.699   4.017   2.326
  141OSM    H2S15327   0.778   4.094   2.330
  141OSM    C3S15328   0.559   4.084   2.313
  141OSM    H3S15329   0.484   4.003   2.314
  141OSM     O315330   0.527   4.137   2.185
  141OSM    HO315331   0.585   4.079   2.136
  141OSM    C4S15332   0.514   4.179   2.431
  141OSM    H4S15333   0.474   4.105   2.502
  141OSM    C5S15334   0.515   4.307   2.453
  141OSM    H5S15335   0.563   4.375   2.380
  141OSM    C6S15336   0.479   4.378   2.577
  141OSM    H6S15337   0.392   4.445   2.558
  141OSM    H6T15338   0.560   4.450   2.601
  141OSM    C7S15339   0.461   4.301   2.716
  141OSM    H7S15340   0.380   4.225   2.713
  141OSM    H7T15341   0.423   4.374   2.791
  141OSM    C8S15342   0.591   4.235   2.772
  141OSM    H8S15343   0.670   4.311   2.788
  141OSM    H8T15344   0.614   4.167   2.687
  141OSM    C9S15345   0.566   4.164   2.906
  141OSM    H9S15346   0.657   4.104   2.927
  141OSM    H9T15347   0.483   4.090   2.900
  141OSM   C10S15348   0.552   4.263   3.020
  141OSM   H10S15349   0.457   4.316   3.002
  141OSM   H10T15350   0.632   4.338   3.006
  141OSM   C11S15351   0.535   4.191   3.159
  141OSM   H11S15352   0.630   4.140   3.187
  141OSM   H11T15353   0.457   4.113   3.143
  141OSM   C12S15354   0.486   4.284   3.268
  141OSM   H12S15355   0.400   4.345   3.234
  141OSM   H12T15356   0.566   4.358   3.291
  141OSM   C13S15357   0.451   4.211   3.398
  141OSM   H13S15358   0.545   4.193   3.454
  141OSM   H13T15359   0.409   4.117   3.357
  141OSM   C14S15360   0.348   4.284   3.484
  141OSM   H14S15361   0.250   4.291   3.431
  141OSM   H14T15362   0.376   4.389   3.507
  141OSM   C15S15363   0.317   4.218   3.616
  141OSM   H15S15364   0.402   4.241   3.684
  141OSM   H15T15365   0.322   4.107   3.606
  141OSM   C16S15366   0.177   4.258   3.673
  141OSM   H16S15367   0.103   4.210   3.606
  141OSM   H16T15368   0.169   4.369   3.675
  141OSM   C17S15369   0.163   4.209   3.823
  141OSM   H17S15370   0.134   4.102   3.829
  141OSM   H17T15371   0.073   4.264   3.859
  141OSM   C18S15372   0.269   4.243   3.927
  141OSM   H18S15373   0.290   4.352   3.924
  141OSM   H18T15374   0.352   4.169   3.924
  141OSM   H18U15375   0.218   4.219   4.023
  141OSM    C1F15376   0.824   3.868   2.479
  141OSM     OF15377   0.933   3.908   2.440
  141OSM    C2F15378   0.810   3.749   2.572
  141OSM    H2F15379   0.864   3.662   2.530
  141OSM    H2G15380   0.703   3.723   2.592
  141OSM    C3F15381   0.878   3.773   2.717
  141OSM    H3F15382   0.965   3.843   2.717
  141OSM    H3G15383   0.928   3.679   2.747
  141OSM    C4F15384   0.792   3.828   2.832
  141OSM    H4F15385   0.709   3.755   2.842
  141OSM    H4G15386   0.753   3.930   2.811
  141OSM    C5F15387   0.864   3.826   2.972
  141OSM    H5F15388   0.961   3.880   2.965
  141OSM    H5G15389   0.895   3.720   2.990
  141OSM    C6F15390   0.788   3.890   3.084
  141OSM    H6F15391   0.685   3.848   3.097
  141OSM    H6G15392   0.778   4.000   3.066
  141OSM    C7F15393   0.859   3.865   3.213
  141OSM    H7F15394   0.963   3.904   3.219
  141OSM    H7G15395   0.872   3.757   3.237
  141OSM    C8F15396   0.789   3.927   3.333
  141OSM    H8F15397   0.690   3.878   3.344
  141OSM    H8G15398   0.765   4.032   3.308
  141OSM    C9F15399   0.871   3.931   3.460
  141OSM    H9F15400   0.974   3.959   3.436
  141OSM   C10F15401   0.831   3.932   3.591
  141OSM   H10F15402   0.900   3.937   3.676
  141OSM   C11F15403   0.693   3.923   3.636
  141OSM   H11F15404   0.693   3.835   3.703
  141OSM   H11G15405   0.618   3.910   3.555
  141OSM   C12F15406   0.664   4.056   3.716
  141OSM   H12F15407   0.564   4.023   3.753
  141OSM   H12G15408   0.658   4.147   3.654
  141OSM   C13F15409   0.760   4.104   3.834
  141OSM   H13F15410   0.846   4.158   3.791
  141OSM   H13G15411   0.788   4.021   3.903
  141OSM   C14F15412   0.669   4.201   3.917
  141OSM   H14F15413   0.582   4.139   3.947
  141OSM   H14G15414   0.620   4.287   3.866
  141OSM   C15F15415   0.741   4.262   4.041
  141OSM   H15F15416   0.822   4.327   4.000
  141OSM   H15G15417   0.785   4.191   4.114
  141OSM   C16F15418   0.650   4.349   4.130
  141OSM   H16F15419   0.614   4.437   4.073
  141OSM   H16G15420   0.708   4.394   4.214
  141OSM   C17F15421   0.530   4.275   4.193
  141OSM   H17F15422   0.550   4.178   4.244
  141OSM   H17G15423   0.471   4.233   4.108
  141OSM   C18F15424   0.438   4.349   4.293
  141OSM   H18F15425   0.386   4.435   4.246
  141OSM   H18G15426   0.495   4.396   4.377
  141OSM   H18H15427   0.362   4.286   4.344
  142OSM      N15428   1.938   5.520   1.911
  142OSM    C1515429   1.807   5.453   1.885
  142OSM   H15A15430   1.817   5.378   1.809
  142OSM   H15B15431   1.736   5.530   1.859
  142OSM   H15C15432   1.764   5.418   1.978
  142OSM    C1415433   2.051   5.424   1.921
  142OSM   H14A15434   2.063   5.374   1.826
  142OSM   H14B15435   2.035   5.347   1.996
  142OSM   H14C15436   2.147   5.471   1.937
  142OSM    C1315437   1.958   5.596   1.788
  142OSM   H13A15438   1.997   5.548   1.700
  142OSM   H13B15439   2.022   5.679   1.815
  142OSM   H13C15440   1.869   5.653   1.765
  142OSM    C1215441   1.932   5.619   2.019
  142OSM   H12A15442   1.842   5.679   2.020
  142OSM   H12B15443   2.002   5.700   2.008
  142OSM    C1115444   1.940   5.577   2.168
  142OSM   H11A15445   1.934   5.669   2.229
  142OSM   H11B15446   2.044   5.541   2.188
  142OSM      P15447   1.691   5.519   2.224
  142OSM    O1315448   1.675   5.662   2.187
  142OSM    O1415449   1.618   5.415   2.156
  142OSM    O1115450   1.653   5.515   2.386
  142OSM    O1215451   1.846   5.478   2.214
  142OSM    C1S15452   1.741   5.465   2.476
  142OSM    H1S15453   1.819   5.542   2.491
  142OSM    H1T15454   1.789   5.372   2.440
  142OSM     NF15455   1.796   5.434   2.720
  142OSM    HNF15456   1.819   5.347   2.761
  142OSM    C2S15457   1.686   5.452   2.622
  142OSM    H2S15458   1.635   5.547   2.647
  142OSM    C3S15459   1.583   5.341   2.637
  142OSM    H3S15460   1.632   5.242   2.627
  142OSM     O315461   1.488   5.331   2.533
  142OSM    HO315462   1.537   5.365   2.458
  142OSM    C4S15463   1.517   5.336   2.776
  142OSM    H4S15464   1.581   5.276   2.843
  142OSM    C5S15465   1.397   5.388   2.817
  142OSM    H5S15466   1.332   5.447   2.749
  142OSM    C6S15467   1.351   5.391   2.960
  142OSM    H6S15468   1.250   5.344   2.951
  142OSM    H6T15469   1.319   5.492   2.995
  142OSM    C7S15470   1.430   5.325   3.075
  142OSM    H7S15471   1.538   5.327   3.048
  142OSM    H7T15472   1.395   5.220   3.079
  142OSM    C8S15473   1.401   5.399   3.211
  142OSM    H8S15474   1.291   5.411   3.220
  142OSM    H8T15475   1.442   5.502   3.207
  142OSM    C9S15476   1.468   5.322   3.320
  142OSM    H9S15477   1.575   5.313   3.292
  142OSM    H9T15478   1.420   5.222   3.328
  142OSM   C10S15479   1.438   5.388   3.456
  142OSM   H10S15480   1.327   5.388   3.467
  142OSM   H10T15481   1.481   5.490   3.451
  142OSM   C11S15482   1.495   5.313   3.582
  142OSM   H11S15483   1.606   5.315   3.578
  142OSM   H11T15484   1.458   5.209   3.599
  142OSM   C12S15485   1.441   5.391   3.708
  142OSM   H12S15486   1.332   5.403   3.693
  142OSM   H12T15487   1.496   5.486   3.725
  142OSM   C13S15488   1.467   5.325   3.840
  142OSM   H13S15489   1.577   5.330   3.858
  142OSM   H13T15490   1.446   5.217   3.831
  142OSM   C14S15491   1.386   5.383   3.952
  142OSM   H14S15492   1.278   5.387   3.927
  142OSM   H14T15493   1.408   5.490   3.972
  142OSM   C15S15494   1.420   5.309   4.083
  142OSM   H15S15495   1.529   5.317   4.098
  142OSM   H15T15496   1.411   5.200   4.062
  142OSM   C16S15497   1.342   5.372   4.197
  142OSM   H16S15498   1.238   5.338   4.182
  142OSM   H16T15499   1.355   5.482   4.193
  142OSM   C17S15500   1.390   5.322   4.331
  142OSM   H17S15501   1.499   5.341   4.345
  142OSM   H17T15502   1.369   5.214   4.340
  142OSM   C18S15503   1.304   5.383   4.445
  142OSM   H18S15504   1.301   5.494   4.441
  142OSM   H18T15505   1.338   5.353   4.546
  142OSM   H18U15506   1.195   5.362   4.440
  142OSM    C1F15507   1.877   5.536   2.752
  142OSM     OF15508   1.846   5.659   2.742
  142OSM    C2F15509   2.004   5.503   2.807
  142OSM    H2F15510   2.087   5.518   2.735
  142OSM    H2G15511   2.015   5.398   2.841
  142OSM    C3F15512   2.038   5.599   2.925
  142OSM    H3F15513   2.057   5.705   2.896
  142OSM    H3G15514   2.141   5.582   2.964
  142OSM    C4F15515   1.933   5.596   3.036
  142OSM    H4F15516   1.908   5.491   3.059
  142OSM    H4G15517   1.836   5.646   3.015
  142OSM    C5F15518   1.982   5.667   3.157
  142OSM    H5F15519   2.016   5.770   3.133
  142OSM    H5G15520   2.072   5.611   3.191
  142OSM    C6F15521   1.883   5.668   3.267
  142OSM    H6F15522   1.844   5.565   3.277
  142OSM    H6G15523   1.804   5.743   3.242
  142OSM    C7F15524   1.951   5.715   3.394
  142OSM    H7F15525   2.006   5.808   3.367
  142OSM    H7G15526   2.022   5.635   3.423
  142OSM    C8F15527   1.866   5.752   3.515
  142OSM    H8F15528   1.796   5.828   3.474
  142OSM    H8G15529   1.934   5.808   3.583
  142OSM    C9F15530   1.790   5.639   3.588
  142OSM    H9F15531   1.704   5.598   3.533
  142OSM   C10F15532   1.817   5.608   3.720
  142OSM   H10F15533   1.760   5.534   3.779
  142OSM   C11F15534   1.933   5.662   3.797
  142OSM   H11F15535   2.013   5.710   3.737
  142OSM   H11G15536   1.981   5.576   3.849
  142OSM   C12F15537   1.893   5.771   3.896
  142OSM   H12F15538   1.825   5.725   3.970
  142OSM   H12G15539   1.844   5.856   3.844
  142OSM   C13F15540   2.026   5.816   3.974
  142OSM   H13F15541   2.096   5.845   3.892
  142OSM   H13G15542   2.075   5.731   4.024
  142OSM   C14F15543   2.015   5.946   4.059
  142OSM   H14F15544   1.943   5.922   4.141
  142OSM   H14G15545   1.976   6.023   3.990
  142OSM   C15F15546   2.155   5.980   4.114
  142OSM   H15F15547   2.212   6.011   4.023
  142OSM   H15G15548   2.193   5.888   4.163
  142OSM   C16F15549   2.156   6.086   4.226
  142OSM   H16F15550   2.071   6.155   4.205
  142OSM   H16G15551   2.250   6.144   4.216
  142OSM   C17F15552   2.145   6.033   4.375
  142OSM   H17F15553   2.224   5.957   4.390
  142OSM   H17G15554   2.051   5.973   4.382
  142OSM   C18F15555   2.152   6.139   4.488
  142OSM   H18F15556   2.124   6.104   4.590
  142OSM   H18G15557   2.093   6.230   4.463
  142OSM   H18H15558   2.258   6.169   4.503
  143OSM      N15559   1.109   4.325   2.102
  143OSM    C1515560   0.965   4.349   2.064
  143OSM   H15A15561   0.902   4.335   2.151
  143OSM   H15B15562   0.935   4.281   1.986
  143OSM   H15C15563   0.952   4.451   2.030
  143OSM    C1415564   1.155   4.398   2.226
  143OSM   H14A15565   1.079   4.406   2.301
  143OSM   H14B15566   1.177   4.503   2.209
  143OSM   H14C15567   1.234   4.348   2.279
  143OSM    C1315568   1.115   4.179   2.133
  143OSM   H13A15569   1.216   4.142   2.144
  143OSM   H13B15570   1.064   4.120   2.058
  143OSM   H13C15571   1.059   4.160   2.224
  143OSM    C1215572   1.198   4.367   1.990
  143OSM   H12A15573   1.161   4.325   1.898
  143OSM   H12B15574   1.292   4.319   2.013
  143OSM    C1115575   1.221   4.523   1.975
  143OSM   H11A15576   1.283   4.529   1.883
  143OSM   H11B15577   1.277   4.559   2.064
  143OSM      P15578   1.065   4.737   2.024
  143OSM    O1315579   1.146   4.838   1.960
  143OSM    O1415580   0.919   4.751   2.020
  143OSM    O1115581   1.118   4.713   2.169
  143OSM    O1215582   1.097   4.599   1.953
  143OSM    C1S15583   1.060   4.770   2.284
  143OSM    H1S15584   0.952   4.743   2.291
  143OSM    H1T15585   1.062   4.880   2.271
  143OSM     NF15586   1.053   4.770   2.530
  143OSM    HNF15587   1.085   4.851   2.579
  143OSM    C2S15588   1.136   4.725   2.412
  143OSM    H2S15589   1.131   4.614   2.410
  143OSM    C3S15590   1.286   4.775   2.411
  143OSM    H3S15591   1.297   4.886   2.410
  143OSM     O315592   1.346   4.751   2.284
  143OSM    HO315593   1.273   4.748   2.222
  143OSM    C4S15594   1.372   4.722   2.528
  143OSM    H4S15595   1.370   4.780   2.621
  143OSM    C5S15596   1.453   4.617   2.534
  143OSM    H5S15597   1.463   4.558   2.442
  143OSM    C6S15598   1.533   4.557   2.645
  143OSM    H6S15599   1.636   4.531   2.612
  143OSM    H6T15600   1.490   4.458   2.671
  143OSM    C7S15601   1.534   4.644   2.775
  143OSM    H7S15602   1.428   4.671   2.796
  143OSM    H7T15603   1.595   4.735   2.758
  143OSM    C8S15604   1.593   4.570   2.897
  143OSM    H8S15605   1.697   4.543   2.870
  143OSM    H8T15606   1.539   4.473   2.903
  143OSM    C9S15607   1.596   4.646   3.027
  143OSM    H9S15608   1.498   4.690   3.054
  143OSM    H9T15609   1.678   4.721   3.020
  143OSM   C10S15610   1.637   4.547   3.150
  143OSM   H10S15611   1.739   4.502   3.150
  143OSM   H10T15612   1.566   4.462   3.156
  143OSM   C11S15613   1.638   4.602   3.294
  143OSM   H11S15614   1.546   4.658   3.320
  143OSM   H11T15615   1.724   4.673   3.291
  143OSM   C12S15616   1.631   4.498   3.410
  143OSM   H12S15617   1.715   4.426   3.406
  143OSM   H12T15618   1.540   4.436   3.394
  143OSM   C13S15619   1.611   4.565   3.549
  143OSM   H13S15620   1.512   4.615   3.548
  143OSM   H13T15621   1.697   4.635   3.562
  143OSM   C14S15622   1.626   4.464   3.655
  143OSM   H14S15623   1.727   4.420   3.641
  143OSM   H14T15624   1.562   4.374   3.638
  143OSM   C15S15625   1.599   4.534   3.792
  143OSM   H15S15626   1.499   4.580   3.797
  143OSM   H15T15627   1.660   4.627   3.797
  143OSM   C16S15628   1.612   4.414   3.895
  143OSM   H16S15629   1.716   4.377   3.905
  143OSM   H16T15630   1.542   4.335   3.860
  143OSM   C17S15631   1.566   4.449   4.039
  143OSM   H17S15632   1.456   4.463   4.032
  143OSM   H17T15633   1.621   4.540   4.072
  143OSM   C18S15634   1.595   4.338   4.140
  143OSM   H18S15635   1.533   4.343   4.232
  143OSM   H18T15636   1.703   4.328   4.160
  143OSM   H18U15637   1.578   4.239   4.093
  143OSM    C1F15638   0.942   4.699   2.563
  143OSM     OF15639   0.892   4.613   2.490
  143OSM    C2F15640   0.874   4.742   2.687
  143OSM    H2F15641   0.848   4.848   2.664
  143OSM    H2G15642   0.951   4.743   2.767
  143OSM    C3F15643   0.737   4.672   2.721
  143OSM    H3F15644   0.755   4.562   2.725
  143OSM    H3G15645   0.665   4.693   2.640
  143OSM    C4F15646   0.672   4.719   2.852
  143OSM    H4F15647   0.566   4.687   2.848
  143OSM    H4G15648   0.667   4.830   2.863
  143OSM    C5F15649   0.749   4.654   2.969
  143OSM    H5F15650   0.853   4.693   2.978
  143OSM    H5G15651   0.752   4.545   2.945
  143OSM    C6F15652   0.682   4.665   3.113
  143OSM    H6F15653   0.594   4.597   3.108
  143OSM    H6G15654   0.652   4.771   3.127
  143OSM    C7F15655   0.772   4.616   3.227
  143OSM    H7F15656   0.873   4.660   3.216
  143OSM    H7G15657   0.788   4.507   3.216
  143OSM    C8F15658   0.711   4.641   3.364
  143OSM    H8F15659   0.601   4.624   3.356
  143OSM    H8G15660   0.730   4.749   3.380
  143OSM    C9F15661   0.777   4.558   3.467
  143OSM    H9F15662   0.850   4.487   3.427
  143OSM   C10F15663   0.752   4.569   3.602
  143OSM   H10F15664   0.812   4.505   3.669
  143OSM   C11F15665   0.670   4.679   3.667
  143OSM   H11F15666   0.567   4.648   3.641
  143OSM   H11G15667   0.689   4.778   3.621
  143OSM   C12F15668   0.696   4.666   3.818
  143OSM   H12F15669   0.803   4.684   3.844
  143OSM   H12G15670   0.657   4.577   3.871
  143OSM   C13F15671   0.617   4.783   3.895
  143OSM   H13F15672   0.646   4.871   3.834
  143OSM   H13G15673   0.662   4.789   3.996
  143OSM   C14F15674   0.461   4.771   3.893
  143OSM   H14F15675   0.410   4.768   3.794
  143OSM   H14G15676   0.425   4.866   3.937
  143OSM   C15F15677   0.395   4.661   3.983
  143OSM   H15F15678   0.463   4.654   4.071
  143OSM   H15G15679   0.393   4.565   3.928
  143OSM   C16F15680   0.246   4.669   4.019
  143OSM   H16F15681   0.219   4.576   4.073
  143OSM   H16G15682   0.189   4.690   3.926
  143OSM   C17F15683   0.218   4.795   4.107
  143OSM   H17F15684   0.224   4.884   4.041
  143OSM   H17G15685   0.301   4.794   4.181
  143OSM   C18F15686   0.074   4.790   4.158
  143OSM   H18F15687   0.002   4.788   4.074
  143OSM   H18G15688   0.047   4.871   4.229
  143OSM   H18H15689   0.056   4.695   4.212
  144OSM      N15690   0.949   5.655   1.781
  144OSM    C1515691   0.822   5.713   1.816
  144OSM   H15A15692   0.748   5.633   1.818
  144OSM   H15B15693   0.799   5.792   1.747
  144OSM   H15C15694   0.828   5.762   1.912
  144OSM    C1415695   0.935   5.581   1.653
  144OSM   H14A15696   0.853   5.511   1.652
  144OSM   H14B15697   1.030   5.535   1.629
  144OSM   H14C15698   0.920   5.642   1.566
  144OSM    C1315699   1.043   5.769   1.771
  144OSM   H13A15700   1.019   5.845   1.699
  144OSM   H13B15701   1.145   5.736   1.756
  144OSM   H13C15702   1.047   5.821   1.865
  144OSM    C1215703   0.991   5.561   1.894
  144OSM   H12A15704   0.961   5.597   1.992
  144OSM   H12B15705   1.097   5.545   1.889
  144OSM    C1115706   0.941   5.415   1.904
  144OSM   H11A15707   0.995   5.372   1.992
  144OSM   H11B15708   0.985   5.358   1.820
  144OSM      P15709   0.734   5.318   2.027
  144OSM    O1315710   0.585   5.321   2.012
  144OSM    O1415711   0.792   5.182   2.015
  144OSM    O1115712   0.771   5.388   2.163
  144OSM    O1215713   0.796   5.409   1.910
  144OSM    C1S15714   0.756   5.530   2.188
  144OSM    H1S15715   0.676   5.579   2.128
  144OSM    H1T15716   0.854   5.579   2.169
  144OSM     NF15717   0.717   5.689   2.372
  144OSM    HNF15718   0.804   5.727   2.403
  144OSM    C2S15719   0.725   5.549   2.342
  144OSM    H2S15720   0.630   5.493   2.350
  144OSM    C3S15721   0.833   5.472   2.430
  144OSM    H3S15722   0.931   5.522   2.414
  144OSM     O315723   0.856   5.336   2.397
  144OSM    HO315724   0.830   5.329   2.305
  144OSM    C4S15725   0.786   5.470   2.573
  144OSM    H4S15726   0.680   5.445   2.584
  144OSM    C5S15727   0.860   5.511   2.683
  144OSM    H5S15728   0.961   5.553   2.673
  144OSM    C6S15729   0.816   5.519   2.825
  144OSM    H6S15730   0.731   5.456   2.856
  144OSM    H6T15731   0.806   5.624   2.860
  144OSM    C7S15732   0.934   5.463   2.915
  144OSM    H7S15733   1.022   5.530   2.915
  144OSM    H7T15734   0.960   5.368   2.862
  144OSM    C8S15735   0.902   5.435   3.062
  144OSM    H8S15736   0.977   5.365   3.103
  144OSM    H8T15737   0.809   5.374   3.072
  144OSM    C9S15738   0.882   5.569   3.134
  144OSM    H9S15739   0.786   5.614   3.099
  144OSM    H9T15740   0.972   5.631   3.118
  144OSM   C10S15741   0.866   5.540   3.290
  144OSM   H10S15742   0.795   5.456   3.303
  144OSM   H10T15743   0.833   5.631   3.345
  144OSM   C11S15744   1.001   5.511   3.354
  144OSM   H11S15745   1.058   5.600   3.320
  144OSM   H11T15746   1.043   5.423   3.301
  144OSM   C12S15747   0.994   5.481   3.502
  144OSM   H12S15748   1.098   5.453   3.527
  144OSM   H12T15749   0.921   5.400   3.524
  144OSM   C13S15750   0.959   5.595   3.594
  144OSM   H13S15751   0.860   5.638   3.567
  144OSM   H13T15752   1.037   5.672   3.576
  144OSM   C14S15753   0.949   5.558   3.744
  144OSM   H14S15754   0.935   5.448   3.750
  144OSM   H14T15755   0.850   5.584   3.786
  144OSM   C15S15756   1.061   5.616   3.824
  144OSM   H15S15757   1.059   5.723   3.792
  144OSM   H15T15758   1.159   5.578   3.788
  144OSM   C16S15759   1.056   5.637   3.975
  144OSM   H16S15760   0.990   5.724   3.996
  144OSM   H16T15761   1.157   5.666   4.013
  144OSM   C17S15762   1.004   5.504   4.040
  144OSM   H17S15763   1.056   5.505   4.138
  144OSM   H17T15764   1.046   5.422   3.978
  144OSM   C18S15765   0.858   5.490   4.062
  144OSM   H18S15766   0.810   5.574   4.116
  144OSM   H18T15767   0.830   5.409   4.133
  144OSM   H18U15768   0.806   5.469   3.966
  144OSM    C1F15769   0.623   5.779   2.331
  144OSM     OF15770   0.521   5.742   2.275
  144OSM    C2F15771   0.654   5.928   2.342
  144OSM    H2F15772   0.605   5.977   2.255
  144OSM    H2G15773   0.764   5.940   2.329
  144OSM    C3F15774   0.595   5.983   2.471
  144OSM    H3F15775   0.493   5.940   2.482
  144OSM    H3G15776   0.581   6.091   2.451
  144OSM    C4F15777   0.685   5.964   2.587
  144OSM    H4F15778   0.790   5.991   2.564
  144OSM    H4G15779   0.684   5.857   2.617
  144OSM    C5F15780   0.637   6.040   2.708
  144OSM    H5F15781   0.526   6.042   2.702
  144OSM    H5G15782   0.689   6.138   2.708
  144OSM    C6F15783   0.672   5.962   2.840
  144OSM    H6F15784   0.783   5.959   2.842
  144OSM    H6G15785   0.645   5.856   2.822
  144OSM    C7F15786   0.612   6.013   2.970
  144OSM    H7F15787   0.507   6.048   2.971
  144OSM    H7G15788   0.668   6.103   3.002
  144OSM    C8F15789   0.624   5.910   3.090
  144OSM    H8F15790   0.722   5.857   3.096
  144OSM    H8G15791   0.542   5.835   3.088
  144OSM    C9F15792   0.612   5.980   3.227
  144OSM    H9F15793   0.687   6.051   3.264
  144OSM   C10F15794   0.525   5.958   3.330
  144OSM   H10F15795   0.539   6.013   3.424
  144OSM   C11F15796   0.398   5.869   3.326
  144OSM   H11F15797   0.387   5.819   3.228
  144OSM   H11G15798   0.306   5.928   3.346
  144OSM   C12F15799   0.411   5.755   3.427
  144OSM   H12F15800   0.507   5.699   3.418
  144OSM   H12G15801   0.331   5.682   3.400
  144OSM   C13F15802   0.390   5.803   3.570
  144OSM   H13F15803   0.292   5.851   3.587
  144OSM   H13G15804   0.467   5.876   3.602
  144OSM   C14F15805   0.402   5.688   3.664
  144OSM   H14F15806   0.504   5.645   3.666
  144OSM   H14G15807   0.338   5.601   3.637
  144OSM   C15F15808   0.354   5.733   3.805
  144OSM   H15F15809   0.257   5.786   3.798
  144OSM   H15G15810   0.426   5.807   3.846
  144OSM   C16F15811   0.328   5.614   3.891
  144OSM   H16F15812   0.427   5.577   3.926
  144OSM   H16G15813   0.279   5.530   3.838
  144OSM   C17F15814   0.248   5.637   4.017
  144OSM   H17F15815   0.139   5.634   3.993
  144OSM   H17G15816   0.276   5.735   4.061
  144OSM   C18F15817   0.266   5.532   4.126
  144OSM   H18F15818   0.269   5.428   4.088
  144OSM   H18G15819   0.184   5.540   4.201
  144OSM   H18H15820   0.365   5.552   4.171
  145SAPE     N15821   1.357   0.484   6.589
  145SAPE   HN115822   1.348   0.383   6.567
  145SAPE   HN215823   1.453   0.488   6.629
  145SAPE   HN315824   1.297   0.516   6.667
  145SAPE   C1215825   1.359   0.574   6.463
  145SAPE  H12A15826   1.275   0.542   6.398
  145SAPE  H12B15827   1.455   0.551   6.412
  145SAPE   C1115828   1.360   0.726   6.498
  145SAPE  H11A15829   1.355   0.784   6.403
  145SAPE  H11B15830   1.455   0.738   6.553
  145SAPE     P15831   1.118   0.791   6.536
  145SAPE   O1315832   1.045   0.664   6.520
  145SAPE   O1415833   1.058   0.889   6.631
  145SAPE   O1215834   1.263   0.764   6.595
  145SAPE   O1115835   1.149   0.871   6.403
  145SAPE    C115836   1.081   0.991   6.347
  145SAPE    HA15837   0.975   1.006   6.376
  145SAPE    HB15838   1.127   1.087   6.381
  145SAPE    C215839   1.074   0.994   6.188
  145SAPE    HS15840   1.008   1.075   6.151
  145SAPE   O2115841   1.043   0.867   6.133
  145SAPE   C2115842   0.955   0.859   6.042
  145SAPE   O2215843   0.875   0.946   6.010
  145SAPE   C2215844   0.966   0.724   5.968
  145SAPE   H2R15845   1.037   0.738   5.885
  145SAPE   H2S15846   1.020   0.648   6.028
  145SAPE    C315847   1.208   1.036   6.130
  145SAPE    HX15848   1.289   0.971   6.170
  145SAPE    HY15849   1.231   1.139   6.164
  145SAPE   O3115850   1.217   1.021   5.984
  145SAPE   C3115851   1.144   1.103   5.915
  145SAPE   O3215852   1.082   1.196   5.960
  145SAPE   C3215853   1.135   1.061   5.765
  145SAPE   H2X15854   1.149   0.951   5.754
  145SAPE   H2Y15855   1.221   1.114   5.718
  145SAPE   C2315856   0.833   0.648   5.915
  145SAPE   H3R15857   0.744   0.652   5.983
  145SAPE   H3S15858   0.863   0.542   5.909
  145SAPE   C2415859   0.786   0.697   5.776
  145SAPE   H4R15860   0.875   0.736   5.722
  145SAPE   H4S15861   0.722   0.788   5.781
  145SAPE   C2515862   0.715   0.585   5.700
  145SAPE   H5R15863   0.624   0.564   5.758
  145SAPE   C2615864   0.751   0.549   5.576
  145SAPE   H6R15865   0.702   0.463   5.527
  145SAPE   C2715866   0.876   0.587   5.502
  145SAPE   H7R15867   0.959   0.610   5.572
  145SAPE   H7S15868   0.852   0.683   5.452
  145SAPE   C2815869   0.918   0.485   5.397
  145SAPE   H8R15870   0.946   0.387   5.439
  145SAPE   C2915871   0.938   0.505   5.263
  145SAPE   H9R15872   0.964   0.417   5.202
  145SAPE  C21015873   0.901   0.628   5.181
  145SAPE  H10R15874   0.953   0.715   5.225
  145SAPE  H10S15875   0.791   0.646   5.185
  145SAPE  C21115876   0.958   0.642   5.041
  145SAPE  H11R15877   1.062   0.612   5.022
  145SAPE  C21215878   0.886   0.682   4.937
  145SAPE  H12R15879   0.938   0.703   4.843
  145SAPE  C21315880   0.739   0.705   4.935
  145SAPE  H13R15881   0.732   0.813   4.962
  145SAPE  H13S15882   0.677   0.655   5.012
  145SAPE  C21415883   0.678   0.679   4.805
  145SAPE  H14R15884   0.684   0.576   4.767
  145SAPE  C21515885   0.633   0.764   4.714
  145SAPE  H15R15886   0.586   0.724   4.623
  145SAPE  C21615887   0.621   0.909   4.733
  145SAPE  H16R15888   0.708   0.967   4.696
  145SAPE  H16S15889   0.621   0.933   4.841
  145SAPE  C21715890   0.502   0.973   4.668
  145SAPE  H17R15891   0.482   1.080   4.693
  145SAPE  H17S15892   0.409   0.914   4.678
  145SAPE  C21815893   0.518   0.974   4.516
  145SAPE  H18R15894   0.538   0.878   4.464
  145SAPE  H18S15895   0.603   1.043   4.498
  145SAPE  C21915896   0.398   1.036   4.450
  145SAPE  H19R15897   0.340   1.107   4.514
  145SAPE  H19S15898   0.323   0.956   4.432
  145SAPE  C22015899   0.432   1.105   4.320
  145SAPE  H20R15900   0.347   1.126   4.251
  145SAPE  H20S15901   0.507   1.052   4.259
  145SAPE  H20T15902   0.480   1.201   4.350
  145SAPE   C3315903   1.004   1.114   5.696
  145SAPE   H3X15904   1.006   1.225   5.695
  145SAPE   H3Y15905   0.914   1.075   5.748
  145SAPE   C3415906   1.001   1.074   5.547
  145SAPE   H4X15907   0.998   0.963   5.545
  145SAPE   H4Y15908   1.088   1.120   5.495
  145SAPE   C3515909   0.879   1.120   5.478
  145SAPE   H5X15910   0.875   1.231   5.468
  145SAPE   H5Y15911   0.792   1.091   5.541
  145SAPE   C3615912   0.855   1.049   5.338
  145SAPE   H6X15913   0.751   1.075   5.308
  145SAPE   H6Y15914   0.859   0.939   5.347
  145SAPE   C3715915   0.965   1.100   5.236
  145SAPE   H7X15916   1.063   1.049   5.252
  145SAPE   H7Y15917   0.976   1.210   5.236
  145SAPE   C3815918   0.915   1.074   5.089
  145SAPE   H8X15919   0.830   1.143   5.070
  145SAPE   H8Y15920   0.881   0.969   5.078
  145SAPE   C3915921   1.015   1.103   4.977
  145SAPE   H9X15922   1.121   1.086   5.005
  145SAPE   H9Y15923   1.005   1.211   4.953
  145SAPE  C31015924   0.988   1.021   4.853
  145SAPE  H10X15925   0.883   1.037   4.822
  145SAPE  H10Y15926   0.983   0.918   4.895
  145SAPE  C31115927   1.098   1.041   4.753
  145SAPE  H11X15928   1.193   1.012   4.802
  145SAPE  H11Y15929   1.098   1.151   4.735
  145SAPE  C31215930   1.055   0.966   4.625
  145SAPE  H12X15931   0.964   1.007   4.576
  145SAPE  H12Y15932   1.039   0.867   4.673
  145SAPE  C31315933   1.170   0.962   4.512
  145SAPE  H13X15934   1.137   0.905   4.423
  145SAPE  H13Y15935   1.265   0.914   4.544
  145SAPE  C31415936   1.197   1.103   4.458
  145SAPE  H14X15937   1.241   1.161   4.542
  145SAPE  H14Y15938   1.093   1.143   4.449
  145SAPE  C31515939   1.279   1.110   4.330
  145SAPE  H15X15940   1.247   1.050   4.243
  145SAPE  H15Y15941   1.380   1.073   4.357
  145SAPE  C31615942   1.306   1.254   4.280
  145SAPE  H16X15943   1.384   1.261   4.202
  145SAPE  H16Y15944   1.337   1.317   4.367
  145SAPE  C31715945   1.179   1.314   4.216
  145SAPE  H17X15946   1.183   1.425   4.209
  145SAPE  H17Y15947   1.088   1.287   4.273
  145SAPE  C31815948   1.143   1.259   4.076
  145SAPE  H18X15949   1.114   1.151   4.077
  145SAPE  H18Y15950   1.230   1.277   4.010
  145SAPE  H18Z15951   1.056   1.315   4.036
  146SAPE     N15952   4.404   0.008   6.488
  146SAPE   HN115953   4.325   6.788   6.521
  146SAPE   HN215954   4.404   0.026   6.386
  146SAPE   HN315955   4.490   6.788   6.501
  146SAPE   C1215956   4.427   0.129   6.575
  146SAPE  H12A15957   4.502   0.187   6.516
  146SAPE  H12B15958   4.468   0.105   6.675
  146SAPE   C1115959   4.307   0.220   6.571
  146SAPE  H11A15960   4.285   0.252   6.467
  146SAPE  H11B15961   4.328   0.314   6.626
  146SAPE     P15962   4.066   0.225   6.639
  146SAPE   O1315963   3.963   0.140   6.702
  146SAPE   O1415964   4.080   0.354   6.703
  146SAPE   O1215965   4.200   0.145   6.631
  146SAPE   O1115966   4.031   0.249   6.494
  146SAPE    C115967   3.986   0.153   6.397
  146SAPE    HA15968   3.989   0.050   6.438
  146SAPE    HB15969   3.885   0.176   6.358
  146SAPE    C215970   4.078   0.150   6.268
  146SAPE    HS15971   4.185   0.137   6.297
  146SAPE   O2115972   4.043   0.259   6.184
  146SAPE   C2115973   4.149   0.344   6.163
  146SAPE   O2215974   4.263   0.321   6.206
  146SAPE   C2215975   4.102   0.457   6.074
  146SAPE   H2R15976   4.056   0.406   5.986
  146SAPE   H2S15977   4.022   0.515   6.123
  146SAPE    C315978   4.049   0.018   6.187
  146SAPE    HX15979   3.951   0.037   6.140
  146SAPE    HY15980   4.027   6.779   6.264
  146SAPE   O3115981   4.151   6.824   6.092
  146SAPE   C3115982   4.261   6.774   6.144
  146SAPE   O3215983   4.286   6.763   6.268
  146SAPE   C3215984   4.341   6.722   6.026
  146SAPE   H2X15985   4.443   6.700   6.063
  146SAPE   H2Y15986   4.361   6.814   5.967
  146SAPE   C2315987   4.216   0.557   6.038
  146SAPE   H3R15988   4.311   0.507   6.009
  146SAPE   H3S15989   4.233   0.611   6.134
  146SAPE   C2415990   4.187   0.650   5.915
  146SAPE   H4R15991   4.217   0.585   5.829
  146SAPE   H4S15992   4.260   0.734   5.921
  146SAPE   C2515993   4.049   0.709   5.906
  146SAPE   H5R15994   4.010   0.745   6.002
  146SAPE   C2615995   3.965   0.723   5.795
  146SAPE   H6R15996   3.860   0.755   5.802
  146SAPE   C2715997   4.017   0.700   5.661
  146SAPE   H7R15998   4.126   0.721   5.657
  146SAPE   H7S15999   3.966   0.766   5.587
  146SAPE   C2816000   3.986   0.558   5.626
  146SAPE   H8R16001   4.042   0.488   5.689
  146SAPE   C2916002   3.909   0.510   5.523
  146SAPE   H9R16003   3.886   0.402   5.527
  146SAPE  C21016004   3.831   0.600   5.425
  146SAPE  H10R16005   3.904   0.646   5.356
  146SAPE  H10S16006   3.790   0.685   5.484
  146SAPE  C21116007   3.732   0.522   5.347
  146SAPE  H11R16008   3.687   0.446   5.412
  146SAPE  C21216009   3.703   0.541   5.213
  146SAPE  H12R16010   3.637   0.475   5.154
  146SAPE  C21316011   3.756   0.661   5.136
  146SAPE  H13R16012   3.786   0.751   5.195
  146SAPE  H13S16013   3.686   0.695   5.057
  146SAPE  C21416014   3.880   0.623   5.062
  146SAPE  H14R16015   3.968   0.678   5.098
  146SAPE  C21516016   3.897   0.538   4.961
  146SAPE  H15R16017   4.002   0.523   4.933
  146SAPE  C21616018   3.798   0.466   4.875
  146SAPE  H16R16019   3.703   0.447   4.928
  146SAPE  H16S16020   3.842   0.370   4.842
  146SAPE  C21716021   3.757   0.547   4.745
  146SAPE  H17R16022   3.729   0.647   4.784
  146SAPE  H17S16023   3.663   0.504   4.705
  146SAPE  C21816024   3.863   0.553   4.636
  146SAPE  H18R16025   3.866   0.454   4.586
  146SAPE  H18S16026   3.963   0.575   4.680
  146SAPE  C21916027   3.841   0.651   4.523
  146SAPE  H19R16028   3.939   0.670   4.475
  146SAPE  H19S16029   3.814   0.745   4.575
  146SAPE  C22016030   3.730   0.618   4.423
  146SAPE  H20R16031   3.763   0.547   4.344
  146SAPE  H20S16032   3.698   0.719   4.387
  146SAPE  H20T16033   3.634   0.578   4.461
  146SAPE   C3316034   4.266   6.618   5.948
  146SAPE   H3X16035   4.158   6.643   5.940
  146SAPE   H3Y16036   4.266   6.526   6.010
  146SAPE   C3416037   4.323   6.599   5.805
  146SAPE   H4X16038   4.301   6.689   5.744
  146SAPE   H4Y16039   4.274   6.512   5.756
  146SAPE   C3516040   4.468   6.557   5.810
  146SAPE   H5X16041   4.473   6.464   5.871
  146SAPE   H5Y16042   4.550   6.624   5.844
  146SAPE   C3616043   4.520   6.522   5.670
  146SAPE   H6X16044   4.451   6.445   5.628
  146SAPE   H6Y16045   4.612   6.464   5.693
  146SAPE   C3716046   4.528   6.640   5.570
  146SAPE   H7X16047   4.585   6.715   5.629
  146SAPE   H7Y16048   4.431   6.681   5.535
  146SAPE   C3816049   4.596   6.600   5.441
  146SAPE   H8X16050   4.537   6.523   5.387
  146SAPE   H8Y16051   4.696   6.560   5.467
  146SAPE   C3916052   4.621   6.725   5.350
  146SAPE   H9X16053   4.687   6.796   5.405
  146SAPE   H9Y16054   4.524   6.780   5.348
  146SAPE  C31016055   4.647   6.696   5.201
  146SAPE  H10X16056   4.603   6.597   5.176
  146SAPE  H10Y16057   4.757   6.692   5.185
  146SAPE  C31116058   4.570   6.795   5.107
  146SAPE  H11X16059   4.599   0.062   5.130
  146SAPE  H11Y16060   4.462   6.775   5.124
  146SAPE  C31216061   4.584   6.766   4.951
  146SAPE  H12X16062   4.536   6.670   4.924
  146SAPE  H12Y16063   4.688   6.756   4.913
  146SAPE  C31316064   4.525   0.036   4.860
  146SAPE  H13X16065   4.588   0.127   4.854
  146SAPE  H13Y16066   4.430   0.066   4.910
  146SAPE  C31416067   4.511   6.832   4.713
  146SAPE  H14X16068   4.475   6.728   4.721
  146SAPE  H14Y16069   4.616   6.827   4.677
  146SAPE  C31516070   4.416   0.093   4.643
  146SAPE  H15X16071   4.460   0.192   4.670
  146SAPE  H15Y16072   4.318   0.070   4.690
  146SAPE  C31616073   4.410   0.062   4.496
  146SAPE  H16X16074   4.362   6.800   4.490
  146SAPE  H16Y16075   4.509   0.050   4.448
  146SAPE  C31716076   4.330   0.171   4.420
  146SAPE  H17X16077   4.389   0.265   4.415
  146SAPE  H17Y16078   4.235   0.188   4.476
  146SAPE  C31816079   4.304   0.120   4.277
  146SAPE  H18X16080   4.406   0.107   4.235
  146SAPE  H18Y16081   4.238   0.192   4.224
  146SAPE  H18Z16082   4.245   0.025   4.284
  147SAPE     N16083   5.635   5.338   6.727
  147SAPE   HN116084   5.723   5.362   6.777
  147SAPE   HN216085   5.650   5.390   6.639
  147SAPE   HN316086   5.557   5.388   6.775
  147SAPE   C1216087   5.610   5.192   6.705
  147SAPE  H12A16088   5.706   5.135   6.704
  147SAPE  H12B16089   5.559   5.176   6.607
  147SAPE   C1116090   5.521   5.138   6.821
  147SAPE  H11A16091   5.578   5.128   6.916
  147SAPE  H11B16092   5.482   5.037   6.794
  147SAPE     P16093   5.284   5.224   6.755
  147SAPE   O1316094   5.259   5.089   6.699
  147SAPE   O1416095   5.171   5.278   6.831
  147SAPE   O1216096   5.414   5.223   6.845
  147SAPE   O1116097   5.331   5.314   6.636
  147SAPE    C116098   5.248   5.419   6.580
  147SAPE    HA16099   5.150   5.430   6.631
  147SAPE    HB16100   5.307   5.513   6.593
  147SAPE    C216101   5.217   5.387   6.438
  147SAPE    HS16102   5.307   5.351   6.385
  147SAPE   O2116103   5.175   5.502   6.365
  147SAPE   C2116104   5.267   5.582   6.309
  147SAPE   O2216105   5.386   5.574   6.319
  147SAPE   C2216106   5.199   5.684   6.205
  147SAPE   H2R16107   5.177   5.617   6.118
  147SAPE   H2S16108   5.103   5.720   6.249
  147SAPE    C316109   5.126   5.268   6.407
  147SAPE    HX16110   5.029   5.301   6.449
  147SAPE    HY16111   5.165   5.184   6.469
  147SAPE   O3116112   5.137   5.238   6.268
  147SAPE   C3116113   5.025   5.176   6.237
  147SAPE   O3216114   4.921   5.165   6.311
  147SAPE   C3216115   5.042   5.110   6.102
  147SAPE   H2X16116   5.115   5.028   6.122
  147SAPE   H2Y16117   5.091   5.187   6.038
  147SAPE   C2316118   5.284   5.804   6.150
  147SAPE   H3R16119   5.378   5.768   6.103
  147SAPE   H3S16120   5.311   5.864   6.239
  147SAPE   C2416121   5.210   5.909   6.061
  147SAPE   H4R16122   5.106   5.927   6.096
  147SAPE   H4S16123   5.193   5.872   5.958
  147SAPE   C2516124   5.276   6.048   6.049
  147SAPE   H5R16125   5.267   6.117   6.134
  147SAPE   C2616126   5.356   6.096   5.948
  147SAPE   H6R16127   5.392   6.199   5.944
  147SAPE   C2716128   5.394   6.005   5.829
  147SAPE   H7R16129   5.319   6.003   5.747
  147SAPE   H7S16130   5.420   5.899   5.849
  147SAPE   C2816131   5.516   6.048   5.752
  147SAPE   H8R16132   5.604   6.048   5.818
  147SAPE   C2916133   5.522   6.079   5.622
  147SAPE   H9R16134   5.623   6.101   5.585
  147SAPE  C21016135   5.410   6.071   5.517
  147SAPE  H10R16136   5.437   6.147   5.440
  147SAPE  H10S16137   5.311   6.110   5.548
  147SAPE  C21116138   5.386   5.945   5.442
  147SAPE  H11R16139   5.417   5.857   5.501
  147SAPE  C21216140   5.327   5.922   5.318
  147SAPE  H12R16141   5.334   5.821   5.276
  147SAPE  C21316142   5.291   6.021   5.202
  147SAPE  H13R16143   5.371   6.008   5.126
  147SAPE  H13S16144   5.294   6.126   5.237
  147SAPE  C21416145   5.151   5.998   5.148
  147SAPE  H14R16146   5.065   6.032   5.209
  147SAPE  C21516147   5.115   5.936   5.029
  147SAPE  H15R16148   5.008   5.926   5.005
  147SAPE  C21616149   5.201   5.868   4.933
  147SAPE  H16R16150   5.300   5.918   4.944
  147SAPE  H16S16151   5.176   5.883   4.826
  147SAPE  C21716152   5.217   5.712   4.950
  147SAPE  H17R16153   5.212   5.696   5.060
  147SAPE  H17S16154   5.320   5.681   4.921
  147SAPE  C21816155   5.114   5.632   4.879
  147SAPE  H18R16156   5.108   5.662   4.772
  147SAPE  H18S16157   5.011   5.657   4.914
  147SAPE  C21916158   5.146   5.481   4.881
  147SAPE  H19R16159   5.156   5.434   4.981
  147SAPE  H19S16160   5.239   5.472   4.821
  147SAPE  C22016161   5.035   5.395   4.818
  147SAPE  H20R16162   5.004   5.415   4.713
  147SAPE  H20S16163   4.941   5.396   4.878
  147SAPE  H20T16164   5.061   5.288   4.828
  147SAPE   C3316165   4.906   5.052   6.059
  147SAPE   H3X16166   4.821   5.101   6.112
  147SAPE   H3Y16167   4.898   4.944   6.087
  147SAPE   C3416168   4.875   5.053   5.908
  147SAPE   H4X16169   4.782   4.996   5.890
  147SAPE   H4Y16170   4.959   5.006   5.853
  147SAPE   C3516171   4.843   5.189   5.841
  147SAPE   H5X16172   4.928   5.258   5.859
  147SAPE   H5Y16173   4.756   5.221   5.902
  147SAPE   C3616174   4.832   5.182   5.689
  147SAPE   H6X16175   4.927   5.156   5.638
  147SAPE   H6Y16176   4.806   5.286   5.660
  147SAPE   C3716177   4.721   5.091   5.644
  147SAPE   H7X16178   4.643   5.074   5.721
  147SAPE   H7Y16179   4.768   4.995   5.614
  147SAPE   C3816180   4.643   5.152   5.528
  147SAPE   H8X16181   4.609   5.254   5.556
  147SAPE   H8Y16182   4.554   5.087   5.515
  147SAPE   C3916183   4.712   5.156   5.388
  147SAPE   H9X16184   4.740   5.053   5.357
  147SAPE   H9Y16185   4.809   5.211   5.388
  147SAPE  C31016186   4.617   5.214   5.279
  147SAPE  H10X16187   4.591   5.313   5.321
  147SAPE  H10Y16188   4.519   5.162   5.274
  147SAPE  C31116189   4.684   5.206   5.138
  147SAPE  H11X16190   4.692   5.097   5.116
  147SAPE  H11Y16191   4.791   5.237   5.143
  147SAPE  C31216192   4.600   5.270   5.022
  147SAPE  H12X16193   4.493   5.252   5.045
  147SAPE  H12Y16194   4.641   5.217   4.933
  147SAPE  C31316195   4.632   5.418   5.006
  147SAPE  H13X16196   4.742   5.429   5.003
  147SAPE  H13Y16197   4.591   5.474   5.093
  147SAPE  C31416198   4.583   5.479   4.875
  147SAPE  H14X16199   4.473   5.458   4.872
  147SAPE  H14Y16200   4.632   5.436   4.786
  147SAPE  C31516201   4.600   5.631   4.878
  147SAPE  H15X16202   4.573   5.674   4.977
  147SAPE  H15Y16203   4.527   5.671   4.805
  147SAPE  C31616204   4.733   5.695   4.838
  147SAPE  H16X16205   4.780   5.636   4.757
  147SAPE  H16Y16206   4.801   5.699   4.926
  147SAPE  C31716207   4.725   5.837   4.792
  147SAPE  H17X16208   4.657   5.842   4.704
  147SAPE  H17Y16209   4.819   5.880   4.751
  147SAPE  C31816210   4.677   5.938   4.896
  147SAPE  H18X16211   4.676   6.036   4.844
  147SAPE  H18Y16212   4.755   5.949   4.974
  147SAPE  H18Z16213   4.584   5.923   4.954
  148SAPE     N16214   2.436   0.457   6.616
  148SAPE   HN116215   2.446   0.534   6.686
  148SAPE   HN216216   2.517   0.459   6.551
  148SAPE   HN316217   2.350   0.470   6.558
  148SAPE   C1216218   2.419   0.333   6.695
  148SAPE  H12A16219   2.486   0.339   6.783
  148SAPE  H12B16220   2.456   0.249   6.633
  148SAPE   C1116221   2.269   0.319   6.738
  148SAPE  H11A16222   2.199   0.304   6.653
  148SAPE  H11B16223   2.251   0.413   6.794
  148SAPE     P16224   2.124   0.124   6.851
  148SAPE   O1316225   2.136   0.024   6.962
  148SAPE   O1416226   2.014   0.223   6.862
  148SAPE   O1216227   2.250   0.209   6.836
  148SAPE   O1116228   2.113   0.043   6.716
  148SAPE    C116229   2.233   6.811   6.677
  148SAPE    HA16230   2.297   0.054   6.636
  148SAPE    HB16231   2.272   6.755   6.765
  148SAPE    C216232   2.203   6.708   6.565
  148SAPE    HS16233   2.302   6.664   6.544
  148SAPE   O2116234   2.160   6.765   6.443
  148SAPE   C2116235   2.258   6.835   6.382
  148SAPE   O2216236   2.377   0.001   6.406
  148SAPE   C2216237   2.188   0.066   6.273
  148SAPE   H2R16238   2.131   6.831   6.213
  148SAPE   H2S16239   2.118   0.144   6.310
  148SAPE    C316240   2.102   6.597   6.615
  148SAPE    HX16241   2.015   6.650   6.661
  148SAPE    HY16242   2.152   6.542   6.697
  148SAPE   O3116243   2.053   6.508   6.509
  148SAPE   C3116244   1.961   6.546   6.427
  148SAPE   O3216245   1.902   6.650   6.438
  148SAPE   C3216246   1.927   6.431   6.325
  148SAPE   H2X16247   1.873   6.487   6.246
  148SAPE   H2Y16248   1.860   6.356   6.372
  148SAPE   C2316249   2.290   0.144   6.190
  148SAPE   H3R16250   2.361   0.070   6.148
  148SAPE   H3S16251   2.339   0.203   6.271
  148SAPE   C2416252   2.235   0.237   6.084
  148SAPE   H4R16253   2.310   0.310   6.045
  148SAPE   H4S16254   2.163   0.294   6.147
  148SAPE   C2516255   2.166   0.150   5.972
  148SAPE   H5R16256   2.098   0.072   6.009
  148SAPE   C2616257   2.187   0.155   5.844
  148SAPE   H6R16258   2.145   0.078   5.778
  148SAPE   C2716259   2.275   0.260   5.769
  148SAPE   H7R16260   2.294   0.339   5.845
  148SAPE   H7S16261   2.210   0.307   5.692
  148SAPE   C2816262   2.400   0.183   5.723
  148SAPE   H8R16263   2.472   0.156   5.802
  148SAPE   C2916264   2.420   0.149   5.602
  148SAPE   H9R16265   2.511   0.091   5.581
  148SAPE  C21016266   2.325   0.174   5.481
  148SAPE  H10R16267   2.224   0.209   5.513
  148SAPE  H10S16268   2.295   0.086   5.420
  148SAPE  C21116269   2.402   0.273   5.396
  148SAPE  H11R16270   2.490   0.320   5.442
  148SAPE  C21216271   2.344   0.327   5.281
  148SAPE  H12R16272   2.397   0.402   5.222
  148SAPE  C21316273   2.214   0.290   5.225
  148SAPE  H13R16274   2.138   0.265   5.303
  148SAPE  H13S16275   2.213   0.199   5.161
  148SAPE  C21416276   2.159   0.399   5.141
  148SAPE  H14R16277   2.159   0.497   5.193
  148SAPE  C21516278   2.131   0.405   5.016
  148SAPE  H15R16279   2.100   0.505   4.982
  148SAPE  C21616280   2.130   0.301   4.904
  148SAPE  H16R16281   2.024   0.281   4.878
  148SAPE  H16S16282   2.168   0.204   4.942
  148SAPE  C21716283   2.214   0.350   4.792
  148SAPE  H17R16284   2.319   0.352   4.829
  148SAPE  H17S16285   2.193   0.454   4.760
  148SAPE  C21816286   2.199   0.264   4.661
  148SAPE  H18R16287   2.258   0.324   4.588
  148SAPE  H18S16288   2.092   0.272   4.634
  148SAPE  C21916289   2.255   0.124   4.655
  148SAPE  H19R16290   2.216   0.078   4.748
  148SAPE  H19S16291   2.364   0.140   4.659
  148SAPE  C22016292   2.215   0.046   4.529
  148SAPE  H20R16293   2.265   0.086   4.438
  148SAPE  H20S16294   2.107   0.059   4.509
  148SAPE  H20T16295   2.249   6.779   4.541
  148SAPE   C3316296   2.054   6.360   6.265
  148SAPE   H3X16297   2.042   6.274   6.196
  148SAPE   H3Y16298   2.111   6.307   6.344
  148SAPE   C3416299   2.157   6.460   6.207
  148SAPE   H4X16300   2.248   6.401   6.181
  148SAPE   H4Y16301   2.185   6.548   6.268
  148SAPE   C3516302   2.093   6.512   6.068
  148SAPE   H5X16303   2.020   6.593   6.090
  148SAPE   H5Y16304   2.051   6.429   6.008
  148SAPE   C3616305   2.211   6.570   5.982
  148SAPE   H6X16306   2.275   6.482   5.958
  148SAPE   H6Y16307   2.262   6.648   6.043
  148SAPE   C3716308   2.164   6.645   5.854
  148SAPE   H7X16309   2.260   6.679   5.810
  148SAPE   H7Y16310   2.092   6.728   5.872
  148SAPE   C3816311   2.096   6.544   5.757
  148SAPE   H8X16312   2.014   6.494   5.814
  148SAPE   H8Y16313   2.174   6.473   5.723
  148SAPE   C3916314   2.033   6.605   5.633
  148SAPE   H9X16315   1.955   6.681   5.655
  148SAPE   H9Y16316   1.973   6.542   5.565
  148SAPE  C31016317   2.152   6.668   5.552
  148SAPE  H10X16318   2.241   6.603   5.560
  148SAPE  H10Y16319   2.179   6.770   5.587
  148SAPE  C31116320   2.115   6.692   5.403
  148SAPE  H11X16321   2.097   6.591   5.359
  148SAPE  H11Y16322   2.201   6.723   5.340
  148SAPE  C31216323   2.010   6.799   5.378
  148SAPE  H12X16324   2.038   0.052   5.435
  148SAPE  H12Y16325   1.915   6.768   5.427
  148SAPE  C31316326   2.004   6.833   5.227
  148SAPE  H13X16327   2.107   0.024   5.198
  148SAPE  H13Y16328   1.941   0.083   5.202
  148SAPE  C31416329   1.962   6.718   5.132
  148SAPE  H14X16330   1.869   6.666   5.163
  148SAPE  H14Y16331   2.043   6.643   5.147
  148SAPE  C31516332   1.953   6.776   4.994
  148SAPE  H15X16333   2.050   6.823   4.966
  148SAPE  H15Y16334   1.879   0.020   4.991
  148SAPE  C31616335   1.932   6.671   4.875
  148SAPE  H16X16336   1.841   6.611   4.899
  148SAPE  H16Y16337   2.026   6.614   4.868
  148SAPE  C31716338   1.921   6.745   4.737
  148SAPE  H17X16339   2.011   6.809   4.745
  148SAPE  H17Y16340   1.825   6.800   4.727
  148SAPE  C31816341   1.929   6.667   4.602
  148SAPE  H18X16342   1.836   6.611   4.581
  148SAPE  H18Y16343   2.008   6.591   4.622
  148SAPE  H18Z16344   1.949   6.730   4.513
  149SAPE     N16345   2.115   1.846   6.311
  149SAPE   HN116346   2.152   1.815   6.218
  149SAPE   HN216347   2.110   1.763   6.373
  149SAPE   HN316348   2.020   1.888   6.304
  149SAPE   C1216349   2.196   1.957   6.373
  149SAPE  H12A16350   2.224   2.035   6.300
  149SAPE  H12B16351   2.283   1.913   6.427
  149SAPE   C1116352   2.103   2.032   6.482
  149SAPE  H11A16353   2.017   2.081   6.430
  149SAPE  H11B16354   2.165   2.109   6.533
  149SAPE     P16355   1.908   1.915   6.626
  149SAPE   O1316356   1.902   1.796   6.719
  149SAPE   O1416357   1.854   2.044   6.675
  149SAPE   O1216358   2.061   1.944   6.585
  149SAPE   O1116359   1.851   1.869   6.482
  149SAPE    C116360   1.783   1.744   6.482
  149SAPE    HA16361   1.856   1.663   6.504
  149SAPE    HB16362   1.699   1.741   6.555
  149SAPE    C216363   1.717   1.714   6.343
  149SAPE    HS16364   1.636   1.640   6.360
  149SAPE   O2116365   1.807   1.663   6.242
  149SAPE   C2116366   1.834   1.530   6.257
  149SAPE   O2216367   1.804   1.460   6.353
  149SAPE   C2216368   1.895   1.489   6.124
  149SAPE   H2R16369   1.968   1.567   6.096
  149SAPE   H2S16370   1.958   1.403   6.156
  149SAPE    C316371   1.652   1.841   6.291
  149SAPE    HX16372   1.726   1.922   6.272
  149SAPE    HY16373   1.583   1.884   6.366
  149SAPE   O3116374   1.575   1.814   6.174
  149SAPE   C3116375   1.615   1.865   6.058
  149SAPE   O3216376   1.711   1.939   6.050
  149SAPE   C3216377   1.526   1.813   5.952
  149SAPE   H2X16378   1.421   1.836   5.979
  149SAPE   H2Y16379   1.535   1.702   5.946
  149SAPE   C2316380   1.802   1.455   6.010
  149SAPE   H3R16381   1.746   1.547   5.985
  149SAPE   H3S16382   1.734   1.384   6.061
  149SAPE   C2416383   1.884   1.385   5.903
  149SAPE   H4R16384   1.968   1.332   5.953
  149SAPE   H4S16385   1.941   1.457   5.840
  149SAPE   C2516386   1.798   1.283   5.827
  149SAPE   H5R16387   1.764   1.200   5.891
  149SAPE   C2616388   1.788   1.276   5.691
  149SAPE   H6R16389   1.710   1.207   5.656
  149SAPE   C2716390   1.844   1.380   5.595
  149SAPE   H7R16391   1.952   1.404   5.600
  149SAPE   H7S16392   1.803   1.479   5.624
  149SAPE   C2816393   1.821   1.326   5.456
  149SAPE   H8R16394   1.832   1.216   5.450
  149SAPE   C2916395   1.812   1.398   5.343
  149SAPE   H9R16396   1.777   1.355   5.248
  149SAPE  C21016397   1.821   1.548   5.333
  149SAPE  H10R16398   1.888   1.561   5.245
  149SAPE  H10S16399   1.878   1.597   5.415
  149SAPE  C21116400   1.685   1.616   5.305
  149SAPE  H11R16401   1.637   1.677   5.383
  149SAPE  C21216402   1.626   1.632   5.188
  149SAPE  H12R16403   1.530   1.686   5.186
  149SAPE  C21316404   1.678   1.587   5.050
  149SAPE  H13R16405   1.640   1.483   5.042
  149SAPE  H13S16406   1.787   1.566   5.044
  149SAPE  C21416407   1.629   1.679   4.945
  149SAPE  H14R16408   1.548   1.751   4.965
  149SAPE  C21516409   1.685   1.677   4.822
  149SAPE  H15R16410   1.647   1.752   4.751
  149SAPE  C21616411   1.766   1.563   4.775
  149SAPE  H16R16412   1.739   1.558   4.667
  149SAPE  H16S16413   1.752   1.464   4.822
  149SAPE  C21716414   1.912   1.601   4.788
  149SAPE  H17R16415   1.981   1.515   4.773
  149SAPE  H17S16416   1.936   1.638   4.890
  149SAPE  C21816417   1.971   1.695   4.679
  149SAPE  H18R16418   1.928   1.796   4.692
  149SAPE  H18S16419   1.941   1.663   4.576
  149SAPE  C21916420   2.123   1.714   4.676
  149SAPE  H19R16421   2.158   1.624   4.621
  149SAPE  H19S16422   2.154   1.708   4.782
  149SAPE  C22016423   2.166   1.837   4.600
  149SAPE  H20R16424   2.272   1.829   4.565
  149SAPE  H20S16425   2.150   1.926   4.664
  149SAPE  H20T16426   2.101   1.868   4.516
  149SAPE   C3316427   1.554   1.864   5.804
  149SAPE   H3X16428   1.646   1.822   5.759
  149SAPE   H3Y16429   1.577   1.973   5.806
  149SAPE   C3416430   1.436   1.835   5.702
  149SAPE   H4X16431   1.343   1.883   5.740
  149SAPE   H4Y16432   1.415   1.726   5.699
  149SAPE   C3516433   1.470   1.886   5.560
  149SAPE   H5X16434   1.563   1.838   5.521
  149SAPE   H5Y16435   1.488   1.995   5.551
  149SAPE   C3616436   1.365   1.837   5.457
  149SAPE   H6X16437   1.263   1.867   5.489
  149SAPE   H6Y16438   1.359   1.728   5.437
  149SAPE   C3716439   1.383   1.901   5.315
  149SAPE   H7X16440   1.346   1.834   5.235
  149SAPE   H7Y16441   1.492   1.918   5.306
  149SAPE   C3816442   1.328   2.044   5.300
  149SAPE   H8X16443   1.396   2.108   5.360
  149SAPE   H8Y16444   1.225   2.049   5.341
  149SAPE   C3916445   1.332   2.088   5.148
  149SAPE   H9X16446   1.296   2.193   5.141
  149SAPE   H9Y16447   1.256   2.028   5.093
  149SAPE  C31016448   1.471   2.082   5.085
  149SAPE  H10X16449   1.509   1.978   5.091
  149SAPE  H10Y16450   1.540   2.152   5.136
  149SAPE  C31116451   1.480   2.125   4.934
  149SAPE  H11X16452   1.589   2.140   4.920
  149SAPE  H11Y16453   1.441   2.227   4.914
  149SAPE  C31216454   1.414   2.015   4.851
  149SAPE  H12X16455   1.309   2.003   4.884
  149SAPE  H12Y16456   1.460   1.914   4.856
  149SAPE  C31316457   1.409   2.062   4.701
  149SAPE  H13X16458   1.510   2.095   4.671
  149SAPE  H13Y16459   1.350   2.156   4.694
  149SAPE  C31416460   1.359   1.958   4.607
  149SAPE  H14X16461   1.270   1.906   4.647
  149SAPE  H14Y16462   1.441   1.885   4.593
  149SAPE  C31516463   1.324   2.009   4.461
  149SAPE  H15X16464   1.249   2.091   4.470
  149SAPE  H15Y16465   1.272   1.928   4.405
  149SAPE  C31616466   1.449   2.057   4.392
  149SAPE  H16X16467   1.534   1.985   4.399
  149SAPE  H16Y16468   1.495   2.148   4.436
  149SAPE  C31716469   1.421   2.083   4.240
  149SAPE  H17X16470   1.331   2.145   4.225
  149SAPE  H17Y16471   1.411   1.984   4.191
  149SAPE  C31816472   1.534   2.157   4.164
  149SAPE  H18X16473   1.547   2.255   4.214
  149SAPE  H18Y16474   1.503   2.172   4.059
  149SAPE  H18Z16475   1.636   2.111   4.165
  150SAPE     N16476   4.663   2.944   6.624
  150SAPE   HN116477   4.635   3.036   6.664
  150SAPE   HN216478   4.667   2.936   6.521
  150SAPE   HN316479   4.595   2.878   6.669
  150SAPE   C1216480   4.808   2.927   6.668
  150SAPE  H12A16481   4.811   2.934   6.779
  150SAPE  H12B16482   4.857   3.022   6.638
  150SAPE   C1116483   4.874   2.792   6.629
  150SAPE  H11A16484   4.828   2.710   6.689
  150SAPE  H11B16485   4.983   2.802   6.651
  150SAPE     P16486   4.906   2.648   6.406
  150SAPE   O1316487   5.028   2.591   6.459
  150SAPE   O1416488   4.789   2.565   6.372
  150SAPE   O1216489   4.845   2.765   6.494
  150SAPE   O1116490   4.946   2.731   6.280
  150SAPE    C116491   4.842   2.787   6.200
  150SAPE    HA16492   4.742   2.802   6.246
  150SAPE    HB16493   4.883   2.885   6.167
  150SAPE    C216494   4.809   2.714   6.063
  150SAPE    HS16495   4.750   2.625   6.092
  150SAPE   O2116496   4.927   2.685   5.983
  150SAPE   C2116497   4.993   2.591   6.020
  150SAPE   O2216498   4.957   2.500   6.097
  150SAPE   C2216499   5.131   2.594   5.952
  150SAPE   H2R16500   5.168   2.695   5.979
  150SAPE   H2S16501   5.208   2.533   6.005
  150SAPE    C316502   4.709   2.788   5.977
  150SAPE    HX16503   4.760   2.876   5.934
  150SAPE    HY16504   4.638   2.826   6.054
  150SAPE   O3116505   4.627   2.706   5.893
  150SAPE   C3116506   4.675   2.661   5.780
  150SAPE   O3216507   4.774   2.694   5.718
  150SAPE   C3216508   4.566   2.572   5.723
  150SAPE   H2X16509   4.487   2.641   5.686
  150SAPE   H2Y16510   4.527   2.511   5.807
  150SAPE   C2316511   5.127   2.583   5.797
  150SAPE   H3R16512   5.218   2.622   5.746
  150SAPE   H3S16513   5.039   2.645   5.770
  150SAPE   C2416514   5.088   2.440   5.747
  150SAPE   H4R16515   5.069   2.454   5.638
  150SAPE   H4S16516   4.989   2.411   5.789
  150SAPE   C2516517   5.201   2.352   5.785
  150SAPE   H5R16518   5.211   2.351   5.895
  150SAPE   C2616519   5.280   2.285   5.700
  150SAPE   H6R16520   5.363   2.233   5.751
  150SAPE   C2716521   5.278   2.278   5.549
  150SAPE   H7R16522   5.174   2.254   5.518
  150SAPE   H7S16523   5.328   2.185   5.515
  150SAPE   C2816524   5.344   2.394   5.478
  150SAPE   H8R16525   5.423   2.437   5.542
  150SAPE   C2916526   5.326   2.435   5.354
  150SAPE   H9R16527   5.393   2.516   5.325
  150SAPE  C21016528   5.229   2.393   5.245
  150SAPE  H10R16529   5.192   2.485   5.195
  150SAPE  H10S16530   5.146   2.327   5.279
  150SAPE  C21116531   5.298   2.302   5.152
  150SAPE  H11R16532   5.332   2.212   5.205
  150SAPE  C21216533   5.335   2.324   5.030
  150SAPE  H12R16534   5.387   2.241   4.980
  150SAPE  C21316535   5.296   2.441   4.951
  150SAPE  H13R16536   5.322   2.541   4.995
  150SAPE  H13S16537   5.187   2.426   4.943
  150SAPE  C21416538   5.359   2.436   4.815
  150SAPE  H14R16539   5.445   2.502   4.795
  150SAPE  C21516540   5.319   2.365   4.709
  150SAPE  H15R16541   5.374   2.371   4.614
  150SAPE  C21616542   5.218   2.250   4.716
  150SAPE  H16R16543   5.163   2.239   4.812
  150SAPE  H16S16544   5.286   2.164   4.697
  150SAPE  C21716545   5.117   2.254   4.599
  150SAPE  H17R16546   5.168   2.231   4.502
  150SAPE  H17S16547   5.063   2.351   4.586
  150SAPE  C21816548   5.019   2.140   4.601
  150SAPE  H18R16549   4.964   2.134   4.505
  150SAPE  H18S16550   4.941   2.157   4.678
  150SAPE  C21916551   5.077   2.003   4.631
  150SAPE  H19R16552   5.099   1.987   4.739
  150SAPE  H19S16553   5.168   1.990   4.569
  150SAPE  C22016554   4.973   1.898   4.598
  150SAPE  H20R16555   4.956   1.901   4.488
  150SAPE  H20S16556   4.876   1.914   4.650
  150SAPE  H20T16557   5.003   1.794   4.623
  150SAPE   C3316558   4.617   2.487   5.603
  150SAPE   H3X16559   4.544   2.407   5.576
  150SAPE   H3Y16560   4.712   2.437   5.630
  150SAPE   C3416561   4.630   2.564   5.468
  150SAPE   H4X16562   4.719   2.628   5.481
  150SAPE   H4Y16563   4.539   2.626   5.449
  150SAPE   C3516564   4.643   2.460   5.358
  150SAPE   H5X16565   4.609   2.505   5.262
  150SAPE   H5Y16566   4.586   2.367   5.376
  150SAPE   C3616567   4.792   2.423   5.337
  150SAPE   H6X16568   4.794   2.315   5.308
  150SAPE   H6Y16569   4.846   2.428   5.434
  150SAPE   C3716570   4.858   2.516   5.230
  150SAPE   H7X16571   4.964   2.529   5.262
  150SAPE   H7Y16572   4.814   2.618   5.238
  150SAPE   C3816573   4.855   2.466   5.087
  150SAPE   H8X16574   4.752   2.426   5.081
  150SAPE   H8Y16575   4.937   2.391   5.082
  150SAPE   C3916576   4.895   2.570   4.991
  150SAPE   H9X16577   4.995   2.604   5.026
  150SAPE   H9Y16578   4.826   2.656   5.003
  150SAPE  C31016579   4.894   2.526   4.842
  150SAPE  H10X16580   4.787   2.514   4.812
  150SAPE  H10Y16581   4.945   2.430   4.823
  150SAPE  C31116582   4.948   2.637   4.754
  150SAPE  H11X16583   5.057   2.651   4.740
  150SAPE  H11Y16584   4.902   2.730   4.793
  150SAPE  C31216585   4.878   2.632   4.618
  150SAPE  H12X16586   4.768   2.630   4.629
  150SAPE  H12Y16587   4.904   2.533   4.575
  150SAPE  C31316588   4.935   2.739   4.524
  150SAPE  H13X16589   5.046   2.747   4.524
  150SAPE  H13Y16590   4.900   2.840   4.554
  150SAPE  C31416591   4.891   2.712   4.377
  150SAPE  H14X16592   4.781   2.697   4.386
  150SAPE  H14Y16593   4.938   2.615   4.351
  150SAPE  C31516594   4.919   2.833   4.282
  150SAPE  H15X16595   4.858   2.917   4.322
  150SAPE  H15Y16596   4.876   2.810   4.182
  150SAPE  C31616597   5.067   2.880   4.274
  150SAPE  H16X16598   5.092   2.920   4.375
  150SAPE  H16Y16599   5.066   2.965   4.202
  150SAPE  C31716600   5.172   2.780   4.239
  150SAPE  H17X16601   5.167   2.759   4.130
  150SAPE  H17Y16602   5.159   2.684   4.294
  150SAPE  C31816603   5.314   2.816   4.272
  150SAPE  H18X16604   5.384   2.735   4.243
  150SAPE  H18Y16605   5.328   2.839   4.380
  150SAPE  H18Z16606   5.346   2.911   4.223
  151SAPE     N16607   4.827   6.528   6.657
  151SAPE   HN116608   4.838   6.470   6.571
  151SAPE   HN216609   4.885   6.614   6.644
  151SAPE   HN316610   4.868   6.471   6.734
  151SAPE   C1216611   4.688   6.558   6.669
  151SAPE  H12A16612   4.684   6.652   6.729
  151SAPE  H12B16613   4.640   6.481   6.733
  151SAPE   C1116614   4.603   6.583   6.535
  151SAPE  H11A16615   4.495   6.578   6.557
  151SAPE  H11B16616   4.619   6.495   6.469
  151SAPE     P16617   4.761   6.746   6.393
  151SAPE   O1316618   4.733   0.033   6.317
  151SAPE   O1416619   4.871   6.755   6.489
  151SAPE   O1216620   4.626   6.709   6.466
  151SAPE   O1116621   4.784   6.627   6.295
  151SAPE    C116622   4.769   6.647   6.159
  151SAPE    HA16623   4.669   6.694   6.143
  151SAPE    HB16624   4.856   6.708   6.127
  151SAPE    C216625   4.773   6.508   6.091
  151SAPE    HS16626   4.860   6.456   6.138
  151SAPE   O2116627   4.781   6.521   5.950
  151SAPE   C2116628   4.901   6.542   5.899
  151SAPE   O2216629   5.008   6.538   5.959
  151SAPE   C2216630   4.884   6.563   5.752
  151SAPE   H2R16631   4.863   6.468   5.700
  151SAPE   H2S16632   4.791   6.621   5.737
  151SAPE    C316633   4.638   6.430   6.139
  151SAPE    HX16634   4.546   6.492   6.126
  151SAPE    HY16635   4.643   6.427   6.250
  151SAPE   O3116636   4.620   6.299   6.083
  151SAPE   C3116637   4.701   6.207   6.139
  151SAPE   O3216638   4.785   6.231   6.225
  151SAPE   C3216639   4.687   6.068   6.076
  151SAPE   H2X16640   4.586   6.030   6.102
  151SAPE   H2Y16641   4.767   6.009   6.127
  151SAPE   C2316642   4.998   6.638   5.686
  151SAPE   H3R16643   4.986   6.618   5.578
  151SAPE   H3S16644   5.097   6.595   5.711
  151SAPE   C2416645   4.992   6.793   5.690
  151SAPE   H4R16646   4.902   0.005   5.647
  151SAPE   H4S16647   5.067   6.832   5.619
  151SAPE   C2516648   5.016   6.836   5.829
  151SAPE   H5R16649   5.115   6.803   5.864
  151SAPE   C2616650   4.925   0.058   5.909
  151SAPE   H6R16651   4.964   0.079   6.010
  151SAPE   C2716652   4.779   0.103   5.882
  151SAPE   H7R16653   4.716   0.027   5.933
  151SAPE   H7S16654   4.761   0.085   5.774
  151SAPE   C2816655   4.723   0.223   5.938
  151SAPE   H8R16656   4.772   0.268   6.026
  151SAPE   C2916657   4.618   0.292   5.885
  151SAPE   H9R16658   4.582   0.380   5.940
  151SAPE  C21016659   4.541   0.239   5.765
  151SAPE  H10R16660   4.568   0.135   5.737
  151SAPE  H10S16661   4.555   0.300   5.674
  151SAPE  C21116662   4.389   0.251   5.797
  151SAPE  H11R16663   4.357   0.235   5.901
  151SAPE  C21216664   4.290   0.270   5.706
  151SAPE  H12R16665   4.187   0.276   5.743
  151SAPE  C21316666   4.286   0.272   5.556
  151SAPE  H13R16667   4.348   0.359   5.527
  151SAPE  H13S16668   4.188   0.310   5.518
  151SAPE  C21416669   4.337   0.154   5.480
  151SAPE  H14R16670   4.414   0.098   5.536
  151SAPE  C21516671   4.309   0.129   5.345
  151SAPE  H15R16672   4.342   0.032   5.303
  151SAPE  C21616673   4.230   0.209   5.244
  151SAPE  H16R16674   4.162   0.274   5.304
  151SAPE  H16S16675   4.168   0.144   5.178
  151SAPE  C21716676   4.320   0.307   5.164
  151SAPE  H17R16677   4.402   0.253   5.112
  151SAPE  H17S16678   4.361   0.382   5.234
  151SAPE  C21816679   4.242   0.385   5.050
  151SAPE  H18R16680   4.311   0.458   5.003
  151SAPE  H18S16681   4.154   0.428   5.102
  151SAPE  C21916682   4.196   0.292   4.939
  151SAPE  H19R16683   4.091   0.258   4.952
  151SAPE  H19S16684   4.259   0.201   4.945
  151SAPE  C22016685   4.207   0.346   4.788
  151SAPE  H20R16686   4.152   0.283   4.715
  151SAPE  H20S16687   4.314   0.348   4.759
  151SAPE  H20T16688   4.163   0.448   4.791
  151SAPE   C3316689   4.715   6.054   5.923
  151SAPE   H3X16690   4.666   6.137   5.868
  151SAPE   H3Y16691   4.652   5.968   5.892
  151SAPE   C3416692   4.863   6.035   5.893
  151SAPE   H4X16693   4.912   5.964   5.963
  151SAPE   H4Y16694   4.917   6.132   5.904
  151SAPE   C3516695   4.899   6.002   5.750
  151SAPE   H5X16696   4.828   5.931   5.702
  151SAPE   H5Y16697   4.998   5.952   5.752
  151SAPE   C3616698   4.906   6.123   5.652
  151SAPE   H6X16699   4.976   6.204   5.682
  151SAPE   H6Y16700   4.804   6.166   5.656
  151SAPE   C3716701   4.923   6.094   5.504
  151SAPE   H7X16702   4.849   6.021   5.465
  151SAPE   H7Y16703   5.021   6.044   5.488
  151SAPE   C3816704   4.936   6.220   5.416
  151SAPE   H8X16705   4.858   6.288   5.457
  151SAPE   H8Y16706   4.912   6.193   5.311
  151SAPE   C3916707   5.072   6.299   5.419
  151SAPE   H9X16708   5.151   6.228   5.385
  151SAPE   H9Y16709   5.103   6.317   5.524
  151SAPE  C31016710   5.075   6.436   5.344
  151SAPE  H10X16711   5.170   6.486   5.374
  151SAPE  H10Y16712   4.989   6.497   5.378
  151SAPE  C31116713   5.069   6.439   5.188
  151SAPE  H11X16714   5.136   6.358   5.151
  151SAPE  H11Y16715   5.116   6.532   5.149
  151SAPE  C31216716   4.941   6.408   5.118
  151SAPE  H12X16717   4.860   6.481   5.141
  151SAPE  H12Y16718   4.897   6.307   5.122
  151SAPE  C31316719   4.955   6.418   4.963
  151SAPE  H13X16720   5.022   6.334   4.935
  151SAPE  H13Y16721   5.003   6.516   4.941
  151SAPE  C31416722   4.815   6.407   4.891
  151SAPE  H14X16723   4.775   6.510   4.903
  151SAPE  H14Y16724   4.748   6.331   4.937
  151SAPE  C31516725   4.829   6.371   4.741
  151SAPE  H15X16726   4.905   6.442   4.704
  151SAPE  H15Y16727   4.731   6.396   4.695
  151SAPE  C31616728   4.869   6.229   4.705
  151SAPE  H16X16729   4.805   6.150   4.750
  151SAPE  H16Y16730   4.970   6.202   4.741
  151SAPE  C31716731   4.878   6.202   4.561
  151SAPE  H17X16732   4.936   6.283   4.511
  151SAPE  H17Y16733   4.777   6.212   4.515
  151SAPE  C31816734   4.937   6.064   4.520
  151SAPE  H18X16735   4.870   5.978   4.540
  151SAPE  H18Y16736   5.043   6.050   4.549
  151SAPE  H18Z16737   4.947   6.062   4.410
  152SAPE     N16738   0.392   1.603   6.840
  152SAPE   HN116739   0.430   1.630   6.933
  152SAPE   HN216740   0.331   1.519   6.842
  152SAPE   HN316741   0.473   1.578   6.779
  152SAPE   C1216742   0.318   1.729   6.795
  152SAPE  H12A16743   0.386   1.810   6.829
  152SAPE  H12B16744   0.224   1.723   6.854
  152SAPE   C1116745   0.299   1.752   6.646
  152SAPE  H11A16746   0.239   1.671   6.599
  152SAPE  H11B16747   0.399   1.758   6.600
  152SAPE     P16748   0.092   1.898   6.646
  152SAPE   O1316749   0.040   1.778   6.713
  152SAPE   O1416750   0.068   2.025   6.717
  152SAPE   O1216751   0.247   1.887   6.627
  152SAPE   O1116752   0.032   1.921   6.502
  152SAPE    C116753   0.109   1.896   6.383
  152SAPE    HA16754   0.208   1.946   6.382
  152SAPE    HB16755   0.130   1.787   6.380
  152SAPE    C216756   0.026   1.929   6.259
  152SAPE    HS16757   6.760   1.939   6.296
  152SAPE   O2116758   0.030   1.813   6.169
  152SAPE   C2116759   6.778   1.715   6.174
  152SAPE   O2216760   6.688   1.705   6.256
  152SAPE   C2216761   6.811   1.609   6.076
  152SAPE   H2R16762   0.070   1.570   6.114
  152SAPE   H2S16763   6.728   1.534   6.078
  152SAPE    C316764   0.088   2.045   6.185
  152SAPE    HX16765   0.196   2.028   6.167
  152SAPE    HY16766   0.097   2.142   6.237
  152SAPE   O3116767   0.036   2.073   6.052
  152SAPE   C3116768   6.744   2.121   6.052
  152SAPE   O3216769   6.676   2.130   6.152
  152SAPE   C3216770   6.695   2.151   5.912
  152SAPE   H2X16771   6.721   2.254   5.878
  152SAPE   H2Y16772   6.586   2.134   5.904
  152SAPE   C2316773   0.002   1.658   5.934
  152SAPE   H3R16774   0.084   1.733   5.932
  152SAPE   H3S16775   6.752   1.710   5.892
  152SAPE   C2416776   0.037   1.554   5.825
  152SAPE   H4R16777   6.796   1.476   5.821
  152SAPE   H4S16778   0.133   1.506   5.855
  152SAPE   C2516779   0.045   1.615   5.689
  152SAPE   H5R16780   0.138   1.670   5.665
  152SAPE   C2616781   6.797   1.614   5.585
  152SAPE   H6R16782   6.820   1.683   5.502
  152SAPE   C2716783   6.664   1.538   5.570
  152SAPE   H7R16784   6.585   1.611   5.541
  152SAPE   H7S16785   6.633   1.517   5.674
  152SAPE   C2816786   6.663   1.417   5.478
  152SAPE   H8R16787   6.758   1.361   5.470
  152SAPE   C2916788   6.552   1.368   5.417
  152SAPE   H9R16789   6.572   1.281   5.353
  152SAPE  C21016790   6.410   1.416   5.426
  152SAPE  H10R16791   6.384   1.480   5.339
  152SAPE  H10S16792   6.410   1.470   5.523
  152SAPE  C21116793   6.313   1.297   5.435
  152SAPE  H11R16794   6.318   1.234   5.524
  152SAPE  C21216795   6.219   1.255   5.346
  152SAPE  H12R16796   6.183   1.153   5.361
  152SAPE  C21316797   6.182   1.312   5.204
  152SAPE  H13R16798   6.120   1.404   5.211
  152SAPE  H13S16799   6.122   1.237   5.147
  152SAPE  C21416800   6.299   1.334   5.109
  152SAPE  H14R16801   6.365   1.248   5.091
  152SAPE  C21516802   6.321   1.449   5.039
  152SAPE  H15R16803   6.410   1.456   4.974
  152SAPE  C21616804   6.245   1.578   5.049
  152SAPE  H16R16805   6.260   1.621   5.150
  152SAPE  H16S16806   6.138   1.554   5.027
  152SAPE  C21716807   6.293   1.678   4.940
  152SAPE  H17R16808   6.290   1.624   4.843
  152SAPE  H17S16809   6.400   1.702   4.957
  152SAPE  C21816810   6.230   1.815   4.951
  152SAPE  H18R16811   6.246   1.866   4.853
  152SAPE  H18S16812   6.271   1.879   5.032
  152SAPE  C21916813   6.078   1.811   4.971
  152SAPE  H19R16814   6.058   1.737   5.051
  152SAPE  H19S16815   6.015   1.791   4.881
  152SAPE  C22016816   6.014   1.948   5.017
  152SAPE  H20R16817   6.010   2.031   4.943
  152SAPE  H20S16818   6.075   1.983   5.103
  152SAPE  H20T16819   5.910   1.924   5.050
  152SAPE   C3316820   6.764   2.050   5.814
  152SAPE   H3X16821   6.740   1.944   5.835
  152SAPE   H3Y16822   0.036   2.062   5.811
  152SAPE   C3416823   6.716   2.078   5.668
  152SAPE   H4X16824   6.781   2.159   5.628
  152SAPE   H4Y16825   6.613   2.121   5.673
  152SAPE   C3516826   6.712   1.962   5.574
  152SAPE   H5X16827   6.652   1.880   5.619
  152SAPE   H5Y16828   6.813   1.922   5.550
  152SAPE   C3616829   6.663   2.023   5.442
  152SAPE   H6X16830   6.728   2.108   5.414
  152SAPE   H6Y16831   6.558   2.059   5.446
  152SAPE   C3716832   6.655   1.915   5.334
  152SAPE   H7X16833   6.592   1.960   5.254
  152SAPE   H7Y16834   6.600   1.827   5.373
  152SAPE   C3816835   6.786   1.876   5.265
  152SAPE   H8X16836   0.022   1.847   5.342
  152SAPE   H8Y16837   0.002   1.960   5.217
  152SAPE   C3916838   6.764   1.765   5.163
  152SAPE   H9X16839   6.655   1.742   5.167
  152SAPE   H9Y16840   6.825   1.674   5.185
  152SAPE  C31016841   6.796   1.805   5.015
  152SAPE  H10X16842   0.065   1.834   5.010
  152SAPE  H10Y16843   6.745   1.901   4.990
  152SAPE  C31116844   6.757   1.707   4.902
  152SAPE  H11X16845   6.655   1.668   4.924
  152SAPE  H11Y16846   6.810   1.609   4.904
  152SAPE  C31216847   6.750   1.778   4.763
  152SAPE  H12X16848   0.008   1.752   4.714
  152SAPE  H12Y16849   6.747   1.888   4.773
  152SAPE  C31316850   6.631   1.733   4.680
  152SAPE  H13X16851   6.545   1.759   4.746
  152SAPE  H13Y16852   6.624   1.624   4.662
  152SAPE  C31416853   6.617   1.803   4.542
  152SAPE  H14X16854   6.639   1.912   4.544
  152SAPE  H14Y16855   6.517   1.785   4.497
  152SAPE  C31516856   6.712   1.735   4.446
  152SAPE  H15X16857   6.675   1.636   4.410
  152SAPE  H15Y16858   6.813   1.736   4.493
  152SAPE  C31616859   6.726   1.812   4.310
  152SAPE  H16X16860   6.782   1.904   4.338
  152SAPE  H16Y16861   6.625   1.845   4.275
  152SAPE  C31716862   6.797   1.739   4.195
  152SAPE  H17X16863   6.734   1.655   4.158
  152SAPE  H17Y16864   0.060   1.715   4.234
  152SAPE  C31816865   6.807   1.835   4.082
  152SAPE  H18X16866   0.050   1.911   4.092
  152SAPE  H18Y16867   6.707   1.880   4.067
  152SAPE  H18Z16868   0.002   1.781   3.991
  153SAPE     N16869   6.719   1.557   6.665
  153SAPE   HN116870   6.665   1.564   6.754
  153SAPE   HN216871   6.763   1.463   6.666
  153SAPE   HN316872   6.784   1.638   6.659
  153SAPE   C1216873   6.620   1.569   6.547
  153SAPE  H12A16874   6.664   1.537   6.451
  153SAPE  H12B16875   6.589   1.676   6.548
  153SAPE   C1116876   6.490   1.472   6.566
  153SAPE  H11A16877   6.488   1.399   6.482
  153SAPE  H11B16878   6.399   1.532   6.546
  153SAPE     P16879   6.374   1.415   6.804
  153SAPE   O1316880   6.418   1.344   6.927
  153SAPE   O1416881   6.338   1.555   6.831
  153SAPE   O1216882   6.487   1.405   6.691
  153SAPE   O1116883   6.253   1.345   6.739
  153SAPE    C116884   6.255   1.208   6.697
  153SAPE    HA16885   6.346   1.150   6.723
  153SAPE    HB16886   6.172   1.163   6.754
  153SAPE    C216887   6.241   1.185   6.549
  153SAPE    HS16888   6.328   1.225   6.492
  153SAPE   O2116889   6.117   1.243   6.509
  153SAPE   C2116890   6.117   1.351   6.446
  153SAPE   O2216891   6.214   1.408   6.398
  153SAPE   C2216892   5.971   1.402   6.427
  153SAPE   H2R16893   5.926   1.325   6.361
  153SAPE   H2S16894   5.916   1.402   6.523
  153SAPE    C316895   6.244   1.033   6.509
  153SAPE    HX16896   6.187   0.982   6.589
  153SAPE    HY16897   6.343   0.985   6.516
  153SAPE   O3116898   6.171   1.002   6.386
  153SAPE   C3116899   6.252   0.961   6.285
  153SAPE   O3216900   6.369   0.975   6.285
  153SAPE   C3216901   6.187   0.886   6.178
  153SAPE   H2X16902   6.240   0.905   6.082
  153SAPE   H2Y16903   6.084   0.925   6.163
  153SAPE   C2316904   5.956   1.537   6.358
  153SAPE   H3R16905   5.973   1.513   6.250
  153SAPE   H3S16906   6.036   1.605   6.392
  153SAPE   C2416907   5.819   1.602   6.357
  153SAPE   H4R16908   5.834   1.710   6.335
  153SAPE   H4S16909   5.779   1.593   6.460
  153SAPE   C2516910   5.728   1.520   6.272
  153SAPE   H5R16911   5.680   1.437   6.326
  153SAPE   C2616912   5.690   1.554   6.154
  153SAPE   H6R16913   5.626   1.490   6.092
  153SAPE   C2716914   5.739   1.679   6.080
  153SAPE   H7R16915   5.742   1.660   5.971
  153SAPE   H7S16916   5.842   1.705   6.113
  153SAPE   C2816917   5.655   1.802   6.114
  153SAPE   H8R16918   5.645   1.803   6.224
  153SAPE   C2916919   5.608   1.900   6.038
  153SAPE   H9R16920   5.537   1.974   6.077
  153SAPE  C21016921   5.636   1.910   5.891
  153SAPE  H10R16922   5.654   1.809   5.847
  153SAPE  H10S16923   5.734   1.963   5.891
  153SAPE  C21116924   5.526   1.979   5.815
  153SAPE  H11R16925   5.426   1.958   5.855
  153SAPE  C21216926   5.541   2.047   5.700
  153SAPE  H12R16927   5.453   2.087   5.648
  153SAPE  C21316928   5.671   2.075   5.631
  153SAPE  H13R16929   5.696   1.998   5.554
  153SAPE  H13S16930   5.749   2.054   5.707
  153SAPE  C21416931   5.713   2.210   5.581
  153SAPE  H14R16932   5.737   2.291   5.651
  153SAPE  C21516933   5.687   2.249   5.454
  153SAPE  H15R16934   5.723   2.347   5.420
  153SAPE  C21616935   5.619   2.158   5.354
  153SAPE  H16R16936   5.530   2.209   5.311
  153SAPE  H16S16937   5.579   2.063   5.398
  153SAPE  C21716938   5.711   2.131   5.234
  153SAPE  H17R16939   5.650   2.079   5.157
  153SAPE  H17S16940   5.798   2.066   5.258
  153SAPE  C21816941   5.770   2.259   5.162
  153SAPE  H18R16942   5.839   2.214   5.088
  153SAPE  H18S16943   5.818   2.328   5.234
  153SAPE  C21916944   5.670   2.336   5.077
  153SAPE  H19R16945   5.588   2.389   5.129
  153SAPE  H19S16946   5.627   2.257   5.011
  153SAPE  C22016947   5.741   2.437   4.989
  153SAPE  H20R16948   5.790   2.377   4.909
  153SAPE  H20S16949   5.820   2.485   5.051
  153SAPE  H20T16950   5.689   2.526   4.949
  153SAPE   C3316951   6.170   0.735   6.214
  153SAPE   H3X16952   6.083   0.710   6.278
  153SAPE   H3Y16953   6.269   0.705   6.255
  153SAPE   C3416954   6.174   0.649   6.086
  153SAPE   H4X16955   6.221   0.551   6.108
  153SAPE   H4Y16956   6.245   0.700   6.017
  153SAPE   C3516957   6.039   0.644   6.007
  153SAPE   H5X16958   6.020   0.750   5.983
  153SAPE   H5Y16959   5.949   0.606   6.061
  153SAPE   C3616960   6.044   0.570   5.864
  153SAPE   H6X16961   6.064   0.463   5.885
  153SAPE   H6Y16962   6.135   0.601   5.808
  153SAPE   C3716963   5.925   0.597   5.778
  153SAPE   H7X16964   5.945   0.562   5.675
  153SAPE   H7Y16965   5.910   0.707   5.776
  153SAPE   C3816966   5.798   0.536   5.833
  153SAPE   H8X16967   5.781   0.570   5.937
  153SAPE   H8Y16968   5.815   0.426   5.837
  153SAPE   C3916969   5.681   0.576   5.747
  153SAPE   H9X16970   5.663   0.684   5.764
  153SAPE   H9Y16971   5.591   0.521   5.782
  153SAPE  C31016972   5.699   0.558   5.593
  153SAPE  H10X16973   5.714   0.450   5.573
  153SAPE  H10Y16974   5.779   0.618   5.544
  153SAPE  C31116975   5.571   0.609   5.524
  153SAPE  H11X16976   5.534   0.704   5.568
  153SAPE  H11Y16977   5.496   0.529   5.536
  153SAPE  C31216978   5.597   0.639   5.373
  153SAPE  H12X16979   5.662   0.562   5.326
  153SAPE  H12Y16980   5.639   0.741   5.361
  153SAPE  C31316981   5.462   0.630   5.297
  153SAPE  H13X16982   5.400   0.718   5.324
  153SAPE  H13Y16983   5.403   0.545   5.336
  153SAPE  C31416984   5.466   0.625   5.139
  153SAPE  H14X16985   5.508   0.528   5.103
  153SAPE  H14Y16986   5.543   0.702   5.117
  153SAPE  C31516987   5.334   0.644   5.065
  153SAPE  H15X16988   5.351   0.638   4.955
  153SAPE  H15Y16989   5.291   0.744   5.086
  153SAPE  C31616990   5.226   0.544   5.114
  153SAPE  H16X16991   5.219   0.538   5.225
  153SAPE  H16Y16992   5.245   0.440   5.080
  153SAPE  C31716993   5.084   0.573   5.069
  153SAPE  H17X16994   5.084   0.558   4.959
  153SAPE  H17Y16995   5.063   0.682   5.073
  153SAPE  C31816996   4.985   0.487   5.136
  153SAPE  H18X16997   4.992   0.509   5.244
  153SAPE  H18Y16998   4.996   0.380   5.110
  153SAPE  H18Z16999   4.886   0.522   5.098
  154SAPE     N17000   4.240   0.983   6.549
  154SAPE   HN117001   4.171   0.970   6.627
  154SAPE   HN217002   4.329   1.005   6.597
  154SAPE   HN317003   4.209   1.054   6.480
  154SAPE   C1217004   4.258   0.855   6.466
  154SAPE  H12A17005   4.221   0.773   6.531
  154SAPE  H12B17006   4.366   0.836   6.445
  154SAPE   C1117007   4.171   0.875   6.336
  154SAPE  H11A17008   4.190   0.791   6.266
  154SAPE  H11B17009   4.209   0.961   6.276
  154SAPE     P17010   3.923   0.780   6.368
  154SAPE   O1317011   3.989   0.656   6.428
  154SAPE   O1417012   3.807   0.830   6.448
  154SAPE   O1217013   4.034   0.896   6.367
  154SAPE   O1117014   3.881   0.755   6.218
  154SAPE    C117015   3.803   0.865   6.157
  154SAPE    HA17016   3.811   0.961   6.212
  154SAPE    HB17017   3.835   0.886   6.052
  154SAPE    C217018   3.647   0.829   6.155
  154SAPE    HS17019   3.615   0.799   6.257
  154SAPE   O2117020   3.624   0.728   6.057
  154SAPE   C2117021   3.625   0.599   6.105
  154SAPE   O2217022   3.624   0.561   6.219
  154SAPE   C2217023   3.653   0.508   5.983
  154SAPE   H2R17024   3.561   0.475   5.931
  154SAPE   H2S17025   3.710   0.568   5.909
  154SAPE    C317026   3.563   0.959   6.125
  154SAPE    HX17027   3.586   1.038   6.199
  154SAPE    HY17028   3.458   0.928   6.139
  154SAPE   O3117029   3.587   1.003   5.988
  154SAPE   C3117030   3.476   1.023   5.913
  154SAPE   O3217031   3.363   1.031   5.958
  154SAPE   C3217032   3.522   1.046   5.762
  154SAPE   H2X17033   3.608   0.977   5.747
  154SAPE   H2Y17034   3.550   1.150   5.736
  154SAPE   C2317035   3.749   0.390   6.021
  154SAPE   H3R17036   3.702   0.328   6.101
  154SAPE   H3S17037   3.841   0.420   6.076
  154SAPE   C2417038   3.789   0.308   5.898
  154SAPE   H4R17039   3.840   0.383   5.833
  154SAPE   H4S17040   3.690   0.287   5.852
  154SAPE   C2517041   3.867   0.180   5.905
  154SAPE   H5R17042   3.901   0.151   6.005
  154SAPE   C2617043   3.884   0.103   5.796
  154SAPE   H6R17044   3.940   0.009   5.811
  154SAPE   C2717045   3.837   0.128   5.656
  154SAPE   H7R17046   3.811   0.235   5.636
  154SAPE   H7S17047   3.741   0.075   5.634
  154SAPE   C2817048   3.932   0.084   5.545
  154SAPE   H8R17049   4.034   0.058   5.575
  154SAPE   C2917050   3.907   0.079   5.408
  154SAPE   H9R17051   3.989   0.050   5.341
  154SAPE  C21017052   3.784   0.127   5.343
  154SAPE  H10R17053   3.742   0.213   5.399
  154SAPE  H10S17054   3.700   0.058   5.368
  154SAPE  C21117055   3.794   0.166   5.197
  154SAPE  H11R17056   3.876   0.238   5.177
  154SAPE  C21217057   3.718   0.124   5.089
  154SAPE  H12R17058   3.734   0.171   4.990
  154SAPE  C21317059   3.578   0.047   5.091
  154SAPE  H13R17060   3.492   0.114   5.072
  154SAPE  H13S17061   3.563   0.001   5.191
  154SAPE  C21417062   3.585   6.775   4.989
  154SAPE  H14R17063   3.632   6.683   5.027
  154SAPE  C21517064   3.533   6.765   4.861
  154SAPE  H15R17065   3.558   6.672   4.808
  154SAPE  C21617066   3.442   0.032   4.794
  154SAPE  H16R17067   3.461   0.139   4.818
  154SAPE  H16S17068   3.337   0.016   4.826
  154SAPE  C21717069   3.451   0.020   4.637
  154SAPE  H17R17070   3.390   6.775   4.596
  154SAPE  H17S17071   3.551   6.822   4.606
  154SAPE  C21817072   3.399   0.144   4.565
  154SAPE  H18R17073   3.479   0.221   4.558
  154SAPE  H18S17074   3.323   0.197   4.625
  154SAPE  C21917075   3.345   0.121   4.426
  154SAPE  H19R17076   3.295   0.022   4.417
  154SAPE  H19S17077   3.427   0.105   4.353
  154SAPE  C22017078   3.257   0.233   4.372
  154SAPE  H20R17079   3.182   0.245   4.454
  154SAPE  H20S17080   3.203   0.195   4.283
  154SAPE  H20T17081   3.314   0.328   4.365
  154SAPE   C3317082   3.396   1.009   5.678
  154SAPE   H3X17083   3.314   1.081   5.698
  154SAPE   H3Y17084   3.361   0.905   5.697
  154SAPE   C3417085   3.434   1.032   5.526
  154SAPE   H4X17086   3.502   1.117   5.506
  154SAPE   H4Y17087   3.341   1.065   5.474
  154SAPE   C3517088   3.495   0.896   5.464
  154SAPE   H5X17089   3.443   0.809   5.511
  154SAPE   H5Y17090   3.598   0.910   5.503
  154SAPE   C3617091   3.505   0.892   5.310
  154SAPE   H6X17092   3.409   0.859   5.265
  154SAPE   H6Y17093   3.567   0.807   5.275
  154SAPE   C3717094   3.557   1.024   5.252
  154SAPE   H7X17095   3.658   1.043   5.295
  154SAPE   H7Y17096   3.493   1.114   5.258
  154SAPE   C3817097   3.597   1.023   5.105
  154SAPE   H8X17098   3.680   0.950   5.093
  154SAPE   H8Y17099   3.638   1.124   5.082
  154SAPE   C3917100   3.470   0.989   5.016
  154SAPE   H9X17101   3.400   1.063   5.062
  154SAPE   H9Y17102   3.436   0.884   5.024
  154SAPE  C31017103   3.476   1.009   4.867
  154SAPE  H10X17104   3.389   0.970   4.810
  154SAPE  H10Y17105   3.570   0.969   4.825
  154SAPE  C31117106   3.480   1.157   4.825
  154SAPE  H11X17107   3.573   1.205   4.861
  154SAPE  H11Y17108   3.395   1.215   4.867
  154SAPE  C31217109   3.450   1.189   4.674
  154SAPE  H12X17110   3.437   1.299   4.660
  154SAPE  H12Y17111   3.351   1.142   4.658
  154SAPE  C31317112   3.547   1.129   4.572
  154SAPE  H13X17113   3.532   1.019   4.583
  154SAPE  H13Y17114   3.656   1.150   4.563
  154SAPE  C31417115   3.499   1.167   4.428
  154SAPE  H14X17116   3.485   1.277   4.419
  154SAPE  H14Y17117   3.399   1.120   4.416
  154SAPE  C31517118   3.577   1.121   4.299
  154SAPE  H15X17119   3.677   1.165   4.314
  154SAPE  H15Y17120   3.520   1.177   4.221
  154SAPE  C31617121   3.566   0.968   4.283
  154SAPE  H16X17122   3.456   0.952   4.275
  154SAPE  H16Y17123   3.596   0.919   4.378
  154SAPE  C31717124   3.648   0.902   4.169
  154SAPE  H17X17125   3.630   0.793   4.154
  154SAPE  H17Y17126   3.757   0.918   4.186
  154SAPE  C31817127   3.611   0.969   4.037
  154SAPE  H18X17128   3.638   0.906   3.949
  154SAPE  H18Y17129   3.647   1.069   4.007
  154SAPE  H18Z17130   3.501   0.968   4.022
  155SAPE     N17131   6.171   5.739   6.579
  155SAPE   HN117132   6.170   5.658   6.645
  155SAPE   HN217133   6.235   5.816   6.608
  155SAPE   HN317134   6.074   5.778   6.574
  155SAPE   C1217135   6.210   5.714   6.438
  155SAPE  H12A17136   6.142   5.632   6.406
  155SAPE  H12B17137   6.317   5.684   6.432
  155SAPE   C1117138   6.205   5.833   6.349
  155SAPE  H11A17139   6.212   5.797   6.244
  155SAPE  H11B17140   6.287   5.906   6.365
  155SAPE     P17141   5.990   5.973   6.275
  155SAPE   O1317142   5.852   5.981   6.331
  155SAPE   O1417143   6.052   6.103   6.246
  155SAPE   O1217144   6.090   5.910   6.376
  155SAPE   O1117145   5.997   5.877   6.151
  155SAPE    C117146   5.973   5.734   6.160
  155SAPE    HA17147   6.064   5.679   6.126
  155SAPE    HB17148   5.961   5.702   6.265
  155SAPE    C217149   5.847   5.691   6.074
  155SAPE    HS17150   5.854   5.584   6.046
  155SAPE   O2117151   5.834   5.773   5.959
  155SAPE   C2117152   5.926   5.750   5.859
  155SAPE   O2217153   6.010   5.662   5.865
  155SAPE   C2217154   5.888   5.838   5.744
  155SAPE   H2R17155   5.778   5.852   5.750
  155SAPE   H2S17156   5.937   5.937   5.758
  155SAPE    C317157   5.711   5.692   6.162
  155SAPE    HX17158   5.681   5.798   6.175
  155SAPE    HY17159   5.739   5.660   6.265
  155SAPE   O3117160   5.599   5.617   6.099
  155SAPE   C3117161   5.604   5.490   6.124
  155SAPE   O3217162   5.683   5.424   6.189
  155SAPE   C3217163   5.500   5.428   6.037
  155SAPE   H2X17164   5.423   5.504   6.010
  155SAPE   H2Y17165   5.443   5.361   6.104
  155SAPE   C2317166   5.943   5.770   5.610
  155SAPE   H3R17167   5.891   5.674   5.590
  155SAPE   H3S17168   6.053   5.755   5.613
  155SAPE   C2417169   5.920   5.865   5.487
  155SAPE   H4R17170   5.988   5.834   5.405
  155SAPE   H4S17171   5.955   5.967   5.512
  155SAPE   C2517172   5.775   5.852   5.437
  155SAPE   H5R17173   5.703   5.863   5.519
  155SAPE   C2617174   5.721   5.834   5.316
  155SAPE   H6R17175   5.612   5.826   5.323
  155SAPE   C2717176   5.803   5.816   5.191
  155SAPE   H7R17177   5.906   5.788   5.221
  155SAPE   H7S17178   5.828   5.907   5.131
  155SAPE   C2817179   5.770   5.706   5.094
  155SAPE   H8R17180   5.805   5.606   5.125
  155SAPE   C2917181   5.694   5.713   4.979
  155SAPE   H9R17182   5.669   5.629   4.914
  155SAPE  C21017183   5.624   5.836   4.934
  155SAPE  H10R17184   5.608   5.911   5.014
  155SAPE  H10S17185   5.520   5.808   4.908
  155SAPE  C21117186   5.699   5.910   4.825
  155SAPE  H11R17187   5.800   5.947   4.846
  155SAPE  C21217188   5.658   5.911   4.699
  155SAPE  H12R17189   5.731   5.956   4.630
  155SAPE  C21317190   5.529   5.873   4.635
  155SAPE  H13R17191   5.502   5.772   4.672
  155SAPE  H13S17192   5.546   5.864   4.526
  155SAPE  C21417193   5.411   5.979   4.646
  155SAPE  H14R17194   5.350   5.967   4.737
  155SAPE  C21517195   5.398   6.090   4.576
  155SAPE  H15R17196   5.317   6.158   4.606
  155SAPE  C21617197   5.486   6.129   4.467
  155SAPE  H16R17198   5.593   6.126   4.496
  155SAPE  H16S17199   5.461   6.236   4.450
  155SAPE  C21717200   5.455   6.065   4.336
  155SAPE  H17R17201   5.347   6.074   4.310
  155SAPE  H17S17202   5.481   5.957   4.334
  155SAPE  C21817203   5.540   6.134   4.221
  155SAPE  H18R17204   5.645   6.110   4.250
  155SAPE  H18S17205   5.512   6.241   4.224
  155SAPE  C21917206   5.507   6.064   4.088
  155SAPE  H19R17207   5.399   6.079   4.064
  155SAPE  H19S17208   5.516   5.953   4.090
  155SAPE  C22017209   5.597   6.115   3.972
  155SAPE  H20R17210   5.546   6.089   3.877
  155SAPE  H20S17211   5.703   6.082   3.978
  155SAPE  H20T17212   5.587   6.226   3.974
  155SAPE   C3317213   5.556   5.345   5.911
  155SAPE   H3X17214   5.476   5.331   5.835
  155SAPE   H3Y17215   5.602   5.251   5.946
  155SAPE   C3417216   5.667   5.428   5.844
  155SAPE   H4X17217   5.757   5.402   5.903
  155SAPE   H4Y17218   5.642   5.536   5.848
  155SAPE   C3517219   5.692   5.401   5.689
  155SAPE   H5X17220   5.698   5.290   5.689
  155SAPE   H5Y17221   5.794   5.438   5.663
  155SAPE   C3617222   5.579   5.443   5.604
  155SAPE   H6X17223   5.586   5.553   5.594
  155SAPE   H6Y17224   5.477   5.421   5.641
  155SAPE   C3717225   5.592   5.391   5.457
  155SAPE   H7X17226   5.576   5.282   5.466
  155SAPE   H7Y17227   5.696   5.410   5.423
  155SAPE   C3817228   5.496   5.434   5.344
  155SAPE   H8X17229   5.479   5.543   5.343
  155SAPE   H8Y17230   5.399   5.381   5.360
  155SAPE   C3917231   5.544   5.398   5.206
  155SAPE   H9X17232   5.559   5.288   5.204
  155SAPE   H9Y17233   5.649   5.431   5.188
  155SAPE  C31017234   5.443   5.444   5.103
  155SAPE  H10X17235   5.421   5.553   5.096
  155SAPE  H10Y17236   5.338   5.412   5.123
  155SAPE  C31117237   5.481   5.422   4.952
  155SAPE  H11X17238   5.592   5.423   4.950
  155SAPE  H11Y17239   5.443   5.503   4.886
  155SAPE  C31217240   5.443   5.285   4.897
  155SAPE  H12X17241   5.339   5.265   4.928
  155SAPE  H12Y17242   5.512   5.213   4.946
  155SAPE  C31317243   5.455   5.283   4.740
  155SAPE  H13X17244   5.555   5.328   4.724
  155SAPE  H13Y17245   5.371   5.343   4.699
  155SAPE  C31417246   5.460   5.140   4.694
  155SAPE  H14X17247   5.361   5.097   4.721
  155SAPE  H14Y17248   5.539   5.086   4.749
  155SAPE  C31517249   5.471   5.127   4.545
  155SAPE  H15X17250   5.570   5.168   4.515
  155SAPE  H15Y17251   5.400   5.196   4.496
  155SAPE  C31617252   5.459   4.988   4.490
  155SAPE  H16X17253   5.453   5.001   4.380
  155SAPE  H16Y17254   5.368   4.934   4.525
  155SAPE  C31717255   5.580   4.899   4.530
  155SAPE  H17X17256   5.609   4.907   4.637
  155SAPE  H17Y17257   5.668   4.944   4.479
  155SAPE  C31817258   5.576   4.752   4.490
  155SAPE  H18X17259   5.477   4.716   4.525
  155SAPE  H18Y17260   5.668   4.706   4.531
  155SAPE  H18Z17261   5.582   4.740   4.379
  156SAPE     N17262   0.904   0.427   6.565
  156SAPE   HN117263   0.847   0.405   6.481
  156SAPE   HN217264   0.987   0.487   6.550
  156SAPE   HN317265   0.925   0.334   6.608
  156SAPE   C1217266   0.804   0.490   6.660
  156SAPE  H12A17267   0.864   0.536   6.742
  156SAPE  H12B17268   0.746   0.407   6.704
  156SAPE   C1117269   0.724   0.604   6.585
  156SAPE  H11A17270   0.670   0.558   6.500
  156SAPE  H11B17271   0.794   0.682   6.546
  156SAPE     P17272   0.540   0.779   6.608
  156SAPE   O1317273   0.434   0.816   6.701
  156SAPE   O1417274   0.630   0.881   6.568
  156SAPE   O1217275   0.624   0.661   6.673
  156SAPE   O1117276   0.481   0.709   6.474
  156SAPE    C117277   0.388   0.599   6.480
  156SAPE    HA17278   0.423   0.539   6.567
  156SAPE    HB17279   0.288   0.642   6.499
  156SAPE    C217280   0.398   0.515   6.350
  156SAPE    HS17281   0.507   0.495   6.342
  156SAPE   O2117282   0.356   0.614   6.250
  156SAPE   C2117283   0.414   0.602   6.137
  156SAPE   O2217284   0.512   0.539   6.106
  156SAPE   C2217285   0.341   0.684   6.031
  156SAPE   H2R17286   0.291   0.608   5.968
  156SAPE   H2S17287   0.279   0.761   6.082
  156SAPE    C317288   0.308   0.396   6.349
  156SAPE    HX17289   0.206   0.439   6.355
  156SAPE    HY17290   0.328   0.355   6.450
  156SAPE   O3117291   0.319   0.306   6.239
  156SAPE   C3117292   0.426   0.230   6.227
  156SAPE   O3217293   0.510   0.226   6.317
  156SAPE   C3217294   0.427   0.163   6.090
  156SAPE   H2X17295   0.331   0.179   6.037
  156SAPE   H2Y17296   0.440   0.054   6.099
  156SAPE   C2317297   0.443   0.758   5.949
  156SAPE   H3R17298   0.512   0.681   5.906
  156SAPE   H3S17299   0.508   0.827   6.007
  156SAPE   C2417300   0.373   0.847   5.838
  156SAPE   H4R17301   0.284   0.887   5.891
  156SAPE   H4S17302   0.327   0.785   5.758
  156SAPE   C2517303   0.466   0.947   5.781
  156SAPE   H5R17304   0.524   1.009   5.851
  156SAPE   C2617305   0.497   0.968   5.658
  156SAPE   H6R17306   0.580   1.035   5.630
  156SAPE   C2717307   0.446   0.894   5.539
  156SAPE   H7R17308   0.375   0.964   5.491
  156SAPE   H7S17309   0.391   0.799   5.557
  156SAPE   C2817310   0.562   0.861   5.447
  156SAPE   H8R17311   0.654   0.823   5.494
  156SAPE   C2917312   0.555   0.859   5.314
  156SAPE   H9R17313   0.647   0.827   5.263
  156SAPE  C21017314   0.441   0.896   5.222
  156SAPE  H10R17315   0.481   0.935   5.126
  156SAPE  H10S17316   0.403   0.987   5.273
  156SAPE  C21117317   0.336   0.780   5.210
  156SAPE  H11R17318   0.309   0.721   5.298
  156SAPE  C21217319   0.299   0.718   5.099
  156SAPE  H12R17320   0.215   0.647   5.103
  156SAPE  C21317321   0.330   0.764   4.964
  156SAPE  H13R17322   0.441   0.769   4.959
  156SAPE  H13S17323   0.287   0.862   4.936
  156SAPE  C21417324   0.283   0.658   4.861
  156SAPE  H14R17325   0.343   0.566   4.849
  156SAPE  C21517326   0.164   0.660   4.802
  156SAPE  H15R17327   0.142   0.570   4.742
  156SAPE  C21617328   0.068   0.777   4.797
  156SAPE  H16R17329   0.090   0.854   4.874
  156SAPE  H16S17330   6.803   0.745   4.822
  156SAPE  C21717331   0.066   0.850   4.655
  156SAPE  H17R17332   0.063   0.781   4.568
  156SAPE  H17S17333   0.159   0.911   4.646
  156SAPE  C21817334   6.779   0.947   4.659
  156SAPE  H18R17335   6.820   1.035   4.605
  156SAPE  H18S17336   6.744   0.977   4.760
  156SAPE  C21917337   6.663   0.894   4.573
  156SAPE  H19R17338   6.580   0.968   4.564
  156SAPE  H19S17339   6.622   0.811   4.635
  156SAPE  C22017340   6.710   0.862   4.436
  156SAPE  H20R17341   6.620   0.859   4.371
  156SAPE  H20S17342   6.760   0.762   4.433
  156SAPE  H20T17343   6.788   0.936   4.408
  156SAPE   C3317344   0.530   0.225   5.988
  156SAPE   H3X17345   0.632   0.220   6.030
  156SAPE   H3Y17346   0.519   0.331   5.958
  156SAPE   C3417347   0.528   0.146   5.862
  156SAPE   H4X17348   0.422   0.134   5.831
  156SAPE   H4Y17349   0.566   0.044   5.881
  156SAPE   C3517350   0.598   0.209   5.743
  156SAPE   H5X17351   0.703   0.237   5.767
  156SAPE   H5Y17352   0.540   0.300   5.716
  156SAPE   C3617353   0.626   0.102   5.630
  156SAPE   H6X17354   0.531   0.066   5.584
  156SAPE   H6Y17355   0.687   0.014   5.662
  156SAPE   C3717356   0.714   0.161   5.522
  156SAPE   H7X17357   0.791   0.227   5.568
  156SAPE   H7Y17358   0.661   0.238   5.462
  156SAPE   C3817359   0.750   0.049   5.433
  156SAPE   H8X17360   0.675   6.806   5.435
  156SAPE   H8Y17361   0.831   6.834   5.488
  156SAPE   C3917362   0.808   0.099   5.302
  156SAPE   H9X17363   0.869   0.018   5.257
  156SAPE   H9Y17364   0.865   0.194   5.301
  156SAPE  C31017365   0.685   0.112   5.201
  156SAPE  H10X17366   0.618   0.191   5.242
  156SAPE  H10Y17367   0.637   0.011   5.200
  156SAPE  C31117368   0.723   0.144   5.054
  156SAPE  H11X17369   0.650   0.091   4.989
  156SAPE  H11Y17370   0.820   0.091   5.041
  156SAPE  C31217371   0.738   0.289   5.003
  156SAPE  H12X17372   0.828   0.345   5.038
  156SAPE  H12Y17373   0.644   0.341   5.032
  156SAPE  C31317374   0.752   0.284   4.844
  156SAPE  H13X17375   0.823   0.201   4.824
  156SAPE  H13Y17376   0.808   0.374   4.811
  156SAPE  C31417377   0.618   0.269   4.766
  156SAPE  H14X17378   0.544   0.342   4.805
  156SAPE  H14Y17379   0.570   0.169   4.776
  156SAPE  C31517380   0.646   0.278   4.616
  156SAPE  H15X17381   0.703   0.192   4.577
  156SAPE  H15Y17382   0.717   0.359   4.587
  156SAPE  C31617383   0.528   0.287   4.522
  156SAPE  H16X17384   0.458   0.202   4.531
  156SAPE  H16Y17385   0.561   0.292   4.416
  156SAPE  C31717386   0.441   0.409   4.557
  156SAPE  H17X17387   0.513   0.489   4.587
  156SAPE  H17Y17388   0.381   0.384   4.647
  156SAPE  C31817389   0.349   0.451   4.445
  156SAPE  H18X17390   0.284   0.537   4.475
  156SAPE  H18Y17391   0.282   0.365   4.425
  156SAPE  H18Z17392   0.393   0.474   4.346
  157SAPE     N17393   0.440   6.036   6.533
  157SAPE   HN117394   0.347   5.989   6.522
  157SAPE   HN217395   0.431   6.120   6.594
  157SAPE   HN317396   0.463   6.075   6.439
  157SAPE   C1217397   0.537   5.935   6.583
  157SAPE  H12A17398   0.537   5.858   6.502
  157SAPE  H12B17399   0.486   5.890   6.671
  157SAPE   C1117400   0.668   6.008   6.613
  157SAPE  H11A17401   0.742   5.931   6.643
  157SAPE  H11B17402   0.656   6.078   6.698
  157SAPE     P17403   0.834   6.190   6.498
  157SAPE   O1317404   0.789   6.305   6.582
  157SAPE   O1417405   0.965   6.126   6.537
  157SAPE   O1217406   0.725   6.087   6.498
  157SAPE   O1117407   0.845   6.236   6.346
  157SAPE    C117408   0.738   6.226   6.253
  157SAPE    HA17409   0.787   6.258   6.159
  157SAPE    HB17410   0.687   6.129   6.236
  157SAPE    C217411   0.621   6.324   6.281
  157SAPE    HS17412   0.577   6.292   6.378
  157SAPE   O2117413   0.527   6.309   6.169
  157SAPE   C2117414   0.449   6.202   6.188
  157SAPE   O2217415   0.456   6.128   6.286
  157SAPE   C2217416   0.363   6.175   6.074
  157SAPE   H2R17417   0.342   6.066   6.077
  157SAPE   H2S17418   0.263   6.223   6.071
  157SAPE    C317419   0.661   6.477   6.289
  157SAPE    HX17420   0.721   6.488   6.382
  157SAPE    HY17421   0.566   6.534   6.298
  157SAPE   O3117422   0.752   6.519   6.180
  157SAPE   C3117423   0.737   6.651   6.133
  157SAPE   O3217424   0.663   6.734   6.177
  157SAPE   C3217425   0.851   6.669   6.032
  157SAPE   H2X17426   0.941   6.610   6.060
  157SAPE   H2Y17427   0.885   6.775   6.042
  157SAPE   C2317428   0.429   6.211   5.933
  157SAPE   H3R17429   0.507   6.133   5.921
  157SAPE   H3S17430   0.481   6.309   5.932
  157SAPE   C2417431   0.328   6.187   5.820
  157SAPE   H4R17432   0.254   6.269   5.833
  157SAPE   H4S17433   0.274   6.093   5.842
  157SAPE   C2517434   0.388   6.197   5.678
  157SAPE   H5R17435   0.447   6.108   5.653
  157SAPE   C2617436   0.360   6.282   5.577
  157SAPE   H6R17437   0.416   6.282   5.482
  157SAPE   C2717438   0.259   6.394   5.580
  157SAPE   H7R17439   0.209   6.409   5.678
  157SAPE   H7S17440   0.167   6.367   5.523
  157SAPE   C2817441   0.294   6.540   5.545
  157SAPE   H8R17442   0.288   6.609   5.631
  157SAPE   C2917443   0.345   6.591   5.431
  157SAPE   H9R17444   0.387   6.693   5.432
  157SAPE  C21017445   0.360   6.515   5.303
  157SAPE  H10R17446   0.415   6.420   5.321
  157SAPE  H10S17447   0.435   6.576   5.246
  157SAPE  C21117448   0.231   6.502   5.225
  157SAPE  H11R17449   0.154   6.438   5.272
  157SAPE  C21217450   0.202   6.549   5.103
  157SAPE  H12R17451   0.105   6.516   5.062
  157SAPE  C21317452   0.308   6.614   5.021
  157SAPE  H13R17453   0.407   6.570   5.046
  157SAPE  H13S17454   0.310   6.723   5.042
  157SAPE  C21417455   0.276   6.598   4.870
  157SAPE  H14R17456   0.191   6.661   4.840
  157SAPE  C21517457   0.331   6.517   4.778
  157SAPE  H15R17458   0.297   6.533   4.675
  157SAPE  C21617459   0.432   6.411   4.809
  157SAPE  H16R17460   0.460   6.420   4.916
  157SAPE  H16S17461   0.522   6.420   4.745
  157SAPE  C21717462   0.375   6.269   4.790
  157SAPE  H17R17463   0.427   6.203   4.863
  157SAPE  H17S17464   0.391   6.231   4.687
  157SAPE  C21817465   0.223   6.235   4.831
  157SAPE  H18R17466   0.155   6.307   4.783
  157SAPE  H18S17467   0.210   6.251   4.941
  157SAPE  C21917468   0.191   6.095   4.791
  157SAPE  H19R17469   0.249   6.019   4.847
  157SAPE  H19S17470   0.202   6.071   4.684
  157SAPE  C22017471   0.043   6.074   4.827
  157SAPE  H20R17472   6.815   6.128   4.756
  157SAPE  H20S17473   0.020   6.115   4.928
  157SAPE  H20T17474   0.014   5.968   4.815
  157SAPE   C3317475   0.807   6.644   5.888
  157SAPE   H3X17476   0.880   6.682   5.813
  157SAPE   H3Y17477   0.714   6.702   5.869
  157SAPE   C3417478   0.786   6.494   5.864
  157SAPE   H4X17479   0.718   6.469   5.948
  157SAPE   H4Y17480   0.877   6.432   5.859
  157SAPE   C3517481   0.713   6.472   5.732
  157SAPE   H5X17482   0.627   6.542   5.736
  157SAPE   H5Y17483   0.671   6.369   5.722
  157SAPE   C3617484   0.795   6.486   5.603
  157SAPE   H6X17485   0.853   6.392   5.590
  157SAPE   H6Y17486   0.863   6.572   5.620
  157SAPE   C3717487   0.698   6.502   5.482
  157SAPE   H7X17488   0.625   6.580   5.512
  157SAPE   H7Y17489   0.639   6.410   5.462
  157SAPE   C3817490   0.790   6.550   5.362
  157SAPE   H8X17491   0.874   6.476   5.357
  157SAPE   H8Y17492   0.824   6.654   5.380
  157SAPE   C3917493   0.721   6.551   5.224
  157SAPE   H9X17494   0.643   6.629   5.220
  157SAPE   H9Y17495   0.678   6.450   5.206
  157SAPE  C31017496   0.818   6.576   5.109
  157SAPE  H10X17497   0.907   6.509   5.105
  157SAPE  H10Y17498   0.855   6.680   5.119
  157SAPE  C31117499   0.748   6.583   4.969
  157SAPE  H11X17500   0.663   6.653   4.985
  157SAPE  H11Y17501   0.701   6.483   4.959
  157SAPE  C31217502   0.822   6.651   4.855
  157SAPE  H12X17503   0.925   6.610   4.853
  157SAPE  H12Y17504   0.816   6.760   4.877
  157SAPE  C31317505   0.757   6.633   4.716
  157SAPE  H13X17506   0.744   6.523   4.708
  157SAPE  H13Y17507   0.825   6.668   4.635
  157SAPE  C31417508   0.624   6.717   4.707
  157SAPE  H14X17509   0.653   6.820   4.737
  157SAPE  H14Y17510   0.537   6.682   4.766
  157SAPE  C31517511   0.571   6.731   4.556
  157SAPE  H15X17512   0.647   6.793   4.504
  157SAPE  H15Y17513   0.470   6.777   4.556
  157SAPE  C31617514   0.560   6.599   4.482
  157SAPE  H16X17515   0.486   6.534   4.533
  157SAPE  H16Y17516   0.655   6.542   4.480
  157SAPE  C31717517   0.527   6.620   4.330
  157SAPE  H17X17518   0.572   6.533   4.277
  157SAPE  H17Y17519   0.585   6.704   4.287
  157SAPE  C31817520   0.382   6.638   4.299
  157SAPE  H18X17521   0.362   6.681   4.199
  157SAPE  H18Y17522   0.337   6.704   4.376
  157SAPE  H18Z17523   0.331   6.540   4.313
  158SAPE     N17524   3.122   4.980   6.856
  158SAPE   HN117525   3.089   4.883   6.837
  158SAPE   HN217526   3.146   5.018   6.762
  158SAPE   HN317527   3.207   4.975   6.915
  158SAPE   C1217528   3.019   5.064   6.929
  158SAPE  H12A17529   3.064   5.163   6.953
  158SAPE  H12B17530   2.992   5.012   7.024
  158SAPE   C1117531   2.892   5.097   6.849
  158SAPE  H11A17532   2.814   5.150   6.907
  158SAPE  H11B17533   2.854   5.003   6.803
  158SAPE     P17534   2.843   5.266   6.656
  158SAPE   O1317535   2.702   5.216   6.657
  158SAPE   O1417536   2.856   5.400   6.698
  158SAPE   O1217537   2.939   5.179   6.741
  158SAPE   O1117538   2.900   5.238   6.513
  158SAPE    C117539   2.815   5.273   6.403
  158SAPE    HA17540   2.729   5.204   6.406
  158SAPE    HB17541   2.782   5.379   6.407
  158SAPE    C217542   2.900   5.262   6.267
  158SAPE    HS17543   2.973   5.346   6.266
  158SAPE   O2117544   2.809   5.255   6.150
  158SAPE   C2117545   2.773   5.369   6.103
  158SAPE   O2217546   2.818   5.478   6.138
  158SAPE   C2217547   2.691   5.349   5.973
  158SAPE   H2R17548   2.774   5.331   5.901
  158SAPE   H2S17549   2.634   5.254   5.978
  158SAPE    C317550   2.981   5.125   6.259
  158SAPE    HX17551   2.900   5.050   6.276
  158SAPE    HY17552   3.049   5.115   6.346
  158SAPE   O3117553   3.034   5.089   6.129
  158SAPE   C3117554   3.134   5.174   6.087
  158SAPE   O3217555   3.184   5.261   6.154
  158SAPE   C3217556   3.172   5.140   5.941
  158SAPE   H2X17557   3.083   5.120   5.878
  158SAPE   H2Y17558   3.243   5.055   5.945
  158SAPE   C2317559   2.606   5.468   5.938
  158SAPE   H3R17560   2.561   5.497   6.035
  158SAPE   H3S17561   2.537   5.461   5.852
  158SAPE   C2417562   2.694   5.580   5.874
  158SAPE   H4R17563   2.679   5.590   5.764
  158SAPE   H4S17564   2.803   5.557   5.878
  158SAPE   C2517565   2.671   5.714   5.945
  158SAPE   H5R17566   2.637   5.708   6.049
  158SAPE   C2617567   2.661   5.830   5.879
  158SAPE   H6R17568   2.641   5.921   5.937
  158SAPE   C2717569   2.699   5.839   5.736
  158SAPE   H7R17570   2.624   5.816   5.657
  158SAPE   H7S17571   2.772   5.758   5.713
  158SAPE   C2817572   2.776   5.968   5.713
  158SAPE   H8R17573   2.885   5.955   5.724
  158SAPE   C2917574   2.727   6.091   5.688
  158SAPE   H9R17575   2.802   6.171   5.691
  158SAPE  C21017576   2.583   6.127   5.666
  158SAPE  H10R17577   2.522   6.034   5.669
  158SAPE  H10S17578   2.567   6.165   5.563
  158SAPE  C21117579   2.525   6.219   5.769
  158SAPE  H11R17580   2.505   6.173   5.866
  158SAPE  C21217581   2.529   6.350   5.758
  158SAPE  H12R17582   2.471   6.411   5.829
  158SAPE  C21317583   2.570   6.438   5.637
  158SAPE  H13R17584   2.669   6.401   5.604
  158SAPE  H13S17585   2.575   6.543   5.671
  158SAPE  C21417586   2.476   6.429   5.521
  158SAPE  H14R17587   2.424   6.332   5.517
  158SAPE  C21517588   2.457   6.523   5.430
  158SAPE  H15R17589   2.410   6.490   5.336
  158SAPE  C21617590   2.510   6.658   5.410
  158SAPE  H16R17591   2.568   6.695   5.498
  158SAPE  H16S17592   2.432   6.737   5.406
  158SAPE  C21717593   2.616   6.666   5.297
  158SAPE  H17R17594   2.695   6.588   5.307
  158SAPE  H17S17595   2.662   6.766   5.283
  158SAPE  C21817596   2.556   6.642   5.160
  158SAPE  H18R17597   2.501   6.547   5.154
  158SAPE  H18S17598   2.640   6.648   5.087
  158SAPE  C21917599   2.457   6.753   5.129
  158SAPE  H19R17600   2.496   0.005   5.181
  158SAPE  H19S17601   2.360   6.734   5.178
  158SAPE  C22017602   2.442   6.789   4.977
  158SAPE  H20R17603   2.364   6.728   4.926
  158SAPE  H20S17604   2.535   6.773   4.920
  158SAPE  H20T17605   2.410   0.056   4.963
  158SAPE   C3317606   3.244   5.269   5.885
  158SAPE   H3X17607   3.333   5.279   5.951
  158SAPE   H3Y17608   3.178   5.357   5.904
  158SAPE   C3417609   3.275   5.257   5.740
  158SAPE   H4X17610   3.310   5.356   5.703
  158SAPE   H4Y17611   3.182   5.236   5.683
  158SAPE   C3517612   3.373   5.149   5.696
  158SAPE   H5X17613   3.333   5.048   5.719
  158SAPE   H5Y17614   3.472   5.161   5.745
  158SAPE   C3617615   3.397   5.156   5.538
  158SAPE   H6X17616   3.474   5.079   5.515
  158SAPE   H6Y17617   3.430   5.259   5.515
  158SAPE   C3717618   3.274   5.109   5.461
  158SAPE   H7X17619   3.185   5.167   5.493
  158SAPE   H7Y17620   3.257   5.006   5.500
  158SAPE   C3817621   3.292   5.106   5.316
  158SAPE   H8X17622   3.363   5.031   5.274
  158SAPE   H8Y17623   3.331   5.208   5.296
  158SAPE   C3917624   3.158   5.081   5.243
  158SAPE   H9X17625   3.087   5.166   5.241
  158SAPE   H9Y17626   3.109   4.988   5.279
  158SAPE  C31017627   3.193   5.050   5.096
  158SAPE  H10X17628   3.233   4.947   5.085
  158SAPE  H10Y17629   3.270   5.118   5.054
  158SAPE  C31117630   3.078   5.041   4.990
  158SAPE  H11X17631   3.129   5.008   4.897
  158SAPE  H11Y17632   3.018   5.134   4.977
  158SAPE  C31217633   2.979   4.928   5.026
  158SAPE  H12X17634   2.908   4.967   5.103
  158SAPE  H12Y17635   3.027   4.840   5.072
  158SAPE  C31317636   2.898   4.896   4.894
  158SAPE  H13X17637   2.973   4.865   4.819
  158SAPE  H13Y17638   2.841   4.986   4.862
  158SAPE  C31417639   2.795   4.786   4.911
  158SAPE  H14X17640   2.740   4.806   5.005
  158SAPE  H14Y17641   2.860   4.697   4.925
  158SAPE  C31517642   2.702   4.753   4.790
  158SAPE  H15X17643   2.751   4.781   4.694
  158SAPE  H15Y17644   2.618   4.827   4.796
  158SAPE  C31617645   2.644   4.607   4.787
  158SAPE  H16X17646   2.728   4.545   4.751
  158SAPE  H16Y17647   2.566   4.602   4.708
  158SAPE  C31717648   2.591   4.565   4.925
  158SAPE  H17X17649   2.522   4.646   4.960
  158SAPE  H17Y17650   2.670   4.550   5.002
  158SAPE  C31817651   2.514   4.432   4.922
  158SAPE  H18X17652   2.502   4.378   5.018
  158SAPE  H18Y17653   2.576   4.365   4.859
  158SAPE  H18Z17654   2.423   4.460   4.865
  159SAPE     N17655   5.232   3.095   2.253
  159SAPE   HN117656   5.263   3.171   2.317
  159SAPE   HN217657   5.298   3.103   2.173
  159SAPE   HN317658   5.138   3.120   2.217
  159SAPE   C1217659   5.238   2.951   2.300
  159SAPE  H12A17660   5.305   2.897   2.228
  159SAPE  H12B17661   5.140   2.899   2.303
  159SAPE   C1117662   5.294   2.961   2.440
  159SAPE  H11A17663   5.297   2.864   2.495
  159SAPE  H11B17664   5.232   3.028   2.505
  159SAPE     P17665   5.559   2.958   2.401
  159SAPE   O1317666   5.537   2.817   2.370
  159SAPE   O1417667   5.630   3.036   2.300
  159SAPE   O1217668   5.424   3.023   2.442
  159SAPE   O1117669   5.643   2.978   2.531
  159SAPE    C117670   5.583   2.984   2.663
  159SAPE    HA17671   5.635   3.058   2.726
  159SAPE    HB17672   5.478   3.021   2.666
  159SAPE    C217673   5.583   2.846   2.733
  159SAPE    HS17674   5.574   2.761   2.662
  159SAPE   O2117675   5.473   2.831   2.828
  159SAPE   C2117676   5.449   2.704   2.868
  159SAPE   O2217677   5.478   2.597   2.822
  159SAPE   C2217678   5.370   2.708   2.999
  159SAPE   H2R17679   5.430   2.631   3.052
  159SAPE   H2S17680   5.366   2.808   3.047
  159SAPE    C317681   5.719   2.809   2.795
  159SAPE    HX17682   5.801   2.858   2.738
  159SAPE    HY17683   5.744   2.702   2.786
  159SAPE   O3117684   5.730   2.830   2.941
  159SAPE   C3117685   5.784   2.943   2.979
  159SAPE   O3217686   5.822   3.031   2.905
  159SAPE   C3217687   5.805   2.943   3.129
  159SAPE   H2X17688   5.803   2.838   3.165
  159SAPE   H2Y17689   5.714   2.981   3.180
  159SAPE   C2317690   5.221   2.660   3.001
  159SAPE   H3R17691   5.209   2.620   3.103
  159SAPE   H3S17692   5.198   2.573   2.935
  159SAPE   C2417693   5.121   2.774   2.975
  159SAPE   H4R17694   5.154   2.863   3.032
  159SAPE   H4S17695   5.022   2.760   3.023
  159SAPE   C2517696   5.103   2.808   2.831
  159SAPE   H5R17697   5.030   2.741   2.784
  159SAPE   C2617698   5.142   2.925   2.766
  159SAPE   H6R17699   5.121   2.935   2.658
  159SAPE   C2717700   5.223   3.044   2.816
  159SAPE   H7R17701   5.258   3.086   2.719
  159SAPE   H7S17702   5.310   3.012   2.877
  159SAPE   C2817703   5.148   3.159   2.885
  159SAPE   H8R17704   5.057   3.199   2.839
  159SAPE   C2917705   5.184   3.217   3.002
  159SAPE   H9R17706   5.109   3.285   3.043
  159SAPE  C21017707   5.314   3.193   3.077
  159SAPE  H10R17708   5.396   3.198   3.003
  159SAPE  H10S17709   5.311   3.086   3.105
  159SAPE  C21117710   5.337   3.280   3.200
  159SAPE  H11R17711   5.287   3.378   3.203
  159SAPE  C21217712   5.402   3.249   3.320
  159SAPE  H12R17713   5.426   3.326   3.396
  159SAPE  C21317714   5.468   3.112   3.347
  159SAPE  H13R17715   5.576   3.114   3.320
  159SAPE  H13S17716   5.430   3.032   3.280
  159SAPE  C21417717   5.453   3.076   3.497
  159SAPE  H14R17718   5.377   3.134   3.551
  159SAPE  C21517719   5.528   2.986   3.569
  159SAPE  H15R17720   5.504   2.973   3.676
  159SAPE  C21617721   5.650   2.907   3.528
  159SAPE  H16R17722   5.637   2.889   3.420
  159SAPE  H16S17723   5.659   2.811   3.583
  159SAPE  C21717724   5.776   2.998   3.534
  159SAPE  H17R17725   5.764   3.094   3.479
  159SAPE  H17S17726   5.860   2.941   3.490
  159SAPE  C21817727   5.816   3.038   3.680
  159SAPE  H18R17728   5.793   2.954   3.750
  159SAPE  H18S17729   5.754   3.123   3.716
  159SAPE  C21917730   5.966   3.068   3.677
  159SAPE  H19R17731   5.987   3.161   3.620
  159SAPE  H19S17732   6.025   2.986   3.631
  159SAPE  C22017733   6.020   3.085   3.816
  159SAPE  H20R17734   6.042   2.986   3.862
  159SAPE  H20S17735   5.949   3.139   3.882
  159SAPE  H20T17736   6.112   3.147   3.803
  159SAPE   C3317737   5.929   3.016   3.181
  159SAPE   H3X17738   6.018   3.011   3.115
  159SAPE   H3Y17739   5.969   2.966   3.272
  159SAPE   C3417740   5.907   3.166   3.212
  159SAPE   H4X17741   5.804   3.199   3.239
  159SAPE   H4Y17742   5.933   3.230   3.125
  159SAPE   C3517743   5.984   3.207   3.337
  159SAPE   H5X17744   5.952   3.145   3.423
  159SAPE   H5Y17745   5.956   3.311   3.367
  159SAPE   C3617746   6.134   3.198   3.324
  159SAPE   H6X17747   6.155   3.138   3.233
  159SAPE   H6Y17748   6.187   3.151   3.409
  159SAPE   C3717749   6.201   3.341   3.283
  159SAPE   H7X17750   6.152   3.385   3.194
  159SAPE   H7Y17751   6.303   3.313   3.249
  159SAPE   C3817752   6.199   3.445   3.393
  159SAPE   H8X17753   6.099   3.459   3.438
  159SAPE   H8Y17754   6.205   3.548   3.350
  159SAPE   C3917755   6.309   3.417   3.496
  159SAPE   H9X17756   6.408   3.403   3.446
  159SAPE   H9Y17757   6.289   3.316   3.537
  159SAPE  C31017758   6.311   3.509   3.619
  159SAPE  H10X17759   6.210   3.511   3.665
  159SAPE  H10Y17760   6.321   3.615   3.587
  159SAPE  C31117761   6.420   3.474   3.724
  159SAPE  H11X17762   6.444   3.558   3.792
  159SAPE  H11Y17763   6.506   3.446   3.659
  159SAPE  C31217764   6.374   3.355   3.807
  159SAPE  H12X17765   6.347   3.271   3.739
  159SAPE  H12Y17766   6.289   3.396   3.864
  159SAPE  C31317767   6.475   3.294   3.911
  159SAPE  H13X17768   6.498   3.365   3.993
  159SAPE  H13Y17769   6.571   3.267   3.862
  159SAPE  C31417770   6.415   3.170   3.978
  159SAPE  H14X17771   6.402   3.099   3.893
  159SAPE  H14Y17772   6.315   3.177   4.027
  159SAPE  C31517773   6.495   3.110   4.100
  159SAPE  H15X17774   6.440   3.143   4.191
  159SAPE  H15Y17775   6.591   3.165   4.094
  159SAPE  C31617776   6.530   2.963   4.076
  159SAPE  H16X17777   6.601   2.951   3.992
  159SAPE  H16Y17778   6.444   2.904   4.037
  159SAPE  C31717779   6.572   2.891   4.207
  159SAPE  H17X17780   6.574   2.783   4.179
  159SAPE  H17Y17781   6.506   2.917   4.293
  159SAPE  C31817782   6.713   2.938   4.234
  159SAPE  H18X17783   6.704   3.046   4.257
  159SAPE  H18Y17784   6.785   2.918   4.151
  159SAPE  H18Z17785   6.754   2.882   4.320
  160SAPE     N17786   5.125   2.102   2.352
  160SAPE   HN117787   5.146   2.001   2.366
  160SAPE   HN217788   5.137   2.112   2.249
  160SAPE   HN317789   5.205   2.147   2.401
  160SAPE   C1217790   5.000   2.156   2.413
  160SAPE  H12A17791   4.978   2.248   2.353
  160SAPE  H12B17792   5.017   2.189   2.518
  160SAPE   C1117793   4.870   2.056   2.408
  160SAPE  H11A17794   4.857   2.037   2.300
  160SAPE  H11B17795   4.782   2.112   2.447
  160SAPE     P17796   4.958   1.806   2.459
  160SAPE   O1317797   4.857   1.720   2.396
  160SAPE   O1417798   5.085   1.827   2.383
  160SAPE   O1217799   4.886   1.943   2.491
  160SAPE   O1117800   4.999   1.746   2.597
  160SAPE    C117801   4.921   1.735   2.714
  160SAPE    HA17802   4.974   1.799   2.787
  160SAPE    HB17803   4.818   1.774   2.707
  160SAPE    C217804   4.926   1.586   2.763
  160SAPE    HS17805   4.840   1.573   2.831
  160SAPE   O2117806   5.052   1.563   2.826
  160SAPE   C2117807   5.067   1.588   2.950
  160SAPE   O2217808   4.976   1.638   3.017
  160SAPE   C2217809   5.197   1.551   3.005
  160SAPE   H2R17810   5.210   1.442   2.988
  160SAPE   H2S17811   5.287   1.592   2.955
  160SAPE    C317812   4.897   1.481   2.652
  160SAPE    HX17813   4.980   1.487   2.578
  160SAPE    HY17814   4.803   1.504   2.597
  160SAPE   O3117815   4.895   1.350   2.700
  160SAPE   C3117816   4.779   1.289   2.731
  160SAPE   O3217817   4.670   1.341   2.721
  160SAPE   C3217818   4.798   1.161   2.808
  160SAPE   H2X17819   4.870   1.100   2.748
  160SAPE   H2Y17820   4.697   1.115   2.810
  160SAPE   C2317821   5.201   1.577   3.160
  160SAPE   H3R17822   5.130   1.508   3.211
  160SAPE   H3S17823   5.186   1.685   3.178
  160SAPE   C2417824   5.332   1.557   3.230
  160SAPE   H4R17825   5.335   1.604   3.330
  160SAPE   H4S17826   5.406   1.608   3.164
  160SAPE   C2517827   5.388   1.414   3.231
  160SAPE   H5R17828   5.422   1.386   3.130
  160SAPE   C2617829   5.397   1.326   3.326
  160SAPE   H6R17830   5.438   1.226   3.305
  160SAPE   C2717831   5.361   1.344   3.481
  160SAPE   H7R17832   5.456   1.377   3.527
  160SAPE   H7S17833   5.339   1.243   3.521
  160SAPE   C2817834   5.257   1.437   3.528
  160SAPE   H8R17835   5.213   1.509   3.457
  160SAPE   C2917836   5.201   1.442   3.649
  160SAPE   H9R17837   5.118   1.513   3.658
  160SAPE  C21017838   5.233   1.348   3.763
  160SAPE  H10R17839   5.336   1.372   3.797
  160SAPE  H10S17840   5.241   1.241   3.735
  160SAPE  C21117841   5.122   1.362   3.872
  160SAPE  H11R17842   5.021   1.339   3.835
  160SAPE  C21217843   5.131   1.383   4.001
  160SAPE  H12R17844   5.039   1.394   4.060
  160SAPE  C21317845   5.266   1.394   4.078
  160SAPE  H13R17846   5.262   1.471   4.158
  160SAPE  H13S17847   5.348   1.425   4.009
  160SAPE  C21417848   5.306   1.265   4.148
  160SAPE  H14R17849   5.389   1.210   4.102
  160SAPE  C21517850   5.251   1.207   4.260
  160SAPE  H15R17851   5.297   1.119   4.307
  160SAPE  C21617852   5.141   1.263   4.353
  160SAPE  H16R17853   5.072   1.181   4.381
  160SAPE  H16S17854   5.081   1.331   4.290
  160SAPE  C21717855   5.195   1.329   4.480
  160SAPE  H17R17856   5.278   1.401   4.462
  160SAPE  H17S17857   5.248   1.251   4.539
  160SAPE  C21817858   5.089   1.400   4.568
  160SAPE  H18R17859   5.042   1.318   4.626
  160SAPE  H18S17860   5.021   1.453   4.499
  160SAPE  C21917861   5.137   1.517   4.653
  160SAPE  H19R17862   5.139   1.612   4.595
  160SAPE  H19S17863   5.240   1.496   4.690
  160SAPE  C22017864   5.044   1.552   4.766
  160SAPE  H20R17865   5.071   1.490   4.853
  160SAPE  H20S17866   4.940   1.539   4.729
  160SAPE  H20T17867   5.071   1.656   4.794
  160SAPE   C3317868   4.846   1.204   2.945
  160SAPE   H3X17869   4.916   1.290   2.948
  160SAPE   H3Y17870   4.904   1.117   2.985
  160SAPE   C3417871   4.733   1.223   3.043
  160SAPE   H4X17872   4.666   1.137   3.026
  160SAPE   H4Y17873   4.680   1.314   3.007
  160SAPE   C3517874   4.778   1.233   3.186
  160SAPE   H5X17875   4.812   1.133   3.222
  160SAPE   H5Y17876   4.688   1.257   3.247
  160SAPE   C3617877   4.879   1.349   3.207
  160SAPE   H6X17878   4.858   1.438   3.143
  160SAPE   H6Y17879   4.980   1.321   3.171
  160SAPE   C3717880   4.902   1.396   3.353
  160SAPE   H7X17881   5.006   1.418   3.384
  160SAPE   H7Y17882   4.882   1.306   3.416
  160SAPE   C3817883   4.795   1.503   3.386
  160SAPE   H8X17884   4.692   1.462   3.373
  160SAPE   H8Y17885   4.810   1.588   3.316
  160SAPE   C3917886   4.791   1.565   3.529
  160SAPE   H9X17887   4.687   1.604   3.538
  160SAPE   H9Y17888   4.870   1.644   3.521
  160SAPE  C31017889   4.810   1.472   3.645
  160SAPE  H10X17890   4.909   1.420   3.640
  160SAPE  H10Y17891   4.735   1.390   3.637
  160SAPE  C31117892   4.791   1.540   3.784
  160SAPE  H11X17893   4.711   1.617   3.778
  160SAPE  H11Y17894   4.888   1.593   3.802
  160SAPE  C31217895   4.760   1.441   3.895
  160SAPE  H12X17896   4.792   1.480   3.993
  160SAPE  H12Y17897   4.826   1.353   3.882
  160SAPE  C31317898   4.603   1.412   3.905
  160SAPE  H13X17899   4.577   1.379   3.802
  160SAPE  H13Y17900   4.552   1.507   3.932
  160SAPE  C31417901   4.567   1.307   4.007
  160SAPE  H14X17902   4.604   1.352   4.101
  160SAPE  H14Y17903   4.629   1.215   3.993
  160SAPE  C31517904   4.417   1.263   4.010
  160SAPE  H15X17905   4.355   1.355   4.015
  160SAPE  H15Y17906   4.401   1.200   4.100
  160SAPE  C31617907   4.377   1.174   3.888
  160SAPE  H16X17908   4.443   1.085   3.897
  160SAPE  H16Y17909   4.396   1.240   3.800
  160SAPE  C31717910   4.234   1.126   3.891
  160SAPE  H17X17911   4.174   1.219   3.897
  160SAPE  H17Y17912   4.216   1.074   3.987
  160SAPE  C31817913   4.211   1.040   3.765
  160SAPE  H18X17914   4.291   0.963   3.756
  160SAPE  H18Y17915   4.209   1.103   3.674
  160SAPE  H18Z17916   4.112   0.991   3.774
  161SAPE     N17917   2.291   4.267   2.223
  161SAPE   HN117918   2.315   4.208   2.141
  161SAPE   HN217919   2.187   4.259   2.227
  161SAPE   HN317920   2.311   4.365   2.198
  161SAPE   C1217921   2.356   4.206   2.349
  161SAPE  H12A17922   2.271   4.178   2.414
  161SAPE  H12B17923   2.417   4.290   2.391
  161SAPE   C1117924   2.462   4.100   2.321
  161SAPE  H11A17925   2.508   4.073   2.418
  161SAPE  H11B17926   2.538   4.142   2.252
  161SAPE     P17927   2.479   3.850   2.246
  161SAPE   O1317928   2.404   3.747   2.174
  161SAPE   O1417929   2.613   3.888   2.196
  161SAPE   O1217930   2.395   3.992   2.257
  161SAPE   O1117931   2.495   3.806   2.390
  161SAPE    C117932   2.388   3.756   2.471
  161SAPE    HA17933   2.295   3.758   2.411
  161SAPE    HB17934   2.401   3.652   2.507
  161SAPE    C217935   2.360   3.853   2.590
  161SAPE    HS17936   2.404   3.947   2.550
  161SAPE   O2117937   2.428   3.805   2.703
  161SAPE   C2117938   2.499   3.891   2.778
  161SAPE   O2217939   2.518   4.004   2.747
  161SAPE   C2217940   2.565   3.821   2.892
  161SAPE   H2R17941   2.493   3.766   2.955
  161SAPE   H2S17942   2.641   3.748   2.856
  161SAPE    C317943   2.204   3.876   2.612
  161SAPE    HX17944   2.158   3.775   2.617
  161SAPE    HY17945   2.159   3.923   2.522
  161SAPE   O3117946   2.160   3.945   2.732
  161SAPE   C3117947   2.157   4.081   2.729
  161SAPE   O3217948   2.169   4.144   2.624
  161SAPE   C3217949   2.145   4.126   2.872
  161SAPE   H2X17950   2.039   4.113   2.902
  161SAPE   H2Y17951   2.160   4.236   2.878
  161SAPE   C2317952   2.645   3.918   2.988
  161SAPE   H3R17953   2.572   3.996   3.021
  161SAPE   H3S17954   2.719   3.975   2.929
  161SAPE   C2417955   2.733   3.848   3.089
  161SAPE   H4R17956   2.817   3.803   3.031
  161SAPE   H4S17957   2.677   3.761   3.131
  161SAPE   C2517958   2.774   3.940   3.194
  161SAPE   H5R17959   2.798   4.040   3.156
  161SAPE   C2617960   2.786   3.916   3.327
  161SAPE   H6R17961   2.821   4.004   3.383
  161SAPE   C2717962   2.767   3.786   3.408
  161SAPE   H7R17963   2.725   3.701   3.348
  161SAPE   H7S17964   2.692   3.805   3.488
  161SAPE   C2817965   2.897   3.736   3.466
  161SAPE   H8R17966   2.978   3.717   3.394
  161SAPE   C2917967   2.916   3.696   3.594
  161SAPE   H9R17968   3.015   3.671   3.635
  161SAPE  C21017969   2.811   3.690   3.705
  161SAPE  H10R17970   2.724   3.755   3.682
  161SAPE  H10S17971   2.855   3.741   3.793
  161SAPE  C21117972   2.778   3.544   3.749
  161SAPE  H11R17973   2.781   3.470   3.668
  161SAPE  C21217974   2.731   3.504   3.868
  161SAPE  H12R17975   2.720   3.395   3.879
  161SAPE  C21317976   2.696   3.578   3.998
  161SAPE  H13R17977   2.729   3.683   3.978
  161SAPE  H13S17978   2.751   3.535   4.084
  161SAPE  C21417979   2.547   3.571   4.009
  161SAPE  H14R17980   2.482   3.654   3.975
  161SAPE  C21517981   2.480   3.484   4.090
  161SAPE  H15R17982   2.372   3.501   4.094
  161SAPE  C21617983   2.541   3.379   4.177
  161SAPE  H16R17984   2.622   3.333   4.116
  161SAPE  H16S17985   2.461   3.303   4.185
  161SAPE  C21717986   2.595   3.434   4.307
  161SAPE  H17R17987   2.658   3.522   4.282
  161SAPE  H17S17988   2.649   3.354   4.363
  161SAPE  C21817989   2.483   3.492   4.405
  161SAPE  H18R17990   2.420   3.404   4.431
  161SAPE  H18S17991   2.426   3.567   4.346
  161SAPE  C21917992   2.539   3.571   4.524
  161SAPE  H19R17993   2.611   3.643   4.480
  161SAPE  H19S17994   2.595   3.499   4.587
  161SAPE  C22017995   2.436   3.650   4.607
  161SAPE  H20R17996   2.376   3.715   4.540
  161SAPE  H20S17997   2.502   3.700   4.682
  161SAPE  H20T17998   2.369   3.579   4.660
  161SAPE   C3317999   2.247   4.064   2.971
  161SAPE   H3X18000   2.343   4.120   2.964
  161SAPE   H3Y18001   2.245   3.957   2.943
  161SAPE   C3418002   2.200   4.067   3.121
  161SAPE   H4X18003   2.090   4.058   3.133
  161SAPE   H4Y18004   2.226   4.164   3.168
  161SAPE   C3518005   2.267   3.951   3.199
  161SAPE   H5X18006   2.374   3.950   3.169
  161SAPE   H5Y18007   2.230   3.848   3.179
  161SAPE   C3618008   2.262   3.956   3.346
  161SAPE   H6X18009   2.294   3.854   3.377
  161SAPE   H6Y18010   2.159   3.957   3.387
  161SAPE   C3718011   2.367   4.047   3.406
  161SAPE   H7X18012   2.330   4.152   3.406
  161SAPE   H7Y18013   2.462   4.048   3.350
  161SAPE   C3818014   2.396   4.015   3.556
  161SAPE   H8X18015   2.417   3.907   3.569
  161SAPE   H8Y18016   2.309   4.044   3.618
  161SAPE   C3918017   2.523   4.070   3.612
  161SAPE   H9X18018   2.509   4.179   3.603
  161SAPE   H9Y18019   2.616   4.046   3.555
  161SAPE  C31018020   2.562   4.019   3.753
  161SAPE  H10X18021   2.672   4.005   3.765
  161SAPE  H10Y18022   2.510   3.922   3.770
  161SAPE  C31118023   2.524   4.124   3.864
  161SAPE  H11X18024   2.421   4.157   3.839
  161SAPE  H11Y18025   2.586   4.215   3.847
  161SAPE  C31218026   2.517   4.077   4.012
  161SAPE  H12X18027   2.453   3.987   4.024
  161SAPE  H12Y18028   2.472   4.154   4.078
  161SAPE  C31318029   2.657   4.023   4.050
  161SAPE  H13X18030   2.733   4.101   4.029
  161SAPE  H13Y18031   2.678   3.936   3.984
  161SAPE  C31418032   2.666   3.959   4.188
  161SAPE  H14X18033   2.758   3.896   4.189
  161SAPE  H14Y18034   2.582   3.889   4.205
  161SAPE  C31518035   2.663   4.059   4.309
  161SAPE  H15X18036   2.679   3.998   4.401
  161SAPE  H15Y18037   2.560   4.099   4.319
  161SAPE  C31618038   2.765   4.168   4.307
  161SAPE  H16X18039   2.756   4.245   4.227
  161SAPE  H16Y18040   2.865   4.120   4.296
  161SAPE  C31718041   2.765   4.253   4.433
  161SAPE  H17X18042   2.790   4.190   4.521
  161SAPE  H17Y18043   2.667   4.301   4.453
  161SAPE  C31818044   2.860   4.372   4.429
  161SAPE  H18X18045   2.828   4.452   4.359
  161SAPE  H18Y18046   2.956   4.336   4.387
  161SAPE  H18Z18047   2.880   4.422   4.526
  162SAPE     N18048   2.624   0.781   2.246
  162SAPE   HN118049   2.564   0.737   2.173
  162SAPE   HN218050   2.582   0.767   2.340
  162SAPE   HN318051   2.629   0.883   2.231
  162SAPE   C1218052   2.768   0.732   2.245
  162SAPE  H12A18053   2.815   0.789   2.328
  162SAPE  H12B18054   2.808   0.756   2.144
  162SAPE   C1118055   2.780   0.580   2.278
  162SAPE  H11A18056   2.735   0.562   2.378
  162SAPE  H11B18057   2.888   0.556   2.289
  162SAPE     P18058   2.590   0.420   2.204
  162SAPE   O1318059   2.491   0.526   2.244
  162SAPE   O1418060   2.558   0.331   2.097
  162SAPE   O1218061   2.734   0.491   2.169
  162SAPE   O1118062   2.616   0.326   2.331
  162SAPE    C118063   2.737   0.245   2.317
  162SAPE    HA18064   2.796   0.255   2.223
  162SAPE    HB18065   2.813   0.281   2.390
  162SAPE    C218066   2.716   0.093   2.369
  162SAPE    HS18067   2.655   0.037   2.294
  162SAPE   O2118068   2.644   0.103   2.498
  162SAPE   C2118069   2.590   6.826   2.540
  162SAPE   O2218070   2.585   6.727   2.472
  162SAPE   C2218071   2.524   0.005   2.674
  162SAPE   H2R18072   2.591   0.069   2.735
  162SAPE   H2S18073   2.423   0.038   2.643
  162SAPE    C318074   2.861   0.032   2.385
  162SAPE    HX18075   2.901   0.104   2.460
  162SAPE    HY18076   2.918   0.028   2.290
  162SAPE   O3118077   2.841   6.735   2.423
  162SAPE   C3118078   2.941   6.652   2.399
  162SAPE   O3218079   3.054   6.696   2.363
  162SAPE   C3218080   2.896   6.507   2.403
  162SAPE   H2X18081   2.890   6.474   2.297
  162SAPE   H2Y18082   2.788   6.514   2.429
  162SAPE   C2318083   2.506   6.698   2.731
  162SAPE   H3R18084   2.454   6.635   2.656
  162SAPE   H3S18085   2.453   6.702   2.828
  162SAPE   C2418086   2.631   6.616   2.756
  162SAPE   H4R18087   2.708   6.643   2.680
  162SAPE   H4S18088   2.621   6.507   2.737
  162SAPE   C2518089   2.691   6.634   2.893
  162SAPE   H5R18090   2.782   6.696   2.896
  162SAPE   C2618091   2.647   6.578   3.006
  162SAPE   H6R18092   2.692   6.589   3.106
  162SAPE   C2718093   2.517   6.491   3.011
  162SAPE   H7R18094   2.460   6.508   2.917
  162SAPE   H7S18095   2.449   6.540   3.084
  162SAPE   C2818096   2.557   6.351   3.045
  162SAPE   H8R18097   2.593   6.286   2.964
  162SAPE   C2918098   2.574   6.290   3.168
  162SAPE   H9R18099   2.598   6.183   3.173
  162SAPE  C21018100   2.543   6.350   3.301
  162SAPE  H10R18101   2.452   6.301   3.342
  162SAPE  H10S18102   2.506   6.455   3.296
  162SAPE  C21118103   2.655   6.334   3.399
  162SAPE  H11R18104   2.753   6.378   3.374
  162SAPE  C21218105   2.648   6.277   3.525
  162SAPE  H12R18106   2.737   6.269   3.589
  162SAPE  C21318107   2.524   6.223   3.582
  162SAPE  H13R18108   2.526   6.113   3.567
  162SAPE  H13S18109   2.443   6.267   3.521
  162SAPE  C21418110   2.496   6.257   3.731
  162SAPE  H14R18111   2.465   6.362   3.748
  162SAPE  C21518112   2.490   6.175   3.839
  162SAPE  H15R18113   2.491   6.233   3.932
  162SAPE  C21618114   2.522   6.023   3.842
  162SAPE  H16R18115   2.558   5.986   3.744
  162SAPE  H16S18116   2.432   5.970   3.880
  162SAPE  C21718117   2.653   5.992   3.929
  162SAPE  H17R18118   2.736   6.043   3.876
  162SAPE  H17S18119   2.670   5.884   3.911
  162SAPE  C21818120   2.623   6.013   4.077
  162SAPE  H18R18121   2.542   5.944   4.109
  162SAPE  H18S18122   2.596   6.119   4.095
  162SAPE  C21918123   2.755   5.994   4.161
  162SAPE  H19R18124   2.724   5.987   4.268
  162SAPE  H19S18125   2.817   6.085   4.148
  162SAPE  C22018126   2.845   5.878   4.121
  162SAPE  H20R18127   2.923   5.874   4.199
  162SAPE  H20S18128   2.900   5.884   4.025
  162SAPE  H20T18129   2.787   5.784   4.133
  162SAPE   C3318130   2.990   6.420   2.486
  162SAPE   H3X18131   3.097   6.443   2.468
  162SAPE   H3Y18132   2.979   6.310   2.480
  162SAPE   C3418133   2.944   6.439   2.636
  162SAPE   H4X18134   2.841   6.396   2.639
  162SAPE   H4Y18135   2.960   6.543   2.672
  162SAPE   C3518136   3.029   6.343   2.713
  162SAPE   H5X18137   3.137   6.370   2.710
  162SAPE   H5Y18138   3.016   6.239   2.675
  162SAPE   C3618139   2.977   6.353   2.858
  162SAPE   H6X18140   2.875   6.310   2.867
  162SAPE   H6Y18141   2.956   6.460   2.879
  162SAPE   C3718142   3.059   6.290   2.962
  162SAPE   H7X18143   3.152   6.350   2.956
  162SAPE   H7Y18144   3.083   6.184   2.938
  162SAPE   C3818145   2.986   6.315   3.096
  162SAPE   H8X18146   2.904   6.243   3.115
  162SAPE   H8Y18147   2.934   6.413   3.099
  162SAPE   C3918148   3.086   6.297   3.212
  162SAPE   H9X18149   3.054   6.344   3.308
  162SAPE   H9Y18150   3.177   6.357   3.188
  162SAPE  C31018151   3.134   6.153   3.226
  162SAPE  H10X18152   3.176   6.115   3.130
  162SAPE  H10Y18153   3.051   6.084   3.250
  162SAPE  C31118154   3.247   6.143   3.336
  162SAPE  H11X18155   3.336   6.207   3.317
  162SAPE  H11Y18156   3.276   6.036   3.349
  162SAPE  C31218157   3.204   6.182   3.479
  162SAPE  H12X18158   3.108   6.135   3.507
  162SAPE  H12Y18159   3.183   6.291   3.476
  162SAPE  C31318160   3.307   6.139   3.583
  162SAPE  H13X18161   3.308   6.206   3.672
  162SAPE  H13Y18162   3.408   6.157   3.540
  162SAPE  C31418163   3.293   5.993   3.617
  162SAPE  H14X18164   3.277   5.931   3.526
  162SAPE  H14Y18165   3.219   5.981   3.700
  162SAPE  C31518166   3.433   5.945   3.663
  162SAPE  H15X18167   3.473   6.015   3.739
  162SAPE  H15Y18168   3.499   5.952   3.574
  162SAPE  C31618169   3.449   5.810   3.729
  162SAPE  H16X18170   3.389   5.732   3.677
  162SAPE  H16Y18171   3.411   5.827   3.832
  162SAPE  C31718172   3.582   5.740   3.746
  162SAPE  H17X18173   3.571   5.664   3.827
  162SAPE  H17Y18174   3.653   5.813   3.790
  162SAPE  C31818175   3.633   5.708   3.606
  162SAPE  H18X18176   3.652   5.798   3.545
  162SAPE  H18Y18177   3.567   5.642   3.545
  162SAPE  H18Z18178   3.735   5.667   3.623
  163SAPE     N18179   1.740   3.585   1.737
  163SAPE   HN118180   1.801   3.664   1.706
  163SAPE   HN218181   1.798   3.539   1.810
  163SAPE   HN318182   1.734   3.515   1.661
  163SAPE   C1218183   1.600   3.614   1.792
  163SAPE  H12A18184   1.540   3.654   1.707
  163SAPE  H12B18185   1.613   3.701   1.860
  163SAPE   C1118186   1.537   3.492   1.853
  163SAPE  H11A18187   1.609   3.453   1.929
  163SAPE  H11B18188   1.527   3.416   1.773
  163SAPE     P18189   1.315   3.461   1.987
  163SAPE   O1318190   1.201   3.538   2.043
  163SAPE   O1418191   1.272   3.339   1.915
  163SAPE   O1218192   1.415   3.548   1.904
  163SAPE   O1118193   1.415   3.415   2.101
  163SAPE    C118194   1.480   3.516   2.177
  163SAPE    HA18195   1.589   3.496   2.168
  163SAPE    HB18196   1.463   3.620   2.142
  163SAPE    C218197   1.447   3.504   2.330
  163SAPE    HS18198   1.337   3.496   2.343
  163SAPE   O2118199   1.496   3.621   2.396
  163SAPE   C2118200   1.411   3.655   2.497
  163SAPE   O2218201   1.318   3.585   2.538
  163SAPE   C2218202   1.462   3.786   2.562
  163SAPE   H2R18203   1.563   3.768   2.604
  163SAPE   H2S18204   1.463   3.867   2.486
  163SAPE    C318205   1.519   3.380   2.389
  163SAPE    HX18206   1.627   3.374   2.363
  163SAPE    HY18207   1.476   3.290   2.342
  163SAPE   O3118208   1.520   3.384   2.536
  163SAPE   C3118209   1.430   3.305   2.588
  163SAPE   O3218210   1.355   3.232   2.524
  163SAPE   C3218211   1.430   3.308   2.740
  163SAPE   H2X18212   1.330   3.308   2.787
  163SAPE   H2Y18213   1.479   3.402   2.773
  163SAPE   C2318214   1.374   3.842   2.678
  163SAPE   H3R18215   1.271   3.843   2.637
  163SAPE   H3S18216   1.384   3.950   2.701
  163SAPE   C2418217   1.388   3.759   2.805
  163SAPE   H4R18218   1.488   3.761   2.853
  163SAPE   H4S18219   1.370   3.653   2.777
  163SAPE   C2518220   1.286   3.809   2.904
  163SAPE   H5R18221   1.187   3.809   2.856
  163SAPE   C2618222   1.292   3.821   3.041
  163SAPE   H6R18223   1.203   3.855   3.096
  163SAPE   C2718224   1.423   3.813   3.120
  163SAPE   H7R18225   1.432   3.914   3.167
  163SAPE   H7S18226   1.513   3.792   3.058
  163SAPE   C2818227   1.427   3.701   3.222
  163SAPE   H8R18228   1.440   3.600   3.181
  163SAPE   C2918229   1.412   3.720   3.353
  163SAPE   H9R18230   1.428   3.631   3.415
  163SAPE  C21018231   1.401   3.850   3.440
  163SAPE  H10R18232   1.411   3.943   3.381
  163SAPE  H10S18233   1.482   3.853   3.516
  163SAPE  C21118234   1.266   3.854   3.506
  163SAPE  H11R18235   1.186   3.867   3.431
  163SAPE  C21218236   1.239   3.863   3.631
  163SAPE  H12R18237   1.136   3.848   3.668
  163SAPE  C21318238   1.331   3.857   3.751
  163SAPE  H13R18239   1.428   3.819   3.714
  163SAPE  H13S18240   1.291   3.791   3.830
  163SAPE  C21418241   1.351   3.998   3.808
  163SAPE  H14R18242   1.404   4.066   3.739
  163SAPE  C21518243   1.310   4.044   3.930
  163SAPE  H15R18244   1.345   4.145   3.956
  163SAPE  C21618245   1.229   3.962   4.027
  163SAPE  H16R18246   1.248   3.984   4.134
  163SAPE  H16S18247   1.264   3.859   4.010
  163SAPE  C21718248   1.079   3.973   3.992
  163SAPE  H17R18249   1.057   3.952   3.885
  163SAPE  H17S18250   1.039   4.072   4.021
  163SAPE  C21818251   1.008   3.856   4.071
  163SAPE  H18R18252   1.061   3.761   4.050
  163SAPE  H18S18253   0.903   3.843   4.038
  163SAPE  C21918254   0.998   3.862   4.223
  163SAPE  H19R18255   1.097   3.824   4.255
  163SAPE  H19S18256   0.919   3.785   4.236
  163SAPE  C22018257   0.953   3.994   4.291
  163SAPE  H20R18258   0.849   4.019   4.261
  163SAPE  H20S18259   1.006   4.082   4.248
  163SAPE  H20T18260   0.959   3.991   4.402
  163SAPE   C3318261   1.502   3.192   2.807
  163SAPE   H3X18262   1.603   3.165   2.770
  163SAPE   H3Y18263   1.439   3.102   2.789
  163SAPE   C3418264   1.507   3.206   2.964
  163SAPE   H4X18265   1.419   3.267   2.990
  163SAPE   H4Y18266   1.590   3.277   2.984
  163SAPE   C3518267   1.525   3.083   3.048
  163SAPE   H5X18268   1.596   3.017   2.993
  163SAPE   H5Y18269   1.429   3.028   3.062
  163SAPE   C3618270   1.573   3.111   3.187
  163SAPE   H6X18271   1.660   3.180   3.181
  163SAPE   H6Y18272   1.610   3.024   3.245
  163SAPE   C3718273   1.468   3.184   3.263
  163SAPE   H7X18274   1.368   3.137   3.248
  163SAPE   H7Y18275   1.453   3.287   3.224
  163SAPE   C3818276   1.480   3.189   3.416
  163SAPE   H8X18277   1.501   3.087   3.456
  163SAPE   H8Y18278   1.380   3.222   3.452
  163SAPE   C3918279   1.589   3.272   3.471
  163SAPE   H9X18280   1.576   3.376   3.434
  163SAPE   H9Y18281   1.686   3.239   3.429
  163SAPE  C31018282   1.601   3.271   3.625
  163SAPE  H10X18283   1.676   3.204   3.672
  163SAPE  H10Y18284   1.502   3.242   3.667
  163SAPE  C31118285   1.634   3.417   3.666
  163SAPE  H11X18286   1.592   3.497   3.602
  163SAPE  H11Y18287   1.744   3.431   3.654
  163SAPE  C31218288   1.606   3.439   3.812
  163SAPE  H12X18289   1.690   3.496   3.858
  163SAPE  H12Y18290   1.606   3.338   3.859
  163SAPE  C31318291   1.473   3.511   3.834
  163SAPE  H13X18292   1.386   3.445   3.815
  163SAPE  H13Y18293   1.464   3.595   3.763
  163SAPE  C31418294   1.459   3.561   3.986
  163SAPE  H14X18295   1.362   3.615   3.988
  163SAPE  H14Y18296   1.540   3.634   4.009
  163SAPE  C31518297   1.481   3.452   4.095
  163SAPE  H15X18298   1.587   3.419   4.084
  163SAPE  H15Y18299   1.407   3.370   4.095
  163SAPE  C31618300   1.464   3.522   4.234
  163SAPE  H16X18301   1.368   3.576   4.240
  163SAPE  H16Y18302   1.534   3.607   4.248
  163SAPE  C31718303   1.478   3.419   4.353
  163SAPE  H17X18304   1.405   3.338   4.330
  163SAPE  H17Y18305   1.463   3.488   4.440
  163SAPE  C31818306   1.610   3.342   4.373
  163SAPE  H18X18307   1.699   3.406   4.380
  163SAPE  H18Y18308   1.631   3.268   4.292
  163SAPE  H18Z18309   1.604   3.278   4.464
  164SAPE     N18310   6.374   3.912   2.063
  164SAPE   HN118311   6.307   3.990   2.074
  164SAPE   HN218312   6.330   3.857   1.986
  164SAPE   HN318313   6.379   3.847   2.144
  164SAPE   C1218314   6.508   3.967   2.028
  164SAPE  H12A18315   6.584   3.886   2.024
  164SAPE  H12B18316   6.529   4.040   2.109
  164SAPE   C1118317   6.506   4.030   1.886
  164SAPE  H11A18318   6.519   3.958   1.803
  164SAPE  H11B18319   6.598   4.092   1.887
  164SAPE     P18320   6.394   4.264   1.912
  164SAPE   O1318321   6.535   4.314   1.927
  164SAPE   O1418322   6.300   4.335   1.822
  164SAPE   O1218323   6.399   4.114   1.855
  164SAPE   O1118324   6.321   4.238   2.058
  164SAPE    C118325   6.241   4.327   2.139
  164SAPE    HA18326   6.161   4.373   2.078
  164SAPE    HB18327   6.195   4.275   2.226
  164SAPE    C218328   6.333   4.435   2.202
  164SAPE    HS18329   6.380   4.480   2.111
  164SAPE   O2118330   6.441   4.376   2.276
  164SAPE   C2118331   6.555   4.446   2.262
  164SAPE   O2218332   6.581   4.535   2.186
  164SAPE   C2218333   6.646   4.406   2.376
  164SAPE   H2R18334   6.679   4.302   2.356
  164SAPE   H2S18335   6.739   4.466   2.373
  164SAPE    C318336   6.259   4.547   2.274
  164SAPE    HX18337   6.172   4.593   2.223
  164SAPE    HY18338   6.333   4.629   2.275
  164SAPE   O3118339   6.237   4.509   2.413
  164SAPE   C3118340   6.118   4.457   2.430
  164SAPE   O3218341   6.043   4.436   2.338
  164SAPE   C3218342   6.088   4.458   2.576
  164SAPE   H2X18343   6.050   4.559   2.604
  164SAPE   H2Y18344   6.179   4.445   2.639
  164SAPE   C2318345   6.570   4.420   2.510
  164SAPE   H3R18346   6.470   4.371   2.501
  164SAPE   H3S18347   6.565   4.529   2.528
  164SAPE   C2418348   6.646   4.350   2.629
  164SAPE   H4R18349   6.628   4.406   2.723
  164SAPE   H4S18350   6.754   4.359   2.606
  164SAPE   C2518351   6.614   4.202   2.643
  164SAPE   H5R18352   6.666   4.137   2.571
  164SAPE   C2618353   6.531   4.142   2.736
  164SAPE   H6R18354   6.535   4.032   2.737
  164SAPE   C2718355   6.448   4.201   2.848
  164SAPE   H7R18356   6.345   4.204   2.807
  164SAPE   H7S18357   6.472   4.308   2.863
  164SAPE   C2818358   6.453   4.123   2.980
  164SAPE   H8R18359   6.451   4.016   2.954
  164SAPE   C2918360   6.449   4.157   3.111
  164SAPE   H9R18361   6.439   4.081   3.190
  164SAPE  C21018362   6.451   4.300   3.161
  164SAPE  H10R18363   6.350   4.331   3.192
  164SAPE  H10S18364   6.483   4.366   3.077
  164SAPE  C21118365   6.543   4.335   3.273
  164SAPE  H11R18366   6.639   4.380   3.244
  164SAPE  C21218367   6.529   4.292   3.402
  164SAPE  H12R18368   6.614   4.306   3.470
  164SAPE  C21318369   6.404   4.220   3.462
  164SAPE  H13R18370   6.326   4.191   3.389
  164SAPE  H13S18371   6.347   4.288   3.529
  164SAPE  C21418372   6.444   4.101   3.535
  164SAPE  H14R18373   6.477   4.022   3.466
  164SAPE  C21518374   6.481   4.090   3.668
  164SAPE  H15R18375   6.547   4.005   3.694
  164SAPE  C21618376   6.467   4.195   3.773
  164SAPE  H16R18377   6.406   4.168   3.862
  164SAPE  H16S18378   6.418   4.282   3.723
  164SAPE  C21718379   6.613   4.230   3.809
  164SAPE  H17R18380   6.687   4.233   3.727
  164SAPE  H17S18381   6.652   4.144   3.867
  164SAPE  C21818382   6.617   4.364   3.882
  164SAPE  H18R18383   6.721   4.369   3.920
  164SAPE  H18S18384   6.545   4.371   3.967
  164SAPE  C21918385   6.608   4.482   3.785
  164SAPE  H19R18386   6.516   4.479   3.723
  164SAPE  H19S18387   6.692   4.480   3.713
  164SAPE  C22018388   6.601   4.610   3.868
  164SAPE  H20R18389   6.688   4.622   3.936
  164SAPE  H20S18390   6.514   4.617   3.936
  164SAPE  H20T18391   6.597   4.693   3.794
  164SAPE   C3318392   5.992   4.346   2.620
  164SAPE   H3X18393   6.036   4.245   2.606
  164SAPE   H3Y18394   5.901   4.347   2.556
  164SAPE   C3418395   5.952   4.351   2.767
  164SAPE   H4X18396   5.921   4.250   2.802
  164SAPE   H4Y18397   5.861   4.415   2.774
  164SAPE   C3518398   6.059   4.410   2.861
  164SAPE   H5X18399   6.061   4.516   2.831
  164SAPE   H5Y18400   6.155   4.354   2.852
  164SAPE   C3618401   6.008   4.400   3.006
  164SAPE   H6X18402   5.983   4.299   3.042
  164SAPE   H6Y18403   5.918   4.466   3.003
  164SAPE   C3718404   6.097   4.476   3.114
  164SAPE   H7X18405   6.121   4.577   3.075
  164SAPE   H7Y18406   6.195   4.429   3.140
  164SAPE   C3818407   6.018   4.483   3.247
  164SAPE   H8X18408   5.948   4.397   3.252
  164SAPE   H8Y18409   5.952   4.572   3.255
  164SAPE   C3918410   6.107   4.476   3.369
  164SAPE   H9X18411   6.212   4.509   3.358
  164SAPE   H9Y18412   6.110   4.368   3.396
  164SAPE  C31018413   6.042   4.554   3.481
  164SAPE  H10X18414   5.932   4.541   3.476
  164SAPE  H10Y18415   6.061   4.663   3.477
  164SAPE  C31118416   6.097   4.500   3.616
  164SAPE  H11X18417   6.207   4.493   3.606
  164SAPE  H11Y18418   6.039   4.407   3.632
  164SAPE  C31218419   6.069   4.601   3.731
  164SAPE  H12X18420   5.964   4.636   3.721
  164SAPE  H12Y18421   6.144   4.683   3.729
  164SAPE  C31318422   6.085   4.536   3.876
  164SAPE  H13X18423   6.013   4.452   3.884
  164SAPE  H13Y18424   6.038   4.608   3.946
  164SAPE  C31418425   6.223   4.502   3.927
  164SAPE  H14X18426   6.282   4.597   3.930
  164SAPE  H14Y18427   6.276   4.435   3.856
  164SAPE  C31518428   6.217   4.439   4.066
  164SAPE  H15X18429   6.319   4.408   4.098
  164SAPE  H15Y18430   6.161   4.343   4.059
  164SAPE  C31618431   6.153   4.536   4.169
  164SAPE  H16X18432   6.044   4.551   4.152
  164SAPE  H16Y18433   6.198   4.638   4.163
  164SAPE  C31718434   6.187   4.494   4.315
  164SAPE  H17X18435   6.298   4.492   4.321
  164SAPE  H17Y18436   6.171   4.384   4.308
  164SAPE  C31818437   6.108   4.553   4.426
  164SAPE  H18X18438   6.000   4.525   4.429
  164SAPE  H18Y18439   6.103   4.664   4.435
  164SAPE  H18Z18440   6.137   4.525   4.529
  165SAPE     N18441   6.022   0.215   1.981
  165SAPE   HN118442   6.061   0.118   1.986
  165SAPE   HN218443   5.926   0.212   1.942
  165SAPE   HN318444   6.077   0.262   1.907
  165SAPE   C1218445   6.025   0.275   2.118
  165SAPE  H12A18446   5.979   0.376   2.112
  165SAPE  H12B18447   6.132   0.283   2.146
  165SAPE   C1118448   5.965   0.176   2.214
  165SAPE  H11A18449   5.975   0.220   2.315
  165SAPE  H11B18450   6.018   0.078   2.213
  165SAPE     P18451   5.712   0.211   2.256
  165SAPE   O1318452   5.718   0.358   2.229
  165SAPE   O1418453   5.588   0.134   2.228
  165SAPE   O1218454   5.831   0.141   2.184
  165SAPE   O1118455   5.755   0.183   2.405
  165SAPE    C118456   5.675   0.236   2.520
  165SAPE    HA18457   5.603   0.308   2.476
  165SAPE    HB18458   5.608   0.160   2.568
  165SAPE    C218459   5.775   0.295   2.618
  165SAPE    HS18460   5.850   0.356   2.562
  165SAPE   O2118461   5.840   0.181   2.681
  165SAPE   C2118462   5.956   0.216   2.741
  165SAPE   O2218463   6.009   0.326   2.727
  165SAPE   C2218464   6.013   0.097   2.821
  165SAPE   H2R18465   5.978   0.005   2.769
  165SAPE   H2S18466   6.123   0.112   2.814
  165SAPE    C318467   5.712   0.390   2.722
  165SAPE    HX18468   5.667   0.472   2.663
  165SAPE    HY18469   5.784   0.435   2.794
  165SAPE   O3118470   5.604   0.328   2.784
  165SAPE   C3118471   5.621   0.286   2.907
  165SAPE   O3218472   5.712   0.305   2.984
  165SAPE   C3218473   5.480   0.237   2.943
  165SAPE   H2X18474   5.408   0.223   2.860
  165SAPE   H2Y18475   5.438   0.312   3.014
  165SAPE   C2318476   5.967   0.105   2.968
  165SAPE   H3R18477   6.014   0.021   3.023
  165SAPE   H3S18478   5.859   0.083   2.969
  165SAPE   C2418479   6.013   0.233   3.043
  165SAPE   H4R18480   5.988   0.327   2.989
  165SAPE   H4S18481   6.124   0.236   3.043
  165SAPE   C2518482   5.966   0.256   3.185
  165SAPE   H5R18483   5.857   0.257   3.199
  165SAPE   C2618484   6.039   0.257   3.298
  165SAPE   H6R18485   5.984   0.266   3.393
  165SAPE   C2718486   6.194   0.246   3.304
  165SAPE   H7R18487   6.242   0.248   3.205
  165SAPE   H7S18488   6.226   0.148   3.345
  165SAPE   C2818489   6.251   0.362   3.391
  165SAPE   H8R18490   6.282   0.454   3.340
  165SAPE   C2918491   6.264   0.374   3.525
  165SAPE   H9R18492   6.336   0.449   3.563
  165SAPE  C21018493   6.239   0.274   3.633
  165SAPE  H10R18494   6.149   0.218   3.601
  165SAPE  H10S18495   6.218   0.331   3.725
  165SAPE  C21118496   6.357   0.185   3.658
  165SAPE  H11R18497   6.387   0.131   3.567
  165SAPE  C21218498   6.415   0.154   3.780
  165SAPE  H12R18499   6.508   0.096   3.772
  165SAPE  C21318500   6.368   0.192   3.917
  165SAPE  H13R18501   6.391   0.107   3.985
  165SAPE  H13S18502   6.260   0.208   3.937
  165SAPE  C21418503   6.444   0.323   3.951
  165SAPE  H14R18504   6.483   0.388   3.872
  165SAPE  C21518505   6.477   0.354   4.077
  165SAPE  H15R18506   6.552   0.434   4.090
  165SAPE  C21618507   6.451   0.277   4.200
  165SAPE  H16R18508   6.539   0.258   4.265
  165SAPE  H16S18509   6.417   0.173   4.179
  165SAPE  C21718510   6.341   0.345   4.285
  165SAPE  H17R18511   6.245   0.334   4.229
  165SAPE  H17S18512   6.353   0.455   4.283
  165SAPE  C21818513   6.322   0.301   4.431
  165SAPE  H18R18514   6.232   0.354   4.468
  165SAPE  H18S18515   6.412   0.330   4.490
  165SAPE  C21918516   6.300   0.152   4.434
  165SAPE  H19R18517   6.385   0.105   4.381
  165SAPE  H19S18518   6.214   0.124   4.369
  165SAPE  C22018519   6.286   0.088   4.572
  165SAPE  H20R18520   6.251   6.823   4.553
  165SAPE  H20S18521   6.208   0.142   4.630
  165SAPE  H20T18522   6.384   0.080   4.623
  165SAPE   C3318523   5.463   0.101   3.015
  165SAPE   H3X18524   5.551   0.038   2.990
  165SAPE   H3Y18525   5.376   0.045   2.975
  165SAPE   C3418526   5.452   0.102   3.164
  165SAPE   H4X18527   5.436   0.002   3.209
  165SAPE   H4Y18528   5.374   0.179   3.185
  165SAPE   C3518529   5.575   0.163   3.232
  165SAPE   H5X18530   5.599   0.268   3.207
  165SAPE   H5Y18531   5.663   0.108   3.193
  165SAPE   C3618532   5.561   0.153   3.378
  165SAPE   H6X18533   5.545   0.046   3.401
  165SAPE   H6Y18534   5.473   0.201   3.424
  165SAPE   C3718535   5.687   0.211   3.459
  165SAPE   H7X18536   5.679   0.313   3.415
  165SAPE   H7Y18537   5.775   0.156   3.418
  165SAPE   C3818538   5.667   0.189   3.609
  165SAPE   H8X18539   5.651   0.081   3.627
  165SAPE   H8Y18540   5.574   0.236   3.649
  165SAPE   C3918541   5.787   0.236   3.690
  165SAPE   H9X18542   5.815   0.343   3.674
  165SAPE   H9Y18543   5.879   0.184   3.657
  165SAPE  C31018544   5.773   0.201   3.838
  165SAPE  H10X18545   5.769   0.090   3.849
  165SAPE  H10Y18546   5.675   0.224   3.885
  165SAPE  C31118547   5.897   0.252   3.928
  165SAPE  H11X18548   5.902   0.362   3.921
  165SAPE  H11Y18549   5.997   0.216   3.896
  165SAPE  C31218550   5.870   0.206   4.070
  165SAPE  H12X18551   5.823   0.105   4.071
  165SAPE  H12Y18552   5.796   0.273   4.119
  165SAPE  C31318553   5.988   0.212   4.164
  165SAPE  H13X18554   6.044   0.303   4.135
  165SAPE  H13Y18555   6.052   0.121   4.160
  165SAPE  C31418556   5.943   0.229   4.308
  165SAPE  H14X18557   5.862   0.304   4.298
  165SAPE  H14Y18558   6.026   0.267   4.372
  165SAPE  C31518559   5.887   0.104   4.381
  165SAPE  H15X18560   5.963   0.024   4.368
  165SAPE  H15Y18561   5.789   0.068   4.341
  165SAPE  C31618562   5.876   0.122   4.537
  165SAPE  H16X18563   5.834   0.225   4.541
  165SAPE  H16Y18564   5.977   0.116   4.584
  165SAPE  C31718565   5.789   0.018   4.603
  165SAPE  H17X18566   5.713   6.824   4.529
  165SAPE  H17Y18567   5.740   0.060   4.694
  165SAPE  C31818568   5.861   6.728   4.639
  165SAPE  H18X18569   5.885   6.664   4.552
  165SAPE  H18Y18570   5.804   6.666   4.711
  165SAPE  H18Z18571   5.961   6.747   4.685
  166SAPE     N18572   0.369   5.309   2.162
  166SAPE   HN118573   0.392   5.250   2.245
  166SAPE   HN218574   0.299   5.256   2.106
  166SAPE   HN318575   0.452   5.319   2.101
  166SAPE   C1218576   0.303   5.433   2.214
  166SAPE  H12A18577   0.371   5.462   2.298
  166SAPE  H12B18578   0.206   5.393   2.252
  166SAPE   C1118579   0.298   5.544   2.107
  166SAPE  H11A18580   0.403   5.579   2.110
  166SAPE  H11B18581   0.237   5.631   2.140
  166SAPE     P18582   0.105   5.481   1.942
  166SAPE   O1318583   0.074   5.590   1.846
  166SAPE   O1418584   0.069   5.351   1.886
  166SAPE   O1218585   0.257   5.490   1.973
  166SAPE   O1118586   0.043   5.514   2.081
  166SAPE    C118587   6.796   5.415   2.142
  166SAPE    HA18588   6.716   5.395   2.067
  166SAPE    HB18589   0.016   5.321   2.152
  166SAPE    C218590   6.720   5.469   2.270
  166SAPE    HS18591   6.658   5.557   2.243
  166SAPE   O2118592   6.815   5.510   2.367
  166SAPE   C2118593   0.018   5.638   2.365
  166SAPE   O2218594   6.827   5.721   2.283
  166SAPE   C2218595   0.115   5.658   2.481
  166SAPE   H2R18596   0.043   5.656   2.566
  166SAPE   H2S18597   0.184   5.573   2.494
  166SAPE    C318598   6.622   5.357   2.326
  166SAPE    HX18599   6.684   5.273   2.365
  166SAPE    HY18600   6.557   5.334   2.239
  166SAPE   O3118601   6.549   5.416   2.433
  166SAPE   C3118602   6.480   5.328   2.502
  166SAPE   O3218603   6.461   5.209   2.469
  166SAPE   C3218604   6.401   5.407   2.601
  166SAPE   H2X18605   6.314   5.451   2.548
  166SAPE   H2Y18606   6.469   5.490   2.627
  166SAPE   C2318607   0.196   5.789   2.462
  166SAPE   H3R18608   0.134   5.880   2.451
  166SAPE   H3S18609   0.255   5.791   2.367
  166SAPE   C2418610   0.275   5.820   2.591
  166SAPE   H4R18611   0.197   5.844   2.666
  166SAPE   H4S18612   0.342   5.909   2.591
  166SAPE   C2518613   0.365   5.710   2.641
  166SAPE   H5R18614   0.429   5.667   2.563
  166SAPE   C2618615   0.344   5.631   2.751
  166SAPE   H6R18616   0.429   5.572   2.788
  166SAPE   C2718617   0.236   5.641   2.858
  166SAPE   H7R18618   0.229   5.535   2.892
  166SAPE   H7S18619   0.145   5.663   2.798
  166SAPE   C2818620   0.260   5.730   2.976
  166SAPE   H8R18621   0.356   5.710   3.027
  166SAPE   C2918622   0.190   5.843   3.003
  166SAPE   H9R18623   0.227   5.896   3.093
  166SAPE  C21018624   0.069   5.908   2.939
  166SAPE  H10R18625   0.031   5.861   2.846
  166SAPE  H10S18626   0.090   6.016   2.932
  166SAPE  C21118627   6.806   5.890   3.048
  166SAPE  H11R18628   6.830   5.949   3.138
  166SAPE  C21218629   6.690   5.821   3.052
  166SAPE  H12R18630   6.625   5.816   3.140
  166SAPE  C21318631   6.646   5.741   2.932
  166SAPE  H13R18632   6.632   5.637   2.969
  166SAPE  H13S18633   6.732   5.729   2.863
  166SAPE  C21418634   6.524   5.804   2.868
  166SAPE  H14R18635   6.437   5.821   2.934
  166SAPE  C21518636   6.497   5.805   2.734
  166SAPE  H15R18637   6.398   5.845   2.709
  166SAPE  C21618638   6.588   5.766   2.620
  166SAPE  H16R18639   6.537   5.708   2.540
  166SAPE  H16S18640   6.684   5.729   2.664
  166SAPE  C21718641   6.621   5.894   2.554
  166SAPE  H17R18642   6.524   5.945   2.537
  166SAPE  H17S18643   6.662   5.883   2.452
  166SAPE  C21818644   6.715   5.975   2.629
  166SAPE  H18R18645   6.811   5.919   2.634
  166SAPE  H18S18646   6.684   5.998   2.734
  166SAPE  C21918647   6.757   6.110   2.568
  166SAPE  H19R18648   6.674   6.181   2.584
  166SAPE  H19S18649   6.775   6.100   2.459
  166SAPE  C22018650   0.046   6.170   2.640
  166SAPE  H20R18651   0.051   6.276   2.605
  166SAPE  H20S18652   0.137   6.107   2.626
  166SAPE  H20T18653   0.033   6.182   2.750
  166SAPE   C3318654   6.379   5.341   2.738
  166SAPE   H3X18655   6.478   5.294   2.762
  166SAPE   H3Y18656   6.304   5.259   2.743
  166SAPE   C3418657   6.350   5.464   2.835
  166SAPE   H4X18658   6.262   5.522   2.800
  166SAPE   H4Y18659   6.433   5.537   2.826
  166SAPE   C3518660   6.338   5.417   2.986
  166SAPE   H5X18661   6.432   5.361   3.004
  166SAPE   H5Y18662   6.258   5.340   2.992
  166SAPE   C3618663   6.328   5.533   3.085
  166SAPE   H6X18664   6.238   5.585   3.046
  166SAPE   H6Y18665   6.414   5.602   3.073
  166SAPE   C3718666   6.305   5.498   3.234
  166SAPE   H7X18667   6.384   5.425   3.263
  166SAPE   H7Y18668   6.213   5.437   3.248
  166SAPE   C3818669   6.305   5.616   3.329
  166SAPE   H8X18670   6.227   5.692   3.306
  166SAPE   H8Y18671   6.407   5.661   3.329
  166SAPE   C3918672   6.278   5.571   3.472
  166SAPE   H9X18673   6.310   5.465   3.482
  166SAPE   H9Y18674   6.168   5.572   3.489
  166SAPE  C31018675   6.345   5.662   3.572
  166SAPE  H10X18676   6.301   5.764   3.563
  166SAPE  H10Y18677   6.452   5.682   3.550
  166SAPE  C31118678   6.323   5.621   3.714
  166SAPE  H11X18679   6.381   5.529   3.736
  166SAPE  H11Y18680   6.216   5.598   3.727
  166SAPE  C31218681   6.376   5.716   3.822
  166SAPE  H12X18682   6.302   5.799   3.834
  166SAPE  H12Y18683   6.465   5.769   3.781
  166SAPE  C31318684   6.399   5.650   3.957
  166SAPE  H13X18685   6.477   5.573   3.938
  166SAPE  H13Y18686   6.312   5.600   4.006
  166SAPE  C31418687   6.456   5.750   4.051
  166SAPE  H14X18688   6.374   5.816   4.085
  166SAPE  H14Y18689   6.522   5.819   3.995
  166SAPE  C31518690   6.513   5.679   4.181
  166SAPE  H15X18691   6.436   5.605   4.211
  166SAPE  H15Y18692   6.524   5.757   4.259
  166SAPE  C31618693   6.650   5.619   4.160
  166SAPE  H16X18694   6.729   5.695   4.145
  166SAPE  H16Y18695   6.650   5.572   4.059
  166SAPE  C31718696   6.699   5.515   4.260
  166SAPE  H17X18697   6.790   5.459   4.230
  166SAPE  H17Y18698   6.621   5.436   4.266
  166SAPE  C31818699   6.710   5.574   4.404
  166SAPE  H18X18700   6.615   5.629   4.425
  166SAPE  H18Y18701   6.796   5.644   4.402
  166SAPE  H18Z18702   6.739   5.501   4.483
  167SAPE     N18703   6.243   3.314   2.484
  167SAPE   HN118704   6.242   3.226   2.539
  167SAPE   HN218705   6.150   3.359   2.476
  167SAPE   HN318706   6.281   3.294   2.389
  167SAPE   C1218707   6.331   3.411   2.552
  167SAPE  H12A18708   6.426   3.356   2.571
  167SAPE  H12B18709   6.294   3.441   2.652
  167SAPE   C1118710   6.354   3.532   2.464
  167SAPE  H11A18711   6.418   3.593   2.531
  167SAPE  H11B18712   6.263   3.591   2.442
  167SAPE     P18713   6.470   3.608   2.237
  167SAPE   O1318714   6.468   3.536   2.108
  167SAPE   O1418715   6.391   3.735   2.247
  167SAPE   O1218716   6.436   3.495   2.344
  167SAPE   O1118717   6.617   3.639   2.270
  167SAPE    C118718   6.713   3.541   2.309
  167SAPE    HA18719   6.701   3.447   2.252
  167SAPE    HB18720   6.819   3.574   2.304
  167SAPE    C218721   6.714   3.499   2.463
  167SAPE    HS18722   6.618   3.446   2.480
  167SAPE   O2118723   6.729   3.618   2.534
  167SAPE   C2118724   6.683   3.622   2.661
  167SAPE   O2218725   6.616   3.529   2.708
  167SAPE   C2218726   6.706   3.754   2.725
  167SAPE   H2R18727   6.722   3.832   2.648
  167SAPE   H2S18728   6.619   3.775   2.791
  167SAPE    C318729   6.836   3.406   2.489
  167SAPE    HX18730   0.084   3.476   2.482
  167SAPE    HY18731   0.010   3.343   2.398
  167SAPE   O3118732   6.835   3.331   2.615
  167SAPE   C3118733   6.739   3.246   2.647
  167SAPE   O3218734   6.662   3.198   2.565
  167SAPE   C3218735   6.759   3.205   2.794
  167SAPE   H2X18736   6.749   3.299   2.852
  167SAPE   H2Y18737   0.022   3.160   2.795
  167SAPE   C2318738   6.830   3.754   2.814
  167SAPE   H3R18739   0.084   3.725   2.761
  167SAPE   H3S18740   6.819   3.673   2.889
  167SAPE   C2418741   0.020   3.883   2.897
  167SAPE   H4R18742   0.090   3.856   2.980
  167SAPE   H4S18743   6.761   3.914   2.939
  167SAPE   C2518744   0.073   3.989   2.811
  167SAPE   H5R18745   0.086   3.963   2.705
  167SAPE   C2618746   0.094   4.122   2.840
  167SAPE   H6R18747   0.126   4.191   2.760
  167SAPE   C2718748   0.064   4.191   2.972
  167SAPE   H7R18749   6.797   4.166   2.993
  167SAPE   H7S18750   0.063   4.300   2.946
  167SAPE   C2818751   0.156   4.166   3.087
  167SAPE   H8R18752   0.254   4.211   3.066
  167SAPE   C2918753   0.126   4.112   3.210
  167SAPE   H9R18754   0.210   4.117   3.281
  167SAPE  C21018755   6.830   4.058   3.259
  167SAPE  H10R18756   6.776   4.025   3.168
  167SAPE  H10S18757   6.778   4.145   3.303
  167SAPE  C21118758   0.011   3.946   3.364
  167SAPE  H11R18759   0.103   3.951   3.423
  167SAPE  C21218760   6.766   3.844   3.388
  167SAPE  H12R18761   6.784   3.773   3.470
  167SAPE  C21318762   6.640   3.810   3.308
  167SAPE  H13R18763   6.593   3.894   3.253
  167SAPE  H13S18764   6.565   3.769   3.379
  167SAPE  C21418765   6.676   3.705   3.205
  167SAPE  H14R18766   6.781   3.691   3.178
  167SAPE  C21518767   6.590   3.621   3.147
  167SAPE  H15R18768   6.628   3.558   3.065
  167SAPE  C21618769   6.442   3.617   3.160
  167SAPE  H16R18770   6.415   3.695   3.234
  167SAPE  H16S18771   6.405   3.529   3.215
  167SAPE  C21718772   6.349   3.636   3.038
  167SAPE  H17R18773   6.244   3.623   3.071
  167SAPE  H17S18774   6.372   3.560   2.961
  167SAPE  C21818775   6.362   3.771   2.967
  167SAPE  H18R18776   6.464   3.780   2.923
  167SAPE  H18S18777   6.346   3.849   3.044
  167SAPE  C21918778   6.261   3.801   2.855
  167SAPE  H19R18779   6.265   3.908   2.826
  167SAPE  H19S18780   6.160   3.786   2.897
  167SAPE  C22018781   6.271   3.710   2.729
  167SAPE  H20R18782   6.203   3.749   2.651
  167SAPE  H20S18783   6.252   3.603   2.753
  167SAPE  H20T18784   6.375   3.706   2.690
  167SAPE   C3318785   6.655   3.104   2.840
  167SAPE   H3X18786   6.676   2.997   2.821
  167SAPE   H3Y18787   6.552   3.133   2.810
  167SAPE   C3418788   6.645   3.110   3.000
  167SAPE   H4X18789   6.647   3.220   3.016
  167SAPE   H4Y18790   6.744   3.074   3.035
  167SAPE   C3518791   6.517   3.067   3.053
  167SAPE   H5X18792   6.505   2.958   3.035
  167SAPE   H5Y18793   6.445   3.125   2.992
  167SAPE   C3618794   6.496   3.103   3.196
  167SAPE   H6X18795   6.388   3.093   3.221
  167SAPE   H6Y18796   6.522   3.211   3.191
  167SAPE   C3718797   6.594   3.028   3.279
  167SAPE   H7X18798   6.701   3.046   3.254
  167SAPE   H7Y18799   6.584   2.917   3.283
  167SAPE   C3818800   6.577   3.078   3.427
  167SAPE   H8X18801   6.474   3.049   3.455
  167SAPE   H8Y18802   6.587   3.189   3.423
  167SAPE   C3918803   6.671   3.002   3.517
  167SAPE   H9X18804   6.761   2.976   3.457
  167SAPE   H9Y18805   6.643   2.896   3.536
  167SAPE  C31018806   6.696   3.073   3.649
  167SAPE  H10X18807   6.600   3.039   3.694
  167SAPE  H10Y18808   6.692   3.182   3.628
  167SAPE  C31118809   6.813   3.028   3.740
  167SAPE  H11X18810   6.826   3.096   3.827
  167SAPE  H11Y18811   0.056   3.047   3.667
  167SAPE  C31218812   6.813   2.880   3.765
  167SAPE  H12X18813   6.828   2.823   3.671
  167SAPE  H12Y18814   6.713   2.862   3.809
  167SAPE  C31318815   0.077   2.841   3.868
  167SAPE  H13X18816   0.094   2.923   3.940
  167SAPE  H13Y18817   0.176   2.814   3.826
  167SAPE  C31418818   0.030   2.709   3.935
  167SAPE  H14X18819   6.830   2.627   3.869
  167SAPE  H14Y18820   6.784   2.746   3.997
  167SAPE  C31518821   0.129   2.640   4.040
  167SAPE  H15X18822   0.143   2.708   4.126
  167SAPE  H15Y18823   0.227   2.631   3.988
  167SAPE  C31618824   0.074   2.509   4.102
  167SAPE  H16X18825   0.154   2.449   4.151
  167SAPE  H16Y18826   0.036   2.451   4.015
  167SAPE  C31718827   6.790   2.528   4.196
  167SAPE  H17X18828   6.700   2.570   4.147
  167SAPE  H17Y18829   6.827   2.593   4.278
  167SAPE  C31818830   6.755   2.402   4.281
  167SAPE  H18X18831   6.702   2.407   4.379
  167SAPE  H18Y18832   0.018   2.365   4.310
  167SAPE  H18Z18833   6.686   2.340   4.221
  168SAPE     N18834   1.919   5.862   2.577
  168SAPE   HN118835   1.930   5.784   2.646
  168SAPE   HN218836   1.874   5.941   2.628
  168SAPE   HN318837   1.868   5.820   2.497
  168SAPE   C1218838   2.058   5.898   2.535
  168SAPE  H12A18839   2.077   5.999   2.577
  168SAPE  H12B18840   2.054   5.919   2.426
  168SAPE   C1118841   2.148   5.780   2.550
  168SAPE  H11A18842   2.153   5.747   2.656
  168SAPE  H11B18843   2.249   5.812   2.516
  168SAPE     P18844   2.185   5.536   2.452
  168SAPE   O1318845   2.104   5.420   2.478
  168SAPE   O1418846   2.261   5.539   2.323
  168SAPE   O1218847   2.100   5.671   2.472
  168SAPE   O1118848   2.295   5.532   2.571
  168SAPE    C118849   2.418   5.596   2.574
  168SAPE    HA18850   2.482   5.577   2.484
  168SAPE    HB18851   2.409   5.706   2.591
  168SAPE    C218852   2.489   5.532   2.697
  168SAPE    HS18853   2.573   5.599   2.724
  168SAPE   O2118854   2.548   5.405   2.653
  168SAPE   C2118855   2.670   5.420   2.588
  168SAPE   O2218856   2.717   5.529   2.556
  168SAPE   C2218857   2.720   5.288   2.539
  168SAPE   H2R18858   2.651   5.207   2.568
  168SAPE   H2S18859   2.723   5.298   2.428
  168SAPE    C318860   2.398   5.523   2.813
  168SAPE    HX18861   2.347   5.429   2.782
  168SAPE    HY18862   2.322   5.604   2.814
  168SAPE   O3118863   2.466   5.512   2.941
  168SAPE   C3118864   2.403   5.443   3.031
  168SAPE   O3218865   2.304   5.377   3.016
  168SAPE   C3218866   2.475   5.461   3.164
  168SAPE   H2X18867   2.444   5.555   3.215
  168SAPE   H2Y18868   2.583   5.460   3.141
  168SAPE   C2318869   2.866   5.255   2.592
  168SAPE   H3R18870   2.934   5.336   2.556
  168SAPE   H3S18871   2.902   5.158   2.552
  168SAPE   C2418872   2.883   5.247   2.745
  168SAPE   H4R18873   2.867   5.346   2.793
  168SAPE   H4S18874   2.991   5.224   2.757
  168SAPE   C2518875   2.799   5.137   2.805
  168SAPE   H5R18876   2.772   5.059   2.733
  168SAPE   C2618877   2.755   5.132   2.930
  168SAPE   H6R18878   2.692   5.047   2.961
  168SAPE   C2718879   2.791   5.237   3.044
  168SAPE   H7R18880   2.693   5.285   3.065
  168SAPE   H7S18881   2.860   5.316   3.006
  168SAPE   C2818882   2.845   5.168   3.168
  168SAPE   H8R18883   2.778   5.086   3.193
  168SAPE   C2918884   2.953   5.214   3.244
  168SAPE   H9R18885   2.972   5.155   3.334
  168SAPE  C21018886   3.036   5.331   3.201
  168SAPE  H10R18887   2.979   5.426   3.201
  168SAPE  H10S18888   3.071   5.315   3.097
  168SAPE  C21118889   3.160   5.354   3.291
  168SAPE  H11R18890   3.165   5.320   3.395
  168SAPE  C21218891   3.265   5.437   3.261
  168SAPE  H12R18892   3.345   5.443   3.337
  168SAPE  C21318893   3.285   5.529   3.142
  168SAPE  H13R18894   3.233   5.627   3.156
  168SAPE  H13S18895   3.229   5.486   3.056
  168SAPE  C21418896   3.430   5.544   3.102
  168SAPE  H14R18897   3.472   5.483   3.021
  168SAPE  C21518898   3.505   5.647   3.144
  168SAPE  H15R18899   3.608   5.664   3.110
  168SAPE  C21618900   3.452   5.753   3.235
  168SAPE  H16R18901   3.518   5.747   3.324
  168SAPE  H16S18902   3.351   5.736   3.279
  168SAPE  C21718903   3.466   5.893   3.180
  168SAPE  H17R18904   3.574   5.910   3.158
  168SAPE  H17S18905   3.446   5.969   3.259
  168SAPE  C21818906   3.388   5.930   3.052
  168SAPE  H18R18907   3.279   5.941   3.069
  168SAPE  H18S18908   3.409   5.845   2.983
  168SAPE  C21918909   3.442   6.054   2.990
  168SAPE  H19R18910   3.553   6.054   2.978
  168SAPE  H19S18911   3.426   6.138   3.061
  168SAPE  C22018912   3.377   6.070   2.853
  168SAPE  H20R18913   3.429   6.001   2.783
  168SAPE  H20S18914   3.379   6.173   2.812
  168SAPE  H20T18915   3.269   6.043   2.863
  168SAPE   C3318916   2.439   5.333   3.242
  168SAPE   H3X18917   2.461   5.241   3.184
  168SAPE   H3Y18918   2.329   5.331   3.255
  168SAPE   C3418919   2.487   5.334   3.386
  168SAPE   H4X18920   2.453   5.427   3.437
  168SAPE   H4Y18921   2.598   5.340   3.391
  168SAPE   C3518922   2.430   5.218   3.471
  168SAPE   H5X18923   2.429   5.121   3.417
  168SAPE   H5Y18924   2.323   5.235   3.492
  168SAPE   C3618925   2.495   5.211   3.612
  168SAPE   H6X18926   2.507   5.307   3.665
  168SAPE   H6Y18927   2.591   5.154   3.620
  168SAPE   C3718928   2.392   5.156   3.712
  168SAPE   H7X18929   2.354   5.059   3.675
  168SAPE   H7Y18930   2.300   5.219   3.713
  168SAPE   C3818931   2.456   5.135   3.846
  168SAPE   H8X18932   2.520   5.217   3.886
  168SAPE   H8Y18933   2.517   5.044   3.827
  168SAPE   C3918934   2.346   5.097   3.945
  168SAPE   H9X18935   2.276   5.029   3.893
  168SAPE   H9Y18936   2.291   5.192   3.964
  168SAPE  C31018937   2.400   5.036   4.072
  168SAPE  H10X18938   2.450   5.100   4.148
  168SAPE  H10Y18939   2.490   4.977   4.046
  168SAPE  C31118940   2.298   4.948   4.140
  168SAPE  H11X18941   2.350   4.893   4.222
  168SAPE  H11Y18942   2.262   4.873   4.067
  168SAPE  C31218943   2.181   5.025   4.200
  168SAPE  H12X18944   2.123   4.949   4.257
  168SAPE  H12Y18945   2.114   5.061   4.119
  168SAPE  C31318946   2.231   5.132   4.302
  168SAPE  H13X18947   2.284   5.219   4.260
  168SAPE  H13Y18948   2.309   5.076   4.358
  168SAPE  C31418949   2.134   5.178   4.407
  168SAPE  H14X18950   2.049   5.106   4.402
  168SAPE  H14Y18951   2.077   5.270   4.384
  168SAPE  C31518952   2.195   5.185   4.544
  168SAPE  H15X18953   2.261   5.274   4.555
  168SAPE  H15Y18954   2.251   5.092   4.568
  168SAPE  C31618955   2.089   5.204   4.652
  168SAPE  H16X18956   2.147   5.227   4.743
  168SAPE  H16Y18957   2.040   5.107   4.676
  168SAPE  C31718958   1.980   5.308   4.623
  168SAPE  H17X18959   1.923   5.291   4.529
  168SAPE  H17Y18960   2.021   5.408   4.597
  168SAPE  C31818961   1.880   5.321   4.727
  168SAPE  H18X18962   1.934   5.339   4.823
  168SAPE  H18Y18963   1.820   5.228   4.740
  168SAPE  H18Z18964   1.809   5.405   4.706
  169SAPE     N18965   6.277   3.374   1.984
  169SAPE   HN118966   6.333   3.451   2.024
  169SAPE   HN218967   6.268   3.393   1.882
  169SAPE   HN318968   6.179   3.360   2.018
  169SAPE   C1218969   6.345   3.232   1.984
  169SAPE  H12A18970   6.436   3.237   1.921
  169SAPE  H12B18971   6.275   3.158   1.940
  169SAPE   C1118972   6.368   3.191   2.131
  169SAPE  H11A18973   6.438   3.261   2.183
  169SAPE  H11B18974   6.426   3.097   2.131
  169SAPE     P18975   6.194   3.032   2.238
  169SAPE   O1318976   6.048   3.040   2.253
  169SAPE   O1418977   6.245   2.927   2.150
  169SAPE   O1218978   6.248   3.171   2.195
  169SAPE   O1118979   6.261   3.032   2.383
  169SAPE    C118980   6.392   2.994   2.413
  169SAPE    HA18981   6.454   2.975   2.322
  169SAPE    HB18982   6.445   3.070   2.474
  169SAPE    C218983   6.405   2.849   2.486
  169SAPE    HS18984   6.335   2.776   2.440
  169SAPE   O2118985   6.377   2.860   2.628
  169SAPE   C2118986   6.313   2.761   2.677
  169SAPE   O2218987   6.279   2.657   2.618
  169SAPE   C2218988   6.273   2.792   2.820
  169SAPE   H2R18989   6.366   2.834   2.863
  169SAPE   H2S18990   6.201   2.876   2.821
  169SAPE    C318991   6.551   2.801   2.472
  169SAPE    HX18992   6.613   2.871   2.532
  169SAPE    HY18993   6.598   2.814   2.372
  169SAPE   O3118994   6.580   2.666   2.518
  169SAPE   C3118995   6.549   2.566   2.433
  169SAPE   O3218996   6.489   2.578   2.329
  169SAPE   C3218997   6.629   2.439   2.473
  169SAPE   H2X18998   6.719   2.456   2.536
  169SAPE   H2Y18999   6.663   2.394   2.377
  169SAPE   C2319000   6.215   2.679   2.902
  169SAPE   H3R19001   6.288   2.596   2.899
  169SAPE   H3S19002   6.128   2.639   2.845
  169SAPE   C2419003   6.178   2.727   3.043
  169SAPE   H4R19004   6.115   2.819   3.040
  169SAPE   H4S19005   6.265   2.760   3.105
  169SAPE   C2519006   6.101   2.629   3.127
  169SAPE   H5R19007   6.054   2.547   3.070
  169SAPE   C2619008   6.109   2.629   3.265
  169SAPE   H6R19009   6.058   2.550   3.321
  169SAPE   C2719010   6.182   2.724   3.354
  169SAPE   H7R19011   6.189   2.817   3.294
  169SAPE   H7S19012   6.287   2.688   3.353
  169SAPE   C2819013   6.143   2.764   3.496
  169SAPE   H8R19014   6.039   2.792   3.518
  169SAPE   C2919015   6.226   2.781   3.598
  169SAPE   H9R19016   6.182   2.801   3.697
  169SAPE  C21019017   6.375   2.751   3.593
  169SAPE  H10R19018   6.420   2.820   3.667
  169SAPE  H10S19019   6.415   2.788   3.496
  169SAPE  C21119020   6.432   2.613   3.621
  169SAPE  H11R19021   6.436   2.545   3.534
  169SAPE  C21219022   6.457   2.567   3.743
  169SAPE  H12R19023   6.452   2.459   3.761
  169SAPE  C21319024   6.448   2.637   3.877
  169SAPE  H13R19025   6.521   2.718   3.856
  169SAPE  H13S19026   6.491   2.556   3.941
  169SAPE  C21419027   6.313   2.684   3.927
  169SAPE  H14R19028   6.295   2.789   3.899
  169SAPE  C21519029   6.234   2.620   4.007
  169SAPE  H15R19030   6.141   2.668   4.040
  169SAPE  C21619031   6.249   2.481   4.057
  169SAPE  H16R19032   6.351   2.438   4.044
  169SAPE  H16S19033   6.182   2.413   4.000
  169SAPE  C21719034   6.218   2.459   4.207
  169SAPE  H17R19035   6.190   2.356   4.236
  169SAPE  H17S19036   6.123   2.512   4.228
  169SAPE  C21819037   6.336   2.490   4.299
  169SAPE  H18R19038   6.379   2.584   4.260
  169SAPE  H18S19039   6.412   2.412   4.276
  169SAPE  C21919040   6.300   2.489   4.447
  169SAPE  H19R19041   6.235   2.399   4.458
  169SAPE  H19S19042   6.238   2.577   4.474
  169SAPE  C22019043   6.421   2.474   4.541
  169SAPE  H20R19044   6.389   2.483   4.648
  169SAPE  H20S19045   6.499   2.548   4.515
  169SAPE  H20T19046   6.449   2.367   4.531
  169SAPE   C3319047   6.530   2.334   2.531
  169SAPE   H3X19048   6.530   2.232   2.487
  169SAPE   H3Y19049   6.425   2.371   2.535
  169SAPE   C3419050   6.567   2.313   2.677
  169SAPE   H4X19051   6.678   2.312   2.683
  169SAPE   H4Y19052   6.523   2.215   2.704
  169SAPE   C3519053   6.515   2.418   2.781
  169SAPE   H5X19054   6.407   2.426   2.754
  169SAPE   H5Y19055   6.570   2.514   2.766
  169SAPE   C3619056   6.536   2.373   2.932
  169SAPE   H6X19057   6.488   2.274   2.949
  169SAPE   H6Y19058   6.493   2.447   3.003
  169SAPE   C3719059   6.686   2.340   2.961
  169SAPE   H7X19060   6.756   2.424   2.940
  169SAPE   H7Y19061   6.717   2.258   2.893
  169SAPE   C3819062   6.709   2.298   3.105
  169SAPE   H8X19063   6.636   2.216   3.124
  169SAPE   H8Y19064   6.678   2.386   3.165
  169SAPE   C3919065   0.003   2.237   3.138
  169SAPE   H9X19066   0.088   2.308   3.146
  169SAPE   H9Y19067   0.024   2.156   3.064
  169SAPE  C31019068   0.012   2.160   3.272
  169SAPE  H10X19069   0.117   2.131   3.296
  169SAPE  H10Y19070   6.796   2.063   3.264
  169SAPE  C31119071   6.775   2.233   3.386
  169SAPE  H11X19072   6.668   2.215   3.365
  169SAPE  H11Y19073   6.801   2.338   3.361
  169SAPE  C31219074   6.810   2.196   3.526
  169SAPE  H12X19075   0.080   2.214   3.546
  169SAPE  H12Y19076   6.800   2.087   3.541
  169SAPE  C31319077   6.736   2.261   3.642
  169SAPE  H13X19078   6.633   2.295   3.615
  169SAPE  H13Y19079   6.784   2.359   3.662
  169SAPE  C31419080   6.724   2.176   3.769
  169SAPE  H14X19081   6.822   2.156   3.819
  169SAPE  H14Y19082   6.682   2.075   3.748
  169SAPE  C31519083   6.640   2.244   3.873
  169SAPE  H15X19084   6.534   2.259   3.841
  169SAPE  H15Y19085   6.689   2.340   3.901
  169SAPE  C31619086   6.642   2.162   4.008
  169SAPE  H16X19087   6.728   2.184   4.074
  169SAPE  H16Y19088   6.630   2.055   3.982
  169SAPE  C31719089   6.522   2.199   4.100
  169SAPE  H17X19090   6.440   2.174   4.030
  169SAPE  H17Y19091   6.517   2.309   4.120
  169SAPE  C31819092   6.509   2.125   4.235
  169SAPE  H18X19093   6.415   2.165   4.279
  169SAPE  H18Y19094   6.595   2.140   4.303
  169SAPE  H18Z19095   6.489   2.017   4.220
  170SAPE     N19096   0.281   4.168   2.004
  170SAPE   HN119097   0.217   4.091   2.031
  170SAPE   HN219098   0.334   4.188   2.092
  170SAPE   HN319099   0.210   4.236   1.972
  170SAPE   C1219100   0.362   4.102   1.897
  170SAPE  H12A19101   0.448   4.171   1.881
  170SAPE  H12B19102   0.306   4.092   1.802
  170SAPE   C1119103   0.403   3.959   1.931
  170SAPE  H11A19104   0.489   3.962   2.001
  170SAPE  H11B19105   0.437   3.921   1.832
  170SAPE     P19106   0.311   3.718   1.983
  170SAPE   O1319107   0.182   3.656   1.973
  170SAPE   O1419108   0.408   3.673   1.877
  170SAPE   O1219109   0.290   3.877   1.974
  170SAPE   O1119110   0.371   3.698   2.132
  170SAPE    C119111   0.283   3.741   2.235
  170SAPE    HA19112   0.274   3.851   2.234
  170SAPE    HB19113   0.179   3.701   2.236
  170SAPE    C219114   0.333   3.699   2.371
  170SAPE    HS19115   0.442   3.721   2.377
  170SAPE   O2119116   0.306   3.561   2.394
  170SAPE   C2119117   0.404   3.491   2.455
  170SAPE   O2219118   0.504   3.545   2.503
  170SAPE   C2219119   0.362   3.348   2.467
  170SAPE   H2R19120   0.278   3.350   2.540
  170SAPE   H2S19121   0.332   3.319   2.364
  170SAPE    C319122   0.268   3.788   2.477
  170SAPE    HX19123   0.159   3.782   2.460
  170SAPE    HY19124   0.298   3.894   2.465
  170SAPE   O3119125   0.299   3.747   2.611
  170SAPE   C3119126   0.407   3.803   2.670
  170SAPE   O3219127   0.476   3.897   2.629
  170SAPE   C3219128   0.432   3.733   2.799
  170SAPE   H2X19129   0.535   3.694   2.780
  170SAPE   H2Y19130   0.350   3.661   2.817
  170SAPE   C2319131   0.478   3.255   2.502
  170SAPE   H3R19132   0.572   3.269   2.444
  170SAPE   H3S19133   0.460   3.155   2.457
  170SAPE   C2419134   0.515   3.238   2.650
  170SAPE   H4R19135   0.524   3.337   2.698
  170SAPE   H4S19136   0.615   3.190   2.656
  170SAPE   C2519137   0.396   3.162   2.707
  170SAPE   H5R19138   0.376   3.071   2.648
  170SAPE   C2619139   0.315   3.198   2.811
  170SAPE   H6R19140   0.234   3.133   2.845
  170SAPE   C2719141   0.329   3.310   2.912
  170SAPE   H7R19142   0.423   3.369   2.903
  170SAPE   H7S19143   0.354   3.267   3.011
  170SAPE   C2819144   0.218   3.408   2.910
  170SAPE   H8R19145   0.179   3.443   2.814
  170SAPE   C2919146   0.152   3.453   3.017
  170SAPE   H9R19147   0.057   3.506   3.002
  170SAPE  C21019148   0.177   3.418   3.159
  170SAPE  H10R19149   0.188   3.507   3.225
  170SAPE  H10S19150   0.264   3.350   3.167
  170SAPE  C21119151   0.058   3.339   3.203
  170SAPE  H11R19152   0.031   3.260   3.131
  170SAPE  C21219153   6.833   3.331   3.323
  170SAPE  H12R19154   6.746   3.262   3.325
  170SAPE  C21319155   0.004   3.413   3.456
  170SAPE  H13R19156   6.741   3.398   3.498
  170SAPE  H13S19157   0.023   3.518   3.424
  170SAPE  C21419158   0.122   3.359   3.525
  170SAPE  H14R19159   0.197   3.306   3.465
  170SAPE  C21519160   0.123   3.352   3.656
  170SAPE  H15R19161   0.211   3.311   3.708
  170SAPE  C21619162   0.022   3.417   3.749
  170SAPE  H16R19163   0.007   3.354   3.839
  170SAPE  H16S19164   6.757   3.428   3.711
  170SAPE  C21719165   0.050   3.561   3.791
  170SAPE  H17R19166   0.092   3.618   3.706
  170SAPE  H17S19167   0.141   3.559   3.855
  170SAPE  C21819168   6.772   3.640   3.858
  170SAPE  H18R19169   6.802   3.707   3.942
  170SAPE  H18S19170   6.694   3.576   3.905
  170SAPE  C21919171   6.710   3.729   3.756
  170SAPE  H19R19172   6.611   3.764   3.791
  170SAPE  H19S19173   6.691   3.669   3.664
  170SAPE  C22019174   6.795   3.849   3.721
  170SAPE  H20R19175   0.056   3.824   3.679
  170SAPE  H20S19176   6.807   3.914   3.810
  170SAPE  H20T19177   6.741   3.923   3.658
  170SAPE   C3319178   0.426   3.821   2.918
  170SAPE   H3X19179   0.332   3.880   2.918
  170SAPE   H3Y19180   0.510   3.893   2.917
  170SAPE   C3419181   0.451   3.730   3.036
  170SAPE   H4X19182   0.552   3.685   3.026
  170SAPE   H4Y19183   0.382   3.643   3.032
  170SAPE   C3519184   0.427   3.803   3.169
  170SAPE   H5X19185   0.324   3.842   3.165
  170SAPE   H5Y19186   0.499   3.887   3.176
  170SAPE   C3619187   0.444   3.712   3.293
  170SAPE   H6X19188   0.550   3.680   3.291
  170SAPE   H6Y19189   0.372   3.628   3.280
  170SAPE   C3719190   0.397   3.762   3.431
  170SAPE   H7X19191   0.289   3.785   3.443
  170SAPE   H7Y19192   0.459   3.853   3.449
  170SAPE   C3819193   0.430   3.669   3.551
  170SAPE   H8X19194   0.538   3.645   3.556
  170SAPE   H8Y19195   0.373   3.573   3.551
  170SAPE   C3919196   0.388   3.739   3.687
  170SAPE   H9X19197   0.278   3.757   3.682
  170SAPE   H9Y19198   0.447   3.833   3.687
  170SAPE  C31019199   0.435   3.644   3.795
  170SAPE  H10X19200   0.543   3.620   3.779
  170SAPE  H10Y19201   0.384   3.547   3.776
  170SAPE  C31119202   0.394   3.707   3.933
  170SAPE  H11X19203   0.422   3.638   4.016
  170SAPE  H11Y19204   0.283   3.708   3.933
  170SAPE  C31219205   0.444   3.853   3.959
  170SAPE  H12X19206   0.393   3.926   3.892
  170SAPE  H12Y19207   0.552   3.864   3.940
  170SAPE  C31319208   0.398   3.899   4.101
  170SAPE  H13X19209   0.440   4.001   4.115
  170SAPE  H13Y19210   0.453   3.830   4.168
  170SAPE  C31419211   0.244   3.907   4.119
  170SAPE  H14X19212   0.199   3.805   4.120
  170SAPE  H14Y19213   0.201   3.954   4.028
  170SAPE  C31519214   0.207   3.969   4.258
  170SAPE  H15X19215   0.221   4.079   4.262
  170SAPE  H15Y19216   0.277   3.927   4.333
  170SAPE  C31619217   0.061   3.954   4.299
  170SAPE  H16X19218   0.045   3.845   4.318
  170SAPE  H16Y19219   6.830   4.000   4.226
  170SAPE  C31719220   0.022   3.997   4.445
  170SAPE  H17X19221   0.046   4.105   4.440
  170SAPE  H17Y19222   0.101   3.956   4.511
  170SAPE  C31819223   6.719   3.968   4.498
  170SAPE  H18X19224   6.648   4.033   4.442
  170SAPE  H18Y19225   6.703   3.989   4.605
  170SAPE  H18Z19226   6.684   3.865   4.475
  171SAPE     N19227   0.607   2.970   2.059
  171SAPE   HN119228   0.665   2.895   2.014
  171SAPE   HN219229   0.542   3.001   1.984
  171SAPE   HN319230   0.669   3.050   2.079
  171SAPE   C1219231   0.536   2.918   2.189
  171SAPE  H12A19232   0.580   2.951   2.285
  171SAPE  H12B19233   0.549   2.808   2.183
  171SAPE   C1119234   0.390   2.961   2.189
  171SAPE  H11A19235   0.342   2.912   2.102
  171SAPE  H11B19236   0.385   3.071   2.169
  171SAPE     P19237   0.177   2.898   2.308
  171SAPE   O1319238   0.113   3.033   2.314
  171SAPE   O1419239   0.145   2.806   2.201
  171SAPE   O1219240   0.329   2.920   2.312
  171SAPE   O1119241   0.143   2.831   2.443
  171SAPE    C119242   0.233   2.849   2.552
  171SAPE    HA19243   0.336   2.817   2.525
  171SAPE    HB19244   0.231   2.954   2.588
  171SAPE    C219245   0.182   2.759   2.667
  171SAPE    HS19246   0.248   2.796   2.748
  171SAPE   O2119247   0.208   2.625   2.629
  171SAPE   C2119248   0.216   2.536   2.736
  171SAPE   O2219249   0.225   2.569   2.852
  171SAPE   C2219250   0.204   2.390   2.690
  171SAPE   H2R19251   0.108   2.372   2.637
  171SAPE   H2S19252   0.288   2.381   2.618
  171SAPE    C319253   0.034   2.778   2.706
  171SAPE    HX19254   6.814   2.734   2.622
  171SAPE    HY19255   0.010   2.886   2.713
  171SAPE   O3119256   6.833   2.707   2.822
  171SAPE   C3119257   0.033   2.763   2.935
  171SAPE   O3219258   0.092   2.871   2.942
  171SAPE   C3219259   6.824   2.676   3.055
  171SAPE   H2X19260   0.035   2.580   3.027
  171SAPE   H2Y19261   6.714   2.663   3.047
  171SAPE   C2319262   0.216   2.301   2.809
  171SAPE   H3R19263   0.131   2.304   2.880
  171SAPE   H3S19264   0.302   2.323   2.875
  171SAPE   C2419265   0.233   2.154   2.766
  171SAPE   H4R19266   0.263   2.090   2.851
  171SAPE   H4S19267   0.323   2.152   2.701
  171SAPE   C2519268   0.122   2.109   2.672
  171SAPE   H5R19269   0.122   2.154   2.572
  171SAPE   C2619270   0.029   2.010   2.696
  171SAPE   H6R19271   6.787   1.995   2.622
  171SAPE   C2719272   6.835   1.948   2.829
  171SAPE   H7R19273   6.724   1.956   2.840
  171SAPE   H7S19274   0.022   2.016   2.913
  171SAPE   C2819275   0.045   1.805   2.850
  171SAPE   H8R19276   0.093   1.761   2.762
  171SAPE   C2919277   0.029   1.736   2.965
  171SAPE   H9R19278   0.071   1.635   2.979
  171SAPE  C21019279   6.812   1.800   3.081
  171SAPE  H10R19280   6.734   1.874   3.054
  171SAPE  H10S19281   0.056   1.860   3.127
  171SAPE  C21119282   6.756   1.702   3.186
  171SAPE  H11R19283   6.670   1.645   3.149
  171SAPE  C21219284   6.806   1.671   3.304
  171SAPE  H12R19285   6.735   1.609   3.361
  171SAPE  C21319286   0.082   1.732   3.379
  171SAPE  H13R19287   0.124   1.816   3.319
  171SAPE  H13S19288   0.160   1.653   3.384
  171SAPE  C21419289   0.048   1.767   3.518
  171SAPE  H14R19290   0.032   1.874   3.538
  171SAPE  C21519291   0.031   1.682   3.617
  171SAPE  H15R19292   6.836   1.724   3.713
  171SAPE  C21619293   0.054   1.535   3.608
  171SAPE  H16R19294   0.074   1.505   3.503
  171SAPE  H16S19295   6.797   1.490   3.643
  171SAPE  C21719296   0.159   1.491   3.704
  171SAPE  H17R19297   0.237   1.570   3.696
  171SAPE  H17S19298   0.196   1.394   3.663
  171SAPE  C21819299   0.116   1.483   3.849
  171SAPE  H18R19300   0.029   1.415   3.851
  171SAPE  H18S19301   0.097   1.585   3.890
  171SAPE  C21919302   0.232   1.431   3.934
  171SAPE  H19R19303   0.220   1.458   4.041
  171SAPE  H19S19304   0.324   1.488   3.907
  171SAPE  C22019305   0.253   1.278   3.918
  171SAPE  H20R19306   0.314   1.236   4.001
  171SAPE  H20S19307   0.304   1.256   3.822
  171SAPE  H20T19308   0.150   1.236   3.912
  171SAPE   C3319309   0.026   2.733   3.192
  171SAPE   H3X19310   6.795   2.810   3.232
  171SAPE   H3Y19311   0.125   2.782   3.182
  171SAPE   C3419312   0.036   2.618   3.293
  171SAPE   H4X19313   0.127   2.558   3.276
  171SAPE   H4Y19314   6.784   2.554   3.288
  171SAPE   C3519315   0.032   2.675   3.434
  171SAPE   H5X19316   6.768   2.696   3.474
  171SAPE   H5Y19317   0.077   2.776   3.429
  171SAPE   C3619318   0.105   2.586   3.538
  171SAPE   H6X19319   0.051   2.491   3.559
  171SAPE   H6Y19320   0.097   2.639   3.636
  171SAPE   C3719321   0.251   2.561   3.519
  171SAPE   H7X19322   0.302   2.645   3.468
  171SAPE   H7Y19323   0.281   2.473   3.459
  171SAPE   C3819324   0.333   2.538   3.653
  171SAPE   H8X19325   0.330   2.625   3.723
  171SAPE   H8Y19326   0.436   2.500   3.637
  171SAPE   C3919327   0.255   2.439   3.745
  171SAPE   H9X19328   0.221   2.365   3.669
  171SAPE   H9Y19329   0.157   2.475   3.784
  171SAPE  C31019330   0.332   2.371   3.860
  171SAPE  H10X19331   0.343   2.448   3.940
  171SAPE  H10Y19332   0.429   2.339   3.817
  171SAPE  C31119333   0.263   2.243   3.918
  171SAPE  H11X19334   0.293   2.162   3.847
  171SAPE  H11Y19335   0.156   2.269   3.912
  171SAPE  C31219336   0.319   2.202   4.066
  171SAPE  H12X19337   0.301   2.298   4.119
  171SAPE  H12Y19338   0.428   2.186   4.051
  171SAPE  C31319339   0.248   2.076   4.127
  171SAPE  H13X19340   0.284   1.998   4.056
  171SAPE  H13Y19341   0.141   2.094   4.107
  171SAPE  C31419342   0.270   2.028   4.270
  171SAPE  H14X19343   0.218   1.930   4.280
  171SAPE  H14Y19344   0.234   2.096   4.351
  171SAPE  C31519345   0.414   1.992   4.290
  171SAPE  H15X19346   0.476   2.083   4.272
  171SAPE  H15Y19347   0.452   1.919   4.215
  171SAPE  C31619348   0.454   1.944   4.430
  171SAPE  H16X19349   0.413   2.021   4.499
  171SAPE  H16Y19350   0.564   1.935   4.445
  171SAPE  C31719351   0.388   1.807   4.476
  171SAPE  H17X19352   0.464   1.744   4.527
  171SAPE  H17Y19353   0.356   1.758   4.382
  171SAPE  C31819354   0.277   1.815   4.585
  171SAPE  H18X19355   0.203   1.894   4.560
  171SAPE  H18Y19356   0.323   1.836   4.684
  171SAPE  H18Z19357   0.239   1.711   4.587
  172SAPE     N19358   0.677   4.763   2.088
  172SAPE   HN119359   0.636   4.858   2.101
  172SAPE   HN219360   0.781   4.775   2.086
  172SAPE   HN319361   0.656   4.735   1.990
  172SAPE   C1219362   0.641   4.677   2.210
  172SAPE  H12A19363   0.705   4.713   2.293
  172SAPE  H12B19364   0.680   4.577   2.182
  172SAPE   C1119365   0.488   4.682   2.249
  172SAPE  H11A19366   0.481   4.609   2.333
  172SAPE  H11B19367   0.412   4.649   2.175
  172SAPE     P19368   0.390   4.925   2.210
  172SAPE   O1319369   0.457   4.919   2.084
  172SAPE   O1419370   0.244   4.912   2.204
  172SAPE   O1219371   0.449   4.811   2.305
  172SAPE   O1119372   0.439   5.054   2.280
  172SAPE    C119373   0.561   5.070   2.354
  172SAPE    HA19374   0.643   5.001   2.323
  172SAPE    HB19375   0.607   5.171   2.349
  172SAPE    C219376   0.559   5.041   2.505
  172SAPE    HS19377   0.576   4.932   2.522
  172SAPE   O2119378   0.428   5.081   2.559
  172SAPE   C2119379   0.379   5.203   2.542
  172SAPE   O2219380   0.407   5.290   2.462
  172SAPE   C2219381   0.258   5.201   2.636
  172SAPE   H2R19382   0.202   5.108   2.610
  172SAPE   H2S19383   0.290   5.182   2.741
  172SAPE    C319384   0.671   5.120   2.571
  172SAPE    HX19385   0.653   5.228   2.551
  172SAPE    HY19386   0.760   5.099   2.509
  172SAPE   O3119387   0.702   5.079   2.708
  172SAPE   C3119388   0.646   5.161   2.804
  172SAPE   O3219389   0.574   5.256   2.779
  172SAPE   C3219390   0.705   5.120   2.943
  172SAPE   H2X19391   0.790   5.189   2.960
  172SAPE   H2Y19392   0.757   5.021   2.940
  172SAPE   C2319393   0.164   5.332   2.618
  172SAPE   H3R19394   0.126   5.330   2.514
  172SAPE   H3S19395   0.230   5.422   2.628
  172SAPE   C2419396   0.045   5.308   2.708
  172SAPE   H4R19397   6.828   5.404   2.713
  172SAPE   H4S19398   0.076   5.279   2.811
  172SAPE   C2519399   6.798   5.198   2.655
  172SAPE   H5R19400   6.751   5.205   2.556
  172SAPE   C2619401   6.733   5.107   2.732
  172SAPE   H6R19402   6.672   5.027   2.688
  172SAPE   C2719403   6.771   5.090   2.875
  172SAPE   H7R19404   0.044   5.089   2.884
  172SAPE   H7S19405   6.738   4.986   2.892
  172SAPE   C2819406   6.699   5.181   2.976
  172SAPE   H8R19407   6.654   5.270   2.931
  172SAPE   C2919408   6.680   5.157   3.113
  172SAPE   H9R19409   6.616   5.227   3.168
  172SAPE  C21019410   6.738   5.041   3.184
  172SAPE  H10R19411   6.807   4.985   3.117
  172SAPE  H10S19412   6.654   4.967   3.190
  172SAPE  C21119413   6.803   5.067   3.319
  172SAPE  H11R19414   6.735   5.020   3.392
  172SAPE  C21219415   0.089   5.116   3.340
  172SAPE  H12R19416   0.129   5.118   3.442
  172SAPE  C21319417   0.176   5.176   3.225
  172SAPE  H13R19418   0.109   5.219   3.147
  172SAPE  H13S19419   0.236   5.097   3.175
  172SAPE  C21419420   0.255   5.297   3.251
  172SAPE  H14R19421   0.364   5.281   3.247
  172SAPE  C21519422   0.199   5.423   3.269
  172SAPE  H15R19423   0.261   5.514   3.273
  172SAPE  C21619424   0.049   5.454   3.258
  172SAPE  H16R19425   6.819   5.366   3.254
  172SAPE  H16S19426   0.025   5.510   3.165
  172SAPE  C21719427   6.837   5.545   3.372
  172SAPE  H17R19428   6.730   5.568   3.349
  172SAPE  H17S19429   0.056   5.640   3.378
  172SAPE  C21819430   6.818   5.474   3.507
  172SAPE  H18R19431   0.082   5.434   3.527
  172SAPE  H18S19432   6.759   5.379   3.506
  172SAPE  C21919433   6.778   5.564   3.626
  172SAPE  H19R19434   6.679   5.604   3.595
  172SAPE  H19S19435   0.013   5.647   3.637
  172SAPE  C22019436   6.755   5.505   3.763
  172SAPE  H20R19437   6.707   5.406   3.754
  172SAPE  H20S19438   6.693   5.569   3.830
  172SAPE  H20T19439   0.012   5.496   3.821
  172SAPE   C3319440   0.608   5.129   3.058
  172SAPE   H3X19441   0.528   5.055   3.036
  172SAPE   H3Y19442   0.560   5.230   3.068
  172SAPE   C3419443   0.670   5.088   3.190
  172SAPE   H4X19444   0.764   5.142   3.211
  172SAPE   H4Y19445   0.699   4.981   3.181
  172SAPE   C3519446   0.573   5.107   3.311
  172SAPE   H5X19447   0.573   5.015   3.374
  172SAPE   H5Y19448   0.466   5.116   3.283
  172SAPE   C3619449   0.616   5.230   3.398
  172SAPE   H6X19450   0.582   5.325   3.352
  172SAPE   H6Y19451   0.727   5.226   3.401
  172SAPE   C3719452   0.548   5.225   3.539
  172SAPE   H7X19453   0.605   5.141   3.582
  172SAPE   H7Y19454   0.438   5.213   3.529
  172SAPE   C3819455   0.578   5.356   3.611
  172SAPE   H8X19456   0.547   5.442   3.547
  172SAPE   H8Y19457   0.687   5.376   3.606
  172SAPE   C3919458   0.535   5.368   3.758
  172SAPE   H9X19459   0.425   5.371   3.771
  172SAPE   H9Y19460   0.574   5.464   3.798
  172SAPE  C31019461   0.587   5.251   3.840
  172SAPE  H10X19462   0.696   5.242   3.817
  172SAPE  H10Y19463   0.529   5.159   3.819
  172SAPE  C31119464   0.570   5.281   3.993
  172SAPE  H11X19465   0.466   5.320   4.002
  172SAPE  H11Y19466   0.643   5.361   4.017
  172SAPE  C31219467   0.598   5.158   4.087
  172SAPE  H12X19468   0.702   5.131   4.056
  172SAPE  H12Y19469   0.533   5.073   4.056
  172SAPE  C31319470   0.594   5.187   4.236
  172SAPE  H13X19471   0.666   5.262   4.277
  172SAPE  H13Y19472   0.612   5.091   4.289
  172SAPE  C31419473   0.460   5.240   4.289
  172SAPE  H14X19474   0.429   5.336   4.242
  172SAPE  H14Y19475   0.473   5.257   4.398
  172SAPE  C31519476   0.345   5.139   4.267
  172SAPE  H15X19477   0.367   5.052   4.333
  172SAPE  H15Y19478   0.344   5.107   4.161
  172SAPE  C31619479   0.210   5.199   4.308
  172SAPE  H16X19480   0.130   5.122   4.312
  172SAPE  H16Y19481   0.176   5.280   4.240
  172SAPE  C31719482   0.204   5.273   4.449
  172SAPE  H17X19483   0.102   5.313   4.468
  172SAPE  H17Y19484   0.261   5.369   4.444
  172SAPE  C31819485   0.248   5.192   4.567
  172SAPE  H18X19486   0.266   5.249   4.661
  172SAPE  H18Y19487   0.339   5.137   4.533
  172SAPE  H18Z19488   0.168   5.119   4.590
  173SLPC     N19489   5.909   0.061   6.939
  173SLPC   C1319490   5.966   6.823   7.050
  173SLPC  H13A19491   6.070   6.799   7.034
  173SLPC  H13B19492   5.956   0.034   7.146
  173SLPC  H13C19493   5.918   6.727   7.054
  173SLPC   C1419494   5.944   0.204   6.966
  173SLPC  H14A19495   5.871   0.266   6.916
  173SLPC  H14B19496   5.937   0.233   7.070
  173SLPC  H14C19497   6.043   0.230   6.934
  173SLPC   C1519498   5.757   0.039   6.946
  173SLPC  H15A19499   5.735   0.016   7.049
  173SLPC  H15B19500   5.702   0.124   6.908
  173SLPC  H15C19501   5.729   6.789   6.890
  173SLPC   C1219502   5.966   0.020   6.804
  173SLPC  H12A19503   5.917   0.078   6.727
  173SLPC  H12B19504   5.940   6.756   6.783
  173SLPC   C1119505   6.117   0.032   6.784
  173SLPC  H11A19506   6.144   0.140   6.786
  173SLPC  H11B19507   6.129   6.838   6.678
  173SLPC     P19508   6.264   6.654   6.832
  173SLPC   O1319509   6.345   6.600   6.942
  173SLPC   O1419510   6.156   6.565   6.776
  173SLPC   O1219511   6.201   6.792   6.872
  173SLPC   O1119512   6.365   6.689   6.721
  173SLPC    C119513   6.405   6.815   6.673
  173SLPC    HA19514   6.359   0.060   6.731
  173SLPC    HB19515   6.515   6.825   6.684
  173SLPC    C219516   6.376   0.000   6.522
  173SLPC    HS19517   6.268   6.818   6.507
  173SLPC   O2119518   6.473   6.769   6.438
  173SLPC   C2119519   6.433   6.696   6.335
  173SLPC   O2219520   6.321   6.654   6.321
  173SLPC   C2219521   6.557   6.663   6.250
  173SLPC   H2R19522   6.602   6.761   6.223
  173SLPC   H2S19523   6.635   6.616   6.313
  173SLPC    C319524   6.407   0.153   6.499
  173SLPC    HX19525   6.508   0.178   6.536
  173SLPC    HY19526   6.334   0.214   6.556
  173SLPC   O3119527   6.408   0.188   6.363
  173SLPC   C3119528   6.297   0.198   6.303
  173SLPC   O3219529   6.188   0.211   6.343
  173SLPC   C3219530   6.334   0.234   6.156
  173SLPC   H2X19531   6.399   0.146   6.136
  173SLPC   H2Y19532   6.382   0.333   6.143
  173SLPC   C2319533   6.527   6.580   6.119
  173SLPC   H3R19534   6.457   6.496   6.136
  173SLPC   H3S19535   6.627   6.537   6.096
  173SLPC   C2419536   6.481   6.676   6.005
  173SLPC   H4R19537   6.535   6.772   6.014
  173SLPC   H4S19538   6.375   6.702   6.027
  173SLPC   C2519539   6.490   6.628   5.864
  173SLPC   H5R19540   6.597   6.600   5.847
  173SLPC   H5S19541   6.469   6.709   5.790
  173SLPC   C2619542   6.394   6.515   5.829
  173SLPC   H6R19543   6.375   6.431   5.899
  173SLPC   H6S19544   6.410   6.458   5.735
  173SLPC   C2719545   6.252   6.579   5.814
  173SLPC   H7R19546   6.240   6.649   5.729
  173SLPC   H7S19547   6.218   6.644   5.898
  173SLPC   C2819548   6.145   6.466   5.799
  173SLPC   H8R19549   6.128   6.402   5.888
  173SLPC   H8S19550   6.187   6.402   5.718
  173SLPC   C2919551   6.016   6.534   5.757
  173SLPC   H9R19552   5.970   6.600   5.831
  173SLPC  C21019553   5.951   6.517   5.639
  173SLPC  H10R19554   5.853   6.568   5.634
  173SLPC  C21119555   5.990   6.439   5.522
  173SLPC  H11R19556   6.100   6.424   5.519
  173SLPC  H11S19557   5.976   6.496   5.427
  173SLPC  C21219558   5.918   6.305   5.533
  173SLPC  H12R19559   5.952   6.252   5.623
  173SLPC  C21319560   5.827   6.247   5.456
  173SLPC  H13R19561   5.786   6.147   5.478
  173SLPC  C21419562   5.772   6.294   5.323
  173SLPC  H14R19563   5.814   6.396   5.308
  173SLPC  H14S19564   5.661   6.296   5.322
  173SLPC  C21519565   5.833   6.201   5.211
  173SLPC  H15R19566   5.789   6.099   5.219
  173SLPC  H15S19567   5.945   6.204   5.214
  173SLPC  C21619568   5.784   6.238   5.074
  173SLPC  H16R19569   5.673   6.244   5.074
  173SLPC  H16S19570   5.813   6.159   5.002
  173SLPC  C21719571   5.839   6.367   5.019
  173SLPC  H17R19572   5.950   6.364   5.027
  173SLPC  H17S19573   5.799   6.458   5.069
  173SLPC  C21819574   5.801   6.377   4.865
  173SLPC  H18R19575   5.804   6.483   4.831
  173SLPC  H18S19576   5.696   6.343   4.851
  173SLPC  H18T19577   5.853   6.302   4.803
  173SLPC   C3319578   6.220   0.210   6.052
  173SLPC   H3X19579   6.162   0.301   6.028
  173SLPC   H3Y19580   6.154   0.134   6.099
  173SLPC   C3419581   6.269   0.157   5.913
  173SLPC   H4X19582   6.183   0.101   5.870
  173SLPC   H4Y19583   6.352   0.090   5.943
  173SLPC   C3519584   6.320   0.258   5.813
  173SLPC   H5X19585   6.402   0.322   5.852
  173SLPC   H5Y19586   6.234   0.325   5.792
  173SLPC   C3619587   6.374   0.184   5.691
  173SLPC   H6X19588   6.424   0.089   5.720
  173SLPC   H6Y19589   6.461   0.238   5.648
  173SLPC   C3719590   6.273   0.151   5.589
  173SLPC   H7X19591   6.222   0.243   5.552
  173SLPC   H7Y19592   6.205   0.071   5.625
  173SLPC   C3819593   6.337   0.079   5.465
  173SLPC   H8X19594   6.436   0.030   5.474
  173SLPC   H8Y19595   6.360   0.163   5.397
  173SLPC   C3919596   6.236   6.829   5.404
  173SLPC   H9X19597   6.149   0.053   5.372
  173SLPC   H9Y19598   6.193   6.745   5.464
  173SLPC  C31019599   6.273   6.776   5.262
  173SLPC  H10X19600   6.362   6.710   5.255
  173SLPC  H10Y19601   6.299   0.029   5.204
  173SLPC  C31119602   6.157   6.699   5.204
  173SLPC  H11X19603   6.073   6.770   5.196
  173SLPC  H11Y19604   6.127   6.618   5.274
  173SLPC  C31219605   6.178   6.647   5.061
  173SLPC  H12X19606   6.226   6.723   4.997
  173SLPC  H12Y19607   6.084   6.627   5.005
  173SLPC  C31319608   6.263   6.523   5.046
  173SLPC  H13X19609   6.220   6.442   5.108
  173SLPC  H13Y19610   6.355   6.555   5.099
  173SLPC  C31419611   6.301   6.471   4.905
  173SLPC  H14X19612   6.367   6.382   4.901
  173SLPC  H14Y19613   6.364   6.552   4.864
  173SLPC  C31519614   6.178   6.444   4.813
  173SLPC  H15X19615   6.119   6.538   4.808
  173SLPC  H15Y19616   6.097   6.382   4.856
  173SLPC  C31619617   6.235   6.388   4.689
  173SLPC  H16X19618   6.304   6.302   4.702
  173SLPC  H16Y19619   6.302   6.464   4.643
  173SLPC  C31719620   6.135   6.330   4.590
  173SLPC  H17X19621   6.193   6.309   4.497
  173SLPC  H17Y19622   6.058   6.404   4.560
  173SLPC  C31819623   6.081   6.193   4.640
  173SLPC  H18X19624   6.015   6.150   4.562
  173SLPC  H18Y19625   6.029   6.192   4.739
  173SLPC  H18Z19626   6.162   6.118   4.655
  174SLPC     N19627   2.969   1.865   6.644
  174SLPC   C1319628   2.901   1.799   6.529
  174SLPC  H13A19629   2.875   1.870   6.452
  174SLPC  H13B19630   2.972   1.736   6.477
  174SLPC  H13C19631   2.813   1.751   6.567
  174SLPC   C1419632   2.876   1.970   6.704
  174SLPC  H14A19633   2.774   1.933   6.710
  174SLPC  H14B19634   2.906   1.998   6.804
  174SLPC  H14C19635   2.884   2.060   6.646
  174SLPC   C1519636   3.089   1.933   6.587
  174SLPC  H15A19637   3.139   1.998   6.657
  174SLPC  H15B19638   3.152   1.851   6.557
  174SLPC  H15C19639   3.053   1.998   6.508
  174SLPC   C1219640   3.010   1.763   6.743
  174SLPC  H12A19641   3.057   1.678   6.697
  174SLPC  H12B19642   2.920   1.723   6.786
  174SLPC   C1119643   3.084   1.814   6.867
  174SLPC  H11A19644   3.075   1.724   6.932
  174SLPC  H11B19645   3.022   1.895   6.910
  174SLPC     P19646   3.328   1.765   6.791
  174SLPC   O1319647   3.435   1.748   6.890
  174SLPC   O1419648   3.274   1.639   6.738
  174SLPC   O1219649   3.212   1.863   6.849
  174SLPC   O1119650   3.373   1.857   6.676
  174SLPC    C119651   3.497   1.929   6.688
  174SLPC    HA19652   3.493   1.995   6.777
  174SLPC    HB19653   3.585   1.865   6.707
  174SLPC    C219654   3.511   2.026   6.571
  174SLPC    HS19655   3.457   2.122   6.583
  174SLPC   O2119656   3.496   1.968   6.440
  174SLPC   C2119657   3.404   2.021   6.362
  174SLPC   O2219658   3.327   2.108   6.390
  174SLPC   C2219659   3.409   1.953   6.225
  174SLPC   H2R19660   3.513   1.976   6.194
  174SLPC   H2S19661   3.392   1.844   6.238
  174SLPC    C319662   3.659   2.093   6.583
  174SLPC    HX19663   3.731   2.008   6.582
  174SLPC    HY19664   3.674   2.128   6.687
  174SLPC   O3119665   3.681   2.180   6.472
  174SLPC   C3119666   3.630   2.303   6.495
  174SLPC   O3219667   3.574   2.339   6.594
  174SLPC   C3219668   3.644   2.384   6.368
  174SLPC   H2X19669   3.750   2.414   6.355
  174SLPC   H2Y19670   3.583   2.476   6.382
  174SLPC   C2319671   3.315   2.017   6.119
  174SLPC   H3R19672   3.330   2.126   6.112
  174SLPC   H3S19673   3.215   1.988   6.159
  174SLPC   C2419674   3.319   1.945   5.989
  174SLPC   H4R19675   3.305   1.837   6.007
  174SLPC   H4S19676   3.414   1.972   5.937
  174SLPC   C2519677   3.199   1.973   5.890
  174SLPC   H5R19678   3.205   2.081   5.866
  174SLPC   H5S19679   3.110   1.943   5.949
  174SLPC   C2619680   3.202   1.884   5.765
  174SLPC   H6R19681   3.210   1.779   5.799
  174SLPC   H6S19682   3.292   1.900   5.702
  174SLPC   C2719683   3.081   1.906   5.665
  174SLPC   H7R19684   3.043   2.009   5.686
  174SLPC   H7S19685   3.007   1.826   5.680
  174SLPC   C2819686   3.130   1.892   5.521
  174SLPC   H8R19687   3.159   1.788   5.494
  174SLPC   H8S19688   3.208   1.970   5.511
  174SLPC   C2919689   3.008   1.922   5.438
  174SLPC   H9R19690   2.958   2.014   5.472
  174SLPC  C21019691   2.949   1.863   5.336
  174SLPC  H10R19692   2.856   1.909   5.299
  174SLPC  C21119693   2.992   1.738   5.274
  174SLPC  H11R19694   2.905   1.674   5.297
  174SLPC  H11S19695   3.087   1.698   5.316
  174SLPC  C21219696   3.002   1.741   5.122
  174SLPC  H12R19697   3.107   1.724   5.094
  174SLPC  C21319698   2.909   1.732   5.028
  174SLPC  H13R19699   2.937   1.725   4.922
  174SLPC  C21419700   2.756   1.724   5.050
  174SLPC  H14R19701   2.704   1.821   5.035
  174SLPC  H14S19702   2.744   1.693   5.156
  174SLPC  C21519703   2.684   1.608   4.977
  174SLPC  H15R19704   2.587   1.596   5.031
  174SLPC  H15S19705   2.739   1.512   4.971
  174SLPC  C21619706   2.660   1.646   4.828
  174SLPC  H16R19707   2.755   1.678   4.780
  174SLPC  H16S19708   2.591   1.733   4.829
  174SLPC  C21719709   2.590   1.530   4.757
  174SLPC  H17R19710   2.497   1.516   4.817
  174SLPC  H17S19711   2.653   1.439   4.758
  174SLPC  C21819712   2.538   1.550   4.618
  174SLPC  H18R19713   2.443   1.494   4.603
  174SLPC  H18S19714   2.597   1.513   4.532
  174SLPC  H18T19715   2.533   1.659   4.598
  174SLPC   C3319716   3.596   2.305   6.245
  174SLPC   H3X19717   3.485   2.301   6.254
  174SLPC   H3Y19718   3.608   2.195   6.249
  174SLPC   C3419719   3.656   2.349   6.106
  174SLPC   H4X19720   3.765   2.327   6.102
  174SLPC   H4Y19721   3.641   2.458   6.089
  174SLPC   C3519722   3.606   2.262   5.988
  174SLPC   H5X19723   3.498   2.254   6.012
  174SLPC   H5Y19724   3.662   2.166   6.000
  174SLPC   C3619725   3.603   2.315   5.847
  174SLPC   H6X19726   3.705   2.326   5.806
  174SLPC   H6Y19727   3.561   2.418   5.849
  174SLPC   C3719728   3.521   2.220   5.761
  174SLPC   H7X19729   3.414   2.234   5.787
  174SLPC   H7Y19730   3.560   2.118   5.783
  174SLPC   C3819731   3.527   2.242   5.616
  174SLPC   H8X19732   3.635   2.241   5.590
  174SLPC   H8Y19733   3.493   2.346   5.598
  174SLPC   C3919734   3.450   2.139   5.526
  174SLPC   H9X19735   3.350   2.129   5.572
  174SLPC   H9Y19736   3.507   2.044   5.525
  174SLPC  C31019737   3.435   2.189   5.380
  174SLPC  H10X19738   3.536   2.208   5.340
  174SLPC  H10Y19739   3.389   2.290   5.375
  174SLPC  C31119740   3.355   2.092   5.289
  174SLPC  H11X19741   3.249   2.066   5.306
  174SLPC  H11Y19742   3.413   2.001   5.318
  174SLPC  C31219743   3.388   2.113   5.146
  174SLPC  H12X19744   3.498   2.107   5.134
  174SLPC  H12Y19745   3.358   2.214   5.110
  174SLPC  C31319746   3.328   2.003   5.059
  174SLPC  H13X19747   3.218   1.996   5.068
  174SLPC  H13Y19748   3.374   1.906   5.088
  174SLPC  C31419749   3.352   2.039   4.913
  174SLPC  H14X19750   3.460   2.055   4.897
  174SLPC  H14Y19751   3.284   2.122   4.884
  174SLPC  C31519752   3.313   1.926   4.823
  174SLPC  H15X19753   3.203   1.912   4.814
  174SLPC  H15Y19754   3.354   1.830   4.861
  174SLPC  C31619755   3.361   1.933   4.676
  174SLPC  H16X19756   3.472   1.937   4.681
  174SLPC  H16Y19757   3.325   2.028   4.632
  174SLPC  C31719758   3.332   1.801   4.596
  174SLPC  H17X19759   3.224   1.791   4.574
  174SLPC  H17Y19760   3.366   1.718   4.661
  174SLPC  C31819761   3.409   1.789   4.464
  174SLPC  H18X19762   3.395   1.692   4.411
  174SLPC  H18Y19763   3.517   1.810   4.473
  174SLPC  H18Z19764   3.375   1.864   4.389
  175SLPC     N19765   6.511   2.619   6.585
  175SLPC   C1319766   6.512   2.659   6.438
  175SLPC  H13A19767   6.432   2.607   6.387
  175SLPC  H13B19768   6.487   2.762   6.418
  175SLPC  H13C19769   6.603   2.634   6.387
  175SLPC   C1419770   6.563   2.477   6.588
  175SLPC  H14A19771   6.642   2.457   6.517
  175SLPC  H14B19772   6.584   2.443   6.689
  175SLPC  H14C19773   6.484   2.410   6.559
  175SLPC   C1519774   6.371   2.626   6.649
  175SLPC  H15A19775   6.339   2.729   6.641
  175SLPC  H15B19776   6.305   2.559   6.597
  175SLPC  H15C19777   6.364   2.606   6.755
  175SLPC   C1219778   6.608   2.710   6.642
  175SLPC  H12A19779   6.699   2.712   6.584
  175SLPC  H12B19780   6.636   2.669   6.738
  175SLPC   C1119781   6.553   2.863   6.658
  175SLPC  H11A19782   6.640   2.917   6.700
  175SLPC  H11B19783   6.482   2.845   6.741
  175SLPC     P19784   6.449   3.078   6.552
  175SLPC   O1319785   6.366   3.112   6.664
  175SLPC   O1419786   6.570   3.162   6.533
  175SLPC   O1219787   6.490   2.930   6.547
  175SLPC   O1119788   6.356   3.080   6.419
  175SLPC    C119789   6.406   3.032   6.296
  175SLPC    HA19790   6.481   3.102   6.254
  175SLPC    HB19791   6.464   2.937   6.304
  175SLPC    C219792   6.292   3.035   6.191
  175SLPC    HS19793   6.231   2.942   6.202
  175SLPC   O2119794   6.349   3.046   6.063
  175SLPC   C2119795   6.419   2.941   6.020
  175SLPC   O2219796   6.437   2.838   6.083
  175SLPC   C2219797   6.476   2.964   5.871
  175SLPC   H2R19798   6.586   2.977   5.884
  175SLPC   H2S19799   6.478   2.863   5.824
  175SLPC    C319800   6.198   3.155   6.195
  175SLPC    HX19801   6.255   3.244   6.162
  175SLPC    HY19802   6.164   3.182   6.298
  175SLPC   O3119803   6.089   3.158   6.104
  175SLPC   C3119804   5.976   3.090   6.128
  175SLPC   O3219805   5.956   3.039   6.239
  175SLPC   C3219806   5.874   3.112   6.014
  175SLPC   H2X19807   5.868   3.221   5.992
  175SLPC   H2Y19808   5.778   3.082   6.061
  175SLPC   C2319809   6.411   3.070   5.783
  175SLPC   H3R19810   6.419   3.173   5.824
  175SLPC   H3S19811   6.301   3.058   5.777
  175SLPC   C2419812   6.465   3.065   5.631
  175SLPC   H4R19813   6.573   3.038   5.631
  175SLPC   H4S19814   6.451   3.170   5.598
  175SLPC   C2519815   6.368   2.974   5.543
  175SLPC   H5R19816   6.262   3.008   5.539
  175SLPC   H5S19817   6.376   2.878   5.599
  175SLPC   C2619818   6.406   2.964   5.399
  175SLPC   H6R19819   6.339   2.887   5.354
  175SLPC   H6S19820   6.507   2.919   5.397
  175SLPC   C2719821   6.403   3.097   5.327
  175SLPC   H7R19822   6.477   3.152   5.390
  175SLPC   H7S19823   6.308   3.153   5.338
  175SLPC   C2819824   6.464   3.099   5.180
  175SLPC   H8R19825   6.407   3.027   5.116
  175SLPC   H8S19826   6.574   3.088   5.169
  175SLPC   C2919827   6.434   3.231   5.120
  175SLPC   H9R19828   6.465   3.321   5.175
  175SLPC  C21019829   6.392   3.251   4.996
  175SLPC  H10R19830   6.392   3.356   4.964
  175SLPC  C21119831   6.352   3.151   4.891
  175SLPC  H11R19832   6.267   3.201   4.840
  175SLPC  H11S19833   6.294   3.072   4.944
  175SLPC  C21219834   6.456   3.092   4.802
  175SLPC  H12R19835   6.557   3.137   4.801
  175SLPC  C21319836   6.444   2.971   4.739
  175SLPC  H13R19837   6.529   2.937   4.677
  175SLPC  C21419838   6.326   2.879   4.740
  175SLPC  H14R19839   6.235   2.923   4.787
  175SLPC  H14S19840   6.357   2.786   4.793
  175SLPC  C21519841   6.276   2.836   4.599
  175SLPC  H15R19842   6.194   2.764   4.620
  175SLPC  H15S19843   6.354   2.791   4.534
  175SLPC  C21619844   6.221   2.953   4.504
  175SLPC  H16R19845   6.313   3.005   4.468
  175SLPC  H16S19846   6.157   3.022   4.562
  175SLPC  C21719847   6.139   2.908   4.386
  175SLPC  H17R19848   6.050   2.851   4.420
  175SLPC  H17S19849   6.192   2.842   4.314
  175SLPC  C21819850   6.088   3.031   4.307
  175SLPC  H18R19851   5.988   3.011   4.261
  175SLPC  H18S19852   6.155   3.043   4.219
  175SLPC  H18T19853   6.078   3.128   4.360
  175SLPC   C3319854   5.914   3.038   5.884
  175SLPC   H3X19855   5.949   2.933   5.888
  175SLPC   H3Y19856   6.000   3.097   5.844
  175SLPC   C3419857   5.801   3.049   5.788
  175SLPC   H4X19858   5.790   3.158   5.769
  175SLPC   H4Y19859   5.706   3.005   5.824
  175SLPC   C3519860   5.821   2.983   5.652
  175SLPC   H5X19861   5.724   2.966   5.602
  175SLPC   H5Y19862   5.867   2.882   5.662
  175SLPC   C3619863   5.915   3.056   5.558
  175SLPC   H6X19864   6.017   3.033   5.596
  175SLPC   H6Y19865   5.897   3.165   5.549
  175SLPC   C3719866   5.901   3.009   5.419
  175SLPC   H7X19867   5.796   3.028   5.386
  175SLPC   H7Y19868   5.909   2.899   5.414
  175SLPC   C3819869   6.006   3.081   5.334
  175SLPC   H8X19870   6.105   3.057   5.377
  175SLPC   H8Y19871   5.995   3.191   5.329
  175SLPC   C3919872   6.008   3.039   5.189
  175SLPC   H9X19873   6.005   2.928   5.194
  175SLPC   H9Y19874   6.101   3.077   5.142
  175SLPC  C31019875   5.886   3.092   5.114
  175SLPC  H10X19876   5.888   3.202   5.129
  175SLPC  H10Y19877   5.798   3.040   5.157
  175SLPC  C31119878   5.892   3.072   4.963
  175SLPC  H11X19879   5.905   2.966   4.932
  175SLPC  H11Y19880   5.985   3.126   4.934
  175SLPC  C31219881   5.767   3.136   4.887
  175SLPC  H12X19882   5.738   3.230   4.938
  175SLPC  H12Y19883   5.686   3.061   4.900
  175SLPC  C31319884   5.799   3.151   4.737
  175SLPC  H13X19885   5.881   3.226   4.725
  175SLPC  H13Y19886   5.717   3.201   4.682
  175SLPC  C31419887   5.834   3.026   4.655
  175SLPC  H14X19888   5.927   2.996   4.708
  175SLPC  H14Y19889   5.863   3.055   4.552
  175SLPC  C31519890   5.735   2.916   4.641
  175SLPC  H15X19891   5.645   2.951   4.585
  175SLPC  H15Y19892   5.691   2.898   4.741
  175SLPC  C31619893   5.795   2.790   4.578
  175SLPC  H16X19894   5.862   2.738   4.649
  175SLPC  H16Y19895   5.845   2.831   4.487
  175SLPC  C31719896   5.694   2.696   4.516
  175SLPC  H17X19897   5.753   2.617   4.464
  175SLPC  H17Y19898   5.641   2.757   4.441
  175SLPC  C31819899   5.601   2.617   4.608
  175SLPC  H18X19900   5.521   2.566   4.550
  175SLPC  H18Y19901   5.554   2.688   4.679
  175SLPC  H18Z19902   5.661   2.542   4.666
  176SLPC     N19903   5.593   1.244   7.416
  176SLPC   C1319904   5.639   1.212   7.553
  176SLPC  H13A19905   5.641   1.104   7.565
  176SLPC  H13B19906   5.730   1.269   7.565
  176SLPC  H13C19907   5.579   1.263   7.627
  176SLPC   C1419908   5.602   1.391   7.385
  176SLPC  H14A19909   5.576   1.417   7.284
  176SLPC  H14B19910   5.538   1.444   7.454
  176SLPC  H14C19911   5.701   1.426   7.408
  176SLPC   C1519912   5.451   1.191   7.397
  176SLPC  H15A19913   5.436   1.084   7.404
  176SLPC  H15B19914   5.394   1.227   7.482
  176SLPC  H15C19915   5.405   1.211   7.302
  176SLPC   C1219916   5.684   1.178   7.317
  176SLPC  H12A19917   5.711   1.077   7.344
  176SLPC  H12B19918   5.776   1.234   7.329
  176SLPC   C1119919   5.638   1.172   7.166
  176SLPC  H11A19920   5.538   1.124   7.152
  176SLPC  H11B19921   5.697   1.102   7.103
  176SLPC     P19922   5.744   1.382   7.045
  176SLPC   O1319923   5.696   1.518   7.009
  176SLPC   O1419924   5.853   1.364   7.145
  176SLPC   O1219925   5.621   1.289   7.095
  176SLPC   O1119926   5.797   1.319   6.913
  176SLPC    C119927   5.691   1.278   6.820
  176SLPC    HA19928   5.620   1.209   6.871
  176SLPC    HB19929   5.637   1.369   6.785
  176SLPC    C219930   5.753   1.189   6.700
  176SLPC    HS19931   5.817   1.252   6.635
  176SLPC   O2119932   5.653   1.123   6.630
  176SLPC   C2119933   5.582   1.199   6.552
  176SLPC   O2219934   5.608   1.318   6.522
  176SLPC   C2219935   5.458   1.125   6.506
  176SLPC   H2R19936   5.483   1.017   6.498
  176SLPC   H2S19937   5.385   1.136   6.589
  176SLPC    C319938   5.844   1.077   6.765
  176SLPC    HX19939   5.797   1.021   6.848
  176SLPC    HY19940   5.933   1.121   6.815
  176SLPC   O3119941   5.890   0.980   6.671
  176SLPC   C3119942   5.804   0.876   6.651
  176SLPC   O3219943   5.702   0.862   6.719
  176SLPC   C3219944   5.865   0.784   6.546
  176SLPC   H2X19945   5.883   0.684   6.592
  176SLPC   H2Y19946   5.966   0.811   6.507
  176SLPC   C2319947   5.409   1.176   6.360
  176SLPC   H3R19948   5.415   1.287   6.359
  176SLPC   H3S19949   5.303   1.145   6.349
  176SLPC   C2419950   5.480   1.108   6.238
  176SLPC   H4R19951   5.402   1.119   6.161
  176SLPC   H4S19952   5.491   0.998   6.254
  176SLPC   C2519953   5.606   1.166   6.183
  176SLPC   H5R19954   5.689   1.173   6.257
  176SLPC   H5S19955   5.586   1.266   6.138
  176SLPC   C2619956   5.659   1.092   6.064
  176SLPC   H6R19957   5.579   1.093   5.987
  176SLPC   H6S19958   5.673   0.984   6.081
  176SLPC   C2719959   5.773   1.154   5.997
  176SLPC   H7R19960   5.841   1.202   6.071
  176SLPC   H7S19961   5.729   1.242   5.945
  176SLPC   C2819962   5.859   1.060   5.905
  176SLPC   H8R19963   5.926   1.009   5.977
  176SLPC   H8S19964   5.921   1.118   5.834
  176SLPC   C2919965   5.779   0.962   5.817
  176SLPC   H9R19966   5.743   0.871   5.868
  176SLPC  C21019967   5.731   0.986   5.694
  176SLPC  H10R19968   5.673   0.907   5.643
  176SLPC  C21119969   5.769   1.110   5.619
  176SLPC  H11R19970   5.877   1.126   5.601
  176SLPC  H11S19971   5.742   1.196   5.685
  176SLPC  C21219972   5.687   1.120   5.499
  176SLPC  H12R19973   5.588   1.161   5.522
  176SLPC  C21319974   5.724   1.087   5.373
  176SLPC  H13R19975   5.646   1.092   5.296
  176SLPC  C21419976   5.867   1.038   5.323
  176SLPC  H14R19977   5.922   1.008   5.415
  176SLPC  H14S19978   5.928   1.113   5.268
  176SLPC  C21519979   5.872   0.910   5.234
  176SLPC  H15R19980   5.821   0.821   5.277
  176SLPC  H15S19981   5.976   0.873   5.224
  176SLPC  C21619982   5.816   0.925   5.089
  176SLPC  H16R19983   5.707   0.935   5.105
  176SLPC  H16S19984   5.843   0.834   5.031
  176SLPC  C21719985   5.871   1.041   5.014
  176SLPC  H17R19986   5.981   1.025   5.010
  176SLPC  H17S19987   5.856   1.137   5.066
  176SLPC  C21819988   5.826   1.043   4.866
  176SLPC  H18R19989   5.879   1.125   4.812
  176SLPC  H18S19990   5.718   1.066   4.855
  176SLPC  H18T19991   5.845   0.950   4.809
  176SLPC   C3319992   5.770   0.762   6.428
  176SLPC   H3X19993   5.825   0.712   6.345
  176SLPC   H3Y19994   5.745   0.855   6.371
  176SLPC   C3419995   5.644   0.678   6.464
  176SLPC   H4X19996   5.564   0.736   6.516
  176SLPC   H4Y19997   5.669   0.595   6.534
  176SLPC   C3519998   5.582   0.627   6.326
  176SLPC   H5X19999   5.488   0.586   6.367
  176SLPC   H5Y20000   5.649   0.551   6.281
  176SLPC   C3620001   5.541   0.728   6.220
  176SLPC   H6X20002   5.627   0.794   6.195
  176SLPC   H6Y20003   5.460   0.792   6.263
  176SLPC   C3720004   5.487   0.666   6.088
  176SLPC   H7X20005   5.410   0.588   6.104
  176SLPC   H7Y20006   5.564   0.610   6.030
  176SLPC   C3820007   5.450   0.785   5.996
  176SLPC   H8X20008   5.548   0.832   5.976
  176SLPC   H8Y20009   5.377   0.852   6.046
  176SLPC   C3920010   5.387   0.749   5.863
  176SLPC   H9X20011   5.373   0.639   5.852
  176SLPC   H9Y20012   5.445   0.778   5.773
  176SLPC  C31020013   5.249   0.808   5.838
  176SLPC  H10X20014   5.269   0.917   5.829
  176SLPC  H10Y20015   5.186   0.791   5.928
  176SLPC  C31120016   5.170   0.749   5.721
  176SLPC  H11X20017   5.235   0.706   5.642
  176SLPC  H11Y20018   5.101   0.823   5.676
  176SLPC  C31220019   5.082   0.635   5.759
  176SLPC  H12X20020   5.009   0.656   5.840
  176SLPC  H12Y20021   5.156   0.560   5.794
  176SLPC  C31320022   5.010   0.558   5.648
  176SLPC  H13X20023   5.081   0.510   5.578
  176SLPC  H13Y20024   4.950   0.634   5.593
  176SLPC  C31420025   4.922   0.445   5.706
  176SLPC  H14X20026   4.841   0.494   5.763
  176SLPC  H14Y20027   4.990   0.396   5.779
  176SLPC  C31520028   4.868   0.341   5.611
  176SLPC  H15X20029   4.818   0.266   5.677
  176SLPC  H15Y20030   4.955   0.292   5.562
  176SLPC  C31620031   4.781   0.395   5.501
  176SLPC  H16X20032   4.804   0.503   5.485
  176SLPC  H16Y20033   4.674   0.401   5.531
  176SLPC  C31720034   4.786   0.303   5.371
  176SLPC  H17X20035   4.760   0.199   5.398
  176SLPC  H17Y20036   4.890   0.304   5.334
  176SLPC  C31820037   4.686   0.355   5.265
  176SLPC  H18X20038   4.588   0.337   5.314
  176SLPC  H18Y20039   4.683   0.284   5.179
  176SLPC  H18Z20040   4.704   0.461   5.234
  177SLPC     N20041   5.385   2.211   7.042
  177SLPC   C1320042   5.261   2.194   6.959
  177SLPC  H13A20043   5.188   2.261   7.001
  177SLPC  H13B20044   5.288   2.211   6.856
  177SLPC  H13C20045   5.223   2.093   6.959
  177SLPC   C1420046   5.332   2.214   7.185
  177SLPC  H14A20047   5.419   2.232   7.246
  177SLPC  H14B20048   5.256   2.288   7.202
  177SLPC  H14C20049   5.288   2.121   7.217
  177SLPC   C1520050   5.447   2.350   7.024
  177SLPC  H15A20051   5.373   2.428   7.034
  177SLPC  H15B20052   5.521   2.360   7.103
  177SLPC  H15C20053   5.492   2.361   6.927
  177SLPC   C1220054   5.486   2.106   7.027
  177SLPC  H12A20055   5.440   2.015   7.064
  177SLPC  H12B20056   5.568   2.114   7.097
  177SLPC   C1120057   5.546   2.061   6.889
  177SLPC  H11A20058   5.621   1.983   6.912
  177SLPC  H11B20059   5.602   2.147   6.848
  177SLPC     P20060   5.417   1.871   6.759
  177SLPC   O1320061   5.422   1.795   6.886
  177SLPC   O1420062   5.288   1.877   6.691
  177SLPC   O1220063   5.450   2.016   6.794
  177SLPC   O1120064   5.534   1.821   6.661
  177SLPC    C120065   5.604   1.917   6.574
  177SLPC    HA20066   5.640   2.000   6.639
  177SLPC    HB20067   5.694   1.873   6.526
  177SLPC    C220068   5.512   1.970   6.461
  177SLPC    HS20069   5.418   2.016   6.500
  177SLPC   O2120070   5.463   1.856   6.384
  177SLPC   C2120071   5.349   1.868   6.326
  177SLPC   O2220072   5.274   1.964   6.331
  177SLPC   C2220073   5.318   1.743   6.238
  177SLPC   H2R20074   5.409   1.681   6.223
  177SLPC   H2S20075   5.246   1.680   6.293
  177SLPC    C320076   5.581   2.072   6.377
  177SLPC    HX20077   5.586   2.158   6.448
  177SLPC    HY20078   5.522   2.115   6.293
  177SLPC   O3120079   5.715   2.027   6.343
  177SLPC   C3120080   5.774   2.086   6.237
  177SLPC   O3220081   5.721   2.173   6.167
  177SLPC   C3220082   5.909   2.018   6.207
  177SLPC   H2X20083   5.917   1.953   6.118
  177SLPC   H2Y20084   5.920   1.954   6.296
  177SLPC   C2320085   5.250   1.785   6.107
  177SLPC   H3R20086   5.294   1.868   6.047
  177SLPC   H3S20087   5.148   1.814   6.140
  177SLPC   C2420088   5.227   1.668   6.017
  177SLPC   H4R20089   5.136   1.695   5.959
  177SLPC   H4S20090   5.227   1.579   6.083
  177SLPC   C2520091   5.352   1.649   5.931
  177SLPC   H5R20092   5.435   1.650   6.005
  177SLPC   H5S20093   5.355   1.743   5.871
  177SLPC   C2620094   5.360   1.533   5.829
  177SLPC   H6R20095   5.369   1.433   5.876
  177SLPC   H6S20096   5.453   1.556   5.772
  177SLPC   C2720097   5.244   1.538   5.725
  177SLPC   H7R20098   5.232   1.645   5.695
  177SLPC   H7S20099   5.149   1.508   5.774
  177SLPC   C2820100   5.264   1.448   5.601
  177SLPC   H8R20101   5.177   1.470   5.534
  177SLPC   H8S20102   5.274   1.341   5.627
  177SLPC   C2920103   5.391   1.486   5.532
  177SLPC   H9R20104   5.468   1.533   5.595
  177SLPC  C21020105   5.430   1.448   5.413
  177SLPC  H10R20106   5.516   1.501   5.369
  177SLPC  C21120107   5.355   1.360   5.316
  177SLPC  H11R20108   5.404   1.358   5.217
  177SLPC  H11S20109   5.255   1.402   5.290
  177SLPC  C21220110   5.337   1.217   5.352
  177SLPC  H12R20111   5.314   1.197   5.458
  177SLPC  C21320112   5.352   1.105   5.269
  177SLPC  H13R20113   5.330   1.002   5.301
  177SLPC  C21420114   5.388   1.116   5.121
  177SLPC  H14R20115   5.446   1.027   5.089
  177SLPC  H14S20116   5.457   1.202   5.107
  177SLPC  C21520117   5.285   1.138   5.015
  177SLPC  H15R20118   5.329   1.137   4.913
  177SLPC  H15S20119   5.241   1.239   5.027
  177SLPC  C21620120   5.170   1.037   5.017
  177SLPC  H16R20121   5.127   1.048   5.119
  177SLPC  H16S20122   5.211   0.935   5.003
  177SLPC  C21720123   5.059   1.063   4.917
  177SLPC  H17R20124   5.027   1.168   4.934
  177SLPC  H17S20125   4.969   1.003   4.942
  177SLPC  C21820126   5.093   1.046   4.766
  177SLPC  H18R20127   5.004   1.073   4.706
  177SLPC  H18S20128   5.147   0.954   4.734
  177SLPC  H18T20129   5.172   1.124   4.754
  177SLPC   C3320130   6.030   2.116   6.195
  177SLPC   H3X20131   6.123   2.059   6.217
  177SLPC   H3Y20132   6.014   2.195   6.272
  177SLPC   C3420133   6.044   2.176   6.058
  177SLPC   H4X20134   5.959   2.247   6.048
  177SLPC   H4Y20135   6.030   2.095   5.984
  177SLPC   C3520136   6.175   2.247   6.027
  177SLPC   H5X20137   6.259   2.175   6.040
  177SLPC   H5Y20138   6.191   2.327   6.103
  177SLPC   C3620139   6.192   2.310   5.889
  177SLPC   H6X20140   6.276   2.382   5.885
  177SLPC   H6Y20141   6.089   2.341   5.861
  177SLPC   C3720142   6.221   2.206   5.781
  177SLPC   H7X20143   6.147   2.123   5.779
  177SLPC   H7Y20144   6.321   2.162   5.803
  177SLPC   C3820145   6.232   2.260   5.641
  177SLPC   H8X20146   6.293   2.353   5.641
  177SLPC   H8Y20147   6.128   2.297   5.626
  177SLPC   C3920148   6.280   2.170   5.528
  177SLPC   H9X20149   6.214   2.080   5.527
  177SLPC   H9Y20150   6.385   2.141   5.549
  177SLPC  C31020151   6.266   2.228   5.390
  177SLPC  H10X20152   6.317   2.327   5.380
  177SLPC  H10Y20153   6.157   2.244   5.377
  177SLPC  C31120154   6.320   2.134   5.281
  177SLPC  H11X20155   6.239   2.064   5.251
  177SLPC  H11Y20156   6.386   2.061   5.334
  177SLPC  C31220157   6.393   2.200   5.162
  177SLPC  H12X20158   6.495   2.213   5.204
  177SLPC  H12Y20159   6.331   2.293   5.153
  177SLPC  C31320160   6.387   2.131   5.033
  177SLPC  H13X20161   6.279   2.129   5.004
  177SLPC  H13Y20162   6.421   2.026   5.051
  177SLPC  C31420163   6.470   2.196   4.926
  177SLPC  H14X20164   6.572   2.216   4.963
  177SLPC  H14Y20165   6.422   2.294   4.904
  177SLPC  C31520166   6.482   2.116   4.791
  177SLPC  H15X20167   6.524   2.015   4.809
  177SLPC  H15Y20168   6.556   2.173   4.731
  177SLPC  C31620169   6.357   2.112   4.707
  177SLPC  H16X20170   6.338   2.218   4.678
  177SLPC  H16Y20171   6.275   2.082   4.777
  177SLPC  C31720172   6.355   2.016   4.590
  177SLPC  H17X20173   6.349   1.912   4.628
  177SLPC  H17Y20174   6.447   2.027   4.528
  177SLPC  C31820175   6.236   2.043   4.508
  177SLPC  H18X20176   6.237   1.967   4.426
  177SLPC  H18Y20177   6.249   2.139   4.454
  177SLPC  H18Z20178   6.142   2.028   4.566
  178SLPC     N20179   2.355   6.005   6.988
  178SLPC   C1320180   2.315   6.116   6.885
  178SLPC  H13A20181   2.311   6.064   6.791
  178SLPC  H13B20182   2.222   6.158   6.922
  178SLPC  H13C20183   2.390   6.193   6.873
  178SLPC   C1420184   2.255   5.887   6.981
  178SLPC  H14A20185   2.156   5.917   7.012
  178SLPC  H14B20186   2.265   5.825   6.893
  178SLPC  H14C20187   2.289   5.815   7.053
  178SLPC   C1520188   2.354   6.059   7.120
  178SLPC  H15A20189   2.272   6.127   7.136
  178SLPC  H15B20190   2.348   5.986   7.199
  178SLPC  H15C20191   2.434   6.129   7.138
  178SLPC   C1220192   2.498   5.949   6.956
  178SLPC  H12A20193   2.502   5.903   6.858
  178SLPC  H12B20194   2.525   5.875   7.030
  178SLPC   C1120195   2.622   6.056   6.969
  178SLPC  H11A20196   2.716   5.998   6.959
  178SLPC  H11B20197   2.621   6.092   7.074
  178SLPC     P20198   2.648   6.156   6.734
  178SLPC   O1320199   2.604   6.281   6.669
  178SLPC   O1420200   2.788   6.120   6.725
  178SLPC   O1220201   2.608   6.170   6.884
  178SLPC   O1120202   2.562   6.029   6.678
  178SLPC    C120203   2.643   5.934   6.597
  178SLPC    HA20204   2.741   5.909   6.644
  178SLPC    HB20205   2.587   5.840   6.577
  178SLPC    C220206   2.681   5.975   6.447
  178SLPC    HS20207   2.776   6.031   6.455
  178SLPC   O2120208   2.571   6.056   6.397
  178SLPC   C2120209   2.609   6.177   6.347
  178SLPC   O2220210   2.723   6.206   6.313
  178SLPC   C2220211   2.479   6.249   6.333
  178SLPC   H2R20212   2.438   6.234   6.231
  178SLPC   H2S20213   2.406   6.205   6.404
  178SLPC    C320214   2.702   5.852   6.352
  178SLPC    HX20215   2.608   5.793   6.356
  178SLPC    HY20216   2.782   5.787   6.393
  178SLPC   O3120217   2.717   5.907   6.216
  178SLPC   C3120218   2.848   5.928   6.192
  178SLPC   O3220219   2.938   5.879   6.260
  178SLPC   C3220220   2.860   6.027   6.077
  178SLPC   H2X20221   2.772   6.095   6.075
  178SLPC   H2Y20222   2.856   5.964   5.986
  178SLPC   C2320223   2.500   6.399   6.355
  178SLPC   H3R20224   2.537   6.411   6.459
  178SLPC   H3S20225   2.392   6.426   6.360
  178SLPC   C2420226   2.570   6.473   6.242
  178SLPC   H4R20227   2.520   6.441   6.148
  178SLPC   H4S20228   2.674   6.436   6.235
  178SLPC   C2520229   2.571   6.628   6.247
  178SLPC   H5R20230   2.640   6.655   6.330
  178SLPC   H5S20231   2.472   6.677   6.248
  178SLPC   C2620232   2.627   6.675   6.117
  178SLPC   H6R20233   2.559   6.658   6.031
  178SLPC   H6S20234   2.728   6.634   6.096
  178SLPC   C2720235   2.641   6.833   6.118
  178SLPC   H7R20236   2.735   0.023   6.170
  178SLPC   H7S20237   2.553   0.028   6.177
  178SLPC   C2820238   2.637   0.053   5.974
  178SLPC   H8R20239   2.637   0.161   6.000
  178SLPC   H8S20240   2.539   0.029   5.928
  178SLPC   C2920241   2.745   0.010   5.876
  178SLPC   H9R20242   2.790   6.748   5.888
  178SLPC  C21020243   2.821   0.097   5.807
  178SLPC  H10R20244   2.891   0.052   5.735
  178SLPC  C21120245   2.808   0.243   5.801
  178SLPC  H11R20246   2.772   0.286   5.896
  178SLPC  H11S20247   2.723   0.259   5.731
  178SLPC  C21220248   2.924   0.320   5.755
  178SLPC  H12R20249   2.985   0.366   5.834
  178SLPC  C21320250   2.966   0.318   5.626
  178SLPC  H13R20251   3.048   0.387   5.600
  178SLPC  C21420252   2.892   0.264   5.507
  178SLPC  H14R20253   2.806   0.329   5.479
  178SLPC  H14S20254   2.849   0.167   5.540
  178SLPC  C21520255   2.974   0.238   5.389
  178SLPC  H15R20256   3.061   0.175   5.414
  178SLPC  H15S20257   3.021   0.331   5.351
  178SLPC  C21620258   2.897   0.170   5.269
  178SLPC  H16R20259   2.857   0.069   5.291
  178SLPC  H16S20260   2.965   0.146   5.184
  178SLPC  C21720261   2.774   0.247   5.218
  178SLPC  H17R20262   2.787   0.357   5.229
  178SLPC  H17S20263   2.705   0.227   5.303
  178SLPC  C21820264   2.726   0.203   5.079
  178SLPC  H18R20265   2.617   0.225   5.078
  178SLPC  H18S20266   2.725   0.093   5.059
  178SLPC  H18T20267   2.782   0.260   5.002
  178SLPC   C3320268   2.995   6.100   6.095
  178SLPC   H3X20269   3.079   6.028   6.090
  178SLPC   H3Y20270   3.007   6.139   6.198
  178SLPC   C3420271   3.009   6.221   5.995
  178SLPC   H4X20272   3.025   6.177   5.894
  178SLPC   H4Y20273   3.099   6.276   6.029
  178SLPC   C3520274   2.894   6.316   5.987
  178SLPC   H5X20275   2.862   6.350   6.088
  178SLPC   H5Y20276   2.796   6.275   5.953
  178SLPC   C3620277   2.922   6.451   5.913
  178SLPC   H6X20278   2.972   6.527   5.977
  178SLPC   H6Y20279   2.815   6.479   5.898
  178SLPC   C3720280   3.005   6.441   5.783
  178SLPC   H7X20281   2.972   6.352   5.726
  178SLPC   H7Y20282   3.112   6.432   5.814
  178SLPC   C3820283   2.995   6.562   5.684
  178SLPC   H8X20284   3.074   6.633   5.716
  178SLPC   H8Y20285   2.898   6.617   5.690
  178SLPC   C3920286   3.016   6.516   5.538
  178SLPC   H9X20287   2.938   6.441   5.515
  178SLPC   H9Y20288   3.111   6.458   5.536
  178SLPC  C31020289   3.005   6.629   5.431
  178SLPC  H10X20290   3.089   6.696   5.459
  178SLPC  H10Y20291   2.902   6.669   5.438
  178SLPC  C31120292   3.016   6.575   5.296
  178SLPC  H11X20293   2.920   6.527   5.269
  178SLPC  H11Y20294   3.093   6.495   5.300
  178SLPC  C31220295   3.043   6.682   5.191
  178SLPC  H12X20296   3.148   6.714   5.210
  178SLPC  H12Y20297   2.980   6.766   5.228
  178SLPC  C31320298   3.008   6.634   5.053
  178SLPC  H13X20299   2.909   6.584   5.042
  178SLPC  H13Y20300   3.082   6.557   5.023
  178SLPC  C31420301   3.018   6.751   4.955
  178SLPC  H14X20302   3.114   6.805   4.967
  178SLPC  H14Y20303   2.937   6.822   4.985
  178SLPC  C31520304   3.001   6.717   4.808
  178SLPC  H15X20305   3.091   6.658   4.779
  178SLPC  H15Y20306   2.989   6.813   4.755
  178SLPC  C31620307   2.876   6.630   4.780
  178SLPC  H16X20308   2.783   6.681   4.813
  178SLPC  H16Y20309   2.878   6.534   4.835
  178SLPC  C31720310   2.874   6.584   4.634
  178SLPC  H17X20311   2.816   6.490   4.623
  178SLPC  H17Y20312   2.979   6.553   4.614
  178SLPC  C31820313   2.837   6.689   4.526
  178SLPC  H18X20314   2.908   6.775   4.528
  178SLPC  H18Y20315   2.736   6.726   4.556
  178SLPC  H18Z20316   2.838   6.646   4.424
  179SLPC     N20317   4.334   1.562   2.170
  179SLPC   C1320318   4.352   1.652   2.292
  179SLPC  H13A20319   4.293   1.613   2.373
  179SLPC  H13B20320   4.458   1.670   2.304
  179SLPC  H13C20321   4.322   1.752   2.265
  179SLPC   C1420322   4.392   1.432   2.196
  179SLPC  H14A20323   4.498   1.444   2.212
  179SLPC  H14B20324   4.357   1.396   2.292
  179SLPC  H14C20325   4.388   1.370   2.108
  179SLPC   C1520326   4.399   1.619   2.042
  179SLPC  H15A20327   4.382   1.726   2.031
  179SLPC  H15B20328   4.506   1.617   2.056
  179SLPC  H15C20329   4.367   1.563   1.956
  179SLPC   C1220330   4.181   1.561   2.154
  179SLPC  H12A20331   4.135   1.657   2.170
  179SLPC  H12B20332   4.136   1.499   2.230
  179SLPC   C1120333   4.119   1.506   2.022
  179SLPC  H11A20334   4.155   1.581   1.949
  179SLPC  H11B20335   4.008   1.516   2.013
  179SLPC     P20336   4.086   1.257   2.058
  179SLPC   O1320337   3.950   1.250   2.003
  179SLPC   O1420338   4.173   1.144   2.057
  179SLPC   O1220339   4.168   1.376   1.986
  179SLPC   O1120340   4.073   1.302   2.208
  179SLPC    C120341   3.968   1.286   2.300
  179SLPC    HA20342   3.951   1.380   2.357
  179SLPC    HB20343   3.869   1.249   2.264
  179SLPC    C220344   4.016   1.183   2.399
  179SLPC    HS20345   4.016   1.090   2.338
  179SLPC   O2120346   3.922   1.177   2.514
  179SLPC   C2120347   3.856   1.066   2.536
  179SLPC   O2220348   3.860   0.964   2.471
  179SLPC   C2220349   3.754   1.090   2.648
  179SLPC   H2R20350   3.813   1.106   2.741
  179SLPC   H2S20351   3.706   1.187   2.624
  179SLPC    C320352   4.160   1.214   2.450
  179SLPC    HX20353   4.159   1.314   2.500
  179SLPC    HY20354   4.222   1.232   2.359
  179SLPC   O3120355   4.222   1.113   2.528
  179SLPC   C3120356   4.353   1.139   2.549
  179SLPC   O3220357   4.409   1.235   2.510
  179SLPC   C3220358   4.417   1.026   2.629
  179SLPC   H2X20359   4.503   1.080   2.673
  179SLPC   H2Y20360   4.442   0.951   2.550
  179SLPC   C2320361   3.656   0.976   2.663
  179SLPC   H3R20362   3.708   0.883   2.695
  179SLPC   H3S20363   3.626   0.938   2.563
  179SLPC   C2420364   3.533   1.000   2.742
  179SLPC   H4R20365   3.473   0.908   2.757
  179SLPC   H4S20366   3.467   1.065   2.680
  179SLPC   C2520367   3.556   1.067   2.881
  179SLPC   H5R20368   3.464   1.119   2.913
  179SLPC   H5S20369   3.629   1.151   2.877
  179SLPC   C2620370   3.600   0.975   2.999
  179SLPC   H6R20371   3.628   1.043   3.082
  179SLPC   H6S20372   3.691   0.912   2.990
  179SLPC   C2720373   3.493   0.872   3.047
  179SLPC   H7R20374   3.493   0.779   2.986
  179SLPC   H7S20375   3.398   0.922   3.019
  179SLPC   C2820376   3.489   0.848   3.196
  179SLPC   H8R20377   3.593   0.815   3.218
  179SLPC   H8S20378   3.420   0.761   3.205
  179SLPC   C2920379   3.440   0.966   3.277
  179SLPC   H9R20380   3.443   1.061   3.221
  179SLPC  C21020381   3.377   0.957   3.399
  179SLPC  H10R20382   3.335   1.047   3.446
  179SLPC  C21120383   3.362   0.839   3.486
  179SLPC  H11R20384   3.398   0.742   3.446
  179SLPC  H11S20385   3.255   0.818   3.508
  179SLPC  C21220386   3.442   0.842   3.614
  179SLPC  H12R20387   3.542   0.797   3.603
  179SLPC  C21320388   3.391   0.863   3.736
  179SLPC  H13R20389   3.458   0.860   3.823
  179SLPC  C21420390   3.254   0.911   3.771
  179SLPC  H14R20391   3.193   0.838   3.827
  179SLPC  H14S20392   3.190   0.942   3.686
  179SLPC  C21520393   3.258   1.033   3.864
  179SLPC  H15R20394   3.317   1.115   3.816
  179SLPC  H15S20395   3.322   1.005   3.950
  179SLPC  C21620396   3.118   1.070   3.902
  179SLPC  H16R20397   3.058   0.977   3.896
  179SLPC  H16S20398   3.078   1.153   3.839
  179SLPC  C21720399   3.104   1.125   4.046
  179SLPC  H17R20400   2.994   1.140   4.047
  179SLPC  H17S20401   3.153   1.224   4.052
  179SLPC  C21820402   3.140   1.031   4.163
  179SLPC  H18R20403   3.251   1.035   4.169
  179SLPC  H18S20404   3.106   0.925   4.158
  179SLPC  H18T20405   3.101   1.061   4.263
  179SLPC   C3320406   4.332   0.964   2.744
  179SLPC   H3X20407   4.398   0.888   2.791
  179SLPC   H3Y20408   4.238   0.924   2.701
  179SLPC   C3420409   4.305   1.067   2.855
  179SLPC   H4X20410   4.275   1.163   2.807
  179SLPC   H4Y20411   4.402   1.106   2.893
  179SLPC   C3520412   4.205   1.026   2.967
  179SLPC   H5X20413   4.103   1.045   2.926
  179SLPC   H5Y20414   4.221   0.920   2.995
  179SLPC   C3620415   4.233   1.109   3.092
  179SLPC   H6X20416   4.203   1.216   3.084
  179SLPC   H6Y20417   4.342   1.108   3.112
  179SLPC   C3720418   4.157   1.045   3.206
  179SLPC   H7X20419   4.195   1.074   3.306
  179SLPC   H7Y20420   4.173   0.935   3.204
  179SLPC   C3820421   4.005   1.067   3.196
  179SLPC   H8X20422   3.964   1.048   3.095
  179SLPC   H8Y20423   4.002   1.177   3.211
  179SLPC   C3920424   3.906   0.994   3.290
  179SLPC   H9X20425   3.919   0.885   3.276
  179SLPC   H9Y20426   3.807   1.036   3.261
  179SLPC  C31020427   3.927   1.021   3.436
  179SLPC  H10X20428   3.943   1.128   3.459
  179SLPC  H10Y20429   4.023   0.972   3.463
  179SLPC  C31120430   3.826   0.944   3.523
  179SLPC  H11X20431   3.833   0.834   3.504
  179SLPC  H11Y20432   3.723   0.971   3.489
  179SLPC  C31220433   3.830   0.978   3.677
  179SLPC  H12X20434   3.924   0.940   3.721
  179SLPC  H12Y20435   3.737   0.942   3.727
  179SLPC  C31320436   3.826   1.130   3.698
  179SLPC  H13X20437   3.744   1.171   3.636
  179SLPC  H13Y20438   3.924   1.165   3.659
  179SLPC  C31420439   3.830   1.176   3.843
  179SLPC  H14X20440   3.894   1.110   3.906
  179SLPC  H14Y20441   3.724   1.189   3.873
  179SLPC  C31520442   3.906   1.310   3.859
  179SLPC  H15X20443   3.847   1.387   3.804
  179SLPC  H15Y20444   4.002   1.282   3.812
  179SLPC  C31620445   3.932   1.358   4.002
  179SLPC  H16X20446   4.008   1.440   4.002
  179SLPC  H16Y20447   3.969   1.283   4.075
  179SLPC  C31720448   3.807   1.417   4.068
  179SLPC  H17X20449   3.732   1.339   4.092
  179SLPC  H17Y20450   3.748   1.486   4.005
  179SLPC  C31820451   3.839   1.492   4.199
  179SLPC  H18X20452   3.891   1.585   4.167
  179SLPC  H18Y20453   3.898   1.427   4.268
  179SLPC  H18Z20454   3.744   1.526   4.247
  180SLPC     N20455   2.251   1.039   2.398
  180SLPC   C1320456   2.371   0.981   2.450
  180SLPC  H13A20457   2.353   0.957   2.553
  180SLPC  H13B20458   2.395   0.887   2.402
  180SLPC  H13C20459   2.458   1.045   2.439
  180SLPC   C1420460   2.156   0.949   2.329
  180SLPC  H14A20461   2.109   0.889   2.405
  180SLPC  H14B20462   2.072   0.999   2.283
  180SLPC  H14C20463   2.198   0.879   2.258
  180SLPC   C1520464   2.295   1.144   2.292
  180SLPC  H15A20465   2.374   1.198   2.342
  180SLPC  H15B20466   2.342   1.095   2.208
  180SLPC  H15C20467   2.214   1.204   2.254
  180SLPC   C1220468   2.168   1.119   2.507
  180SLPC  H12A20469   2.139   1.045   2.580
  180SLPC  H12B20470   2.074   1.150   2.464
  180SLPC   C1120471   2.234   1.248   2.567
  180SLPC  H11A20472   2.344   1.244   2.582
  180SLPC  H11B20473   2.198   1.268   2.670
  180SLPC     P20474   2.076   1.430   2.476
  180SLPC   O1320475   2.085   1.562   2.409
  180SLPC   O1420476   1.972   1.341   2.424
  180SLPC   O1220477   2.213   1.354   2.479
  180SLPC   O1120478   2.045   1.444   2.634
  180SLPC    C120479   2.084   1.554   2.718
  180SLPC    HA20480   2.021   1.643   2.694
  180SLPC    HB20481   2.075   1.525   2.825
  180SLPC    C220482   2.234   1.604   2.706
  180SLPC    HS20483   2.263   1.595   2.599
  180SLPC   O2120484   2.315   1.526   2.793
  180SLPC   C2120485   2.439   1.515   2.757
  180SLPC   O2220486   2.493   1.556   2.655
  180SLPC   C2220487   2.519   1.440   2.860
  180SLPC   H2R20488   2.627   1.440   2.836
  180SLPC   H2S20489   2.514   1.512   2.945
  180SLPC    C320490   2.245   1.749   2.760
  180SLPC    HX20491   2.188   1.824   2.702
  180SLPC    HY20492   2.349   1.783   2.741
  180SLPC   O3120493   2.200   1.772   2.898
  180SLPC   C3120494   2.293   1.758   2.992
  180SLPC   O3220495   2.413   1.763   2.966
  180SLPC   C3220496   2.227   1.738   3.133
  180SLPC   H2X20497   2.191   1.633   3.137
  180SLPC   H2Y20498   2.143   1.807   3.156
  180SLPC   C2320499   2.471   1.289   2.889
  180SLPC   H3R20500   2.488   1.227   2.798
  180SLPC   H3S20501   2.364   1.305   2.914
  180SLPC   C2420502   2.542   1.216   3.012
  180SLPC   H4R20503   2.562   1.297   3.086
  180SLPC   H4S20504   2.640   1.176   2.977
  180SLPC   C2520505   2.468   1.105   3.081
  180SLPC   H5R20506   2.436   1.023   3.013
  180SLPC   H5S20507   2.368   1.145   3.111
  180SLPC   C2620508   2.545   1.043   3.196
  180SLPC   H6R20509   2.559   1.116   3.279
  180SLPC   H6S20510   2.647   1.013   3.162
  180SLPC   C2720511   2.478   0.921   3.253
  180SLPC   H7R20512   2.548   0.864   3.318
  180SLPC   H7S20513   2.462   0.857   3.164
  180SLPC   C2820514   2.348   0.945   3.322
  180SLPC   H8R20515   2.320   0.843   3.356
  180SLPC   H8S20516   2.273   0.984   3.250
  180SLPC   C2920517   2.340   1.048   3.433
  180SLPC   H9R20518   2.395   1.140   3.407
  180SLPC  C21020519   2.262   1.041   3.546
  180SLPC  H10R20520   2.249   1.136   3.599
  180SLPC  C21120521   2.172   0.925   3.586
  180SLPC  H11R20522   2.222   0.895   3.680
  180SLPC  H11S20523   2.178   0.829   3.530
  180SLPC  C21220524   2.026   0.958   3.607
  180SLPC  H12R20525   1.968   0.968   3.513
  180SLPC  C21320526   1.967   0.994   3.722
  180SLPC  H13R20527   1.859   1.016   3.721
  180SLPC  C21420528   2.042   1.002   3.852
  180SLPC  H14R20529   2.028   1.089   3.919
  180SLPC  H14S20530   2.153   0.992   3.850
  180SLPC  C21520531   1.991   0.898   3.962
  180SLPC  H15R20532   2.030   0.801   3.926
  180SLPC  H15S20533   1.881   0.907   3.954
  180SLPC  C21620534   2.030   0.926   4.102
  180SLPC  H16R20535   1.985   1.026   4.116
  180SLPC  H16S20536   2.138   0.932   4.131
  180SLPC  C21720537   1.966   0.816   4.189
  180SLPC  H17R20538   1.861   0.795   4.159
  180SLPC  H17S20539   1.947   0.865   4.287
  180SLPC  C21820540   2.055   0.690   4.189
  180SLPC  H18R20541   2.047   0.641   4.090
  180SLPC  H18S20542   2.027   0.612   4.263
  180SLPC  H18T20543   2.158   0.719   4.222
  180SLPC   C3320544   2.338   1.744   3.243
  180SLPC   H3X20545   2.387   1.844   3.240
  180SLPC   H3Y20546   2.399   1.652   3.241
  180SLPC   C3420547   2.273   1.733   3.378
  180SLPC   H4X20548   2.191   1.659   3.389
  180SLPC   H4Y20549   2.237   1.834   3.409
  180SLPC   C3520550   2.372   1.688   3.486
  180SLPC   H5X20551   2.463   1.750   3.473
  180SLPC   H5Y20552   2.410   1.585   3.474
  180SLPC   C3620553   2.316   1.711   3.629
  180SLPC   H6X20554   2.216   1.665   3.645
  180SLPC   H6Y20555   2.309   1.820   3.652
  180SLPC   C3720556   2.417   1.656   3.733
  180SLPC   H7X20557   2.514   1.710   3.741
  180SLPC   H7Y20558   2.459   1.559   3.699
  180SLPC   C3820559   2.364   1.643   3.878
  180SLPC   H8X20560   2.296   1.556   3.873
  180SLPC   H8Y20561   2.293   1.725   3.902
  180SLPC   C3920562   2.463   1.610   3.987
  180SLPC   H9X20563   2.522   1.697   4.021
  180SLPC   H9Y20564   2.539   1.542   3.942
  180SLPC  C31020565   2.396   1.548   4.114
  180SLPC  H10X20566   2.472   1.531   4.194
  180SLPC  H10Y20567   2.362   1.446   4.085
  180SLPC  C31120568   2.276   1.620   4.174
  180SLPC  H11X20569   2.186   1.645   4.112
  180SLPC  H11Y20570   2.320   1.719   4.199
  180SLPC  C31220571   2.232   1.561   4.304
  180SLPC  H12X20572   2.196   1.633   4.381
  180SLPC  H12Y20573   2.319   1.512   4.352
  180SLPC  C31320574   2.123   1.453   4.285
  180SLPC  H13X20575   2.168   1.375   4.220
  180SLPC  H13Y20576   2.035   1.499   4.235
  180SLPC  C31420577   2.070   1.392   4.415
  180SLPC  H14X20578   2.030   1.480   4.469
  180SLPC  H14Y20579   2.154   1.345   4.470
  180SLPC  C31520580   1.959   1.288   4.390
  180SLPC  H15X20581   1.933   1.253   4.492
  180SLPC  H15Y20582   2.015   1.205   4.340
  180SLPC  C31620583   1.837   1.336   4.319
  180SLPC  H16X20584   1.866   1.369   4.217
  180SLPC  H16Y20585   1.795   1.422   4.375
  180SLPC  C31720586   1.726   1.230   4.304
  180SLPC  H17X20587   1.629   1.283   4.294
  180SLPC  H17Y20588   1.724   1.163   4.393
  180SLPC  C31820589   1.738   1.144   4.177
  180SLPC  H18X20590   1.798   1.195   4.099
  180SLPC  H18Y20591   1.633   1.132   4.145
  180SLPC  H18Z20592   1.778   1.043   4.201
  181SLPC     N20593   2.114   6.692   1.799
  181SLPC   C1320594   2.112   6.789   1.688
  181SLPC  H13A20595   2.029   0.019   1.692
  181SLPC  H13B20596   2.201   0.012   1.687
  181SLPC  H13C20597   2.105   6.747   1.588
  181SLPC   C1420598   2.168   6.772   1.923
  181SLPC  H14A20599   2.160   6.709   2.010
  181SLPC  H14B20600   2.272   6.801   1.911
  181SLPC  H14C20601   2.105   0.021   1.926
  181SLPC   C1520602   2.210   6.576   1.773
  181SLPC  H15A20603   2.219   6.511   1.859
  181SLPC  H15B20604   2.170   6.528   1.685
  181SLPC  H15C20605   2.304   6.618   1.742
  181SLPC   C1220606   1.975   6.632   1.825
  181SLPC  H12A20607   1.951   6.567   1.741
  181SLPC  H12B20608   1.900   6.711   1.826
  181SLPC   C1120609   1.950   6.564   1.963
  181SLPC  H11A20610   1.839   6.567   1.955
  181SLPC  H11B20611   1.974   6.634   2.046
  181SLPC     P20612   1.913   6.310   2.000
  181SLPC   O1320613   1.789   6.321   1.918
  181SLPC   O1420614   1.990   6.185   1.988
  181SLPC   O1220615   2.009   6.431   1.978
  181SLPC   O1120616   1.864   6.328   2.152
  181SLPC    C120617   1.961   6.397   2.236
  181SLPC    HA20618   2.066   6.366   2.215
  181SLPC    HB20619   1.960   6.507   2.220
  181SLPC    C220620   1.925   6.391   2.389
  181SLPC    HS20621   1.931   6.292   2.439
  181SLPC   O2120622   1.796   6.449   2.408
  181SLPC   C2120623   1.722   6.395   2.509
  181SLPC   O2220624   1.751   6.297   2.577
  181SLPC   C2220625   1.594   6.474   2.529
  181SLPC   H2R20626   1.601   6.570   2.473
  181SLPC   H2S20627   1.502   6.423   2.494
  181SLPC    C320628   2.025   6.487   2.466
  181SLPC    HX20629   2.023   6.585   2.415
  181SLPC    HY20630   2.131   6.456   2.454
  181SLPC   O3120631   1.985   6.495   2.607
  181SLPC   C3120632   2.054   6.592   2.666
  181SLPC   O3220633   2.149   6.650   2.618
  181SLPC   C3220634   2.000   6.608   2.810
  181SLPC   H2X20635   2.028   6.514   2.863
  181SLPC   H2Y20636   1.890   6.623   2.811
  181SLPC   C2320637   1.577   6.520   2.676
  181SLPC   H3R20638   1.501   6.600   2.676
  181SLPC   H3S20639   1.672   6.554   2.721
  181SLPC   C2420640   1.527   6.395   2.754
  181SLPC   H4R20641   1.593   6.306   2.762
  181SLPC   H4S20642   1.430   6.356   2.717
  181SLPC   C2520643   1.491   6.452   2.890
  181SLPC   H5R20644   1.406   6.521   2.870
  181SLPC   H5S20645   1.575   6.509   2.935
  181SLPC   C2620646   1.419   6.359   2.993
  181SLPC   H6R20647   1.484   6.273   3.022
  181SLPC   H6S20648   1.324   6.335   2.941
  181SLPC   C2720649   1.381   6.416   3.131
  181SLPC   H7R20650   1.354   6.522   3.113
  181SLPC   H7S20651   1.479   6.414   3.184
  181SLPC   C2820652   1.263   6.349   3.200
  181SLPC   H8R20653   1.274   6.239   3.209
  181SLPC   H8S20654   1.177   6.351   3.129
  181SLPC   C2920655   1.217   6.426   3.320
  181SLPC   H9R20656   1.142   6.505   3.305
  181SLPC  C21020657   1.251   6.406   3.448
  181SLPC  H10R20658   1.219   6.475   3.527
  181SLPC  C21120659   1.332   6.294   3.503
  181SLPC  H11R20660   1.435   6.328   3.530
  181SLPC  H11S20661   1.358   6.227   3.417
  181SLPC  C21220662   1.268   6.229   3.619
  181SLPC  H12R20663   1.189   6.155   3.597
  181SLPC  C21320664   1.306   6.256   3.744
  181SLPC  H13R20665   1.239   6.220   3.824
  181SLPC  C21420666   1.421   6.345   3.791
  181SLPC  H14R20667   1.382   6.414   3.869
  181SLPC  H14S20668   1.461   6.412   3.713
  181SLPC  C21520669   1.537   6.247   3.847
  181SLPC  H15R20670   1.568   6.177   3.766
  181SLPC  H15S20671   1.479   6.196   3.926
  181SLPC  C21620672   1.658   6.317   3.905
  181SLPC  H16R20673   1.696   6.393   3.834
  181SLPC  H16S20674   1.742   6.245   3.903
  181SLPC  C21720675   1.650   6.386   4.040
  181SLPC  H17R20676   1.634   6.295   4.101
  181SLPC  H17S20677   1.565   6.457   4.033
  181SLPC  C21820678   1.775   6.460   4.072
  181SLPC  H18R20679   1.756   6.513   4.168
  181SLPC  H18S20680   1.805   6.535   3.996
  181SLPC  H18T20681   1.870   6.406   4.094
  181SLPC   C3320682   2.063   6.728   2.891
  181SLPC   H3X20683   2.063   6.825   2.838
  181SLPC   H3Y20684   2.172   6.704   2.893
  181SLPC   C3420685   2.012   6.738   3.038
  181SLPC   H4X20686   1.938   6.657   3.055
  181SLPC   H4Y20687   1.958   6.833   3.060
  181SLPC   C3520688   2.127   6.705   3.134
  181SLPC   H5X20689   2.213   6.769   3.106
  181SLPC   H5Y20690   2.164   6.602   3.113
  181SLPC   C3620691   2.094   6.718   3.284
  181SLPC   H6X20692   2.004   6.660   3.312
  181SLPC   H6Y20693   2.074   6.826   3.302
  181SLPC   C3720694   2.208   6.672   3.372
  181SLPC   H7X20695   2.296   6.735   3.348
  181SLPC   H7Y20696   2.230   6.566   3.349
  181SLPC   C3820697   2.178   6.685   3.524
  181SLPC   H8X20698   2.124   6.591   3.549
  181SLPC   H8Y20699   2.118   6.776   3.546
  181SLPC   C3920700   2.295   6.695   3.605
  181SLPC   H9X20701   2.355   6.776   3.557
  181SLPC   H9Y20702   2.345   6.596   3.602
  181SLPC  C31020703   2.283   6.751   3.753
  181SLPC  H10X20704   2.209   6.692   3.811
  181SLPC  H10Y20705   2.228   0.008   3.741
  181SLPC  C31120706   2.409   6.761   3.829
  181SLPC  H11X20707   2.392   6.806   3.929
  181SLPC  H11Y20708   2.474   6.823   3.764
  181SLPC  C31220709   2.475   6.619   3.856
  181SLPC  H12X20710   2.527   6.587   3.763
  181SLPC  H12Y20711   2.399   6.540   3.869
  181SLPC  C31320712   2.576   6.619   3.974
  181SLPC  H13X20713   2.522   6.663   4.061
  181SLPC  H13Y20714   2.650   6.696   3.941
  181SLPC  C31420715   2.647   6.484   4.016
  181SLPC  H14X20716   2.701   6.442   3.928
  181SLPC  H14Y20717   2.571   6.406   4.036
  181SLPC  C31520718   2.733   6.500   4.147
  181SLPC  H15X20719   2.666   6.552   4.219
  181SLPC  H15Y20720   2.818   6.564   4.115
  181SLPC  C31620721   2.786   6.369   4.213
  181SLPC  H16X20722   2.825   6.307   4.130
  181SLPC  H16Y20723   2.704   6.313   4.264
  181SLPC  C31720724   2.907   6.386   4.300
  181SLPC  H17X20725   2.884   6.438   4.395
  181SLPC  H17Y20726   2.970   6.451   4.235
  181SLPC  C31820727   2.993   6.259   4.321
  181SLPC  H18X20728   3.012   6.217   4.220
  181SLPC  H18Y20729   2.946   6.177   4.380
  181SLPC  H18Z20730   3.089   6.274   4.375
  182SLPC     N20731   2.847   6.144   1.943
  182SLPC   C1320732   2.715   6.091   1.889
  182SLPC  H13A20733   2.632   6.160   1.895
  182SLPC  H13B20734   2.724   6.047   1.791
  182SLPC  H13C20735   2.685   6.008   1.951
  182SLPC   C1420736   2.866   6.266   1.855
  182SLPC  H14A20737   2.789   6.341   1.863
  182SLPC  H14B20738   2.966   6.304   1.874
  182SLPC  H14C20739   2.859   6.234   1.752
  182SLPC   C1520740   2.961   6.047   1.922
  182SLPC  H15A20741   3.062   6.082   1.933
  182SLPC  H15B20742   2.956   5.967   1.994
  182SLPC  H15C20743   2.953   6.002   1.825
  182SLPC   C1220744   2.836   6.187   2.090
  182SLPC  H12A20745   2.933   6.226   2.120
  182SLPC  H12B20746   2.810   6.104   2.154
  182SLPC   C1120747   2.742   6.296   2.134
  182SLPC  H11A20748   2.768   6.397   2.096
  182SLPC  H11B20749   2.746   6.291   2.245
  182SLPC     P20750   2.502   6.212   2.185
  182SLPC   O1320751   2.379   6.211   2.103
  182SLPC   O1420752   2.552   6.082   2.234
  182SLPC   O1220753   2.610   6.280   2.090
  182SLPC   O1120754   2.489   6.313   2.305
  182SLPC    C120755   2.374   6.305   2.389
  182SLPC    HA20756   2.373   6.405   2.438
  182SLPC    HB20757   2.276   6.285   2.340
  182SLPC    C220758   2.392   6.215   2.508
  182SLPC    HS20759   2.370   6.112   2.470
  182SLPC   O2120760   2.289   6.251   2.602
  182SLPC   C2120761   2.264   6.164   2.692
  182SLPC   O2220762   2.309   6.050   2.696
  182SLPC   C2220763   2.152   6.211   2.785
  182SLPC   H2R20764   2.202   6.296   2.836
  182SLPC   H2S20765   2.064   6.256   2.734
  182SLPC    C320766   2.533   6.232   2.571
  182SLPC    HX20767   2.538   6.333   2.616
  182SLPC    HY20768   2.617   6.221   2.498
  182SLPC   O3120769   2.558   6.141   2.684
  182SLPC   C3120770   2.598   6.026   2.650
  182SLPC   O3220771   2.626   5.990   2.537
  182SLPC   C3220772   2.597   5.920   2.762
  182SLPC   H2X20773   2.689   5.860   2.776
  182SLPC   H2Y20774   2.525   5.840   2.734
  182SLPC   C2320775   2.110   6.115   2.892
  182SLPC   H3R20776   2.211   6.095   2.932
  182SLPC   H3S20777   2.079   6.018   2.848
  182SLPC   C2420778   2.017   6.176   2.996
  182SLPC   H4R20779   1.924   6.218   2.952
  182SLPC   H4S20780   2.078   6.251   3.050
  182SLPC   C2520781   1.973   6.074   3.098
  182SLPC   H5R20782   2.054   6.006   3.131
  182SLPC   H5S20783   1.898   6.002   3.059
  182SLPC   C2620784   1.904   6.120   3.227
  182SLPC   H6R20785   1.976   6.171   3.295
  182SLPC   H6S20786   1.874   6.034   3.290
  182SLPC   C2720787   1.781   6.211   3.217
  182SLPC   H7R20788   1.697   6.149   3.178
  182SLPC   H7S20789   1.791   6.293   3.143
  182SLPC   C2820790   1.751   6.279   3.355
  182SLPC   H8R20791   1.659   6.339   3.337
  182SLPC   H8S20792   1.841   6.342   3.373
  182SLPC   C2920793   1.723   6.180   3.465
  182SLPC   H9R20794   1.641   6.109   3.448
  182SLPC  C21020795   1.791   6.167   3.580
  182SLPC  H10R20796   1.758   6.087   3.648
  182SLPC  C21120797   1.907   6.252   3.626
  182SLPC  H11R20798   1.871   6.339   3.685
  182SLPC  H11S20799   1.954   6.296   3.535
  182SLPC  C21220800   2.002   6.163   3.694
  182SLPC  H12R20801   2.002   6.063   3.649
  182SLPC  C21320802   2.094   6.204   3.788
  182SLPC  H13R20803   2.159   6.127   3.833
  182SLPC  C21420804   2.123   6.340   3.846
  182SLPC  H14R20805   2.047   6.412   3.808
  182SLPC  H14S20806   2.220   6.373   3.805
  182SLPC  C21520807   2.120   6.333   4.004
  182SLPC  H15R20808   2.206   6.272   4.038
  182SLPC  H15S20809   2.027   6.278   4.031
  182SLPC  C21620810   2.133   6.468   4.062
  182SLPC  H16R20811   2.059   6.530   4.008
  182SLPC  H16S20812   2.234   6.506   4.035
  182SLPC  C21720813   2.126   6.480   4.215
  182SLPC  H17R20814   2.198   6.404   4.251
  182SLPC  H17S20815   2.030   6.443   4.256
  182SLPC  C21820816   2.170   6.622   4.274
  182SLPC  H18R20817   2.258   6.671   4.228
  182SLPC  H18S20818   2.208   6.607   4.377
  182SLPC  H18T20819   2.082   6.690   4.277
  182SLPC   C3320820   2.568   5.982   2.906
  182SLPC   H3X20821   2.506   6.074   2.909
  182SLPC   H3Y20822   2.663   6.001   2.959
  182SLPC   C3420823   2.481   5.888   2.991
  182SLPC   H4X20824   2.535   5.791   2.992
  182SLPC   H4Y20825   2.385   5.869   2.940
  182SLPC   C3520826   2.460   5.947   3.136
  182SLPC   H5X20827   2.406   6.043   3.118
  182SLPC   H5Y20828   2.560   5.978   3.173
  182SLPC   C3620829   2.383   5.866   3.241
  182SLPC   H6X20830   2.432   5.766   3.245
  182SLPC   H6Y20831   2.279   5.845   3.207
  182SLPC   C3720832   2.388   5.941   3.368
  182SLPC   H7X20833   2.348   6.044   3.355
  182SLPC   H7Y20834   2.498   5.950   3.382
  182SLPC   C3820835   2.324   5.880   3.496
  182SLPC   H8X20836   2.217   5.855   3.478
  182SLPC   H8Y20837   2.334   5.958   3.574
  182SLPC   C3920838   2.385   5.753   3.551
  182SLPC   H9X20839   2.495   5.763   3.562
  182SLPC   H9Y20840   2.372   5.664   3.485
  182SLPC  C31020841   2.338   5.720   3.691
  182SLPC  H10X20842   2.234   5.685   3.704
  182SLPC  H10Y20843   2.333   5.816   3.748
  182SLPC  C31120844   2.432   5.626   3.764
  182SLPC  H11X20845   2.538   5.655   3.747
  182SLPC  H11Y20846   2.429   5.530   3.708
  182SLPC  C31220847   2.408   5.613   3.921
  182SLPC  H12X20848   2.319   5.548   3.934
  182SLPC  H12Y20849   2.401   5.715   3.963
  182SLPC  C31320850   2.527   5.526   3.984
  182SLPC  H13X20851   2.618   5.589   3.978
  182SLPC  H13Y20852   2.547   5.435   3.924
  182SLPC  C31420853   2.507   5.495   4.134
  182SLPC  H14X20854   2.604   5.474   4.183
  182SLPC  H14Y20855   2.430   5.415   4.133
  182SLPC  C31520856   2.453   5.620   4.213
  182SLPC  H15X20857   2.352   5.647   4.176
  182SLPC  H15Y20858   2.530   5.698   4.194
  182SLPC  C31620859   2.451   5.588   4.365
  182SLPC  H16X20860   2.555   5.564   4.397
  182SLPC  H16Y20861   2.390   5.496   4.376
  182SLPC  C31720862   2.397   5.711   4.441
  182SLPC  H17X20863   2.405   5.696   4.551
  182SLPC  H17Y20864   2.291   5.739   4.424
  182SLPC  C31820865   2.474   5.845   4.404
  182SLPC  H18X20866   2.583   5.826   4.393
  182SLPC  H18Y20867   2.450   5.927   4.475
  182SLPC  H18Z20868   2.442   5.886   4.305
  183SLPC     N20869   5.517   2.767   2.008
  183SLPC   C1320870   5.551   2.745   1.870
  183SLPC  H13A20871   5.557   2.638   1.856
  183SLPC  H13B20872   5.481   2.785   1.799
  183SLPC  H13C20873   5.648   2.787   1.847
  183SLPC   C1420874   5.387   2.690   2.028
  183SLPC  H14A20875   5.405   2.587   2.004
  183SLPC  H14B20876   5.356   2.696   2.131
  183SLPC  H14C20877   5.311   2.725   1.959
  183SLPC   C1520878   5.507   2.914   2.032
  183SLPC  H15A20879   5.487   2.928   2.137
  183SLPC  H15B20880   5.599   2.964   2.007
  183SLPC  H15C20881   5.432   2.963   1.970
  183SLPC   C1220882   5.629   2.706   2.087
  183SLPC  H12A20883   5.608   2.727   2.191
  183SLPC  H12B20884   5.720   2.759   2.067
  183SLPC   C1120885   5.667   2.552   2.080
  183SLPC  H11A20886   5.760   2.546   2.141
  183SLPC  H11B20887   5.689   2.530   1.974
  183SLPC     P20888   5.550   2.323   2.135
  183SLPC   O1320889   5.422   2.276   2.193
  183SLPC   O1420890   5.590   2.260   2.003
  183SLPC   O1220891   5.563   2.480   2.137
  183SLPC   O1120892   5.671   2.279   2.230
  183SLPC    C120893   5.659   2.174   2.325
  183SLPC    HA20894   5.580   2.200   2.399
  183SLPC    HB20895   5.635   2.083   2.267
  183SLPC    C220896   5.787   2.137   2.407
  183SLPC    HS20897   5.773   2.035   2.448
  183SLPC   O2120898   5.816   2.244   2.506
  183SLPC   C2120899   5.738   2.217   2.620
  183SLPC   O2220900   5.661   2.122   2.631
  183SLPC   C2220901   5.775   2.325   2.725
  183SLPC   H2R20902   5.885   2.316   2.726
  183SLPC   H2S20903   5.742   2.424   2.687
  183SLPC    C320904   5.912   2.132   2.313
  183SLPC    HX20905   5.914   2.229   2.258
  183SLPC    HY20906   5.894   2.053   2.237
  183SLPC   O3120907   6.033   2.113   2.384
  183SLPC   C3120908   6.081   1.990   2.399
  183SLPC   O3220909   6.044   1.880   2.353
  183SLPC   C3220910   6.200   1.992   2.499
  183SLPC   H2X20911   6.278   2.053   2.448
  183SLPC   H2Y20912   6.245   1.892   2.511
  183SLPC   C2320913   5.704   2.313   2.860
  183SLPC   H3R20914   5.720   2.213   2.907
  183SLPC   H3S20915   5.596   2.338   2.850
  183SLPC   C2420916   5.766   2.405   2.969
  183SLPC   H4R20917   5.774   2.505   2.922
  183SLPC   H4S20918   5.870   2.371   2.989
  183SLPC   C2520919   5.686   2.412   3.101
  183SLPC   H5R20920   5.710   2.323   3.163
  183SLPC   H5S20921   5.577   2.406   3.081
  183SLPC   C2620922   5.727   2.535   3.181
  183SLPC   H6R20923   5.713   2.635   3.136
  183SLPC   H6S20924   5.837   2.527   3.196
  183SLPC   C2720925   5.655   2.558   3.321
  183SLPC   H7R20926   5.548   2.577   3.297
  183SLPC   H7S20927   5.699   2.650   3.366
  183SLPC   C2820928   5.658   2.441   3.424
  183SLPC   H8R20929   5.631   2.347   3.371
  183SLPC   H8S20930   5.586   2.466   3.504
  183SLPC   C2920931   5.792   2.421   3.481
  183SLPC   H9R20932   5.873   2.420   3.407
  183SLPC  C21020933   5.810   2.380   3.607
  183SLPC  H10R20934   5.913   2.363   3.641
  183SLPC  C21120935   5.717   2.375   3.727
  183SLPC  H11R20936   5.648   2.293   3.700
  183SLPC  H11S20937   5.654   2.466   3.729
  183SLPC  C21220938   5.773   2.364   3.860
  183SLPC  H12R20939   5.739   2.283   3.925
  183SLPC  C21320940   5.860   2.449   3.917
  183SLPC  H13R20941   5.886   2.439   4.024
  183SLPC  C21420942   5.920   2.577   3.847
  183SLPC  H14R20943   5.887   2.584   3.741
  183SLPC  H14S20944   6.030   2.561   3.839
  183SLPC  C21520945   5.898   2.702   3.933
  183SLPC  H15R20946   5.947   2.788   3.884
  183SLPC  H15S20947   5.957   2.696   4.027
  183SLPC  C21620948   5.751   2.741   3.952
  183SLPC  H16R20949   5.695   2.654   3.993
  183SLPC  H16S20950   5.710   2.761   3.851
  183SLPC  C21720951   5.727   2.861   4.040
  183SLPC  H17R20952   5.617   2.875   4.035
  183SLPC  H17S20953   5.775   2.950   3.992
  183SLPC  C21820954   5.764   2.859   4.185
  183SLPC  H18R20955   5.726   2.941   4.250
  183SLPC  H18S20956   5.874   2.855   4.204
  183SLPC  H18T20957   5.732   2.764   4.232
  183SLPC   C3320958   6.159   2.021   2.647
  183SLPC   H3X20959   6.117   1.931   2.696
  183SLPC   H3Y20960   6.082   2.101   2.658
  183SLPC   C3420961   6.279   2.057   2.731
  183SLPC   H4X20962   6.312   2.153   2.687
  183SLPC   H4Y20963   6.355   1.978   2.711
  183SLPC   C3520964   6.258   2.071   2.887
  183SLPC   H5X20965   6.349   2.096   2.945
  183SLPC   H5Y20966   6.226   1.977   2.937
  183SLPC   C3620967   6.160   2.183   2.917
  183SLPC   H6X20968   6.073   2.153   2.855
  183SLPC   H6Y20969   6.203   2.281   2.887
  183SLPC   C3720970   6.130   2.182   3.067
  183SLPC   H7X20971   6.107   2.078   3.099
  183SLPC   H7Y20972   6.039   2.242   3.091
  183SLPC   C3820973   6.236   2.257   3.150
  183SLPC   H8X20974   6.242   2.357   3.101
  183SLPC   H8Y20975   6.340   2.219   3.141
  183SLPC   C3920976   6.198   2.275   3.293
  183SLPC   H9X20977   6.156   2.179   3.332
  183SLPC   H9Y20978   6.126   2.356   3.318
  183SLPC  C31020979   6.323   2.301   3.382
  183SLPC  H10X20980   6.367   2.397   3.347
  183SLPC  H10Y20981   6.403   2.227   3.362
  183SLPC  C31120982   6.275   2.308   3.531
  183SLPC  H11X20983   6.203   2.391   3.546
  183SLPC  H11Y20984   6.367   2.338   3.586
  183SLPC  C31220985   6.225   2.174   3.584
  183SLPC  H12X20986   6.299   2.098   3.551
  183SLPC  H12Y20987   6.123   2.151   3.547
  183SLPC  C31320988   6.238   2.180   3.736
  183SLPC  H13X20989   6.203   2.283   3.761
  183SLPC  H13Y20990   6.346   2.169   3.760
  183SLPC  C31420991   6.152   2.068   3.805
  183SLPC  H14X20992   6.191   1.965   3.791
  183SLPC  H14Y20993   6.052   2.087   3.759
  183SLPC  C31520994   6.138   2.110   3.946
  183SLPC  H15X20995   6.093   2.212   3.949
  183SLPC  H15Y20996   6.243   2.117   3.984
  183SLPC  C31620997   6.051   2.014   4.025
  183SLPC  H16X20998   6.087   1.912   3.999
  183SLPC  H16Y20999   5.949   2.033   3.985
  183SLPC  C31721000   6.067   2.035   4.174
  183SLPC  H17X21001   6.051   2.141   4.205
  183SLPC  H17Y21002   6.175   2.014   4.191
  183SLPC  C31821003   5.984   1.940   4.263
  183SLPC  H18X21004   5.977   1.970   4.370
  183SLPC  H18Y21005   6.016   1.834   4.259
  183SLPC  H18Z21006   5.882   1.946   4.220
  184SLPC     N21007   6.501   1.155   2.079
  184SLPC   C1321008   6.473   1.227   1.949
  184SLPC  H13A21009   6.520   1.323   1.964
  184SLPC  H13B21010   6.496   1.178   1.856
  184SLPC  H13C21011   6.370   1.256   1.939
  184SLPC   C1421012   6.640   1.089   2.082
  184SLPC  H14A21013   6.723   1.154   2.061
  184SLPC  H14B21014   6.660   1.032   2.172
  184SLPC  H14C21015   6.642   1.020   1.999
  184SLPC   C1521016   6.405   1.037   2.069
  184SLPC  H15A21017   6.423   0.988   1.974
  184SLPC  H15B21018   6.431   0.967   2.146
  184SLPC  H15C21019   6.302   1.070   2.078
  184SLPC   C1221020   6.470   1.240   2.201
  184SLPC  H12A21021   6.480   1.174   2.287
  184SLPC  H12B21022   6.368   1.274   2.203
  184SLPC   C1121023   6.568   1.360   2.229
  184SLPC  H11A21024   6.668   1.312   2.237
  184SLPC  H11B21025   6.542   1.397   2.330
  184SLPC     P21026   6.477   1.584   2.130
  184SLPC   O1321027   6.515   1.662   2.010
  184SLPC   O1421028   6.337   1.540   2.134
  184SLPC   O1221029   6.572   1.454   2.132
  184SLPC   O1121030   6.514   1.664   2.263
  184SLPC    C121031   6.650   1.694   2.305
  184SLPC    HA21032   6.730   1.627   2.267
  184SLPC    HB21033   6.683   1.798   2.280
  184SLPC    C221034   6.655   1.684   2.460
  184SLPC    HS21035   6.758   1.712   2.490
  184SLPC   O2121036   6.627   1.548   2.508
  184SLPC   C2121037   6.737   1.475   2.528
  184SLPC   O2221038   0.012   1.525   2.529
  184SLPC   C2221039   6.712   1.330   2.533
  184SLPC   H2R21040   6.605   1.313   2.558
  184SLPC   H2S21041   6.738   1.288   2.434
  184SLPC    C321042   6.561   1.787   2.530
  184SLPC    HX21043   6.467   1.785   2.471
  184SLPC    HY21044   6.605   1.888   2.517
  184SLPC   O3121045   6.551   1.759   2.671
  184SLPC   C3121046   6.435   1.714   2.710
  184SLPC   O3221047   6.340   1.689   2.639
  184SLPC   C3221048   6.439   1.708   2.862
  184SLPC   H2X21049   6.466   1.807   2.905
  184SLPC   H2Y21050   6.517   1.632   2.883
  184SLPC   C2321051   6.803   1.260   2.643
  184SLPC   H3R21052   0.066   1.306   2.640
  184SLPC   H3S21053   6.800   1.152   2.621
  184SLPC   C2421054   6.753   1.293   2.784
  184SLPC   H4R21055   6.660   1.234   2.792
  184SLPC   H4S21056   6.730   1.401   2.791
  184SLPC   C2521057   0.016   1.256   2.893
  184SLPC   H5R21058   0.111   1.311   2.879
  184SLPC   H5S21059   0.039   1.149   2.871
  184SLPC   C2621060   6.815   1.279   3.037
  184SLPC   H6R21061   6.715   1.236   3.061
  184SLPC   H6S21062   6.805   1.384   3.072
  184SLPC   C2721063   0.078   1.215   3.136
  184SLPC   H7R21064   0.099   1.115   3.092
  184SLPC   H7S21065   0.029   1.195   3.234
  184SLPC   C2821066   0.210   1.296   3.147
  184SLPC   H8R21067   0.180   1.402   3.162
  184SLPC   H8S21068   0.249   1.287   3.044
  184SLPC   C2921069   0.329   1.251   3.228
  184SLPC   H9R21070   0.428   1.271   3.184
  184SLPC  C21021071   0.336   1.182   3.344
  184SLPC  H10R21072   0.434   1.145   3.377
  184SLPC  C21121073   0.229   1.151   3.450
  184SLPC  H11R21074   0.132   1.139   3.398
  184SLPC  H11S21075   0.225   1.248   3.504
  184SLPC  C21221076   0.256   1.049   3.555
  184SLPC  H12R21077   0.352   1.072   3.603
  184SLPC  C21321078   0.189   0.928   3.579
  184SLPC  H13R21079   0.234   0.862   3.655
  184SLPC  C21421080   0.063   0.880   3.508
  184SLPC  H14R21081   0.041   0.954   3.429
  184SLPC  H14S21082   6.815   0.873   3.578
  184SLPC  C21521083   0.083   0.751   3.428
  184SLPC  H15R21084   0.084   0.670   3.505
  184SLPC  H15S21085   0.189   0.750   3.395
  184SLPC  C21621086   6.814   0.722   3.321
  184SLPC  H16R21087   6.715   0.740   3.367
  184SLPC  H16S21088   6.820   0.615   3.289
  184SLPC  C21721089   6.831   0.809   3.191
  184SLPC  H17R21090   0.085   0.770   3.143
  184SLPC  H17S21091   0.005   0.914   3.225
  184SLPC  C21821092   6.716   0.777   3.088
  184SLPC  H18R21093   6.618   0.793   3.137
  184SLPC  H18S21094   6.719   0.680   3.036
  184SLPC  H18T21095   6.732   0.856   3.012
  184SLPC   C3321096   6.304   1.654   2.915
  184SLPC   H3X21097   6.285   1.558   2.863
  184SLPC   H3Y21098   6.212   1.712   2.891
  184SLPC   C3421099   6.302   1.632   3.067
  184SLPC   H4X21100   6.363   1.544   3.097
  184SLPC   H4Y21101   6.204   1.590   3.098
  184SLPC   C3521102   6.334   1.751   3.151
  184SLPC   H5X21103   6.250   1.823   3.145
  184SLPC   H5Y21104   6.418   1.803   3.102
  184SLPC   C3621105   6.362   1.721   3.298
  184SLPC   H6X21106   6.423   1.805   3.339
  184SLPC   H6Y21107   6.433   1.635   3.304
  184SLPC   C3721108   6.235   1.701   3.386
  184SLPC   H7X21109   6.168   1.616   3.363
  184SLPC   H7Y21110   6.179   1.794   3.364
  184SLPC   C3821111   6.253   1.722   3.536
  184SLPC   H8X21112   6.154   1.715   3.585
  184SLPC   H8Y21113   6.275   1.831   3.544
  184SLPC   C3921114   6.367   1.650   3.609
  184SLPC   H9X21115   6.464   1.676   3.561
  184SLPC   H9Y21116   6.351   1.543   3.588
  184SLPC  C31021117   6.360   1.669   3.765
  184SLPC  H10X21118   6.267   1.627   3.807
  184SLPC  H10Y21119   6.367   1.780   3.776
  184SLPC  C31121120   6.483   1.603   3.831
  184SLPC  H11X21121   6.574   1.642   3.781
  184SLPC  H11Y21122   6.485   1.493   3.816
  184SLPC  C31221123   6.498   1.626   3.986
  184SLPC  H12X21124   6.524   1.728   4.021
  184SLPC  H12Y21125   6.584   1.568   4.027
  184SLPC  C31321126   6.363   1.603   4.060
  184SLPC  H13X21127   6.321   1.500   4.057
  184SLPC  H13Y21128   6.288   1.674   4.020
  184SLPC  C31421129   6.387   1.642   4.205
  184SLPC  H14X21130   6.405   1.751   4.203
  184SLPC  H14Y21131   6.483   1.597   4.237
  184SLPC  C31521132   6.271   1.595   4.292
  184SLPC  H15X21133   6.288   1.488   4.314
  184SLPC  H15Y21134   6.175   1.596   4.236
  184SLPC  C31621135   6.255   1.661   4.422
  184SLPC  H16X21136   6.276   1.769   4.418
  184SLPC  H16Y21137   6.330   1.623   4.494
  184SLPC  C31721138   6.118   1.647   4.498
  184SLPC  H17X21139   6.075   1.548   4.471
  184SLPC  H17Y21140   6.053   1.721   4.446
  184SLPC  C31821141   6.123   1.656   4.650
  184SLPC  H18X21142   6.170   1.752   4.682
  184SLPC  H18Y21143   6.165   1.559   4.684
  184SLPC  H18Z21144   6.021   1.665   4.693
  185POPC     N21145   2.309   5.455   7.060
  185POPC   C1221146   2.361   5.525   6.937
  185POPC  H12A21147   2.437   5.471   6.882
  185POPC  H12B21148   2.409   5.610   6.984
  185POPC   C1321149   2.215   5.351   7.023
  185POPC  H13A21150   2.137   5.389   6.958
  185POPC  H13B21151   2.267   5.273   6.969
  185POPC  H13C21152   2.165   5.307   7.108
  185POPC   C1421153   2.414   5.398   7.143
  185POPC  H14A21154   2.487   5.334   7.097
  185POPC  H14B21155   2.465   5.478   7.196
  185POPC  H14C21156   2.375   5.340   7.225
  185POPC   C1521157   2.231   5.544   7.149
  185POPC  H15A21158   2.159   5.607   7.098
  185POPC  H15B21159   2.302   5.613   7.191
  185POPC  H15C21160   2.180   5.490   7.227
  185POPC   C1121161   2.257   5.582   6.832
  185POPC  H11A21162   2.245   5.493   6.767
  185POPC  H11B21163   2.311   5.659   6.773
  185POPC     P21164   1.986   5.607   6.852
  185POPC   O1321165   1.894   5.692   6.929
  185POPC   O1421166   1.961   5.462   6.867
  185POPC   O1221167   2.136   5.633   6.898
  185POPC   O1121168   1.984   5.635   6.691
  185POPC    C121169   1.981   5.770   6.636
  185POPC    HA21170   2.068   5.805   6.576
  185POPC    HB21171   1.979   5.841   6.722
  185POPC    C221172   1.858   5.782   6.552
  185POPC    HS21173   1.775   5.756   6.621
  185POPC   O2121174   1.868   5.693   6.437
  185POPC   C2121175   1.760   5.622   6.407
  185POPC   O2221176   1.650   5.631   6.458
  185POPC   C2221177   1.788   5.536   6.287
  185POPC   H2R21178   1.842   5.445   6.322
  185POPC   H2S21179   1.855   5.591   6.218
  185POPC    C321180   1.843   5.931   6.498
  185POPC    HX21181   1.932   5.964   6.441
  185POPC    HY21182   1.835   5.984   6.596
  185POPC   O3121183   1.728   5.934   6.413
  185POPC   C3121184   1.691   6.066   6.390
  185POPC   O3221185   1.747   6.151   6.455
  185POPC   C3221186   1.569   6.090   6.303
  185POPC   H2X21187   1.543   6.197   6.285
  185POPC   H2Y21188   1.484   6.036   6.350
  185POPC   C2321189   1.664   5.486   6.207
  185POPC   H3R21190   1.596   5.440   6.281
  185POPC   H3S21191   1.706   5.413   6.134
  185POPC   C2421192   1.592   5.592   6.118
  185POPC   H4R21193   1.557   5.679   6.177
  185POPC   H4S21194   1.506   5.538   6.072
  185POPC   C2521195   1.685   5.644   6.008
  185POPC   H5R21196   1.785   5.672   6.047
  185POPC   H5S21197   1.644   5.741   5.972
  185POPC   C2621198   1.717   5.545   5.889
  185POPC   H6R21199   1.621   5.498   5.859
  185POPC   H6S21200   1.779   5.456   5.912
  185POPC   C2721201   1.758   5.629   5.770
  185POPC   H7R21202   1.849   5.682   5.805
  185POPC   H7S21203   1.675   5.701   5.751
  185POPC   C2821204   1.791   5.562   5.633
  185POPC   H8R21205   1.842   5.646   5.580
  185POPC   H8S21206   1.686   5.542   5.601
  185POPC   C2921207   1.859   5.433   5.626
  185POPC   H9121208   1.878   5.390   5.725
  185POPC  C21021209   1.909   5.379   5.517
  185POPC  H10121210   1.954   5.279   5.524
  185POPC  C21121211   1.898   5.435   5.380
  185POPC  H11R21212   1.846   5.533   5.379
  185POPC  H11S21213   1.839   5.368   5.315
  185POPC  C21221214   2.031   5.459   5.304
  185POPC  H12R21215   2.076   5.359   5.292
  185POPC  H12S21216   2.109   5.509   5.365
  185POPC  C21321217   2.020   5.526   5.166
  185POPC  H13R21218   1.954   5.615   5.178
  185POPC  H13S21219   1.975   5.452   5.096
  185POPC  C21421220   2.150   5.571   5.100
  185POPC  H14R21221   2.222   5.489   5.118
  185POPC  H14S21222   2.207   5.649   5.154
  185POPC  C21521223   2.133   5.593   4.948
  185POPC  H15R21224   2.064   5.516   4.906
  185POPC  H15S21225   2.234   5.577   4.905
  185POPC  C21621226   2.094   5.742   4.913
  185POPC  H16R21227   2.147   5.816   4.977
  185POPC  H16S21228   1.986   5.753   4.937
  185POPC  C21721229   2.133   5.791   4.768
  185POPC  H17R21230   2.225   5.739   4.732
  185POPC  H17S21231   2.160   5.899   4.771
  185POPC  C21821232   2.018   5.761   4.665
  185POPC  H18R21233   2.017   5.650   4.663
  185POPC  H18S21234   2.041   5.816   4.571
  185POPC  H18T21235   1.928   5.807   4.713
  185POPC   C3321236   1.591   6.030   6.163
  185POPC   H3X21237   1.492   6.025   6.113
  185POPC   H3Y21238   1.641   5.930   6.167
  185POPC   C3421239   1.690   6.127   6.084
  185POPC   H4X21240   1.774   6.151   6.153
  185POPC   H4Y21241   1.626   6.216   6.068
  185POPC   C3521242   1.735   6.055   5.962
  185POPC   H5X21243   1.776   5.962   6.007
  185POPC   H5Y21244   1.820   6.107   5.913
  185POPC   C3621245   1.618   6.015   5.860
  185POPC   H6X21246   1.535   6.081   5.895
  185POPC   H6Y21247   1.597   5.906   5.856
  185POPC   C3721248   1.648   6.072   5.724
  185POPC   H7X21249   1.747   6.031   5.694
  185POPC   H7Y21250   1.653   6.183   5.722
  185POPC   C3821251   1.554   6.022   5.611
  185POPC   H8X21252   1.475   6.100   5.610
  185POPC   H8Y21253   1.509   5.924   5.640
  185POPC   C3921254   1.613   5.996   5.467
  185POPC   H9X21255   1.688   6.077   5.455
  185POPC   H9Y21256   1.540   6.016   5.385
  185POPC  C31021257   1.681   5.860   5.445
  185POPC  H10X21258   1.602   5.785   5.467
  185POPC  H10Y21259   1.759   5.861   5.524
  185POPC  C31121260   1.752   5.835   5.315
  185POPC  H11X21261   1.808   5.739   5.318
  185POPC  H11Y21262   1.820   5.920   5.294
  185POPC  C31221263   1.647   5.808   5.205
  185POPC  H12X21264   1.569   5.886   5.194
  185POPC  H12Y21265   1.602   5.715   5.247
  185POPC  C31321266   1.704   5.755   5.069
  185POPC  H13X21267   1.753   5.655   5.072
  185POPC  H13Y21268   1.782   5.825   5.033
  185POPC  C31421269   1.601   5.746   4.957
  185POPC  H14X21270   1.579   5.853   4.934
  185POPC  H14Y21271   1.511   5.694   4.995
  185POPC  C31521272   1.668   5.676   4.844
  185POPC  H15X21273   1.687   5.577   4.889
  185POPC  H15Y21274   1.764   5.730   4.826
  185POPC  C31621275   1.599   5.657   4.714
  185POPC  H16X21276   1.491   5.637   4.731
  185POPC  H16Y21277   1.645   5.567   4.667
  185POPC  H16Z21278   1.610   5.746   4.650
  186POPC     N21279   3.349   5.627   6.788
  186POPC   C1221280   3.466   5.536   6.836
  186POPC  H12A21281   3.432   5.435   6.818
  186POPC  H12B21282   3.486   5.551   6.941
  186POPC   C1321283   3.319   5.603   6.643
  186POPC  H13A21284   3.264   5.684   6.597
  186POPC  H13B21285   3.414   5.603   6.591
  186POPC  H13C21286   3.280   5.507   6.615
  186POPC   C1421287   3.230   5.598   6.864
  186POPC  H14A21288   3.155   5.672   6.840
  186POPC  H14B21289   3.201   5.498   6.837
  186POPC  H14C21290   3.256   5.587   6.968
  186POPC   C1521291   3.394   5.768   6.819
  186POPC  H15A21292   3.337   5.841   6.764
  186POPC  H15B21293   3.499   5.772   6.792
  186POPC  H15C21294   3.393   5.783   6.926
  186POPC   C1121295   3.605   5.555   6.767
  186POPC  H11A21296   3.630   5.660   6.742
  186POPC  H11B21297   3.599   5.508   6.667
  186POPC     P21298   3.843   5.551   6.869
  186POPC   O1321299   3.922   5.441   6.929
  186POPC   O1421300   3.841   5.688   6.932
  186POPC   O1221301   3.701   5.498   6.858
  186POPC   O1121302   3.891   5.567   6.719
  186POPC    C121303   3.883   5.453   6.631
  186POPC    HA21304   3.822   5.369   6.671
  186POPC    HB21305   3.983   5.406   6.633
  186POPC    C221306   3.868   5.513   6.494
  186POPC    HS21307   3.768   5.562   6.493
  186POPC   O2121308   3.864   5.409   6.400
  186POPC   C2121309   3.798   5.426   6.292
  186POPC   O2221310   3.737   5.525   6.260
  186POPC   C2221311   3.781   5.290   6.218
  186POPC   H2R21312   3.727   5.229   6.294
  186POPC   H2S21313   3.887   5.258   6.210
  186POPC    C321314   3.977   5.621   6.464
  186POPC    HX21315   4.077   5.589   6.500
  186POPC    HY21316   3.952   5.712   6.522
  186POPC   O3121317   3.994   5.647   6.324
  186POPC   C3121318   3.924   5.748   6.280
  186POPC   O3221319   3.862   5.824   6.346
  186POPC   C3221320   3.944   5.758   6.126
  186POPC   H2X21321   3.904   5.668   6.074
  186POPC   H2Y21322   4.054   5.761   6.114
  186POPC   C2321323   3.705   5.315   6.083
  186POPC   H3R21324   3.617   5.382   6.097
  186POPC   H3S21325   3.663   5.218   6.046
  186POPC   C2421326   3.788   5.376   5.970
  186POPC   H4R21327   3.895   5.349   5.980
  186POPC   H4S21328   3.781   5.486   5.983
  186POPC   C2521329   3.739   5.336   5.826
  186POPC   H5R21330   3.704   5.231   5.836
  186POPC   H5S21331   3.822   5.321   5.754
  186POPC   C2621332   3.635   5.429   5.761
  186POPC   H6R21333   3.534   5.428   5.808
  186POPC   H6S21334   3.618   5.384   5.660
  186POPC   C2721335   3.693   5.575   5.735
  186POPC   H7R21336   3.784   5.574   5.671
  186POPC   H7S21337   3.726   5.623   5.829
  186POPC   C2821338   3.589   5.671   5.664
  186POPC   H8R21339   3.629   5.775   5.662
  186POPC   H8S21340   3.520   5.686   5.750
  186POPC   C2921341   3.532   5.624   5.537
  186POPC   H9121342   3.436   5.572   5.546
  186POPC  C21021343   3.596   5.612   5.422
  186POPC  H10121344   3.554   5.560   5.335
  186POPC  C21121345   3.730   5.684   5.398
  186POPC  H11R21346   3.808   5.624   5.451
  186POPC  H11S21347   3.731   5.784   5.446
  186POPC  C21221348   3.767   5.713   5.249
  186POPC  H12R21349   3.762   5.617   5.193
  186POPC  H12S21350   3.872   5.750   5.244
  186POPC  C21321351   3.663   5.789   5.163
  186POPC  H13R21352   3.661   5.891   5.206
  186POPC  H13S21353   3.564   5.739   5.167
  186POPC  C21421354   3.717   5.776   5.019
  186POPC  H14R21355   3.734   5.671   4.985
  186POPC  H14S21356   3.807   5.839   5.000
  186POPC  C21521357   3.617   5.853   4.924
  186POPC  H15R21358   3.591   5.953   4.962
  186POPC  H15S21359   3.527   5.788   4.929
  186POPC  C21621360   3.649   5.850   4.768
  186POPC  H16R21361   3.583   5.925   4.720
  186POPC  H16S21362   3.636   5.744   4.736
  186POPC  C21721363   3.799   5.901   4.738
  186POPC  H17R21364   3.859   5.808   4.735
  186POPC  H17S21365   3.833   5.974   4.814
  186POPC  C21821366   3.818   5.969   4.604
  186POPC  H18R21367   3.837   5.898   4.521
  186POPC  H18S21368   3.904   6.038   4.609
  186POPC  H18T21369   3.729   6.030   4.575
  186POPC   C3321370   3.876   5.879   6.068
  186POPC   H3X21371   3.917   5.974   6.109
  186POPC   H3Y21372   3.777   5.874   6.117
  186POPC   C3421373   3.862   5.887   5.915
  186POPC   H4X21374   3.775   5.826   5.883
  186POPC   H4Y21375   3.959   5.858   5.870
  186POPC   C3521376   3.853   6.030   5.869
  186POPC   H5X21377   3.949   6.084   5.885
  186POPC   H5Y21378   3.773   6.075   5.931
  186POPC   C3621379   3.817   6.042   5.722
  186POPC   H6X21380   3.814   6.151   5.700
  186POPC   H6Y21381   3.714   6.010   5.695
  186POPC   C3721382   3.922   5.995   5.620
  186POPC   H7X21383   3.927   5.884   5.608
  186POPC   H7Y21384   4.020   6.041   5.648
  186POPC   C3821385   3.898   6.050   5.475
  186POPC   H8X21386   3.881   6.160   5.476
  186POPC   H8Y21387   3.806   6.004   5.435
  186POPC   C3921388   4.009   5.990   5.390
  186POPC   H9X21389   4.001   5.881   5.371
  186POPC   H9Y21390   4.100   5.996   5.453
  186POPC  C31021391   4.046   6.075   5.262
  186POPC  H10X21392   4.113   6.003   5.210
  186POPC  H10Y21393   4.089   6.176   5.281
  186POPC  C31121394   3.929   6.092   5.161
  186POPC  H11X21395   3.847   6.160   5.190
  186POPC  H11Y21396   3.877   5.995   5.149
  186POPC  C31221397   3.988   6.140   5.022
  186POPC  H12X21398   3.942   6.077   4.943
  186POPC  H12Y21399   4.097   6.116   5.019
  186POPC  C31321400   3.964   6.289   4.999
  186POPC  H13X21401   4.041   6.321   4.925
  186POPC  H13Y21402   3.972   6.349   5.092
  186POPC  C31421403   3.821   6.307   4.946
  186POPC  H14X21404   3.788   6.404   4.988
  186POPC  H14Y21405   3.742   6.236   4.981
  186POPC  C31521406   3.821   6.322   4.796
  186POPC  H15X21407   3.860   6.228   4.750
  186POPC  H15Y21408   3.895   6.399   4.765
  186POPC  C31621409   3.683   6.359   4.742
  186POPC  H16X21410   3.598   6.311   4.795
  186POPC  H16Y21411   3.679   6.330   4.634
  186POPC  H16Z21412   3.671   6.468   4.758
  187POPC     N21413   6.262   5.159   1.681
  187POPC   C1221414   6.239   5.254   1.801
  187POPC  H12A21415   6.144   5.306   1.796
  187POPC  H12B21416   6.314   5.331   1.793
  187POPC   C1321417   6.259   5.234   1.545
  187POPC  H13A21418   6.226   5.166   1.468
  187POPC  H13B21419   6.196   5.322   1.550
  187POPC  H13C21420   6.356   5.257   1.505
  187POPC   C1421421   6.393   5.090   1.692
  187POPC  H14A21422   6.478   5.157   1.686
  187POPC  H14B21423   6.414   5.038   1.784
  187POPC  H14C21424   6.406   5.023   1.608
  187POPC   C1521425   6.153   5.053   1.666
  187POPC  H15A21426   6.149   5.004   1.763
  187POPC  H15B21427   6.165   4.978   1.590
  187POPC  H15C21428   6.059   5.106   1.654
  187POPC   C1121429   6.256   5.184   1.933
  187POPC  H11A21430   6.352   5.131   1.950
  187POPC  H11B21431   6.174   5.109   1.938
  187POPC     P21432   6.102   5.311   2.109
  187POPC   O1321433   5.998   5.348   2.013
  187POPC   O1421434   6.134   5.410   2.211
  187POPC   O1221435   6.237   5.282   2.026
  187POPC   O1121436   6.059   5.178   2.178
  187POPC    C121437   6.155   5.100   2.257
  187POPC    HA21438   6.256   5.143   2.272
  187POPC    HB21439   6.163   5.003   2.202
  187POPC    C221440   6.106   5.068   2.398
  187POPC    HS21441   6.194   5.013   2.436
  187POPC   O2121442   5.981   4.995   2.389
  187POPC   C2121443   5.983   4.869   2.436
  187POPC   O2221444   6.083   4.815   2.492
  187POPC   C2221445   5.853   4.805   2.416
  187POPC   H2R21446   5.854   4.698   2.448
  187POPC   H2S21447   5.839   4.814   2.306
  187POPC    C321448   6.073   5.203   2.477
  187POPC    HX21449   6.000   5.257   2.413
  187POPC    HY21450   6.163   5.267   2.493
  187POPC   O3121451   6.014   5.174   2.609
  187POPC   C3121452   5.985   5.277   2.687
  187POPC   O3221453   6.011   5.392   2.667
  187POPC   C3221454   5.904   5.232   2.806
  187POPC   H2X21455   5.906   5.121   2.812
  187POPC   H2Y21456   5.797   5.251   2.780
  187POPC   C2321457   5.729   4.868   2.488
  187POPC   H3R21458   5.639   4.804   2.473
  187POPC   H3S21459   5.703   4.966   2.443
  187POPC   C2421460   5.750   4.881   2.635
  187POPC   H4R21461   5.668   4.936   2.686
  187POPC   H4S21462   5.850   4.928   2.651
  187POPC   C2521463   5.767   4.747   2.707
  187POPC   H5R21464   5.872   4.710   2.708
  187POPC   H5S21465   5.708   4.669   2.655
  187POPC   C2621466   5.719   4.747   2.850
  187POPC   H6R21467   5.746   4.650   2.897
  187POPC   H6S21468   5.608   4.752   2.841
  187POPC   C2721469   5.778   4.849   2.945
  187POPC   H7R21470   5.753   4.952   2.910
  187POPC   H7S21471   5.886   4.829   2.955
  187POPC   C2821472   5.707   4.857   3.086
  187POPC   H8R21473   5.721   4.754   3.126
  187POPC   H8S21474   5.597   4.873   3.079
  187POPC   C2921475   5.763   4.959   3.182
  187POPC   H9121476   5.799   5.054   3.139
  187POPC  C21021477   5.789   4.941   3.308
  187POPC  H10121478   5.822   5.025   3.371
  187POPC  C21121479   5.770   4.808   3.377
  187POPC  H11R21480   5.853   4.745   3.341
  187POPC  H11S21481   5.672   4.765   3.348
  187POPC  C21221482   5.788   4.811   3.523
  187POPC  H12R21483   5.895   4.832   3.546
  187POPC  H12S21484   5.776   4.710   3.568
  187POPC  C21321485   5.705   4.914   3.606
  187POPC  H13R21486   5.603   4.874   3.623
  187POPC  H13S21487   5.674   5.006   3.552
  187POPC  C21421488   5.767   4.952   3.734
  187POPC  H14R21489   5.710   5.038   3.778
  187POPC  H14S21490   5.871   4.986   3.716
  187POPC  C21521491   5.769   4.846   3.839
  187POPC  H15R21492   5.860   4.791   3.806
  187POPC  H15S21493   5.682   4.776   3.835
  187POPC  C21621494   5.797   4.891   3.980
  187POPC  H16R21495   5.727   4.969   4.017
  187POPC  H16S21496   5.892   4.949   3.977
  187POPC  C21721497   5.820   4.770   4.079
  187POPC  H17R21498   5.866   4.686   4.023
  187POPC  H17S21499   5.717   4.739   4.106
  187POPC  C21821500   5.905   4.811   4.199
  187POPC  H18R21501   5.952   4.728   4.257
  187POPC  H18S21502   5.841   4.852   4.279
  187POPC  H18T21503   5.991   4.875   4.170
  187POPC   C3321504   5.951   5.296   2.943
  187POPC   H3X21505   6.059   5.322   2.934
  187POPC   H3Y21506   5.944   5.215   3.019
  187POPC   C3421507   5.867   5.420   2.995
  187POPC   H4X21508   5.761   5.386   2.989
  187POPC   H4Y21509   5.873   5.513   2.935
  187POPC   C3521510   5.893   5.455   3.144
  187POPC   H5X21511   5.839   5.548   3.170
  187POPC   H5Y21512   6.003   5.475   3.145
  187POPC   C3621513   5.877   5.352   3.249
  187POPC   H6X21514   5.939   5.262   3.231
  187POPC   H6Y21515   5.779   5.300   3.254
  187POPC   C3721516   5.920   5.397   3.393
  187POPC   H7X21517   5.851   5.483   3.412
  187POPC   H7Y21518   6.028   5.421   3.396
  187POPC   C3821519   5.891   5.281   3.491
  187POPC   H8X21520   5.925   5.186   3.446
  187POPC   H8Y21521   5.782   5.280   3.513
  187POPC   C3921522   5.960   5.304   3.621
  187POPC   H9X21523   6.067   5.333   3.613
  187POPC   H9Y21524   5.955   5.213   3.684
  187POPC  C31021525   5.899   5.417   3.707
  187POPC  H10X21526   5.793   5.393   3.730
  187POPC  H10Y21527   5.889   5.505   3.639
  187POPC  C31121528   5.986   5.455   3.831
  187POPC  H11X21529   5.966   5.563   3.846
  187POPC  H11Y21530   6.092   5.427   3.817
  187POPC  C31221531   5.937   5.372   3.951
  187POPC  H12X21532   5.917   5.272   3.907
  187POPC  H12Y21533   5.841   5.416   3.985
  187POPC  C31321534   6.049   5.359   4.055
  187POPC  H13X21535   6.066   5.460   4.099
  187POPC  H13Y21536   6.146   5.331   4.010
  187POPC  C31421537   6.014   5.278   4.179
  187POPC  H14X21538   6.098   5.273   4.253
  187POPC  H14Y21539   5.990   5.178   4.137
  187POPC  C31521540   5.890   5.322   4.269
  187POPC  H15X21541   5.800   5.313   4.205
  187POPC  H15Y21542   5.910   5.429   4.293
  187POPC  C31621543   5.875   5.239   4.401
  187POPC  H16X21544   5.962   5.237   4.470
  187POPC  H16Y21545   5.845   5.135   4.381
  187POPC  H16Z21546   5.789   5.286   4.454
  188POPC     N21547   4.630   4.631   1.589
  188POPC   C1221548   4.643   4.593   1.731
  188POPC  H12A21549   4.681   4.492   1.733
  188POPC  H12B21550   4.542   4.597   1.768
  188POPC   C1321551   4.760   4.658   1.521
  188POPC  H13A21552   4.751   4.677   1.415
  188POPC  H13B21553   4.802   4.747   1.565
  188POPC  H13C21554   4.837   4.586   1.546
  188POPC   C1421555   4.558   4.527   1.500
  188POPC  H14A21556   4.526   4.572   1.407
  188POPC  H14B21557   4.613   4.436   1.479
  188POPC  H14C21558   4.467   4.494   1.548
  188POPC   C1521559   4.549   4.758   1.573
  188POPC  H15A21560   4.450   4.737   1.608
  188POPC  H15B21561   4.539   4.794   1.471
  188POPC  H15C21562   4.587   4.828   1.646
  188POPC   C1121563   4.741   4.674   1.825
  188POPC  H11A21564   4.848   4.658   1.803
  188POPC  H11B21565   4.730   4.631   1.927
  188POPC     P21566   4.811   4.918   1.863
  188POPC   O1321567   4.756   5.052   1.893
  188POPC   O1421568   4.914   4.916   1.758
  188POPC   O1221569   4.701   4.810   1.826
  188POPC   O1121570   4.890   4.862   1.988
  188POPC    C121571   4.828   4.804   2.105
  188POPC    HA21572   4.839   4.694   2.100
  188POPC    HB21573   4.724   4.842   2.114
  188POPC    C221574   4.898   4.846   2.234
  188POPC    HS21575   4.874   4.954   2.239
  188POPC   O2121576   5.037   4.816   2.231
  188POPC   C2121577   5.112   4.903   2.295
  188POPC   O2221578   5.072   5.001   2.351
  188POPC   C2221579   5.260   4.856   2.307
  188POPC   H2R21580   5.324   4.937   2.350
  188POPC   H2S21581   5.288   4.836   2.202
  188POPC    C321582   4.842   4.773   2.356
  188POPC    HX21583   4.891   4.673   2.365
  188POPC    HY21584   4.734   4.759   2.336
  188POPC   O3121585   4.872   4.831   2.482
  188POPC   C3121586   4.785   4.929   2.521
  188POPC   O3221587   4.699   4.982   2.452
  188POPC   C3221588   4.806   4.967   2.663
  188POPC   H2X21589   4.860   4.888   2.718
  188POPC   H2Y21590   4.707   4.980   2.712
  188POPC   C2321591   5.286   4.738   2.406
  188POPC   H3R21592   5.388   4.696   2.392
  188POPC   H3S21593   5.225   4.648   2.382
  188POPC   C2421594   5.256   4.773   2.553
  188POPC   H4R21595   5.148   4.754   2.568
  188POPC   H4S21596   5.278   4.881   2.571
  188POPC   C2521597   5.325   4.679   2.659
  188POPC   H5R21598   5.435   4.682   2.643
  188POPC   H5S21599   5.286   4.576   2.658
  188POPC   C2621600   5.295   4.733   2.802
  188POPC   H6R21601   5.341   4.832   2.823
  188POPC   H6S21602   5.347   4.662   2.870
  188POPC   C2721603   5.149   4.733   2.843
  188POPC   H7R21604   5.109   4.632   2.817
  188POPC   H7S21605   5.106   4.807   2.773
  188POPC   C2821606   5.124   4.784   2.982
  188POPC   H8R21607   5.016   4.812   2.987
  188POPC   H8S21608   5.191   4.871   3.000
  188POPC   C2921609   5.142   4.685   3.092
  188POPC   H9121610   5.085   4.591   3.088
  188POPC  C21021611   5.223   4.706   3.199
  188POPC  H10121612   5.223   4.627   3.276
  188POPC  C21121613   5.318   4.819   3.226
  188POPC  H11R21614   5.305   4.905   3.157
  188POPC  H11S21615   5.418   4.773   3.209
  188POPC  C21221616   5.319   4.878   3.369
  188POPC  H12R21617   5.232   4.946   3.384
  188POPC  H12S21618   5.415   4.931   3.382
  188POPC  C21321619   5.318   4.781   3.483
  188POPC  H13R21620   5.402   4.711   3.462
  188POPC  H13S21621   5.226   4.718   3.480
  188POPC  C21421622   5.324   4.855   3.616
  188POPC  H14R21623   5.224   4.902   3.628
  188POPC  H14S21624   5.392   4.942   3.606
  188POPC  C21521625   5.353   4.758   3.736
  188POPC  H15R21626   5.439   4.696   3.705
  188POPC  H15S21627   5.269   4.688   3.754
  188POPC  C21621628   5.379   4.842   3.857
  188POPC  H16R21629   5.300   4.915   3.885
  188POPC  H16S21630   5.467   4.906   3.834
  188POPC  C21721631   5.417   4.762   3.974
  188POPC  H17R21632   5.460   4.833   4.049
  188POPC  H17S21633   5.495   4.685   3.953
  188POPC  C21821634   5.308   4.694   4.053
  188POPC  H18R21635   5.360   4.640   4.135
  188POPC  H18S21636   5.246   4.625   3.991
  188POPC  H18T21637   5.246   4.777   4.091
  188POPC   C3321638   4.897   5.098   2.673
  188POPC   H3X21639   4.834   5.190   2.673
  188POPC   H3Y21640   4.957   5.103   2.580
  188POPC   C3421641   4.991   5.121   2.793
  188POPC   H4X21642   5.041   5.218   2.773
  188POPC   H4Y21643   5.075   5.048   2.798
  188POPC   C3521644   4.930   5.122   2.931
  188POPC   H5X21645   4.880   5.025   2.951
  188POPC   H5Y21646   4.849   5.198   2.928
  188POPC   C3621647   5.021   5.149   3.048
  188POPC   H6X21648   5.085   5.238   3.033
  188POPC   H6Y21649   5.096   5.067   3.052
  188POPC   C3721650   4.937   5.154   3.178
  188POPC   H7X21651   4.866   5.070   3.166
  188POPC   H7Y21652   4.877   5.246   3.184
  188POPC   C3821653   5.023   5.135   3.310
  188POPC   H8X21654   5.092   5.222   3.309
  188POPC   H8Y21655   5.084   5.044   3.296
  188POPC   C3921656   4.943   5.138   3.440
  188POPC   H9X21657   4.857   5.069   3.445
  188POPC   H9Y21658   4.899   5.239   3.456
  188POPC  C31021659   5.034   5.103   3.556
  188POPC  H10X21660   5.116   5.179   3.555
  188POPC  H10Y21661   5.074   5.000   3.553
  188POPC  C31121662   4.973   5.122   3.694
  188POPC  H11X21663   4.905   5.035   3.707
  188POPC  H11Y21664   4.916   5.217   3.689
  188POPC  C31221665   5.079   5.126   3.809
  188POPC  H12X21666   5.155   5.205   3.793
  188POPC  H12Y21667   5.142   5.036   3.796
  188POPC  C31321668   5.034   5.151   3.951
  188POPC  H13X21669   4.962   5.072   3.981
  188POPC  H13Y21670   4.988   5.252   3.951
  188POPC  C31421671   5.139   5.133   4.064
  188POPC  H14X21672   5.238   5.158   4.022
  188POPC  H14Y21673   5.152   5.027   4.096
  188POPC  C31521674   5.120   5.220   4.192
  188POPC  H15X21675   5.208   5.197   4.256
  188POPC  H15Y21676   5.027   5.192   4.247
  188POPC  C31621677   5.102   5.364   4.169
  188POPC  H16X21678   5.025   5.388   4.092
  188POPC  H16Y21679   5.196   5.416   4.141
  188POPC  H16Z21680   5.082   5.427   4.258
  189SAPI   C1221681   1.848   4.860   7.427
  189SAPI    H221682   1.947   4.906   7.448
  189SAPI    O221683   1.846   4.752   7.525
  189SAPI   HO221684   1.918   4.769   7.587
  189SAPI   C1321685   1.750   4.977   7.445
  189SAPI    H321686   1.786   5.055   7.374
  189SAPI    O321687   1.755   5.022   7.579
  189SAPI   HO321688   1.803   5.105   7.572
  189SAPI   C1421689   1.602   4.922   7.430
  189SAPI    H421690   1.585   4.856   7.518
  189SAPI    O421691   1.492   5.015   7.429
  189SAPI   HO421692   1.436   4.996   7.505
  189SAPI   C1521693   1.582   4.824   7.319
  189SAPI    H521694   1.557   4.887   7.231
  189SAPI    O521695   1.462   4.738   7.341
  189SAPI   HO521696   1.404   4.756   7.266
  189SAPI   C1621697   1.693   4.736   7.283
  189SAPI    H621698   1.696   4.648   7.350
  189SAPI    O621699   1.666   4.685   7.152
  189SAPI   HO621700   1.750   4.677   7.107
  189SAPI   C1121701   1.829   4.806   7.289
  189SAPI    H121702   1.834   4.900   7.230
  189SAPI     P21703   1.992   4.702   7.108
  189SAPI   O1321704   1.880   4.661   7.025
  189SAPI   O1421705   2.106   4.614   7.117
  189SAPI   O1221706   1.933   4.722   7.256
  189SAPI   O1121707   2.037   4.851   7.066
  189SAPI    C121708   2.154   4.892   6.989
  189SAPI    HA21709   2.219   4.963   7.046
  189SAPI    HB21710   2.228   4.813   6.964
  189SAPI    C221711   2.107   4.948   6.854
  189SAPI    HS21712   2.093   5.058   6.863
  189SAPI   O2121713   1.991   4.875   6.814
  189SAPI   C2121714   1.889   4.950   6.786
  189SAPI   O2221715   1.891   5.072   6.773
  189SAPI   C2221716   1.765   4.859   6.769
  189SAPI   H2R21717   1.789   4.753   6.747
  189SAPI   H2S21718   1.713   4.862   6.868
  189SAPI    C321719   2.224   4.925   6.752
  189SAPI    HX21720   2.243   4.815   6.752
  189SAPI    HY21721   2.311   4.979   6.795
  189SAPI   O3121722   2.201   4.960   6.610
  189SAPI   C3121723   2.249   5.080   6.565
  189SAPI   O3221724   2.324   5.149   6.632
  189SAPI   C3221725   2.194   5.099   6.423
  189SAPI   H2X21726   2.089   5.133   6.431
  189SAPI   H2Y21727   2.201   5.003   6.368
  189SAPI   C2321728   1.681   4.905   6.652
  189SAPI   H3R21729   1.632   5.000   6.680
  189SAPI   H3S21730   1.598   4.834   6.669
  189SAPI   C2421731   1.747   4.900   6.515
  189SAPI   H4R21732   1.799   4.802   6.510
  189SAPI   H4S21733   1.811   4.987   6.492
  189SAPI   C2521734   1.623   4.894   6.421
  189SAPI   H5R21735   1.546   4.818   6.440
  189SAPI   C2621736   1.585   4.994   6.330
  189SAPI   H6R21737   1.499   4.970   6.266
  189SAPI   C2721738   1.666   5.120   6.287
  189SAPI   H7R21739   1.669   5.193   6.370
  189SAPI   H7S21740   1.612   5.165   6.202
  189SAPI   C2821741   1.815   5.099   6.248
  189SAPI   H8R21742   1.882   5.068   6.330
  189SAPI   C2921743   1.867   5.128   6.127
  189SAPI   H9R21744   1.976   5.115   6.121
  189SAPI  C21021745   1.782   5.148   6.000
  189SAPI  H10R21746   1.845   5.206   5.930
  189SAPI  H10S21747   1.696   5.214   6.023
  189SAPI  C21121748   1.722   5.027   5.935
  189SAPI  H11R21749   1.641   4.985   5.996
  189SAPI  C21221750   1.754   4.972   5.816
  189SAPI  H12R21751   1.693   4.887   5.781
  189SAPI  C21321752   1.869   5.016   5.730
  189SAPI  H13R21753   1.956   5.059   5.785
  189SAPI  H13S21754   1.822   5.095   5.668
  189SAPI  C21421755   1.923   4.902   5.639
  189SAPI  H14R21756   1.971   4.816   5.688
  189SAPI  C21521757   1.934   4.896   5.506
  189SAPI  H15R21758   1.982   4.809   5.460
  189SAPI  C21621759   1.868   4.992   5.414
  189SAPI  H16R21760   1.901   5.097   5.426
  189SAPI  H16S21761   1.758   4.993   5.427
  189SAPI  C21721762   1.889   4.958   5.272
  189SAPI  H17R21763   1.875   4.851   5.248
  189SAPI  H17S21764   1.995   4.986   5.253
  189SAPI  C21821765   1.817   5.051   5.180
  189SAPI  H18R21766   1.839   5.158   5.201
  189SAPI  H18S21767   1.708   5.035   5.187
  189SAPI  C21921768   1.848   5.019   5.036
  189SAPI  H19R21769   1.770   5.082   4.989
  189SAPI  H19S21770   1.830   4.914   5.004
  189SAPI  C22021771   1.985   5.058   5.003
  189SAPI  H20R21772   2.050   4.974   5.034
  189SAPI  H20S21773   2.019   5.154   5.046
  189SAPI  H20T21774   2.004   5.059   4.893
  189SAPI   C3321775   2.280   5.195   6.332
  189SAPI   H3X21776   2.380   5.148   6.335
  189SAPI   H3Y21777   2.272   5.299   6.372
  189SAPI   C3421778   2.219   5.203   6.187
  189SAPI   H4X21779   2.127   5.264   6.189
  189SAPI   H4Y21780   2.193   5.102   6.150
  189SAPI   C3521781   2.311   5.266   6.078
  189SAPI   H5X21782   2.410   5.222   6.056
  189SAPI   H5Y21783   2.324   5.365   6.126
  189SAPI   C3621784   2.252   5.283   5.940
  189SAPI   H6X21785   2.294   5.381   5.909
  189SAPI   H6Y21786   2.141   5.282   5.947
  189SAPI   C3721787   2.293   5.176   5.824
  189SAPI   H7X21788   2.270   5.076   5.866
  189SAPI   H7Y21789   2.403   5.184   5.822
  189SAPI   C3821790   2.236   5.189   5.677
  189SAPI   H8X21791   2.126   5.180   5.690
  189SAPI   H8Y21792   2.277   5.110   5.611
  189SAPI   C3921793   2.280   5.325   5.623
  189SAPI   H9X21794   2.267   5.405   5.700
  189SAPI   H9Y21795   2.218   5.340   5.532
  189SAPI  C31021796   2.426   5.328   5.569
  189SAPI  H10X21797   2.428   5.248   5.493
  189SAPI  H10Y21798   2.504   5.297   5.642
  189SAPI  C31121799   2.454   5.469   5.512
  189SAPI  H11X21800   2.444   5.550   5.588
  189SAPI  H11Y21801   2.381   5.487   5.430
  189SAPI  C31221802   2.598   5.481   5.449
  189SAPI  H12X21803   2.606   5.417   5.359
  189SAPI  H12Y21804   2.673   5.446   5.523
  189SAPI  C31321805   2.647   5.616   5.408
  189SAPI  H13X21806   2.757   5.623   5.426
  189SAPI  H13Y21807   2.599   5.693   5.472
  189SAPI  C31421808   2.653   5.635   5.259
  189SAPI  H14X21809   2.695   5.548   5.205
  189SAPI  H14Y21810   2.714   5.727   5.245
  189SAPI  C31521811   2.518   5.665   5.185
  189SAPI  H15X21812   2.461   5.745   5.237
  189SAPI  H15Y21813   2.449   5.578   5.191
  189SAPI  C31621814   2.537   5.697   5.043
  189SAPI  H16X21815   2.441   5.677   4.989
  189SAPI  H16Y21816   2.618   5.642   4.991
  189SAPI  C31721817   2.568   5.844   5.003
  189SAPI  H17X21818   2.667   5.879   5.037
  189SAPI  H17Y21819   2.500   5.908   5.062
  189SAPI  C31821820   2.553   5.874   4.856
  189SAPI  H18X21821   2.461   5.831   4.811
  189SAPI  H18Y21822   2.635   5.849   4.785
  189SAPI  H18Z21823   2.533   5.982   4.844
  190SAPI   C1221824   1.089   3.014   6.569
  190SAPI    H221825   1.034   3.084   6.503
  190SAPI    O221826   1.128   2.905   6.488
  190SAPI   HO221827   1.108   2.923   6.395
  190SAPI   C1321828   1.204   3.089   6.620
  190SAPI    H321829   1.158   3.185   6.650
  190SAPI    O321830   1.305   3.115   6.523
  190SAPI   HO321831   1.289   3.048   6.457
  190SAPI   C1421832   1.257   3.009   6.735
  190SAPI    H421833   1.354   2.964   6.709
  190SAPI    O421834   1.285   3.099   6.844
  190SAPI   HO421835   1.352   3.159   6.810
  190SAPI   C1521836   1.181   2.877   6.796
  190SAPI    H521837   1.169   2.916   6.899
  190SAPI    O521838   1.259   2.758   6.802
  190SAPI   HO521839   1.249   2.719   6.714
  190SAPI   C1621840   1.038   2.853   6.743
  190SAPI    H621841   1.052   2.767   6.673
  190SAPI    O621842   0.951   2.804   6.843
  190SAPI   HO621843   0.894   2.737   6.803
  190SAPI   C1121844   0.984   2.976   6.668
  190SAPI    H121845   0.974   3.060   6.740
  190SAPI     P21846   0.724   3.026   6.605
  190SAPI   O1321847   0.752   3.159   6.636
  190SAPI   O1421848   0.636   2.949   6.695
  190SAPI   O1221849   0.862   2.938   6.599
  190SAPI   O1121850   0.662   3.021   6.459
  190SAPI    C121851   0.748   3.052   6.343
  190SAPI    HA21852   0.686   3.107   6.269
  190SAPI    HB21853   0.831   3.116   6.379
  190SAPI    C221854   0.794   2.931   6.267
  190SAPI    HS21855   0.857   2.861   6.327
  190SAPI   O2121856   0.841   2.970   6.136
  190SAPI   C2121857   0.974   2.990   6.137
  190SAPI   O2221858   1.048   2.960   6.234
  190SAPI   C2221859   1.014   3.029   6.002
  190SAPI   H2R21860   0.971   2.951   5.934
  190SAPI   H2S21861   0.969   3.125   5.970
  190SAPI    C321862   0.681   2.828   6.235
  190SAPI    HX21863   0.621   2.877   6.156
  190SAPI    HY21864   0.620   2.812   6.326
  190SAPI   O3121865   0.747   2.704   6.192
  190SAPI   C3121866   0.684   2.588   6.228
  190SAPI   O3221867   0.603   2.573   6.317
  190SAPI   C3221868   0.756   2.472   6.156
  190SAPI   H2X21869   0.830   2.431   6.228
  190SAPI   H2Y21870   0.814   2.507   6.068
  190SAPI   C2321871   1.166   3.039   5.977
  190SAPI   H3R21872   1.221   3.035   6.073
  190SAPI   H3S21873   1.189   3.139   5.935
  190SAPI   C2421874   1.230   2.923   5.893
  190SAPI   H4R21875   1.338   2.942   5.878
  190SAPI   H4S21876   1.187   2.928   5.791
  190SAPI   C2521877   1.211   2.788   5.948
  190SAPI   H5R21878   1.257   2.775   6.047
  190SAPI   C2621879   1.154   2.680   5.888
  190SAPI   H6R21880   1.132   2.593   5.953
  190SAPI   C2721881   1.097   2.678   5.745
  190SAPI   H7R21882   1.183   2.658   5.677
  190SAPI   H7S21883   1.066   2.778   5.707
  190SAPI   C2821884   0.979   2.587   5.716
  190SAPI   H8R21885   0.915   2.553   5.799
  190SAPI   C2921886   0.946   2.553   5.592
  190SAPI   H9R21887   0.867   2.479   5.569
  190SAPI  C21021888   1.026   2.596   5.466
  190SAPI  H10R21889   1.086   2.687   5.485
  190SAPI  H10S21890   0.942   2.612   5.395
  190SAPI  C21121891   1.121   2.491   5.422
  190SAPI  H11R21892   1.196   2.465   5.499
  190SAPI  C21221893   1.146   2.454   5.295
  190SAPI  H12R21894   1.215   2.371   5.275
  190SAPI  C21321895   1.071   2.487   5.167
  190SAPI  H13R21896   0.964   2.490   5.193
  190SAPI  H13S21897   1.074   2.403   5.094
  190SAPI  C21421898   1.115   2.618   5.106
  190SAPI  H14R21899   1.161   2.692   5.174
  190SAPI  C21521900   1.145   2.633   4.974
  190SAPI  H15R21901   1.209   2.718   4.945
  190SAPI  C21621902   1.103   2.540   4.867
  190SAPI  H16R21903   1.025   2.475   4.912
  190SAPI  H16S21904   1.186   2.475   4.834
  190SAPI  C21721905   1.064   2.627   4.741
  190SAPI  H17R21906   1.153   2.656   4.682
  190SAPI  H17S21907   1.007   2.716   4.776
  190SAPI  C21821908   0.978   2.553   4.634
  190SAPI  H18R21909   0.956   2.626   4.553
  190SAPI  H18S21910   0.884   2.518   4.682
  190SAPI  C21921911   1.059   2.433   4.584
  190SAPI  H19R21912   1.049   2.343   4.649
  190SAPI  H19S21913   1.168   2.450   4.578
  190SAPI  C22021914   1.013   2.389   4.435
  190SAPI  H20R21915   1.055   2.292   4.401
  190SAPI  H20S21916   1.038   2.472   4.365
  190SAPI  H20T21917   0.902   2.395   4.433
  190SAPI   C3321918   0.641   2.368   6.131
  190SAPI   H3X21919   0.562   2.400   6.060
  190SAPI   H3Y21920   0.586   2.341   6.223
  190SAPI   C3421921   0.688   2.239   6.069
  190SAPI   H4X21922   0.615   2.159   6.090
  190SAPI   H4Y21923   0.781   2.203   6.119
  190SAPI   C3521924   0.698   2.252   5.912
  190SAPI   H5X21925   0.719   2.359   5.893
  190SAPI   H5Y21926   0.599   2.235   5.865
  190SAPI   C3621927   0.790   2.142   5.868
  190SAPI   H6X21928   0.772   2.047   5.922
  190SAPI   H6Y21929   0.894   2.177   5.887
  190SAPI   C3721930   0.774   2.108   5.715
  190SAPI   H7X21931   0.668   2.082   5.694
  190SAPI   H7Y21932   0.833   2.015   5.702
  190SAPI   C3821933   0.812   2.211   5.609
  190SAPI   H8X21934   0.916   2.250   5.611
  190SAPI   H8Y21935   0.746   2.300   5.606
  190SAPI   C3921936   0.805   2.138   5.473
  190SAPI   H9X21937   0.712   2.079   5.457
  190SAPI   H9Y21938   0.885   2.061   5.472
  190SAPI  C31021939   0.828   2.234   5.354
  190SAPI  H10X21940   0.896   2.315   5.389
  190SAPI  H10Y21941   0.734   2.275   5.311
  190SAPI  C31121942   0.889   2.165   5.234
  190SAPI  H11X21943   0.955   2.086   5.274
  190SAPI  H11Y21944   0.957   2.239   5.187
  190SAPI  C31221945   0.795   2.104   5.135
  190SAPI  H12X21946   0.725   2.178   5.090
  190SAPI  H12Y21947   0.738   2.019   5.177
  190SAPI  C31321948   0.875   2.044   5.019
  190SAPI  H13X21949   0.953   1.977   5.061
  190SAPI  H13Y21950   0.927   2.135   4.983
  190SAPI  C31421951   0.784   1.970   4.916
  190SAPI  H14X21952   0.700   2.038   4.891
  190SAPI  H14Y21953   0.733   1.884   4.966
  190SAPI  C31521954   0.862   1.913   4.800
  190SAPI  H15X21955   0.928   1.832   4.839
  190SAPI  H15Y21956   0.923   1.998   4.765
  190SAPI  C31621957   0.774   1.862   4.690
  190SAPI  H16X21958   0.694   1.938   4.683
  190SAPI  H16Y21959   0.730   1.762   4.711
  190SAPI  C31721960   0.847   1.852   4.552
  190SAPI  H17X21961   0.884   1.953   4.527
  190SAPI  H17Y21962   0.767   1.832   4.477
  190SAPI  C31821963   0.953   1.748   4.560
  190SAPI  H18X21964   0.920   1.645   4.584
  190SAPI  H18Y21965   1.014   1.782   4.647
  190SAPI  H18Z21966   1.015   1.751   4.468
  191SAPI   C1221967   4.616   4.367   2.328
  191SAPI    H221968   4.665   4.320   2.415
  191SAPI    O221969   4.669   4.496   2.344
  191SAPI   HO221970   4.656   4.520   2.436
  191SAPI   C1321971   4.657   4.295   2.199
  191SAPI    H321972   4.619   4.191   2.192
  191SAPI    O321973   4.798   4.284   2.192
  191SAPI   HO321974   4.838   4.352   2.137
  191SAPI   C1421975   4.591   4.379   2.088
  191SAPI    H421976   4.653   4.471   2.090
  191SAPI    O421977   4.626   4.334   1.960
  191SAPI   HO421978   4.717   4.365   1.957
  191SAPI   C1521979   4.446   4.420   2.109
  191SAPI    H521980   4.380   4.351   2.053
  191SAPI    O521981   4.413   4.542   2.044
  191SAPI   HO521982   4.434   4.616   2.101
  191SAPI   C1621983   4.385   4.424   2.248
  191SAPI    H621984   4.380   4.530   2.282
  191SAPI    O621985   4.250   4.373   2.263
  191SAPI   HO621986   4.243   4.357   2.357
  191SAPI   C1121987   4.468   4.362   2.354
  191SAPI    H121988   4.442   4.254   2.343
  191SAPI     P21989   4.330   4.353   2.591
  191SAPI   O1321990   4.224   4.305   2.503
  191SAPI   O1421991   4.306   4.456   2.691
  191SAPI   O1221992   4.448   4.397   2.490
  191SAPI   O1121993   4.393   4.228   2.666
  191SAPI    C121994   4.531   4.193   2.680
  191SAPI    HA21995   4.598   4.276   2.649
  191SAPI    HB21996   4.555   4.160   2.783
  191SAPI    C221997   4.559   4.068   2.590
  191SAPI    HS21998   4.524   4.090   2.487
  191SAPI   O2121999   4.491   3.958   2.649
  191SAPI   C2122000   4.445   3.866   2.568
  191SAPI   O2222001   4.443   3.870   2.447
  191SAPI   C2222002   4.406   3.750   2.661
  191SAPI   H2R22003   4.315   3.765   2.722
  191SAPI   H2S22004   4.379   3.660   2.603
  191SAPI    C322005   4.708   4.046   2.572
  191SAPI    HX22006   4.739   4.139   2.521
  191SAPI    HY22007   4.720   3.974   2.488
  191SAPI   O3122008   4.784   4.025   2.698
  191SAPI   C3122009   4.793   3.894   2.728
  191SAPI   O3222010   4.789   3.798   2.651
  191SAPI   C3222011   4.824   3.887   2.876
  191SAPI   H2X22012   4.930   3.917   2.890
  191SAPI   H2Y22013   4.809   3.780   2.900
  191SAPI   C2322014   4.523   3.701   2.748
  191SAPI   H3R22015   4.570   3.779   2.812
  191SAPI   H3S22016   4.608   3.659   2.691
  191SAPI   C2422017   4.490   3.578   2.835
  191SAPI   H4R22018   4.585   3.559   2.888
  191SAPI   H4S22019   4.474   3.489   2.770
  191SAPI   C2522020   4.370   3.585   2.931
  191SAPI   H5R22021   4.287   3.529   2.885
  191SAPI   C2622022   4.373   3.613   3.062
  191SAPI   H6R22023   4.277   3.614   3.117
  191SAPI   C2722024   4.496   3.680   3.129
  191SAPI   H7R22025   4.547   3.742   3.052
  191SAPI   H7S22026   4.573   3.603   3.149
  191SAPI   C2822027   4.455   3.762   3.253
  191SAPI   H8R22028   4.358   3.813   3.250
  191SAPI   C2922029   4.507   3.757   3.370
  191SAPI   H9R22030   4.463   3.836   3.433
  191SAPI  C21022031   4.620   3.672   3.418
  191SAPI  H10R22032   4.696   3.745   3.455
  191SAPI  H10S22033   4.663   3.616   3.333
  191SAPI  C21122034   4.589   3.576   3.532
  191SAPI  H11R22035   4.491   3.526   3.536
  191SAPI  C21222036   4.661   3.553   3.641
  191SAPI  H12R22037   4.616   3.482   3.712
  191SAPI  C21322038   4.807   3.582   3.665
  191SAPI  H13R22039   4.814   3.619   3.770
  191SAPI  H13S22040   4.833   3.671   3.604
  191SAPI  C21422041   4.898   3.468   3.651
  191SAPI  H14R22042   4.865   3.380   3.595
  191SAPI  C21522043   5.013   3.454   3.728
  191SAPI  H15R22044   5.067   3.358   3.726
  191SAPI  C21622045   5.087   3.564   3.797
  191SAPI  H16R22046   5.047   3.668   3.799
  191SAPI  H16S22047   5.196   3.565   3.774
  191SAPI  C21722048   5.078   3.541   3.948
  191SAPI  H17R22049   5.138   3.452   3.977
  191SAPI  H17S22050   4.974   3.512   3.973
  191SAPI  C21822051   5.122   3.664   4.033
  191SAPI  H18R22052   5.090   3.751   3.971
  191SAPI  H18S22053   5.231   3.663   4.053
  191SAPI  C21922054   5.055   3.669   4.173
  191SAPI  H19R22055   5.098   3.588   4.236
  191SAPI  H19S22056   4.944   3.659   4.169
  191SAPI  C22022057   5.086   3.802   4.244
  191SAPI  H20R22058   5.082   3.793   4.354
  191SAPI  H20S22059   5.023   3.889   4.214
  191SAPI  H20T22060   5.190   3.836   4.226
  191SAPI   C3322061   4.731   3.985   2.950
  191SAPI   H3X22062   4.627   3.976   2.913
  191SAPI   H3Y22063   4.768   4.088   2.935
  191SAPI   C3422064   4.735   3.954   3.105
  191SAPI   H4X22065   4.709   3.847   3.121
  191SAPI   H4Y22066   4.647   3.997   3.159
  191SAPI   C3522067   4.876   3.982   3.164
  191SAPI   H5X22068   4.906   4.088   3.146
  191SAPI   H5Y22069   4.944   3.912   3.112
  191SAPI   C3622070   4.889   3.952   3.317
  191SAPI   H6X22071   4.998   3.965   3.334
  191SAPI   H6Y22072   4.843   3.856   3.348
  191SAPI   C3722073   4.838   4.066   3.409
  191SAPI   H7X22074   4.729   4.077   3.393
  191SAPI   H7Y22075   4.882   4.166   3.394
  191SAPI   C3822076   4.862   4.026   3.558
  191SAPI   H8X22077   4.966   3.995   3.584
  191SAPI   H8Y22078   4.798   3.938   3.581
  191SAPI   C3922079   4.804   4.139   3.642
  191SAPI   H9X22080   4.702   4.160   3.604
  191SAPI   H9Y22081   4.869   4.228   3.628
  191SAPI  C31022082   4.813   4.118   3.793
  191SAPI  H10X22083   4.793   4.214   3.846
  191SAPI  H10Y22084   4.917   4.096   3.825
  191SAPI  C31122085   4.716   4.004   3.833
  191SAPI  H11X22086   4.758   3.912   3.786
  191SAPI  H11Y22087   4.623   4.033   3.779
  191SAPI  C31222088   4.675   3.977   3.983
  191SAPI  H12X22089   4.591   3.907   3.971
  191SAPI  H12Y22090   4.635   4.073   4.023
  191SAPI  C31322091   4.775   3.907   4.073
  191SAPI  H13X22092   4.861   3.974   4.097
  191SAPI  H13Y22093   4.825   3.821   4.024
  191SAPI  C31422094   4.719   3.862   4.211
  191SAPI  H14X22095   4.656   3.941   4.259
  191SAPI  H14Y22096   4.803   3.843   4.280
  191SAPI  C31522097   4.632   3.733   4.202
  191SAPI  H15X22098   4.685   3.648   4.154
  191SAPI  H15Y22099   4.549   3.762   4.133
  191SAPI  C31622100   4.590   3.681   4.339
  191SAPI  H16X22101   4.585   3.760   4.417
  191SAPI  H16Y22102   4.671   3.612   4.371
  191SAPI  C31722103   4.453   3.607   4.340
  191SAPI  H17X22104   4.462   3.524   4.267
  191SAPI  H17Y22105   4.374   3.678   4.307
  191SAPI  C31822106   4.410   3.553   4.476
  191SAPI  H18X22107   4.409   3.638   4.548
  191SAPI  H18Y22108   4.484   3.476   4.507
  191SAPI  H18Z22109   4.305   3.521   4.464
  192SAPI   C1222110   0.823   6.587   1.819
  192SAPI    H222111   0.912   6.555   1.760
  192SAPI    O222112   0.781   6.717   1.774
  192SAPI   HO222113   0.857   6.775   1.783
  192SAPI   C1322114   0.716   6.477   1.793
  192SAPI    H322115   0.766   6.382   1.823
  192SAPI    O322116   0.682   6.479   1.650
  192SAPI   HO322117   0.677   6.387   1.622
  192SAPI   C1422118   0.592   6.496   1.884
  192SAPI    H422119   0.540   6.569   1.819
  192SAPI    O422120   0.512   6.378   1.903
  192SAPI   HO422121   0.420   6.407   1.909
  192SAPI   C1522122   0.608   6.571   2.021
  192SAPI    H522123   0.618   6.484   2.089
  192SAPI    O522124   0.489   6.631   2.064
  192SAPI   HO522125   0.490   6.703   2.001
  192SAPI   C1622126   0.743   6.643   2.045
  192SAPI    H622127   0.724   6.748   2.014
  192SAPI    O622128   0.770   6.642   2.186
  192SAPI   HO622129   0.687   6.651   2.232
  192SAPI   C1122130   0.858   6.588   1.967
  192SAPI    H122131   0.880   6.486   2.004
  192SAPI     P22132   1.123   6.629   1.985
  192SAPI   O1322133   1.207   6.739   2.015
  192SAPI   O1422134   1.141   6.549   1.864
  192SAPI   O1222135   0.966   6.682   1.987
  192SAPI   O1122136   1.126   6.539   2.108
  192SAPI    C122137   1.175   6.399   2.112
  192SAPI    HA22138   1.215   6.365   2.014
  192SAPI    HB22139   1.261   6.387   2.181
  192SAPI    C222140   1.059   6.305   2.148
  192SAPI    HS22141   0.999   6.300   2.055
  192SAPI   O2122142   0.991   6.360   2.265
  192SAPI   C2122143   0.864   6.328   2.277
  192SAPI   O2222144   0.807   6.257   2.193
  192SAPI   C2222145   0.800   6.388   2.403
  192SAPI   H2R22146   0.837   6.328   2.490
  192SAPI   H2S22147   0.851   6.486   2.415
  192SAPI    C322148   1.106   6.160   2.178
  192SAPI    HX22149   1.160   6.121   2.088
  192SAPI    HY22150   1.019   6.092   2.192
  192SAPI   O3122151   1.196   6.171   2.293
  192SAPI   C3122152   1.140   6.157   2.409
  192SAPI   O3222153   1.027   6.106   2.424
  192SAPI   C3222154   1.242   6.206   2.508
  192SAPI   H2X22155   1.259   6.313   2.483
  192SAPI   H2Y22156   1.336   6.146   2.502
  192SAPI   C2322157   0.652   6.395   2.416
  192SAPI   H3R22158   0.614   6.291   2.404
  192SAPI   H3S22159   0.616   6.457   2.332
  192SAPI   C2422160   0.592   6.451   2.549
  192SAPI   H4R22161   0.616   6.559   2.543
  192SAPI   H4S22162   0.652   6.403   2.629
  192SAPI   C2522163   0.442   6.425   2.549
  192SAPI   H5R22164   0.392   6.444   2.453
  192SAPI   C2622165   0.371   6.385   2.654
  192SAPI   H6R22166   0.263   6.361   2.649
  192SAPI   C2722167   0.440   6.353   2.781
  192SAPI   H7R22168   0.443   6.437   2.853
  192SAPI   H7S22169   0.542   6.311   2.770
  192SAPI   C2822170   0.359   6.235   2.843
  192SAPI   H8R22171   0.330   6.155   2.773
  192SAPI   C2922172   0.273   6.258   2.947
  192SAPI   H9R22173   0.219   6.171   2.987
  192SAPI  C21022174   0.265   6.370   3.039
  192SAPI  H10R22175   0.167   6.375   3.092
  192SAPI  H10S22176   0.248   6.468   2.989
  192SAPI  C21122177   0.376   6.386   3.140
  192SAPI  H11R22178   0.471   6.412   3.092
  192SAPI  C21222179   0.369   6.367   3.273
  192SAPI  H12R22180   0.461   6.377   3.333
  192SAPI  C21322181   0.250   6.331   3.354
  192SAPI  H13R22182   0.285   6.255   3.427
  192SAPI  H13S22183   0.173   6.280   3.292
  192SAPI  C21422184   0.194   6.444   3.433
  192SAPI  H14R22185   0.171   6.525   3.362
  192SAPI  C21522186   0.173   6.454   3.566
  192SAPI  H15R22187   0.135   6.549   3.607
  192SAPI  C21622188   0.195   6.344   3.670
  192SAPI  H16R22189   0.250   6.253   3.638
  192SAPI  H16S22190   0.096   6.307   3.706
  192SAPI  C21722191   0.280   6.399   3.781
  192SAPI  H17R22192   0.217   6.468   3.840
  192SAPI  H17S22193   0.360   6.468   3.747
  192SAPI  C21822194   0.353   6.291   3.864
  192SAPI  H18R22195   0.436   6.237   3.813
  192SAPI  H18S22196   0.274   6.223   3.904
  192SAPI  C21922197   0.417   6.336   3.992
  192SAPI  H19R22198   0.346   6.387   4.061
  192SAPI  H19S22199   0.494   6.412   3.964
  192SAPI  C22022200   0.466   6.212   4.063
  192SAPI  H20R22201   0.538   6.240   4.143
  192SAPI  H20S22202   0.498   6.126   4.000
  192SAPI  H20T22203   0.377   6.179   4.121
  192SAPI   C3322204   1.188   6.199   2.652
  192SAPI   H3X22205   1.267   6.209   2.729
  192SAPI   H3Y22206   1.127   6.110   2.677
  192SAPI   C3422207   1.101   6.320   2.688
  192SAPI   H4X22208   1.030   6.328   2.604
  192SAPI   H4Y22209   1.161   6.414   2.695
  192SAPI   C3522210   1.012   6.304   2.813
  192SAPI   H5X22211   1.080   6.278   2.898
  192SAPI   H5Y22212   0.949   6.217   2.784
  192SAPI   C3622213   0.914   6.428   2.825
  192SAPI   H6X22214   0.874   6.451   2.724
  192SAPI   H6Y22215   0.969   6.522   2.846
  192SAPI   C3722216   0.806   6.418   2.934
  192SAPI   H7X22217   0.760   6.318   2.923
  192SAPI   H7Y22218   0.724   6.492   2.928
  192SAPI   C3822219   0.892   6.425   3.065
  192SAPI   H8X22220   0.970   6.504   3.063
  192SAPI   H8Y22221   0.934   6.322   3.063
  192SAPI   C3922222   0.795   6.421   3.189
  192SAPI   H9X22223   0.750   6.321   3.198
  192SAPI   H9Y22224   0.710   6.492   3.180
  192SAPI  C31022225   0.865   6.439   3.327
  192SAPI  H10X22226   0.912   6.540   3.325
  192SAPI  H10Y22227   0.939   6.357   3.334
  192SAPI  C31122228   0.767   6.430   3.445
  192SAPI  H11X22229   0.707   6.336   3.442
  192SAPI  H11Y22230   0.694   6.508   3.414
  192SAPI  C31222231   0.845   6.459   3.576
  192SAPI  H12X22232   0.877   6.565   3.587
  192SAPI  H12Y22233   0.929   6.387   3.572
  192SAPI  C31322234   0.763   6.420   3.700
  192SAPI  H13X22235   0.713   6.322   3.685
  192SAPI  H13Y22236   0.681   6.492   3.719
  192SAPI  C31422237   0.846   6.427   3.832
  192SAPI  H14X22238   0.898   6.525   3.840
  192SAPI  H14Y22239   0.933   6.357   3.829
  192SAPI  C31522240   0.765   6.387   3.958
  192SAPI  H15X22241   0.717   6.288   3.944
  192SAPI  H15Y22242   0.690   6.461   3.993
  192SAPI  C31622243   0.854   6.364   4.080
  192SAPI  H16X22244   0.958   6.331   4.058
  192SAPI  H16Y22245   0.806   6.279   4.133
  192SAPI  C31722246   0.864   6.482   4.178
  192SAPI  H17X22247   0.759   6.511   4.200
  192SAPI  H17Y22248   0.913   6.570   4.131
  192SAPI  C31822249   0.928   6.462   4.315
  192SAPI  H18X22250   0.871   6.394   4.382
  192SAPI  H18Y22251   0.935   6.558   4.371
  192SAPI  H18Z22252   1.033   6.429   4.305
  193SOD    SOD22253   2.680   5.883   2.311
  194SOD    SOD22254   3.503   2.621   1.800
  195SOD    SOD22255   3.679   4.366   8.285
  196SOD    SOD22256   3.247   2.692   0.828
  197SOD    SOD22257   4.116   0.547   6.830
  198SOD    SOD22258   6.435   1.474   0.353
  199SOD    SOD22259   1.983   6.141   1.536
  200SOD    SOD22260   4.883   5.620   1.012
  201SOD    SOD22261   6.502   5.930   2.093
  202SOD    SOD22262   1.496   3.475   0.021
  203SOD    SOD22263   3.427   0.354   1.994
  204SOD    SOD22264   1.373   0.662   0.674
  205SOD    SOD22265   0.676   6.699   1.571
  206SOD    SOD22266   5.683   4.841   1.577
  207SOD    SOD22267   0.335   3.010   8.244
  208SOD    SOD22268   3.599   0.455   6.413
  209SOD    SOD22269   3.087   1.601   0.934
  210SOD    SOD22270   5.695   3.624   7.101
  211SOD    SOD22271   6.019   6.815   8.762
  212SOD    SOD22272   1.842   2.442   7.338
  213SOD    SOD22273   1.476   4.008   7.824
  214SOD    SOD22274   0.601   5.586   7.365
  215SOD    SOD22275   6.502   3.368   6.966
  216SOD    SOD22276   1.725   4.190   6.588
  217SOD    SOD22277   6.059   1.268   1.867
  218SOD    SOD22278   5.419   2.720   1.498
  219SOD    SOD22279   5.015   4.764   8.015
  220SOD    SOD22280   4.403   4.016   6.705
  221SOD    SOD22281   6.580   2.228   6.332
  222SOD    SOD22282   0.365   4.571   7.461
  223SOD    SOD22283   4.664   5.134   2.297
  224SOD    SOD22284   4.778   4.331   6.996
  225SOD    SOD22285   6.137   6.503   6.340
  226SOD    SOD22286   5.256   3.524   1.557
  227SOD    SOD22287   4.535   0.046   8.780
  228SOD    SOD22288   5.856   2.468   1.242
  229SOD    SOD22289   5.720   0.054   7.648
  230SOD    SOD22290   6.191   5.563   0.212
  231SOD    SOD22291   0.154   3.109   6.622
  232SOD    SOD22292   5.710   5.601   1.306
  233SOD    SOD22293   2.674   1.684   2.576
  234CLA    CLA22294   6.568   3.349   7.470
  235CLA    CLA22295   1.674   4.611   1.123
  236CLA    CLA22296   5.265   3.321   1.067
  237CLA    CLA22297   4.254   3.272   8.179
  238CLA    CLA22298   5.280   6.656   8.459
  239CLA    CLA22299   5.937   6.763   8.184
  240CLA    CLA22300   6.208   5.480   6.773
  241CLA    CLA22301   0.670   5.818   0.673
  242CLA    CLA22302   4.574   4.949   8.245
  243CLA    CLA22303   4.181   2.965   0.261
  244CLA    CLA22304   6.656   6.797   0.317
  245CLA    CLA22305   6.531   6.590   1.157
  246CLA    CLA22306   3.355   6.013   1.662
  247CLA    CLA22307   2.703   0.896   6.795
  248CLA    CLA22308   3.612   4.363   8.026
  249CLA    CLA22309   1.611   2.019   7.416
  250CLA    CLA22310   0.794   4.044   8.393
  251TIP3   OH222311   1.395   3.343   1.034
  251TIP3    H122312   1.364   3.268   0.984
  251TIP3    H222313   1.318   3.400   1.041
  252TIP3   OH222314   0.928   3.705   7.632
  252TIP3    H122315   1.020   3.730   7.633
  252TIP3    H222316   0.913   3.666   7.718
  253TIP3   OH222317   3.006   6.700   1.322
  253TIP3    H122318   2.954   6.619   1.325
  253TIP3    H222319   2.990   6.736   1.235
  254TIP3   OH222320   0.372   2.945   1.579
  254TIP3    H122321   0.442   2.961   1.516
  254TIP3    H222322   0.354   2.851   1.572
  255TIP3   OH222323   0.344   2.546   8.384
  255TIP3    H122324   0.342   2.457   8.349
  255TIP3    H222325   0.388   2.538   8.468
  256TIP3   OH222326   2.737   2.611   0.913
  256TIP3    H122327   2.754   2.546   0.982
  256TIP3    H222328   2.789   2.687   0.939
  257TIP3   OH222329   0.769   1.986   0.316
  257TIP3    H122330   0.681   1.995   0.278
  257TIP3    H222331   0.775   1.894   0.340
  258TIP3   OH222332   0.791   4.976   1.868
  258TIP3    H122333   0.800   5.055   1.921
  258TIP3    H222334   0.866   4.922   1.892
  259TIP3   OH222335   6.447   4.408   1.223
  259TIP3    H122336   6.409   4.415   1.136
  259TIP3    H222337   6.381   4.362   1.275
  260TIP3   OH222338   5.248   5.901   7.257
  260TIP3    H122339   5.226   5.811   7.235
  260TIP3    H222340   5.246   5.904   7.353
  261TIP3   OH222341   0.480   0.906   0.677
  261TIP3    H122342   0.451   0.816   0.691
  261TIP3    H222343   0.546   0.921   0.745
  262TIP3   OH222344   5.854   3.066   7.057
  262TIP3    H122345   5.771   3.026   7.030
  262TIP3    H222346   5.885   3.011   7.128
  263TIP3   OH222347   1.279   4.192   7.251
  263TIP3    H122348   1.203   4.167   7.199
  263TIP3    H222349   1.292   4.285   7.231
  264TIP3   OH222350   6.016   1.548   8.439
  264TIP3    H122351   6.007   1.603   8.361
  264TIP3    H222352   6.091   1.492   8.419
  265TIP3   OH222353   1.844   3.476   1.994
  265TIP3    H122354   1.887   3.400   2.033
  265TIP3    H222355   1.846   3.542   2.063
  266TIP3   OH222356   2.084   6.745   8.080
  266TIP3    H122357   2.047   6.757   8.167
  266TIP3    H222358   2.066   6.827   8.034
  267TIP3   OH222359   5.962   1.871   7.530
  267TIP3    H122360   5.894   1.804   7.543
  267TIP3    H222361   5.941   1.910   7.445
  268TIP3   OH222362   1.285   3.134   2.082
  268TIP3    H122363   1.242   3.172   2.158
  268TIP3    H222364   1.290   3.206   2.019
  269TIP3   OH222365   0.889   2.975   8.479
  269TIP3    H122366   0.800   3.011   8.480
  269TIP3    H222367   0.899   2.935   8.566
  270TIP3   OH222368   1.530   5.704   1.943
  270TIP3    H122369   1.442   5.739   1.957
  270TIP3    H222370   1.563   5.686   2.031
  271TIP3   OH222371   3.767   0.658   7.171
  271TIP3    H122372   3.722   0.589   7.220
  271TIP3    H222373   3.716   0.666   7.090
  272TIP3   OH222374   0.230   2.667   6.993
  272TIP3    H122375   0.262   2.580   7.015
  272TIP3    H222376   0.169   2.653   6.921
  273TIP3   OH222377   5.005   1.336   0.610
  273TIP3    H122378   5.083   1.291   0.642
  273TIP3    H222379   4.966   1.274   0.547
  274TIP3   OH222380   2.042   1.392   0.583
  274TIP3    H122381   2.081   1.474   0.614
  274TIP3    H222382   2.046   1.333   0.659
  275TIP3   OH222383   5.153   2.458   8.306
  275TIP3    H122384   5.181   2.474   8.216
  275TIP3    H222385   5.134   2.365   8.309
  276TIP3   OH222386   6.762   2.429   1.080
  276TIP3    H122387   0.007   2.384   1.093
  276TIP3    H222388   6.755   2.440   0.985
  277TIP3   OH222389   1.368   0.952   8.625
  277TIP3    H122390   1.364   0.876   8.568
  277TIP3    H222391   1.316   0.927   8.702
  278TIP3   OH222392   5.883   4.589   6.771
  278TIP3    H122393   5.911   4.680   6.782
  278TIP3    H222394   5.812   4.578   6.835
  279TIP3   OH222395   3.300   1.951   7.446
  279TIP3    H122396   3.331   1.941   7.356
  279TIP3    H222397   3.380   1.960   7.498
  280TIP3   OH222398   3.779   3.678   0.566
  280TIP3    H122399   3.701   3.624   0.570
  280TIP3    H222400   3.791   3.710   0.656
  281TIP3   OH222401   6.428   2.477   0.145
  281TIP3    H122402   6.512   2.431   0.152
  281TIP3    H222403   6.414   2.515   0.232
  282TIP3   OH222404   3.398   0.009   1.290
  282TIP3    H122405   3.393   6.763   1.335
  282TIP3    H222406   3.420   6.825   1.199
  283TIP3   OH222407   0.232   6.159   8.076
  283TIP3    H122408   0.268   6.140   7.989
  283TIP3    H222409   0.299   6.213   8.118
  284TIP3   OH222410   5.071   1.910   2.087
  284TIP3    H122411   5.152   1.953   2.060
  284TIP3    H222412   5.015   1.914   2.009
  285TIP3   OH222413   5.959   1.005   7.097
  285TIP3    H122414   6.013   1.076   7.063
  285TIP3    H222415   5.943   1.030   7.188
  286TIP3   OH222416   5.696   1.706   8.062
  286TIP3    H122417   5.756   1.773   8.029
  286TIP3    H222418   5.695   1.639   7.994
  287TIP3   OH222419   3.283   5.232   8.382
  287TIP3    H122420   3.270   5.159   8.322
  287TIP3    H222421   3.377   5.230   8.402
  288TIP3   OH222422   5.656   3.262   0.321
  288TIP3    H122423   5.578   3.209   0.338
  288TIP3    H222424   5.706   3.212   0.258
  289TIP3   OH222425   6.181   2.067   2.111
  289TIP3    H122426   6.241   2.091   2.040
  289TIP3    H222427   6.237   2.018   2.173
  290TIP3   OH222428   1.264   1.705   7.333
  290TIP3    H122429   1.245   1.654   7.254
  290TIP3    H222430   1.346   1.670   7.365
  291TIP3   OH222431   2.647   1.508   6.722
  291TIP3    H122432   2.698   1.509   6.642
  291TIP3    H222433   2.685   1.437   6.774
  292TIP3   OH222434   6.233   5.606   8.041
  292TIP3    H122435   6.233   5.701   8.030
  292TIP3    H222436   6.302   5.575   7.982
  293TIP3   OH222437   6.162   2.448   0.345
  293TIP3    H122438   6.174   2.473   0.254
  293TIP3    H222439   6.070   2.422   0.350
  294TIP3   OH222440   5.554   6.282   1.259
  294TIP3    H122441   5.607   6.240   1.326
  294TIP3    H222442   5.570   6.230   1.180
  295TIP3   OH222443   5.378   4.868   0.017
  295TIP3    H122444   5.386   4.831   8.711
  295TIP3    H222445   5.313   4.937   0.008
  296TIP3   OH222446   0.397   6.239   1.606
  296TIP3    H122447   0.413   6.331   1.626
  296TIP3    H222448   0.316   6.217   1.651
  297TIP3   OH222449   3.838   2.360   1.258
  297TIP3    H122450   3.932   2.368   1.242
  297TIP3    H222451   3.826   2.396   1.346
  298TIP3   OH222452   3.751   6.674   0.206
  298TIP3    H122453   3.840   6.656   0.175
  298TIP3    H222454   3.762   6.693   0.299
  299TIP3   OH222455   3.292   3.181   7.803
  299TIP3    H122456   3.277   3.242   7.731
  299TIP3    H222457   3.237   3.105   7.783
  300TIP3   OH222458   5.505   2.671   6.941
  300TIP3    H122459   5.551   2.603   6.891
  300TIP3    H222460   5.413   2.661   6.915
  301TIP3   OH222461   3.777   2.693   7.120
  301TIP3    H122462   3.829   2.662   7.046
  301TIP3    H222463   3.739   2.775   7.089
  302TIP3   OH222464   3.395   0.299   1.232
  302TIP3    H122465   3.377   0.205   1.237
  302TIP3    H222466   3.463   0.313   1.299
  303TIP3   OH222467   0.464   0.547   8.720
  303TIP3    H122468   0.369   0.559   8.722
  303TIP3    H222469   0.483   0.488   0.010
  304TIP3   OH222470   2.944   6.171   0.757
  304TIP3    H122471   2.851   6.187   0.767
  304TIP3    H222472   2.983   6.204   0.838
  305TIP3   OH222473   4.751   4.800   1.208
  305TIP3    H122474   4.802   4.722   1.186
  305TIP3    H222475   4.791   4.870   1.156
  306TIP3   OH222476   5.277   0.709   0.538
  306TIP3    H122477   5.207   0.646   0.519
  306TIP3    H222478   5.233   0.794   0.536
  307TIP3   OH222479   5.503   2.855   7.553
  307TIP3    H122480   5.489   2.768   7.592
  307TIP3    H222481   5.415   2.891   7.543
  308TIP3   OH222482   4.110   0.432   0.793
  308TIP3    H122483   4.107   0.515   0.841
  308TIP3    H222484   4.193   0.437   0.744
  309TIP3   OH222485   4.645   2.053   7.926
  309TIP3    H122486   4.556   2.049   7.891
  309TIP3    H222487   4.647   2.134   7.977
  310TIP3   OH222488   0.112   6.452   0.059
  310TIP3    H122489   0.021   6.474   0.039
  310TIP3    H222490   0.106   6.394   0.135
  311TIP3   OH222491   3.779   0.576   2.065
  311TIP3    H122492   3.761   0.609   1.977
  311TIP3    H222493   3.716   0.505   2.077
  312TIP3   OH222494   3.009   1.389   0.793
  312TIP3    H122495   3.066   1.361   0.721
  312TIP3    H222496   2.929   1.338   0.780
  313TIP3   OH222497   3.241   4.091   6.641
  313TIP3    H122498   3.198   4.006   6.650
  313TIP3    H222499   3.172   4.150   6.609
  314TIP3   OH222500   4.107   6.105   7.314
  314TIP3    H122501   4.156   6.048   7.373
  314TIP3    H222502   4.162   6.113   7.237
  315TIP3   OH222503   0.552   0.509   1.321
  315TIP3    H122504   0.537   0.574   1.390
  315TIP3    H222505   0.489   0.439   1.340
  316TIP3   OH222506   2.562   2.849   1.558
  316TIP3    H122507   2.614   2.781   1.602
  316TIP3    H222508   2.511   2.801   1.493
  317TIP3   OH222509   6.192   2.463   0.917
  317TIP3    H122510   6.159   2.388   0.867
  317TIP3    H222511   6.279   2.435   0.947
  318TIP3   OH222512   4.213   4.625   1.475
  318TIP3    H122513   4.206   4.539   1.517
  318TIP3    H222514   4.186   4.687   1.542
  319TIP3   OH222515   1.021   2.481   7.170
  319TIP3    H122516   1.115   2.476   7.182
  319TIP3    H222517   1.009   2.488   7.075
  320TIP3   OH222518   3.171   1.166   0.928
  320TIP3    H122519   3.202   1.213   0.851
  320TIP3    H222520   3.130   1.087   0.893
  321TIP3   OH222521   1.982   4.856   0.105
  321TIP3    H122522   2.016   4.772   0.138
  321TIP3    H222523   2.050   4.888   0.046
  322TIP3   OH222524   3.069   0.915   8.511
  322TIP3    H122525   3.010   0.972   8.462
  322TIP3    H222526   3.092   0.966   8.589
  323TIP3   OH222527   5.355   5.228   0.306
  323TIP3    H122528   5.288   5.175   0.349
  323TIP3    H222529   5.317   5.316   0.301
  324TIP3   OH222530   3.933   4.851   6.453
  324TIP3    H122531   3.851   4.823   6.492
  324TIP3    H222532   3.920   4.943   6.431
  325TIP3   OH222533   3.122   3.753   7.527
  325TIP3    H122534   3.208   3.782   7.496
  325TIP3    H222535   3.108   3.668   7.484
  326TIP3   OH222536   4.442   0.506   2.190
  326TIP3    H122537   4.407   0.593   2.211
  326TIP3    H222538   4.537   0.516   2.194
  327TIP3   OH222539   3.551   0.446   2.183
  327TIP3    H122540   3.620   0.388   2.215
  327TIP3    H222541   3.495   0.462   2.260
  328TIP3   OH222542   6.240   0.758   2.262
  328TIP3    H122543   6.228   0.701   2.338
  328TIP3    H222544   6.232   0.846   2.297
  329TIP3   OH222545   4.453   0.726   7.835
  329TIP3    H122546   4.464   0.687   7.922
  329TIP3    H222547   4.363   0.759   7.835
  330TIP3   OH222548   0.426   3.235   8.178
  330TIP3    H122549   0.406   3.309   8.235
  330TIP3    H222550   0.502   3.263   8.128
  331TIP3   OH222551   1.643   3.865   7.738
  331TIP3    H122552   1.701   3.894   7.667
  331TIP3    H222553   1.595   3.791   7.701
  332TIP3   OH222554   6.466   6.141   0.160
  332TIP3    H122555   6.482   6.086   0.236
  332TIP3    H222556   6.423   6.219   0.195
  333TIP3   OH222557   6.592   1.489   0.936
  333TIP3    H122558   6.529   1.556   0.960
  333TIP3    H222559   6.602   1.436   1.016
  334TIP3   OH222560   3.543   6.499   8.022
  334TIP3    H122561   3.596   6.423   7.998
  334TIP3    H222562   3.468   6.495   7.963
  335TIP3   OH222563   6.767   0.829   1.977
  335TIP3    H122564   0.012   0.875   1.972
  335TIP3    H222565   6.762   0.778   1.896
  336TIP3   OH222566   5.408   4.434   7.486
  336TIP3    H122567   5.412   4.526   7.515
  336TIP3    H222568   5.371   4.387   7.560
  337TIP3   OH222569   2.391   2.436   8.521
  337TIP3    H122570   2.399   2.531   8.524
  337TIP3    H222571   2.305   2.421   8.482
  338TIP3   OH222572   0.657   5.018   7.384
  338TIP3    H122573   0.566   5.007   7.359
  338TIP3    H222574   0.706   4.960   7.327
  339TIP3   OH222575   3.422   6.428   1.895
  339TIP3    H122576   3.404   6.509   1.943
  339TIP3    H222577   3.335   6.393   1.874
  340TIP3   OH222578   1.111   4.722   0.811
  340TIP3    H122579   1.103   4.813   0.838
  340TIP3    H222580   1.083   4.671   0.887
  341TIP3   OH222581   3.877   5.340   7.585
  341TIP3    H122582   3.839   5.352   7.672
  341TIP3    H222583   3.971   5.328   7.601
  342TIP3   OH222584   5.846   1.356   8.293
  342TIP3    H122585   5.916   1.371   8.357
  342TIP3    H222586   5.887   1.372   8.208
  343TIP3   OH222587   1.710   5.806   7.960
  343TIP3    H122588   1.751   5.724   7.985
  343TIP3    H222589   1.745   5.825   7.873
  344TIP3   OH222590   2.029   5.149   2.448
  344TIP3    H122591   2.046   5.238   2.477
  344TIP3    H222592   2.103   5.098   2.481
  345TIP3   OH222593   5.381   1.344   2.244
  345TIP3    H122594   5.302   1.336   2.191
  345TIP3    H222595   5.356   1.311   2.330
  346TIP3   OH222596   6.830   4.268   0.983
  346TIP3    H122597   0.082   4.235   0.986
  346TIP3    H222598   6.824   4.314   0.899
  347TIP3   OH222599   1.849   2.241   6.890
  347TIP3    H122600   1.935   2.281   6.881
  347TIP3    H222601   1.867   2.150   6.914
  348TIP3   OH222602   3.419   6.048   7.557
  348TIP3    H122603   3.366   6.028   7.480
  348TIP3    H222604   3.360   6.032   7.631
  349TIP3   OH222605   0.836   5.129   0.912
  349TIP3    H122606   0.767   5.150   0.850
  349TIP3    H222607   0.878   5.213   0.931
  350TIP3   OH222608   4.225   0.411   2.027
  350TIP3    H122609   4.279   0.449   2.096
  350TIP3    H222610   4.276   0.335   1.997
  351TIP3   OH222611   0.784   4.269   1.568
  351TIP3    H122612   0.690   4.249   1.571
  351TIP3    H222613   0.789   4.356   1.530
  352TIP3   OH222614   0.229   0.393   0.501
  352TIP3    H122615   0.170   0.323   0.528
  352TIP3    H222616   0.297   0.395   0.569
  353TIP3   OH222617   0.102   0.410   8.043
  353TIP3    H122618   0.046   0.483   8.019
  353TIP3    H222619   0.061   0.373   8.121
  354TIP3   OH222620   3.207   3.868   7.852
  354TIP3    H122621   3.269   3.795   7.855
  354TIP3    H222622   3.178   3.879   7.942
  355TIP3   OH222623   0.070   2.224   7.019
  355TIP3    H122624   0.010   2.226   6.944
  355TIP3    H222625   0.133   2.294   7.002
  356TIP3   OH222626   0.014   2.495   7.366
  356TIP3    H122627   0.013   2.496   7.462
  356TIP3    H222628   0.101   2.526   7.343
  357TIP3   OH222629   1.645   1.946   8.096
  357TIP3    H122630   1.735   1.941   8.064
  357TIP3    H222631   1.597   1.883   8.043
  358TIP3   OH222632   2.180   2.323   8.342
  358TIP3    H122633   2.182   2.232   8.372
  358TIP3    H222634   2.086   2.343   8.335
  359TIP3   OH222635   4.779   2.451   7.219
  359TIP3    H122636   4.711   2.485   7.161
  359TIP3    H222637   4.733   2.393   7.280
  360TIP3   OH222638   5.577   0.277   1.289
  360TIP3    H122639   5.561   0.290   1.195
  360TIP3    H222640   5.597   0.364   1.322
  361TIP3   OH222641   4.555   6.216   7.767
  361TIP3    H122642   4.597   6.182   7.846
  361TIP3    H222643   4.537   6.139   7.714
  362TIP3   OH222644   4.857   2.168   0.532
  362TIP3    H122645   4.845   2.245   0.477
  362TIP3    H222646   4.951   2.157   0.539
  363TIP3   OH222647   2.609   6.361   7.080
  363TIP3    H122648   2.531   6.415   7.089
  363TIP3    H222649   2.583   6.291   7.019
  364TIP3   OH222650   6.458   2.062   0.154
  364TIP3    H122651   6.370   2.051   0.117
  364TIP3    H222652   6.444   2.109   0.236
  365TIP3   OH222653   2.916   3.506   8.294
  365TIP3    H122654   2.985   3.463   8.244
  365TIP3    H222655   2.926   3.471   8.383
  366TIP3   OH222656   6.780   4.725   1.239
  366TIP3    H122657   6.745   4.639   1.214
  366TIP3    H222658   0.036   4.710   1.245
  367TIP3   OH222659   6.768   2.030   1.030
  367TIP3    H122660   6.768   2.047   1.124
  367TIP3    H222661   6.699   1.965   1.016
  368TIP3   OH222662   6.299   3.438   6.307
  368TIP3    H122663   6.371   3.429   6.370
  368TIP3    H222664   6.333   3.499   6.241
  369TIP3   OH222665   5.608   6.629   0.019
  369TIP3    H122666   5.520   6.593   0.008
  369TIP3    H222667   5.651   6.568   0.080
  370TIP3   OH222668   5.433   5.162   7.628
  370TIP3    H122669   5.385   5.107   7.690
  370TIP3    H222670   5.512   5.112   7.607
  371TIP3   OH222671   3.352   3.931   7.607
  371TIP3    H122672   3.271   3.924   7.658
  371TIP3    H222673   3.405   3.995   7.654
  372TIP3   OH222674   6.071   4.475   6.413
  372TIP3    H122675   5.984   4.479   6.373
  372TIP3    H222676   6.130   4.455   6.341
  373TIP3   OH222677   5.215   5.605   7.248
  373TIP3    H122678   5.153   5.533   7.255
  373TIP3    H222679   5.234   5.630   7.338
  374TIP3   OH222680   1.755   5.476   8.521
  374TIP3    H122681   1.705   5.424   8.584
  374TIP3    H222682   1.742   5.566   8.548
  375TIP3   OH222683   4.177   0.246   1.524
  375TIP3    H122684   4.209   0.228   1.435
  375TIP3    H222685   4.238   0.310   1.559
  376TIP3   OH222686   3.421   4.598   7.282
  376TIP3    H122687   3.339   4.590   7.232
  376TIP3    H222688   3.411   4.535   7.353
  377TIP3   OH222689   5.685   4.752   7.245
  377TIP3    H122690   5.622   4.795   7.303
  377TIP3    H222691   5.708   4.819   7.181
  378TIP3   OH222692   1.928   3.603   7.566
  378TIP3    H122693   1.851   3.655   7.544
  378TIP3    H222694   1.902   3.513   7.550
  379TIP3   OH222695   1.025   2.066   0.747
  379TIP3    H122696   0.965   2.129   0.787
  379TIP3    H222697   0.980   2.036   0.668
  380TIP3   OH222698   2.864   4.798   1.778
  380TIP3    H122699   2.928   4.791   1.707
  380TIP3    H222700   2.779   4.800   1.734
  381TIP3   OH222701   2.203   1.704   8.691
  381TIP3    H122702   2.255   1.656   8.626
  381TIP3    H222703   2.114   1.669   8.680
  382TIP3   OH222704   4.002   5.542   1.702
  382TIP3    H122705   3.978   5.609   1.638
  382TIP3    H222706   3.929   5.480   1.700
  383TIP3   OH222707   0.519   4.757   8.446
  383TIP3    H122708   0.536   4.672   8.406
  383TIP3    H222709   0.555   4.751   8.534
  384TIP3   OH222710   3.761   4.721   7.855
  384TIP3    H122711   3.825   4.732   7.926
  384TIP3    H222712   3.790   4.783   7.788
  385TIP3   OH222713   3.637   4.320   7.698
  385TIP3    H122714   3.605   4.408   7.676
  385TIP3    H222715   3.645   4.321   7.793
  386TIP3   OH222716   4.747   2.397   5.951
  386TIP3    H122717   4.797   2.441   6.020
  386TIP3    H222718   4.777   2.306   5.954
  387TIP3   OH222719   3.884   6.792   0.735
  387TIP3    H122720   3.925   6.712   0.704
  387TIP3    H222721   3.886   6.786   0.830
  388TIP3   OH222722   1.130   3.699   7.891
  388TIP3    H122723   1.038   3.725   7.896
  388TIP3    H222724   1.127   3.608   7.860
  389TIP3   OH222725   5.258   1.299   1.514
  389TIP3    H122726   5.306   1.301   1.431
  389TIP3    H222727   5.319   1.259   1.577
  390TIP3   OH222728   2.222   4.921   0.840
  390TIP3    H122729   2.188   4.840   0.878
  390TIP3    H222730   2.145   4.969   0.812
  391TIP3   OH222731   4.076   2.543   7.962
  391TIP3    H122732   4.170   2.539   7.981
  391TIP3    H222733   4.037   2.578   8.042
  392TIP3   OH222734   6.209   1.693   7.323
  392TIP3    H122735   6.187   1.681   7.230
  392TIP3    H222736   6.147   1.636   7.369
  393TIP3   OH222737   5.192   2.607   8.523
  393TIP3    H122738   5.178   2.534   8.582
  393TIP3    H222739   5.179   2.571   8.436
  394TIP3   OH222740   5.866   2.991   8.671
  394TIP3    H122741   5.814   3.064   8.637
  394TIP3    H222742   5.910   2.954   8.594
  395TIP3   OH222743   0.730   0.167   7.119
  395TIP3    H122744   0.695   0.207   7.199
  395TIP3    H222745   0.696   0.221   7.048
  396TIP3   OH222746   2.479   4.206   1.825
  396TIP3    H122747   2.547   4.184   1.890
  396TIP3    H222748   2.397   4.196   1.873
  397TIP3   OH222749   2.562   5.620   1.305
  397TIP3    H122750   2.576   5.563   1.229
  397TIP3    H222751   2.467   5.629   1.311
  398TIP3   OH222752   1.201   6.365   7.506
  398TIP3    H122753   1.149   6.398   7.580
  398TIP3    H222754   1.273   6.427   7.497
  399TIP3   OH222755   5.866   3.154   0.668
  399TIP3    H122756   5.813   3.074   0.671
  399TIP3    H222757   5.956   3.124   0.679
  400TIP3   OH222758   1.049   2.024   8.602
  400TIP3    H122759   0.992   1.971   8.657
  400TIP3    H222760   1.117   2.056   8.661
  401TIP3   OH222761   2.515   2.882   8.674
  401TIP3    H122762   2.608   2.897   8.688
  401TIP3    H222763   2.485   2.961   8.628
  402TIP3   OH222764   4.339   1.479   2.621
  402TIP3    H122765   4.410   1.537   2.647
  402TIP3    H222766   4.383   1.401   2.587
  403TIP3   OH222767   1.172   3.205   0.463
  403TIP3    H122768   1.185   3.127   0.517
  403TIP3    H222769   1.090   3.243   0.496
  404TIP3   OH222770   3.431   3.080   1.819
  404TIP3    H122771   3.427   3.168   1.857
  404TIP3    H222772   3.364   3.031   1.867
  405TIP3   OH222773   1.128   6.773   0.976
  405TIP3    H122774   1.042   6.806   0.999
  405TIP3    H222775   1.156   6.829   0.903
  406TIP3   OH222776   2.834   0.091   8.489
  406TIP3    H122777   2.885   0.170   8.509
  406TIP3    H222778   2.743   0.119   8.500
  407TIP3   OH222779   2.932   0.970   0.958
  407TIP3    H122780   2.985   0.970   0.879
  407TIP3    H222781   2.845   0.999   0.930
  408TIP3   OH222782   1.707   5.574   7.082
  408TIP3    H122783   1.691   5.491   7.038
  408TIP3    H222784   1.779   5.614   7.033
  409TIP3   OH222785   4.051   0.546   2.263
  409TIP3    H122786   3.982   0.494   2.222
  409TIP3    H222787   4.123   0.484   2.275
  410TIP3   OH222788   5.032   5.367   7.113
  410TIP3    H122789   4.947   5.351   7.072
  410TIP3    H222790   5.086   5.404   7.043
  411TIP3   OH222791   4.075   3.783   7.092
  411TIP3    H122792   4.083   3.734   7.174
  411TIP3    H222793   4.083   3.717   7.023
  412TIP3   OH222794   2.298   5.093   0.305
  412TIP3    H122795   2.362   5.163   0.292
  412TIP3    H222796   2.272   5.066   0.217
  413TIP3   OH222797   0.803   6.023   7.031
  413TIP3    H122798   0.792   5.996   6.940
  413TIP3    H222799   0.885   5.981   7.058
  414TIP3   OH222800   4.367   3.922   0.040
  414TIP3    H122801   4.356   3.829   0.019
  414TIP3    H222802   4.283   3.947   0.080
  415TIP3   OH222803   0.300   2.125   2.184
  415TIP3    H122804   0.234   2.166   2.240
  415TIP3    H222805   0.293   2.031   2.204
  416TIP3   OH222806   1.172   0.810   2.145
  416TIP3    H122807   1.210   0.732   2.106
  416TIP3    H222808   1.245   0.854   2.188
  417TIP3   OH222809   0.063   2.324   8.437
  417TIP3    H122810   0.147   2.340   8.394
  417TIP3    H222811   6.836   2.355   8.375
  418TIP3   OH222812   3.262   0.385   7.399
  418TIP3    H122813   3.350   0.423   7.389
  418TIP3    H222814   3.242   0.395   7.492
  419TIP3   OH222815   6.498   3.680   1.840
  419TIP3    H122816   6.411   3.707   1.871
  419TIP3    H222817   6.547   3.664   1.921
  420TIP3   OH222818   4.753   6.326   0.565
  420TIP3    H122819   4.777   6.309   0.474
  420TIP3    H222820   4.830   6.300   0.616
  421TIP3   OH222821   2.492   0.642   6.811
  421TIP3    H122822   2.535   0.621   6.894
  421TIP3    H222823   2.513   0.734   6.795
  422TIP3   OH222824   0.426   0.863   7.193
  422TIP3    H122825   0.506   0.876   7.245
  422TIP3    H222826   0.444   0.907   7.110
  423TIP3   OH222827   3.936   3.881   7.589
  423TIP3    H122828   4.001   3.897   7.521
  423TIP3    H222829   3.884   3.961   7.593
  424TIP3   OH222830   5.977   4.952   8.617
  424TIP3    H122831   6.041   4.907   8.562
  424TIP3    H222832   5.911   4.885   8.636
  425TIP3   OH222833   0.161   4.434   2.394
  425TIP3    H122834   0.190   4.433   2.302
  425TIP3    H222835   0.117   4.518   2.404
  426TIP3   OH222836   0.315   2.732   0.729
  426TIP3    H122837   0.279   2.711   0.815
  426TIP3    H222838   0.372   2.658   0.708
  427TIP3   OH222839   3.400   0.184   8.684
  427TIP3    H122840   3.454   0.106   8.692
  427TIP3    H222841   3.315   0.158   8.720
  428TIP3   OH222842   0.259   1.659   7.357
  428TIP3    H122843   0.221   1.636   7.272
  428TIP3    H222844   0.307   1.581   7.384
  429TIP3   OH222845   0.810   0.054   0.571
  429TIP3    H122846   0.760   6.820   0.534
  429TIP3    H222847   0.766   0.073   0.654
  430TIP3   OH222848   1.521   5.292   0.834
  430TIP3    H122849   1.570   5.232   0.778
  430TIP3    H222850   1.567   5.289   0.918
  431TIP3   OH222851   4.155   6.369   7.024
  431TIP3    H122852   4.073   6.333   6.992
  431TIP3    H222853   4.193   6.299   7.077
  432TIP3   OH222854   4.070   1.335   8.353
  432TIP3    H122855   4.148   1.339   8.298
  432TIP3    H222856   4.082   1.407   8.416
  433TIP3   OH222857   2.880   2.573   7.667
  433TIP3    H122858   2.927   2.510   7.613
  433TIP3    H222859   2.808   2.603   7.612
  434TIP3   OH222860   0.212   4.867   8.149
  434TIP3    H122861   0.149   4.829   8.088
  434TIP3    H222862   0.202   4.962   8.137
  435TIP3   OH222863   4.001   1.588   1.639
  435TIP3    H122864   3.981   1.639   1.718
  435TIP3    H222865   4.003   1.652   1.569
  436TIP3   OH222866   6.020   1.677   8.178
  436TIP3    H122867   6.107   1.680   8.138
  436TIP3    H222868   5.976   1.756   8.146
  437TIP3   OH222869   5.338   6.216   7.410
  437TIP3    H122870   5.271   6.274   7.445
  437TIP3    H222871   5.359   6.253   7.324
  438TIP3   OH222872   6.160   3.262   1.275
  438TIP3    H122873   6.098   3.325   1.238
  438TIP3    H222874   6.246   3.303   1.263
  439TIP3   OH222875   1.296   1.966   8.344
  439TIP3    H122876   1.360   1.979   8.414
  439TIP3    H222877   1.251   2.050   8.336
  440TIP3   OH222878   2.345   0.140   0.468
  440TIP3    H122879   2.419   0.185   0.508
  440TIP3    H222880   2.308   0.203   0.407
  441TIP3   OH222881   1.601   2.646   7.634
  441TIP3    H122882   1.562   2.662   7.547
  441TIP3    H222883   1.695   2.638   7.616
  442TIP3   OH222884   1.568   2.144   8.246
  442TIP3    H122885   1.576   2.071   8.184
  442TIP3    H222886   1.532   2.216   8.194
  443TIP3   OH222887   2.717   6.256   0.637
  443TIP3    H122888   2.715   6.246   0.541
  443TIP3    H222889   2.644   6.315   0.656
  444TIP3   OH222890   2.861   0.520   7.483
  444TIP3    H122891   2.883   0.490   7.395
  444TIP3    H222892   2.888   0.448   7.540
  445TIP3   OH222893   5.194   4.384   7.130
  445TIP3    H122894   5.160   4.324   7.196
  445TIP3    H222895   5.147   4.362   7.050
  446TIP3   OH222896   3.254   3.299   0.757
  446TIP3    H122897   3.317   3.350   0.809
  446TIP3    H222898   3.169   3.322   0.794
  447TIP3   OH222899   0.304   6.821   1.896
  447TIP3    H122900   0.250   0.053   1.860
  447TIP3    H222901   0.244   6.747   1.907
  448TIP3   OH222902   0.391   6.454   6.800
  448TIP3    H122903   0.457   6.499   6.851
  448TIP3    H222904   0.308   6.476   6.843
  449TIP3   OH222905   6.495   1.844   8.010
  449TIP3    H122906   6.562   1.896   8.055
  449TIP3    H222907   6.540   1.762   7.988
  450TIP3   OH222908   5.946   5.468   0.449
  450TIP3    H122909   6.025   5.468   0.504
  450TIP3    H222910   5.945   5.382   0.408
  451TIP3   OH222911   5.557   0.679   8.097
  451TIP3    H122912   5.569   0.598   8.048
  451TIP3    H222913   5.464   0.700   8.087
  452TIP3   OH222914   5.870   3.978   7.541
  452TIP3    H122915   5.892   3.937   7.624
  452TIP3    H222916   5.807   4.046   7.564
  453TIP3   OH222917   4.571   5.472   1.083
  453TIP3    H122918   4.537   5.487   1.171
  453TIP3    H222919   4.590   5.560   1.050
  454TIP3   OH222920   1.359   1.284   7.324
  454TIP3    H122921   1.276   1.261   7.281
  454TIP3    H222922   1.340   1.276   7.417
  455TIP3   OH222923   0.547   5.998   0.430
  455TIP3    H122924   0.477   5.976   0.368
  455TIP3    H222925   0.566   5.916   0.475
  456TIP3   OH222926   5.463   1.285   1.233
  456TIP3    H122927   5.543   1.251   1.193
  456TIP3    H222928   5.400   1.214   1.225
  457TIP3   OH222929   3.979   5.075   7.906
  457TIP3    H122930   3.887   5.095   7.887
  457TIP3    H222931   3.980   4.980   7.919
  458TIP3   OH222932   4.405   4.411   7.774
  458TIP3    H122933   4.458   4.479   7.816
  458TIP3    H222934   4.316   4.445   7.776
  459TIP3   OH222935   3.208   6.306   6.844
  459TIP3    H122936   3.238   6.300   6.753
  459TIP3    H222937   3.210   6.216   6.876
  460TIP3   OH222938   2.207   6.624   7.495
  460TIP3    H122939   2.190   6.653   7.584
  460TIP3    H222940   2.188   6.701   7.441
  461TIP3   OH222941   3.027   0.051   0.625
  461TIP3    H122942   3.069   6.814   0.582
  461TIP3    H222943   3.008   0.111   0.553
  462TIP3   OH222944   5.551   2.991   6.948
  462TIP3    H122945   5.459   3.000   6.923
  462TIP3    H222946   5.569   2.897   6.942
  463TIP3   OH222947   5.048   2.418   1.396
  463TIP3    H122948   5.124   2.384   1.442
  463TIP3    H222949   5.015   2.488   1.452
  464TIP3   OH222950   5.723   0.935   2.274
  464TIP3    H122951   5.792   0.998   2.253
  464TIP3    H222952   5.644   0.971   2.234
  465TIP3   OH222953   0.100   1.317   0.292
  465TIP3    H122954   0.125   1.355   0.376
  465TIP3    H222955   0.177   1.267   0.265
  466TIP3   OH222956   3.827   4.532   0.226
  466TIP3    H122957   3.867   4.616   0.247
  466TIP3    H222958   3.735   4.541   0.252
  467TIP3   OH222959   6.044   6.131   1.861
  467TIP3    H122960   6.134   6.161   1.851
  467TIP3    H222961   6.012   6.174   1.940
  468TIP3   OH222962   2.613   5.240   7.817
  468TIP3    H122963   2.527   5.280   7.826
  468TIP3    H222964   2.595   5.149   7.794
  469TIP3   OH222965   3.897   4.405   0.454
  469TIP3    H122966   3.907   4.463   0.379
  469TIP3    H222967   3.982   4.361   0.461
  470TIP3   OH222968   3.672   0.570   1.741
  470TIP3    H122969   3.595   0.599   1.691
  470TIP3    H222970   3.706   0.650   1.780
  471TIP3   OH222971   3.590   4.077   7.419
  471TIP3    H122972   3.510   4.063   7.369
  471TIP3    H222973   3.563   4.074   7.511
  472TIP3   OH222974   2.152   2.833   1.287
  472TIP3    H122975   2.162   2.925   1.310
  472TIP3    H222976   2.199   2.824   1.204
  473TIP3   OH222977   5.205   1.784   1.476
  473TIP3    H122978   5.126   1.838   1.487
  473TIP3    H222979   5.176   1.696   1.499
  474TIP3   OH222980   0.306   1.523   8.656
  474TIP3    H122981   0.295   1.461   8.583
  474TIP3    H222982   0.292   1.609   8.616
  475TIP3   OH222983   4.620   3.533   0.123
  475TIP3    H122984   4.673   3.612   0.130
  475TIP3    H222985   4.607   3.504   0.214
  476TIP3   OH222986   2.010   6.290   1.364
  476TIP3    H122987   1.976   6.272   1.276
  476TIP3    H222988   2.046   6.379   1.357
  477TIP3   OH222989   6.821   5.269   1.331
  477TIP3    H122990   6.799   5.266   1.424
  477TIP3    H222991   0.068   5.314   1.328
  478TIP3   OH222992   6.233   6.452   6.542
  478TIP3    H122993   6.322   6.473   6.571
  478TIP3    H222994   6.179   6.522   6.579
  479TIP3   OH222995   6.516   4.381   7.902
  479TIP3    H122996   6.467   4.463   7.908
  479TIP3    H222997   6.508   4.354   7.811
  480TIP3   OH222998   2.136   0.254   1.717
  480TIP3    H122999   2.114   0.235   1.808
  480TIP3    H223000   2.054   0.241   1.669
  481TIP3   OH223001   6.335   3.400   8.494
  481TIP3    H123002   6.293   3.364   8.572
  481TIP3    H223003   6.424   3.364   8.497
  482TIP3   OH223004   4.650   1.355   1.854
  482TIP3    H123005   4.674   1.370   1.762
  482TIP3    H223006   4.557   1.377   1.858
  483TIP3   OH223007   3.257   6.735   6.745
  483TIP3    H123008   3.228   6.815   6.700
  483TIP3    H223009   3.272   6.672   6.674
  484TIP3   OH223010   6.622   5.560   1.147
  484TIP3    H123011   6.534   5.528   1.127
  484TIP3    H223012   6.635   5.633   1.086
  485TIP3   OH223013   0.922   3.308   6.245
  485TIP3    H123014   1.004   3.348   6.217
  485TIP3    H223015   0.929   3.303   6.340
  486TIP3   OH223016   2.066   0.434   6.995
  486TIP3    H123017   2.114   0.469   6.920
  486TIP3    H223018   2.038   0.346   6.968
  487TIP3   OH223019   4.463   1.171   0.771
  487TIP3    H123020   4.533   1.107   0.786
  487TIP3    H223021   4.382   1.121   0.784
  488TIP3   OH223022   2.935   1.523   7.070
  488TIP3    H123023   2.911   1.484   6.986
  488TIP3    H223024   3.019   1.483   7.092
  489TIP3   OH223025   0.746   2.506   0.396
  489TIP3    H123026   0.769   2.514   0.303
  489TIP3    H223027   0.811   2.446   0.431
  490TIP3   OH223028   4.913   0.544   8.138
  490TIP3    H123029   4.997   0.500   8.128
  490TIP3    H223030   4.925   0.629   8.096
  491TIP3   OH223031   3.346   5.916   0.900
  491TIP3    H123032   3.293   5.836   0.893
  491TIP3    H223033   3.295   5.982   0.852
  492TIP3   OH223034   6.273   2.228   7.530
  492TIP3    H123035   6.310   2.141   7.513
  492TIP3    H223036   6.282   2.275   7.447
  493TIP3   OH223037   4.025   3.660   1.889
  493TIP3    H123038   4.097   3.721   1.904
  493TIP3    H223039   4.036   3.630   1.799
  494TIP3   OH223040   0.178   2.500   0.417
  494TIP3    H123041   0.265   2.504   0.379
  494TIP3    H223042   0.180   2.562   0.490
  495TIP3   OH223043   1.486   4.644   6.937
  495TIP3    H123044   1.530   4.559   6.928
  495TIP3    H223045   1.504   4.670   7.027
  496TIP3   OH223046   3.244   3.437   7.640
  496TIP3    H123047   3.329   3.467   7.671
  496TIP3    H223048   3.259   3.417   7.547
  497TIP3   OH223049   3.731   1.469   7.858
  497TIP3    H123050   3.752   1.561   7.844
  497TIP3    H223051   3.792   1.422   7.801
  498TIP3   OH223052   4.488   1.208   0.070
  498TIP3    H123053   4.411   1.243   0.115
  498TIP3    H223054   4.493   1.117   0.098
  499TIP3   OH223055   1.929   2.062   0.140
  499TIP3    H123056   2.004   2.043   0.197
  499TIP3    H223057   1.895   2.145   0.171
  500TIP3   OH223058   6.519   2.336   7.709
  500TIP3    H123059   6.471   2.383   7.640
  500TIP3    H223060   6.603   2.315   7.668
  501TIP3   OH223061   2.680   1.211   0.195
  501TIP3    H123062   2.643   1.249   0.115
  501TIP3    H223063   2.757   1.163   0.166
  502TIP3   OH223064   1.174   1.566   2.061
  502TIP3    H123065   1.190   1.619   1.982
  502TIP3    H223066   1.261   1.543   2.092
  503TIP3   OH223067   2.254   1.348   7.149
  503TIP3    H123068   2.267   1.364   7.056
  503TIP3    H223069   2.225   1.432   7.184
  504TIP3   OH223070   4.823   3.123   6.076
  504TIP3    H123071   4.860   3.123   5.988
  504TIP3    H223072   4.894   3.158   6.131
  505TIP3   OH223073   2.921   6.777   8.727
  505TIP3    H123074   2.889   6.831   8.654
  505TIP3    H223075   2.996   6.826   8.761
  506TIP3   OH223076   2.650   5.393   0.563
  506TIP3    H123077   2.633   5.484   0.587
  506TIP3    H223078   2.707   5.361   0.633
  507TIP3   OH223079   5.734   1.642   8.398
  507TIP3    H123080   5.732   1.621   8.305
  507TIP3    H223081   5.822   1.620   8.426
  508TIP3   OH223082   1.990   5.298   6.641
  508TIP3    H123083   1.991   5.356   6.717
  508TIP3    H223084   1.970   5.212   6.678
  509TIP3   OH223085   5.476   0.049   7.304
  509TIP3    H123086   5.557   0.000   7.315
  509TIP3    H223087   5.417   6.827   7.260
  510TIP3   OH223088   3.390   2.410   0.574
  510TIP3    H123089   3.379   2.474   0.645
  510TIP3    H223090   3.420   2.463   0.499
  511TIP3   OH223091   6.124   3.193   6.975
  511TIP3    H123092   6.170   3.231   7.050
  511TIP3    H223093   6.043   3.157   7.013
  512TIP3   OH223094   0.663   1.367   8.392
  512TIP3    H123095   0.663   1.295   8.456
  512TIP3    H223096   0.694   1.327   8.311
  513TIP3   OH223097   1.272   1.865   7.994
  513TIP3    H123098   1.229   1.895   7.914
  513TIP3    H223099   1.255   1.935   8.057
  514TIP3   OH223100   0.107   2.560   2.361
  514TIP3    H123101   0.118   2.591   2.451
  514TIP3    H223102   0.110   2.639   2.307
  515TIP3   OH223103   5.355   5.330   1.255
  515TIP3    H123104   5.386   5.419   1.239
  515TIP3    H223105   5.432   5.283   1.288
  516TIP3   OH223106   2.854   6.529   8.111
  516TIP3    H123107   2.896   6.572   8.037
  516TIP3    H223108   2.822   6.601   8.166
  517TIP3   OH223109   1.705   3.889   0.202
  517TIP3    H123110   1.734   3.978   0.221
  517TIP3    H223111   1.610   3.895   0.194
  518TIP3   OH223112   5.990   2.944   7.719
  518TIP3    H123113   5.968   2.864   7.766
  518TIP3    H223114   5.989   3.012   7.786
  519TIP3   OH223115   5.514   6.659   0.896
  519TIP3    H123116   5.550   6.599   0.962
  519TIP3    H223117   5.438   6.612   0.860
  520TIP3   OH223118   2.767   2.427   1.101
  520TIP3    H123119   2.848   2.396   1.142
  520TIP3    H223120   2.707   2.353   1.108
  521TIP3   OH223121   0.146   6.309   7.336
  521TIP3    H123122   0.106   6.378   7.283
  521TIP3    H223123   0.078   6.243   7.346
  522TIP3   OH223124   4.249   4.935   0.435
  522TIP3    H123125   4.294   4.855   0.407
  522TIP3    H223126   4.244   4.928   0.530
  523TIP3   OH223127   5.957   5.460   6.294
  523TIP3    H123128   6.002   5.402   6.355
  523TIP3    H223129   5.870   5.422   6.285
  524TIP3   OH223130   6.697   2.786   0.677
  524TIP3    H123131   6.743   2.753   0.754
  524TIP3    H223132   6.767   2.820   0.621
  525TIP3   OH223133   3.229   6.030   1.343
  525TIP3    H123134   3.264   6.040   1.432
  525TIP3    H223135   3.276   5.956   1.306
  526TIP3   OH223136   3.296   4.000   0.241
  526TIP3    H123137   3.279   3.914   0.279
  526TIP3    H223138   3.209   4.030   0.212
  527TIP3   OH223139   2.229   5.159   1.332
  527TIP3    H123140   2.233   5.087   1.395
  527TIP3    H223141   2.278   5.127   1.256
  528TIP3   OH223142   0.840   2.553   7.903
  528TIP3    H123143   0.806   2.480   7.850
  528TIP3    H223144   0.866   2.619   7.839
  529TIP3   OH223145   5.847   0.435   8.680
  529TIP3    H123146   5.782   0.501   8.704
  529TIP3    H223147   5.930   0.472   8.709
  530TIP3   OH223148   5.825   3.177   2.467
  530TIP3    H123149   5.740   3.135   2.478
  530TIP3    H223150   5.888   3.105   2.468
  531TIP3   OH223151   1.686   2.392   0.678
  531TIP3    H123152   1.732   2.308   0.687
  531TIP3    H223153   1.614   2.373   0.617
  532TIP3   OH223154   5.220   0.191   0.459
  532TIP3    H123155   5.150   0.190   0.524
  532TIP3    H223156   5.175   0.181   0.375
  533TIP3   OH223157   4.220   3.177   6.672
  533TIP3    H123158   4.287   3.172   6.603
  533TIP3    H223159   4.142   3.138   6.633
  534TIP3   OH223160   3.163   1.055   8.738
  534TIP3    H123161   3.198   1.142   8.755
  534TIP3    H223162   3.240   1.001   8.720
  535TIP3   OH223163   6.512   6.676   7.977
  535TIP3    H123164   6.505   6.666   8.072
  535TIP3    H223165   6.533   6.768   7.964
  536TIP3   OH223166   5.091   2.540   2.271
  536TIP3    H123167   5.042   2.585   2.340
  536TIP3    H223168   5.179   2.577   2.277
  537TIP3   OH223169   3.575   4.589   7.655
  537TIP3    H123170   3.635   4.614   7.725
  537TIP3    H223171   3.515   4.663   7.646
  538TIP3   OH223172   0.777   4.236   8.651
  538TIP3    H123173   0.690   4.202   8.674
  538TIP3    H223174   0.793   4.203   8.562
  539TIP3   OH223175   0.713   1.016   1.233
  539TIP3    H123176   0.620   1.018   1.255
  539TIP3    H223177   0.733   1.105   1.202
  540TIP3   OH223178   3.881   1.987   7.364
  540TIP3    H123179   3.880   1.976   7.459
  540TIP3    H223180   3.940   2.061   7.349
  541TIP3   OH223181   0.447   1.152   1.043
  541TIP3    H123182   0.494   1.234   1.028
  541TIP3    H223183   0.366   1.162   0.993
  542TIP3   OH223184   5.444   0.389   7.632
  542TIP3    H123185   5.489   0.449   7.573
  542TIP3    H223186   5.402   0.325   7.575
  543TIP3   OH223187   5.740   2.822   0.058
  543TIP3    H123188   5.677   2.801   8.772
  543TIP3    H223189   5.803   2.880   0.015
  544TIP3   OH223190   5.274   6.282   2.378
  544TIP3    H123191   5.187   6.312   2.350
  544TIP3    H223192   5.317   6.361   2.410
  545TIP3   OH223193   1.908   3.717   6.391
  545TIP3    H123194   1.886   3.810   6.404
  545TIP3    H223195   2.003   3.714   6.396
  546TIP3   OH223196   3.111   0.971   0.734
  546TIP3    H123197   3.182   1.003   0.678
  546TIP3    H223198   3.095   0.882   0.702
  547TIP3   OH223199   5.329   6.448   1.259
  547TIP3    H123200   5.405   6.394   1.236
  547TIP3    H223201   5.353   6.490   1.341
  548TIP3   OH223202   5.047   0.139   8.039
  548TIP3    H123203   5.132   0.156   7.998
  548TIP3    H223204   5.060   0.159   8.131
  549TIP3   OH223205   6.825   2.423   7.909
  549TIP3    H123206   6.795   2.332   7.907
  549TIP3    H223207   6.747   2.474   7.929
  550TIP3   OH223208   0.170   3.147   7.023
  550TIP3    H123209   0.237   3.080   7.007
  550TIP3    H223210   0.122   3.114   7.100
  551TIP3   OH223211   1.268   2.891   1.884
  551TIP3    H123212   1.242   2.808   1.924
  551TIP3    H223213   1.297   2.945   1.957
  552TIP3   OH223214   0.778   4.649   8.578
  552TIP3    H123215   0.830   4.577   8.613
  552TIP3    H223216   0.834   4.726   8.588
  553TIP3   OH223217   4.548   4.974   0.326
  553TIP3    H123218   4.546   4.928   0.410
  553TIP3    H223219   4.497   5.054   0.341
  554TIP3   OH223220   0.134   3.846   7.701
  554TIP3    H123221   0.130   3.856   7.606
  554TIP3    H223222   0.180   3.924   7.731
  555TIP3   OH223223   1.498   4.786   7.840
  555TIP3    H123224   1.566   4.741   7.790
  555TIP3    H223225   1.451   4.838   7.774
  556TIP3   OH223226   6.170   0.845   8.410
  556TIP3    H123227   6.117   0.925   8.404
  556TIP3    H223228   6.119   0.779   8.362
  557TIP3   OH223229   0.705   0.274   1.069
  557TIP3    H123230   0.799   0.267   1.056
  557TIP3    H223231   0.667   0.229   0.993
  558TIP3   OH223232   1.008   0.575   1.640
  558TIP3    H123233   0.988   0.655   1.590
  558TIP3    H223234   1.070   0.604   1.707
  559TIP3   OH223235   2.853   3.093   0.964
  559TIP3    H123236   2.800   3.060   1.036
  559TIP3    H223237   2.932   3.127   1.006
  560TIP3   OH223238   0.632   4.856   7.951
  560TIP3    H123239   0.650   4.798   8.025
  560TIP3    H223240   0.616   4.942   7.990
  561TIP3   OH223241   1.630   2.203   7.047
  561TIP3    H123242   1.694   2.219   6.977
  561TIP3    H223243   1.637   2.110   7.065
  562TIP3   OH223244   1.813   3.587   1.296
  562TIP3    H123245   1.828   3.517   1.233
  562TIP3    H223246   1.718   3.599   1.298
  563TIP3   OH223247   6.744   4.993   2.373
  563TIP3    H123248   6.653   4.967   2.390
  563TIP3    H223249   6.791   4.911   2.359
  564TIP3   OH223250   2.958   3.657   7.130
  564TIP3    H123251   3.022   3.728   7.124
  564TIP3    H223252   2.876   3.696   7.100
  565TIP3   OH223253   0.201   1.512   8.408
  565TIP3    H123254   0.205   1.428   8.362
  565TIP3    H223255   0.223   1.577   8.341
  566TIP3   OH223256   0.960   6.431   7.682
  566TIP3    H123257   0.895   6.412   7.749
  566TIP3    H223258   1.000   6.346   7.662
  567TIP3   OH223259   4.790   5.675   0.815
  567TIP3    H123260   4.817   5.674   0.724
  567TIP3    H223261   4.701   5.711   0.814
  568TIP3   OH223262   4.238   4.910   7.653
  568TIP3    H123263   4.190   4.838   7.611
  568TIP3    H223264   4.236   4.889   7.746
  569TIP3   OH223265   2.855   5.042   7.529
  569TIP3    H123266   2.829   5.133   7.545
  569TIP3    H223267   2.781   4.990   7.559
  570TIP3   OH223268   3.835   1.014   1.993
  570TIP3    H123269   3.874   1.101   1.996
  570TIP3    H223270   3.908   0.955   2.016
  571TIP3   OH223271   5.500   6.828   7.633
  571TIP3    H123272   5.408   6.829   7.608
  571TIP3    H223273   5.521   6.734   7.640
  572TIP3   OH223274   6.206   4.148   7.599
  572TIP3    H123275   6.225   4.065   7.644
  572TIP3    H223276   6.197   4.123   7.507
  573TIP3   OH223277   1.076   5.385   7.986
  573TIP3    H123278   0.998   5.350   7.943
  573TIP3    H223279   1.139   5.312   7.986
  574TIP3   OH223280   5.635   4.879   8.629
  574TIP3    H123281   5.587   4.957   8.602
  574TIP3    H223282   5.570   4.808   8.624
  575TIP3   OH223283   0.927   6.548   6.617
  575TIP3    H123284   0.875   6.570   6.694
  575TIP3    H223285   0.886   6.469   6.582
  576TIP3   OH223286   1.057   4.752   0.004
  576TIP3    H123287   1.005   4.813   8.734
  576TIP3    H223288   1.062   4.673   8.733
  577TIP3   OH223289   2.088   2.063   8.401
  577TIP3    H123290   2.009   2.112   8.379
  577TIP3    H223291   2.083   2.049   8.495
  578TIP3   OH223292   2.147   2.773   7.367
  578TIP3    H123293   2.179   2.854   7.328
  578TIP3    H223294   2.210   2.707   7.339
  579TIP3   OH223295   2.480   1.179   1.487
  579TIP3    H123296   2.566   1.170   1.445
  579TIP3    H223297   2.468   1.096   1.533
  580TIP3   OH223298   4.769   4.017   1.518
  580TIP3    H123299   4.725   3.944   1.476
  580TIP3    H223300   4.857   3.985   1.536
  581TIP3   OH223301   6.197   4.931   0.112
  581TIP3    H123302   6.226   4.844   0.084
  581TIP3    H223303   6.268   4.989   0.085
  582TIP3   OH223304   4.543   0.093   7.351
  582TIP3    H123305   4.467   0.133   7.393
  582TIP3    H223306   4.519   0.000   7.343
  583TIP3   OH223307   1.926   4.630   2.840
  583TIP3    H123308   1.931   4.569   2.766
  583TIP3    H223309   1.833   4.641   2.856
  584TIP3   OH223310   0.031   1.802   2.059
  584TIP3    H123311   6.791   1.854   2.040
  584TIP3    H223312   0.085   1.809   1.980
  585TIP3   OH223313   3.844   3.568   0.866
  585TIP3    H123314   3.813   3.493   0.816
  585TIP3    H223315   3.772   3.631   0.863
  586TIP3   OH223316   0.547   4.140   0.866
  586TIP3    H123317   0.641   4.135   0.884
  586TIP3    H223318   0.522   4.228   0.895
  587TIP3   OH223319   5.242   5.826   2.607
  587TIP3    H123320   5.257   5.900   2.549
  587TIP3    H223321   5.164   5.783   2.572
  588TIP3   OH223322   5.850   1.971   1.444
  588TIP3    H123323   5.796   2.046   1.469
  588TIP3    H223324   5.896   1.947   1.525
  589TIP3   OH223325   2.726   4.449   1.548
  589TIP3    H123326   2.769   4.423   1.630
  589TIP3    H223327   2.634   4.461   1.572
  590TIP3   OH223328   3.951   4.024   0.870
  590TIP3    H123329   3.884   4.019   0.938
  590TIP3    H223330   3.929   4.102   0.819
  591TIP3   OH223331   1.030   2.986   2.248
  591TIP3    H123332   1.093   2.917   2.227
  591TIP3    H223333   1.083   3.053   2.291
  592TIP3   OH223334   3.883   5.059   0.381
  592TIP3    H123335   3.920   5.090   0.464
  592TIP3    H223336   3.941   5.095   0.315
  593TIP3   OH223337   3.343   5.578   7.233
  593TIP3    H123338   3.370   5.638   7.302
  593TIP3    H223339   3.422   5.530   7.209
  594TIP3   OH223340   3.162   3.310   2.427
  594TIP3    H123341   3.195   3.383   2.374
  594TIP3    H223342   3.067   3.315   2.418
  595TIP3   OH223343   5.020   6.066   6.296
  595TIP3    H123344   5.064   6.009   6.359
  595TIP3    H223345   4.927   6.052   6.311
  596TIP3   OH223346   0.304   0.309   1.078
  596TIP3    H123347   0.219   0.272   1.055
  596TIP3    H223348   0.283   0.392   1.120
  597TIP3   OH223349   5.524   1.937   8.331
  597TIP3    H123350   5.497   1.865   8.387
  597TIP3    H223351   5.525   1.899   8.243
  598TIP3   OH223352   6.656   5.247   1.855
  598TIP3    H123353   6.751   5.258   1.856
  598TIP3    H223354   6.640   5.173   1.914
  599TIP3   OH223355   5.512   3.051   0.065
  599TIP3    H123356   5.420   3.066   0.084
  599TIP3    H223357   5.528   2.960   0.091
  600TIP3   OH223358   0.454   2.441   0.260
  600TIP3    H123359   0.463   2.348   0.277
  600TIP3    H223360   0.520   2.460   0.193
  601TIP3   OH223361   6.005   6.553   6.156
  601TIP3    H123362   5.926   6.504   6.131
  601TIP3    H223363   5.998   6.635   6.108
  602TIP3   OH223364   0.053   5.391   0.150
  602TIP3    H123365   0.084   5.425   0.234
  602TIP3    H223366   0.116   5.423   0.086
  603TIP3   OH223367   5.374   0.135   6.929
  603TIP3    H123368   5.384   0.200   6.998
  603TIP3    H223369   5.316   0.175   6.865
  604TIP3   OH223370   1.406   0.861   1.886
  604TIP3    H123371   1.439   0.870   1.975
  604TIP3    H223372   1.339   0.929   1.878
  605TIP3   OH223373   4.333   1.513   7.839
  605TIP3    H123374   4.252   1.465   7.826
  605TIP3    H223375   4.399   1.446   7.856
  606TIP3   OH223376   3.663   0.354   7.277
  606TIP3    H123377   3.706   0.269   7.265
  606TIP3    H223378   3.597   0.357   7.208
  607TIP3   OH223379   4.909   0.047   1.028
  607TIP3    H123380   4.950   6.819   1.082
  607TIP3    H223381   4.874   0.111   1.090
  608TIP3   OH223382   3.174   1.471   2.007
  608TIP3    H123383   3.158   1.471   2.101
  608TIP3    H223384   3.198   1.562   1.986
  609TIP3   OH223385   2.375   2.166   6.915
  609TIP3    H123386   2.429   2.098   6.875
  609TIP3    H223387   2.382   2.149   7.009
  610TIP3   OH223388   2.733   5.605   7.446
  610TIP3    H123389   2.721   5.551   7.523
  610TIP3    H223390   2.792   5.675   7.474
  611TIP3   OH223391   0.178   1.410   6.893
  611TIP3    H123392   0.229   1.337   6.928
  611TIP3    H223393   0.108   1.369   6.843
  612TIP3   OH223394   6.329   1.740   6.660
  612TIP3    H123395   6.268   1.700   6.597
  612TIP3    H223396   6.340   1.674   6.728
  613TIP3   OH223397   6.389   3.823   6.713
  613TIP3    H123398   6.427   3.884   6.650
  613TIP3    H223399   6.319   3.779   6.665
  614TIP3   OH223400   0.318   5.326   0.369
  614TIP3    H123401   0.396   5.311   0.316
  614TIP3    H223402   0.255   5.260   0.340
  615TIP3   OH223403   0.368   3.504   8.164
  615TIP3    H123404   0.391   3.581   8.112
  615TIP3    H223405   0.277   3.487   8.142
  616TIP3   OH223406   0.477   4.522   1.607
  616TIP3    H123407   0.462   4.485   1.520
  616TIP3    H223408   0.420   4.472   1.665
  617TIP3   OH223409   3.451   6.447   7.764
  617TIP3    H123410   3.521   6.422   7.704
  617TIP3    H223411   3.392   6.501   7.712
  618TIP3   OH223412   4.223   6.715   8.307
  618TIP3    H123413   4.241   6.805   8.281
  618TIP3    H223414   4.257   6.708   8.396
  619TIP3   OH223415   5.814   3.466   0.552
  619TIP3    H123416   5.740   3.445   0.495
  619TIP3    H223417   5.804   3.407   0.626
  620TIP3   OH223418   2.451   5.729   7.277
  620TIP3    H123419   2.523   5.695   7.224
  620TIP3    H223420   2.480   5.714   7.367
  621TIP3   OH223421   6.154   2.535   2.415
  621TIP3    H123422   6.178   2.583   2.336
  621TIP3    H223423   6.186   2.590   2.487
  622TIP3   OH223424   3.304   4.359   8.585
  622TIP3    H123425   3.293   4.338   8.678
  622TIP3    H223426   3.225   4.324   8.543
  623TIP3   OH223427   5.536   0.257   1.018
  623TIP3    H123428   5.588   0.324   0.974
  623TIP3    H223429   5.446   0.285   1.006
  624TIP3   OH223430   4.683   6.614   1.174
  624TIP3    H123431   4.724   6.605   1.260
  624TIP3    H223432   4.628   6.693   1.182
  625TIP3   OH223433   3.446   6.095   7.956
  625TIP3    H123434   3.485   6.031   8.017
  625TIP3    H223435   3.383   6.144   8.009
  626TIP3   OH223436   5.629   2.094   1.801
  626TIP3    H123437   5.666   2.012   1.834
  626TIP3    H223438   5.604   2.143   1.879
  627TIP3   OH223439   6.829   5.731   7.069
  627TIP3    H123440   0.078   5.693   7.080
  627TIP3    H223441   6.779   5.662   7.025
  628TIP3   OH223442   2.727   0.062   7.052
  628TIP3    H123443   2.695   0.092   6.967
  628TIP3    H223444   2.714   0.137   7.110
  629TIP3   OH223445   6.481   2.869   0.839
  629TIP3    H123446   6.411   2.804   0.838
  629TIP3    H223447   6.561   2.820   0.818
  630TIP3   OH223448   4.649   3.835   8.689
  630TIP3    H123449   4.556   3.817   8.705
  630TIP3    H223450   4.658   3.829   8.593
  631TIP3   OH223451   2.060   1.904   7.186
  631TIP3    H123452   2.024   1.926   7.273
  631TIP3    H223453   2.147   1.871   7.204
  632TIP3   OH223454   4.898   0.469   6.879
  632TIP3    H123455   4.973   0.435   6.830
  632TIP3    H223456   4.884   0.557   6.844
  633TIP3   OH223457   2.523   2.486   7.763
  633TIP3    H123458   2.582   2.510   7.691
  633TIP3    H223459   2.500   2.570   7.804
  634TIP3   OH223460   4.133   4.043   6.338
  634TIP3    H123461   4.132   4.138   6.332
  634TIP3    H223462   4.041   4.018   6.346
  635TIP3   OH223463   4.025   4.033   6.986
  635TIP3    H123464   4.039   3.950   7.031
  635TIP3    H223465   3.939   4.063   7.016
  636TIP3   OH223466   6.833   2.687   1.769
  636TIP3    H123467   0.049   2.653   1.839
  636TIP3    H223468   6.755   2.720   1.813
  637TIP3   OH223469   2.082   1.888   1.886
  637TIP3    H123470   2.027   1.824   1.930
  637TIP3    H223471   2.171   1.869   1.916
  638TIP3   OH223472   0.917   3.286   0.525
  638TIP3    H123473   0.875   3.363   0.564
  638TIP3    H223474   0.844   3.228   0.503
  639TIP3   OH223475   3.314   2.391   1.276
  639TIP3    H123476   3.402   2.380   1.311
  639TIP3    H223477   3.277   2.302   1.277
  640TIP3   OH223478   3.370   6.667   8.639
  640TIP3    H123479   3.404   6.707   8.718
  640TIP3    H223480   3.439   6.677   8.574
  641TIP3   OH223481   6.043   2.807   1.076
  641TIP3    H123482   5.952   2.819   1.050
  641TIP3    H223483   6.080   2.896   1.073
  642TIP3   OH223484   2.169   1.922   7.918
  642TIP3    H123485   2.209   1.835   7.915
  642TIP3    H223486   2.222   1.974   7.858
  643TIP3   OH223487   0.320   3.873   7.997
  643TIP3    H123488   0.406   3.900   8.032
  643TIP3    H223489   0.290   3.950   7.948
  644TIP3   OH223490   0.450   4.367   8.041
  644TIP3    H123491   0.514   4.311   8.084
  644TIP3    H223492   0.402   4.408   8.113
  645TIP3   OH223493   3.538   1.022   0.967
  645TIP3    H123494   3.533   1.117   0.976
  645TIP3    H223495   3.542   0.989   1.057
  646TIP3   OH223496   3.412   4.639   0.912
  646TIP3    H123497   3.442   4.626   0.821
  646TIP3    H223498   3.492   4.634   0.964
  647TIP3   OH223499   1.992   0.330   1.005
  647TIP3    H123500   2.018   0.377   0.926
  647TIP3    H223501   1.928   0.387   1.048
  648TIP3   OH223502   3.837   2.325   7.094
  648TIP3    H123503   3.832   2.394   7.161
  648TIP3    H223504   3.890   2.364   7.024
  649TIP3   OH223505   0.156   3.174   2.084
  649TIP3    H123506   0.151   3.144   2.175
  649TIP3    H223507   0.104   3.109   2.036
  650TIP3   OH223508   4.351   1.878   0.017
  650TIP3    H123509   4.292   1.862   0.090
  650TIP3    H223510   4.400   1.956   0.042
  651TIP3   OH223511   0.477   5.365   1.025
  651TIP3    H123512   0.391   5.407   1.031
  651TIP3    H223513   0.510   5.363   1.114
  652TIP3   OH223514   2.797   2.783   0.602
  652TIP3    H123515   2.739   2.858   0.589
  652TIP3    H223516   2.794   2.736   0.519
  653TIP3   OH223517   0.314   4.397   0.919
  653TIP3    H123518   0.326   4.391   0.825
  653TIP3    H223519   0.292   4.308   0.946
  654TIP3   OH223520   2.717   1.413   2.027
  654TIP3    H123521   2.772   1.490   2.039
  654TIP3    H223522   2.753   1.348   2.087
  655TIP3   OH223523   2.656   4.788   2.473
  655TIP3    H123524   2.664   4.812   2.381
  655TIP3    H223525   2.743   4.805   2.510
  656TIP3   OH223526   5.913   2.252   8.052
  656TIP3    H123527   5.992   2.236   8.103
  656TIP3    H223528   5.926   2.204   7.971
  657TIP3   OH223529   2.532   5.813   0.319
  657TIP3    H123530   2.461   5.802   0.383
  657TIP3    H223531   2.605   5.763   0.355
  658TIP3   OH223532   5.339   0.206   1.402
  658TIP3    H123533   5.322   0.130   1.346
  658TIP3    H223534   5.420   0.244   1.367
  659TIP3   OH223535   2.982   4.001   2.017
  659TIP3    H123536   3.042   4.050   2.073
  659TIP3    H223537   3.033   3.928   1.983
  660TIP3   OH223538   6.102   2.890   7.472
  660TIP3    H123539   6.082   2.908   7.564
  660TIP3    H223540   6.193   2.917   7.462
  661TIP3   OH223541   6.436   5.895   0.028
  661TIP3    H123542   6.423   5.985   8.779
  661TIP3    H223543   6.531   5.888   0.040
  662TIP3   OH223544   5.027   0.622   7.097
  662TIP3    H123545   5.051   0.530   7.093
  662TIP3    H223546   4.934   0.622   7.119
  663TIP3   OH223547   3.117   1.350   0.510
  663TIP3    H123548   3.148   1.287   0.446
  663TIP3    H223549   3.039   1.388   0.470
  664TIP3   OH223550   6.026   3.110   2.780
  664TIP3    H123551   5.999   3.089   2.691
  664TIP3    H223552   5.957   3.072   2.836
  665TIP3   OH223553   2.227   5.722   0.717
  665TIP3    H123554   2.185   5.637   0.705
  665TIP3    H223555   2.188   5.777   0.649
  666TIP3   OH223556   5.130   0.363   7.017
  666TIP3    H123557   5.046   0.326   7.045
  666TIP3    H223558   5.144   0.327   6.930
  667TIP3   OH223559   0.492   3.290   7.770
  667TIP3    H123560   0.530   3.202   7.769
  667TIP3    H223561   0.415   3.282   7.826
  668TIP3   OH223562   2.888   4.962   7.876
  668TIP3    H123563   2.812   4.916   7.841
  668TIP3    H223564   2.916   4.909   7.950
  669TIP3   OH223565   6.392   3.684   8.227
  669TIP3    H123566   6.462   3.690   8.163
  669TIP3    H223567   6.327   3.748   8.198
  670TIP3   OH223568   1.592   1.748   0.933
  670TIP3    H123569   1.615   1.687   0.863
  670TIP3    H223570   1.543   1.695   0.996
  671TIP3   OH223571   2.374   2.656   0.677
  671TIP3    H123572   2.302   2.626   0.732
  671TIP3    H223573   2.435   2.581   0.676
  672TIP3   OH223574   6.817   6.422   8.035
  672TIP3    H123575   6.769   6.341   8.047
  672TIP3    H223576   0.029   6.409   7.955
  673TIP3   OH223577   5.805   2.443   1.645
  673TIP3    H123578   5.865   2.439   1.570
  673TIP3    H223579   5.849   2.500   1.708
  674TIP3   OH223580   6.229   6.147   8.431
  674TIP3    H123581   6.216   6.220   8.371
  674TIP3    H223582   6.206   6.182   8.517
  675TIP3   OH223583   6.150   0.721   1.803
  675TIP3    H123584   6.105   0.765   1.732
  675TIP3    H223585   6.080   0.686   1.858
  676TIP3   OH223586   1.019   5.447   7.378
  676TIP3    H123587   0.973   5.391   7.315
  676TIP3    H223588   1.107   5.411   7.382
  677TIP3   OH223589   4.407   6.267   6.326
  677TIP3    H123590   4.333   6.327   6.323
  677TIP3    H223591   4.377   6.189   6.279
  678TIP3   OH223592   6.030   3.015   1.785
  678TIP3    H123593   6.010   2.970   1.703
  678TIP3    H223594   6.055   3.103   1.759
  679TIP3   OH223595   1.136   4.980   1.303
  679TIP3    H123596   1.051   4.951   1.338
  679TIP3    H223597   1.150   5.066   1.342
  680TIP3   OH223598   4.636   0.746   1.680
  680TIP3    H123599   4.616   0.704   1.763
  680TIP3    H223600   4.575   0.820   1.676
  681TIP3   OH223601   1.796   2.674   7.306
  681TIP3    H123602   1.809   2.727   7.385
  681TIP3    H223603   1.848   2.719   7.239
  682TIP3   OH223604   4.933   2.856   7.021
  682TIP3    H123605   4.945   2.831   7.112
  682TIP3    H223606   4.870   2.793   6.987
  683TIP3   OH223607   4.871   4.035   1.172
  683TIP3    H123608   4.829   3.950   1.176
  683TIP3    H223609   4.833   4.077   1.094
  684TIP3   OH223610   4.680   0.045   0.879
  684TIP3    H123611   4.767   0.021   0.911
  684TIP3    H223612   4.647   0.108   0.943
  685TIP3   OH223613   4.186   4.457   0.094
  685TIP3    H123614   4.269   4.420   0.125
  685TIP3    H223615   4.142   4.486   0.174
  686TIP3   OH223616   2.273   3.671   1.037
  686TIP3    H123617   2.226   3.680   1.120
  686TIP3    H223618   2.229   3.598   0.992
  687TIP3   OH223619   1.813   1.536   0.439
  687TIP3    H123620   1.870   1.475   0.487
  687TIP3    H223621   1.839   1.622   0.471
  688TIP3   OH223622   2.356   5.927   1.288
  688TIP3    H123623   2.409   5.973   1.224
  688TIP3    H223624   2.408   5.930   1.369
  689TIP3   OH223625   1.702   6.509   7.918
  689TIP3    H123626   1.769   6.560   7.873
  689TIP3    H223627   1.674   6.444   7.854
  690TIP3   OH223628   3.168   4.498   7.076
  690TIP3    H123629   3.218   4.418   7.094
  690TIP3    H223630   3.188   4.519   6.985
  691TIP3   OH223631   3.939   5.941   0.175
  691TIP3    H123632   3.967   5.938   0.083
  691TIP3    H223633   3.991   6.011   0.214
  692TIP3   OH223634   5.173   4.187   0.165
  692TIP3    H123635   5.134   4.158   0.248
  692TIP3    H223636   5.250   4.238   0.191
  693TIP3   OH223637   4.048   5.133   0.620
  693TIP3    H123638   4.054   5.229   0.617
  693TIP3    H223639   3.960   5.116   0.653
  694TIP3   OH223640   5.697   0.516   7.228
  694TIP3    H123641   5.788   0.540   7.241
  694TIP3    H223642   5.669   0.565   7.151
  695TIP3   OH223643   6.715   2.674   8.094
  695TIP3    H123644   6.658   2.750   8.080
  695TIP3    H223645   6.803   2.710   8.085
  696TIP3   OH223646   3.292   3.486   1.769
  696TIP3    H123647   3.373   3.521   1.805
  696TIP3    H223648   3.255   3.432   1.838
  697TIP3   OH223649   5.687   3.981   0.875
  697TIP3    H123650   5.643   4.045   0.931
  697TIP3    H223651   5.637   3.983   0.793
  698TIP3   OH223652   0.378   2.072   6.858
  698TIP3    H123653   0.362   2.160   6.824
  698TIP3    H223654   0.466   2.050   6.826
  699TIP3   OH223655   5.597   4.762   7.858
  699TIP3    H123656   5.623   4.853   7.849
  699TIP3    H223657   5.621   4.739   7.948
  700TIP3   OH223658   4.522   1.750   6.804
  700TIP3    H123659   4.472   1.668   6.808
  700TIP3    H223660   4.465   1.811   6.758
  701TIP3   OH223661   2.619   0.134   0.523
  701TIP3    H123662   2.682   0.078   0.566
  701TIP3    H223663   2.645   0.223   0.547
  702TIP3   OH223664   6.787   3.221   1.150
  702TIP3    H123665   6.822   3.150   1.203
  702TIP3    H223666   6.725   3.178   1.090
  703TIP3   OH223667   2.573   5.710   6.781
  703TIP3    H123668   2.667   5.725   6.789
  703TIP3    H223669   2.563   5.669   6.695
  704TIP3   OH223670   2.267   0.939   1.473
  704TIP3    H123671   2.217   1.017   1.449
  704TIP3    H223672   2.263   0.937   1.569
  705TIP3   OH223673   1.698   5.783   1.743
  705TIP3    H123674   1.704   5.877   1.732
  705TIP3    H223675   1.660   5.771   1.830
  706TIP3   OH223676   4.827   5.570   0.534
  706TIP3    H123677   4.763   5.634   0.503
  706TIP3    H223678   4.886   5.557   0.459
  707TIP3   OH223679   5.336   4.613   7.179
  707TIP3    H123680   5.414   4.576   7.219
  707TIP3    H223681   5.286   4.537   7.149
  708TIP3   OH223682   6.402   3.752   1.596
  708TIP3    H123683   6.425   3.727   1.685
  708TIP3    H223684   6.473   3.810   1.568
  709TIP3   OH223685   4.475   5.171   7.986
  709TIP3    H123686   4.459   5.147   8.077
  709TIP3    H223687   4.418   5.246   7.970
  710TIP3   OH223688   3.483   6.134   6.783
  710TIP3    H123689   3.427   6.175   6.717
  710TIP3    H223690   3.424   6.078   6.833
  711TIP3   OH223691   5.015   3.568   8.417
  711TIP3    H123692   4.932   3.521   8.415
  711TIP3    H223693   5.013   3.617   8.499
  712TIP3   OH223694   5.743   5.526   2.220
  712TIP3    H123695   5.796   5.579   2.279
  712TIP3    H223696   5.661   5.513   2.267
  713TIP3   OH223697   5.513   2.401   7.353
  713TIP3    H123698   5.526   2.431   7.443
  713TIP3    H223699   5.483   2.478   7.306
  714TIP3   OH223700   3.785   4.234   7.064
  714TIP3    H123701   3.737   4.304   7.108
  714TIP3    H223702   3.868   4.274   7.037
  715TIP3   OH223703   2.108   0.986   7.850
  715TIP3    H123704   2.137   1.005   7.760
  715TIP3    H223705   2.074   1.069   7.882
  716TIP3   OH223706   0.530   3.395   1.557
  716TIP3    H123707   0.479   3.377   1.478
  716TIP3    H223708   0.519   3.489   1.573
  717TIP3   OH223709   2.862   0.610   8.031
  717TIP3    H123710   2.911   0.685   8.066
  717TIP3    H223711   2.770   0.631   8.045
  718TIP3   OH223712   6.655   2.098   0.631
  718TIP3    H123713   6.621   2.009   0.645
  718TIP3    H223714   6.606   2.130   0.555
  719TIP3   OH223715   6.347   4.847   2.132
  719TIP3    H123716   6.423   4.809   2.089
  719TIP3    H223717   6.382   4.889   2.211
  720TIP3   OH223718   2.626   0.403   0.062
  720TIP3    H123719   2.642   0.494   0.089
  720TIP3    H223720   2.543   0.380   0.104
  721TIP3   OH223721   3.748   5.234   6.954
  721TIP3    H123722   3.805   5.308   6.936
  721TIP3    H223723   3.759   5.176   6.878
  722TIP3   OH223724   5.587   6.567   0.378
  722TIP3    H123725   5.544   6.482   0.390
  722TIP3    H223726   5.574   6.612   0.461
  723TIP3   OH223727   3.451   3.604   8.497
  723TIP3    H123728   3.373   3.550   8.494
  723TIP3    H223729   3.489   3.588   8.584
  724TIP3   OH223730   3.025   1.892   0.423
  724TIP3    H123731   3.000   1.932   0.340
  724TIP3    H223732   3.007   1.799   0.412
  725TIP3   OH223733   6.275   2.802   1.274
  725TIP3    H123734   6.233   2.717   1.262
  725TIP3    H223735   6.307   2.800   1.365
  726TIP3   OH223736   0.792   2.794   8.244
  726TIP3    H123737   0.881   2.823   8.262
  726TIP3    H223738   0.773   2.729   8.312
  727TIP3   OH223739   2.423   2.293   1.018
  727TIP3    H123740   2.367   2.350   1.070
  727TIP3    H223741   2.394   2.306   0.927
  728TIP3   OH223742   3.493   2.625   8.640
  728TIP3    H123743   3.483   2.645   8.547
  728TIP3    H223744   3.574   2.670   8.665
  729TIP3   OH223745   4.424   2.389   1.713
  729TIP3    H123746   4.494   2.340   1.758
  729TIP3    H223747   4.359   2.405   1.782
  730TIP3   OH223748   3.732   6.397   7.304
  730TIP3    H123749   3.803   6.375   7.365
  730TIP3    H223750   3.701   6.312   7.272
  731TIP3   OH223751   3.509   0.459   1.041
  731TIP3    H123752   3.586   0.409   1.012
  731TIP3    H223753   3.458   0.396   1.092
  732TIP3   OH223754   2.786   4.674   0.403
  732TIP3    H123755   2.783   4.685   0.498
  732TIP3    H223756   2.738   4.750   0.369
  733TIP3   OH223757   4.652   4.044   7.294
  733TIP3    H123758   4.715   4.081   7.355
  733TIP3    H223759   4.700   3.975   7.248
  734TIP3   OH223760   5.852   3.498   6.451
  734TIP3    H123761   5.809   3.582   6.440
  734TIP3    H223762   5.851   3.458   6.364
  735TIP3   OH223763   6.536   3.066   7.627
  735TIP3    H123764   6.549   3.085   7.720
  735TIP3    H223765   6.542   3.151   7.584
  736TIP3   OH223766   6.657   6.208   7.958
  736TIP3    H123767   6.620   6.286   7.917
  736TIP3    H223768   6.673   6.148   7.885
  737TIP3   OH223769   6.211   0.544   7.938
  737TIP3    H123770   6.204   0.510   8.027
  737TIP3    H223771   6.252   0.630   7.949
  738TIP3   OH223772   4.349   3.985   7.221
  738TIP3    H123773   4.429   3.972   7.273
  738TIP3    H223774   4.376   3.966   7.131
  739TIP3   OH223775   1.446   6.565   2.067
  739TIP3    H123776   1.397   6.596   1.991
  739TIP3    H223777   1.531   6.607   2.060
  740TIP3   OH223778   6.044   4.018   8.655
  740TIP3    H123779   5.967   4.072   8.676
  740TIP3    H223780   6.023   3.933   8.693
  741TIP3   OH223781   2.645   3.114   0.115
  741TIP3    H123782   2.686   3.195   0.085
  741TIP3    H223783   2.564   3.107   0.063
  742TIP3   OH223784   3.558   2.816   1.924
  742TIP3    H123785   3.582   2.841   2.013
  742TIP3    H223786   3.521   2.895   1.886
  743TIP3   OH223787   0.886   6.437   0.005
  743TIP3    H123788   0.908   6.350   0.039
  743TIP3    H223789   0.793   6.447   0.025
  744TIP3   OH223790   4.713   6.126   7.963
  744TIP3    H123791   4.798   6.145   8.003
  744TIP3    H223792   4.709   6.030   7.963
  745TIP3   OH223793   1.152   2.403   1.378
  745TIP3    H123794   1.185   2.400   1.468
  745TIP3    H223795   1.140   2.312   1.354
  746TIP3   OH223796   6.392   3.128   6.932
  746TIP3    H123797   6.298   3.123   6.948
  746TIP3    H223798   6.401   3.117   6.837
  747TIP3   OH223799   3.014   1.085   2.136
  747TIP3    H123800   2.928   1.125   2.144
  747TIP3    H223801   3.014   1.014   2.200
  748TIP3   OH223802   1.049   4.952   7.045
  748TIP3    H123803   0.986   5.022   7.026
  748TIP3    H223804   1.135   4.994   7.035
  749TIP3   OH223805   4.520   0.157   6.271
  749TIP3    H123806   4.604   0.118   6.249
  749TIP3    H223807   4.525   0.246   6.237
  750TIP3   OH223808   4.106   0.846   1.096
  750TIP3    H123809   4.180   0.851   1.157
  750TIP3    H223810   4.098   0.936   1.063
  751TIP3   OH223811   3.201   0.434   7.649
  751TIP3    H123812   3.113   0.431   7.687
  751TIP3    H223813   3.228   0.525   7.656
  752TIP3   OH223814   5.746   6.640   7.736
  752TIP3    H123815   5.839   6.647   7.755
  752TIP3    H223816   5.713   6.577   7.800
  753TIP3   OH223817   6.696   1.470   7.562
  753TIP3    H123818   6.614   1.500   7.523
  753TIP3    H223819   6.674   1.384   7.599
  754TIP3   OH223820   0.149   1.457   6.359
  754TIP3    H123821   0.208   1.426   6.291
  754TIP3    H223822   0.068   1.407   6.344
  755TIP3   OH223823   4.052   2.807   8.444
  755TIP3    H123824   4.111   2.859   8.499
  755TIP3    H223825   4.025   2.867   8.375
  756TIP3   OH223826   4.646   1.862   6.472
  756TIP3    H123827   4.660   1.904   6.388
  756TIP3    H223828   4.552   1.870   6.488
  757TIP3   OH223829   2.078   5.464   0.883
  757TIP3    H123830   1.987   5.448   0.856
  757TIP3    H223831   2.073   5.473   0.978
  758TIP3   OH223832   6.463   3.159   1.631
  758TIP3    H123833   6.542   3.213   1.641
  758TIP3    H223834   6.476   3.112   1.549
  759TIP3   OH223835   2.801   0.226   7.971
  759TIP3    H123836   2.831   0.201   8.058
  759TIP3    H223837   2.871   0.197   7.912
  760TIP3   OH223838   4.941   0.563   0.296
  760TIP3    H123839   5.008   0.551   0.228
  760TIP3    H223840   4.991   0.584   0.375
  761TIP3   OH223841   0.660   1.184   7.787
  761TIP3    H123842   0.634   1.271   7.820
  761TIP3    H223843   0.750   1.173   7.816
  762TIP3   OH223844   2.252   4.053   1.469
  762TIP3    H123845   2.277   4.068   1.377
  762TIP3    H223846   2.335   4.045   1.515
  763TIP3   OH223847   0.017   4.332   0.311
  763TIP3    H123848   6.770   4.375   0.311
  763TIP3    H223849   0.075   4.394   0.266
  764TIP3   OH223850   2.858   6.430   8.460
  764TIP3    H123851   2.893   6.458   8.544
  764TIP3    H223852   2.935   6.418   8.404
  765TIP3   OH223853   5.563   2.122   7.560
  765TIP3    H123854   5.617   2.159   7.631
  765TIP3    H223855   5.478   2.165   7.571
  766TIP3   OH223856   1.972   2.118   7.608
  766TIP3    H123857   1.940   2.163   7.686
  766TIP3    H223858   2.046   2.172   7.579
  767TIP3   OH223859   3.597   6.165   1.296
  767TIP3    H123860   3.608   6.228   1.224
  767TIP3    H223861   3.562   6.087   1.254
  768TIP3   OH223862   1.851   5.054   0.974
  768TIP3    H123863   1.874   5.136   0.930
  768TIP3    H223864   1.883   4.985   0.916
  769TIP3   OH223865   5.921   5.246   1.713
  769TIP3    H123866   5.936   5.246   1.808
  769TIP3    H223867   5.947   5.334   1.685
  770TIP3   OH223868   0.088   2.929   0.266
  770TIP3    H123869   0.134   2.909   0.348
  770TIP3    H223870   0.155   2.917   0.198
  771TIP3   OH223871   6.827   0.570   0.567
  771TIP3    H123872   6.742   0.593   0.604
  771TIP3    H223873   6.806   0.525   0.485
  772TIP3   OH223874   1.136   3.550   1.603
  772TIP3    H123875   1.088   3.579   1.681
  772TIP3    H223876   1.222   3.524   1.636
  773TIP3   OH223877   0.687   6.809   7.467
  773TIP3    H123878   0.779   6.783   7.462
  773TIP3    H223879   0.639   6.730   7.443
  774TIP3   OH223880   4.059   3.134   0.898
  774TIP3    H123881   4.038   3.117   0.806
  774TIP3    H223882   4.140   3.185   0.894
  775TIP3   OH223883   5.845   3.987   8.277
  775TIP3    H123884   5.793   3.963   8.200
  775TIP3    H223885   5.867   3.904   8.318
  776TIP3   OH223886   6.123   5.369   0.649
  776TIP3    H123887   6.203   5.374   0.597
  776TIP3    H223888   6.101   5.276   0.649
  777TIP3   OH223889   0.655   2.002   6.336
  777TIP3    H123890   0.654   1.936   6.267
  777TIP3    H223891   0.586   1.974   6.396
  778TIP3   OH223892   5.996   6.691   7.857
  778TIP3    H123893   5.980   6.716   7.948
  778TIP3    H223894   6.074   6.636   7.861
  779TIP3   OH223895   2.609   0.487   6.990
  779TIP3    H123896   2.626   0.420   7.057
  779TIP3    H223897   2.637   0.446   6.908
  780TIP3   OH223898   4.107   5.420   8.708
  780TIP3    H123899   4.023   5.457   8.681
  780TIP3    H223900   4.147   5.391   8.626
  781TIP3   OH223901   4.853   5.401   6.664
  781TIP3    H123902   4.817   5.385   6.577
  781TIP3    H223903   4.859   5.315   6.705
  782TIP3   OH223904   0.206   6.715   7.143
  782TIP3    H123905   0.205   6.804   7.109
  782TIP3    H223906   0.150   6.718   7.220
  783TIP3   OH223907   2.639   5.634   7.125
  783TIP3    H123908   2.720   5.685   7.119
  783TIP3    H223909   2.656   5.556   7.072
  784TIP3   OH223910   5.047   5.801   1.254
  784TIP3    H123911   5.023   5.763   1.338
  784TIP3    H223912   5.042   5.896   1.268
  785TIP3   OH223913   4.321   5.089   8.270
  785TIP3    H123914   4.343   5.149   8.341
  785TIP3    H223915   4.402   5.042   8.252
  786TIP3   OH223916   1.654   6.000   8.583
  786TIP3    H123917   1.571   6.026   8.624
  786TIP3    H223918   1.662   6.056   8.506
  787TIP3   OH223919   4.197   4.188   0.774
  787TIP3    H123920   4.111   4.206   0.736
  787TIP3    H223921   4.198   4.093   0.788
  788TIP3   OH223922   3.479   0.873   0.551
  788TIP3    H123923   3.399   0.916   0.521
  788TIP3    H223924   3.542   0.887   0.480
  789TIP3   OH223925   4.086   6.272   1.201
  789TIP3    H123926   4.173   6.310   1.193
  789TIP3    H223927   4.089   6.222   1.283
  790TIP3   OH223928   2.075   6.437   8.335
  790TIP3    H123929   2.160   6.482   8.334
  790TIP3    H223930   2.011   6.507   8.319
  791TIP3   OH223931   1.695   1.328   0.099
  791TIP3    H123932   1.696   1.355   0.007
  791TIP3    H223933   1.678   1.234   0.097
  792TIP3   OH223934   0.321   5.742   1.410
  792TIP3    H123935   0.265   5.750   1.487
  792TIP3    H223936   0.407   5.719   1.446
  793TIP3   OH223937   2.794   2.558   1.435
  793TIP3    H123938   2.856   2.630   1.447
  793TIP3    H223939   2.843   2.491   1.386
  794TIP3   OH223940   4.092   2.477   1.192
  794TIP3    H123941   4.145   2.441   1.121
  794TIP3    H223942   4.103   2.572   1.184
  795TIP3   OH223943   1.543   2.115   1.716
  795TIP3    H123944   1.545   2.172   1.793
  795TIP3    H223945   1.591   2.037   1.743
  796TIP3   OH223946   4.698   1.768   8.126
  796TIP3    H123947   4.728   1.678   8.135
  796TIP3    H223948   4.670   1.775   8.035
  797TIP3   OH223949   6.130   2.348   2.200
  797TIP3    H123950   6.136   2.256   2.225
  797TIP3    H223951   6.103   2.394   2.280
  798TIP3   OH223952   2.571   4.459   1.810
  798TIP3    H123953   2.548   4.368   1.791
  798TIP3    H223954   2.524   4.479   1.891
  799TIP3   OH223955   4.610   0.834   7.489
  799TIP3    H123956   4.631   0.762   7.549
  799TIP3    H223957   4.626   0.797   7.402
  800TIP3   OH223958   5.802   4.125   8.709
  800TIP3    H123959   5.746   4.191   8.670
  800TIP3    H223960   5.749   4.046   8.712
  801TIP3   OH223961   2.820   3.415   7.490
  801TIP3    H123962   2.763   3.484   7.456
  801TIP3    H223963   2.890   3.461   7.536
  802TIP3   OH223964   4.606   2.246   8.142
  802TIP3    H123965   4.527   2.300   8.132
  802TIP3    H223966   4.667   2.303   8.188
  803TIP3   OH223967   4.050   2.557   8.600
  803TIP3    H123968   4.059   2.645   8.562
  803TIP3    H223969   3.961   2.530   8.575
  804TIP3   OH223970   3.614   5.685   1.383
  804TIP3    H123971   3.658   5.741   1.448
  804TIP3    H223972   3.642   5.596   1.405
  805TIP3   OH223973   0.843   5.828   2.107
  805TIP3    H123974   0.868   5.914   2.075
  805TIP3    H223975   0.925   5.789   2.138
  806TIP3   OH223976   3.119   5.575   1.202
  806TIP3    H123977   3.160   5.579   1.289
  806TIP3    H223978   3.028   5.597   1.218
  807TIP3   OH223979   0.399   4.563   1.127
  807TIP3    H123980   0.401   4.636   1.065
  807TIP3    H223981   0.359   4.491   1.077
  808TIP3   OH223982   6.676   5.273   1.101
  808TIP3    H123983   6.733   5.257   1.176
  808TIP3    H223984   6.686   5.367   1.083
  809TIP3   OH223985   3.618   0.324   1.829
  809TIP3    H123986   3.566   0.282   1.761
  809TIP3    H223987   3.651   0.404   1.787
  810TIP3   OH223988   2.294   0.774   6.600
  810TIP3    H123989   2.203   0.762   6.576
  810TIP3    H223990   2.333   0.822   6.527
  811TIP3   OH223991   4.127   0.265   8.220
  811TIP3    H123992   4.125   0.343   8.275
  811TIP3    H223993   4.054   0.211   8.252
  812TIP3   OH223994   1.638   0.254   8.184
  812TIP3    H123995   1.567   0.276   8.245
  812TIP3    H223996   1.596   0.199   8.118
  813TIP3   OH223997   4.062   3.775   1.301
  813TIP3    H123998   4.074   3.780   1.396
  813TIP3    H223999   4.104   3.693   1.276
  814TIP3   OH224000   3.266   2.640   1.453
  814TIP3    H124001   3.181   2.683   1.446
  814TIP3    H224002   3.245   2.548   1.471
  815TIP3   OH224003   2.430   6.059   0.313
  815TIP3    H124004   2.485   5.981   0.303
  815TIP3    H224005   2.341   6.025   0.311
  816TIP3   OH224006   3.162   6.214   7.407
  816TIP3    H124007   3.250   6.236   7.374
  816TIP3    H224008   3.122   6.299   7.425
  817TIP3   OH224009   2.318   5.671   1.481
  817TIP3    H124010   2.238   5.714   1.449
  817TIP3    H224011   2.348   5.729   1.552
  818TIP3   OH224012   0.119   5.877   0.310
  818TIP3    H124013   0.059   5.926   0.254
  818TIP3    H224014   0.071   5.866   0.392
  819TIP3   OH224015   2.066   3.853   1.237
  819TIP3    H124016   2.023   3.900   1.309
  819TIP3    H224017   2.089   3.768   1.275
  820TIP3   OH224018   1.871   0.172   8.443
  820TIP3    H124019   1.884   0.263   8.470
  820TIP3    H224020   1.776   0.162   8.441
  821TIP3   OH224021   6.360   2.142   1.025
  821TIP3    H124022   6.282   2.155   0.972
  821TIP3    H224023   6.359   2.049   1.049
  822TIP3   OH224024   0.318   6.521   0.739
  822TIP3    H124025   0.410   6.500   0.727
  822TIP3    H224026   0.271   6.440   0.719
  823TIP3   OH224027   1.827   3.744   0.586
  823TIP3    H124028   1.801   3.833   0.562
  823TIP3    H224029   1.907   3.755   0.638
  824TIP3   OH224030   0.524   4.953   1.524
  824TIP3    H124031   0.442   5.001   1.535
  824TIP3    H224032   0.592   5.021   1.533
  825TIP3   OH224033   0.410   2.793   7.634
  825TIP3    H124034   0.413   2.784   7.729
  825TIP3    H224035   0.485   2.741   7.603
  826TIP3   OH224036   2.667   2.598   1.670
  826TIP3    H124037   2.577   2.575   1.694
  826TIP3    H224038   2.685   2.545   1.593
  827TIP3   OH224039   2.533   0.000   0.267
  827TIP3    H124040   2.571   0.052   0.339
  827TIP3    H224041   2.597   6.769   0.252
  828TIP3   OH224042   1.729   5.933   0.941
  828TIP3    H124043   1.791   5.892   0.880
  828TIP3    H224044   1.781   5.949   1.020
  829TIP3   OH224045   3.560   4.070   7.733
  829TIP3    H124046   3.565   4.166   7.728
  829TIP3    H224047   3.621   4.046   7.803
  830TIP3   OH224048   5.775   5.344   8.438
  830TIP3    H124049   5.868   5.352   8.460
  830TIP3    H224050   5.734   5.422   8.476
  831TIP3   OH224051   4.334   2.103   7.302
  831TIP3    H124052   4.283   2.042   7.249
  831TIP3    H224053   4.422   2.067   7.301
  832TIP3   OH224054   3.104   3.095   1.107
  832TIP3    H124055   3.113   3.017   1.162
  832TIP3    H224056   3.130   3.067   1.020
  833TIP3   OH224057   1.171   6.827   7.995
  833TIP3    H124058   1.121   0.014   7.917
  833TIP3    H224059   1.190   6.734   7.982
  834TIP3   OH224060   3.734   4.496   1.988
  834TIP3    H124061   3.710   4.568   2.046
  834TIP3    H224062   3.826   4.511   1.968
  835TIP3   OH224063   2.752   6.490   1.661
  835TIP3    H124064   2.746   6.586   1.666
  835TIP3    H224065   2.705   6.459   1.739
  836TIP3   OH224066   6.432   6.654   7.290
  836TIP3    H124067   6.456   6.745   7.272
  836TIP3    H224068   6.472   6.604   7.219
  837TIP3   OH224069   4.774   5.472   2.309
  837TIP3    H124070   4.846   5.494   2.369
  837TIP3    H224071   4.799   5.387   2.272
  838TIP3   OH224072   3.444   0.698   1.659
  838TIP3    H124073   3.488   0.757   1.598
  838TIP3    H224074   3.370   0.663   1.609
  839TIP3   OH224075   5.607   3.146   8.600
  839TIP3    H124076   5.548   3.140   8.525
  839TIP3    H224077   5.567   3.089   8.666
  840TIP3   OH224078   4.012   3.005   1.138
  840TIP3    H124079   4.018   3.034   1.047
  840TIP3    H224080   4.076   3.059   1.184
  841TIP3   OH224081   5.910   3.960   0.257
  841TIP3    H124082   5.888   3.898   0.188
  841TIP3    H224083   5.891   4.046   0.220
  842TIP3   OH224084   6.017   5.704   6.888
  842TIP3    H124085   6.049   5.738   6.972
  842TIP3    H224086   6.070   5.626   6.872
  843TIP3   OH224087   5.830   6.400   6.027
  843TIP3    H124088   5.863   6.311   6.020
  843TIP3    H224089   5.874   6.448   5.957
  844TIP3   OH224090   0.254   5.549   0.999
  844TIP3    H124091   0.263   5.517   0.910
  844TIP3    H224092   0.162   5.536   1.020
  845TIP3   OH224093   6.037   3.158   0.988
  845TIP3    H124094   6.036   3.251   0.964
  845TIP3    H224095   6.098   3.118   0.927
  846TIP3   OH224096   6.684   2.038   8.227
  846TIP3    H124097   6.709   2.080   8.310
  846TIP3    H224098   6.764   1.993   8.199
  847TIP3   OH224099   6.628   5.742   7.241
  847TIP3    H124100   6.592   5.829   7.223
  847TIP3    H224101   6.701   5.734   7.179
  848TIP3   OH224102   4.039   3.674   7.375
  848TIP3    H124103   4.050   3.765   7.346
  848TIP3    H224104   4.120   3.654   7.421
  849TIP3   OH224105   1.354   3.590   7.421
  849TIP3    H124106   1.349   3.507   7.468
  849TIP3    H224107   1.357   3.656   7.489
  850TIP3   OH224108   5.031   2.059   6.243
  850TIP3    H124109   5.109   2.004   6.251
  850TIP3    H224110   4.976   2.034   6.318
  851TIP3   OH224111   6.688   4.522   5.996
  851TIP3    H124112   6.688   4.595   6.057
  851TIP3    H224113   6.740   4.454   6.040
  852TIP3   OH224114   1.653   2.235   7.644
  852TIP3    H124115   1.664   2.185   7.562
  852TIP3    H224116   1.604   2.176   7.701
  853TIP3   OH224117   1.336   0.114   1.200
  853TIP3    H124118   1.298   0.032   1.169
  853TIP3    H224119   1.361   0.097   1.291
  854TIP3   OH224120   3.540   6.025   2.533
  854TIP3    H124121   3.512   5.935   2.514
  854TIP3    H224122   3.628   6.016   2.570
  855TIP3   OH224123   6.507   6.314   6.340
  855TIP3    H124124   6.476   6.225   6.357
  855TIP3    H224125   6.488   6.361   6.421
  856TIP3   OH224126   3.036   6.772   8.294
  856TIP3    H124127   3.063   6.813   8.376
  856TIP3    H224128   2.943   6.754   8.305
  857TIP3   OH224129   4.835   5.385   1.030
  857TIP3    H124130   4.744   5.399   1.004
  857TIP3    H224131   4.833   5.304   1.081
  858TIP3   OH224132   4.204   5.665   1.320
  858TIP3    H124133   4.213   5.724   1.395
  858TIP3    H224134   4.132   5.606   1.344
  859TIP3   OH224135   3.973   5.400   7.214
  859TIP3    H124136   3.890   5.363   7.242
  859TIP3    H224137   3.972   5.394   7.119
  860TIP3   OH224138   0.990   6.206   0.113
  860TIP3    H124139   0.987   6.176   0.204
  860TIP3    H224140   0.993   6.126   0.061
  861TIP3   OH224141   3.184   2.964   6.458
  861TIP3    H124142   3.149   3.052   6.467
  861TIP3    H224143   3.272   2.969   6.493
  862TIP3   OH224144   3.670   1.967   0.116
  862TIP3    H124145   3.625   1.899   0.066
  862TIP3    H224146   3.757   1.930   0.134
  863TIP3   OH224147   1.128   5.102   7.537
  863TIP3    H124148   1.037   5.077   7.556
  863TIP3    H224149   1.124   5.140   7.449
  864TIP3   OH224150   6.479   4.268   7.650
  864TIP3    H124151   6.447   4.335   7.591
  864TIP3    H224152   6.417   4.196   7.641
  865TIP3   OH224153   2.724   4.244   0.362
  865TIP3    H124154   2.642   4.281   0.395
  865TIP3    H224155   2.790   4.310   0.381
  866TIP3   OH224156   3.207   2.298   1.794
  866TIP3    H124157   3.196   2.205   1.815
  866TIP3    H224158   3.187   2.343   1.875
  867TIP3   OH224159   6.431   3.000   0.616
  867TIP3    H124160   6.351   2.957   0.586
  867TIP3    H224161   6.460   2.947   0.691
  868TIP3   OH224162   3.759   4.203   1.222
  868TIP3    H124163   3.715   4.260   1.158
  868TIP3    H224164   3.849   4.236   1.225
  869TIP3   OH224165   3.888   3.889   8.180
  869TIP3    H124166   3.855   3.799   8.179
  869TIP3    H224167   3.926   3.900   8.267
  870TIP3   OH224168   4.065   2.681   7.408
  870TIP3    H124169   3.970   2.698   7.404
  870TIP3    H224170   4.080   2.651   7.498
  871TIP3   OH224171   6.388   5.509   2.000
  871TIP3    H124172   6.444   5.472   1.932
  871TIP3    H224173   6.318   5.444   2.011
  872TIP3   OH224174   6.282   4.676   0.095
  872TIP3    H124175   6.358   4.618   0.108
  872TIP3    H224176   6.216   4.620   0.054
  873TIP3   OH224177   1.674   3.969   6.497
  873TIP3    H124178   1.615   3.903   6.533
  873TIP3    H224179   1.667   3.957   6.402
  874TIP3   OH224180   6.280   0.139   0.935
  874TIP3    H124181   6.255   0.120   1.025
  874TIP3    H224182   6.374   0.118   0.931
  875TIP3   OH224183   5.456   2.393   0.940
  875TIP3    H124184   5.477   2.358   1.027
  875TIP3    H224185   5.362   2.378   0.931
  876TIP3   OH224186   3.776   2.501   8.593
  876TIP3    H124187   3.754   2.562   8.664
  876TIP3    H224188   3.728   2.535   8.517
  877TIP3   OH224189   5.791   2.041   7.702
  877TIP3    H124190   5.873   2.072   7.740
  877TIP3    H224191   5.816   2.008   7.615
  878TIP3   OH224192   0.531   2.273   7.990
  878TIP3    H124193   0.552   2.289   7.898
  878TIP3    H224194   0.545   2.357   8.033
  879TIP3   OH224195   2.608   1.311   6.975
  879TIP3    H124196   2.513   1.308   6.984
  879TIP3    H224197   2.626   1.268   6.892
  880TIP3   OH224198   5.104   6.609   6.202
  880TIP3    H124199   5.131   6.518   6.213
  880TIP3    H224200   5.074   6.615   6.112
  881TIP3   OH224201   0.130   4.261   8.435
  881TIP3    H124202   0.157   4.210   8.511
  881TIP3    H224203   0.040   4.232   8.416
  882TIP3   OH224204   2.183   4.062   1.096
  882TIP3    H124205   2.157   3.990   1.153
  882TIP3    H224206   2.263   4.097   1.136
  883TIP3   OH224207   2.980   1.969   7.418
  883TIP3    H124208   2.986   1.882   7.379
  883TIP3    H224209   3.023   2.027   7.355
  884TIP3   OH224210   5.341   6.450   0.800
  884TIP3    H124211   5.265   6.417   0.847
  884TIP3    H224212   5.308   6.475   0.714
  885TIP3   OH224213   4.875   3.947   1.879
  885TIP3    H124214   4.950   4.002   1.899
  885TIP3    H224215   4.805   3.979   1.936
  886TIP3   OH224216   4.662   5.228   8.755
  886TIP3    H124217   4.655   5.133   8.756
  886TIP3    H224218   4.607   5.257   0.046
  887TIP3   OH224219   2.198   2.577   8.208
  887TIP3    H124220   2.239   2.516   8.270
  887TIP3    H224221   2.104   2.565   8.222
  888TIP3   OH224222   0.282   0.895   1.731
  888TIP3    H124223   0.241   0.938   1.806
  888TIP3    H224224   0.365   0.861   1.766
  889TIP3   OH224225   6.245   0.507   2.013
  889TIP3    H124226   6.302   0.549   2.076
  889TIP3    H224227   6.197   0.579   1.972
  890TIP3   OH224228   2.484   1.353   8.469
  890TIP3    H124229   2.472   1.392   8.383
  890TIP3    H224230   2.465   1.260   8.456
  891TIP3   OH224231   5.231   1.453   8.104
  891TIP3    H124232   5.147   1.413   8.128
  891TIP3    H224233   5.283   1.449   8.184
  892TIP3   OH224234   5.569   3.748   7.250
  892TIP3    H124235   5.477   3.731   7.271
  892TIP3    H224236   5.581   3.841   7.271
  893TIP3   OH224237   5.298   5.864   7.927
  893TIP3    H124238   5.209   5.900   7.927
  893TIP3    H224239   5.298   5.800   7.999
  894TIP3   OH224240   5.753   1.771   6.784
  894TIP3    H124241   5.734   1.678   6.794
  894TIP3    H224242   5.675   1.806   6.741
  895TIP3   OH224243   6.044   3.634   6.898
  895TIP3    H124244   6.019   3.637   6.806
  895TIP3    H224245   6.033   3.724   6.929
  896TIP3   OH224246   3.224   0.061   7.361
  896TIP3    H124247   3.186   6.824   7.405
  896TIP3    H224248   3.253   0.027   7.276
  897TIP3   OH224249   3.636   2.972   1.670
  897TIP3    H124250   3.550   2.997   1.704
  897TIP3    H224251   3.698   3.025   1.721
  898TIP3   OH224252   4.840   5.355   7.476
  898TIP3    H124253   4.807   5.272   7.510
  898TIP3    H224254   4.802   5.363   7.389
  899TIP3   OH224255   2.533   4.424   0.110
  899TIP3    H124256   2.614   4.469   0.136
  899TIP3    H224257   2.497   4.390   0.191
  900TIP3   OH224258   6.502   5.436   0.787
  900TIP3    H124259   6.507   5.346   0.821
  900TIP3    H224260   6.533   5.491   0.859
  901TIP3   OH224261   1.042   5.519   0.997
  901TIP3    H124262   1.023   5.434   1.037
  901TIP3    H224263   0.957   5.551   0.968
  902TIP3   OH224264   2.190   5.691   0.099
  902TIP3    H124265   2.197   5.657   0.010
  902TIP3    H224266   2.225   5.620   0.154
  903TIP3   OH224267   3.205   5.330   7.127
  903TIP3    H124268   3.236   5.274   7.197
  903TIP3    H224269   3.245   5.415   7.145
  904TIP3   OH224270   2.898   5.667   7.946
  904TIP3    H124271   2.956   5.619   8.005
  904TIP3    H224272   2.951   5.741   7.915
  905TIP3   OH224273   3.203   2.627   2.491
  905TIP3    H124274   3.156   2.586   2.419
  905TIP3    H224275   3.158   2.711   2.504
  906TIP3   OH224276   5.266   5.609   7.511
  906TIP3    H124277   5.291   5.522   7.481
  906TIP3    H224278   5.245   5.597   7.604
  907TIP3   OH224279   6.083   5.872   1.009
  907TIP3    H124280   6.176   5.882   1.029
  907TIP3    H224281   6.072   5.918   0.925
  908TIP3   OH224282   0.864   6.777   0.255
  908TIP3    H124283   0.797   6.723   0.297
  908TIP3    H224284   0.916   6.716   0.203
  909TIP3   OH224285   0.500   5.417   8.742
  909TIP3    H124286   0.442   5.381   8.675
  909TIP3    H224287   0.489   5.512   8.735
  910TIP3   OH224288   6.161   5.631   1.902
  910TIP3    H124289   6.162   5.726   1.895
  910TIP3    H224290   6.226   5.611   1.970
  911TIP3   OH224291   2.231   5.378   7.532
  911TIP3    H124292   2.157   5.371   7.472
  911TIP3    H224293   2.305   5.343   7.483
  912TIP3   OH224294   0.931   1.218   7.858
  912TIP3    H124295   1.021   1.223   7.891
  912TIP3    H224296   0.922   1.296   7.804
  913TIP3   OH224297   4.980   1.962   1.509
  913TIP3    H124298   4.973   2.049   1.547
  913TIP3    H224299   4.930   1.967   1.427
  914TIP3   OH224300   3.977   4.317   6.886
  914TIP3    H124301   4.043   4.260   6.925
  914TIP3    H224302   3.984   4.300   6.791
  915TIP3   OH224303   3.313   1.287   0.721
  915TIP3    H124304   3.394   1.269   0.674
  915TIP3    H224305   3.255   1.324   0.654
  916TIP3   OH224306   4.116   3.272   0.161
  916TIP3    H124307   4.192   3.295   0.108
  916TIP3    H224308   4.140   3.189   0.202
  917TIP3   OH224309   6.524   1.984   7.154
  917TIP3    H124310   6.458   1.916   7.142
  917TIP3    H224311   6.575   1.983   7.074
  918TIP3   OH224312   4.551   0.028   6.925
  918TIP3    H124313   4.618   0.015   6.858
  918TIP3    H224314   4.487   6.796   6.908
  919TIP3   OH224315   3.165   2.279   2.304
  919TIP3    H124316   3.190   2.325   2.224
  919TIP3    H224317   3.165   2.347   2.372
  920TIP3   OH224318   2.444   0.473   7.675
  920TIP3    H124319   2.448   0.503   7.584
  920TIP3    H224320   2.532   0.441   7.694
  921TIP3   OH224321   1.317   2.268   1.140
  921TIP3    H124322   1.369   2.333   1.188
  921TIP3    H224323   1.293   2.203   1.205
  922TIP3   OH224324   4.717   5.209   6.476
  922TIP3    H124325   4.638   5.253   6.445
  922TIP3    H224326   4.771   5.200   6.397
  923TIP3   OH224327   6.755   1.288   0.079
  923TIP3    H124328   6.805   1.312   0.157
  923TIP3    H224329   6.751   1.193   0.081
  924TIP3   OH224330   2.364   2.910   0.497
  924TIP3    H124331   2.321   2.836   0.541
  924TIP3    H224332   2.399   2.873   0.416
  925TIP3   OH224333   3.554   1.201   7.123
  925TIP3    H124334   3.490   1.211   7.054
  925TIP3    H224335   3.620   1.268   7.105
  926TIP3   OH224336   5.847   4.722   8.635
  926TIP3    H124337   5.784   4.793   8.621
  926TIP3    H224338   5.809   4.669   8.705
  927TIP3   OH224339   2.599   0.269   8.596
  927TIP3    H124340   2.530   0.308   8.543
  927TIP3    H224341   2.573   0.286   8.687
  928TIP3   OH224342   1.335   4.564   7.794
  928TIP3    H124343   1.310   4.570   7.702
  928TIP3    H224344   1.414   4.618   7.801
  929TIP3   OH224345   5.322   6.084   8.609
  929TIP3    H124346   5.346   6.105   8.518
  929TIP3    H224347   5.366   6.001   8.626
  930TIP3   OH224348   2.227   0.253   8.316
  930TIP3    H124349   2.264   0.170   8.346
  930TIP3    H224350   2.155   0.228   8.259
  931TIP3   OH224351   4.141   0.879   0.355
  931TIP3    H124352   4.055   0.882   0.398
  931TIP3    H224353   4.158   0.969   0.327
  932TIP3   OH224354   4.930   6.164   6.621
  932TIP3    H124355   4.896   6.085   6.579
  932TIP3    H224356   4.922   6.232   6.554
  933TIP3   OH224357   1.760   2.281   0.195
  933TIP3    H124358   1.665   2.268   0.192
  933TIP3    H224359   1.771   2.370   0.230
  934TIP3   OH224360   6.368   0.220   0.536
  934TIP3    H124361   6.396   0.179   0.618
  934TIP3    H224362   6.301   0.283   0.562
  935TIP3   OH224363   0.233   5.631   7.127
  935TIP3    H124364   0.307   5.655   7.073
  935TIP3    H224365   0.272   5.589   7.204
  936TIP3   OH224366   5.613   6.391   0.848
  936TIP3    H124367   5.517   6.394   0.848
  936TIP3    H224368   5.634   6.315   0.902
  937TIP3   OH224369   4.407   5.760   8.413
  937TIP3    H124370   4.334   5.758   8.351
  937TIP3    H224371   4.408   5.850   8.447
  938TIP3   OH224372   0.052   2.250   0.549
  938TIP3    H124373   6.821   2.187   0.528
  938TIP3    H224374   0.024   2.331   0.506
  939TIP3   OH224375   3.120   4.442   7.425
  939TIP3    H124376   3.108   4.370   7.487
  939TIP3    H224377   3.097   4.404   7.340
  940TIP3   OH224378   6.476   4.723   6.820
  940TIP3    H124379   6.447   4.633   6.833
  940TIP3    H224380   6.547   4.717   6.755
  941TIP3   OH224381   0.538   1.491   1.883
  941TIP3    H124382   0.632   1.503   1.868
  941TIP3    H224383   0.505   1.577   1.906
  942TIP3   OH224384   2.537   2.754   6.747
  942TIP3    H124385   2.570   2.808   6.819
  942TIP3    H224386   2.615   2.736   6.693
  943TIP3   OH224387   3.998   6.304   0.209
  943TIP3    H124388   3.931   6.341   0.152
  943TIP3    H224389   4.014   6.372   0.274
  944TIP3   OH224390   4.718   0.211   8.374
  944TIP3    H124391   4.742   0.118   8.380
  944TIP3    H224392   4.681   0.221   8.286
  945TIP3   OH224393   4.555   3.831   6.398
  945TIP3    H124394   4.521   3.750   6.437
  945TIP3    H224395   4.646   3.836   6.429
  946TIP3   OH224396   0.548   5.921   8.694
  946TIP3    H124397   0.569   5.922   8.601
  946TIP3    H224398   0.477   5.857   8.702
  947TIP3   OH224399   0.406   5.743   1.150
  947TIP3    H124400   0.370   5.711   1.232
  947TIP3    H224401   0.369   5.686   1.083
  948TIP3   OH224402   0.512   5.453   7.191
  948TIP3    H124403   0.489   5.520   7.127
  948TIP3    H224404   0.570   5.394   7.144
  949TIP3   OH224405   3.604   3.501   0.248
  949TIP3    H124406   3.538   3.479   0.182
  949TIP3    H224407   3.675   3.440   0.232
  950TIP3   OH224408   6.298   5.462   0.403
  950TIP3    H124409   6.335   5.381   0.369
  950TIP3    H224410   6.373   5.521   0.413
  951TIP3   OH224411   0.158   0.819   0.588
  951TIP3    H124412   0.110   0.736   0.578
  951TIP3    H224413   0.095   0.886   0.561
  952TIP3   OH224414   5.716   5.652   8.290
  952TIP3    H124415   5.699   5.587   8.222
  952TIP3    H224416   5.656   5.629   8.361
  953TIP3   OH224417   2.457   0.563   7.418
  953TIP3    H124418   2.548   0.577   7.443
  953TIP3    H224419   2.459   0.556   7.323
  954TIP3   OH224420   2.096   3.552   1.252
  954TIP3    H124421   2.115   3.458   1.256
  954TIP3    H224422   2.004   3.558   1.275
  955TIP3   OH224423   6.476   0.289   1.726
  955TIP3    H124424   6.485   0.273   1.632
  955TIP3    H224425   6.553   0.247   1.765
  956TIP3   OH224426   0.435   0.036   0.707
  956TIP3    H124427   0.359   6.816   0.706
  956TIP3    H224428   0.488   0.007   0.632
  957TIP3   OH224429   3.759   3.515   7.871
  957TIP3    H124430   3.848   3.527   7.904
  957TIP3    H224431   3.758   3.427   7.835
  958TIP3   OH224432   3.736   3.829   2.208
  958TIP3    H124433   3.687   3.882   2.270
  958TIP3    H224434   3.828   3.854   2.221
  959TIP3   OH224435   5.996   6.294   2.068
  959TIP3    H124436   6.035   6.380   2.054
  959TIP3    H224437   6.025   6.268   2.156
  960TIP3   OH224438   6.304   1.090   6.984
  960TIP3    H124439   6.363   1.141   6.929
  960TIP3    H224440   6.217   1.124   6.963
  961TIP3   OH224441   6.256   5.167   6.634
  961TIP3    H124442   6.180   5.140   6.686
  961TIP3    H224443   6.270   5.259   6.658
  962TIP3   OH224444   6.490   2.569   2.081
  962TIP3    H124445   6.509   2.545   2.172
  962TIP3    H224446   6.549   2.642   2.062
  963TIP3   OH224447   2.819   6.572   0.743
  963TIP3    H124448   2.728   6.545   0.741
  963TIP3    H224449   2.856   6.538   0.661
  964TIP3   OH224450   2.025   3.003   0.098
  964TIP3    H124451   1.996   2.983   0.009
  964TIP3    H224452   2.040   2.917   0.138
  965TIP3   OH224453   1.390   2.218   7.338
  965TIP3    H124454   1.355   2.130   7.319
  965TIP3    H224455   1.478   2.202   7.370
  966TIP3   OH224456   3.679   1.307   8.387
  966TIP3    H124457   3.660   1.394   8.353
  966TIP3    H224458   3.621   1.298   8.463
  967TIP3   OH224459   1.476   4.283   6.923
  967TIP3    H124460   1.397   4.331   6.949
  967TIP3    H224461   1.546   4.322   6.975
  968TIP3   OH224462   4.542   0.204   1.058
  968TIP3    H124463   4.531   0.260   1.135
  968TIP3    H224464   4.465   0.222   1.004
  969TIP3   OH224465   5.414   3.425   1.689
  969TIP3    H124466   5.425   3.411   1.783
  969TIP3    H224467   5.503   3.441   1.656
  970TIP3   OH224468   0.291   6.478   2.153
  970TIP3    H124469   0.370   6.529   2.134
  970TIP3    H224470   0.315   6.388   2.129
  971TIP3   OH224471   1.024   2.914   0.373
  971TIP3    H124472   1.108   2.902   0.416
  971TIP3    H224473   0.965   2.853   0.419
  972TIP3   OH224474   2.745   4.330   1.131
  972TIP3    H124475   2.737   4.308   1.224
  972TIP3    H224476   2.834   4.365   1.122
  973TIP3   OH224477   2.296   2.957   1.669
  973TIP3    H124478   2.380   2.924   1.637
  973TIP3    H224479   2.241   2.879   1.677
  974TIP3   OH224480   3.904   4.327   8.356
  974TIP3    H124481   3.929   4.280   8.276
  974TIP3    H224482   3.944   4.275   8.427
  975TIP3   OH224483   6.035   1.296   1.178
  975TIP3    H124484   5.968   1.230   1.158
  975TIP3    H224485   6.077   1.264   1.258
  976TIP3   OH224486   6.073   2.566   7.317
  976TIP3    H124487   6.084   2.489   7.261
  976TIP3    H224488   6.137   2.629   7.282
  977TIP3   OH224489   3.701   2.740   8.752
  977TIP3    H124490   3.656   2.779   0.044
  977TIP3    H224491   3.742   2.814   8.707
  978TIP3   OH224492   1.827   4.466   8.550
  978TIP3    H124493   1.760   4.451   8.484
  978TIP3    H224494   1.830   4.561   8.561
  979TIP3   OH224495   4.076   6.510   1.395
  979TIP3    H124496   4.007   6.446   1.376
  979TIP3    H224497   4.093   6.552   1.310
  980TIP3   OH224498   2.316   3.537   8.391
  980TIP3    H124499   2.237   3.538   8.338
  980TIP3    H224500   2.365   3.614   8.362
  981TIP3   OH224501   0.955   6.281   0.429
  981TIP3    H124502   0.861   6.271   0.414
  981TIP3    H224503   0.992   6.195   0.408
  982TIP3   OH224504   0.759   3.371   1.418
  982TIP3    H124505   0.833   3.393   1.475
  982TIP3    H224506   0.682   3.381   1.473
  983TIP3   OH224507   3.052   1.932   0.120
  983TIP3    H124508   2.992   1.998   0.086
  983TIP3    H224509   3.139   1.970   0.106
  984TIP3   OH224510   1.295   6.567   7.977
  984TIP3    H124511   1.333   6.557   7.890
  984TIP3    H224512   1.286   6.477   8.010
  985TIP3   OH224513   0.076   1.089   7.646
  985TIP3    H124514   0.102   1.075   7.737
  985TIP3    H224515   0.090   1.182   7.631
  986TIP3   OH224516   0.367   3.350   7.047
  986TIP3    H124517   0.284   3.303   7.056
  986TIP3    H224518   0.427   3.285   7.009
  987TIP3   OH224519   2.222   5.928   7.355
  987TIP3    H124520   2.200   5.951   7.445
  987TIP3    H224521   2.239   5.834   7.357
  988TIP3   OH224522   1.451   6.493   7.138
  988TIP3    H124523   1.501   6.415   7.114
  988TIP3    H224524   1.438   6.539   7.055
  989TIP3   OH224525   3.917   4.003   0.469
  989TIP3    H124526   3.980   4.014   0.398
  989TIP3    H224527   3.854   3.940   0.435
  990TIP3   OH224528   2.463   0.394   8.375
  990TIP3    H124529   2.509   0.426   8.297
  990TIP3    H224530   2.373   0.380   8.345
  991TIP3   OH224531   1.899   1.095   6.471
  991TIP3    H124532   1.990   1.089   6.443
  991TIP3    H224533   1.882   1.011   6.516
  992TIP3   OH224534   3.030   6.647   0.376
  992TIP3    H124535   3.036   6.569   0.432
  992TIP3    H224536   2.936   6.668   0.375
  993TIP3   OH224537   0.586   1.026   8.389
  993TIP3    H124538   0.523   1.045   8.320
  993TIP3    H224539   0.533   1.022   8.469
  994TIP3   OH224540   0.806   0.448   0.641
  994TIP3    H124541   0.798   0.419   0.550
  994TIP3    H224542   0.715   0.458   0.670
  995TIP3   OH224543   0.690   1.435   0.124
  995TIP3    H124544   0.777   1.427   0.084
  995TIP3    H224545   0.707   1.431   0.218
  996TIP3   OH224546   1.939   1.219   7.852
  996TIP3    H124547   1.847   1.222   7.877
  996TIP3    H224548   1.941   1.169   7.770
  997TIP3   OH224549   0.479   1.384   0.547
  997TIP3    H124550   0.438   1.301   0.573
  997TIP3    H224551   0.526   1.364   0.467
  998TIP3   OH224552   5.570   5.714   6.451
  998TIP3    H124553   5.541   5.800   6.483
  998TIP3    H224554   5.491   5.674   6.415
  999TIP3   OH224555   6.494   2.621   0.413
  999TIP3    H124556   6.550   2.682   0.461
  999TIP3    H224557   6.443   2.676   0.354
 1000TIP3   OH224558   0.109   1.546   0.100
 1000TIP3    H124559   0.147   1.464   0.132
 1000TIP3    H224560   0.184   1.597   0.070
 1001TIP3   OH224561   6.711   2.758   0.075
 1001TIP3    H124562   6.652   2.787   0.144
 1001TIP3    H224563   6.779   2.709   0.121
 1002TIP3   OH224564   4.027   6.572   0.157
 1002TIP3    H124565   4.089   6.639   0.186
 1002TIP3    H224566   4.019   6.585   0.063
 1003TIP3   OH224567   2.389   4.078   0.134
 1003TIP3    H124568   2.306   4.031   0.144
 1003TIP3    H224569   2.378   4.129   0.054
 1004TIP3   OH224570   6.545   1.774   1.638
 1004TIP3    H124571   6.494   1.823   1.702
 1004TIP3    H224572   6.482   1.745   1.573
 1005TIP3   OH224573   0.136   2.798   8.747
 1005TIP3    H124574   0.043   2.777   8.748
 1005TIP3    H224575   0.139   2.893   8.753
 1006TIP3   OH224576   3.707   5.399   0.376
 1006TIP3    H124577   3.674   5.371   0.461
 1006TIP3    H224578   3.667   5.338   0.314
 1007TIP3   OH224579   1.672   0.079   7.034
 1007TIP3    H124580   1.713   0.034   6.960
 1007TIP3    H224581   1.706   0.033   7.111
 1008TIP3   OH224582   2.730   5.874   1.379
 1008TIP3    H124583   2.733   5.928   1.300
 1008TIP3    H224584   2.653   5.818   1.367
 1009TIP3   OH224585   1.792   6.800   6.811
 1009TIP3    H124586   1.849   6.831   6.741
 1009TIP3    H224587   1.735   6.736   6.769
 1010TIP3   OH224588   5.463   6.663   2.737
 1010TIP3    H124589   5.395   6.714   2.692
 1010TIP3    H224590   5.540   6.721   2.737
 1011TIP3   OH224591   1.626   0.993   1.069
 1011TIP3    H124592   1.552   1.030   1.116
 1011TIP3    H224593   1.674   1.069   1.035
 1012TIP3   OH224594   0.954   3.515   8.621
 1012TIP3    H124595   0.869   3.478   8.644
 1012TIP3    H224596   1.018   3.456   8.661
 1013TIP3   OH224597   5.546   2.715   8.677
 1013TIP3    H124598   5.456   2.736   8.705
 1013TIP3    H224599   5.570   2.639   8.729
 1014TIP3   OH224600   3.655   0.582   8.643
 1014TIP3    H124601   3.743   0.621   8.642
 1014TIP3    H224602   3.626   0.587   8.551
 1015TIP3   OH224603   2.452   3.101   8.185
 1015TIP3    H124604   2.377   3.158   8.202
 1015TIP3    H224605   2.524   3.161   8.165
 1016TIP3   OH224606   3.077   1.656   0.023
 1016TIP3    H124607   3.001   1.638   8.751
 1016TIP3    H224608   3.060   1.743   0.060
 1017TIP3   OH224609   4.531   2.636   1.697
 1017TIP3    H124610   4.496   2.548   1.685
 1017TIP3    H224611   4.562   2.662   1.610
 1018TIP3   OH224612   3.925   1.928   0.463
 1018TIP3    H124613   3.900   1.983   0.390
 1018TIP3    H224614   3.845   1.881   0.487
 1019TIP3   OH224615   0.875   5.989   8.016
 1019TIP3    H124616   0.942   5.931   8.052
 1019TIP3    H224617   0.917   6.075   8.012
 1020TIP3   OH224618   3.847   2.792   0.427
 1020TIP3    H124619   3.927   2.798   0.480
 1020TIP3    H224620   3.871   2.832   0.343
 1021TIP3   OH224621   3.534   1.099   1.470
 1021TIP3    H124622   3.576   1.135   1.547
 1021TIP3    H224623   3.454   1.057   1.504
 1022TIP3   OH224624   4.612   4.267   7.133
 1022TIP3    H124625   4.619   4.188   7.186
 1022TIP3    H224626   4.577   4.333   7.193
 1023TIP3   OH224627   2.517   4.439   7.387
 1023TIP3    H124628   2.451   4.419   7.453
 1023TIP3    H224629   2.585   4.487   7.435
 1024TIP3   OH224630   4.420   6.553   8.141
 1024TIP3    H124631   4.344   6.598   8.103
 1024TIP3    H224632   4.444   6.488   8.075
 1025TIP3   OH224633   6.207   6.020   6.926
 1025TIP3    H124634   6.241   6.039   6.838
 1025TIP3    H224635   6.117   6.051   6.923
 1026TIP3   OH224636   2.787   5.444   8.459
 1026TIP3    H124637   2.861   5.479   8.510
 1026TIP3    H224638   2.828   5.397   8.386
 1027TIP3   OH224639   2.339   1.068   7.394
 1027TIP3    H124640   2.421   1.072   7.345
 1027TIP3    H224641   2.273   1.099   7.332
 1028TIP3   OH224642   3.425   0.698   0.328
 1028TIP3    H124643   3.428   0.755   0.404
 1028TIP3    H224644   3.513   0.660   0.323
 1029TIP3   OH224645   5.993   1.231   0.735
 1029TIP3    H124646   5.940   1.186   0.669
 1029TIP3    H224647   5.993   1.172   0.810
 1030TIP3   OH224648   1.719   1.968   1.268
 1030TIP3    H124649   1.677   1.938   1.349
 1030TIP3    H224650   1.772   2.043   1.296
 1031TIP3   OH224651   1.314   1.245   7.626
 1031TIP3    H124652   1.281   1.196   7.701
 1031TIP3    H224653   1.409   1.234   7.629
 1032TIP3   OH224654   6.458   2.873   8.414
 1032TIP3    H124655   6.537   2.881   8.467
 1032TIP3    H224656   6.413   2.956   8.425
 1033TIP3   OH224657   0.937   4.644   7.193
 1033TIP3    H124658   0.870   4.580   7.172
 1033TIP3    H224659   0.983   4.658   7.110
 1034TIP3   OH224660   1.552   5.500   6.691
 1034TIP3    H124661   1.516   5.423   6.647
 1034TIP3    H224662   1.585   5.555   6.620
 1035TIP3   OH224663   5.976   4.431   7.582
 1035TIP3    H124664   5.998   4.351   7.534
 1035TIP3    H224665   5.895   4.461   7.541
 1036TIP3   OH224666   3.754   3.761   8.669
 1036TIP3    H124667   3.794   3.778   8.584
 1036TIP3    H224668   3.786   3.831   8.725
 1037TIP3   OH224669   0.267   4.406   8.253
 1037TIP3    H124670   0.189   4.434   8.204
 1037TIP3    H224671   0.235   4.337   8.311
 1038TIP3   OH224672   5.799   3.413   7.463
 1038TIP3    H124673   5.867   3.466   7.503
 1038TIP3    H224674   5.824   3.323   7.482
 1039TIP3   OH224675   2.498   1.757   8.263
 1039TIP3    H124676   2.415   1.805   8.266
 1039TIP3    H224677   2.526   1.762   8.172
 1040TIP3   OH224678   2.878   5.028   1.463
 1040TIP3    H124679   2.940   4.971   1.417
 1040TIP3    H224680   2.857   5.097   1.400
 1041TIP3   OH224681   3.669   5.974   7.426
 1041TIP3    H124682   3.720   6.038   7.475
 1041TIP3    H224683   3.581   5.979   7.465
 1042TIP3   OH224684   1.879   6.664   1.224
 1042TIP3    H124685   1.955   6.617   1.257
 1042TIP3    H224686   1.852   6.720   1.297
 1043TIP3   OH224687   0.741   5.199   7.569
 1043TIP3    H124688   0.654   5.216   7.606
 1043TIP3    H224689   0.728   5.123   7.512
 1044TIP3   OH224690   5.604   6.309   8.600
 1044TIP3    H124691   5.612   6.378   8.534
 1044TIP3    H224692   5.671   6.331   8.666
 1045TIP3   OH224693   5.808   2.337   7.279
 1045TIP3    H124694   5.783   2.427   7.300
 1045TIP3    H224695   5.816   2.336   7.183
 1046TIP3   OH224696   0.203   0.945   1.469
 1046TIP3    H124697   0.229   0.862   1.429
 1046TIP3    H224698   0.228   0.936   1.561
 1047TIP3   OH224699   4.704   5.150   8.429
 1047TIP3    H124700   4.800   5.153   8.431
 1047TIP3    H224701   4.683   5.096   8.353
 1048TIP3   OH224702   0.223   0.725   2.103
 1048TIP3    H124703   0.316   0.700   2.108
 1048TIP3    H224704   0.224   0.815   2.072
 1049TIP3   OH224705   4.485   4.190   0.718
 1049TIP3    H124706   4.533   4.273   0.708
 1049TIP3    H224707   4.394   4.217   0.731
 1050TIP3   OH224708   4.147   2.216   1.476
 1050TIP3    H124709   4.147   2.257   1.389
 1050TIP3    H224710   4.160   2.289   1.537
 1051TIP3   OH224711   0.296   6.000   1.820
 1051TIP3    H124712   0.227   6.047   1.867
 1051TIP3    H224713   0.251   5.955   1.749
 1052TIP3   OH224714   0.916   1.233   7.055
 1052TIP3    H124715   0.891   1.195   6.971
 1052TIP3    H224716   0.915   1.159   7.115
 1053TIP3   OH224717   1.485   2.051   8.530
 1053TIP3    H124718   1.553   2.043   8.596
 1053TIP3    H224719   1.531   2.070   8.449
 1054TIP3   OH224720   2.184   1.952   0.872
 1054TIP3    H124721   2.136   1.923   0.794
 1054TIP3    H224722   2.254   1.888   0.882
 1055TIP3   OH224723   0.934   2.233   8.471
 1055TIP3    H124724   0.977   2.150   8.491
 1055TIP3    H224725   0.842   2.211   8.460
 1056TIP3   OH224726   0.532   2.214   0.504
 1056TIP3    H124727   0.480   2.155   0.448
 1056TIP3    H224728   0.467   2.257   0.559
 1057TIP3   OH224729   2.642   3.335   8.215
 1057TIP3    H124730   2.706   3.406   8.214
 1057TIP3    H224731   2.600   3.342   8.301
 1058TIP3   OH224732   3.878   1.040   8.158
 1058TIP3    H124733   3.890   1.000   8.072
 1058TIP3    H224734   3.894   1.133   8.144
 1059TIP3   OH224735   3.290   2.665   0.047
 1059TIP3    H124736   3.379   2.651   0.014
 1059TIP3    H224737   3.282   2.760   0.057
 1060TIP3   OH224738   3.927   4.835   8.063
 1060TIP3    H124739   3.900   4.905   8.122
 1060TIP3    H224740   3.967   4.769   8.119
 1061TIP3   OH224741   2.607   1.079   7.294
 1061TIP3    H124742   2.657   1.071   7.212
 1061TIP3    H224743   2.635   1.003   7.346
 1062TIP3   OH224744   3.535   3.545   1.879
 1062TIP3    H124745   3.612   3.578   1.926
 1062TIP3    H224746   3.568   3.470   1.830
 1063TIP3   OH224747   1.078   6.517   0.339
 1063TIP3    H124748   1.167   6.525   0.305
 1063TIP3    H224749   1.063   6.422   0.347
 1064TIP3   OH224750   0.964   0.935   0.908
 1064TIP3    H124751   1.021   1.008   0.884
 1064TIP3    H224752   0.960   0.881   0.829
 1065TIP3   OH224753   6.050   4.733   0.435
 1065TIP3    H124754   6.066   4.646   0.399
 1065TIP3    H224755   6.042   4.719   0.529
 1066TIP3   OH224756   1.224   0.774   1.484
 1066TIP3    H124757   1.200   0.693   1.440
 1066TIP3    H224758   1.145   0.802   1.530
 1067TIP3   OH224759   3.761   4.406   0.007
 1067TIP3    H124760   3.730   4.317   0.023
 1067TIP3    H224761   3.779   4.441   0.094
 1068TIP3   OH224762   1.248   4.444   7.068
 1068TIP3    H124763   1.176   4.507   7.069
 1068TIP3    H224764   1.327   4.497   7.079
 1069TIP3   OH224765   5.436   2.913   1.627
 1069TIP3    H124766   5.370   2.969   1.667
 1069TIP3    H224767   5.518   2.961   1.639
 1070TIP3   OH224768   4.147   5.750   0.314
 1070TIP3    H124769   4.117   5.669   0.355
 1070TIP3    H224770   4.081   5.815   0.339
 1071TIP3   OH224771   4.689   0.138   7.607
 1071TIP3    H124772   4.643   0.193   7.670
 1071TIP3    H224773   4.647   0.157   7.523
 1072TIP3   OH224774   4.019   2.502   0.479
 1072TIP3    H124775   3.945   2.480   0.422
 1072TIP3    H224776   4.008   2.595   0.498
 1073TIP3   OH224777   2.354   5.374   8.247
 1073TIP3    H124778   2.287   5.438   8.223
 1073TIP3    H224779   2.417   5.422   8.301
 1074TIP3   OH224780   2.944   3.420   6.716
 1074TIP3    H124781   2.875   3.364   6.752
 1074TIP3    H224782   2.907   3.509   6.722
 1075TIP3   OH224783   6.190   6.450   1.773
 1075TIP3    H124784   6.174   6.494   1.856
 1075TIP3    H224785   6.241   6.372   1.797
 1076TIP3   OH224786   5.593   4.393   1.258
 1076TIP3    H124787   5.498   4.379   1.261
 1076TIP3    H224788   5.614   4.392   1.164
 1077TIP3   OH224789   6.373   0.071   2.183
 1077TIP3    H124790   6.422   0.024   2.116
 1077TIP3    H224791   6.385   0.019   2.263
 1078TIP3   OH224792   4.491   5.935   1.001
 1078TIP3    H124793   4.420   5.998   0.993
 1078TIP3    H224794   4.453   5.861   1.049
 1079TIP3   OH224795   1.263   6.301   8.104
 1079TIP3    H124796   1.295   6.324   8.191
 1079TIP3    H224797   1.342   6.277   8.055
 1080TIP3   OH224798   2.436   3.642   1.243
 1080TIP3    H124799   2.391   3.654   1.160
 1080TIP3    H224800   2.521   3.685   1.231
 1081TIP3   OH224801   5.074   0.872   8.668
 1081TIP3    H124802   5.053   0.784   8.638
 1081TIP3    H224803   5.133   0.907   8.601
 1082TIP3   OH224804   0.586   4.620   7.363
 1082TIP3    H124805   0.563   4.556   7.295
 1082TIP3    H224806   0.672   4.592   7.394
 1083TIP3   OH224807   5.149   3.570   1.750
 1083TIP3    H124808   5.068   3.522   1.766
 1083TIP3    H224809   5.186   3.586   1.837
 1084TIP3   OH224810   1.465   6.820   6.869
 1084TIP3    H124811   1.513   0.023   6.941
 1084TIP3    H224812   1.496   6.730   6.867
 1085TIP3   OH224813   0.250   6.355   7.597
 1085TIP3    H124814   0.184   6.342   7.529
 1085TIP3    H224815   0.207   6.326   7.678
 1086TIP3   OH224816   0.443   1.869   0.093
 1086TIP3    H124817   0.384   1.814   0.145
 1086TIP3    H224818   0.521   1.814   0.080
 1087TIP3   OH224819   4.707   1.749   7.017
 1087TIP3    H124820   4.743   1.836   7.032
 1087TIP3    H224821   4.637   1.763   6.953
 1088TIP3   OH224822   6.355   4.028   0.990
 1088TIP3    H124823   6.437   4.072   0.967
 1088TIP3    H224824   6.293   4.099   1.007
 1089TIP3   OH224825   3.913   5.651   8.677
 1089TIP3    H124826   3.953   5.738   8.682
 1089TIP3    H224827   3.860   5.644   8.756
 1090TIP3   OH224828   3.413   0.172   8.229
 1090TIP3    H124829   3.415   0.118   8.150
 1090TIP3    H224830   3.493   0.224   8.225
 1091TIP3   OH224831   4.782   0.414   1.492
 1091TIP3    H124832   4.851   0.459   1.541
 1091TIP3    H224833   4.734   0.484   1.448
 1092TIP3   OH224834   0.973   2.385   6.895
 1092TIP3    H124835   1.047   2.326   6.903
 1092TIP3    H224836   0.959   2.395   6.801
 1093TIP3   OH224837   4.749   1.448   8.299
 1093TIP3    H124838   4.701   1.488   8.372
 1093TIP3    H224839   4.694   1.466   8.222
 1094TIP3   OH224840   2.774   2.859   2.583
 1094TIP3    H124841   2.710   2.835   2.650
 1094TIP3    H224842   2.808   2.775   2.552
 1095TIP3   OH224843   4.678   2.029   2.703
 1095TIP3    H124844   4.625   1.949   2.705
 1095TIP3    H224845   4.759   2.003   2.659
 1096TIP3   OH224846   2.898   4.419   0.439
 1096TIP3    H124847   2.857   4.403   0.524
 1096TIP3    H224848   2.856   4.498   0.406
 1097TIP3   OH224849   2.899   2.535   0.684
 1097TIP3    H124850   2.833   2.602   0.671
 1097TIP3    H224851   2.852   2.452   0.670
 1098TIP3   OH224852   2.061   3.802   8.065
 1098TIP3    H124853   2.059   3.769   7.976
 1098TIP3    H224854   2.091   3.893   8.057
 1099TIP3   OH224855   0.032   5.553   6.717
 1099TIP3    H124856   0.047   5.546   6.812
 1099TIP3    H224857   6.806   5.623   6.709
 1100TIP3   OH224858   3.705   5.336   7.347
 1100TIP3    H124859   3.750   5.339   7.431
 1100TIP3    H224860   3.675   5.246   7.339
 1101TIP3   OH224861   2.065   5.160   8.371
 1101TIP3    H124862   1.985   5.126   8.412
 1101TIP3    H224863   2.036   5.201   8.290
 1102TIP3   OH224864   5.666   6.140   1.457
 1102TIP3    H124865   5.623   6.078   1.515
 1102TIP3    H224866   5.756   6.145   1.489
 1103TIP3   OH224867   3.011   0.513   8.723
 1103TIP3    H124868   3.076   0.582   8.707
 1103TIP3    H224869   3.033   0.478   0.027
 1104TIP3   OH224870   1.980   2.336   8.744
 1104TIP3    H124871   2.022   2.260   0.001
 1104TIP3    H224872   1.889   2.330   8.773
 1105TIP3   OH224873   6.482   6.139   1.632
 1105TIP3    H124874   6.554   6.201   1.624
 1105TIP3    H224875   6.419   6.167   1.566
 1106TIP3   OH224876   4.232   5.862   1.510
 1106TIP3    H124877   4.186   5.913   1.577
 1106TIP3    H224878   4.323   5.889   1.517
 1107TIP3   OH224879   6.621   0.487   2.210
 1107TIP3    H124880   6.592   0.414   2.156
 1107TIP3    H224881   6.558   0.557   2.192
 1108TIP3   OH224882   5.141   4.752   1.958
 1108TIP3    H124883   5.128   4.659   1.979
 1108TIP3    H224884   5.055   4.792   1.967
 1109TIP3   OH224885   0.080   0.986   0.292
 1109TIP3    H124886   0.113   0.896   0.295
 1109TIP3    H224887   0.013   0.985   0.224
 1110TIP3   OH224888   5.850   3.688   2.065
 1110TIP3    H124889   5.906   3.748   2.016
 1110TIP3    H224890   5.897   3.604   2.062
 1111TIP3   OH224891   3.779   5.396   1.711
 1111TIP3    H124892   3.785   5.367   1.802
 1111TIP3    H224893   3.767   5.316   1.660
 1112TIP3   OH224894   2.969   6.084   8.383
 1112TIP3    H124895   2.990   5.995   8.410
 1112TIP3    H224896   2.948   6.076   8.290
 1113TIP3   OH224897   5.452   3.905   8.200
 1113TIP3    H124898   5.453   3.986   8.150
 1113TIP3    H224899   5.438   3.933   8.291
 1114TIP3   OH224900   1.968   0.732   7.288
 1114TIP3    H124901   1.921   0.653   7.261
 1114TIP3    H224902   2.053   0.727   7.243
 1115TIP3   OH224903   3.067   2.356   0.249
 1115TIP3    H124904   3.130   2.405   0.196
 1115TIP3    H224905   3.122   2.303   0.308
 1116TIP3   OH224906   2.678   3.029   7.328
 1116TIP3    H124907   2.746   3.095   7.317
 1116TIP3    H224908   2.723   2.945   7.319
 1117TIP3   OH224909   0.614   1.827   1.454
 1117TIP3    H124910   0.609   1.736   1.424
 1117TIP3    H224911   0.574   1.878   1.384
 1118TIP3   OH224912   4.177   1.574   1.313
 1118TIP3    H124913   4.153   1.496   1.264
 1118TIP3    H224914   4.270   1.565   1.330
 1119TIP3   OH224915   3.042   0.583   1.908
 1119TIP3    H124916   2.964   0.631   1.881
 1119TIP3    H224917   3.009   0.518   1.971
 1120TIP3   OH224918   0.257   5.918   6.909
 1120TIP3    H124919   0.350   5.894   6.909
 1120TIP3    H224920   0.216   5.856   6.849
 1121TIP3   OH224921   1.571   6.047   1.803
 1121TIP3    H124922   1.479   6.030   1.781
 1121TIP3    H224923   1.568   6.126   1.856
 1122TIP3   OH224924   6.654   5.357   7.917
 1122TIP3    H124925   6.569   5.317   7.894
 1122TIP3    H224926   6.631   5.440   7.959
 1123TIP3   OH224927   5.962   3.408   1.170
 1123TIP3    H124928   5.906   3.478   1.203
 1123TIP3    H224929   5.924   3.383   1.086
 1124TIP3   OH224930   3.889   1.469   0.987
 1124TIP3    H124931   3.982   1.487   0.974
 1124TIP3    H224932   3.865   1.521   1.064
 1125TIP3   OH224933   6.455   2.797   7.804
 1125TIP3    H124934   6.542   2.835   7.794
 1125TIP3    H224935   6.470   2.712   7.844
 1126TIP3   OH224936   4.556   6.577   8.419
 1126TIP3    H124937   4.514   6.557   8.336
 1126TIP3    H224938   4.487   6.615   8.473
 1127TIP3   OH224939   5.723   4.698   8.101
 1127TIP3    H124940   5.747   4.607   8.119
 1127TIP3    H224941   5.791   4.750   8.145
 1128TIP3   OH224942   3.307   4.298   0.684
 1128TIP3    H124943   3.270   4.307   0.772
 1128TIP3    H224944   3.249   4.349   0.628
 1129TIP3   OH224945   6.100   0.517   6.789
 1129TIP3    H124946   6.005   0.507   6.782
 1129TIP3    H224947   6.133   0.500   6.701
 1130TIP3   OH224948   3.346   5.976   8.763
 1130TIP3    H124949   3.438   5.967   0.007
 1130TIP3    H224950   3.335   6.070   8.749
 1131TIP3   OH224951   3.374   6.748   6.287
 1131TIP3    H124952   3.464   6.720   6.270
 1131TIP3    H224953   3.322   6.703   6.221
 1132TIP3   OH224954   0.318   1.665   0.245
 1132TIP3    H124955   0.329   1.704   0.332
 1132TIP3    H224956   0.398   1.614   0.232
 1133TIP3   OH224957   4.176   3.276   7.301
 1133TIP3    H124958   4.175   3.349   7.240
 1133TIP3    H224959   4.084   3.250   7.308
 1134TIP3   OH224960   0.433   6.649   0.216
 1134TIP3    H124961   0.359   6.657   0.275
 1134TIP3    H224962   0.410   6.706   0.142
 1135TIP3   OH224963   3.418   2.252   7.545
 1135TIP3    H124964   3.407   2.276   7.637
 1135TIP3    H224965   3.444   2.159   7.548
 1136TIP3   OH224966   4.996   3.734   7.001
 1136TIP3    H124967   5.018   3.641   7.002
 1136TIP3    H224968   4.920   3.740   6.943
 1137TIP3   OH224969   4.174   1.843   8.509
 1137TIP3    H124970   4.136   1.783   8.573
 1137TIP3    H224971   4.136   1.928   8.530
 1138TIP3   OH224972   0.514   4.385   2.091
 1138TIP3    H124973   0.591   4.407   2.038
 1138TIP3    H224974   0.542   4.310   2.143
 1139TIP3   OH224975   5.563   0.089   1.718
 1139TIP3    H124976   5.503   0.155   1.684
 1139TIP3    H224977   5.537   0.078   1.810
 1140TIP3   OH224978   0.587   3.064   0.989
 1140TIP3    H124979   0.626   3.135   1.040
 1140TIP3    H224980   0.495   3.065   1.013
 1141TIP3   OH224981   5.649   5.005   7.604
 1141TIP3    H124982   5.647   5.035   7.695
 1141TIP3    H224983   5.733   5.037   7.571
 1142TIP3   OH224984   4.699   2.723   6.916
 1142TIP3    H124985   4.659   2.676   6.989
 1142TIP3    H224986   4.627   2.737   6.854
 1143TIP3   OH224987   6.635   1.812   0.348
 1143TIP3    H124988   6.604   1.902   0.343
 1143TIP3    H224989   6.722   1.815   0.309
 1144TIP3   OH224990   0.703   3.726   8.366
 1144TIP3    H124991   0.621   3.751   8.324
 1144TIP3    H224992   0.743   3.809   8.392
 1145TIP3   OH224993   1.112   1.337   7.452
 1145TIP3    H124994   1.167   1.283   7.508
 1145TIP3    H224995   1.167   1.412   7.429
 1146TIP3   OH224996   5.682   1.163   7.874
 1146TIP3    H124997   5.593   1.175   7.841
 1146TIP3    H224998   5.724   1.248   7.864
 1147TIP3   OH224999   3.099   4.527   6.774
 1147TIP3    H125000   3.011   4.493   6.791
 1147TIP3    H225001   3.157   4.452   6.785
 1148TIP3   OH225002   4.369   6.414   1.473
 1148TIP3    H125003   4.328   6.336   1.510
 1148TIP3    H225004   4.309   6.485   1.495
 1149TIP3   OH225005   2.818   3.997   7.197
 1149TIP3    H125006   2.745   4.057   7.214
 1149TIP3    H225007   2.840   3.960   7.282
 1150TIP3   OH225008   3.610   2.265   7.765
 1150TIP3    H125009   3.674   2.233   7.828
 1150TIP3    H225010   3.662   2.311   7.699
 1151TIP3   OH225011   6.577   5.704   2.056
 1151TIP3    H125012   6.519   5.640   2.015
 1151TIP3    H225013   6.665   5.667   2.046
 1152TIP3   OH225014   1.706   0.130   7.829
 1152TIP3    H125015   1.788   0.099   7.790
 1152TIP3    H225016   1.720   0.224   7.843
 1153TIP3   OH225017   4.754   4.673   7.664
 1153TIP3    H125018   4.750   4.602   7.599
 1153TIP3    H225019   4.682   4.731   7.640
 1154TIP3   OH225020   1.192   5.720   8.577
 1154TIP3    H125021   1.203   5.716   8.672
 1154TIP3    H225022   1.275   5.755   8.544
 1155TIP3   OH225023   4.318   0.183   0.009
 1155TIP3    H125024   4.294   0.271   0.038
 1155TIP3    H225025   4.235   0.144   8.763
 1156TIP3   OH225026   0.016   1.844   7.410
 1156TIP3    H125027   0.106   1.819   7.388
 1156TIP3    H225028   6.801   1.809   7.338
 1157TIP3   OH225029   2.286   1.087   8.540
 1157TIP3    H125030   2.210   1.141   8.560
 1157TIP3    H225031   2.260   1.036   8.463
 1158TIP3   OH225032   6.425   5.399   8.207
 1158TIP3    H125033   6.485   5.466   8.174
 1158TIP3    H225034   6.476   5.352   8.273
 1159TIP3   OH225035   2.576   0.993   6.517
 1159TIP3    H125036   2.614   0.992   6.605
 1159TIP3    H225037   2.637   0.941   6.464
 1160TIP3   OH225038   3.180   0.008   8.522
 1160TIP3    H125039   3.162   0.030   8.613
 1160TIP3    H225040   3.238   6.771   8.526
 1161TIP3   OH225041   0.145   3.668   0.606
 1161TIP3    H125042   0.092   3.619   0.669
 1161TIP3    H225043   0.226   3.619   0.599
 1162TIP3   OH225044   0.217   6.051   1.519
 1162TIP3    H125045   0.260   5.999   1.587
 1162TIP3    H225046   0.285   6.113   1.491
 1163TIP3   OH225047   2.903   6.028   8.105
 1163TIP3    H125048   2.946   5.987   8.029
 1163TIP3    H225049   2.847   6.095   8.067
 1164TIP3   OH225050   3.134   5.169   1.372
 1164TIP3    H125051   3.052   5.166   1.422
 1164TIP3    H225052   3.106   5.173   1.281
 1165TIP3   OH225053   1.189   6.198   0.887
 1165TIP3    H125054   1.193   6.277   0.941
 1165TIP3    H225055   1.129   6.221   0.816
 1166TIP3   OH225056   0.116   2.910   7.275
 1166TIP3    H125057   0.160   2.852   7.337
 1166TIP3    H225058   0.079   2.852   7.209
 1167TIP3   OH225059   4.749   1.313   6.511
 1167TIP3    H125060   4.726   1.350   6.426
 1167TIP3    H225061   4.664   1.292   6.552
 1168TIP3   OH225062   5.211   3.597   6.143
 1168TIP3    H125063   5.305   3.615   6.148
 1168TIP3    H225064   5.206   3.502   6.131
 1169TIP3   OH225065   0.076   4.706   6.895
 1169TIP3    H125066   0.161   4.671   6.922
 1169TIP3    H225067   0.090   4.737   6.806
 1170TIP3   OH225068   6.045   0.009   0.832
 1170TIP3    H125069   6.050   6.752   0.828
 1170TIP3    H225070   6.132   0.036   0.861
 1171TIP3   OH225071   4.549   4.642   7.885
 1171TIP3    H125072   4.520   4.733   7.888
 1171TIP3    H225073   4.616   4.641   7.817
 1172TIP3   OH225074   2.543   6.741   1.897
 1172TIP3    H125075   2.531   6.821   1.948
 1172TIP3    H225076   2.528   6.768   1.807
 1173TIP3   OH225077   5.704   2.313   1.345
 1173TIP3    H125078   5.684   2.281   1.433
 1173TIP3    H225079   5.632   2.282   1.290
 1174TIP3   OH225080   3.685   2.940   8.345
 1174TIP3    H125081   3.608   2.978   8.303
 1174TIP3    H225082   3.758   2.996   8.318
 1175TIP3   OH225083   4.156   5.394   1.115
 1175TIP3    H125084   4.165   5.309   1.159
 1175TIP3    H225085   4.154   5.458   1.187
 1176TIP3   OH225086   3.332   4.974   7.387
 1176TIP3    H125087   3.411   4.953   7.438
 1176TIP3    H225088   3.272   4.901   7.405
 1177TIP3   OH225089   4.277   0.866   1.298
 1177TIP3    H125090   4.284   0.793   1.359
 1177TIP3    H225091   4.317   0.940   1.344
 1178TIP3   OH225092   2.904   2.175   0.087
 1178TIP3    H125093   2.873   2.227   0.013
 1178TIP3    H225094   2.976   2.226   0.123
 1179TIP3   OH225095   3.066   2.187   0.685
 1179TIP3    H125096   3.040   2.135   0.761
 1179TIP3    H225097   2.990   2.243   0.667
 1180TIP3   OH225098   1.334   2.920   0.478
 1180TIP3    H125099   1.280   2.927   0.557
 1180TIP3    H225100   1.404   2.984   0.492
 1181TIP3   OH225101   1.831   1.758   7.111
 1181TIP3    H125102   1.917   1.798   7.110
 1181TIP3    H225103   1.812   1.740   7.019
 1182TIP3   OH225104   0.970   6.560   8.201
 1182TIP3    H125105   0.989   6.607   8.283
 1182TIP3    H225106   1.055   6.552   8.159
 1183TIP3   OH225107   3.174   0.140   0.840
 1183TIP3    H125108   3.103   0.083   0.811
 1183TIP3    H225109   3.254   0.094   0.814
 1184TIP3   OH225110   2.960   3.595   1.936
 1184TIP3    H125111   2.946   3.502   1.919
 1184TIP3    H225112   2.891   3.618   1.999
 1185TIP3   OH225113   4.681   6.318   8.179
 1185TIP3    H125114   4.648   6.246   8.124
 1185TIP3    H225115   4.620   6.390   8.164
 1186TIP3   OH225116   5.113   2.080   6.674
 1186TIP3    H125117   5.174   2.007   6.688
 1186TIP3    H225118   5.155   2.134   6.608
 1187TIP3   OH225119   6.506   5.035   8.040
 1187TIP3    H125120   6.475   4.945   8.028
 1187TIP3    H225121   6.472   5.083   7.965
 1188TIP3   OH225122   4.698   0.021   0.606
 1188TIP3    H125123   4.759   0.092   0.587
 1188TIP3    H225124   4.700   0.012   0.702
 1189TIP3   OH225125   4.153   2.746   1.102
 1189TIP3    H125126   4.146   2.728   1.008
 1189TIP3    H225127   4.116   2.833   1.113
 1190TIP3   OH225128   6.392   5.182   0.855
 1190TIP3    H125129   6.376   5.128   0.777
 1190TIP3    H225130   6.387   5.120   0.928
 1191TIP3   OH225131   4.822   6.751   7.535
 1191TIP3    H125132   4.731   6.727   7.522
 1191TIP3    H225133   4.822   0.009   7.531
 1192TIP3   OH225134   6.424   5.459   6.526
 1192TIP3    H125135   6.394   5.493   6.610
 1192TIP3    H225136   6.493   5.520   6.499
 1193TIP3   OH225137   2.168   2.306   7.489
 1193TIP3    H125138   2.218   2.282   7.411
 1193TIP3    H225139   2.223   2.371   7.534
 1194TIP3   OH225140   4.877   2.344   6.750
 1194TIP3    H125141   4.859   2.269   6.694
 1194TIP3    H225142   4.854   2.315   6.838
 1195TIP3   OH225143   0.200   0.820   8.710
 1195TIP3    H125144   0.248   0.794   0.006
 1195TIP3    H225145   0.150   0.742   8.685
 1196TIP3   OH225146   0.853   4.994   2.184
 1196TIP3    H125147   0.927   5.032   2.233
 1196TIP3    H225148   0.838   5.057   2.113
 1197TIP3   OH225149   4.713   1.049   2.431
 1197TIP3    H125150   4.761   1.072   2.351
 1197TIP3    H225151   4.679   0.962   2.413
 1198TIP3   OH225152   4.440   3.283   8.584
 1198TIP3    H125153   4.417   3.301   8.675
 1198TIP3    H225154   4.487   3.199   8.588
 1199TIP3   OH225155   5.680   5.713   7.963
 1199TIP3    H125156   5.640   5.630   7.991
 1199TIP3    H225157   5.769   5.708   7.997
 1200TIP3   OH225158   2.269   3.508   7.806
 1200TIP3    H125159   2.225   3.559   7.873
 1200TIP3    H225160   2.320   3.443   7.854
 1201TIP3   OH225161   5.891   2.235   1.174
 1201TIP3    H125162   5.964   2.173   1.176
 1201TIP3    H225163   5.842   2.217   1.255
 1202TIP3   OH225164   2.766   2.754   8.399
 1202TIP3    H125165   2.843   2.809   8.411
 1202TIP3    H225166   2.693   2.815   8.397
 1203TIP3   OH225167   0.855   4.900   7.230
 1203TIP3    H125168   0.916   4.921   7.160
 1203TIP3    H225169   0.861   4.805   7.240
 1204TIP3   OH225170   2.878   5.250   7.907
 1204TIP3    H125171   2.897   5.159   7.885
 1204TIP3    H225172   2.783   5.258   7.897
 1205TIP3   OH225173   0.353   1.229   6.971
 1205TIP3    H125174   0.386   1.140   6.985
 1205TIP3    H225175   0.422   1.286   7.005
 1206TIP3   OH225176   5.087   2.518   6.694
 1206TIP3    H125177   5.084   2.533   6.600
 1206TIP3    H225178   4.999   2.485   6.715
 1207TIP3   OH225179   1.140   1.015   7.424
 1207TIP3    H125180   1.197   0.950   7.383
 1207TIP3    H225181   1.067   1.025   7.363
 1208TIP3   OH225182   3.296   0.298   1.789
 1208TIP3    H125183   3.219   0.282   1.844
 1208TIP3    H225184   3.261   0.340   1.710
 1209TIP3   OH225185   4.085   2.780   0.526
 1209TIP3    H125186   4.163   2.772   0.581
 1209TIP3    H225187   4.118   2.814   0.443
 1210TIP3   OH225188   4.282   0.153   6.972
 1210TIP3    H125189   4.365   0.108   6.955
 1210TIP3    H225190   4.215   0.088   6.954
 1211TIP3   OH225191   4.168   5.781   2.025
 1211TIP3    H125192   4.263   5.767   2.027
 1211TIP3    H225193   4.139   5.758   2.114
 1212TIP3   OH225194   5.745   3.672   8.633
 1212TIP3    H125195   5.701   3.646   8.714
 1212TIP3    H225196   5.729   3.600   8.572
 1213TIP3   OH225197   6.719   4.318   8.248
 1213TIP3    H125198   6.689   4.229   8.267
 1213TIP3    H225199   6.670   4.373   8.309
 1214TIP3   OH225200   5.493   2.647   0.492
 1214TIP3    H125201   5.420   2.589   0.472
 1214TIP3    H225202   5.511   2.633   0.585
 1215TIP3   OH225203   6.804   3.041   1.452
 1215TIP3    H125204   0.020   3.014   1.526
 1215TIP3    H225205   6.770   3.127   1.477
 1216TIP3   OH225206   5.825   3.142   1.259
 1216TIP3    H125207   5.884   3.073   1.289
 1216TIP3    H225208   5.878   3.222   1.263
 1217TIP3   OH225209   4.806   2.415   0.163
 1217TIP3    H125210   4.784   2.331   0.122
 1217TIP3    H225211   4.881   2.395   0.219
 1218TIP3   OH225212   5.998   1.077   7.366
 1218TIP3    H125213   6.023   1.150   7.422
 1218TIP3    H225214   6.082   1.038   7.340
 1219TIP3   OH225215   4.043   5.620   7.326
 1219TIP3    H125216   4.050   5.664   7.241
 1219TIP3    H225217   4.034   5.528   7.305
 1220TIP3   OH225218   6.321   1.895   1.158
 1220TIP3    H125219   6.337   1.882   1.252
 1220TIP3    H225220   6.359   1.817   1.116
 1221TIP3   OH225221   5.652   3.400   1.564
 1221TIP3    H125222   5.641   3.414   1.470
 1221TIP3    H225223   5.742   3.371   1.574
 1222TIP3   OH225224   2.779   5.872   8.321
 1222TIP3    H125225   2.805   5.844   8.409
 1222TIP3    H225226   2.859   5.909   8.284
 1223TIP3   OH225227   2.871   5.792   8.597
 1223TIP3    H125228   2.888   5.729   8.666
 1223TIP3    H225229   2.799   5.846   8.631
 1224TIP3   OH225230   0.072   6.276   1.414
 1224TIP3    H125231   0.099   6.282   1.322
 1224TIP3    H225232   0.095   6.187   1.440
 1225TIP3   OH225233   2.867   1.920   1.478
 1225TIP3    H125234   2.875   1.993   1.539
 1225TIP3    H225235   2.950   1.919   1.430
 1226TIP3   OH225236   5.293   6.162   8.337
 1226TIP3    H125237   5.249   6.247   8.332
 1226TIP3    H225238   5.360   6.166   8.269
 1227TIP3   OH225239   1.085   3.212   1.792
 1227TIP3    H125240   1.014   3.204   1.856
 1227TIP3    H225241   1.153   3.262   1.837
 1228TIP3   OH225242   5.265   3.923   0.646
 1228TIP3    H125243   5.325   3.891   0.714
 1228TIP3    H225244   5.276   3.861   0.574
 1229TIP3   OH225245   3.119   5.087   8.192
 1229TIP3    H125246   3.054   5.098   8.261
 1229TIP3    H225247   3.116   5.169   8.143
 1230TIP3   OH225248   6.789   0.412   0.290
 1230TIP3    H125249   6.831   0.336   0.250
 1230TIP3    H225250   6.702   0.380   0.315
 1231TIP3   OH225251   5.653   3.434   7.212
 1231TIP3    H125252   5.569   3.443   7.257
 1231TIP3    H225253   5.711   3.396   7.278
 1232TIP3   OH225254   0.950   1.871   8.016
 1232TIP3    H125255   1.004   1.887   7.938
 1232TIP3    H225256   0.960   1.951   8.068
 1233TIP3   OH225257   5.779   0.224   1.861
 1233TIP3    H125258   5.727   0.297   1.896
 1233TIP3    H225259   5.720   0.178   1.802
 1234TIP3   OH225260   5.968   0.303   0.773
 1234TIP3    H125261   6.005   0.215   0.785
 1234TIP3    H225262   5.894   0.291   0.713
 1235TIP3   OH225263   4.619   4.226   1.565
 1235TIP3    H125264   4.553   4.191   1.505
 1235TIP3    H225265   4.670   4.150   1.591
 1236TIP3   OH225266   4.427   6.037   2.022
 1236TIP3    H125267   4.410   5.943   2.031
 1236TIP3    H225268   4.491   6.044   1.952
 1237TIP3   OH225269   6.262   0.775   7.340
 1237TIP3    H125270   6.309   0.844   7.292
 1237TIP3    H225271   6.212   0.729   7.273
 1238TIP3   OH225272   5.342   5.987   1.739
 1238TIP3    H125273   5.336   5.898   1.773
 1238TIP3    H225274   5.257   6.026   1.760
 1239TIP3   OH225275   5.503   0.031   1.979
 1239TIP3    H125276   5.412   0.015   1.954
 1239TIP3    H225277   5.498   0.088   2.055
 1240TIP3   OH225278   2.694   4.779   2.204
 1240TIP3    H125279   2.774   4.745   2.163
 1240TIP3    H225280   2.628   4.777   2.135
 1241TIP3   OH225281   1.251   4.052   7.814
 1241TIP3    H125282   1.183   4.049   7.882
 1241TIP3    H225283   1.227   4.127   7.760
 1242TIP3   OH225284   1.893   0.041   7.632
 1242TIP3    H125285   1.831   0.090   7.578
 1242TIP3    H225286   1.964   0.018   7.572
 1243TIP3   OH225287   2.417   0.010   1.095
 1243TIP3    H125288   2.441   6.827   1.005
 1243TIP3    H225289   2.329   0.049   1.088
 1244TIP3   OH225290   3.667   6.247   6.431
 1244TIP3    H125291   3.591   6.304   6.414
 1244TIP3    H225292   3.720   6.297   6.494
 1245TIP3   OH225293   2.011   0.221   8.177
 1245TIP3    H125294   1.967   0.263   8.250
 1245TIP3    H225295   1.943   0.205   8.113
 1246TIP3   OH225296   2.757   3.810   7.028
 1246TIP3    H125297   2.798   3.881   7.077
 1246TIP3    H225298   2.691   3.852   6.973
 1247TIP3   OH225299   5.797   1.685   1.818
 1247TIP3    H125300   5.845   1.755   1.773
 1247TIP3    H225301   5.755   1.729   1.892
 1248TIP3   OH225302   4.977   5.861   7.562
 1248TIP3    H125303   4.951   5.882   7.472
 1248TIP3    H225304   5.062   5.904   7.573
 1249TIP3   OH225305   5.095   0.593   6.697
 1249TIP3    H125306   5.052   0.544   6.627
 1249TIP3    H225307   5.023   0.640   6.740
 1250TIP3   OH225308   1.622   2.421   7.243
 1250TIP3    H125309   1.606   2.334   7.205
 1250TIP3    H225310   1.608   2.482   7.170
 1251TIP3   OH225311   1.626   0.185   1.128
 1251TIP3    H125312   1.536   0.165   1.100
 1251TIP3    H225313   1.617   0.267   1.177
 1252TIP3   OH225314   4.254   6.819   1.717
 1252TIP3    H125315   4.179   0.009   1.666
 1252TIP3    H225316   4.255   6.724   1.707
 1253TIP3   OH225317   1.919   5.925   7.046
 1253TIP3    H125318   1.899   5.977   6.969
 1253TIP3    H225319   1.895   5.835   7.022
 1254TIP3   OH225320   6.103   1.170   8.420
 1254TIP3    H125321   6.111   1.156   8.326
 1254TIP3    H225322   6.194   1.172   8.451
 1255TIP3   OH225323   0.965   3.354   2.099
 1255TIP3    H125324   1.026   3.422   2.071
 1255TIP3    H225325   0.888   3.402   2.130
 1256TIP3   OH225326   1.384   1.497   0.587
 1256TIP3    H125327   1.345   1.558   0.649
 1256TIP3    H225328   1.374   1.540   0.502
 1257TIP3   OH225329   6.368   4.773   0.856
 1257TIP3    H125330   6.455   4.743   0.884
 1257TIP3    H225331   6.315   4.773   0.936
 1258TIP3   OH225332   4.461   0.925   0.110
 1258TIP3    H125333   4.549   0.910   0.075
 1258TIP3    H225334   4.462   0.883   0.196
 1259TIP3   OH225335   0.017   5.033   0.058
 1259TIP3    H125336   0.044   5.053   8.751
 1259TIP3    H225337   0.019   4.938   0.063
 1260TIP3   OH225338   3.511   6.528   7.365
 1260TIP3    H125339   3.538   6.607   7.411
 1260TIP3    H225340   3.592   6.491   7.331
 1261TIP3   OH225341   4.103   3.757   1.611
 1261TIP3    H125342   4.121   3.665   1.595
 1261TIP3    H225343   4.161   3.781   1.684
 1262TIP3   OH225344   3.917   3.397   6.940
 1262TIP3    H125345   3.841   3.365   6.988
 1262TIP3    H225346   3.886   3.410   6.851
 1263TIP3   OH225347   5.352   2.625   2.338
 1263TIP3    H125348   5.357   2.561   2.409
 1263TIP3    H225349   5.396   2.703   2.374
 1264TIP3   OH225350   6.564   1.012   0.270
 1264TIP3    H125351   6.592   0.922   0.255
 1264TIP3    H225352   6.520   1.037   0.188
 1265TIP3   OH225353   6.558   2.529   7.881
 1265TIP3    H125354   6.511   2.475   7.944
 1265TIP3    H225355   6.559   2.478   7.800
 1266TIP3   OH225356   2.030   3.899   0.744
 1266TIP3    H125357   2.122   3.927   0.752
 1266TIP3    H225358   2.006   3.872   0.832
 1267TIP3   OH225359   3.915   1.299   8.125
 1267TIP3    H125360   3.842   1.356   8.146
 1267TIP3    H225361   3.968   1.298   8.205
 1268TIP3   OH225362   0.055   6.483   0.504
 1268TIP3    H125363   0.097   6.397   0.501
 1268TIP3    H225364   0.018   6.489   0.592
 1269TIP3   OH225365   6.431   2.459   7.269
 1269TIP3    H125366   6.376   2.458   7.191
 1269TIP3    H225367   6.510   2.411   7.243
 1270TIP3   OH225368   6.297   2.808   0.355
 1270TIP3    H125369   6.246   2.814   0.436
 1270TIP3    H225370   6.238   2.764   0.293
 1271TIP3   OH225371   3.048   5.200   0.201
 1271TIP3    H125372   2.981   5.134   0.185
 1271TIP3    H225373   3.000   5.277   0.231
 1272TIP3   OH225374   1.341   5.490   1.016
 1272TIP3    H125375   1.254   5.457   1.040
 1272TIP3    H225376   1.338   5.496   0.921
 1273TIP3   OH225377   4.247   3.808   1.995
 1273TIP3    H125378   4.321   3.748   1.987
 1273TIP3    H225379   4.268   3.882   1.938
 1274TIP3   OH225380   0.094   1.738   1.091
 1274TIP3    H125381   0.057   1.734   1.002
 1274TIP3    H225382   0.062   1.821   1.126
 1275TIP3   OH225383   4.728   2.377   7.719
 1275TIP3    H125384   4.644   2.338   7.694
 1275TIP3    H225385   4.716   2.406   7.809
 1276TIP3   OH225386   0.890   2.008   7.028
 1276TIP3    H125387   0.934   2.018   7.112
 1276TIP3    H225388   0.944   2.058   6.966
 1277TIP3   OH225389   3.933   3.156   6.592
 1277TIP3    H125390   3.883   3.103   6.654
 1277TIP3    H225391   3.884   3.238   6.585
 1278TIP3   OH225392   3.051   6.521   8.682
 1278TIP3    H125393   3.129   6.537   8.735
 1278TIP3    H225394   2.996   6.598   8.695
 1279TIP3   OH225395   1.824   4.777   1.474
 1279TIP3    H125396   1.816   4.683   1.453
 1279TIP3    H225397   1.787   4.821   1.398
 1280TIP3   OH225398   1.424   6.527   7.738
 1280TIP3    H125399   1.496   6.472   7.707
 1280TIP3    H225400   1.440   6.612   7.697
 1281TIP3   OH225401   0.755   0.073   1.567
 1281TIP3    H125402   0.850   0.072   1.573
 1281TIP3    H225403   0.737   0.117   1.484
 1282TIP3   OH225404   0.758   5.434   7.435
 1282TIP3    H125405   0.742   5.346   7.470
 1282TIP3    H225406   0.853   5.438   7.423
 1283TIP3   OH225407   6.498   3.926   2.421
 1283TIP3    H125408   6.442   3.864   2.373
 1283TIP3    H225409   6.439   3.999   2.442
 1284TIP3   OH225410   5.335   4.239   0.489
 1284TIP3    H125411   5.287   4.269   0.567
 1284TIP3    H225412   5.382   4.317   0.459
 1285TIP3   OH225413   3.441   4.381   0.144
 1285TIP3    H125414   3.492   4.341   0.215
 1285TIP3    H225415   3.416   4.307   0.088
 1286TIP3   OH225416   3.655   4.466   7.141
 1286TIP3    H125417   3.653   4.429   7.230
 1286TIP3    H225418   3.579   4.524   7.138
 1287TIP3   OH225419   4.027   1.186   7.908
 1287TIP3    H125420   3.987   1.230   7.984
 1287TIP3    H225421   4.067   1.107   7.945
 1288TIP3   OH225422   5.462   5.793   8.532
 1288TIP3    H125423   5.480   5.878   8.493
 1288TIP3    H225424   5.368   5.780   8.520
 1289TIP3   OH225425   5.000   2.688   8.016
 1289TIP3    H125426   4.935   2.624   8.047
 1289TIP3    H225427   5.057   2.637   7.959
 1290TIP3   OH225428   1.361   6.125   0.547
 1290TIP3    H125429   1.314   6.042   0.552
 1290TIP3    H225430   1.333   6.164   0.464
 1291TIP3   OH225431   3.380   5.074   1.385
 1291TIP3    H125432   3.363   4.983   1.409
 1291TIP3    H225433   3.293   5.109   1.362
 1292TIP3   OH225434   4.436   1.996   0.788
 1292TIP3    H125435   4.387   2.065   0.833
 1292TIP3    H225436   4.527   2.024   0.794
 1293TIP3   OH225437   5.808   6.204   7.554
 1293TIP3    H125438   5.779   6.291   7.527
 1293TIP3    H225439   5.731   6.164   7.594
 1294TIP3   OH225440   6.751   0.799   7.282
 1294TIP3    H125441   6.838   0.812   7.320
 1294TIP3    H225442   6.720   0.887   7.263
 1295TIP3   OH225443   1.172   4.349   1.701
 1295TIP3    H125444   1.102   4.412   1.682
 1295TIP3    H225445   1.178   4.296   1.621
 1296TIP3   OH225446   6.704   3.559   1.479
 1296TIP3    H125447   6.735   3.555   1.569
 1296TIP3    H225448   6.678   3.651   1.467
 1297TIP3   OH225449   3.733   4.773   1.505
 1297TIP3    H125450   3.743   4.685   1.471
 1297TIP3    H225451   3.678   4.763   1.583
 1298TIP3   OH225452   6.370   6.677   0.206
 1298TIP3    H125453   6.455   6.693   0.246
 1298TIP3    H225454   6.308   6.725   0.261
 1299TIP3   OH225455   0.522   5.772   1.965
 1299TIP3    H125456   0.537   5.778   2.059
 1299TIP3    H225457   0.495   5.860   1.939
 1300TIP3   OH225458   1.207   1.340   1.216
 1300TIP3    H125459   1.114   1.353   1.234
 1300TIP3    H225460   1.245   1.428   1.226
 1301TIP3   OH225461   2.791   2.846   8.760
 1301TIP3    H125462   2.882   2.834   8.733
 1301TIP3    H225463   2.795   2.845   0.074
 1302TIP3   OH225464   3.642   5.918   2.164
 1302TIP3    H125465   3.596   5.843   2.126
 1302TIP3    H225466   3.725   5.921   2.116
 1303TIP3   OH225467   0.942   0.117   8.434
 1303TIP3    H125468   0.988   0.127   8.351
 1303TIP3    H225469   0.899   0.201   8.449
 1304TIP3   OH225470   3.489   0.427   7.064
 1304TIP3    H125471   3.427   0.400   6.996
 1304TIP3    H225472   3.538   0.498   7.024
 1305TIP3   OH225473   0.789   4.145   1.011
 1305TIP3    H125474   0.845   4.222   1.016
 1305TIP3    H225475   0.741   4.145   1.094
 1306TIP3   OH225476   2.343   0.508   1.461
 1306TIP3    H125477   2.314   0.582   1.407
 1306TIP3    H225478   2.430   0.486   1.428
 1307TIP3   OH225479   3.712   4.548   1.690
 1307TIP3    H125480   3.773   4.490   1.645
 1307TIP3    H225481   3.736   4.541   1.783
 1308TIP3   OH225482   3.971   6.229   6.894
 1308TIP3    H125483   3.985   6.161   6.827
 1308TIP3    H225484   3.875   6.236   6.900
 1309TIP3   OH225485   1.963   3.438   1.651
 1309TIP3    H125486   1.936   3.401   1.567
 1309TIP3    H225487   2.059   3.440   1.647
 1310TIP3   OH225488   2.987   1.583   6.307
 1310TIP3    H125489   2.994   1.506   6.249
 1310TIP3    H225490   3.077   1.600   6.335
 1311TIP3   OH225491   5.278   6.094   1.505
 1311TIP3    H125492   5.214   6.160   1.532
 1311TIP3    H225493   5.302   6.049   1.585
 1312TIP3   OH225494   6.503   1.958   6.680
 1312TIP3    H125495   6.455   2.023   6.732
 1312TIP3    H225496   6.447   1.881   6.680
 1313TIP3   OH225497   6.352   1.674   0.213
 1313TIP3    H125498   6.279   1.621   0.180
 1313TIP3    H225499   6.382   1.724   0.137
 1314TIP3   OH225500   2.250   2.137   8.121
 1314TIP3    H125501   2.252   2.210   8.183
 1314TIP3    H225502   2.340   2.106   8.117
 1315TIP3   OH225503   5.585   5.107   7.165
 1315TIP3    H125504   5.652   5.118   7.233
 1315TIP3    H225505   5.546   5.194   7.155
 1316TIP3   OH225506   5.550   5.451   7.984
 1316TIP3    H125507   5.533   5.430   8.076
 1316TIP3    H225508   5.618   5.389   7.958
 1317TIP3   OH225509   6.261   0.041   1.287
 1317TIP3    H125510   6.225   0.022   1.373
 1317TIP3    H225511   6.185   0.071   1.236
 1318TIP3   OH225512   5.606   5.485   1.759
 1318TIP3    H125513   5.692   5.497   1.799
 1318TIP3    H225514   5.555   5.560   1.790
 1319TIP3   OH225515   3.149   0.111   0.032
 1319TIP3    H125516   3.206   0.061   0.090
 1319TIP3    H225517   3.113   0.180   0.087
 1320TIP3   OH225518   3.620   1.522   8.253
 1320TIP3    H125519   3.543   1.573   8.278
 1320TIP3    H225520   3.612   1.512   8.158
 1321TIP3   OH225521   3.294   1.358   1.753
 1321TIP3    H125522   3.295   1.263   1.737
 1321TIP3    H225523   3.242   1.367   1.833
 1322TIP3   OH225524   0.444   0.991   1.289
 1322TIP3    H125525   0.352   0.969   1.305
 1322TIP3    H225526   0.443   1.043   1.208
 1323TIP3   OH225527   1.071   2.273   6.279
 1323TIP3    H125528   1.130   2.249   6.351
 1323TIP3    H225529   1.127   2.276   6.202
 1324TIP3   OH225530   5.588   5.927   1.612
 1324TIP3    H125531   5.512   5.951   1.664
 1324TIP3    H225532   5.652   5.897   1.676
 1325TIP3   OH225533   6.142   5.946   0.097
 1325TIP3    H125534   6.087   6.001   0.041
 1325TIP3    H225535   6.226   5.943   0.051
 1326TIP3   OH225536   4.505   4.915   7.813
 1326TIP3    H125537   4.509   4.962   7.730
 1326TIP3    H225538   4.473   4.979   7.876
 1327TIP3   OH225539   1.149   2.577   1.109
 1327TIP3    H125540   1.228   2.550   1.062
 1327TIP3    H225541   1.100   2.496   1.124
 1328TIP3   OH225542   0.211   1.512   1.220
 1328TIP3    H125543   0.153   1.437   1.233
 1328TIP3    H225544   0.154   1.580   1.184
 1329TIP3   OH225545   0.198   0.709   0.816
 1329TIP3    H125546   0.152   0.632   0.783
 1329TIP3    H225547   0.193   0.772   0.744
 1330TIP3   OH225548   6.113   6.301   6.849
 1330TIP3    H125549   6.162   6.298   6.931
 1330TIP3    H225550   6.128   6.389   6.815
 1331TIP3   OH225551   5.964   4.209   7.399
 1331TIP3    H125552   5.873   4.217   7.370
 1331TIP3    H225553   5.976   4.115   7.414
 1332TIP3   OH225554   5.375   6.076   1.253
 1332TIP3    H125555   5.348   6.060   1.343
 1332TIP3    H225556   5.404   6.167   1.252
 1333TIP3   OH225557   1.630   0.914   6.307
 1333TIP3    H125558   1.622   1.008   6.327
 1333TIP3    H225559   1.703   0.885   6.362
 1334TIP3   OH225560   0.396   2.866   8.651
 1334TIP3    H125561   0.383   2.884   8.558
 1334TIP3    H225562   0.324   2.807   8.674
 1335TIP3   OH225563   6.658   4.973   0.345
 1335TIP3    H125564   6.648   5.043   0.281
 1335TIP3    H225565   6.734   4.999   0.397
 1336TIP3   OH225566   5.990   0.557   7.259
 1336TIP3    H125567   6.024   0.530   7.344
 1336TIP3    H225568   6.068   0.582   7.209
 1337TIP3   OH225569   0.462   4.978   0.221
 1337TIP3    H125570   0.461   5.070   0.192
 1337TIP3    H225571   0.487   4.929   0.143
 1338TIP3   OH225572   0.899   5.230   1.329
 1338TIP3    H125573   0.839   5.164   1.294
 1338TIP3    H225574   0.848   5.311   1.330
 1339TIP3   OH225575   6.311   0.749   1.448
 1339TIP3    H125576   6.244   0.698   1.493
 1339TIP3    H225577   6.320   0.707   1.363
 1340TIP3   OH225578   5.587   0.564   0.008
 1340TIP3    H125579   5.572   0.469   0.006
 1340TIP3    H225580   5.499   0.602   0.012
 1341TIP3   OH225581   1.393   4.334   1.352
 1341TIP3    H125582   1.354   4.317   1.266
 1341TIP3    H225583   1.341   4.281   1.413
 1342TIP3   OH225584   2.863   6.063   0.352
 1342TIP3    H125585   2.884   5.988   0.408
 1342TIP3    H225586   2.801   6.029   0.288
 1343TIP3   OH225587   3.290   3.844   8.483
 1343TIP3    H125588   3.204   3.808   8.505
 1343TIP3    H225589   3.350   3.770   8.491
 1344TIP3   OH225590   4.366   4.776   8.097
 1344TIP3    H125591   4.439   4.825   8.135
 1344TIP3    H225592   4.397   4.685   8.096
 1345TIP3   OH225593   2.250   6.650   2.274
 1345TIP3    H125594   2.326   6.708   2.266
 1345TIP3    H225595   2.267   6.579   2.212
 1346TIP3   OH225596   3.421   0.977   1.892
 1346TIP3    H125597   3.335   0.939   1.912
 1346TIP3    H225598   3.481   0.931   1.950
 1347TIP3   OH225599   0.450   6.546   8.521
 1347TIP3    H125600   0.372   6.496   8.495
 1347TIP3    H225601   0.415   6.624   8.563
 1348TIP3   OH225602   6.710   6.307   1.595
 1348TIP3    H125603   6.719   6.402   1.600
 1348TIP3    H225604   6.773   6.280   1.529
 1349TIP3   OH225605   4.516   2.321   6.071
 1349TIP3    H125606   4.583   2.338   6.005
 1349TIP3    H225607   4.515   2.400   6.125
 1350TIP3   OH225608   4.526   0.621   8.093
 1350TIP3    H125609   4.442   0.577   8.107
 1350TIP3    H225610   4.591   0.551   8.095
 1351TIP3   OH225611   0.044   6.100   8.374
 1351TIP3    H125612   0.011   6.144   8.452
 1351TIP3    H225613   6.803   6.071   8.328
 1352TIP3   OH225614   0.333   1.772   0.906
 1352TIP3    H125615   0.269   1.706   0.879
 1352TIP3    H225616   0.384   1.729   0.975
 1353TIP3   OH225617   1.957   3.330   8.291
 1353TIP3    H125618   1.999   3.357   8.372
 1353TIP3    H225619   1.978   3.237   8.283
 1354TIP3   OH225620   5.162   1.531   7.293
 1354TIP3    H125621   5.243   1.485   7.271
 1354TIP3    H225622   5.191   1.618   7.322
 1355TIP3   OH225623   5.957   1.051   8.610
 1355TIP3    H125624   5.883   1.014   8.562
 1355TIP3    H225625   6.000   1.109   8.548
 1356TIP3   OH225626   6.036   2.013   0.595
 1356TIP3    H125627   5.979   2.089   0.589
 1356TIP3    H225628   6.064   1.996   0.505
 1357TIP3   OH225629   6.745   3.104   7.301
 1357TIP3    H125630   6.827   3.056   7.285
 1357TIP3    H225631   6.773   3.183   7.347
 1358TIP3   OH225632   1.693   6.632   0.454
 1358TIP3    H125633   1.679   6.553   0.402
 1358TIP3    H225634   1.651   6.613   0.538
 1359TIP3   OH225635   4.075   6.603   8.112
 1359TIP3    H125636   4.062   6.509   8.107
 1359TIP3    H225637   4.124   6.617   8.193
 1360TIP3   OH225638   0.582   1.047   2.002
 1360TIP3    H125639   0.665   1.095   2.000
 1360TIP3    H225640   0.516   1.113   2.020
 1361TIP3   OH225641   2.159   6.447   0.577
 1361TIP3    H125642   2.130   6.473   0.490
 1361TIP3    H225643   2.155   6.528   0.628
 1362TIP3   OH225644   0.658   1.166   7.164
 1362TIP3    H125645   0.702   1.096   7.115
 1362TIP3    H225646   0.644   1.130   7.251
 1363TIP3   OH225647   6.593   4.001   0.123
 1363TIP3    H125648   6.573   4.062   0.052
 1363TIP3    H225649   6.521   3.937   0.120
 1364TIP3   OH225650   4.802   3.093   7.204
 1364TIP3    H125651   4.815   3.174   7.254
 1364TIP3    H225652   4.875   3.090   7.143
 1365TIP3   OH225653   0.481   2.134   1.468
 1365TIP3    H125654   0.471   2.179   1.384
 1365TIP3    H225655   0.573   2.109   1.472
 1366TIP3   OH225656   5.377   6.649   7.971
 1366TIP3    H125657   5.380   6.702   8.050
 1366TIP3    H225658   5.468   6.624   7.956
 1367TIP3   OH225659   2.212   6.695   8.378
 1367TIP3    H125660   2.214   6.756   8.452
 1367TIP3    H225661   2.121   6.699   8.346
 1368TIP3   OH225662   6.285   3.133   2.706
 1368TIP3    H125663   6.312   3.048   2.672
 1368TIP3    H225664   6.214   3.113   2.768
 1369TIP3   OH225665   0.202   2.119   7.284
 1369TIP3    H125666   0.243   2.046   7.238
 1369TIP3    H225667   0.137   2.153   7.221
 1370TIP3   OH225668   1.115   4.093   0.588
 1370TIP3    H125669   1.122   4.022   0.652
 1370TIP3    H225670   1.197   4.088   0.538
 1371TIP3   OH225671   3.138   3.362   0.494
 1371TIP3    H125672   3.157   3.456   0.503
 1371TIP3    H225673   3.163   3.324   0.579
 1372TIP3   OH225674   0.292   4.292   6.556
 1372TIP3    H125675   0.314   4.331   6.641
 1372TIP3    H225676   0.350   4.217   6.549
 1373TIP3   OH225677   3.287   6.207   8.175
 1373TIP3    H125678   3.270   6.263   8.250
 1373TIP3    H225679   3.215   6.224   8.115
 1374TIP3   OH225680   2.545   1.728   0.023
 1374TIP3    H125681   2.479   1.718   0.091
 1374TIP3    H225682   2.512   1.798   8.749
 1375TIP3   OH225683   6.802   4.761   0.709
 1375TIP3    H125684   6.801   4.851   0.679
 1375TIP3    H225685   6.714   4.747   0.746
 1376TIP3   OH225686   4.854   2.161   8.448
 1376TIP3    H125687   4.917   2.095   8.478
 1376TIP3    H225688   4.774   2.110   8.430
 1377TIP3   OH225689   5.462   1.484   1.894
 1377TIP3    H125690   5.499   1.403   1.858
 1377TIP3    H225691   5.525   1.512   1.960
 1378TIP3   OH225692   1.453   0.835   1.347
 1378TIP3    H125693   1.438   0.812   1.255
 1378TIP3    H225694   1.371   0.813   1.391
 1379TIP3   OH225695   3.650   6.746   8.043
 1379TIP3    H125696   3.582   6.814   8.042
 1379TIP3    H225697   3.605   6.666   8.018
 1380TIP3   OH225698   6.429   0.695   8.076
 1380TIP3    H125699   6.488   0.750   8.024
 1380TIP3    H225700   6.435   0.730   8.165
 1381TIP3   OH225701   2.697   5.519   7.781
 1381TIP3    H125702   2.681   5.426   7.794
 1381TIP3    H225703   2.776   5.538   7.831
 1382TIP3   OH225704   3.267   1.015   0.488
 1382TIP3    H125705   3.299   1.105   0.498
 1382TIP3    H225706   3.193   1.023   0.429
 1383TIP3   OH225707   5.124   4.998   1.399
 1383TIP3    H125708   5.093   4.927   1.342
 1383TIP3    H225709   5.206   4.965   1.435
 1384TIP3   OH225710   4.630   5.706   8.173
 1384TIP3    H125711   4.585   5.632   8.133
 1384TIP3    H225712   4.589   5.716   8.259
 1385TIP3   OH225713   0.753   3.289   6.004
 1385TIP3    H125714   0.768   3.277   6.098
 1385TIP3    H225715   0.833   3.332   5.973
 1386TIP3   OH225716   4.432   5.193   1.077
 1386TIP3    H125717   4.439   5.191   1.172
 1386TIP3    H225718   4.442   5.285   1.054
 1387TIP3   OH225719   3.923   1.316   1.747
 1387TIP3    H125720   3.943   1.409   1.732
 1387TIP3    H225721   3.929   1.307   1.842
 1388TIP3   OH225722   3.147   2.398   8.086
 1388TIP3    H125723   3.211   2.340   8.045
 1388TIP3    H225724   3.067   2.345   8.091
 1389TIP3   OH225725   6.181   3.956   0.299
 1389TIP3    H125726   6.169   4.008   0.378
 1389TIP3    H225727   6.092   3.938   0.268
 1390TIP3   OH225728   1.691   3.394   1.525
 1390TIP3    H125729   1.660   3.397   1.435
 1390TIP3    H225730   1.676   3.303   1.552
 1391TIP3   OH225731   0.827   3.871   1.287
 1391TIP3    H125732   0.824   3.786   1.244
 1391TIP3    H225733   0.858   3.931   1.219
 1392TIP3   OH225734   3.916   2.346   6.611
 1392TIP3    H125735   3.916   2.272   6.550
 1392TIP3    H225736   3.966   2.414   6.567
 1393TIP3   OH225737   6.324   3.957   7.736
 1393TIP3    H125738   6.290   3.877   7.777
 1393TIP3    H225739   6.358   4.009   7.808
 1394TIP3   OH225740   6.264   4.704   7.642
 1394TIP3    H125741   6.206   4.719   7.567
 1394TIP3    H225742   6.204   4.690   7.715
 1395TIP3   OH225743   1.613   5.916   8.191
 1395TIP3    H125744   1.618   5.883   8.102
 1395TIP3    H225745   1.606   5.838   8.246
 1396TIP3   OH225746   6.446   1.351   0.161
 1396TIP3    H125747   6.532   1.329   0.125
 1396TIP3    H225748   6.391   1.276   0.138
 1397TIP3   OH225749   6.400   6.560   8.244
 1397TIP3    H125750   6.414   6.539   8.337
 1397TIP3    H225751   6.413   6.476   8.199
 1398TIP3   OH225752   6.011   4.473   0.015
 1398TIP3    H125753   5.958   4.459   8.718
 1398TIP3    H225754   6.055   4.389   0.029
 1399TIP3   OH225755   5.341   2.262   2.443
 1399TIP3    H125756   5.368   2.273   2.353
 1399TIP3    H225757   5.384   2.332   2.491
 1400TIP3   OH225758   3.508   6.288   1.666
 1400TIP3    H125759   3.459   6.207   1.681
 1400TIP3    H225760   3.479   6.346   1.736
 1401TIP3   OH225761   6.315   2.503   8.673
 1401TIP3    H125762   6.361   2.457   8.743
 1401TIP3    H225763   6.325   2.596   8.695
 1402TIP3   OH225764   2.451   4.902   0.660
 1402TIP3    H125765   2.386   4.893   0.730
 1402TIP3    H225766   2.513   4.966   0.694
 1403TIP3   OH225767   4.883   1.510   1.353
 1403TIP3    H125768   4.879   1.551   1.266
 1403TIP3    H225769   4.827   1.565   1.408
 1404TIP3   OH225770   6.531   0.540   1.039
 1404TIP3    H125771   6.562   0.484   0.968
 1404TIP3    H225772   6.569   0.501   1.118
 1405TIP3   OH225773   2.729   4.093   2.611
 1405TIP3    H125774   2.643   4.068   2.647
 1405TIP3    H225775   2.779   4.122   2.687
 1406TIP3   OH225776   5.424   2.255   6.652
 1406TIP3    H125777   5.353   2.252   6.587
 1406TIP3    H225778   5.417   2.171   6.698
 1407TIP3   OH225779   1.526   3.251   7.049
 1407TIP3    H125780   1.521   3.239   6.954
 1407TIP3    H225781   1.476   3.178   7.085
 1408TIP3   OH225782   6.750   3.528   1.749
 1408TIP3    H125783   6.777   3.451   1.799
 1408TIP3    H225784   6.682   3.569   1.803
 1409TIP3   OH225785   4.441   6.525   2.671
 1409TIP3    H125786   4.346   6.511   2.672
 1409TIP3    H225787   4.475   6.453   2.618
 1410TIP3   OH225788   0.452   2.214   7.138
 1410TIP3    H125789   0.409   2.154   7.197
 1410TIP3    H225790   0.499   2.158   7.076
 1411TIP3   OH225791   1.348   4.837   6.808
 1411TIP3    H125792   1.281   4.792   6.757
 1411TIP3    H225793   1.400   4.767   6.848
 1412TIP3   OH225794   4.361   1.195   8.517
 1412TIP3    H125795   4.345   1.289   8.531
 1412TIP3    H225796   4.453   1.183   8.541
 1413TIP3   OH225797   6.250   4.097   0.591
 1413TIP3    H125798   6.308   4.172   0.578
 1413TIP3    H225799   6.224   4.101   0.683
 1414TIP3   OH225800   5.600   0.964   0.913
 1414TIP3    H125801   5.568   0.957   0.823
 1414TIP3    H225802   5.645   0.881   0.929
 1415TIP3   OH225803   0.519   4.984   0.626
 1415TIP3    H125804   0.613   4.983   0.608
 1415TIP3    H225805   0.514   4.975   0.721
 1416TIP3   OH225806   5.493   5.231   1.687
 1416TIP3    H125807   5.400   5.252   1.682
 1416TIP3    H225808   5.534   5.310   1.721
 1417TIP3   OH225809   2.028   4.169   0.234
 1417TIP3    H125810   1.997   4.192   0.321
 1417TIP3    H225811   2.070   4.249   0.201
 1418TIP3   OH225812   2.128   0.230   1.403
 1418TIP3    H125813   2.216   0.219   1.366
 1418TIP3    H225814   2.144   0.245   1.497
 1419TIP3   OH225815   3.727   5.545   2.133
 1419TIP3    H125816   3.774   5.584   2.206
 1419TIP3    H225817   3.794   5.496   2.085
 1420TIP3   OH225818   6.169   5.624   7.675
 1420TIP3    H125819   6.254   5.657   7.645
 1420TIP3    H225820   6.158   5.540   7.632
 1421TIP3   OH225821   3.441   1.950   1.304
 1421TIP3    H125822   3.411   1.890   1.371
 1421TIP3    H225823   3.485   2.020   1.352
 1422TIP3   OH225824   0.061   0.484   2.269
 1422TIP3    H125825   6.805   0.497   2.274
 1422TIP3    H225826   0.098   0.570   2.288
 1423TIP3   OH225827   2.806   2.952   2.089
 1423TIP3    H125828   2.898   2.944   2.113
 1423TIP3    H225829   2.806   2.949   1.993
 1424TIP3   OH225830   6.805   2.805   8.355
 1424TIP3    H125831   6.711   2.818   8.362
 1424TIP3    H225832   6.815   2.714   8.327
 1425TIP3   OH225833   4.940   1.521   2.245
 1425TIP3    H125834   4.936   1.596   2.305
 1425TIP3    H225835   4.850   1.511   2.214
 1426TIP3   OH225836   0.583   1.237   8.706
 1426TIP3    H125837   0.645   1.275   8.768
 1426TIP3    H225838   0.588   1.143   8.722
 1427TIP3   OH225839   3.724   3.182   8.083
 1427TIP3    H125840   3.725   3.276   8.063
 1427TIP3    H225841   3.765   3.141   8.007
 1428TIP3   OH225842   6.674   2.096   7.333
 1428TIP3    H125843   6.757   2.048   7.336
 1428TIP3    H225844   6.613   2.035   7.290
 1429TIP3   OH225845   1.639   1.217   7.593
 1429TIP3    H125846   1.662   1.226   7.501
 1429TIP3    H225847   1.709   1.263   7.640
 1430TIP3   OH225848   4.742   2.804   7.398
 1430TIP3    H125849   4.702   2.747   7.464
 1430TIP3    H225850   4.677   2.809   7.328
 1431TIP3   OH225851   3.571   2.569   7.920
 1431TIP3    H125852   3.656   2.606   7.899
 1431TIP3    H225853   3.559   2.497   7.858
 1432TIP3   OH225854   0.446   1.731   1.984
 1432TIP3    H125855   0.441   1.687   2.069
 1432TIP3    H225856   0.391   1.809   1.993
 1433TIP3   OH225857   0.967   2.109   0.135
 1433TIP3    H125858   0.922   2.140   0.213
 1433TIP3    H225859   0.928   2.023   0.117
 1434TIP3   OH225860   6.194   6.594   8.614
 1434TIP3    H125861   6.276   6.545   8.603
 1434TIP3    H225862   6.219   6.686   8.599
 1435TIP3   OH225863   4.257   0.940   8.717
 1435TIP3    H125864   4.320   0.945   0.006
 1435TIP3    H225865   4.312   0.941   8.638
 1436TIP3   OH225866   4.828   4.337   8.664
 1436TIP3    H125867   4.827   4.244   8.642
 1436TIP3    H225868   4.833   4.339   8.760
 1437TIP3   OH225869   0.171   3.848   0.879
 1437TIP3    H125870   0.093   3.878   0.926
 1437TIP3    H225871   0.164   3.886   0.792
 1438TIP3   OH225872   1.584   4.346   0.352
 1438TIP3    H125873   1.665   4.396   0.341
 1438TIP3    H225874   1.611   4.267   0.399
 1439TIP3   OH225875   2.183   4.610   7.598
 1439TIP3    H125876   2.241   4.534   7.606
 1439TIP3    H225877   2.119   4.585   7.532
 1440TIP3   OH225878   1.745   1.420   8.627
 1440TIP3    H125879   1.728   1.512   8.606
 1440TIP3    H225880   1.722   1.372   8.547
 1441TIP3   OH225881   1.321   3.035   8.686
 1441TIP3    H125882   1.256   3.019   8.755
 1441TIP3    H225883   1.394   2.977   8.707
 1442TIP3   OH225884   1.518   1.825   7.878
 1442TIP3    H125885   1.436   1.809   7.924
 1442TIP3    H225886   1.507   1.780   7.794
 1443TIP3   OH225887   4.432   2.999   0.869
 1443TIP3    H125888   4.514   2.949   0.859
 1443TIP3    H225889   4.456   3.074   0.923
 1444TIP3   OH225890   3.923   4.855   0.050
 1444TIP3    H125891   3.960   4.818   8.752
 1444TIP3    H225892   3.855   4.914   0.020
 1445TIP3   OH225893   5.660   4.647   0.922
 1445TIP3    H125894   5.680   4.557   0.948
 1445TIP3    H225895   5.583   4.638   0.865
 1446TIP3   OH225896   0.526   6.453   7.321
 1446TIP3    H125897   0.512   6.522   7.386
 1446TIP3    H225898   0.583   6.494   7.256
 1447TIP3   OH225899   6.367   4.402   0.241
 1447TIP3    H125900   6.406   4.320   0.270
 1447TIP3    H225901   6.424   4.434   0.172
 1448TIP3   OH225902   5.001   1.261   6.588
 1448TIP3    H125903   5.044   1.303   6.513
 1448TIP3    H225904   4.907   1.267   6.568
 1449TIP3   OH225905   6.321   5.034   1.108
 1449TIP3    H125906   6.331   5.103   1.174
 1449TIP3    H225907   6.402   4.984   1.113
 1450TIP3   OH225908   3.781   1.382   7.330
 1450TIP3    H125909   3.735   1.436   7.266
 1450TIP3    H225910   3.713   1.345   7.385
 1451TIP3   OH225911   4.683   5.576   7.673
 1451TIP3    H125912   4.608   5.605   7.620
 1451TIP3    H225913   4.734   5.521   7.614
 1452TIP3   OH225914   6.411   2.542   7.521
 1452TIP3    H125915   6.423   2.503   7.434
 1452TIP3    H225916   6.423   2.636   7.508
 1453TIP3   OH225917   1.067   6.348   0.685
 1453TIP3    H125918   1.002   6.338   0.615
 1453TIP3    H225919   1.123   6.420   0.655
 1454TIP3   OH225920   3.426   3.889   8.203
 1454TIP3    H125921   3.393   3.923   8.120
 1454TIP3    H225922   3.356   3.905   8.266
 1455TIP3   OH225923   4.102   6.217   6.230
 1455TIP3    H125924   4.016   6.180   6.249
 1455TIP3    H225925   4.085   6.286   6.166
 1456TIP3   OH225926   6.516   0.550   1.870
 1456TIP3    H125927   6.492   0.458   1.857
 1456TIP3    H225928   6.476   0.574   1.954
 1457TIP3   OH225929   4.704   5.422   7.246
 1457TIP3    H125930   4.686   5.509   7.211
 1457TIP3    H225931   4.731   5.370   7.170
 1458TIP3   OH225932   2.108   5.288   0.412
 1458TIP3    H125933   2.171   5.232   0.368
 1458TIP3    H225934   2.113   5.262   0.504
 1459TIP3   OH225935   6.313   6.229   1.460
 1459TIP3    H125936   6.321   6.314   1.504
 1459TIP3    H225937   6.304   6.250   1.368
 1460TIP3   OH225938   3.948   1.915   8.189
 1460TIP3    H125939   4.037   1.913   8.226
 1460TIP3    H225940   3.929   2.008   8.178
 1461TIP3   OH225941   1.138   6.590   2.384
 1461TIP3    H125942   1.230   6.611   2.397
 1461TIP3    H225943   1.135   6.546   2.299
 1462TIP3   OH225944   4.974   4.426   6.853
 1462TIP3    H125945   4.970   4.397   6.762
 1462TIP3    H225946   4.965   4.521   6.849
 1463TIP3   OH225947   3.397   5.353   1.487
 1463TIP3    H125948   3.473   5.387   1.439
 1463TIP3    H225949   3.368   5.277   1.436
 1464TIP3   OH225950   1.573   4.628   0.411
 1464TIP3    H125951   1.582   4.639   0.506
 1464TIP3    H225952   1.485   4.660   0.392
 1465TIP3   OH225953   2.742   3.006   8.210
 1465TIP3    H125954   2.751   2.943   8.139
 1465TIP3    H225955   2.667   2.973   8.261
 1466TIP3   OH225956   0.429   3.752   7.500
 1466TIP3    H125957   0.392   3.800   7.426
 1466TIP3    H225958   0.466   3.673   7.461
 1467TIP3   OH225959   1.268   2.468   8.679
 1467TIP3    H125960   1.338   2.474   8.614
 1467TIP3    H225961   1.284   2.385   8.724
 1468TIP3   OH225962   3.845   2.084   0.991
 1468TIP3    H125963   3.757   2.073   1.028
 1468TIP3    H225964   3.851   2.178   0.973
 1469TIP3   OH225965   1.976   3.285   1.379
 1469TIP3    H125966   1.931   3.313   1.299
 1469TIP3    H225967   2.049   3.232   1.348
 1470TIP3   OH225968   1.732   5.563   0.055
 1470TIP3    H125969   1.678   5.486   0.038
 1470TIP3    H225970   1.811   5.528   0.098
 1471TIP3   OH225971   2.076   5.873   0.909
 1471TIP3    H125972   2.004   5.856   0.849
 1471TIP3    H225973   2.133   5.797   0.902
 1472TIP3   OH225974   2.888   1.271   8.018
 1472TIP3    H125975   2.835   1.196   8.044
 1472TIP3    H225976   2.831   1.346   8.029
 1473TIP3   OH225977   0.946   4.373   1.049
 1473TIP3    H125978   1.014   4.378   0.981
 1473TIP3    H225979   0.935   4.463   1.079
 1474TIP3   OH225980   4.473   3.273   7.918
 1474TIP3    H125981   4.423   3.285   7.837
 1474TIP3    H225982   4.427   3.328   7.982
 1475TIP3   OH225983   6.648   5.125   1.545
 1475TIP3    H125984   6.658   5.033   1.520
 1475TIP3    H225985   6.719   5.141   1.607
 1476TIP3   OH225986   5.654   0.016   1.104
 1476TIP3    H125987   5.614   6.775   1.067
 1476TIP3    H225988   5.589   0.084   1.088
 1477TIP3   OH225989   1.460   5.629   0.113
 1477TIP3    H125990   1.414   5.583   0.183
 1477TIP3    H225991   1.451   5.572   0.037
 1478TIP3   OH225992   0.250   0.377   8.592
 1478TIP3    H125993   0.179   0.319   8.620
 1478TIP3    H225994   0.268   0.351   8.501
 1479TIP3   OH225995   2.736   6.743   2.080
 1479TIP3    H125996   2.691   6.679   2.135
 1479TIP3    H225997   2.674   6.762   2.009
 1480TIP3   OH225998   3.185   0.041   2.179
 1480TIP3    H125999   3.132   6.832   2.244
 1480TIP3    H226000   3.274   0.007   2.191
 1481TIP3   OH226001   6.708   4.699   8.764
 1481TIP3    H126002   6.785   4.730   8.716
 1481TIP3    H226003   6.727   4.720   0.073
 1482TIP3   OH226004   6.333   3.077   8.770
 1482TIP3    H126005   6.377   3.133   0.051
 1482TIP3    H226006   6.366   3.105   8.685
 1483TIP3   OH226007   4.130   6.115   8.114
 1483TIP3    H126008   4.185   6.069   8.051
 1483TIP3    H226009   4.124   6.055   8.189
 1484TIP3   OH226010   5.325   5.178   0.995
 1484TIP3    H126011   5.337   5.231   1.074
 1484TIP3    H226012   5.231   5.166   0.988
 1485TIP3   OH226013   2.590   4.381   2.205
 1485TIP3    H126014   2.619   4.420   2.287
 1485TIP3    H226015   2.665   4.329   2.176
 1486TIP3   OH226016   0.908   2.899   7.473
 1486TIP3    H126017   0.939   2.956   7.403
 1486TIP3    H226018   0.840   2.949   7.518
 1487TIP3   OH226019   4.365   5.499   7.871
 1487TIP3    H126020   4.317   5.493   7.954
 1487TIP3    H226021   4.305   5.464   7.806
 1488TIP3   OH226022   6.604   0.310   8.735
 1488TIP3    H126023   6.548   0.245   8.777
 1488TIP3    H226024   6.577   0.310   8.644
 1489TIP3   OH226025   0.380   6.078   7.857
 1489TIP3    H126026   0.372   5.986   7.880
 1489TIP3    H226027   0.465   6.104   7.892
 1490TIP3   OH226028   5.878   6.246   0.565
 1490TIP3    H126029   5.974   6.245   0.570
 1490TIP3    H226030   5.853   6.154   0.565
 1491TIP3   OH226031   0.002   6.074   0.120
 1491TIP3    H126032   6.826   5.990   0.076
 1491TIP3    H226033   6.783   6.135   0.075
 1492TIP3   OH226034   0.813   0.393   2.338
 1492TIP3    H126035   0.809   0.298   2.351
 1492TIP3    H226036   0.723   0.418   2.318
 1493TIP3   OH226037   1.466   5.495   7.994
 1493TIP3    H126038   1.449   5.533   7.908
 1493TIP3    H226039   1.494   5.405   7.975
 1494TIP3   OH226040   1.465   4.652   8.516
 1494TIP3    H126041   1.529   4.718   8.542
 1494TIP3    H226042   1.387   4.702   8.493
 1495TIP3   OH226043   3.340   3.386   7.325
 1495TIP3    H126044   3.393   3.307   7.339
 1495TIP3    H226045   3.358   3.410   7.234
 1496TIP3   OH226046   4.736   5.284   0.590
 1496TIP3    H126047   4.733   5.380   0.596
 1496TIP3    H226048   4.778   5.266   0.506
 1497TIP3   OH226049   0.162   4.086   7.933
 1497TIP3    H126050   0.167   4.073   8.027
 1497TIP3    H226051   0.076   4.124   7.918
 1498TIP3   OH226052   1.849   6.425   0.148
 1498TIP3    H126053   1.885   6.398   0.233
 1498TIP3    H226054   1.885   6.513   0.133
 1499TIP3   OH226055   4.042   2.042   8.624
 1499TIP3    H126056   3.951   2.038   8.593
 1499TIP3    H226057   4.046   2.123   8.675
 1500TIP3   OH226058   6.632   3.749   0.761
 1500TIP3    H126059   6.628   3.704   0.845
 1500TIP3    H226060   6.548   3.793   0.753
 1501TIP3   OH226061   5.369   6.806   8.188
 1501TIP3    H126062   5.310   0.043   8.198
 1501TIP3    H226063   5.361   6.758   8.271
 1502TIP3   OH226064   1.923   6.486   8.635
 1502TIP3    H126065   1.966   6.572   8.637
 1502TIP3    H226066   1.830   6.506   8.641
 1503TIP3   OH226067   3.857   1.858   6.968
 1503TIP3    H126068   3.807   1.936   6.944
 1503TIP3    H226069   3.941   1.869   6.922
 1504TIP3   OH226070   3.561   6.218   0.518
 1504TIP3    H126071   3.604   6.266   0.447
 1504TIP3    H226072   3.498   6.161   0.474
 1505TIP3   OH226073   6.115   5.720   8.517
 1505TIP3    H126074   6.089   5.690   8.430
 1505TIP3    H226075   6.033   5.724   8.566
 1506TIP3   OH226076   3.853   6.114   8.545
 1506TIP3    H126077   3.775   6.140   8.595
 1506TIP3    H226078   3.916   6.184   8.561
 1507TIP3   OH226079   6.128   3.323   7.520
 1507TIP3    H126080   6.193   3.278   7.574
 1507TIP3    H226081   6.163   3.412   7.509
 1508TIP3   OH226082   0.203   4.772   1.270
 1508TIP3    H126083   0.208   4.782   1.365
 1508TIP3    H226084   0.269   4.833   1.236
 1509TIP3   OH226085   5.176   5.534   6.928
 1509TIP3    H126086   5.156   5.471   6.859
 1509TIP3    H226087   5.268   5.520   6.947
 1510TIP3   OH226088   4.459   0.883   8.544
 1510TIP3    H126089   4.511   0.962   8.528
 1510TIP3    H226090   4.515   0.812   8.513
 1511TIP3   OH226091   2.169   1.073   7.140
 1511TIP3    H126092   2.194   1.163   7.120
 1511TIP3    H226093   2.243   1.020   7.112
 1512TIP3   OH226094   4.616   1.075   1.845
 1512TIP3    H126095   4.581   1.031   1.767
 1512TIP3    H226096   4.585   1.165   1.837
 1513TIP3   OH226097   4.564   4.068   1.929
 1513TIP3    H126098   4.480   4.081   1.973
 1513TIP3    H226099   4.610   4.151   1.939
 1514TIP3   OH226100   0.179   0.575   0.076
 1514TIP3    H126101   0.234   0.519   0.130
 1514TIP3    H226102   0.090   0.557   0.105
 1515TIP3   OH226103   2.702   5.338   7.349
 1515TIP3    H126104   2.752   5.328   7.430
 1515TIP3    H226105   2.710   5.431   7.328
 1516TIP3   OH226106   0.486   6.616   7.060
 1516TIP3    H126107   0.574   6.614   7.098
 1516TIP3    H226108   0.431   6.650   7.131
 1517TIP3   OH226109   3.572   5.430   7.124
 1517TIP3    H126110   3.636   5.421   7.194
 1517TIP3    H226111   3.605   5.374   7.054
 1518TIP3   OH226112   4.560   1.120   7.576
 1518TIP3    H126113   4.587   1.108   7.667
 1518TIP3    H226114   4.580   1.035   7.535
 1519TIP3   OH226115   2.008   4.585   0.599
 1519TIP3    H126116   1.972   4.651   0.540
 1519TIP3    H226117   2.103   4.592   0.589
 1520TIP3   OH226118   4.028   2.194   0.791
 1520TIP3    H126119   3.934   2.187   0.775
 1520TIP3    H226120   4.056   2.104   0.808
 1521TIP3   OH226121   3.439   2.775   7.045
 1521TIP3    H126122   3.484   2.857   7.023
 1521TIP3    H226123   3.354   2.803   7.078
 1522TIP3   OH226124   0.863   5.204   6.553
 1522TIP3    H126125   0.943   5.255   6.556
 1522TIP3    H226126   0.889   5.115   6.576
 1523TIP3   OH226127   0.205   4.926   1.849
 1523TIP3    H126128   0.218   4.840   1.888
 1523TIP3    H226129   0.270   4.931   1.779
 1524TIP3   OH226130   0.318   0.176   2.108
 1524TIP3    H126131   0.382   0.169   2.179
 1524TIP3    H226132   0.338   0.102   2.051
 1525TIP3   OH226133   2.162   1.187   1.428
 1525TIP3    H126134   2.209   1.224   1.353
 1525TIP3    H226135   2.069   1.201   1.407
 1526TIP3   OH226136   5.092   3.605   1.397
 1526TIP3    H126137   4.997   3.605   1.410
 1526TIP3    H226138   5.104   3.630   1.305
 1527TIP3   OH226139   1.774   3.035   2.565
 1527TIP3    H126140   1.683   3.005   2.567
 1527TIP3    H226141   1.782   3.081   2.482
 1528TIP3   OH226142   5.842   3.760   6.705
 1528TIP3    H126143   5.873   3.693   6.643
 1528TIP3    H226144   5.800   3.826   6.650
 1529TIP3   OH226145   0.214   4.094   8.651
 1529TIP3    H126146   0.192   4.138   8.733
 1529TIP3    H226147   0.227   4.002   8.675
 1530TIP3   OH226148   5.781   3.649   7.852
 1530TIP3    H126149   5.764   3.592   7.927
 1530TIP3    H226150   5.798   3.589   7.779
 1531TIP3   OH226151   3.021   0.100   1.649
 1531TIP3    H126152   2.989   0.188   1.632
 1531TIP3    H226153   3.062   0.073   1.566
 1532TIP3   OH226154   2.276   3.010   8.432
 1532TIP3    H126155   2.221   3.027   8.508
 1532TIP3    H226156   2.354   3.064   8.446
 1533TIP3   OH226157   2.186   1.224   1.988
 1533TIP3    H126158   2.258   1.165   2.013
 1533TIP3    H226159   2.107   1.170   1.999
 1534TIP3   OH226160   3.364   1.693   7.135
 1534TIP3    H126161   3.407   1.757   7.192
 1534TIP3    H226162   3.384   1.722   7.046
 1535TIP3   OH226163   1.857   6.598   1.533
 1535TIP3    H126164   1.828   6.658   1.602
 1535TIP3    H226165   1.776   6.556   1.502
 1536TIP3   OH226166   3.489   6.230   0.781
 1536TIP3    H126167   3.510   6.234   0.687
 1536TIP3    H226168   3.444   6.146   0.791
 1537TIP3   OH226169   5.753   2.622   7.330
 1537TIP3    H126170   5.825   2.684   7.318
 1537TIP3    H226171   5.730   2.630   7.423
 1538TIP3   OH226172   5.051   1.061   0.861
 1538TIP3    H126173   5.082   0.973   0.883
 1538TIP3    H226174   5.104   1.086   0.785
 1539TIP3   OH226175   6.085   6.327   0.319
 1539TIP3    H126176   6.031   6.405   0.332
 1539TIP3    H226177   6.023   6.254   0.322
 1540TIP3   OH226178   6.633   5.657   0.290
 1540TIP3    H126179   6.713   5.650   0.238
 1540TIP3    H226180   6.629   5.576   0.340
 1541TIP3   OH226181   1.174   1.669   0.668
 1541TIP3    H126182   1.117   1.621   0.727
 1541TIP3    H226183   1.118   1.738   0.632
 1542TIP3   OH226184   0.660   3.464   8.525
 1542TIP3    H126185   0.677   3.557   8.508
 1542TIP3    H226186   0.565   3.456   8.519
 1543TIP3   OH226187   1.990   6.224   8.497
 1543TIP3    H126188   2.052   6.261   8.433
 1543TIP3    H226189   1.955   6.300   8.543
 1544TIP3   OH226190   5.798   2.172   0.577
 1544TIP3    H126191   5.775   2.094   0.527
 1544TIP3    H226192   5.738   2.170   0.652
 1545TIP3   OH226193   5.665   4.027   8.010
 1545TIP3    H126194   5.654   3.986   7.924
 1545TIP3    H226195   5.753   4.066   8.007
 1546TIP3   OH226196   0.257   1.941   8.706
 1546TIP3    H126197   0.319   1.951   8.779
 1546TIP3    H226198   0.309   1.902   8.636
 1547TIP3   OH226199   0.094   3.500   7.104
 1547TIP3    H126200   0.037   3.529   7.034
 1547TIP3    H226201   0.080   3.563   7.175
 1548TIP3   OH226202   5.785   3.180   0.068
 1548TIP3    H126203   5.833   3.112   0.020
 1548TIP3    H226204   5.697   3.179   0.029
 1549TIP3   OH226205   1.967   5.525   0.187
 1549TIP3    H126206   1.997   5.548   0.275
 1549TIP3    H226207   2.019   5.449   0.162
 1550TIP3   OH226208   1.836   0.907   7.942
 1550TIP3    H126209   1.919   0.930   7.901
 1550TIP3    H226210   1.769   0.950   7.889
 1551TIP3   OH226211   5.129   3.831   0.919
 1551TIP3    H126212   5.211   3.848   0.874
 1551TIP3    H226213   5.066   3.815   0.848
 1552TIP3   OH226214   5.705   6.002   0.545
 1552TIP3    H126215   5.640   6.011   0.475
 1552TIP3    H226216   5.660   6.031   0.624
 1553TIP3   OH226217   4.597   0.671   8.442
 1553TIP3    H126218   4.663   0.711   8.385
 1553TIP3    H226219   4.639   0.592   8.475
 1554TIP3   OH226220   0.404   4.639   0.683
 1554TIP3    H126221   0.399   4.648   0.588
 1554TIP3    H226222   0.422   4.547   0.698
 1555TIP3   OH226223   1.048   2.575   0.792
 1555TIP3    H126224   1.137   2.580   0.827
 1555TIP3    H226225   1.057   2.532   0.708
 1556TIP3   OH226226   0.719   6.208   0.329
 1556TIP3    H126227   0.699   6.189   0.237
 1556TIP3    H226228   0.671   6.140   0.377
 1557TIP3   OH226229   5.826   3.695   0.911
 1557TIP3    H126230   5.834   3.790   0.919
 1557TIP3    H226231   5.754   3.682   0.849
 1558TIP3   OH226232   2.166   3.046   7.309
 1558TIP3    H126233   2.206   3.089   7.384
 1558TIP3    H226234   2.224   3.066   7.235
 1559TIP3   OH226235   1.605   2.108   1.014
 1559TIP3    H126236   1.673   2.135   0.953
 1559TIP3    H226237   1.653   2.082   1.093
 1560TIP3   OH226238   4.684   6.755   7.798
 1560TIP3    H126239   4.670   6.789   7.887
 1560TIP3    H226240   4.713   6.831   7.748
 1561TIP3   OH226241   2.479   4.713   7.284
 1561TIP3    H126242   2.450   4.747   7.199
 1561TIP3    H226243   2.463   4.619   7.279
 1562TIP3   OH226244   6.658   6.519   0.135
 1562TIP3    H126245   6.657   6.615   0.127
 1562TIP3    H226246   6.641   6.503   0.228
 1563TIP3   OH226247   5.806   1.503   7.580
 1563TIP3    H126248   5.859   1.534   7.506
 1563TIP3    H226249   5.738   1.569   7.590
 1564TIP3   OH226250   3.476   2.811   7.975
 1564TIP3    H126251   3.380   2.807   7.965
 1564TIP3    H226252   3.505   2.721   7.960
 1565TIP3   OH226253   1.829   4.271   1.360
 1565TIP3    H126254   1.757   4.333   1.371
 1565TIP3    H226255   1.849   4.274   1.267
 1566TIP3   OH226256   6.463   4.140   0.311
 1566TIP3    H126257   6.516   4.074   0.267
 1566TIP3    H226258   6.431   4.097   0.390
 1567TIP3   OH226259   6.692   2.413   0.223
 1567TIP3    H126260   6.713   2.429   0.316
 1567TIP3    H226261   6.742   2.480   0.176
 1568TIP3   OH226262   0.433   3.578   7.196
 1568TIP3    H126263   0.396   3.528   7.123
 1568TIP3    H226264   0.473   3.512   7.252
 1569TIP3   OH226265   2.026   5.317   7.356
 1569TIP3    H126266   1.948   5.322   7.411
 1569TIP3    H226267   2.023   5.229   7.319
 1570TIP3   OH226268   0.682   1.882   1.735
 1570TIP3    H126269   0.776   1.867   1.744
 1570TIP3    H226270   0.656   1.829   1.660
 1571TIP3   OH226271   0.621   2.055   6.699
 1571TIP3    H126272   0.557   2.028   6.633
 1571TIP3    H226273   0.706   2.032   6.659
 1572TIP3   OH226274   4.902   6.329   8.624
 1572TIP3    H126275   4.974   6.277   8.660
 1572TIP3    H226276   4.880   6.285   8.542
 1573TIP3   OH226277   3.982   4.191   6.634
 1573TIP3    H126278   4.022   4.259   6.580
 1573TIP3    H226279   4.050   4.124   6.642
 1574TIP3   OH226280   3.255   1.656   0.765
 1574TIP3    H126281   3.341   1.619   0.784
 1574TIP3    H226282   3.262   1.686   0.674
 1575TIP3   OH226283   1.470   4.127   8.027
 1575TIP3    H126284   1.393   4.125   8.085
 1575TIP3    H226285   1.479   4.219   8.002
 1576TIP3   OH226286   5.173   1.439   6.460
 1576TIP3    H126287   5.266   1.458   6.458
 1576TIP3    H226288   5.135   1.508   6.514
 1577TIP3   OH226289   0.744   6.411   6.825
 1577TIP3    H126290   0.694   6.345   6.873
 1577TIP3    H226291   0.781   6.363   6.751
 1578TIP3   OH226292   4.613   3.835   2.101
 1578TIP3    H126293   4.607   3.878   2.016
 1578TIP3    H226294   4.695   3.867   2.138
 1579TIP3   OH226295   5.287   1.471   7.563
 1579TIP3    H126296   5.195   1.463   7.535
 1579TIP3    H226297   5.287   1.438   7.653
 1580TIP3   OH226298   4.005   0.782   1.955
 1580TIP3    H126299   4.039   0.698   1.925
 1580TIP3    H226300   3.984   0.768   2.047
 1581TIP3   OH226301   1.019   2.419   0.324
 1581TIP3    H126302   1.031   2.490   0.261
 1581TIP3    H226303   1.079   2.350   0.295
 1582TIP3   OH226304   4.041   0.360   7.127
 1582TIP3    H126305   4.054   0.422   7.200
 1582TIP3    H226306   4.128   0.323   7.113
 1583TIP3   OH226307   4.408   2.459   1.259
 1583TIP3    H126308   4.411   2.458   1.163
 1583TIP3    H226309   4.371   2.545   1.280
 1584TIP3   OH226310   0.887   3.138   6.976
 1584TIP3    H126311   0.958   3.203   6.982
 1584TIP3    H226312   0.821   3.180   6.921
 1585TIP3   OH226313   1.497   6.045   2.131
 1585TIP3    H126314   1.418   6.001   2.100
 1585TIP3    H226315   1.486   6.136   2.103
 1586TIP3   OH226316   3.981   0.842   2.264
 1586TIP3    H126317   3.933   0.889   2.332
 1586TIP3    H226318   3.966   0.749   2.283
 1587TIP3   OH226319   1.796   1.731   8.628
 1587TIP3    H126320   1.859   1.725   8.700
 1587TIP3    H226321   1.825   1.807   8.578
 1588TIP3   OH226322   2.598   4.971   1.095
 1588TIP3    H126323   2.597   4.930   1.182
 1588TIP3    H226324   2.511   5.010   1.087
 1589TIP3   OH226325   2.508   6.224   8.395
 1589TIP3    H126326   2.562   6.264   8.327
 1589TIP3    H226327   2.515   6.130   8.380
 1590TIP3   OH226328   0.485   2.160   0.803
 1590TIP3    H126329   0.416   2.226   0.808
 1590TIP3    H226330   0.560   2.205   0.764
 1591TIP3   OH226331   4.728   2.045   6.278
 1591TIP3    H126332   4.719   2.137   6.304
 1591TIP3    H226333   4.794   2.046   6.208
 1592TIP3   OH226334   3.439   5.238   1.744
 1592TIP3    H126335   3.507   5.171   1.735
 1592TIP3    H226336   3.435   5.281   1.658
 1593TIP3   OH226337   5.688   2.969   7.396
 1593TIP3    H126338   5.642   2.927   7.469
 1593TIP3    H226339   5.619   2.996   7.336
 1594TIP3   OH226340   3.056   5.861   6.501
 1594TIP3    H126341   3.140   5.901   6.480
 1594TIP3    H226342   3.018   5.837   6.416
 1595TIP3   OH226343   0.249   5.755   6.654
 1595TIP3    H126344   0.261   5.719   6.566
 1595TIP3    H226345   0.177   5.817   6.645
 1596TIP3   OH226346   0.332   2.384   1.260
 1596TIP3    H126347   0.418   2.342   1.265
 1596TIP3    H226348   0.299   2.361   1.173
 1597TIP3   OH226349   4.804   0.937   8.580
 1597TIP3    H126350   4.781   0.931   8.488
 1597TIP3    H226351   4.894   0.970   8.581
 1598TIP3   OH226352   1.901   1.894   8.006
 1598TIP3    H126353   1.872   1.926   7.920
 1598TIP3    H226354   1.995   1.877   7.995
 1599TIP3   OH226355   1.673   0.983   1.443
 1599TIP3    H126356   1.745   0.978   1.380
 1599TIP3    H226357   1.602   0.933   1.402
 1600TIP3   OH226358   2.384   6.642   8.035
 1600TIP3    H126359   2.310   6.627   7.976
 1600TIP3    H226360   2.365   6.589   8.112
 1601TIP3   OH226361   5.404   3.162   7.648
 1601TIP3    H126362   5.381   3.070   7.647
 1601TIP3    H226363   5.339   3.204   7.592
 1602TIP3   OH226364   6.737   0.010   1.121
 1602TIP3    H126365   6.681   0.055   1.184
 1602TIP3    H226366   6.691   6.766   1.102
 1603TIP3   OH226367   2.219   5.345   8.639
 1603TIP3    H126368   2.214   5.440   8.648
 1603TIP3    H226369   2.185   5.327   8.551
 1604TIP3   OH226370   0.931   1.792   0.645
 1604TIP3    H126371   0.907   1.766   0.734
 1604TIP3    H226372   0.882   1.872   0.629
 1605TIP3   OH226373   6.248   3.689   6.487
 1605TIP3    H126374   6.172   3.644   6.526
 1605TIP3    H226375   6.268   3.637   6.409
 1606TIP3   OH226376   2.201   0.934   8.308
 1606TIP3    H126377   2.195   0.840   8.323
 1606TIP3    H226378   2.276   0.944   8.250
 1607TIP3   OH226379   4.891   6.465   7.447
 1607TIP3    H126380   4.832   6.391   7.463
 1607TIP3    H226381   4.833   6.542   7.446
 1608TIP3   OH226382   1.660   6.557   8.677
 1608TIP3    H126383   1.615   6.594   8.601
 1608TIP3    H226384   1.616   6.474   8.693
 1609TIP3   OH226385   4.723   2.319   6.298
 1609TIP3    H126386   4.768   2.403   6.308
 1609TIP3    H226387   4.644   2.342   6.248
 1610TIP3   OH226388   6.223   4.266   8.229
 1610TIP3    H126389   6.199   4.183   8.270
 1610TIP3    H226390   6.169   4.270   8.150
 1611TIP3   OH226391   6.805   6.661   8.568
 1611TIP3    H126392   0.028   6.735   8.571
 1611TIP3    H226393   0.014   6.593   8.520
 1612TIP3   OH226394   0.467   5.724   0.155
 1612TIP3    H126395   0.446   5.816   0.169
 1612TIP3    H226396   0.440   5.681   0.236
 1613TIP3   OH226397   6.046   0.661   1.037
 1613TIP3    H126398   6.035   0.611   0.956
 1613TIP3    H226399   6.027   0.597   1.107
 1614TIP3   OH226400   0.471   1.122   8.155
 1614TIP3    H126401   0.465   1.067   8.077
 1614TIP3    H226402   0.563   1.147   8.161
 1615TIP3   OH226403   5.510   0.742   7.711
 1615TIP3    H126404   5.436   0.721   7.769
 1615TIP3    H226405   5.472   0.795   7.641
 1616TIP3   OH226406   1.914   1.175   7.198
 1616TIP3    H126407   1.892   1.197   7.107
 1616TIP3    H226408   2.009   1.165   7.197
 1617TIP3   OH226409   5.165   3.415   7.648
 1617TIP3    H126410   5.155   3.457   7.563
 1617TIP3    H226411   5.208   3.481   7.703
 1618TIP3   OH226412   6.608   5.585   6.942
 1618TIP3    H126413   6.516   5.597   6.964
 1618TIP3    H226414   6.623   5.643   6.867
 1619TIP3   OH226415   6.168   5.839   2.466
 1619TIP3    H126416   6.195   5.752   2.436
 1619TIP3    H226417   6.084   5.823   2.511
 1620TIP3   OH226418   0.657   0.989   7.419
 1620TIP3    H126419   0.635   0.914   7.473
 1620TIP3    H226420   0.634   1.065   7.472
 1621TIP3   OH226421   4.184   4.323   1.065
 1621TIP3    H126422   4.247   4.257   1.095
 1621TIP3    H226423   4.194   4.323   0.969
 1622TIP3   OH226424   5.274   4.879   7.542
 1622TIP3    H126425   5.196   4.848   7.589
 1622TIP3    H226426   5.261   4.973   7.534
 1623TIP3   OH226427   1.029   4.233   7.451
 1623TIP3    H126428   0.945   4.204   7.486
 1623TIP3    H226429   1.041   4.183   7.371
 1624TIP3   OH226430   0.043   5.086   0.458
 1624TIP3    H126431   0.092   5.065   0.537
 1624TIP3    H226432   0.108   5.088   0.388
 1625TIP3   OH226433   4.488   5.519   8.561
 1625TIP3    H126434   4.442   5.448   8.516
 1625TIP3    H226435   4.452   5.599   8.524
 1626TIP3   OH226436   0.787   1.031   0.168
 1626TIP3    H126437   0.750   0.984   0.093
 1626TIP3    H226438   0.863   1.078   0.133
 1627TIP3   OH226439   2.861   5.884   0.543
 1627TIP3    H126440   2.799   5.911   0.610
 1627TIP3    H226441   2.815   5.818   0.492
 1628TIP3   OH226442   3.880   5.944   7.256
 1628TIP3    H126443   3.936   6.021   7.265
 1628TIP3    H226444   3.807   5.960   7.317
 1629TIP3   OH226445   2.845   3.342   7.864
 1629TIP3    H126446   2.850   3.437   7.872
 1629TIP3    H226447   2.765   3.326   7.814
 1630TIP3   OH226448   0.205   4.580   0.222
 1630TIP3    H126449   0.237   4.620   0.141
 1630TIP3    H226450   0.225   4.645   0.290
 1631TIP3   OH226451   0.855   5.065   6.857
 1631TIP3    H126452   0.899   4.994   6.811
 1631TIP3    H226453   0.850   5.136   6.793
 1632TIP3   OH226454   1.722   5.897   2.036
 1632TIP3    H126455   1.679   5.821   2.076
 1632TIP3    H226456   1.660   5.969   2.048
 1633TIP3   OH226457   0.067   5.449   6.999
 1633TIP3    H126458   0.006   5.445   7.073
 1633TIP3    H226459   0.152   5.469   7.040
 1634TIP3   OH226460   5.355   6.151   0.579
 1634TIP3    H126461   5.323   6.060   0.575
 1634TIP3    H226462   5.383   6.170   0.490
 1635TIP3   OH226463   0.822   2.528   1.316
 1635TIP3    H126464   0.826   2.478   1.235
 1635TIP3    H226465   0.912   2.526   1.349
 1636TIP3   OH226466   2.022   2.012   1.349
 1636TIP3    H126467   2.077   2.005   1.271
 1636TIP3    H226468   1.954   2.075   1.324
 1637TIP3   OH226469   6.210   0.903   8.694
 1637TIP3    H126470   6.133   0.961   8.695
 1637TIP3    H226471   6.220   0.878   8.602
 1638TIP3   OH226472   0.300   2.922   8.043
 1638TIP3    H126473   0.336   2.834   8.032
 1638TIP3    H226474   0.209   2.914   8.013
 1639TIP3   OH226475   4.243   4.408   7.327
 1639TIP3    H126476   4.147   4.406   7.324
 1639TIP3    H226477   4.266   4.357   7.405
 1640TIP3   OH226478   5.237   4.747   7.897
 1640TIP3    H126479   5.288   4.766   7.976
 1640TIP3    H226480   5.299   4.705   7.838
 1641TIP3   OH226481   0.968   1.466   1.341
 1641TIP3    H126482   0.926   1.388   1.380
 1641TIP3    H226483   0.912   1.488   1.267
 1642TIP3   OH226484   4.617   1.449   7.760
 1642TIP3    H126485   4.660   1.535   7.761
 1642TIP3    H226486   4.652   1.406   7.683
 1643TIP3   OH226487   0.916   4.891   8.618
 1643TIP3    H126488   0.935   4.981   8.645
 1643TIP3    H226489   0.874   4.901   8.533
 1644TIP3   OH226490   2.527   4.398   7.669
 1644TIP3    H126491   2.598   4.451   7.706
 1644TIP3    H226492   2.453   4.413   7.727
 1645TIP3   OH226493   2.864   5.586   8.772
 1645TIP3    H126494   2.943   5.532   8.773
 1645TIP3    H226495   2.862   5.629   0.075
 1646TIP3   OH226496   3.235   6.621   8.224
 1646TIP3    H126497   3.229   6.625   8.129
 1646TIP3    H226498   3.155   6.663   8.255
 1647TIP3   OH226499   2.821   3.865   8.392
 1647TIP3    H126500   2.846   3.948   8.352
 1647TIP3    H226501   2.806   3.806   8.319
 1648TIP3   OH226502   3.511   4.949   1.680
 1648TIP3    H126503   3.518   4.895   1.758
 1648TIP3    H226504   3.456   4.898   1.619
 1649TIP3   OH226505   3.679   1.660   6.970
 1649TIP3    H126506   3.587   1.678   6.949
 1649TIP3    H226507   3.726   1.736   6.936
 1650TIP3   OH226508   4.073   0.529   8.297
 1650TIP3    H126509   4.081   0.595   8.365
 1650TIP3    H226510   3.986   0.544   8.259
 1651TIP3   OH226511   3.650   0.792   8.213
 1651TIP3    H126512   3.625   0.884   8.217
 1651TIP3    H226513   3.592   0.755   8.146
 1652TIP3   OH226514   4.204   2.004   8.230
 1652TIP3    H126515   4.191   2.095   8.201
 1652TIP3    H226516   4.299   1.994   8.231
 1653TIP3   OH226517   3.518   2.624   7.282
 1653TIP3    H126518   3.442   2.596   7.334
 1653TIP3    H226519   3.486   2.626   7.192
 1654TIP3   OH226520   6.598   4.302   7.085
 1654TIP3    H126521   6.568   4.248   7.012
 1654TIP3    H226522   6.693   4.288   7.088
 1655TIP3   OH226523   5.079   4.577   0.767
 1655TIP3    H126524   5.033   4.550   0.688
 1655TIP3    H226525   5.111   4.665   0.748
 1656TIP3   OH226526   6.068   1.034   1.860
 1656TIP3    H126527   6.014   0.986   1.923
 1656TIP3    H226528   6.055   0.987   1.777
 1657TIP3   OH226529   4.146   1.332   0.678
 1657TIP3    H126530   4.108   1.418   0.692
 1657TIP3    H226531   4.240   1.346   0.683
 1658TIP3   OH226532   4.106   3.927   7.347
 1658TIP3    H126533   4.199   3.929   7.328
 1658TIP3    H226534   4.071   4.006   7.305
 1659TIP3   OH226535   0.531   6.210   7.577
 1659TIP3    H126536   0.459   6.209   7.640
 1659TIP3    H226537   0.492   6.179   7.495
 1660TIP3   OH226538   2.857   5.339   0.363
 1660TIP3    H126539   2.777   5.364   0.315
 1660TIP3    H226540   2.857   5.395   0.440
 1661TIP3   OH226541   3.898   2.322   7.860
 1661TIP3    H126542   3.945   2.392   7.904
 1661TIP3    H226543   3.845   2.367   7.794
 1662TIP3   OH226544   3.137   6.032   7.167
 1662TIP3    H126545   3.165   6.066   7.252
 1662TIP3    H226546   3.042   6.042   7.168
 1663TIP3   OH226547   1.900   0.869   8.760
 1663TIP3    H126548   1.984   0.866   0.024
 1663TIP3    H226549   1.918   0.921   8.682
 1664TIP3   OH226550   5.653   0.872   7.322
 1664TIP3    H126551   5.585   0.872   7.390
 1664TIP3    H226552   5.609   0.840   7.243
 1665TIP3   OH226553   6.713   5.570   8.480
 1665TIP3    H126554   6.689   5.477   8.473
 1665TIP3    H226555   6.635   5.617   8.449
 1666TIP3   OH226556   4.489   4.544   8.182
 1666TIP3    H126557   4.557   4.523   8.246
 1666TIP3    H226558   4.528   4.522   8.098
 1667TIP3   OH226559   5.373   1.848   0.801
 1667TIP3    H126560   5.317   1.799   0.862
 1667TIP3    H226561   5.364   1.939   0.829
 1668TIP3   OH226562   1.337   2.855   0.199
 1668TIP3    H126563   1.345   2.858   0.294
 1668TIP3    H226564   1.289   2.934   0.176
 1669TIP3   OH226565   5.239   0.327   8.476
 1669TIP3    H126566   5.213   0.412   8.511
 1669TIP3    H226567   5.328   0.340   8.443
 1670TIP3   OH226568   0.601   3.098   1.542
 1670TIP3    H126569   0.611   3.178   1.594
 1670TIP3    H226570   0.536   3.121   1.475
 1671TIP3   OH226571   0.193   2.614   8.157
 1671TIP3    H126572   0.206   2.551   8.086
 1671TIP3    H226573   0.250   2.583   8.227
 1672TIP3   OH226574   0.989   5.800   2.435
 1672TIP3    H126575   1.072   5.775   2.393
 1672TIP3    H226576   0.990   5.895   2.435
 1673TIP3   OH226577   4.018   0.490   1.459
 1673TIP3    H126578   4.067   0.544   1.521
 1673TIP3    H226579   3.980   0.553   1.397
 1674TIP3   OH226580   3.343   0.971   8.029
 1674TIP3    H126581   3.352   0.927   8.113
 1674TIP3    H226582   3.269   1.031   8.042
 1675TIP3   OH226583   0.901   1.479   7.727
 1675TIP3    H126584   0.976   1.491   7.786
 1675TIP3    H226585   0.837   1.543   7.756
 1676TIP3   OH226586   0.608   6.746   0.428
 1676TIP3    H126587   0.619   6.654   0.448
 1676TIP3    H226588   0.569   6.747   0.340
 1677TIP3   OH226589   4.261   3.716   0.997
 1677TIP3    H126590   4.195   3.649   1.018
 1677TIP3    H226591   4.327   3.706   1.066
 1678TIP3   OH226592   0.340   2.794   6.168
 1678TIP3    H126593   0.375   2.832   6.248
 1678TIP3    H226594   0.365   2.855   6.099
 1679TIP3   OH226595   4.959   2.345   7.973
 1679TIP3    H126596   4.891   2.399   8.012
 1679TIP3    H226597   4.954   2.262   8.020
 1680TIP3   OH226598   3.722   4.801   6.623
 1680TIP3    H126599   3.684   4.847   6.698
 1680TIP3    H226600   3.803   4.762   6.658
 1681TIP3   OH226601   3.912   5.107   6.752
 1681TIP3    H126602   3.947   5.063   6.829
 1681TIP3    H226603   3.931   5.047   6.680
 1682TIP3   OH226604   5.493   0.909   6.853
 1682TIP3    H126605   5.452   0.851   6.789
 1682TIP3    H226606   5.587   0.897   6.840
 1683TIP3   OH226607   2.692   3.114   2.904
 1683TIP3    H126608   2.769   3.098   2.849
 1683TIP3    H226609   2.637   3.037   2.891
 1684TIP3   OH226610   4.843   3.198   6.830
 1684TIP3    H126611   4.852   3.202   6.735
 1684TIP3    H226612   4.763   3.147   6.845
 1685TIP3   OH226613   5.302   3.654   7.227
 1685TIP3    H126614   5.249   3.589   7.272
 1685TIP3    H226615   5.318   3.618   7.140
 1686TIP3   OH226616   6.585   5.441   1.455
 1686TIP3    H126617   6.657   5.379   1.440
 1686TIP3    H226618   6.551   5.459   1.367
 1687TIP3   OH226619   0.819   1.187   0.566
 1687TIP3    H126620   0.912   1.170   0.580
 1687TIP3    H226621   0.786   1.106   0.526
 1688TIP3   OH226622   5.211   6.288   6.760
 1688TIP3    H126623   5.179   6.216   6.706
 1688TIP3    H226624   5.286   6.252   6.806
 1689TIP3   OH226625   4.680   2.126   0.759
 1689TIP3    H126626   4.721   2.142   0.674
 1689TIP3    H226627   4.750   2.091   0.813
 1690TIP3   OH226628   5.938   6.094   7.030
 1690TIP3    H126629   5.946   6.061   7.120
 1690TIP3    H226630   5.951   6.188   7.038
 1691TIP3   OH226631   1.492   3.232   0.702
 1691TIP3    H126632   1.549   3.166   0.664
 1691TIP3    H226633   1.512   3.313   0.654
 1692TIP3   OH226634   3.034   0.827   1.633
 1692TIP3    H126635   3.039   0.886   1.708
 1692TIP3    H226636   2.979   0.754   1.663
 1693TIP3   OH226637   4.301   2.001   1.634
 1693TIP3    H126638   4.256   2.080   1.667
 1693TIP3    H226639   4.235   1.957   1.580
 1694TIP3   OH226640   4.369   2.114   1.349
 1694TIP3    H126641   4.339   2.045   1.290
 1694TIP3    H226642   4.296   2.128   1.409
 1695TIP3   OH226643   1.219   0.545   7.754
 1695TIP3    H126644   1.297   0.519   7.804
 1695TIP3    H226645   1.240   0.633   7.722
 1696TIP3   OH226646   3.875   1.108   7.680
 1696TIP3    H126647   3.850   1.016   7.682
 1696TIP3    H226648   3.932   1.120   7.756
 1697TIP3   OH226649   6.759   6.481   7.213
 1697TIP3    H126650   6.796   6.552   7.266
 1697TIP3    H226651   6.692   6.524   7.159
 1698TIP3   OH226652   1.302   5.912   0.916
 1698TIP3    H126653   1.283   5.995   0.872
 1698TIP3    H226654   1.366   5.870   0.858
 1699TIP3   OH226655   1.956   5.240   2.201
 1699TIP3    H126656   1.912   5.323   2.220
 1699TIP3    H226657   1.966   5.198   2.287
 1700TIP3   OH226658   1.819   2.136   0.801
 1700TIP3    H126659   1.903   2.176   0.779
 1700TIP3    H226660   1.834   2.042   0.793
 1701TIP3   OH226661   0.490   6.505   7.979
 1701TIP3    H126662   0.511   6.477   7.890
 1701TIP3    H226663   0.541   6.586   7.992
 1702TIP3   OH226664   4.488   1.031   6.703
 1702TIP3    H126665   4.564   0.974   6.710
 1702TIP3    H226666   4.524   1.118   6.686
 1703TIP3   OH226667   3.349   2.303   0.999
 1703TIP3    H126668   3.277   2.334   1.053
 1703TIP3    H226669   3.427   2.342   1.038
 1704TIP3   OH226670   4.991   3.220   6.287
 1704TIP3    H126671   5.075   3.258   6.311
 1704TIP3    H226672   4.935   3.235   6.364
 1705TIP3   OH226673   5.125   3.023   8.488
 1705TIP3    H126674   5.106   2.969   8.412
 1705TIP3    H226675   5.127   2.961   8.561
 1706TIP3   OH226676   4.234   3.361   7.738
 1706TIP3    H126677   4.154   3.412   7.721
 1706TIP3    H226678   4.230   3.288   7.677
 1707TIP3   OH226679   0.612   3.736   0.749
 1707TIP3    H126680   0.560   3.812   0.775
 1707TIP3    H226681   0.551   3.683   0.698
 1708TIP3   OH226682   5.166   2.600   0.524
 1708TIP3    H126683   5.104   2.611   0.596
 1708TIP3    H226684   5.157   2.680   0.472
 1709TIP3   OH226685   0.469   5.740   7.743
 1709TIP3    H126686   0.546   5.774   7.790
 1709TIP3    H226687   0.455   5.801   7.671
 1710TIP3   OH226688   4.108   5.196   7.686
 1710TIP3    H126689   4.093   5.149   7.768
 1710TIP3    H226690   4.140   5.129   7.625
 1711TIP3   OH226691   6.391   0.996   8.165
 1711TIP3    H126692   6.404   0.910   8.205
 1711TIP3    H226693   6.310   0.987   8.115
 1712TIP3   OH226694   2.527   2.879   8.356
 1712TIP3    H126695   2.466   2.941   8.318
 1712TIP3    H226696   2.472   2.808   8.390
 1713TIP3   OH226697   6.369   2.221   6.729
 1713TIP3    H126698   6.427   2.232   6.805
 1713TIP3    H226699   6.283   2.250   6.760
 1714TIP3   OH226700   1.855   4.789   1.810
 1714TIP3    H126701   1.793   4.844   1.762
 1714TIP3    H226702   1.816   4.781   1.897
 1715TIP3   OH226703   6.299   1.424   7.739
 1715TIP3    H126704   6.366   1.400   7.803
 1715TIP3    H226705   6.323   1.512   7.711
 1716TIP3   OH226706   1.853   4.049   0.589
 1716TIP3    H126707   1.902   4.121   0.551
 1716TIP3    H226708   1.920   3.995   0.633
 1717TIP3   OH226709   1.381   1.991   6.955
 1717TIP3    H126710   1.462   2.017   6.998
 1717TIP3    H226711   1.405   1.982   6.863
 1718TIP3   OH226712   1.728   4.003   1.020
 1718TIP3    H126713   1.807   4.023   0.970
 1718TIP3    H226714   1.736   3.911   1.041
 1719TIP3   OH226715   2.368   1.042   0.125
 1719TIP3    H126716   2.418   1.102   0.070
 1719TIP3    H226717   2.410   1.049   0.211
 1720TIP3   OH226718   0.046   3.450   2.051
 1720TIP3    H126719   0.113   3.512   2.022
 1720TIP3    H226720   0.086   3.364   2.040
 1721TIP3   OH226721   1.218   2.316   1.671
 1721TIP3    H126722   1.278   2.391   1.678
 1721TIP3    H226723   1.180   2.308   1.758
 1722TIP3   OH226724   2.141   0.059   1.053
 1722TIP3    H126725   2.096   0.138   1.024
 1722TIP3    H226726   2.082   6.826   1.031
 1723TIP3   OH226727   0.723   0.746   8.551
 1723TIP3    H126728   0.788   0.698   8.499
 1723TIP3    H226729   0.645   0.747   8.496
 1724TIP3   OH226730   0.569   0.207   7.365
 1724TIP3    H126731   0.600   0.122   7.398
 1724TIP3    H226732   0.479   0.190   7.338
 1725TIP3   OH226733   1.617   5.162   1.048
 1725TIP3    H126734   1.568   5.080   1.056
 1725TIP3    H226735   1.705   5.134   1.021
 1726TIP3   OH226736   3.075   2.609   0.994
 1726TIP3    H126737   3.044   2.553   0.923
 1726TIP3    H226738   3.006   2.675   1.005
 1727TIP3   OH226739   0.935   3.768   0.069
 1727TIP3    H126740   0.896   3.683   0.092
 1727TIP3    H226741   0.875   3.804   0.003
 1728TIP3   OH226742   5.738   0.547   0.277
 1728TIP3    H126743   5.729   0.578   0.187
 1728TIP3    H226744   5.686   0.608   0.329
 1729TIP3   OH226745   4.064   2.011   1.266
 1729TIP3    H126746   3.988   1.977   1.219
 1729TIP3    H226747   4.140   1.981   1.215
 1730TIP3   OH226748   6.806   6.582   0.746
 1730TIP3    H126749   6.775   6.538   0.825
 1730TIP3    H226750   0.034   6.644   0.777
 1731TIP3   OH226751   1.359   3.978   1.329
 1731TIP3    H126752   1.422   4.020   1.270
 1731TIP3    H226753   1.338   3.895   1.286
 1732TIP3   OH226754   0.030   2.034   0.147
 1732TIP3    H126755   0.041   1.950   0.193
 1732TIP3    H226756   0.050   2.013   0.056
 1733TIP3   OH226757   6.654   1.302   7.004
 1733TIP3    H126758   6.681   1.237   6.939
 1733TIP3    H226759   6.563   1.324   6.981
 1734TIP3   OH226760   1.496   4.390   7.959
 1734TIP3    H126761   1.436   4.427   7.894
 1734TIP3    H226762   1.486   4.446   8.036
 1735TIP3   OH226763   6.354   5.748   1.239
 1735TIP3    H126764   6.357   5.777   1.147
 1735TIP3    H226765   6.310   5.820   1.285
 1736TIP3   OH226766   3.421   5.532   0.491
 1736TIP3    H126767   3.416   5.521   0.396
 1736TIP3    H226768   3.462   5.617   0.503
 1737TIP3   OH226769   2.755   4.767   7.304
 1737TIP3    H126770   2.668   4.737   7.280
 1737TIP3    H226771   2.815   4.707   7.259
 1738TIP3   OH226772   0.207   3.350   7.944
 1738TIP3    H126773   0.177   3.263   7.918
 1738TIP3    H226774   0.268   3.334   8.016
 1739TIP3   OH226775   2.571   6.542   7.406
 1739TIP3    H126776   2.492   6.497   7.435
 1739TIP3    H226777   2.582   6.517   7.315
 1740TIP3   OH226778   6.159   3.338   8.757
 1740TIP3    H126779   6.129   3.257   8.717
 1740TIP3    H226780   6.108   3.344   0.056
 1741TIP3   OH226781   4.929   5.996   0.518
 1741TIP3    H126782   4.972   6.081   0.506
 1741TIP3    H226783   4.898   5.998   0.609
 1742TIP3   OH226784   5.828   6.777   2.460
 1742TIP3    H126785   5.909   6.781   2.409
 1742TIP3    H226786   5.788   0.024   2.447
 1743TIP3   OH226787   2.953   6.550   0.999
 1743TIP3    H126788   2.938   6.587   0.912
 1743TIP3    H226789   2.989   6.622   1.050
 1744TIP3   OH226790   5.426   4.903   7.088
 1744TIP3    H126791   5.490   4.961   7.128
 1744TIP3    H226792   5.427   4.824   7.142
 1745TIP3   OH226793   6.629   4.604   8.031
 1745TIP3    H126794   6.611   4.519   7.993
 1745TIP3    H226795   6.596   4.598   8.121
 1746TIP3   OH226796   5.925   5.347   6.754
 1746TIP3    H126797   5.954   5.264   6.717
 1746TIP3    H226798   6.005   5.393   6.777
 1747TIP3   OH226799   0.773   4.303   0.696
 1747TIP3    H126800   0.796   4.375   0.755
 1747TIP3    H226801   0.847   4.296   0.636
 1748TIP3   OH226802   1.653   6.666   7.601
 1748TIP3    H126803   1.646   6.658   7.506
 1748TIP3    H226804   1.747   6.678   7.617
 1749TIP3   OH226805   4.315   2.763   8.648
 1749TIP3    H126806   4.298   2.681   8.694
 1749TIP3    H226807   4.401   2.791   8.679
 1750TIP3   OH226808   2.195   1.651   1.560
 1750TIP3    H126809   2.169   1.565   1.594
 1750TIP3    H226810   2.235   1.695   1.635
 1751TIP3   OH226811   5.435   1.687   7.483
 1751TIP3    H126812   5.367   1.736   7.437
 1751TIP3    H226813   5.389   1.616   7.528
 1752TIP3   OH226814   4.521   0.428   6.202
 1752TIP3    H126815   4.435   0.386   6.200
 1752TIP3    H226816   4.513   0.496   6.269
 1753TIP3   OH226817   3.888   4.676   0.556
 1753TIP3    H126818   3.880   4.585   0.530
 1753TIP3    H226819   3.909   4.723   0.476
 1754TIP3   OH226820   6.546   5.035   8.318
 1754TIP3    H126821   6.539   4.940   8.313
 1754TIP3    H226822   6.544   5.064   8.227
 1755TIP3   OH226823   0.039   0.526   1.576
 1755TIP3    H126824   6.818   0.497   1.507
 1755TIP3    H226825   6.822   0.578   1.634
 1756TIP3   OH226826   5.106   5.264   1.287
 1756TIP3    H126827   5.103   5.171   1.312
 1756TIP3    H226828   5.198   5.282   1.272
 1757TIP3   OH226829   1.303   0.420   1.692
 1757TIP3    H126830   1.336   0.509   1.686
 1757TIP3    H226831   1.324   0.393   1.782
 1758TIP3   OH226832   1.084   0.187   1.318
 1758TIP3    H126833   1.169   0.147   1.337
 1758TIP3    H226834   1.073   0.253   1.386
 1759TIP3   OH226835   5.447   2.500   6.402
 1759TIP3    H126836   5.525   2.544   6.433
 1759TIP3    H226837   5.388   2.499   6.477
 1760TIP3   OH226838   0.749   3.400   0.269
 1760TIP3    H126839   0.662   3.400   0.230
 1760TIP3    H226840   0.758   3.313   0.309
 1761TIP3   OH226841   2.222   3.723   6.757
 1761TIP3    H126842   2.160   3.770   6.812
 1761TIP3    H226843   2.287   3.789   6.731
 1762TIP3   OH226844   4.080   1.861   2.469
 1762TIP3    H126845   4.170   1.884   2.494
 1762TIP3    H226846   4.063   1.779   2.514
 1763TIP3   OH226847   5.112   3.460   7.385
 1763TIP3    H126848   5.050   3.524   7.349
 1763TIP3    H226849   5.104   3.384   7.328
 1764TIP3   OH226850   6.301   4.117   2.401
 1764TIP3    H126851   6.327   4.205   2.372
 1764TIP3    H226852   6.237   4.088   2.336
 1765TIP3   OH226853   2.164   2.578   0.856
 1765TIP3    H126854   2.171   2.591   0.950
 1765TIP3    H226855   2.079   2.615   0.833
 1766TIP3   OH226856   4.284   1.979   1.094
 1766TIP3    H126857   4.338   1.913   1.051
 1766TIP3    H226858   4.302   2.060   1.046
 1767TIP3   OH226859   5.454   2.718   8.070
 1767TIP3    H126860   5.428   2.781   8.003
 1767TIP3    H226861   5.477   2.639   8.022
 1768TIP3   OH226862   3.793   3.959   7.273
 1768TIP3    H126863   3.829   3.889   7.328
 1768TIP3    H226864   3.741   4.012   7.333
 1769TIP3   OH226865   3.842   2.129   8.467
 1769TIP3    H126866   3.777   2.059   8.471
 1769TIP3    H226867   3.804   2.194   8.407
 1770TIP3   OH226868   4.708   3.492   8.539
 1770TIP3    H126869   4.689   3.557   8.606
 1770TIP3    H226870   4.633   3.496   8.479
 1771TIP3   OH226871   3.431   5.575   2.021
 1771TIP3    H126872   3.524   5.555   2.027
 1771TIP3    H226873   3.397   5.514   1.956
 1772TIP3   OH226874   6.771   2.257   6.756
 1772TIP3    H126875   6.807   2.171   6.734
 1772TIP3    H226876   6.816   2.318   6.697
 1773TIP3   OH226877   1.658   4.626   0.692
 1773TIP3    H126878   1.711   4.547   0.690
 1773TIP3    H226879   1.705   4.686   0.751
 1774TIP3   OH226880   5.341   0.840   8.504
 1774TIP3    H126881   5.356   0.934   8.494
 1774TIP3    H226882   5.414   0.799   8.459
 1775TIP3   OH226883   6.352   3.855   0.779
 1775TIP3    H126884   6.355   3.915   0.854
 1775TIP3    H226885   6.266   3.814   0.784
 1776TIP3   OH226886   3.442   6.414   1.409
 1776TIP3    H126887   3.461   6.364   1.489
 1776TIP3    H226888   3.433   6.348   1.341
 1777TIP3   OH226889   3.221   4.175   1.289
 1777TIP3    H126890   3.238   4.117   1.362
 1777TIP3    H226891   3.306   4.187   1.246
 1778TIP3   OH226892   4.471   5.435   1.366
 1778TIP3    H126893   4.388   5.408   1.404
 1778TIP3    H226894   4.537   5.380   1.409
 1779TIP3   OH226895   0.674   3.223   2.184
 1779TIP3    H126896   0.763   3.246   2.212
 1779TIP3    H226897   0.626   3.306   2.188
 1780TIP3   OH226898   6.825   6.551   1.071
 1780TIP3    H126899   0.030   6.474   1.105
 1780TIP3    H226900   6.741   6.554   1.118
 1781TIP3   OH226901   4.296   5.127   0.047
 1781TIP3    H126902   4.317   5.158   0.135
 1781TIP3    H226903   4.255   5.202   0.003
 1782TIP3   OH226904   6.789   1.110   0.505
 1782TIP3    H126905   6.746   1.045   0.560
 1782TIP3    H226906   6.832   1.060   0.436
 1783TIP3   OH226907   2.781   6.221   7.966
 1783TIP3    H126908   2.696   6.257   7.993
 1783TIP3    H226909   2.822   6.292   7.916
 1784TIP3   OH226910   4.208   3.156   7.548
 1784TIP3    H126911   4.198   3.187   7.458
 1784TIP3    H226912   4.120   3.126   7.573
 1785TIP3   OH226913   5.270   3.459   7.019
 1785TIP3    H126914   5.331   3.385   7.009
 1785TIP3    H226915   5.316   3.533   6.977
 1786TIP3   OH226916   4.267   3.645   7.506
 1786TIP3    H126917   4.310   3.717   7.552
 1786TIP3    H226918   4.334   3.576   7.502
 1787TIP3   OH226919   3.866   0.158   1.372
 1787TIP3    H126920   3.877   0.084   1.312
 1787TIP3    H226921   3.826   0.120   1.450
 1788TIP3   OH226922   1.150   6.634   7.413
 1788TIP3    H126923   1.157   6.716   7.463
 1788TIP3    H226924   1.240   6.601   7.409
 1789TIP3   OH226925   6.801   5.700   7.475
 1789TIP3    H126926   0.043   5.668   7.435
 1789TIP3    H226927   6.756   5.746   7.405
 1790TIP3   OH226928   0.446   5.006   0.920
 1790TIP3    H126929   0.418   4.999   1.011
 1790TIP3    H226930   0.399   5.082   0.886
 1791TIP3   OH226931   2.453   0.749   2.041
 1791TIP3    H126932   2.444   0.703   1.958
 1791TIP3    H226933   2.382   0.714   2.096
 1792TIP3   OH226934   3.737   4.983   2.142
 1792TIP3    H126935   3.719   5.069   2.104
 1792TIP3    H226936   3.651   4.943   2.151
 1793TIP3   OH226937   2.537   3.406   8.478
 1793TIP3    H126938   2.584   3.487   8.497
 1793TIP3    H226939   2.454   3.434   8.440
 1794TIP3   OH226940   4.375   3.153   6.460
 1794TIP3    H126941   4.400   3.089   6.393
 1794TIP3    H226942   4.456   3.200   6.480
 1795TIP3   OH226943   2.196   6.158   1.609
 1795TIP3    H126944   2.209   6.164   1.704
 1795TIP3    H226945   2.261   6.094   1.580
 1796TIP3   OH226946   3.621   6.353   2.708
 1796TIP3    H126947   3.574   6.425   2.667
 1796TIP3    H226948   3.575   6.274   2.680
 1797TIP3   OH226949   0.747   1.302   2.222
 1797TIP3    H126950   0.771   1.273   2.134
 1797TIP3    H226951   0.651   1.302   2.222
 1798TIP3   OH226952   4.511   5.555   2.244
 1798TIP3    H126953   4.592   5.541   2.293
 1798TIP3    H226954   4.446   5.499   2.289
 1799TIP3   OH226955   2.509   5.052   1.693
 1799TIP3    H126956   2.454   5.109   1.639
 1799TIP3    H226957   2.480   5.069   1.783
 1800TIP3   OH226958   2.284   1.690   7.865
 1800TIP3    H126959   2.255   1.599   7.865
 1800TIP3    H226960   2.295   1.712   7.773
 1801TIP3   OH226961   6.569   1.681   6.906
 1801TIP3    H126962   6.548   1.766   6.867
 1801TIP3    H226963   6.491   1.628   6.892
 1802TIP3   OH226964   0.576   3.774   0.132
 1802TIP3    H126965   0.630   3.847   0.163
 1802TIP3    H226966   0.538   3.738   0.212
 1803TIP3   OH226967   3.847   0.466   8.032
 1803TIP3    H126968   3.792   0.434   8.104
 1803TIP3    H226969   3.897   0.390   8.005
 1804TIP3   OH226970   1.889   3.345   7.433
 1804TIP3    H126971   1.886   3.250   7.424
 1804TIP3    H226972   1.877   3.379   7.345
 1805TIP3   OH226973   4.767   1.305   1.012
 1805TIP3    H126974   4.755   1.230   0.953
 1805TIP3    H226975   4.818   1.269   1.085
 1806TIP3   OH226976   2.508   4.268   8.625
 1806TIP3    H126977   2.529   4.309   8.710
 1806TIP3    H226978   2.414   4.255   8.627
 1807TIP3   OH226979   4.707   1.486   2.091
 1807TIP3    H126980   4.681   1.408   2.042
 1807TIP3    H226981   4.754   1.540   2.028
 1808TIP3   OH226982   0.823   6.151   8.598
 1808TIP3    H126983   0.875   6.214   8.548
 1808TIP3    H226984   0.743   6.198   8.621
 1809TIP3   OH226985   3.161   0.827   2.022
 1809TIP3    H126986   3.132   0.737   2.007
 1809TIP3    H226987   3.187   0.829   2.114
 1810TIP3   OH226988   0.851   1.296   7.513
 1810TIP3    H126989   0.856   1.344   7.596
 1810TIP3    H226990   0.941   1.298   7.479
 1811TIP3   OH226991   1.529   3.634   6.208
 1811TIP3    H126992   1.526   3.539   6.222
 1811TIP3    H226993   1.439   3.658   6.188
 1812TIP3   OH226994   0.898   2.329   0.832
 1812TIP3    H126995   0.942   2.384   0.767
 1812TIP3    H226996   0.951   2.336   0.911
 1813TIP3   OH226997   6.782   3.430   8.013
 1813TIP3    H126998   6.727   3.435   7.935
 1813TIP3    H226999   6.837   3.508   8.009
 1814TIP3   OH227000   2.236   4.263   1.669
 1814TIP3    H127001   2.322   4.268   1.710
 1814TIP3    H227002   2.249   4.207   1.593
 1815TIP3   OH227003   2.815   5.318   1.359
 1815TIP3    H127004   2.857   5.385   1.413
 1815TIP3    H227005   2.730   5.305   1.400
 1816TIP3   OH227006   3.723   4.896   1.248
 1816TIP3    H127007   3.728   4.893   1.343
 1816TIP3    H227008   3.799   4.846   1.218
 1817TIP3   OH227009   0.966   6.473   0.929
 1817TIP3    H127010   1.023   6.547   0.947
 1817TIP3    H227011   0.999   6.437   0.847
 1818TIP3   OH227012   4.005   0.644   7.020
 1818TIP3    H127013   3.910   0.634   7.020
 1818TIP3    H227014   4.029   0.643   7.113
 1819TIP3   OH227015   3.756   5.106   0.020
 1819TIP3    H127016   3.805   5.142   0.095
 1819TIP3    H227017   3.774   5.167   8.731
 1820TIP3   OH227018   1.078   6.265   8.353
 1820TIP3    H127019   1.096   6.237   8.443
 1820TIP3    H227020   1.139   6.337   8.338
 1821TIP3   OH227021   4.154   5.171   2.357
 1821TIP3    H127022   4.097   5.113   2.307
 1821TIP3    H227023   4.220   5.113   2.395
 1822TIP3   OH227024   5.920   2.541   7.902
 1822TIP3    H127025   5.911   2.525   7.809
 1822TIP3    H227026   5.947   2.457   7.938
 1823TIP3   OH227027   2.395   3.541   0.778
 1823TIP3    H127028   2.409   3.563   0.870
 1823TIP3    H227029   2.363   3.621   0.738
 1824TIP3   OH227030   3.597   3.995   0.721
 1824TIP3    H127031   3.594   4.090   0.727
 1824TIP3    H227032   3.505   3.969   0.719
 1825TIP3   OH227033   4.624   0.635   0.697
 1825TIP3    H127034   4.586   0.596   0.776
 1825TIP3    H227035   4.719   0.633   0.713
 1826TIP3   OH227036   6.583   2.216   2.176
 1826TIP3    H127037   6.665   2.203   2.129
 1826TIP3    H227038   6.531   2.274   2.120
 1827TIP3   OH227039   4.969   3.420   1.033
 1827TIP3    H127040   5.053   3.384   1.063
 1827TIP3    H227041   4.962   3.391   0.942
 1828TIP3   OH227042   2.302   5.686   1.151
 1828TIP3    H127043   2.253   5.633   1.215
 1828TIP3    H227044   2.298   5.775   1.186
 1829TIP3   OH227045   5.531   6.031   0.328
 1829TIP3    H127046   5.450   6.082   0.331
 1829TIP3    H227047   5.551   6.025   0.235
 1830TIP3   OH227048   2.153   5.280   0.685
 1830TIP3    H127049   2.132   5.345   0.752
 1830TIP3    H227050   2.248   5.271   0.689
 1831TIP3   OH227051   2.507   6.128   7.393
 1831TIP3    H127052   2.456   6.206   7.417
 1831TIP3    H227053   2.597   6.160   7.385
 1832TIP3   OH227054   6.160   2.246   8.171
 1832TIP3    H127055   6.193   2.165   8.133
 1832TIP3    H227056   6.176   2.237   8.265
 1833TIP3   OH227057   1.602   0.032   0.078
 1833TIP3    H127058   1.538   6.818   0.029
 1833TIP3    H227059   1.581   0.015   0.170
 1834TIP3   OH227060   6.224   3.959   7.373
 1834TIP3    H127061   6.296   4.004   7.328
 1834TIP3    H227062   6.260   3.873   7.395
 1835TIP3   OH227063   3.846   0.852   7.764
 1835TIP3    H127064   3.786   0.778   7.763
 1835TIP3    H227065   3.865   0.867   7.857
 1836TIP3   OH227066   4.749   0.915   8.316
 1836TIP3    H127067   4.686   0.905   8.244
 1836TIP3    H227068   4.832   0.936   8.274
 1837TIP3   OH227069   0.421   0.770   8.076
 1837TIP3    H127070   0.345   0.733   8.031
 1837TIP3    H227071   0.401   0.762   8.169
 1838TIP3   OH227072   5.733   6.209   1.935
 1838TIP3    H127073   5.676   6.276   1.973
 1838TIP3    H227074   5.822   6.236   1.959
 1839TIP3   OH227075   0.034   5.084   1.717
 1839TIP3    H127076   0.108   5.029   1.742
 1839TIP3    H227077   0.074   5.168   1.693
 1840TIP3   OH227078   6.239   1.732   8.017
 1840TIP3    H127079   6.236   1.721   7.921
 1840TIP3    H227080   6.333   1.737   8.037
 1841TIP3   OH227081   3.255   0.340   0.542
 1841TIP3    H127082   3.343   0.304   0.524
 1841TIP3    H227083   3.257   0.364   0.634
 1842TIP3   OH227084   2.625   0.958   0.346
 1842TIP3    H127085   2.665   1.029   0.295
 1842TIP3    H227086   2.697   0.923   0.399
 1843TIP3   OH227087   2.294   4.932   1.521
 1843TIP3    H127088   2.199   4.949   1.524
 1843TIP3    H227089   2.307   4.860   1.582
 1844TIP3   OH227090   2.995   0.012   1.084
 1844TIP3    H127091   3.080   0.049   1.108
 1844TIP3    H227092   2.934   0.086   1.087
 1845TIP3   OH227093   4.595   6.273   7.199
 1845TIP3    H127094   4.639   6.335   7.141
 1845TIP3    H227095   4.664   6.240   7.257
 1846TIP3   OH227096   4.593   1.621   2.471
 1846TIP3    H127097   4.610   1.528   2.452
 1846TIP3    H227098   4.677   1.664   2.454
 1847TIP3   OH227099   0.207   5.882   0.642
 1847TIP3    H127100   0.126   5.852   0.602
 1847TIP3    H227101   0.181   5.916   0.728
 1848TIP3   OH227102   0.209   0.056   7.737
 1848TIP3    H127103   0.264   0.002   7.795
 1848TIP3    H227104   0.269   0.085   7.669
 1849TIP3   OH227105   2.473   4.603   8.516
 1849TIP3    H127106   2.438   4.566   8.435
 1849TIP3    H227107   2.499   4.692   8.493
 1850TIP3   OH227108   6.822   0.430   1.143
 1850TIP3    H127109   0.021   0.362   1.087
 1850TIP3    H227110   0.057   0.458   1.198
 1851TIP3   OH227111   2.508   4.856   8.410
 1851TIP3    H127112   2.467   4.825   8.328
 1851TIP3    H227113   2.448   4.923   8.442
 1852TIP3   OH227114   6.784   4.324   6.160
 1852TIP3    H127115   0.015   4.329   6.226
 1852TIP3    H227116   6.767   4.230   6.151
 1853TIP3   OH227117   2.975   5.614   6.335
 1853TIP3    H127118   2.925   5.565   6.270
 1853TIP3    H227119   2.977   5.704   6.300
 1854TIP3   OH227120   1.376   4.035   1.589
 1854TIP3    H127121   1.379   4.016   1.495
 1854TIP3    H227122   1.462   4.073   1.609
 1855TIP3   OH227123   0.432   5.331   8.010
 1855TIP3    H127124   0.468   5.247   8.040
 1855TIP3    H227125   0.444   5.390   8.085
 1856TIP3   OH227126   1.701   5.740   8.542
 1856TIP3    H127127   1.797   5.742   8.536
 1856TIP3    H227128   1.676   5.832   8.548
 1857TIP3   OH227129   5.839   2.828   0.324
 1857TIP3    H127130   5.752   2.844   0.360
 1857TIP3    H227131   5.826   2.828   0.229
 1858TIP3   OH227132   4.303   6.642   7.415
 1858TIP3    H127133   4.272   6.586   7.344
 1858TIP3    H227134   4.324   6.580   7.486
 1859TIP3   OH227135   1.779   1.287   8.200
 1859TIP3    H127136   1.864   1.250   8.178
 1859TIP3    H227137   1.779   1.373   8.157
 1860TIP3   OH227138   3.726   2.587   1.802
 1860TIP3    H127139   3.796   2.537   1.759
 1860TIP3    H227140   3.772   2.658   1.847
 1861TIP3   OH227141   1.810   6.072   0.567
 1861TIP3    H127142   1.766   6.057   0.484
 1861TIP3    H227143   1.825   6.167   0.569
 1862TIP3   OH227144   0.016   0.240   8.346
 1862TIP3    H127145   6.776   0.185   8.345
 1862TIP3    H227146   0.008   0.292   8.426
 1863TIP3   OH227147   6.409   4.551   0.515
 1863TIP3    H127148   6.421   4.645   0.510
 1863TIP3    H227149   6.469   4.516   0.448
 1864TIP3   OH227150   2.941   4.263   7.261
 1864TIP3    H127151   2.995   4.227   7.190
 1864TIP3    H227152   2.852   4.238   7.238
 1865TIP3   OH227153   1.268   6.312   1.710
 1865TIP3    H127154   1.252   6.388   1.766
 1865TIP3    H227155   1.184   6.265   1.710
 1866TIP3   OH227156   3.530   5.041   8.657
 1866TIP3    H127157   3.590   5.060   8.729
 1866TIP3    H227158   3.459   4.992   8.697
 1867TIP3   OH227159   0.389   4.814   7.579
 1867TIP3    H127160   0.331   4.833   7.652
 1867TIP3    H227161   0.472   4.856   7.603
 1868TIP3   OH227162   2.563   1.096   6.207
 1868TIP3    H127163   2.602   1.159   6.146
 1868TIP3    H227164   2.616   1.104   6.287
 1869TIP3   OH227165   3.020   3.765   8.564
 1869TIP3    H127166   2.974   3.776   8.481
 1869TIP3    H227167   2.953   3.782   8.631
 1870TIP3   OH227168   5.243   1.167   0.676
 1870TIP3    H127169   5.279   1.188   0.762
 1870TIP3    H227170   5.295   1.219   0.614
 1871TIP3   OH227171   1.779   3.263   0.737
 1871TIP3    H127172   1.736   3.322   0.675
 1871TIP3    H227173   1.722   3.264   0.814
 1872TIP3   OH227174   5.093   1.196   1.754
 1872TIP3    H127175   5.156   1.252   1.710
 1872TIP3    H227176   5.080   1.122   1.695
 1873TIP3   OH227177   0.998   0.064   1.687
 1873TIP3    H127178   1.029   0.140   1.638
 1873TIP3    H227179   1.046   6.828   1.651
 1874TIP3   OH227180   0.130   4.505   1.304
 1874TIP3    H127181   0.055   4.511   1.245
 1874TIP3    H227182   0.196   4.563   1.265
 1875TIP3   OH227183   2.199   6.112   8.275
 1875TIP3    H127184   2.275   6.136   8.222
 1875TIP3    H227185   2.234   6.106   8.364
 1876TIP3   OH227186   5.261   5.530   0.818
 1876TIP3    H127187   5.345   5.485   0.831
 1876TIP3    H227188   5.204   5.462   0.781
 1877TIP3   OH227189   1.925   2.760   1.469
 1877TIP3    H127190   1.962   2.791   1.386
 1877TIP3    H227191   1.832   2.745   1.450
 1878TIP3   OH227192   5.917   4.402   8.201
 1878TIP3    H127193   5.829   4.389   8.164
 1878TIP3    H227194   5.952   4.314   8.211
 1879TIP3   OH227195   4.724   0.107   6.707
 1879TIP3    H127196   4.757   0.065   6.628
 1879TIP3    H227197   4.803   0.130   6.757
 1880TIP3   OH227198   2.375   2.515   7.463
 1880TIP3    H127199   2.306   2.571   7.500
 1880TIP3    H227200   2.420   2.479   7.540
 1881TIP3   OH227201   6.236   5.912   8.034
 1881TIP3    H127202   6.158   5.967   8.047
 1881TIP3    H227203   6.280   5.913   8.119
 1882TIP3   OH227204   4.571   2.742   0.992
 1882TIP3    H127205   4.535   2.817   1.038
 1882TIP3    H227206   4.653   2.774   0.954
 1883TIP3   OH227207   6.256   3.667   8.782
 1883TIP3    H127208   6.223   3.581   8.758
 1883TIP3    H227209   6.284   3.706   8.699
 1884TIP3   OH227210   5.766   5.934   8.232
 1884TIP3    H127211   5.770   5.849   8.276
 1884TIP3    H227212   5.787   5.997   8.301
 1885TIP3   OH227213   3.021   1.079   1.485
 1885TIP3    H127214   3.032   1.006   1.546
 1885TIP3    H227215   3.001   1.037   1.401
 1886TIP3   OH227216   2.760   2.698   1.914
 1886TIP3    H127217   2.726   2.650   1.838
 1886TIP3    H227218   2.686   2.753   1.941
 1887TIP3   OH227219   0.478   2.618   2.057
 1887TIP3    H127220   0.557   2.602   2.004
 1887TIP3    H227221   0.473   2.543   2.116
 1888TIP3   OH227222   6.529   5.450   1.732
 1888TIP3    H127223   6.583   5.389   1.782
 1888TIP3    H227224   6.541   5.422   1.641
 1889TIP3   OH227225   1.777   4.278   7.950
 1889TIP3    H127226   1.805   4.257   7.861
 1889TIP3    H227227   1.693   4.323   7.939
 1890TIP3   OH227228   6.017   2.439   8.681
 1890TIP3    H127229   6.110   2.461   8.693
 1890TIP3    H227230   6.005   2.434   8.586
 1891TIP3   OH227231   5.626   6.769   8.060
 1891TIP3    H127232   5.704   6.749   8.112
 1891TIP3    H227233   5.553   6.765   8.122
 1892TIP3   OH227234   2.282   5.029   8.512
 1892TIP3    H127235   2.207   5.076   8.476
 1892TIP3    H227236   2.345   5.098   8.534
 1893TIP3   OH227237   3.098   3.440   7.030
 1893TIP3    H127238   3.058   3.364   7.071
 1893TIP3    H227239   3.050   3.515   7.066
 1894TIP3   OH227240   4.025   5.913   7.703
 1894TIP3    H127241   4.030   5.827   7.661
 1894TIP3    H227242   3.969   5.899   7.779
 1895TIP3   OH227243   0.470   5.254   0.627
 1895TIP3    H127244   0.474   5.303   0.544
 1895TIP3    H227245   0.510   5.170   0.606
 1896TIP3   OH227246   1.010   4.721   0.326
 1896TIP3    H127247   0.925   4.748   0.291
 1896TIP3    H227248   1.058   4.688   0.250
 1897TIP3   OH227249   1.677   2.309   8.559
 1897TIP3    H127250   1.649   2.400   8.570
 1897TIP3    H227251   1.671   2.272   8.647
 1898TIP3   OH227252   1.463   5.199   8.413
 1898TIP3    H127253   1.528   5.147   8.458
 1898TIP3    H227254   1.507   5.230   8.334
 1899TIP3   OH227255   6.468   4.446   8.282
 1899TIP3    H127256   6.446   4.421   8.372
 1899TIP3    H227257   6.411   4.390   8.228
 1900TIP3   OH227258   3.672   0.052   8.461
 1900TIP3    H127259   3.591   0.013   8.428
 1900TIP3    H227260   3.650   0.144   8.476
 1901TIP3   OH227261   4.545   2.718   1.416
 1901TIP3    H127262   4.454   2.719   1.386
 1901TIP3    H227263   4.595   2.683   1.342
 1902TIP3   OH227264   1.632   3.026   8.143
 1902TIP3    H127265   1.705   2.964   8.137
 1902TIP3    H227266   1.656   3.097   8.083
 1903TIP3   OH227267   5.760   2.551   0.319
 1903TIP3    H127268   5.693   2.548   0.387
 1903TIP3    H227269   5.824   2.614   0.351
 1904TIP3   OH227270   1.760   4.357   0.669
 1904TIP3    H127271   1.702   4.286   0.640
 1904TIP3    H227272   1.842   4.342   0.622
 1905TIP3   OH227273   2.565   6.462   1.360
 1905TIP3    H127274   2.521   6.532   1.408
 1905TIP3    H227275   2.526   6.465   1.272
 1906TIP3   OH227276   5.510   3.517   7.554
 1906TIP3    H127277   5.458   3.455   7.503
 1906TIP3    H227278   5.600   3.506   7.521
 1907TIP3   OH227279   4.554   2.543   6.238
 1907TIP3    H127280   4.636   2.552   6.287
 1907TIP3    H227281   4.517   2.631   6.238
 1908TIP3   OH227282   1.433   4.652   0.925
 1908TIP3    H127283   1.452   4.599   0.847
 1908TIP3    H227284   1.501   4.628   0.988
 1909TIP3   OH227285   1.227   3.463   6.783
 1909TIP3    H127286   1.265   3.538   6.829
 1909TIP3    H227287   1.288   3.446   6.711
 1910TIP3   OH227288   1.023   2.895   1.751
 1910TIP3    H127289   1.103   2.921   1.797
 1910TIP3    H227290   1.009   2.804   1.777
 1911TIP3   OH227291   3.147   3.865   7.101
 1911TIP3    H127292   3.191   3.922   7.163
 1911TIP3    H227293   3.217   3.814   7.061
 1912TIP3   OH227294   2.239   0.939   2.728
 1912TIP3    H127295   2.315   0.898   2.769
 1912TIP3    H227296   2.169   0.874   2.737
 1913TIP3   OH227297   0.717   2.865   1.656
 1913TIP3    H127298   0.707   2.958   1.635
 1913TIP3    H227299   0.725   2.862   1.752
 1914TIP3   OH227300   2.897   1.630   2.053
 1914TIP3    H127301   2.874   1.697   1.989
 1914TIP3    H227302   2.974   1.664   2.097
 1915TIP3   OH227303   2.532   5.580   6.544
 1915TIP3    H127304   2.449   5.594   6.499
 1915TIP3    H227305   2.530   5.489   6.571
 1916TIP3   OH227306   6.800   1.764   7.761
 1916TIP3    H127307   0.034   1.722   7.715
 1916TIP3    H227308   6.721   1.728   7.720
 1917TIP3   OH227309   4.497   1.631   7.389
 1917TIP3    H127310   4.498   1.535   7.392
 1917TIP3    H227311   4.585   1.656   7.415
 1918TIP3   OH227312   0.007   2.080   1.284
 1918TIP3    H127313   0.016   2.005   1.342
 1918TIP3    H227314   0.041   2.154   1.335
 1919TIP3   OH227315   2.411   0.933   8.134
 1919TIP3    H127316   2.487   0.883   8.164
 1919TIP3    H227317   2.364   0.874   8.075
 1920TIP3   OH227318   6.670   2.877   8.573
 1920TIP3    H127319   6.741   2.913   8.626
 1920TIP3    H227320   6.678   2.782   8.582
 1921TIP3   OH227321   3.271   6.583   0.651
 1921TIP3    H127322   3.294   6.519   0.584
 1921TIP3    H227323   3.289   6.539   0.734
 1922TIP3   OH227324   4.616   3.951   0.964
 1922TIP3    H127325   4.678   4.017   0.932
 1922TIP3    H227326   4.590   3.902   0.886
 1923TIP3   OH227327   1.735   3.029   0.965
 1923TIP3    H127328   1.823   3.008   0.996
 1923TIP3    H227329   1.689   2.945   0.963
 1924TIP3   OH227330   0.050   0.279   7.803
 1924TIP3    H127331   0.070   0.314   7.890
 1924TIP3    H227332   0.091   0.192   7.803
 1925TIP3   OH227333   0.709   6.743   8.466
 1925TIP3    H127334   0.678   6.659   8.434
 1925TIP3    H227335   0.635   6.802   8.456
 1926TIP3   OH227336   0.104   3.450   1.162
 1926TIP3    H127337   0.120   3.474   1.071
 1926TIP3    H227338   0.056   3.368   1.158
 1927TIP3   OH227339   3.227   2.244   7.350
 1927TIP3    H127340   3.279   2.255   7.429
 1927TIP3    H227341   3.255   2.159   7.314
 1928TIP3   OH227342   5.312   0.738   6.715
 1928TIP3    H127343   5.371   0.665   6.732
 1928TIP3    H227344   5.227   0.696   6.699
 1929TIP3   OH227345   3.122   5.743   7.110
 1929TIP3    H127346   3.160   5.830   7.099
 1929TIP3    H227347   3.184   5.696   7.166
 1930TIP3   OH227348   2.216   5.040   7.366
 1930TIP3    H127349   2.135   5.054   7.316
 1930TIP3    H227350   2.195   5.073   7.453
 1931TIP3   OH227351   6.675   0.876   0.565
 1931TIP3    H127352   6.647   0.787   0.586
 1931TIP3    H227353   6.613   0.906   0.499
 1932TIP3   OH227354   4.184   0.501   0.477
 1932TIP3    H127355   4.145   0.414   0.477
 1932TIP3    H227356   4.251   0.497   0.546
 1933TIP3   OH227357   1.913   2.956   8.633
 1933TIP3    H127358   1.824   2.921   8.629
 1933TIP3    H227359   1.912   3.033   8.578
 1934TIP3   OH227360   3.815   5.016   1.803
 1934TIP3    H127361   3.881   4.949   1.789
 1934TIP3    H227362   3.732   4.968   1.801
 1935TIP3   OH227363   5.634   6.364   1.619
 1935TIP3    H127364   5.650   6.290   1.561
 1935TIP3    H227365   5.722   6.388   1.650
 1936TIP3   OH227366   3.609   2.506   0.400
 1936TIP3    H127367   3.564   2.558   0.333
 1936TIP3    H227368   3.689   2.476   0.357
 1937TIP3   OH227369   3.372   0.798   6.367
 1937TIP3    H127370   3.452   0.784   6.418
 1937TIP3    H227371   3.303   0.760   6.420
 1938TIP3   OH227372   6.304   5.738   0.747
 1938TIP3    H127373   6.216   5.757   0.717
 1938TIP3    H227374   6.299   5.649   0.782
 1939TIP3   OH227375   5.860   6.208   8.341
 1939TIP3    H127376   5.824   6.266   8.274
 1939TIP3    H227377   5.857   6.260   8.422
 1940TIP3   OH227378   5.520   2.589   0.768
 1940TIP3    H127379   5.510   2.673   0.812
 1940TIP3    H227380   5.486   2.525   0.831
 1941TIP3   OH227381   6.659   5.529   8.753
 1941TIP3    H127382   6.733   5.468   8.745
 1941TIP3    H227383   6.620   5.531   8.666
 1942TIP3   OH227384   6.054   6.720   0.501
 1942TIP3    H127385   6.114   6.764   0.442
 1942TIP3    H227386   6.092   6.733   0.588
 1943TIP3   OH227387   6.222   2.658   2.193
 1943TIP3    H127388   6.306   2.613   2.202
 1943TIP3    H227389   6.243   2.739   2.147
 1944TIP3   OH227390   3.003   5.971   6.754
 1944TIP3    H127391   3.018   5.938   6.665
 1944TIP3    H227392   2.921   6.021   6.747
 1945TIP3   OH227393   1.374   1.667   8.751
 1945TIP3    H127394   1.405   1.693   8.664
 1945TIP3    H227395   1.437   1.706   0.029
 1946TIP3   OH227396   4.631   1.372   2.432
 1946TIP3    H127397   4.553   1.343   2.479
 1946TIP3    H227398   4.685   1.293   2.424
 1947TIP3   OH227399   4.424   1.226   0.438
 1947TIP3    H127400   4.419   1.207   0.532
 1947TIP3    H227401   4.452   1.317   0.433
 1948TIP3   OH227402   1.932   5.984   8.582
 1948TIP3    H127403   1.847   5.993   8.625
 1948TIP3    H227404   1.941   6.063   8.529
 1949TIP3   OH227405   4.650   0.100   2.454
 1949TIP3    H127406   4.602   0.183   2.453
 1949TIP3    H227407   4.611   0.052   2.527
 1950TIP3   OH227408   4.121   5.796   0.893
 1950TIP3    H127409   4.110   5.858   0.820
 1950TIP3    H227410   4.121   5.852   0.971
 1951TIP3   OH227411   2.478   1.459   8.209
 1951TIP3    H127412   2.492   1.413   8.126
 1951TIP3    H227413   2.540   1.531   8.208
 1952TIP3   OH227414   0.665   3.634   1.935
 1952TIP3    H127415   0.695   3.719   1.903
 1952TIP3    H227416   0.572   3.630   1.912
 1953TIP3   OH227417   0.064   6.556   1.418
 1953TIP3    H127418   0.073   6.462   1.405
 1953TIP3    H227419   6.808   6.572   1.418
 1954TIP3   OH227420   1.417   4.022   0.777
 1954TIP3    H127421   1.446   3.959   0.712
 1954TIP3    H227422   1.326   3.998   0.795
 1955TIP3   OH227423   1.074   2.377   0.585
 1955TIP3    H127424   1.162   2.338   0.591
 1955TIP3    H227425   1.055   2.378   0.491
 1956TIP3   OH227426   3.080   3.060   7.231
 1956TIP3    H127427   3.056   3.092   7.145
 1956TIP3    H227428   3.086   3.138   7.286
 1957TIP3   OH227429   6.054   2.568   7.612
 1957TIP3    H127430   6.087   2.580   7.523
 1957TIP3    H227431   5.964   2.601   7.608
 1958TIP3   OH227432   4.357   6.283   8.038
 1958TIP3    H127433   4.275   6.268   8.085
 1958TIP3    H227434   4.331   6.337   7.963
 1959TIP3   OH227435   0.746   3.014   7.665
 1959TIP3    H127436   0.763   3.000   7.758
 1959TIP3    H227437   0.650   3.011   7.658
 1960TIP3   OH227438   0.412   0.288   6.873
 1960TIP3    H127439   0.465   0.287   6.793
 1960TIP3    H227440   0.410   0.380   6.900
 1961TIP3   OH227441   4.302   2.463   7.564
 1961TIP3    H127442   4.276   2.442   7.475
 1961TIP3    H227443   4.221   2.491   7.608
 1962TIP3   OH227444   4.973   1.641   8.300
 1962TIP3    H127445   4.936   1.553   8.305
 1962TIP3    H227446   5.016   1.654   8.385
 1963TIP3   OH227447   1.638   6.163   8.358
 1963TIP3    H127448   1.711   6.221   8.337
 1963TIP3    H227449   1.627   6.108   8.280
 1964TIP3   OH227450   4.922   0.504   2.073
 1964TIP3    H127451   5.007   0.534   2.040
 1964TIP3    H227452   4.932   0.409   2.081
 1965TIP3   OH227453   2.541   2.431   0.754
 1965TIP3    H127454   2.635   2.442   0.765
 1965TIP3    H227455   2.531   2.340   0.725
 1966TIP3   OH227456   5.923   4.021   1.014
 1966TIP3    H127457   5.834   3.989   1.001
 1966TIP3    H227458   5.955   3.972   1.090
 1967TIP3   OH227459   5.347   2.550   6.661
 1967TIP3    H127460   5.391   2.465   6.665
 1967TIP3    H227461   5.260   2.533   6.696
 1968TIP3   OH227462   4.025   5.245   0.181
 1968TIP3    H127463   4.114   5.213   0.196
 1968TIP3    H227464   4.025   5.333   0.219
 1969TIP3   OH227465   5.079   2.961   0.063
 1969TIP3    H127466   4.990   2.963   0.100
 1969TIP3    H227467   5.070   2.910   8.765
 1970TIP3   OH227468   0.006   5.759   1.167
 1970TIP3    H127469   6.779   5.813   1.212
 1970TIP3    H227470   0.026   5.689   1.229
 1971TIP3   OH227471   0.242   3.889   1.427
 1971TIP3    H127472   0.260   3.797   1.445
 1971TIP3    H227473   0.149   3.900   1.449
 1972TIP3   OH227474   2.604   2.303   8.349
 1972TIP3    H127475   2.527   2.348   8.382
 1972TIP3    H227476   2.638   2.362   8.281
 1973TIP3   OH227477   0.095   4.744   8.401
 1973TIP3    H127478   0.166   4.788   8.354
 1973TIP3    H227479   0.061   4.680   8.338
 1974TIP3   OH227480   3.019   0.068   7.836
 1974TIP3    H127481   3.080   0.073   7.762
 1974TIP3    H227482   3.074   0.054   7.912
 1975TIP3   OH227483   5.654   1.213   2.146
 1975TIP3    H127484   5.579   1.157   2.169
 1975TIP3    H227485   5.615   1.300   2.134
 1976TIP3   OH227486   2.155   6.799   1.310
 1976TIP3    H127487   2.189   6.798   1.220
 1976TIP3    H227488   2.110   0.045   1.317
 1977TIP3   OH227489   3.558   1.361   1.822
 1977TIP3    H127490   3.468   1.356   1.792
 1977TIP3    H227491   3.594   1.439   1.780
 1978TIP3   OH227492   0.419   1.857   7.413
 1978TIP3    H127493   0.353   1.802   7.372
 1978TIP3    H227494   0.389   1.866   7.504
 1979TIP3   OH227495   4.806   4.274   7.482
 1979TIP3    H127496   4.900   4.272   7.500
 1979TIP3    H227497   4.788   4.365   7.460
 1980TIP3   OH227498   2.672   6.277   8.615
 1980TIP3    H127499   2.743   6.323   8.570
 1980TIP3    H227500   2.610   6.255   8.546
 1981TIP3   OH227501   6.135   3.715   0.939
 1981TIP3    H127502   6.096   3.686   0.856
 1981TIP3    H227503   6.064   3.708   1.003
 1982TIP3   OH227504   0.994   1.731   2.200
 1982TIP3    H127505   0.933   1.765   2.134
 1982TIP3    H227506   1.056   1.679   2.149
 1983TIP3   OH227507   1.206   5.157   7.806
 1983TIP3    H127508   1.194   5.078   7.859
 1983TIP3    H227509   1.140   5.150   7.737
 1984TIP3   OH227510   1.926   4.225   6.477
 1984TIP3    H127511   1.972   4.176   6.409
 1984TIP3    H227512   1.993   4.279   6.518
 1985TIP3   OH227513   1.143   6.668   1.629
 1985TIP3    H127514   1.164   6.630   1.714
 1985TIP3    H227515   1.098   6.597   1.582
 1986TIP3   OH227516   5.374   3.754   1.805
 1986TIP3    H127517   5.439   3.717   1.865
 1986TIP3    H227518   5.290   3.734   1.846
 1987TIP3   OH227519   3.705   5.671   1.626
 1987TIP3    H127520   3.641   5.713   1.683
 1987TIP3    H227521   3.696   5.578   1.644
 1988TIP3   OH227522   2.651   6.128   0.914
 1988TIP3    H127523   2.628   6.191   0.982
 1988TIP3    H227524   2.614   6.165   0.833
 1989TIP3   OH227525   5.419   5.702   1.793
 1989TIP3    H127526   5.370   5.677   1.715
 1989TIP3    H227527   5.368   5.667   1.866
 1990TIP3   OH227528   6.814   5.671   0.700
 1990TIP3    H127529   6.807   5.580   0.728
 1990TIP3    H227530   0.025   5.713   0.770
 1991TIP3   OH227531   0.155   1.146   7.309
 1991TIP3    H127532   0.185   1.221   7.360
 1991TIP3    H227533   0.081   1.179   7.258
 1992TIP3   OH227534   4.050   3.505   7.942
 1992TIP3    H127535   4.119   3.456   7.896
 1992TIP3    H227536   4.069   3.490   8.035
 1993TIP3   OH227537   5.002   1.455   7.079
 1993TIP3    H127538   5.005   1.503   6.997
 1993TIP3    H227539   5.065   1.499   7.136
 1994TIP3   OH227540   0.633   5.463   7.837
 1994TIP3    H127541   0.586   5.454   7.920
 1994TIP3    H227542   0.614   5.553   7.809
 1995TIP3   OH227543   5.008   3.695   2.279
 1995TIP3    H127544   5.046   3.611   2.253
 1995TIP3    H227545   5.084   3.753   2.292
 1996TIP3   OH227546   6.429   1.597   0.566
 1996TIP3    H127547   6.379   1.675   0.544
 1996TIP3    H227548   6.393   1.567   0.649
 1997TIP3   OH227549   1.374   1.425   0.175
 1997TIP3    H127550   1.449   1.417   0.233
 1997TIP3    H227551   1.412   1.440   0.088
 1998TIP3   OH227552   2.767   0.662   0.449
 1998TIP3    H127553   2.854   0.624   0.433
 1998TIP3    H227554   2.738   0.620   0.530
 1999TIP3   OH227555   5.643   5.994   7.334
 1999TIP3    H127556   5.608   6.006   7.246
 1999TIP3    H227557   5.593   5.920   7.370
 2000TIP3   OH227558   1.067   0.636   1.304
 2000TIP3    H127559   0.979   0.614   1.335
 2000TIP3    H227560   1.056   0.721   1.259
 2001TIP3   OH227561   0.350   0.975   8.548
 2001TIP3    H127562   0.277   0.935   8.595
 2001TIP3    H227563   0.345   1.068   8.571
 2002TIP3   OH227564   0.976   4.728   1.606
 2002TIP3    H127565   1.024   4.785   1.665
 2002TIP3    H227566   1.044   4.687   1.552
 2003TIP3   OH227567   4.358   4.773   1.071
 2003TIP3    H127568   4.401   4.692   1.045
 2003TIP3    H227569   4.415   4.810   1.139
 2004TIP3   OH227570   6.182   0.686   0.358
 2004TIP3    H127571   6.236   0.634   0.416
 2004TIP3    H227572   6.220   0.672   0.271
 2005TIP3   OH227573   4.791   3.706   1.790
 2005TIP3    H127574   4.723   3.757   1.748
 2005TIP3    H227575   4.841   3.769   1.842
 2006TIP3   OH227576   4.931   6.720   7.276
 2006TIP3    H127577   4.920   6.709   7.371
 2006TIP3    H227578   4.846   6.750   7.245
 2007TIP3   OH227579   3.594   5.911   8.097
 2007TIP3    H127580   3.661   5.969   8.133
 2007TIP3    H227581   3.574   5.850   8.168
 2008TIP3   OH227582   2.557   6.468   0.724
 2008TIP3    H127583   2.532   6.547   0.677
 2008TIP3    H227584   2.495   6.462   0.796
 2009TIP3   OH227585   0.768   3.116   0.371
 2009TIP3    H127586   0.814   3.042   0.410
 2009TIP3    H227587   0.701   3.076   0.315
 2010TIP3   OH227588   4.317   2.585   8.094
 2010TIP3    H127589   4.329   2.598   8.188
 2010TIP3    H227590   4.378   2.514   8.072
 2011TIP3   OH227591   6.134   4.564   8.199
 2011TIP3    H127592   6.111   4.641   8.252
 2011TIP3    H227593   6.051   4.519   8.185
 2012TIP3   OH227594   2.654   4.206   1.409
 2012TIP3    H127595   2.639   4.142   1.480
 2012TIP3    H227596   2.723   4.263   1.442
 2013TIP3   OH227597   5.328   0.229   0.732
 2013TIP3    H127598   5.278   0.282   0.670
 2013TIP3    H227599   5.414   0.219   0.692
 2014TIP3   OH227600   0.163   2.614   1.325
 2014TIP3    H127601   0.209   2.536   1.293
 2014TIP3    H227602   0.181   2.681   1.259
 2015TIP3   OH227603   1.664   0.829   0.103
 2015TIP3    H127604   1.607   0.897   0.069
 2015TIP3    H227605   1.745   0.838   0.054
 2016TIP3   OH227606   4.871   3.930   7.170
 2016TIP3    H127607   4.935   3.876   7.124
 2016TIP3    H227608   4.915   3.954   7.252
 2017TIP3   OH227609   0.612   2.611   7.533
 2017TIP3    H127610   0.698   2.608   7.491
 2017TIP3    H227611   0.584   2.520   7.536
 2018TIP3   OH227612   0.441   0.158   8.382
 2018TIP3    H127613   0.450   0.065   8.365
 2018TIP3    H227614   0.408   0.194   8.300
 2019TIP3   OH227615   5.906   4.235   0.233
 2019TIP3    H127616   5.839   4.265   0.172
 2019TIP3    H227617   5.898   4.293   0.308
 2020TIP3   OH227618   6.567   5.496   0.528
 2020TIP3    H127619   6.616   5.414   0.520
 2020TIP3    H227620   6.542   5.500   0.620
 2021TIP3   OH227621   1.464   2.348   0.488
 2021TIP3    H127622   1.384   2.308   0.521
 2021TIP3    H227623   1.435   2.412   0.423
 2022TIP3   OH227624   5.930   1.375   8.633
 2022TIP3    H127625   5.955   1.404   8.545
 2022TIP3    H227626   5.842   1.408   8.645
 2023TIP3   OH227627   1.145   0.745   8.378
 2023TIP3    H127628   1.209   0.789   8.320
 2023TIP3    H227629   1.161   0.652   8.364
 2024TIP3   OH227630   3.079   1.784   2.181
 2024TIP3    H127631   3.006   1.845   2.182
 2024TIP3    H227632   3.155   1.837   2.157
 2025TIP3   OH227633   0.270   6.123   0.482
 2025TIP3    H127634   0.191   6.068   0.477
 2025TIP3    H227635   0.342   6.061   0.474
 2026TIP3   OH227636   3.992   6.101   1.433
 2026TIP3    H127637   3.951   6.021   1.401
 2026TIP3    H227638   3.919   6.162   1.445
 2027TIP3   OH227639   4.069   6.273   8.614
 2027TIP3    H127640   4.150   6.293   8.565
 2027TIP3    H227641   4.098   6.265   8.705
 2028TIP3   OH227642   6.625   0.731   1.235
 2028TIP3    H127643   6.558   0.800   1.232
 2028TIP3    H227644   6.632   0.702   1.145
 2029TIP3   OH227645   1.367   2.564   0.334
 2029TIP3    H127646   1.291   2.565   0.276
 2029TIP3    H227647   1.423   2.635   0.302
 2030TIP3   OH227648   1.266   5.597   7.764
 2030TIP3    H127649   1.184   5.548   7.776
 2030TIP3    H227650   1.273   5.650   7.843
 2031TIP3   OH227651   2.330   0.499   7.139
 2031TIP3    H127652   2.381   0.454   7.071
 2031TIP3    H227653   2.253   0.443   7.150
 2032TIP3   OH227654   0.587   2.100   1.052
 2032TIP3    H127655   0.680   2.082   1.038
 2032TIP3    H227656   0.554   2.127   0.967
 2033TIP3   OH227657   5.912   2.664   2.517
 2033TIP3    H127658   5.982   2.601   2.500
 2033TIP3    H227659   5.836   2.625   2.473
 2034TIP3   OH227660   1.981   4.275   1.126
 2034TIP3    H127661   1.929   4.322   1.061
 2034TIP3    H227662   2.032   4.212   1.075
 2035TIP3   OH227663   5.461   5.898   8.187
 2035TIP3    H127664   5.446   5.979   8.138
 2035TIP3    H227665   5.553   5.902   8.212
 2036TIP3   OH227666   2.448   6.526   0.149
 2036TIP3    H127667   2.390   6.546   0.076
 2036TIP3    H227668   2.532   6.505   0.109
 2037TIP3   OH227669   4.202   0.991   1.838
 2037TIP3    H127670   4.202   1.047   1.916
 2037TIP3    H227671   4.152   0.914   1.864
 2038TIP3   OH227672   0.673   6.092   0.083
 2038TIP3    H127673   0.650   6.170   0.033
 2038TIP3    H227674   0.613   6.024   0.052
 2039TIP3   OH227675   5.614   3.832   0.310
 2039TIP3    H127676   5.681   3.899   0.321
 2039TIP3    H227677   5.532   3.880   0.308
 2040TIP3   OH227678   1.399   3.390   6.593
 2040TIP3    H127679   1.464   3.420   6.530
 2040TIP3    H227680   1.435   3.308   6.628
 2041TIP3   OH227681   3.988   1.779   2.225
 2041TIP3    H127682   3.990   1.821   2.311
 2041TIP3    H227683   3.957   1.848   2.166
 2042TIP3   OH227684   0.241   2.054   0.909
 2042TIP3    H127685   0.231   1.965   0.943
 2042TIP3    H227686   0.320   2.050   0.854
 2043TIP3   OH227687   3.487   2.923   1.374
 2043TIP3    H127688   3.425   2.996   1.369
 2043TIP3    H227689   3.573   2.964   1.366
 2044TIP3   OH227690   5.207   5.309   1.617
 2044TIP3    H127691   5.159   5.279   1.540
 2044TIP3    H227692   5.149   5.289   1.691
 2045TIP3   OH227693   4.324   0.637   8.738
 2045TIP3    H127694   4.375   0.706   8.695
 2045TIP3    H227695   4.330   0.657   0.049
 2046TIP3   OH227696   2.932   3.048   1.840
 2046TIP3    H127697   2.898   3.137   1.835
 2046TIP3    H227698   2.990   3.048   1.916
 2047TIP3   OH227699   3.644   4.690   0.007
 2047TIP3    H127700   3.687   4.721   0.087
 2047TIP3    H227701   3.669   4.598   0.001
 2048TIP3   OH227702   5.716   6.767   7.434
 2048TIP3    H127703   5.745   0.006   7.385
 2048TIP3    H227704   5.743   6.693   7.381
 2049TIP3   OH227705   5.447   6.546   7.564
 2049TIP3    H127706   5.382   6.555   7.494
 2049TIP3    H227707   5.395   6.540   7.645
 2050TIP3   OH227708   3.861   5.045   8.230
 2050TIP3    H127709   3.863   5.035   8.325
 2050TIP3    H227710   3.769   5.031   8.206
 2051TIP3   OH227711   0.536   4.589   7.886
 2051TIP3    H127712   0.513   4.544   7.968
 2051TIP3    H227713   0.597   4.658   7.913
 2052TIP3   OH227714   1.781   1.938   7.739
 2052TIP3    H127715   1.697   1.941   7.694
 2052TIP3    H227716   1.839   1.992   7.685
 2053TIP3   OH227717   6.750   2.993   7.027
 2053TIP3    H127718   6.794   2.908   7.024
 2053TIP3    H227719   6.684   2.984   7.096
 2054TIP3   OH227720   6.260   3.483   1.711
 2054TIP3    H127721   6.322   3.553   1.691
 2054TIP3    H227722   6.175   3.526   1.717
 2055TIP3   OH227723   5.826   6.704   8.677
 2055TIP3    H127724   5.787   6.729   8.594
 2055TIP3    H227725   5.752   6.681   8.733
 2056TIP3   OH227726   2.426   1.629   0.586
 2056TIP3    H127727   2.371   1.700   0.555
 2056TIP3    H227728   2.382   1.598   0.665
 2057TIP3   OH227729   5.619   4.279   1.511
 2057TIP3    H127730   5.559   4.321   1.572
 2057TIP3    H227731   5.598   4.318   1.426
 2058TIP3   OH227732   3.245   6.082   1.946
 2058TIP3    H127733   3.287   6.070   1.861
 2058TIP3    H227734   3.317   6.073   2.010
 2059TIP3   OH227735   4.106   1.005   8.486
 2059TIP3    H127736   4.155   0.977   8.563
 2059TIP3    H227737   4.157   1.077   8.449
 2060TIP3   OH227738   6.319   0.126   7.060
 2060TIP3    H127739   6.277   0.063   7.002
 2060TIP3    H227740   6.378   0.176   7.002
 2061TIP3   OH227741   4.418   0.941   0.417
 2061TIP3    H127742   4.423   1.034   0.396
 2061TIP3    H227743   4.338   0.911   0.373
 2062TIP3   OH227744   4.897   1.389   0.225
 2062TIP3    H127745   4.878   1.296   0.237
 2062TIP3    H227746   4.833   1.419   0.162
 2063TIP3   OH227747   4.240   2.786   0.835
 2063TIP3    H127748   4.281   2.754   0.754
 2063TIP3    H227749   4.299   2.855   0.866
 2064TIP3   OH227750   2.857   1.770   8.327
 2064TIP3    H127751   2.920   1.803   8.263
 2064TIP3    H227752   2.780   1.827   8.316
 2065TIP3   OH227753   1.308   6.054   1.762
 2065TIP3    H127754   1.236   6.045   1.824
 2065TIP3    H227755   1.326   6.148   1.758
 2066TIP3   OH227756   3.495   5.564   6.403
 2066TIP3    H127757   3.560   5.556   6.333
 2066TIP3    H227758   3.458   5.476   6.410
 2067TIP3   OH227759   6.123   3.109   8.585
 2067TIP3    H127760   6.111   3.043   8.516
 2067TIP3    H227761   6.155   3.060   8.660
 2068TIP3   OH227762   3.599   0.801   0.050
 2068TIP3    H127763   3.647   0.785   0.130
 2068TIP3    H227764   3.612   0.722   8.780
 2069TIP3   OH227765   1.877   5.086   8.092
 2069TIP3    H127766   1.893   5.041   8.009
 2069TIP3    H227767   1.926   5.168   8.085
 2070TIP3   OH227768   1.245   1.963   0.423
 2070TIP3    H127769   1.287   1.882   0.452
 2070TIP3    H227770   1.197   1.939   0.344
 2071TIP3   OH227771   0.981   3.580   0.796
 2071TIP3    H127772   0.961   3.656   0.741
 2071TIP3    H227773   0.895   3.545   0.819
 2072TIP3   OH227774   5.131   3.320   1.571
 2072TIP3    H127775   5.071   3.354   1.637
 2072TIP3    H227776   5.075   3.276   1.507
 2073TIP3   OH227777   2.163   1.426   0.130
 2073TIP3    H127778   2.096   1.358   0.140
 2073TIP3    H227779   2.217   1.396   0.057
 2074TIP3   OH227780   2.558   0.118   7.889
 2074TIP3    H127781   2.633   0.155   7.936
 2074TIP3    H227782   2.490   0.109   7.955
 2075TIP3   OH227783   3.875   2.533   6.883
 2075TIP3    H127784   3.799   2.479   6.862
 2075TIP3    H227785   3.935   2.520   6.809
 2076TIP3   OH227786   4.041   3.884   2.165
 2076TIP3    H127787   4.107   3.861   2.099
 2076TIP3    H227788   4.072   3.967   2.201
 2077TIP3   OH227789   1.398   6.670   2.338
 2077TIP3    H127790   1.363   6.755   2.312
 2077TIP3    H227791   1.401   6.619   2.257
 2078TIP3   OH227792   2.526   5.950   8.404
 2078TIP3    H127793   2.548   5.963   8.497
 2078TIP3    H227794   2.603   5.908   8.367
 2079TIP3   OH227795   3.076   5.829   8.415
 2079TIP3    H127796   3.167   5.799   8.418
 2079TIP3    H227797   3.037   5.795   8.495
 2080TIP3   OH227798   4.435   6.400   6.950
 2080TIP3    H127799   4.385   6.330   6.993
 2080TIP3    H227800   4.526   6.379   6.969
 2081TIP3   OH227801   0.892   2.061   6.609
 2081TIP3    H127802   0.879   2.125   6.540
 2081TIP3    H227803   0.975   2.087   6.650
 2082TIP3   OH227804   3.737   0.058   6.594
 2082TIP3    H127805   3.828   0.083   6.610
 2082TIP3    H227806   3.740   0.002   6.516
 2083TIP3   OH227807   3.177   0.600   7.091
 2083TIP3    H127808   3.096   0.628   7.134
 2083TIP3    H227809   3.242   0.665   7.117
 2084TIP3   OH227810   4.630   5.662   7.127
 2084TIP3    H127811   4.678   5.689   7.049
 2084TIP3    H227812   4.550   5.623   7.094
 2085TIP3   OH227813   0.172   5.970   6.417
 2085TIP3    H127814   0.142   6.005   6.333
 2085TIP3    H227815   0.092   5.942   6.461
 2086TIP3   OH227816   1.573   6.784   7.341
 2086TIP3    H127817   1.522   6.791   7.260
 2086TIP3    H227818   1.612   0.033   7.351
 2087TIP3   OH227819   2.620   6.480   1.891
 2087TIP3    H127820   2.609   6.429   1.971
 2087TIP3    H227821   2.595   6.569   1.916
 2088TIP3   OH227822   4.207   0.524   1.093
 2088TIP3    H127823   4.212   0.579   1.014
 2088TIP3    H227824   4.114   0.522   1.115
 2089TIP3   OH227825   1.688   3.130   1.243
 2089TIP3    H127826   1.660   3.130   1.152
 2089TIP3    H227827   1.720   3.041   1.259
 2090TIP3   OH227828   2.947   6.739   7.495
 2090TIP3    H127829   2.867   6.737   7.547
 2090TIP3    H227830   2.917   6.742   7.404
 2091TIP3   OH227831   4.922   6.725   8.014
 2091TIP3    H127832   4.827   6.736   8.023
 2091TIP3    H227833   4.959   6.807   8.045
 2092TIP3   OH227834   1.552   3.702   0.011
 2092TIP3    H127835   1.541   3.756   8.715
 2092TIP3    H227836   1.619   3.748   0.062
 2093TIP3   OH227837   0.447   5.029   7.818
 2093TIP3    H127838   0.386   4.955   7.821
 2093TIP3    H227839   0.529   4.991   7.786
 2094TIP3   OH227840   1.198   6.596   8.525
 2094TIP3    H127841   1.166   6.511   8.556
 2094TIP3    H227842   1.119   6.651   8.520
 2095TIP3   OH227843   3.349   2.664   8.414
 2095TIP3    H127844   3.324   2.752   8.443
 2095TIP3    H227845   3.310   2.656   8.327
 2096TIP3   OH227846   2.967   4.724   7.997
 2096TIP3    H127847   2.916   4.731   8.078
 2096TIP3    H227848   3.039   4.665   8.020
 2097TIP3   OH227849   5.745   4.668   6.378
 2097TIP3    H127850   5.765   4.585   6.422
 2097TIP3    H227851   5.664   4.699   6.420
 2098TIP3   OH227852   3.001   3.646   7.991
 2098TIP3    H127853   3.013   3.554   8.014
 2098TIP3    H227854   3.021   3.650   7.898
 2099TIP3   OH227855   2.149   1.963   0.299
 2099TIP3    H127856   2.139   2.039   0.356
 2099TIP3    H227857   2.201   1.994   0.226
 2100TIP3   OH227858   5.189   6.573   7.745
 2100TIP3    H127859   5.240   6.595   7.823
 2100TIP3    H227860   5.101   6.604   7.765
 2101TIP3   OH227861   4.266   3.411   0.602
 2101TIP3    H127862   4.206   3.486   0.598
 2101TIP3    H227863   4.210   3.335   0.586
 2102TIP3   OH227864   3.375   4.034   7.978
 2102TIP3    H127865   3.322   4.000   7.906
 2102TIP3    H227866   3.465   4.017   7.953
 2103TIP3   OH227867   5.615   5.057   7.867
 2103TIP3    H127868   5.524   5.081   7.888
 2103TIP3    H227869   5.666   5.135   7.888
 2104TIP3   OH227870   0.034   5.599   0.381
 2104TIP3    H127871   6.821   5.679   0.370
 2104TIP3    H227872   0.044   5.590   0.476
 2105TIP3   OH227873   6.541   2.642   6.955
 2105TIP3    H127874   6.526   2.717   7.012
 2105TIP3    H227875   6.457   2.596   6.954
 2106TIP3   OH227876   4.913   3.417   6.113
 2106TIP3    H127877   4.942   3.377   6.032
 2106TIP3    H227878   4.951   3.363   6.182
 2107TIP3   OH227879   6.014   2.650   1.958
 2107TIP3    H127880   6.083   2.655   2.024
 2107TIP3    H227881   6.050   2.594   1.889
 2108TIP3   OH227882   5.767   1.887   1.152
 2108TIP3    H127883   5.671   1.891   1.155
 2108TIP3    H227884   5.795   1.927   1.234
 2109TIP3   OH227885   6.567   4.158   0.938
 2109TIP3    H127886   6.651   4.194   0.967
 2109TIP3    H227887   6.571   4.162   0.842
 2110TIP3   OH227888   3.587   0.403   7.920
 2110TIP3    H127889   3.673   0.374   7.952
 2110TIP3    H227890   3.571   0.349   7.843
 2111TIP3   OH227891   4.776   2.320   1.777
 2111TIP3    H127892   4.753   2.412   1.789
 2111TIP3    H227893   4.699   2.272   1.808
 2112TIP3   OH227894   6.632   5.749   0.956
 2112TIP3    H127895   6.599   5.798   1.031
 2112TIP3    H227896   6.727   5.748   0.968
 2113TIP3   OH227897   1.635   5.576   0.353
 2113TIP3    H127898   1.644   5.563   0.259
 2113TIP3    H227899   1.558   5.632   0.363
 2114TIP3   OH227900   2.876   0.961   0.470
 2114TIP3    H127901   2.935   1.021   0.516
 2114TIP3    H227902   2.910   0.874   0.491
 2115TIP3   OH227903   3.192   3.617   0.714
 2115TIP3    H127904   3.177   3.705   0.747
 2115TIP3    H227905   3.155   3.560   0.782
 2116TIP3   OH227906   1.847   5.173   1.558
 2116TIP3    H127907   1.756   5.169   1.587
 2116TIP3    H227908   1.842   5.189   1.464
 2117TIP3   OH227909   3.605   1.075   8.229
 2117TIP3    H127910   3.591   1.165   8.200
 2117TIP3    H227911   3.697   1.057   8.209
 2118TIP3   OH227912   1.243   1.544   7.118
 2118TIP3    H127913   1.312   1.590   7.070
 2118TIP3    H227914   1.162   1.571   7.075
 2119TIP3   OH227915   3.989   6.644   7.587
 2119TIP3    H127916   3.983   6.589   7.509
 2119TIP3    H227917   3.970   6.732   7.556
 2120TIP3   OH227918   2.921   4.599   8.656
 2120TIP3    H127919   2.995   4.584   8.716
 2120TIP3    H227920   2.957   4.578   8.569
 2121TIP3   OH227921   2.747   6.599   0.401
 2121TIP3    H127922   2.734   6.508   0.373
 2121TIP3    H227923   2.662   6.624   0.438
 2122TIP3   OH227924   3.218   2.173   8.735
 2122TIP3    H127925   3.244   2.263   8.717
 2122TIP3    H227926   3.135   2.162   8.689
 2123TIP3   OH227927   2.025   5.317   1.118
 2123TIP3    H127928   2.086   5.245   1.103
 2123TIP3    H227929   1.960   5.281   1.178
 2124TIP3   OH227930   2.233   2.499   1.634
 2124TIP3    H127931   2.153   2.456   1.603
 2124TIP3    H227932   2.295   2.489   1.561
 2125TIP3   OH227933   5.451   5.351   7.414
 2125TIP3    H127934   5.391   5.280   7.392
 2125TIP3    H227935   5.477   5.334   7.505
 2126TIP3   OH227936   0.621   6.141   0.662
 2126TIP3    H127937   0.538   6.183   0.639
 2126TIP3    H227938   0.625   6.064   0.605
 2127TIP3   OH227939   6.048   2.262   0.106
 2127TIP3    H127940   5.993   2.279   0.182
 2127TIP3    H227941   6.037   2.340   0.051
 2128TIP3   OH227942   0.711   6.595   0.933
 2128TIP3    H127943   0.790   6.542   0.923
 2128TIP3    H227944   0.685   6.582   1.025
 2129TIP3   OH227945   5.559   5.731   7.147
 2129TIP3    H127946   5.517   5.722   7.233
 2129TIP3    H227947   5.652   5.712   7.164
 2130TIP3   OH227948   3.070   3.700   2.805
 2130TIP3    H127949   3.092   3.657   2.723
 2130TIP3    H227950   2.990   3.657   2.834
 2131TIP3   OH227951   2.433   1.989   7.506
 2131TIP3    H127952   2.401   2.079   7.513
 2131TIP3    H227953   2.528   1.997   7.511
 2132TIP3   OH227954   4.140   0.648   8.537
 2132TIP3    H127955   4.198   0.687   8.472
 2132TIP3    H227956   4.191   0.646   8.618
 2133TIP3   OH227957   0.936   2.744   7.723
 2133TIP3    H127958   0.972   2.827   7.753
 2133TIP3    H227959   0.913   2.759   7.631
 2134TIP3   OH227960   0.624   4.021   1.422
 2134TIP3    H127961   0.690   3.977   1.369
 2134TIP3    H227962   0.545   4.022   1.367
 2135TIP3   OH227963   3.946   3.391   8.223
 2135TIP3    H127964   4.025   3.339   8.240
 2135TIP3    H227965   3.878   3.347   8.273
 2136TIP3   OH227966   3.858   6.103   7.566
 2136TIP3    H127967   3.915   6.177   7.547
 2136TIP3    H227968   3.917   6.037   7.604
 2137TIP3   OH227969   4.637   0.749   0.458
 2137TIP3    H127970   4.560   0.802   0.439
 2137TIP3    H227971   4.623   0.717   0.547
 2138TIP3   OH227972   4.840   5.169   1.203
 2138TIP3    H127973   4.860   5.079   1.179
 2138TIP3    H227974   4.920   5.203   1.243
 2139TIP3   OH227975   6.694   4.686   6.233
 2139TIP3    H127976   6.686   4.604   6.281
 2139TIP3    H227977   6.718   4.751   6.300
 2140TIP3   OH227978   0.996   5.651   0.272
 2140TIP3    H127979   0.941   5.725   0.246
 2140TIP3    H227980   1.001   5.658   0.368
 2141TIP3   OH227981   2.077   0.236   2.259
 2141TIP3    H127982   2.110   0.155   2.299
 2141TIP3    H227983   2.142   0.302   2.283
 2142TIP3   OH227984   3.567   4.111   8.272
 2142TIP3    H127985   3.581   4.086   8.181
 2142TIP3    H227986   3.527   4.033   8.312
 2143TIP3   OH227987   5.393   1.336   0.499
 2143TIP3    H127988   5.358   1.409   0.448
 2143TIP3    H227989   5.484   1.360   0.516
 2144TIP3   OH227990   4.491   1.785   1.426
 2144TIP3    H127991   4.454   1.859   1.474
 2144TIP3    H227992   4.540   1.825   1.354
 2145TIP3   OH227993   6.177   1.951   7.337
 2145TIP3    H127994   6.083   1.967   7.348
 2145TIP3    H227995   6.185   1.855   7.339
 2146TIP3   OH227996   5.503   0.972   2.118
 2146TIP3    H127997   5.454   0.996   2.039
 2146TIP3    H227998   5.458   0.895   2.151
 2147TIP3   OH227999   5.454   5.562   8.259
 2147TIP3    H128000   5.414   5.634   8.212
 2147TIP3    H228001   5.382   5.523   8.309
 2148TIP3   OH228002   2.424   3.076   7.174
 2148TIP3    H128003   2.500   3.042   7.221
 2148TIP3    H228004   2.459   3.099   7.088
 2149TIP3   OH228005   5.707   6.254   7.197
 2149TIP3    H128006   5.789   6.286   7.158
 2149TIP3    H228007   5.734   6.181   7.253
 2150TIP3   OH228008   4.814   6.305   0.254
 2150TIP3    H128009   4.825   6.375   0.189
 2150TIP3    H228010   4.774   6.233   0.205
 2151TIP3   OH228011   3.632   4.818   1.893
 2151TIP3    H128012   3.657   4.728   1.916
 2151TIP3    H228013   3.590   4.852   1.972
 2152TIP3   OH228014   3.734   1.374   7.036
 2152TIP3    H128015   3.695   1.455   7.068
 2152TIP3    H228016   3.802   1.402   6.976
 2153TIP3   OH228017   3.094   5.537   0.361
 2153TIP3    H128018   3.184   5.568   0.372
 2153TIP3    H228019   3.066   5.511   0.449
 2154TIP3   OH228020   3.098   5.420   0.903
 2154TIP3    H128021   3.160   5.349   0.922
 2154TIP3    H228022   3.018   5.396   0.950
 2155TIP3   OH228023   6.554   6.182   7.485
 2155TIP3    H128024   6.493   6.255   7.481
 2155TIP3    H228025   6.498   6.105   7.501
 2156TIP3   OH228026   1.266   1.970   7.224
 2156TIP3    H128027   1.254   1.884   7.266
 2156TIP3    H228028   1.338   1.957   7.163
 2157TIP3   OH228029   3.637   6.353   2.062
 2157TIP3    H128030   3.561   6.391   2.018
 2157TIP3    H228031   3.660   6.277   2.010
 2158TIP3   OH228032   3.547   2.204   7.269
 2158TIP3    H128033   3.502   2.269   7.215
 2158TIP3    H228034   3.564   2.249   7.351
 2159TIP3   OH228035   1.809   6.053   7.977
 2159TIP3    H128036   1.754   5.976   7.990
 2159TIP3    H228037   1.851   6.067   8.063
 2160TIP3   OH228038   5.442   1.112   0.316
 2160TIP3    H128039   5.460   1.131   0.224
 2160TIP3    H228040   5.462   1.193   0.362
 2161TIP3   OH228041   0.387   4.340   0.160
 2161TIP3    H128042   0.345   4.423   0.184
 2161TIP3    H228043   0.471   4.342   0.206
 2162TIP3   OH228044   4.083   6.736   7.878
 2162TIP3    H128045   4.066   6.706   7.967
 2162TIP3    H228046   4.082   6.656   7.825
 2163TIP3   OH228047   3.798   5.019   2.404
 2163TIP3    H128048   3.786   4.924   2.410
 2163TIP3    H228049   3.863   5.031   2.334
 2164TIP3   OH228050   4.634   1.492   8.048
 2164TIP3    H128051   4.700   1.495   7.980
 2164TIP3    H228052   4.570   1.560   8.023
 2165TIP3   OH228053   3.416   3.130   7.203
 2165TIP3    H128054   3.496   3.084   7.227
 2165TIP3    H228055   3.359   3.063   7.165
 2166TIP3   OH228056   3.083   6.547   1.591
 2166TIP3    H128057   3.080   6.497   1.509
 2166TIP3    H228058   3.006   6.605   1.587
 2167TIP3   OH228059   4.732   0.713   7.718
 2167TIP3    H128060   4.654   0.736   7.769
 2167TIP3    H228061   4.729   0.618   7.711
 2168TIP3   OH228062   1.528   1.277   7.114
 2168TIP3    H128063   1.538   1.360   7.068
 2168TIP3    H228064   1.457   1.291   7.176
 2169TIP3   OH228065   0.296   3.062   1.075
 2169TIP3    H128066   0.204   3.068   1.101
 2169TIP3    H228067   0.330   3.150   1.087
 2170TIP3   OH228068   4.062   0.550   1.855
 2170TIP3    H128069   4.109   0.499   1.920
 2170TIP3    H228070   4.019   0.484   1.800
 2171TIP3   OH228071   6.610   2.425   1.329
 2171TIP3    H128072   6.634   2.494   1.391
 2171TIP3    H228073   6.667   2.441   1.254
 2172TIP3   OH228074   0.489   3.440   2.175
 2172TIP3    H128075   0.435   3.382   2.122
 2172TIP3    H228076   0.439   3.521   2.180
 2173TIP3   OH228077   5.462   4.344   8.149
 2173TIP3    H128078   5.536   4.305   8.102
 2173TIP3    H228079   5.401   4.369   8.079
 2174TIP3   OH228080   0.551   0.673   1.611
 2174TIP3    H128081   0.546   0.725   1.691
 2174TIP3    H228082   0.555   0.583   1.641
 2175TIP3   OH228083   5.664   4.799   6.784
 2175TIP3    H128084   5.642   4.773   6.695
 2175TIP3    H228085   5.754   4.830   6.778
 2176TIP3   OH228086   3.035   1.819   7.845
 2176TIP3    H128087   3.102   1.856   7.788
 2176TIP3    H228088   2.953   1.855   7.812
 2177TIP3   OH228089   5.807   0.701   7.479
 2177TIP3    H128090   5.746   0.755   7.428
 2177TIP3    H228091   5.852   0.648   7.414
 2178TIP3   OH228092   2.644   5.140   7.122
 2178TIP3    H128093   2.684   5.215   7.166
 2178TIP3    H228094   2.644   5.071   7.189
 2179TIP3   OH228095   2.317   2.637   6.865
 2179TIP3    H128096   2.365   2.678   6.793
 2179TIP3    H228097   2.321   2.543   6.847
 2180TIP3   OH228098   2.209   5.920   0.247
 2180TIP3    H128099   2.149   5.969   0.191
 2180TIP3    H228100   2.223   5.838   0.201
 2181TIP3   OH228101   1.472   1.556   7.401
 2181TIP3    H128102   1.484   1.474   7.354
 2181TIP3    H228103   1.556   1.600   7.395
 2182TIP3   OH228104   0.435   3.792   0.426
 2182TIP3    H128105   0.410   3.883   0.407
 2182TIP3    H228106   0.353   3.744   0.422
 2183TIP3   OH228107   1.842   2.441   7.563
 2183TIP3    H128108   1.873   2.485   7.642
 2183TIP3    H228109   1.800   2.361   7.594
 2184TIP3   OH228110   5.071   1.092   1.141
 2184TIP3    H128111   5.048   1.109   1.050
 2184TIP3    H228112   5.160   1.128   1.150
 2185TIP3   OH228113   6.822   4.022   7.247
 2185TIP3    H128114   0.045   4.027   7.175
 2185TIP3    H228115   0.027   3.968   7.313
 2186TIP3   OH228116   1.591   0.017   0.380
 2186TIP3    H128117   1.513   0.011   0.435
 2186TIP3    H228118   1.638   6.774   0.396
 2187TIP3   OH228119   2.229   5.941   7.629
 2187TIP3    H128120   2.325   5.937   7.630
 2187TIP3    H228121   2.206   5.986   7.710
 2188TIP3   OH228122   3.034   2.677   2.062
 2188TIP3    H128123   2.973   2.664   1.989
 2188TIP3    H228124   3.026   2.770   2.083
 2189TIP3   OH228125   5.351   0.995   1.108
 2189TIP3    H128126   5.350   0.998   1.204
 2189TIP3    H228127   5.439   0.965   1.086
 2190TIP3   OH228128   5.281   0.660   7.878
 2190TIP3    H128129   5.262   0.567   7.870
 2190TIP3    H228130   5.234   0.688   7.956
 2191TIP3   OH228131   3.753   3.020   0.880
 2191TIP3    H128132   3.820   3.076   0.920
 2191TIP3    H228133   3.797   2.979   0.806
 2192TIP3   OH228134   3.617   3.668   7.229
 2192TIP3    H128135   3.675   3.599   7.195
 2192TIP3    H228136   3.677   3.735   7.261
 2193TIP3   OH228137   4.768   2.530   8.042
 2193TIP3    H128138   4.746   2.515   8.134
 2193TIP3    H228139   4.705   2.595   8.013
 2194TIP3   OH228140   6.458   2.896   1.727
 2194TIP3    H128141   6.448   2.990   1.716
 2194TIP3    H228142   6.382   2.869   1.778
 2195TIP3   OH228143   1.788   6.021   1.219
 2195TIP3    H128144   1.846   6.097   1.215
 2195TIP3    H228145   1.706   6.056   1.255
 2196TIP3   OH228146   2.464   2.623   8.768
 2196TIP3    H128147   2.460   2.700   8.711
 2196TIP3    H228148   2.535   2.571   8.731
 2197TIP3   OH228149   1.950   1.436   7.369
 2197TIP3    H128150   1.928   1.494   7.296
 2197TIP3    H228151   2.044   1.451   7.384
 2198TIP3   OH228152   2.604   5.945   8.654
 2198TIP3    H128153   2.587   6.035   8.682
 2198TIP3    H228154   2.538   5.893   8.700
 2199TIP3   OH228155   3.658   4.825   0.832
 2199TIP3    H128156   3.568   4.858   0.824
 2199TIP3    H228157   3.696   4.840   0.745
 2200TIP3   OH228158   0.139   2.145   8.119
 2200TIP3    H128159   0.136   2.146   8.023
 2200TIP3    H228160   0.054   2.181   8.145
 2201TIP3   OH228161   4.461   5.664   7.520
 2201TIP3    H128162   4.441   5.571   7.535
 2201TIP3    H228163   4.427   5.682   7.433
 2202TIP3   OH228164   5.330   0.315   1.988
 2202TIP3    H128165   5.257   0.378   1.989
 2202TIP3    H228166   5.290   0.233   1.959
 2203TIP3   OH228167   6.442   5.055   0.078
 2203TIP3    H128168   6.456   5.058   8.766
 2203TIP3    H228169   6.507   5.115   0.114
 2204TIP3   OH228170   3.069   5.598   2.406
 2204TIP3    H128171   3.149   5.550   2.429
 2204TIP3    H228172   3.097   5.690   2.401
 2205TIP3   OH228173   5.320   6.202   0.297
 2205TIP3    H128174   5.234   6.174   0.265
 2205TIP3    H228175   5.361   6.244   0.222
 2206TIP3   OH228176   0.690   6.037   1.369
 2206TIP3    H128177   0.625   6.026   1.300
 2206TIP3    H228178   0.758   5.973   1.349
 2207TIP3   OH228179   1.496   2.328   0.154
 2207TIP3    H128180   1.454   2.287   0.078
 2207TIP3    H228181   1.437   2.400   0.178
 2208TIP3   OH228182   0.772   5.587   0.870
 2208TIP3    H128183   0.752   5.511   0.815
 2208TIP3    H228184   0.725   5.659   0.829
 2209TIP3   OH228185   2.957   0.840   8.136
 2209TIP3    H128186   3.023   0.907   8.117
 2209TIP3    H228187   2.961   0.829   8.231
 2210TIP3   OH228188   5.043   3.918   8.326
 2210TIP3    H128189   5.071   3.868   8.249
 2210TIP3    H228190   4.996   3.994   8.291
 2211TIP3   OH228191   5.372   1.375   7.106
 2211TIP3    H128192   5.384   1.454   7.055
 2211TIP3    H228193   5.444   1.318   7.080
 2212TIP3   OH228194   1.214   5.233   8.567
 2212TIP3    H128195   1.123   5.227   8.536
 2212TIP3    H228196   1.266   5.240   8.487
 2213TIP3   OH228197   6.036   6.705   0.188
 2213TIP3    H128198   6.087   6.752   0.254
 2213TIP3    H228199   5.963   6.667   0.237
 2214TIP3   OH228200   5.149   3.054   0.330
 2214TIP3    H128201   5.130   3.094   0.245
 2214TIP3    H228202   5.240   3.078   0.348
 2215TIP3   OH228203   2.723   6.736   1.271
 2215TIP3    H128204   2.793   6.721   1.208
 2215TIP3    H228205   2.734   6.669   1.338
 2216TIP3   OH228206   5.169   1.039   7.418
 2216TIP3    H128207   5.176   1.108   7.352
 2216TIP3    H228208   5.083   1.001   7.405
 2217TIP3   OH228209   2.064   4.127   7.462
 2217TIP3    H128210   2.077   4.110   7.369
 2217TIP3    H228211   1.969   4.138   7.472
 2218TIP3   OH228212   0.254   0.546   7.661
 2218TIP3    H128213   0.260   0.635   7.628
 2218TIP3    H228214   0.208   0.498   7.591
 2219TIP3   OH228215   0.345   6.803   8.638
 2219TIP3    H128216   0.305   6.769   8.718
 2219TIP3    H228217   0.271   6.834   8.586
 2220TIP3   OH228218   1.277   3.665   1.347
 2220TIP3    H128219   1.288   3.588   1.401
 2220TIP3    H228220   1.201   3.710   1.384
 2221TIP3   OH228221   1.949   5.769   0.008
 2221TIP3    H128222   1.871   5.725   0.043
 2221TIP3    H228223   2.023   5.722   0.047
 2222TIP3   OH228224   3.288   0.440   1.483
 2222TIP3    H128225   3.236   0.397   1.415
 2222TIP3    H228226   3.266   0.533   1.476
 2223TIP3   OH228227   5.083   6.545   8.686
 2223TIP3    H128228   5.078   6.451   8.667
 2223TIP3    H228229   5.137   6.581   8.617
 2224TIP3   OH228230   2.751   2.913   0.278
 2224TIP3    H128231   2.715   2.976   0.215
 2224TIP3    H228232   2.728   2.949   0.364
 2225TIP3   OH228233   2.339   0.092   8.047
 2225TIP3    H128234   2.335   0.012   8.099
 2225TIP3    H228235   2.271   0.081   7.981
 2226TIP3   OH228236   2.751   0.423   6.723
 2226TIP3    H128237   2.730   0.486   6.654
 2226TIP3    H228238   2.842   0.398   6.706
 2227TIP3   OH228239   5.406   1.624   2.215
 2227TIP3    H128240   5.319   1.593   2.188
 2227TIP3    H228241   5.459   1.544   2.218
 2228TIP3   OH228242   0.970   3.557   1.377
 2228TIP3    H128243   0.979   3.468   1.342
 2228TIP3    H228244   1.022   3.556   1.458
 2229TIP3   OH228245   4.431   4.115   0.430
 2229TIP3    H128246   4.463   4.043   0.484
 2229TIP3    H228247   4.483   4.190   0.458
 2230TIP3   OH228248   2.860   6.499   1.342
 2230TIP3    H128249   2.928   6.432   1.343
 2230TIP3    H228250   2.781   6.453   1.371
 2231TIP3   OH228251   6.715   1.178   0.836
 2231TIP3    H128252   6.630   1.189   0.879
 2231TIP3    H228253   6.711   1.237   0.761
 2232TIP3   OH228254   3.836   0.435   6.414
 2232TIP3    H128255   3.890   0.506   6.380
 2232TIP3    H228256   3.899   0.372   6.449
 2233TIP3   OH228257   3.593   4.735   8.061
 2233TIP3    H128258   3.649   4.674   8.110
 2233TIP3    H228259   3.631   4.736   7.973
 2234TIP3   OH228260   2.185   3.899   0.200
 2234TIP3    H128261   2.116   3.931   0.258
 2234TIP3    H228262   2.149   3.908   0.112
 2235TIP3   OH228263   4.626   5.004   0.995
 2235TIP3    H128264   4.586   4.965   0.917
 2235TIP3    H228265   4.566   5.074   1.020
 2236TIP3   OH228266   5.051   4.936   8.168
 2236TIP3    H128267   5.086   4.932   8.257
 2236TIP3    H228268   4.991   5.010   8.169
 2237TIP3   OH228269   3.199   0.412   0.843
 2237TIP3    H128270   3.177   0.319   0.846
 2237TIP3    H228271   3.196   0.441   0.934
 2238TIP3   OH228272   0.927   0.605   0.279
 2238TIP3    H128273   0.840   0.631   0.249
 2238TIP3    H228274   0.968   0.686   0.309
 2239TIP3   OH228275   2.347   2.381   6.765
 2239TIP3    H128276   2.379   2.340   6.684
 2239TIP3    H228277   2.368   2.318   6.834
 2240TIP3   OH228278   2.283   1.657   1.293
 2240TIP3    H128279   2.317   1.568   1.301
 2240TIP3    H228280   2.267   1.685   1.383
 2241TIP3   OH228281   6.379   5.250   8.536
 2241TIP3    H128282   6.451   5.248   8.472
 2241TIP3    H228283   6.371   5.159   8.566
 2242TIP3   OH228284   6.102   2.578   1.170
 2242TIP3    H128285   6.086   2.663   1.129
 2242TIP3    H228286   6.127   2.521   1.097
 2243TIP3   OH228287   6.432   2.131   1.539
 2243TIP3    H128288   6.496   2.181   1.589
 2243TIP3    H228289   6.452   2.151   1.448
 2244TIP3   OH228290   5.785   6.326   0.046
 2244TIP3    H128291   5.872   6.364   0.034
 2244TIP3    H228292   5.791   6.278   0.129
 2245TIP3   OH228293   3.865   2.088   1.436
 2245TIP3    H128294   3.836   2.129   1.355
 2245TIP3    H228295   3.958   2.070   1.422
 2246TIP3   OH228296   2.080   1.681   0.338
 2246TIP3    H128297   2.088   1.615   0.407
 2246TIP3    H228298   2.169   1.690   0.304
 2247TIP3   OH228299   6.330   1.836   0.488
 2247TIP3    H128300   6.360   1.798   0.406
 2247TIP3    H228301   6.335   1.930   0.475
 2248TIP3   OH228302   6.759   3.932   0.359
 2248TIP3    H128303   6.679   3.913   0.310
 2248TIP3    H228304   6.819   3.968   0.293
 2249TIP3   OH228305   1.097   5.007   0.868
 2249TIP3    H128306   1.008   5.042   0.861
 2249TIP3    H228307   1.145   5.074   0.917
 2250TIP3   OH228308   0.816   4.246   7.637
 2250TIP3    H128309   0.812   4.316   7.702
 2250TIP3    H228310   0.772   4.283   7.560
 2251TIP3   OH228311   1.417   0.933   2.200
 2251TIP3    H128312   1.413   1.026   2.176
 2251TIP3    H228313   1.503   0.923   2.241
 2252TIP3   OH228314   6.630   3.349   0.882
 2252TIP3    H128315   6.633   3.318   0.791
 2252TIP3    H228316   6.542   3.325   0.913
 2253TIP3   OH228317   4.006   2.356   8.412
 2253TIP3    H128318   4.067   2.364   8.486
 2253TIP3    H228319   3.977   2.265   8.415
 2254TIP3   OH228320   2.670   3.651   8.548
 2254TIP3    H128321   2.683   3.712   8.475
 2254TIP3    H228322   2.694   3.701   8.626
 2255TIP3   OH228323   1.945   5.780   8.248
 2255TIP3    H128324   1.931   5.874   8.258
 2255TIP3    H228325   1.955   5.747   8.337
 2256TIP3   OH228326   5.642   5.941   2.616
 2256TIP3    H128327   5.609   6.012   2.672
 2256TIP3    H228328   5.698   5.984   2.552
 2257TIP3   OH228329   2.307   5.926   6.646
 2257TIP3    H128330   2.309   5.835   6.615
 2257TIP3    H228331   2.399   5.952   6.646
 2258TIP3   OH228332   1.141   4.195   7.001
 2258TIP3    H128333   1.165   4.286   7.017
 2258TIP3    H228334   1.184   4.173   6.918
 2259TIP3   OH228335   1.091   1.916   7.793
 2259TIP3    H128336   1.014   1.943   7.743
 2259TIP3    H228337   1.149   1.876   7.728
 2260TIP3   OH228338   1.029   2.488   8.324
 2260TIP3    H128339   1.050   2.422   8.390
 2260TIP3    H228340   0.968   2.547   8.367
 2261TIP3   OH228341   3.253   3.335   1.553
 2261TIP3    H128342   3.268   3.387   1.632
 2261TIP3    H228343   3.261   3.398   1.481
 2262TIP3   OH228344   2.031   5.993   2.165
 2262TIP3    H128345   2.026   6.070   2.108
 2262TIP3    H228346   1.945   5.988   2.206
 2263TIP3   OH228347   4.095   3.179   0.526
 2263TIP3    H128348   4.128   3.108   0.470
 2263TIP3    H228349   4.002   3.158   0.539
 2264TIP3   OH228350   5.062   2.793   0.366
 2264TIP3    H128351   5.117   2.869   0.345
 2264TIP3    H228352   4.977   2.814   0.326
 2265TIP3   OH228353   5.272   5.951   6.809
 2265TIP3    H128354   5.311   5.866   6.829
 2265TIP3    H228355   5.304   6.009   6.878
 2266TIP3   OH228356   3.869   6.025   7.969
 2266TIP3    H128357   3.843   6.101   7.916
 2266TIP3    H228358   3.950   6.051   8.011
 2267TIP3   OH228359   5.533   5.460   0.831
 2267TIP3    H128360   5.530   5.490   0.740
 2267TIP3    H228361   5.623   5.429   0.843
 2268TIP3   OH228362   4.020   5.017   7.447
 2268TIP3    H128363   3.955   5.038   7.381
 2268TIP3    H228364   4.104   5.041   7.407
 2269TIP3   OH228365   2.189   1.595   7.370
 2269TIP3    H128366   2.272   1.557   7.399
 2269TIP3    H228367   2.144   1.619   7.451
 2270TIP3   OH228368   6.622   3.695   8.078
 2270TIP3    H128369   6.661   3.696   7.991
 2270TIP3    H228370   6.660   3.771   8.122
 2271TIP3   OH228371   1.360   2.219   8.730
 2271TIP3    H128372   1.327   2.135   8.763
 2271TIP3    H228373   1.405   2.196   8.648
 2272TIP3   OH228374   3.147   4.253   0.050
 2272TIP3    H128375   3.133   4.159   0.063
 2272TIP3    H228376   3.066   4.283   0.008
 2273TIP3   OH228377   4.926   1.681   6.865
 2273TIP3    H128378   4.867   1.720   6.929
 2273TIP3    H228379   4.868   1.643   6.799
 2274TIP3   OH228380   5.251   3.239   7.881
 2274TIP3    H128381   5.302   3.243   7.800
 2274TIP3    H228382   5.315   3.255   7.950
 2275TIP3   OH228383   0.007   0.122   8.727
 2275TIP3    H128384   0.048   0.156   0.025
 2275TIP3    H228385   6.752   0.117   8.749
 2276TIP3   OH228386   0.654   2.771   0.730
 2276TIP3    H128387   0.584   2.707   0.747
 2276TIP3    H228388   0.694   2.786   0.815
 2277TIP3   OH228389   3.650   3.947   7.034
 2277TIP3    H128390   3.658   4.035   6.995
 2277TIP3    H228391   3.714   3.947   7.105
 2278TIP3   OH228392   3.189   3.765   0.369
 2278TIP3    H128393   3.268   3.730   0.409
 2278TIP3    H228394   3.131   3.689   0.357
 2279TIP3   OH228395   0.832   6.377   1.358
 2279TIP3    H128396   0.756   6.345   1.407
 2279TIP3    H228397   0.845   6.311   1.289
 2280TIP3   OH228398   5.784   5.286   7.908
 2280TIP3    H128399   5.839   5.263   7.982
 2280TIP3    H228400   5.845   5.298   7.835
 2281TIP3   OH228401   5.064   6.126   2.075
 2281TIP3    H128402   5.119   6.184   2.128
 2281TIP3    H228403   5.075   6.040   2.116
 2282TIP3   OH228404   5.481   2.801   0.206
 2282TIP3    H128405   5.546   2.733   0.225
 2282TIP3    H228406   5.399   2.752   0.192
 2283TIP3   OH228407   5.876   0.256   1.273
 2283TIP3    H128408   5.788   0.233   1.302
 2283TIP3    H228409   5.908   0.178   1.227
 2284TIP3   OH228410   3.973   1.576   7.002
 2284TIP3    H128411   3.939   1.664   7.017
 2284TIP3    H228412   3.944   1.553   6.914
 2285TIP3   OH228413   4.352   6.348   8.590
 2285TIP3    H128414   4.440   6.313   8.577
 2285TIP3    H228415   4.321   6.306   8.670
 2286TIP3   OH228416   5.631   2.140   1.539
 2286TIP3    H128417   5.541   2.119   1.514
 2286TIP3    H228418   5.632   2.135   1.634
 2287TIP3   OH228419   3.963   4.572   1.018
 2287TIP3    H128420   3.973   4.628   1.095
 2287TIP3    H228421   4.018   4.614   0.951
 2288TIP3   OH228422   1.158   4.540   0.629
 2288TIP3    H128423   1.253   4.541   0.644
 2288TIP3    H228424   1.124   4.607   0.688
 2289TIP3   OH228425   6.049   1.723   6.657
 2289TIP3    H128426   5.963   1.759   6.676
 2289TIP3    H228427   6.057   1.647   6.715
 2290TIP3   OH228428   3.656   0.664   7.745
 2290TIP3    H128429   3.577   0.716   7.728
 2290TIP3    H228430   3.626   0.593   7.802
 2291TIP3   OH228431   3.202   1.822   2.543
 2291TIP3    H128432   3.287   1.855   2.573
 2291TIP3    H228433   3.160   1.898   2.503
 2292TIP3   OH228434   5.345   4.605   1.234
 2292TIP3    H128435   5.304   4.527   1.196
 2292TIP3    H228436   5.312   4.677   1.181
 2293TIP3   OH228437   3.783   5.081   6.505
 2293TIP3    H128438   3.754   5.010   6.562
 2293TIP3    H228439   3.704   5.133   6.489
 2294TIP3   OH228440   1.021   4.232   8.283
 2294TIP3    H128441   0.972   4.156   8.312
 2294TIP3    H228442   1.111   4.215   8.312
 2295TIP3   OH228443   1.627   2.670   0.316
 2295TIP3    H128444   1.688   2.597   0.332
 2295TIP3    H228445   1.684   2.745   0.302
 2296TIP3   OH228446   5.313   2.558   0.182
 2296TIP3    H128447   5.400   2.542   0.144
 2296TIP3    H228448   5.254   2.558   0.106
 2297TIP3   OH228449   5.005   6.725   6.800
 2297TIP3    H128450   4.998   6.815   6.831
 2297TIP3    H228451   5.092   6.696   6.828
 2298TIP3   OH228452   3.559   6.450   8.344
 2298TIP3    H128453   3.628   6.483   8.287
 2298TIP3    H228454   3.570   6.355   8.342
 2299TIP3   OH228455   6.532   6.734   2.042
 2299TIP3    H128456   6.540   6.688   1.958
 2299TIP3    H228457   6.617   6.778   2.053
 2300TIP3   OH228458   4.269   5.937   7.945
 2300TIP3    H128459   4.294   5.883   7.870
 2300TIP3    H228460   4.206   5.884   7.993
 2301TIP3   OH228461   3.740   3.683   7.551
 2301TIP3    H128462   3.828   3.721   7.546
 2301TIP3    H228463   3.697   3.733   7.620
 2302TIP3   OH228464   1.483   3.192   8.512
 2302TIP3    H128465   1.480   3.147   8.596
 2302TIP3    H228466   1.443   3.131   8.450
 2303TIP3   OH228467   6.610   1.186   8.161
 2303TIP3    H128468   6.562   1.104   8.169
 2303TIP3    H228469   6.632   1.209   8.252
 2304TIP3   OH228470   4.231   3.980   0.336
 2304TIP3    H128471   4.303   4.037   0.364
 2304TIP3    H228472   4.263   3.891   0.350
 2305TIP3   OH228473   0.388   1.656   0.562
 2305TIP3    H128474   0.415   1.566   0.543
 2305TIP3    H228475   0.322   1.647   0.630
 2306TIP3   OH228476   4.988   1.340   8.149
 2306TIP3    H128477   4.928   1.347   8.224
 2306TIP3    H228478   4.954   1.402   8.085
 2307TIP3   OH228479   0.207   2.380   2.061
 2307TIP3    H128480   0.297   2.379   2.094
 2307TIP3    H228481   0.196   2.469   2.025
 2308TIP3   OH228482   0.057   0.593   8.566
 2308TIP3    H128483   0.125   0.527   8.561
 2308TIP3    H228484   0.040   0.619   8.475
 2309TIP3   OH228485   6.345   2.508   1.408
 2309TIP3    H128486   6.377   2.596   1.426
 2309TIP3    H228487   6.419   2.463   1.367
 2310TIP3   OH228488   0.659   5.940   1.658
 2310TIP3    H128489   0.631   6.013   1.602
 2310TIP3    H228490   0.655   5.976   1.746
 2311TIP3   OH228491   1.543   4.812   1.324
 2311TIP3    H128492   1.578   4.735   1.280
 2311TIP3    H228493   1.448   4.804   1.315
 2312TIP3   OH228494   4.859   1.222   1.247
 2312TIP3    H128495   4.945   1.194   1.214
 2312TIP3    H228496   4.878   1.299   1.301
 2313TIP3   OH228497   1.652   3.656   7.518
 2313TIP3    H128498   1.621   3.614   7.438
 2313TIP3    H228499   1.680   3.584   7.574
 2314TIP3   OH228500   5.341   3.971   7.781
 2314TIP3    H128501   5.371   3.943   7.695
 2314TIP3    H228502   5.407   3.937   7.841
 2315TIP3   OH228503   4.506   2.261   7.133
 2315TIP3    H128504   4.553   2.264   7.216
 2315TIP3    H228505   4.516   2.171   7.103
 2316TIP3   OH228506   3.804   5.045   0.696
 2316TIP3    H128507   3.799   4.999   0.780
 2316TIP3    H228508   3.736   5.112   0.702
 2317TIP3   OH228509   0.169   3.473   7.544
 2317TIP3    H128510   0.220   3.452   7.466
 2317TIP3    H228511   0.231   3.517   7.602
 2318TIP3   OH228512   2.648   1.607   0.946
 2318TIP3    H128513   2.649   1.596   1.041
 2318TIP3    H228514   2.739   1.592   0.919
 2319TIP3   OH228515   6.038   0.445   7.534
 2319TIP3    H128516   6.094   0.418   7.606
 2319TIP3    H228517   5.957   0.474   7.576
 2320TIP3   OH228518   5.596   1.876   0.202
 2320TIP3    H128519   5.566   1.796   0.245
 2320TIP3    H228520   5.580   1.861   0.109
 2321TIP3   OH228521   1.159   1.780   0.250
 2321TIP3    H128522   1.160   1.693   0.290
 2321TIP3    H228523   1.124   1.766   0.162
 2322TIP3   OH228524   2.601   0.623   1.852
 2322TIP3    H128525   2.537   0.624   1.780
 2322TIP3    H228526   2.617   0.530   1.869
 2323TIP3   OH228527   3.584   0.235   6.338
 2323TIP3    H128528   3.645   0.180   6.289
 2323TIP3    H228529   3.513   0.176   6.363
 2324TIP3   OH228530   3.466   3.762   1.099
 2324TIP3    H128531   3.402   3.815   1.050
 2324TIP3    H228532   3.488   3.815   1.175
 2325TIP3   OH228533   2.260   3.562   6.342
 2325TIP3    H128534   2.198   3.528   6.407
 2325TIP3    H228535   2.217   3.547   6.258
 2326TIP3   OH228536   5.012   3.142   7.029
 2326TIP3    H128537   4.964   3.162   6.949
 2326TIP3    H228538   5.039   3.051   7.020
 2327TIP3   OH228539   1.478   3.857   0.570
 2327TIP3    H128540   1.421   3.801   0.622
 2327TIP3    H228541   1.440   3.855   0.482
 2328TIP3   OH228542   2.503   3.744   8.264
 2328TIP3    H128543   2.594   3.738   8.235
 2328TIP3    H228544   2.457   3.786   8.191
 2329TIP3   OH228545   0.305   5.089   8.311
 2329TIP3    H128546   0.372   5.090   8.379
 2329TIP3    H228547   0.353   5.073   8.230
 2330TIP3   OH228548   2.296   3.803   0.696
 2330TIP3    H128549   2.323   3.882   0.743
 2330TIP3    H228550   2.336   3.812   0.609
 2331TIP3   OH228551   5.680   4.908   0.868
 2331TIP3    H128552   5.679   4.817   0.897
 2331TIP3    H228553   5.588   4.929   0.850
 2332TIP3   OH228554   3.132   4.448   0.260
 2332TIP3    H128555   3.051   4.406   0.289
 2332TIP3    H228556   3.167   4.388   0.194
 2333TIP3   OH228557   0.110   5.159   2.317
 2333TIP3    H128558   0.153   5.078   2.290
 2333TIP3    H228559   0.019   5.132   2.334
 2334TIP3   OH228560   5.724   6.773   8.427
 2334TIP3    H128561   5.701   0.021   8.461
 2334TIP3    H228562   5.796   6.788   8.367
 2335TIP3   OH228563   0.926   2.646   1.577
 2335TIP3    H128564   0.942   2.628   1.670
 2335TIP3    H228565   0.854   2.709   1.577
 2336TIP3   OH228566   3.345   6.477   0.910
 2336TIP3    H128567   3.415   6.411   0.911
 2336TIP3    H228568   3.285   6.448   0.979
 2337TIP3   OH228569   4.499   5.919   1.386
 2337TIP3    H128570   4.515   5.830   1.420
 2337TIP3    H228571   4.554   5.975   1.441
 2338TIP3   OH228572   1.384   5.904   0.097
 2338TIP3    H128573   1.446   5.832   0.085
 2338TIP3    H228574   1.302   5.861   0.120
 2339TIP3   OH228575   3.304   6.612   2.346
 2339TIP3    H128576   3.340   6.684   2.295
 2339TIP3    H228577   3.209   6.626   2.344
 2340TIP3   OH228578   6.639   1.514   1.472
 2340TIP3    H128579   6.637   1.424   1.503
 2340TIP3    H228580   6.727   1.546   1.494
 2341TIP3   OH228581   4.793   2.222   6.977
 2341TIP3    H128582   4.805   2.137   6.936
 2341TIP3    H228583   4.711   2.214   7.026
 2342TIP3   OH228584   6.634   6.582   1.452
 2342TIP3    H128585   6.578   6.570   1.375
 2342TIP3    H228586   6.588   6.648   1.504
 2343TIP3   OH228587   1.979   3.766   0.985
 2343TIP3    H128588   2.011   3.820   1.057
 2343TIP3    H228589   1.885   3.757   1.001
 2344TIP3   OH228590   4.923   2.008   7.641
 2344TIP3    H128591   5.016   2.025   7.624
 2344TIP3    H228592   4.921   1.920   7.678
 2345TIP3   OH228593   4.224   4.679   2.832
 2345TIP3    H128594   4.259   4.597   2.796
 2345TIP3    H228595   4.264   4.747   2.779
 2346TIP3   OH228596   5.265   6.827   0.839
 2346TIP3    H128597   5.286   0.076   0.807
 2346TIP3    H228598   5.170   6.820   0.831
 2347TIP3   OH228599   4.062   4.722   0.777
 2347TIP3    H128600   4.002   4.711   0.703
 2347TIP3    H228601   4.120   4.793   0.750
 2348TIP3   OH228602   2.319   0.923   0.474
 2348TIP3    H128603   2.337   0.915   0.568
 2348TIP3    H228604   2.335   1.015   0.455
 2349TIP3   OH228605   5.038   0.269   8.734
 2349TIP3    H128606   5.024   0.303   8.646
 2349TIP3    H228607   5.038   0.346   0.008
 2350TIP3   OH228608   1.220   2.229   7.997
 2350TIP3    H128609   1.144   2.174   8.014
 2350TIP3    H228610   1.202   2.270   7.913
 2351TIP3   OH228611   2.610   4.446   8.054
 2351TIP3    H128612   2.680   4.417   7.996
 2351TIP3    H228613   2.537   4.387   8.035
 2352TIP3   OH228614   3.430   4.516   0.422
 2352TIP3    H128615   3.342   4.512   0.461
 2352TIP3    H228616   3.430   4.445   0.358
 2353TIP3   OH228617   1.827   5.065   0.065
 2353TIP3    H128618   1.769   5.055   0.141
 2353TIP3    H228619   1.874   4.981   0.060
 2354TIP3   OH228620   6.214   6.795   1.774
 2354TIP3    H128621   6.173   6.723   1.726
 2354TIP3    H228622   6.185   6.783   1.865
 2355TIP3   OH228623   5.805   4.835   0.321
 2355TIP3    H128624   5.784   4.787   0.401
 2355TIP3    H228625   5.899   4.822   0.308
 2356TIP3   OH228626   5.329   6.725   7.105
 2356TIP3    H128627   5.332   6.806   7.055
 2356TIP3    H228628   5.279   6.665   7.050
 2357TIP3   OH228629   4.931   3.323   0.789
 2357TIP3    H128630   4.867   3.260   0.755
 2357TIP3    H228631   4.990   3.338   0.716
 2358TIP3   OH228632   6.134   1.524   1.018
 2358TIP3    H128633   6.188   1.475   0.955
 2358TIP3    H228634   6.099   1.457   1.077
 2359TIP3   OH228635   6.385   3.665   7.260
 2359TIP3    H128636   6.391   3.736   7.196
 2359TIP3    H228637   6.476   3.644   7.281
 2360TIP3   OH228638   6.302   6.204   1.850
 2360TIP3    H128639   6.370   6.177   1.788
 2360TIP3    H228640   6.343   6.194   1.936
 2361TIP3   OH228641   0.461   1.572   8.038
 2361TIP3    H128642   0.461   1.648   8.095
 2361TIP3    H228643   0.391   1.516   8.071
 2362TIP3   OH228644   4.334   4.485   6.916
 2362TIP3    H128645   4.307   4.403   6.959
 2362TIP3    H228646   4.356   4.459   6.826
 2363TIP3   OH228647   6.037   2.131   7.836
 2363TIP3    H128648   6.094   2.055   7.849
 2363TIP3    H228649   6.097   2.205   7.826
 2364TIP3   OH228650   0.452   1.973   1.871
 2364TIP3    H128651   0.529   2.024   1.897
 2364TIP3    H228652   0.488   1.890   1.838
 2365TIP3   OH228653   1.622   0.286   0.286
 2365TIP3    H128654   1.694   0.298   0.224
 2365TIP3    H228655   1.624   0.193   0.307
 2366TIP3   OH228656   6.262   2.049   8.499
 2366TIP3    H128657   6.241   1.976   8.441
 2366TIP3    H228658   6.310   2.009   8.572
 2367TIP3   OH228659   4.703   2.596   0.344
 2367TIP3    H128660   4.641   2.553   0.403
 2367TIP3    H228661   4.738   2.525   0.290
 2368TIP3   OH228662   6.471   0.110   7.286
 2368TIP3    H128663   6.452   0.202   7.305
 2368TIP3    H228664   6.440   0.098   7.196
 2369TIP3   OH228665   4.016   0.336   7.677
 2369TIP3    H128666   4.067   0.412   7.650
 2369TIP3    H228667   4.082   0.270   7.699
 2370TIP3   OH228668   4.068   5.260   1.902
 2370TIP3    H128669   3.984   5.265   1.948
 2370TIP3    H228670   4.129   5.306   1.960
 2371TIP3   OH228671   5.132   1.714   8.067
 2371TIP3    H128672   5.216   1.672   8.084
 2371TIP3    H228673   5.073   1.675   8.132
 2372TIP3   OH228674   5.381   4.466   2.055
 2372TIP3    H128675   5.390   4.561   2.061
 2372TIP3    H228676   5.287   4.452   2.040
 2373TIP3   OH228677   4.815   3.618   6.278
 2373TIP3    H128678   4.830   3.566   6.199
 2373TIP3    H228679   4.760   3.691   6.249
 2374TIP3   OH228680   2.506   5.924   7.586
 2374TIP3    H128681   2.569   5.963   7.648
 2374TIP3    H228682   2.506   5.983   7.512
 2375TIP3   OH228683   1.649   0.887   1.734
 2375TIP3    H128684   1.642   0.947   1.660
 2375TIP3    H228685   1.568   0.901   1.784
 2376TIP3   OH228686   0.845   2.876   0.016
 2376TIP3    H128687   0.878   2.821   0.087
 2376TIP3    H228688   0.765   2.832   8.769
 2377TIP3   OH228689   2.847   3.414   1.003
 2377TIP3    H128690   2.838   3.424   1.098
 2377TIP3    H228691   2.797   3.336   0.982
 2378TIP3   OH228692   4.766   0.440   7.291
 2378TIP3    H128693   4.818   0.369   7.255
 2378TIP3    H228694   4.741   0.492   7.215
 2379TIP3   OH228695   3.196   1.552   2.496
 2379TIP3    H128696   3.235   1.546   2.409
 2379TIP3    H228697   3.182   1.645   2.510
 2380TIP3   OH228698   5.155   0.590   0.798
 2380TIP3    H128699   5.234   0.598   0.744
 2380TIP3    H228700   5.163   0.661   0.862
 2381TIP3   OH228701   6.134   2.630   1.541
 2381TIP3    H128702   6.142   2.586   1.626
 2381TIP3    H228703   6.208   2.596   1.490
 2382TIP3   OH228704   1.370   3.431   1.590
 2382TIP3    H128705   1.418   3.427   1.507
 2382TIP3    H228706   1.395   3.350   1.635
 2383TIP3   OH228707   1.284   2.885   8.087
 2383TIP3    H128708   1.274   2.972   8.049
 2383TIP3    H228709   1.203   2.871   8.135
 2384TIP3   OH228710   6.409   5.485   0.103
 2384TIP3    H128711   6.342   5.532   0.053
 2384TIP3    H228712   6.491   5.509   0.061
 2385TIP3   OH228713   0.629   1.806   8.131
 2385TIP3    H128714   0.645   1.896   8.103
 2385TIP3    H228715   0.716   1.769   8.147
 2386TIP3   OH228716   3.564   4.261   0.355
 2386TIP3    H128717   3.567   4.173   0.393
 2386TIP3    H228718   3.585   4.319   0.428
 2387TIP3   OH228719   0.440   1.030   7.872
 2387TIP3    H128720   0.478   0.960   7.925
 2387TIP3    H228721   0.512   1.058   7.815
 2388TIP3   OH228722   5.074   5.718   0.979
 2388TIP3    H128723   5.086   5.753   1.067
 2388TIP3    H228724   5.163   5.706   0.946
 2389TIP3   OH228725   3.891   3.177   2.083
 2389TIP3    H128726   3.967   3.208   2.133
 2389TIP3    H228727   3.868   3.251   2.026
 2390TIP3   OH228728   5.778   4.909   7.050
 2390TIP3    H128729   5.808   4.912   6.959
 2390TIP3    H228730   5.775   5.000   7.077
 2391TIP3   OH228731   5.445   2.301   0.418
 2391TIP3    H128732   5.361   2.306   0.373
 2391TIP3    H228733   5.502   2.254   0.357
 2392TIP3   OH228734   5.360   2.378   6.165
 2392TIP3    H128735   5.411   2.426   6.230
 2392TIP3    H228736   5.273   2.369   6.204
 2393TIP3   OH228737   3.374   4.574   7.954
 2393TIP3    H128738   3.413   4.657   7.927
 2393TIP3    H228739   3.448   4.523   7.988
 2394TIP3   OH228740   0.185   0.874   7.339
 2394TIP3    H128741   0.265   0.852   7.291
 2394TIP3    H228742   0.176   0.969   7.328
 2395TIP3   OH228743   2.946   4.387   1.718
 2395TIP3    H128744   2.994   4.313   1.679
 2395TIP3    H228745   2.975   4.463   1.667
 2396TIP3   OH228746   1.464   4.952   1.067
 2396TIP3    H128747   1.425   4.896   1.000
 2396TIP3    H228748   1.492   4.892   1.136
 2397TIP3   OH228749   3.705   6.089   8.300
 2397TIP3    H128750   3.747   6.089   8.386
 2397TIP3    H228751   3.612   6.100   8.318
 2398TIP3   OH228752   0.697   3.309   1.164
 2398TIP3    H128753   0.744   3.293   1.246
 2398TIP3    H228754   0.701   3.404   1.153
 2399TIP3   OH228755   4.584   0.891   8.102
 2399TIP3    H128756   4.573   0.797   8.090
 2399TIP3    H228757   4.503   0.919   8.145
 2400TIP3   OH228758   5.378   4.283   1.733
 2400TIP3    H128759   5.439   4.231   1.785
 2400TIP3    H228760   5.390   4.373   1.765
 2401TIP3   OH228761   1.452   0.070   8.447
 2401TIP3    H128762   1.506   0.119   8.509
 2401TIP3    H228763   1.466   6.816   8.470
 2402TIP3   OH228764   5.709   4.718   0.582
 2402TIP3    H128765   5.710   4.791   0.644
 2402TIP3    H228766   5.792   4.673   0.595
 2403TIP3   OH228767   0.367   6.819   6.565
 2403TIP3    H128768   0.390   6.782   6.651
 2403TIP3    H228769   0.448   6.811   6.514
 2404TIP3   OH228770   5.424   2.175   8.371
 2404TIP3    H128771   5.333   2.166   8.345
 2404TIP3    H228772   5.462   2.088   8.358
 2405TIP3   OH228773   4.311   0.843   7.425
 2405TIP3    H128774   4.397   0.824   7.463
 2405TIP3    H228775   4.259   0.764   7.442
 2406TIP3   OH228776   4.082   5.502   8.353
 2406TIP3    H128777   3.993   5.472   8.335
 2406TIP3    H228778   4.130   5.421   8.374
 2407TIP3   OH228779   4.149   1.768   0.635
 2407TIP3    H128780   4.082   1.807   0.578
 2407TIP3    H228781   4.231   1.805   0.603
 2408TIP3   OH228782   4.488   5.309   6.990
 2408TIP3    H128783   4.458   5.368   7.059
 2408TIP3    H228784   4.552   5.361   6.941
 2409TIP3   OH228785   2.671   0.623   6.554
 2409TIP3    H128786   2.663   0.677   6.633
 2409TIP3    H228787   2.715   0.679   6.491
 2410TIP3   OH228788   6.187   2.679   0.147
 2410TIP3    H128789   6.243   2.722   0.083
 2410TIP3    H228790   6.110   2.650   0.097
 2411TIP3   OH228791   5.577   1.537   1.223
 2411TIP3    H128792   5.525   1.553   1.144
 2411TIP3    H228793   5.535   1.462   1.265
 2412TIP3   OH228794   1.587   2.865   1.540
 2412TIP3    H128795   1.492   2.854   1.551
 2412TIP3    H228796   1.624   2.826   1.619
 2413TIP3   OH228797   6.226   0.268   8.381
 2413TIP3    H128798   6.143   0.230   8.411
 2413TIP3    H228799   6.287   0.195   8.377
 2414TIP3   OH228800   3.989   4.563   1.929
 2414TIP3    H128801   3.991   4.648   1.973
 2414TIP3    H228802   4.057   4.570   1.861
 2415TIP3   OH228803   3.503   2.526   8.184
 2415TIP3    H128804   3.516   2.522   8.089
 2415TIP3    H228805   3.408   2.516   8.195
 2416TIP3   OH228806   1.511   4.144   6.638
 2416TIP3    H128807   1.462   4.066   6.661
 2416TIP3    H228808   1.457   4.217   6.670
 2417TIP3   OH228809   2.106   0.535   1.697
 2417TIP3    H128810   2.102   0.440   1.705
 2417TIP3    H228811   2.195   0.553   1.667
 2418TIP3   OH228812   4.170   5.754   8.263
 2418TIP3    H128813   4.134   5.669   8.288
 2418TIP3    H228814   4.112   5.818   8.305
 2419TIP3   OH228815   4.056   4.149   8.567
 2419TIP3    H128816   4.136   4.186   8.529
 2419TIP3    H228817   4.081   4.129   8.658
 2420TIP3   OH228818   3.138   1.443   8.479
 2420TIP3    H128819   3.075   1.477   8.415
 2420TIP3    H228820   3.154   1.353   8.452
 2421TIP3   OH228821   0.214   0.565   1.194
 2421TIP3    H128822   0.242   0.605   1.276
 2421TIP3    H228823   0.197   0.638   1.136
 2422TIP3   OH228824   4.276   0.960   0.857
 2422TIP3    H128825   4.287   0.902   0.782
 2422TIP3    H228826   4.197   1.009   0.837
 2423TIP3   OH228827   5.822   5.689   0.879
 2423TIP3    H128828   5.814   5.749   0.804
 2423TIP3    H228829   5.809   5.602   0.842
 2424TIP3   OH228830   2.001   2.694   0.499
 2424TIP3    H128831   2.080   2.664   0.454
 2424TIP3    H228832   2.001   2.789   0.488
 2425TIP3   OH228833   2.907   1.619   1.091
 2425TIP3    H128834   2.860   1.700   1.114
 2425TIP3    H228835   2.902   1.565   1.170
 2426TIP3   OH228836   5.971   2.437   1.436
 2426TIP3    H128837   6.030   2.511   1.445
 2426TIP3    H228838   6.027   2.360   1.450
 2427TIP3   OH228839   3.527   5.378   8.750
 2427TIP3    H128840   3.554   5.404   8.662
 2427TIP3    H228841   3.440   5.339   8.738
 2428TIP3   OH228842   0.194   5.963   1.237
 2428TIP3    H128843   0.206   5.973   1.331
 2428TIP3    H228844   0.191   5.868   1.224
 2429TIP3   OH228845   6.057   6.132   7.647
 2429TIP3    H128846   5.976   6.132   7.596
 2429TIP3    H228847   6.034   6.175   7.729
 2430TIP3   OH228848   1.582   0.543   0.195
 2430TIP3    H128849   1.650   0.581   0.252
 2430TIP3    H228850   1.580   0.451   0.219
 2431TIP3   OH228851   3.312   0.143   7.063
 2431TIP3    H128852   3.407   0.147   7.075
 2431TIP3    H228853   3.297   0.058   7.022
 2432TIP3   OH228854   1.908   1.694   7.798
 2432TIP3    H128855   1.897   1.672   7.890
 2432TIP3    H228856   1.848   1.767   7.783
 2433TIP3   OH228857   2.385   3.840   8.592
 2433TIP3    H128858   2.370   3.918   8.538
 2433TIP3    H228859   2.433   3.780   8.535
 2434TIP3   OH228860   5.804   5.949   7.967
 2434TIP3    H128861   5.791   5.937   8.061
 2434TIP3    H228862   5.736   5.895   7.926
 2435TIP3   OH228863   3.286   3.100   1.346
 2435TIP3    H128864   3.239   3.183   1.349
 2435TIP3    H228865   3.248   3.049   1.417
 2436TIP3   OH228866   4.612   5.062   7.083
 2436TIP3    H128867   4.629   4.999   7.013
 2436TIP3    H228868   4.648   5.144   7.051
 2437TIP3   OH228869   3.990   6.405   1.783
 2437TIP3    H128870   3.945   6.321   1.790
 2437TIP3    H228871   3.920   6.470   1.777
 2438TIP3   OH228872   5.779   5.062   1.559
 2438TIP3    H128873   5.821   5.127   1.616
 2438TIP3    H228874   5.825   5.071   1.475
 2439TIP3   OH228875   5.472   1.534   6.863
 2439TIP3    H128876   5.439   1.624   6.857
 2439TIP3    H228877   5.559   1.544   6.903
 2440TIP3   OH228878   0.338   2.933   7.002
 2440TIP3    H128879   0.409   2.929   7.066
 2440TIP3    H228880   0.301   2.845   7.002
 2441TIP3   OH228881   5.030   1.580   1.842
 2441TIP3    H128882   5.077   1.592   1.924
 2441TIP3    H228883   5.098   1.577   1.775
 2442TIP3   OH228884   0.586   5.651   8.451
 2442TIP3    H128885   0.642   5.720   8.487
 2442TIP3    H228886   0.502   5.695   8.435
 2443TIP3   OH228887   6.313   6.482   1.532
 2443TIP3    H128888   6.378   6.550   1.548
 2443TIP3    H228889   6.255   6.484   1.608
 2444TIP3   OH228890   4.408   0.527   7.174
 2444TIP3    H128891   4.332   0.469   7.184
 2444TIP3    H228892   4.436   0.515   7.083
 2445TIP3   OH228893   2.479   6.726   0.829
 2445TIP3    H128894   2.401   6.737   0.775
 2445TIP3    H228895   2.548   6.772   0.782
 2446TIP3   OH228896   3.670   3.010   7.255
 2446TIP3    H128897   3.653   2.984   7.164
 2446TIP3    H228898   3.670   2.928   7.304
 2447TIP3   OH228899   0.747   5.137   0.114
 2447TIP3    H128900   0.732   5.159   0.022
 2447TIP3    H228901   0.660   5.123   0.150
 2448TIP3   OH228902   4.507   5.102   1.958
 2448TIP3    H128903   4.492   5.081   2.050
 2448TIP3    H228904   4.593   5.065   1.939
 2449TIP3   OH228905   0.400   0.544   6.985
 2449TIP3    H128906   0.384   0.543   7.079
 2449TIP3    H228907   0.336   0.606   6.950
 2450TIP3   OH228908   3.593   4.433   6.545
 2450TIP3    H128909   3.668   4.425   6.486
 2450TIP3    H228910   3.547   4.349   6.536
 2451TIP3   OH228911   2.017   6.829   7.384
 2451TIP3    H128912   2.094   6.837   7.327
 2451TIP3    H228913   1.953   6.780   7.331
 2452TIP3   OH228914   5.598   3.645   1.932
 2452TIP3    H128915   5.667   3.657   1.997
 2452TIP3    H228916   5.564   3.557   1.949
 2453TIP3   OH228917   3.563   4.288   6.877
 2453TIP3    H128918   3.600   4.252   6.796
 2453TIP3    H228919   3.632   4.275   6.942
 2454TIP3   OH228920   4.544   0.853   2.357
 2454TIP3    H128921   4.455   0.828   2.332
 2454TIP3    H228922   4.600   0.798   2.303
 2455TIP3   OH228923   6.436   1.145   0.922
 2455TIP3    H128924   6.382   1.152   1.000
 2455TIP3    H228925   6.376   1.158   0.849
 2456TIP3   OH228926   2.404   0.692   1.688
 2456TIP3    H128927   2.335   0.758   1.693
 2456TIP3    H228928   2.386   0.644   1.607
 2457TIP3   OH228929   6.457   2.756   1.490
 2457TIP3    H128930   6.481   2.834   1.440
 2457TIP3    H228931   6.481   2.777   1.580
 2458TIP3   OH228932   2.904   3.946   1.740
 2458TIP3    H128933   2.905   3.961   1.834
 2458TIP3    H228934   2.974   3.883   1.725
 2459TIP3   OH228935   5.543   1.307   0.837
 2459TIP3    H128936   5.449   1.299   0.853
 2459TIP3    H228937   5.584   1.271   0.916
 2460TIP3   OH228938   5.364   5.761   6.979
 2460TIP3    H128939   5.434   5.751   7.044
 2460TIP3    H228940   5.298   5.696   7.004
 2461TIP3   OH228941   1.642   3.514   8.158
 2461TIP3    H128942   1.652   3.424   8.128
 2461TIP3    H228943   1.645   3.566   8.077
 2462TIP3   OH228944   4.176   4.318   0.433
 2462TIP3    H128945   4.257   4.269   0.418
 2462TIP3    H228946   4.191   4.403   0.392
 2463TIP3   OH228947   2.652   0.619   7.231
 2463TIP3    H128948   2.727   0.580   7.275
 2463TIP3    H228949   2.647   0.573   7.147
 2464TIP3   OH228950   0.444   3.314   0.807
 2464TIP3    H128951   0.500   3.239   0.791
 2464TIP3    H228952   0.412   3.302   0.897
 2465TIP3   OH228953   5.507   0.547   7.419
 2465TIP3    H128954   5.426   0.535   7.370
 2465TIP3    H228955   5.574   0.557   7.352
 2466TIP3   OH228956   6.399   4.025   8.297
 2466TIP3    H128957   6.400   4.119   8.277
 2466TIP3    H228958   6.307   4.005   8.315
 2467TIP3   OH228959   4.298   0.142   1.965
 2467TIP3    H128960   4.364   0.083   2.001
 2467TIP3    H228961   4.284   0.111   1.875
 2468TIP3   OH228962   1.210   3.813   0.038
 2468TIP3    H128963   1.236   3.782   8.734
 2468TIP3    H228964   1.116   3.799   0.042
 2469TIP3   OH228965   5.916   3.817   0.023
 2469TIP3    H128966   5.860   3.797   8.731
 2469TIP3    H228967   5.952   3.732   0.049
 2470TIP3   OH228968   0.607   0.961   8.738
 2470TIP3    H128969   0.644   0.893   8.682
 2470TIP3    H228970   0.545   0.915   0.011
 2471TIP3   OH228971   2.625   1.141   1.149
 2471TIP3    H128972   2.682   1.162   1.222
 2471TIP3    H228973   2.681   1.095   1.086
 2472TIP3   OH228974   6.632   6.519   0.420
 2472TIP3    H128975   6.723   6.498   0.440
 2472TIP3    H228976   6.632   6.613   0.402
 2473TIP3   OH228977   2.043   3.313   6.801
 2473TIP3    H128978   1.956   3.275   6.795
 2473TIP3    H228979   2.067   3.303   6.893
 2474TIP3   OH228980   1.215   0.256   6.964
 2474TIP3    H128981   1.137   0.270   7.017
 2474TIP3    H228982   1.186   0.198   6.893
 2475TIP3   OH228983   4.246   5.548   1.611
 2475TIP3    H128984   4.237   5.636   1.574
 2475TIP3    H228985   4.165   5.535   1.661
 2476TIP3   OH228986   2.485   1.679   6.928
 2476TIP3    H128987   2.540   1.630   6.867
 2476TIP3    H228988   2.419   1.616   6.957
 2477TIP3   OH228989   4.723   3.453   7.141
 2477TIP3    H128990   4.751   3.395   7.212
 2477TIP3    H228991   4.796   3.451   7.079
 2478TIP3   OH228992   3.523   0.468   0.716
 2478TIP3    H128993   3.510   0.478   0.810
 2478TIP3    H228994   3.570   0.547   0.689
 2479TIP3   OH228995   6.325   0.565   0.562
 2479TIP3    H128996   6.286   0.646   0.595
 2479TIP3    H228997   6.320   0.504   0.636
 2480TIP3   OH228998   0.095   5.048   8.586
 2480TIP3    H128999   0.068   5.065   8.495
 2480TIP3    H229000   0.118   4.955   8.587
 2481TIP3   OH229001   5.859   6.565   0.340
 2481TIP3    H129002   5.765   6.557   0.357
 2481TIP3    H229003   5.895   6.604   0.420
 2482TIP3   OH229004   3.520   5.944   1.128
 2482TIP3    H129005   3.483   5.883   1.191
 2482TIP3    H229006   3.475   5.924   1.046
 2483TIP3   OH229007   1.751   2.999   7.157
 2483TIP3    H129008   1.688   3.006   7.229
 2483TIP3    H229009   1.777   3.090   7.140
 2484TIP3   OH229010   2.664   0.963   0.911
 2484TIP3    H129011   2.622   0.963   0.825
 2484TIP3    H229012   2.654   0.873   0.942
 2485TIP3   OH229013   0.878   4.026   0.764
 2485TIP3    H129014   0.820   4.073   0.705
 2485TIP3    H229015   0.865   4.067   0.849
 2486TIP3   OH229016   4.256   6.380   6.578
 2486TIP3    H129017   4.274   6.395   6.485
 2486TIP3    H229018   4.182   6.320   6.578
 2487TIP3   OH229019   2.720   5.805   2.089
 2487TIP3    H129020   2.815   5.790   2.090
 2487TIP3    H229021   2.688   5.746   2.021
 2488TIP3   OH229022   3.729   1.795   7.228
 2488TIP3    H129023   3.742   1.787   7.133
 2488TIP3    H229024   3.782   1.870   7.253
 2489TIP3   OH229025   6.261   1.016   1.204
 2489TIP3    H129026   6.300   0.930   1.193
 2489TIP3    H229027   6.167   1.002   1.192
 2490TIP3   OH229028   1.713   4.628   8.199
 2490TIP3    H129029   1.777   4.599   8.134
 2490TIP3    H229030   1.753   4.706   8.238
 2491TIP3   OH229031   3.688   5.896   6.899
 2491TIP3    H129032   3.749   5.822   6.899
 2491TIP3    H229033   3.705   5.941   6.816
 2492TIP3   OH229034   6.124   0.955   8.093
 2492TIP3    H129035   6.127   0.861   8.112
 2492TIP3    H229036   6.037   0.969   8.057
 2493TIP3   OH229037   0.473   3.860   8.521
 2493TIP3    H129038   0.391   3.846   8.568
 2493TIP3    H229039   0.535   3.800   8.563
 2494TIP3   OH229040   3.060   2.672   6.903
 2494TIP3    H129041   3.048   2.579   6.881
 2494TIP3    H229042   3.078   2.714   6.818
 2495TIP3   OH229043   3.703   4.022   8.037
 2495TIP3    H129044   3.752   4.104   8.034
 2495TIP3    H229045   3.755   3.966   8.095
 2496TIP3   OH229046   6.750   5.056   0.943
 2496TIP3    H129047   6.722   5.137   0.985
 2496TIP3    H229048   6.818   5.022   1.002
 2497TIP3   OH229049   4.385   6.713   0.032
 2497TIP3    H129050   4.311   6.731   0.090
 2497TIP3    H229051   4.409   6.622   0.052
 2498TIP3   OH229052   3.994   5.460   0.378
 2498TIP3    H129053   3.909   5.443   0.418
 2498TIP3    H229054   4.057   5.441   0.448
 2499TIP3   OH229055   0.811   0.463   7.078
 2499TIP3    H129056   0.829   0.423   7.163
 2499TIP3    H229057   0.777   0.550   7.098
 2500TIP3   OH229058   0.549   2.893   7.173
 2500TIP3    H129059   0.556   2.800   7.190
 2500TIP3    H229060   0.626   2.914   7.120
 2501TIP3   OH229061   4.622   1.034   7.857
 2501TIP3    H129062   4.679   1.085   7.914
 2501TIP3    H229063   4.596   0.959   7.910
 2502TIP3   OH229064   6.507   2.193   1.297
 2502TIP3    H129065   6.489   2.183   1.204
 2502TIP3    H229066   6.524   2.287   1.308
 2503TIP3   OH229067   4.709   0.419   8.037
 2503TIP3    H129068   4.751   0.385   7.957
 2503TIP3    H229069   4.781   0.459   8.086
 2504TIP3   OH229070   5.618   3.856   7.803
 2504TIP3    H129071   5.676   3.784   7.826
 2504TIP3    H229072   5.614   3.854   7.707
 2505TIP3   OH229073   3.922   0.215   7.939
 2505TIP3    H129074   3.885   0.181   7.857
 2505TIP3    H229075   3.914   0.143   8.001
 2506TIP3   OH229076   5.474   4.384   7.218
 2506TIP3    H129077   5.445   4.385   7.309
 2506TIP3    H229078   5.394   4.366   7.168
 2507TIP3   OH229079   0.350   4.741   0.922
 2507TIP3    H129080   0.358   4.706   0.833
 2507TIP3    H229081   0.391   4.827   0.918
 2508TIP3   OH229082   0.784   4.996   0.568
 2508TIP3    H129083   0.853   4.931   0.560
 2508TIP3    H229084   0.817   5.071   0.519
 2509TIP3   OH229085   0.628   2.024   7.531
 2509TIP3    H129086   0.644   2.087   7.461
 2509TIP3    H229087   0.559   1.967   7.497
 2510TIP3   OH229088   2.747   5.678   0.418
 2510TIP3    H129089   2.812   5.690   0.350
 2510TIP3    H229090   2.788   5.619   0.481
 2511TIP3   OH229091   5.481   6.393   0.535
 2511TIP3    H129092   5.440   6.306   0.533
 2511TIP3    H229093   5.492   6.411   0.628
 2512TIP3   OH229094   1.843   3.632   0.312
 2512TIP3    H129095   1.816   3.703   0.254
 2512TIP3    H229096   1.851   3.673   0.399
 2513TIP3   OH229097   1.105   1.688   8.775
 2513TIP3    H129098   1.085   1.671   8.683
 2513TIP3    H229099   1.200   1.675   8.781
 2514TIP3   OH229100   2.932   5.735   0.223
 2514TIP3    H129101   2.956   5.811   0.170
 2514TIP3    H229102   3.015   5.692   0.243
 2515TIP3   OH229103   6.040   5.281   8.480
 2515TIP3    H129104   6.086   5.344   8.426
 2515TIP3    H229105   6.106   5.249   8.542
 2516TIP3   OH229106   2.884   2.220   8.053
 2516TIP3    H129107   2.909   2.183   7.969
 2516TIP3    H229108   2.823   2.291   8.031
 2517TIP3   OH229109   3.177   5.436   0.621
 2517TIP3    H129110   3.269   5.459   0.613
 2517TIP3    H229111   3.170   5.391   0.705
 2518TIP3   OH229112   4.242   0.747   6.798
 2518TIP3    H129113   4.287   0.783   6.874
 2518TIP3    H229114   4.174   0.811   6.777
 2519TIP3   OH229115   0.724   1.721   2.023
 2519TIP3    H129116   0.631   1.729   1.999
 2519TIP3    H229117   0.771   1.739   1.942
 2520TIP3   OH229118   5.088   5.133   1.825
 2520TIP3    H129119   5.142   5.105   1.899
 2520TIP3    H229120   5.037   5.055   1.803
 2521TIP3   OH229121   5.179   0.528   0.109
 2521TIP3    H129122   5.247   0.595   0.111
 2521TIP3    H229123   5.226   0.446   0.125
 2522TIP3   OH229124   0.397   3.905   1.016
 2522TIP3    H129125   0.309   3.898   0.979
 2522TIP3    H229126   0.452   3.935   0.944
 2523TIP3   OH229127   5.398   3.316   6.706
 2523TIP3    H129128   5.434   3.351   6.624
 2523TIP3    H229129   5.473   3.275   6.749
 2524TIP3   OH229130   2.654   2.023   8.715
 2524TIP3    H129131   2.722   1.961   8.689
 2524TIP3    H229132   2.575   1.992   8.672
 2525TIP3   OH229133   2.564   3.243   7.778
 2525TIP3    H129134   2.523   3.290   7.851
 2525TIP3    H229135   2.534   3.289   7.700
 2526TIP3   OH229136   3.734   4.172   0.141
 2526TIP3    H129137   3.676   4.198   0.213
 2526TIP3    H229138   3.716   4.079   0.130
 2527TIP3   OH229139   2.966   6.451   7.217
 2527TIP3    H129140   2.936   6.373   7.262
 2527TIP3    H229141   2.895   6.515   7.229
 2528TIP3   OH229142   3.636   4.160   2.076
 2528TIP3    H129143   3.552   4.195   2.106
 2528TIP3    H229144   3.702   4.215   2.119
 2529TIP3   OH229145   3.379   2.456   2.380
 2529TIP3    H129146   3.411   2.504   2.304
 2529TIP3    H229147   3.340   2.524   2.436
 2530TIP3   OH229148   2.777   5.147   1.701
 2530TIP3    H129149   2.736   5.086   1.762
 2530TIP3    H229150   2.824   5.091   1.640
 2531TIP3   OH229151   1.538   4.734   1.876
 2531TIP3    H129152   1.491   4.682   1.811
 2531TIP3    H229153   1.519   4.825   1.853
 2532TIP3   OH229154   3.232   3.658   0.065
 2532TIP3    H129155   3.302   3.713   0.029
 2532TIP3    H229156   3.209   3.699   0.148
 2533TIP3   OH229157   2.436   5.431   1.897
 2533TIP3    H129158   2.487   5.363   1.942
 2533TIP3    H229159   2.393   5.479   1.967
 2534TIP3   OH229160   1.508   5.048   2.291
 2534TIP3    H129161   1.456   4.980   2.248
 2534TIP3    H229162   1.543   5.101   2.219
 2535TIP3   OH229163   6.539   1.317   0.472
 2535TIP3    H129164   6.565   1.336   0.562
 2535TIP3    H229165   6.612   1.267   0.436
 2536TIP3   OH229166   0.321   0.593   7.252
 2536TIP3    H129167   0.357   0.678   7.229
 2536TIP3    H229168   0.388   0.554   7.309
 2537TIP3   OH229169   3.084   3.464   0.913
 2537TIP3    H129170   3.113   3.496   0.999
 2537TIP3    H229171   2.997   3.429   0.930
 2538TIP3   OH229172   5.867   1.081   0.099
 2538TIP3    H129173   5.925   1.037   0.037
 2538TIP3    H229174   5.827   1.151   0.049
 2539TIP3   OH229175   5.535   6.437   6.960
 2539TIP3    H129176   5.510   6.437   7.052
 2539TIP3    H229177   5.552   6.529   6.940
 2540TIP3   OH229178   6.117   3.095   0.138
 2540TIP3    H129179   6.112   3.063   0.228
 2540TIP3    H229180   6.194   3.053   0.101
 2541TIP3   OH229181   4.687   6.593   2.219
 2541TIP3    H129182   4.674   6.525   2.286
 2541TIP3    H229183   4.695   6.674   2.269
 2542TIP3   OH229184   5.156   1.983   8.041
 2542TIP3    H129185   5.147   1.901   8.088
 2542TIP3    H229186   5.072   2.027   8.051
 2543TIP3   OH229187   0.180   6.748   0.762
 2543TIP3    H129188   0.149   6.755   0.853
 2543TIP3    H229189   0.208   6.657   0.754
 2544TIP3   OH229190   1.850   6.804   2.479
 2544TIP3    H129191   1.764   6.804   2.436
 2544TIP3    H229192   1.877   0.057   2.479
 2545TIP3   OH229193   3.455   2.350   8.724
 2545TIP3    H129194   3.450   2.316   0.030
 2545TIP3    H229195   3.434   2.443   8.733
 2546TIP3   OH229196   6.006   6.607   7.526
 2546TIP3    H129197   5.978   6.689   7.565
 2546TIP3    H229198   6.076   6.632   7.466
 2547TIP3   OH229199   4.232   0.648   0.238
 2547TIP3    H129200   4.191   0.581   0.293
 2547TIP3    H229201   4.205   0.731   0.277
 2548TIP3   OH229202   2.473   5.352   6.694
 2548TIP3    H129203   2.428   5.274   6.661
 2548TIP3    H229204   2.559   5.319   6.722
 2549TIP3   OH229205   5.391   5.381   7.085
 2549TIP3    H129206   5.361   5.365   7.175
 2549TIP3    H229207   5.367   5.302   7.037
 2550TIP3   OH229208   3.284   0.848   1.256
 2550TIP3    H129209   3.309   0.809   1.172
 2550TIP3    H229210   3.280   0.942   1.238
 2551TIP3   OH229211   0.786   4.637   1.099
 2551TIP3    H129212   0.746   4.665   1.181
 2551TIP3    H229213   0.769   4.709   1.038
 2552TIP3   OH229214   5.287   1.221   0.927
 2552TIP3    H129215   5.258   1.292   0.984
 2552TIP3    H229216   5.273   1.141   0.978
 2553TIP3   OH229217   1.499   5.867   1.149
 2553TIP3    H129218   1.541   5.878   1.064
 2553TIP3    H229219   1.412   5.905   1.138
 2554TIP3   OH229220   5.559   3.367   7.789
 2554TIP3    H129221   5.519   3.287   7.755
 2554TIP3    H229222   5.557   3.428   7.715
 2555TIP3   OH229223   1.175   5.705   1.180
 2555TIP3    H129224   1.158   5.657   1.099
 2555TIP3    H229225   1.164   5.797   1.157
 2556TIP3   OH229226   4.705   6.389   1.819
 2556TIP3    H129227   4.758   6.389   1.739
 2556TIP3    H229228   4.721   6.475   1.859
 2557TIP3   OH229229   5.751   0.077   7.866
 2557TIP3    H129230   5.691   0.023   7.917
 2557TIP3    H229231   5.812   0.115   7.930
 2558TIP3   OH229232   2.989   1.266   1.143
 2558TIP3    H129233   3.039   1.222   1.075
 2558TIP3    H229234   2.924   1.201   1.171
 2559TIP3   OH229235   4.287   2.725   1.342
 2559TIP3    H129236   4.225   2.741   1.414
 2559TIP3    H229237   4.232   2.720   1.264
 2560TIP3   OH229238   5.496   0.490   6.892
 2560TIP3    H129239   5.485   0.484   6.987
 2560TIP3    H229240   5.578   0.538   6.881
 2561TIP3   OH229241   3.007   5.513   2.002
 2561TIP3    H129242   2.932   5.461   1.973
 2561TIP3    H229243   3.083   5.463   1.973
 2562TIP3   OH229244   4.337   1.760   7.978
 2562TIP3    H129245   4.344   1.678   7.928
 2562TIP3    H229246   4.313   1.732   8.066
 2563TIP3   OH229247   2.356   2.308   0.285
 2563TIP3    H129248   2.448   2.281   0.292
 2563TIP3    H229249   2.358   2.403   0.299
 2564TIP3   OH229250   5.738   4.516   7.422
 2564TIP3    H129251   5.734   4.589   7.360
 2564TIP3    H229252   5.646   4.490   7.434
 2565TIP3   OH229253   4.810   0.372   1.041
 2565TIP3    H129254   4.716   0.368   1.023
 2565TIP3    H229255   4.834   0.463   1.024
 2566TIP3   OH229256   1.664   6.126   2.324
 2566TIP3    H129257   1.600   6.097   2.259
 2566TIP3    H229258   1.729   6.174   2.273
 2567TIP3   OH229259   6.304   2.545   6.196
 2567TIP3    H129260   6.210   2.561   6.202
 2567TIP3    H229261   6.340   2.627   6.164
 2568TIP3   OH229262   0.783   4.548   1.507
 2568TIP3    H129263   0.708   4.596   1.472
 2568TIP3    H229264   0.843   4.615   1.539
 2569TIP3   OH229265   3.786   2.279   8.770
 2569TIP3    H129266   3.713   2.221   0.011
 2569TIP3    H229267   3.749   2.337   8.702
 2570TIP3   OH229268   5.377   2.833   8.307
 2570TIP3    H129269   5.283   2.825   8.290
 2570TIP3    H229270   5.418   2.788   8.233
 2571TIP3   OH229271   5.115   0.586   7.487
 2571TIP3    H129272   5.025   0.610   7.464
 2571TIP3    H229273   5.141   0.651   7.552
 2572TIP3   OH229274   5.402   2.920   7.872
 2572TIP3    H129275   5.439   2.992   7.922
 2572TIP3    H229276   5.316   2.952   7.843
 2573TIP3   OH229277   1.564   1.581   8.119
 2573TIP3    H129278   1.491   1.640   8.135
 2573TIP3    H229279   1.559   1.516   8.190
 2574TIP3   OH229280   5.946   5.036   7.576
 2574TIP3    H129281   5.959   5.122   7.615
 2574TIP3    H229282   6.034   5.002   7.561
 2575TIP3   OH229283   0.763   3.596   1.189
 2575TIP3    H129284   0.703   3.628   1.256
 2575TIP3    H229285   0.847   3.588   1.234
 2576TIP3   OH229286   2.615   1.378   7.267
 2576TIP3    H129287   2.610   1.356   7.174
 2576TIP3    H229288   2.630   1.294   7.311
 2577TIP3   OH229289   2.647   0.149   1.405
 2577TIP3    H129290   2.673   0.138   1.497
 2577TIP3    H229291   2.674   0.067   1.363
 2578TIP3   OH229292   5.478   1.715   8.506
 2578TIP3    H129293   5.407   1.662   8.470
 2578TIP3    H229294   5.557   1.681   8.463
 2579TIP3   OH229295   1.050   0.534   8.752
 2579TIP3    H129296   1.063   0.530   0.064
 2579TIP3    H229297   0.960   0.503   8.739
 2580TIP3   OH229298   2.077   5.498   6.457
 2580TIP3    H129299   2.086   5.433   6.527
 2580TIP3    H229300   2.026   5.569   6.497
 2581TIP3   OH229301   2.705   6.343   8.241
 2581TIP3    H129302   2.761   6.319   8.315
 2581TIP3    H229303   2.751   6.415   8.198
 2582TIP3   OH229304   3.832   5.392   1.170
 2582TIP3    H129305   3.821   5.315   1.114
 2582TIP3    H229306   3.857   5.462   1.111
 2583TIP3   OH229307   5.175   5.147   0.606
 2583TIP3    H129308   5.143   5.237   0.613
 2583TIP3    H229309   5.169   5.127   0.513
 2584TIP3   OH229310   4.618   1.121   8.619
 2584TIP3    H129311   4.710   1.104   8.636
 2584TIP3    H229312   4.579   1.132   8.706
 2585TIP3   OH229313   2.063   4.328   8.477
 2585TIP3    H129314   2.071   4.357   8.386
 2585TIP3    H229315   1.993   4.382   8.514
 2586TIP3   OH229316   1.777   2.037   1.561
 2586TIP3    H129317   1.729   2.107   1.604
 2586TIP3    H229318   1.869   2.062   1.570
 2587TIP3   OH229319   4.884   3.522   0.539
 2587TIP3    H129320   4.794   3.497   0.517
 2587TIP3    H229321   4.935   3.443   0.524
 2588TIP3   OH229322   4.927   5.169   6.828
 2588TIP3    H129323   5.013   5.201   6.853
 2588TIP3    H229324   4.932   5.074   6.843
 2589TIP3   OH229325   1.668   6.769   8.010
 2589TIP3    H129326   1.689   6.692   7.958
 2589TIP3    H229327   1.664   0.002   7.946
 2590TIP3   OH229328   3.440   3.762   0.542
 2590TIP3    H129329   3.479   3.675   0.538
 2590TIP3    H229330   3.386   3.762   0.620
 2591TIP3   OH229331   4.800   0.231   1.272
 2591TIP3    H129332   4.778   0.290   1.344
 2591TIP3    H229333   4.784   0.283   1.193
 2592TIP3   OH229334   6.029   4.544   1.367
 2592TIP3    H129335   6.055   4.457   1.398
 2592TIP3    H229336   6.002   4.529   1.276
 2593TIP3   OH229337   6.253   0.671   0.079
 2593TIP3    H129338   6.345   0.659   0.103
 2593TIP3    H229339   6.253   0.749   0.022
 2594TIP3   OH229340   4.158   2.268   0.176
 2594TIP3    H129341   4.216   2.202   0.137
 2594TIP3    H229342   4.137   2.327   0.103
 2595TIP3   OH229343   0.303   6.058   8.332
 2595TIP3    H129344   0.211   6.055   8.361
 2595TIP3    H229345   0.298   6.087   8.241
 2596TIP3   OH229346   3.946   4.804   0.308
 2596TIP3    H129347   3.942   4.890   0.348
 2596TIP3    H229348   3.940   4.820   0.214
 2597TIP3   OH229349   4.417   2.364   7.975
 2597TIP3    H129350   4.470   2.428   7.927
 2597TIP3    H229351   4.392   2.299   7.909
 2598TIP3   OH229352   5.157   5.014   8.758
 2598TIP3    H129353   5.140   4.999   0.068
 2598TIP3    H229354   5.113   5.097   8.738
 2599TIP3   OH229355   3.250   1.597   1.601
 2599TIP3    H129356   3.161   1.581   1.632
 2599TIP3    H229357   3.301   1.523   1.635
 2600TIP3   OH229358   1.596   2.264   1.959
 2600TIP3    H129359   1.588   2.357   1.936
 2600TIP3    H229360   1.668   2.261   2.022
 2601TIP3   OH229361   2.581   1.236   8.709
 2601TIP3    H129362   2.657   1.185   8.682
 2601TIP3    H229363   2.566   1.297   8.636
 2602TIP3   OH229364   0.142   4.922   7.238
 2602TIP3    H129365   0.122   5.004   7.193
 2602TIP3    H229366   0.061   4.871   7.231
 2603TIP3   OH229367   4.135   4.504   7.778
 2603TIP3    H129368   4.084   4.440   7.828
 2603TIP3    H229369   4.155   4.572   7.842
 2604TIP3   OH229370   5.793   3.464   6.959
 2604TIP3    H129371   5.837   3.440   7.041
 2604TIP3    H229372   5.859   3.448   6.891
 2605TIP3   OH229373   1.300   4.245   8.355
 2605TIP3    H129374   1.260   4.232   8.440
 2605TIP3    H229375   1.362   4.173   8.346
 2606TIP3   OH229376   5.440   2.811   6.627
 2606TIP3    H129377   5.411   2.722   6.646
 2606TIP3    H229378   5.532   2.803   6.603
 2607TIP3   OH229379   0.792   1.323   5.780
 2607TIP3    H129380   0.880   1.292   5.756
 2607TIP3    H229381   0.766   1.268   5.853
 2608TIP3   OH229382   4.475   5.382   0.167
 2608TIP3    H129383   4.431   5.462   0.139
 2608TIP3    H229384   4.412   5.337   0.223
 2609TIP3   OH229385   0.507   1.035   6.122
 2609TIP3    H129386   0.563   1.094   6.072
 2609TIP3    H229387   0.563   1.004   6.193
 2610TIP3   OH229388   2.757   1.165   1.397
 2610TIP3    H129389   2.815   1.239   1.412
 2610TIP3    H229390   2.782   1.101   1.464
 2611TIP3   OH229391   6.032   1.799   1.330
 2611TIP3    H129392   6.070   1.741   1.396
 2611TIP3    H229393   5.962   1.845   1.376
 2612TIP3   OH229394   4.057   1.800   7.951
 2612TIP3    H129395   4.152   1.800   7.964
 2612TIP3    H229396   4.023   1.864   8.014
 2613TIP3   OH229397   2.889   0.729   2.549
 2613TIP3    H129398   2.970   0.775   2.529
 2613TIP3    H229399   2.917   0.641   2.574
 2614TIP3   OH229400   4.894   1.952   7.057
 2614TIP3    H129401   4.883   1.973   7.150
 2614TIP3    H229402   4.989   1.953   7.044
 2615TIP3   OH229403   5.007   0.345   0.824
 2615TIP3    H129404   5.041   0.434   0.814
 2615TIP3    H229405   4.935   0.353   0.886
 2616TIP3   OH229406   0.273   0.813   1.081
 2616TIP3    H129407   0.242   0.805   0.990
 2616TIP3    H229408   0.359   0.771   1.080
 2617TIP3   OH229409   2.752   1.186   6.770
 2617TIP3    H129410   2.797   1.198   6.687
 2617TIP3    H229411   2.751   1.092   6.784
 2618TIP3   OH229412   3.314   4.020   1.490
 2618TIP3    H129413   3.394   4.003   1.441
 2618TIP3    H229414   3.323   3.970   1.571
 2619TIP3   OH229415   5.146   1.638   2.095
 2619TIP3    H129416   5.132   1.727   2.127
 2619TIP3    H229417   5.072   1.589   2.129
 2620TIP3   OH229418   6.409   0.060   8.453
 2620TIP3    H129419   6.444   6.832   8.511
 2620TIP3    H229420   6.360   0.011   8.387
 2621TIP3   OH229421   2.605   4.294   0.885
 2621TIP3    H129422   2.673   4.320   0.948
 2621TIP3    H229423   2.528   4.344   0.912
 2622TIP3   OH229424   5.806   4.437   6.574
 2622TIP3    H129425   5.865   4.481   6.635
 2622TIP3    H229426   5.725   4.423   6.623
 2623TIP3   OH229427   2.285   4.430   7.819
 2623TIP3    H129428   2.195   4.405   7.798
 2623TIP3    H229429   2.286   4.437   7.914
 2624TIP3   OH229430   5.987   5.857   7.785
 2624TIP3    H129431   6.029   5.941   7.765
 2624TIP3    H229432   5.926   5.877   7.856
 2625TIP3   OH229433   1.154   5.255   1.409
 2625TIP3    H129434   1.060   5.252   1.388
 2625TIP3    H229435   1.173   5.347   1.424
 2626TIP3   OH229436   4.047   3.068   8.314
 2626TIP3    H129437   4.059   3.121   8.393
 2626TIP3    H229438   4.114   3.099   8.254
 2627TIP3   OH229439   0.267   5.225   0.854
 2627TIP3    H129440   0.330   5.237   0.924
 2627TIP3    H229441   0.301   5.277   0.781
 2628TIP3   OH229442   4.888   4.613   0.977
 2628TIP3    H129443   4.960   4.593   0.918
 2628TIP3    H229444   4.880   4.535   1.032
 2629TIP3   OH229445   5.503   4.876   7.414
 2629TIP3    H129446   5.411   4.868   7.438
 2629TIP3    H229447   5.543   4.927   7.484
 2630TIP3   OH229448   2.896   4.912   0.587
 2630TIP3    H129449   2.938   4.864   0.658
 2630TIP3    H229450   2.942   4.996   0.584
 2631TIP3   OH229451   2.952   0.336   8.513
 2631TIP3    H129452   2.967   0.375   8.599
 2631TIP3    H229453   3.040   0.323   8.477
 2632TIP3   OH229454   4.352   3.438   0.078
 2632TIP3    H129455   4.443   3.443   0.106
 2632TIP3    H229456   4.307   3.505   0.130
 2633TIP3   OH229457   2.089   4.677   0.948
 2633TIP3    H129458   2.070   4.694   1.041
 2633TIP3    H229459   2.051   4.590   0.932
 2634TIP3   OH229460   0.414   3.508   0.587
 2634TIP3    H129461   0.456   3.453   0.521
 2634TIP3    H229462   0.437   3.467   0.670
 2635TIP3   OH229463   1.621   0.768   8.130
 2635TIP3    H129464   1.681   0.816   8.186
 2635TIP3    H229465   1.605   0.827   8.056
 2636TIP3   OH229466   4.175   1.486   0.401
 2636TIP3    H129467   4.086   1.486   0.435
 2636TIP3    H229468   4.229   1.519   0.473
 2637TIP3   OH229469   2.821   1.762   7.050
 2637TIP3    H129470   2.874   1.685   7.069
 2637TIP3    H229471   2.733   1.728   7.033
 2638TIP3   OH229472   3.409   6.347   2.285
 2638TIP3    H129473   3.498   6.342   2.321
 2638TIP3    H229474   3.378   6.434   2.310
 2639TIP3   OH229475   3.121   2.841   7.397
 2639TIP3    H129476   3.129   2.875   7.486
 2639TIP3    H229477   3.101   2.918   7.344
 2640TIP3   OH229478   4.684   0.192   7.128
 2640TIP3    H129479   4.633   0.144   7.062
 2640TIP3    H229480   4.652   0.158   7.211
 2641TIP3   OH229481   3.184   1.581   6.508
 2641TIP3    H129482   3.232   1.604   6.588
 2641TIP3    H229483   3.150   1.493   6.525
 2642TIP3   OH229484   1.252   5.859   0.385
 2642TIP3    H129485   1.237   5.858   0.479
 2642TIP3    H229486   1.308   5.783   0.369
 2643TIP3   OH229487   6.626   3.327   8.210
 2643TIP3    H129488   6.667   3.378   8.139
 2643TIP3    H229489   6.625   3.237   8.178
 2644TIP3   OH229490   4.267   6.121   7.093
 2644TIP3    H129491   4.211   6.067   7.038
 2644TIP3    H229492   4.345   6.068   7.107
 2645TIP3   OH229493   0.502   3.198   0.496
 2645TIP3    H129494   0.504   3.176   0.589
 2645TIP3    H229495   0.523   3.115   0.452
 2646TIP3   OH229496   3.125   5.706   8.161
 2646TIP3    H129497   3.090   5.762   8.092
 2646TIP3    H229498   3.133   5.763   8.237
 2647TIP3   OH229499   5.858   5.194   0.316
 2647TIP3    H129500   5.822   5.135   0.249
 2647TIP3    H229501   5.952   5.175   0.316
 2648TIP3   OH229502   2.541   4.021   0.377
 2648TIP3    H129503   2.488   4.053   0.304
 2648TIP3    H229504   2.604   4.091   0.393
 2649TIP3   OH229505   2.908   6.725   7.210
 2649TIP3    H129506   2.861   6.800   7.175
 2649TIP3    H229507   2.972   6.702   7.143
 2650TIP3   OH229508   4.126   0.127   1.043
 2650TIP3    H129509   4.116   0.192   1.113
 2650TIP3    H229510   4.059   0.151   0.979
 2651TIP3   OH229511   0.638   5.345   6.954
 2651TIP3    H129512   0.650   5.278   6.887
 2651TIP3    H229513   0.677   5.424   6.916
 2652TIP3   OH229514   1.301   2.638   2.045
 2652TIP3    H129515   1.396   2.642   2.034
 2652TIP3    H229516   1.288   2.650   2.139
 2653TIP3   OH229517   5.651   2.753   8.383
 2653TIP3    H129518   5.656   2.753   8.479
 2653TIP3    H229519   5.558   2.770   8.364
 2654TIP3   OH229520   1.825   1.651   8.107
 2654TIP3    H129521   1.827   1.744   8.084
 2654TIP3    H229522   1.732   1.629   8.108
 2655TIP3   OH229523   1.734   3.269   8.044
 2655TIP3    H129524   1.802   3.308   7.989
 2655TIP3    H229525   1.765   3.280   8.133
 2656TIP3   OH229526   6.090   1.830   7.759
 2656TIP3    H129527   6.061   1.861   7.673
 2656TIP3    H229528   6.010   1.827   7.812
 2657TIP3   OH229529   0.048   6.466   8.421
 2657TIP3    H129530   0.112   6.468   8.350
 2657TIP3    H229531   0.096   6.429   8.496
 2658TIP3   OH229532   4.281   2.213   0.926
 2658TIP3    H129533   4.306   2.304   0.910
 2658TIP3    H229534   4.201   2.201   0.874
 2659TIP3   OH229535   0.060   5.048   7.785
 2659TIP3    H129536   0.024   5.077   7.868
 2659TIP3    H229537   6.830   4.991   7.748
 2660TIP3   OH229538   3.990   3.757   7.837
 2660TIP3    H129539   3.960   3.766   7.746
 2660TIP3    H229540   3.989   3.663   7.853
 2661TIP3   OH229541   0.398   1.243   8.498
 2661TIP3    H129542   0.454   1.241   8.575
 2661TIP3    H229543   0.448   1.293   8.433
 2662TIP3   OH229544   5.922   3.430   0.887
 2662TIP3    H129545   5.959   3.452   0.802
 2662TIP3    H229546   5.896   3.514   0.924
 2663TIP3   OH229547   3.560   5.110   1.165
 2663TIP3    H129548   3.632   5.049   1.182
 2663TIP3    H229549   3.487   5.076   1.217
 2664TIP3   OH229550   0.948   0.949   8.269
 2664TIP3    H129551   0.881   0.922   8.206
 2664TIP3    H229552   1.003   0.872   8.281
 2665TIP3   OH229553   5.855   1.930   8.242
 2665TIP3    H129554   5.899   1.976   8.313
 2665TIP3    H229555   5.775   1.979   8.227
 2666TIP3   OH229556   2.252   3.486   1.663
 2666TIP3    H129557   2.321   3.543   1.629
 2666TIP3    H229558   2.296   3.401   1.675
 2667TIP3   OH229559   2.366   6.498   8.255
 2667TIP3    H129560   2.341   6.569   8.314
 2667TIP3    H229561   2.420   6.440   8.309
 2668TIP3   OH229562   0.936   1.756   1.446
 2668TIP3    H129563   0.970   1.845   1.433
 2668TIP3    H229564   0.842   1.763   1.429
 2669TIP3   OH229565   3.193   0.711   7.675
 2669TIP3    H129566   3.118   0.758   7.710
 2669TIP3    H229567   3.269   0.762   7.703
 2670TIP3   OH229568   5.930   0.664   1.496
 2670TIP3    H129569   5.957   0.622   1.414
 2670TIP3    H229570   5.890   0.594   1.547
 2671TIP3   OH229571   6.540   5.834   8.486
 2671TIP3    H129572   6.499   5.896   8.546
 2671TIP3    H229573   6.504   5.749   8.510
 2672TIP3   OH229574   2.683   6.708   7.586
 2672TIP3    H129575   2.655   6.673   7.670
 2672TIP3    H229576   2.649   6.646   7.522
 2673TIP3   OH229577   3.236   6.025   6.877
 2673TIP3    H129578   3.225   6.013   6.972
 2673TIP3    H229579   3.153   5.995   6.839
 2674TIP3   OH229580   3.494   2.904   0.859
 2674TIP3    H129581   3.583   2.932   0.880
 2674TIP3    H229582   3.503   2.851   0.780
 2675TIP3   OH229583   2.802   1.123   7.062
 2675TIP3    H129584   2.775   1.038   7.028
 2675TIP3    H229585   2.758   1.186   7.005
 2676TIP3   OH229586   4.327   2.859   8.027
 2676TIP3    H129587   4.304   2.845   7.935
 2676TIP3    H229588   4.319   2.772   8.066
 2677TIP3   OH229589   3.410   1.867   8.324
 2677TIP3    H129590   3.330   1.916   8.341
 2677TIP3    H229591   3.384   1.775   8.336
 2678TIP3   OH229592   5.948   6.251   0.992
 2678TIP3    H129593   5.867   6.201   0.979
 2678TIP3    H229594   5.919   6.334   1.029
 2679TIP3   OH229595   2.154   0.045   2.463
 2679TIP3    H129596   2.134   6.798   2.502
 2679TIP3    H229597   2.227   0.027   2.403
 2680TIP3   OH229598   4.878   2.951   8.353
 2680TIP3    H129599   4.855   2.983   8.441
 2680TIP3    H229600   4.885   3.031   8.300
 2681TIP3   OH229601   3.530   2.241   8.491
 2681TIP3    H129602   3.448   2.222   8.446
 2681TIP3    H229603   3.506   2.301   8.562
 2682TIP3   OH229604   3.142   0.684   0.828
 2682TIP3    H129605   3.149   0.625   0.903
 2682TIP3    H229606   3.216   0.744   0.837
 2683TIP3   OH229607   5.167   0.133   8.311
 2683TIP3    H129608   5.196   0.182   8.388
 2683TIP3    H229609   5.096   0.077   8.343
 2684TIP3   OH229610   4.388   4.053   2.136
 2684TIP3    H129611   4.321   4.086   2.196
 2684TIP3    H229612   4.427   3.979   2.182
 2685TIP3   OH229613   5.500   0.592   2.428
 2685TIP3    H129614   5.412   0.604   2.392
 2685TIP3    H229615   5.518   0.672   2.478
 2686TIP3   OH229616   4.798   1.678   1.927
 2686TIP3    H129617   4.746   1.684   1.847
 2686TIP3    H229618   4.883   1.644   1.897
 2687TIP3   OH229619   0.504   4.180   7.416
 2687TIP3    H129620   0.529   4.105   7.362
 2687TIP3    H229621   0.455   4.142   7.489
 2688TIP3   OH229622   0.434   4.058   0.409
 2688TIP3    H129623   0.444   4.071   0.315
 2688TIP3    H229624   0.503   4.111   0.448
 2689TIP3   OH229625   0.342   5.919   2.152
 2689TIP3    H129626   0.380   5.852   2.208
 2689TIP3    H229627   0.252   5.890   2.138
 2690TIP3   OH229628   3.468   6.123   2.089
 2690TIP3    H129629   3.453   6.198   2.147
 2690TIP3    H229630   3.537   6.073   2.133
 2691TIP3   OH229631   2.365   2.509   2.065
 2691TIP3    H129632   2.449   2.514   2.111
 2691TIP3    H229633   2.339   2.417   2.072
 2692TIP3   OH229634   1.737   4.476   6.891
 2692TIP3    H129635   1.787   4.528   6.954
 2692TIP3    H229636   1.762   4.386   6.910
 2693TIP3   OH229637   6.779   4.361   0.734
 2693TIP3    H129638   6.781   4.287   0.672
 2693TIP3    H229639   6.795   4.438   0.679
 2694TIP3   OH229640   4.249   6.637   0.532
 2694TIP3    H129641   4.256   6.543   0.551
 2694TIP3    H229642   4.159   6.659   0.558
 2695TIP3   OH229643   0.097   3.929   0.582
 2695TIP3    H129644   0.129   3.839   0.582
 2695TIP3    H229645   0.021   3.928   0.525
 2696TIP3   OH229646   2.307   3.531   0.429
 2696TIP3    H129647   2.335   3.620   0.452
 2696TIP3    H229648   2.219   3.524   0.467
 2697TIP3   OH229649   5.331   2.244   7.633
 2697TIP3    H129650   5.291   2.329   7.612
 2697TIP3    H229651   5.375   2.259   7.717
 2698TIP3   OH229652   1.377   4.078   6.320
 2698TIP3    H129653   1.425   4.151   6.360
 2698TIP3    H229654   1.438   4.004   6.326
 2699TIP3   OH229655   4.836   3.340   0.225
 2699TIP3    H129656   4.822   3.416   0.169
 2699TIP3    H229657   4.929   3.344   0.248
 2700TIP3   OH229658   1.369   5.722   1.451
 2700TIP3    H129659   1.395   5.814   1.443
 2700TIP3    H229660   1.391   5.684   1.366
 2701TIP3   OH229661   5.955   0.266   1.570
 2701TIP3    H129662   6.034   0.273   1.623
 2701TIP3    H229663   5.985   0.277   1.480
 2702TIP3   OH229664   5.041   1.541   0.407
 2702TIP3    H129665   4.984   1.488   0.350
 2702TIP3    H229666   5.039   1.495   0.491
 2703TIP3   OH229667   3.801   1.371   0.743
 2703TIP3    H129668   3.852   1.296   0.773
 2703TIP3    H229669   3.793   1.427   0.820
 2704TIP3   OH229670   2.502   6.220   0.120
 2704TIP3    H129671   2.454   6.212   0.038
 2704TIP3    H229672   2.451   6.169   0.183
 2705TIP3   OH229673   1.637   1.188   6.332
 2705TIP3    H129674   1.707   1.253   6.323
 2705TIP3    H229675   1.557   1.239   6.340
 2706TIP3   OH229676   5.178   6.292   8.001
 2706TIP3    H129677   5.107   6.343   7.962
 2706TIP3    H229678   5.208   6.345   8.075
 2707TIP3   OH229679   1.426   5.265   6.578
 2707TIP3    H129680   1.474   5.197   6.530
 2707TIP3    H229681   1.372   5.216   6.640
 2708TIP3   OH229682   1.143   5.140   0.056
 2708TIP3    H129683   1.113   5.228   0.081
 2708TIP3    H229684   1.172   5.150   8.748
 2709TIP3   OH229685   0.264   5.306   1.334
 2709TIP3    H129686   0.259   5.225   1.385
 2709TIP3    H229687   0.357   5.315   1.313
 2710TIP3   OH229688   4.949   1.755   8.639
 2710TIP3    H129689   4.882   1.695   8.605
 2710TIP3    H229690   4.996   1.703   8.704
 2711TIP3   OH229691   4.097   3.605   6.842
 2711TIP3    H129692   4.065   3.516   6.858
 2711TIP3    H229693   4.189   3.593   6.820
 2712TIP3   OH229694   1.784   3.134   2.284
 2712TIP3    H129695   1.829   3.202   2.234
 2712TIP3    H229696   1.700   3.122   2.239
 2713TIP3   OH229697   1.899   5.946   1.497
 2713TIP3    H129698   1.805   5.963   1.492
 2713TIP3    H229699   1.913   5.872   1.438
 2714TIP3   OH229700   1.929   4.657   8.022
 2714TIP3    H129701   1.959   4.651   7.932
 2714TIP3    H229702   1.992   4.717   8.064
 2715TIP3   OH229703   2.598   1.041   0.653
 2715TIP3    H129704   2.509   1.038   0.689
 2715TIP3    H229705   2.585   1.049   0.558
 2716TIP3   OH229706   1.270   2.176   0.594
 2716TIP3    H129707   1.221   2.154   0.673
 2716TIP3    H229708   1.276   2.093   0.546
 2717TIP3   OH229709   0.574   4.132   0.034
 2717TIP3    H129710   0.504   4.171   0.086
 2717TIP3    H229711   0.653   4.144   0.086
 2718TIP3   OH229712   4.512   6.497   0.618
 2718TIP3    H129713   4.595   6.484   0.572
 2718TIP3    H229714   4.529   6.569   0.679
 2719TIP3   OH229715   3.054   5.914   0.053
 2719TIP3    H129716   3.129   5.969   0.077
 2719TIP3    H229717   3.010   5.963   8.766
 2720TIP3   OH229718   6.625   1.003   1.138
 2720TIP3    H129719   6.659   1.059   1.208
 2720TIP3    H229720   6.597   1.064   1.069
 2721TIP3   OH229721   6.438   3.813   7.530
 2721TIP3    H129722   6.412   3.884   7.590
 2721TIP3    H229723   6.490   3.857   7.463
 2722TIP3   OH229724   6.089   5.108   0.648
 2722TIP3    H129725   6.170   5.061   0.666
 2722TIP3    H229726   6.034   5.094   0.726
 2723TIP3   OH229727   0.110   3.384   8.227
 2723TIP3    H129728   0.075   3.409   8.142
 2723TIP3    H229729   0.043   3.410   8.290
 2724TIP3   OH229730   2.291   1.845   6.683
 2724TIP3    H129731   2.259   1.768   6.730
 2724TIP3    H229732   2.212   1.884   6.646
 2725TIP3   OH229733   5.780   3.032   1.919
 2725TIP3    H129734   5.754   3.025   1.827
 2725TIP3    H229735   5.871   3.005   1.920
 2726TIP3   OH229736   6.438   3.490   6.774
 2726TIP3    H129737   6.390   3.425   6.722
 2726TIP3    H229738   6.438   3.569   6.720
 2727TIP3   OH229739   6.347   5.001   0.649
 2727TIP3    H129740   6.373   4.977   0.560
 2727TIP3    H229741   6.357   4.920   0.699
 2728TIP3   OH229742   4.993   4.728   8.648
 2728TIP3    H129743   5.012   4.706   8.739
 2728TIP3    H229744   4.935   4.804   8.653
 2729TIP3   OH229745   3.342   4.779   1.483
 2729TIP3    H129746   3.361   4.744   1.396
 2729TIP3    H229747   3.382   4.717   1.543
 2730TIP3   OH229748   0.762   0.677   6.247
 2730TIP3    H129749   0.689   0.616   6.244
 2730TIP3    H229750   0.830   0.631   6.297
 2731TIP3   OH229751   4.063   2.859   7.789
 2731TIP3    H129752   3.996   2.894   7.731
 2731TIP3    H229753   4.105   2.936   7.826
 2732TIP3   OH229754   4.522   6.830   1.202
 2732TIP3    H129755   4.445   0.016   1.254
 2732TIP3    H229756   4.540   0.069   1.149
 2733TIP3   OH229757   1.040   4.477   7.630
 2733TIP3    H129758   1.101   4.433   7.689
 2733TIP3    H229759   0.981   4.409   7.600
 2734TIP3   OH229760   1.323   0.843   7.307
 2734TIP3    H129761   1.297   0.870   7.219
 2734TIP3    H229762   1.411   0.879   7.319
 2735TIP3   OH229763   1.862   1.384   7.628
 2735TIP3    H129764   1.852   1.422   7.540
 2735TIP3    H229765   1.848   1.458   7.687
 2736TIP3   OH229766   3.078   2.853   2.571
 2736TIP3    H129767   3.119   2.897   2.645
 2736TIP3    H229768   3.008   2.800   2.609
 2737TIP3   OH229769   2.937   4.533   7.216
 2737TIP3    H129770   3.016   4.523   7.162
 2737TIP3    H229771   2.921   4.445   7.250
 2738TIP3   OH229772   2.891   6.389   7.769
 2738TIP3    H129773   2.898   6.483   7.781
 2738TIP3    H229774   2.852   6.378   7.682
 2739TIP3   OH229775   6.750   0.160   7.566
 2739TIP3    H129776   6.829   0.131   7.611
 2739TIP3    H229777   6.731   0.246   7.605
 2740TIP3   OH229778   3.562   1.796   8.699
 2740TIP3    H129779   3.476   1.826   8.725
 2740TIP3    H229780   3.582   1.845   8.619
 2741TIP3   OH229781   5.620   3.274   1.126
 2741TIP3    H129782   5.529   3.246   1.124
 2741TIP3    H229783   5.667   3.199   1.162
 2742TIP3   OH229784   5.343   3.420   1.342
 2742TIP3    H129785   5.429   3.460   1.332
 2742TIP3    H229786   5.319   3.393   1.253
 2743TIP3   OH229787   2.345   3.659   0.029
 2743TIP3    H129788   2.343   3.697   8.724
 2743TIP3    H229789   2.356   3.733   0.088
 2744TIP3   OH229790   6.590   6.607   7.049
 2744TIP3    H129791   6.507   6.594   7.004
 2744TIP3    H229792   6.609   6.700   7.038
 2745TIP3   OH229793   4.571   2.670   7.944
 2745TIP3    H129794   4.627   2.732   7.897
 2745TIP3    H229795   4.482   2.702   7.929
 2746TIP3   OH229796   6.617   3.412   7.766
 2746TIP3    H129797   6.601   3.409   7.671
 2746TIP3    H229798   6.590   3.500   7.792
 2747TIP3   OH229799   6.266   6.372   6.201
 2747TIP3    H129800   6.350   6.348   6.242
 2747TIP3    H229801   6.275   6.345   6.110
 2748TIP3   OH229802   0.852   2.643   1.052
 2748TIP3    H129803   0.847   2.735   1.024
 2748TIP3    H229804   0.943   2.618   1.035
 2749TIP3   OH229805   6.375   3.039   1.144
 2749TIP3    H129806   6.460   3.028   1.187
 2749TIP3    H229807   6.330   2.956   1.157
 2750TIP3   OH229808   6.837   1.800   7.006
 2750TIP3    H129809   6.754   1.752   6.997
 2750TIP3    H229810   6.821   1.883   6.962
 2751TIP3   OH229811   5.180   1.066   7.908
 2751TIP3    H129812   5.185   1.031   7.997
 2751TIP3    H229813   5.149   1.156   7.920
 2752TIP3   OH229814   2.614   4.983   6.907
 2752TIP3    H129815   2.651   5.017   6.825
 2752TIP3    H229816   2.613   5.058   6.966
 2753TIP3   OH229817   0.466   3.347   1.818
 2753TIP3    H129818   0.400   3.412   1.844
 2753TIP3    H229819   0.515   3.390   1.748
 2754TIP3   OH229820   2.962   1.283   1.914
 2754TIP3    H129821   2.994   1.356   1.968
 2754TIP3    H229822   2.960   1.208   1.974
 2755TIP3   OH229823   3.005   2.923   8.464
 2755TIP3    H129824   3.034   2.844   8.509
 2755TIP3    H229825   3.083   2.955   8.418
 2756TIP3   OH229826   0.515   5.064   8.476
 2756TIP3    H129827   0.595   5.074   8.527
 2756TIP3    H229828   0.509   4.970   8.459
 2757TIP3   OH229829   3.757   2.239   0.716
 2757TIP3    H129830   3.772   2.256   0.623
 2757TIP3    H229831   3.685   2.176   0.718
 2758TIP3   OH229832   4.047   1.556   0.767
 2758TIP3    H129833   3.960   1.593   0.783
 2758TIP3    H229834   4.094   1.624   0.718
 2759TIP3   OH229835   4.902   0.803   1.615
 2759TIP3    H129836   4.813   0.797   1.648
 2759TIP3    H229837   4.957   0.773   1.688
 2760TIP3   OH229838   0.956   1.372   6.511
 2760TIP3    H129839   0.899   1.448   6.504
 2760TIP3    H229840   0.916   1.306   6.454
 2761TIP3   OH229841   0.440   3.083   0.060
 2761TIP3    H129842   0.459   3.006   0.005
 2761TIP3    H229843   0.351   3.108   0.036
 2762TIP3   OH229844   4.481   5.717   0.791
 2762TIP3    H129845   4.434   5.769   0.856
 2762TIP3    H229846   4.420   5.710   0.718
 2763TIP3   OH229847   2.186   2.224   7.866
 2763TIP3    H129848   2.163   2.160   7.933
 2763TIP3    H229849   2.114   2.287   7.867
 2764TIP3   OH229850   4.168   3.076   7.917
 2764TIP3    H129851   4.195   3.161   7.952
 2764TIP3    H229852   4.230   3.013   7.954
 2765TIP3   OH229853   4.643   4.100   8.604
 2765TIP3    H129854   4.641   4.007   8.626
 2765TIP3    H229855   4.593   4.106   8.522
 2766TIP3   OH229856   5.567   4.654   1.647
 2766TIP3    H129857   5.611   4.581   1.690
 2766TIP3    H229858   5.531   4.616   1.566
 2767TIP3   OH229859   4.692   0.827   0.017
 2767TIP3    H129860   4.707   0.732   0.011
 2767TIP3    H229861   4.734   0.863   8.722
 2768TIP3   OH229862   1.337   5.030   2.046
 2768TIP3    H129863   1.407   5.032   1.981
 2768TIP3    H229864   1.271   4.971   2.009
 2769TIP3   OH229865   5.074   6.068   0.232
 2769TIP3    H129866   5.021   6.121   0.172
 2769TIP3    H229867   5.136   6.022   0.175
 2770TIP3   OH229868   5.282   6.070   0.953
 2770TIP3    H129869   5.250   6.159   0.940
 2770TIP3    H229870   5.205   6.014   0.943
 2771TIP3   OH229871   4.098   1.103   1.621
 2771TIP3    H129872   4.063   1.179   1.667
 2771TIP3    H229873   4.138   1.049   1.689
 2772TIP3   OH229874   4.569   3.778   7.579
 2772TIP3    H129875   4.574   3.706   7.517
 2772TIP3    H229876   4.555   3.736   7.664
 2773TIP3   OH229877   1.996   5.723   8.514
 2773TIP3    H129878   1.974   5.678   8.596
 2773TIP3    H229879   1.986   5.816   8.535
 2774TIP3   OH229880   6.392   4.930   7.768
 2774TIP3    H129881   6.449   4.871   7.817
 2774TIP3    H229882   6.350   4.874   7.704
 2775TIP3   OH229883   1.535   4.457   7.179
 2775TIP3    H129884   1.548   4.549   7.199
 2775TIP3    H229885   1.583   4.410   7.247
 2776TIP3   OH229886   3.006   2.824   0.284
 2776TIP3    H129887   2.924   2.873   0.281
 2776TIP3    H229888   2.982   2.736   0.256
 2777TIP3   OH229889   4.289   0.109   8.453
 2777TIP3    H129890   4.275   0.202   8.440
 2777TIP3    H229891   4.245   0.088   8.535
 2778TIP3   OH229892   2.285   3.872   1.981
 2778TIP3    H129893   2.315   3.848   2.069
 2778TIP3    H229894   2.256   3.790   1.942
 2779TIP3   OH229895   0.828   1.237   1.141
 2779TIP3    H129896   0.913   1.206   1.110
 2779TIP3    H229897   0.789   1.281   1.065
 2780TIP3   OH229898   5.274   1.142   7.659
 2780TIP3    H129899   5.227   1.122   7.578
 2780TIP3    H229900   5.224   1.099   7.727
 2781TIP3   OH229901   2.944   2.472   1.790
 2781TIP3    H129902   2.870   2.502   1.737
 2781TIP3    H229903   2.998   2.550   1.802
 2782TIP3   OH229904   4.462   4.112   1.380
 2782TIP3    H129905   4.464   4.098   1.285
 2782TIP3    H229906   4.455   4.024   1.416
 2783TIP3   OH229907   2.078   1.531   8.225
 2783TIP3    H129908   2.106   1.469   8.158
 2783TIP3    H229909   1.993   1.562   8.194
 2784TIP3   OH229910   0.748   1.265   8.169
 2784TIP3    H129911   0.844   1.263   8.169
 2784TIP3    H229912   0.725   1.326   8.098
 2785TIP3   OH229913   2.422   0.755   2.796
 2785TIP3    H129914   2.384   0.669   2.780
 2785TIP3    H229915   2.513   0.747   2.768
 2786TIP3   OH229916   0.759   3.568   0.915
 2786TIP3    H129917   0.765   3.568   1.011
 2786TIP3    H229918   0.701   3.641   0.894
 2787TIP3   OH229919   6.155   2.374   7.125
 2787TIP3    H129920   6.222   2.306   7.121
 2787TIP3    H229921   6.075   2.331   7.096
 2788TIP3   OH229922   2.832   5.800   7.684
 2788TIP3    H129923   2.857   5.742   7.756
 2788TIP3    H229924   2.748   5.837   7.711
 2789TIP3   OH229925   4.774   3.770   6.847
 2789TIP3    H129926   4.824   3.809   6.774
 2789TIP3    H229927   4.700   3.727   6.805
 2790TIP3   OH229928   5.432   5.631   7.809
 2790TIP3    H129929   5.379   5.703   7.843
 2790TIP3    H229930   5.465   5.587   7.888
 2791TIP3   OH229931   6.686   5.282   0.448
 2791TIP3    H129932   6.610   5.225   0.439
 2791TIP3    H229933   6.759   5.223   0.465
 2792TIP3   OH229934   2.672   1.568   8.569
 2792TIP3    H129935   2.648   1.611   8.651
 2792TIP3    H229936   2.602   1.590   8.508
 2793TIP3   OH229937   4.409   1.083   7.318
 2793TIP3    H129938   4.421   1.023   7.244
 2793TIP3    H229939   4.399   1.026   7.394
 2794TIP3   OH229940   4.056   1.775   6.791
 2794TIP3    H129941   4.134   1.722   6.776
 2794TIP3    H229942   4.082   1.863   6.764
 2795TIP3   OH229943   4.457   3.520   7.137
 2795TIP3    H129944   4.470   3.603   7.092
 2795TIP3    H229945   4.529   3.465   7.106
 2796TIP3   OH229946   3.310   1.522   8.708
 2796TIP3    H129947   3.231   1.563   8.742
 2796TIP3    H229948   3.284   1.483   8.625
 2797TIP3   OH229949   0.201   4.389   1.827
 2797TIP3    H129950   0.108   4.402   1.841
 2797TIP3    H229951   0.218   4.421   1.739
 2798TIP3   OH229952   2.383   6.310   0.491
 2798TIP3    H129953   2.353   6.279   0.405
 2798TIP3    H229954   2.305   6.351   0.529
 2799TIP3   OH229955   2.914   4.065   8.220
 2799TIP3    H129956   2.930   4.155   8.247
 2799TIP3    H229957   2.839   4.070   8.161
 2800TIP3   OH229958   2.514   1.539   1.514
 2800TIP3    H129959   2.607   1.559   1.503
 2800TIP3    H229960   2.473   1.624   1.532
 2801TIP3   OH229961   3.728   4.600   8.285
 2801TIP3    H129962   3.812   4.645   8.285
 2801TIP3    H229963   3.674   4.652   8.345
 2802TIP3   OH229964   6.672   3.603   0.263
 2802TIP3    H129965   6.581   3.590   0.235
 2802TIP3    H229966   6.673   3.574   0.354
 2803TIP3   OH229967   1.222   0.291   1.051
 2803TIP3    H129968   1.205   0.256   0.963
 2803TIP3    H229969   1.238   0.213   1.104
 2804TIP3   OH229970   3.091   4.091   7.447
 2804TIP3    H129971   3.054   4.123   7.529
 2804TIP3    H229972   3.024   4.112   7.381
 2805TIP3   OH229973   3.210   2.640   8.189
 2805TIP3    H129974   3.177   2.550   8.193
 2805TIP3    H229975   3.138   2.690   8.152
 2806TIP3   OH229976   6.294   6.295   7.046
 2806TIP3    H129977   6.382   6.294   7.083
 2806TIP3    H229978   6.239   6.252   7.112
 2807TIP3   OH229979   1.207   0.041   6.772
 2807TIP3    H129980   1.205   6.827   6.692
 2807TIP3    H229981   1.283   0.008   6.820
 2808TIP3   OH229982   5.959   0.031   7.644
 2808TIP3    H129983   6.037   0.086   7.639
 2808TIP3    H229984   5.976   6.811   7.718
 2809TIP3   OH229985   2.916   4.144   1.544
 2809TIP3    H129986   2.922   4.086   1.467
 2809TIP3    H229987   2.886   4.087   1.614
 2810TIP3   OH229988   0.686   2.334   0.690
 2810TIP3    H129989   0.683   2.293   0.603
 2810TIP3    H229990   0.775   2.320   0.720
 2811TIP3   OH229991   6.816   1.961   8.640
 2811TIP3    H129992   0.072   1.959   8.659
 2811TIP3    H229993   6.811   1.951   8.545
 2812TIP3   OH229994   5.777   6.560   7.256
 2812TIP3    H129995   5.756   6.493   7.322
 2812TIP3    H229996   5.806   6.510   7.180
 2813TIP3   OH229997   2.483   6.656   0.518
 2813TIP3    H129998   2.452   6.745   0.502
 2813TIP3    H229999   2.417   6.600   0.477
 2814TIP3   OH230000   0.082   1.859   2.333
 2814TIP3    H130001   0.052   1.943   2.368
 2814TIP3    H230002   0.075   1.868   2.238
 2815TIP3   OH230003   3.891   4.526   1.422
 2815TIP3    H130004   3.932   4.456   1.372
 2815TIP3    H230005   3.933   4.522   1.508
 2816TIP3   OH230006   5.690   2.126   8.121
 2816TIP3    H130007   5.596   2.137   8.108
 2816TIP3    H230008   5.728   2.210   8.098
 2817TIP3   OH230009   0.994   2.537   8.636
 2817TIP3    H130010   0.932   2.479   8.680
 2817TIP3    H230011   1.076   2.487   8.632
 2818TIP3   OH230012   4.496   1.618   0.129
 2818TIP3    H130013   4.480   1.665   0.048
 2818TIP3    H230014   4.425   1.553   0.133
 2819TIP3   OH230015   3.639   5.766   2.402
 2819TIP3    H130016   3.644   5.822   2.324
 2819TIP3    H230017   3.721   5.717   2.402
 2820TIP3   OH230018   4.379   2.969   1.474
 2820TIP3    H130019   4.337   2.974   1.559
 2820TIP3    H230020   4.370   2.878   1.447
 2821TIP3   OH230021   3.052   3.896   6.835
 2821TIP3    H130022   3.099   3.814   6.821
 2821TIP3    H230023   3.034   3.898   6.929
 2822TIP3   OH230024   2.823   0.975   7.435
 2822TIP3    H130025   2.889   0.922   7.478
 2822TIP3    H230026   2.817   1.054   7.488
 2823TIP3   OH230027   0.608   2.393   8.419
 2823TIP3    H130028   0.533   2.397   8.479
 2823TIP3    H230029   0.646   2.306   8.434
 2824TIP3   OH230030   6.191   2.771   8.392
 2824TIP3    H130031   6.271   2.822   8.404
 2824TIP3    H230032   6.220   2.689   8.352
 2825TIP3   OH230033   2.101   2.746   8.022
 2825TIP3    H130034   2.145   2.671   8.062
 2825TIP3    H230035   2.017   2.752   8.068
 2826TIP3   OH230036   1.149   6.151   1.307
 2826TIP3    H130037   1.121   6.094   1.236
 2826TIP3    H230038   1.072   6.162   1.362
 2827TIP3   OH230039   1.999   2.489   7.171
 2827TIP3    H130040   2.007   2.552   7.099
 2827TIP3    H230041   2.040   2.409   7.137
 2828TIP3   OH230042   2.352   0.417   0.887
 2828TIP3    H130043   2.415   0.438   0.817
 2828TIP3    H230044   2.267   0.416   0.843
 2829TIP3   OH230045   6.158   2.361   7.764
 2829TIP3    H130046   6.128   2.444   7.728
 2829TIP3    H230047   6.197   2.315   7.690
 2830TIP3   OH230048   1.197   6.633   1.223
 2830TIP3    H130049   1.154   6.677   1.150
 2830TIP3    H230050   1.247   6.562   1.182
 2831TIP3   OH230051   3.474   1.127   7.766
 2831TIP3    H130052   3.440   1.137   7.855
 2831TIP3    H230053   3.430   1.194   7.715
 2832TIP3   OH230054   2.971   4.961   7.274
 2832TIP3    H130055   2.906   4.903   7.313
 2832TIP3    H230056   2.968   5.040   7.327
 2833TIP3   OH230057   6.521   6.440   7.851
 2833TIP3    H130058   6.536   6.516   7.907
 2833TIP3    H230059   6.526   6.474   7.762
 2834TIP3   OH230060   0.016   1.323   1.244
 2834TIP3    H130061   0.067   1.280   1.175
 2834TIP3    H230062   6.764   1.314   1.217
 2835TIP3   OH230063   2.427   3.254   8.765
 2835TIP3    H130064   2.397   3.331   0.031
 2835TIP3    H230065   2.473   3.290   8.689
 2836TIP3   OH230066   0.638   0.142   1.832
 2836TIP3    H130067   0.601   0.220   1.791
 2836TIP3    H230068   0.652   0.081   1.760
 2837TIP3   OH230069   0.708   3.694   0.402
 2837TIP3    H130070   0.621   3.706   0.440
 2837TIP3    H230071   0.705   3.607   0.364
 2838TIP3   OH230072   1.555   1.409   8.339
 2838TIP3    H130073   1.566   1.315   8.331
 2838TIP3    H230074   1.641   1.442   8.365
 2839TIP3   OH230075   0.148   3.526   8.572
 2839TIP3    H130076   0.069   3.527   8.518
 2839TIP3    H230077   0.120   3.486   8.654
 2840TIP3   OH230078   0.736   1.422   1.672
 2840TIP3    H130079   0.713   1.481   1.600
 2840TIP3    H230080   0.707   1.336   1.641
 2841TIP3   OH230081   1.914   3.680   8.765
 2841TIP3    H130082   1.967   3.759   8.762
 2841TIP3    H230083   1.977   3.609   8.752
 2842TIP3   OH230084   6.483   1.542   7.968
 2842TIP3    H130085   6.479   1.450   7.941
 2842TIP3    H230086   6.457   1.591   7.890
 2843TIP3   OH230087   4.491   2.265   7.727
 2843TIP3    H130088   4.468   2.173   7.712
 2843TIP3    H230089   4.427   2.314   7.674
 2844TIP3   OH230090   6.298   2.162   0.413
 2844TIP3    H130091   6.213   2.129   0.381
 2844TIP3    H230092   6.299   2.254   0.386
 2845TIP3   OH230093   4.462   6.824   0.478
 2845TIP3    H130094   4.541   6.823   0.532
 2845TIP3    H230095   4.414   6.746   0.505
 2846TIP3   OH230096   0.714   1.981   2.139
 2846TIP3    H130097   0.711   1.886   2.124
 2846TIP3    H230098   0.684   1.992   2.229
 2847TIP3   OH230099   0.212   6.684   1.033
 2847TIP3    H130100   0.223   6.747   1.105
 2847TIP3    H230101   0.128   6.643   1.050
 2848TIP3   OH230102   0.984   4.750   7.639
 2848TIP3    H130103   0.996   4.662   7.676
 2848TIP3    H230104   1.022   4.744   7.551
 2849TIP3   OH230105   1.969   4.027   1.426
 2849TIP3    H130106   2.053   4.050   1.465
 2849TIP3    H230107   1.932   4.110   1.397
 2850TIP3   OH230108   4.499   1.986   8.190
 2850TIP3    H130109   4.531   2.076   8.188
 2850TIP3    H230110   4.571   1.934   8.155
 2851TIP3   OH230111   1.825   2.831   8.081
 2851TIP3    H130112   1.814   2.737   8.093
 2851TIP3    H230113   1.817   2.845   7.987
 2852TIP3   OH230114   6.748   2.745   0.938
 2852TIP3    H130115   6.687   2.727   1.010
 2852TIP3    H230116   6.816   2.800   0.978
 2853TIP3   OH230117   1.070   4.511   8.203
 2853TIP3    H130118   0.990   4.557   8.230
 2853TIP3    H230119   1.047   4.418   8.212
 2854TIP3   OH230120   5.730   4.216   8.395
 2854TIP3    H130121   5.640   4.232   8.366
 2854TIP3    H230122   5.759   4.142   8.342
 2855TIP3   OH230123   4.259   3.559   8.252
 2855TIP3    H130124   4.334   3.598   8.207
 2855TIP3    H230125   4.250   3.472   8.214
 2856TIP3   OH230126   0.782   1.705   0.404
 2856TIP3    H130127   0.766   1.611   0.405
 2856TIP3    H230128   0.832   1.721   0.484
 2857TIP3   OH230129   4.432   5.812   0.073
 2857TIP3    H130130   4.406   5.798   0.165
 2857TIP3    H230131   4.383   5.745   0.025
 2858TIP3   OH230132   2.235   6.382   0.253
 2858TIP3    H130133   2.169   6.449   0.271
 2858TIP3    H230134   2.310   6.432   0.220
 2859TIP3   OH230135   1.046   0.370   0.324
 2859TIP3    H130136   1.009   0.458   0.322
 2859TIP3    H230137   0.979   0.315   0.284
 2860TIP3   OH230138   0.696   4.264   8.175
 2860TIP3    H130139   0.725   4.184   8.133
 2860TIP3    H230140   0.712   4.250   8.268
 2861TIP3   OH230141   4.508   3.107   0.214
 2861TIP3    H130142   4.487   3.163   0.289
 2861TIP3    H230143   4.440   3.128   0.150
 2862TIP3   OH230144   3.913   3.227   8.632
 2862TIP3    H130145   3.999   3.239   8.592
 2862TIP3    H230146   3.861   3.300   8.600
 2863TIP3   OH230147   5.638   0.235   7.143
 2863TIP3    H130148   5.555   0.195   7.169
 2863TIP3    H230149   5.637   0.322   7.183
 2864TIP3   OH230150   2.873   0.141   1.951
 2864TIP3    H130151   2.931   0.066   1.938
 2864TIP3    H230152   2.790   0.102   1.978
 2865TIP3   OH230153   4.885   2.063   8.068
 2865TIP3    H130154   4.800   2.047   8.027
 2865TIP3    H230155   4.885   2.007   8.146
 2866TIP3   OH230156   5.549   5.743   1.396
 2866TIP3    H130157   5.458   5.715   1.390
 2866TIP3    H230158   5.548   5.816   1.458
 2867TIP3   OH230159   1.282   5.065   6.690
 2867TIP3    H130160   1.306   4.995   6.750
 2867TIP3    H230161   1.255   5.021   6.610
 2868TIP3   OH230162   4.904   2.214   1.271
 2868TIP3    H130163   4.811   2.193   1.281
 2868TIP3    H230164   4.925   2.266   1.348
 2869TIP3   OH230165   1.680   1.742   7.362
 2869TIP3    H130166   1.666   1.833   7.388
 2869TIP3    H230167   1.742   1.747   7.289
 2870TIP3   OH230168   6.571   0.430   8.178
 2870TIP3    H130169   6.654   0.432   8.130
 2870TIP3    H230170   6.512   0.485   8.127
 2871TIP3   OH230171   1.300   5.487   0.662
 2871TIP3    H130172   1.328   5.552   0.598
 2871TIP3    H230173   1.373   5.425   0.666
 2872TIP3   OH230174   2.267   5.601   8.636
 2872TIP3    H130175   2.219   5.650   8.570
 2872TIP3    H230176   2.352   5.582   8.596
 2873TIP3   OH230177   0.713   3.410   0.650
 2873TIP3    H130178   0.628   3.448   0.631
 2873TIP3    H230179   0.732   3.438   0.740
 2874TIP3   OH230180   3.244   2.478   8.600
 2874TIP3    H130181   3.287   2.495   8.684
 2874TIP3    H230182   3.281   2.545   8.541
 2875TIP3   OH230183   4.031   6.783   1.314
 2875TIP3    H130184   4.014   6.711   1.374
 2875TIP3    H230185   3.987   6.757   1.233
 2876TIP3   OH230186   5.054   5.225   0.930
 2876TIP3    H130187   5.061   5.234   0.835
 2876TIP3    H230188   4.991   5.292   0.955
 2877TIP3   OH230189   2.145   0.867   0.150
 2877TIP3    H130190   2.229   0.911   0.138
 2877TIP3    H230191   2.110   0.904   0.231
 2878TIP3   OH230192   5.285   2.254   8.637
 2878TIP3    H130193   5.323   2.228   8.553
 2878TIP3    H230194   5.336   2.205   8.702
 2879TIP3   OH230195   6.241   3.999   7.038
 2879TIP3    H130196   6.213   4.078   7.082
 2879TIP3    H230197   6.161   3.950   7.022
 2880TIP3   OH230198   0.347   5.250   6.930
 2880TIP3    H130199   0.403   5.323   6.957
 2880TIP3    H230200   0.346   5.255   6.834
 2881TIP3   OH230201   3.740   5.980   6.623
 2881TIP3    H130202   3.689   5.925   6.564
 2881TIP3    H230203   3.708   6.069   6.607
 2882TIP3   OH230204   0.326   5.003   1.162
 2882TIP3    H130205   0.231   4.998   1.149
 2882TIP3    H230206   0.337   5.075   1.225
 2883TIP3   OH230207   2.627   4.845   0.276
 2883TIP3    H130208   2.597   4.854   0.185
 2883TIP3    H230209   2.621   4.933   0.312
 2884TIP3   OH230210   2.870   4.645   7.759
 2884TIP3    H130211   2.860   4.682   7.847
 2884TIP3    H230212   2.964   4.632   7.750
 2885TIP3   OH230213   6.760   2.079   2.373
 2885TIP3    H130214   6.679   2.101   2.326
 2885TIP3    H230215   6.816   2.155   2.360
 2886TIP3   OH230216   6.459   5.692   8.235
 2886TIP3    H130217   6.365   5.690   8.219
 2886TIP3    H230218   6.473   5.774   8.283
 2887TIP3   OH230219   3.939   2.946   2.828
 2887TIP3    H130220   3.985   3.006   2.769
 2887TIP3    H230221   3.932   2.864   2.779
 2888TIP3   OH230222   3.305   5.126   7.740
 2888TIP3    H130223   3.235   5.066   7.716
 2888TIP3    H230224   3.263   5.193   7.794
 2889TIP3   OH230225   3.694   3.128   2.262
 2889TIP3    H130226   3.670   3.036   2.261
 2889TIP3    H230227   3.766   3.134   2.199
 2890TIP3   OH230228   6.267   1.947   6.486
 2890TIP3    H130229   6.340   1.916   6.432
 2890TIP3    H230230   6.286   1.913   6.573
 2891TIP3   OH230231   3.757   2.502   7.306
 2891TIP3    H130232   3.664   2.518   7.320
 2891TIP3    H230233   3.786   2.577   7.254
 2892TIP3   OH230234   1.724   3.463   0.012
 2892TIP3    H130235   1.788   3.529   0.039
 2892TIP3    H230236   1.738   3.451   8.701
 2893TIP3   OH230237   0.139   6.261   1.161
 2893TIP3    H130238   0.230   6.273   1.132
 2893TIP3    H230239   0.112   6.178   1.121
 2894TIP3   OH230240   1.246   3.116   7.683
 2894TIP3    H130241   1.262   3.173   7.759
 2894TIP3    H230242   1.287   3.033   7.707
 2895TIP3   OH230243   6.192   4.383   7.752
 2895TIP3    H130244   6.205   4.301   7.705
 2895TIP3    H230245   6.124   4.429   7.703
 2896TIP3   OH230246   3.489   3.291   2.182
 2896TIP3    H130247   3.531   3.364   2.228
 2896TIP3    H230248   3.548   3.216   2.196
 2897TIP3   OH230249   4.404   2.115   0.105
 2897TIP3    H130250   4.437   2.122   0.194
 2897TIP3    H230251   4.457   2.176   0.054
 2898TIP3   OH230252   5.466   6.033   7.113
 2898TIP3    H130253   5.434   5.961   7.059
 2898TIP3    H230254   5.402   6.041   7.183
 2899TIP3   OH230255   0.872   3.009   1.441
 2899TIP3    H130256   0.781   2.981   1.430
 2899TIP3    H230257   0.892   2.991   1.533
 2900TIP3   OH230258   0.527   0.200   7.934
 2900TIP3    H130259   0.478   0.249   8.000
 2900TIP3    H230260   0.618   0.204   7.963
 2901TIP3   OH230261   4.461   1.436   0.869
 2901TIP3    H130262   4.428   1.411   0.955
 2901TIP3    H230263   4.483   1.353   0.827
 2902TIP3   OH230264   3.580   2.402   1.423
 2902TIP3    H130265   3.548   2.405   1.513
 2902TIP3    H230266   3.664   2.448   1.427
 2903TIP3   OH230267   5.932   2.786   8.048
 2903TIP3    H130268   5.979   2.721   8.101
 2903TIP3    H230269   5.867   2.734   8.000
 2904TIP3   OH230270   5.342   6.521   2.460
 2904TIP3    H130271   5.254   6.559   2.457
 2904TIP3    H230272   5.386   6.566   2.532
 2905TIP3   OH230273   2.034   0.251   1.966
 2905TIP3    H130274   1.987   0.184   2.014
 2905TIP3    H230275   2.079   0.302   2.033
 2906TIP3   OH230276   6.609   4.047   1.230
 2906TIP3    H130277   6.662   4.033   1.152
 2906TIP3    H230278   6.657   4.115   1.279
 2907TIP3   OH230279   3.147   1.008   7.796
 2907TIP3    H130280   3.111   1.042   7.878
 2907TIP3    H230281   3.186   1.084   7.754
 2908TIP3   OH230282   6.776   1.332   7.272
 2908TIP3    H130283   6.720   1.325   7.194
 2908TIP3    H230284   6.749   1.414   7.313
 2909TIP3   OH230285   1.670   0.745   0.984
 2909TIP3    H130286   1.623   0.823   1.014
 2909TIP3    H230287   1.736   0.729   1.051
 2910TIP3   OH230288   2.854   2.777   7.403
 2910TIP3    H130289   2.836   2.770   7.309
 2910TIP3    H230290   2.949   2.777   7.409
 2911TIP3   OH230291   6.368   1.249   1.298
 2911TIP3    H130292   6.277   1.277   1.311
 2911TIP3    H230293   6.361   1.155   1.281
 2912TIP3   OH230294   4.021   0.634   0.047
 2912TIP3    H130295   3.998   0.724   0.028
 2912TIP3    H230296   4.104   0.640   0.094
 2913TIP3   OH230297   6.577   5.939   0.316
 2913TIP3    H130298   6.581   5.852   0.276
 2913TIP3    H230299   6.546   5.923   0.405
 2914TIP3   OH230300   4.632   1.804   0.978
 2914TIP3    H130301   4.586   1.751   0.912
 2914TIP3    H230302   4.724   1.799   0.953
 2915TIP3   OH230303   5.170   1.186   7.198
 2915TIP3    H130304   5.223   1.133   7.138
 2915TIP3    H230305   5.186   1.276   7.171
 2916TIP3   OH230306   3.440   0.838   7.781
 2916TIP3    H130307   3.411   0.929   7.772
 2916TIP3    H230308   3.433   0.819   7.874
 2917TIP3   OH230309   5.999   2.632   0.772
 2917TIP3    H130310   6.081   2.598   0.735
 2917TIP3    H230311   5.933   2.569   0.744
 2918TIP3   OH230312   1.003   0.933   0.347
 2918TIP3    H130313   0.936   0.947   0.280
 2918TIP3    H230314   0.958   0.948   0.430
 2919TIP3   OH230315   0.916   1.605   8.041
 2919TIP3    H130316   0.931   1.698   8.025
 2919TIP3    H230317   0.905   1.598   8.136
 2920TIP3   OH230318   0.586   2.481   8.139
 2920TIP3    H130319   0.671   2.440   8.153
 2920TIP3    H230320   0.559   2.511   8.226
 2921TIP3   OH230321   3.175   4.968   0.383
 2921TIP3    H130322   3.179   5.023   0.304
 2921TIP3    H230323   3.189   4.879   0.351
 2922TIP3   OH230324   3.499   0.311   0.340
 2922TIP3    H130325   3.440   0.340   0.271
 2922TIP3    H230326   3.548   0.389   0.365
 2923TIP3   OH230327   3.191   1.509   7.236
 2923TIP3    H130328   3.225   1.591   7.201
 2923TIP3    H230329   3.263   1.446   7.224
 2924TIP3   OH230330   6.123   6.542   7.104
 2924TIP3    H130331   6.195   6.573   7.049
 2924TIP3    H230332   6.129   6.594   7.184
 2925TIP3   OH230333   5.994   1.473   1.903
 2925TIP3    H130334   5.999   1.489   1.998
 2925TIP3    H230335   5.964   1.557   1.867
 2926TIP3   OH230336   4.300   3.111   0.004
 2926TIP3    H130337   4.267   3.073   8.706
 2926TIP3    H230338   4.265   3.055   0.074
 2927TIP3   OH230339   1.617   3.537   7.204
 2927TIP3    H130340   1.592   3.615   7.155
 2927TIP3    H230341   1.549   3.473   7.185
 2928TIP3   OH230342   2.263   2.015   1.481
 2928TIP3    H130343   2.169   2.003   1.466
 2928TIP3    H230344   2.291   1.933   1.522
 2929TIP3   OH230345   4.902   2.636   2.096
 2929TIP3    H130346   4.942   2.608   2.178
 2929TIP3    H230347   4.808   2.621   2.109
 2930TIP3   OH230348   1.333   4.887   7.655
 2930TIP3    H130349   1.279   4.965   7.657
 2930TIP3    H230350   1.282   4.824   7.604
 2931TIP3   OH230351   3.704   2.475   0.871
 2931TIP3    H130352   3.665   2.426   0.944
 2931TIP3    H230353   3.728   2.408   0.808
 2932TIP3   OH230354   3.462   2.408   1.714
 2932TIP3    H130355   3.523   2.347   1.754
 2932TIP3    H230356   3.376   2.369   1.730
 2933TIP3   OH230357   2.113   0.355   0.759
 2933TIP3    H130358   2.104   0.262   0.776
 2933TIP3    H230359   2.049   0.373   0.690
 2934TIP3   OH230360   6.451   4.782   7.258
 2934TIP3    H130361   6.479   4.707   7.206
 2934TIP3    H230362   6.382   4.823   7.206
 2935TIP3   OH230363   2.440   1.472   7.447
 2935TIP3    H130364   2.456   1.399   7.507
 2935TIP3    H230365   2.490   1.450   7.369
 2936TIP3   OH230366   2.340   1.927   1.950
 2936TIP3    H130367   2.346   1.946   2.043
 2936TIP3    H230368   2.364   2.010   1.907
 2937TIP3   OH230369   3.713   1.687   7.493
 2937TIP3    H130370   3.774   1.760   7.484
 2937TIP3    H230371   3.708   1.650   7.405
 2938TIP3   OH230372   4.832   2.529   7.521
 2938TIP3    H130373   4.801   2.487   7.602
 2938TIP3    H230374   4.761   2.516   7.458
 2939TIP3   OH230375   3.584   1.518   2.470
 2939TIP3    H130376   3.597   1.584   2.538
 2939TIP3    H230377   3.659   1.529   2.412
 2940TIP3   OH230378   6.582   0.778   1.500
 2940TIP3    H130379   6.488   0.780   1.478
 2940TIP3    H230380   6.626   0.796   1.417
 2941TIP3   OH230381   1.473   5.993   7.523
 2941TIP3    H130382   1.516   6.022   7.604
 2941TIP3    H230383   1.413   5.924   7.552
 2942TIP3   OH230384   3.030   2.364   7.561
 2942TIP3    H130385   3.064   2.385   7.474
 2942TIP3    H230386   3.080   2.287   7.588
 2943TIP3   OH230387   6.012   6.301   7.872
 2943TIP3    H130388   6.108   6.300   7.868
 2943TIP3    H230389   5.991   6.313   7.964
 2944TIP3   OH230390   3.005   1.553   1.711
 2944TIP3    H130391   2.919   1.553   1.669
 2944TIP3    H230392   3.034   1.461   1.707
 2945TIP3   OH230393   1.351   5.973   1.497
 2945TIP3    H130394   1.344   5.994   1.590
 2945TIP3    H230395   1.296   6.038   1.453
 2946TIP3   OH230396   3.326   5.328   6.396
 2946TIP3    H130397   3.264   5.384   6.442
 2946TIP3    H230398   3.287   5.317   6.309
 2947TIP3   OH230399   0.671   2.753   1.275
 2947TIP3    H130400   0.714   2.754   1.189
 2947TIP3    H230401   0.727   2.696   1.329
 2948TIP3   OH230402   5.919   3.540   0.084
 2948TIP3    H130403   5.946   3.491   0.162
 2948TIP3    H230404   5.836   3.498   0.058
 2949TIP3   OH230405   6.523   6.567   2.263
 2949TIP3    H130406   6.510   6.619   2.183
 2949TIP3    H230407   6.533   6.633   2.332
 2950TIP3   OH230408   5.157   5.044   0.360
 2950TIP3    H130409   5.212   4.977   0.319
 2950TIP3    H230410   5.069   5.025   0.329
 2951TIP3   OH230411   1.524   1.785   0.634
 2951TIP3    H130412   1.546   1.869   0.593
 2951TIP3    H230413   1.470   1.809   0.710
 2952TIP3   OH230414   5.700   1.449   7.884
 2952TIP3    H130415   5.662   1.505   7.816
 2952TIP3    H230416   5.791   1.437   7.857
 2953TIP3   OH230417   4.017   2.985   2.566
 2953TIP3    H130418   4.051   2.974   2.478
 2953TIP3    H230419   3.970   2.904   2.585
 2954TIP3   OH230420   6.431   5.572   7.833
 2954TIP3    H130421   6.419   5.664   7.811
 2954TIP3    H230422   6.457   5.530   7.750
 2955TIP3   OH230423   5.955   5.657   7.973
 2955TIP3    H130424   6.013   5.581   7.981
 2955TIP3    H230425   5.984   5.701   7.893
 2956TIP3   OH230426   3.859   6.437   0.484
 2956TIP3    H130427   3.774   6.408   0.452
 2956TIP3    H230428   3.859   6.413   0.577
 2957TIP3   OH230429   4.804   3.777   8.143
 2957TIP3    H130430   4.892   3.740   8.133
 2957TIP3    H230431   4.791   3.828   8.063
 2958TIP3   OH230432   5.856   0.158   7.278
 2958TIP3    H130433   5.840   0.205   7.360
 2958TIP3    H230434   5.787   0.189   7.219
 2959TIP3   OH230435   2.460   1.920   0.624
 2959TIP3    H130436   2.437   1.849   0.684
 2959TIP3    H230437   2.541   1.892   0.583
 2960TIP3   OH230438   5.193   1.775   1.018
 2960TIP3    H130439   5.123   1.837   1.035
 2960TIP3    H230440   5.243   1.771   1.100
 2961TIP3   OH230441   1.405   0.164   7.989
 2961TIP3    H130442   1.352   0.087   7.969
 2961TIP3    H230443   1.421   0.205   7.904
 2962TIP3   OH230444   2.744   0.837   6.380
 2962TIP3    H130445   2.814   0.884   6.425
 2962TIP3    H230446   2.772   0.833   6.289
 2963TIP3   OH230447   3.816   3.981   1.952
 2963TIP3    H130448   3.875   3.978   2.028
 2963TIP3    H230449   3.729   3.995   1.990
 2964TIP3   OH230450   5.146   3.682   1.149
 2964TIP3    H130451   5.137   3.746   1.079
 2964TIP3    H230452   5.148   3.598   1.105
 2965TIP3   OH230453   1.075   2.861   8.300
 2965TIP3    H130454   1.007   2.900   8.356
 2965TIP3    H230455   1.121   2.800   8.358
 2966TIP3   OH230456   5.506   1.083   8.100
 2966TIP3    H130457   5.477   1.080   8.009
 2966TIP3    H230458   5.539   1.172   8.112
 2967TIP3   OH230459   4.111   6.003   1.063
 2967TIP3    H130460   4.139   6.080   1.013
 2967TIP3    H230461   4.175   5.997   1.134
 2968TIP3   OH230462   4.018   0.007   7.124
 2968TIP3    H130463   4.044   6.804   7.042
 2968TIP3    H230464   3.970   0.085   7.098
 2969TIP3   OH230465   6.547   1.853   0.727
 2969TIP3    H130466   6.519   1.790   0.661
 2969TIP3    H230467   6.469   1.870   0.779
 2970TIP3   OH230468   3.505   1.514   0.966
 2970TIP3    H130469   3.511   1.505   0.871
 2970TIP3    H230470   3.490   1.607   0.981
 2971TIP3   OH230471   0.730   4.364   7.391
 2971TIP3    H130472   0.667   4.297   7.419
 2971TIP3    H230473   0.740   4.348   7.297
 2972TIP3   OH230474   5.966   1.758   0.687
 2972TIP3    H130475   6.021   1.835   0.669
 2972TIP3    H230476   5.974   1.746   0.782
 2973TIP3   OH230477   5.893   0.327   0.261
 2973TIP3    H130478   5.834   0.401   0.268
 2973TIP3    H230479   5.842   0.252   0.293
 2974TIP3   OH230480   0.591   1.554   8.584
 2974TIP3    H130481   0.516   1.523   8.634
 2974TIP3    H230482   0.604   1.487   8.516
 2975TIP3   OH230483   6.754   5.733   1.696
 2975TIP3    H130484   6.666   5.694   1.692
 2975TIP3    H230485   6.803   5.676   1.755
 2976TIP3   OH230486   1.908   0.207   2.762
 2976TIP3    H130487   1.860   0.170   2.688
 2976TIP3    H230488   1.998   0.216   2.730
 2977TIP3   OH230489   0.737   1.379   0.407
 2977TIP3    H130490   0.684   1.322   0.352
 2977TIP3    H230491   0.787   1.319   0.463
 2978TIP3   OH230492   3.061   6.275   0.977
 2978TIP3    H130493   3.020   6.361   0.990
 2978TIP3    H230494   3.145   6.282   1.023
 2979TIP3   OH230495   2.942   6.667   6.273
 2979TIP3    H130496   2.901   6.705   6.351
 2979TIP3    H230497   2.998   6.737   6.240
 2980TIP3   OH230498   6.556   0.643   0.428
 2980TIP3    H130499   6.534   0.588   0.353
 2980TIP3    H230500   6.506   0.605   0.501
 2981TIP3   OH230501   2.238   5.673   7.505
 2981TIP3    H130502   2.271   5.589   7.536
 2981TIP3    H230503   2.274   5.738   7.565
 2982TIP3   OH230504   2.758   5.404   6.985
 2982TIP3    H130505   2.796   5.404   6.897
 2982TIP3    H230506   2.815   5.346   7.036
 2983TIP3   OH230507   4.767   2.799   7.734
 2983TIP3    H130508   4.797   2.710   7.753
 2983TIP3    H230509   4.848   2.849   7.718
 2984TIP3   OH230510   1.024   0.913   6.895
 2984TIP3    H130511   1.038   0.827   6.935
 2984TIP3    H230512   1.044   0.900   6.802
 2985TIP3   OH230513   5.875   5.786   6.545
 2985TIP3    H130514   5.798   5.749   6.589
 2985TIP3    H230515   5.838   5.831   6.469
 2986TIP3   OH230516   1.407   0.659   8.553
 2986TIP3    H130517   1.452   0.593   8.500
 2986TIP3    H230518   1.338   0.610   8.599
 2987TIP3   OH230519   0.073   4.028   2.151
 2987TIP3    H130520   0.041   3.988   2.232
 2987TIP3    H230521   0.005   4.090   2.127
 2988TIP3   OH230522   5.088   3.137   6.584
 2988TIP3    H130523   5.020   3.176   6.529
 2988TIP3    H230524   5.098   3.198   6.657
 2989TIP3   OH230525   5.068   6.820   1.248
 2989TIP3    H130526   5.148   6.790   1.291
 2989TIP3    H230527   5.090   0.067   1.212
 2990TIP3   OH230528   3.337   1.917   2.178
 2990TIP3    H130529   3.397   1.977   2.135
 2990TIP3    H230530   3.393   1.862   2.233
 2991TIP3   OH230531   6.151   5.303   6.436
 2991TIP3    H130532   6.241   5.305   6.404
 2991TIP3    H230533   6.149   5.228   6.496
 2992TIP3   OH230534   5.554   4.009   7.287
 2992TIP3    H130535   5.495   4.047   7.222
 2992TIP3    H230536   5.629   4.068   7.289
 2993TIP3   OH230537   6.435   2.920   7.088
 2993TIP3    H130538   6.436   2.992   7.025
 2993TIP3    H230539   6.450   2.962   7.173
 2994TIP3   OH230540   5.400   2.065   8.021
 2994TIP3    H130541   5.432   1.985   8.063
 2994TIP3    H230542   5.305   2.061   8.033
 2995TIP3   OH230543   6.515   0.760   7.738
 2995TIP3    H130544   6.564   0.820   7.681
 2995TIP3    H230545   6.426   0.760   7.703
 2996TIP3   OH230546   6.439   4.197   6.877
 2996TIP3    H130547   6.362   4.142   6.887
 2996TIP3    H230548   6.444   4.216   6.784
 2997TIP3   OH230549   5.303   3.598   0.502
 2997TIP3    H130550   5.286   3.535   0.573
 2997TIP3    H230551   5.397   3.590   0.485
 2998TIP3   OH230552   3.299   6.796   0.185
 2998TIP3    H130553   3.383   6.837   0.164
 2998TIP3    H230554   3.305   6.774   0.278
 2999TIP3   OH230555   1.339   0.067   1.846
 2999TIP3    H130556   1.368   0.144   1.893
 2999TIP3    H230557   1.296   0.013   1.912
 3000TIP3   OH230558   2.608   1.798   2.786
 3000TIP3    H130559   2.598   1.890   2.812
 3000TIP3    H230560   2.569   1.748   2.857
 3001TIP3   OH230561   1.677   4.419   2.392
 3001TIP3    H130562   1.590   4.378   2.401
 3001TIP3    H230563   1.725   4.360   2.335
 3002TIP3   OH230564   3.960   1.762   1.880
 3002TIP3    H130565   3.967   1.840   1.825
 3002TIP3    H230566   3.985   1.793   1.968
 3003TIP3   OH230567   2.375   5.824   1.752
 3003TIP3    H130568   2.309   5.832   1.821
 3003TIP3    H230569   2.415   5.738   1.766
 3004TIP3   OH230570   1.456   5.251   0.104
 3004TIP3    H130571   1.388   5.216   0.161
 3004TIP3    H230572   1.418   5.331   0.068
 3005TIP3   OH230573   4.225   0.079   7.423
 3005TIP3    H130574   4.242   6.825   7.438
 3005TIP3    H230575   4.131   0.083   7.405
 3006TIP3   OH230576   5.812   0.482   8.258
 3006TIP3    H130577   5.806   0.540   8.182
 3006TIP3    H230578   5.826   0.395   8.222
 3007TIP3   OH230579   1.263   2.849   1.076
 3007TIP3    H130580   1.218   2.768   1.052
 3007TIP3    H230581   1.194   2.904   1.114
 3008TIP3   OH230582   2.876   3.890   7.436
 3008TIP3    H130583   2.962   3.871   7.472
 3008TIP3    H230584   2.820   3.900   7.513
 3009TIP3   OH230585   5.929   3.757   8.414
 3009TIP3    H130586   6.019   3.736   8.438
 3009TIP3    H230587   5.875   3.716   8.481
 3010TIP3   OH230588   2.856   0.616   1.535
 3010TIP3    H130589   2.900   0.631   1.451
 3010TIP3    H230590   2.763   0.627   1.516
 3011TIP3   OH230591   4.391   5.758   7.774
 3011TIP3    H130592   4.394   5.675   7.822
 3011TIP3    H230593   4.428   5.738   7.688
 3012TIP3   OH230594   1.302   1.259   0.929
 3012TIP3    H130595   1.302   1.354   0.917
 3012TIP3    H230596   1.238   1.244   0.999
 3013TIP3   OH230597   0.436   0.125   1.257
 3013TIP3    H130598   0.357   0.071   1.262
 3013TIP3    H230599   0.434   0.161   1.168
 3014TIP3   OH230600   1.535   6.293   2.031
 3014TIP3    H130601   1.496   6.379   2.051
 3014TIP3    H230602   1.624   6.313   2.003
 3015TIP3   OH230603   5.644   3.937   1.255
 3015TIP3    H130604   5.735   3.961   1.273
 3015TIP3    H230605   5.650   3.849   1.218
 3016TIP3   OH230606   5.531   5.242   0.097
 3016TIP3    H130607   5.467   5.228   0.166
 3016TIP3    H230608   5.590   5.167   0.104
 3017TIP3   OH230609   2.534   3.756   1.002
 3017TIP3    H130610   2.539   3.850   1.022
 3017TIP3    H230611   2.441   3.741   0.984
 3018TIP3   OH230612   6.471   4.287   0.612
 3018TIP3    H130613   6.551   4.261   0.564
 3018TIP3    H230614   6.460   4.379   0.590
 3019TIP3   OH230615   4.238   5.441   7.636
 3019TIP3    H130616   4.284   5.409   7.559
 3019TIP3    H230617   4.181   5.368   7.661
 3020TIP3   OH230618   6.672   2.347   7.217
 3020TIP3    H130619   6.663   2.266   7.267
 3020TIP3    H230620   6.735   2.399   7.267
 3021TIP3   OH230621   4.670   0.587   0.224
 3021TIP3    H130622   4.752   0.566   0.269
 3021TIP3    H230623   4.628   0.652   0.281
 3022TIP3   OH230624   3.705   6.808   0.946
 3022TIP3    H130625   3.642   6.796   0.875
 3022TIP3    H230626   3.729   0.063   0.942
 3023TIP3   OH230627   1.372   1.744   8.193
 3023TIP3    H130628   1.345   1.767   8.104
 3023TIP3    H230629   1.343   1.818   8.247
 3024TIP3   OH230630   5.090   0.877   0.189
 3024TIP3    H130631   5.017   0.816   0.179
 3024TIP3    H230632   5.116   0.898   0.099
 3025TIP3   OH230633   3.071   4.440   0.808
 3025TIP3    H130634   3.064   4.520   0.859
 3025TIP3    H230635   3.066   4.370   0.872
 3026TIP3   OH230636   2.875   5.999   2.331
 3026TIP3    H130637   2.961   6.032   2.305
 3026TIP3    H230638   2.893   5.912   2.367
 3027TIP3   OH230639   6.721   2.201   7.575
 3027TIP3    H130640   6.813   2.188   7.554
 3027TIP3    H230641   6.674   2.140   7.517
 3028TIP3   OH230642   4.552   2.346   8.725
 3028TIP3    H130643   4.522   2.418   8.780
 3028TIP3    H230644   4.643   2.366   8.707
 3029TIP3   OH230645   5.489   5.254   8.478
 3029TIP3    H130646   5.574   5.285   8.446
 3029TIP3    H230647   5.473   5.307   8.556
 3030TIP3   OH230648   3.363   6.716   7.677
 3030TIP3    H130649   3.455   6.720   7.650
 3030TIP3    H230650   3.333   6.807   7.676
 3031TIP3   OH230651   1.122   3.306   8.702
 3031TIP3    H130652   1.051   3.248   8.731
 3031TIP3    H230653   1.202   3.254   8.714
 3032TIP3   OH230654   4.883   4.236   0.390
 3032TIP3    H130655   4.967   4.190   0.380
 3032TIP3    H230656   4.866   4.235   0.484
 3033TIP3   OH230657   6.479   1.564   7.404
 3033TIP3    H130658   6.465   1.475   7.374
 3033TIP3    H230659   6.396   1.608   7.389
 3034TIP3   OH230660   6.790   6.503   1.862
 3034TIP3    H130661   6.816   6.491   1.954
 3034TIP3    H230662   6.805   6.596   1.845
 3035TIP3   OH230663   4.202   0.537   6.541
 3035TIP3    H130664   4.127   0.547   6.483
 3035TIP3    H230665   4.188   0.453   6.585
 3036TIP3   OH230666   0.746   1.562   1.156
 3036TIP3    H130667   0.765   1.637   1.099
 3036TIP3    H230668   0.705   1.498   1.098
 3037TIP3   OH230669   6.247   1.742   8.413
 3037TIP3    H130670   6.220   1.685   8.484
 3037TIP3    H230671   6.234   1.690   8.334
 3038TIP3   OH230672   6.030   1.203   0.273
 3038TIP3    H130673   5.975   1.172   0.201
 3038TIP3    H230674   6.106   1.242   0.230
 3039TIP3   OH230675   6.124   2.367   6.412
 3039TIP3    H130676   6.116   2.431   6.341
 3039TIP3    H230677   6.063   2.397   6.479
 3040TIP3   OH230678   4.851   1.059   0.108
 3040TIP3    H130679   4.786   0.988   0.108
 3040TIP3    H230680   4.920   1.030   0.167
 3041TIP3   OH230681   3.936   1.819   1.059
 3041TIP3    H130682   4.006   1.858   1.007
 3041TIP3    H230683   3.856   1.843   1.012
 3042TIP3   OH230684   1.369   6.818   0.545
 3042TIP3    H130685   1.395   6.727   0.559
 3042TIP3    H230686   1.274   6.817   0.556
 3043TIP3   OH230687   5.648   3.278   0.797
 3043TIP3    H130688   5.725   3.251   0.747
 3043TIP3    H230689   5.680   3.291   0.886
 3044TIP3   OH230690   6.568   0.893   8.613
 3044TIP3    H130691   6.526   0.807   8.618
 3044TIP3    H230692   6.610   0.895   8.527
 3045TIP3   OH230693   2.841   0.778   8.401
 3045TIP3    H130694   2.817   0.687   8.421
 3045TIP3    H230695   2.930   0.788   8.435
 3046TIP3   OH230696   6.444   4.570   7.457
 3046TIP3    H130697   6.374   4.569   7.522
 3046TIP3    H230698   6.416   4.636   7.393
 3047TIP3   OH230699   0.105   2.209   8.684
 3047TIP3    H130700   0.014   2.181   8.690
 3047TIP3    H230701   0.116   2.234   8.593
 3048TIP3   OH230702   3.415   0.381   0.100
 3048TIP3    H130703   3.404   0.326   0.022
 3048TIP3    H230704   3.336   0.434   0.103
 3049TIP3   OH230705   2.673   3.037   0.528
 3049TIP3    H130706   2.581   3.064   0.538
 3049TIP3    H230707   2.719   3.085   0.597
 3050TIP3   OH230708   3.864   6.113   6.296
 3050TIP3    H130709   3.857   6.021   6.319
 3050TIP3    H230710   3.784   6.153   6.332
 3051TIP3   OH230711   1.070   6.072   1.850
 3051TIP3    H130712   0.984   6.056   1.887
 3051TIP3    H230713   1.053   6.117   1.767
 3052TIP3   OH230714   6.471   0.389   7.898
 3052TIP3    H130715   6.395   0.441   7.922
 3052TIP3    H230716   6.438   0.300   7.887
 3053TIP3   OH230717   1.047   5.142   2.363
 3053TIP3    H130718   1.083   5.144   2.452
 3053TIP3    H230719   0.974   5.204   2.366
 3054TIP3   OH230720   2.695   0.669   0.087
 3054TIP3    H130721   2.639   0.698   0.014
 3054TIP3    H230722   2.776   0.719   0.077
 3055TIP3   OH230723   5.588   5.198   0.908
 3055TIP3    H130724   5.503   5.168   0.938
 3055TIP3    H230725   5.575   5.219   0.816
 3056TIP3   OH230726   4.809   3.834   7.451
 3056TIP3    H130727   4.743   3.868   7.512
 3056TIP3    H230728   4.758   3.796   7.380
 3057TIP3   OH230729   4.773   4.754   8.089
 3057TIP3    H130730   4.716   4.825   8.122
 3057TIP3    H230731   4.712   4.687   8.060
 3058TIP3   OH230732   0.042   3.733   1.275
 3058TIP3    H130733   0.098   3.675   1.224
 3058TIP3    H230734   0.038   3.692   1.361
 3059TIP3   OH230735   2.463   0.523   0.657
 3059TIP3    H130736   2.476   0.618   0.648
 3059TIP3    H230737   2.431   0.495   0.572
 3060TIP3   OH230738   0.425   4.471   7.681
 3060TIP3    H130739   0.484   4.398   7.698
 3060TIP3    H230740   0.462   4.544   7.732
 3061TIP3   OH230741   1.551   2.787   7.355
 3061TIP3    H130742   1.472   2.736   7.370
 3061TIP3    H230743   1.615   2.725   7.320
 3062TIP3   OH230744   3.445   2.302   6.998
 3062TIP3    H130745   3.371   2.362   7.011
 3062TIP3    H230746   3.404   2.217   6.983
 3063TIP3   OH230747   2.273   2.936   0.776
 3063TIP3    H130748   2.236   3.021   0.754
 3063TIP3    H230749   2.333   2.917   0.705
 3064TIP3   OH230750   2.058   2.072   2.096
 3064TIP3    H130751   1.971   2.033   2.104
 3064TIP3    H230752   2.071   2.081   2.001
 3065TIP3   OH230753   0.491   2.093   8.210
 3065TIP3    H130754   0.413   2.040   8.195
 3065TIP3    H230755   0.510   2.131   8.125
 3066TIP3   OH230756   1.131   4.902   8.323
 3066TIP3    H130757   1.189   4.973   8.297
 3066TIP3    H230758   1.057   4.946   8.366
 3067TIP3   OH230759   5.815   3.003   1.025
 3067TIP3    H130760   5.898   3.033   0.989
 3067TIP3    H230761   5.813   3.039   1.113
 3068TIP3   OH230762   2.761   3.537   1.259
 3068TIP3    H130763   2.842   3.539   1.310
 3068TIP3    H230764   2.716   3.619   1.282
 3069TIP3   OH230765   0.125   5.636   8.321
 3069TIP3    H130766   0.038   5.614   8.354
 3069TIP3    H230767   0.114   5.639   8.226
 3070TIP3   OH230768   5.677   5.480   0.041
 3070TIP3    H130769   5.632   5.397   0.059
 3070TIP3    H230770   5.764   5.453   0.012
 3071TIP3   OH230771   4.754   5.114   7.844
 3071TIP3    H130772   4.794   5.171   7.909
 3071TIP3    H230773   4.661   5.116   7.864
 3072TIP3   OH230774   6.836   2.717   7.101
 3072TIP3    H130775   6.768   2.663   7.059
 3072TIP3    H230776   0.079   2.671   7.084
 3073TIP3   OH230777   0.123   0.236   0.157
 3073TIP3    H130778   0.154   0.326   0.157
 3073TIP3    H230779   0.178   0.191   0.221
 3074TIP3   OH230780   1.561   1.701   7.648
 3074TIP3    H130781   1.494   1.644   7.610
 3074TIP3    H230782   1.599   1.747   7.573
 3075TIP3   OH230783   0.060   5.878   7.628
 3075TIP3    H130784   0.032   5.794   7.591
 3075TIP3    H230785   0.096   5.856   7.714
 3076TIP3   OH230786   6.334   0.738   1.097
 3076TIP3    H130787   6.381   0.667   1.053
 3076TIP3    H230788   6.242   0.717   1.083
 3077TIP3   OH230789   5.139   1.196   0.193
 3077TIP3    H130790   5.069   1.253   0.223
 3077TIP3    H230791   5.164   1.145   0.270
 3078TIP3   OH230792   1.959   2.506   2.230
 3078TIP3    H130793   1.865   2.490   2.215
 3078TIP3    H230794   1.964   2.534   2.321
 3079TIP3   OH230795   1.853   1.538   2.193
 3079TIP3    H130796   1.904   1.488   2.257
 3079TIP3    H230797   1.772   1.489   2.183
 3080TIP3   OH230798   0.082   1.831   8.431
 3080TIP3    H130799   0.086   1.761   8.497
 3080TIP3    H230800   0.052   1.787   8.351
 3081TIP3   OH230801   3.378   4.293   7.137
 3081TIP3    H130802   3.431   4.255   7.067
 3081TIP3    H230803   3.427   4.273   7.217
 3082TIP3   OH230804   0.780   4.518   8.239
 3082TIP3    H130805   0.743   4.433   8.216
 3082TIP3    H230806   0.710   4.562   8.288
 3083TIP3   OH230807   0.774   1.255   6.750
 3083TIP3    H130808   0.802   1.176   6.703
 3083TIP3    H230809   0.755   1.318   6.681
 3084TIP3   OH230810   3.410   5.553   0.194
 3084TIP3    H130811   3.465   5.520   0.124
 3084TIP3    H230812   3.321   5.550   0.159
 3085TIP3   OH230813   3.704   4.612   0.969
 3085TIP3    H130814   3.712   4.702   0.936
 3085TIP3    H230815   3.794   4.580   0.971
 3086TIP3   OH230816   1.404   0.668   1.668
 3086TIP3    H130817   1.332   0.696   1.611
 3086TIP3    H230818   1.389   0.716   1.750
 3087TIP3   OH230819   1.995   2.730   0.154
 3087TIP3    H130820   1.959   2.644   0.175
 3087TIP3    H230821   2.068   2.713   0.095
 3088TIP3   OH230822   0.515   4.984   1.839
 3088TIP3    H130823   0.610   4.994   1.849
 3088TIP3    H230824   0.482   4.972   1.928
 3089TIP3   OH230825   1.255   5.896   6.206
 3089TIP3    H130826   1.225   5.963   6.145
 3089TIP3    H230827   1.243   5.935   6.292
 3090TIP3   OH230828   1.760   1.243   1.949
 3090TIP3    H130829   1.669   1.231   1.978
 3090TIP3    H230830   1.756   1.233   1.854
 3091TIP3   OH230831   1.315   5.539   0.359
 3091TIP3    H130832   1.220   5.546   0.363
 3091TIP3    H230833   1.334   5.454   0.398
 3092TIP3   OH230834   1.877   6.087   6.822
 3092TIP3    H130835   1.961   6.089   6.775
 3092TIP3    H230836   1.816   6.132   6.764
 3093TIP3   OH230837   3.007   2.770   1.472
 3093TIP3    H130838   2.997   2.739   1.562
 3093TIP3    H230839   2.956   2.851   1.469
 3094TIP3   OH230840   4.627   2.299   7.375
 3094TIP3    H130841   4.592   2.369   7.430
 3094TIP3    H230842   4.649   2.229   7.435
 3095TIP3   OH230843   5.860   2.298   6.999
 3095TIP3    H130844   5.872   2.235   6.927
 3095TIP3    H230845   5.829   2.378   6.956
 3096TIP3   OH230846   6.177   3.696   8.497
 3096TIP3    H130847   6.197   3.790   8.498
 3096TIP3    H230848   6.236   3.660   8.431
 3097TIP3   OH230849   1.131   2.122   6.716
 3097TIP3    H130850   1.158   2.139   6.807
 3097TIP3    H230851   1.185   2.181   6.664
 3098TIP3   OH230852   3.125   5.341   1.619
 3098TIP3    H130853   3.065   5.416   1.618
 3098TIP3    H230854   3.196   5.366   1.560
 3099TIP3   OH230855   3.089   3.215   6.512
 3099TIP3    H130856   3.014   3.227   6.570
 3099TIP3    H230857   3.088   3.292   6.455
 3100TIP3   OH230858   5.880   0.671   1.773
 3100TIP3    H130859   5.881   0.713   1.859
 3100TIP3    H230860   5.788   0.654   1.755
 3101TIP3   OH230861   1.450   1.149   1.647
 3101TIP3    H130862   1.474   1.102   1.566
 3101TIP3    H230863   1.383   1.094   1.688
 3102TIP3   OH230864   6.007   0.576   0.512
 3102TIP3    H130865   6.057   0.609   0.437
 3102TIP3    H230866   5.927   0.628   0.513
 3103TIP3   OH230867   5.501   4.700   2.022
 3103TIP3    H130868   5.485   4.792   2.045
 3103TIP3    H230869   5.594   4.697   2.001
 3104TIP3   OH230870   6.333   1.401   0.852
 3104TIP3    H130871   6.327   1.325   0.794
 3104TIP3    H230872   6.426   1.408   0.873
 3105TIP3   OH230873   2.677   3.762   0.232
 3105TIP3    H130874   2.615   3.811   0.285
 3105TIP3    H230875   2.695   3.683   0.283
 3106TIP3   OH230876   4.322   0.422   6.885
 3106TIP3    H130877   4.313   0.329   6.905
 3106TIP3    H230878   4.412   0.431   6.853
 3107TIP3   OH230879   5.216   2.324   1.761
 3107TIP3    H130880   5.213   2.267   1.837
 3107TIP3    H230881   5.146   2.388   1.775
 3108TIP3   OH230882   0.662   5.376   0.297
 3108TIP3    H130883   0.618   5.429   0.364
 3108TIP3    H230884   0.754   5.373   0.326
 3109TIP3   OH230885   4.701   6.064   0.853
 3109TIP3    H130886   4.631   6.042   0.915
 3109TIP3    H230887   4.675   6.020   0.772
 3110TIP3   OH230888   5.315   6.059   2.511
 3110TIP3    H130889   5.278   6.129   2.457
 3110TIP3    H230890   5.385   6.101   2.560
 3111TIP3   OH230891   3.150   4.491   8.117
 3111TIP3    H130892   3.227   4.530   8.077
 3111TIP3    H230893   3.182   4.410   8.158
 3112TIP3   OH230894   0.297   4.674   7.235
 3112TIP3    H130895   0.223   4.734   7.244
 3112TIP3    H230896   0.302   4.656   7.141
 3113TIP3   OH230897   6.255   4.180   8.633
 3113TIP3    H130898   6.244   4.202   8.726
 3113TIP3    H230899   6.184   4.118   8.614
 3114TIP3   OH230900   4.234   6.664   6.582
 3114TIP3    H130901   4.139   6.669   6.569
 3114TIP3    H230902   4.255   6.572   6.565
 3115TIP3   OH230903   2.423   6.076   8.083
 3115TIP3    H130904   2.497   6.018   8.104
 3115TIP3    H230905   2.463   6.158   8.055
 3116TIP3   OH230906   0.919   6.835   1.172
 3116TIP3    H130907   0.843   0.045   1.142
 3116TIP3    H230908   0.960   0.055   1.237
 3117TIP3   OH230909   4.384   1.406   1.819
 3117TIP3    H130910   4.332   1.477   1.781
 3117TIP3    H230911   4.321   1.356   1.871
 3118TIP3   OH230912   2.643   5.174   8.301
 3118TIP3    H130913   2.710   5.106   8.309
 3118TIP3    H230914   2.680   5.249   8.347
 3119TIP3   OH230915   0.867   5.150   8.031
 3119TIP3    H130916   0.872   5.207   7.955
 3119TIP3    H230917   0.890   5.064   7.998
 3120TIP3   OH230918   0.611   6.278   8.426
 3120TIP3    H130919   0.543   6.311   8.367
 3120TIP3    H230920   0.693   6.295   8.379
 3121TIP3   OH230921   0.552   6.015   0.905
 3121TIP3    H130922   0.581   5.954   0.837
 3121TIP3    H230923   0.569   6.102   0.868
 3122TIP3   OH230924   3.846   6.681   8.469
 3122TIP3    H130925   3.839   6.613   8.403
 3122TIP3    H230926   3.794   6.754   8.435
 3123TIP3   OH230927   3.585   3.961   0.458
 3123TIP3    H130928   3.541   3.877   0.474
 3123TIP3    H230929   3.613   3.990   0.544
 3124TIP3   OH230930   5.791   0.792   0.776
 3124TIP3    H130931   5.753   0.743   0.702
 3124TIP3    H230932   5.810   0.878   0.740
 3125TIP3   OH230933   5.106   3.612   6.735
 3125TIP3    H130934   5.198   3.637   6.727
 3125TIP3    H230935   5.057   3.691   6.709
 3126TIP3   OH230936   2.069   3.186   1.125
 3126TIP3    H130937   2.164   3.201   1.121
 3126TIP3    H230938   2.057   3.096   1.095
 3127TIP3   OH230939   5.076   4.052   0.415
 3127TIP3    H130940   5.049   3.960   0.417
 3127TIP3    H230941   5.158   4.054   0.465
 3128TIP3   OH230942   0.890   1.872   8.774
 3128TIP3    H130943   0.934   1.791   8.747
 3128TIP3    H230944   0.800   1.846   0.008
 3129TIP3   OH230945   1.377   4.042   2.260
 3129TIP3    H130946   1.443   4.006   2.200
 3129TIP3    H230947   1.305   3.979   2.256
 3130TIP3   OH230948   2.023   2.085   1.662
 3130TIP3    H130949   2.080   2.130   1.725
 3130TIP3    H230950   2.016   1.995   1.695
 3131TIP3   OH230951   4.865   6.505   1.386
 3131TIP3    H130952   4.788   6.460   1.352
 3131TIP3    H230953   4.898   6.447   1.455
 3132TIP3   OH230954   4.294   5.485   7.151
 3132TIP3    H130955   4.251   5.431   7.085
 3132TIP3    H230956   4.342   5.551   7.101
 3133TIP3   OH230957   6.552   1.932   8.695
 3133TIP3    H130958   6.530   1.983   8.773
 3133TIP3    H230959   6.646   1.946   8.683
 3134TIP3   OH230960   4.831   3.617   1.379
 3134TIP3    H130961   4.784   3.690   1.420
 3134TIP3    H230962   4.823   3.632   1.285
 3135TIP3   OH230963   2.977   6.615   2.072
 3135TIP3    H130964   2.888   6.649   2.059
 3135TIP3    H230965   3.034   6.685   2.042
 3136TIP3   OH230966   5.162   3.344   0.307
 3136TIP3    H130967   5.251   3.360   0.337
 3136TIP3    H230968   5.171   3.328   0.213
 3137TIP3   OH230969   3.801   6.403   0.025
 3137TIP3    H130970   3.770   6.346   8.737
 3137TIP3    H230971   3.763   6.489   0.006
 3138TIP3   OH230972   0.446   4.437   1.349
 3138TIP3    H130973   0.363   4.389   1.350
 3138TIP3    H230974   0.437   4.500   1.277
 3139TIP3   OH230975   3.364   3.890   1.725
 3139TIP3    H130976   3.344   3.918   1.814
 3139TIP3    H230977   3.459   3.900   1.717
 3140TIP3   OH230978   0.979   6.075   1.523
 3140TIP3    H130979   0.892   6.041   1.500
 3140TIP3    H230980   1.031   5.997   1.539
 3141TIP3   OH230981   1.007   1.609   0.873
 3141TIP3    H130982   0.944   1.671   0.911
 3141TIP3    H230983   0.986   1.525   0.913
 3142TIP3   OH230984   2.246   1.883   8.215
 3142TIP3    H130985   2.200   1.964   8.236
 3142TIP3    H230986   2.260   1.887   8.120
 3143TIP3   OH230987   1.600   5.140   7.050
 3143TIP3    H130988   1.640   5.217   7.010
 3143TIP3    H230989   1.623   5.146   7.142
 3144TIP3   OH230990   5.350   3.664   0.175
 3144TIP3    H130991   5.295   3.700   0.244
 3144TIP3    H230992   5.371   3.576   0.205
 3145TIP3   OH230993   2.072   2.379   6.860
 3145TIP3    H130994   2.064   2.473   6.876
 3145TIP3    H230995   2.159   2.369   6.821
 3146TIP3   OH230996   6.376   5.988   8.271
 3146TIP3    H130997   6.444   6.042   8.231
 3146TIP3    H230998   6.337   6.044   8.339
 3147TIP3   OH230999   3.928   2.636   0.913
 3147TIP3    H131000   3.925   2.541   0.923
 3147TIP3    H231001   3.840   2.666   0.936
 3148TIP3   OH231002   1.057   6.170   7.699
 3148TIP3    H131003   1.066   6.079   7.668
 3148TIP3    H231004   1.031   6.161   7.791
 3149TIP3   OH231005   0.038   4.418   7.166
 3149TIP3    H131006   0.036   4.360   7.242
 3149TIP3    H231007   0.128   4.410   7.132
 3150TIP3   OH231008   0.321   1.829   7.671
 3150TIP3    H131009   0.275   1.747   7.692
 3150TIP3    H231010   0.299   1.888   7.742
 3151TIP3   OH231011   2.111   5.803   1.367
 3151TIP3    H131012   2.030   5.773   1.325
 3151TIP3    H231013   2.148   5.867   1.306
 3152TIP3   OH231014   1.468   3.465   8.561
 3152TIP3    H131015   1.452   3.374   8.539
 3152TIP3    H231016   1.556   3.483   8.528
 3153TIP3   OH231017   0.403   0.343   8.131
 3153TIP3    H131018   0.321   0.385   8.104
 3153TIP3    H231019   0.450   0.411   8.178
 3154TIP3   OH231020   3.109   4.302   7.653
 3154TIP3    H131021   3.040   4.369   7.650
 3154TIP3    H231022   3.181   4.344   7.700
 3155TIP3   OH231023   4.257   2.056   7.551
 3155TIP3    H131024   4.298   2.071   7.466
 3155TIP3    H231025   4.264   1.962   7.565
 3156TIP3   OH231026   0.817   0.228   7.776
 3156TIP3    H131027   0.905   0.202   7.749
 3156TIP3    H231028   0.831   0.300   7.837
 3157TIP3   OH231029   3.834   0.176   0.379
 3157TIP3    H131030   3.778   0.191   0.455
 3157TIP3    H231031   3.840   0.081   0.372
 3158TIP3   OH231032   6.463   0.461   0.210
 3158TIP3    H131033   6.480   0.383   0.262
 3158TIP3    H231034   6.533   0.461   0.144
 3159TIP3   OH231035   2.770   0.934   8.692
 3159TIP3    H131036   2.819   0.854   8.671
 3159TIP3    H231037   2.678   0.908   8.683
 3160TIP3   OH231038   6.648   3.470   1.221
 3160TIP3    H131039   6.690   3.386   1.201
 3160TIP3    H231040   6.687   3.497   1.304
 3161TIP3   OH231041   0.700   0.272   0.415
 3161TIP3    H131042   0.657   0.260   0.330
 3161TIP3    H231043   0.733   0.185   0.437
 3162TIP3   OH231044   4.622   6.462   1.548
 3162TIP3    H131045   4.533   6.444   1.520
 3162TIP3    H231046   4.613   6.527   1.618
 3163TIP3   OH231047   3.504   0.071   0.469
 3163TIP3    H131048   3.508   0.152   0.419
 3163TIP3    H231049   3.417   0.036   0.450
 3164TIP3   OH231050   2.411   2.261   6.535
 3164TIP3    H131051   2.415   2.235   6.443
 3164TIP3    H231052   2.502   2.278   6.558
 3165TIP3   OH231053   0.160   6.342   1.747
 3165TIP3    H131054   0.104   6.381   1.814
 3165TIP3    H231055   0.099   6.295   1.690
 3166TIP3   OH231056   0.344   5.182   8.662
 3166TIP3    H131057   0.399   5.171   8.585
 3166TIP3    H231058   0.256   5.158   8.633
 3167TIP3   OH231059   1.447   4.692   1.624
 3167TIP3    H131060   1.515   4.692   1.557
 3167TIP3    H231061   1.412   4.603   1.623
 3168TIP3   OH231062   2.199   3.327   2.343
 3168TIP3    H131063   2.187   3.233   2.358
 3168TIP3    H231064   2.261   3.353   2.411
 3169TIP3   OH231065   0.979   0.325   1.539
 3169TIP3    H131066   1.013   0.406   1.575
 3169TIP3    H231067   0.920   0.352   1.469
 3170TIP3   OH231068   2.958   2.565   2.316
 3170TIP3    H131069   2.996   2.618   2.246
 3170TIP3    H231070   2.867   2.594   2.320
 3171TIP3   OH231071   6.438   0.375   7.355
 3171TIP3    H131072   6.462   0.356   7.446
 3171TIP3    H231073   6.479   0.459   7.336
 3172TIP3   OH231074   2.631   2.870   6.985
 3172TIP3    H131075   2.628   2.963   6.964
 3172TIP3    H231076   2.554   2.855   7.040
 3173TIP3   OH231077   1.421   1.953   1.240
 3173TIP3    H131078   1.512   1.932   1.221
 3173TIP3    H231079   1.390   1.998   1.161
 3174TIP3   OH231080   4.512   5.936   7.109
 3174TIP3    H131081   4.557   5.855   7.132
 3174TIP3    H231082   4.566   5.975   7.041
 3175TIP3   OH231083   5.215   2.214   6.462
 3175TIP3    H131084   5.213   2.135   6.408
 3175TIP3    H231085   5.165   2.279   6.412
 3176TIP3   OH231086   4.506   1.872   7.639
 3176TIP3    H131087   4.500   1.932   7.713
 3176TIP3    H231088   4.432   1.812   7.649
 3177TIP3   OH231089   5.910   0.794   2.020
 3177TIP3    H131090   5.960   0.778   2.100
 3177TIP3    H231091   5.825   0.824   2.050
 3178TIP3   OH231092   1.803   6.200   1.680
 3178TIP3    H131093   1.746   6.126   1.698
 3178TIP3    H231094   1.809   6.247   1.764
 3179TIP3   OH231095   5.287   6.827   2.617
 3179TIP3    H131096   5.200   6.801   2.588
 3179TIP3    H231097   5.333   0.013   2.536
 3180TIP3   OH231098   0.147   4.629   7.520
 3180TIP3    H131099   0.095   4.571   7.464
 3180TIP3    H231100   0.086   4.696   7.549
 3181TIP3   OH231101   2.352   1.707   1.786
 3181TIP3    H131102   2.352   1.781   1.848
 3181TIP3    H231103   2.444   1.683   1.777
 3182TIP3   OH231104   1.563   3.201   7.586
 3182TIP3    H131105   1.581   3.170   7.497
 3182TIP3    H231106   1.545   3.121   7.636
 3183TIP3   OH231107   3.580   0.306   8.524
 3183TIP3    H131108   3.503   0.284   8.577
 3183TIP3    H231109   3.603   0.395   8.552
 3184TIP3   OH231110   5.448   1.808   8.096
 3184TIP3    H131111   5.424   1.792   8.005
 3184TIP3    H231112   5.534   1.767   8.106
 3185TIP3   OH231113   6.255   4.089   1.623
 3185TIP3    H131114   6.244   3.996   1.644
 3185TIP3    H231115   6.295   4.127   1.701
 3186TIP3   OH231116   4.214   0.134   7.750
 3186TIP3    H131117   4.176   0.065   7.805
 3186TIP3    H231118   4.259   0.087   7.680
 3187TIP3   OH231119   2.791   6.382   7.513
 3187TIP3    H131120   2.805   6.307   7.454
 3187TIP3    H231121   2.714   6.426   7.476
 3188TIP3   OH231122   0.325   1.389   7.444
 3188TIP3    H131123   0.399   1.328   7.443
 3188TIP3    H231124   0.297   1.391   7.536
 3189TIP3   OH231125   6.651   0.046   8.308
 3189TIP3    H131126   6.657   6.802   8.260
 3189TIP3    H231127   6.567   0.042   8.353
 3190TIP3   OH231128   4.988   2.392   7.058
 3190TIP3    H131129   4.943   2.329   7.002
 3190TIP3    H231130   4.924   2.416   7.124
 3191TIP3   OH231131   3.867   2.809   2.166
 3191TIP3    H131132   3.775   2.832   2.158
 3191TIP3    H231133   3.896   2.794   2.076
 3192TIP3   OH231134   1.669   2.760   0.884
 3192TIP3    H131135   1.674   2.806   0.800
 3192TIP3    H231136   1.754   2.718   0.893
 3193TIP3   OH231137   6.770   1.071   1.386
 3193TIP3    H131138   6.812   1.151   1.418
 3193TIP3    H231139   6.815   1.000   1.433
 3194TIP3   OH231140   6.370   3.250   0.984
 3194TIP3    H131141   6.364   3.329   1.037
 3194TIP3    H231142   6.359   3.178   1.046
 3195TIP3   OH231143   5.632   1.167   1.073
 3195TIP3    H131144   5.604   1.094   1.018
 3195TIP3    H231145   5.728   1.168   1.064
 3196TIP3   OH231146   5.687   0.228   7.476
 3196TIP3    H131147   5.591   0.232   7.478
 3196TIP3    H231148   5.715   0.312   7.512
 3197TIP3   OH231149   3.188   3.064   1.605
 3197TIP3    H131150   3.258   3.050   1.670
 3197TIP3    H231151   3.189   3.158   1.589
 3198TIP3   OH231152   2.599   0.524   8.180
 3198TIP3    H131153   2.689   0.497   8.195
 3198TIP3    H231154   2.565   0.463   8.115
 3199TIP3   OH231155   1.185   3.211   2.316
 3199TIP3    H131156   1.259   3.220   2.376
 3199TIP3    H231157   1.128   3.285   2.336
 3200TIP3   OH231158   5.278   0.626   7.271
 3200TIP3    H131159   5.215   0.634   7.199
 3200TIP3    H231160   5.226   0.596   7.345
 3201TIP3   OH231161   1.206   0.990   7.086
 3201TIP3    H131162   1.229   1.077   7.116
 3201TIP3    H231163   1.142   1.005   7.016
 3202TIP3   OH231164   2.534   2.986   1.031
 3202TIP3    H131165   2.552   2.933   0.954
 3202TIP3    H231166   2.551   2.927   1.105
 3203TIP3   OH231167   0.835   4.592   6.299
 3203TIP3    H131168   0.803   4.675   6.335
 3203TIP3    H231169   0.780   4.576   6.223
 3204TIP3   OH231170   6.815   1.017   1.749
 3204TIP3    H131171   0.001   0.935   1.706
 3204TIP3    H231172   0.050   1.035   1.808
 3205TIP3   OH231173   5.272   1.497   7.837
 3205TIP3    H131174   5.298   1.584   7.869
 3205TIP3    H231175   5.220   1.460   7.909
 3206TIP3   OH231176   2.622   2.340   8.078
 3206TIP3    H131177   2.582   2.315   7.994
 3206TIP3    H231178   2.649   2.431   8.066
 3207TIP3   OH231179   6.145   5.438   8.267
 3207TIP3    H131180   6.101   5.520   8.244
 3207TIP3    H231181   6.231   5.445   8.226
 3208TIP3   OH231182   0.523   3.002   0.310
 3208TIP3    H131183   0.476   3.035   0.233
 3208TIP3    H231184   0.504   2.909   0.312
 3209TIP3   OH231185   2.400   2.706   1.382
 3209TIP3    H131186   2.383   2.613   1.367
 3209TIP3    H231187   2.314   2.748   1.374
 3210TIP3   OH231188   3.672   4.331   8.532
 3210TIP3    H131189   3.578   4.317   8.545
 3210TIP3    H231190   3.702   4.369   8.614
 3211TIP3   OH231191   1.855   4.823   0.418
 3211TIP3    H131192   1.779   4.861   0.462
 3211TIP3    H231193   1.851   4.856   0.328
 3212TIP3   OH231194   0.085   1.984   0.694
 3212TIP3    H131195   0.008   2.038   0.676
 3212TIP3    H231196   0.129   2.028   0.767
 3213TIP3   OH231197   3.849   0.210   8.683
 3213TIP3    H131198   3.799   0.165   8.752
 3213TIP3    H231199   3.815   0.173   8.602
 3214TIP3   OH231200   1.931   1.918   7.438
 3214TIP3    H131201   1.839   1.944   7.427
 3214TIP3    H231202   1.956   1.954   7.523
 3215TIP3   OH231203   2.064   6.211   7.058
 3215TIP3    H131204   2.007   6.266   7.110
 3215TIP3    H231205   2.044   6.122   7.086
 3216TIP3   OH231206   2.289   2.830   1.056
 3216TIP3    H131207   2.338   2.755   1.022
 3216TIP3    H231208   2.318   2.904   1.003
 3217TIP3   OH231209   5.353   1.113   1.930
 3217TIP3    H131210   5.306   1.196   1.943
 3217TIP3    H231211   5.298   1.065   1.868
 3218TIP3   OH231212   4.738   3.372   1.459
 3218TIP3    H131213   4.778   3.459   1.453
 3218TIP3    H231214   4.717   3.349   1.368
 3219TIP3   OH231215   2.534   1.323   7.982
 3219TIP3    H131216   2.474   1.260   7.942
 3219TIP3    H231217   2.614   1.315   7.930
 3220TIP3   OH231218   2.473   4.554   0.727
 3220TIP3    H131219   2.506   4.543   0.816
 3220TIP3    H231220   2.530   4.619   0.687
 3221TIP3   OH231221   2.757   0.990   1.974
 3221TIP3    H131222   2.758   1.037   2.057
 3221TIP3    H231223   2.750   1.059   1.907
 3222TIP3   OH231224   0.417   2.945   6.389
 3222TIP3    H131225   0.503   2.987   6.392
 3222TIP3    H231226   0.356   3.013   6.416
 3223TIP3   OH231227   3.384   1.805   1.521
 3223TIP3    H131228   3.342   1.720   1.535
 3223TIP3    H231229   3.361   1.856   1.599
 3224TIP3   OH231230   6.414   0.718   6.538
 3224TIP3    H131231   6.484   0.654   6.527
 3224TIP3    H231232   6.447   0.779   6.604
 3225TIP3   OH231233   1.083   3.664   0.399
 3225TIP3    H131234   1.056   3.582   0.357
 3225TIP3    H231235   1.019   3.728   0.369
 3226TIP3   OH231236   6.184   0.227   1.737
 3226TIP3    H131237   6.268   0.272   1.729
 3226TIP3    H231238   6.206   0.134   1.732
 3227TIP3   OH231239   1.135   3.048   0.148
 3227TIP3    H131240   1.069   3.093   0.094
 3227TIP3    H231241   1.086   3.016   0.223
 3228TIP3   OH231242   2.409   5.336   0.742
 3228TIP3    H131243   2.392   5.330   0.836
 3228TIP3    H231244   2.468   5.263   0.724
 3229TIP3   OH231245   3.126   2.107   7.649
 3229TIP3    H131246   3.221   2.100   7.654
 3229TIP3    H231247   3.102   2.060   7.569
 3230TIP3   OH231248   6.090   5.876   0.389
 3230TIP3    H131249   6.150   5.845   0.321
 3230TIP3    H231250   6.123   5.963   0.412
 3231TIP3   OH231251   4.231   6.729   0.271
 3231TIP3    H131252   4.237   6.825   0.276
 3231TIP3    H231253   4.253   6.699   0.359
 3232TIP3   OH231254   5.508   0.202   0.437
 3232TIP3    H131255   5.538   0.178   0.349
 3232TIP3    H231256   5.433   0.145   0.453
 3233TIP3   OH231257   1.229   2.210   7.567
 3233TIP3    H131258   1.273   2.126   7.581
 3233TIP3    H231259   1.270   2.245   7.488
 3234TIP3   OH231260   5.139   6.349   6.282
 3234TIP3    H131261   5.222   6.387   6.310
 3234TIP3    H231262   5.153   6.254   6.289
 3235TIP3   OH231263   5.326   1.590   0.414
 3235TIP3    H131264   5.319   1.684   0.400
 3235TIP3    H231265   5.236   1.560   0.425
 3236TIP3   OH231266   5.409   4.989   8.410
 3236TIP3    H131267   5.423   4.973   8.317
 3236TIP3    H231268   5.428   5.083   8.421
 3237TIP3   OH231269   0.844   4.422   7.835
 3237TIP3    H131270   0.799   4.414   7.919
 3237TIP3    H231271   0.929   4.460   7.856
 3238TIP3   OH231272   2.217   2.247   1.799
 3238TIP3    H131273   2.240   2.318   1.739
 3238TIP3    H231274   2.302   2.211   1.827
 3239TIP3   OH231275   1.630   0.510   6.665
 3239TIP3    H131276   1.640   0.417   6.683
 3239TIP3    H231277   1.718   0.538   6.639
 3240TIP3   OH231278   5.931   3.393   1.757
 3240TIP3    H131279   5.950   3.333   1.830
 3240TIP3    H231280   5.975   3.475   1.782
 3241TIP3   OH231281   0.717   6.633   7.977
 3241TIP3    H131282   0.751   6.672   8.058
 3241TIP3    H231283   0.759   6.683   7.907
 3242TIP3   OH231284   4.464   6.013   8.450
 3242TIP3    H131285   4.531   6.077   8.473
 3242TIP3    H231286   4.460   6.016   8.354
 3243TIP3   OH231287   4.135   5.151   7.229
 3243TIP3    H131288   4.183   5.153   7.146
 3243TIP3    H231289   4.104   5.241   7.240
 3244TIP3   OH231290   1.615   5.603   7.482
 3244TIP3    H131291   1.543   5.540   7.475
 3244TIP3    H231292   1.674   5.567   7.548
 3245TIP3   OH231293   2.275   3.311   8.194
 3245TIP3    H131294   2.279   3.376   8.264
 3245TIP3    H231295   2.191   3.268   8.206
 3246TIP3   OH231296   0.003   5.425   0.831
 3246TIP3    H131297   6.814   5.333   0.832
 3246TIP3    H231298   0.075   5.428   0.768
 3247TIP3   OH231299   1.146   1.091   0.744
 3247TIP3    H131300   1.216   1.142   0.785
 3247TIP3    H231301   1.146   1.119   0.653
 3248TIP3   OH231302   2.938   0.728   0.233
 3248TIP3    H131303   2.944   0.822   0.253
 3248TIP3    H231304   2.848   0.705   0.254
 3249TIP3   OH231305   3.771   0.393   7.621
 3249TIP3    H131306   3.733   0.457   7.681
 3249TIP3    H231307   3.858   0.375   7.656
 3250TIP3   OH231308   5.530   5.912   8.779
 3250TIP3    H131309   5.621   5.916   8.750
 3250TIP3    H231310   5.495   5.833   8.739
 3251TIP3   OH231311   5.182   6.472   2.085
 3251TIP3    H131312   5.090   6.458   2.106
 3251TIP3    H231313   5.186   6.562   2.053
 3252TIP3   OH231314   0.751   5.079   1.613
 3252TIP3    H131315   0.774   5.000   1.661
 3252TIP3    H231316   0.718   5.140   1.679
 3253TIP3   OH231317   3.084   1.827   1.337
 3253TIP3    H131318   3.089   1.820   1.241
 3253TIP3    H231319   3.115   1.742   1.368
 3254TIP3   OH231320   4.702   4.725   8.440
 3254TIP3    H131321   4.749   4.779   8.503
 3254TIP3    H231322   4.681   4.785   8.368
 3255TIP3   OH231323   5.098   2.384   6.292
 3255TIP3    H131324   5.073   2.444   6.362
 3255TIP3    H231325   5.038   2.405   6.220
 3256TIP3   OH231326   2.249   4.139   1.974
 3256TIP3    H131327   2.155   4.160   1.967
 3256TIP3    H231328   2.252   4.044   1.969
 3257TIP3   OH231329   6.731   0.301   0.755
 3257TIP3    H131330   6.807   0.256   0.719
 3257TIP3    H231331   6.745   0.393   0.731
 3258TIP3   OH231332   3.566   5.788   0.251
 3258TIP3    H131333   3.516   5.708   0.235
 3258TIP3    H231334   3.542   5.814   0.340
 3259TIP3   OH231335   2.226   4.955   0.530
 3259TIP3    H131336   2.315   4.941   0.564
 3259TIP3    H231337   2.239   5.000   0.446
 3260TIP3   OH231338   1.203   3.349   6.392
 3260TIP3    H131339   1.254   3.270   6.409
 3260TIP3    H231340   1.180   3.382   6.479
 3261TIP3   OH231341   6.170   5.332   0.173
 3261TIP3    H131342   6.180   5.264   0.241
 3261TIP3    H231343   6.143   5.283   0.095
 3262TIP3   OH231344   1.946   3.811   7.349
 3262TIP3    H131345   1.981   3.731   7.388
 3262TIP3    H231346   2.021   3.852   7.305
 3263TIP3   OH231347   6.303   3.462   7.072
 3263TIP3    H131348   6.276   3.501   6.989
 3263TIP3    H231349   6.278   3.526   7.138
 3264TIP3   OH231350   1.972   6.020   0.125
 3264TIP3    H131351   1.922   6.096   0.094
 3264TIP3    H231352   1.955   5.952   0.060
 3265TIP3   OH231353   4.469   0.492   6.474
 3265TIP3    H131354   4.380   0.525   6.469
 3265TIP3    H231355   4.516   0.557   6.526
 3266TIP3   OH231356   0.398   1.351   0.197
 3266TIP3    H131357   0.483   1.371   0.159
 3266TIP3    H231358   0.384   1.258   0.179
 3267TIP3   OH231359   5.519   6.017   7.873
 3267TIP3    H131360   5.535   6.042   7.782
 3267TIP3    H231361   5.437   5.967   7.870
 3268TIP3   OH231362   5.183   0.827   7.700
 3268TIP3    H131363   5.211   0.759   7.762
 3268TIP3    H231364   5.160   0.902   7.756
 3269TIP3   OH231365   2.449   2.219   1.553
 3269TIP3    H131366   2.467   2.251   1.642
 3269TIP3    H231367   2.391   2.144   1.567
 3270TIP3   OH231368   3.236   6.389   0.429
 3270TIP3    H131369   3.224   6.400   0.334
 3270TIP3    H231370   3.273   6.301   0.438
 3271TIP3   OH231371   3.667   3.790   7.831
 3271TIP3    H131372   3.711   3.707   7.813
 3271TIP3    H231373   3.734   3.844   7.874
 3272TIP3   OH231374   6.448   5.984   7.217
 3272TIP3    H131375   6.385   6.042   7.174
 3272TIP3    H231376   6.413   5.974   7.306
 3273TIP3   OH231377   6.716   1.590   8.354
 3273TIP3    H131378   6.659   1.639   8.414
 3273TIP3    H231379   6.752   1.520   8.408
 3274TIP3   OH231380   5.192   1.447   6.825
 3274TIP3    H131381   5.141   1.496   6.760
 3274TIP3    H231382   5.278   1.488   6.824
 3275TIP3   OH231383   0.687   2.102   8.408
 3275TIP3    H131384   0.613   2.095   8.347
 3275TIP3    H231385   0.651   2.078   8.493
 3276TIP3   OH231386   0.165   2.402   6.208
 3276TIP3    H131387   0.177   2.453   6.128
 3276TIP3    H231388   0.241   2.425   6.262
 3277TIP3   OH231389   6.344   6.499   0.863
 3277TIP3    H131390   6.270   6.559   0.852
 3277TIP3    H231391   6.364   6.501   0.956
 3278TIP3   OH231392   3.330   5.364   2.425
 3278TIP3    H131393   3.410   5.324   2.459
 3278TIP3    H231394   3.357   5.450   2.394
 3279TIP3   OH231395   0.190   1.374   7.686
 3279TIP3    H131396   0.132   1.434   7.639
 3279TIP3    H231397   0.220   1.424   7.761
 3280TIP3   OH231398   4.808   3.240   8.423
 3280TIP3    H131399   4.722   3.206   8.396
 3280TIP3    H231400   4.789   3.327   8.459
 3281TIP3   OH231401   2.382   1.124   7.875
 3281TIP3    H131402   2.432   1.049   7.843
 3281TIP3    H231403   2.296   1.088   7.897
 3282TIP3   OH231404   5.115   0.921   0.490
 3282TIP3    H131405   5.115   1.016   0.505
 3282TIP3    H231406   5.097   0.912   0.396
 3283TIP3   OH231407   4.529   2.266   8.442
 3283TIP3    H131408   4.467   2.194   8.439
 3283TIP3    H231409   4.516   2.305   8.529
 3284TIP3   OH231410   1.223   0.695   6.189
 3284TIP3    H131411   1.206   0.778   6.234
 3284TIP3    H231412   1.316   0.698   6.167
 3285TIP3   OH231413   2.426   2.204   7.714
 3285TIP3    H131414   2.469   2.288   7.731
 3285TIP3    H231415   2.353   2.203   7.776
 3286TIP3   OH231416   2.641   5.444   1.081
 3286TIP3    H131417   2.675   5.520   1.034
 3286TIP3    H231418   2.697   5.371   1.052
 3287TIP3   OH231419   0.286   4.364   7.017
 3287TIP3    H131420   0.316   4.451   6.992
 3287TIP3    H231421   0.283   4.315   6.934
 3288TIP3   OH231422   3.330   4.035   7.307
 3288TIP3    H131423   3.260   4.024   7.371
 3288TIP3    H231424   3.312   4.119   7.266
 3289TIP3   OH231425   1.047   5.426   0.738
 3289TIP3    H131426   1.139   5.446   0.722
 3289TIP3    H231427   1.039   5.424   0.834
 3290TIP3   OH231428   5.369   4.095   7.115
 3290TIP3    H131429   5.333   4.012   7.084
 3290TIP3    H231430   5.330   4.160   7.057
 3291TIP3   OH231431   6.000   0.497   1.264
 3291TIP3    H131432   6.077   0.472   1.315
 3291TIP3    H231433   5.939   0.424   1.275
 3292TIP3   OH231434   2.435   0.014   8.764
 3292TIP3    H131435   2.470   0.052   0.062
 3292TIP3    H231436   2.507   6.798   8.730
 3293TIP3   OH231437   3.715   6.722   1.347
 3293TIP3    H131438   3.717   6.790   1.413
 3293TIP3    H231439   3.635   6.672   1.365
 3294TIP3   OH231440   1.504   1.211   1.891
 3294TIP3    H131441   1.416   1.186   1.918
 3294TIP3    H231442   1.500   1.213   1.796
 3295TIP3   OH231443   5.897   4.757   1.582
 3295TIP3    H131444   5.951   4.738   1.505
 3295TIP3    H231445   5.906   4.680   1.638
 3296TIP3   OH231446   5.344   0.042   1.148
 3296TIP3    H131447   5.317   0.133   1.142
 3296TIP3    H231448   5.324   0.005   1.061
 3297TIP3   OH231449   2.216   6.118   7.849
 3297TIP3    H131450   2.286   6.116   7.914
 3297TIP3    H231451   2.209   6.210   7.824
 3298TIP3   OH231452   0.460   5.519   7.558
 3298TIP3    H131453   0.418   5.540   7.641
 3298TIP3    H231454   0.495   5.431   7.570
 3299TIP3   OH231455   4.295   5.696   0.602
 3299TIP3    H131456   4.239   5.771   0.620
 3299TIP3    H231457   4.257   5.657   0.523
 3300TIP3   OH231458   2.016   6.236   0.318
 3300TIP3    H131459   2.007   6.147   0.285
 3300TIP3    H231460   2.103   6.263   0.289
 3301TIP3   OH231461   4.033   5.784   7.097
 3301TIP3    H131462   3.977   5.736   7.037
 3301TIP3    H231463   3.974   5.842   7.145
 3302TIP3   OH231464   6.261   2.183   1.839
 3302TIP3    H131465   6.253   2.226   1.754
 3302TIP3    H231466   6.276   2.255   1.901
 3303TIP3   OH231467   3.317   5.811   2.078
 3303TIP3    H131468   3.251   5.824   2.010
 3303TIP3    H231469   3.340   5.719   2.072
 3304TIP3   OH231470   1.599   0.586   7.271
 3304TIP3    H131471   1.639   0.624   7.193
 3304TIP3    H231472   1.554   0.659   7.313
 3305TIP3   OH231473   1.587   6.522   0.179
 3305TIP3    H131474   1.619   6.447   0.228
 3305TIP3    H231475   1.662   6.553   0.130
 3306TIP3   OH231476   3.405   3.925   2.009
 3306TIP3    H131477   3.495   3.929   2.041
 3306TIP3    H231478   3.353   3.965   2.079
 3307TIP3   OH231479   5.644   1.481   2.098
 3307TIP3    H131480   5.732   1.476   2.063
 3307TIP3    H231481   5.656   1.511   2.189
 3308TIP3   OH231482   1.809   0.983   7.363
 3308TIP3    H131483   1.851   0.902   7.336
 3308TIP3    H231484   1.831   1.046   7.294
 3309TIP3   OH231485   0.945   5.923   8.672
 3309TIP3    H131486   0.934   5.862   8.599
 3309TIP3    H231487   0.906   6.005   8.640
 3310TIP3   OH231488   5.088   3.320   0.571
 3310TIP3    H131489   5.095   3.308   0.477
 3310TIP3    H231490   5.124   3.240   0.609
 3311TIP3   OH231491   4.237   4.023   1.823
 3311TIP3    H131492   4.313   4.078   1.800
 3311TIP3    H231493   4.168   4.086   1.844
 3312TIP3   OH231494   2.848   1.477   6.529
 3312TIP3    H131495   2.916   1.512   6.472
 3312TIP3    H231496   2.885   1.396   6.565
 3313TIP3   OH231497   5.357   1.067   0.050
 3313TIP3    H131498   5.387   1.144   0.003
 3313TIP3    H231499   5.285   1.099   0.105
 3314TIP3   OH231500   4.955   5.760   7.084
 3314TIP3    H131501   4.960   5.739   6.991
 3314TIP3    H231502   5.023   5.707   7.125
 3315TIP3   OH231503   3.320   2.812   1.031
 3315TIP3    H131504   3.381   2.874   0.991
 3315TIP3    H231505   3.375   2.760   1.090
 3316TIP3   OH231506   4.603   1.274   1.280
 3316TIP3    H131507   4.560   1.217   1.217
 3316TIP3    H231508   4.697   1.261   1.264
 3317TIP3   OH231509   3.258   4.756   6.667
 3317TIP3    H131510   3.232   4.673   6.704
 3317TIP3    H231511   3.344   4.739   6.627
 3318TIP3   OH231512   0.196   4.129   2.463
 3318TIP3    H131513   0.143   4.120   2.383
 3318TIP3    H231514   0.201   4.224   2.478
 3319TIP3   OH231515   4.737   3.766   1.121
 3319TIP3    H131516   4.711   3.698   1.059
 3319TIP3    H231517   4.691   3.844   1.091
 3320TIP3   OH231518   1.693   1.747   6.861
 3320TIP3    H131519   1.765   1.789   6.814
 3320TIP3    H231520   1.629   1.725   6.793
 3321TIP3   OH231521   3.657   6.358   0.284
 3321TIP3    H131522   3.589   6.403   0.234
 3321TIP3    H231523   3.732   6.355   0.225
 3322TIP3   OH231524   0.211   4.513   8.594
 3322TIP3    H131525   0.290   4.558   8.563
 3322TIP3    H231526   0.176   4.469   8.517
 3323TIP3   OH231527   1.603   5.827   6.884
 3323TIP3    H131528   1.554   5.816   6.966
 3323TIP3    H231529   1.692   5.802   6.906
 3324TIP3   OH231530   1.651   1.538   0.774
 3324TIP3    H131531   1.636   1.555   0.681
 3324TIP3    H231532   1.620   1.448   0.787
 3325TIP3   OH231533   3.066   0.316   1.278
 3325TIP3    H131534   2.973   0.325   1.300
 3325TIP3    H231535   3.089   0.228   1.308
 3326TIP3   OH231536   3.150   5.992   7.620
 3326TIP3    H131537   3.154   6.079   7.579
 3326TIP3    H231538   3.113   5.936   7.552
 3327TIP3   OH231539   0.268   4.145   0.996
 3327TIP3    H131540   0.209   4.136   1.071
 3327TIP3    H231541   0.340   4.085   1.016
 3328TIP3   OH231542   5.228   3.195   0.056
 3328TIP3    H131543   5.207   3.102   0.066
 3328TIP3    H231544   5.245   3.206   8.745
 3329TIP3   OH231545   3.201   6.083   0.725
 3329TIP3    H131546   3.188   6.005   0.671
 3329TIP3    H231547   3.115   6.126   0.726
 3330TIP3   OH231548   5.740   0.587   6.868
 3330TIP3    H131549   5.789   0.535   6.805
 3330TIP3    H231550   5.804   0.647   6.906
 3331TIP3   OH231551   6.721   2.841   7.490
 3331TIP3    H131552   6.814   2.828   7.508
 3331TIP3    H231553   6.714   2.934   7.467
 3332TIP3   OH231554   4.214   4.939   0.714
 3332TIP3    H131555   4.148   4.997   0.675
 3332TIP3    H231556   4.212   4.960   0.807
 3333TIP3   OH231557   6.642   5.635   7.996
 3333TIP3    H131558   6.587   5.669   8.066
 3333TIP3    H231559   6.587   5.641   7.918
 3334TIP3   OH231560   4.971   5.527   8.451
 3334TIP3    H131561   4.899   5.464   8.447
 3334TIP3    H231562   5.048   5.478   8.423
 3335TIP3   OH231563   2.433   1.487   0.839
 3335TIP3    H131564   2.366   1.506   0.905
 3335TIP3    H231565   2.510   1.537   0.867
 3336TIP3   OH231566   2.348   1.274   0.685
 3336TIP3    H131567   2.317   1.191   0.722
 3336TIP3    H231568   2.325   1.339   0.751
 3337TIP3   OH231569   1.934   1.670   1.944
 3337TIP3    H131570   1.973   1.587   1.915
 3337TIP3    H231571   1.902   1.651   2.032
 3338TIP3   OH231572   0.079   0.755   8.032
 3338TIP3    H131573   0.041   0.690   7.973
 3338TIP3    H231574   0.152   0.792   7.983
 3339TIP3   OH231575   3.343   1.415   7.774
 3339TIP3    H131576   3.365   1.490   7.720
 3339TIP3    H231577   3.250   1.400   7.758
 3340TIP3   OH231578   4.830   0.289   0.284
 3340TIP3    H131579   4.881   0.370   0.285
 3340TIP3    H231580   4.895   0.219   0.277
 3341TIP3   OH231581   3.964   0.734   1.347
 3341TIP3    H131582   3.920   0.780   1.418
 3341TIP3    H231583   4.023   0.798   1.309
 3342TIP3   OH231584   6.519   2.645   1.057
 3342TIP3    H131585   6.517   2.550   1.045
 3342TIP3    H231586   6.450   2.678   0.998
 3343TIP3   OH231587   4.399   6.793   7.665
 3343TIP3    H131588   4.420   6.700   7.665
 3343TIP3    H231589   4.483   6.837   7.678
 3344TIP3   OH231590   2.813   5.020   0.003
 3344TIP3    H131591   2.841   4.937   0.041
 3344TIP3    H231592   2.718   5.020   0.013
 3345TIP3   OH231593   3.807   0.439   0.110
 3345TIP3    H131594   3.884   0.496   0.106
 3345TIP3    H231595   3.752   0.468   0.037
 3346TIP3   OH231596   5.601   1.338   8.159
 3346TIP3    H131597   5.683   1.343   8.208
 3346TIP3    H231598   5.622   1.378   8.074
 3347TIP3   OH231599   0.623   1.985   7.061
 3347TIP3    H131600   0.597   1.899   7.029
 3347TIP3    H231601   0.713   1.995   7.033
 3348TIP3   OH231602   3.784   5.687   7.424
 3348TIP3    H131603   3.754   5.765   7.378
 3348TIP3    H231604   3.876   5.677   7.398
 3349TIP3   OH231605   5.291   2.039   0.313
 3349TIP3    H131606   5.300   1.985   0.392
 3349TIP3    H231607   5.367   2.096   0.313
 3350TIP3   OH231608   1.872   3.459   7.898
 3350TIP3    H131609   1.951   3.483   7.849
 3350TIP3    H231610   1.841   3.541   7.935
 3351TIP3   OH231611   5.600   3.500   1.304
 3351TIP3    H131612   5.636   3.432   1.247
 3351TIP3    H231613   5.646   3.580   1.279
 3352TIP3   OH231614   4.313   2.651   0.628
 3352TIP3    H131615   4.268   2.574   0.663
 3352TIP3    H231616   4.391   2.615   0.585
 3353TIP3   OH231617   6.246   1.308   1.709
 3353TIP3    H131618   6.265   1.260   1.627
 3353TIP3    H231619   6.313   1.377   1.712
 3354TIP3   OH231620   4.761   3.110   7.724
 3354TIP3    H131621   4.757   3.079   7.815
 3354TIP3    H231622   4.686   3.068   7.682
 3355TIP3   OH231623   1.812   0.021   0.976
 3355TIP3    H131624   1.764   6.794   1.027
 3355TIP3    H231625   1.786   0.105   1.014
 3356TIP3   OH231626   4.040   6.551   0.726
 3356TIP3    H131627   4.085   6.558   0.810
 3356TIP3    H231628   4.053   6.460   0.698
 3357TIP3   OH231629   2.944   2.147   1.202
 3357TIP3    H131630   2.908   2.226   1.241
 3357TIP3    H231631   3.036   2.147   1.227
 3358TIP3   OH231632   2.175   0.339   8.619
 3358TIP3    H131633   2.194   0.423   8.661
 3358TIP3    H231634   2.152   0.361   8.529
 3359TIP3   OH231635   3.489   6.775   0.793
 3359TIP3    H131636   3.403   6.735   0.784
 3359TIP3    H231637   3.499   6.827   0.713
 3360TIP3   OH231638   2.750   4.619   7.021
 3360TIP3    H131639   2.799   4.661   6.950
 3360TIP3    H231640   2.816   4.591   7.083
 3361TIP3   OH231641   0.240   4.117   7.125
 3361TIP3    H131642   0.250   4.205   7.089
 3361TIP3    H231643   0.329   4.081   7.125
 3362TIP3   OH231644   6.483   4.308   8.517
 3362TIP3    H131645   6.557   4.247   8.519
 3362TIP3    H231646   6.416   4.267   8.570
 3363TIP3   OH231647   4.210   5.481   8.083
 3363TIP3    H131648   4.211   5.530   8.165
 3363TIP3    H231649   4.161   5.402   8.103
 3364TIP3   OH231650   1.365   1.969   7.587
 3364TIP3    H131651   1.442   1.951   7.534
 3364TIP3    H231652   1.301   1.903   7.560
 3365TIP3   OH231653   2.969   3.249   0.321
 3365TIP3    H131654   3.037   3.283   0.379
 3365TIP3    H231655   2.889   3.293   0.350
 3366TIP3   OH231656   3.858   2.752   2.614
 3366TIP3    H131657   3.799   2.770   2.540
 3366TIP3    H231658   3.799   2.741   2.689
 3367TIP3   OH231659   5.472   2.624   7.222
 3367TIP3    H131660   5.543   2.647   7.282
 3367TIP3    H231661   5.494   2.669   7.140
 3368TIP3   OH231662   2.194   3.148   8.695
 3368TIP3    H131663   2.287   3.167   8.711
 3368TIP3    H231664   2.160   3.121   8.780
 3369TIP3   OH231665   5.841   2.715   1.747
 3369TIP3    H131666   5.894   2.705   1.826
 3369TIP3    H231667   5.878   2.791   1.702
 3370TIP3   OH231668   2.853   6.100   8.749
 3370TIP3    H131669   2.812   6.044   0.032
 3370TIP3    H231670   2.781   6.152   8.713
 3371TIP3   OH231671   2.672   0.751   2.698
 3371TIP3    H131672   2.694   0.843   2.691
 3371TIP3    H231673   2.744   0.705   2.654
 3372TIP3   OH231674   1.219   4.549   0.203
 3372TIP3    H131675   1.261   4.598   0.273
 3372TIP3    H231676   1.285   4.546   0.133
 3373TIP3   OH231677   6.127   4.971   1.342
 3373TIP3    H131678   6.217   4.969   1.308
 3373TIP3    H231679   6.127   4.908   1.414
 3374TIP3   OH231680   5.244   0.294   1.044
 3374TIP3    H131681   5.201   0.365   1.093
 3374TIP3    H231682   5.223   0.312   0.953
 3375TIP3   OH231683   2.958   4.097   2.799
 3375TIP3    H131684   3.016   4.170   2.778
 3375TIP3    H231685   3.014   4.033   2.843
 3376TIP3   OH231686   4.723   2.589   1.265
 3376TIP3    H131687   4.698   2.503   1.297
 3376TIP3    H231688   4.783   2.623   1.331
 3377TIP3   OH231689   6.796   5.871   0.520
 3377TIP3    H131690   6.762   5.804   0.580
 3377TIP3    H231691   6.745   5.949   0.541
 3378TIP3   OH231692   1.362   0.255   8.258
 3378TIP3    H131693   1.389   0.193   8.326
 3378TIP3    H231694   1.383   0.211   8.176
 3379TIP3   OH231695   5.494   0.777   7.094
 3379TIP3    H131696   5.482   0.842   7.025
 3379TIP3    H231697   5.411   0.729   7.096
 3380TIP3   OH231698   3.294   3.666   1.566
 3380TIP3    H131699   3.294   3.604   1.639
 3380TIP3    H231700   3.305   3.752   1.608
 3381TIP3   OH231701   0.858   1.042   6.610
 3381TIP3    H131702   0.790   0.977   6.597
 3381TIP3    H231703   0.937   0.991   6.626
 3382TIP3   OH231704   3.643   0.441   6.665
 3382TIP3    H131705   3.733   0.417   6.688
 3382TIP3    H231706   3.590   0.366   6.691
 3383TIP3   OH231707   2.427   1.251   0.997
 3383TIP3    H131708   2.466   1.288   0.918
 3383TIP3    H231709   2.491   1.187   1.028
 3384TIP3   OH231710   2.596   6.697   7.873
 3384TIP3    H131711   2.600   6.791   7.889
 3384TIP3    H231712   2.527   6.665   7.931
 3385TIP3   OH231713   6.280   2.464   8.011
 3385TIP3    H131714   6.222   2.425   7.946
 3385TIP3    H231715   6.279   2.558   7.991
 3386TIP3   OH231716   4.862   3.034   8.006
 3386TIP3    H131717   4.772   3.009   8.023
 3386TIP3    H231718   4.882   3.100   8.073
 3387TIP3   OH231719   5.436   1.683   1.694
 3387TIP3    H131720   5.408   1.770   1.723
 3387TIP3    H231721   5.458   1.637   1.775
 3388TIP3   OH231722   6.080   0.269   0.489
 3388TIP3    H131723   6.060   0.362   0.476
 3388TIP3    H231724   6.025   0.224   0.424
 3389TIP3   OH231725   5.138   2.991   7.822
 3389TIP3    H131726   5.152   3.084   7.835
 3389TIP3    H231727   5.068   2.968   7.883
 3390TIP3   OH231728   6.702   3.091   2.321
 3390TIP3    H131729   6.795   3.069   2.307
 3390TIP3    H231730   6.697   3.120   2.411
 3391TIP3   OH231731   4.701   5.513   2.033
 3391TIP3    H131732   4.679   5.549   2.119
 3391TIP3    H231733   4.629   5.456   2.010
 3392TIP3   OH231734   5.115   5.300   8.283
 3392TIP3    H131735   5.135   5.278   8.192
 3392TIP3    H231736   5.199   5.328   8.320
 3393TIP3   OH231737   4.721   1.803   2.166
 3393TIP3    H131738   4.779   1.768   2.234
 3393TIP3    H231739   4.748   1.758   2.086
 3394TIP3   OH231740   1.900   0.164   1.607
 3394TIP3    H131741   1.817   0.178   1.653
 3394TIP3    H231742   1.876   0.160   1.514
 3395TIP3   OH231743   3.819   2.406   7.585
 3395TIP3    H131744   3.783   2.445   7.505
 3395TIP3    H231745   3.888   2.347   7.553
 3396TIP3   OH231746   1.252   0.512   0.531
 3396TIP3    H131747   1.167   0.473   0.510
 3396TIP3    H231748   1.315   0.462   0.479
 3397TIP3   OH231749   2.903   3.972   7.737
 3397TIP3    H131750   2.988   3.931   7.752
 3397TIP3    H231751   2.911   4.060   7.773
 3398TIP3   OH231752   0.313   2.350   0.687
 3398TIP3    H131753   0.235   2.313   0.645
 3398TIP3    H231754   0.281   2.428   0.732
 3399TIP3   OH231755   2.862   1.229   8.573
 3399TIP3    H131756   2.861   1.153   8.514
 3399TIP3    H231757   2.837   1.303   8.518
 3400TIP3   OH231758   6.366   0.938   2.567
 3400TIP3    H131759   6.339   0.849   2.585
 3400TIP3    H231760   6.312   0.965   2.492
 3401TIP3   OH231761   4.915   6.466   8.233
 3401TIP3    H131762   4.892   6.494   8.144
 3401TIP3    H231763   4.840   6.416   8.264
 3402TIP3   OH231764   5.183   1.304   2.046
 3402TIP3    H131765   5.140   1.255   1.976
 3402TIP3    H231766   5.120   1.373   2.068
 3403TIP3   OH231767   5.150   6.247   8.735
 3403TIP3    H131768   5.220   6.307   8.761
 3403TIP3    H231769   5.192   6.186   8.673
 3404TIP3   OH231770   6.467   4.962   2.350
 3404TIP3    H131771   6.442   4.904   2.422
 3404TIP3    H231772   6.479   5.047   2.392
 3405TIP3   OH231773   0.891   5.869   1.268
 3405TIP3    H131774   0.935   5.883   1.184
 3405TIP3    H231775   0.832   5.796   1.253
 3406TIP3   OH231776   3.626   5.677   0.773
 3406TIP3    H131777   3.584   5.617   0.835
 3406TIP3    H231778   3.710   5.636   0.754
 3407TIP3   OH231779   1.456   4.282   2.354
 3407TIP3    H131780   1.436   4.189   2.347
 3407TIP3    H231781   1.492   4.305   2.268
 3408TIP3   OH231782   6.318   6.320   8.682
 3408TIP3    H131783   6.323   6.353   8.772
 3408TIP3    H231784   6.227   6.291   8.673
 3409TIP3   OH231785   2.596   6.568   2.259
 3409TIP3    H131786   2.583   6.479   2.293
 3409TIP3    H231787   2.596   6.623   2.338
 3410TIP3   OH231788   1.076   3.133   7.484
 3410TIP3    H131789   1.109   3.069   7.422
 3410TIP3    H231790   1.125   3.117   7.565
 3411TIP3   OH231791   3.268   2.865   0.287
 3411TIP3    H131792   3.279   2.916   0.367
 3411TIP3    H231793   3.181   2.825   0.296
 3412TIP3   OH231794   3.505   3.477   7.622
 3412TIP3    H131795   3.486   3.517   7.537
 3412TIP3    H231796   3.568   3.536   7.662
 3413TIP3   OH231797   6.833   3.889   1.827
 3413TIP3    H131798   6.778   3.813   1.845
 3413TIP3    H231799   0.057   3.892   1.899
 3414TIP3   OH231800   0.213   4.177   0.541
 3414TIP3    H131801   0.272   4.144   0.473
 3414TIP3    H231802   0.176   4.099   0.580
 3415TIP3   OH231803   6.368   3.910   1.239
 3415TIP3    H131804   6.339   3.933   1.151
 3415TIP3    H231805   6.431   3.979   1.262
 3416TIP3   OH231806   2.767   0.319   1.237
 3416TIP3    H131807   2.748   0.287   1.149
 3416TIP3    H231808   2.729   0.252   1.295
 3417TIP3   OH231809   5.804   4.742   7.641
 3417TIP3    H131810   5.757   4.763   7.561
 3417TIP3    H231811   5.748   4.776   7.711
 3418TIP3   OH231812   3.908   0.624   6.706
 3418TIP3    H131813   3.902   0.639   6.612
 3418TIP3    H231814   3.870   0.703   6.745
 3419TIP3   OH231815   1.573   5.834   7.273
 3419TIP3    H131816   1.568   5.813   7.367
 3419TIP3    H231817   1.641   5.775   7.239
 3420TIP3   OH231818   4.626   1.608   0.739
 3420TIP3    H131819   4.716   1.632   0.760
 3420TIP3    H231820   4.604   1.540   0.801
 3421TIP3   OH231821   6.407   3.307   0.106
 3421TIP3    H131822   6.318   3.343   0.099
 3421TIP3    H231823   6.416   3.286   0.199
 3422TIP3   OH231824   4.803   4.633   0.285
 3422TIP3    H131825   4.874   4.608   0.226
 3422TIP3    H231826   4.723   4.613   0.235
 3423TIP3   OH231827   1.299   2.539   7.888
 3423TIP3    H131828   1.240   2.540   7.964
 3423TIP3    H231829   1.243   2.513   7.815
 3424TIP3   OH231830   6.462   4.728   8.314
 3424TIP3    H131831   6.521   4.689   8.378
 3424TIP3    H231832   6.385   4.671   8.313
 3425TIP3   OH231833   4.914   1.099   0.417
 3425TIP3    H131834   4.838   1.157   0.414
 3425TIP3    H231835   4.884   1.022   0.466
 3426TIP3   OH231836   6.223   0.431   1.408
 3426TIP3    H131837   6.309   0.400   1.381
 3426TIP3    H231838   6.235   0.460   1.498
 3427TIP3   OH231839   1.693   6.609   2.183
 3427TIP3    H131840   1.716   6.700   2.204
 3427TIP3    H231841   1.718   6.559   2.261
 3428TIP3   OH231842   2.303   5.605   2.075
 3428TIP3    H131843   2.284   5.577   2.165
 3428TIP3    H231844   2.265   5.692   2.068
 3429TIP3   OH231845   1.965   1.651   0.067
 3429TIP3    H131846   1.917   1.647   0.149
 3429TIP3    H231847   2.043   1.597   0.081
 3430TIP3   OH231848   1.914   1.233   1.681
 3430TIP3    H131849   1.871   1.292   1.620
 3430TIP3    H231850   1.980   1.286   1.724
 3431TIP3   OH231851   4.257   2.285   8.185
 3431TIP3    H131852   4.283   2.321   8.100
 3431TIP3    H231853   4.280   2.352   8.249
 3432TIP3   OH231854   2.469   5.768   0.026
 3432TIP3    H131855   2.489   5.736   0.115
 3432TIP3    H231856   2.381   5.733   0.008
 3433TIP3   OH231857   1.184   5.172   7.209
 3433TIP3    H131858   1.223   5.246   7.256
 3433TIP3    H231859   1.256   5.139   7.154
 3434TIP3   OH231860   3.643   3.910   0.168
 3434TIP3    H131861   3.607   3.956   0.244
 3434TIP3    H231862   3.669   3.824   0.202
 3435TIP3   OH231863   1.141   5.784   0.065
 3435TIP3    H131864   1.077   5.836   0.015
 3435TIP3    H231865   1.088   5.737   0.129
 3436TIP3   OH231866   6.706   3.101   0.268
 3436TIP3    H131867   6.710   3.153   0.348
 3436TIP3    H231868   6.766   3.028   0.283
 3437TIP3   OH231869   5.568   0.228   0.021
 3437TIP3    H131870   5.513   0.189   8.736
 3437TIP3    H231871   5.507   0.252   0.091
 3438TIP3   OH231872   4.970   3.361   1.826
 3438TIP3    H131873   4.899   3.386   1.886
 3438TIP3    H231874   4.962   3.265   1.818
 3439TIP3   OH231875   5.926   6.010   7.328
 3439TIP3    H131876   5.841   6.032   7.367
 3439TIP3    H231877   5.952   5.929   7.371
 3440TIP3   OH231878   1.561   4.180   7.707
 3440TIP3    H131879   1.496   4.238   7.668
 3440TIP3    H231880   1.639   4.234   7.719
 3441TIP3   OH231881   3.623   3.976   1.741
 3441TIP3    H131882   3.640   4.063   1.707
 3441TIP3    H231883   3.689   3.963   1.810
 3442TIP3   OH231884   4.179   4.007   6.770
 3442TIP3    H131885   4.118   4.021   6.843
 3442TIP3    H231886   4.151   3.923   6.732
 3443TIP3   OH231887   5.891   4.272   1.482
 3443TIP3    H131888   5.802   4.301   1.502
 3443TIP3    H231889   5.880   4.184   1.446
 3444TIP3   OH231890   5.516   4.955   1.713
 3444TIP3    H131891   5.513   5.050   1.703
 3444TIP3    H231892   5.465   4.938   1.792
 3445TIP3   OH231893   3.791   2.941   1.278
 3445TIP3    H131894   3.783   3.033   1.301
 3445TIP3    H231895   3.867   2.938   1.219
 3446TIP3   OH231896   3.578   4.323   0.714
 3446TIP3    H131897   3.611   4.410   0.692
 3446TIP3    H231898   3.483   4.329   0.703
 3447TIP3   OH231899   4.847   1.680   1.126
 3447TIP3    H131900   4.876   1.703   1.038
 3447TIP3    H231901   4.752   1.670   1.119
 3448TIP3   OH231902   4.907   5.721   8.626
 3448TIP3    H131903   4.936   5.661   8.557
 3448TIP3    H231904   4.822   5.687   8.654
 3449TIP3   OH231905   3.709   6.237   6.924
 3449TIP3    H131906   3.650   6.182   6.871
 3449TIP3    H231907   3.697   6.205   7.013
 3450TIP3   OH231908   4.076   3.870   0.651
 3450TIP3    H131909   4.016   3.901   0.583
 3450TIP3    H231910   4.048   3.917   0.730
 3451TIP3   OH231911   0.777   4.452   0.045
 3451TIP3    H131912   0.866   4.481   0.064
 3451TIP3    H231913   0.788   4.376   8.770
 3452TIP3   OH231914   3.950   5.799   1.611
 3452TIP3    H131915   3.953   5.820   1.517
 3452TIP3    H231916   3.857   5.782   1.628
 3453TIP3   OH231917   4.844   5.887   7.304
 3453TIP3    H131918   4.884   5.864   7.220
 3453TIP3    H231919   4.766   5.832   7.309
 3454TIP3   OH231920   1.385   3.476   8.267
 3454TIP3    H131921   1.372   3.566   8.296
 3454TIP3    H231922   1.476   3.473   8.236
 3455TIP3   OH231923   0.699   4.573   0.482
 3455TIP3    H131924   0.785   4.531   0.479
 3455TIP3    H231925   0.689   4.600   0.573
 3456TIP3   OH231926   1.869   0.532   7.152
 3456TIP3    H131927   1.786   0.497   7.120
 3456TIP3    H231928   1.933   0.507   7.086
 3457TIP3   OH231929   5.764   2.353   7.716
 3457TIP3    H131930   5.757   2.266   7.755
 3457TIP3    H231931   5.831   2.345   7.649
 3458TIP3   OH231932   0.603   6.235   6.980
 3458TIP3    H131933   0.633   6.179   7.052
 3458TIP3    H231934   0.508   6.237   6.988
 3459TIP3   OH231935   1.419   1.904   6.702
 3459TIP3    H131936   1.373   1.937   6.625
 3459TIP3    H231937   1.446   1.816   6.677
 3460TIP3   OH231938   4.448   4.660   0.765
 3460TIP3    H131939   4.355   4.640   0.772
 3460TIP3    H231940   4.481   4.655   0.855
 3461TIP3   OH231941   2.700   2.021   7.470
 3461TIP3    H131942   2.737   2.014   7.383
 3461TIP3    H231943   2.776   2.033   7.528
 3462TIP3   OH231944   2.184   5.112   7.628
 3462TIP3    H131945   2.203   5.066   7.710
 3462TIP3    H231946   2.189   5.205   7.650
 3463TIP3   OH231947   5.614   0.526   0.908
 3463TIP3    H131948   5.536   0.581   0.910
 3463TIP3    H231949   5.664   0.558   0.833
 3464TIP3   OH231950   3.179   2.939   7.685
 3464TIP3    H131951   3.113   3.008   7.694
 3464TIP3    H231952   3.159   2.878   7.757
 3465TIP3   OH231953   6.787   4.273   7.880
 3465TIP3    H131954   6.705   4.294   7.925
 3465TIP3    H231955   6.831   4.357   7.868
 3466TIP3   OH231956   3.095   4.941   7.693
 3466TIP3    H131957   3.043   4.973   7.620
 3466TIP3    H231958   3.031   4.924   7.763
 3467TIP3   OH231959   6.722   6.101   7.708
 3467TIP3    H131960   6.770   6.031   7.665
 3467TIP3    H231961   6.680   6.150   7.637
 3468TIP3   OH231962   0.154   1.619   7.104
 3468TIP3    H131963   0.127   1.543   7.052
 3468TIP3    H231964   0.074   1.673   7.110
 3469TIP3   OH231965   0.079   4.088   0.190
 3469TIP3    H131966   0.172   4.089   0.213
 3469TIP3    H231967   0.042   4.162   0.239
 3470TIP3   OH231968   1.835   1.822   2.315
 3470TIP3    H131969   1.801   1.778   2.393
 3470TIP3    H231970   1.826   1.757   2.245
 3471TIP3   OH231971   6.310   2.144   7.147
 3471TIP3    H131972   6.261   2.089   7.209
 3471TIP3    H231973   6.402   2.120   7.162
 3472TIP3   OH231974   3.419   3.724   7.446
 3472TIP3    H131975   3.493   3.730   7.386
 3472TIP3    H231976   3.419   3.809   7.491
 3473TIP3   OH231977   3.066   5.892   7.913
 3473TIP3    H131978   3.159   5.871   7.919
 3473TIP3    H231979   3.058   5.945   7.834
 3474TIP3   OH231980   6.417   3.649   6.178
 3474TIP3    H131981   6.368   3.728   6.157
 3474TIP3    H231982   6.502   3.680   6.209
 3475TIP3   OH231983   3.362   5.235   7.321
 3475TIP3    H131984   3.434   5.263   7.377
 3475TIP3    H231985   3.346   5.144   7.345
 3476TIP3   OH231986   2.642   4.051   8.147
 3476TIP3    H131987   2.624   4.095   8.230
 3476TIP3    H231988   2.574   3.984   8.140
 3477TIP3   OH231989   4.943   6.566   0.902
 3477TIP3    H131990   4.849   6.548   0.905
 3477TIP3    H231991   4.973   6.554   0.992
 3478TIP3   OH231992   1.204   4.103   8.583
 3478TIP3    H131993   1.150   4.032   8.548
 3478TIP3    H231994   1.285   4.060   8.611
 3479TIP3   OH231995   1.915   6.790   7.090
 3479TIP3    H131996   1.875   6.779   7.004
 3479TIP3    H231997   1.996   0.000   7.073
 3480TIP3   OH231998   5.439   3.786   0.824
 3480TIP3    H131999   5.503   3.718   0.801
 3480TIP3    H232000   5.462   3.811   0.913
 3481TIP3   OH232001   0.829   6.674   1.396
 3481TIP3    H132002   0.822   6.586   1.357
 3481TIP3    H232003   0.872   6.726   1.328
 3482TIP3   OH232004   1.328   5.123   0.331
 3482TIP3    H132005   1.274   5.050   0.299
 3482TIP3    H232006   1.265   5.190   0.357
 3483TIP3   OH232007   6.722   2.828   7.770
 3483TIP3    H132008   6.724   2.733   7.786
 3483TIP3    H232009   6.715   2.835   7.675
 3484TIP3   OH232010   4.285   0.742   2.282
 3484TIP3    H132011   4.202   0.694   2.294
 3484TIP3    H232012   4.265   0.808   2.215
 3485TIP3   OH232013   5.566   5.219   1.353
 3485TIP3    H132014   5.617   5.275   1.412
 3485TIP3    H232015   5.619   5.140   1.344
 3486TIP3   OH232016   3.868   1.192   8.553
 3486TIP3    H132017   3.951   1.155   8.524
 3486TIP3    H232018   3.825   1.220   8.472
 3487TIP3   OH232019   4.448   2.752   7.362
 3487TIP3    H132020   4.406   2.767   7.447
 3487TIP3    H232021   4.462   2.840   7.327
 3488TIP3   OH232022   0.316   0.918   6.313
 3488TIP3    H132023   0.385   0.944   6.252
 3488TIP3    H232024   0.327   0.824   6.324
 3489TIP3   OH232025   4.967   2.801   0.620
 3489TIP3    H132026   4.875   2.786   0.596
 3489TIP3    H232027   5.009   2.826   0.538
 3490TIP3   OH232028   3.771   3.201   1.360
 3490TIP3    H132029   3.687   3.236   1.390
 3490TIP3    H232030   3.810   3.273   1.311
 3491TIP3   OH232031   5.916   1.184   2.050
 3491TIP3    H132032   5.955   1.142   2.126
 3491TIP3    H232033   5.822   1.183   2.067
 3492TIP3   OH232034   3.311   2.216   8.295
 3492TIP3    H132035   3.257   2.137   8.291
 3492TIP3    H232036   3.250   2.286   8.314
 3493TIP3   OH232037   4.048   2.572   7.658
 3493TIP3    H132038   4.023   2.605   7.744
 3493TIP3    H232039   3.986   2.502   7.639
 3494TIP3   OH232040   5.369   1.468   8.623
 3494TIP3    H132041   5.290   1.414   8.629
 3494TIP3    H232042   5.352   1.542   8.681
 3495TIP3   OH232043   5.298   4.537   1.766
 3495TIP3    H132044   5.235   4.503   1.830
 3495TIP3    H232045   5.354   4.596   1.816
 3496TIP3   OH232046   2.537   6.180   1.236
 3496TIP3    H132047   2.598   6.242   1.195
 3496TIP3    H232048   2.589   6.138   1.306
 3497TIP3   OH232049   3.473   5.577   0.997
 3497TIP3    H132050   3.470   5.509   1.064
 3497TIP3    H232051   3.382   5.606   0.988
 3498TIP3   OH232052   4.462   4.235   6.667
 3498TIP3    H132053   4.540   4.212   6.717
 3498TIP3    H232054   4.462   4.331   6.665
 3499TIP3   OH232055   6.403   4.984   8.576
 3499TIP3    H132056   6.470   4.949   8.517
 3499TIP3    H232057   6.323   4.937   8.552
 3500TIP3   OH232058   2.759   3.678   8.164
 3500TIP3    H132059   2.802   3.705   8.083
 3500TIP3    H232060   2.821   3.619   8.206
 3501TIP3   OH232061   2.361   5.051   2.021
 3501TIP3    H132062   2.276   5.027   2.056
 3501TIP3    H232063   2.380   5.137   2.059
 3502TIP3   OH232064   1.575   3.971   2.042
 3502TIP3    H132065   1.650   3.958   1.984
 3502TIP3    H232066   1.611   3.966   2.130
 3503TIP3   OH232067   3.042   1.533   7.509
 3503TIP3    H132068   2.993   1.464   7.554
 3503TIP3    H232069   3.087   1.487   7.438
 3504TIP3   OH232070   6.680   1.677   7.236
 3504TIP3    H132071   6.628   1.633   7.304
 3504TIP3    H232072   6.651   1.636   7.154
 3505TIP3   OH232073   2.398   0.580   8.557
 3505TIP3    H132074   2.316   0.617   8.522
 3505TIP3    H232075   2.425   0.516   8.492
 3506TIP3   OH232076   3.218   1.164   8.344
 3506TIP3    H132077   3.141   1.115   8.316
 3506TIP3    H232078   3.233   1.228   8.274
 3507TIP3   OH232079   6.398   3.658   0.388
 3507TIP3    H132080   6.409   3.745   0.427
 3507TIP3    H232081   6.378   3.675   0.296
 3508TIP3   OH232082   4.381   2.922   7.570
 3508TIP3    H132083   4.452   2.969   7.526
 3508TIP3    H232084   4.323   2.990   7.604
 3509TIP3   OH232085   2.567   0.716   1.023
 3509TIP3    H132086   2.635   0.653   1.047
 3509TIP3    H232087   2.499   0.704   1.089
 3510TIP3   OH232088   1.907   1.761   1.446
 3510TIP3    H132089   1.878   1.776   1.536
 3510TIP3    H232090   1.932   1.848   1.414
 3511TIP3   OH232091   4.273   6.803   0.892
 3511TIP3    H132092   4.225   0.005   0.963
 3511TIP3    H232093   4.260   0.022   0.817
 3512TIP3   OH232094   6.110   1.623   1.515
 3512TIP3    H132095   6.062   1.540   1.509
 3512TIP3    H232096   6.202   1.597   1.512
 3513TIP3   OH232097   5.916   4.401   0.487
 3513TIP3    H132098   6.005   4.429   0.464
 3513TIP3    H232099   5.921   4.378   0.580
 3514TIP3   OH232100   1.304   5.912   7.201
 3514TIP3    H132101   1.310   5.993   7.253
 3514TIP3    H232102   1.375   5.857   7.235
 3515TIP3   OH232103   4.550   3.347   1.684
 3515TIP3    H132104   4.596   3.358   1.601
 3515TIP3    H232105   4.473   3.403   1.676
 3516TIP3   OH232106   3.740   6.584   2.793
 3516TIP3    H132107   3.693   6.504   2.769
 3516TIP3    H232108   3.698   6.653   2.741
 3517TIP3   OH232109   0.906   4.028   1.620
 3517TIP3    H132110   0.893   4.068   1.705
 3517TIP3    H232111   0.893   4.099   1.557
 3518TIP3   OH232112   2.019   0.979   0.376
 3518TIP3    H132113   1.940   0.982   0.430
 3518TIP3    H232114   2.090   0.999   0.438
 3519TIP3   OH232115   1.979   0.708   7.569
 3519TIP3    H132116   2.069   0.714   7.601
 3519TIP3    H232117   1.986   0.721   7.475
 3520TIP3   OH232118   0.816   0.347   8.411
 3520TIP3    H132119   0.752   0.387   8.469
 3520TIP3    H232120   0.847   0.419   8.356
 3521TIP3   OH232121   6.695   5.948   2.224
 3521TIP3    H132122   6.725   5.877   2.281
 3521TIP3    H232123   6.757   6.019   2.239
 3522TIP3   OH232124   6.403   5.576   8.513
 3522TIP3    H132125   6.388   5.483   8.496
 3522TIP3    H232126   6.316   5.615   8.514
 3523TIP3   OH232127   0.345   0.733   0.373
 3523TIP3    H132128   0.402   0.667   0.414
 3523TIP3    H232129   0.275   0.747   0.436
 3524TIP3   OH232130   1.476   6.281   1.527
 3524TIP3    H132131   1.518   6.356   1.485
 3524TIP3    H232132   1.404   6.319   1.577
 3525TIP3   OH232133   2.732   4.596   8.441
 3525TIP3    H132134   2.783   4.654   8.497
 3525TIP3    H232135   2.658   4.569   8.496
 3526TIP3   OH232136   0.186   4.063   8.224
 3526TIP3    H132137   0.264   4.016   8.194
 3526TIP3    H232138   0.220   4.144   8.263
 3527TIP3   OH232139   4.043   0.753   1.637
 3527TIP3    H132140   3.980   0.818   1.604
 3527TIP3    H232141   4.026   0.750   1.731
 3528TIP3   OH232142   4.513   2.428   0.477
 3528TIP3    H132143   4.496   2.406   0.569
 3528TIP3    H232144   4.426   2.435   0.438
 3529TIP3   OH232145   1.226   0.826   0.041
 3529TIP3    H132146   1.161   0.811   8.755
 3529TIP3    H232147   1.257   0.738   0.064
 3530TIP3   OH232148   1.340   6.177   7.722
 3530TIP3    H132149   1.247   6.166   7.704
 3530TIP3    H232150   1.359   6.266   7.693
 3531TIP3   OH232151   3.078   4.145   7.071
 3531TIP3    H132152   3.121   4.186   6.996
 3531TIP3    H232153   3.097   4.051   7.062
 3532TIP3   OH232154   4.633   6.069   0.524
 3532TIP3    H132155   4.544   6.099   0.508
 3532TIP3    H232156   4.681   6.148   0.549
 3533TIP3   OH232157   1.915   2.826   7.490
 3533TIP3    H132158   1.925   2.836   7.584
 3533TIP3    H232159   2.002   2.802   7.459
 3534TIP3   OH232160   6.522   3.629   8.577
 3534TIP3    H132161   6.561   3.580   8.649
 3534TIP3    H232162   6.447   3.577   8.549
 3535TIP3   OH232163   4.150   1.260   0.040
 3535TIP3    H132164   4.134   1.315   8.746
 3535TIP3    H232165   4.122   1.172   0.013
 3536TIP3   OH232166   4.167   5.338   6.940
 3536TIP3    H132167   4.197   5.345   6.849
 3536TIP3    H232168   4.076   5.368   6.937
 3537TIP3   OH232169   0.995   3.285   1.510
 3537TIP3    H132170   1.037   3.276   1.596
 3537TIP3    H232171   0.939   3.207   1.503
 3538TIP3   OH232172   2.782   2.345   0.277
 3538TIP3    H132173   2.739   2.301   0.204
 3538TIP3    H232174   2.876   2.333   0.260
 3539TIP3   OH232175   2.714   0.857   7.884
 3539TIP3    H132176   2.673   0.902   7.811
 3539TIP3    H232177   2.652   0.788   7.908
 3540TIP3   OH232178   3.514   5.234   0.240
 3540TIP3    H132179   3.486   5.296   0.173
 3540TIP3    H232180   3.436   5.221   0.294
 3541TIP3   OH232181   0.862   2.402   8.112
 3541TIP3    H132182   0.857   2.474   8.049
 3541TIP3    H232183   0.906   2.440   8.188
 3542TIP3   OH232184   6.232   6.775   8.281
 3542TIP3    H132185   6.138   6.759   8.293
 3542TIP3    H232186   6.265   6.694   8.242
 3543TIP3   OH232187   4.734   1.649   6.666
 3543TIP3    H132188   4.702   1.644   6.576
 3543TIP3    H232189   4.669   1.702   6.712
 3544TIP3   OH232190   6.581   1.379   1.185
 3544TIP3    H132191   6.511   1.322   1.217
 3544TIP3    H232192   6.599   1.438   1.258
 3545TIP3   OH232193   1.335   1.519   7.684
 3545TIP3    H132194   1.314   1.516   7.777
 3545TIP3    H232195   1.319   1.430   7.653
 3546TIP3   OH232196   1.791   2.238   1.321
 3546TIP3    H132197   1.786   2.309   1.257
 3546TIP3    H232198   1.787   2.282   1.406
 3547TIP3   OH232199   4.579   3.104   6.856
 3547TIP3    H132200   4.530   3.186   6.849
 3547TIP3    H232201   4.561   3.072   6.944
 3548TIP3   OH232202   0.665   1.535   1.422
 3548TIP3    H132203   0.629   1.448   1.407
 3548TIP3    H232204   0.712   1.556   1.341
 3549TIP3   OH232205   0.559   2.933   8.286
 3549TIP3    H132206   0.591   2.989   8.356
 3549TIP3    H232207   0.630   2.871   8.270
 3550TIP3   OH232208   1.416   0.027   0.836
 3550TIP3    H132209   1.412   0.119   0.808
 3550TIP3    H232210   1.405   6.815   0.755
 3551TIP3   OH232211   0.982   6.792   2.281
 3551TIP3    H132212   0.923   6.721   2.256
 3551TIP3    H232213   1.069   6.752   2.282
 3552TIP3   OH232214   6.242   6.483   1.240
 3552TIP3    H132215   6.229   6.491   1.335
 3552TIP3    H232216   6.323   6.532   1.223
 3553TIP3   OH232217   2.863   6.047   1.615
 3553TIP3    H132218   2.782   6.075   1.572
 3553TIP3    H232219   2.850   5.953   1.631
 3554TIP3   OH232220   2.495   4.082   1.583
 3554TIP3    H132221   2.546   4.002   1.600
 3554TIP3    H232222   2.500   4.130   1.666
 3555TIP3   OH232223   5.600   4.009   1.502
 3555TIP3    H132224   5.630   3.980   1.417
 3555TIP3    H232225   5.614   4.104   1.502
 3556TIP3   OH232226   4.936   6.330   1.627
 3556TIP3    H132227   4.971   6.387   1.696
 3556TIP3    H232228   5.007   6.324   1.563
 3557TIP3   OH232229   4.796   4.911   8.622
 3557TIP3    H132230   4.761   4.919   8.711
 3557TIP3    H232231   4.742   4.970   8.569
 3558TIP3   OH232232   2.347   4.559   7.034
 3558TIP3    H132233   2.255   4.562   7.062
 3558TIP3    H232234   2.371   4.651   7.019
 3559TIP3   OH232235   5.246   5.954   7.543
 3559TIP3    H132236   5.248   5.951   7.639
 3559TIP3    H232237   5.281   6.040   7.522
 3560TIP3   OH232238   2.651   3.466   0.088
 3560TIP3    H132239   2.699   3.421   0.018
 3560TIP3    H232240   2.624   3.550   0.049
 3561TIP3   OH232241   4.814   5.870   0.293
 3561TIP3    H132242   4.851   5.911   0.371
 3561TIP3    H232243   4.742   5.817   0.327
 3562TIP3   OH232244   0.866   2.555   7.407
 3562TIP3    H132245   0.875   2.502   7.328
 3562TIP3    H232246   0.953   2.593   7.419
 3563TIP3   OH232247   1.032   2.310   1.066
 3563TIP3    H132248   1.126   2.295   1.076
 3563TIP3    H232249   0.993   2.224   1.079
 3564TIP3   OH232250   4.704   5.460   1.582
 3564TIP3    H132251   4.697   5.378   1.630
 3564TIP3    H232252   4.766   5.513   1.633
 3565TIP3   OH232253   1.530   3.547   0.272
 3565TIP3    H132254   1.618   3.580   0.292
 3565TIP3    H232255   1.471   3.611   0.311
 3566TIP3   OH232256   3.502   0.263   1.577
 3566TIP3    H132257   3.427   0.318   1.556
 3566TIP3    H232258   3.573   0.295   1.521
 3567TIP3   OH232259   3.356   5.723   8.421
 3567TIP3    H132260   3.376   5.643   8.373
 3567TIP3    H232261   3.430   5.781   8.403
 3568TIP3   OH232262   4.680   5.220   1.711
 3568TIP3    H132263   4.586   5.200   1.715
 3568TIP3    H232264   4.717   5.172   1.786
 3569TIP3   OH232265   6.105   4.040   8.372
 3569TIP3    H132266   6.060   4.056   8.454
 3569TIP3    H232267   6.037   4.007   8.313
 3570TIP3   OH232268   5.463   1.289   7.781
 3570TIP3    H132269   5.409   1.364   7.806
 3570TIP3    H232270   5.400   1.224   7.751
 3571TIP3   OH232271   6.104   0.541   8.667
 3571TIP3    H132272   6.148   0.575   8.744
 3571TIP3    H232273   6.161   0.565   8.594
 3572TIP3   OH232274   1.067   0.178   8.192
 3572TIP3    H132275   1.113   0.260   8.178
 3572TIP3    H232276   1.118   0.113   8.144
 3573TIP3   OH232277   4.731   3.157   0.692
 3573TIP3    H132278   4.646   3.138   0.652
 3573TIP3    H232279   4.795   3.131   0.627
 3574TIP3   OH232280   0.647   1.124   1.616
 3574TIP3    H132281   0.579   1.175   1.661
 3574TIP3    H232282   0.671   1.056   1.678
 3575TIP3   OH232283   4.508   4.915   1.268
 3575TIP3    H132284   4.551   4.979   1.325
 3575TIP3    H232285   4.579   4.873   1.220
 3576TIP3   OH232286   1.603   1.957   7.101
 3576TIP3    H132287   1.595   1.933   7.193
 3576TIP3    H232288   1.673   1.899   7.067
 3577TIP3   OH232289   1.588   0.791   7.089
 3577TIP3    H132290   1.600   0.886   7.088
 3577TIP3    H232291   1.565   0.769   6.999
 3578TIP3   OH232292   1.974   4.486   7.439
 3578TIP3    H132293   1.947   4.562   7.389
 3578TIP3    H232294   1.891   4.443   7.464
 3579TIP3   OH232295   1.097   6.732   0.570
 3579TIP3    H132296   1.013   6.767   0.600
 3579TIP3    H232297   1.080   6.704   0.480
 3580TIP3   OH232298   1.500   3.348   1.328
 3580TIP3    H132299   1.411   3.317   1.311
 3580TIP3    H232300   1.557   3.281   1.289
 3581TIP3   OH232301   3.474   2.319   0.208
 3581TIP3    H132302   3.545   2.275   0.257
 3581TIP3    H232303   3.439   2.383   0.270
 3582TIP3   OH232304   3.065   4.844   1.348
 3582TIP3    H132305   3.131   4.841   1.279
 3582TIP3    H232306   3.115   4.828   1.429
 3583TIP3   OH232307   1.966   1.056   0.634
 3583TIP3    H132308   1.987   1.129   0.692
 3583TIP3    H232309   2.013   0.981   0.672
 3584TIP3   OH232310   5.238   3.512   0.782
 3584TIP3    H132311   5.204   3.436   0.828
 3584TIP3    H232312   5.329   3.520   0.811
 3585TIP3   OH232313   3.921   3.778   6.692
 3585TIP3    H132314   3.971   3.716   6.744
 3585TIP3    H232315   3.836   3.784   6.737
 3586TIP3   OH232316   1.757   2.933   0.271
 3586TIP3    H132317   1.832   2.931   0.212
 3586TIP3    H232318   1.795   2.946   0.358
 3587TIP3   OH232319   5.017   2.799   1.206
 3587TIP3    H132320   5.039   2.892   1.195
 3587TIP3    H232321   4.928   2.792   1.170
 3588TIP3   OH232322   5.635   2.687   1.555
 3588TIP3    H132323   5.648   2.602   1.513
 3588TIP3    H232324   5.709   2.695   1.616
 3589TIP3   OH232325   3.430   2.818   7.602
 3589TIP3    H132326   3.466   2.864   7.677
 3589TIP3    H232327   3.337   2.841   7.602
 3590TIP3   OH232328   3.145   4.656   0.979
 3590TIP3    H132329   3.240   4.667   0.979
 3590TIP3    H232330   3.112   4.736   0.938
 3591TIP3   OH232331   4.734   1.584   8.608
 3591TIP3    H132332   4.659   1.643   8.611
 3591TIP3    H232333   4.716   1.518   8.674
 3592TIP3   OH232334   4.211   4.224   1.494
 3592TIP3    H132335   4.265   4.213   1.573
 3592TIP3    H232336   4.271   4.206   1.422
 3593TIP3   OH232337   3.758   5.182   0.949
 3593TIP3    H132338   3.825   5.115   0.941
 3593TIP3    H232339   3.684   5.139   0.991
 3594TIP3   OH232340   4.954   0.616   8.601
 3594TIP3    H132341   4.954   0.556   8.526
 3594TIP3    H232342   4.865   0.611   8.636
 3595TIP3   OH232343   1.532   1.005   7.328
 3595TIP3    H132344   1.626   0.990   7.327
 3595TIP3    H232345   1.523   1.098   7.349
 3596TIP3   OH232346   6.042   3.491   2.368
 3596TIP3    H132347   5.967   3.523   2.419
 3596TIP3    H232348   6.030   3.530   2.281
 3597TIP3   OH232349   1.594   1.364   0.364
 3597TIP3    H132350   1.635   1.326   0.287
 3597TIP3    H232351   1.662   1.419   0.403
 3598TIP3   OH232352   5.564   4.148   1.070
 3598TIP3    H132353   5.475   4.180   1.057
 3598TIP3    H232354   5.555   4.079   1.136
 3599TIP3   OH232355   1.889   1.232   1.324
 3599TIP3    H132356   1.894   1.140   1.299
 3599TIP3    H232357   1.801   1.260   1.297
 3600TIP3   OH232358   4.319   1.694   1.725
 3600TIP3    H132359   4.393   1.750   1.748
 3600TIP3    H232360   4.284   1.732   1.645
 3601TIP3   OH232361   1.905   2.646   0.776
 3601TIP3    H132362   1.922   2.701   0.699
 3601TIP3    H232363   1.891   2.558   0.740
 3602TIP3   OH232364   4.285   5.997   8.662
 3602TIP3    H132365   4.356   5.997   8.598
 3602TIP3    H232366   4.330   5.991   8.747
 3603TIP3   OH232367   4.507   3.623   7.803
 3603TIP3    H132368   4.532   3.663   7.886
 3603TIP3    H232369   4.443   3.556   7.826
 3604TIP3   OH232370   5.551   3.504   6.531
 3604TIP3    H132371   5.619   3.564   6.498
 3604TIP3    H232372   5.525   3.453   6.454
 3605TIP3   OH232373   5.367   0.420   0.523
 3605TIP3    H132374   5.425   0.491   0.553
 3605TIP3    H232375   5.418   0.374   0.457
 3606TIP3   OH232376   5.087   1.979   1.139
 3606TIP3    H132377   5.020   1.972   1.207
 3606TIP3    H232378   5.132   2.061   1.158
 3607TIP3   OH232379   6.467   5.797   0.541
 3607TIP3    H132380   6.403   5.769   0.607
 3607TIP3    H232381   6.509   5.716   0.513
 3608TIP3   OH232382   6.309   6.734   0.637
 3608TIP3    H132383   6.325   6.644   0.665
 3608TIP3    H232384   6.391   6.780   0.653
 3609TIP3   OH232385   6.337   4.320   0.965
 3609TIP3    H132386   6.404   4.266   0.924
 3609TIP3    H232387   6.318   4.388   0.900
 3610TIP3   OH232388   5.633   3.238   6.839
 3610TIP3    H132389   5.670   3.300   6.901
 3610TIP3    H232390   5.574   3.183   6.891
 3611TIP3   OH232391   3.955   4.610   7.603
 3611TIP3    H132392   4.004   4.639   7.526
 3611TIP3    H232393   4.020   4.564   7.657
 3612TIP3   OH232394   5.198   0.808   8.089
 3612TIP3    H132395   5.221   0.846   8.173
 3612TIP3    H232396   5.106   0.831   8.077
 3613TIP3   OH232397   5.109   4.904   8.450
 3613TIP3    H132398   5.193   4.897   8.494
 3613TIP3    H232399   5.051   4.845   8.498
 3614TIP3   OH232400   4.828   0.787   2.257
 3614TIP3    H132401   4.821   0.818   2.167
 3614TIP3    H232402   4.922   0.779   2.273
 3615TIP3   OH232403   5.605   1.657   0.350
 3615TIP3    H132404   5.519   1.626   0.379
 3615TIP3    H232405   5.655   1.665   0.431
 3616TIP3   OH232406   4.949   2.207   8.743
 3616TIP3    H132407   4.864   2.167   8.723
 3616TIP3    H232408   5.012   2.159   8.688
 3617TIP3   OH232409   5.095   0.869   6.988
 3617TIP3    H132410   5.027   0.897   6.927
 3617TIP3    H232411   5.065   0.785   7.021
 3618TIP3   OH232412   1.994   1.700   0.935
 3618TIP3    H132413   1.932   1.641   0.978
 3618TIP3    H232414   1.966   1.787   0.961
 3619TIP3   OH232415   1.410   6.576   7.395
 3619TIP3    H132416   1.414   6.537   7.308
 3619TIP3    H232417   1.474   6.647   7.392
 3620TIP3   OH232418   1.938   1.109   2.106
 3620TIP3    H132419   1.874   1.160   2.057
 3620TIP3    H232420   1.904   1.105   2.195
 3621TIP3   OH232421   2.878   1.175   7.727
 3621TIP3    H132422   2.846   1.241   7.665
 3621TIP3    H232423   2.870   1.217   7.813
 3622TIP3   OH232424   6.028   4.102   0.771
 3622TIP3    H132425   6.050   4.195   0.771
 3622TIP3    H232426   5.972   4.091   0.848
 3623TIP3   OH232427   0.431   2.619   0.482
 3623TIP3    H132428   0.487   2.551   0.445
 3623TIP3    H232429   0.493   2.683   0.519
 3624TIP3   OH232430   0.959   1.142   8.457
 3624TIP3    H132431   0.950   1.226   8.411
 3624TIP3    H232432   0.931   1.076   8.394
 3625TIP3   OH232433   3.332   2.543   0.327
 3625TIP3    H132434   3.328   2.599   0.249
 3625TIP3    H232435   3.256   2.568   0.379
 3626TIP3   OH232436   4.539   6.272   6.575
 3626TIP3    H132437   4.481   6.259   6.650
 3626TIP3    H232438   4.480   6.277   6.500
 3627TIP3   OH232439   1.203   1.168   7.918
 3627TIP3    H132440   1.246   1.084   7.934
 3627TIP3    H232441   1.226   1.221   7.995
 3628TIP3   OH232442   5.584   1.934   7.844
 3628TIP3    H132443   5.644   1.966   7.777
 3628TIP3    H232444   5.555   2.013   7.890
 3629TIP3   OH232445   1.606   5.222   8.177
 3629TIP3    H132446   1.533   5.256   8.125
 3629TIP3    H232447   1.632   5.142   8.132
 3630TIP3   OH232448   0.264   1.393   8.153
 3630TIP3    H132449   0.181   1.359   8.117
 3630TIP3    H232450   0.328   1.326   8.131
 3631TIP3   OH232451   4.037   4.751   1.241
 3631TIP3    H132452   4.086   4.830   1.263
 3631TIP3    H232453   4.076   4.682   1.295
 3632TIP3   OH232454   6.014   1.515   0.569
 3632TIP3    H132455   6.010   1.469   0.653
 3632TIP3    H232456   6.015   1.608   0.592
 3633TIP3   OH232457   5.296   2.325   1.498
 3633TIP3    H132458   5.293   2.230   1.500
 3633TIP3    H232459   5.303   2.351   1.590
 3634TIP3   OH232460   6.202   3.222   1.685
 3634TIP3    H132461   6.208   3.317   1.686
 3634TIP3    H232462   6.291   3.192   1.666
 3635TIP3   OH232463   4.801   0.658   1.031
 3635TIP3    H132464   4.832   0.725   1.091
 3635TIP3    H232465   4.709   0.645   1.054
 3636TIP3   OH232466   5.908   1.086   1.061
 3636TIP3    H132467   5.872   1.008   1.103
 3636TIP3    H232468   5.980   1.053   1.007
 3637TIP3   OH232469   5.091   2.418   2.018
 3637TIP3    H132470   5.087   2.442   2.110
 3637TIP3    H232471   5.012   2.457   1.980
 3638TIP3   OH232472   1.602   6.564   6.886
 3638TIP3    H132473   1.551   6.496   6.842
 3638TIP3    H232474   1.691   6.530   6.889
 3639TIP3   OH232475   5.244   2.962   7.566
 3639TIP3    H132476   5.179   2.950   7.497
 3639TIP3    H232477   5.197   2.942   7.647
 3640TIP3   OH232478   2.016   3.742   1.763
 3640TIP3    H132479   2.080   3.747   1.693
 3640TIP3    H232480   2.054   3.681   1.826
 3641TIP3   OH232481   5.192   2.385   0.363
 3641TIP3    H132482   5.167   2.435   0.441
 3641TIP3    H232483   5.232   2.449   0.305
 3642TIP3   OH232484   0.227   2.261   6.716
 3642TIP3    H132485   0.165   2.282   6.647
 3642TIP3    H232486   0.212   2.168   6.734
 3643TIP3   OH232487   6.525   0.646   7.333
 3643TIP3    H132488   6.461   0.703   7.376
 3643TIP3    H232489   6.603   0.701   7.323
 3644TIP3   OH232490   3.032   2.362   8.433
 3644TIP3    H132491   3.013   2.421   8.360
 3644TIP3    H232492   3.082   2.415   8.495
 3645TIP3   OH232493   3.249   2.560   7.376
 3645TIP3    H132494   3.189   2.628   7.407
 3645TIP3    H232495   3.193   2.495   7.333
 3646TIP3   OH232496   1.459   6.619   8.478
 3646TIP3    H132497   1.462   6.632   8.383
 3646TIP3    H232498   1.379   6.569   8.493
 3647TIP3   OH232499   2.999   3.287   8.411
 3647TIP3    H132500   3.022   3.231   8.336
 3647TIP3    H232501   3.054   3.255   8.483
 3648TIP3   OH232502   5.526   0.424   8.317
 3648TIP3    H132503   5.521   0.359   8.248
 3648TIP3    H232504   5.598   0.481   8.290
 3649TIP3   OH232505   5.902   0.777   6.973
 3649TIP3    H132506   5.979   0.731   7.006
 3649TIP3    H232507   5.904   0.862   7.017
 3650TIP3   OH232508   3.568   6.292   1.032
 3650TIP3    H132509   3.662   6.287   1.050
 3650TIP3    H232510   3.559   6.260   0.943
 3651TIP3   OH232511   5.877   0.393   6.346
 3651TIP3    H132512   5.962   0.349   6.343
 3651TIP3    H232513   5.855   0.397   6.439
 3652TIP3   OH232514   2.600   5.666   0.688
 3652TIP3    H132515   2.634   5.755   0.690
 3652TIP3    H232516   2.542   5.661   0.764
 3653TIP3   OH232517   4.758   2.016   8.682
 3653TIP3    H132518   4.810   1.936   8.686
 3653TIP3    H232519   4.715   2.012   8.596
 3654TIP3   OH232520   3.380   1.637   1.895
 3654TIP3    H132521   3.445   1.663   1.961
 3654TIP3    H232522   3.424   1.570   1.844
 3655TIP3   OH232523   5.937   3.062   8.215
 3655TIP3    H132524   5.969   3.150   8.198
 3655TIP3    H232525   5.927   3.023   8.128
 3656TIP3   OH232526   1.359   4.469   8.200
 3656TIP3    H132527   1.268   4.462   8.172
 3656TIP3    H232528   1.361   4.430   8.287
 3657TIP3   OH232529   4.437   1.494   1.366
 3657TIP3    H132530   4.515   1.446   1.340
 3657TIP3    H232531   4.469   1.576   1.402
 3658TIP3   OH232532   5.413   5.761   0.509
 3658TIP3    H132533   5.447   5.787   0.595
 3658TIP3    H232534   5.338   5.818   0.495
 3659TIP3   OH232535   0.056   2.078   1.848
 3659TIP3    H132536   0.065   1.983   1.854
 3659TIP3    H232537   0.141   2.109   1.817
 3660TIP3   OH232538   0.783   6.097   7.285
 3660TIP3    H132539   0.870   6.119   7.317
 3660TIP3    H232540   0.798   6.065   7.196
 3661TIP3   OH232541   4.373   0.971   2.109
 3661TIP3    H132542   4.301   1.031   2.087
 3661TIP3    H232543   4.423   1.018   2.176
 3662TIP3   OH232544   6.678   2.107   6.501
 3662TIP3    H132545   6.607   2.057   6.542
 3662TIP3    H232546   6.753   2.048   6.504
 3663TIP3   OH232547   4.550   0.358   8.593
 3663TIP3    H132548   4.455   0.352   8.601
 3663TIP3    H232549   4.571   0.308   8.514
 3664TIP3   OH232550   0.163   3.251   6.785
 3664TIP3    H132551   0.146   3.344   6.776
 3664TIP3    H232552   0.162   3.236   6.880
 3665TIP3   OH232553   6.374   2.254   6.445
 3665TIP3    H132554   6.381   2.220   6.535
 3665TIP3    H232555   6.286   2.293   6.442
 3666TIP3   OH232556   4.339   2.993   8.515
 3666TIP3    H132557   4.351   2.907   8.555
 3666TIP3    H232558   4.376   2.984   8.428
 3667TIP3   OH232559   0.448   5.364   1.793
 3667TIP3    H132560   0.424   5.456   1.797
 3667TIP3    H232561   0.497   5.348   1.873
 3668TIP3   OH232562   3.572   5.340   0.671
 3668TIP3    H132563   3.511   5.401   0.630
 3668TIP3    H232564   3.640   5.395   0.708
 3669TIP3   OH232565   1.909   2.290   7.812
 3669TIP3    H132566   1.848   2.271   7.883
 3669TIP3    H232567   1.895   2.382   7.793
 3670TIP3   OH232568   5.431   0.382   1.650
 3670TIP3    H132569   5.487   0.428   1.712
 3670TIP3    H232570   5.490   0.358   1.578
 3671TIP3   OH232571   5.349   4.947   1.965
 3671TIP3    H132572   5.284   5.011   1.994
 3671TIP3    H232573   5.298   4.867   1.950
 3672TIP3   OH232574   4.429   2.125   0.380
 3672TIP3    H132575   4.406   2.046   0.429
 3672TIP3    H232576   4.370   2.192   0.414
 3673TIP3   OH232577   3.807   1.243   1.220
 3673TIP3    H132578   3.775   1.153   1.230
 3673TIP3    H232579   3.851   1.261   1.303
 3674TIP3   OH232580   3.177   2.539   7.770
 3674TIP3    H132581   3.262   2.522   7.729
 3674TIP3    H232582   3.113   2.504   7.709
 3675TIP3   OH232583   6.409   5.383   7.282
 3675TIP3    H132584   6.401   5.412   7.191
 3675TIP3    H232585   6.410   5.465   7.333
 3676TIP3   OH232586   2.336   5.071   1.058
 3676TIP3    H132587   2.292   5.028   0.984
 3676TIP3    H232588   2.354   5.159   1.026
 3677TIP3   OH232589   4.063   0.243   0.486
 3677TIP3    H132590   3.971   0.242   0.459
 3677TIP3    H232591   4.111   0.210   0.410
 3678TIP3   OH232592   4.955   3.635   7.262
 3678TIP3    H132593   4.970   3.664   7.171
 3678TIP3    H232594   4.872   3.676   7.286
 3679TIP3   OH232595   1.725   4.412   6.612
 3679TIP3    H132596   1.799   4.468   6.586
 3679TIP3    H232597   1.698   4.446   6.697
 3680TIP3   OH232598   2.496   6.655   8.480
 3680TIP3    H132599   2.412   6.699   8.495
 3680TIP3    H232600   2.516   6.614   8.564
 3681TIP3   OH232601   2.504   4.322   7.001
 3681TIP3    H132602   2.461   4.407   6.992
 3681TIP3    H232603   2.495   4.281   6.915
 3682TIP3   OH232604   1.709   6.136   7.260
 3682TIP3    H132605   1.663   6.060   7.295
 3682TIP3    H232606   1.801   6.117   7.275
 3683TIP3   OH232607   2.069   4.455   8.236
 3683TIP3    H132608   2.029   4.541   8.222
 3683TIP3    H232609   2.051   4.407   8.155
 3684TIP3   OH232610   2.937   1.620   0.321
 3684TIP3    H132611   2.886   1.625   0.240
 3684TIP3    H232612   2.919   1.532   0.355
 3685TIP3   OH232613   5.286   5.584   1.603
 3685TIP3    H132614   5.278   5.489   1.605
 3685TIP3    H232615   5.272   5.608   1.511
 3686TIP3   OH232616   0.167   3.617   1.565
 3686TIP3    H132617   0.095   3.597   1.624
 3686TIP3    H232618   0.245   3.611   1.621
 3687TIP3   OH232619   4.110   2.447   0.755
 3687TIP3    H132620   4.043   2.490   0.701
 3687TIP3    H232621   4.077   2.359   0.769
 3688TIP3   OH232622   1.901   3.078   7.382
 3688TIP3    H132623   1.901   3.045   7.292
 3688TIP3    H232624   1.906   2.999   7.436
 3689TIP3   OH232625   5.425   1.517   6.533
 3689TIP3    H132626   5.496   1.456   6.515
 3689TIP3    H232627   5.466   1.588   6.582
 3690TIP3   OH232628   0.512   6.316   6.601
 3690TIP3    H132629   0.478   6.389   6.652
 3690TIP3    H232630   0.606   6.315   6.621
 3691TIP3   OH232631   5.633   1.425   0.602
 3691TIP3    H132632   5.601   1.374   0.676
 3691TIP3    H232633   5.694   1.366   0.557
 3692TIP3   OH232634   3.668   6.271   7.930
 3692TIP3    H132635   3.678   6.289   7.836
 3692TIP3    H232636   3.599   6.205   7.934
 3693TIP3   OH232637   0.908   4.936   1.435
 3693TIP3    H132638   0.864   4.996   1.495
 3693TIP3    H232639   0.864   4.852   1.449
 3694TIP3   OH232640   2.983   2.853   8.091
 3694TIP3    H132641   2.893   2.821   8.081
 3694TIP3    H232642   2.975   2.949   8.087
 3695TIP3   OH232643   5.252   2.885   7.018
 3695TIP3    H132644   5.219   2.795   7.010
 3695TIP3    H232645   5.266   2.914   6.928
 3696TIP3   OH232646   3.353   2.756   0.636
 3696TIP3    H132647   3.347   2.831   0.577
 3696TIP3    H232648   3.445   2.729   0.632
 3697TIP3   OH232649   6.584   0.869   6.701
 3697TIP3    H132650   6.575   0.944   6.761
 3697TIP3    H232651   6.671   0.880   6.662
 3698TIP3   OH232652   2.069   3.420   0.574
 3698TIP3    H132653   2.097   3.348   0.630
 3698TIP3    H232654   2.046   3.491   0.635
 3699TIP3   OH232655   2.450   6.600   7.132
 3699TIP3    H132656   2.470   6.691   7.154
 3699TIP3    H232657   2.362   6.602   7.096
 3700TIP3   OH232658   2.602   5.008   7.355
 3700TIP3    H132659   2.671   4.946   7.381
 3700TIP3    H232660   2.520   4.962   7.372
 3701TIP3   OH232661   6.704   2.278   0.839
 3701TIP3    H132662   6.730   2.216   0.907
 3701TIP3    H232663   6.704   2.227   0.758
 3702TIP3   OH232664   4.533   2.572   0.081
 3702TIP3    H132665   4.576   2.584   0.165
 3702TIP3    H232666   4.450   2.620   0.089
 3703TIP3   OH232667   4.214   5.890   6.926
 3703TIP3    H132668   4.163   5.922   6.852
 3703TIP3    H232669   4.150   5.855   6.987
 3704TIP3   OH232670   1.929   2.028   6.196
 3704TIP3    H132671   1.915   2.120   6.220
 3704TIP3    H232672   1.859   2.008   6.134
 3705TIP3   OH232673   0.721   0.036   0.872
 3705TIP3    H132674   0.641   0.078   0.838
 3705TIP3    H232675   0.696   6.783   0.885
 3706TIP3   OH232676   0.889   6.768   6.445
 3706TIP3    H132677   0.954   6.700   6.462
 3706TIP3    H232678   0.933   6.830   6.388
 3707TIP3   OH232679   4.534   0.558   7.427
 3707TIP3    H132680   4.490   0.525   7.349
 3707TIP3    H232681   4.623   0.522   7.421
 3708TIP3   OH232682   6.150   1.266   7.526
 3708TIP3    H132683   6.228   1.212   7.528
 3708TIP3    H232684   6.140   1.297   7.616
 3709TIP3   OH232685   6.656   1.053   7.260
 3709TIP3    H132686   6.574   1.074   7.215
 3709TIP3    H232687   6.689   1.137   7.291
 3710TIP3   OH232688   1.162   3.382   8.167
 3710TIP3    H132689   1.250   3.408   8.192
 3710TIP3    H232690   1.110   3.394   8.246
 3711TIP3   OH232691   4.218   1.588   8.155
 3711TIP3    H132692   4.130   1.599   8.118
 3711TIP3    H232693   4.239   1.496   8.139
 3712TIP3   OH232694   3.900   3.925   6.423
 3712TIP3    H132695   3.808   3.936   6.399
 3712TIP3    H232696   3.897   3.885   6.510
 3713TIP3   OH232697   0.324   6.489   1.580
 3713TIP3    H132698   0.278   6.571   1.563
 3713TIP3    H232699   0.262   6.436   1.629
 3714TIP3   OH232700   1.426   3.233   0.354
 3714TIP3    H132701   1.437   3.326   0.338
 3714TIP3    H232702   1.334   3.223   0.378
 3715TIP3   OH232703   2.376   5.346   1.019
 3715TIP3    H132704   2.461   5.386   1.039
 3715TIP3    H232705   2.312   5.410   1.048
 3716TIP3   OH232706   2.388   2.789   7.074
 3716TIP3    H132707   2.339   2.731   7.014
 3716TIP3    H232708   2.326   2.860   7.094
 3717TIP3   OH232709   1.035   3.043   0.980
 3717TIP3    H132710   1.129   3.053   0.962
 3717TIP3    H232711   1.014   3.117   1.038
 3718TIP3   OH232712   3.027   3.253   1.326
 3718TIP3    H132713   3.025   3.195   1.249
 3718TIP3    H232714   2.957   3.221   1.382
 3719TIP3   OH232715   6.093   0.172   8.007
 3719TIP3    H132716   6.165   0.121   7.969
 3719TIP3    H232717   6.050   0.112   8.067
 3720TIP3   OH232718   4.218   1.830   0.279
 3720TIP3    H132719   4.302   1.816   0.323
 3720TIP3    H232720   4.160   1.861   0.348
 3721TIP3   OH232721   4.518   3.058   0.585
 3721TIP3    H132722   4.471   3.028   0.663
 3721TIP3    H232723   4.509   2.987   0.522
 3722TIP3   OH232724   2.348   2.425   1.413
 3722TIP3    H132725   2.417   2.376   1.459
 3722TIP3    H232726   2.308   2.360   1.355
 3723TIP3   OH232727   3.950   0.078   7.478
 3723TIP3    H132728   3.888   0.111   7.413
 3723TIP3    H232729   3.970   0.154   7.532
 3724TIP3   OH232730   4.574   3.185   1.020
 3724TIP3    H132731   4.583   3.235   1.101
 3724TIP3    H232732   4.663   3.176   0.987
 3725TIP3   OH232733   5.846   4.398   7.099
 3725TIP3    H132734   5.922   4.457   7.098
 3725TIP3    H232735   5.770   4.457   7.094
 3726TIP3   OH232736   5.330   0.630   8.284
 3726TIP3    H132737   5.410   0.590   8.319
 3726TIP3    H232738   5.262   0.608   8.348
 3727TIP3   OH232739   3.232   3.038   0.839
 3727TIP3    H132740   3.323   3.011   0.845
 3727TIP3    H232741   3.235   3.122   0.794
 3728TIP3   OH232742   1.710   3.728   1.039
 3728TIP3    H132743   1.634   3.718   1.096
 3728TIP3    H232744   1.679   3.696   0.954
 3729TIP3   OH232745   2.024   3.429   0.305
 3729TIP3    H132746   2.061   3.409   0.391
 3729TIP3    H232747   1.981   3.514   0.315
 3730TIP3   OH232748   2.879   2.151   7.759
 3730TIP3    H132749   2.967   2.132   7.727
 3730TIP3    H232750   2.871   2.246   7.754
 3731TIP3   OH232751   3.858   5.795   8.133
 3731TIP3    H132752   3.855   5.869   8.072
 3731TIP3    H232753   3.933   5.744   8.103
 3732TIP3   OH232754   0.681   3.802   1.627
 3732TIP3    H132755   0.681   3.853   1.708
 3732TIP3    H232756   0.696   3.866   1.558
 3733TIP3   OH232757   5.183   0.306   1.738
 3733TIP3    H132758   5.272   0.308   1.703
 3733TIP3    H232759   5.179   0.223   1.786
 3734TIP3   OH232760   4.141   4.603   0.337
 3734TIP3    H132761   4.222   4.651   0.354
 3734TIP3    H232762   4.074   4.671   0.332
 3735TIP3   OH232763   5.184   2.250   1.167
 3735TIP3    H132764   5.105   2.260   1.220
 3735TIP3    H232765   5.187   2.328   1.113
 3736TIP3   OH232766   0.747   3.871   8.658
 3736TIP3    H132767   0.696   3.936   8.707
 3736TIP3    H232768   0.770   3.916   8.577
 3737TIP3   OH232769   5.053   5.667   0.344
 3737TIP3    H132770   5.065   5.747   0.396
 3737TIP3    H232771   5.012   5.698   0.262
 3738TIP3   OH232772   3.888   4.218   0.687
 3738TIP3    H132773   3.908   4.168   0.608
 3738TIP3    H232774   3.860   4.304   0.654
 3739TIP3   OH232775   2.194   2.537   0.069
 3739TIP3    H132776   2.127   2.495   0.015
 3739TIP3    H232777   2.274   2.529   0.018
 3740TIP3   OH232778   3.068   1.030   1.822
 3740TIP3    H132779   3.026   1.109   1.858
 3740TIP3    H232780   3.099   0.983   1.899
 3741TIP3   OH232781   4.784   5.199   2.116
 3741TIP3    H132782   4.875   5.228   2.118
 3741TIP3    H232783   4.773   5.158   2.030
 3742TIP3   OH232784   3.030   2.413   7.288
 3742TIP3    H132785   3.000   2.414   7.197
 3742TIP3    H232786   3.094   2.342   7.291
 3743TIP3   OH232787   5.234   2.802   1.391
 3743TIP3    H132788   5.162   2.774   1.335
 3743TIP3    H232789   5.198   2.875   1.441
 3744TIP3   OH232790   3.938   6.470   7.822
 3744TIP3    H132791   3.870   6.405   7.836
 3744TIP3    H232792   3.916   6.510   7.738
 3745TIP3   OH232793   6.201   5.373   1.006
 3745TIP3    H132794   6.227   5.284   0.983
 3745TIP3    H232795   6.189   5.417   0.922
 3746TIP3   OH232796   5.722   1.171   1.561
 3746TIP3    H132797   5.701   1.126   1.479
 3746TIP3    H232798   5.717   1.264   1.539
 3747TIP3   OH232799   0.085   3.234   8.494
 3747TIP3    H132800   0.002   3.282   8.489
 3747TIP3    H232801   0.095   3.194   8.408
 3748TIP3   OH232802   6.740   4.100   6.943
 3748TIP3    H132803   6.822   4.056   6.920
 3748TIP3    H232804   6.702   4.044   7.011
 3749TIP3   OH232805   0.980   5.785   8.186
 3749TIP3    H132806   0.973   5.826   8.271
 3749TIP3    H232807   1.052   5.722   8.195
 3750TIP3   OH232808   3.215   0.597   8.148
 3750TIP3    H132809   3.154   0.605   8.222
 3750TIP3    H232810   3.176   0.530   8.092
 3751TIP3   OH232811   5.337   1.763   7.854
 3751TIP3    H132812   5.250   1.780   7.889
 3751TIP3    H232813   5.362   1.844   7.810
 3752TIP3   OH232814   1.489   0.745   7.654
 3752TIP3    H132815   1.488   0.677   7.720
 3752TIP3    H232816   1.581   0.763   7.638
 3753TIP3   OH232817   4.207   3.139   1.343
 3753TIP3    H132818   4.258   3.070   1.385
 3753TIP3    H232819   4.125   3.141   1.391
 3754TIP3   OH232820   2.614   1.934   6.566
 3754TIP3    H132821   2.579   1.972   6.647
 3754TIP3    H232822   2.571   1.849   6.561
 3755TIP3   OH232823   4.654   5.110   1.389
 3755TIP3    H132824   4.714   5.091   1.461
 3755TIP3    H232825   4.708   5.155   1.323
 3756TIP3   OH232826   6.431   6.435   2.050
 3756TIP3    H132827   6.341   6.467   2.037
 3756TIP3    H232828   6.454   6.463   2.138
 3757TIP3   OH232829   2.050   1.505   1.334
 3757TIP3    H132830   2.120   1.464   1.284
 3757TIP3    H232831   2.075   1.597   1.339
 3758TIP3   OH232832   5.413   3.431   8.781
 3758TIP3    H132833   5.460   3.438   8.698
 3758TIP3    H232834   5.345   3.366   8.765
 3759TIP3   OH232835   3.484   1.930   7.253
 3759TIP3    H132836   3.568   1.885   7.260
 3759TIP3    H232837   3.506   2.023   7.247
 3760TIP3   OH232838   4.504   6.479   0.167
 3760TIP3    H132839   4.594   6.468   0.136
 3760TIP3    H232840   4.506   6.557   0.221
 3761TIP3   OH232841   1.966   6.780   8.323
 3761TIP3    H132842   1.937   0.029   8.351
 3761TIP3    H232843   1.885   6.730   8.314
 3762TIP3   OH232844   3.166   3.648   6.864
 3762TIP3    H132845   3.123   3.570   6.899
 3762TIP3    H232846   3.253   3.619   6.839
 3763TIP3   OH232847   0.691   2.432   1.019
 3763TIP3    H132848   0.743   2.509   1.044
 3763TIP3    H232849   0.743   2.390   0.950
 3764TIP3   OH232850   6.715   0.784   0.194
 3764TIP3    H132851   6.726   0.715   0.129
 3764TIP3    H232852   6.700   0.737   0.276
 3765TIP3   OH232853   5.861   0.834   1.193
 3765TIP3    H132854   5.776   0.791   1.193
 3765TIP3    H232855   5.915   0.780   1.136
 3766TIP3   OH232856   4.907   3.551   7.703
 3766TIP3    H132857   4.927   3.597   7.621
 3766TIP3    H232858   4.959   3.597   7.769
 3767TIP3   OH232859   1.251   5.181   1.700
 3767TIP3    H132860   1.239   5.178   1.605
 3767TIP3    H232861   1.229   5.092   1.729
 3768TIP3   OH232862   3.435   1.248   8.517
 3768TIP3    H132863   3.366   1.214   8.460
 3768TIP3    H232864   3.456   1.176   8.576
 3769TIP3   OH232865   4.899   6.378   6.444
 3769TIP3    H132866   4.834   6.339   6.385
 3769TIP3    H232867   4.973   6.401   6.387
 3770TIP3   OH232868   0.578   3.376   7.333
 3770TIP3    H132869   0.604   3.409   7.419
 3770TIP3    H232870   0.572   3.281   7.344
 3771TIP3   OH232871   5.719   5.384   7.293
 3771TIP3    H132872   5.719   5.455   7.228
 3771TIP3    H232873   5.627   5.371   7.314
 3772TIP3   OH232874   6.110   5.604   1.128
 3772TIP3    H132875   6.109   5.564   1.042
 3772TIP3    H232876   6.090   5.696   1.112
 3773TIP3   OH232877   5.881   5.709   1.418
 3773TIP3    H132878   5.977   5.706   1.420
 3773TIP3    H232879   5.855   5.704   1.510
 3774TIP3   OH232880   3.119   5.476   8.748
 3774TIP3    H132881   3.163   5.552   8.711
 3774TIP3    H232882   3.180   5.404   8.733
 3775TIP3   OH232883   1.424   3.242   7.876
 3775TIP3    H132884   1.506   3.209   7.841
 3775TIP3    H232885   1.433   3.337   7.874
 3776TIP3   OH232886   6.658   3.091   8.107
 3776TIP3    H132887   6.585   3.030   8.099
 3776TIP3    H232888   6.722   3.060   8.043
 3777TIP3   OH232889   3.133   0.088   1.391
 3777TIP3    H132890   3.079   0.011   1.371
 3777TIP3    H232891   3.223   0.059   1.372
 3778TIP3   OH232892   2.171   3.114   0.454
 3778TIP3    H132893   2.176   3.180   0.385
 3778TIP3    H232894   2.246   3.057   0.439
 3779TIP3   OH232895   1.107   2.407   1.885
 3779TIP3    H132896   1.075   2.487   1.845
 3779TIP3    H232897   1.150   2.436   1.966
 3780TIP3   OH232898   0.923   5.237   7.237
 3780TIP3    H132899   1.004   5.188   7.221
 3780TIP3    H232900   0.862   5.172   7.273
 3781TIP3   OH232901   0.078   5.817   2.046
 3781TIP3    H132902   0.066   5.734   2.000
 3781TIP3    H232903   0.031   5.804   2.129
 3782TIP3   OH232904   0.323   5.596   0.369
 3782TIP3    H132905   0.325   5.500   0.375
 3782TIP3    H232906   0.233   5.616   0.340
 3783TIP3   OH232907   5.575   0.905   8.288
 3783TIP3    H132908   5.544   0.965   8.220
 3783TIP3    H232909   5.581   0.820   8.244
 3784TIP3   OH232910   1.579   6.090   6.814
 3784TIP3    H132911   1.502   6.118   6.763
 3784TIP3    H232912   1.576   5.995   6.812
 3785TIP3   OH232913   2.085   2.201   0.439
 3785TIP3    H132914   2.162   2.251   0.413
 3785TIP3    H232915   2.056   2.241   0.521
 3786TIP3   OH232916   6.804   3.893   7.502
 3786TIP3    H132917   6.730   3.833   7.499
 3786TIP3    H232918   6.782   3.955   7.572
 3787TIP3   OH232919   1.334   5.040   7.025
 3787TIP3    H132920   1.425   5.064   7.044
 3787TIP3    H232921   1.336   5.011   6.934
 3788TIP3   OH232922   0.781   6.792   7.747
 3788TIP3    H132923   0.690   6.794   7.717
 3788TIP3    H232924   0.808   0.045   7.749
 3789TIP3   OH232925   0.735   5.349   8.329
 3789TIP3    H132926   0.771   5.425   8.283
 3789TIP3    H232927   0.689   5.299   8.262
 3790TIP3   OH232928   1.459   4.036   1.091
 3790TIP3    H132929   1.554   4.037   1.091
 3790TIP3    H232930   1.435   4.017   1.000
 3791TIP3   OH232931   2.906   5.692   0.830
 3791TIP3    H132932   2.952   5.771   0.858
 3791TIP3    H232933   2.852   5.667   0.905
 3792TIP3   OH232934   0.756   3.534   2.177
 3792TIP3    H132935   0.668   3.530   2.215
 3792TIP3    H232936   0.742   3.565   2.088
 3793TIP3   OH232937   4.371   3.355   1.238
 3793TIP3    H132938   4.289   3.404   1.241
 3793TIP3    H232939   4.348   3.268   1.270
 3794TIP3   OH232940   1.561   0.564   0.802
 3794TIP3    H132941   1.584   0.636   0.861
 3794TIP3    H232942   1.643   0.541   0.758
 3795TIP3   OH232943   2.330   4.080   8.299
 3795TIP3    H132944   2.423   4.078   8.324
 3795TIP3    H232945   2.293   4.153   8.349
 3796TIP3   OH232946   0.776   0.959   1.787
 3796TIP3    H132947   0.863   0.952   1.825
 3796TIP3    H232948   0.731   0.880   1.818
 3797TIP3   OH232949   4.992   1.032   1.526
 3797TIP3    H132950   5.012   1.028   1.432
 3797TIP3    H232951   4.962   0.944   1.548
 3798TIP3   OH232952   2.554   3.412   1.893
 3798TIP3    H132953   2.530   3.403   1.986
 3798TIP3    H232954   2.539   3.325   1.856
 3799TIP3   OH232955   6.733   6.126   0.445
 3799TIP3    H132956   6.650   6.161   0.477
 3799TIP3    H232957   6.708   6.057   0.384
 3800TIP3   OH232958   4.230   4.222   7.045
 3800TIP3    H132959   4.263   4.254   7.129
 3800TIP3    H232960   4.179   4.144   7.068
 3801TIP3   OH232961   3.524   5.112   7.890
 3801TIP3    H132962   3.584   5.108   7.816
 3801TIP3    H232963   3.438   5.089   7.853
 3802TIP3   OH232964   2.297   5.936   2.222
 3802TIP3    H132965   2.204   5.948   2.203
 3802TIP3    H232966   2.341   6.002   2.169
 3803TIP3   OH232967   4.440   0.472   7.707
 3803TIP3    H132968   4.454   0.567   7.703
 3803TIP3    H232969   4.525   0.435   7.685
 3804TIP3   OH232970   5.275   6.512   6.592
 3804TIP3    H132971   5.248   6.442   6.532
 3804TIP3    H232972   5.284   6.467   6.677
 3805TIP3   OH232973   1.131   2.338   7.766
 3805TIP3    H132974   1.164   2.291   7.689
 3805TIP3    H232975   1.036   2.345   7.750
 3806TIP3   OH232976   6.128   6.003   2.229
 3806TIP3    H132977   6.132   5.962   2.315
 3806TIP3    H232978   6.096   6.092   2.245
 3807TIP3   OH232979   2.272   2.958   8.014
 3807TIP3    H132980   2.215   2.885   8.036
 3807TIP3    H232981   2.331   2.966   8.090
 3808TIP3   OH232982   4.176   2.179   1.808
 3808TIP3    H132983   4.170   2.124   1.886
 3808TIP3    H232984   4.217   2.260   1.838
 3809TIP3   OH232985   5.311   4.916   6.494
 3809TIP3    H132986   5.404   4.929   6.474
 3809TIP3    H232987   5.290   4.987   6.554
 3810TIP3   OH232988   2.486   5.187   8.595
 3810TIP3    H132989   2.499   5.217   8.506
 3810TIP3    H232990   2.488   5.266   8.648
 3811TIP3   OH232991   1.265   5.167   0.987
 3811TIP3    H132992   1.318   5.239   0.951
 3811TIP3    H232993   1.328   5.116   1.039
 3812TIP3   OH232994   4.880   2.663   8.342
 3812TIP3    H132995   4.970   2.658   8.309
 3812TIP3    H232996   4.862   2.757   8.346
 3813TIP3   OH232997   0.659   4.234   1.238
 3813TIP3    H132998   0.568   4.237   1.268
 3813TIP3    H232999   0.702   4.306   1.284
 3814TIP3   OH233000   5.020   1.712   7.565
 3814TIP3    H133001   5.049   1.621   7.559
 3814TIP3    H233002   5.102   1.763   7.560
 3815TIP3   OH233003   0.987   2.151   8.157
 3815TIP3    H133004   1.039   2.176   8.233
 3815TIP3    H233005   0.936   2.229   8.136
 3816TIP3   OH233006   0.773   3.255   1.812
 3816TIP3    H133007   0.823   3.205   1.876
 3816TIP3    H233008   0.688   3.269   1.853
 3817TIP3   OH233009   2.956   1.813   0.863
 3817TIP3    H133010   2.959   1.909   0.862
 3817TIP3    H233011   2.873   1.792   0.905
 3818TIP3   OH233012   5.102   6.311   1.421
 3818TIP3    H133013   5.088   6.247   1.351
 3818TIP3    H233014   5.164   6.373   1.384
 3819TIP3   OH233015   6.012   3.791   7.340
 3819TIP3    H133016   5.960   3.831   7.410
 3819TIP3    H233017   6.089   3.847   7.332
 3820TIP3   OH233018   1.735   6.759   1.715
 3820TIP3    H133019   1.654   6.803   1.690
 3820TIP3    H233020   1.707   6.675   1.753
 3821TIP3   OH233021   4.193   6.553   1.653
 3821TIP3    H133022   4.171   6.548   1.560
 3821TIP3    H233023   4.130   6.496   1.696
 3822TIP3   OH233024   2.962   0.371   2.094
 3822TIP3    H133025   2.882   0.422   2.097
 3822TIP3    H233026   2.936   0.287   2.057
 3823TIP3   OH233027   4.819   0.919   0.579
 3823TIP3    H133028   4.763   0.861   0.528
 3823TIP3    H233029   4.867   0.860   0.638
 3824TIP3   OH233030   2.684   5.080   2.282
 3824TIP3    H133031   2.595   5.102   2.309
 3824TIP3    H233032   2.682   4.986   2.267
 3825TIP3   OH233033   1.182   2.631   0.133
 3825TIP3    H133034   1.231   2.713   0.134
 3825TIP3    H233035   1.205   2.591   0.049
 3826TIP3   OH233036   3.221   4.526   1.375
 3826TIP3    H133037   3.151   4.461   1.362
 3826TIP3    H233038   3.298   4.486   1.336
 3827TIP3   OH233039   3.195   5.349   1.873
 3827TIP3    H133040   3.147   5.341   1.790
 3827TIP3    H233041   3.279   5.307   1.856
 3828TIP3   OH233042   2.285   4.021   0.855
 3828TIP3    H133043   2.378   4.034   0.874
 3828TIP3    H233044   2.242   4.027   0.940
 3829TIP3   OH233045   2.834   1.839   8.613
 3829TIP3    H133046   2.852   1.860   8.522
 3829TIP3    H233047   2.798   1.750   8.611
 3830TIP3   OH233048   1.406   0.988   7.952
 3830TIP3    H133049   1.465   0.988   7.877
 3830TIP3    H233050   1.447   1.046   8.016
 3831TIP3   OH233051   2.442   3.583   1.514
 3831TIP3    H133052   2.435   3.622   1.427
 3831TIP3    H233053   2.519   3.624   1.553
 3832TIP3   OH233054   3.884   0.757   8.579
 3832TIP3    H133055   3.961   0.701   8.567
 3832TIP3    H233056   3.892   0.824   8.511
 3833TIP3   OH233057   1.809   2.215   8.322
 3833TIP3    H133058   1.725   2.201   8.277
 3833TIP3    H233059   1.785   2.255   8.405
 3834TIP3   OH233060   5.432   4.212   7.735
 3834TIP3    H133061   5.392   4.267   7.803
 3834TIP3    H233062   5.391   4.126   7.746
 3835TIP3   OH233063   6.567   2.616   8.503
 3835TIP3    H133064   6.502   2.546   8.512
 3835TIP3    H233065   6.518   2.689   8.465
 3836TIP3   OH233066   1.393   4.577   8.773
 3836TIP3    H133067   1.430   4.491   0.011
 3836TIP3    H233068   1.418   4.593   8.682
 3837TIP3   OH233069   4.539   3.133   2.007
 3837TIP3    H133070   4.470   3.141   2.072
 3837TIP3    H233071   4.615   3.175   2.047
 3838TIP3   OH233072   3.689   5.061   7.291
 3838TIP3    H133073   3.671   4.984   7.345
 3838TIP3    H233074   3.740   5.027   7.217
 3839TIP3   OH233075   3.497   3.031   8.169
 3839TIP3    H133076   3.564   3.079   8.120
 3839TIP3    H233077   3.490   2.947   8.124
 3840TIP3   OH233078   2.955   5.160   8.566
 3840TIP3    H133079   3.034   5.188   8.612
 3840TIP3    H233080   2.896   5.130   8.635
 3841TIP3   OH233081   1.382   1.313   8.698
 3841TIP3    H133082   1.345   1.399   8.678
 3841TIP3    H233083   1.313   1.267   8.744
 3842TIP3   OH233084   0.785   1.211   6.298
 3842TIP3    H133085   0.749   1.271   6.363
 3842TIP3    H233086   0.764   1.124   6.331
 3843TIP3   OH233087   2.692   6.258   1.515
 3843TIP3    H133088   2.742   6.323   1.564
 3843TIP3    H233089   2.607   6.299   1.500
 3844TIP3   OH233090   6.798   4.768   0.223
 3844TIP3    H133091   0.019   4.743   0.294
 3844TIP3    H233092   6.750   4.844   0.258
 3845TIP3   OH233093   2.354   4.291   8.043
 3845TIP3    H133094   2.350   4.250   7.957
 3845TIP3    H233095   2.361   4.218   8.104
 3846TIP3   OH233096   0.163   4.814   1.537
 3846TIP3    H133097   0.242   4.793   1.587
 3846TIP3    H233098   0.100   4.746   1.562
 3847TIP3   OH233099   1.885   4.137   8.420
 3847TIP3    H133100   1.949   4.208   8.428
 3847TIP3    H233101   1.936   4.057   8.437
 3848TIP3   OH233102   5.487   0.270   8.081
 3848TIP3    H133103   5.443   0.190   8.052
 3848TIP3    H233104   5.476   0.332   8.008
 3849TIP3   OH233105   5.694   4.313   0.711
 3849TIP3    H133106   5.652   4.227   0.717
 3849TIP3    H233107   5.639   4.362   0.650
 3850TIP3   OH233108   6.263   5.641   5.991
 3850TIP3    H133109   6.177   5.641   5.948
 3850TIP3    H233110   6.250   5.589   6.070
 3851TIP3   OH233111   2.087   4.710   0.330
 3851TIP3    H133112   2.006   4.746   0.367
 3851TIP3    H233113   2.146   4.785   0.325
 3852TIP3   OH233114   6.708   4.679   7.474
 3852TIP3    H133115   6.734   4.694   7.383
 3852TIP3    H233116   6.615   4.661   7.470
 3853TIP3   OH233117   5.957   2.031   1.949
 3853TIP3    H133118   5.934   2.122   1.971
 3853TIP3    H233119   6.047   2.021   1.981
 3854TIP3   OH233120   0.158   1.827   1.755
 3854TIP3    H133121   0.123   1.816   1.666
 3854TIP3    H233122   0.253   1.836   1.742
 3855TIP3   OH233123   2.917   1.073   0.101
 3855TIP3    H133124   2.997   1.106   0.061
 3855TIP3    H233125   2.874   1.024   0.031
 3856TIP3   OH233126   3.610   4.576   0.627
 3856TIP3    H133127   3.665   4.655   0.623
 3856TIP3    H233128   3.556   4.580   0.549
 3857TIP3   OH233129   3.297   2.032   0.922
 3857TIP3    H133130   3.336   2.019   0.835
 3857TIP3    H233131   3.321   2.122   0.945
 3858TIP3   OH233132   5.542   5.583   6.784
 3858TIP3    H133133   5.621   5.637   6.790
 3858TIP3    H233134   5.476   5.633   6.832
 3859TIP3   OH233135   0.906   3.345   6.506
 3859TIP3    H133136   0.902   3.405   6.581
 3859TIP3    H233137   0.863   3.265   6.537
 3860TIP3   OH233138   0.206   2.185   7.817
 3860TIP3    H133139   0.214   2.149   7.729
 3860TIP3    H233140   0.112   2.199   7.829
 3861TIP3   OH233141   6.235   0.506   6.490
 3861TIP3    H133142   6.252   0.590   6.532
 3861TIP3    H233143   6.310   0.493   6.431
 3862TIP3   OH233144   6.656   1.784   1.332
 3862TIP3    H133145   6.705   1.813   1.410
 3862TIP3    H233146   6.593   1.721   1.366
 3863TIP3   OH233147   4.105   0.070   8.693
 3863TIP3    H133148   4.079   6.818   8.711
 3863TIP3    H233149   4.028   0.122   8.716
 3864TIP3   OH233150   3.340   0.377   6.841
 3864TIP3    H133151   3.370   0.293   6.805
 3864TIP3    H233152   3.248   0.383   6.814
 3865TIP3   OH233153   2.903   3.087   6.700
 3865TIP3    H133154   2.825   3.068   6.648
 3865TIP3    H233155   2.873   3.151   6.765
 3866TIP3   OH233156   3.836   3.629   8.205
 3866TIP3    H133157   3.873   3.542   8.214
 3866TIP3    H233158   3.742   3.617   8.221
 3867TIP3   OH233159   5.724   3.029   1.661
 3867TIP3    H133160   5.697   3.112   1.621
 3867TIP3    H233161   5.792   2.996   1.603
 3868TIP3   OH233162   5.734   2.378   8.686
 3868TIP3    H133163   5.829   2.387   8.694
 3868TIP3    H233164   5.717   2.384   8.592
 3869TIP3   OH233165   5.904   5.053   0.830
 3869TIP3    H133166   5.824   5.001   0.823
 3869TIP3    H233167   5.952   5.014   0.903
 3870TIP3   OH233168   4.217   2.352   7.315
 3870TIP3    H133169   4.256   2.266   7.301
 3870TIP3    H233170   4.223   2.396   7.230
 3871TIP3   OH233171   3.933   5.687   0.605
 3871TIP3    H133172   3.876   5.695   0.528
 3871TIP3    H233173   3.969   5.775   0.617
 3872TIP3   OH233174   0.027   6.187   8.624
 3872TIP3    H133175   0.110   6.187   8.672
 3872TIP3    H233176   6.804   6.228   8.685
 3873TIP3   OH233177   0.156   2.517   7.678
 3873TIP3    H133178   0.194   2.504   7.765
 3873TIP3    H233179   0.065   2.490   7.687
 3874TIP3   OH233180   4.556   4.528   8.658
 3874TIP3    H133181   4.491   4.558   8.594
 3874TIP3    H233182   4.588   4.445   8.622
 3875TIP3   OH233183   5.558   4.355   6.880
 3875TIP3    H133184   5.546   4.413   6.805
 3875TIP3    H233185   5.544   4.411   6.956
 3876TIP3   OH233186   4.881   0.991   7.379
 3876TIP3    H133187   4.858   1.032   7.295
 3876TIP3    H233188   4.824   0.914   7.384
 3877TIP3   OH233189   4.195   6.363   0.589
 3877TIP3    H133190   4.134   6.310   0.537
 3877TIP3    H233191   4.270   6.305   0.605
 3878TIP3   OH233192   0.692   4.400   1.873
 3878TIP3    H133193   0.767   4.446   1.834
 3878TIP3    H233194   0.687   4.318   1.825
 3879TIP3   OH233195   5.637   4.093   0.185
 3879TIP3    H133196   5.580   4.034   0.137
 3879TIP3    H233197   5.716   4.100   0.131
 3880TIP3   OH233198   3.934   4.364   1.661
 3880TIP3    H133199   3.998   4.355   1.731
 3880TIP3    H233200   3.954   4.292   1.601
 3881TIP3   OH233201   3.704   6.401   2.329
 3881TIP3    H133202   3.659   6.476   2.369
 3881TIP3    H233203   3.677   6.403   2.237
 3882TIP3   OH233204   1.500   3.493   0.594
 3882TIP3    H133205   1.514   3.525   0.505
 3882TIP3    H233206   1.421   3.538   0.624
 3883TIP3   OH233207   0.771   4.826   0.899
 3883TIP3    H133208   0.825   4.860   0.828
 3883TIP3    H233209   0.706   4.895   0.914
 3884TIP3   OH233210   4.954   5.548   8.192
 3884TIP3    H133211   4.929   5.456   8.180
 3884TIP3    H233212   4.964   5.557   8.287
 3885TIP3   OH233213   2.941   5.298   7.151
 3885TIP3    H133214   2.955   5.324   7.242
 3885TIP3    H233215   3.028   5.300   7.112
 3886TIP3   OH233216   0.483   1.306   2.169
 3886TIP3    H133217   0.435   1.276   2.245
 3886TIP3    H233218   0.429   1.281   2.094
 3887TIP3   OH233219   5.073   4.760   0.127
 3887TIP3    H133220   5.070   4.666   0.142
 3887TIP3    H233221   5.159   4.788   0.159
 3888TIP3   OH233222   3.543   3.465   8.017
 3888TIP3    H133223   3.538   3.522   8.094
 3888TIP3    H233224   3.623   3.493   7.972
 3889TIP3   OH233225   5.851   0.068   0.514
 3889TIP3    H133226   5.913   6.833   0.523
 3889TIP3    H233227   5.795   0.043   0.440
 3890TIP3   OH233228   1.386   6.005   8.454
 3890TIP3    H133229   1.400   5.915   8.425
 3890TIP3    H233230   1.361   6.052   8.375
 3891TIP3   OH233231   6.198   3.408   0.757
 3891TIP3    H133232   6.287   3.431   0.731
 3891TIP3    H233233   6.207   3.325   0.804
 3892TIP3   OH233234   0.630   3.276   8.753
 3892TIP3    H133235   0.594   3.364   8.744
 3892TIP3    H233236   0.565   3.229   0.022
 3893TIP3   OH233237   3.107   0.389   8.041
 3893TIP3    H133238   3.017   0.420   8.029
 3893TIP3    H233239   3.098   0.293   8.044
 3894TIP3   OH233240   1.959   4.196   8.134
 3894TIP3    H133241   1.907   4.195   8.214
 3894TIP3    H233242   1.899   4.229   8.067
 3895TIP3   OH233243   6.378   6.132   0.908
 3895TIP3    H133244   6.319   6.190   0.955
 3895TIP3    H233245   6.445   6.190   0.871
 3896TIP3   OH233246   3.233   0.306   2.102
 3896TIP3    H133247   3.199   0.221   2.131
 3896TIP3    H233248   3.167   0.369   2.129
 3897TIP3   OH233249   6.836   6.480   2.155
 3897TIP3    H133250   0.087   6.446   2.147
 3897TIP3    H233251   6.829   6.506   2.247
 3898TIP3   OH233252   5.529   6.709   6.820
 3898TIP3    H133253   5.473   6.773   6.864
 3898TIP3    H233254   5.563   6.756   6.744
 3899TIP3   OH233255   5.728   2.286   6.621
 3899TIP3    H133256   5.711   2.364   6.567
 3899TIP3    H233257   5.653   2.281   6.679
 3900TIP3   OH233258   4.462   1.247   7.892
 3900TIP3    H133259   4.508   1.167   7.870
 3900TIP3    H233260   4.530   1.314   7.895
 3901TIP3   OH233261   3.225   1.909   0.605
 3901TIP3    H133262   3.213   1.960   0.525
 3901TIP3    H233263   3.151   1.935   0.661
 3902TIP3   OH233264   5.272   2.068   0.924
 3902TIP3    H133265   5.202   2.049   0.986
 3902TIP3    H233266   5.265   2.162   0.909
 3903TIP3   OH233267   5.699   0.107   0.271
 3903TIP3    H133268   5.689   0.132   0.179
 3903TIP3    H233269   5.633   0.040   0.285
 3904TIP3   OH233270   3.575   0.985   8.520
 3904TIP3    H133271   3.652   0.928   8.521
 3904TIP3    H233272   3.581   1.033   8.438
 3905TIP3   OH233273   0.797   5.435   0.013
 3905TIP3    H133274   0.747   5.422   0.094
 3905TIP3    H233275   0.776   5.525   8.769
 3906TIP3   OH233276   4.743   5.490   0.199
 3906TIP3    H133277   4.743   5.561   0.135
 3906TIP3    H233278   4.670   5.434   0.173
 3907TIP3   OH233279   2.263   4.680   0.573
 3907TIP3    H133280   2.359   4.679   0.582
 3907TIP3    H233281   2.243   4.771   0.550
 3908TIP3   OH233282   5.165   0.458   8.093
 3908TIP3    H133283   5.199   0.410   8.018
 3908TIP3    H233284   5.241   0.475   8.148
 3909TIP3   OH233285   4.855   0.877   1.211
 3909TIP3    H133286   4.906   0.952   1.182
 3909TIP3    H233287   4.764   0.906   1.203
 3910TIP3   OH233288   3.515   1.774   1.051
 3910TIP3    H133289   3.498   1.744   1.140
 3910TIP3    H233290   3.562   1.857   1.061
 3911TIP3   OH233291   5.843   0.979   7.586
 3911TIP3    H133292   5.849   1.010   7.495
 3911TIP3    H233293   5.878   0.889   7.583
 3912TIP3   OH233294   5.866   4.007   0.557
 3912TIP3    H133295   5.922   3.931   0.540
 3912TIP3    H233296   5.920   4.066   0.609
 3913TIP3   OH233297   0.615   0.347   0.172
 3913TIP3    H133298   0.604   0.261   0.133
 3913TIP3    H233299   0.695   0.381   0.132
 3914TIP3   OH233300   6.756   4.244   1.374
 3914TIP3    H133301   6.728   4.240   1.465
 3914TIP3    H233302   6.760   4.338   1.354
 3915TIP3   OH233303   2.584   5.272   2.068
 3915TIP3    H133304   2.568   5.335   2.138
 3915TIP3    H233305   2.624   5.197   2.112
 3916TIP3   OH233306   0.955   5.748   7.369
 3916TIP3    H133307   0.860   5.736   7.372
 3916TIP3    H233308   0.990   5.661   7.353
 3917TIP3   OH233309   3.135   0.122   8.114
 3917TIP3    H133310   3.195   0.152   8.182
 3917TIP3    H233311   3.099   0.041   8.149
 3918TIP3   OH233312   5.913   4.381   8.531
 3918TIP3    H133313   5.880   4.313   8.472
 3918TIP3    H233314   5.989   4.417   8.485
 3919TIP3   OH233315   1.775   5.243   7.809
 3919TIP3    H133316   1.857   5.271   7.849
 3919TIP3    H233317   1.768   5.150   7.834
 3920TIP3   OH233318   6.307   0.677   2.533
 3920TIP3    H133319   6.340   0.600   2.487
 3920TIP3    H233320   6.263   0.642   2.610
 3921TIP3   OH233321   0.135   1.085   0.891
 3921TIP3    H133322   0.049   1.122   0.871
 3921TIP3    H233323   0.128   1.055   0.982
 3922TIP3   OH233324   0.508   0.822   1.880
 3922TIP3    H133325   0.536   0.746   1.932
 3922TIP3    H233326   0.536   0.898   1.932
 3923TIP3   OH233327   1.049   0.259   7.181
 3923TIP3    H133328   0.984   0.268   7.250
 3923TIP3    H233329   1.132   0.244   7.227
 3924TIP3   OH233330   3.149   4.780   7.200
 3924TIP3    H133331   3.094   4.853   7.227
 3924TIP3    H233332   3.091   4.721   7.152
 3925TIP3   OH233333   5.929   6.489   1.129
 3925TIP3    H133334   5.968   6.469   1.215
 3925TIP3    H233335   5.857   6.548   1.149
 3926TIP3   OH233336   3.098   6.201   8.722
 3926TIP3    H133337   3.005   6.182   8.715
 3926TIP3    H233338   3.137   6.155   8.647
 3927TIP3   OH233339   0.288   1.123   0.660
 3927TIP3    H133340   0.242   1.111   0.744
 3927TIP3    H233341   0.322   1.036   0.639
 3928TIP3   OH233342   4.235   0.392   7.514
 3928TIP3    H133343   4.309   0.429   7.562
 3928TIP3    H233344   4.266   0.306   7.485
 3929TIP3   OH233345   3.142   2.465   0.767
 3929TIP3    H133346   3.166   2.381   0.727
 3929TIP3    H233347   3.053   2.482   0.734
 3930TIP3   OH233348   2.514   4.386   0.478
 3930TIP3    H133349   2.519   4.464   0.533
 3930TIP3    H233350   2.443   4.334   0.516
 3931TIP3   OH233351   5.301   6.528   1.738
 3931TIP3    H133352   5.328   6.437   1.746
 3931TIP3    H233353   5.293   6.559   1.828
 3932TIP3   OH233354   1.147   5.893   0.662
 3932TIP3    H133355   1.146   5.868   0.754
 3932TIP3    H233356   1.076   5.956   0.654
 3933TIP3   OH233357   1.081   2.919   1.272
 3933TIP3    H133358   1.078   2.829   1.304
 3933TIP3    H233359   1.013   2.964   1.322
 3934TIP3   OH233360   3.331   6.109   0.390
 3934TIP3    H133361   3.275   6.150   0.324
 3934TIP3    H233362   3.271   6.058   0.445
 3935TIP3   OH233363   3.668   1.285   8.781
 3935TIP3    H133364   3.636   1.374   0.014
 3935TIP3    H233365   3.735   1.295   8.714
 3936TIP3   OH233366   0.258   2.413   1.549
 3936TIP3    H133367   0.221   2.328   1.571
 3936TIP3    H233368   0.278   2.408   1.456
 3937TIP3   OH233369   1.511   3.974   8.643
 3937TIP3    H133370   1.544   4.061   8.619
 3937TIP3    H233371   1.498   3.978   8.738
 3938TIP3   OH233372   5.617   1.217   0.028
 3938TIP3    H133373   5.615   1.294   0.085
 3938TIP3    H233374   5.656   1.248   8.729
 3939TIP3   OH233375   6.831   4.614   1.583
 3939TIP3    H133376   0.066   4.553   1.574
 3939TIP3    H233377   6.756   4.566   1.546
 3940TIP3   OH233378   6.371   5.950   6.610
 3940TIP3    H133379   6.368   6.021   6.547
 3940TIP3    H233380   6.457   5.959   6.651
 3941TIP3   OH233381   5.470   2.386   8.144
 3941TIP3    H133382   5.397   2.443   8.121
 3941TIP3    H233383   5.430   2.313   8.191
 3942TIP3   OH233384   2.197   3.089   1.458
 3942TIP3    H133385   2.226   3.172   1.495
 3942TIP3    H233386   2.210   3.026   1.529
 3943TIP3   OH233387   2.157   5.558   8.217
 3943TIP3    H133388   2.165   5.607   8.136
 3943TIP3    H233389   2.119   5.620   8.279
 3944TIP3   OH233390   1.901   0.029   6.576
 3944TIP3    H133391   1.881   6.821   6.495
 3944TIP3    H233392   1.992   0.007   6.595
 3945TIP3   OH233393   3.798   6.755   7.821
 3945TIP3    H133394   3.758   6.750   7.908
 3945TIP3    H233395   3.890   6.734   7.835
 3946TIP3   OH233396   2.804   3.308   1.565
 3946TIP3    H133397   2.801   3.293   1.660
 3946TIP3    H233398   2.712   3.304   1.538
 3947TIP3   OH233399   0.123   1.244   8.395
 3947TIP3    H133400   0.198   1.221   8.449
 3947TIP3    H233401   0.065   1.293   8.453
 3948TIP3   OH233402   0.724   1.703   7.773
 3948TIP3    H133403   0.730   1.728   7.865
 3948TIP3    H233404   0.766   1.775   7.726
 3949TIP3   OH233405   4.994   0.997   8.242
 3949TIP3    H133406   5.089   1.005   8.241
 3949TIP3    H233407   4.963   1.082   8.272
 3950TIP3   OH233408   4.781   2.968   1.111
 3950TIP3    H133409   4.760   2.950   1.019
 3950TIP3    H233410   4.695   2.982   1.152
 3951TIP3   OH233411   2.401   3.247   7.378
 3951TIP3    H133412   2.311   3.270   7.357
 3951TIP3    H233413   2.430   3.192   7.305
 3952TIP3   OH233414   0.240   1.919   7.073
 3952TIP3    H133415   0.256   1.975   6.997
 3952TIP3    H233416   0.177   1.854   7.043
 3953TIP3   OH233417   3.220   2.101   6.982
 3953TIP3    H133418   3.214   2.016   6.938
 3953TIP3    H233419   3.142   2.148   6.953
 3954TIP3   OH233420   5.995   5.274   7.714
 3954TIP3    H133421   6.052   5.220   7.769
 3954TIP3    H233422   6.042   5.356   7.703
 3955TIP3   OH233423   0.480   4.210   7.828
 3955TIP3    H133424   0.418   4.263   7.877
 3955TIP3    H233425   0.561   4.213   7.880
 3956TIP3   OH233426   1.869   0.704   8.427
 3956TIP3    H133427   1.790   0.750   8.456
 3956TIP3    H233428   1.886   0.737   8.339
 3957TIP3   OH233429   5.321   3.110   1.832
 3957TIP3    H133430   5.342   3.144   1.919
 3957TIP3    H233431   5.330   3.185   1.773
 3958TIP3   OH233432   3.880   0.531   7.414
 3958TIP3    H133433   3.866   0.488   7.498
 3958TIP3    H233434   3.824   0.483   7.353
 3959TIP3   OH233435   3.607   5.894   7.815
 3959TIP3    H133436   3.591   5.913   7.907
 3959TIP3    H233437   3.586   5.976   7.770
 3960TIP3   OH233438   6.660   6.318   8.339
 3960TIP3    H133439   6.732   6.352   8.392
 3960TIP3    H233440   6.679   6.224   8.330
 3961TIP3   OH233441   1.669   2.840   1.260
 3961TIP3    H133442   1.651   2.857   1.352
 3961TIP3    H233443   1.584   2.817   1.222
 3962TIP3   OH233444   1.166   3.868   2.303
 3962TIP3    H133445   1.093   3.890   2.361
 3962TIP3    H233446   1.161   3.773   2.294
 3963TIP3   OH233447   0.041   3.863   0.034
 3963TIP3    H133448   6.799   3.866   8.765
 3963TIP3    H233449   0.045   3.947   0.079
 3964TIP3   OH233450   1.526   2.723   0.603
 3964TIP3    H133451   1.451   2.670   0.576
 3964TIP3    H233452   1.594   2.702   0.539
 3965TIP3   OH233453   4.986   6.453   7.160
 3965TIP3    H133454   4.945   6.465   7.074
 3965TIP3    H233455   4.991   6.542   7.196
 3966TIP3   OH233456   5.138   5.188   8.046
 3966TIP3    H133457   5.103   5.102   8.067
 3966TIP3    H233458   5.065   5.234   8.004
 3967TIP3   OH233459   3.949   4.721   6.746
 3967TIP3    H133460   4.038   4.710   6.713
 3967TIP3    H233461   3.950   4.684   6.834
 3968TIP3   OH233462   1.474   2.337   1.485
 3968TIP3    H133463   1.450   2.406   1.547
 3968TIP3    H233464   1.469   2.379   1.399
 3969TIP3   OH233465   4.831   3.302   7.381
 3969TIP3    H133466   4.765   3.301   7.450
 3969TIP3    H233467   4.914   3.295   7.426
 3970TIP3   OH233468   4.461   1.689   8.630
 3970TIP3    H133469   4.442   1.699   8.537
 3970TIP3    H233470   4.424   1.767   8.671
 3971TIP3   OH233471   3.471   5.935   7.068
 3971TIP3    H133472   3.524   5.868   7.111
 3971TIP3    H233473   3.521   5.957   6.989
 3972TIP3   OH233474   4.632   5.481   6.802
 3972TIP3    H133475   4.646   5.573   6.824
 3972TIP3    H233476   4.687   5.465   6.726
 3973TIP3   OH233477   3.472   4.455   1.314
 3973TIP3    H133478   3.548   4.442   1.258
 3973TIP3    H233479   3.488   4.400   1.390
 3974TIP3   OH233480   3.430   2.549   0.840
 3974TIP3    H133481   3.523   2.526   0.839
 3974TIP3    H233482   3.386   2.473   0.877
 3975TIP3   OH233483   4.323   5.368   7.400
 3975TIP3    H133484   4.281   5.411   7.326
 3975TIP3    H233485   4.400   5.325   7.362
 3976TIP3   OH233486   3.063   2.020   2.415
 3976TIP3    H133487   3.096   2.091   2.359
 3976TIP3    H233488   2.990   1.983   2.365
 3977TIP3   OH233489   4.170   1.195   6.380
 3977TIP3    H133490   4.185   1.195   6.285
 3977TIP3    H233491   4.240   1.249   6.416
 3978TIP3   OH233492   1.197   2.229   6.978
 3978TIP3    H133493   1.210   2.157   7.040
 3978TIP3    H233494   1.244   2.303   7.017
 3979TIP3   OH233495   4.991   2.232   0.236
 3979TIP3    H133496   5.073   2.236   0.284
 3979TIP3    H233497   5.016   2.228   0.144
 3980TIP3   OH233498   2.441   5.704   0.888
 3980TIP3    H133499   2.365   5.711   0.830
 3980TIP3    H233500   2.403   5.698   0.976
 3981TIP3   OH233501   2.003   0.110   7.913
 3981TIP3    H133502   2.055   0.097   7.834
 3981TIP3    H233503   1.968   0.199   7.904
 3982TIP3   OH233504   1.407   1.224   0.526
 3982TIP3    H133505   1.495   1.227   0.489
 3982TIP3    H233506   1.387   1.314   0.549
 3983TIP3   OH233507   0.259   1.949   8.259
 3983TIP3    H133508   0.208   2.026   8.238
 3983TIP3    H233509   0.203   1.897   8.317
 3984TIP3   OH233510   5.752   3.047   7.895
 3984TIP3    H133511   5.807   3.121   7.872
 3984TIP3    H233512   5.664   3.084   7.905
 3985TIP3   OH233513   5.178   2.408   0.933
 3985TIP3    H133514   5.179   2.449   0.847
 3985TIP3    H233515   5.148   2.476   0.992
 3986TIP3   OH233516   0.369   5.635   1.775
 3986TIP3    H133517   0.299   5.619   1.837
 3986TIP3    H233518   0.434   5.685   1.825
 3987TIP3   OH233519   3.008   3.154   0.066
 3987TIP3    H133520   2.931   3.182   0.016
 3987TIP3    H233521   2.989   3.182   0.156
 3988TIP3   OH233522   6.536   1.715   8.530
 3988TIP3    H133523   6.510   1.766   8.607
 3988TIP3    H233524   6.484   1.752   8.458
 3989TIP3   OH233525   6.411   2.812   7.525
 3989TIP3    H133526   6.402   2.827   7.619
 3989TIP3    H233527   6.470   2.881   7.495
 3990TIP3   OH233528   6.227   5.510   6.228
 3990TIP3    H133529   6.146   5.460   6.234
 3990TIP3    H233530   6.293   5.454   6.267
 3991TIP3   OH233531   4.300   2.497   0.935
 3991TIP3    H133532   4.321   2.590   0.940
 3991TIP3    H233533   4.219   2.494   0.884
 3992TIP3   OH233534   5.482   5.640   0.144
 3992TIP3    H133535   5.521   5.724   0.168
 3992TIP3    H233536   5.556   5.588   0.112
 3993TIP3   OH233537   6.608   4.773   2.082
 3993TIP3    H133538   6.623   4.682   2.107
 3993TIP3    H233539   6.645   4.780   1.994
 3994TIP3   OH233540   2.754   2.314   0.545
 3994TIP3    H133541   2.758   2.325   0.450
 3994TIP3    H233542   2.678   2.257   0.559
 3995TIP3   OH233543   2.856   0.276   0.152
 3995TIP3    H133544   2.780   0.318   0.111
 3995TIP3    H233545   2.923   0.275   0.083
 3996TIP3   OH233546   1.081   1.176   0.499
 3996TIP3    H133547   1.101   1.125   0.420
 3996TIP3    H233548   1.082   1.267   0.470
 3997TIP3   OH233549   6.606   1.242   1.520
 3997TIP3    H133550   6.631   1.163   1.471
 3997TIP3    H233551   6.558   1.209   1.596
 3998TIP3   OH233552   2.701   4.854   0.884
 3998TIP3    H133553   2.645   4.911   0.937
 3998TIP3    H233554   2.693   4.768   0.926
 3999TIP3   OH233555   3.504   1.940   7.616
 3999TIP3    H133556   3.577   1.879   7.611
 3999TIP3    H233557   3.492   1.956   7.709
 4000TIP3   OH233558   3.612   2.710   0.579
 4000TIP3    H133559   3.691   2.760   0.560
 4000TIP3    H233560   3.622   2.629   0.530
 4001TIP3   OH233561   1.103   1.483   0.233
 4001TIP3    H133562   1.192   1.450   0.223
 4001TIP3    H233563   1.053   1.439   0.164
 4002TIP3   OH233564   6.752   6.624   8.211
 4002TIP3    H133565   6.772   6.551   8.153
 4002TIP3    H233566   6.815   6.615   8.283
 4003TIP3   OH233567   2.512   2.078   8.442
 4003TIP3    H133568   2.563   2.156   8.420
 4003TIP3    H233569   2.486   2.042   8.357
 4004TIP3   OH233570   6.014   5.669   8.240
 4004TIP3    H133571   5.927   5.683   8.278
 4004TIP3    H233572   5.999   5.670   8.146
 4005TIP3   OH233573   1.223   4.237   7.633
 4005TIP3    H133574   1.145   4.242   7.578
 4005TIP3    H233575   1.290   4.285   7.584
 4006TIP3   OH233576   1.580   3.172   2.113
 4006TIP3    H133577   1.515   3.242   2.117
 4006TIP3    H233578   1.573   3.136   2.025
 4007TIP3   OH233579   2.677   6.349   1.061
 4007TIP3    H133580   2.764   6.373   1.029
 4007TIP3    H233581   2.620   6.419   1.031
 4008TIP3   OH233582   3.392   4.358   7.474
 4008TIP3    H133583   3.424   4.428   7.532
 4008TIP3    H233584   3.320   4.318   7.523
 4009TIP3   OH233585   1.885   2.720   1.164
 4009TIP3    H133586   1.815   2.758   1.216
 4009TIP3    H233587   1.897   2.781   1.091
 4010TIP3   OH233588   5.428   3.087   7.271
 4010TIP3    H133589   5.348   3.035   7.280
 4010TIP3    H233590   5.436   3.101   7.177
 4011TIP3   OH233591   4.376   3.924   7.960
 4011TIP3    H133592   4.437   3.865   8.003
 4011TIP3    H233593   4.290   3.887   7.978
 4012TIP3   OH233594   5.433   2.446   2.589
 4012TIP3    H133595   5.403   2.489   2.669
 4012TIP3    H233596   5.521   2.480   2.575
 4013TIP3   OH233597   5.524   2.416   1.785
 4013TIP3    H133598   5.604   2.399   1.736
 4013TIP3    H233599   5.545   2.390   1.875
 4014TIP3   OH233600   2.478   0.481   0.391
 4014TIP3    H133601   2.570   0.463   0.412
 4014TIP3    H233602   2.478   0.572   0.361
 4015TIP3   OH233603   2.377   6.175   8.668
 4015TIP3    H133604   2.326   6.101   8.636
 4015TIP3    H233605   2.422   6.209   8.591
 4016TIP3   OH233606   1.319   2.420   7.117
 4016TIP3    H133607   1.357   2.378   7.194
 4016TIP3    H233608   1.393   2.458   7.070
 4017TIP3   OH233609   6.814   3.645   6.908
 4017TIP3    H133610   6.834   3.739   6.917
 4017TIP3    H233611   6.728   3.635   6.948
 4018TIP3   OH233612   3.659   6.546   8.608
 4018TIP3    H133613   3.725   6.610   8.583
 4018TIP3    H233614   3.646   6.493   8.529
 4019TIP3   OH233615   5.733   0.301   0.554
 4019TIP3    H133616   5.657   0.262   0.512
 4019TIP3    H233617   5.796   0.229   0.561
 4020TIP3   OH233618   4.979   4.942   7.848
 4020TIP3    H133619   5.049   5.004   7.827
 4020TIP3    H233620   4.899   4.988   7.826
 4021TIP3   OH233621   0.876   3.074   2.019
 4021TIP3    H133622   0.907   3.005   1.960
 4021TIP3    H233623   0.932   3.066   2.096
 4022TIP3   OH233624   5.285   2.990   6.768
 4022TIP3    H133625   5.350   2.952   6.709
 4022TIP3    H233626   5.230   3.045   6.711
 4023TIP3   OH233627   3.458   4.132   6.487
 4023TIP3    H133628   3.537   4.131   6.542
 4023TIP3    H233629   3.386   4.117   6.548
 4024TIP3   OH233630   0.344   4.701   0.032
 4024TIP3    H133631   0.413   4.642   0.062
 4024TIP3    H233632   0.377   4.736   8.732
 4025TIP3   OH233633   5.459   1.177   1.664
 4025TIP3    H133634   5.458   1.134   1.750
 4025TIP3    H233635   5.550   1.168   1.634
 4026TIP3   OH233636   3.555   4.316   1.527
 4026TIP3    H133637   3.640   4.282   1.499
 4026TIP3    H233638   3.551   4.295   1.620
 4027TIP3   OH233639   5.926   4.980   2.080
 4027TIP3    H133640   5.950   5.050   2.141
 4027TIP3    H233641   6.009   4.950   2.044
 4028TIP3   OH233642   2.687   5.565   8.120
 4028TIP3    H133643   2.604   5.603   8.093
 4028TIP3    H233644   2.752   5.608   8.064
 4029TIP3   OH233645   1.217   2.697   8.457
 4029TIP3    H133646   1.156   2.650   8.515
 4029TIP3    H233647   1.253   2.629   8.400
 4030TIP3   OH233648   2.414   4.385   1.056
 4030TIP3    H133649   2.333   4.388   1.004
 4030TIP3    H233650   2.402   4.453   1.122
 4031TIP3   OH233651   3.124   4.264   8.324
 4031TIP3    H133652   3.190   4.241   8.258
 4031TIP3    H233653   3.121   4.188   8.382
 4032TIP3   OH233654   5.533   1.731   1.444
 4032TIP3    H133655   5.494   1.708   1.529
 4032TIP3    H233656   5.620   1.691   1.446
 4033TIP3   OH233657   4.823   0.483   8.386
 4033TIP3    H133658   4.785   0.395   8.382
 4033TIP3    H233659   4.863   0.496   8.300
 4034TIP3   OH233660   5.168   2.738   1.829
 4034TIP3    H133661   5.171   2.824   1.786
 4034TIP3    H233662   5.109   2.751   1.904
 4035TIP3   OH233663   3.756   5.346   7.843
 4035TIP3    H133664   3.760   5.442   7.847
 4035TIP3    H233665   3.708   5.321   7.921
 4036TIP3   OH233666   3.493   1.586   7.607
 4036TIP3    H133667   3.572   1.623   7.568
 4036TIP3    H233668   3.425   1.650   7.589
 4037TIP3   OH233669   2.330   0.485   1.947
 4037TIP3    H133670   2.271   0.528   2.009
 4037TIP3    H233671   2.408   0.466   1.998
 4038TIP3   OH233672   5.784   5.995   8.695
 4038TIP3    H133673   5.763   6.084   8.724
 4038TIP3    H233674   5.804   6.004   8.602
 4039TIP3   OH233675   0.146   5.789   8.587
 4039TIP3    H133676   0.114   5.699   8.578
 4039TIP3    H233677   0.068   5.843   8.577
 4040TIP3   OH233678   0.485   0.227   0.888
 4040TIP3    H133679   0.422   0.251   0.956
 4040TIP3    H233680   0.440   0.158   0.838
 4041TIP3   OH233681   0.336   1.516   1.461
 4041TIP3    H133682   0.321   1.512   1.367
 4041TIP3    H233683   0.369   1.430   1.484
 4042TIP3   OH233684   3.142   3.193   8.619
 4042TIP3    H133685   3.198   3.116   8.607
 4042TIP3    H233686   3.105   3.183   8.707
 4043TIP3   OH233687   0.929   2.682   0.214
 4043TIP3    H133688   1.022   2.665   0.206
 4043TIP3    H233689   0.923   2.766   0.259
 4044TIP3   OH233690   5.653   2.234   0.815
 4044TIP3    H133691   5.599   2.267   0.887
 4044TIP3    H233692   5.714   2.173   0.856
 4045TIP3   OH233693   6.243   5.669   8.763
 4045TIP3    H133694   6.274   5.754   0.013
 4045TIP3    H233695   6.218   5.687   8.672
 4046TIP3   OH233696   5.204   0.988   6.717
 4046TIP3    H133697   5.231   0.897   6.731
 4046TIP3    H233698   5.134   0.983   6.652
 4047TIP3   OH233699   6.433   0.676   2.113
 4047TIP3    H133700   6.360   0.705   2.167
 4047TIP3    H233701   6.502   0.742   2.128
 4048TIP3   OH233702   4.587   4.598   1.034
 4048TIP3    H133703   4.586   4.515   1.083
 4048TIP3    H233704   4.677   4.629   1.040
 4049TIP3   OH233705   3.856   3.754   0.295
 4049TIP3    H133706   3.824   3.725   0.380
 4049TIP3    H233707   3.908   3.681   0.262
 4050TIP3   OH233708   2.265   6.786   0.292
 4050TIP3    H133709   2.292   0.015   0.354
 4050TIP3    H233710   2.339   6.777   0.232
 4051TIP3   OH233711   2.172   3.557   1.933
 4051TIP3    H133712   2.220   3.485   1.974
 4051TIP3    H233713   2.197   3.554   1.841
 4052TIP3   OH233714   2.135   2.508   1.130
 4052TIP3    H133715   2.107   2.586   1.177
 4052TIP3    H233716   2.175   2.452   1.197
 4053TIP3   OH233717   1.582   3.231   0.118
 4053TIP3    H133718   1.542   3.200   0.199
 4053TIP3    H233719   1.671   3.256   0.144
 4054TIP3   OH233720   3.839   4.089   2.510
 4054TIP3    H133721   3.829   4.113   2.418
 4054TIP3    H233722   3.889   4.161   2.548
 4055TIP3   OH233723   2.036   3.933   8.752
 4055TIP3    H133724   2.044   3.951   8.659
 4055TIP3    H233725   2.015   4.018   0.008
 4056TIP3   OH233726   3.834   2.838   1.523
 4056TIP3    H133727   3.823   2.867   1.432
 4056TIP3    H233728   3.763   2.882   1.570
 4057TIP3   OH233729   1.327   6.160   7.342
 4057TIP3    H133730   1.290   6.242   7.375
 4057TIP3    H233731   1.408   6.149   7.391
 4058TIP3   OH233732   5.633   6.357   6.237
 4058TIP3    H133733   5.702   6.414   6.203
 4058TIP3    H233734   5.624   6.288   6.171
 4059TIP3   OH233735   1.159   3.704   8.201
 4059TIP3    H133736   1.169   3.643   8.128
 4059TIP3    H233737   1.076   3.679   8.241
 4060TIP3   OH233738   0.187   4.359   6.300
 4060TIP3    H133739   0.233   4.442   6.306
 4060TIP3    H233740   0.211   4.312   6.380
 4061TIP3   OH233741   0.384   4.758   1.697
 4061TIP3    H133742   0.449   4.827   1.707
 4061TIP3    H233743   0.435   4.680   1.674
 4062TIP3   OH233744   2.253   3.617   7.528
 4062TIP3    H133745   2.212   3.703   7.517
 4062TIP3    H233746   2.236   3.594   7.620
 4063TIP3   OH233747   3.359   3.451   7.037
 4063TIP3    H133748   3.358   3.545   7.056
 4063TIP3    H233749   3.267   3.430   7.019
 4064TIP3   OH233750   3.340   3.260   1.091
 4064TIP3    H133751   3.245   3.274   1.083
 4064TIP3    H233752   3.349   3.190   1.155
 4065TIP3   OH233753   3.419   0.168   7.516
 4065TIP3    H133754   3.346   0.188   7.457
 4065TIP3    H233755   3.489   0.137   7.458
 4066TIP3   OH233756   0.946   4.401   0.482
 4066TIP3    H133757   0.997   4.356   0.415
 4066TIP3    H233758   1.006   4.412   0.556
 4067TIP3   OH233759   0.962   4.960   6.615
 4067TIP3    H133760   0.935   4.890   6.674
 4067TIP3    H233761   1.056   4.946   6.601
 4068TIP3   OH233762   1.596   1.397   2.148
 4068TIP3    H133763   1.538   1.322   2.138
 4068TIP3    H233764   1.567   1.460   2.083
 4069TIP3   OH233765   2.369   1.937   8.649
 4069TIP3    H133766   2.368   1.968   8.558
 4069TIP3    H233767   2.279   1.912   8.667
 4070TIP3   OH233768   6.459   1.273   7.939
 4070TIP3    H133769   6.376   1.227   7.953
 4070TIP3    H233770   6.510   1.255   8.018
 4071TIP3   OH233771   5.419   2.856   0.828
 4071TIP3    H133772   5.328   2.839   0.801
 4071TIP3    H233773   5.427   2.951   0.828
 4072TIP3   OH233774   1.033   3.420   7.469
 4072TIP3    H133775   0.938   3.429   7.468
 4072TIP3    H233776   1.049   3.333   7.435
 4073TIP3   OH233777   1.456   0.595   7.901
 4073TIP3    H133778   1.392   0.621   7.967
 4073TIP3    H233779   1.540   0.606   7.944
 4074TIP3   OH233780   5.967   5.614   0.226
 4074TIP3    H133781   5.926   5.549   0.282
 4074TIP3    H233782   5.893   5.660   0.185
 4075TIP3   OH233783   4.475   3.697   1.193
 4075TIP3    H133784   4.465   3.661   1.282
 4075TIP3    H233785   4.558   3.744   1.196
 4076TIP3   OH233786   4.636   4.026   6.671
 4076TIP3    H133787   4.674   4.084   6.605
 4076TIP3    H233788   4.652   3.938   6.638
 4077TIP3   OH233789   4.089   6.506   6.787
 4077TIP3    H133790   4.129   6.452   6.855
 4077TIP3    H233791   4.134   6.481   6.706
 4078TIP3   OH233792   3.765   1.412   2.077
 4078TIP3    H133793   3.825   1.339   2.060
 4078TIP3    H233794   3.712   1.418   1.997
 4079TIP3   OH233795   1.344   5.727   7.538
 4079TIP3    H133796   1.390   5.666   7.481
 4079TIP3    H233797   1.315   5.674   7.612
 4080TIP3   OH233798   1.548   5.622   8.226
 4080TIP3    H133799   1.527   5.598   8.136
 4080TIP3    H233800   1.624   5.568   8.248
 4081TIP3   OH233801   3.016   0.753   7.456
 4081TIP3    H133802   2.945   0.689   7.460
 4081TIP3    H233803   3.063   0.741   7.539
 4082TIP3   OH233804   5.443   6.309   0.076
 4082TIP3    H133805   5.432   6.375   0.008
 4082TIP3    H233806   5.530   6.273   0.061
 4083TIP3   OH233807   5.376   2.548   1.326
 4083TIP3    H133808   5.293   2.545   1.279
 4083TIP3    H233809   5.375   2.470   1.381
 4084TIP3   OH233810   1.792   0.937   8.267
 4084TIP3    H133811   1.855   0.998   8.228
 4084TIP3    H233812   1.768   0.977   8.350
 4085TIP3   OH233813   4.669   2.372   1.457
 4085TIP3    H133814   4.588   2.378   1.407
 4085TIP3    H233815   4.655   2.299   1.517
 4086TIP3   OH233816   4.545   2.522   7.481
 4086TIP3    H133817   4.474   2.490   7.536
 4086TIP3    H233818   4.507   2.594   7.432
 4087TIP3   OH233819   3.019   4.425   2.686
 4087TIP3    H133820   3.018   4.448   2.593
 4087TIP3    H233821   3.075   4.348   2.690
 4088TIP3   OH233822   5.935   5.419   8.738
 4088TIP3    H133823   5.989   5.340   8.738
 4088TIP3    H233824   5.995   5.490   8.715
 4089TIP3   OH233825   1.734   0.842   7.599
 4089TIP3    H133826   1.708   0.876   7.514
 4089TIP3    H233827   1.825   0.815   7.587
 4090TIP3   OH233828   3.438   4.201   1.067
 4090TIP3    H133829   3.515   4.235   1.021
 4090TIP3    H233830   3.369   4.265   1.047
 4091TIP3   OH233831   4.380   4.721   0.352
 4091TIP3    H133832   4.416   4.760   0.272
 4091TIP3    H233833   4.457   4.694   0.403
 4092TIP3   OH233834   1.541   2.994   1.894
 4092TIP3    H133835   1.568   2.911   1.856
 4092TIP3    H233836   1.446   2.997   1.883
 4093TIP3   OH233837   2.360   1.823   7.275
 4093TIP3    H133838   2.395   1.868   7.353
 4093TIP3    H233839   2.311   1.749   7.310
 4094TIP3   OH233840   0.161   0.028   1.260
 4094TIP3    H133841   0.083   6.822   1.295
 4094TIP3    H233842   0.144   0.121   1.275
 4095TIP3   OH233843   0.372   4.860   0.448
 4095TIP3    H133844   0.412   4.918   0.512
 4095TIP3    H233845   0.410   4.887   0.364
 4096TIP3   OH233846   4.160   6.161   1.990
 4096TIP3    H133847   4.133   6.131   1.903
 4096TIP3    H233848   4.251   6.131   1.998
 4097TIP3   OH233849   5.735   0.598   0.573
 4097TIP3    H133850   5.799   0.526   0.573
 4097TIP3    H233851   5.677   0.579   0.499
 4098TIP3   OH233852   0.236   6.204   6.744
 4098TIP3    H133853   0.265   6.173   6.830
 4098TIP3    H233854   0.292   6.279   6.725
 4099TIP3   OH233855   3.235   4.646   8.636
 4099TIP3    H133856   3.196   4.596   8.564
 4099TIP3    H233857   3.308   4.592   8.666
 4100TIP3   OH233858   3.862   4.436   2.449
 4100TIP3    H133859   3.790   4.478   2.496
 4100TIP3    H233860   3.918   4.399   2.517
 4101TIP3   OH233861   6.446   3.233   0.401
 4101TIP3    H133862   6.390   3.159   0.425
 4101TIP3    H233863   6.386   3.306   0.390
 4102TIP3   OH233864   6.229   0.281   0.152
 4102TIP3    H133865   6.155   0.332   0.118
 4102TIP3    H233866   6.285   0.346   0.195
 4103TIP3   OH233867   5.545   2.859   1.316
 4103TIP3    H133868   5.554   2.940   1.366
 4103TIP3    H233869   5.511   2.887   1.231
 4104TIP3   OH233870   5.429   3.957   8.471
 4104TIP3    H133871   5.431   4.040   8.423
 4104TIP3    H233872   5.339   3.951   8.504
 4105TIP3   OH233873   5.581   2.509   0.085
 4105TIP3    H133874   5.651   2.518   0.149
 4105TIP3    H233875   5.624   2.472   0.008
 4106TIP3   OH233876   5.883   6.399   8.531
 4106TIP3    H133877   5.846   6.478   8.571
 4106TIP3    H233878   5.975   6.421   8.515
 4107TIP3   OH233879   1.391   3.791   7.903
 4107TIP3    H133880   1.304   3.753   7.895
 4107TIP3    H233881   1.451   3.716   7.904
 4108TIP3   OH233882   6.699   0.130   1.532
 4108TIP3    H133883   6.656   0.063   1.479
 4108TIP3    H233884   6.671   0.112   1.621
 4109TIP3   OH233885   0.595   2.255   1.258
 4109TIP3    H133886   0.630   2.319   1.196
 4109TIP3    H233887   0.585   2.175   1.206
 4110TIP3   OH233888   0.143   2.057   7.547
 4110TIP3    H133889   0.111   1.967   7.549
 4110TIP3    H233890   0.184   2.067   7.462
 4111TIP3   OH233891   3.311   1.372   8.148
 4111TIP3    H133892   3.283   1.460   8.123
 4111TIP3    H233893   3.391   1.357   8.096
 4112TIP3   OH233894   0.295   2.559   7.324
 4112TIP3    H133895   0.314   2.483   7.379
 4112TIP3    H233896   0.370   2.617   7.336
 4113TIP3   OH233897   2.544   6.316   8.034
 4113TIP3    H133898   2.582   6.332   8.121
 4113TIP3    H233899   2.485   6.390   8.019
 4114TIP3   OH233900   2.857   2.503   7.949
 4114TIP3    H133901   2.872   2.539   7.861
 4114TIP3    H233902   2.944   2.501   7.989
 4115TIP3   OH233903   5.406   0.869   7.472
 4115TIP3    H133904   5.312   0.886   7.471
 4115TIP3    H233905   5.418   0.792   7.416
 4116TIP3   OH233906   1.184   2.910   7.357
 4116TIP3    H133907   1.101   2.884   7.316
 4116TIP3    H233908   1.245   2.918   7.284
 4117TIP3   OH233909   2.457   3.392   7.977
 4117TIP3    H133910   2.399   3.354   8.043
 4117TIP3    H233911   2.542   3.398   8.021
 4118TIP3   OH233912   1.820   4.913   8.281
 4118TIP3    H133913   1.859   4.965   8.211
 4118TIP3    H233914   1.816   4.972   8.355
 4119TIP3   OH233915   1.544   3.634   1.301
 4119TIP3    H133916   1.528   3.542   1.282
 4119TIP3    H233917   1.458   3.674   1.304
 4120TIP3   OH233918   5.288   4.199   0.953
 4120TIP3    H133919   5.270   4.117   0.999
 4120TIP3    H233920   5.241   4.191   0.870
 4121TIP3   OH233921   2.013   6.743   8.659
 4121TIP3    H133922   2.092   6.787   8.627
 4121TIP3    H233923   1.948   6.814   8.668
 4122TIP3   OH233924   4.997   3.459   6.991
 4122TIP3    H133925   5.090   3.443   7.008
 4122TIP3    H233926   4.966   3.376   6.955
 4123TIP3   OH233927   2.897   5.311   1.094
 4123TIP3    H133928   2.904   5.326   1.189
 4123TIP3    H233929   2.909   5.217   1.084
 4124TIP3   OH233930   5.000   3.877   1.561
 4124TIP3    H133931   4.987   3.836   1.646
 4124TIP3    H233932   5.087   3.848   1.534
 4125TIP3   OH233933   1.368   4.755   8.115
 4125TIP3    H133934   1.424   4.745   8.038
 4125TIP3    H233935   1.372   4.671   8.160
 4126TIP3   OH233936   3.033   2.143   1.610
 4126TIP3    H133937   2.953   2.180   1.647
 4126TIP3    H233938   3.091   2.130   1.685
 4127TIP3   OH233939   4.197   2.461   1.584
 4127TIP3    H133940   4.152   2.497   1.661
 4127TIP3    H233941   4.289   2.459   1.609
 4128TIP3   OH233942   2.911   1.494   8.328
 4128TIP3    H133943   2.898   1.588   8.342
 4128TIP3    H233944   2.833   1.465   8.281
 4129TIP3   OH233945   2.295   6.323   6.631
 4129TIP3    H133946   2.384   6.299   6.658
 4129TIP3    H233947   2.266   6.385   6.698
 4130TIP3   OH233948   1.742   6.390   7.412
 4130TIP3    H133949   1.690   6.343   7.346
 4130TIP3    H233950   1.805   6.325   7.444
 4131TIP3   OH233951   4.026   1.463   7.261
 4131TIP3    H133952   3.940   1.431   7.286
 4131TIP3    H233953   4.017   1.488   7.169
 4132TIP3   OH233954   3.475   6.701   8.358
 4132TIP3    H133955   3.495   6.608   8.350
 4132TIP3    H233956   3.385   6.709   8.327
 4133TIP3   OH233957   4.081   1.352   1.200
 4133TIP3    H133958   4.043   1.310   1.277
 4133TIP3    H233959   4.013   1.345   1.133
 4134TIP3   OH233960   6.133   1.954   6.770
 4134TIP3    H133961   6.125   2.000   6.687
 4134TIP3    H233962   6.132   1.861   6.746
 4135TIP3   OH233963   6.168   6.692   7.329
 4135TIP3    H133964   6.262   6.684   7.312
 4135TIP3    H233965   6.156   6.782   7.358
 4136TIP3   OH233966   5.526   6.013   0.774
 4136TIP3    H133967   5.448   6.061   0.745
 4136TIP3    H233968   5.492   5.927   0.799
 4137TIP3   OH233969   1.364   6.749   0.003
 4137TIP3    H133970   1.359   6.720   8.695
 4137TIP3    H233971   1.346   6.670   0.054
 4138TIP3   OH233972   4.867   1.784   0.872
 4138TIP3    H133973   4.906   1.702   0.843
 4138TIP3    H233974   4.919   1.852   0.830
 4139TIP3   OH233975   3.195   4.210   2.657
 4139TIP3    H133976   3.281   4.195   2.696
 4139TIP3    H233977   3.212   4.213   2.562
 4140TIP3   OH233978   0.248   4.839   7.803
 4140TIP3    H133979   0.218   4.765   7.856
 4140TIP3    H233980   0.179   4.905   7.812
 4141TIP3   OH233981   0.475   1.501   7.771
 4141TIP3    H133982   0.553   1.556   7.758
 4141TIP3    H233983   0.478   1.477   7.863
 4142TIP3   OH233984   4.448   5.115   1.585
 4142TIP3    H133985   4.517   5.125   1.519
 4142TIP3    H233986   4.390   5.190   1.571
 4143TIP3   OH233987   5.847   1.338   0.439
 4143TIP3    H133988   5.921   1.382   0.481
 4143TIP3    H233989   5.885   1.257   0.402
 4144TIP3   OH233990   3.522   4.030   1.300
 4144TIP3    H133991   3.498   4.066   1.215
 4144TIP3    H233992   3.616   4.046   1.308
 4145TIP3   OH233993   4.752   0.434   7.666
 4145TIP3    H133994   4.805   0.372   7.615
 4145TIP3    H233995   4.781   0.421   7.756
 4146TIP3   OH233996   0.980   2.828   0.760
 4146TIP3    H133997   0.987   2.733   0.755
 4146TIP3    H233998   0.928   2.844   0.839
 4147TIP3   OH233999   3.228   2.970   7.028
 4147TIP3    H134000   3.189   3.035   6.970
 4147TIP3    H234001   3.159   2.949   7.091
 4148TIP3   OH234002   2.046   4.329   2.497
 4148TIP3    H134003   2.107   4.267   2.536
 4148TIP3    H234004   2.044   4.307   2.404
 4149TIP3   OH234005   3.206   2.028   1.815
 4149TIP3    H134006   3.297   2.037   1.841
 4149TIP3    H234007   3.188   1.934   1.821
 4150TIP3   OH234008   4.089   5.042   8.593
 4150TIP3    H134009   4.101   5.008   8.682
 4150TIP3    H234010   4.127   4.975   8.537
 4151TIP3   OH234011   0.053   1.780   0.249
 4151TIP3    H134012   0.116   1.813   0.313
 4151TIP3    H234013   0.090   1.697   0.220
 4152TIP3   OH234014   4.563   2.014   7.001
 4152TIP3    H134015   4.541   2.047   6.914
 4152TIP3    H234016   4.503   1.941   7.015
 4153TIP3   OH234017   2.344   4.854   8.155
 4153TIP3    H134018   2.414   4.793   8.135
 4153TIP3    H234019   2.381   4.941   8.137
 4154TIP3   OH234020   0.750   1.435   7.311
 4154TIP3    H134021   0.721   1.361   7.259
 4154TIP3    H234022   0.798   1.396   7.385
 4155TIP3   OH234023   4.469   4.020   7.667
 4155TIP3    H134024   4.510   3.938   7.638
 4155TIP3    H234025   4.402   3.992   7.730
 4156TIP3   OH234026   5.492   6.372   7.237
 4156TIP3    H134027   5.573   6.322   7.226
 4156TIP3    H234028   5.507   6.426   7.314
 4157TIP3   OH234029   4.648   0.907   7.167
 4157TIP3    H134030   4.640   0.914   7.072
 4157TIP3    H234031   4.639   0.997   7.198
 4158TIP3   OH234032   5.026   2.782   8.614
 4158TIP3    H134033   5.089   2.717   8.581
 4158TIP3    H234034   4.941   2.749   8.586
 4159TIP3   OH234035   0.399   1.902   2.313
 4159TIP3    H134036   0.349   1.824   2.339
 4159TIP3    H234037   0.485   1.889   2.353
 4160TIP3   OH234038   5.390   4.755   8.129
 4160TIP3    H134039   5.436   4.837   8.111
 4160TIP3    H234040   5.440   4.715   8.200
 4161TIP3   OH234041   2.954   0.734   7.173
 4161TIP3    H134042   2.960   0.785   7.254
 4161TIP3    H234043   2.896   0.661   7.196
 4162TIP3   OH234044   3.917   4.960   0.945
 4162TIP3    H134045   3.918   4.865   0.936
 4162TIP3    H234046   4.002   4.981   0.986
 4163TIP3   OH234047   0.473   6.784   1.658
 4163TIP3    H134048   0.383   6.793   1.628
 4163TIP3    H234049   0.470   6.803   1.751
 4164TIP3   OH234050   3.598   1.323   7.541
 4164TIP3    H134051   3.552   1.380   7.603
 4164TIP3    H234052   3.654   1.268   7.596
 4165TIP3   OH234053   5.710   6.449   7.517
 4165TIP3    H134054   5.765   6.488   7.584
 4165TIP3    H234055   5.626   6.494   7.525
 4166TIP3   OH234056   0.971   1.379   6.141
 4166TIP3    H134057   1.016   1.321   6.079
 4166TIP3    H234058   0.914   1.320   6.191
 4167TIP3   OH234059   5.074   0.155   7.306
 4167TIP3    H134060   5.033   0.188   7.226
 4167TIP3    H234061   5.074   0.060   7.295
 4168TIP3   OH234062   4.021   1.096   1.027
 4168TIP3    H134063   4.000   1.107   1.120
 4168TIP3    H234064   3.936   1.104   0.983
 4169TIP3   OH234065   0.387   1.696   8.303
 4169TIP3    H134066   0.343   1.774   8.270
 4169TIP3    H234067   0.473   1.697   8.262
 4170TIP3   OH234068   3.907   1.611   8.168
 4170TIP3    H134069   3.819   1.587   8.196
 4170TIP3    H234070   3.900   1.704   8.145
 4171TIP3   OH234071   2.605   1.585   1.819
 4171TIP3    H134072   2.653   1.526   1.877
 4171TIP3    H234073   2.668   1.655   1.799
 4172TIP3   OH234074   5.543   1.879   8.710
 4172TIP3    H134075   5.543   1.835   8.625
 4172TIP3    H234076   5.560   1.971   8.689
 4173TIP3   OH234077   5.856   6.718   1.396
 4173TIP3    H134078   5.853   6.768   1.315
 4173TIP3    H234079   5.773   6.737   1.439
 4174TIP3   OH234080   0.113   0.249   1.428
 4174TIP3    H134081   0.096   0.326   1.483
 4174TIP3    H234082   0.046   0.186   1.455
 4175TIP3   OH234083   2.545   1.699   8.002
 4175TIP3    H134084   2.476   1.634   8.017
 4175TIP3    H234085   2.521   1.741   7.919
 4176TIP3   OH234086   2.497   1.252   6.624
 4176TIP3    H134087   2.437   1.297   6.564
 4176TIP3    H234088   2.534   1.181   6.573
 4177TIP3   OH234089   0.810   0.901   0.554
 4177TIP3    H134090   0.851   0.831   0.605
 4177TIP3    H234091   0.775   0.857   0.476
 4178TIP3   OH234092   3.378   5.787   1.284
 4178TIP3    H134093   3.304   5.730   1.306
 4178TIP3    H234094   3.453   5.744   1.324
 4179TIP3   OH234095   3.570   2.425   1.110
 4179TIP3    H134096   3.650   2.401   1.157
 4179TIP3    H234097   3.538   2.503   1.155
 4180TIP3   OH234098   5.028   2.701   7.602
 4180TIP3    H134099   5.004   2.786   7.566
 4180TIP3    H234100   4.961   2.641   7.567
 4181TIP3   OH234101   5.488   2.249   1.189
 4181TIP3    H134102   5.494   2.156   1.171
 4181TIP3    H234103   5.402   2.261   1.230
 4182TIP3   OH234104   4.792   6.489   0.035
 4182TIP3    H134105   4.777   6.574   8.777
 4182TIP3    H234106   4.822   6.433   8.745
 4183TIP3   OH234107   0.516   0.557   8.277
 4183TIP3    H134108   0.585   0.623   8.276
 4183TIP3    H234109   0.442   0.599   8.320
 4184TIP3   OH234110   4.520   1.934   2.319
 4184TIP3    H134111   4.536   2.025   2.296
 4184TIP3    H234112   4.583   1.884   2.267
 4185TIP3   OH234113   5.835   3.416   6.193
 4185TIP3    H134114   5.845   3.470   6.114
 4185TIP3    H234115   5.750   3.375   6.183
 4186TIP3   OH234116   1.459   5.231   7.912
 4186TIP3    H134117   1.374   5.215   7.870
 4186TIP3    H234118   1.494   5.144   7.931
 4187TIP3   OH234119   0.866   0.561   7.521
 4187TIP3    H134120   0.806   0.542   7.593
 4187TIP3    H234121   0.828   0.637   7.477
 4188TIP3   OH234122   6.697   0.466   1.381
 4188TIP3    H134123   6.675   0.559   1.376
 4188TIP3    H234124   6.719   0.441   1.292
 4189TIP3   OH234125   1.677   1.936   1.860
 4189TIP3    H134126   1.707   1.979   1.940
 4189TIP3    H234127   1.597   1.891   1.886
 4190TIP3   OH234128   5.522   5.752   7.444
 4190TIP3    H134129   5.588   5.756   7.514
 4190TIP3    H234130   5.438   5.756   7.489
 4191TIP3   OH234131   5.810   5.656   7.219
 4191TIP3    H134132   5.818   5.690   7.308
 4191TIP3    H234133   5.894   5.613   7.202
 4192TIP3   OH234134   6.804   1.727   0.770
 4192TIP3    H134135   6.712   1.749   0.785
 4192TIP3    H234136   6.836   1.796   0.713
 4193TIP3   OH234137   0.361   3.837   7.254
 4193TIP3    H134138   0.390   3.896   7.185
 4193TIP3    H234139   0.404   3.753   7.234
 4194TIP3   OH234140   5.351   3.305   8.171
 4194TIP3    H134141   5.284   3.373   8.173
 4194TIP3    H234142   5.406   3.323   8.247
 4195TIP3   OH234143   6.735   3.295   1.551
 4195TIP3    H134144   6.770   3.285   1.639
 4195TIP3    H234145   6.713   3.388   1.544
 4196TIP3   OH234146   3.289   2.941   8.553
 4196TIP3    H134147   3.232   2.917   8.626
 4196TIP3    H234148   3.365   2.983   8.595
 4197TIP3   OH234149   4.686   2.082   7.533
 4197TIP3    H134150   4.767   2.065   7.580
 4197TIP3    H234151   4.621   2.024   7.572
 4198TIP3   OH234152   2.503   3.132   8.511
 4198TIP3    H134153   2.585   3.082   8.510
 4198TIP3    H234154   2.531   3.222   8.527
 4199TIP3   OH234155   6.704   4.873   7.665
 4199TIP3    H134156   6.677   4.946   7.608
 4199TIP3    H234157   6.675   4.795   7.619
 4200TIP3   OH234158   0.174   2.760   7.512
 4200TIP3    H134159   0.151   2.679   7.558
 4200TIP3    H234160   0.259   2.784   7.548
 4201TIP3   OH234161   6.547   2.878   0.259
 4201TIP3    H134162   6.459   2.892   0.294
 4201TIP3    H234163   6.596   2.956   0.286
 4202TIP3   OH234164   5.664   5.442   6.471
 4202TIP3    H134165   5.668   5.537   6.463
 4202TIP3    H234166   5.649   5.411   6.381
 4203TIP3   OH234167   3.928   2.531   8.200
 4203TIP3    H134168   3.854   2.580   8.236
 4203TIP3    H234169   3.957   2.474   8.271
 4204TIP3   OH234170   1.368   3.752   0.343
 4204TIP3    H134171   1.372   3.815   0.271
 4204TIP3    H234172   1.280   3.714   0.337
 4205TIP3   OH234173   0.198   2.458   0.038
 4205TIP3    H134174   0.125   2.492   8.768
 4205TIP3    H234175   0.181   2.364   0.043
 4206TIP3   OH234176   3.987   5.239   1.456
 4206TIP3    H134177   3.972   5.176   1.526
 4206TIP3    H234178   3.992   5.187   1.376
 4207TIP3   OH234179   2.805   1.810   1.858
 4207TIP3    H134180   2.729   1.845   1.811
 4207TIP3    H234181   2.881   1.844   1.810
 4208TIP3   OH234182   4.656   1.166   7.233
 4208TIP3    H134183   4.567   1.188   7.260
 4208TIP3    H234184   4.688   1.244   7.189
 4209TIP3   OH234185   1.554   6.663   0.940
 4209TIP3    H134186   1.511   6.607   1.004
 4209TIP3    H234187   1.488   6.728   0.916
 4210TIP3   OH234188   3.783   6.227   1.729
 4210TIP3    H134189   3.703   6.274   1.708
 4210TIP3    H234190   3.753   6.142   1.761
 4211TIP3   OH234191   6.259   3.487   8.022
 4211TIP3    H134192   6.326   3.505   8.088
 4211TIP3    H234193   6.248   3.392   8.023
 4212TIP3   OH234194   0.786   1.769   0.937
 4212TIP3    H134195   0.706   1.761   0.885
 4212TIP3    H234196   0.791   1.861   0.960
 4213TIP3   OH234197   3.246   5.600   1.436
 4213TIP3    H134198   3.309   5.541   1.477
 4213TIP3    H234199   3.190   5.628   1.509
 4214TIP3   OH234200   4.594   3.036   8.050
 4214TIP3    H134201   4.536   3.007   8.120
 4214TIP3    H234202   4.545   3.105   8.005
 4215TIP3   OH234203   5.676   4.162   0.450
 4215TIP3    H134204   5.684   4.158   0.355
 4215TIP3    H234205   5.740   4.099   0.483
 4216TIP3   OH234206   1.735   4.333   0.989
 4216TIP3    H134207   1.709   4.419   1.023
 4216TIP3    H234208   1.653   4.293   0.961
 4217TIP3   OH234209   3.185   0.588   0.186
 4217TIP3    H134210   3.257   0.635   0.227
 4217TIP3    H234211   3.107   0.637   0.211
 4218TIP3   OH234212   5.992   2.012   8.461
 4218TIP3    H134213   5.950   2.096   8.440
 4218TIP3    H234214   6.084   2.034   8.476
 4219TIP3   OH234215   3.402   0.048   1.733
 4219TIP3    H134216   3.366   0.135   1.750
 4219TIP3    H234217   3.370   0.025   1.646
 4220TIP3   OH234218   4.170   2.204   7.898
 4220TIP3    H134219   4.109   2.260   7.851
 4220TIP3    H234220   4.117   2.132   7.931
 4221TIP3   OH234221   0.674   5.733   1.136
 4221TIP3    H134222   0.695   5.656   1.082
 4221TIP3    H234223   0.579   5.742   1.128
 4222TIP3   OH234224   2.641   0.144   6.792
 4222TIP3    H134225   2.670   0.226   6.752
 4222TIP3    H234226   2.624   0.086   6.718
 4223TIP3   OH234227   5.248   5.489   8.451
 4223TIP3    H134228   5.229   5.580   8.473
 4223TIP3    H234229   5.276   5.450   8.534
 4224TIP3   OH234230   1.777   1.194   2.320
 4224TIP3    H134231   1.697   1.248   2.314
 4224TIP3    H234232   1.843   1.254   2.356
 4225TIP3   OH234233   6.165   5.409   7.488
 4225TIP3    H134234   6.106   5.382   7.418
 4225TIP3    H234235   6.229   5.338   7.493
 4226TIP3   OH234236   3.972   4.284   2.653
 4226TIP3    H134237   3.963   4.359   2.712
 4226TIP3    H234238   4.049   4.237   2.685
 4227TIP3   OH234239   0.725   2.370   7.073
 4227TIP3    H134240   0.820   2.377   7.065
 4227TIP3    H234241   0.694   2.358   6.984
 4228TIP3   OH234242   2.081   6.346   7.365
 4228TIP3    H134243   2.010   6.319   7.423
 4228TIP3    H234244   2.058   6.435   7.337
 4229TIP3   OH234245   4.782   4.105   6.951
 4229TIP3    H134246   4.810   4.034   7.009
 4229TIP3    H234247   4.745   4.061   6.875
 4230TIP3   OH234248   4.214   4.510   0.741
 4230TIP3    H134249   4.147   4.573   0.769
 4230TIP3    H234250   4.181   4.477   0.657
 4231TIP3   OH234251   2.581   2.752   1.174
 4231TIP3    H134252   2.638   2.676   1.190
 4231TIP3    H234253   2.524   2.756   1.250
 4232TIP3   OH234254   4.220   6.174   2.720
 4232TIP3    H134255   4.223   6.269   2.712
 4232TIP3    H234256   4.310   6.149   2.740
 4233TIP3   OH234257   2.761   5.977   1.125
 4233TIP3    H134258   2.840   5.935   1.091
 4233TIP3    H234259   2.720   6.016   1.048
 4234TIP3   OH234260   0.651   0.706   7.329
 4234TIP3    H134261   0.609   0.725   7.413
 4234TIP3    H234262   0.630   0.614   7.312
 4235TIP3   OH234263   1.962   0.583   8.734
 4235TIP3    H134264   1.926   0.660   8.777
 4235TIP3    H234265   2.035   0.556   0.007
 4236TIP3   OH234266   4.029   3.051   6.358
 4236TIP3    H134267   3.994   3.123   6.305
 4236TIP3    H234268   3.989   3.064   6.444
 4237TIP3   OH234269   2.411   3.264   1.680
 4237TIP3    H134270   2.413   3.207   1.756
 4237TIP3    H234271   2.474   3.225   1.619
 4238TIP3   OH234272   5.378   3.369   7.357
 4238TIP3    H134273   5.287   3.368   7.387
 4238TIP3    H234274   5.394   3.280   7.327
 4239TIP3   OH234275   6.100   4.701   7.455
 4239TIP3    H134276   6.086   4.791   7.427
 4239TIP3    H234277   6.012   4.669   7.476
 4240TIP3   OH234278   6.222   3.683   7.771
 4240TIP3    H134279   6.236   3.622   7.842
 4240TIP3    H234280   6.263   3.642   7.695
 4241TIP3   OH234281   6.251   6.826   0.005
 4241TIP3    H134282   6.281   6.753   0.058
 4241TIP3    H234283   6.326   0.047   0.002
 4242TIP3   OH234284   6.222   1.434   8.335
 4242TIP3    H134285   6.314   1.458   8.330
 4242TIP3    H234286   6.214   1.358   8.278
 4243TIP3   OH234287   1.360   4.905   0.711
 4243TIP3    H134288   1.272   4.912   0.747
 4243TIP3    H234289   1.403   4.839   0.766
 4244TIP3   OH234290   6.139   1.780   1.878
 4244TIP3    H134291   6.118   1.765   1.970
 4244TIP3    H234292   6.202   1.712   1.857
 4245TIP3   OH234293   5.714   5.425   2.519
 4245TIP3    H134294   5.779   5.438   2.588
 4245TIP3    H234295   5.682   5.513   2.499
 4246TIP3   OH234296   5.053   3.029   1.416
 4246TIP3    H134297   5.069   3.091   1.345
 4246TIP3    H234298   4.969   3.056   1.452
 4247TIP3   OH234299   3.963   2.135   6.816
 4247TIP3    H134300   3.957   2.211   6.758
 4247TIP3    H234301   4.037   2.085   6.782
 4248TIP3   OH234302   0.072   5.599   8.062
 4248TIP3    H134303   6.818   5.598   8.039
 4248TIP3    H234304   0.104   5.512   8.036
 4249TIP3   OH234305   1.716   1.626   1.294
 4249TIP3    H134306   1.706   1.578   1.376
 4249TIP3    H234307   1.782   1.693   1.314
 4250TIP3   OH234308   1.039   5.402   0.098
 4250TIP3    H134309   1.033   5.473   0.162
 4250TIP3    H234310   0.953   5.399   0.057
 4251TIP3   OH234311   3.624   6.175   7.186
 4251TIP3    H134312   3.641   6.093   7.232
 4251TIP3    H234313   3.543   6.208   7.225
 4252TIP3   OH234314   2.706   4.418   2.469
 4252TIP3    H134315   2.800   4.411   2.455
 4252TIP3    H234316   2.695   4.402   2.563
 4253TIP3   OH234317   5.040   0.737   1.851
 4253TIP3    H134318   4.969   0.775   1.903
 4253TIP3    H234319   5.080   0.671   1.909
 4254TIP3   OH234320   4.840   5.023   7.337
 4254TIP3    H134321   4.903   5.057   7.273
 4254TIP3    H234322   4.834   5.092   7.403
 4255TIP3   OH234323   1.538   4.990   8.568
 4255TIP3    H134324   1.501   4.936   8.638
 4255TIP3    H234325   1.500   4.953   8.488
 4256TIP3   OH234326   4.005   4.580   2.277
 4256TIP3    H134327   4.075   4.537   2.228
 4256TIP3    H234328   3.970   4.512   2.335
 4257TIP3   OH234329   2.022   2.338   0.729
 4257TIP3    H134330   2.105   2.383   0.714
 4257TIP3    H234331   1.999   2.361   0.820
 4258TIP3   OH234332   6.285   2.422   2.002
 4258TIP3    H134333   6.355   2.473   2.043
 4258TIP3    H234334   6.228   2.397   2.075
 4259TIP3   OH234335   0.242   6.388   8.615
 4259TIP3    H134336   0.206   6.398   8.704
 4259TIP3    H234337   0.294   6.308   8.619
 4260TIP3   OH234338   1.121   5.312   6.529
 4260TIP3    H134339   1.126   5.355   6.443
 4260TIP3    H234340   1.212   5.304   6.557
 4261TIP3   OH234341   6.785   6.125   7.358
 4261TIP3    H134342   6.768   6.087   7.272
 4261TIP3    H234343   6.698   6.136   7.397
 4262TIP3   OH234344   1.840   0.348   0.117
 4262TIP3    H134345   1.889   0.289   0.060
 4262TIP3    H234346   1.817   0.422   0.061
 4263TIP3   OH234347   3.814   2.840   7.654
 4263TIP3    H134348   3.777   2.831   7.566
 4263TIP3    H234349   3.742   2.873   7.707
 4264TIP3   OH234350   3.745   5.629   7.875
 4264TIP3    H134351   3.718   5.711   7.916
 4264TIP3    H234352   3.700   5.628   7.791
 4265TIP3   OH234353   6.550   0.128   0.851
 4265TIP3    H134354   6.623   0.186   0.828
 4265TIP3    H234355   6.569   0.047   0.803
 4266TIP3   OH234356   3.504   1.157   0.190
 4266TIP3    H134357   3.503   1.063   0.175
 4266TIP3    H234358   3.531   1.194   0.106
 4267TIP3   OH234359   3.207   0.269   8.413
 4267TIP3    H134360   3.276   0.266   8.347
 4267TIP3    H234361   3.203   0.180   8.447
 4268TIP3   OH234362   1.477   1.698   8.493
 4268TIP3    H134363   1.495   1.713   8.400
 4268TIP3    H234364   1.560   1.719   8.537
 4269TIP3   OH234365   4.746   4.552   7.025
 4269TIP3    H134366   4.727   4.619   6.959
 4269TIP3    H234367   4.740   4.599   7.108
 4270TIP3   OH234368   0.687   5.367   1.669
 4270TIP3    H134369   0.738   5.355   1.750
 4270TIP3    H234370   0.596   5.367   1.699
 4271TIP3   OH234371   6.099   2.736   6.693
 4271TIP3    H134372   6.120   2.722   6.785
 4271TIP3    H234373   6.022   2.682   6.677
 4272TIP3   OH234374   0.437   1.995   6.518
 4272TIP3    H134375   0.404   2.068   6.465
 4272TIP3    H234376   0.360   1.959   6.561
 4273TIP3   OH234377   4.650   3.412   1.184
 4273TIP3    H134378   4.555   3.422   1.191
 4273TIP3    H234379   4.672   3.452   1.099
 4274TIP3   OH234380   0.527   1.712   7.073
 4274TIP3    H134381   0.592   1.654   7.113
 4274TIP3    H234382   0.494   1.765   7.146
 4275TIP3   OH234383   4.635   1.963   8.422
 4275TIP3    H134384   4.593   1.927   8.343
 4275TIP3    H234385   4.563   1.989   8.478
 4276TIP3   OH234386   3.303   3.958   0.978
 4276TIP3    H134387   3.323   4.037   1.027
 4276TIP3    H234388   3.244   3.987   0.908
 4277TIP3   OH234389   2.719   6.423   0.078
 4277TIP3    H134390   2.778   6.378   0.138
 4277TIP3    H234391   2.671   6.353   0.034
 4278TIP3   OH234392   4.004   4.494   8.664
 4278TIP3    H134393   3.945   4.418   8.669
 4278TIP3    H234394   4.074   4.473   8.725
 4279TIP3   OH234395   4.082   6.139   0.409
 4279TIP3    H134396   3.988   6.123   0.419
 4279TIP3    H234397   4.088   6.196   0.332
 4280TIP3   OH234398   0.514   2.060   8.644
 4280TIP3    H134399   0.499   1.966   8.638
 4280TIP3    H234400   0.475   2.085   8.728
 4281TIP3   OH234401   0.960   2.917   7.156
 4281TIP3    H134402   0.998   2.838   7.119
 4281TIP3    H234403   0.948   2.976   7.082
 4282TIP3   OH234404   0.522   2.533   0.812
 4282TIP3    H134405   0.555   2.469   0.749
 4282TIP3    H234406   0.550   2.499   0.897
 4283TIP3   OH234407   6.730   1.051   7.877
 4283TIP3    H134408   6.684   0.984   7.928
 4283TIP3    H234409   6.823   1.036   7.897
 4284TIP3   OH234410   5.912   4.547   1.751
 4284TIP3    H134411   5.977   4.483   1.722
 4284TIP3    H234412   5.882   4.514   1.836
 4285TIP3   OH234413   1.286   5.363   7.384
 4285TIP3    H134414   1.338   5.362   7.464
 4285TIP3    H234415   1.341   5.408   7.320
 4286TIP3   OH234416   6.130   1.524   0.047
 4286TIP3    H134417   6.132   1.429   0.044
 4286TIP3    H234418   6.077   1.550   8.754
 4287TIP3   OH234419   2.257   3.540   6.975
 4287TIP3    H134420   2.196   3.610   6.999
 4287TIP3    H234421   2.212   3.459   7.000
 4288TIP3   OH234422   2.462   0.458   1.176
 4288TIP3    H134423   2.431   0.451   1.085
 4288TIP3    H234424   2.415   0.389   1.222
 4289TIP3   OH234425   1.976   0.445   7.661
 4289TIP3    H134426   1.941   0.408   7.580
 4289TIP3    H234427   1.969   0.540   7.648
 4290TIP3   OH234428   0.005   5.395   7.708
 4290TIP3    H134429   0.086   5.409   7.757
 4290TIP3    H234430   6.782   5.361   7.773
 4291TIP3   OH234431   5.978   1.493   7.815
 4291TIP3    H134432   5.909   1.491   7.748
 4291TIP3    H234433   6.059   1.498   7.765
 4292TIP3   OH234434   3.620   4.990   0.327
 4292TIP3    H134435   3.701   5.025   0.363
 4292TIP3    H234436   3.586   5.060   0.271
 4293TIP3   OH234437   4.342   1.928   2.518
 4293TIP3    H134438   4.381   1.875   2.588
 4293TIP3    H234439   4.409   1.927   2.449
 4294TIP3   OH234440   3.149   2.914   0.012
 4294TIP3    H134441   3.183   2.912   0.102
 4294TIP3    H234442   3.107   3.000   0.005
 4295TIP3   OH234443   5.877   2.101   6.763
 4295TIP3    H134444   5.937   2.079   6.692
 4295TIP3    H234445   5.809   2.154   6.721
 4296TIP3   OH234446   4.813   4.446   1.177
 4296TIP3    H134447   4.743   4.384   1.193
 4296TIP3    H234448   4.890   4.407   1.217
 4297TIP3   OH234449   0.593   0.505   0.840
 4297TIP3    H134450   0.581   0.417   0.875
 4297TIP3    H234451   0.563   0.563   0.911
 4298TIP3   OH234452   6.671   2.431   0.510
 4298TIP3    H134453   6.612   2.503   0.487
 4298TIP3    H234454   6.662   2.423   0.605
 4299TIP3   OH234455   1.395   2.537   1.645
 4299TIP3    H134456   1.473   2.509   1.693
 4299TIP3    H234457   1.394   2.632   1.653
 4300TIP3   OH234458   1.723   3.160   8.377
 4300TIP3    H134459   1.641   3.176   8.424
 4300TIP3    H234460   1.697   3.111   8.299
 4301TIP3   OH234461   5.608   0.032   6.605
 4301TIP3    H134462   5.692   0.013   6.563
 4301TIP3    H234463   5.592   0.124   6.587
 4302TIP3   OH234464   3.220   2.134   1.332
 4302TIP3    H134465   3.183   2.138   1.420
 4302TIP3    H234466   3.263   2.048   1.329
 4303TIP3   OH234467   6.418   2.066   8.229
 4303TIP3    H134468   6.391   2.065   8.320
 4303TIP3    H234469   6.514   2.065   8.233
 4304TIP3   OH234470   0.535   5.281   1.280
 4304TIP3    H134471   0.594   5.217   1.241
 4304TIP3    H234472   0.592   5.337   1.334
 4305TIP3   OH234473   0.577   4.120   1.674
 4305TIP3    H134474   0.629   4.084   1.745
 4305TIP3    H234475   0.617   4.085   1.594
 4306TIP3   OH234476   0.264   6.227   2.058
 4306TIP3    H134477   0.319   6.151   2.078
 4306TIP3    H234478   0.197   6.193   2.000
 4307TIP3   OH234479   4.002   4.732   8.339
 4307TIP3    H134480   3.961   4.754   8.422
 4307TIP3    H234481   4.079   4.789   8.334
 4308TIP3   OH234482   3.438   6.061   8.366
 4308TIP3    H134483   3.369   6.072   8.432
 4308TIP3    H234484   3.400   6.094   8.285
 4309TIP3   OH234485   0.697   2.927   6.951
 4309TIP3    H134486   0.789   2.951   6.945
 4309TIP3    H234487   0.668   2.923   6.860
 4310TIP3   OH234488   3.961   0.353   1.693
 4310TIP3    H134489   3.883   0.398   1.660
 4310TIP3    H234490   4.017   0.342   1.617
 4311TIP3   OH234491   2.553   5.623   8.374
 4311TIP3    H134492   2.586   5.670   8.298
 4311TIP3    H234493   2.622   5.560   8.395
 4312TIP3   OH234494   6.636   5.601   7.654
 4312TIP3    H134495   6.696   5.537   7.691
 4312TIP3    H234496   6.687   5.645   7.586
 4313TIP3   OH234497   3.858   6.062   1.168
 4313TIP3    H134498   3.952   6.063   1.149
 4313TIP3    H234499   3.841   5.973   1.200
 4314TIP3   OH234500   3.431   3.837   0.001
 4314TIP3    H134501   3.470   3.798   8.705
 4314TIP3    H234502   3.505   3.878   0.046
 4315TIP3   OH234503   0.108   5.795   7.895
 4315TIP3    H134504   0.082   5.871   7.946
 4315TIP3    H234505   0.088   5.720   7.952
 4316TIP3   OH234506   5.750   3.808   6.957
 4316TIP3    H134507   5.775   3.814   6.865
 4316TIP3    H234508   5.658   3.834   6.958
 4317TIP3   OH234509   4.865   3.917   2.205
 4317TIP3    H134510   4.936   3.975   2.233
 4317TIP3    H234511   4.901   3.829   2.216
 4318TIP3   OH234512   5.989   2.946   2.555
 4318TIP3    H134513   6.030   2.971   2.472
 4318TIP3    H234514   5.966   2.853   2.544
 4319TIP3   OH234515   2.104   2.217   7.128
 4319TIP3    H134516   2.036   2.155   7.151
 4319TIP3    H234517   2.110   2.213   7.032
 4320TIP3   OH234518   3.949   2.750   1.881
 4320TIP3    H134519   4.009   2.809   1.835
 4320TIP3    H234520   3.981   2.662   1.862
 4321TIP3   OH234521   4.942   6.183   8.097
 4321TIP3    H134522   5.033   6.208   8.082
 4321TIP3    H234523   4.899   6.264   8.124
 4322TIP3   OH234524   4.196   3.461   7.105
 4322TIP3    H134525   4.285   3.496   7.106
 4322TIP3    H234526   4.169   3.468   7.013
 4323TIP3   OH234527   2.589   1.915   1.725
 4323TIP3    H134528   2.524   1.969   1.771
 4323TIP3    H234529   2.538   1.869   1.658
 4324TIP3   OH234530   6.087   0.929   0.887
 4324TIP3    H134531   6.070   0.837   0.906
 4324TIP3    H234532   6.163   0.928   0.829
 4325TIP3   OH234533   4.536   0.197   8.119
 4325TIP3    H134534   4.570   0.286   8.130
 4325TIP3    H234535   4.446   0.210   8.087
 4326TIP3   OH234536   6.170   4.468   0.427
 4326TIP3    H134537   6.174   4.444   0.334
 4326TIP3    H234538   6.260   4.491   0.449
 4327TIP3   OH234539   4.163   4.674   6.413
 4327TIP3    H134540   4.095   4.738   6.432
 4327TIP3    H234541   4.243   4.712   6.449
 4328TIP3   OH234542   0.340   4.177   1.571
 4328TIP3    H134543   0.314   4.110   1.508
 4328TIP3    H234544   0.414   4.138   1.618
 4329TIP3   OH234545   0.866   2.318   8.759
 4329TIP3    H134546   0.891   2.271   8.680
 4329TIP3    H234547   0.896   2.263   0.049
 4330TIP3   OH234548   5.664   0.769   1.508
 4330TIP3    H134549   5.656   0.725   1.593
 4330TIP3    H234550   5.753   0.804   1.508
 4331TIP3   OH234551   3.152   2.445   2.080
 4331TIP3    H134552   3.079   2.383   2.072
 4331TIP3    H234553   3.113   2.531   2.060
 4332TIP3   OH234554   4.074   3.582   0.539
 4332TIP3    H134555   4.075   3.656   0.599
 4332TIP3    H234556   3.982   3.572   0.515
 4333TIP3   OH234557   1.192   6.048   8.216
 4333TIP3    H134558   1.129   6.110   8.254
 4333TIP3    H234559   1.257   6.104   8.174
 4334TIP3   OH234560   1.661   4.063   1.537
 4334TIP3    H134561   1.668   3.988   1.478
 4334TIP3    H234562   1.675   4.139   1.481
 4335TIP3   OH234563   3.492   5.064   0.761
 4335TIP3    H134564   3.480   5.035   0.671
 4335TIP3    H234565   3.513   5.157   0.754
 4336TIP3   OH234566   6.446   3.812   6.981
 4336TIP3    H134567   6.371   3.853   7.024
 4336TIP3    H234568   6.426   3.817   6.888
 4337TIP3   OH234569   2.509   1.805   2.469
 4337TIP3    H134570   2.549   1.868   2.409
 4337TIP3    H234571   2.424   1.844   2.491
 4338TIP3   OH234572   4.483   4.174   0.051
 4338TIP3    H134573   4.561   4.156   8.781
 4338TIP3    H234574   4.433   4.092   0.048
 4339TIP3   OH234575   3.669   2.670   8.389
 4339TIP3    H134576   3.675   2.764   8.376
 4339TIP3    H234577   3.619   2.638   8.313
 4340TIP3   OH234578   2.212   0.337   7.767
 4340TIP3    H134579   2.283   0.393   7.734
 4340TIP3    H234580   2.132   0.376   7.731
 4341TIP3   OH234581   6.595   4.624   8.517
 4341TIP3    H134582   6.576   4.533   8.538
 4341TIP3    H234583   6.643   4.657   8.593
 4342TIP3   OH234584   4.059   2.970   2.280
 4342TIP3    H134585   3.975   2.929   2.259
 4342TIP3    H234586   4.043   3.064   2.270
 4343TIP3   OH234587   2.029   3.942   6.686
 4343TIP3    H134588   1.972   4.018   6.698
 4343TIP3    H234589   2.036   3.931   6.591
 4344TIP3   OH234590   4.688   4.209   7.709
 4344TIP3    H134591   4.606   4.167   7.683
 4344TIP3    H234592   4.729   4.235   7.626
 4345TIP3   OH234593   5.297   4.126   1.453
 4345TIP3    H134594   5.283   4.042   1.408
 4345TIP3    H234595   5.383   4.118   1.493
 4346TIP3   OH234596   0.467   3.074   1.834
 4346TIP3    H134597   0.461   3.030   1.749
 4346TIP3    H234598   0.434   3.163   1.817
 4347TIP3   OH234599   4.939   4.581   7.886
 4347TIP3    H134600   4.896   4.540   7.961
 4347TIP3    H234601   4.870   4.586   7.819
 4348TIP3   OH234602   1.730   0.164   7.436
 4348TIP3    H134603   1.666   0.228   7.467
 4348TIP3    H234604   1.799   0.216   7.395
 4349TIP3   OH234605   2.308   1.022   0.792
 4349TIP3    H134606   2.263   0.938   0.780
 4349TIP3    H234607   2.304   1.037   0.886
 4350TIP3   OH234608   0.220   0.680   6.800
 4350TIP3    H134609   0.158   0.688   6.727
 4350TIP3    H234610   0.289   0.742   6.780
 4351TIP3   OH234611   1.439   5.727   8.458
 4351TIP3    H134612   1.447   5.681   8.374
 4351TIP3    H234613   1.526   5.720   8.498
 4352TIP3   OH234614   1.311   5.417   1.863
 4352TIP3    H134615   1.284   5.355   1.795
 4352TIP3    H234616   1.311   5.502   1.818
 4353TIP3   OH234617   6.059   4.737   7.826
 4353TIP3    H134618   5.982   4.769   7.780
 4353TIP3    H234619   6.023   4.679   7.894
 4354TIP3   OH234620   3.421   6.488   0.088
 4354TIP3    H134621   3.426   6.514   8.779
 4354TIP3    H234622   3.334   6.517   0.117
 4355TIP3   OH234623   0.537   0.476   7.411
 4355TIP3    H134624   0.551   0.381   7.405
 4355TIP3    H234625   0.570   0.499   7.498
 4356TIP3   OH234626   0.266   6.730   7.940
 4356TIP3    H134627   0.296   6.788   8.011
 4356TIP3    H234628   0.276   6.642   7.976
 4357TIP3   OH234629   3.240   0.657   8.660
 4357TIP3    H134630   3.308   0.626   8.600
 4357TIP3    H234631   3.269   0.744   8.687
 4358TIP3   OH234632   1.761   3.827   1.455
 4358TIP3    H134633   1.799   3.753   1.407
 4358TIP3    H234634   1.823   3.899   1.443
 4359TIP3   OH234635   2.333   6.314   0.853
 4359TIP3    H134636   2.282   6.326   0.773
 4359TIP3    H234637   2.377   6.229   0.841
 4360TIP3   OH234638   3.202   2.188   0.444
 4360TIP3    H134639   3.165   2.163   0.529
 4360TIP3    H234640   3.265   2.257   0.464
 4361TIP3   OH234641   0.158   6.546   6.916
 4361TIP3    H134642   0.178   6.625   6.865
 4361TIP3    H234643   0.170   6.572   7.007
 4362TIP3   OH234644   0.046   5.875   0.889
 4362TIP3    H134645   6.829   5.952   0.902
 4362TIP3    H234646   0.121   5.890   0.947
 4363TIP3   OH234647   0.421   6.213   7.323
 4363TIP3    H134648   0.479   6.284   7.295
 4363TIP3    H234649   0.343   6.257   7.355
 4364TIP3   OH234650   1.784   3.260   7.102
 4364TIP3    H134651   1.803   3.276   7.010
 4364TIP3    H234652   1.696   3.297   7.115
 4365TIP3   OH234653   2.579   1.389   0.582
 4365TIP3    H134654   2.510   1.327   0.605
 4365TIP3    H234655   2.533   1.473   0.571
 4366TIP3   OH234656   0.897   2.681   6.506
 4366TIP3    H134657   0.904   2.776   6.516
 4366TIP3    H234658   0.961   2.659   6.439
 4367TIP3   OH234659   4.445   1.359   7.473
 4367TIP3    H134660   4.430   1.399   7.559
 4367TIP3    H234661   4.474   1.270   7.493
 4368TIP3   OH234662   3.818   6.356   1.088
 4368TIP3    H134663   3.884   6.298   1.126
 4368TIP3    H234664   3.856   6.443   1.096
 4369TIP3   OH234665   0.747   0.654   1.859
 4369TIP3    H134666   0.842   0.657   1.848
 4369TIP3    H234667   0.734   0.609   1.943
 4370TIP3   OH234668   3.167   4.607   7.729
 4370TIP3    H134669   3.195   4.692   7.696
 4370TIP3    H234670   3.233   4.583   7.793
 4371TIP3   OH234671   1.878   6.342   0.531
 4371TIP3    H134672   1.941   6.370   0.597
 4371TIP3    H234673   1.931   6.301   0.462
 4372TIP3   OH234674   5.106   3.209   7.271
 4372TIP3    H134675   5.115   3.119   7.302
 4372TIP3    H234676   5.047   3.204   7.196
 4373TIP3   OH234677   3.274   6.686   7.164
 4373TIP3    H134678   3.272   6.591   7.174
 4373TIP3    H234679   3.200   6.706   7.107
 4374TIP3   OH234680   1.358   2.754   6.506
 4374TIP3    H134681   1.372   2.661   6.491
 4374TIP3    H234682   1.265   2.767   6.487
 4375TIP3   OH234683   1.107   2.575   8.053
 4375TIP3    H134684   1.041   2.573   7.984
 4375TIP3    H234685   1.057   2.561   8.134
 4376TIP3   OH234686   2.651   3.873   7.663
 4376TIP3    H134687   2.600   3.949   7.691
 4376TIP3    H234688   2.741   3.894   7.688
 4377TIP3   OH234689   4.631   3.481   0.396
 4377TIP3    H134690   4.566   3.411   0.399
 4377TIP3    H234691   4.586   3.557   0.434
 4378TIP3   OH234692   3.798   4.740   2.429
 4378TIP3    H134693   3.881   4.771   2.465
 4378TIP3    H234694   3.761   4.684   2.498
 4379TIP3   OH234695   5.154   6.104   7.086
 4379TIP3    H134696   5.150   6.187   7.132
 4379TIP3    H234697   5.141   6.038   7.154
 4380TIP3   OH234698   2.770   6.671   8.333
 4380TIP3    H134699   2.744   6.581   8.353
 4380TIP3    H234700   2.720   6.724   8.395
 4381TIP3   OH234701   4.388   0.470   0.645
 4381TIP3    H134702   4.445   0.395   0.662
 4381TIP3    H234703   4.446   0.546   0.650
 4382TIP3   OH234704   5.451   1.834   7.150
 4382TIP3    H134705   5.537   1.794   7.157
 4382TIP3    H234706   5.417   1.803   7.066
 4383TIP3   OH234707   2.483   0.329   8.057
 4383TIP3    H134708   2.411   0.275   8.090
 4383TIP3    H234709   2.488   0.310   7.964
 4384TIP3   OH234710   1.709   0.932   2.127
 4384TIP3    H134711   1.736   0.962   2.213
 4384TIP3    H234712   1.745   0.996   2.066
 4385TIP3   OH234713   1.551   5.821   0.459
 4385TIP3    H134714   1.547   5.911   0.425
 4385TIP3    H234715   1.644   5.798   0.455
 4386TIP3   OH234716   0.684   0.187   1.327
 4386TIP3    H134717   0.704   0.237   1.247
 4386TIP3    H234718   0.596   0.154   1.313
 4387TIP3   OH234719   5.429   3.179   1.529
 4387TIP3    H134720   5.362   3.233   1.486
 4387TIP3    H234721   5.502   3.239   1.543
 4388TIP3   OH234722   2.803   2.054   7.113
 4388TIP3    H134723   2.857   2.105   7.053
 4388TIP3    H234724   2.827   1.963   7.096
 4389TIP3   OH234725   1.152   3.971   8.120
 4389TIP3    H134726   1.102   3.890   8.117
 4389TIP3    H234727   1.243   3.942   8.126
 4390TIP3   OH234728   4.751   1.739   7.369
 4390TIP3    H134729   4.837   1.736   7.412
 4390TIP3    H234730   4.771   1.740   7.276
 4391TIP3   OH234731   1.233   0.829   7.631
 4391TIP3    H134732   1.326   0.810   7.618
 4391TIP3    H234733   1.215   0.903   7.572
 4392TIP3   OH234734   4.290   0.508   8.116
 4392TIP3    H134735   4.203   0.507   8.158
 4392TIP3    H234736   4.289   0.433   8.057
 4393TIP3   OH234737   1.214   4.979   8.010
 4393TIP3    H134738   1.259   4.895   8.020
 4393TIP3    H234739   1.255   5.036   8.075
 4394TIP3   OH234740   1.773   2.906   7.821
 4394TIP3    H134741   1.681   2.918   7.799
 4394TIP3    H234742   1.816   2.987   7.792
 4395TIP3   OH234743   3.473   0.813   2.149
 4395TIP3    H134744   3.479   0.721   2.123
 4395TIP3    H234745   3.397   0.817   2.207
 4396TIP3   OH234746   0.180   5.292   6.425
 4396TIP3    H134747   0.220   5.292   6.338
 4396TIP3    H234748   0.118   5.366   6.423
 4397TIP3   OH234749   6.666   3.782   6.200
 4397TIP3    H134750   6.639   3.787   6.292
 4397TIP3    H234751   6.725   3.856   6.189
 4398TIP3   OH234752   5.477   1.869   2.038
 4398TIP3    H134753   5.442   1.792   2.083
 4398TIP3    H234754   5.566   1.843   2.013
 4399TIP3   OH234755   0.209   1.239   8.704
 4399TIP3    H134756   0.263   1.259   8.781
 4399TIP3    H234757   0.198   1.323   8.660
 4400TIP3   OH234758   0.565   1.259   7.510
 4400TIP3    H134759   0.654   1.292   7.502
 4400TIP3    H234760   0.567   1.204   7.589
 4401TIP3   OH234761   4.243   3.641   0.321
 4401TIP3    H134762   4.170   3.622   0.262
 4401TIP3    H234763   4.202   3.651   0.407
 4402TIP3   OH234764   1.232   4.173   6.731
 4402TIP3    H134765   1.272   4.086   6.726
 4402TIP3    H234766   1.165   4.172   6.662
 4403TIP3   OH234767   4.354   1.653   8.378
 4403TIP3    H134768   4.325   1.615   8.295
 4403TIP3    H234769   4.300   1.731   8.389
 4404TIP3   OH234770   5.459   6.788   0.286
 4404TIP3    H134771   5.484   6.704   0.323
 4404TIP3    H234772   5.417   6.767   0.203
 4405TIP3   OH234773   2.260   0.761   8.001
 4405TIP3    H134774   2.205   0.813   7.942
 4405TIP3    H234775   2.204   0.689   8.029
 4406TIP3   OH234776   5.649   2.565   2.443
 4406TIP3    H134777   5.656   2.518   2.360
 4406TIP3    H234778   5.613   2.651   2.420
 4407TIP3   OH234779   2.895   0.493   0.849
 4407TIP3    H134780   2.984   0.502   0.815
 4407TIP3    H234781   2.851   0.574   0.823
 4408TIP3   OH234782   0.446   1.719   1.665
 4408TIP3    H134783   0.475   1.788   1.605
 4408TIP3    H234784   0.427   1.644   1.608
 4409TIP3   OH234785   4.609   2.235   1.162
 4409TIP3    H134786   4.611   2.300   1.091
 4409TIP3    H234787   4.523   2.248   1.203
 4410TIP3   OH234788   4.001   4.309   1.285
 4410TIP3    H134789   4.023   4.338   1.196
 4410TIP3    H234790   4.056   4.231   1.299
 4411TIP3   OH234791   5.080   2.021   8.591
 4411TIP3    H134792   5.129   2.023   8.673
 4411TIP3    H234793   5.063   1.928   8.576
 4412TIP3   OH234794   3.508   4.748   1.230
 4412TIP3    H134795   3.592   4.795   1.235
 4412TIP3    H234796   3.528   4.660   1.263
 4413TIP3   OH234797   4.909   1.260   8.423
 4413TIP3    H134798   4.827   1.310   8.430
 4413TIP3    H234799   4.933   1.241   8.513
 4414TIP3   OH234800   4.328   5.251   6.603
 4414TIP3    H134801   4.329   5.159   6.632
 4414TIP3    H234802   4.368   5.249   6.516
 4415TIP3   OH234803   5.996   6.197   6.002
 4415TIP3    H134804   6.006   6.181   6.096
 4415TIP3    H234805   6.085   6.213   5.971
 4416TIP3   OH234806   1.803   1.732   1.702
 4416TIP3    H134807   1.861   1.697   1.771
 4416TIP3    H234808   1.756   1.804   1.745
 4417TIP3   OH234809   1.675   0.942   2.417
 4417TIP3    H134810   1.707   1.027   2.448
 4417TIP3    H234811   1.744   0.880   2.441
 4418TIP3   OH234812   5.904   4.517   2.101
 4418TIP3    H134813   5.917   4.503   2.194
 4418TIP3    H234814   5.838   4.453   2.076
 4419TIP3   OH234815   1.925   0.024   2.117
 4419TIP3    H134816   1.833   0.034   2.140
 4419TIP3    H234817   1.972   0.035   2.199
 4420TIP3   OH234818   6.172   6.383   8.312
 4420TIP3    H134819   6.088   6.410   8.276
 4420TIP3    H234820   6.235   6.447   8.278
 4421TIP3   OH234821   3.091   3.509   7.373
 4421TIP3    H134822   3.173   3.460   7.360
 4421TIP3    H234823   3.054   3.517   7.286
 4422TIP3   OH234824   1.860   2.222   7.308
 4422TIP3    H134825   1.782   2.167   7.318
 4422TIP3    H234826   1.913   2.203   7.385
 4423TIP3   OH234827   2.622   3.687   1.849
 4423TIP3    H134828   2.652   3.698   1.939
 4423TIP3    H234829   2.573   3.604   1.851
 4424TIP3   OH234830   0.884   1.923   8.317
 4424TIP3    H134831   0.917   1.983   8.250
 4424TIP3    H234832   0.814   1.972   8.361
 4425TIP3   OH234833   2.498   4.775   7.026
 4425TIP3    H134834   2.573   4.718   7.010
 4425TIP3    H234835   2.526   4.861   6.995
 4426TIP3   OH234836   5.863   4.159   7.850
 4426TIP3    H134837   5.910   4.096   7.795
 4426TIP3    H234838   5.817   4.215   7.788
 4427TIP3   OH234839   3.208   4.722   0.276
 4427TIP3    H134840   3.286   4.689   0.230
 4427TIP3    H234841   3.153   4.645   0.287
 4428TIP3   OH234842   4.974   5.223   0.024
 4428TIP3    H134843   4.882   5.216   8.779
 4428TIP3    H234844   4.997   5.314   0.005
 4429TIP3   OH234845   1.855   5.681   0.502
 4429TIP3    H134846   1.929   5.623   0.487
 4429TIP3    H234847   1.778   5.630   0.478
 4430TIP3   OH234848   5.656   1.951   0.472
 4430TIP3    H134849   5.656   1.900   0.391
 4430TIP3    H234850   5.563   1.970   0.488
 4431TIP3   OH234851   2.133   0.537   8.135
 4431TIP3    H134852   2.049   0.570   8.104
 4431TIP3    H234853   2.131   0.443   8.116
 4432TIP3   OH234854   6.724   0.680   1.745
 4432TIP3    H134855   6.689   0.720   1.665
 4432TIP3    H234856   6.647   0.654   1.795
 4433TIP3   OH234857   4.555   3.285   8.281
 4433TIP3    H134858   4.472   3.312   8.243
 4433TIP3    H234859   4.534   3.206   8.331
 4434TIP3   OH234860   0.132   0.045   8.508
 4434TIP3    H134861   0.090   0.066   8.591
 4434TIP3    H234862   0.098   0.110   8.446
 4435TIP3   OH234863   4.837   2.413   0.865
 4435TIP3    H134864   4.871   2.327   0.890
 4435TIP3    H234865   4.763   2.428   0.923
 4436TIP3   OH234866   1.428   4.442   1.712
 4436TIP3    H134867   1.474   4.370   1.755
 4436TIP3    H234868   1.336   4.425   1.729
 4437TIP3   OH234869   5.970   4.375   0.794
 4437TIP3    H134870   5.984   4.379   0.889
 4437TIP3    H234871   5.875   4.374   0.784
 4438TIP3   OH234872   1.216   0.837   0.580
 4438TIP3    H134873   1.236   0.873   0.493
 4438TIP3    H234874   1.203   0.914   0.635
 4439TIP3   OH234875   2.155   4.420   0.058
 4439TIP3    H134876   2.189   4.435   0.146
 4439TIP3    H234877   2.071   4.465   0.056
 4440TIP3   OH234878   4.483   2.230   2.301
 4440TIP3    H134879   4.509   2.265   2.386
 4440TIP3    H234880   4.467   2.309   2.247
 4441TIP3   OH234881   2.213   3.899   7.617
 4441TIP3    H134882   2.158   3.965   7.576
 4441TIP3    H234883   2.300   3.913   7.580
 4442TIP3   OH234884   4.731   3.809   0.756
 4442TIP3    H134885   4.703   3.730   0.802
 4442TIP3    H234886   4.815   3.786   0.718
 4443TIP3   OH234887   0.798   4.560   0.806
 4443TIP3    H134888   0.799   4.655   0.822
 4443TIP3    H234889   0.776   4.522   0.891
 4444TIP3   OH234890   0.989   5.162   8.399
 4444TIP3    H134891   1.026   5.231   8.344
 4444TIP3    H234892   0.906   5.200   8.431
 4445TIP3   OH234893   0.733   1.560   2.300
 4445TIP3    H134894   0.770   1.612   2.228
 4445TIP3    H234895   0.714   1.475   2.260
 4446TIP3   OH234896   2.880   2.566   8.230
 4446TIP3    H134897   2.827   2.615   8.293
 4446TIP3    H234898   2.865   2.611   8.147
 4447TIP3   OH234899   1.798   1.939   8.451
 4447TIP3    H134900   1.802   2.005   8.381
 4447TIP3    H234901   1.860   1.872   8.423
 4448TIP3   OH234902   4.769   1.097   0.791
 4448TIP3    H134903   4.764   1.050   0.708
 4448TIP3    H234904   4.863   1.102   0.809
 4449TIP3   OH234905   5.688   0.809   8.725
 4449TIP3    H134906   5.652   0.721   8.716
 4449TIP3    H234907   5.723   0.829   8.639
 4450TIP3   OH234908   3.675   0.839   0.788
 4450TIP3    H134909   3.637   0.901   0.851
 4450TIP3    H234910   3.622   0.849   0.709
 4451TIP3   OH234911   5.422   4.276   0.214
 4451TIP3    H134912   5.449   4.187   0.238
 4451TIP3    H234913   5.490   4.333   0.250
 4452TIP3   OH234914   3.829   1.753   8.447
 4452TIP3    H134915   3.766   1.822   8.467
 4452TIP3    H234916   3.858   1.773   8.358
 4453TIP3   OH234917   0.031   5.350   1.601
 4453TIP3    H134918   0.075   5.426   1.563
 4453TIP3    H234919   0.052   5.354   1.694
 4454TIP3   OH234920   2.831   4.750   8.221
 4454TIP3    H134921   2.838   4.827   8.276
 4454TIP3    H234922   2.779   4.688   8.272
 4455TIP3   OH234923   2.248   4.421   0.848
 4455TIP3    H134924   2.157   4.444   0.865
 4455TIP3    H234925   2.287   4.501   0.815
 4456TIP3   OH234926   6.388   3.848   0.162
 4456TIP3    H134927   6.348   3.779   0.109
 4456TIP3    H234928   6.316   3.882   0.215
 4457TIP3   OH234929   4.455   5.085   7.602
 4457TIP3    H134930   4.376   5.043   7.636
 4457TIP3    H234931   4.440   5.092   7.508
 4458TIP3   OH234932   3.342   3.493   1.360
 4458TIP3    H134933   3.291   3.508   1.280
 4458TIP3    H234934   3.321   3.567   1.416
 4459TIP3   OH234935   0.716   2.871   7.954
 4459TIP3    H134936   0.727   2.886   8.048
 4459TIP3    H234937   0.733   2.777   7.942
 4460TIP3   OH234938   1.080   3.320   6.964
 4460TIP3    H134939   1.136   3.362   6.899
 4460TIP3    H234940   1.059   3.389   7.027
 4461TIP3   OH234941   2.975   2.767   1.750
 4461TIP3    H134942   2.988   2.862   1.745
 4461TIP3    H234943   2.887   2.757   1.785
 4462TIP3   OH234944   6.003   3.463   8.528
 4462TIP3    H134945   6.053   3.543   8.516
 4462TIP3    H234946   6.060   3.394   8.494
 4463TIP3   OH234947   0.614   4.663   0.231
 4463TIP3    H134948   0.601   4.623   0.317
 4463TIP3    H234949   0.692   4.717   0.241
 4464TIP3   OH234950   1.510   0.718   6.836
 4464TIP3    H134951   1.466   0.635   6.818
 4464TIP3    H234952   1.555   0.740   6.755
 4465TIP3   OH234953   0.505   3.499   0.056
 4465TIP3    H134954   0.542   3.588   0.052
 4465TIP3    H234955   0.487   3.485   0.149
 4466TIP3   OH234956   2.582   6.806   6.572
 4466TIP3    H134957   2.552   6.727   6.616
 4466TIP3    H234958   2.527   6.812   6.494
 4467TIP3   OH234959   6.088   3.701   8.187
 4467TIP3    H134960   5.996   3.676   8.198
 4467TIP3    H234961   6.131   3.621   8.158
 4468TIP3   OH234962   5.003   5.517   1.218
 4468TIP3    H134963   5.008   5.555   1.305
 4468TIP3    H234964   5.037   5.428   1.228
 4469TIP3   OH234965   1.343   3.041   7.134
 4469TIP3    H134966   1.278   3.077   7.074
 4469TIP3    H234967   1.370   2.959   7.093
 4470TIP3   OH234968   3.974   0.651   0.930
 4470TIP3    H134969   3.952   0.695   0.847
 4470TIP3    H234970   4.006   0.722   0.986
 4471TIP3   OH234971   1.849   5.534   1.170
 4471TIP3    H134972   1.822   5.489   1.250
 4471TIP3    H234973   1.915   5.478   1.132
 4472TIP3   OH234974   1.662   0.505   8.715
 4472TIP3    H134975   1.614   0.516   0.014
 4472TIP3    H234976   1.644   0.415   8.688
 4473TIP3   OH234977   2.325   3.447   0.176
 4473TIP3    H134978   2.332   3.510   0.105
 4473TIP3    H234979   2.325   3.500   0.255
 4474TIP3   OH234980   2.774   4.372   0.663
 4474TIP3    H134981   2.849   4.357   0.720
 4474TIP3    H234982   2.697   4.351   0.717
 4475TIP3   OH234983   6.722   3.089   2.019
 4475TIP3    H134984   6.693   3.177   1.994
 4475TIP3    H234985   6.711   3.087   2.114
 4476TIP3   OH234986   0.625   2.380   7.756
 4476TIP3    H134987   0.714   2.347   7.753
 4476TIP3    H234988   0.599   2.388   7.664
 4477TIP3   OH234989   4.462   0.471   1.751
 4477TIP3    H134990   4.548   0.490   1.788
 4477TIP3    H234991   4.411   0.436   1.824
 4478TIP3   OH234992   5.191   3.803   0.374
 4478TIP3    H134993   5.222   3.729   0.427
 4478TIP3    H234994   5.097   3.785   0.361
 4479TIP3   OH234995   1.317   1.992   0.092
 4479TIP3    H134996   1.401   1.958   0.122
 4479TIP3    H234997   1.252   1.940   0.139
 4480TIP3   OH234998   0.685   0.937   6.320
 4480TIP3    H134999   0.720   0.856   6.284
 4480TIP3    H235000   0.660   0.915   6.410
 4481TIP3   OH235001   2.064   1.439   1.881
 4481TIP3    H135002   2.115   1.424   1.802
 4481TIP3    H235003   2.107   1.386   1.948
 4482TIP3   OH235004   3.869   5.228   8.595
 4482TIP3    H135005   3.877   5.255   8.504
 4482TIP3    H235006   3.952   5.185   8.615
 4483TIP3   OH235007   4.424   3.786   8.515
 4483TIP3    H135008   4.338   3.771   8.556
 4483TIP3    H235009   4.456   3.698   8.495
 4484TIP3   OH235010   1.987   6.023   7.272
 4484TIP3    H135011   2.066   5.972   7.289
 4484TIP3    H235012   1.952   5.986   7.190
 4485TIP3   OH235013   6.266   3.178   8.098
 4485TIP3    H135014   6.265   3.097   8.047
 4485TIP3    H235015   6.174   3.206   8.100
 4486TIP3   OH235016   6.778   6.775   7.294
 4486TIP3    H135017   6.733   6.833   7.356
 4486TIP3    H235018   6.745   6.802   7.209
 4487TIP3   OH235019   2.702   4.114   2.072
 4487TIP3    H135020   2.665   4.045   2.127
 4487TIP3    H235021   2.776   4.073   2.028
 4488TIP3   OH235022   2.442   2.732   0.294
 4488TIP3    H135023   2.535   2.731   0.317
 4488TIP3    H235024   2.441   2.720   0.199
 4489TIP3   OH235025   2.160   3.390   7.369
 4489TIP3    H135026   2.186   3.467   7.420
 4489TIP3    H235027   2.064   3.390   7.372
 4490TIP3   OH235028   4.308   0.098   2.556
 4490TIP3    H135029   4.277   0.036   2.491
 4490TIP3    H235030   4.377   0.051   2.603
 4491TIP3   OH235031   2.071   5.430   7.745
 4491TIP3    H135032   2.129   5.400   7.675
 4491TIP3    H235033   1.990   5.454   7.701
 4492TIP3   OH235034   1.518   1.792   0.154
 4492TIP3    H135035   1.546   1.876   0.189
 4492TIP3    H235036   1.595   1.735   0.164
 4493TIP3   OH235037   2.818   4.332   8.367
 4493TIP3    H135038   2.901   4.316   8.411
 4493TIP3    H235039   2.799   4.424   8.384
 4494TIP3   OH235040   2.660   1.391   7.729
 4494TIP3    H135041   2.625   1.479   7.721
 4494TIP3    H235042   2.593   1.335   7.691
 4495TIP3   OH235043   3.474   1.926   0.434
 4495TIP3    H135044   3.400   1.893   0.485
 4495TIP3    H235045   3.440   1.938   0.346
 4496TIP3   OH235046   0.569   6.063   1.891
 4496TIP3    H135047   0.571   6.157   1.913
 4496TIP3    H235048   0.479   6.046   1.867
 4497TIP3   OH235049   4.505   4.511   7.282
 4497TIP3    H135050   4.428   4.455   7.296
 4497TIP3    H235051   4.499   4.577   7.351
 4498TIP3   OH235052   1.023   6.146   7.368
 4498TIP3    H135053   1.113   6.115   7.376
 4498TIP3    H235054   1.023   6.233   7.407
 4499TIP3   OH235055   4.463   3.313   7.302
 4499TIP3    H135056   4.443   3.387   7.245
 4499TIP3    H235057   4.382   3.261   7.303
 4500TIP3   OH235058   2.797   3.983   0.831
 4500TIP3    H135059   2.812   3.997   0.738
 4500TIP3    H235060   2.786   3.888   0.839
 4501TIP3   OH235061   3.655   2.772   7.438
 4501TIP3    H135062   3.613   2.720   7.370
 4501TIP3    H235063   3.583   2.815   7.484
 4502TIP3   OH235064   5.264   5.474   0.262
 4502TIP3    H135065   5.201   5.536   0.298
 4502TIP3    H235066   5.328   5.528   0.217
 4503TIP3   OH235067   4.740   5.135   7.577
 4503TIP3    H135068   4.735   5.145   7.672
 4503TIP3    H235069   4.668   5.076   7.556
 4504TIP3   OH235070   5.418   2.999   1.093
 4504TIP3    H135071   5.374   2.925   1.050
 4504TIP3    H235072   5.348   3.063   1.108
 4505TIP3   OH235073   4.787   2.608   1.812
 4505TIP3    H135074   4.704   2.612   1.765
 4505TIP3    H235075   4.776   2.669   1.885
 4506TIP3   OH235076   3.221   4.738   7.463
 4506TIP3    H135077   3.206   4.736   7.369
 4506TIP3    H235078   3.188   4.654   7.494
 4507TIP3   OH235079   4.886   2.161   0.978
 4507TIP3    H135080   4.871   2.197   1.066
 4507TIP3    H235081   4.953   2.094   0.990
 4508TIP3   OH235082   5.683   6.371   8.215
 4508TIP3    H135083   5.603   6.324   8.192
 4508TIP3    H235084   5.654   6.441   8.274
 4509TIP3   OH235085   1.706   5.616   1.534
 4509TIP3    H135086   1.760   5.658   1.466
 4509TIP3    H235087   1.695   5.684   1.600
 4510TIP3   OH235088   0.789   6.372   7.916
 4510TIP3    H135089   0.782   6.453   7.967
 4510TIP3    H235090   0.714   6.376   7.856
 4511TIP3   OH235091   2.094   3.157   7.920
 4511TIP3    H135092   2.162   3.090   7.918
 4511TIP3    H235093   2.084   3.178   8.012
 4512TIP3   OH235094   3.967   4.455   7.357
 4512TIP3    H135095   3.953   4.541   7.317
 4512TIP3    H235096   3.901   4.450   7.426
 4513TIP3   OH235097   0.063   2.981   1.229
 4513TIP3    H135098   0.017   2.909   1.186
 4513TIP3    H235099   0.029   2.981   1.318
 4514TIP3   OH235100   2.766   2.579   8.656
 4514TIP3    H135101   2.725   2.661   8.685
 4514TIP3    H235102   2.809   2.602   8.573
 4515TIP3   OH235103   6.138   1.259   1.431
 4515TIP3    H135104   6.135   1.169   1.464
 4515TIP3    H235105   6.081   1.308   1.490
 4516TIP3   OH235106   2.874   0.301   8.217
 4516TIP3    H135107   2.955   0.351   8.227
 4516TIP3    H235108   2.889   0.222   8.268
 4517TIP3   OH235109   1.853   0.643   0.787
 4517TIP3    H135110   1.835   0.587   0.863
 4517TIP3    H235111   1.799   0.721   0.802
 4518TIP3   OH235112   3.569   3.862   6.655
 4518TIP3    H135113   3.583   3.911   6.574
 4518TIP3    H235114   3.479   3.830   6.649
 4519TIP3   OH235115   6.529   2.394   6.188
 4519TIP3    H135116   6.443   2.433   6.170
 4519TIP3    H235117   6.589   2.469   6.193
 4520TIP3   OH235118   3.198   1.796   1.037
 4520TIP3    H135119   3.192   1.870   0.977
 4520TIP3    H235120   3.282   1.807   1.082
 4521TIP3   OH235121   5.799   0.915   0.361
 4521TIP3    H135122   5.832   0.975   0.295
 4521TIP3    H235123   5.719   0.878   0.322
 4522TIP3   OH235124   5.083   4.814   0.579
 4522TIP3    H135125   4.990   4.831   0.562
 4522TIP3    H235126   5.122   4.901   0.589
 4523TIP3   OH235127   1.293   4.760   7.136
 4523TIP3    H135128   1.235   4.719   7.072
 4523TIP3    H235129   1.300   4.851   7.107
 4524TIP3   OH235130   1.129   6.345   8.638
 4524TIP3    H135131   1.049   6.370   8.684
 4524TIP3    H235132   1.139   6.252   8.656
 4525TIP3   OH235133   1.383   0.266   1.485
 4525TIP3    H135134   1.360   0.309   1.567
 4525TIP3    H235135   1.367   0.333   1.418
 4526TIP3   OH235136   4.852   6.621   0.347
 4526TIP3    H135137   4.879   6.530   0.337
 4526TIP3    H235138   4.922   6.662   0.398
 4527TIP3   OH235139   2.086   3.078   8.250
 4527TIP3    H135140   2.030   3.000   8.250
 4527TIP3    H235141   2.151   3.061   8.318
 4528TIP3   OH235142   5.746   3.695   1.186
 4528TIP3    H135143   5.745   3.684   1.091
 4528TIP3    H235144   5.831   3.735   1.205
 4529TIP3   OH235145   4.289   0.088   1.297
 4529TIP3    H135146   4.217   0.026   1.286
 4529TIP3    H235147   4.306   0.121   1.209
 4530TIP3   OH235148   0.500   3.609   7.928
 4530TIP3    H135149   0.422   3.610   7.873
 4530TIP3    H235150   0.559   3.671   7.886
 4531TIP3   OH235151   5.030   4.249   1.261
 4531TIP3    H135152   4.949   4.200   1.245
 4531TIP3    H235153   5.097   4.200   1.214
 4532TIP3   OH235154   2.267   3.313   2.048
 4532TIP3    H135155   2.270   3.219   2.066
 4532TIP3    H235156   2.309   3.354   2.124
 4533TIP3   OH235157   4.246   5.024   6.423
 4533TIP3    H135158   4.179   5.092   6.425
 4533TIP3    H235159   4.248   4.990   6.512
 4534TIP3   OH235160   5.012   4.486   8.537
 4534TIP3    H135161   4.995   4.579   8.550
 4534TIP3    H235162   4.959   4.442   8.603
 4535TIP3   OH235163   5.420   0.699   0.858
 4535TIP3    H135164   5.453   0.757   0.789
 4535TIP3    H235165   5.355   0.751   0.905
 4536TIP3   OH235166   6.637   3.357   2.011
 4536TIP3    H135167   6.596   3.438   2.044
 4536TIP3    H235168   6.731   3.376   2.014
 4537TIP3   OH235169   2.997   3.164   6.992
 4537TIP3    H135170   3.058   3.211   6.936
 4537TIP3    H235171   2.910   3.192   6.961
 4538TIP3   OH235172   5.596   6.046   6.253
 4538TIP3    H135173   5.680   6.037   6.297
 4538TIP3    H235174   5.615   6.037   6.160
 4539TIP3   OH235175   0.395   2.182   6.350
 4539TIP3    H135176   0.481   2.174   6.308
 4539TIP3    H235177   0.380   2.277   6.354
 4540TIP3   OH235178   2.343   4.561   8.261
 4540TIP3    H135179   2.359   4.501   8.189
 4540TIP3    H235180   2.253   4.592   8.248
 4541TIP3   OH235181   5.444   5.894   1.082
 4541TIP3    H135182   5.401   5.937   1.008
 4541TIP3    H235183   5.419   5.947   1.158
 4542TIP3   OH235184   4.713   2.917   0.842
 4542TIP3    H135185   4.709   2.873   0.757
 4542TIP3    H235186   4.725   3.009   0.820
 4543TIP3   OH235187   3.413   0.024   8.005
 4543TIP3    H135188   3.390   0.097   7.948
 4543TIP3    H235189   3.331   6.814   8.016
 4544TIP3   OH235190   1.316   0.425   8.679
 4544TIP3    H135191   1.254   0.352   8.675
 4544TIP3    H235192   1.279   0.484   8.745
 4545TIP3   OH235193   1.433   4.298   0.845
 4545TIP3    H135194   1.441   4.361   0.773
 4545TIP3    H235195   1.446   4.212   0.803
 4546TIP3   OH235196   3.617   2.113   8.114
 4546TIP3    H135197   3.607   2.195   8.163
 4546TIP3    H235198   3.527   2.087   8.093
 4547TIP3   OH235199   6.688   5.921   1.489
 4547TIP3    H135200   6.725   6.001   1.525
 4547TIP3    H235201   6.703   5.855   1.557
 4548TIP3   OH235202   0.272   2.119   1.656
 4548TIP3    H135203   0.319   2.064   1.719
 4548TIP3    H235204   0.334   2.132   1.585
 4549TIP3   OH235205   0.108   3.745   7.317
 4549TIP3    H135206   0.062   3.776   7.395
 4549TIP3    H235207   0.190   3.795   7.316
 4550TIP3   OH235208   5.926   1.032   1.375
 4550TIP3    H135209   5.910   0.946   1.337
 4550TIP3    H235210   5.843   1.079   1.366
 4551TIP3   OH235211   3.993   4.518   2.823
 4551TIP3    H135212   4.053   4.571   2.770
 4551TIP3    H235213   4.004   4.552   2.912
 4552TIP3   OH235214   2.511   3.326   0.465
 4552TIP3    H135215   2.431   3.379   0.471
 4552TIP3    H235216   2.487   3.254   0.407
 4553TIP3   OH235217   1.628   4.485   1.409
 4553TIP3    H135218   1.548   4.431   1.409
 4553TIP3    H235219   1.645   4.501   1.316
 4554TIP3   OH235220   5.912   1.792   0.371
 4554TIP3    H135221   5.858   1.783   0.449
 4554TIP3    H235222   5.881   1.722   0.312
 4555TIP3   OH235223   3.321   5.925   7.341
 4555TIP3    H135224   3.381   5.852   7.355
 4555TIP3    H235225   3.333   5.949   7.249
 4556TIP3   OH235226   5.296   0.098   7.903
 4556TIP3    H135227   5.282   0.033   7.972
 4556TIP3    H235228   5.265   0.055   7.823
 4557TIP3   OH235229   1.279   6.776   6.334
 4557TIP3    H135230   1.240   6.736   6.411
 4557TIP3    H235231   1.346   6.713   6.306
 4558TIP3   OH235232   4.401   4.235   1.724
 4558TIP3    H135233   4.391   4.315   1.775
 4558TIP3    H235234   4.487   4.245   1.682
 4559TIP3   OH235235   2.449   3.952   7.503
 4559TIP3    H135236   2.526   3.899   7.526
 4559TIP3    H235237   2.465   4.036   7.545
 4560TIP3   OH235238   2.873   3.267   7.263
 4560TIP3    H135239   2.851   3.303   7.349
 4560TIP3    H235240   2.809   3.307   7.203
 4561TIP3   OH235241   2.928   6.333   0.256
 4561TIP3    H135242   2.917   6.238   0.261
 4561TIP3    H235243   2.922   6.363   0.347
 4562TIP3   OH235244   3.813   0.462   0.995
 4562TIP3    H135245   3.886   0.523   0.986
 4562TIP3    H235246   3.837   0.388   0.938
 4563TIP3   OH235247   5.408   4.499   1.480
 4563TIP3    H135248   5.397   4.542   1.395
 4563TIP3    H235249   5.351   4.548   1.539
 4564TIP3   OH235250   0.887   6.614   7.415
 4564TIP3    H135251   0.982   6.627   7.417
 4564TIP3    H235252   0.867   6.570   7.497
 4565TIP3   OH235253   1.410   1.679   0.382
 4565TIP3    H135254   1.419   1.702   0.289
 4565TIP3    H235255   1.490   1.712   0.422
 4566TIP3   OH235256   3.493   1.862   7.888
 4566TIP3    H135257   3.565   1.834   7.944
 4566TIP3    H235258   3.468   1.783   7.841
 4567TIP3   OH235259   1.901   2.568   7.787
 4567TIP3    H135260   1.971   2.558   7.852
 4567TIP3    H235261   1.866   2.655   7.803
 4568TIP3   OH235262   4.289   0.275   7.218
 4568TIP3    H135263   4.298   0.238   7.130
 4568TIP3    H235264   4.272   0.200   7.275
 4569TIP3   OH235265   2.553   2.822   0.833
 4569TIP3    H135266   2.627   2.763   0.819
 4569TIP3    H235267   2.478   2.776   0.797
 4570TIP3   OH235268   1.289   1.498   7.959
 4570TIP3    H135269   1.354   1.450   8.010
 4570TIP3    H235270   1.224   1.526   8.024
 4571TIP3   OH235271   2.214   0.253   2.643
 4571TIP3    H135272   2.196   0.184   2.579
 4571TIP3    H235273   2.238   0.329   2.590
 4572TIP3   OH235274   3.311   4.041   0.543
 4572TIP3    H135275   3.339   4.132   0.558
 4572TIP3    H235276   3.348   4.019   0.457
 4573TIP3   OH235277   4.995   3.156   8.233
 4573TIP3    H135278   4.985   3.208   8.313
 4573TIP3    H235279   5.087   3.166   8.210
 4574TIP3   OH235280   4.943   6.173   7.734
 4574TIP3    H135281   4.877   6.120   7.779
 4574TIP3    H235282   4.893   6.244   7.694
 4575TIP3   OH235283   4.467   0.046   2.169
 4575TIP3    H135284   4.404   6.830   2.216
 4575TIP3    H235285   4.501   0.106   2.235
 4576TIP3   OH235286   1.829   5.208   1.275
 4576TIP3    H135287   1.832   5.113   1.288
 4576TIP3    H235288   1.755   5.222   1.217
 4577TIP3   OH235289   1.887   1.141   6.170
 4577TIP3    H135290   1.958   1.079   6.151
 4577TIP3    H235291   1.865   1.124   6.262
 4578TIP3   OH235292   3.170   6.680   7.958
 4578TIP3    H135293   3.081   6.657   7.931
 4578TIP3    H235294   3.226   6.636   7.894
 4579TIP3   OH235295   5.121   1.806   0.450
 4579TIP3    H135296   5.064   1.730   0.435
 4579TIP3    H235297   5.080   1.876   0.399
 4580TIP3   OH235298   3.463   5.701   7.449
 4580TIP3    H135299   3.546   5.681   7.406
 4580TIP3    H235300   3.472   5.662   7.536
 4581TIP3   OH235301   6.433   5.711   1.750
 4581TIP3    H135302   6.353   5.726   1.699
 4581TIP3    H235303   6.459   5.622   1.727
 4582TIP3   OH235304   3.789   2.062   7.925
 4582TIP3    H135305   3.844   2.139   7.943
 4582TIP3    H235306   3.723   2.063   7.995
 4583TIP3   OH235307   0.354   2.172   0.040
 4583TIP3    H135308   0.276   2.177   8.767
 4583TIP3    H235309   0.324   2.198   0.127
 4584TIP3   OH235310   5.390   0.631   1.250
 4584TIP3    H135311   5.437   0.587   1.321
 4584TIP3    H235312   5.320   0.571   1.226
 4585TIP3   OH235313   6.422   5.216   7.494
 4585TIP3    H135314   6.424   5.270   7.415
 4585TIP3    H235315   6.509   5.176   7.497
 4586TIP3   OH235316   6.408   5.241   7.866
 4586TIP3    H135317   6.361   5.280   7.939
 4586TIP3    H235318   6.341   5.223   7.801
 4587TIP3   OH235319   6.664   5.101   7.479
 4587TIP3    H135320   6.701   5.188   7.465
 4587TIP3    H235321   6.679   5.055   7.397
 4588TIP3   OH235322   6.077   2.992   1.316
 4588TIP3    H135323   6.129   3.069   1.295
 4588TIP3    H235324   6.140   2.920   1.315
 4589TIP3   OH235325   2.009   5.075   7.196
 4589TIP3    H135326   1.976   5.134   7.128
 4589TIP3    H235327   2.022   4.992   7.151
 4590TIP3   OH235328   1.609   0.342   0.577
 4590TIP3    H135329   1.696   0.302   0.586
 4590TIP3    H235330   1.583   0.322   0.487
 4591TIP3   OH235331   5.772   4.551   0.075
 4591TIP3    H135332   5.863   4.523   0.086
 4591TIP3    H235333   5.730   4.529   0.158
 4592TIP3   OH235334   4.526   3.700   8.085
 4592TIP3    H135335   4.544   3.641   8.158
 4592TIP3    H235336   4.610   3.744   8.070
 4593TIP3   OH235337   6.192   2.299   1.487
 4593TIP3    H135338   6.239   2.372   1.449
 4593TIP3    H235339   6.259   2.232   1.502
 4594TIP3   OH235340   5.204   2.168   2.088
 4594TIP3    H135341   5.294   2.186   2.113
 4594TIP3    H235342   5.170   2.251   2.054
 4595TIP3   OH235343   5.568   3.584   0.431
 4595TIP3    H135344   5.537   3.518   0.369
 4595TIP3    H235345   5.595   3.657   0.376
 4596TIP3   OH235346   4.187   4.146   8.029
 4596TIP3    H135347   4.255   4.085   8.001
 4596TIP3    H235348   4.232   4.209   8.085
 4597TIP3   OH235349   2.258   1.365   8.665
 4597TIP3    H135350   2.331   1.305   8.648
 4597TIP3    H235351   2.260   1.426   8.590
 4598TIP3   OH235352   0.467   3.407   0.316
 4598TIP3    H135353   0.372   3.405   0.328
 4598TIP3    H235354   0.500   3.337   0.373
 4599TIP3   OH235355   2.581   4.762   1.934
 4599TIP3    H135356   2.597   4.746   1.841
 4599TIP3    H235357   2.513   4.699   1.958
 4600TIP3   OH235358   5.433   0.299   6.244
 4600TIP3    H135359   5.373   0.230   6.215
 4600TIP3    H235360   5.377   0.367   6.281
 4601TIP3   OH235361   1.396   0.292   0.768
 4601TIP3    H135362   1.439   0.285   0.683
 4601TIP3    H235363   1.430   0.373   0.806
 4602TIP3   OH235364   4.127   5.152   1.199
 4602TIP3    H135365   4.133   5.102   1.118
 4602TIP3    H235366   4.167   5.096   1.265
 4603TIP3   OH235367   3.683   1.017   7.948
 4603TIP3    H135368   3.626   1.030   7.871
 4603TIP3    H235369   3.628   1.039   8.023
 4604TIP3   OH235370   2.609   4.750   7.766
 4604TIP3    H135371   2.526   4.717   7.733
 4604TIP3    H235372   2.674   4.688   7.734
 4605TIP3   OH235373   1.522   0.316   7.280
 4605TIP3    H135374   1.568   0.283   7.203
 4605TIP3    H235375   1.541   0.410   7.281
 4606TIP3   OH235376   4.110   5.930   0.638
 4606TIP3    H135377   4.069   5.986   0.573
 4606TIP3    H235378   4.179   5.985   0.677
 4607TIP3   OH235379   3.718   0.310   8.231
 4607TIP3    H135380   3.701   0.386   8.287
 4607TIP3    H235381   3.761   0.247   8.290
 4608TIP3   OH235382   1.541   2.918   0.027
 4608TIP3    H135383   1.605   2.953   0.090
 4608TIP3    H235384   1.477   2.873   0.082
 4609TIP3   OH235385   4.098   1.565   7.604
 4609TIP3    H135386   4.084   1.475   7.631
 4609TIP3    H235387   4.123   1.559   7.512
 4610TIP3   OH235388   3.303   0.234   7.880
 4610TIP3    H135389   3.293   0.309   7.939
 4610TIP3    H235390   3.327   0.273   7.796
 4611TIP3   OH235391   4.518   1.475   0.426
 4611TIP3    H135392   4.466   1.505   0.500
 4611TIP3    H235393   4.566   1.553   0.398
 4612TIP3   OH235394   5.924   4.190   6.933
 4612TIP3    H135395   5.884   4.255   6.990
 4612TIP3    H235396   5.850   4.144   6.894
 4613TIP3   OH235397   4.133   1.824   1.468
 4613TIP3    H135398   4.107   1.885   1.399
 4613TIP3    H235399   4.144   1.740   1.423
 4614TIP3   OH235400   4.676   1.990   0.418
 4614TIP3    H135401   4.599   2.042   0.395
 4614TIP3    H235402   4.719   2.041   0.487
 4615TIP3   OH235403   5.021   1.446   7.523
 4615TIP3    H135404   4.958   1.375   7.534
 4615TIP3    H235405   5.058   1.432   7.435
 4616TIP3   OH235406   4.806   6.065   1.639
 4616TIP3    H135407   4.843   6.154   1.633
 4616TIP3    H235408   4.862   6.020   1.702
 4617TIP3   OH235409   4.330   0.701   8.339
 4617TIP3    H135410   4.419   0.687   8.373
 4617TIP3    H235411   4.321   0.637   8.268
 4618TIP3   OH235412   3.307   4.937   7.982
 4618TIP3    H135413   3.273   5.017   8.021
 4618TIP3    H235414   3.290   4.869   8.048
 4619TIP3   OH235415   1.661   3.445   7.698
 4619TIP3    H135416   1.733   3.434   7.760
 4619TIP3    H235417   1.650   3.358   7.660
 4620TIP3   OH235418   0.734   0.942   7.016
 4620TIP3    H135419   0.823   0.946   6.983
 4620TIP3    H235420   0.713   0.848   7.017
 4621TIP3   OH235421   6.310   0.517   1.663
 4621TIP3    H135422   6.397   0.488   1.692
 4621TIP3    H235423   6.274   0.562   1.739
 4622TIP3   OH235424   4.676   1.408   0.059
 4622TIP3    H135425   4.629   1.484   0.095
 4622TIP3    H235426   4.615   1.335   0.070
 4623TIP3   OH235427   6.006   1.492   7.348
 4623TIP3    H135428   6.065   1.418   7.360
 4623TIP3    H235429   5.939   1.459   7.288
 4624TIP3   OH235430   5.747   5.760   6.780
 4624TIP3    H135431   5.839   5.734   6.787
 4624TIP3    H235432   5.738   5.832   6.842
 4625TIP3   OH235433   6.575   3.291   7.170
 4625TIP3    H135434   6.554   3.332   7.255
 4625TIP3    H235435   6.657   3.245   7.185
 4626TIP3   OH235436   0.986   1.532   2.410
 4626TIP3    H135437   0.891   1.519   2.406
 4626TIP3    H235438   1.000   1.621   2.377
 4627TIP3   OH235439   3.961   5.837   1.344
 4627TIP3    H135440   4.039   5.786   1.322
 4627TIP3    H235441   3.891   5.796   1.294
 4628TIP3   OH235442   1.160   3.987   0.858
 4628TIP3    H135443   1.152   4.031   0.943
 4628TIP3    H235444   1.070   3.970   0.831
 4629TIP3   OH235445   3.680   1.808   8.140
 4629TIP3    H135446   3.740   1.881   8.157
 4629TIP3    H235447   3.600   1.832   8.186
 4630TIP3   OH235448   3.797   3.296   0.100
 4630TIP3    H135449   3.823   3.258   0.184
 4630TIP3    H235450   3.855   3.255   0.036
 4631TIP3   OH235451   6.151   5.053   7.820
 4631TIP3    H135452   6.233   5.005   7.807
 4631TIP3    H235453   6.082   4.986   7.812
 4632TIP3   OH235454   3.582   0.781   1.403
 4632TIP3    H135455   3.600   0.717   1.335
 4632TIP3    H235456   3.494   0.814   1.383
 4633TIP3   OH235457   0.325   3.401   1.365
 4633TIP3    H135458   0.280   3.375   1.285
 4633TIP3    H235459   0.270   3.470   1.402
 4634TIP3   OH235460   0.270   3.767   8.662
 4634TIP3    H135461   0.271   3.672   8.660
 4634TIP3    H235462   0.184   3.790   8.698
 4635TIP3   OH235463   4.979   6.472   7.936
 4635TIP3    H135464   4.971   6.550   7.991
 4635TIP3    H235465   4.905   6.478   7.875
 4636TIP3   OH235466   0.417   0.600   0.667
 4636TIP3    H135467   0.484   0.553   0.716
 4636TIP3    H235468   0.347   0.615   0.731
 4637TIP3   OH235469   6.622   2.319   1.604
 4637TIP3    H135470   6.586   2.352   1.686
 4637TIP3    H235471   6.633   2.396   1.549
 4638TIP3   OH235472   3.545   1.686   2.194
 4638TIP3    H135473   3.568   1.774   2.164
 4638TIP3    H235474   3.587   1.628   2.130
 4639TIP3   OH235475   0.884   0.562   8.238
 4639TIP3    H135476   0.963   0.594   8.196
 4639TIP3    H235477   0.819   0.631   8.222
 4640TIP3   OH235478   5.409   4.653   7.666
 4640TIP3    H135479   5.471   4.673   7.735
 4640TIP3    H235480   5.375   4.738   7.638
 4641TIP3   OH235481   1.758   6.062   2.697
 4641TIP3    H135482   1.738   6.150   2.665
 4641TIP3    H235483   1.673   6.025   2.721
 4642TIP3   OH235484   2.988   0.846   6.908
 4642TIP3    H135485   2.990   0.812   6.998
 4642TIP3    H235486   2.900   0.882   6.899
 4643TIP3   OH235487   3.158   1.209   7.608
 4643TIP3    H135488   3.186   1.261   7.533
 4643TIP3    H235489   3.063   1.203   7.598
 4644TIP3   OH235490   5.359   0.729   0.043
 4644TIP3    H135491   5.387   0.781   0.118
 4644TIP3    H235492   5.340   0.793   8.758
 4645TIP3   OH235493   5.408   4.562   0.208
 4645TIP3    H135494   5.483   4.573   0.150
 4645TIP3    H235495   5.362   4.485   0.175
 4646TIP3   OH235496   3.735   0.634   1.231
 4646TIP3    H135497   3.756   0.594   1.146
 4646TIP3    H235498   3.819   0.664   1.265
 4647TIP3   OH235499   5.426   6.201   6.889
 4647TIP3    H135500   5.473   6.284   6.899
 4647TIP3    H235501   5.435   6.158   6.975
 4648TIP3   OH235502   0.988   6.293   1.663
 4648TIP3    H135503   0.955   6.220   1.610
 4648TIP3    H235504   1.032   6.350   1.600
 4649TIP3   OH235505   0.959   1.825   1.826
 4649TIP3    H135506   1.001   1.904   1.791
 4649TIP3    H235507   1.032   1.765   1.843
 4650TIP3   OH235508   2.240   6.183   1.882
 4650TIP3    H135509   2.289   6.181   1.964
 4650TIP3    H235510   2.149   6.170   1.908
 4651TIP3   OH235511   2.104   3.509   6.639
 4651TIP3    H135512   2.157   3.582   6.670
 4651TIP3    H235513   2.121   3.438   6.701
 4652TIP3   OH235514   3.159   5.843   2.332
 4652TIP3    H135515   3.159   5.936   2.356
 4652TIP3    H235516   3.241   5.832   2.283
 4653TIP3   OH235517   3.626   5.803   6.464
 4653TIP3    H135518   3.714   5.814   6.427
 4653TIP3    H235519   3.597   5.718   6.433
 4654TIP3   OH235520   1.413   4.868   0.007
 4654TIP3    H135521   1.335   4.908   0.044
 4654TIP3    H235522   1.392   4.775   8.782
 4655TIP3   OH235523   3.596   2.097   1.448
 4655TIP3    H135524   3.670   2.047   1.484
 4655TIP3    H235525   3.632   2.185   1.435
 4656TIP3   OH235526   6.254   3.343   6.600
 4656TIP3    H135527   6.274   3.259   6.642
 4656TIP3    H235528   6.233   3.321   6.510
 4657TIP3   OH235529   3.942   4.394   7.955
 4657TIP3    H135530   3.851   4.391   7.982
 4657TIP3    H235531   3.988   4.434   8.029
 4658TIP3   OH235532   4.386   4.834   0.070
 4658TIP3    H135533   4.401   4.927   0.054
 4658TIP3    H235534   4.297   4.829   0.104
 4659TIP3   OH235535   6.388   3.590   0.929
 4659TIP3    H135536   6.307   3.639   0.931
 4659TIP3    H235537   6.403   3.572   0.836
 4660TIP3   OH235538   5.441   3.141   0.468
 4660TIP3    H135539   5.486   3.057   0.462
 4660TIP3    H235540   5.472   3.179   0.550
 4661TIP3   OH235541   6.701   4.858   1.488
 4661TIP3    H135542   6.747   4.792   1.540
 4661TIP3    H235543   6.698   4.821   1.400
 4662TIP3   OH235544   4.852   4.747   7.233
 4662TIP3    H135545   4.824   4.836   7.251
 4662TIP3    H235546   4.947   4.752   7.225
 4663TIP3   OH235547   2.024   3.113   0.776
 4663TIP3    H135548   1.932   3.137   0.766
 4663TIP3    H235549   2.070   3.197   0.782
 4664TIP3   OH235550   3.704   3.331   0.780
 4664TIP3    H135551   3.666   3.321   0.867
 4664TIP3    H235552   3.703   3.243   0.743
 4665TIP3   OH235553   5.324   1.066   1.358
 4665TIP3    H135554   5.312   1.122   1.435
 4665TIP3    H235555   5.263   0.994   1.372
 4666TIP3   OH235556   4.610   0.049   1.900
 4666TIP3    H135557   4.627   0.137   1.865
 4666TIP3    H235558   4.586   0.065   1.992
 4667TIP3   OH235559   6.757   2.640   1.493
 4667TIP3    H135560   6.758   2.680   1.580
 4667TIP3    H235561   0.010   2.615   1.477
 4668TIP3   OH235562   0.578   0.110   8.670
 4668TIP3    H135563   0.566   0.194   8.627
 4668TIP3    H235564   0.492   0.068   8.665
 4669TIP3   OH235565   6.034   5.494   7.108
 4669TIP3    H135566   6.012   5.402   7.096
 4669TIP3    H235567   6.107   5.495   7.169
 4670TIP3   OH235568   0.307   3.092   7.397
 4670TIP3    H135569   0.279   3.172   7.353
 4670TIP3    H235570   0.244   3.025   7.368
 4671TIP3   OH235571   1.079   0.193   7.667
 4671TIP3    H135572   1.124   0.125   7.617
 4671TIP3    H235573   1.118   0.275   7.637
 4672TIP3   OH235574   0.232   5.901   7.414
 4672TIP3    H135575   0.177   5.878   7.489
 4672TIP3    H235576   0.212   5.993   7.398
 4673TIP3   OH235577   0.965   4.227   1.293
 4673TIP3    H135578   0.972   4.278   1.212
 4673TIP3    H235579   0.871   4.210   1.303
 4674TIP3   OH235580   6.286   0.712   7.589
 4674TIP3    H135581   6.206   0.699   7.641
 4674TIP3    H235582   6.255   0.756   7.510
 4675TIP3   OH235583   3.491   4.680   6.563
 4675TIP3    H135584   3.507   4.587   6.548
 4675TIP3    H235585   3.578   4.719   6.562
 4676TIP3   OH235586   1.795   0.476   8.166
 4676TIP3    H135587   1.726   0.503   8.227
 4676TIP3    H235588   1.778   0.383   8.151
 4677TIP3   OH235589   2.356   3.827   0.426
 4677TIP3    H135590   2.422   3.896   0.430
 4677TIP3    H235591   2.288   3.863   0.370
 4678TIP3   OH235592   3.981   5.949   8.344
 4678TIP3    H135593   3.931   5.895   8.284
 4678TIP3    H235594   3.917   6.009   8.382
 4679TIP3   OH235595   0.132   5.536   1.389
 4679TIP3    H135596   0.205   5.598   1.397
 4679TIP3    H235597   0.169   5.461   1.342
 4680TIP3   OH235598   0.163   4.338   0.035
 4680TIP3    H135599   0.246   4.336   0.082
 4680TIP3    H235600   0.175   4.403   8.749
 4681TIP3   OH235601   5.647   5.722   1.112
 4681TIP3    H135602   5.706   5.715   1.036
 4681TIP3    H235603   5.589   5.795   1.090
 4682TIP3   OH235604   6.559   6.306   1.084
 4682TIP3    H135605   6.566   6.263   1.169
 4682TIP3    H235606   6.536   6.396   1.104
 4683TIP3   OH235607   1.860   6.448   6.869
 4683TIP3    H135608   1.827   6.408   6.788
 4683TIP3    H235609   1.921   6.383   6.905
 4684TIP3   OH235610   2.404   3.826   7.788
 4684TIP3    H135611   2.327   3.845   7.734
 4684TIP3    H235612   2.472   3.801   7.725
 4685TIP3   OH235613   1.618   3.759   8.470
 4685TIP3    H135614   1.536   3.737   8.426
 4685TIP3    H235615   1.594   3.818   8.540
 4686TIP3   OH235616   3.326   6.657   1.477
 4686TIP3    H135617   3.242   6.623   1.507
 4686TIP3    H235618   3.378   6.579   1.456
 4687TIP3   OH235619   1.178   4.925   0.203
 4687TIP3    H135620   1.135   5.010   0.187
 4687TIP3    H235621   1.127   4.863   0.152
 4688TIP3   OH235622   0.652   5.143   8.185
 4688TIP3    H135623   0.672   5.087   8.260
 4688TIP3    H235624   0.738   5.161   8.145
 4689TIP3   OH235625   2.119   2.774   1.660
 4689TIP3    H135626   2.052   2.770   1.592
 4689TIP3    H235627   2.151   2.684   1.667
 4690TIP3   OH235628   5.034   2.299   7.695
 4690TIP3    H135629   4.963   2.285   7.633
 4690TIP3    H235630   4.992   2.294   7.781
 4691TIP3   OH235631   3.222   1.270   1.445
 4691TIP3    H135632   3.160   1.214   1.491
 4691TIP3    H235633   3.258   1.215   1.375
 4692TIP3   OH235634   1.015   1.296   8.181
 4692TIP3    H135635   1.104   1.262   8.168
 4692TIP3    H235636   1.028   1.386   8.211
 4693TIP3   OH235637   6.012   0.893   1.612
 4693TIP3    H135638   6.004   0.957   1.541
 4693TIP3    H235639   5.976   0.812   1.576
 4694TIP3   OH235640   1.325   0.054   2.203
 4694TIP3    H135641   1.307   0.140   2.167
 4694TIP3    H235642   1.261   6.834   2.162
 4695TIP3   OH235643   4.752   3.877   7.898
 4695TIP3    H135644   4.788   3.966   7.901
 4695TIP3    H235645   4.736   3.861   7.805
 4696TIP3   OH235646   5.399   4.556   8.322
 4696TIP3    H135647   5.428   4.500   8.250
 4696TIP3    H235648   5.387   4.496   8.395
 4697TIP3   OH235649   2.311   3.359   1.368
 4697TIP3    H135650   2.402   3.334   1.354
 4697TIP3    H235651   2.315   3.435   1.426
 4698TIP3   OH235652   2.525   2.038   1.284
 4698TIP3    H135653   2.491   2.122   1.315
 4698TIP3    H235654   2.576   2.061   1.207
 4699TIP3   OH235655   2.435   2.614   1.821
 4699TIP3    H135656   2.368   2.566   1.772
 4699TIP3    H235657   2.410   2.604   1.912
 4700TIP3   OH235658   3.693   1.148   1.718
 4700TIP3    H135659   3.634   1.212   1.758
 4700TIP3    H235660   3.777   1.163   1.762
 4701TIP3   OH235661   2.426   0.098   2.063
 4701TIP3    H135662   2.394   0.088   2.152
 4701TIP3    H235663   2.472   0.182   2.063
 4702TIP3   OH235664   1.442   4.464   0.628
 4702TIP3    H135665   1.471   4.389   0.577
 4702TIP3    H235666   1.518   4.522   0.632
 4703TIP3   OH235667   2.705   3.047   7.666
 4703TIP3    H135668   2.654   3.119   7.702
 4703TIP3    H235669   2.696   3.056   7.571
 4704TIP3   OH235670   2.138   5.833   1.940
 4704TIP3    H135671   2.129   5.880   2.022
 4704TIP3    H235672   2.075   5.875   1.881
 4705TIP3   OH235673   5.797   0.239   8.125
 4705TIP3    H135674   5.701   0.234   8.121
 4705TIP3    H235675   5.824   0.154   8.158
 4706TIP3   OH235676   3.323   4.934   0.922
 4706TIP3    H135677   3.362   4.849   0.902
 4706TIP3    H235678   3.354   4.991   0.852
 4707TIP3   OH235679   4.142   3.505   1.340
 4707TIP3    H135680   4.056   3.479   1.306
 4707TIP3    H235681   4.141   3.478   1.431
 4708TIP3   OH235682   4.738   1.391   6.803
 4708TIP3    H135683   4.740   1.482   6.775
 4708TIP3    H235684   4.669   1.351   6.750
 4709TIP3   OH235685   4.597   1.727   7.884
 4709TIP3    H135686   4.514   1.773   7.894
 4709TIP3    H235687   4.609   1.718   7.790
 4710TIP3   OH235688   6.756   0.570   7.891
 4710TIP3    H135689   6.789   0.580   7.801
 4710TIP3    H235690   6.673   0.523   7.881
 4711TIP3   OH235691   2.062   3.040   7.044
 4711TIP3    H135692   2.070   3.135   7.039
 4711TIP3    H235693   2.083   3.019   7.135
 4712TIP3   OH235694   5.443   6.199   8.063
 4712TIP3    H135695   5.491   6.154   7.993
 4712TIP3    H235696   5.355   6.212   8.026
 4713TIP3   OH235697   2.928   1.075   8.324
 4713TIP3    H135698   2.902   1.167   8.334
 4713TIP3    H235699   2.888   1.048   8.242
 4714TIP3   OH235700   6.300   0.540   6.941
 4714TIP3    H135701   6.228   0.509   6.887
 4714TIP3    H235702   6.291   0.491   7.023
 4715TIP3   OH235703   6.680   4.140   8.555
 4715TIP3    H135704   6.661   4.050   8.581
 4715TIP3    H235705   6.730   4.177   8.628
 4716TIP3   OH235706   5.396   3.934   6.560
 4716TIP3    H135707   5.410   4.020   6.599
 4716TIP3    H235708   5.462   3.927   6.491
 4717TIP3   OH235709   6.739   4.222   0.013
 4717TIP3    H135710   6.758   4.161   0.084
 4717TIP3    H235711   6.818   4.275   0.005
 4718TIP3   OH235712   6.779   0.602   7.629
 4718TIP3    H135713   0.008   0.586   7.562
 4718TIP3    H235714   6.743   0.688   7.605
 4719TIP3   OH235715   5.742   3.401   8.516
 4719TIP3    H135716   5.835   3.422   8.523
 4719TIP3    H235717   5.737   3.307   8.533
 4720TIP3   OH235718   5.070   3.765   7.805
 4720TIP3    H135719   5.079   3.859   7.788
 4720TIP3    H235720   5.160   3.732   7.806
 4721TIP3   OH235721   1.020   6.695   7.775
 4721TIP3    H135722   0.934   6.736   7.786
 4721TIP3    H235723   1.001   6.605   7.751
 4722TIP3   OH235724   5.456   4.188   6.639
 4722TIP3    H135725   5.453   4.281   6.618
 4722TIP3    H235726   5.548   4.172   6.661
 4723TIP3   OH235727   0.308   3.963   0.150
 4723TIP3    H135728   0.387   3.966   0.096
 4723TIP3    H235729   0.293   3.870   0.166
 4724TIP3   OH235730   0.026   3.248   1.775
 4724TIP3    H135731   0.104   3.258   1.721
 4724TIP3    H235732   0.028   3.157   1.803
 4725TIP3   OH235733   6.487   0.288   1.430
 4725TIP3    H135734   6.564   0.344   1.422
 4725TIP3    H235735   6.521   0.199   1.431
 4726TIP3   OH235736   2.509   1.926   6.823
 4726TIP3    H135737   2.436   1.895   6.769
 4726TIP3    H235738   2.522   1.858   6.888
 4727TIP3   OH235739   6.471   3.206   7.872
 4727TIP3    H135740   6.515   3.286   7.845
 4727TIP3    H235741   6.446   3.222   7.964
 4728TIP3   OH235742   5.145   5.145   7.697
 4728TIP3    H135743   5.067   5.201   7.702
 4728TIP3    H235744   5.218   5.205   7.709
 4729TIP3   OH235745   4.811   6.158   7.344
 4729TIP3    H135746   4.815   6.063   7.347
 4729TIP3    H235747   4.901   6.185   7.325
 4730TIP3   OH235748   1.296   1.546   0.961
 4730TIP3    H135749   1.318   1.590   1.043
 4730TIP3    H235750   1.230   1.602   0.921
 4731TIP3   OH235751   0.246   4.448   2.145
 4731TIP3    H135752   0.207   4.528   2.110
 4731TIP3    H235753   0.332   4.442   2.103
 4732TIP3   OH235754   5.709   5.975   6.947
 4732TIP3    H135755   5.655   6.006   7.019
 4732TIP3    H235756   5.790   6.026   6.953
 4733TIP3   OH235757   6.206   0.162   7.631
 4733TIP3    H135758   6.235   0.248   7.662
 4733TIP3    H235759   6.285   0.107   7.635
 4734TIP3   OH235760   3.598   3.533   8.706
 4734TIP3    H135761   3.661   3.597   8.741
 4734TIP3    H235762   3.573   3.481   8.782
 4735TIP3   OH235763   4.117   4.075   2.374
 4735TIP3    H135764   4.154   4.143   2.432
 4735TIP3    H235765   4.121   3.995   2.426
 4736TIP3   OH235766   3.780   1.116   0.218
 4736TIP3    H135767   3.704   1.171   0.201
 4736TIP3    H235768   3.812   1.092   0.131
 4737TIP3   OH235769   6.198   6.244   1.090
 4737TIP3    H135770   6.110   6.259   1.056
 4737TIP3    H235771   6.221   6.325   1.133
 4738TIP3   OH235772   3.369   0.586   1.887
 4738TIP3    H135773   3.399   0.635   1.810
 4738TIP3    H235774   3.279   0.560   1.866
 4739TIP3   OH235775   2.356   1.440   6.856
 4739TIP3    H135776   2.414   1.398   6.791
 4739TIP3    H235777   2.291   1.485   6.803
 4740TIP3   OH235778   6.611   4.497   1.462
 4740TIP3    H135779   6.534   4.496   1.518
 4740TIP3    H235780   6.576   4.513   1.374
 4741TIP3   OH235781   0.177   5.473   8.696
 4741TIP3    H135782   0.262   5.517   8.689
 4741TIP3    H235783   0.168   5.425   8.613
 4742TIP3   OH235784   2.591   5.128   0.729
 4742TIP3    H135785   2.599   5.139   0.634
 4742TIP3    H235786   2.678   5.146   0.763
 4743TIP3   OH235787   0.508   6.829   7.704
 4743TIP3    H135788   0.540   0.064   7.652
 4743TIP3    H235789   0.502   0.025   7.793
 4744TIP3   OH235790   4.464   6.202   0.230
 4744TIP3    H135791   4.543   6.170   0.188
 4744TIP3    H235792   4.460   6.295   0.206
 4745TIP3   OH235793   4.156   5.937   1.793
 4745TIP3    H135794   4.163   5.902   1.882
 4745TIP3    H235795   4.100   5.875   1.747
 4746TIP3   OH235796   3.625   5.969   1.483
 4746TIP3    H135797   3.625   6.044   1.422
 4746TIP3    H235798   3.539   5.970   1.523
 4747TIP3   OH235799   2.149   4.747   1.736
 4747TIP3    H135800   2.149   4.739   1.831
 4747TIP3    H235801   2.061   4.777   1.714
 4748TIP3   OH235802   2.613   0.799   8.258
 4748TIP3    H135803   2.705   0.802   8.282
 4748TIP3    H235804   2.594   0.706   8.248
 4749TIP3   OH235805   2.374   0.922   6.348
 4749TIP3    H135806   2.447   0.932   6.409
 4749TIP3    H235807   2.400   0.974   6.272
 4750TIP3   OH235808   5.078   6.716   0.506
 4750TIP3    H135809   5.076   6.758   0.592
 4750TIP3    H235810   5.170   6.698   0.490
 4751TIP3   OH235811   0.222   3.231   1.577
 4751TIP3    H135812   0.250   3.140   1.569
 4751TIP3    H235813   0.256   3.274   1.499
 4752TIP3   OH235814   1.608   3.126   1.616
 4752TIP3    H135815   1.533   3.134   1.674
 4752TIP3    H235816   1.602   3.037   1.581
 4753TIP3   OH235817   3.676   0.169   0.137
 4753TIP3    H135818   3.647   0.260   0.140
 4753TIP3    H235819   3.707   0.150   0.225
 4754TIP3   OH235820   5.740   6.218   7.920
 4754TIP3    H135821   5.824   6.229   7.876
 4754TIP3    H235822   5.726   6.123   7.922
 4755TIP3   OH235823   3.872   3.170   7.338
 4755TIP3    H135824   3.800   3.125   7.294
 4755TIP3    H235825   3.847   3.263   7.336
 4756TIP3   OH235826   4.924   4.949   0.240
 4756TIP3    H135827   4.869   4.910   0.307
 4756TIP3    H235828   4.988   4.882   0.218
 4757TIP3   OH235829   6.602   3.219   0.627
 4757TIP3    H135830   6.592   3.252   0.538
 4757TIP3    H235831   6.540   3.146   0.633
 4758TIP3   OH235832   2.453   5.265   7.425
 4758TIP3    H135833   2.539   5.272   7.383
 4758TIP3    H235834   2.444   5.172   7.445
 4759TIP3   OH235835   0.582   1.758   0.774
 4759TIP3    H135836   0.499   1.789   0.811
 4759TIP3    H235837   0.564   1.746   0.681
 4760TIP3   OH235838   0.850   0.090   8.683
 4760TIP3    H135839   0.887   0.058   8.601
 4760TIP3    H235840   0.756   0.082   8.672
 4761TIP3   OH235841   4.591   6.482   7.947
 4761TIP3    H135842   4.583   6.402   7.896
 4761TIP3    H235843   4.654   6.535   7.898
 4762TIP3   OH235844   5.951   6.428   8.123
 4762TIP3    H135845   5.973   6.521   8.123
 4762TIP3    H235846   5.855   6.426   8.123
 4763TIP3   OH235847   1.771   1.234   0.962
 4763TIP3    H135848   1.782   1.326   0.985
 4763TIP3    H235849   1.685   1.230   0.919
 4764TIP3   OH235850   6.293   1.904   6.994
 4764TIP3    H135851   6.265   1.978   7.047
 4764TIP3    H235852   6.256   1.921   6.907
 4765TIP3   OH235853   0.400   2.021   0.351
 4765TIP3    H135854   0.433   1.970   0.277
 4765TIP3    H235855   0.324   2.067   0.317
 4766TIP3   OH235856   6.608   0.873   0.895
 4766TIP3    H135857   6.627   0.875   0.989
 4766TIP3    H235858   6.580   0.962   0.874
 4767TIP3   OH235859   6.055   4.690   0.725
 4767TIP3    H135860   6.015   4.738   0.798
 4767TIP3    H235861   6.134   4.651   0.762
 4768TIP3   OH235862   2.553   1.972   7.846
 4768TIP3    H135863   2.640   1.941   7.821
 4768TIP3    H235864   2.523   2.023   7.771
 4769TIP3   OH235865   5.890   5.117   1.313
 4769TIP3    H135866   5.970   5.069   1.291
 4769TIP3    H235867   5.883   5.185   1.247
 4770TIP3   OH235868   2.474   5.663   7.731
 4770TIP3    H135869   2.510   5.745   7.695
 4770TIP3    H235870   2.551   5.608   7.746
 4771TIP3   OH235871   1.018   0.079   6.262
 4771TIP3    H135872   1.042   0.140   6.193
 4771TIP3    H235873   1.096   0.026   6.277
 4772TIP3   OH235874   1.921   3.544   7.239
 4772TIP3    H135875   1.951   3.635   7.235
 4772TIP3    H235876   1.826   3.550   7.239
 4773TIP3   OH235877   1.048   3.825   1.486
 4773TIP3    H135878   0.984   3.790   1.423
 4773TIP3    H235879   0.997   3.886   1.540
 4774TIP3   OH235880   6.102   4.971   7.321
 4774TIP3    H135881   6.172   4.978   7.386
 4774TIP3    H235882   6.133   5.021   7.246
 4775TIP3   OH235883   0.466   5.232   7.636
 4775TIP3    H135884   0.463   5.180   7.716
 4775TIP3    H235885   0.377   5.230   7.602
 4776TIP3   OH235886   3.245   4.278   6.855
 4776TIP3    H135887   3.243   4.239   6.768
 4776TIP3    H235888   3.337   4.278   6.880
 4777TIP3   OH235889   0.932   1.365   0.009
 4777TIP3    H135890   0.971   1.410   8.716
 4777TIP3    H235891   0.995   1.296   0.031
 4778TIP3   OH235892   1.215   3.287   1.337
 4778TIP3    H135893   1.188   3.201   1.304
 4778TIP3    H235894   1.157   3.302   1.412
 4779TIP3   OH235895   6.182   4.233   0.097
 4779TIP3    H135896   6.203   4.258   0.188
 4779TIP3    H235897   6.156   4.142   0.103
 4780TIP3   OH235898   2.505   0.713   2.490
 4780TIP3    H135899   2.421   0.667   2.493
 4780TIP3    H235900   2.517   0.745   2.580
 4781TIP3   OH235901   0.490   4.500   8.375
 4781TIP3    H135902   0.509   4.436   8.443
 4781TIP3    H235903   0.414   4.463   8.329
 4782TIP3   OH235904   5.890   1.866   7.951
 4782TIP3    H135905   5.835   1.931   7.906
 4782TIP3    H235906   5.912   1.908   8.035
 4783TIP3   OH235907   3.063   2.800   0.708
 4783TIP3    H135908   3.094   2.890   0.707
 4783TIP3    H235909   2.967   2.807   0.710
 4784TIP3   OH235910   1.123   5.475   6.302
 4784TIP3    H135911   1.050   5.530   6.330
 4784TIP3    H235912   1.153   5.515   6.220
 4785TIP3   OH235913   6.176   5.815   7.387
 4785TIP3    H135914   6.206   5.746   7.446
 4785TIP3    H235915   6.083   5.824   7.405
 4786TIP3   OH235916   0.540   3.497   7.583
 4786TIP3    H135917   0.500   3.566   7.636
 4786TIP3    H235918   0.536   3.419   7.638
 4787TIP3   OH235919   6.595   0.632   0.725
 4787TIP3    H135920   6.603   0.713   0.776
 4787TIP3    H235921   6.545   0.573   0.781
 4788TIP3   OH235922   6.666   6.273   0.007
 4788TIP3    H135923   6.668   6.363   0.040
 4788TIP3    H235924   6.594   6.232   0.055
 4789TIP3   OH235925   4.144   3.810   8.070
 4789TIP3    H135926   4.115   3.736   8.124
 4789TIP3    H235927   4.076   3.817   8.002
 4790TIP3   OH235928   0.446   0.793   0.132
 4790TIP3    H135929   0.404   0.763   0.213
 4790TIP3    H235930   0.463   0.713   0.083
 4791TIP3   OH235931   2.435   3.412   7.581
 4791TIP3    H135932   2.451   3.353   7.507
 4791TIP3    H235933   2.405   3.493   7.541
 4792TIP3   OH235934   5.694   5.689   7.662
 4792TIP3    H135935   5.657   5.732   7.740
 4792TIP3    H235936   5.709   5.599   7.689
 4793TIP3   OH235937   3.043   2.082   0.920
 4793TIP3    H135938   3.134   2.052   0.921
 4793TIP3    H235939   3.031   2.124   1.005
 4794TIP3   OH235940   5.061   1.936   0.745
 4794TIP3    H135941   5.128   2.001   0.766
 4794TIP3    H235942   5.086   1.904   0.657
 4795TIP3   OH235943   3.581   2.969   7.777
 4795TIP3    H135944   3.535   3.051   7.758
 4795TIP3    H235945   3.546   2.941   7.862
 4796TIP3   OH235946   5.153   2.179   8.335
 4796TIP3    H135947   5.081   2.148   8.280
 4796TIP3    H235948   5.127   2.154   8.424
 4797TIP3   OH235949   2.365   0.328   0.210
 4797TIP3    H135950   2.311   0.389   0.158
 4797TIP3    H235951   2.409   0.384   0.274
 4798TIP3   OH235952   0.453   5.389   8.463
 4798TIP3    H135953   0.513   5.461   8.482
 4798TIP3    H235954   0.508   5.323   8.422
 4799TIP3   OH235955   6.364   1.174   8.515
 4799TIP3    H135956   6.424   1.102   8.495
 4799TIP3    H235957   6.421   1.249   8.532
 4800TIP3   OH235958   2.450   1.965   6.119
 4800TIP3    H135959   2.406   1.882   6.100
 4800TIP3    H235960   2.543   1.943   6.120
 4801TIP3   OH235961   2.550   5.472   2.240
 4801TIP3    H135962   2.460   5.458   2.267
 4801TIP3    H235963   2.572   5.559   2.274
 4802TIP3   OH235964   0.743   5.228   8.585
 4802TIP3    H135965   0.723   5.285   8.511
 4802TIP3    H235966   0.760   5.289   8.658
 4803TIP3   OH235967   4.013   3.918   8.412
 4803TIP3    H135968   4.105   3.899   8.391
 4803TIP3    H235969   4.017   3.989   8.476
 4804TIP3   OH235970   1.658   2.018   8.758
 4804TIP3    H135971   1.743   2.030   0.018
 4804TIP3    H235972   1.641   1.924   8.764
 4805TIP3   OH235973   4.981   5.687   6.601
 4805TIP3    H135974   4.945   5.599   6.614
 4805TIP3    H235975   4.960   5.735   6.681
 4806TIP3   OH235976   1.484   6.194   7.961
 4806TIP3    H135977   1.578   6.205   7.952
 4806TIP3    H235978   1.453   6.174   7.873
 4807TIP3   OH235979   3.237   3.078   8.326
 4807TIP3    H135980   3.300   3.074   8.254
 4807TIP3    H235981   3.276   3.025   8.395
 4808TIP3   OH235982   2.097   0.813   0.797
 4808TIP3    H135983   2.115   0.814   0.891
 4808TIP3    H235984   2.033   0.742   0.786
 4809TIP3   OH235985   0.745   2.079   1.514
 4809TIP3    H135986   0.835   2.058   1.491
 4809TIP3    H235987   0.699   1.995   1.514
 4810TIP3   OH235988   6.634   2.190   8.483
 4810TIP3    H135989   6.668   2.214   8.570
 4810TIP3    H235990   6.558   2.247   8.471
 4811TIP3   OH235991   6.672   0.927   7.574
 4811TIP3    H135992   6.687   0.920   7.480
 4811TIP3    H235993   6.734   0.994   7.603
 4812TIP3   OH235994   1.871   5.788   7.717
 4812TIP3    H135995   1.935   5.860   7.720
 4812TIP3    H235996   1.908   5.726   7.654
 4813TIP3   OH235997   1.013   3.529   7.140
 4813TIP3    H135998   0.919   3.540   7.157
 4813TIP3    H235999   1.055   3.592   7.198
 4814TIP3   OH236000   4.742   0.399   0.548
 4814TIP3    H136001   4.663   0.378   0.597
 4814TIP3    H236002   4.727   0.361   0.461
 4815TIP3   OH236003   1.630   6.091   7.732
 4815TIP3    H136004   1.673   6.086   7.818
 4815TIP3    H236005   1.698   6.063   7.670
 4816TIP3   OH236006   4.827   1.226   2.251
 4816TIP3    H136007   4.876   1.230   2.168
 4816TIP3    H236008   4.789   1.313   2.260
 4817TIP3   OH236009   6.569   2.320   6.937
 4817TIP3    H136010   6.650   2.307   6.887
 4817TIP3    H236011   6.598   2.340   7.025
 4818TIP3   OH236012   3.501   5.751   1.789
 4818TIP3    H136013   3.423   5.726   1.838
 4818TIP3    H236014   3.475   5.828   1.739
 4819TIP3   OH236015   4.978   0.672   1.381
 4819TIP3    H136016   4.908   0.723   1.340
 4819TIP3    H236017   4.961   0.679   1.475
 4820TIP3   OH236018   5.021   2.503   1.680
 4820TIP3    H136019   4.926   2.495   1.688
 4820TIP3    H236020   5.042   2.584   1.727
 4821TIP3   OH236021   1.195   1.268   7.081
 4821TIP3    H136022   1.223   1.350   7.123
 4821TIP3    H236023   1.101   1.279   7.066
 4822TIP3   OH236024   0.098   4.470   7.765
 4822TIP3    H136025   0.185   4.461   7.724
 4822TIP3    H236026   0.053   4.535   7.711
 4823TIP3   OH236027   0.009   4.567   8.217
 4823TIP3    H136028   0.030   4.619   8.139
 4823TIP3    H236029   6.799   4.492   8.184
 4824TIP3   OH236030   1.616   1.002   7.775
 4824TIP3    H136031   1.623   1.082   7.722
 4824TIP3    H236032   1.643   0.932   7.715
 4825TIP3   OH236033   3.713   0.843   1.783
 4825TIP3    H136034   3.642   0.907   1.793
 4825TIP3    H236035   3.774   0.864   1.855
 4826TIP3   OH236036   2.834   2.086   8.312
 4826TIP3    H136037   2.873   2.123   8.233
 4826TIP3    H236038   2.762   2.145   8.333
 4827TIP3   OH236039   2.024   1.153   8.205
 4827TIP3    H136040   2.083   1.101   8.260
 4827TIP3    H236041   2.081   1.194   8.141
 4828TIP3   OH236042   2.287   1.975   2.481
 4828TIP3    H136043   2.216   1.942   2.426
 4828TIP3    H236044   2.274   2.069   2.483
 4829TIP3   OH236045   5.699   5.440   1.486
 4829TIP3    H136046   5.640   5.449   1.561
 4829TIP3    H236047   5.779   5.401   1.523
 4830TIP3   OH236048   6.249   6.582   7.896
 4830TIP3    H136049   6.284   6.508   7.846
 4830TIP3    H236050   6.299   6.582   7.977
 4831TIP3   OH236051   5.316   3.613   7.814
 4831TIP3    H136052   5.349   3.589   7.901
 4831TIP3    H236053   5.395   3.630   7.763
 4832TIP3   OH236054   1.051   2.128   7.257
 4832TIP3    H136055   1.146   2.122   7.271
 4832TIP3    H236056   1.025   2.204   7.308
 4833TIP3   OH236057   3.788   6.508   8.188
 4833TIP3    H136058   3.880   6.484   8.179
 4833TIP3    H236059   3.747   6.473   8.108
 4834TIP3   OH236060   0.422   2.402   8.621
 4834TIP3    H136061   0.362   2.452   8.676
 4834TIP3    H236062   0.426   2.316   8.662
 4835TIP3   OH236063   6.461   3.510   0.670
 4835TIP3    H136064   6.553   3.492   0.649
 4835TIP3    H236065   6.427   3.554   0.592
 4836TIP3   OH236066   0.544   5.993   7.198
 4836TIP3    H136067   0.483   6.065   7.215
 4836TIP3    H236068   0.625   6.020   7.242
 4837TIP3   OH236069   2.489   5.288   0.344
 4837TIP3    H136070   2.516   5.351   0.410
 4837TIP3    H236071   2.558   5.222   0.342
 4838TIP3   OH236072   2.438   2.694   8.108
 4838TIP3    H136073   2.403   2.704   8.019
 4838TIP3    H236074   2.377   2.634   8.151
 4839TIP3   OH236075   5.141   4.784   7.247
 4839TIP3    H136076   5.181   4.806   7.331
 4839TIP3    H236077   5.190   4.707   7.217
 4840TIP3   OH236078   4.579   4.423   0.426
 4840TIP3    H136079   4.669   4.415   0.395
 4840TIP3    H236080   4.527   4.378   0.359
 4841TIP3   OH236081   1.754   2.526   6.519
 4841TIP3    H136082   1.821   2.466   6.552
 4841TIP3    H236083   1.716   2.479   6.444
 4842TIP3   OH236084   6.295   0.016   7.922
 4842TIP3    H136085   6.285   6.760   7.913
 4842TIP3    H236086   6.385   0.033   7.893
 4843TIP3   OH236087   6.086   4.522   7.232
 4843TIP3    H136088   6.074   4.551   7.323
 4843TIP3    H236089   6.102   4.603   7.183
 4844TIP3   OH236090   4.908   1.793   7.830
 4844TIP3    H136091   4.817   1.763   7.828
 4844TIP3    H236092   4.913   1.850   7.906
 4845TIP3   OH236093   2.067   3.732   7.803
 4845TIP3    H136094   2.138   3.778   7.757
 4845TIP3    H236095   1.996   3.729   7.739
 4846TIP3   OH236096   6.692   4.471   1.146
 4846TIP3    H136097   6.625   4.425   1.196
 4846TIP3    H236098   6.727   4.406   1.086
 4847TIP3   OH236099   4.258   5.304   1.465
 4847TIP3    H136100   4.237   5.370   1.531
 4847TIP3    H236101   4.175   5.261   1.446
 4848TIP3   OH236102   1.176   6.627   7.120
 4848TIP3    H136103   1.095   6.631   7.172
 4848TIP3    H236104   1.232   6.565   7.166
 4849TIP3   OH236105   6.452   3.926   0.498
 4849TIP3    H136106   6.374   3.976   0.523
 4849TIP3    H236107   6.500   3.915   0.581
 4850TIP3   OH236108   3.274   5.282   0.371
 4850TIP3    H136109   3.195   5.294   0.318
 4850TIP3    H236110   3.261   5.337   0.448
 4851TIP3   OH236111   0.989   0.860   1.601
 4851TIP3    H136112   0.984   0.921   1.675
 4851TIP3    H236113   0.907   0.872   1.554
 4852TIP3   OH236114   0.799   6.507   0.344
 4852TIP3    H136115   0.890   6.515   0.372
 4852TIP3    H236116   0.789   6.415   0.321
 4853TIP3   OH236117   4.819   0.699   7.341
 4853TIP3    H136118   4.777   0.719   7.257
 4853TIP3    H236119   4.802   0.606   7.356
 4854TIP3   OH236120   4.956   4.991   1.030
 4854TIP3    H136121   5.004   5.068   0.999
 4854TIP3    H236122   4.880   4.985   0.971
 4855TIP3   OH236123   2.649   5.925   0.718
 4855TIP3    H136124   2.688   5.962   0.797
 4855TIP3    H236125   2.569   5.977   0.705
 4856TIP3   OH236126   4.547   4.317   1.131
 4856TIP3    H136127   4.474   4.363   1.172
 4856TIP3    H236128   4.506   4.259   1.066
 4857TIP3   OH236129   0.176   1.514   0.745
 4857TIP3    H136130   0.158   1.452   0.675
 4857TIP3    H236131   0.099   1.572   0.746
 4858TIP3   OH236132   3.538   5.214   8.411
 4858TIP3    H136133   3.538   5.156   8.487
 4858TIP3    H236134   3.594   5.287   8.437
 4859TIP3   OH236135   2.921   4.354   8.078
 4859TIP3    H136136   2.856   4.377   8.144
 4859TIP3    H236137   2.988   4.422   8.086
 4860TIP3   OH236138   6.288   5.988   7.597
 4860TIP3    H136139   6.226   6.061   7.604
 4860TIP3    H236140   6.263   5.943   7.516
 4861TIP3   OH236141   0.746   3.296   7.554
 4861TIP3    H136142   0.715   3.209   7.531
 4861TIP3    H236143   0.833   3.282   7.591
 4862TIP3   OH236144   2.137   2.085   1.108
 4862TIP3    H136145   2.081   2.111   1.036
 4862TIP3    H236146   2.181   2.005   1.077
 4863TIP3   OH236147   1.365   0.177   6.211
 4863TIP3    H136148   1.456   0.202   6.226
 4863TIP3    H236149   1.358   0.089   6.248
 4864TIP3   OH236150   5.289   2.732   8.753
 4864TIP3    H136151   5.286   2.683   8.671
 4864TIP3    H236152   5.213   2.790   8.749
 4865TIP3   OH236153   0.878   5.401   0.520
 4865TIP3    H136154   0.845   5.490   0.531
 4865TIP3    H236155   0.932   5.386   0.598
 4866TIP3   OH236156   6.202   6.013   1.245
 4866TIP3    H136157   6.202   6.084   1.180
 4866TIP3    H236158   6.111   6.004   1.271
 4867TIP3   OH236159   6.252   2.497   8.305
 4867TIP3    H136160   6.322   2.446   8.346
 4867TIP3    H236161   6.256   2.472   8.212
 4868TIP3   OH236162   6.497   6.323   0.737
 4868TIP3    H136163   6.451   6.391   0.786
 4868TIP3    H236164   6.478   6.342   0.645
 4869TIP3   OH236165   5.524   5.001   8.137
 4869TIP3    H136166   5.601   5.039   8.180
 4869TIP3    H236167   5.550   4.993   8.045
 4870TIP3   OH236168   6.408   5.222   0.322
 4870TIP3    H136169   6.364   5.143   0.290
 4870TIP3    H236170   6.487   5.230   0.268
 4871TIP3   OH236171   3.051   4.642   1.598
 4871TIP3    H136172   3.072   4.629   1.506
 4871TIP3    H236173   3.134   4.665   1.639
 4872TIP3   OH236174   3.711   0.826   0.368
 4872TIP3    H136175   3.766   0.876   0.308
 4872TIP3    H236176   3.767   0.756   0.401
 4873TIP3   OH236177   6.522   0.257   2.050
 4873TIP3    H136178   6.545   0.207   1.971
 4873TIP3    H236179   6.450   0.209   2.089
 4874TIP3   OH236180   4.704   2.447   8.293
 4874TIP3    H136181   4.651   2.396   8.355
 4874TIP3    H236182   4.728   2.526   8.341
 4875TIP3   OH236183   1.839   4.918   1.255
 4875TIP3    H136184   1.907   4.853   1.240
 4875TIP3    H236185   1.816   4.950   1.168
 4876TIP3   OH236186   1.589   1.544   1.659
 4876TIP3    H136187   1.645   1.615   1.690
 4876TIP3    H236188   1.647   1.489   1.607
 4877TIP3   OH236189   4.722   6.782   8.352
 4877TIP3    H136190   4.672   6.701   8.357
 4877TIP3    H236191   4.804   6.757   8.309
 4878TIP3   OH236192   5.909   1.985   7.262
 4878TIP3    H136193   5.819   2.017   7.265
 4878TIP3    H236194   5.922   1.957   7.172
 4879TIP3   OH236195   6.500   6.592   7.626
 4879TIP3    H136196   6.457   6.573   7.542
 4879TIP3    H236197   6.486   6.686   7.638
 4880TIP3   OH236198   1.550   1.098   0.010
 4880TIP3    H136199   1.510   1.185   0.001
 4880TIP3    H236200   1.506   1.045   8.726
 4881TIP3   OH236201   3.281   5.234   8.767
 4881TIP3    H136202   3.231   5.203   0.060
 4881TIP3    H236203   3.327   5.157   8.735
 4882TIP3   OH236204   2.017   1.787   8.366
 4882TIP3    H136205   2.077   1.860   8.384
 4882TIP3    H236206   2.065   1.732   8.304
 4883TIP3   OH236207   4.448   5.750   2.044
 4883TIP3    H136208   4.490   5.680   2.094
 4883TIP3    H236209   4.503   5.761   1.966
 4884TIP3   OH236210   5.406   6.258   1.779
 4884TIP3    H136211   5.392   6.167   1.753
 4884TIP3    H236212   5.488   6.282   1.736
 4885TIP3   OH236213   6.076   4.359   1.666
 4885TIP3    H136214   6.016   4.305   1.613
 4885TIP3    H236215   6.149   4.301   1.687
 4886TIP3   OH236216   5.264   4.403   8.499
 4886TIP3    H136217   5.170   4.419   8.492
 4886TIP3    H236218   5.276   4.364   8.585
 4887TIP3   OH236219   4.783   5.887   8.362
 4887TIP3    H136220   4.823   5.801   8.346
 4887TIP3    H236221   4.708   5.890   8.302
 4888TIP3   OH236222   1.945   6.230   1.110
 4888TIP3    H136223   2.025   6.279   1.093
 4888TIP3    H236224   1.915   6.203   1.023
 4889TIP3   OH236225   4.143   5.219   8.110
 4889TIP3    H136226   4.188   5.162   8.173
 4889TIP3    H236227   4.099   5.159   8.050
 4890TIP3   OH236228   1.800   6.647   7.358
 4890TIP3    H136229   1.720   6.699   7.349
 4890TIP3    H236230   1.771   6.563   7.392
 4891TIP3   OH236231   4.130   1.870   7.193
 4891TIP3    H136232   4.070   1.822   7.250
 4891TIP3    H236233   4.087   1.954   7.177
 4892TIP3   OH236234   4.816   1.344   1.632
 4892TIP3    H136235   4.846   1.416   1.575
 4892TIP3    H236236   4.897   1.304   1.663
 4893TIP3   OH236237   5.895   6.419   1.716
 4893TIP3    H136238   5.935   6.342   1.757
 4893TIP3    H236239   5.931   6.493   1.763
 4894TIP3   OH236240   1.831   4.493   0.342
 4894TIP3    H136241   1.841   4.478   0.248
 4894TIP3    H236242   1.833   4.588   0.351
 4895TIP3   OH236243   6.183   2.819   6.443
 4895TIP3    H136244   6.171   2.781   6.530
 4895TIP3    H236245   6.255   2.880   6.454
 4896TIP3   OH236246   1.537   6.584   0.677
 4896TIP3    H136247   1.452   6.542   0.685
 4896TIP3    H236248   1.555   6.619   0.764
 4897TIP3   OH236249   4.843   6.267   1.011
 4897TIP3    H136250   4.784   6.198   0.979
 4897TIP3    H236251   4.784   6.340   1.032
 4898TIP3   OH236252   4.259   6.394   8.347
 4898TIP3    H136253   4.303   6.372   8.429
 4898TIP3    H236254   4.323   6.445   8.298
 4899TIP3   OH236255   2.231   0.065   8.584
 4899TIP3    H136256   2.199   0.154   8.601
 4899TIP3    H236257   2.308   0.057   8.640
 4900TIP3   OH236258   2.795   2.267   1.403
 4900TIP3    H136259   2.803   2.214   1.482
 4900TIP3    H236260   2.708   2.247   1.369
 4901TIP3   OH236261   2.277   2.982   7.663
 4901TIP3    H136262   2.265   3.075   7.681
 4901TIP3    H236263   2.189   2.945   7.670
 4902TIP3   OH236264   2.759   3.802   8.763
 4902TIP3    H136265   2.755   3.766   0.069
 4902TIP3    H236266   2.740   3.896   8.775
 4903TIP3   OH236267   3.102   5.404   7.517
 4903TIP3    H136268   3.186   5.361   7.502
 4903TIP3    H236269   3.122   5.497   7.512
 4904TIP3   OH236270   3.033   3.605   7.727
 4904TIP3    H136271   3.067   3.671   7.667
 4904TIP3    H236272   3.091   3.530   7.716
 4905TIP3   OH236273   4.540   2.515   7.026
 4905TIP3    H136274   4.502   2.429   7.045
 4905TIP3    H236275   4.466   2.567   6.995
 4906TIP3   OH236276   0.228   5.453   0.651
 4906TIP3    H136277   0.269   5.540   0.654
 4906TIP3    H236278   0.275   5.408   0.581
 4907TIP3   OH236279   3.892   6.664   1.122
 4907TIP3    H136280   3.838   6.704   1.054
 4907TIP3    H236281   3.838   6.666   1.201
 4908TIP3   OH236282   2.982   4.776   2.063
 4908TIP3    H136283   2.957   4.793   1.973
 4908TIP3    H236284   3.070   4.814   2.072
 4909TIP3   OH236285   1.346   3.344   7.537
 4909TIP3    H136286   1.275   3.279   7.540
 4909TIP3    H236287   1.426   3.292   7.539
 4910TIP3   OH236288   4.294   6.077   0.742
 4910TIP3    H136289   4.300   6.092   0.837
 4910TIP3    H236290   4.382   6.096   0.709
 4911TIP3   OH236291   0.172   2.626   1.978
 4911TIP3    H136292   0.146   2.677   2.055
 4911TIP3    H236293   0.267   2.638   1.972
 4912TIP3   OH236294   0.014   1.272   8.054
 4912TIP3    H136295   0.059   1.201   8.009
 4912TIP3    H236296   6.762   1.241   8.065
 4913TIP3   OH236297   0.721   0.378   8.044
 4913TIP3    H136298   0.749   0.359   8.133
 4913TIP3    H236299   0.803   0.389   7.996
 4914TIP3   OH236300   3.965   4.149   7.870
 4914TIP3    H136301   4.054   4.144   7.906
 4914TIP3    H236302   3.929   4.230   7.906
 4915TIP3   OH236303   0.941   0.331   6.885
 4915TIP3    H136304   0.920   0.379   6.965
 4915TIP3    H236305   0.872   0.265   6.878
 4916TIP3   OH236306   6.130   5.073   0.353
 4916TIP3    H136307   6.147   5.012   0.282
 4916TIP3    H236308   6.131   5.019   0.432
 4917TIP3   OH236309   6.652   3.859   1.498
 4917TIP3    H136310   6.647   3.908   1.416
 4917TIP3    H236311   6.731   3.893   1.541
 4918TIP3   OH236312   4.126   2.809   1.551
 4918TIP3    H136313   4.035   2.787   1.574
 4918TIP3    H236314   4.159   2.857   1.627
 4919TIP3   OH236315   5.837   3.527   8.211
 4919TIP3    H136316   5.798   3.562   8.291
 4919TIP3    H236317   5.763   3.495   8.160
 4920TIP3   OH236318   6.307   1.946   7.585
 4920TIP3    H136319   6.238   1.961   7.649
 4920TIP3    H236320   6.262   1.947   7.500
 4921TIP3   OH236321   2.787   1.960   0.586
 4921TIP3    H136322   2.870   1.950   0.540
 4921TIP3    H236323   2.726   1.991   0.519
 4922TIP3   OH236324   3.079   6.346   2.097
 4922TIP3    H136325   3.065   6.438   2.075
 4922TIP3    H236326   3.139   6.314   2.030
 4923TIP3   OH236327   5.319   0.249   7.384
 4923TIP3    H136328   5.231   0.222   7.356
 4923TIP3    H236329   5.377   0.185   7.343
 4924TIP3   OH236330   3.028   2.437   1.275
 4924TIP3    H136331   3.104   2.417   1.330
 4924TIP3    H236332   3.063   2.491   1.204
 4925TIP3   OH236333   1.277   3.531   0.085
 4925TIP3    H136334   1.214   3.472   0.127
 4925TIP3    H236335   1.234   3.617   0.087
 4926TIP3   OH236336   3.848   0.186   6.934
 4926TIP3    H136337   3.888   0.260   6.980
 4926TIP3    H236338   3.911   0.163   6.866
 4927TIP3   OH236339   0.048   4.691   7.965
 4927TIP3    H136340   6.805   4.738   7.947
 4927TIP3    H236341   0.035   4.605   7.925
 4928TIP3   OH236342   6.072   4.672   8.480
 4928TIP3    H136343   6.123   4.592   8.476
 4928TIP3    H236344   6.000   4.652   8.541
 4929TIP3   OH236345   3.553   5.304   2.128
 4929TIP3    H136346   3.597   5.388   2.144
 4929TIP3    H236347   3.540   5.268   2.216
 4930TIP3   OH236348   5.483   5.555   2.327
 4930TIP3    H136349   5.390   5.568   2.309
 4930TIP3    H236350   5.497   5.601   2.410
 4931TIP3   OH236351   2.268   6.583   8.740
 4931TIP3    H136352   2.195   6.524   8.724
 4931TIP3    H236353   2.228   6.667   8.760
 4932TIP3   OH236354   1.535   4.203   1.886
 4932TIP3    H136355   1.568   4.123   1.927
 4932TIP3    H236356   1.541   4.269   1.955
 4933TIP3   OH236357   1.831   0.931   1.229
 4933TIP3    H136358   1.759   0.954   1.171
 4933TIP3    H236359   1.861   0.845   1.197
 4934TIP3   OH236360   5.612   1.010   1.384
 4934TIP3    H136361   5.518   1.028   1.383
 4934TIP3    H236362   5.619   0.916   1.400
 4935TIP3   OH236363   5.968   5.573   2.389
 4935TIP3    H136364   6.034   5.555   2.322
 4935TIP3    H236365   5.985   5.508   2.458
 4936TIP3   OH236366   3.530   0.191   6.724
 4936TIP3    H136367   3.591   0.134   6.677
 4936TIP3    H236368   3.461   0.210   6.661
 4937TIP3   OH236369   6.563   0.315   8.453
 4937TIP3    H136370   6.576   0.372   8.377
 4937TIP3    H236371   6.517   0.239   8.419
 4938TIP3   OH236372   0.255   1.667   2.445
 4938TIP3    H136373   0.185   1.727   2.421
 4938TIP3    H236374   0.210   1.592   2.484
 4939TIP3   OH236375   3.505   5.243   7.563
 4939TIP3    H136376   3.579   5.187   7.586
 4939TIP3    H236377   3.432   5.208   7.614
 4940TIP3   OH236378   5.740   1.659   0.568
 4940TIP3    H136379   5.693   1.581   0.595
 4940TIP3    H236380   5.806   1.672   0.637
 4941TIP3   OH236381   0.552   0.795   7.565
 4941TIP3    H136382   0.548   0.867   7.627
 4941TIP3    H236383   0.559   0.716   7.619
 4942TIP3   OH236384   6.558   3.673   7.728
 4942TIP3    H136385   6.503   3.698   7.653
 4942TIP3    H236386   6.647   3.668   7.692
 4943TIP3   OH236387   0.902   1.004   7.247
 4943TIP3    H136388   0.836   1.016   7.315
 4943TIP3    H236389   0.890   0.913   7.218
 4944TIP3   OH236390   3.681   0.730   2.318
 4944TIP3    H136391   3.629   0.794   2.269
 4944TIP3    H236392   3.744   0.696   2.254
 4945TIP3   OH236393   1.166   2.653   7.528
 4945TIP3    H136394   1.166   2.735   7.480
 4945TIP3    H236395   1.125   2.674   7.612
 4946TIP3   OH236396   6.491   1.403   8.598
 4946TIP3    H136397   6.498   1.418   8.693
 4946TIP3    H236398   6.472   1.489   8.562
 4947TIP3   OH236399   1.673   2.858   8.545
 4947TIP3    H136400   1.618   2.860   8.623
 4947TIP3    H236401   1.624   2.910   8.481
 4948TIP3   OH236402   6.566   4.924   1.137
 4948TIP3    H136403   6.622   4.848   1.151
 4948TIP3    H236404   6.605   4.970   1.062
 4949TIP3   OH236405   6.735   3.875   2.305
 4949TIP3    H136406   6.658   3.909   2.353
 4949TIP3    H236407   6.723   3.780   2.304
 4950TIP3   OH236408   1.318   4.741   0.395
 4950TIP3    H136409   1.272   4.806   0.341
 4950TIP3    H236410   1.259   4.723   0.467
 4951TIP3   OH236411   5.964   0.285   8.432
 4951TIP3    H136412   5.872   0.295   8.406
 4951TIP3    H236413   5.983   0.363   8.484
 4952TIP3   OH236414   0.427   1.407   0.816
 4952TIP3    H136415   0.458   1.408   0.725
 4952TIP3    H236416   0.336   1.436   0.811
 4953TIP3   OH236417   5.419   6.529   1.505
 4953TIP3    H136418   5.397   6.566   1.591
 4953TIP3    H236419   5.484   6.461   1.524
 4954TIP3   OH236420   2.407   6.700   1.356
 4954TIP3    H136421   2.326   6.748   1.371
 4954TIP3    H236422   2.438   6.732   1.271
 4955TIP3   OH236423   2.751   4.986   1.959
 4955TIP3    H136424   2.805   4.915   1.925
 4955TIP3    H236425   2.663   4.947   1.967
 4956TIP3   OH236426   5.097   0.517   0.513
 4956TIP3    H136427   5.185   0.483   0.494
 4956TIP3    H236428   5.047   0.441   0.543
 4957TIP3   OH236429   0.382   4.987   7.331
 4957TIP3    H136430   0.302   4.971   7.281
 4957TIP3    H236431   0.386   4.915   7.394
 4958TIP3   OH236432   4.334   1.411   0.197
 4958TIP3    H136433   4.302   1.430   0.285
 4958TIP3    H236434   4.255   1.393   0.146
 4959TIP3   OH236435   3.147   6.413   1.814
 4959TIP3    H136436   3.111   6.487   1.765
 4959TIP3    H236437   3.134   6.338   1.757
 4960TIP3   OH236438   4.522   4.734   7.121
 4960TIP3    H136439   4.506   4.644   7.149
 4960TIP3    H236440   4.557   4.726   7.032
 4961TIP3   OH236441   6.392   6.407   0.521
 4961TIP3    H136442   6.476   6.435   0.485
 4961TIP3    H236443   6.347   6.367   0.447
 4962TIP3   OH236444   6.046   5.472   1.671
 4962TIP3    H136445   6.095   5.530   1.730
 4962TIP3    H236446   6.047   5.517   1.587
 4963TIP3   OH236447   2.245   3.838   6.469
 4963TIP3    H136448   2.264   3.750   6.437
 4963TIP3    H236449   2.321   3.861   6.522
 4964TIP3   OH236450   4.381   1.953   2.022
 4964TIP3    H136451   4.445   2.017   2.054
 4964TIP3    H236452   4.297   1.998   2.031
 4965TIP3   OH236453   3.230   1.683   0.361
 4965TIP3    H136454   3.213   1.751   0.295
 4965TIP3    H236455   3.146   1.639   0.373
 4966TIP3   OH236456   1.312   4.154   0.331
 4966TIP3    H136457   1.225   4.193   0.320
 4966TIP3    H236458   1.370   4.228   0.350
 4967TIP3   OH236459   1.647   6.476   1.772
 4967TIP3    H136460   1.698   6.424   1.834
 4967TIP3    H236461   1.639   6.420   1.695
 4968TIP3   OH236462   6.510   2.131   7.899
 4968TIP3    H136463   6.465   2.166   7.823
 4968TIP3    H236464   6.443   2.082   7.948
 4969TIP3   OH236465   5.678   2.781   0.918
 4969TIP3    H136466   5.596   2.819   0.886
 4969TIP3    H236467   5.719   2.851   0.969
 4970TIP3   OH236468   1.390   6.363   8.659
 4970TIP3    H136469   1.399   6.274   8.691
 4970TIP3    H236470   1.305   6.392   8.693
 4971TIP3   OH236471   0.218   3.931   6.416
 4971TIP3    H136472   0.196   3.841   6.395
 4971TIP3    H236473   0.300   3.947   6.368
 4972TIP3   OH236474   2.837   0.206   7.590
 4972TIP3    H136475   2.801   0.170   7.509
 4972TIP3    H236476   2.929   0.183   7.588
 4973TIP3   OH236477   6.621   3.076   0.977
 4973TIP3    H136478   6.600   2.992   0.938
 4973TIP3    H236479   6.561   3.138   0.935
 4974TIP3   OH236480   4.189   4.480   8.412
 4974TIP3    H136481   4.134   4.485   8.490
 4974TIP3    H236482   4.276   4.506   8.442
 4975TIP3   OH236483   4.334   3.949   6.505
 4975TIP3    H136484   4.409   3.911   6.460
 4975TIP3    H236485   4.289   4.000   6.438
 4976TIP3   OH236486   3.811   0.888   1.515
 4976TIP3    H136487   3.785   0.898   1.607
 4976TIP3    H236488   3.732   0.859   1.471
 4977TIP3   OH236489   5.877   4.507   7.821
 4977TIP3    H136490   5.838   4.586   7.784
 4977TIP3    H236491   5.910   4.458   7.746
 4978TIP3   OH236492   5.156   4.135   7.288
 4978TIP3    H136493   5.246   4.127   7.255
 4978TIP3    H236494   5.130   4.046   7.309
 4979TIP3   OH236495   4.240   0.303   2.406
 4979TIP3    H136496   4.322   0.352   2.397
 4979TIP3    H236497   4.260   0.232   2.466
 4980TIP3   OH236498   6.648   3.981   8.197
 4980TIP3    H136499   6.557   3.998   8.221
 4980TIP3    H236500   6.686   3.940   8.274
 4981TIP3   OH236501   1.109   4.486   7.934
 4981TIP3    H136502   1.116   4.503   8.028
 4981TIP3    H236503   1.191   4.521   7.898
 4982TIP3   OH236504   4.225   6.220   1.595
 4982TIP3    H136505   4.144   6.205   1.546
 4982TIP3    H236506   4.262   6.132   1.606
 4983TIP3   OH236507   0.919   4.517   1.776
 4983TIP3    H136508   0.991   4.524   1.839
 4983TIP3    H236509   0.943   4.575   1.705
 4984TIP3   OH236510   3.074   1.306   0.057
 4984TIP3    H136511   3.078   1.272   8.750
 4984TIP3    H236512   2.999   1.366   0.056
 4985TIP3   OH236513   0.386   0.775   8.369
 4985TIP3    H136514   0.293   0.794   8.361
 4985TIP3    H236515   0.414   0.823   8.447
 4986TIP3   OH236516   2.215   0.899   1.735
 4986TIP3    H136517   2.229   0.960   1.808
 4986TIP3    H236518   2.131   0.858   1.753
 4987TIP3   OH236519   4.303   0.696   1.501
 4987TIP3    H136520   4.366   0.676   1.569
 4987TIP3    H236521   4.222   0.717   1.548
 4988TIP3   OH236522   0.131   5.137   7.062
 4988TIP3    H136523   0.167   5.194   6.994
 4988TIP3    H236524   0.170   5.170   7.143
 4989TIP3   OH236525   2.969   0.684   1.243
 4989TIP3    H136526   2.902   0.630   1.200
 4989TIP3    H236527   3.052   0.644   1.218
 4990TIP3   OH236528   5.095   3.698   8.715
 4990TIP3    H136529   5.159   3.634   8.745
 4990TIP3    H236530   5.147   3.771   8.682
 4991TIP3   OH236531   6.099   6.062   0.811
 4991TIP3    H136532   6.062   6.150   0.814
 4991TIP3    H236533   6.192   6.074   0.832
 4992TIP3   OH236534   5.634   0.710   1.138
 4992TIP3    H136535   5.655   0.638   1.079
 4992TIP3    H236536   5.557   0.680   1.186
 4993TIP3   OH236537   3.636   6.261   7.626
 4993TIP3    H136538   3.717   6.215   7.605
 4993TIP3    H236539   3.567   6.206   7.588
 4994TIP3   OH236540   0.205   2.215   0.256
 4994TIP3    H136541   0.170   2.296   0.294
 4994TIP3    H236542   0.130   2.172   0.216
 4995TIP3   OH236543   0.057   1.300   1.539
 4995TIP3    H136544   0.035   1.378   1.488
 4995TIP3    H236545   0.147   1.280   1.514
 4996TIP3   OH236546   3.535   0.886   7.510
 4996TIP3    H136547   3.480   0.868   7.587
 4996TIP3    H236548   3.605   0.941   7.543
 4997TIP3   OH236549   1.567   2.078   0.557
 4997TIP3    H136550   1.542   2.168   0.537
 4997TIP3    H236551   1.588   2.079   0.651
 4998TIP3   OH236552   0.690   1.375   0.928
 4998TIP3    H136553   0.604   1.370   0.887
 4998TIP3    H236554   0.751   1.391   0.856
 4999TIP3   OH236555   0.978   5.367   6.977
 4999TIP3    H136556   0.924   5.435   6.937
 4999TIP3    H236557   0.920   5.327   7.042
 5000TIP3   OH236558   4.315   2.691   0.193
 5000TIP3    H136559   4.314   2.783   0.218
 5000TIP3    H236560   4.225   2.662   0.206
 5001TIP3   OH236561   4.754   1.307   7.500
 5001TIP3    H136562   4.684   1.243   7.485
 5001TIP3    H236563   4.781   1.334   7.413
 5002TIP3   OH236564   2.743   0.543   8.466
 5002TIP3    H136565   2.779   0.456   8.482
 5002TIP3    H236566   2.651   0.536   8.495
 5003TIP3   OH236567   5.645   2.375   5.991
 5003TIP3    H136568   5.679   2.294   6.027
 5003TIP3    H236569   5.550   2.367   6.000
 5004TIP3   OH236570   6.480   3.050   7.314
 5004TIP3    H136571   6.567   3.088   7.308
 5004TIP3    H236572   6.458   3.055   7.407
 5005TIP3   OH236573   6.277   4.290   1.431
 5005TIP3    H136574   6.200   4.275   1.376
 5005TIP3    H236575   6.285   4.209   1.483
 5006TIP3   OH236576   6.640   3.680   1.045
 5006TIP3    H136577   6.666   3.618   1.114
 5006TIP3    H236578   6.552   3.651   1.020
 5007TIP3   OH236579   4.432   0.369   1.509
 5007TIP3    H136580   4.473   0.290   1.544
 5007TIP3    H236581   4.464   0.439   1.566
 5008TIP3   OH236582   5.200   5.689   8.114
 5008TIP3    H136583   5.161   5.746   8.180
 5008TIP3    H236584   5.129   5.631   8.087
 5009TIP3   OH236585   1.544   0.251   8.640
 5009TIP3    H136586   1.466   0.296   8.674
 5009TIP3    H236587   1.563   0.185   8.707
 5010TIP3   OH236588   2.787   3.730   0.939
 5010TIP3    H136589   2.701   3.725   0.981
 5010TIP3    H236590   2.818   3.640   0.937
 5011TIP3   OH236591   5.253   1.503   1.008
 5011TIP3    H136592   5.346   1.529   1.007
 5011TIP3    H236593   5.205   1.586   1.000
 5012TIP3   OH236594   3.286   4.882   1.184
 5012TIP3    H136595   3.304   4.930   1.103
 5012TIP3    H236596   3.356   4.816   1.189
 5013TIP3   OH236597   3.660   5.456   8.520
 5013TIP3    H136598   3.721   5.497   8.581
 5013TIP3    H236599   3.648   5.520   8.450
 5014TIP3   OH236600   3.694   1.575   0.265
 5014TIP3    H136601   3.648   1.580   0.181
 5014TIP3    H236602   3.779   1.538   0.244
 5015TIP3   OH236603   2.995   2.105   8.551
 5015TIP3    H136604   2.911   2.092   8.595
 5015TIP3    H236605   2.979   2.178   8.491
 5016TIP3   OH236606   0.853   5.901   0.157
 5016TIP3    H136607   0.814   5.989   0.159
 5016TIP3    H236608   0.861   5.881   0.064
 5017TIP3   OH236609   6.776   4.408   1.830
 5017TIP3    H136610   6.686   4.380   1.847
 5017TIP3    H236611   6.769   4.501   1.811
 5018TIP3   OH236612   1.262   4.720   1.262
 5018TIP3    H136613   1.254   4.694   1.170
 5018TIP3    H236614   1.224   4.807   1.266
 5019TIP3   OH236615   0.702   6.667   7.218
 5019TIP3    H136616   0.773   6.647   7.279
 5019TIP3    H236617   0.741   6.724   7.152
 5020TIP3   OH236618   6.172   0.725   7.072
 5020TIP3    H136619   6.219   0.663   7.016
 5020TIP3    H236620   6.185   0.810   7.030
 5021TIP3   OH236621   5.797   5.480   1.122
 5021TIP3    H136622   5.793   5.389   1.093
 5021TIP3    H236623   5.876   5.515   1.081
 5022TIP3   OH236624   4.036   5.193   6.464
 5022TIP3    H136625   4.003   5.214   6.552
 5022TIP3    H236626   3.958   5.193   6.408
 5023TIP3   OH236627   0.383   5.684   8.692
 5023TIP3    H136628   0.406   5.704   8.782
 5023TIP3    H236629   0.313   5.746   8.671
 5024TIP3   OH236630   4.508   3.374   0.763
 5024TIP3    H136631   4.584   3.320   0.743
 5024TIP3    H236632   4.451   3.366   0.686
 5025TIP3   OH236633   0.378   2.459   6.368
 5025TIP3    H136634   0.346   2.510   6.442
 5025TIP3    H236635   0.468   2.490   6.355
 5026TIP3   OH236636   0.570   0.107   2.288
 5026TIP3    H136637   0.659   0.131   2.313
 5026TIP3    H236638   0.534   0.065   2.367
 5027TIP3   OH236639   4.295   5.189   0.311
 5027TIP3    H136640   4.285   5.097   0.334
 5027TIP3    H236641   4.331   5.231   0.389
 5028TIP3   OH236642   1.136   0.185   0.815
 5028TIP3    H136643   1.098   0.168   0.729
 5028TIP3    H236644   1.221   0.224   0.797
 5029TIP3   OH236645   1.315   1.161   0.261
 5029TIP3    H136646   1.327   1.192   0.350
 5029TIP3    H236647   1.326   1.239   0.206
 5030TIP3   OH236648   0.444   3.951   0.721
 5030TIP3    H136649   0.442   4.035   0.768
 5030TIP3    H236650   0.448   3.976   0.629
 5031TIP3   OH236651   3.380   1.391   2.623
 5031TIP3    H136652   3.313   1.459   2.610
 5031TIP3    H236653   3.459   1.429   2.584
 5032TIP3   OH236654   2.325   5.135   7.865
 5032TIP3    H136655   2.326   5.230   7.881
 5032TIP3    H236656   2.378   5.098   7.935
 5033TIP3   OH236657   0.177   6.716   1.622
 5033TIP3    H136658   0.107   6.766   1.665
 5033TIP3    H236659   0.134   6.672   1.549
 5034TIP3   OH236660   5.060   4.006   6.793
 5034TIP3    H136661   5.007   3.949   6.737
 5034TIP3    H236662   5.033   4.095   6.767
 5035TIP3   OH236663   5.709   0.381   1.592
 5035TIP3    H136664   5.799   0.348   1.593
 5035TIP3    H236665   5.697   0.424   1.676
 5036TIP3   OH236666   1.561   4.363   2.115
 5036TIP3    H136667   1.654   4.346   2.106
 5036TIP3    H236668   1.554   4.459   2.119
 5037TIP3   OH236669   0.019   3.441   0.071
 5037TIP3    H136670   0.045   3.518   0.122
 5037TIP3    H236671   6.764   3.454   0.054
 5038TIP3   OH236672   4.809   4.823   0.484
 5038TIP3    H136673   4.796   4.751   0.423
 5038TIP3    H236674   4.725   4.833   0.528
 5039TIP3   OH236675   5.714   5.095   8.292
 5039TIP3    H136676   5.793   5.045   8.312
 5039TIP3    H236677   5.740   5.186   8.303
 5040TIP3   OH236678   1.930   6.509   7.146
 5040TIP3    H136679   1.895   6.534   7.060
 5040TIP3    H236680   1.886   6.569   7.207
 5041TIP3   OH236681   4.669   5.668   8.755
 5041TIP3    H136682   4.605   5.739   8.762
 5041TIP3    H236683   4.621   5.596   8.715
 5042TIP3   OH236684   3.628   2.402   6.839
 5042TIP3    H136685   3.585   2.349   6.906
 5042TIP3    H236686   3.606   2.359   6.757
 5043TIP3   OH236687   4.413   4.307   8.520
 5043TIP3    H136688   4.443   4.294   8.610
 5043TIP3    H236689   4.426   4.223   8.477
 5044TIP3   OH236690   3.103   0.173   7.584
 5044TIP3    H136691   3.168   0.239   7.609
 5044TIP3    H236692   3.128   0.147   7.496
 5045TIP3   OH236693   0.370   3.065   6.729
 5045TIP3    H136694   0.357   3.058   6.823
 5045TIP3    H236695   0.464   3.049   6.717
 5046TIP3   OH236696   1.508   5.169   1.381
 5046TIP3    H136697   1.444   5.175   1.310
 5046TIP3    H236698   1.570   5.240   1.363
 5047TIP3   OH236699   1.841   5.591   8.061
 5047TIP3    H136700   1.816   5.519   8.119
 5047TIP3    H236701   1.864   5.663   8.120
 5048TIP3   OH236702   4.602   2.603   8.481
 5048TIP3    H136703   4.632   2.614   8.572
 5048TIP3    H236704   4.565   2.687   8.457
 5049TIP3   OH236705   1.237   6.800   7.601
 5049TIP3    H136706   1.319   6.800   7.650
 5049TIP3    H236707   1.180   6.739   7.650
 5050TIP3   OH236708   3.183   1.404   6.806
 5050TIP3    H136709   3.184   1.358   6.721
 5050TIP3    H236710   3.226   1.488   6.788
 5051TIP3   OH236711   2.643   1.811   6.285
 5051TIP3    H136712   2.623   1.728   6.328
 5051TIP3    H236713   2.606   1.878   6.344
 5052TIP3   OH236714   1.898   6.668   7.831
 5052TIP3    H136715   1.950   6.703   7.903
 5052TIP3    H236716   1.904   6.733   7.762
 5053TIP3   OH236717   1.910   6.188   7.489
 5053TIP3    H136718   1.957   6.126   7.433
 5053TIP3    H236719   1.921   6.154   7.578
 5054TIP3   OH236720   2.732   2.023   0.871
 5054TIP3    H136721   2.713   1.961   0.801
 5054TIP3    H236722   2.807   2.073   0.839
 5055TIP3   OH236723   1.784   5.119   8.507
 5055TIP3    H136724   1.775   5.200   8.557
 5055TIP3    H236725   1.719   5.060   8.544
 5056TIP3   OH236726   0.074   6.167   2.250
 5056TIP3    H136727   0.044   6.239   2.306
 5056TIP3    H236728   0.152   6.202   2.207
 5057TIP3   OH236729   2.811   4.522   0.172
 5057TIP3    H136730   2.857   4.586   0.117
 5057TIP3    H236731   2.779   4.573   0.246
 5058TIP3   OH236732   5.133   6.335   0.951
 5058TIP3    H136733   5.133   6.380   1.036
 5058TIP3    H236734   5.040   6.322   0.930
 5059TIP3   OH236735   0.442   3.685   1.624
 5059TIP3    H136736   0.527   3.727   1.616
 5059TIP3    H236737   0.419   3.696   1.717
 5060TIP3   OH236738   1.519   0.719   0.489
 5060TIP3    H136739   1.606   0.723   0.450
 5060TIP3    H236740   1.461   0.759   0.423
 5061TIP3   OH236741   6.694   3.272   6.873
 5061TIP3    H136742   6.732   3.269   6.785
 5061TIP3    H236743   6.706   3.183   6.907
 5062TIP3   OH236744   5.208   2.951   7.270
 5062TIP3    H136745   5.135   2.894   7.294
 5062TIP3    H236746   5.228   2.927   7.179
 5063TIP3   OH236747   2.785   1.806   7.679
 5063TIP3    H136748   2.713   1.745   7.690
 5063TIP3    H236749   2.780   1.834   7.587
 5064TIP3   OH236750   6.432   4.780   7.996
 5064TIP3    H136751   6.354   4.726   7.984
 5064TIP3    H236752   6.501   4.718   8.017
 5065TIP3   OH236753   6.528   3.757   6.441
 5065TIP3    H136754   6.456   3.701   6.471
 5065TIP3    H236755   6.511   3.841   6.484
 5066TIP3   OH236756   5.163   4.154   8.676
 5066TIP3    H136757   5.152   4.156   8.771
 5066TIP3    H236758   5.250   4.191   8.661
 5067TIP3   OH236759   5.096   3.457   6.457
 5067TIP3    H136760   5.157   3.410   6.400
 5067TIP3    H236761   5.147   3.528   6.494
 5068TIP3   OH236762   3.637   5.235   2.377
 5068TIP3    H136763   3.676   5.150   2.397
 5068TIP3    H236764   3.633   5.281   2.460
 5069TIP3   OH236765   5.153   1.309   8.676
 5069TIP3    H136766   5.073   1.356   8.652
 5069TIP3    H236767   5.123   1.234   8.728
 5070TIP3   OH236768   5.004   3.725   0.705
 5070TIP3    H136769   5.075   3.661   0.709
 5070TIP3    H236770   4.957   3.703   0.624
 5071TIP3   OH236771   5.138   5.901   6.508
 5071TIP3    H136772   5.170   5.907   6.598
 5071TIP3    H236773   5.079   5.825   6.509
 5072TIP3   OH236774   5.219   0.082   0.087
 5072TIP3    H136775   5.186   6.834   0.063
 5072TIP3    H236776   5.146   0.141   0.071
 5073TIP3   OH236777   2.023   1.235   0.826
 5073TIP3    H136778   1.930   1.230   0.851
 5073TIP3    H236779   2.070   1.239   0.908
 5074TIP3   OH236780   0.480   1.892   1.216
 5074TIP3    H136781   0.464   1.806   1.177
 5074TIP3    H236782   0.511   1.946   1.143
 5075TIP3   OH236783   6.802   5.293   8.664
 5075TIP3    H136784   0.010   5.232   8.607
 5075TIP3    H236785   0.017   5.297   8.743
 5076TIP3   OH236786   1.488   0.029   1.625
 5076TIP3    H136787   1.427   0.054   1.695
 5076TIP3    H236788   1.438   0.045   1.544
 5077TIP3   OH236789   3.388   1.332   7.333
 5077TIP3    H136790   3.424   1.260   7.282
 5077TIP3    H236791   3.464   1.380   7.365
 5078TIP3   OH236792   6.673   6.070   1.026
 5078TIP3    H136793   6.659   6.010   1.099
 5078TIP3    H236794   6.616   6.145   1.045
 5079TIP3   OH236795   0.128   1.318   0.556
 5079TIP3    H136796   0.198   1.266   0.596
 5079TIP3    H236797   0.064   1.253   0.526
 5080TIP3   OH236798   4.703   4.344   6.761
 5080TIP3    H136799   4.627   4.388   6.723
 5080TIP3    H236800   4.775   4.362   6.701
 5081TIP3   OH236801   4.377   6.668   6.847
 5081TIP3    H136802   4.302   6.685   6.790
 5081TIP3    H236803   4.390   6.574   6.842
 5082TIP3   OH236804   4.930   1.858   6.465
 5082TIP3    H136805   4.836   1.841   6.468
 5082TIP3    H236806   4.969   1.785   6.512
 5083TIP3   OH236807   3.739   5.562   0.116
 5083TIP3    H136808   3.717   5.472   0.089
 5083TIP3    H236809   3.777   5.552   0.203
 5084TIP3   OH236810   2.644   0.593   1.381
 5084TIP3    H136811   2.625   0.523   1.317
 5084TIP3    H236812   2.630   0.674   1.332
 5085TIP3   OH236813   0.682   5.679   8.763
 5085TIP3    H136814   0.612   5.683   0.046
 5085TIP3    H236815   0.712   5.770   8.755
 5086TIP3   OH236816   3.207   6.125   8.484
 5086TIP3    H136817   3.124   6.113   8.438
 5086TIP3    H236818   3.225   6.219   8.476
 5087TIP3   OH236819   4.957   3.475   8.087
 5087TIP3    H136820   4.926   3.418   8.158
 5087TIP3    H236821   4.884   3.477   8.025
 5088TIP3   OH236822   6.008   3.043   0.396
 5088TIP3    H136823   5.971   2.962   0.361
 5088TIP3    H236824   5.949   3.070   0.466
 5089TIP3   OH236825   6.555   3.175   8.586
 5089TIP3    H136826   6.606   3.120   8.645
 5089TIP3    H236827   6.556   3.129   8.502
 5090TIP3   OH236828   4.509   0.690   6.714
 5090TIP3    H136829   4.419   0.708   6.743
 5090TIP3    H236830   4.564   0.742   6.774
 5091TIP3   OH236831   1.074   3.454   2.469
 5091TIP3    H136832   1.049   3.490   2.384
 5091TIP3    H236833   1.143   3.512   2.501
 5092TIP3   OH236834   2.555   4.718   8.087
 5092TIP3    H136835   2.557   4.622   8.095
 5092TIP3    H236836   2.647   4.743   8.079
 5093TIP3   OH236837   4.322   4.248   7.528
 5093TIP3    H136838   4.307   4.245   7.622
 5093TIP3    H236839   4.361   4.163   7.507
 5094TIP3   OH236840   6.312   3.539   7.513
 5094TIP3    H136841   6.332   3.610   7.452
 5094TIP3    H236842   6.394   3.489   7.519
 5095TIP3   OH236843   1.810   0.122   1.325
 5095TIP3    H136844   1.810   0.105   1.230
 5095TIP3    H236845   1.719   0.107   1.351
 5096TIP3   OH236846   2.435   2.777   7.824
 5096TIP3    H136847   2.392   2.861   7.811
 5096TIP3    H236848   2.526   2.800   7.845
 5097TIP3   OH236849   6.119   2.122   0.925
 5097TIP3    H136850   6.063   2.100   0.851
 5097TIP3    H236851   6.065   2.107   1.002
 5098TIP3   OH236852   3.506   3.040   8.665
 5098TIP3    H136853   3.552   3.076   8.741
 5098TIP3    H236854   3.562   3.063   8.591
 5099TIP3   OH236855   0.123   3.902   6.940
 5099TIP3    H136856   0.194   3.873   6.884
 5099TIP3    H236857   0.163   3.967   6.998
 5100TIP3   OH236858   6.286   1.413   7.139
 5100TIP3    H136859   6.338   1.414   7.059
 5100TIP3    H236860   6.239   1.496   7.138
 5101TIP3   OH236861   3.527   6.562   2.488
 5101TIP3    H136862   3.553   6.649   2.519
 5101TIP3    H236863   3.449   6.578   2.435
 5102TIP3   OH236864   4.478   2.751   2.259
 5102TIP3    H136865   4.435   2.832   2.289
 5102TIP3    H236866   4.411   2.706   2.207
 5103TIP3   OH236867   5.904   5.814   2.067
 5103TIP3    H136868   5.907   5.737   2.124
 5103TIP3    H236869   5.906   5.888   2.127
 5104TIP3   OH236870   2.649   3.607   7.360
 5104TIP3    H136871   2.567   3.602   7.311
 5104TIP3    H236872   2.670   3.700   7.363
 5105TIP3   OH236873   1.242   0.651   0.871
 5105TIP3    H136874   1.232   0.744   0.892
 5105TIP3    H236875   1.163   0.610   0.905
 5106TIP3   OH236876   0.249   6.664   0.420
 5106TIP3    H136877   0.171   6.621   0.454
 5106TIP3    H236878   0.321   6.624   0.468
 5107TIP3   OH236879   5.491   3.515   0.912
 5107TIP3    H136880   5.536   3.444   0.866
 5107TIP3    H236881   5.445   3.472   0.984
 5108TIP3   OH236882   0.547   0.209   6.583
 5108TIP3    H136883   0.512   0.122   6.604
 5108TIP3    H236884   0.545   0.213   6.487
 5109TIP3   OH236885   6.518   6.126   8.613
 5109TIP3    H136886   6.601   6.172   8.623
 5109TIP3    H236887   6.452   6.192   8.633
 5110TIP3   OH236888   0.661   3.107   7.334
 5110TIP3    H136889   0.734   3.093   7.274
 5110TIP3    H236890   0.601   3.035   7.317
 5111TIP3   OH236891   2.505   3.132   1.890
 5111TIP3    H136892   2.575   3.067   1.897
 5111TIP3    H236893   2.433   3.096   1.942
 5112TIP3   OH236894   0.146   2.525   0.848
 5112TIP3    H136895   0.097   2.598   0.887
 5112TIP3    H236896   0.103   2.447   0.882
 5113TIP3   OH236897   1.175   5.536   1.414
 5113TIP3    H136898   1.238   5.595   1.455
 5113TIP3    H236899   1.147   5.583   1.335
 5114TIP3   OH236900   1.826   3.663   8.344
 5114TIP3    H136901   1.782   3.628   8.267
 5114TIP3    H236902   1.756   3.684   8.405
 5115TIP3   OH236903   4.670   6.050   0.106
 5115TIP3    H136904   4.701   6.028   0.019
 5115TIP3    H236905   4.719   5.994   0.165
 5116TIP3   OH236906   4.294   5.096   6.994
 5116TIP3    H136907   4.380   5.114   7.033
 5116TIP3    H236908   4.269   5.179   6.954
 5117TIP3   OH236909   5.907   5.966   1.310
 5117TIP3    H136910   5.897   5.875   1.340
 5117TIP3    H236911   5.903   6.018   1.390
 5118TIP3   OH236912   6.041   6.202   6.610
 5118TIP3    H136913   6.032   6.112   6.643
 5118TIP3    H236914   6.076   6.251   6.685
 5119TIP3   OH236915   2.836   1.909   1.135
 5119TIP3    H136916   2.828   2.004   1.129
 5119TIP3    H236917   2.837   1.891   1.229
 5120TIP3   OH236918   4.216   6.417   7.847
 5120TIP3    H136919   4.205   6.355   7.775
 5120TIP3    H236920   4.127   6.446   7.868
 5121TIP3   OH236921   6.110   4.645   1.026
 5121TIP3    H136922   6.092   4.583   1.096
 5121TIP3    H236923   6.133   4.591   0.951
 5122TIP3   OH236924   2.768   1.655   1.443
 5122TIP3    H136925   2.811   1.740   1.451
 5122TIP3    H236926   2.838   1.595   1.416
 5123TIP3   OH236927   4.451   3.512   8.463
 5123TIP3    H136928   4.370   3.497   8.415
 5123TIP3    H236929   4.463   3.432   8.515
 5124TIP3   OH236930   6.795   2.118   7.898
 5124TIP3    H136931   6.700   2.120   7.886
 5124TIP3    H236932   6.813   2.033   7.937
 5125TIP3   OH236933   4.910   6.403   2.102
 5125TIP3    H136934   4.861   6.376   2.179
 5125TIP3    H236935   4.853   6.380   2.028
 5126TIP3   OH236936   4.918   6.129   8.380
 5126TIP3    H136937   4.951   6.161   8.297
 5126TIP3    H236938   4.904   6.035   8.366
 5127TIP3   OH236939   2.280   2.390   0.571
 5127TIP3    H136940   2.263   2.475   0.532
 5127TIP3    H236941   2.362   2.401   0.619
 5128TIP3   OH236942   4.430   4.386   0.217
 5128TIP3    H136943   4.464   4.460   0.167
 5128TIP3    H236944   4.459   4.309   0.169
 5129TIP3   OH236945   4.753   5.652   1.342
 5129TIP3    H136946   4.758   5.571   1.393
 5129TIP3    H236947   4.778   5.721   1.404
 5130TIP3   OH236948   2.815   4.064   8.694
 5130TIP3    H136949   2.797   4.141   8.748
 5130TIP3    H236950   2.739   4.058   8.636
 5131TIP3   OH236951   4.300   5.784   7.280
 5131TIP3    H136952   4.337   5.850   7.222
 5131TIP3    H236953   4.234   5.739   7.226
 5132TIP3   OH236954   1.190   4.572   1.034
 5132TIP3    H136955   1.274   4.601   0.999
 5132TIP3    H236956   1.205   4.480   1.058
 5133TIP3   OH236957   1.331   3.957   7.017
 5133TIP3    H136958   1.318   4.047   7.046
 5133TIP3    H236959   1.351   3.964   6.923
 5134TIP3   OH236960   3.731   1.832   1.677
 5134TIP3    H136961   3.709   1.813   1.586
 5134TIP3    H236962   3.811   1.884   1.672
 5135TIP3   OH236963   6.275   4.909   6.826
 5135TIP3    H136964   6.334   4.835   6.832
 5135TIP3    H236965   6.218   4.889   6.752
 5136TIP3   OH236966   5.364   3.661   6.671
 5136TIP3    H136967   5.416   3.615   6.605
 5136TIP3    H236968   5.356   3.750   6.636
 5137TIP3   OH236969   2.922   2.322   2.127
 5137TIP3    H136970   2.880   2.240   2.156
 5137TIP3    H236971   2.914   2.380   2.202
 5138TIP3   OH236972   2.371   1.851   1.133
 5138TIP3    H136973   2.418   1.919   1.182
 5138TIP3    H236974   2.351   1.784   1.198
 5139TIP3   OH236975   3.474   5.375   1.192
 5139TIP3    H136976   3.498   5.287   1.161
 5139TIP3    H236977   3.552   5.405   1.239
 5140TIP3   OH236978   2.093   5.554   0.460
 5140TIP3    H136979   2.183   5.584   0.473
 5140TIP3    H236980   2.101   5.459   0.451
 5141TIP3   OH236981   2.611   5.285   1.511
 5141TIP3    H136982   2.634   5.218   1.575
 5141TIP3    H236983   2.542   5.246   1.458
 5142TIP3   OH236984   4.294   1.325   8.134
 5142TIP3    H136985   4.265   1.265   8.066
 5142TIP3    H236986   4.389   1.315   8.135
 5143TIP3   OH236987   5.966   2.893   8.454
 5143TIP3    H136988   6.032   2.825   8.442
 5143TIP3    H236989   5.955   2.931   8.367
 5144TIP3   OH236990   5.362   1.909   0.542
 5144TIP3    H136991   5.386   1.919   0.634
 5144TIP3    H236992   5.281   1.858   0.543
 5145TIP3   OH236993   2.848   2.998   1.511
 5145TIP3    H136994   2.877   3.072   1.565
 5145TIP3    H236995   2.754   2.991   1.529
 5146TIP3   OH236996   1.118   3.474   7.740
 5146TIP3    H136997   1.118   3.451   7.647
 5146TIP3    H236998   1.070   3.402   7.782
 5147TIP3   OH236999   4.592   0.176   0.180
 5147TIP3    H137000   4.680   0.210   0.196
 5147TIP3    H237001   4.535   0.234   0.231
 5148TIP3   OH237002   1.857   1.808   0.422
 5148TIP3    H137003   1.947   1.799   0.393
 5148TIP3    H237004   1.816   1.865   0.356
 5149TIP3   OH237005   2.967   4.491   1.101
 5149TIP3    H137006   3.018   4.568   1.077
 5149TIP3    H237007   2.991   4.474   1.192
 5150TIP3   OH237008   0.448   6.629   7.520
 5150TIP3    H137009   0.462   6.698   7.585
 5150TIP3    H237010   0.365   6.589   7.544
 5151TIP3   OH237011   5.055   4.996   7.107
 5151TIP3    H137012   4.977   4.966   7.060
 5151TIP3    H237013   5.082   4.921   7.159
 5152TIP3   OH237014   6.693   5.469   7.177
 5152TIP3    H137015   6.648   5.533   7.121
 5152TIP3    H237016   6.660   5.486   7.265
 5153TIP3   OH237017   1.933   0.261   3.029
 5153TIP3    H137018   2.024   0.234   3.025
 5153TIP3    H237019   1.902   0.258   2.938
 5154TIP3   OH237020   0.149   2.287   1.074
 5154TIP3    H137021   0.116   2.232   1.145
 5154TIP3    H237022   0.209   2.229   1.026
 5155TIP3   OH237023   1.564   0.453   8.437
 5155TIP3    H137024   1.647   0.476   8.479
 5155TIP3    H237025   1.522   0.393   8.498
 5156TIP3   OH237026   2.183   0.553   0.122
 5156TIP3    H137027   2.146   0.544   0.210
 5156TIP3    H237028   2.220   0.641   0.120
 5157TIP3   OH237029   2.546   4.126   7.693
 5157TIP3    H137030   2.510   4.210   7.668
 5157TIP3    H237031   2.611   4.147   7.760
 5158TIP3   OH237032   1.070   1.494   8.557
 5158TIP3    H137033   1.042   1.562   8.495
 5158TIP3    H237034   1.152   1.461   8.520
 5159TIP3   OH237035   0.577   1.275   1.367
 5159TIP3    H137036   0.510   1.209   1.348
 5159TIP3    H237037   0.641   1.228   1.421
 5160TIP3   OH237038   4.082   4.051   1.202
 5160TIP3    H137039   4.070   3.967   1.245
 5160TIP3    H237040   4.105   4.030   1.112
 5161TIP3   OH237041   1.411   3.962   0.146
 5161TIP3    H137042   1.330   3.921   0.115
 5161TIP3    H237043   1.384   4.049   0.175
 5162TIP3   OH237044   5.772   6.043   6.015
 5162TIP3    H137045   5.798   5.951   6.013
 5162TIP3    H237046   5.847   6.090   5.981
 5163TIP3   OH237047   0.222   3.337   7.284
 5163TIP3    H137048   0.298   3.354   7.228
 5163TIP3    H237049   0.148   3.373   7.234
 5164TIP3   OH237050   2.837   0.753   1.878
 5164TIP3    H137051   2.751   0.712   1.875
 5164TIP3    H237052   2.821   0.840   1.916
 5165TIP3   OH237053   0.836   2.200   6.389
 5165TIP3    H137054   0.768   2.148   6.346
 5165TIP3    H237055   0.905   2.208   6.322
 5166TIP3   OH237056   5.352   6.153   6.391
 5166TIP3    H137057   5.410   6.106   6.331
 5166TIP3    H237058   5.281   6.091   6.409
 5167TIP3   OH237059   1.200   0.823   7.901
 5167TIP3    H137060   1.278   0.869   7.934
 5167TIP3    H237061   1.205   0.833   7.806
 5168TIP3   OH237062   3.933   1.313   1.459
 5168TIP3    H137063   3.910   1.275   1.544
 5168TIP3    H237064   3.976   1.396   1.481
 5169TIP3   OH237065   6.807   3.218   6.566
 5169TIP3    H137066   6.720   3.193   6.534
 5169TIP3    H237067   0.006   3.270   6.495
 5170TIP3   OH237068   2.689   4.618   1.006
 5170TIP3    H137069   2.636   4.603   1.084
 5170TIP3    H237070   2.763   4.558   1.015
 5171TIP3   OH237071   6.322   6.405   0.166
 5171TIP3    H137072   6.340   6.497   0.186
 5171TIP3    H237073   6.252   6.380   0.227
 5172TIP3   OH237074   6.276   5.594   2.329
 5172TIP3    H137075   6.224   5.527   2.284
 5172TIP3    H237076   6.366   5.562   2.322
 5173TIP3   OH237077   1.323   6.532   0.190
 5173TIP3    H137078   1.418   6.541   0.187
 5173TIP3    H237079   1.308   6.439   0.203
 5174TIP3   OH237080   5.931   6.363   7.055
 5174TIP3    H137081   6.010   6.415   7.070
 5174TIP3    H237082   5.902   6.388   6.967
 5175TIP3   OH237083   2.274   5.444   0.220
 5175TIP3    H137084   2.361   5.413   0.243
 5175TIP3    H237085   2.222   5.433   0.300
 5176TIP3   OH237086   6.277   0.364   0.769
 5176TIP3    H137087   6.182   0.372   0.764
 5176TIP3    H237088   6.292   0.295   0.833
 5177TIP3   OH237089   2.381   1.964   2.198
 5177TIP3    H137090   2.341   1.985   2.283
 5177TIP3    H237091   2.475   1.960   2.216
 5178TIP3   OH237092   5.544   2.160   0.208
 5178TIP3    H137093   5.562   2.208   0.127
 5178TIP3    H237094   5.591   2.077   0.196
 5179TIP3   OH237095   3.160   4.224   0.938
 5179TIP3    H137096   3.080   4.204   0.987
 5179TIP3    H237097   3.176   4.145   0.886
 5180TIP3   OH237098   2.344   2.707   8.509
 5180TIP3    H137099   2.250   2.716   8.524
 5180TIP3    H237100   2.379   2.795   8.521
 5181TIP3   OH237101   4.912   1.503   0.833
 5181TIP3    H137102   4.894   1.445   0.907
 5181TIP3    H237103   4.926   1.444   0.759
 5182TIP3   OH237104   6.368   2.302   8.465
 5182TIP3    H137105   6.361   2.351   8.547
 5182TIP3    H237106   6.338   2.214   8.486
 5183TIP3   OH237107   1.522   2.939   7.681
 5183TIP3    H137108   1.578   2.876   7.637
 5183TIP3    H237109   1.436   2.898   7.684
 5184TIP3   OH237110   0.738   3.327   8.295
 5184TIP3    H137111   0.702   3.376   8.368
 5184TIP3    H237112   0.687   3.357   8.219
 5185TIP3   OH237113   1.330   5.436   8.730
 5185TIP3    H137114   1.311   5.386   8.651
 5185TIP3    H237115   1.249   5.433   8.780
 5186TIP3   OH237116   3.391   6.309   7.256
 5186TIP3    H137117   3.430   6.385   7.300
 5186TIP3    H237118   3.325   6.345   7.198
 5187TIP3   OH237119   5.982   3.589   7.592
 5187TIP3    H137120   6.015   3.661   7.539
 5187TIP3    H237121   6.060   3.554   7.636
 5188TIP3   OH237122   4.231   0.353   8.531
 5188TIP3    H137123   4.197   0.367   8.620
 5188TIP3    H237124   4.188   0.420   8.479
 5189TIP3   OH237125   5.654   2.096   7.275
 5189TIP3    H137126   5.675   2.188   7.260
 5189TIP3    H237127   5.644   2.089   7.370
 5190TIP3   OH237128   2.187   6.047   0.713
 5190TIP3    H137129   2.143   5.990   0.650
 5190TIP3    H237130   2.157   6.018   0.798
 5191TIP3   OH237131   2.187   0.735   7.145
 5191TIP3    H137132   2.247   0.662   7.135
 5191TIP3    H237133   2.242   0.809   7.172
 5192TIP3   OH237134   2.482   0.045   7.621
 5192TIP3    H137135   2.550   6.827   7.585
 5192TIP3    H237136   2.517   0.076   7.704
 5193TIP3   OH237137   3.859   3.059   0.559
 5193TIP3    H137138   3.794   3.097   0.500
 5193TIP3    H237139   3.853   2.964   0.544
 5194TIP3   OH237140   3.113   6.100   2.239
 5194TIP3    H137141   3.106   6.182   2.189
 5194TIP3    H237142   3.138   6.034   2.174
 5195TIP3   OH237143   6.016   3.323   8.099
 5195TIP3    H137144   5.999   3.315   8.005
 5195TIP3    H237145   5.948   3.382   8.131
 5196TIP3   OH237146   5.263   5.418   7.763
 5196TIP3    H137147   5.324   5.491   7.773
 5196TIP3    H237148   5.180   5.459   7.739
 5197TIP3   OH237149   5.601   6.772   1.356
 5197TIP3    H137150   5.596   6.836   1.286
 5197TIP3    H237151   5.532   6.797   1.417
 5198TIP3   OH237152   0.700   5.753   7.491
 5198TIP3    H137153   0.724   5.722   7.579
 5198TIP3    H237154   0.685   5.847   7.502
 5199TIP3   OH237155   4.890   0.688   0.770
 5199TIP3    H137156   4.876   0.707   0.863
 5199TIP3    H237157   4.983   0.665   0.764
 5200TIP3   OH237158   5.184   3.921   8.561
 5200TIP3    H137159   5.166   3.994   8.621
 5200TIP3    H237160   5.127   3.937   8.487
 5201TIP3   OH237161   0.436   5.757   7.321
 5201TIP3    H137162   0.477   5.832   7.277
 5201TIP3    H237163   0.348   5.787   7.342
 5202TIP3   OH237164   4.984   2.643   0.895
 5202TIP3    H137165   4.955   2.554   0.877
 5202TIP3    H237166   4.996   2.683   0.809
 5203TIP3   OH237167   0.951   5.089   0.303
 5203TIP3    H137168   0.896   5.122   0.232
 5203TIP3    H237169   0.941   4.994   0.300
 5204TIP3   OH237170   4.718   3.359   7.622
 5204TIP3    H137171   4.790   3.406   7.663
 5204TIP3    H237172   4.723   3.271   7.658
 5205TIP3   OH237173   5.909   6.115   1.564
 5205TIP3    H137174   5.997   6.144   1.538
 5205TIP3    H237175   5.923   6.066   1.645
 5206TIP3   OH237176   2.446   4.150   1.238
 5206TIP3    H137177   2.426   4.235   1.198
 5206TIP3    H237178   2.524   4.166   1.290
 5207TIP3   OH237179   3.376   0.841   0.825
 5207TIP3    H137180   3.419   0.917   0.863
 5207TIP3    H237181   3.402   0.840   0.733
 5208TIP3   OH237182   6.039   3.304   7.250
 5208TIP3    H137183   6.052   3.307   7.345
 5208TIP3    H237184   5.965   3.245   7.238
 5209TIP3   OH237185   2.886   1.274   7.427
 5209TIP3    H137186   2.817   1.337   7.405
 5209TIP3    H237187   2.930   1.256   7.344
 5210TIP3   OH237188   3.907   4.758   8.573
 5210TIP3    H137189   3.813   4.752   8.552
 5210TIP3    H237190   3.929   4.673   8.610
 5211TIP3   OH237191   6.149   2.707   6.973
 5211TIP3    H137192   6.192   2.764   7.036
 5211TIP3    H237193   6.208   2.632   6.963
 5212TIP3   OH237194   5.390   4.275   8.722
 5212TIP3    H137195   5.400   4.245   0.030
 5212TIP3    H237196   5.476   4.310   8.699
 5213TIP3   OH237197   1.936   2.955   0.478
 5213TIP3    H137198   1.994   3.028   0.457
 5213TIP3    H237199   1.941   2.947   0.573
 5214TIP3   OH237200   1.178   4.206   1.482
 5214TIP3    H137201   1.115   4.210   1.410
 5214TIP3    H237202   1.231   4.128   1.464
 5215TIP3   OH237203   0.485   4.408   7.196
 5215TIP3    H137204   0.450   4.329   7.155
 5215TIP3    H237205   0.574   4.415   7.162
 5216TIP3   OH237206   3.302   5.540   8.045
 5216TIP3    H137207   3.336   5.491   8.119
 5216TIP3    H237208   3.235   5.598   8.083
 5217TIP3   OH237209   1.974   2.865   6.844
 5217TIP3    H137210   2.006   2.944   6.886
 5217TIP3    H237211   2.021   2.859   6.761
 5218TIP3   OH237212   1.476   6.449   1.100
 5218TIP3    H137213   1.470   6.453   1.195
 5218TIP3    H237214   1.448   6.360   1.078
 5219TIP3   OH237215   0.695   5.680   7.159
 5219TIP3    H137216   0.617   5.656   7.110
 5219TIP3    H237217   0.759   5.704   7.093
 5220TIP3   OH237218   3.649   0.371   1.363
 5220TIP3    H137219   3.732   0.330   1.337
 5220TIP3    H237220   3.655   0.460   1.328
 5221TIP3   OH237221   4.417   6.243   7.480
 5221TIP3    H137222   4.410   6.270   7.389
 5221TIP3    H237223   4.467   6.162   7.478
 5222TIP3   OH237224   4.497   3.690   0.438
 5222TIP3    H137225   4.415   3.703   0.390
 5222TIP3    H237226   4.517   3.776   0.476
 5223TIP3   OH237227   0.039   0.216   0.989
 5223TIP3    H137228   6.834   0.139   1.026
 5223TIP3    H237229   6.826   0.238   0.912
 5224TIP3   OH237230   3.471   4.442   8.351
 5224TIP3    H137231   3.407   4.505   8.318
 5224TIP3    H237232   3.422   4.386   8.410
 5225TIP3   OH237233   2.930   3.326   2.114
 5225TIP3    H137234   2.906   3.336   2.206
 5225TIP3    H237235   2.980   3.245   2.110
 5226TIP3   OH237236   5.165   0.845   0.995
 5226TIP3    H137237   5.225   0.903   1.041
 5226TIP3    H237238   5.106   0.813   1.063
 5227TIP3   OH237239   3.342   4.917   7.042
 5227TIP3    H137240   3.300   4.868   7.113
 5227TIP3    H237241   3.387   4.989   7.086
 5228TIP3   OH237242   4.749   0.626   7.064
 5228TIP3    H137243   4.725   0.689   6.997
 5228TIP3    H237244   4.748   0.541   7.019
 5229TIP3   OH237245   3.594   6.027   0.108
 5229TIP3    H137246   3.603   5.937   0.140
 5229TIP3    H237247   3.578   6.079   0.187
 5230TIP3   OH237248   0.127   1.030   1.174
 5230TIP3    H137249   0.065   1.025   1.246
 5230TIP3    H237250   0.149   0.939   1.154
 5231TIP3   OH237251   3.662   0.014   6.209
 5231TIP3    H137252   3.713   6.804   6.274
 5231TIP3    H237253   3.631   6.786   6.148
 5232TIP3   OH237254   1.678   5.367   6.895
 5232TIP3    H137255   1.759   5.395   6.852
 5232TIP3    H237256   1.608   5.410   6.846
 5233TIP3   OH237257   1.611   4.968   1.555
 5233TIP3    H137258   1.566   5.037   1.505
 5233TIP3    H237259   1.605   4.890   1.499
 5234TIP3   OH237260   4.863   1.903   1.289
 5234TIP3    H137261   4.776   1.941   1.278
 5234TIP3    H237262   4.858   1.818   1.244
 5235TIP3   OH237263   6.628   0.457   6.562
 5235TIP3    H137264   6.561   0.437   6.628
 5235TIP3    H237265   6.695   0.391   6.576
 5236TIP3   OH237266   5.941   0.053   1.088
 5236TIP3    H137267   5.965   0.053   0.995
 5236TIP3    H237268   5.846   0.042   1.088
 5237TIP3   OH237269   3.171   5.761   1.753
 5237TIP3    H137270   3.231   5.811   1.698
 5237TIP3    H237271   3.088   5.762   1.706
 5238TIP3   OH237272   4.015   2.683   0.128
 5238TIP3    H137273   4.036   2.775   0.147
 5238TIP3    H237274   4.034   2.674   0.034
 5239TIP3   OH237275   1.190   5.362   2.559
 5239TIP3    H137276   1.173   5.444   2.606
 5239TIP3    H237277   1.285   5.363   2.545
 5240TIP3   OH237278   0.535   3.080   7.915
 5240TIP3    H137279   0.451   3.080   7.961
 5240TIP3    H237280   0.572   2.993   7.931
 5241TIP3   OH237281   0.552   3.196   6.916
 5241TIP3    H137282   0.591   3.115   6.949
 5241TIP3    H237283   0.627   3.251   6.895
 5242TIP3   OH237284   5.813   5.813   2.360
 5242TIP3    H137285   5.822   5.890   2.416
 5242TIP3    H237286   5.874   5.749   2.397
 5243TIP3   OH237287   2.786   4.651   1.377
 5243TIP3    H137288   2.777   4.556   1.368
 5243TIP3    H237289   2.820   4.663   1.466
 5244TIP3   OH237290   1.275   3.656   0.682
 5244TIP3    H137291   1.243   3.639   0.770
 5244TIP3    H237292   1.197   3.658   0.628
 5245TIP3   OH237293   1.436   0.855   0.761
 5245TIP3    H137294   1.509   0.910   0.732
 5245TIP3    H237295   1.396   0.904   0.834
 5246TIP3   OH237296   5.691   5.018   0.144
 5246TIP3    H137297   5.642   4.965   0.080
 5246TIP3    H237298   5.721   4.955   0.209
 5247TIP3   OH237299   2.823   4.974   8.408
 5247TIP3    H137300   2.869   5.032   8.468
 5247TIP3    H237301   2.738   4.959   8.449
 5248TIP3   OH237302   3.124   5.447   6.509
 5248TIP3    H137303   3.092   5.528   6.469
 5248TIP3    H237304   3.045   5.393   6.519
 5249TIP3   OH237305   5.186   3.518   8.202
 5249TIP3    H137306   5.142   3.552   8.279
 5249TIP3    H237307   5.115   3.494   8.142
 5250TIP3   OH237308   0.412   6.171   8.558
 5250TIP3    H137309   0.493   6.193   8.510
 5250TIP3    H237310   0.367   6.108   8.501
 5251TIP3   OH237311   2.209   3.250   7.659
 5251TIP3    H137312   2.238   3.263   7.750
 5251TIP3    H237313   2.227   3.333   7.616
 5252TIP3   OH237314   4.074   1.675   8.729
 5252TIP3    H137315   4.061   1.624   0.026
 5252TIP3    H237316   4.016   1.634   8.665
 5253TIP3   OH237317   6.045   2.719   8.688
 5253TIP3    H137318   6.030   2.753   8.599
 5253TIP3    H237319   6.008   2.630   8.685
 5254TIP3   OH237320   1.000   1.913   7.441
 5254TIP3    H137321   1.018   1.825   7.409
 5254TIP3    H237322   1.044   1.970   7.378
 5255TIP3   OH237323   3.682   2.095   6.955
 5255TIP3    H137324   3.620   2.076   7.025
 5255TIP3    H237325   3.721   2.179   6.978
 5256TIP3   OH237326   1.516   4.983   0.485
 5256TIP3    H137327   1.455   5.020   0.421
 5256TIP3    H237328   1.460   4.952   0.557
 5257TIP3   OH237329   0.106   0.179   0.634
 5257TIP3    H137330   0.106   0.141   0.546
 5257TIP3    H237331   0.115   0.103   0.692
 5258TIP3   OH237332   5.220   0.931   1.774
 5258TIP3    H137333   5.163   0.855   1.791
 5258TIP3    H237334   5.247   0.920   1.683
 5259TIP3   OH237335   6.299   6.284   7.899
 5259TIP3    H137336   6.390   6.294   7.871
 5259TIP3    H237337   6.304   6.278   7.994
 5260TIP3   OH237338   1.787   6.516   0.968
 5260TIP3    H137339   1.698   6.541   0.944
 5260TIP3    H237340   1.800   6.554   1.055
 5261TIP3   OH237341   3.198   0.595   6.532
 5261TIP3    H137342   3.108   0.591   6.499
 5261TIP3    H237343   3.189   0.626   6.622
 5262TIP3   OH237344   6.825   4.681   7.206
 5262TIP3    H137345   6.837   4.586   7.202
 5262TIP3    H237346   6.806   4.706   7.116
 5263TIP3   OH237347   1.091   0.654   8.062
 5263TIP3    H137348   1.118   0.732   8.015
 5263TIP3    H237349   1.168   0.630   8.115
 5264TIP3   OH237350   4.032   2.226   7.470
 5264TIP3    H137351   4.089   2.263   7.402
 5264TIP3    H237352   4.080   2.150   7.503
 5265TIP3   OH237353   6.219   2.930   7.973
 5265TIP3    H137354   6.206   2.866   7.903
 5265TIP3    H237355   6.146   2.916   8.033
 5266TIP3   OH237356   5.370   6.297   2.057
 5266TIP3    H137357   5.367   6.286   1.962
 5266TIP3    H237358   5.296   6.354   2.077
 5267TIP3   OH237359   2.008   2.357   1.566
 5267TIP3    H137360   2.017   2.267   1.599
 5267TIP3    H237361   1.914   2.368   1.551
 5268TIP3   OH237362   6.796   2.339   6.378
 5268TIP3    H137363   0.024   2.353   6.310
 5268TIP3    H237364   6.832   2.380   6.456
 5269TIP3   OH237365   3.227   5.273   1.123
 5269TIP3    H137366   3.175   5.335   1.174
 5269TIP3    H237367   3.317   5.287   1.151
 5270TIP3   OH237368   1.833   6.334   8.236
 5270TIP3    H137369   1.924   6.359   8.251
 5270TIP3    H237370   1.790   6.415   8.209
 5271TIP3   OH237371   5.880   0.186   0.015
 5271TIP3    H137372   5.884   0.235   0.097
 5271TIP3    H237373   5.838   0.246   8.736
 5272TIP3   OH237374   2.515   1.760   0.335
 5272TIP3    H137375   2.441   1.741   0.277
 5272TIP3    H237376   2.513   1.690   0.400
 5273TIP3   OH237377   6.689   2.796   1.209
 5273TIP3    H137378   6.685   2.761   1.298
 5273TIP3    H237379   6.639   2.734   1.156
 5274TIP3   OH237380   3.064   4.521   8.426
 5274TIP3    H137381   3.121   4.453   8.390
 5274TIP3    H237382   3.027   4.564   8.349
 5275TIP3   OH237383   2.349   5.408   7.893
 5275TIP3    H137384   2.404   5.486   7.902
 5275TIP3    H237385   2.262   5.442   7.873
 5276TIP3   OH237386   4.370   2.019   7.872
 5276TIP3    H137387   4.336   1.935   7.903
 5276TIP3    H237388   4.295   2.078   7.874
 5277TIP3   OH237389   0.653   1.725   7.404
 5277TIP3    H137390   0.683   1.683   7.485
 5277TIP3    H237391   0.567   1.760   7.425
 5278TIP3   OH237392   6.266   2.731   0.893
 5278TIP3    H137393   6.224   2.652   0.860
 5278TIP3    H237394   6.194   2.783   0.930
 5279TIP3   OH237395   6.246   2.000   8.033
 5279TIP3    H137396   6.318   2.001   8.096
 5279TIP3    H237397   6.221   1.908   8.026
 5280TIP3   OH237398   2.988   1.437   2.242
 5280TIP3    H137399   2.914   1.491   2.216
 5280TIP3    H237400   2.956   1.383   2.314
 5281TIP3   OH237401   1.181   6.398   1.122
 5281TIP3    H137402   1.246   6.350   1.173
 5281TIP3    H237403   1.109   6.414   1.183
 5282TIP3   OH237404   1.169   0.207   8.692
 5282TIP3    H137405   1.159   0.195   0.003
 5282TIP3    H237406   1.092   0.166   8.653
 5283TIP3   OH237407   0.193   6.710   0.043
 5283TIP3    H137408   0.124   6.754   0.093
 5283TIP3    H237409   0.171   6.617   0.049
 5284TIP3   OH237410   3.300   3.018   0.529
 5284TIP3    H137411   3.205   3.029   0.539
 5284TIP3    H237412   3.338   3.083   0.588
 5285TIP3   OH237413   2.103   3.567   8.206
 5285TIP3    H137414   2.080   3.646   8.156
 5285TIP3    H237415   2.021   3.520   8.214
 5286TIP3   OH237416   2.722   0.403   0.604
 5286TIP3    H137417   2.810   0.438   0.623
 5286TIP3    H237418   2.663   0.462   0.651
 5287TIP3   OH237419   3.579   3.396   1.070
 5287TIP3    H137420   3.517   3.325   1.088
 5287TIP3    H237421   3.617   3.417   1.155
 5288TIP3   OH237422   4.342   0.299   0.901
 5288TIP3    H137423   4.302   0.258   0.824
 5288TIP3    H237424   4.269   0.342   0.946
 5289TIP3   OH237425   5.524   5.942   6.642
 5289TIP3    H137426   5.530   5.863   6.696
 5289TIP3    H237427   5.436   5.976   6.660
 5290TIP3   OH237428   3.682   3.250   7.078
 5290TIP3    H137429   3.631   3.285   7.151
 5290TIP3    H237430   3.621   3.192   7.032
 5291TIP3   OH237431   1.804   5.780   1.334
 5291TIP3    H137432   1.778   5.714   1.270
 5291TIP3    H237433   1.774   5.863   1.297
 5292TIP3   OH237434   3.481   5.788   0.516
 5292TIP3    H137435   3.561   5.789   0.568
 5292TIP3    H237436   3.436   5.869   0.541
 5293TIP3   OH237437   4.743   1.655   7.630
 5293TIP3    H137438   4.837   1.669   7.641
 5293TIP3    H237439   4.724   1.689   7.543
 5294TIP3   OH237440   3.716   3.143   0.325
 5294TIP3    H137441   3.747   3.082   0.259
 5294TIP3    H237442   3.621   3.142   0.317
 5295TIP3   OH237443   5.205   2.682   7.812
 5295TIP3    H137444   5.139   2.720   7.755
 5295TIP3    H237445   5.275   2.747   7.816
 5296TIP3   OH237446   2.451   6.818   1.645
 5296TIP3    H137447   2.527   0.036   1.649
 5296TIP3    H237448   2.466   6.763   1.568
 5297TIP3   OH237449   4.057   5.695   7.979
 5297TIP3    H137450   4.097   5.625   8.030
 5297TIP3    H237451   4.007   5.649   7.911
 5298TIP3   OH237452   0.411   6.447   0.475
 5298TIP3    H137453   0.494   6.431   0.520
 5298TIP3    H237454   0.386   6.362   0.441
 5299TIP3   OH237455   2.015   2.944   1.013
 5299TIP3    H137456   2.096   2.893   1.020
 5299TIP3    H237457   2.020   2.985   0.927
 5300TIP3   OH237458   4.904   4.497   8.156
 5300TIP3    H137459   4.848   4.469   8.228
 5300TIP3    H237460   4.968   4.556   8.197
 5301TIP3   OH237461   1.102   5.820   1.478
 5301TIP3    H137462   1.057   5.777   1.405
 5301TIP3    H237463   1.195   5.811   1.457
 5302TIP3   OH237464   3.586   5.002   8.123
 5302TIP3    H137465   3.614   4.913   8.100
 5302TIP3    H237466   3.569   5.044   8.039
 5303TIP3   OH237467   6.820   1.535   7.976
 5303TIP3    H137468   6.747   1.521   7.915
 5303TIP3    H237469   0.010   1.447   8.000
 5304TIP3   OH237470   2.531   1.825   1.469
 5304TIP3    H137471   2.622   1.857   1.473
 5304TIP3    H237472   2.485   1.889   1.415
 5305TIP3   OH237473   0.264   0.730   7.839
 5305TIP3    H137474   0.257   0.642   7.801
 5305TIP3    H237475   0.271   0.789   7.763
 5306TIP3   OH237476   5.019   2.726   7.292
 5306TIP3    H137477   4.936   2.705   7.334
 5306TIP3    H237478   5.085   2.680   7.344
 5307TIP3   OH237479   4.356   4.469   1.257
 5307TIP3    H137480   4.320   4.533   1.318
 5307TIP3    H237481   4.280   4.433   1.212
 5308TIP3   OH237482   5.007   5.841   0.093
 5308TIP3    H137483   4.948   5.824   0.020
 5308TIP3    H237484   4.952   5.885   0.158
 5309TIP3   OH237485   0.222   1.044   8.224
 5309TIP3    H137486   0.186   1.093   8.298
 5309TIP3    H237487   0.313   1.072   8.218
 5310TIP3   OH237488   3.839   6.047   0.532
 5310TIP3    H137489   3.825   5.973   0.473
 5310TIP3    H237490   3.784   6.029   0.608
 5311TIP3   OH237491   1.109   4.753   7.388
 5311TIP3    H137492   1.160   4.806   7.326
 5311TIP3    H237493   1.045   4.707   7.334
 5312TIP3   OH237494   2.973   1.695   7.317
 5312TIP3    H137495   2.986   1.634   7.245
 5312TIP3    H237496   2.967   1.640   7.395
 5313TIP3   OH237497   5.650   3.694   1.658
 5313TIP3    H137498   5.653   3.605   1.694
 5313TIP3    H237499   5.651   3.750   1.735
 5314TIP3   OH237500   0.033   3.000   7.945
 5314TIP3    H137501   0.101   3.043   7.893
 5314TIP3    H237502   6.813   2.960   7.880
 5315TIP3   OH237503   4.382   3.312   6.856
 5315TIP3    H137504   4.315   3.278   6.796
 5315TIP3    H237505   4.384   3.406   6.839
 5316TIP3   OH237506   2.897   4.119   1.036
 5316TIP3    H137507   2.874   4.076   0.953
 5316TIP3    H237508   2.815   4.158   1.066
 5317TIP3   OH237509   4.558   6.644   7.196
 5317TIP3    H137510   4.625   6.663   7.131
 5317TIP3    H237511   4.478   6.632   7.145
 5318TIP3   OH237512   1.008   6.215   7.996
 5318TIP3    H137513   0.953   6.292   7.991
 5318TIP3    H237514   1.079   6.239   8.055
 5319TIP3   OH237515   3.329   3.293   8.049
 5319TIP3    H137516   3.339   3.252   7.964
 5319TIP3    H237517   3.408   3.347   8.059
 5320TIP3   OH237518   4.693   3.384   8.059
 5320TIP3    H137519   4.633   3.350   8.125
 5320TIP3    H237520   4.652   3.362   7.975
 5321TIP3   OH237521   6.303   5.868   1.544
 5321TIP3    H137522   6.396   5.891   1.551
 5321TIP3    H237523   6.265   5.939   1.491
 5322TIP3   OH237524   1.498   2.118   7.875
 5322TIP3    H137525   1.522   2.068   7.953
 5322TIP3    H237526   1.474   2.052   7.811
 5323TIP3   OH237527   1.301   2.866   1.605
 5323TIP3    H137528   1.257   2.871   1.689
 5323TIP3    H237529   1.238   2.823   1.547
 5324TIP3   OH237530   5.769   0.913   8.472
 5324TIP3    H137531   5.784   0.818   8.475
 5324TIP3    H237532   5.709   0.926   8.398
 5325TIP3   OH237533   5.072   2.280   7.305
 5325TIP3    H137534   5.093   2.371   7.325
 5325TIP3    H237535   4.999   2.286   7.242
 5326TIP3   OH237536   1.759   6.347   6.648
 5326TIP3    H137537   1.664   6.350   6.657
 5326TIP3    H237538   1.776   6.273   6.589
 5327TIP3   OH237539   5.132   3.073   0.707
 5327TIP3    H137540   5.095   2.994   0.745
 5327TIP3    H237541   5.215   3.084   0.753
 5328TIP3   OH237542   4.191   5.527   0.872
 5328TIP3    H137543   4.168   5.619   0.862
 5328TIP3    H237544   4.148   5.499   0.953
 5329TIP3   OH237545   4.231   4.951   1.353
 5329TIP3    H137546   4.323   4.936   1.331
 5329TIP3    H237547   4.228   4.942   1.448
 5330TIP3   OH237548   2.591   3.343   0.721
 5330TIP3    H137549   2.553   3.427   0.746
 5330TIP3    H237550   2.568   3.333   0.628
 5331TIP3   OH237551   4.447   5.399   0.838
 5331TIP3    H137552   4.354   5.418   0.855
 5331TIP3    H237553   4.492   5.426   0.918
 5332TIP3   OH237554   3.761   3.651   1.990
 5332TIP3    H137555   3.772   3.705   2.068
 5332TIP3    H237556   3.850   3.634   1.960
 5333TIP3   OH237557   1.169   3.421   6.134
 5333TIP3    H137558   1.183   3.402   6.226
 5333TIP3    H237559   1.216   3.504   6.119
 5334TIP3   OH237560   4.892   5.081   1.532
 5334TIP3    H137561   4.974   5.067   1.485
 5334TIP3    H237562   4.903   5.034   1.614
 5335TIP3   OH237563   6.522   6.497   6.588
 5335TIP3    H137564   6.609   6.533   6.574
 5335TIP3    H237565   6.478   6.562   6.643
 5336TIP3   OH237566   3.786   2.557   1.452
 5336TIP3    H137567   3.781   2.630   1.514
 5336TIP3    H237568   3.766   2.597   1.367
 5337TIP3   OH237569   2.213   0.936   6.811
 5337TIP3    H137570   2.278   1.003   6.833
 5337TIP3    H237571   2.261   0.871   6.760
 5338TIP3   OH237572   1.652   1.021   0.647
 5338TIP3    H137573   1.725   1.036   0.588
 5338TIP3    H237574   1.655   1.094   0.708
 5339TIP3   OH237575   3.312   1.906   8.706
 5339TIP3    H137576   3.234   1.853   8.690
 5339TIP3    H237577   3.278   1.989   8.739
 5340TIP3   OH237578   3.340   2.024   0.200
 5340TIP3    H137579   3.403   2.067   0.143
 5340TIP3    H237580   3.289   2.096   0.237
 5341TIP3   OH237581   0.486   2.957   1.307
 5341TIP3    H137582   0.437   2.938   1.227
 5341TIP3    H237583   0.559   2.895   1.305
 5342TIP3   OH237584   6.129   1.251   0.020
 5342TIP3    H137585   6.059   1.256   8.737
 5342TIP3    H237586   6.201   1.209   8.755
 5343TIP3   OH237587   5.206   0.827   1.365
 5343TIP3    H137588   5.125   0.776   1.369
 5343TIP3    H237589   5.258   0.784   1.298
 5344TIP3   OH237590   4.489   3.794   7.039
 5344TIP3    H137591   4.573   3.803   6.994
 5344TIP3    H237592   4.424   3.806   6.970
 5345TIP3   OH237593   1.612   6.351   7.655
 5345TIP3    H137594   1.621   6.256   7.654
 5345TIP3    H237595   1.614   6.377   7.563
 5346TIP3   OH237596   2.392   0.184   1.298
 5346TIP3    H137597   2.417   0.121   1.231
 5346TIP3    H237598   2.468   0.187   1.357
 5347TIP3   OH237599   4.199   5.491   2.039
 5347TIP3    H137600   4.177   5.573   1.995
 5347TIP3    H237601   4.142   5.487   2.115
 5348TIP3   OH237602   4.794   1.181   8.020
 5348TIP3    H137603   4.829   1.222   7.941
 5348TIP3    H237604   4.856   1.206   8.089
 5349TIP3   OH237605   4.027   6.663   8.674
 5349TIP3    H137606   3.955   6.694   8.618
 5349TIP3    H237607   4.077   6.603   8.618
 5350TIP3   OH237608   2.260   0.605   2.578
 5350TIP3    H137609   2.192   0.613   2.511
 5350TIP3    H237610   2.224   0.649   2.654
 5351TIP3   OH237611   3.365   4.695   8.247
 5351TIP3    H137612   3.390   4.760   8.313
 5351TIP3    H237613   3.430   4.704   8.178
 5352TIP3   OH237614   1.929   5.218   6.998
 5352TIP3    H137615   1.896   5.168   6.923
 5352TIP3    H237616   1.918   5.309   6.972
 5353TIP3   OH237617   2.870   4.053   0.567
 5353TIP3    H137618   2.901   4.021   0.482
 5353TIP3    H237619   2.823   4.133   0.547
 5354TIP3   OH237620   0.829   6.104   1.977
 5354TIP3    H137621   0.845   6.171   2.044
 5354TIP3    H237622   0.737   6.082   1.987
 5355TIP3   OH237623   3.584   3.738   1.481
 5355TIP3    H137624   3.529   3.700   1.550
 5355TIP3    H237625   3.597   3.829   1.509
 5356TIP3   OH237626   1.910   4.012   7.816
 5356TIP3    H137627   1.885   3.973   7.732
 5356TIP3    H237628   1.832   4.002   7.871
 5357TIP3   OH237629   6.651   4.510   0.323
 5357TIP3    H137630   6.626   4.494   0.232
 5357TIP3    H237631   6.688   4.598   0.322
 5358TIP3   OH237632   1.761   0.253   6.760
 5358TIP3    H137633   1.751   0.182   6.697
 5358TIP3    H237634   1.847   0.239   6.798
 5359TIP3   OH237635   1.496   4.333   0.092
 5359TIP3    H137636   1.557   4.259   0.088
 5359TIP3    H237637   1.495   4.359   0.184
 5360TIP3   OH237638   6.402   1.643   1.009
 5360TIP3    H137639   6.367   1.690   0.933
 5360TIP3    H237640   6.326   1.600   1.048
 5361TIP3   OH237641   5.072   5.781   1.553
 5361TIP3    H137642   5.110   5.697   1.579
 5361TIP3    H237643   5.014   5.805   1.625
 5362TIP3   OH237644   3.998   4.182   1.868
 5362TIP3    H137645   3.951   4.101   1.851
 5362TIP3    H237646   4.012   4.182   1.963
 5363TIP3   OH237647   5.501   3.554   6.898
 5363TIP3    H137648   5.469   3.606   6.824
 5363TIP3    H237649   5.572   3.502   6.861
 5364TIP3   OH237650   5.203   2.548   6.961
 5364TIP3    H137651   5.133   2.520   7.021
 5364TIP3    H237652   5.159   2.558   6.877
 5365TIP3   OH237653   2.685   0.866   7.124
 5365TIP3    H137654   2.659   0.798   7.187
 5365TIP3    H237655   2.707   0.818   7.045
 5366TIP3   OH237656   5.657   6.533   1.190
 5366TIP3    H137657   5.633   6.446   1.224
 5366TIP3    H237658   5.652   6.590   1.267
 5367TIP3   OH237659   5.236   4.724   6.316
 5367TIP3    H137660   5.278   4.793   6.368
 5367TIP3    H237661   5.284   4.645   6.338
 5368TIP3   OH237662   5.565   5.122   0.453
 5368TIP3    H137663   5.634   5.184   0.476
 5368TIP3    H237664   5.495   5.176   0.416
 5369TIP3   OH237665   6.644   0.947   6.993
 5369TIP3    H137666   6.678   0.981   7.076
 5369TIP3    H237667   6.663   1.016   6.930
 5370TIP3   OH237668   2.244   0.703   7.547
 5370TIP3    H137669   2.320   0.677   7.495
 5370TIP3    H237670   2.280   0.766   7.610
 5371TIP3   OH237671   0.393   4.360   0.657
 5371TIP3    H137672   0.326   4.331   0.596
 5371TIP3    H237673   0.473   4.317   0.628
 5372TIP3   OH237674   4.991   6.493   0.638
 5372TIP3    H137675   5.004   6.582   0.604
 5372TIP3    H237676   4.976   6.505   0.732
 5373TIP3   OH237677   1.632   5.417   1.369
 5373TIP3    H137678   1.587   5.477   1.309
 5373TIP3    H237679   1.636   5.464   1.452
 5374TIP3   OH237680   5.121   4.774   1.682
 5374TIP3    H137681   5.037   4.818   1.697
 5374TIP3    H237682   5.149   4.746   1.769
 5375TIP3   OH237683   1.239   5.852   7.929
 5375TIP3    H137684   1.210   5.890   8.012
 5375TIP3    H237685   1.319   5.899   7.908
 5376TIP3   OH237686   0.113   2.847   0.569
 5376TIP3    H137687   0.131   2.941   0.568
 5376TIP3    H237688   0.178   2.810   0.628
 5377TIP3   OH237689   3.204   1.420   1.019
 5377TIP3    H137690   3.293   1.407   0.986
 5377TIP3    H237691   3.154   1.347   0.983
 5378TIP3   OH237692   3.181   0.672   6.800
 5378TIP3    H137693   3.112   0.738   6.806
 5378TIP3    H237694   3.171   0.619   6.879
 5379TIP3   OH237695   1.728   2.559   8.047
 5379TIP3    H137696   1.655   2.600   8.093
 5379TIP3    H237697   1.687   2.512   7.974
 5380TIP3   OH237698   0.236   3.679   6.302
 5380TIP3    H137699   0.285   3.605   6.339
 5380TIP3    H237700   0.237   3.664   6.208
 5381TIP3   OH237701   2.438   4.671   8.768
 5381TIP3    H137702   2.427   4.640   8.678
 5381TIP3    H237703   2.472   4.596   0.033
 5382TIP3   OH237704   5.389   1.991   1.496
 5382TIP3    H137705   5.437   1.933   1.438
 5382TIP3    H237706   5.306   1.945   1.513
 5383TIP3   OH237707   4.511   6.674   0.831
 5383TIP3    H137708   4.421   6.687   0.860
 5383TIP3    H237709   4.558   6.752   0.860
 5384TIP3   OH237710   3.874   4.936   7.145
 5384TIP3    H137711   3.898   4.858   7.193
 5384TIP3    H237712   3.944   4.948   7.081
 5385TIP3   OH237713   1.509   2.540   8.498
 5385TIP3    H137714   1.461   2.522   8.418
 5385TIP3    H237715   1.548   2.627   8.484
 5386TIP3   OH237716   4.408   6.480   7.621
 5386TIP3    H137717   4.437   6.389   7.627
 5386TIP3    H237718   4.389   6.506   7.711
 5387TIP3   OH237719   2.846   5.334   7.572
 5387TIP3    H137720   2.829   5.335   7.666
 5387TIP3    H237721   2.939   5.356   7.564
 5388TIP3   OH237722   4.531   3.843   1.459
 5388TIP3    H137723   4.552   3.854   1.552
 5388TIP3    H237724   4.496   3.754   1.453
 5389TIP3   OH237725   1.457   1.677   1.164
 5389TIP3    H137726   1.396   1.734   1.211
 5389TIP3    H237727   1.526   1.657   1.228
 5390TIP3   OH237728   6.024   3.509   1.489
 5390TIP3    H137729   5.971   3.496   1.568
 5390TIP3    H237730   6.060   3.422   1.469
 5391TIP3   OH237731   5.644   3.708   0.666
 5391TIP3    H137732   5.729   3.753   0.665
 5391TIP3    H237733   5.626   3.688   0.574
 5392TIP3   OH237734   4.415   6.025   1.648
 5392TIP3    H137735   4.495   6.052   1.694
 5392TIP3    H237736   4.373   5.964   1.708
 5393TIP3   OH237737   1.234   1.126   8.447
 5393TIP3    H137738   1.270   1.065   8.511
 5393TIP3    H237739   1.146   1.146   8.479
 5394TIP3   OH237740   4.041   2.306   8.712
 5394TIP3    H137741   4.055   2.393   8.677
 5394TIP3    H237742   3.946   2.300   8.726
 5395TIP3   OH237743   0.493   5.542   8.172
 5395TIP3    H137744   0.587   5.538   8.155
 5395TIP3    H237745   0.484   5.606   8.243
 5396TIP3   OH237746   3.206   5.041   1.684
 5396TIP3    H137747   3.151   5.102   1.635
 5396TIP3    H237748   3.288   5.089   1.698
 5397TIP3   OH237749   2.103   6.101   6.615
 5397TIP3    H137750   2.181   6.045   6.615
 5397TIP3    H237751   2.137   6.189   6.604
 5398TIP3   OH237752   5.223   2.537   7.355
 5398TIP3    H137753   5.247   2.518   7.445
 5398TIP3    H237754   5.299   2.585   7.320
 5399TIP3   OH237755   0.458   4.322   8.564
 5399TIP3    H137756   0.390   4.299   8.628
 5399TIP3    H237757   0.455   4.252   8.499
 5400TIP3   OH237758   1.209   4.861   1.705
 5400TIP3    H137759   1.293   4.820   1.684
 5400TIP3    H237760   1.202   4.854   1.800
 5401TIP3   OH237761   1.333   2.491   8.272
 5401TIP3    H137762   1.295   2.563   8.221
 5401TIP3    H237763   1.377   2.436   8.208
 5402TIP3   OH237764   4.028   6.361   8.198
 5402TIP3    H137765   4.053   6.274   8.167
 5402TIP3    H237766   4.083   6.377   8.274
 5403TIP3   OH237767   0.851   5.307   7.811
 5403TIP3    H137768   0.791   5.382   7.810
 5403TIP3    H237769   0.847   5.272   7.722
 5404TIP3   OH237770   0.089   4.185   7.643
 5404TIP3    H137771   0.074   4.223   7.730
 5404TIP3    H237772   0.005   4.149   7.618
 5405TIP3   OH237773   5.076   4.036   7.736
 5405TIP3    H137774   5.168   4.050   7.759
 5405TIP3    H237775   5.056   4.106   7.674
 5406TIP3   OH237776   6.714   0.954   8.321
 5406TIP3    H137777   6.697   0.959   8.226
 5406TIP3    H237778   6.751   1.040   8.343
 5407TIP3   OH237779   5.384   0.415   6.665
 5407TIP3    H137780   5.419   0.461   6.741
 5407TIP3    H237781   5.299   0.382   6.694
 5408TIP3   OH237782   3.133   4.013   0.767
 5408TIP3    H137783   3.046   4.033   0.734
 5408TIP3    H237784   3.191   4.023   0.692
 5409TIP3   OH237785   3.873   1.690   7.779
 5409TIP3    H137786   3.929   1.655   7.710
 5409TIP3    H237787   3.933   1.726   7.844
 5410TIP3   OH237788   6.367   5.485   1.222
 5410TIP3    H137789   6.302   5.479   1.152
 5410TIP3    H237790   6.370   5.578   1.244
 5411TIP3   OH237791   1.643   4.934   0.210
 5411TIP3    H137792   1.593   4.915   0.289
 5411TIP3    H237793   1.579   4.971   0.149
 5412TIP3   OH237794   3.994   5.496   1.355
 5412TIP3    H137795   3.987   5.420   1.413
 5412TIP3    H237796   3.934   5.476   1.283
 5413TIP3   OH237797   1.679   6.312   0.349
 5413TIP3    H137798   1.739   6.326   0.423
 5413TIP3    H237799   1.622   6.241   0.378
 5414TIP3   OH237800   6.449   4.804   0.412
 5414TIP3    H137801   6.432   4.788   0.319
 5414TIP3    H237802   6.534   4.848   0.414
 5415TIP3   OH237803   1.589   1.499   6.962
 5415TIP3    H137804   1.579   1.580   6.912
 5415TIP3    H237805   1.679   1.501   6.994
 5416TIP3   OH237806   4.719   0.295   1.806
 5416TIP3    H137807   4.706   0.376   1.855
 5416TIP3    H237808   4.783   0.317   1.739
 5417TIP3   OH237809   5.432   3.402   0.268
 5417TIP3    H137810   5.514   3.353   0.280
 5417TIP3    H237811   5.422   3.407   0.173
 5418TIP3   OH237812   6.446   6.448   8.480
 5418TIP3    H137813   6.516   6.396   8.441
 5418TIP3    H237814   6.420   6.398   8.558
 5419TIP3   OH237815   4.429   0.373   1.228
 5419TIP3    H137816   4.417   0.383   1.323
 5419TIP3    H237817   4.356   0.424   1.190
 5420TIP3   OH237818   6.755   3.716   2.026
 5420TIP3    H137819   6.745   3.749   2.115
 5420TIP3    H237820   6.838   3.668   2.027
 5421TIP3   OH237821   1.035   0.657   6.966
 5421TIP3    H137822   1.116   0.635   7.012
 5421TIP3    H237823   0.973   0.677   7.036
 5422TIP3   OH237824   3.852   2.442   0.227
 5422TIP3    H137825   3.814   2.385   0.160
 5422TIP3    H237826   3.904   2.505   0.177
 5423TIP3   OH237827   0.891   3.188   0.009
 5423TIP3    H137828   0.808   3.235   8.779
 5423TIP3    H237829   0.866   3.095   0.007
 5424TIP3   OH237830   1.601   0.551   1.500
 5424TIP3    H137831   1.680   0.604   1.495
 5424TIP3    H237832   1.544   0.599   1.561
 5425TIP3   OH237833   5.821   5.184   0.582
 5425TIP3    H137834   5.835   5.173   0.488
 5425TIP3    H237835   5.898   5.144   0.622
 5426TIP3   OH237836   0.087   3.055   8.245
 5426TIP3    H137837   0.032   2.998   8.299
 5426TIP3    H237838   0.052   3.045   8.157
 5427TIP3   OH237839   5.829   2.571   1.012
 5427TIP3    H137840   5.763   2.625   0.969
 5427TIP3    H237841   5.887   2.542   0.941
 5428TIP3   OH237842   4.275   0.151   0.328
 5428TIP3    H137843   4.308   0.232   0.290
 5428TIP3    H237844   4.349   0.116   0.377
 5429TIP3   OH237845   1.755   1.022   8.535
 5429TIP3    H137846   1.798   1.082   8.596
 5429TIP3    H237847   1.744   0.941   8.586
 5430TIP3   OH237848   5.988   2.404   6.631
 5430TIP3    H137849   5.899   2.369   6.629
 5430TIP3    H237850   5.977   2.498   6.641
 5431TIP3   OH237851   0.783   0.393   6.309
 5431TIP3    H137852   0.764   0.313   6.260
 5431TIP3    H237853   0.868   0.421   6.276
 5432TIP3   OH237854   0.906   0.198   0.133
 5432TIP3    H137855   0.890   0.115   0.178
 5432TIP3    H237856   0.906   0.174   0.040
 5433TIP3   OH237857   1.129   4.170   6.464
 5433TIP3    H137858   1.213   4.150   6.424
 5433TIP3    H237859   1.066   4.163   6.393
 5434TIP3   OH237860   3.363   0.414   6.442
 5434TIP3    H137861   3.327   0.326   6.430
 5434TIP3    H237862   3.287   0.467   6.469
 5435TIP3   OH237863   0.198   5.328   7.878
 5435TIP3    H137864   0.187   5.233   7.886
 5435TIP3    H237865   0.287   5.344   7.910
 5436TIP3   OH237866   1.578   5.254   7.317
 5436TIP3    H137867   1.517   5.299   7.260
 5436TIP3    H237868   1.525   5.188   7.362
 5437TIP3   OH237869   1.287   0.614   7.046
 5437TIP3    H137870   1.309   0.541   6.987
 5437TIP3    H237871   1.361   0.675   7.036
 5438TIP3   OH237872   6.687   4.974   7.225
 5438TIP3    H137873   6.644   4.889   7.236
 5438TIP3    H237874   6.726   4.971   7.138
 5439TIP3   OH237875   5.184   1.929   0.071
 5439TIP3    H137876   5.256   1.954   0.130
 5439TIP3    H237877   5.108   1.920   0.128
 5440TIP3   OH237878   5.494   3.870   6.902
 5440TIP3    H137879   5.426   3.886   6.968
 5440TIP3    H237880   5.445   3.861   6.820
 5441TIP3   OH237881   1.039   1.455   0.480
 5441TIP3    H137882   1.031   1.485   0.389
 5441TIP3    H237883   1.112   1.506   0.515
 5442TIP3   OH237884   2.011   0.104   0.742
 5442TIP3    H137885   1.973   0.083   0.657
 5442TIP3    H237886   1.947   0.072   0.806
 5443TIP3   OH237887   5.536   1.885   2.550
 5443TIP3    H137888   5.597   1.811   2.549
 5443TIP3    H237889   5.585   1.955   2.593
 5444TIP3   OH237890   3.442   2.686   1.226
 5444TIP3    H137891   3.372   2.632   1.262
 5444TIP3    H237892   3.462   2.749   1.296
 5445TIP3   OH237893   2.858   6.776   6.547
 5445TIP3    H137894   2.897   6.833   6.612
 5445TIP3    H237895   2.764   6.781   6.564
 5446TIP3   OH237896   0.049   5.022   1.186
 5446TIP3    H137897   0.027   5.070   1.266
 5446TIP3    H237898   0.028   4.931   1.206
 5447TIP3   OH237899   2.996   3.687   1.669
 5447TIP3    H137900   3.005   3.664   1.761
 5447TIP3    H237901   2.901   3.692   1.655
 5448TIP3   OH237902   6.161   0.936   0.499
 5448TIP3    H137903   6.213   0.992   0.441
 5448TIP3    H237904   6.160   0.851   0.456
 5449TIP3   OH237905   3.800   1.571   2.295
 5449TIP3    H137906   3.790   1.528   2.210
 5449TIP3    H237907   3.859   1.644   2.279
 5450TIP3   OH237908   2.830   4.483   1.952
 5450TIP3    H137909   2.870   4.445   1.874
 5450TIP3    H237910   2.755   4.532   1.919
 5451TIP3   OH237911   6.256   3.420   0.353
 5451TIP3    H137912   6.291   3.506   0.378
 5451TIP3    H237913   6.163   3.436   0.336
 5452TIP3   OH237914   3.779   0.101   7.255
 5452TIP3    H137915   3.863   0.062   7.233
 5452TIP3    H237916   3.717   0.028   7.253
 5453TIP3   OH237917   5.003   6.706   8.361
 5453TIP3    H137918   4.975   6.618   8.335
 5453TIP3    H237919   5.085   6.692   8.408
 5454TIP3   OH237920   6.523   6.681   8.585
 5454TIP3    H137921   6.503   6.592   8.557
 5454TIP3    H237922   6.619   6.686   8.586
 5455TIP3   OH237923   6.606   5.894   1.233
 5455TIP3    H137924   6.537   5.827   1.242
 5455TIP3    H237925   6.631   5.916   1.323
 5456TIP3   OH237926   4.786   6.488   7.720
 5456TIP3    H137927   4.763   6.433   7.645
 5456TIP3    H237928   4.763   6.577   7.692
 5457TIP3   OH237929   5.616   3.664   0.092
 5457TIP3    H137930   5.648   3.712   0.168
 5457TIP3    H237931   5.522   3.656   0.106
 5458TIP3   OH237932   0.784   0.483   8.712
 5458TIP3    H137933   0.743   0.567   8.693
 5458TIP3    H237934   0.731   0.418   8.666
 5459TIP3   OH237935   4.302   5.425   2.367
 5459TIP3    H137936   4.239   5.497   2.375
 5459TIP3    H237937   4.248   5.347   2.354
 5460TIP3   OH237938   1.779   0.697   0.361
 5460TIP3    H137939   1.760   0.757   0.288
 5460TIP3    H237940   1.874   0.701   0.371
 5461TIP3   OH237941   2.597   4.784   1.645
 5461TIP3    H137942   2.555   4.868   1.667
 5461TIP3    H237943   2.525   4.722   1.640
 5462TIP3   OH237944   3.177   5.061   6.555
 5462TIP3    H137945   3.206   5.150   6.533
 5462TIP3    H237946   3.254   5.007   6.539
 5463TIP3   OH237947   0.201   3.729   0.220
 5463TIP3    H137948   0.178   3.649   0.267
 5463TIP3    H237949   0.124   3.749   0.167
 5464TIP3   OH237950   6.077   1.244   7.038
 5464TIP3    H137951   5.995   1.280   7.071
 5464TIP3    H237952   6.144   1.304   7.069
 5465TIP3   OH237953   1.202   1.733   7.595
 5465TIP3    H137954   1.204   1.724   7.500
 5465TIP3    H237955   1.256   1.661   7.627
 5466TIP3   OH237956   3.906   3.434   1.257
 5466TIP3    H137957   3.964   3.447   1.183
 5466TIP3    H237958   3.837   3.499   1.246
 5467TIP3   OH237959   5.880   5.808   0.625
 5467TIP3    H137960   5.815   5.878   0.619
 5467TIP3    H237961   5.948   5.833   0.563
 5468TIP3   OH237962   3.954   3.078   7.591
 5468TIP3    H137963   3.909   3.091   7.507
 5468TIP3    H237964   3.890   3.030   7.644
 5469TIP3   OH237965   6.554   2.443   1.833
 5469TIP3    H137966   6.518   2.504   1.897
 5469TIP3    H237967   6.612   2.386   1.883
 5470TIP3   OH237968   5.295   4.231   6.900
 5470TIP3    H137969   5.358   4.282   6.850
 5470TIP3    H237970   5.248   4.180   6.834
 5471TIP3   OH237971   0.646   3.930   7.340
 5471TIP3    H137972   0.606   3.864   7.397
 5471TIP3    H237973   0.726   3.956   7.386
 5472TIP3   OH237974   5.353   6.554   8.734
 5472TIP3    H137975   5.373   6.564   8.641
 5472TIP3    H237976   5.258   6.543   8.737
 5473TIP3   OH237977   1.085   2.542   6.306
 5473TIP3    H137978   1.046   2.454   6.307
 5473TIP3    H237979   1.170   2.530   6.349
 5474TIP3   OH237980   4.046   1.053   1.330
 5474TIP3    H137981   4.023   1.059   1.423
 5474TIP3    H237982   4.126   1.000   1.329
 5475TIP3   OH237983   0.438   1.786   8.561
 5475TIP3    H137984   0.489   1.707   8.578
 5475TIP3    H237985   0.398   1.771   8.475
 5476TIP3   OH237986   2.997   3.555   1.380
 5476TIP3    H137987   2.993   3.462   1.399
 5476TIP3    H237988   3.032   3.595   1.460
 5477TIP3   OH237989   0.633   2.739   8.668
 5477TIP3    H137990   0.554   2.792   8.678
 5477TIP3    H237991   0.606   2.651   8.696
 5478TIP3   OH237992   1.154   3.485   0.984
 5478TIP3    H137993   1.110   3.514   0.904
 5478TIP3    H237994   1.148   3.560   1.043
 5479TIP3   OH237995   0.964   1.520   7.054
 5479TIP3    H137996   0.913   1.571   7.118
 5479TIP3    H237997   0.941   1.429   7.073
 5480TIP3   OH237998   2.309   5.765   8.415
 5480TIP3    H137999   2.361   5.697   8.373
 5480TIP3    H238000   2.362   5.844   8.408
 5481TIP3   OH238001   0.105   0.556   7.420
 5481TIP3    H138002   0.094   0.468   7.384
 5481TIP3    H238003   0.184   0.590   7.377
 5482TIP3   OH238004   0.577   2.342   7.500
 5482TIP3    H138005   0.624   2.286   7.439
 5482TIP3    H238006   0.484   2.326   7.481
 5483TIP3   OH238007   2.369   5.547   0.541
 5483TIP3    H138008   2.444   5.589   0.584
 5483TIP3    H238009   2.342   5.478   0.602
 5484TIP3   OH238010   4.111   4.188   2.124
 5484TIP3    H138011   4.084   4.159   2.211
 5484TIP3    H238012   4.169   4.262   2.140
 5485TIP3   OH238013   4.444   3.658   1.888
 5485TIP3    H138014   4.412   3.623   1.804
 5485TIP3    H238015   4.523   3.608   1.906
 5486TIP3   OH238016   0.587   3.788   7.730
 5486TIP3    H138017   0.639   3.868   7.735
 5486TIP3    H238018   0.519   3.807   7.665
 5487TIP3   OH238019   0.589   5.568   0.482
 5487TIP3    H138020   0.610   5.629   0.553
 5487TIP3    H238021   0.498   5.587   0.461
 5488TIP3   OH238022   1.140   0.489   6.769
 5488TIP3    H138023   1.117   0.560   6.830
 5488TIP3    H238024   1.077   0.420   6.788
 5489TIP3   OH238025   5.842   2.047   0.895
 5489TIP3    H138026   5.843   2.004   0.981
 5489TIP3    H238027   5.781   1.994   0.843
 5490TIP3   OH238028   3.341   4.916   0.021
 5490TIP3    H138029   3.349   4.831   0.063
 5490TIP3    H238030   3.270   4.905   8.739
 5491TIP3   OH238031   2.479   3.485   2.162
 5491TIP3    H138032   2.567   3.488   2.200
 5491TIP3    H238033   2.441   3.570   2.184
 5492TIP3   OH238034   2.750   0.249   0.968
 5492TIP3    H138035   2.790   0.296   0.895
 5492TIP3    H238036   2.715   0.169   0.930
 5493TIP3   OH238037   0.084   5.020   0.717
 5493TIP3    H138038   0.146   5.089   0.741
 5493TIP3    H238039   0.013   5.029   0.781
 5494TIP3   OH238040   4.243   3.641   8.674
 5494TIP3    H138041   4.165   3.631   8.619
 5494TIP3    H238042   4.256   3.555   8.713
 5495TIP3   OH238043   3.445   1.231   0.464
 5495TIP3    H138044   3.459   1.223   0.370
 5495TIP3    H238045   3.429   1.324   0.478
 5496TIP3   OH238046   5.035   0.098   0.303
 5496TIP3    H138047   5.026   0.049   0.385
 5496TIP3    H238048   5.073   0.035   0.242
 5497TIP3   OH238049   5.675   4.113   6.852
 5497TIP3    H138050   5.639   4.199   6.874
 5497TIP3    H238051   5.608   4.051   6.880
 5498TIP3   OH238052   1.176   4.651   8.442
 5498TIP3    H138053   1.152   4.597   8.366
 5498TIP3    H238054   1.158   4.741   8.413
 5499TIP3   OH238055   5.984   6.325   6.376
 5499TIP3    H138056   6.026   6.253   6.329
 5499TIP3    H238057   5.990   6.300   6.468
 5500TIP3   OH238058   4.226   5.934   7.493
 5500TIP3    H138059   4.200   5.889   7.574
 5500TIP3    H238060   4.258   5.864   7.436
 5501TIP3   OH238061   3.324   6.613   6.491
 5501TIP3    H138062   3.365   6.535   6.454
 5501TIP3    H238063   3.330   6.678   6.421
 5502TIP3   OH238064   6.287   6.162   6.427
 5502TIP3    H138065   6.220   6.104   6.392
 5502TIP3    H238066   6.244   6.210   6.498
 5503TIP3   OH238067   5.379   5.179   7.912
 5503TIP3    H138068   5.356   5.263   7.873
 5503TIP3    H238069   5.300   5.151   7.958
 5504TIP3   OH238070   3.146   6.264   7.922
 5504TIP3    H138071   3.060   6.252   7.884
 5504TIP3    H238072   3.195   6.314   7.857
 5505TIP3   OH238073   1.865   0.446   0.597
 5505TIP3    H138074   1.786   0.461   0.545
 5505TIP3    H238075   1.884   0.530   0.638
 5506TIP3   OH238076   5.130   3.872   7.355
 5506TIP3    H138077   5.176   3.791   7.330
 5506TIP3    H238078   5.061   3.843   7.413
 5507TIP3   OH238079   2.994   5.974   0.952
 5507TIP3    H138080   2.962   6.030   0.881
 5507TIP3    H238081   3.026   6.035   1.018
 5508TIP3   OH238082   1.871   0.249   2.462
 5508TIP3    H138083   1.838   0.337   2.476
 5508TIP3    H238084   1.933   0.258   2.389
 5509TIP3   OH238085   0.156   5.201   7.583
 5509TIP3    H138086   0.147   5.131   7.647
 5509TIP3    H238087   0.089   5.265   7.607
 5510TIP3   OH238088   1.452   6.155   0.035
 5510TIP3    H138089   1.546   6.146   0.051
 5510TIP3    H238090   1.418   6.066   0.045
 5511TIP3   OH238091   5.818   6.499   0.675
 5511TIP3    H138092   5.850   6.436   0.611
 5511TIP3    H238093   5.760   6.448   0.731
 5512TIP3   OH238094   2.314   1.771   7.593
 5512TIP3    H138095   2.219   1.780   7.581
 5512TIP3    H238096   2.348   1.858   7.573
 5513TIP3   OH238097   2.053   2.727   8.532
 5513TIP3    H138098   2.008   2.786   8.592
 5513TIP3    H238099   2.011   2.742   8.448
 5514TIP3   OH238100   0.065   6.072   1.955
 5514TIP3    H138101   0.045   5.980   1.972
 5514TIP3    H238102   6.825   6.119   1.983
 5515TIP3   OH238103   5.596   0.520   1.400
 5515TIP3    H138104   5.639   0.603   1.417
 5515TIP3    H238105   5.627   0.462   1.470
 5516TIP3   OH238106   0.398   6.748   8.265
 5516TIP3    H138107   0.449   6.671   8.289
 5516TIP3    H238108   0.312   6.714   8.241
 5517TIP3   OH238109   5.416   5.767   0.793
 5517TIP3    H138110   5.347   5.704   0.772
 5517TIP3    H238111   5.446   5.742   0.881
 5518TIP3   OH238112   3.693   5.702   8.377
 5518TIP3    H138113   3.750   5.692   8.300
 5518TIP3    H238114   3.753   5.726   8.448
 5519TIP3   OH238115   1.197   1.986   0.948
 5519TIP3    H138116   1.140   2.000   0.872
 5519TIP3    H238117   1.283   1.971   0.910
 5520TIP3   OH238118   0.179   5.812   1.664
 5520TIP3    H138119   0.217   5.747   1.723
 5520TIP3    H238120   0.085   5.801   1.674
 5521TIP3   OH238121   5.820   2.858   0.698
 5521TIP3    H138122   5.767   2.853   0.777
 5521TIP3    H238123   5.870   2.776   0.698
 5522TIP3   OH238124   1.817   1.867   1.046
 5522TIP3    H138125   1.747   1.842   0.986
 5522TIP3    H238126   1.771   1.901   1.123
 5523TIP3   OH238127   0.482   5.638   6.991
 5523TIP3    H138128   0.500   5.725   6.957
 5523TIP3    H238129   0.426   5.597   6.924
 5524TIP3   OH238130   0.859   1.968   7.657
 5524TIP3    H138131   0.902   1.956   7.572
 5524TIP3    H238132   0.772   2.001   7.636
 5525TIP3   OH238133   5.147   2.455   8.747
 5525TIP3    H138134   5.055   2.443   8.771
 5525TIP3    H238135   5.175   2.369   8.714
 5526TIP3   OH238136   4.424   4.674   8.446
 5526TIP3    H138137   4.399   4.639   8.361
 5526TIP3    H238138   4.515   4.702   8.435
 5527TIP3   OH238139   1.024   0.776   8.636
 5527TIP3    H138140   1.057   0.769   8.546
 5527TIP3    H238141   1.015   0.686   8.666
 5528TIP3   OH238142   1.990   2.336   0.990
 5528TIP3    H138143   1.907   2.360   1.033
 5528TIP3    H238144   2.057   2.378   1.044
 5529TIP3   OH238145   0.903   0.725   7.201
 5529TIP3    H138146   0.821   0.715   7.249
 5529TIP3    H238147   0.966   0.670   7.248
 5530TIP3   OH238148   4.320   1.373   1.101
 5530TIP3    H138149   4.227   1.369   1.122
 5530TIP3    H238150   4.361   1.408   1.180
 5531TIP3   OH238151   1.588   2.096   6.759
 5531TIP3    H138152   1.682   2.084   6.745
 5531TIP3    H238153   1.550   2.009   6.746
 5532TIP3   OH238154   6.001   5.963   6.707
 5532TIP3    H138155   5.949   5.916   6.641
 5532TIP3    H238156   5.989   5.913   6.787
 5533TIP3   OH238157   4.938   0.169   7.064
 5533TIP3    H138158   4.941   0.174   6.969
 5533TIP3    H238159   4.845   0.176   7.086
 5534TIP3   OH238160   4.526   2.861   0.351
 5534TIP3    H138161   4.480   2.812   0.283
 5534TIP3    H238162   4.562   2.937   0.305
 5535TIP3   OH238163   2.943   5.825   7.432
 5535TIP3    H138164   3.022   5.776   7.453
 5535TIP3    H238165   2.897   5.832   7.515
 5536TIP3   OH238166   5.139   1.829   6.982
 5536TIP3    H138167   5.185   1.844   6.899
 5536TIP3    H238168   5.066   1.772   6.959
 5537TIP3   OH238169   0.339   5.134   1.702
 5537TIP3    H138170   0.353   5.220   1.740
 5537TIP3    H238171   0.399   5.076   1.750
 5538TIP3   OH238172   6.617   5.286   8.418
 5538TIP3    H138173   6.669   5.271   8.497
 5538TIP3    H238174   6.617   5.201   8.373
 5539TIP3   OH238175   1.589   0.019   6.473
 5539TIP3    H138176   1.613   6.787   6.532
 5539TIP3    H238177   1.547   0.084   6.528
 5540TIP3   OH238178   4.212   4.795   7.177
 5540TIP3    H138179   4.202   4.886   7.205
 5540TIP3    H238180   4.279   4.798   7.108
 5541TIP3   OH238181   0.783   1.265   1.945
 5541TIP3    H138182   0.876   1.253   1.927
 5541TIP3    H238183   0.753   1.325   1.876
 5542TIP3   OH238184   2.704   1.207   1.799
 5542TIP3    H138185   2.611   1.227   1.803
 5542TIP3    H238186   2.747   1.288   1.828
 5543TIP3   OH238187   0.399   2.670   7.933
 5543TIP3    H138188   0.340   2.595   7.934
 5543TIP3    H238189   0.465   2.649   7.999
 5544TIP3   OH238190   1.485   5.600   1.225
 5544TIP3    H138191   1.437   5.547   1.163
 5544TIP3    H238192   1.484   5.688   1.187
 5545TIP3   OH238193   0.201   6.275   0.790
 5545TIP3    H138194   0.117   6.286   0.834
 5545TIP3    H238195   0.226   6.184   0.807
 5546TIP3   OH238196   2.095   3.623   0.778
 5546TIP3    H138197   2.145   3.703   0.763
 5546TIP3    H238198   2.031   3.647   0.845
 5547TIP3   OH238199   0.251   2.811   8.413
 5547TIP3    H138200   0.156   2.799   8.408
 5547TIP3    H238201   0.287   2.727   8.387
 5548TIP3   OH238202   4.327   1.728   0.962
 5548TIP3    H138203   4.403   1.676   0.989
 5548TIP3    H238204   4.286   1.677   0.892
 5549TIP3   OH238205   1.080   1.748   8.395
 5549TIP3    H138206   1.006   1.791   8.352
 5549TIP3    H238207   1.131   1.821   8.432
 5550TIP3   OH238208   5.832   0.632   8.481
 5550TIP3    H138209   5.850   0.572   8.554
 5550TIP3    H238210   5.837   0.577   8.403
 5551TIP3   OH238211   4.029   1.069   0.672
 5551TIP3    H138212   3.992   1.081   0.584
 5551TIP3    H238213   4.068   1.154   0.693
 5552TIP3   OH238214   5.873   5.728   8.686
 5552TIP3    H138215   5.842   5.818   8.699
 5552TIP3    H238216   5.794   5.675   8.686
 5553TIP3   OH238217   0.308   2.307   7.499
 5553TIP3    H138218   0.223   2.287   7.460
 5553TIP3    H238219   0.288   2.329   7.590
 5554TIP3   OH238220   4.258   5.598   0.086
 5554TIP3    H138221   4.204   5.665   0.129
 5554TIP3    H238222   4.207   5.570   0.011
 5555TIP3   OH238223   2.948   4.917   6.564
 5555TIP3    H138224   2.885   4.986   6.545
 5555TIP3    H238225   3.033   4.960   6.556
 5556TIP3   OH238226   3.042   1.553   8.012
 5556TIP3    H138227   3.052   1.595   7.926
 5556TIP3    H238228   3.026   1.461   7.991
 5557TIP3   OH238229   0.876   3.949   7.496
 5557TIP3    H138230   0.820   3.991   7.561
 5557TIP3    H238231   0.910   3.871   7.540
 5558TIP3   OH238232   1.915   2.875   8.323
 5558TIP3    H138233   1.848   2.824   8.279
 5558TIP3    H238234   1.867   2.925   8.389
 5559TIP3   OH238235   6.809   5.043   8.057
 5559TIP3    H138236   6.718   5.020   8.075
 5559TIP3    H238237   0.004   5.077   8.140
 5560TIP3   OH238238   4.965   5.133   8.447
 5560TIP3    H138239   5.021   5.056   8.450
 5560TIP3    H238240   5.013   5.195   8.391
 5561TIP3   OH238241   6.425   0.816   1.812
 5561TIP3    H138242   6.331   0.818   1.797
 5561TIP3    H238243   6.445   0.723   1.825
 5562TIP3   OH238244   1.200   3.834   7.618
 5562TIP3    H138245   1.243   3.892   7.555
 5562TIP3    H238246   1.189   3.888   7.696
 5563TIP3   OH238247   1.933   0.928   1.743
 5563TIP3    H138248   1.941   1.015   1.704
 5563TIP3    H238249   1.846   0.898   1.719
 5564TIP3   OH238250   4.681   2.542   2.218
 5564TIP3    H138251   4.645   2.608   2.278
 5564TIP3    H238252   4.605   2.497   2.183
 5565TIP3   OH238253   6.160   1.219   8.151
 5565TIP3    H138254   6.140   1.132   8.118
 5565TIP3    H238255   6.102   1.277   8.101
 5566TIP3   OH238256   1.652   3.358   0.953
 5566TIP3    H138257   1.560   3.348   0.979
 5566TIP3    H238258   1.657   3.446   0.917
 5567TIP3   OH238259   6.685   3.899   6.725
 5567TIP3    H138260   6.602   3.937   6.695
 5567TIP3    H238261   6.668   3.874   6.816
 5568TIP3   OH238262   5.352   1.757   1.240
 5568TIP3    H138263   5.425   1.725   1.292
 5568TIP3    H238264   5.280   1.765   1.302
 5569TIP3   OH238265   1.922   3.109   7.709
 5569TIP3    H138266   1.968   3.153   7.781
 5569TIP3    H238267   1.929   3.170   7.636
 5570TIP3   OH238268   2.436   0.723   0.291
 5570TIP3    H138269   2.358   0.776   0.307
 5570TIP3    H238270   2.505   0.787   0.273
 5571TIP3   OH238271   0.116   4.792   8.655
 5571TIP3    H138272   0.185   4.738   8.694
 5571TIP3    H238273   0.102   4.753   8.569
 5572TIP3   OH238274   1.636   5.170   2.081
 5572TIP3    H138275   1.642   5.265   2.086
 5572TIP3    H238276   1.695   5.146   2.009
 5573TIP3   OH238277   2.748   2.154   1.659
 5573TIP3    H138278   2.690   2.223   1.689
 5573TIP3    H238279   2.691   2.078   1.648
 5574TIP3   OH238280   2.962   4.209   7.857
 5574TIP3    H138281   2.945   4.263   7.935
 5574TIP3    H238282   3.025   4.260   7.806
 5575TIP3   OH238283   1.678   6.619   6.615
 5575TIP3    H138284   1.615   6.547   6.613
 5575TIP3    H238285   1.763   6.577   6.613
 5576TIP3   OH238286   1.886   1.187   8.700
 5576TIP3    H138287   1.858   1.273   8.669
 5576TIP3    H238288   1.914   1.202   0.008
 5577TIP3   OH238289   1.640   6.315   0.794
 5577TIP3    H138290   1.709   6.375   0.823
 5577TIP3    H238291   1.686   6.233   0.775
 5578TIP3   OH238292   0.797   3.448   7.810
 5578TIP3    H138293   0.830   3.359   7.802
 5578TIP3    H238294   0.734   3.457   7.739
 5579TIP3   OH238295   5.616   3.705   8.338
 5579TIP3    H138296   5.572   3.767   8.280
 5579TIP3    H238297   5.552   3.687   8.407
 5580TIP3   OH238298   2.993   5.790   2.086
 5580TIP3    H138299   3.027   5.705   2.060
 5580TIP3    H238300   3.032   5.807   2.172
 5581TIP3   OH238301   1.038   5.873   7.126
 5581TIP3    H138302   1.018   5.823   7.205
 5581TIP3    H238303   1.132   5.890   7.132
 5582TIP3   OH238304   0.996   0.562   6.295
 5582TIP3    H138305   1.012   0.609   6.377
 5582TIP3    H238306   1.069   0.586   6.239
 5583TIP3   OH238307   3.914   1.870   0.108
 5583TIP3    H138308   3.984   1.902   0.050
 5583TIP3    H238309   3.951   1.791   0.149
 5584TIP3   OH238310   5.680   0.171   8.543
 5584TIP3    H138311   5.597   0.217   8.542
 5584TIP3    H238312   5.702   0.164   8.636
 5585TIP3   OH238313   2.767   0.712   0.757
 5585TIP3    H138314   2.798   0.792   0.799
 5585TIP3    H238315   2.675   0.730   0.736
 5586TIP3   OH238316   1.123   5.310   0.383
 5586TIP3    H138317   1.069   5.241   0.345
 5586TIP3    H238318   1.070   5.344   0.456
 5587TIP3   OH238319   1.885   3.374   1.133
 5587TIP3    H138320   1.797   3.363   1.098
 5587TIP3    H238321   1.933   3.298   1.102
 5588TIP3   OH238322   3.944   4.695   7.237
 5588TIP3    H138323   3.931   4.647   7.155
 5588TIP3    H238324   4.032   4.731   7.229
 5589TIP3   OH238325   2.143   4.473   1.215
 5589TIP3    H138326   2.203   4.449   1.285
 5589TIP3    H238327   2.092   4.394   1.198
 5590TIP3   OH238328   1.969   5.042   0.674
 5590TIP3    H138329   2.004   5.129   0.653
 5590TIP3    H238330   2.021   4.982   0.620
 5591TIP3   OH238331   1.351   0.882   0.327
 5591TIP3    H138332   1.357   0.975   0.304
 5591TIP3    H238333   1.309   0.841   0.251
 5592TIP3   OH238334   0.799   4.468   6.554
 5592TIP3    H138335   0.817   4.495   6.464
 5592TIP3    H238336   0.851   4.527   6.608
 5593TIP3   OH238337   6.725   4.245   2.089
 5593TIP3    H138338   6.752   4.332   2.117
 5593TIP3    H238339   6.656   4.260   2.025
 5594TIP3   OH238340   6.505   0.639   8.575
 5594TIP3    H138341   6.553   0.563   8.608
 5594TIP3    H238342   6.424   0.602   8.539
 5595TIP3   OH238343   5.936   1.300   1.678
 5595TIP3    H138344   5.880   1.373   1.650
 5595TIP3    H238345   5.888   1.222   1.650
 5596TIP3   OH238346   0.209   3.111   0.571
 5596TIP3    H138347   0.277   3.141   0.511
 5596TIP3    H238348   0.203   3.180   0.637
 5597TIP3   OH238349   1.489   1.199   1.200
 5597TIP3    H138350   1.527   1.247   1.274
 5597TIP3    H238351   1.394   1.210   1.211
 5598TIP3   OH238352   0.886   2.134   1.250
 5598TIP3    H138353   0.960   2.116   1.307
 5598TIP3    H238354   0.821   2.177   1.307
 5599TIP3   OH238355   4.789   4.535   7.363
 5599TIP3    H138356   4.823   4.610   7.314
 5599TIP3    H238357   4.694   4.543   7.355
 5600TIP3   OH238358   1.734   4.805   0.886
 5600TIP3    H138359   1.705   4.893   0.909
 5600TIP3    H238360   1.708   4.750   0.960
 5601TIP3   OH238361   2.135   4.899   7.965
 5601TIP3    H138362   2.179   4.982   7.950
 5601TIP3    H238363   2.191   4.853   8.027
 5602TIP3   OH238364   2.460   5.231   2.348
 5602TIP3    H138365   2.420   5.241   2.435
 5602TIP3    H238366   2.386   5.239   2.288
 5603TIP3   OH238367   1.465   3.746   7.089
 5603TIP3    H138368   1.415   3.822   7.058
 5603TIP3    H238369   1.402   3.674   7.089
 5604TIP3   OH238370   4.585   4.447   7.557
 5604TIP3    H138371   4.576   4.353   7.538
 5604TIP3    H238372   4.524   4.462   7.630
 5605TIP3   OH238373   2.979   4.892   0.865
 5605TIP3    H138374   3.025   4.973   0.886
 5605TIP3    H238375   2.899   4.895   0.916
 5606TIP3   OH238376   3.824   3.040   1.846
 5606TIP3    H138377   3.828   3.074   1.936
 5606TIP3    H238378   3.907   2.994   1.834
 5607TIP3   OH238379   5.611   5.674   2.560
 5607TIP3    H138380   5.640   5.760   2.589
 5607TIP3    H238381   5.530   5.658   2.610
 5608TIP3   OH238382   2.718   2.623   0.383
 5608TIP3    H138383   2.702   2.528   0.386
 5608TIP3    H238384   2.751   2.639   0.295
 5609TIP3   OH238385   3.214   2.784   7.918
 5609TIP3    H138386   3.188   2.694   7.898
 5609TIP3    H238387   3.163   2.807   7.996
 5610TIP3   OH238388   5.582   2.906   0.424
 5610TIP3    H138389   5.545   2.884   0.338
 5610TIP3    H238390   5.553   2.834   0.480
 5611TIP3   OH238391   2.984   6.401   0.546
 5611TIP3    H138392   3.076   6.399   0.521
 5611TIP3    H238393   2.963   6.311   0.571
 5612TIP3   OH238394   3.233   1.497   1.274
 5612TIP3    H138395   3.231   1.488   1.179
 5612TIP3    H238396   3.244   1.408   1.306
 5613TIP3   OH238397   0.343   6.157   0.039
 5613TIP3    H138398   0.356   6.251   0.051
 5613TIP3    H238399   0.385   6.138   8.738
 5614TIP3   OH238400   1.067   3.891   8.491
 5614TIP3    H138401   0.985   3.920   8.450
 5614TIP3    H238402   1.067   3.796   8.477
 5615TIP3   OH238403   2.230   2.649   7.678
 5615TIP3    H138404   2.304   2.689   7.724
 5615TIP3    H238405   2.160   2.715   7.683
 5616TIP3   OH238406   2.815   3.314   1.867
 5616TIP3    H138407   2.727   3.350   1.854
 5616TIP3    H238408   2.831   3.322   1.961
 5617TIP3   OH238409   2.764   5.377   1.862
 5617TIP3    H138410   2.757   5.304   1.800
 5617TIP3    H238411   2.724   5.343   1.942
 5618TIP3   OH238412   5.363   4.011   0.330
 5618TIP3    H138413   5.290   3.949   0.334
 5618TIP3    H238414   5.338   4.081   0.391
 5619TIP3   OH238415   3.092   6.356   1.362
 5619TIP3    H138416   3.170   6.329   1.313
 5619TIP3    H238417   3.092   6.301   1.440
 5620TIP3   OH238418   5.251   1.068   8.222
 5620TIP3    H138419   5.341   1.091   8.199
 5620TIP3    H238420   5.223   1.137   8.283
 5621TIP3   OH238421   3.394   3.718   7.067
 5621TIP3    H138422   3.473   3.716   7.014
 5621TIP3    H238423   3.425   3.737   7.156
 5622TIP3   OH238424   5.206   4.477   0.981
 5622TIP3    H138425   5.234   4.389   0.954
 5622TIP3    H238426   5.157   4.511   0.906
 5623TIP3   OH238427   0.347   4.095   7.620
 5623TIP3    H138428   0.399   4.118   7.697
 5623TIP3    H238429   0.259   4.124   7.642
 5624TIP3   OH238430   6.433   1.049   0.018
 5624TIP3    H138431   6.348   1.020   8.765
 5624TIP3    H238432   6.497   1.018   8.736
 5625TIP3   OH238433   6.504   5.967   1.856
 5625TIP3    H138434   6.486   5.874   1.840
 5625TIP3    H238435   6.522   6.003   1.770
 5626TIP3   OH238436   2.171   1.404   1.631
 5626TIP3    H138437   2.243   1.356   1.672
 5626TIP3    H238438   2.162   1.364   1.544
 5627TIP3   OH238439   0.688   0.866   7.801
 5627TIP3    H138440   0.777   0.900   7.800
 5627TIP3    H238441   0.692   0.790   7.859
 5628TIP3   OH238442   5.979   3.839   7.752
 5628TIP3    H138443   5.923   3.766   7.779
 5628TIP3    H238444   6.068   3.804   7.755
 5629TIP3   OH238445   0.571   0.403   1.678
 5629TIP3    H138446   0.515   0.355   1.618
 5629TIP3    H238447   0.653   0.417   1.630
 5630TIP3   OH238448   2.676   5.975   0.167
 5630TIP3    H138449   2.637   5.898   0.206
 5630TIP3    H238450   2.602   6.027   0.136
 5631TIP3   OH238451   5.951   3.201   1.548
 5631TIP3    H138452   5.989   3.251   1.620
 5631TIP3    H238453   6.027   3.166   1.501
 5632TIP3   OH238454   3.402   4.647   0.084
 5632TIP3    H138455   3.399   4.551   0.085
 5632TIP3    H238456   3.480   4.667   0.032
 5633TIP3   OH238457   1.629   0.301   1.628
 5633TIP3    H138458   1.544   0.257   1.622
 5633TIP3    H238459   1.625   0.371   1.563
 5634TIP3   OH238460   3.081   3.369   8.126
 5634TIP3    H138461   3.171   3.351   8.100
 5634TIP3    H238462   3.031   3.293   8.097
 5635TIP3   OH238463   4.742   2.881   1.577
 5635TIP3    H138464   4.680   2.852   1.510
 5635TIP3    H238465   4.704   2.962   1.612
 5636TIP3   OH238466   1.418   0.404   6.901
 5636TIP3    H138467   1.346   0.355   6.942
 5636TIP3    H238468   1.496   0.370   6.945
 5637TIP3   OH238469   4.874   5.204   2.378
 5637TIP3    H138470   4.892   5.243   2.464
 5637TIP3    H238471   4.958   5.170   2.348
 5638TIP3   OH238472   1.602   2.440   7.831
 5638TIP3    H138473   1.598   2.524   7.787
 5638TIP3    H238474   1.613   2.376   7.761
 5639TIP3   OH238475   1.757   3.701   7.986
 5639TIP3    H138476   1.828   3.748   8.028
 5639TIP3    H238477   1.692   3.768   7.966
 5640TIP3   OH238478   5.765   1.500   1.584
 5640TIP3    H138479   5.804   1.551   1.513
 5640TIP3    H238480   5.718   1.564   1.637
 5641TIP3   OH238481   0.788   4.011   0.193
 5641TIP3    H138482   0.793   4.035   0.286
 5641TIP3    H238483   0.864   3.954   0.179
 5642TIP3   OH238484   3.064   2.831   1.197
 5642TIP3    H138485   3.068   2.779   1.277
 5642TIP3    H238486   3.133   2.795   1.141
 5643TIP3   OH238487   4.724   5.429   8.465
 5643TIP3    H138488   4.705   5.336   8.455
 5643TIP3    H238489   4.651   5.463   8.517
 5644TIP3   OH238490   6.813   6.823   7.900
 5644TIP3    H138491   0.068   6.812   7.883
 5644TIP3    H238492   6.805   6.811   7.995
 5645TIP3   OH238493   0.968   0.354   1.079
 5645TIP3    H138494   1.049   0.329   1.123
 5645TIP3    H238495   0.997   0.388   0.994
 5646TIP3   OH238496   1.678   5.144   0.645
 5646TIP3    H138497   1.632   5.098   0.575
 5646TIP3    H238498   1.758   5.093   0.658
 5647TIP3   OH238499   4.772   5.824   1.534
 5647TIP3    H138500   4.772   5.916   1.562
 5647TIP3    H238501   4.819   5.779   1.604
 5648TIP3   OH238502   3.045   3.502   8.723
 5648TIP3    H138503   3.139   3.501   8.741
 5648TIP3    H238504   3.032   3.580   8.669
 5649TIP3   OH238505   4.787   6.667   7.009
 5649TIP3    H138506   4.787   6.575   6.981
 5649TIP3    H238507   4.866   6.704   6.971
 5650TIP3   OH238508   4.344   4.490   1.765
 5650TIP3    H138509   4.273   4.551   1.748
 5650TIP3    H238510   4.358   4.494   1.860
 5651TIP3   OH238511   5.334   0.311   0.187
 5651TIP3    H138512   5.286   0.231   0.166
 5651TIP3    H238513   5.323   0.321   0.282
 5652TIP3   OH238514   4.248   6.627   7.116
 5652TIP3    H138515   4.220   6.539   7.092
 5652TIP3    H238516   4.282   6.665   7.035
 5653TIP3   OH238517   1.456   4.373   7.541
 5653TIP3    H138518   1.546   4.365   7.509
 5653TIP3    H238519   1.440   4.468   7.544
 5654TIP3   OH238520   5.328   4.872   1.531
 5654TIP3    H138521   5.257   4.827   1.576
 5654TIP3    H238522   5.390   4.894   1.600
 5655TIP3   OH238523   6.244   2.878   1.895
 5655TIP3    H138524   6.239   2.891   1.990
 5655TIP3    H238525   6.167   2.923   1.861
 5656TIP3   OH238526   4.200   5.283   8.481
 5656TIP3    H138527   4.144   5.205   8.487
 5656TIP3    H238528   4.288   5.251   8.497
 5657TIP3   OH238529   4.619   3.097   1.756
 5657TIP3    H138530   4.591   3.182   1.721
 5657TIP3    H238531   4.604   3.103   1.850
 5658TIP3   OH238532   2.171   0.668   8.377
 5658TIP3    H138533   2.084   0.657   8.414
 5658TIP3    H238534   2.169   0.617   8.295
 5659TIP3   OH238535   4.336   6.191   0.988
 5659TIP3    H138536   4.337   6.237   1.072
 5659TIP3    H238537   4.402   6.237   0.935
 5660TIP3   OH238538   4.919   3.752   0.359
 5660TIP3    H138539   4.845   3.783   0.308
 5660TIP3    H238540   4.892   3.667   0.393
 5661TIP3   OH238541   6.385   1.054   7.472
 5661TIP3    H138542   6.461   1.049   7.529
 5661TIP3    H238543   6.363   0.963   7.452
 5662TIP3   OH238544   4.253   6.018   1.279
 5662TIP3    H138545   4.326   5.960   1.301
 5662TIP3    H238546   4.202   6.024   1.360
 5663TIP3   OH238547   3.642   6.724   7.597
 5663TIP3    H138548   3.673   6.733   7.687
 5663TIP3    H238549   3.703   6.776   7.545
 5664TIP3   OH238550   3.416   2.513   1.999
 5664TIP3    H138551   3.436   2.558   2.081
 5664TIP3    H238552   3.332   2.469   2.015
 5665TIP3   OH238553   3.632   2.131   0.331
 5665TIP3    H138554   3.658   2.089   0.249
 5665TIP3    H238555   3.583   2.064   0.378
 5666TIP3   OH238556   3.568   2.834   0.227
 5666TIP3    H138557   3.589   2.842   0.320
 5666TIP3    H238558   3.485   2.881   0.218
 5667TIP3   OH238559   6.275   1.835   0.810
 5667TIP3    H138560   6.195   1.863   0.854
 5667TIP3    H238561   6.268   1.870   0.721
 5668TIP3   OH238562   3.611   3.173   7.553
 5668TIP3    H138563   3.548   3.244   7.567
 5668TIP3    H238564   3.636   3.180   7.461
 5669TIP3   OH238565   6.410   1.907   2.214
 5669TIP3    H138566   6.469   1.938   2.145
 5669TIP3    H238567   6.445   1.822   2.240
 5670TIP3   OH238568   1.741   2.019   2.119
 5670TIP3    H138569   1.646   2.018   2.131
 5670TIP3    H238570   1.772   1.943   2.168
 5671TIP3   OH238571   1.061   3.587   2.254
 5671TIP3    H138572   0.974   3.601   2.217
 5671TIP3    H238573   1.120   3.583   2.178
 5672TIP3   OH238574   4.775   6.316   2.361
 5672TIP3    H138575   4.811   6.261   2.429
 5672TIP3    H238576   4.683   6.329   2.386
 5673TIP3   OH238577   2.968   4.757   6.836
 5673TIP3    H138578   2.936   4.775   6.748
 5673TIP3    H238579   3.019   4.677   6.827
 5674TIP3   OH238580   6.282   4.520   7.970
 5674TIP3    H138581   6.235   4.466   7.906
 5674TIP3    H238582   6.224   4.523   8.046
 5675TIP3   OH238583   2.431   5.109   8.124
 5675TIP3    H138584   2.508   5.122   8.179
 5675TIP3    H238585   2.377   5.187   8.139
 5676TIP3   OH238586   2.170   4.390   7.269
 5676TIP3    H138587   2.124   4.399   7.353
 5676TIP3    H238588   2.159   4.475   7.226
 5677TIP3   OH238589   5.906   2.322   2.001
 5677TIP3    H138590   5.822   2.313   2.045
 5677TIP3    H238591   5.966   2.352   2.070
 5678TIP3   OH238592   0.653   5.366   0.812
 5678TIP3    H138593   0.590   5.327   0.751
 5678TIP3    H238594   0.606   5.371   0.895
 5679TIP3   OH238595   1.962   6.064   7.746
 5679TIP3    H138596   2.053   6.080   7.773
 5679TIP3    H238597   1.910   6.097   7.820
 5680TIP3   OH238598   0.872   5.846   0.956
 5680TIP3    H138599   0.802   5.819   1.017
 5680TIP3    H238600   0.838   5.823   0.870
 5681TIP3   OH238601   2.749   3.446   0.331
 5681TIP3    H138602   2.697   3.427   0.253
 5681TIP3    H238603   2.691   3.425   0.404
 5682TIP3   OH238604   2.026   1.618   6.886
 5682TIP3    H138605   1.993   1.687   6.830
 5682TIP3    H238606   2.098   1.578   6.837
 5683TIP3   OH238607   6.349   5.552   7.044
 5683TIP3    H138608   6.319   5.642   7.059
 5683TIP3    H238609   6.300   5.523   6.967
 5684TIP3   OH238610   4.526   6.004   7.605
 5684TIP3    H138611   4.598   5.946   7.630
 5684TIP3    H238612   4.448   5.949   7.610
 5685TIP3   OH238613   3.886   5.319   8.309
 5685TIP3    H138614   3.909   5.228   8.286
 5685TIP3    H238615   3.843   5.353   8.231
 5686TIP3   OH238616   6.461   2.327   8.143
 5686TIP3    H138617   6.452   2.232   8.155
 5686TIP3    H238618   6.384   2.351   8.092
 5687TIP3   OH238619   0.573   0.539   0.391
 5687TIP3    H138620   0.640   0.475   0.368
 5687TIP3    H238621   0.558   0.527   0.484
 5688TIP3   OH238622   1.358   6.366   0.680
 5688TIP3    H138623   1.431   6.359   0.741
 5688TIP3    H238624   1.350   6.278   0.642
 5689TIP3   OH238625   0.651   0.679   6.956
 5689TIP3    H138626   0.564   0.640   6.954
 5689TIP3    H238627   0.694   0.645   6.878
 5690TIP3   OH238628   0.225   5.165   1.997
 5690TIP3    H138629   0.213   5.073   1.974
 5690TIP3    H238630   0.178   5.213   1.929
 5691TIP3   OH238631   3.561   3.530   0.642
 5691TIP3    H138632   3.599   3.453   0.683
 5691TIP3    H238633   3.490   3.557   0.701
 5692TIP3   OH238634   6.062   0.746   7.762
 5692TIP3    H138635   5.971   0.769   7.742
 5692TIP3    H238636   6.055   0.669   7.819
 5693TIP3   OH238637   4.180   0.777   7.866
 5693TIP3    H138638   4.109   0.801   7.806
 5693TIP3    H238639   4.196   0.684   7.848
 5694TIP3   OH238640   2.878   2.625   0.135
 5694TIP3    H138641   2.866   2.624   0.040
 5694TIP3    H238642   2.898   2.534   0.158
 5695TIP3   OH238643   3.445   3.113   0.282
 5695TIP3    H138644   3.377   3.092   0.347
 5695TIP3    H238645   3.404   3.176   0.223
 5696TIP3   OH238646   2.327   2.242   7.279
 5696TIP3    H138647   2.375   2.162   7.256
 5696TIP3    H238648   2.251   2.242   7.222
 5697TIP3   OH238649   5.188   1.379   1.231
 5697TIP3    H138650   5.160   1.446   1.293
 5697TIP3    H238651   5.178   1.419   1.145
 5698TIP3   OH238652   3.639   5.938   0.700
 5698TIP3    H138653   3.666   5.989   0.775
 5698TIP3    H238654   3.602   5.858   0.737
 5699TIP3   OH238655   5.694   0.344   6.115
 5699TIP3    H138656   5.759   0.393   6.166
 5699TIP3    H238657   5.623   0.326   6.177
 5700TIP3   OH238658   0.616   3.384   8.023
 5700TIP3    H138659   0.551   3.454   8.018
 5700TIP3    H238660   0.677   3.403   7.951
 5701TIP3   OH238661   5.336   1.926   1.777
 5701TIP3    H138662   5.403   1.920   1.845
 5701TIP3    H238663   5.374   1.986   1.712
 5702TIP3   OH238664   5.375   0.129   8.642
 5702TIP3    H138665   5.353   0.063   8.576
 5702TIP3    H238666   5.309   0.116   8.711
 5703TIP3   OH238667   1.029   5.262   1.083
 5703TIP3    H138668   1.114   5.222   1.064
 5703TIP3    H238669   1.017   5.250   1.178
 5704TIP3   OH238670   2.231   6.404   6.905
 5704TIP3    H138671   2.200   6.471   6.966
 5704TIP3    H238672   2.171   6.331   6.918
 5705TIP3   OH238673   4.962   2.940   7.494
 5705TIP3    H138674   4.882   2.915   7.446
 5705TIP3    H238675   4.952   3.035   7.508
 5706TIP3   OH238676   4.854   4.131   7.904
 5706TIP3    H138677   4.937   4.101   7.868
 5706TIP3    H238678   4.814   4.182   7.833
 5707TIP3   OH238679   0.955   0.951   7.806
 5707TIP3    H138680   1.041   0.913   7.819
 5707TIP3    H238681   0.971   1.045   7.796
 5708TIP3   OH238682   3.516   1.332   7.980
 5708TIP3    H138683   3.467   1.354   7.900
 5708TIP3    H238684   3.606   1.355   7.959
 5709TIP3   OH238685   2.594   4.154   8.379
 5709TIP3    H138686   2.549   4.166   8.463
 5709TIP3    H238687   2.646   4.234   8.369
 5710TIP3   OH238688   6.059   2.115   6.551
 5710TIP3    H138689   6.070   2.055   6.477
 5710TIP3    H238690   6.079   2.202   6.514
 5711TIP3   OH238691   2.297   2.200   0.784
 5711TIP3    H138692   2.221   2.241   0.742
 5711TIP3    H238693   2.270   2.110   0.799
 5712TIP3   OH238694   3.193   5.725   7.556
 5712TIP3    H138695   3.212   5.762   7.642
 5712TIP3    H238696   3.273   5.739   7.505
 5713TIP3   OH238697   0.071   2.306   2.283
 5713TIP3    H138698   0.118   2.324   2.202
 5713TIP3    H238699   0.052   2.392   2.320
 5714TIP3   OH238700   3.145   1.156   0.275
 5714TIP3    H138701   3.058   1.135   0.241
 5714TIP3    H238702   3.187   1.203   0.203
 5715TIP3   OH238703   0.938   3.160   8.178
 5715TIP3    H138704   0.908   3.093   8.240
 5715TIP3    H238705   0.903   3.242   8.212
 5716TIP3   OH238706   4.379   6.134   0.481
 5716TIP3    H138707   4.287   6.110   0.472
 5716TIP3    H238708   4.404   6.168   0.395
 5717TIP3   OH238709   6.766   3.556   6.388
 5717TIP3    H138710   6.749   3.544   6.295
 5717TIP3    H238711   0.017   3.524   6.400
 5718TIP3   OH238712   0.130   4.698   2.089
 5718TIP3    H138713   0.165   4.762   2.151
 5718TIP3    H238714   0.059   4.745   2.045
 5719TIP3   OH238715   5.085   5.658   7.714
 5719TIP3    H138716   5.019   5.671   7.782
 5719TIP3    H238717   5.063   5.723   7.647
 5720TIP3   OH238718   2.998   3.797   1.106
 5720TIP3    H138719   2.996   3.878   1.055
 5720TIP3    H238720   2.920   3.749   1.078
 5721TIP3   OH238721   1.888   4.516   2.596
 5721TIP3    H138722   1.959   4.463   2.559
 5721TIP3    H238723   1.811   4.493   2.544
 5722TIP3   OH238724   6.281   6.149   6.036
 5722TIP3    H138725   6.324   6.064   6.044
 5722TIP3    H238726   6.209   6.145   6.100
 5723TIP3   OH238727   4.577   4.606   0.117
 5723TIP3    H138728   4.595   4.573   0.029
 5723TIP3    H238729   4.526   4.686   0.103
 5724TIP3   OH238730   6.822   2.520   8.617
 5724TIP3    H138731   6.750   2.558   8.566
 5724TIP3    H238732   6.834   2.433   8.580
 5725TIP3   OH238733   6.576   0.114   7.841
 5725TIP3    H138734   6.598   0.206   7.853
 5725TIP3    H238735   6.661   0.070   7.832
 5726TIP3   OH238736   6.357   5.860   0.996
 5726TIP3    H138737   6.339   5.824   0.909
 5726TIP3    H238738   6.373   5.953   0.981
 5727TIP3   OH238739   0.418   0.257   1.494
 5727TIP3    H138740   0.323   0.249   1.502
 5727TIP3    H238741   0.439   0.206   1.415
 5728TIP3   OH238742   4.789   6.600   1.965
 5728TIP3    H138743   4.744   6.618   2.047
 5728TIP3    H238744   4.881   6.618   1.983
 5729TIP3   OH238745   2.194   4.049   8.053
 5729TIP3    H138746   2.118   4.104   8.073
 5729TIP3    H238747   2.232   4.030   8.139
 5730TIP3   OH238748   5.818   5.460   0.719
 5730TIP3    H138749   5.804   5.366   0.707
 5730TIP3    H238750   5.830   5.493   0.630
 5731TIP3   OH238751   3.694   1.023   2.216
 5731TIP3    H138752   3.757   0.983   2.276
 5731TIP3    H238753   3.738   1.023   2.132
 5732TIP3   OH238754   6.722   3.501   8.416
 5732TIP3    H138755   6.658   3.448   8.368
 5732TIP3    H238756   6.669   3.562   8.467
 5733TIP3   OH238757   1.555   1.118   8.151
 5733TIP3    H138758   1.636   1.162   8.124
 5733TIP3    H238759   1.576   1.083   8.238
 5734TIP3   OH238760   1.261   0.218   6.494
 5734TIP3    H138761   1.175   0.180   6.515
 5734TIP3    H238762   1.271   0.203   6.400
 5735TIP3   OH238763   6.151   2.474   1.763
 5735TIP3    H138764   6.196   2.458   1.845
 5735TIP3    H238765   6.080   2.409   1.760
 5736TIP3   OH238766   4.367   6.373   1.183
 5736TIP3    H138767   4.430   6.436   1.148
 5736TIP3    H238768   4.372   6.385   1.278
 5737TIP3   OH238769   4.342   1.541   0.605
 5737TIP3    H138770   4.371   1.496   0.684
 5737TIP3    H238771   4.370   1.632   0.617
 5738TIP3   OH238772   3.563   6.753   7.168
 5738TIP3    H138773   3.485   6.699   7.182
 5738TIP3    H238774   3.540   6.811   7.096
 5739TIP3   OH238775   5.719   4.343   8.017
 5739TIP3    H138776   5.746   4.418   7.965
 5739TIP3    H238777   5.756   4.267   7.972
 5740TIP3   OH238778   6.810   3.611   7.648
 5740TIP3    H138779   6.775   3.522   7.654
 5740TIP3    H238780   0.059   3.601   7.611
 5741TIP3   OH238781   6.100   5.552   0.837
 5741TIP3    H138782   6.015   5.591   0.816
 5741TIP3    H238783   6.110   5.481   0.773
 5742TIP3   OH238784   5.101   2.849   8.235
 5742TIP3    H138785   5.097   2.822   8.143
 5742TIP3    H238786   5.019   2.896   8.250
 5743TIP3   OH238787   4.558   0.494   0.935
 5743TIP3    H138788   4.510   0.416   0.963
 5743TIP3    H238789   4.537   0.560   1.000
 5744TIP3   OH238790   4.962   0.242   0.562
 5744TIP3    H138791   4.970   0.264   0.655
 5744TIP3    H238792   4.882   0.286   0.534
 5745TIP3   OH238793   3.335   1.253   6.976
 5745TIP3    H138794   3.271   1.208   7.032
 5745TIP3    H238795   3.285   1.322   6.932
 5746TIP3   OH238796   4.526   1.796   2.659
 5746TIP3    H138797   4.508   1.742   2.736
 5746TIP3    H238798   4.561   1.734   2.595
 5747TIP3   OH238799   4.576   6.715   1.702
 5747TIP3    H138800   4.584   6.766   1.783
 5747TIP3    H238801   4.545   6.777   1.637
 5748TIP3   OH238802   5.511   4.941   1.123
 5748TIP3    H138803   5.509   5.035   1.141
 5748TIP3    H238804   5.594   4.926   1.078
 5749TIP3   OH238805   3.609   4.761   7.357
 5749TIP3    H138806   3.671   4.690   7.372
 5749TIP3    H238807   3.535   4.719   7.312
 5750TIP3   OH238808   1.761   2.470   1.161
 5750TIP3    H138809   1.725   2.452   1.074
 5750TIP3    H238810   1.801   2.556   1.153
 5751TIP3   OH238811   4.628   2.901   7.142
 5751TIP3    H138812   4.675   2.881   7.061
 5751TIP3    H238813   4.688   2.957   7.191
 5752TIP3   OH238814   4.108   1.930   0.856
 5752TIP3    H138815   4.133   1.861   0.794
 5752TIP3    H238816   4.185   1.943   0.910
 5753TIP3   OH238817   0.494   4.036   8.134
 5753TIP3    H138818   0.490   4.080   8.219
 5753TIP3    H238819   0.583   4.000   8.130
 5754TIP3   OH238820   5.821   5.948   1.797
 5754TIP3    H138821   5.887   5.957   1.865
 5754TIP3    H238822   5.762   6.023   1.810
 5755TIP3   OH238823   3.439   4.937   0.528
 5755TIP3    H138824   3.352   4.958   0.494
 5755TIP3    H238825   3.498   4.950   0.454
 5756TIP3   OH238826   1.478   4.003   8.333
 5756TIP3    H138827   1.466   3.909   8.347
 5756TIP3    H238828   1.564   4.022   8.370
 5757TIP3   OH238829   4.335   2.729   7.773
 5757TIP3    H138830   4.244   2.707   7.750
 5757TIP3    H238831   4.359   2.798   7.711
 5758TIP3   OH238832   2.629   5.638   1.836
 5758TIP3    H138833   2.698   5.583   1.801
 5758TIP3    H238834   2.553   5.580   1.844
 5759TIP3   OH238835   1.148   5.582   7.038
 5759TIP3    H138836   1.087   5.514   7.009
 5759TIP3    H238837   1.094   5.661   7.045
 5760TIP3   OH238838   5.040   4.767   7.603
 5760TIP3    H138839   4.993   4.833   7.653
 5760TIP3    H238840   4.975   4.701   7.583
 5761TIP3   OH238841   6.537   1.042   1.711
 5761TIP3    H138842   6.493   0.960   1.733
 5761TIP3    H238843   6.630   1.024   1.726
 5762TIP3   OH238844   6.065   6.141   8.126
 5762TIP3    H138845   6.076   6.233   8.149
 5762TIP3    H238846   5.976   6.119   8.153
 5763TIP3   OH238847   4.242   6.267   0.072
 5763TIP3    H138848   4.289   6.202   0.125
 5763TIP3    H238849   4.157   6.276   0.115
 5764TIP3   OH238850   1.809   4.943   7.846
 5764TIP3    H138851   1.821   4.963   7.753
 5764TIP3    H238852   1.859   4.863   7.860
 5765TIP3   OH238853   1.162   6.073   8.603
 5765TIP3    H138854   1.113   5.990   8.606
 5765TIP3    H238855   1.244   6.050   8.561
 5766TIP3   OH238856   5.488   2.265   7.862
 5766TIP3    H138857   5.460   2.214   7.939
 5766TIP3    H238858   5.479   2.356   7.889
 5767TIP3   OH238859   0.083   3.722   7.930
 5767TIP3    H138860   0.152   3.766   7.980
 5767TIP3    H238861   0.081   3.768   7.846
 5768TIP3   OH238862   6.589   6.310   2.354
 5768TIP3    H138863   6.620   6.394   2.321
 5768TIP3    H238864   6.494   6.320   2.361
 5769TIP3   OH238865   5.306   1.039   7.011
 5769TIP3    H138866   5.376   1.005   6.956
 5769TIP3    H238867   5.227   0.998   6.977
 5770TIP3   OH238868   0.326   3.597   1.008
 5770TIP3    H138869   0.393   3.647   1.055
 5770TIP3    H238870   0.282   3.663   0.954
 5771TIP3   OH238871   3.820   2.685   7.892
 5771TIP3    H138872   3.810   2.726   7.806
 5771TIP3    H238873   3.912   2.698   7.914
 5772TIP3   OH238874   5.376   2.259   0.697
 5772TIP3    H138875   5.388   2.292   0.608
 5772TIP3    H238876   5.464   2.260   0.735
 5773TIP3   OH238877   3.300   3.613   2.042
 5773TIP3    H138878   3.265   3.531   2.006
 5773TIP3    H238879   3.391   3.614   2.013
 5774TIP3   OH238880   6.082   4.946   1.005
 5774TIP3    H138881   6.068   4.863   1.051
 5774TIP3    H238882   6.163   4.981   1.042
 5775TIP3   OH238883   1.025   4.255   8.733
 5775TIP3    H138884   0.940   4.213   8.722
 5775TIP3    H238885   1.088   4.189   8.704
 5776TIP3   OH238886   6.280   4.986   7.510
 5776TIP3    H138887   6.318   5.074   7.519
 5776TIP3    H238888   6.355   4.927   7.518
 5777TIP3   OH238889   0.781   4.911   8.391
 5777TIP3    H138890   0.821   4.873   8.313
 5777TIP3    H238891   0.690   4.881   8.388
 5778TIP3   OH238892   0.993   4.794   0.574
 5778TIP3    H138893   1.000   4.717   0.518
 5778TIP3    H238894   1.048   4.773   0.650
 5779TIP3   OH238895   3.635   4.718   0.329
 5779TIP3    H138896   3.640   4.814   0.332
 5779TIP3    H238897   3.556   4.697   0.378
 5780TIP3   OH238898   0.691   2.101   1.908
 5780TIP3    H138899   0.713   2.079   1.998
 5780TIP3    H238900   0.718   2.025   1.857
 5781TIP3   OH238901   3.365   6.248   8.736
 5781TIP3    H138902   3.272   6.265   8.723
 5781TIP3    H238903   3.394   6.318   0.011
 5782TIP3   OH238904   0.965   5.746   0.510
 5782TIP3    H138905   1.037   5.796   0.549
 5782TIP3    H238906   0.890   5.765   0.565
 5783TIP3   OH238907   5.958   4.648   6.180
 5783TIP3    H138908   5.929   4.557   6.183
 5783TIP3    H238909   5.886   4.698   6.218
 5784TIP3   OH238910   1.884   6.700   0.153
 5784TIP3    H138911   1.813   6.762   0.141
 5784TIP3    H238912   1.928   6.697   0.068
 5785TIP3   OH238913   1.597   3.841   7.324
 5785TIP3    H138914   1.538   3.787   7.272
 5785TIP3    H238915   1.630   3.781   7.391
 5786TIP3   OH238916   2.505   2.047   7.156
 5786TIP3    H138917   2.599   2.028   7.147
 5786TIP3    H238918   2.466   1.964   7.180
 5787TIP3   OH238919   2.509   2.076   8.120
 5787TIP3    H138920   2.535   2.022   8.045
 5787TIP3    H238921   2.570   2.150   8.119
 5788TIP3   OH238922   5.730   4.351   1.013
 5788TIP3    H138923   5.708   4.267   1.053
 5788TIP3    H238924   5.714   4.339   0.919
 5789TIP3   OH238925   3.093   6.764   6.987
 5789TIP3    H138926   3.145   6.732   6.913
 5789TIP3    H238927   3.026   6.820   6.948
 5790TIP3   OH238928   6.171   0.159   7.361
 5790TIP3    H138929   6.180   0.176   7.455
 5790TIP3    H238930   6.095   0.211   7.334
 5791TIP3   OH238931   3.374   0.897   8.705
 5791TIP3    H138932   3.433   0.851   8.765
 5791TIP3    H238933   3.433   0.947   8.648
 5792TIP3   OH238934   5.489   4.515   0.521
 5792TIP3    H138935   5.441   4.573   0.463
 5792TIP3    H238936   5.485   4.556   0.607
 5793TIP3   OH238937   6.648   2.252   8.755
 5793TIP3    H138938   6.572   2.235   0.028
 5793TIP3    H238939   6.711   2.295   0.030
 5794TIP3   OH238940   3.144   6.515   0.176
 5794TIP3    H138941   3.102   6.581   0.231
 5794TIP3    H238942   3.071   6.462   0.143
 5795TIP3   OH238943   2.664   3.768   1.383
 5795TIP3    H138944   2.728   3.832   1.351
 5795TIP3    H238945   2.648   3.794   1.474
 5796TIP3   OH238946   4.551   0.254   0.670
 5796TIP3    H138947   4.568   0.235   0.762
 5796TIP3    H238948   4.535   0.168   0.630
 5797TIP3   OH238949   2.043   1.674   7.576
 5797TIP3    H138950   1.994   1.668   7.658
 5797TIP3    H238951   1.995   1.738   7.524
 5798TIP3   OH238952   2.220   1.529   1.019
 5798TIP3    H138953   2.262   1.571   1.094
 5798TIP3    H238954   2.145   1.585   1.000
 5799TIP3   OH238955   2.466   5.700   8.023
 5799TIP3    H138956   2.463   5.673   7.931
 5799TIP3    H238957   2.375   5.709   8.048
 5800TIP3   OH238958   5.069   6.109   1.238
 5800TIP3    H138959   4.994   6.134   1.185
 5800TIP3    H238960   5.142   6.103   1.176
 5801TIP3   OH238961   5.769   0.795   7.794
 5801TIP3    H138962   5.778   0.875   7.743
 5801TIP3    H238963   5.678   0.767   7.780
 5802TIP3   OH238964   4.832   2.828   0.206
 5802TIP3    H138965   4.793   2.904   0.164
 5802TIP3    H238966   4.757   2.772   0.228
 5803TIP3   OH238967   5.849   2.218   8.370
 5803TIP3    H138968   5.847   2.218   8.274
 5803TIP3    H238969   5.772   2.268   8.396
 5804TIP3   OH238970   2.671   6.667   8.721
 5804TIP3    H138971   2.690   6.595   8.782
 5804TIP3    H238972   2.757   6.703   8.699
 5805TIP3   OH238973   3.759   5.753   1.147
 5805TIP3    H138974   3.703   5.782   1.074
 5805TIP3    H238975   3.700   5.747   1.222
 5806TIP3   OH238976   3.101   6.203   1.596
 5806TIP3    H138977   3.165   6.136   1.616
 5806TIP3    H238978   3.022   6.154   1.569
 5807TIP3   OH238979   6.431   0.920   7.169
 5807TIP3    H138980   6.490   0.886   7.102
 5807TIP3    H238981   6.378   0.985   7.123
 5808TIP3   OH238982   3.862   2.221   0.436
 5808TIP3    H138983   3.784   2.204   0.384
 5808TIP3    H238984   3.917   2.277   0.381
 5809TIP3   OH238985   2.558   1.048   8.386
 5809TIP3    H138986   2.492   1.014   8.446
 5809TIP3    H238987   2.564   0.983   8.316
 5810TIP3   OH238988   3.008   4.339   1.369
 5810TIP3    H138989   3.045   4.265   1.321
 5810TIP3    H238990   2.972   4.300   1.449
 5811TIP3   OH238991   5.562   4.846   1.370
 5811TIP3    H138992   5.473   4.815   1.386
 5811TIP3    H238993   5.567   4.858   1.276
 5812TIP3   OH238994   6.376   4.495   1.605
 5812TIP3    H138995   6.332   4.433   1.547
 5812TIP3    H238996   6.348   4.471   1.693
 5813TIP3   OH238997   5.589   0.848   0.201
 5813TIP3    H138998   5.554   0.937   0.213
 5813TIP3    H238999   5.611   0.843   0.108
 5814TIP3   OH239000   4.370   5.833   2.330
 5814TIP3    H139001   4.418   5.758   2.296
 5814TIP3    H239002   4.278   5.813   2.314
 5815TIP3   OH239003   5.354   4.754   8.532
 5815TIP3    H139004   5.346   4.683   8.469
 5815TIP3    H239005   5.398   4.824   8.484
 5816TIP3   OH239006   0.050   5.189   8.284
 5816TIP3    H139007   0.143   5.168   8.297
 5816TIP3    H239008   0.040   5.277   8.321
 5817TIP3   OH239009   4.240   0.787   0.632
 5817TIP3    H139010   4.169   0.750   0.580
 5817TIP3    H239011   4.271   0.861   0.579
 5818TIP3   OH239012   0.720   3.665   7.433
 5818TIP3    H139013   0.794   3.680   7.492
 5818TIP3    H239014   0.669   3.596   7.476
 5819TIP3   OH239015   0.002   3.529   0.860
 5819TIP3    H139016   6.770   3.464   0.860
 5819TIP3    H239017   6.802   3.605   0.904
 5820TIP3   OH239018   6.598   5.963   0.776
 5820TIP3    H139019   6.586   5.870   0.795
 5820TIP3    H239020   6.624   6.002   0.860
 5821TIP3   OH239021   3.626   3.545   2.259
 5821TIP3    H139022   3.653   3.554   2.168
 5821TIP3    H239023   3.628   3.634   2.294
 5822TIP3   OH239024   4.495   6.279   0.784
 5822TIP3    H139025   4.590   6.278   0.771
 5822TIP3    H239026   4.464   6.354   0.732
 5823TIP3   OH239027   4.702   1.645   1.488
 5823TIP3    H139028   4.730   1.681   1.572
 5823TIP3    H239029   4.645   1.711   1.451
 5824TIP3   OH239030   2.822   3.320   8.714
 5824TIP3    H139031   2.812   3.287   8.625
 5824TIP3    H239032   2.903   3.372   8.711
 5825TIP3   OH239033   4.085   4.571   8.131
 5825TIP3    H139034   4.060   4.597   8.220
 5825TIP3    H239035   4.151   4.504   8.144
 5826TIP3   OH239036   5.268   1.264   8.415
 5826TIP3    H139037   5.351   1.222   8.437
 5826TIP3    H239038   5.234   1.296   8.498
 5827TIP3   OH239039   6.685   4.054   7.692
 5827TIP3    H139040   6.637   4.137   7.688
 5827TIP3    H239041   6.676   4.026   7.783
 5828TIP3   OH239042   1.925   5.955   1.841
 5828TIP3    H139043   1.942   6.042   1.877
 5828TIP3    H239044   1.839   5.930   1.878
 5829TIP3   OH239045   3.646   5.130   1.484
 5829TIP3    H139046   3.637   5.067   1.556
 5829TIP3    H239047   3.581   5.103   1.420
 5830TIP3   OH239048   3.439   1.522   0.426
 5830TIP3    H139049   3.369   1.583   0.402
 5830TIP3    H239050   3.498   1.523   0.351
 5831TIP3   OH239051   3.929   0.848   8.333
 5831TIP3    H139052   3.993   0.907   8.373
 5831TIP3    H239053   3.882   0.902   8.269
 5832TIP3   OH239054   3.645   6.195   8.690
 5832TIP3    H139055   3.653   6.128   8.759
 5832TIP3    H239056   3.569   6.248   8.717
 5833TIP3   OH239057   2.704   2.777   8.053
 5833TIP3    H139058   2.618   2.744   8.080
 5833TIP3    H239059   2.699   2.780   7.957
 5834TIP3   OH239060   0.653   6.249   1.517
 5834TIP3    H139061   0.670   6.171   1.464
 5834TIP3    H239062   0.559   6.246   1.535
 5835TIP3   OH239063   5.937   1.934   8.760
 5835TIP3    H139064   5.924   1.952   8.667
 5835TIP3    H239065   5.849   1.922   0.012
 5836TIP3   OH239066   0.195   1.882   0.470
 5836TIP3    H139067   0.285   1.913   0.461
 5836TIP3    H239068   0.160   1.930   0.545
 5837TIP3   OH239069   4.533   2.360   0.741
 5837TIP3    H139070   4.554   2.386   0.831
 5837TIP3    H239071   4.555   2.267   0.737
 5838TIP3   OH239072   3.812   2.962   8.635
 5838TIP3    H139073   3.813   2.914   8.552
 5838TIP3    H239074   3.855   3.045   8.615
 5839TIP3   OH239075   0.981   4.954   7.867
 5839TIP3    H139076   1.069   4.941   7.904
 5839TIP3    H239077   0.979   4.897   7.791
 5840TIP3   OH239078   1.477   5.335   0.485
 5840TIP3    H139079   1.454   5.248   0.452
 5840TIP3    H239080   1.547   5.365   0.428
 5841TIP3   OH239081   0.298   1.067   0.139
 5841TIP3    H139082   0.242   1.052   0.062
 5841TIP3    H239083   0.245   1.037   0.213
 5842TIP3   OH239084   1.637   1.295   1.412
 5842TIP3    H139085   1.648   1.206   1.444
 5842TIP3    H239086   1.714   1.342   1.445
 5843TIP3   OH239087   3.135   2.386   1.537
 5843TIP3    H139088   3.055   2.336   1.523
 5843TIP3    H239089   3.164   2.360   1.625
 5844TIP3   OH239090   0.955   3.239   7.709
 5844TIP3    H139091   0.989   3.165   7.658
 5844TIP3    H239092   0.897   3.198   7.773
 5845TIP3   OH239093   0.445   6.782   6.831
 5845TIP3    H139094   0.417   0.028   6.865
 5845TIP3    H239095   0.459   6.728   6.909
 5846TIP3   OH239096   4.021   5.040   2.173
 5846TIP3    H139097   4.082   4.967   2.161
 5846TIP3    H239098   3.951   5.024   2.110
 5847TIP3   OH239099   3.573   4.862   6.887
 5847TIP3    H139100   3.481   4.888   6.899
 5847TIP3    H239101   3.614   4.882   6.971
 5848TIP3   OH239102   4.025   2.125   7.151
 5848TIP3    H139103   3.949   2.184   7.148
 5848TIP3    H239104   4.089   2.166   7.093
 5849TIP3   OH239105   0.621   6.366   8.723
 5849TIP3    H139106   0.570   6.427   8.775
 5849TIP3    H239107   0.571   6.354   8.642
 5850TIP3   OH239108   5.189   5.934   0.466
 5850TIP3    H139109   5.096   5.925   0.487
 5850TIP3    H239110   5.190   5.986   0.385
 5851TIP3   OH239111   2.603   2.179   0.124
 5851TIP3    H139112   2.657   2.138   0.057
 5851TIP3    H239113   2.530   2.218   0.076
 5852TIP3   OH239114   2.889   5.383   8.200
 5852TIP3    H139115   2.878   5.324   8.125
 5852TIP3    H239116   2.838   5.460   8.176
 5853TIP3   OH239117   5.299   0.355   7.852
 5853TIP3    H139118   5.301   0.259   7.857
 5853TIP3    H239119   5.341   0.375   7.768
 5854TIP3   OH239120   1.387   3.759   8.351
 5854TIP3    H139121   1.337   3.729   8.427
 5854TIP3    H239122   1.324   3.762   8.280
 5855TIP3   OH239123   1.310   6.792   1.432
 5855TIP3    H139124   1.259   6.749   1.364
 5855TIP3    H239125   1.279   6.754   1.514
 5856TIP3   OH239126   2.000   0.865   2.010
 5856TIP3    H139127   1.988   0.957   2.033
 5856TIP3    H239128   1.954   0.854   1.927
 5857TIP3   OH239129   0.090   1.682   8.190
 5857TIP3    H139130   0.130   1.624   8.126
 5857TIP3    H239131   0.001   1.649   8.200
 5858TIP3   OH239132   4.865   5.295   0.358
 5858TIP3    H139133   4.880   5.234   0.286
 5858TIP3    H239134   4.854   5.380   0.315
 5859TIP3   OH239135   2.962   0.787   7.782
 5859TIP3    H139136   2.869   0.795   7.804
 5859TIP3    H239137   3.002   0.866   7.819
 5860TIP3   OH239138   3.867   0.768   8.030
 5860TIP3    H139139   3.859   0.673   8.037
 5860TIP3    H239140   3.794   0.802   8.081
 5861TIP3   OH239141   2.433   4.388   1.411
 5861TIP3    H139142   2.477   4.305   1.426
 5861TIP3    H239143   2.486   4.432   1.345
 5862TIP3   OH239144   4.962   5.361   7.763
 5862TIP3    H139145   5.005   5.446   7.763
 5862TIP3    H239146   4.902   5.364   7.688
 5863TIP3   OH239147   4.904   1.192   1.977
 5863TIP3    H139148   4.946   1.193   1.891
 5863TIP3    H239149   4.819   1.234   1.962
 5864TIP3   OH239150   3.260   4.803   1.812
 5864TIP3    H139151   3.210   4.876   1.774
 5864TIP3    H239152   3.266   4.824   1.905
 5865TIP3   OH239153   3.011   3.587   0.271
 5865TIP3    H139154   3.042   3.567   0.182
 5865TIP3    H239155   2.920   3.555   0.272
 5866TIP3   OH239156   3.646   4.761   8.522
 5866TIP3    H139157   3.580   4.828   8.504
 5866TIP3    H239158   3.619   4.723   8.606
 5867TIP3   OH239159   4.493   0.633   1.162
 5867TIP3    H139160   4.514   0.556   1.215
 5867TIP3    H239161   4.397   0.638   1.165
 5868TIP3   OH239162   4.901   1.486   7.917
 5868TIP3    H139163   4.908   1.419   7.849
 5868TIP3    H239164   4.950   1.561   7.882
 5869TIP3   OH239165   5.808   0.763   8.091
 5869TIP3    H139166   5.852   0.844   8.067
 5869TIP3    H239167   5.729   0.761   8.037
 5870TIP3   OH239168   2.266   0.411   2.319
 5870TIP3    H139169   2.200   0.479   2.327
 5870TIP3    H239170   2.345   0.458   2.292
 5871TIP3   OH239171   0.778   6.720   6.813
 5871TIP3    H139172   0.689   6.684   6.809
 5871TIP3    H239173   0.789   6.746   6.904
 5872TIP3   OH239174   4.695   5.722   1.097
 5872TIP3    H139175   4.717   5.683   1.181
 5872TIP3    H239176   4.633   5.792   1.118
 5873TIP3   OH239177   2.603   5.006   7.691
 5873TIP3    H139178   2.610   4.914   7.717
 5873TIP3    H239179   2.529   5.008   7.630
 5874TIP3   OH239180   2.719   1.056   8.067
 5874TIP3    H139181   2.740   0.973   8.023
 5874TIP3    H239182   2.624   1.052   8.082
 5875TIP3   OH239183   3.994   4.986   1.571
 5875TIP3    H139184   3.927   4.922   1.545
 5875TIP3    H239185   4.076   4.936   1.568
 5876TIP3   OH239186   3.573   1.557   7.221
 5876TIP3    H139187   3.481   1.550   7.199
 5876TIP3    H239188   3.599   1.644   7.190
 5877TIP3   OH239189   3.397   4.594   6.915
 5877TIP3    H139190   3.470   4.531   6.912
 5877TIP3    H239191   3.419   4.660   6.850
 5878TIP3   OH239192   3.652   2.219   1.829
 5878TIP3    H139193   3.614   2.133   1.812
 5878TIP3    H239194   3.676   2.218   1.921
 5879TIP3   OH239195   3.144   0.322   0.229
 5879TIP3    H139196   3.130   0.409   0.191
 5879TIP3    H239197   3.206   0.336   0.301
 5880TIP3   OH239198   5.131   3.337   6.768
 5880TIP3    H139199   5.124   3.433   6.769
 5880TIP3    H239200   5.225   3.320   6.762
 5881TIP3   OH239201   0.448   1.631   1.111
 5881TIP3    H139202   0.446   1.542   1.075
 5881TIP3    H239203   0.369   1.638   1.163
 5882TIP3   OH239204   2.641   4.862   1.334
 5882TIP3    H139205   2.691   4.781   1.335
 5882TIP3    H239206   2.631   4.885   1.427
 5883TIP3   OH239207   2.872   5.043   1.120
 5883TIP3    H139208   2.927   4.967   1.141
 5883TIP3    H239209   2.783   5.007   1.116
 5884TIP3   OH239210   2.764   3.695   2.116
 5884TIP3    H139211   2.717   3.777   2.133
 5884TIP3    H239212   2.739   3.638   2.189
 5885TIP3   OH239213   0.922   4.148   7.201
 5885TIP3    H139214   0.994   4.143   7.138
 5885TIP3    H239215   0.873   4.227   7.176
 5886TIP3   OH239216   4.601   6.134   1.812
 5886TIP3    H139217   4.671   6.092   1.762
 5886TIP3    H239218   4.638   6.218   1.840
 5887TIP3   OH239219   6.186   3.059   0.777
 5887TIP3    H139220   6.275   3.091   0.765
 5887TIP3    H239221   6.183   2.977   0.727
 5888TIP3   OH239222   4.433   0.944   1.662
 5888TIP3    H139223   4.397   0.990   1.587
 5888TIP3    H239224   4.366   0.953   1.730
 5889TIP3   OH239225   4.030   5.930   8.666
 5889TIP3    H139226   3.986   5.943   8.582
 5889TIP3    H239227   4.122   5.950   8.649
 5890TIP3   OH239228   1.316   1.455   8.466
 5890TIP3    H139229   1.370   1.377   8.457
 5890TIP3    H239230   1.378   1.527   8.473
 5891TIP3   OH239231   3.463   0.597   8.430
 5891TIP3    H139232   3.457   0.666   8.364
 5891TIP3    H239233   3.395   0.534   8.405
 5892TIP3   OH239234   1.843   1.499   1.081
 5892TIP3    H139235   1.851   1.493   1.176
 5892TIP3    H239236   1.773   1.562   1.066
 5893TIP3   OH239237   2.702   4.590   7.534
 5893TIP3    H139238   2.720   4.664   7.477
 5893TIP3    H239239   2.780   4.583   7.589
 5894TIP3   OH239240   1.983   3.894   8.444
 5894TIP3    H139241   1.960   3.820   8.501
 5894TIP3    H239242   1.992   3.855   8.357
 5895TIP3   OH239243   5.270   5.928   0.081
 5895TIP3    H139244   5.238   5.846   0.041
 5895TIP3    H239245   5.362   5.932   0.056
 5896TIP3   OH239246   1.931   6.068   8.230
 5896TIP3    H139247   2.024   6.082   8.249
 5896TIP3    H239248   1.891   6.153   8.248
 5897TIP3   OH239249   2.698   0.390   7.772
 5897TIP3    H139250   2.747   0.347   7.842
 5897TIP3    H239251   2.683   0.322   7.707
 5898TIP3   OH239252   5.989   6.441   1.411
 5898TIP3    H139253   5.968   6.525   1.453
 5898TIP3    H239254   5.931   6.378   1.454
 5899TIP3   OH239255   5.709   1.754   7.132
 5899TIP3    H139256   5.720   1.680   7.074
 5899TIP3    H239257   5.789   1.806   7.120
 5900TIP3   OH239258   4.215   1.485   8.571
 5900TIP3    H139259   4.284   1.538   8.530
 5900TIP3    H239260   4.161   1.548   8.617
 5901TIP3   OH239261   4.220   1.129   0.277
 5901TIP3    H139262   4.244   1.206   0.328
 5901TIP3    H239263   4.173   1.165   0.201
 5902TIP3   OH239264   6.027   0.405   7.806
 5902TIP3    H139265   6.021   0.324   7.857
 5902TIP3    H239266   6.090   0.459   7.855
 5903TIP3   OH239267   4.194   4.707   7.458
 5903TIP3    H139268   4.221   4.735   7.370
 5903TIP3    H239269   4.240   4.625   7.472
 5904TIP3   OH239270   2.453   2.597   0.978
 5904TIP3    H139271   2.532   2.645   1.003
 5904TIP3    H239272   2.486   2.523   0.926
 5905TIP3   OH239273   6.343   0.848   0.749
 5905TIP3    H139274   6.338   0.909   0.675
 5905TIP3    H239275   6.433   0.856   0.780
 5906TIP3   OH239276   6.807   3.905   1.089
 5906TIP3    H139277   6.724   3.864   1.063
 5906TIP3    H239278   6.829   3.864   1.173
 5907TIP3   OH239279   4.080   0.361   0.007
 5907TIP3    H139280   3.993   0.322   0.003
 5907TIP3    H239281   4.064   0.455   0.015
 5908TIP3   OH239282   6.422   0.787   8.321
 5908TIP3    H139283   6.486   0.748   8.381
 5908TIP3    H239284   6.347   0.808   8.376
 5909TIP3   OH239285   2.229   5.257   2.228
 5909TIP3    H139286   2.212   5.339   2.276
 5909TIP3    H239287   2.146   5.236   2.186
 5910TIP3   OH239288   2.541   0.778   0.579
 5910TIP3    H139289   2.465   0.795   0.524
 5910TIP3    H239290   2.614   0.768   0.517
 5911TIP3   OH239291   1.336   5.626   1.707
 5911TIP3    H139292   1.338   5.667   1.621
 5911TIP3    H239293   1.426   5.634   1.740
 5912TIP3   OH239294   2.189   1.318   8.058
 5912TIP3    H139295   2.170   1.356   7.972
 5912TIP3    H239296   2.284   1.310   8.061
 5913TIP3   OH239297   6.113   6.371   7.422
 5913TIP3    H139298   6.057   6.448   7.429
 5913TIP3    H239299   6.112   6.332   7.510
 5914TIP3   OH239300   0.384   0.488   1.886
 5914TIP3    H139301   0.447   0.444   1.828
 5914TIP3    H239302   0.436   0.553   1.932
 5915TIP3   OH239303   0.474   4.835   8.191
 5915TIP3    H139304   0.381   4.824   8.169
 5915TIP3    H239305   0.481   4.802   8.281
 5916TIP3   OH239306   0.655   4.176   0.508
 5916TIP3    H139307   0.729   4.116   0.495
 5916TIP3    H239308   0.691   4.248   0.558
 5917TIP3   OH239309   4.140   0.571   7.302
 5917TIP3    H139310   4.069   0.617   7.345
 5917TIP3    H239311   4.180   0.518   7.371
 5918TIP3   OH239312   1.521   5.813   0.793
 5918TIP3    H139313   1.586   5.875   0.825
 5918TIP3    H239314   1.517   5.829   0.699
 5919TIP3   OH239315   6.084   4.204   1.211
 5919TIP3    H139316   6.107   4.166   1.126
 5919TIP3    H239317   6.030   4.137   1.253
 5920TIP3   OH239318   0.339   6.175   7.031
 5920TIP3    H139319   0.311   6.091   6.994
 5920TIP3    H239320   0.279   6.189   7.104
 5921TIP3   OH239321   3.987   5.383   2.201
 5921TIP3    H139322   3.950   5.443   2.265
 5921TIP3    H239323   3.998   5.301   2.248
 5922TIP3   OH239324   2.732   0.080   1.661
 5922TIP3    H139325   2.818   0.056   1.694
 5922TIP3    H239326   2.729   0.176   1.669
 5923TIP3   OH239327   2.925   3.936   1.339
 5923TIP3    H139328   2.948   3.994   1.267
 5923TIP3    H239329   2.976   3.856   1.323
 5924TIP3   OH239330   5.623   2.360   8.428
 5924TIP3    H139331   5.618   2.439   8.375
 5924TIP3    H239332   5.546   2.309   8.403
 5925TIP3   OH239333   2.255   5.862   8.104
 5925TIP3    H139334   2.252   5.871   8.200
 5925TIP3    H239335   2.273   5.950   8.072
 5926TIP3   OH239336   6.140   4.815   6.047
 5926TIP3    H139337   6.077   4.746   6.069
 5926TIP3    H239338   6.122   4.885   6.110
 5927TIP3   OH239339   0.755   3.343   6.810
 5927TIP3    H139340   0.825   3.398   6.774
 5927TIP3    H239341   0.744   3.272   6.747
 5928TIP3   OH239342   2.459   6.285   1.740
 5928TIP3    H139343   2.507   6.324   1.814
 5928TIP3    H239344   2.375   6.258   1.777
 5929TIP3   OH239345   0.221   6.471   8.200
 5929TIP3    H139346   0.302   6.425   8.177
 5929TIP3    H239347   0.159   6.444   8.133
 5930TIP3   OH239348   3.578   2.033   1.098
 5930TIP3    H139349   3.510   2.080   1.049
 5930TIP3    H239350   3.536   2.007   1.180
 5931TIP3   OH239351   2.178   6.623   7.794
 5931TIP3    H139352   2.170   6.718   7.791
 5931TIP3    H239353   2.094   6.593   7.829
 5932TIP3   OH239354   2.918   5.661   6.788
 5932TIP3    H139355   2.911   5.569   6.760
 5932TIP3    H239356   2.981   5.699   6.727
 5933TIP3   OH239357   2.731   5.081   0.439
 5933TIP3    H139358   2.776   5.008   0.480
 5933TIP3    H239359   2.789   5.156   0.453
 5934TIP3   OH239360   1.203   3.139   8.003
 5934TIP3    H139361   1.174   3.194   8.076
 5934TIP3    H239362   1.283   3.181   7.971
 5935TIP3   OH239363   2.555   4.034   0.949
 5935TIP3    H139364   2.646   4.012   0.928
 5935TIP3    H239365   2.549   4.128   0.935
 5936TIP3   OH239366   3.592   0.688   6.552
 5936TIP3    H139367   3.676   0.728   6.531
 5936TIP3    H239368   3.613   0.621   6.618
 5937TIP3   OH239369   4.175   4.812   7.917
 5937TIP3    H139370   4.105   4.798   7.981
 5937TIP3    H239371   4.256   4.799   7.967
 5938TIP3   OH239372   5.301   4.826   0.275
 5938TIP3    H139373   5.337   4.830   0.186
 5938TIP3    H239374   5.377   4.812   0.331
 5939TIP3   OH239375   0.285   5.984   0.968
 5939TIP3    H139376   0.299   6.010   1.059
 5939TIP3    H239377   0.372   5.990   0.928
 5940TIP3   OH239378   4.893   1.907   8.308
 5940TIP3    H139379   4.810   1.910   8.356
 5940TIP3    H239380   4.919   1.815   8.308
 5941TIP3   OH239381   3.423   5.598   2.307
 5941TIP3    H139382   3.496   5.648   2.343
 5941TIP3    H239383   3.437   5.599   2.213
 5942TIP3   OH239384   2.938   3.907   0.331
 5942TIP3    H139385   3.026   3.873   0.349
 5942TIP3    H239386   2.896   3.839   0.278
 5943TIP3   OH239387   3.336   5.485   8.308
 5943TIP3    H139388   3.422   5.445   8.321
 5943TIP3    H239389   3.274   5.412   8.317
 5944TIP3   OH239390   3.171   0.511   1.149
 5944TIP3    H139391   3.261   0.499   1.179
 5944TIP3    H239392   3.120   0.450   1.201
 5945TIP3   OH239393   4.545   3.519   7.493
 5945TIP3    H139394   4.524   3.461   7.421
 5945TIP3    H239395   4.585   3.462   7.559
 5946TIP3   OH239396   4.393   4.123   1.046
 5946TIP3    H139397   4.471   4.071   1.031
 5946TIP3    H239398   4.332   4.096   0.977
 5947TIP3   OH239399   3.691   1.648   1.899
 5947TIP3    H139400   3.671   1.700   1.821
 5947TIP3    H239401   3.785   1.660   1.913
 5948TIP3   OH239402   0.528   6.596   1.413
 5948TIP3    H139403   0.467   6.585   1.486
 5948TIP3    H239404   0.515   6.519   1.358
 5949TIP3   OH239405   3.607   5.696   7.137
 5949TIP3    H139406   3.611   5.600   7.132
 5949TIP3    H239407   3.685   5.725   7.089
 5950TIP3   OH239408   3.075   1.813   8.127
 5950TIP3    H139409   3.049   1.838   8.039
 5950TIP3    H239410   3.074   1.717   8.126
 5951TIP3   OH239411   5.107   3.467   2.169
 5951TIP3    H139412   5.199   3.441   2.178
 5951TIP3    H239413   5.059   3.384   2.165
 5952TIP3   OH239414   3.815   1.716   0.768
 5952TIP3    H139415   3.766   1.720   0.685
 5952TIP3    H239416   3.874   1.791   0.764
 5953TIP3   OH239417   1.968   2.439   8.476
 5953TIP3    H139418   2.011   2.512   8.520
 5953TIP3    H239419   1.926   2.390   8.547
 5954TIP3   OH239420   3.330   6.692   1.945
 5954TIP3    H139421   3.377   6.738   1.875
 5954TIP3    H239422   3.379   6.714   2.025
 5955TIP3   OH239423   1.130   2.707   1.446
 5955TIP3    H139424   1.151   2.624   1.403
 5955TIP3    H239425   1.051   2.688   1.496
 5956TIP3   OH239426   2.024   4.256   7.727
 5956TIP3    H139427   2.010   4.177   7.778
 5956TIP3    H239428   2.070   4.226   7.648
 5957TIP3   OH239429   3.014   5.834   1.389
 5957TIP3    H139430   3.077   5.901   1.361
 5957TIP3    H239431   2.929   5.880   1.388
 5958TIP3   OH239432   6.654   5.196   0.166
 5958TIP3    H139433   6.722   5.140   0.127
 5958TIP3    H239434   6.697   5.281   0.177
 5959TIP3   OH239435   6.387   2.785   8.755
 5959TIP3    H139436   6.472   2.773   0.016
 5959TIP3    H239437   6.377   2.879   8.748
 5960TIP3   OH239438   5.426   4.606   0.784
 5960TIP3    H139439   5.399   4.697   0.785
 5960TIP3    H239440   5.368   4.563   0.847
 5961TIP3   OH239441   1.848   5.860   0.718
 5961TIP3    H139442   1.830   5.789   0.655
 5961TIP3    H239443   1.826   5.940   0.669
 5962TIP3   OH239444   3.547   3.625   8.227
 5962TIP3    H139445   3.488   3.696   8.201
 5962TIP3    H239446   3.525   3.607   8.318
 5963TIP3   OH239447   0.756   2.029   0.591
 5963TIP3    H139448   0.740   2.018   0.497
 5963TIP3    H239449   0.679   2.078   0.622
 5964TIP3   OH239450   4.028   6.008   6.737
 5964TIP3    H139451   4.063   6.050   6.658
 5964TIP3    H239452   3.937   5.988   6.716
 5965TIP3   OH239453   0.008   3.261   7.509
 5965TIP3    H139454   6.762   3.296   7.481
 5965TIP3    H239455   0.062   3.338   7.525
 5966TIP3   OH239456   1.351   0.348   0.327
 5966TIP3    H139457   1.276   0.301   0.290
 5966TIP3    H239458   1.427   0.295   0.300
 5967TIP3   OH239459   4.677   2.037   2.052
 5967TIP3    H139460   4.744   2.046   1.985
 5967TIP3    H239461   4.698   1.954   2.095
 5968TIP3   OH239462   0.993   0.177   6.641
 5968TIP3    H139463   0.917   0.120   6.628
 5968TIP3    H239464   1.044   0.134   6.710
 5969TIP3   OH239465   3.014   5.622   1.556
 5969TIP3    H139466   2.925   5.618   1.591
 5969TIP3    H239467   3.012   5.699   1.498
 5970TIP3   OH239468   2.101   3.316   7.070
 5970TIP3    H139469   2.012   3.307   7.103
 5970TIP3    H239470   2.151   3.351   7.144
 5971TIP3   OH239471   2.403   2.226   8.724
 5971TIP3    H139472   2.404   2.295   8.658
 5971TIP3    H239473   2.421   2.146   8.676
 5972TIP3   OH239474   3.537   1.259   1.105
 5972TIP3    H139475   3.627   1.245   1.137
 5972TIP3    H239476   3.544   1.336   1.049
 5973TIP3   OH239477   4.476   4.060   8.394
 5973TIP3    H139478   4.478   3.965   8.407
 5973TIP3    H239479   4.388   4.077   8.360
 5974TIP3   OH239480   5.670   5.400   0.341
 5974TIP3    H139481   5.737   5.334   0.357
 5974TIP3    H239482   5.660   5.401   0.246
 5975TIP3   OH239483   3.905   1.516   8.552
 5975TIP3    H139484   3.889   1.449   8.486
 5975TIP3    H239485   3.872   1.597   8.514
 5976TIP3   OH239486   4.573   2.835   8.666
 5976TIP3    H139487   4.634   2.890   8.617
 5976TIP3    H239488   4.627   2.767   8.704
 5977TIP3   OH239489   1.046   2.942   7.898
 5977TIP3    H139490   1.095   3.024   7.906
 5977TIP3    H239491   0.988   2.941   7.974
 5978TIP3   OH239492   3.318   5.237   6.893
 5978TIP3    H139493   3.396   5.196   6.929
 5978TIP3    H239494   3.268   5.264   6.970
 5979TIP3   OH239495   5.996   1.423   8.079
 5979TIP3    H139496   6.000   1.503   8.131
 5979TIP3    H239497   6.005   1.453   7.988
 5980TIP3   OH239498   3.373   0.746   7.221
 5980TIP3    H139499   3.417   0.667   7.254
 5980TIP3    H239500   3.399   0.814   7.283
 5981TIP3   OH239501   6.806   1.403   8.566
 5981TIP3    H139502   6.781   1.359   8.648
 5981TIP3    H239503   6.833   1.490   8.593
 5982TIP3   OH239504   2.754   0.970   1.583
 5982TIP3    H139505   2.819   0.911   1.620
 5982TIP3    H239506   2.704   1.001   1.659
 5983TIP3   OH239507   1.819   5.364   0.773
 5983TIP3    H139508   1.771   5.445   0.790
 5983TIP3    H239509   1.768   5.320   0.705
 5984TIP3   OH239510   2.296   0.965   7.646
 5984TIP3    H139511   2.387   0.961   7.617
 5984TIP3    H239512   2.249   1.006   7.573
 5985TIP3   OH239513   0.278   2.407   7.092
 5985TIP3    H139514   0.341   2.335   7.097
 5985TIP3    H239515   0.282   2.449   7.178
 5986TIP3   OH239516   1.029   0.222   0.560
 5986TIP3    H139517   1.040   0.291   0.494
 5986TIP3    H239518   0.956   0.169   0.527
 5987TIP3   OH239519   3.650   5.387   1.390
 5987TIP3    H139520   3.661   5.307   1.441
 5987TIP3    H239521   3.734   5.400   1.347
 5988TIP3   OH239522   4.103   4.162   0.063
 5988TIP3    H139523   4.164   4.224   0.104
 5988TIP3    H239524   4.021   4.173   0.113
 5989TIP3   OH239525   6.110   2.063   1.200
 5989TIP3    H139526   6.185   2.022   1.157
 5989TIP3    H239527   6.080   1.997   1.263
 5990TIP3   OH239528   1.071   4.267   0.802
 5990TIP3    H139529   1.122   4.343   0.774
 5990TIP3    H239530   1.103   4.195   0.748
 5991TIP3   OH239531   3.162   5.690   0.933
 5991TIP3    H139532   3.144   5.694   1.027
 5991TIP3    H239533   3.112   5.615   0.902
 5992TIP3   OH239534   4.463   5.398   1.974
 5992TIP3    H139535   4.468   5.303   1.963
 5992TIP3    H239536   4.395   5.411   2.040
 5993TIP3   OH239537   3.905   1.029   0.428
 5993TIP3    H139538   3.869   1.060   0.345
 5993TIP3    H239539   3.835   1.046   0.492
 5994TIP3   OH239540   0.890   1.660   7.278
 5994TIP3    H139541   0.839   1.586   7.311
 5994TIP3    H239542   0.855   1.736   7.323
 5995TIP3   OH239543   1.686   1.266   7.341
 5995TIP3    H139544   1.775   1.256   7.307
 5995TIP3    H239545   1.631   1.266   7.263
 5996TIP3   OH239546   5.531   4.087   0.687
 5996TIP3    H139547   5.569   4.100   0.600
 5996TIP3    H239548   5.440   4.066   0.670
 5997TIP3   OH239549   2.902   2.604   2.594
 5997TIP3    H139550   2.968   2.536   2.607
 5997TIP3    H239551   2.874   2.592   2.503
 5998TIP3   OH239552   0.268   3.562   7.787
 5998TIP3    H139553   0.213   3.626   7.833
 5998TIP3    H239554   0.252   3.479   7.833
 5999TIP3   OH239555   0.936   6.625   8.552
 5999TIP3    H139556   0.861   6.678   8.526
 5999TIP3    H239557   0.899   6.554   8.604
 6000TIP3   OH239558   3.022   1.204   7.199
 6000TIP3    H139559   2.945   1.165   7.159
 6000TIP3    H239560   3.095   1.151   7.168
 6001TIP3   OH239561   3.299   0.831   8.269
 6001TIP3    H139562   3.249   0.841   8.351
 6001TIP3    H239563   3.258   0.757   8.225
 6002TIP3   OH239564   0.322   2.285   8.304
 6002TIP3    H139565   0.271   2.251   8.230
 6002TIP3    H239566   0.397   2.226   8.310
 6003TIP3   OH239567   0.321   0.413   0.239
 6003TIP3    H139568   0.292   0.397   0.329
 6003TIP3    H239569   0.411   0.381   0.237
 6004TIP3   OH239570   5.481   3.873   7.552
 6004TIP3    H139571   5.461   3.780   7.543
 6004TIP3    H239572   5.516   3.899   7.467
 6005TIP3   OH239573   4.034   1.649   0.215
 6005TIP3    H139574   4.058   1.596   0.290
 6005TIP3    H239575   4.107   1.711   0.205
 6006TIP3   OH239576   4.059   0.314   1.265
 6006TIP3    H139577   3.988   0.257   1.293
 6006TIP3    H239578   4.064   0.381   1.333
 6007TIP3   OH239579   1.412   3.516   7.799
 6007TIP3    H139580   1.479   3.508   7.731
 6007TIP3    H239581   1.330   3.500   7.753
 6008TIP3   OH239582   3.151   3.116   2.655
 6008TIP3    H139583   3.201   3.152   2.581
 6008TIP3    H239584   3.201   3.142   2.733
 6009TIP3   OH239585   2.776   0.029   0.736
 6009TIP3    H139586   2.857   0.039   0.684
 6009TIP3    H239587   2.781   6.778   0.770
 6010TIP3   OH239588   3.513   2.108   0.680
 6010TIP3    H139589   3.507   2.022   0.639
 6010TIP3    H239590   3.436   2.155   0.648
 6011TIP3   OH239591   4.593   0.331   6.845
 6011TIP3    H139592   4.671   0.376   6.812
 6011TIP3    H239593   4.606   0.240   6.822
 6012TIP3   OH239594   1.891   0.615   1.527
 6012TIP3    H139595   1.943   0.583   1.453
 6012TIP3    H239596   1.951   0.613   1.601
 6013TIP3   OH239597   3.962   6.311   7.433
 6013TIP3    H139598   4.030   6.259   7.390
 6013TIP3    H239599   4.003   6.396   7.449
 6014TIP3   OH239600   3.412   6.731   1.050
 6014TIP3    H139601   3.475   6.778   0.995
 6014TIP3    H239602   3.407   6.643   1.012
 6015TIP3   OH239603   2.534   0.223   7.268
 6015TIP3    H139604   2.620   0.260   7.246
 6015TIP3    H239605   2.484   0.229   7.186
 6016TIP3   OH239606   6.526   3.430   6.442
 6016TIP3    H139607   6.562   3.371   6.509
 6016TIP3    H239608   6.602   3.480   6.411
 6017TIP3   OH239609   3.188   4.505   0.548
 6017TIP3    H139610   3.152   4.509   0.637
 6017TIP3    H239611   3.114   4.476   0.494
 6018TIP3   OH239612   4.237   2.337   0.423
 6018TIP3    H139613   4.210   2.300   0.339
 6018TIP3    H239614   4.174   2.408   0.439
 6019TIP3   OH239615   0.164   5.391   8.434
 6019TIP3    H139616   0.259   5.379   8.440
 6019TIP3    H239617   0.152   5.483   8.414
 6020TIP3   OH239618   6.669   2.027   6.933
 6020TIP3    H139619   6.749   2.076   6.914
 6020TIP3    H239620   6.634   2.003   6.847
 6021TIP3   OH239621   2.953   0.865   6.576
 6021TIP3    H139622   2.895   0.869   6.652
 6021TIP3    H239623   3.032   0.911   6.603
 6022TIP3   OH239624   5.059   3.272   1.281
 6022TIP3    H139625   5.000   3.331   1.235
 6022TIP3    H239626   5.146   3.297   1.250
 6023TIP3   OH239627   0.805   1.587   8.290
 6023TIP3    H139628   0.754   1.514   8.324
 6023TIP3    H239629   0.810   1.649   8.363
 6024TIP3   OH239630   2.424   1.175   0.441
 6024TIP3    H139631   2.396   1.230   0.515
 6024TIP3    H239632   2.477   1.234   0.388
 6025TIP3   OH239633   5.059   6.235   0.588
 6025TIP3    H139634   5.126   6.217   0.653
 6025TIP3    H239635   5.049   6.330   0.589
 6026TIP3   OH239636   3.377   1.591   8.392
 6026TIP3    H139637   3.293   1.545   8.395
 6026TIP3    H239638   3.415   1.577   8.479
 6027TIP3   OH239639   6.148   2.841   0.587
 6027TIP3    H139640   6.158   2.756   0.630
 6027TIP3    H239641   6.065   2.833   0.539
 6028TIP3   OH239642   5.068   6.493   1.179
 6028TIP3    H139643   5.022   6.531   1.253
 6028TIP3    H239644   5.158   6.481   1.210
 6029TIP3   OH239645   0.298   5.553   6.813
 6029TIP3    H139646   0.299   5.635   6.763
 6029TIP3    H239647   0.223   5.505   6.778
 6030TIP3   OH239648   4.936   4.505   0.501
 6030TIP3    H139649   4.882   4.550   0.437
 6030TIP3    H239650   5.026   4.530   0.479
 6031TIP3   OH239651   1.888   2.295   6.606
 6031TIP3    H139652   1.955   2.316   6.672
 6031TIP3    H239653   1.872   2.201   6.618
 6032TIP3   OH239654   5.840   5.201   7.057
 6032TIP3    H139655   5.782   5.276   7.069
 6032TIP3    H239656   5.881   5.215   6.972
 6033TIP3   OH239657   3.356   4.345   7.767
 6033TIP3    H139658   3.326   4.430   7.799
 6033TIP3    H239659   3.418   4.315   7.833
 6034TIP3   OH239660   0.449   0.983   0.422
 6034TIP3    H139661   0.393   0.916   0.383
 6034TIP3    H239662   0.468   0.950   0.510
 6035TIP3   OH239663   6.042   6.455   0.034
 6035TIP3    H139664   6.044   6.527   0.096
 6035TIP3    H239665   6.092   6.487   8.741
 6036TIP3   OH239666   3.723   1.800   1.391
 6036TIP3    H139667   3.799   1.756   1.353
 6036TIP3    H239668   3.649   1.771   1.337
 6037TIP3   OH239669   0.692   2.185   7.291
 6037TIP3    H139670   0.678   2.096   7.256
 6037TIP3    H239671   0.708   2.239   7.213
 6038TIP3   OH239672   1.060   6.003   1.080
 6038TIP3    H139673   0.985   5.994   1.022
 6038TIP3    H239674   1.136   5.998   1.022
 6039TIP3   OH239675   2.698   2.798   7.790
 6039TIP3    H139676   2.689   2.882   7.746
 6039TIP3    H239677   2.745   2.743   7.728
 6040TIP3   OH239678   6.764   2.293   1.944
 6040TIP3    H139679   6.801   2.227   1.886
 6040TIP3    H239680   0.002   2.338   1.982
 6041TIP3   OH239681   2.661   4.251   7.205
 6041TIP3    H139682   2.610   4.313   7.258
 6041TIP3    H239683   2.626   4.262   7.116
 6042TIP3   OH239684   5.402   3.665   8.085
 6042TIP3    H139685   5.352   3.616   8.149
 6042TIP3    H239686   5.420   3.749   8.127
 6043TIP3   OH239687   0.827   3.688   7.889
 6043TIP3    H139688   0.772   3.739   7.829
 6043TIP3    H239689   0.791   3.600   7.885
 6044TIP3   OH239690   6.133   2.287   0.666
 6044TIP3    H139691   6.126   2.259   0.575
 6044TIP3    H239692   6.156   2.207   0.714
 6045TIP3   OH239693   1.402   2.563   7.413
 6045TIP3    H139694   1.370   2.479   7.381
 6045TIP3    H239695   1.327   2.603   7.456
 6046TIP3   OH239696   5.397   1.497   8.313
 6046TIP3    H139697   5.465   1.449   8.265
 6046TIP3    H239698   5.392   1.453   8.398
 6047TIP3   OH239699   2.403   0.390   1.703
 6047TIP3    H139700   2.366   0.435   1.779
 6047TIP3    H239701   2.334   0.392   1.638
 6048TIP3   OH239702   3.804   0.600   8.335
 6048TIP3    H139703   3.733   0.641   8.286
 6048TIP3    H239704   3.866   0.670   8.351
 6049TIP3   OH239705   3.941   0.222   0.863
 6049TIP3    H139706   3.995   0.298   0.841
 6049TIP3    H239707   3.931   0.175   0.780
 6050TIP3   OH239708   1.480   2.684   8.088
 6050TIP3    H139709   1.432   2.768   8.086
 6050TIP3    H239710   1.458   2.642   8.005
 6051TIP3   OH239711   5.074   1.876   1.797
 6051TIP3    H139712   5.079   1.831   1.713
 6051TIP3    H239713   5.165   1.896   1.819
 6052TIP3   OH239714   1.537   4.626   2.131
 6052TIP3    H139715   1.473   4.683   2.174
 6052TIP3    H239716   1.554   4.667   2.046
 6053TIP3   OH239717   2.691   1.595   7.419
 6053TIP3    H139718   2.633   1.547   7.360
 6053TIP3    H239719   2.744   1.650   7.362
 6054TIP3   OH239720   5.745   0.455   7.614
 6054TIP3    H139721   5.762   0.477   7.706
 6054TIP3    H239722   5.732   0.539   7.571
 6055TIP3   OH239723   3.893   4.588   6.964
 6055TIP3    H139724   3.919   4.508   6.917
 6055TIP3    H239725   3.802   4.572   6.990
 6056TIP3   OH239726   6.394   5.296   6.320
 6056TIP3    H139727   6.438   5.344   6.391
 6056TIP3    H239728   6.464   5.277   6.257
 6057TIP3   OH239729   1.584   5.002   7.989
 6057TIP3    H139730   1.679   4.986   7.985
 6057TIP3    H239731   1.546   4.932   7.936
 6058TIP3   OH239732   4.596   5.772   1.806
 6058TIP3    H139733   4.688   5.752   1.786
 6058TIP3    H239734   4.547   5.729   1.736
 6059TIP3   OH239735   3.229   3.619   1.143
 6059TIP3    H139736   3.161   3.686   1.144
 6059TIP3    H239737   3.312   3.667   1.143
 6060TIP3   OH239738   4.223   1.811   7.677
 6060TIP3    H139739   4.165   1.845   7.746
 6060TIP3    H239740   4.212   1.716   7.680
 6061TIP3   OH239741   4.548   4.842   0.583
 6061TIP3    H139742   4.523   4.778   0.650
 6061TIP3    H239743   4.554   4.925   0.631
 6062TIP3   OH239744   5.393   2.006   2.256
 6062TIP3    H139745   5.412   2.097   2.235
 6062TIP3    H239746   5.437   1.956   2.187
 6063TIP3   OH239747   6.795   0.247   7.280
 6063TIP3    H139748   6.743   0.192   7.223
 6063TIP3    H239749   6.790   0.204   7.366
 6064TIP3   OH239750   2.560   6.555   6.693
 6064TIP3    H139751   2.616   6.599   6.757
 6064TIP3    H239752   2.574   6.462   6.710
 6065TIP3   OH239753   2.726   5.699   1.029
 6065TIP3    H139754   2.651   5.747   0.994
 6065TIP3    H239755   2.716   5.706   1.124
 6066TIP3   OH239756   0.762   4.016   7.807
 6066TIP3    H139757   0.822   4.090   7.799
 6066TIP3    H239758   0.764   3.992   7.899
 6067TIP3   OH239759   4.974   0.482   1.703
 6067TIP3    H139760   4.970   0.536   1.782
 6067TIP3    H239761   5.063   0.447   1.703
 6068TIP3   OH239762   4.047   2.506   1.804
 6068TIP3    H139763   4.116   2.475   1.862
 6068TIP3    H239764   4.014   2.427   1.762
 6069TIP3   OH239765   5.158   4.663   8.179
 6069TIP3    H139766   5.241   4.694   8.143
 6069TIP3    H239767   5.183   4.620   8.261
 6070TIP3   OH239768   1.780   4.341   7.649
 6070TIP3    H139769   1.875   4.336   7.654
 6070TIP3    H239770   1.758   4.308   7.562
 6071TIP3   OH239771   4.197   2.406   6.991
 6071TIP3    H139772   4.246   2.443   6.917
 6071TIP3    H239773   4.171   2.482   7.042
 6072TIP3   OH239774   0.307   2.678   1.560
 6072TIP3    H139775   0.275   2.597   1.602
 6072TIP3    H239776   0.269   2.676   1.473
 6073TIP3   OH239777   3.525   3.315   1.473
 6073TIP3    H139778   3.489   3.392   1.430
 6073TIP3    H239779   3.449   3.271   1.511
 6074TIP3   OH239780   3.196   1.182   2.655
 6074TIP3    H139781   3.208   1.121   2.582
 6074TIP3    H239782   3.251   1.257   2.632
 6075TIP3   OH239783   6.036   1.488   6.813
 6075TIP3    H139784   5.992   1.412   6.851
 6075TIP3    H239785   6.126   1.459   6.800
 6076TIP3   OH239786   6.694   5.071   2.060
 6076TIP3    H139787   6.786   5.089   2.078
 6076TIP3    H239788   6.677   4.987   2.104
 6077TIP3   OH239789   4.719   0.565   8.732
 6077TIP3    H139790   4.668   0.487   8.711
 6077TIP3    H239791   4.700   0.582   0.041
 6078TIP3   OH239792   3.665   4.248   1.775
 6078TIP3    H139793   3.753   4.273   1.747
 6078TIP3    H239794   3.676   4.224   1.867
 6079TIP3   OH239795   1.083   1.902   1.183
 6079TIP3    H139796   1.114   1.921   1.095
 6079TIP3    H239797   1.087   1.986   1.229
 6080TIP3   OH239798   6.074   6.180   8.680
 6080TIP3    H139799   6.014   6.246   8.714
 6080TIP3    H239800   6.018   6.115   8.638
 6081TIP3   OH239801   2.782   2.995   1.250
 6081TIP3    H139802   2.830   2.996   1.333
 6081TIP3    H239803   2.741   2.909   1.247
 6082TIP3   OH239804   0.060   1.583   1.477
 6082TIP3    H139805   0.154   1.583   1.492
 6082TIP3    H239806   0.049   1.616   1.388
 6083TIP3   OH239807   3.094   3.396   2.785
 6083TIP3    H139808   3.014   3.446   2.802
 6083TIP3    H239809   3.132   3.437   2.708
 6084TIP3   OH239810   5.146   2.537   1.176
 6084TIP3    H139811   5.095   2.618   1.178
 6084TIP3    H239812   5.112   2.486   1.250
 6085TIP3   OH239813   5.493   4.861   0.443
 6085TIP3    H139814   5.508   4.955   0.445
 6085TIP3    H239815   5.580   4.823   0.457
 6086TIP3   OH239816   1.237   5.629   8.212
 6086TIP3    H139817   1.300   5.701   8.219
 6086TIP3    H239818   1.261   5.584   8.131
 6087TIP3   OH239819   2.052   4.817   7.714
 6087TIP3    H139820   2.115   4.758   7.672
 6087TIP3    H239821   2.104   4.866   7.778
 6088TIP3   OH239822   2.224   5.986   8.530
 6088TIP3    H139823   2.227   5.898   8.492
 6088TIP3    H239824   2.130   6.005   8.538
 6089TIP3   OH239825   1.722   2.350   1.565
 6089TIP3    H139826   1.700   2.381   1.653
 6089TIP3    H239827   1.637   2.344   1.520
 6090TIP3   OH239828   6.602   1.024   2.392
 6090TIP3    H139829   6.620   0.941   2.348
 6090TIP3    H239830   6.555   0.999   2.472
 6091TIP3   OH239831   5.671   5.425   7.029
 6091TIP3    H139832   5.702   5.516   7.021
 6091TIP3    H239833   5.577   5.433   7.043
 6092TIP3   OH239834   5.589   2.527   7.871
 6092TIP3    H139835   5.613   2.619   7.861
 6092TIP3    H239836   5.671   2.479   7.860
 6093TIP3   OH239837   2.717   1.247   6.407
 6093TIP3    H139838   2.708   1.330   6.454
 6093TIP3    H239839   2.808   1.221   6.421
 6094TIP3   OH239840   2.410   4.599   1.586
 6094TIP3    H139841   2.397   4.532   1.519
 6094TIP3    H239842   2.325   4.609   1.628
 6095TIP3   OH239843   5.883   5.719   1.702
 6095TIP3    H139844   5.921   5.667   1.772
 6095TIP3    H239845   5.880   5.808   1.736
 6096TIP3   OH239846   4.605   4.441   0.695
 6096TIP3    H139847   4.548   4.508   0.732
 6096TIP3    H239848   4.613   4.464   0.602
 6097TIP3   OH239849   5.340   3.651   8.466
 6097TIP3    H139850   5.322   3.738   8.503
 6097TIP3    H239851   5.284   3.592   8.517
 6098TIP3   OH239852   6.626   0.828   7.982
 6098TIP3    H139853   6.589   0.814   7.895
 6098TIP3    H239854   6.701   0.768   7.986
 6099TIP3   OH239855   3.998   0.756   7.564
 6099TIP3    H139856   3.946   0.791   7.636
 6099TIP3    H239857   3.941   0.690   7.524
 6100TIP3   OH239858   2.644   0.891   1.298
 6100TIP3    H139859   2.688   0.919   1.377
 6100TIP3    H239860   2.690   0.934   1.227
 6101TIP3   OH239861   4.652   3.742   7.244
 6101TIP3    H139862   4.574   3.764   7.192
 6101TIP3    H239863   4.679   3.656   7.211
 6102TIP3   OH239864   6.603   4.449   6.349
 6102TIP3    H139865   6.658   4.399   6.289
 6102TIP3    H239866   6.586   4.390   6.422
 6103TIP3   OH239867   6.581   4.433   0.080
 6103TIP3    H139868   6.630   4.355   0.053
 6103TIP3    H239869   6.597   4.496   0.010
 6104TIP3   OH239870   0.745   3.931   8.096
 6104TIP3    H139871   0.804   3.966   8.162
 6104TIP3    H239872   0.764   3.837   8.094
 6105TIP3   OH239873   2.675   3.872   1.636
 6105TIP3    H139874   2.770   3.880   1.640
 6105TIP3    H239875   2.651   3.824   1.715
 6106TIP3   OH239876   4.677   0.655   1.408
 6106TIP3    H139877   4.662   0.742   1.371
 6106TIP3    H239878   4.661   0.667   1.502
 6107TIP3   OH239879   1.638   1.979   0.291
 6107TIP3    H139880   1.675   2.057   0.251
 6107TIP3    H239881   1.629   2.001   0.384
 6108TIP3   OH239882   4.803   4.202   0.136
 6108TIP3    H139883   4.802   4.211   0.231
 6108TIP3    H239884   4.819   4.109   0.120
 6109TIP3   OH239885   2.495   1.205   7.610
 6109TIP3    H139886   2.401   1.200   7.624
 6109TIP3    H239887   2.514   1.133   7.550
 6110TIP3   OH239888   4.261   3.322   0.902
 6110TIP3    H139889   4.337   3.314   0.845
 6110TIP3    H239890   4.288   3.382   0.971
 6111TIP3   OH239891   2.411   2.197   6.256
 6111TIP3    H139892   2.338   2.251   6.224
 6111TIP3    H239893   2.418   2.126   6.191
 6112TIP3   OH239894   1.296   0.462   1.236
 6112TIP3    H139895   1.271   0.395   1.172
 6112TIP3    H239896   1.218   0.516   1.245
 6113TIP3   OH239897   6.732   0.570   0.029
 6113TIP3    H139898   6.715   0.477   0.013
 6113TIP3    H239899   6.774   0.601   8.731
 6114TIP3   OH239900   2.608   1.585   1.203
 6114TIP3    H139901   2.636   1.587   1.295
 6114TIP3    H239902   2.535   1.524   1.201
 6115TIP3   OH239903   2.923   3.158   8.068
 6115TIP3    H139904   2.854   3.127   8.127
 6115TIP3    H239905   2.877   3.210   8.003
 6116TIP3   OH239906   3.317   1.051   1.641
 6116TIP3    H139907   3.370   1.022   1.716
 6116TIP3    H239908   3.229   1.018   1.660
 6117TIP3   OH239909   0.008   6.009   8.025
 6117TIP3    H139910   6.783   6.081   8.032
 6117TIP3    H239911   0.090   6.046   8.058
 6118TIP3   OH239912   3.710   4.179   6.650
 6118TIP3    H139913   3.697   4.262   6.605
 6118TIP3    H239914   3.804   4.162   6.643
 6119TIP3   OH239915   0.617   2.599   7.206
 6119TIP3    H139916   0.663   2.527   7.163
 6119TIP3    H239917   0.671   2.620   7.282
 6120TIP3   OH239918   3.231   6.439   7.081
 6120TIP3    H139919   3.147   6.419   7.122
 6120TIP3    H239920   3.220   6.414   6.989
 6121TIP3   OH239921   4.782   6.013   6.456
 6121TIP3    H139922   4.726   6.081   6.419
 6121TIP3    H239923   4.723   5.956   6.506
 6122TIP3   OH239924   2.640   6.008   7.807
 6122TIP3    H139925   2.704   6.075   7.831
 6122TIP3    H239926   2.585   5.998   7.885
 6123TIP3   OH239927   0.979   0.881   1.197
 6123TIP3    H139928   0.954   0.870   1.105
 6123TIP3    H239929   0.897   0.875   1.245
 6124TIP3   OH239930   4.138   1.305   7.684
 6124TIP3    H139931   4.158   1.216   7.656
 6124TIP3    H239932   4.066   1.295   7.747
 6125TIP3   OH239933   6.118   6.116   0.528
 6125TIP3    H139934   6.192   6.176   0.521
 6125TIP3    H239935   6.101   6.110   0.622
 6126TIP3   OH239936   1.327   2.461   0.935
 6126TIP3    H139937   1.353   2.398   1.001
 6126TIP3    H239938   1.409   2.487   0.892
 6127TIP3   OH239939   0.764   0.832   1.449
 6127TIP3    H139940   0.721   0.873   1.374
 6127TIP3    H239941   0.694   0.787   1.496
 6128TIP3   OH239942   4.173   3.217   8.516
 6128TIP3    H139943   4.245   3.278   8.526
 6128TIP3    H239944   4.214   3.131   8.517
 6129TIP3   OH239945   5.425   3.090   8.393
 6129TIP3    H139946   5.509   3.079   8.348
 6129TIP3    H239947   5.378   3.009   8.375
 6130TIP3   OH239948   3.900   3.485   7.224
 6130TIP3    H139949   3.940   3.487   7.137
 6130TIP3    H239950   3.946   3.553   7.273
 6131TIP3   OH239951   4.247   0.143   0.680
 6131TIP3    H139952   4.302   0.100   0.615
 6131TIP3    H239953   4.176   0.181   0.630
 6132TIP3   OH239954   1.327   6.156   0.292
 6132TIP3    H139955   1.293   6.067   0.292
 6132TIP3    H239956   1.366   6.167   0.205
 6133TIP3   OH239957   1.692   4.683   0.120
 6133TIP3    H139958   1.666   4.769   0.152
 6133TIP3    H239959   1.648   4.621   0.179
 6134TIP3   OH239960   5.965   4.452   1.111
 6134TIP3    H139961   5.874   4.438   1.087
 6134TIP3    H239962   5.991   4.371   1.155
 6135TIP3   OH239963   2.252   5.438   1.316
 6135TIP3    H139964   2.229   5.347   1.296
 6135TIP3    H239965   2.237   5.446   1.410
 6136TIP3   OH239966   3.552   6.791   0.035
 6136TIP3    H139967   3.587   0.036   0.065
 6136TIP3    H239968   3.618   6.726   0.061
 6137TIP3   OH239969   3.355   5.901   6.523
 6137TIP3    H139970   3.434   5.863   6.484
 6137TIP3    H239971   3.363   5.995   6.506
 6138TIP3   OH239972   2.595   3.317   1.265
 6138TIP3    H139973   2.591   3.296   1.172
 6138TIP3    H239974   2.643   3.400   1.269
 6139TIP3   OH239975   3.720   5.102   7.649
 6139TIP3    H139976   3.796   5.157   7.630
 6139TIP3    H239977   3.753   5.013   7.644
 6140TIP3   OH239978   4.603   6.601   7.481
 6140TIP3    H139979   4.539   6.550   7.531
 6140TIP3    H239980   4.580   6.585   7.389
 6141TIP3   OH239981   3.124   5.110   0.918
 6141TIP3    H139982   3.205   5.060   0.929
 6141TIP3    H239983   3.108   5.148   1.004
 6142TIP3   OH239984   6.211   5.094   7.067
 6142TIP3    H139985   6.182   5.155   7.000
 6142TIP3    H239986   6.264   5.030   7.020
 6143TIP3   OH239987   3.178   6.218   0.207
 6143TIP3    H139988   3.177   6.219   0.111
 6143TIP3    H239989   3.106   6.275   0.233
 6144TIP3   OH239990   0.653   3.149   8.485
 6144TIP3    H139991   0.657   3.186   8.573
 6144TIP3    H239992   0.712   3.204   8.433
 6145TIP3   OH239993   6.582   3.595   7.049
 6145TIP3    H139994   6.625   3.610   7.134
 6145TIP3    H239995   6.545   3.680   7.026
 6146TIP3   OH239996   5.864   3.174   7.562
 6146TIP3    H139997   5.919   3.096   7.563
 6146TIP3    H239998   5.776   3.141   7.541
 6147TIP3   OH239999   1.302   0.566   0.149
 6147TIP3    H140000   1.397   0.573   0.145
 6147TIP3    H240001   1.286   0.495   0.212
 6148TIP3   OH240002   0.190   0.835   7.601
 6148TIP3    H140003   0.173   0.928   7.618
 6148TIP3    H240004   0.175   0.825   7.507
 6149TIP3   OH240005   0.851   2.236   7.807
 6149TIP3    H140006   0.862   2.228   7.901
 6149TIP3    H240007   0.837   2.146   7.777
 6150TIP3   OH240008   2.912   1.424   6.832
 6150TIP3    H140009   2.882   1.335   6.816
 6150TIP3    H240010   3.007   1.421   6.817
 6151TIP3   OH240011   3.722   2.317   8.281
 6151TIP3    H140012   3.653   2.330   8.346
 6151TIP3    H240013   3.762   2.404   8.271
 6152TIP3   OH240014   6.055   6.587   0.855
 6152TIP3    H140015   5.977   6.556   0.809
 6152TIP3    H240016   6.043   6.559   0.945
 6153TIP3   OH240017   2.654   2.151   1.084
 6153TIP3    H140018   2.572   2.193   1.061
 6153TIP3    H240019   2.681   2.104   1.005
 6154TIP3   OH240020   6.014   0.233   6.555
 6154TIP3    H140021   5.980   0.145   6.538
 6154TIP3    H240022   6.088   0.242   6.495
 6155TIP3   OH240023   6.581   0.252   0.369
 6155TIP3    H140024   6.609   0.163   0.348
 6155TIP3    H240025   6.509   0.240   0.432
 6156TIP3   OH240026   3.875   2.991   0.140
 6156TIP3    H140027   3.865   2.963   0.049
 6156TIP3    H240028   3.969   2.980   0.159
 6157TIP3   OH240029   1.033   0.696   1.892
 6157TIP3    H140030   1.120   0.668   1.922
 6157TIP3    H240031   1.042   0.790   1.878
 6158TIP3   OH240032   3.004   0.965   1.227
 6158TIP3    H140033   2.981   0.967   1.134
 6158TIP3    H240034   3.010   0.871   1.247
 6159TIP3   OH240035   5.820   6.187   0.300
 6159TIP3    H140036   5.820   6.092   0.289
 6159TIP3    H240037   5.791   6.201   0.390
 6160TIP3   OH240038   3.910   2.847   0.731
 6160TIP3    H140039   3.993   2.850   0.684
 6160TIP3    H240040   3.922   2.779   0.798
 6161TIP3   OH240041   3.254   6.792   0.450
 6161TIP3    H140042   3.175   6.752   0.413
 6161TIP3    H240043   3.285   6.727   0.514
 6162TIP3   OH240044   3.573   1.537   1.624
 6162TIP3    H140045   3.558   1.629   1.599
 6162TIP3    H240046   3.552   1.487   1.545
 6163TIP3   OH240047   5.653   6.725   0.637
 6163TIP3    H140048   5.717   6.659   0.662
 6163TIP3    H240049   5.670   6.799   0.695
 6164TIP3   OH240050   5.954   2.280   7.512
 6164TIP3    H140051   6.043   2.252   7.488
 6164TIP3    H240052   5.901   2.256   7.437
 6165TIP3   OH240053   3.463   4.561   1.601
 6165TIP3    H140054   3.551   4.561   1.638
 6165TIP3    H240055   3.457   4.479   1.553
 6166TIP3   OH240056   0.650   4.844   7.666
 6166TIP3    H140057   0.653   4.813   7.757
 6166TIP3    H240058   0.720   4.796   7.622
 6167TIP3   OH240059   1.512   4.877   8.310
 6167TIP3    H140060   1.598   4.837   8.304
 6167TIP3    H240061   1.463   4.839   8.237
 6168TIP3   OH240062   4.142   2.063   0.567
 6168TIP3    H140063   4.062   2.030   0.525
 6168TIP3    H240064   4.126   2.157   0.576
 6169TIP3   OH240065   4.927   5.347   1.744
 6169TIP3    H140066   4.972   5.274   1.787
 6169TIP3    H240067   4.869   5.305   1.680
 6170TIP3   OH240068   5.137   2.176   0.625
 6170TIP3    H140069   5.230   2.165   0.643
 6170TIP3    H240070   5.122   2.271   0.631
 6171TIP3   OH240071   4.664   2.831   2.043
 6171TIP3    H140072   4.619   2.832   2.128
 6171TIP3    H240073   4.725   2.904   2.047
 6172TIP3   OH240074   1.956   4.684   1.192
 6172TIP3    H140075   2.016   4.611   1.209
 6172TIP3    H240076   1.877   4.643   1.158
 6173TIP3   OH240077   5.140   2.972   1.682
 6173TIP3    H140078   5.166   3.057   1.717
 6173TIP3    H240079   5.117   2.989   1.591
 6174TIP3   OH240080   0.027   2.635   0.244
 6174TIP3    H140081   0.098   2.571   0.254
 6174TIP3    H240082   0.035   2.691   0.321
 6175TIP3   OH240083   4.913   2.700   1.427
 6175TIP3    H140084   4.946   2.749   1.352
 6175TIP3    H240085   4.880   2.767   1.487
 6176TIP3   OH240086   2.537   4.967   0.006
 6176TIP3    H140087   2.506   5.026   8.720
 6176TIP3    H240088   2.485   4.887   8.776
 6177TIP3   OH240089   0.221   5.239   7.296
 6177TIP3    H140090   0.190   5.208   7.382
 6177TIP3    H240091   0.314   5.216   7.295
 6178TIP3   OH240092   6.238   4.465   6.643
 6178TIP3    H140093   6.185   4.476   6.564
 6178TIP3    H240094   6.287   4.384   6.629
 6179TIP3   OH240095   4.633   5.518   7.952
 6179TIP3    H140096   4.670   5.556   7.872
 6179TIP3    H240097   4.540   5.508   7.933
 6180TIP3   OH240098   3.935   5.594   1.024
 6180TIP3    H140099   3.871   5.648   1.071
 6180TIP3    H240100   3.992   5.657   0.980
 6181TIP3   OH240101   2.360   0.797   1.274
 6181TIP3    H140102   2.321   0.854   1.341
 6181TIP3    H240103   2.453   0.819   1.276
 6182TIP3   OH240104   1.969   0.428   1.308
 6182TIP3    H140105   2.046   0.385   1.344
 6182TIP3    H240106   1.900   0.361   1.311
 6183TIP3   OH240107   0.275   4.913   6.603
 6183TIP3    H140108   0.189   4.904   6.645
 6183TIP3    H240109   0.306   4.823   6.594
 6184TIP3   OH240110   6.386   1.921   1.838
 6184TIP3    H140111   6.309   1.881   1.878
 6184TIP3    H240112   6.354   2.002   1.799
 6185TIP3   OH240113   0.136   4.711   0.460
 6185TIP3    H140114   0.220   4.748   0.487
 6185TIP3    H240115   0.080   4.719   0.537
 6186TIP3   OH240116   0.629   0.549   7.673
 6186TIP3    H140117   0.576   0.474   7.698
 6186TIP3    H240118   0.656   0.588   7.756
 6187TIP3   OH240119   5.785   1.657   1.345
 6187TIP3    H140120   5.718   1.605   1.300
 6187TIP3    H240121   5.821   1.713   1.276
 6188TIP3   OH240122   2.754   1.538   8.110
 6188TIP3    H140123   2.842   1.557   8.080
 6188TIP3    H240124   2.698   1.597   8.059
 6189TIP3   OH240125   2.805   1.879   2.599
 6189TIP3    H140126   2.810   1.882   2.695
 6189TIP3    H240127   2.820   1.969   2.572
 6190TIP3   OH240128   0.639   4.354   0.262
 6190TIP3    H140129   0.691   4.421   0.218
 6190TIP3    H240130   0.703   4.304   0.313
 6191TIP3   OH240131   6.034   1.788   0.952
 6191TIP3    H140132   6.070   1.705   0.986
 6191TIP3    H240133   5.957   1.804   1.006
 6192TIP3   OH240134   2.618   6.351   0.360
 6192TIP3    H140135   2.541   6.346   0.416
 6192TIP3    H240136   2.594   6.304   0.281
 6193TIP3   OH240137   6.022   2.442   8.404
 6193TIP3    H140138   5.940   2.460   8.357
 6193TIP3    H240139   6.091   2.471   8.344
 6194TIP3   OH240140   5.160   0.010   7.597
 6194TIP3    H140141   5.085   6.805   7.638
 6194TIP3    H240142   5.188   6.788   7.528
 6195TIP3   OH240143   5.442   0.896   0.666
 6195TIP3    H140144   5.418   0.975   0.616
 6195TIP3    H240145   5.410   0.824   0.612
 6196TIP3   OH240146   4.331   2.524   8.375
 6196TIP3    H140147   4.298   2.583   8.443
 6196TIP3    H240148   4.420   2.502   8.403
 6197TIP3   OH240149   3.652   0.546   0.343
 6197TIP3    H140150   3.728   0.580   0.391
 6197TIP3    H240151   3.690   0.500   0.269
 6198TIP3   OH240152   1.136   1.508   8.264
 6198TIP3    H140153   1.195   1.496   8.338
 6198TIP3    H240154   1.107   1.599   8.270
 6199TIP3   OH240155   0.614   5.207   6.711
 6199TIP3    H140156   0.687   5.216   6.650
 6199TIP3    H240157   0.536   5.208   6.656
 6200TIP3   OH240158   6.228   3.175   7.724
 6200TIP3    H140159   6.240   3.097   7.670
 6200TIP3    H240160   6.312   3.189   7.766
 6201TIP3   OH240161   5.089   1.660   6.642
 6201TIP3    H140162   5.061   1.684   6.730
 6201TIP3    H240163   5.145   1.733   6.614
 6202TIP3   OH240164   1.665   1.543   7.874
 6202TIP3    H140165   1.664   1.609   7.804
 6202TIP3    H240166   1.595   1.571   7.934
 6203TIP3   OH240167   4.238   4.016   8.269
 6203TIP3    H140168   4.185   4.071   8.211
 6203TIP3    H240169   4.225   3.927   8.235
 6204TIP3   OH240170   0.813   2.636   8.474
 6204TIP3    H140171   0.731   2.641   8.525
 6204TIP3    H240172   0.882   2.639   8.540
 6205TIP3   OH240173   0.494   6.013   1.181
 6205TIP3    H140174   0.541   6.000   1.099
 6205TIP3    H240175   0.451   5.929   1.199
 6206TIP3   OH240176   2.122   6.523   1.361
 6206TIP3    H140177   2.190   6.483   1.415
 6206TIP3    H240178   2.137   6.617   1.369
 6207TIP3   OH240179   5.291   6.733   1.400
 6207TIP3    H140180   5.340   6.722   1.319
 6207TIP3    H240181   5.330   6.669   1.460
 6208TIP3   OH240182   5.792   5.523   1.966
 6208TIP3    H140183   5.867   5.466   1.952
 6208TIP3    H240184   5.788   5.536   2.060
 6209TIP3   OH240185   0.637   2.440   0.049
 6209TIP3    H140186   0.592   2.407   8.754
 6209TIP3    H240187   0.721   2.396   0.049
 6210TIP3   OH240188   4.533   0.031   8.546
 6210TIP3    H140189   4.449   0.044   8.501
 6210TIP3    H240190   4.595   0.009   8.476
 6211TIP3   OH240191   1.499   2.497   1.283
 6211TIP3    H140192   1.579   2.517   1.234
 6211TIP3    H240193   1.441   2.571   1.265
 6212TIP3   OH240194   1.965   2.614   6.932
 6212TIP3    H140195   1.974   2.699   6.891
 6212TIP3    H240196   1.871   2.595   6.927
 6213TIP3   OH240197   3.857   1.469   0.490
 6213TIP3    H140198   3.774   1.443   0.450
 6213TIP3    H240199   3.847   1.448   0.583
 6214TIP3   OH240200   1.459   2.321   8.088
 6214TIP3    H140201   1.368   2.300   8.065
 6214TIP3    H240202   1.506   2.316   8.004
 6215TIP3   OH240203   5.940   1.909   6.969
 6215TIP3    H140204   5.987   1.957   6.901
 6215TIP3    H240205   5.874   1.859   6.923
 6216TIP3   OH240206   0.406   5.821   8.018
 6216TIP3    H140207   0.350   5.795   7.945
 6216TIP3    H240208   0.380   5.763   8.090
 6217TIP3   OH240209   2.093   2.005   8.674
 6217TIP3    H140210   2.148   2.060   8.730
 6217TIP3    H240211   2.015   1.988   8.727
 6218TIP3   OH240212   1.013   4.527   8.645
 6218TIP3    H140213   1.042   4.547   8.557
 6218TIP3    H240214   1.039   4.435   8.658
 6219TIP3   OH240215   1.271   0.193   7.338
 6219TIP3    H140216   1.355   0.238   7.341
 6219TIP3    H240217   1.227   0.219   7.419
 6220TIP3   OH240218   6.148   5.647   1.431
 6220TIP3    H140219   6.232   5.691   1.444
 6220TIP3    H240220   6.164   5.583   1.361
 6221TIP3   OH240221   4.850   0.911   1.972
 6221TIP3    H140222   4.779   0.967   1.940
 6221TIP3    H240223   4.918   0.972   2.000
 6222TIP3   OH240224   3.395   3.483   0.406
 6222TIP3    H140225   3.451   3.469   0.482
 6222TIP3    H240226   3.456   3.496   0.334
 6223TIP3   OH240227   0.536   5.882   6.936
 6223TIP3    H140228   0.627   5.873   6.909
 6223TIP3    H240229   0.538   5.938   7.013
 6224TIP3   OH240230   5.721   4.224   7.643
 6224TIP3    H140231   5.640   4.186   7.678
 6224TIP3    H240232   5.692   4.293   7.584
 6225TIP3   OH240233   6.464   1.522   8.263
 6225TIP3    H140234   6.460   1.534   8.168
 6225TIP3    H240235   6.554   1.547   8.286
 6226TIP3   OH240236   5.663   1.914   0.746
 6226TIP3    H140237   5.687   1.887   0.657
 6226TIP3    H240238   5.583   1.865   0.765
 6227TIP3   OH240239   4.878   1.255   8.686
 6227TIP3    H140240   4.819   1.314   8.734
 6227TIP3    H240241   4.899   1.186   8.750
 6228TIP3   OH240242   6.770   6.663   7.693
 6228TIP3    H140243   6.681   6.664   7.658
 6228TIP3    H240244   6.766   6.720   7.769
 6229TIP3   OH240245   0.882   3.787   0.627
 6229TIP3    H140246   0.801   3.758   0.586
 6229TIP3    H240247   0.854   3.846   0.697
 6230TIP3   OH240248   0.394   3.332   1.080
 6230TIP3    H140249   0.457   3.363   1.145
 6230TIP3    H240250   0.369   3.411   1.032
 6231TIP3   OH240251   6.050   4.189   8.030
 6231TIP3    H140252   5.980   4.207   7.967
 6231TIP3    H240253   6.050   4.093   8.038
 6232TIP3   OH240254   6.158   0.555   2.750
 6232TIP3    H140255   6.131   0.466   2.775
 6232TIP3    H240256   6.103   0.612   2.803
 6233TIP3   OH240257   3.559   1.534   0.036
 6233TIP3    H140258   3.466   1.515   0.042
 6233TIP3    H240259   3.565   1.612   8.764
 6234TIP3   OH240260   4.469   4.110   6.943
 6234TIP3    H140261   4.537   4.166   6.979
 6234TIP3    H240262   4.387   4.146   6.977
 6235TIP3   OH240263   1.193   0.408   7.505
 6235TIP3    H140264   1.145   0.458   7.439
 6235TIP3    H240265   1.233   0.474   7.561
 6236TIP3   OH240266   6.467   5.618   7.442
 6236TIP3    H140267   6.510   5.605   7.526
 6236TIP3    H240268   6.524   5.679   7.395
 6237TIP3   OH240269   0.242   5.063   1.451
 6237TIP3    H140270   0.241   5.103   1.538
 6237TIP3    H240271   0.225   4.970   1.467
 6238TIP3   OH240272   3.783   5.449   0.840
 6238TIP3    H140273   3.860   5.499   0.867
 6238TIP3    H240274   3.791   5.365   0.886
 6239TIP3   OH240275   4.224   6.497   6.322
 6239TIP3    H140276   4.263   6.580   6.294
 6239TIP3    H240277   4.147   6.523   6.372
 6240TIP3   OH240278   2.445   6.120   0.684
 6240TIP3    H140279   2.469   6.177   0.611
 6240TIP3    H240280   2.358   6.087   0.662
 6241TIP3   OH240281   1.787   5.422   8.263
 6241TIP3    H140282   1.783   5.442   8.356
 6241TIP3    H240283   1.749   5.334   8.256
 6242TIP3   OH240284   4.909   0.317   7.877
 6242TIP3    H140285   4.973   0.303   7.807
 6242TIP3    H240286   4.937   0.259   7.948
 6243TIP3   OH240287   0.173   3.092   8.735
 6243TIP3    H140288   0.122   3.170   8.756
 6243TIP3    H240289   0.193   3.101   8.642
 6244TIP3   OH240290   3.246   2.497   7.056
 6244TIP3    H140291   3.264   2.583   7.094
 6244TIP3    H240292   3.153   2.482   7.073
 6245TIP3   OH240293   1.387   5.380   7.137
 6245TIP3    H140294   1.343   5.456   7.099
 6245TIP3    H240295   1.371   5.310   7.073
 6246TIP3   OH240296   4.563   3.884   1.724
 6246TIP3    H140297   4.501   3.821   1.761
 6246TIP3    H240298   4.542   3.967   1.768
 6247TIP3   OH240299   0.332   6.392   1.005
 6247TIP3    H140300   0.323   6.371   0.913
 6247TIP3    H240301   0.295   6.480   1.013
 6248TIP3   OH240302   2.261   6.465   2.052
 6248TIP3    H140303   2.289   6.373   2.059
 6248TIP3    H240304   2.168   6.460   2.029
 6249TIP3   OH240305   4.529   0.215   7.814
 6249TIP3    H140306   4.568   0.246   7.896
 6249TIP3    H240307   4.436   0.238   7.821
 6250TIP3   OH240308   6.502   4.550   7.067
 6250TIP3    H140309   6.426   4.521   7.017
 6250TIP3    H240310   6.545   4.470   7.096
 6251TIP3   OH240311   2.772   1.282   0.761
 6251TIP3    H140312   2.736   1.194   0.758
 6251TIP3    H240313   2.701   1.339   0.731
 6252TIP3   OH240314   5.649   2.794   7.827
 6252TIP3    H140315   5.710   2.851   7.872
 6252TIP3    H240316   5.565   2.841   7.830
 6253TIP3   OH240317   5.244   2.455   7.991
 6253TIP3    H140318   5.154   2.423   7.982
 6253TIP3    H240319   5.254   2.517   7.919
 6254TIP3   OH240320   5.184   6.414   8.284
 6254TIP3    H140321   5.219   6.486   8.338
 6254TIP3    H240322   5.096   6.443   8.261
 6255TIP3   OH240323   0.602   4.783   8.772
 6255TIP3    H140324   0.663   4.726   8.725
 6255TIP3    H240325   0.586   4.737   0.072
 6256TIP3   OH240326   0.608   1.348   6.955
 6256TIP3    H140327   0.637   1.293   7.028
 6256TIP3    H240328   0.679   1.342   6.891
 6257TIP3   OH240329   5.740   2.533   6.893
 6257TIP3    H140330   5.755   2.567   6.804
 6257TIP3    H240331   5.754   2.609   6.949
 6258TIP3   OH240332   2.422   0.977   7.086
 6258TIP3    H140333   2.505   0.965   7.131
 6258TIP3    H240334   2.446   1.019   7.003
 6259TIP3   OH240335   4.737   1.795   1.709
 6259TIP3    H140336   4.667   1.859   1.705
 6259TIP3    H240337   4.812   1.843   1.744
 6260TIP3   OH240338   0.122   2.956   1.705
 6260TIP3    H140339   0.211   2.948   1.669
 6260TIP3    H240340   0.087   2.867   1.704
 6261TIP3   OH240341   1.940   0.351   7.408
 6261TIP3    H140342   1.920   0.406   7.332
 6261TIP3    H240343   2.035   0.337   7.403
 6262TIP3   OH240344   2.943   1.500   7.758
 6262TIP3    H140345   2.856   1.471   7.730
 6262TIP3    H240346   2.955   1.585   7.715
 6263TIP3   OH240347   0.684   5.456   1.397
 6263TIP3    H140348   0.636   5.539   1.407
 6263TIP3    H240349   0.676   5.414   1.483
 6264TIP3   OH240350   3.116   4.057   8.508
 6264TIP3    H140351   3.052   3.995   8.543
 6264TIP3    H240352   3.200   4.010   8.512
 6265TIP3   OH240353   4.395   5.678   1.109
 6265TIP3    H140354   4.346   5.654   1.187
 6265TIP3    H240355   4.365   5.618   1.041
 6266TIP3   OH240356   2.803   1.701   0.098
 6266TIP3    H140357   2.711   1.677   0.091
 6266TIP3    H240358   2.804   1.796   0.101
 6267TIP3   OH240359   6.820   1.853   8.013
 6267TIP3    H140360   6.834   1.812   7.928
 6267TIP3    H240361   0.013   1.788   8.076
 6268TIP3   OH240362   5.702   6.801   2.705
 6268TIP3    H140363   5.719   0.056   2.719
 6268TIP3    H240364   5.760   6.777   2.633
 6269TIP3   OH240365   5.698   4.239   7.265
 6269TIP3    H140366   5.617   4.284   7.244
 6269TIP3    H240367   5.765   4.284   7.213
 6270TIP3   OH240368   6.614   4.682   0.941
 6270TIP3    H140369   6.708   4.665   0.945
 6270TIP3    H240370   6.574   4.595   0.948
 6271TIP3   OH240371   5.105   4.283   8.152
 6271TIP3    H140372   5.041   4.354   8.156
 6271TIP3    H240373   5.053   4.203   8.161
 6272TIP3   OH240374   0.098   0.048   0.397
 6272TIP3    H140375   0.155   6.809   0.391
 6272TIP3    H240376   0.018   0.022   0.352
 6273TIP3   OH240377   3.059   2.854   6.678
 6273TIP3    H140378   3.007   2.932   6.702
 6273TIP3    H240379   3.110   2.881   6.602
 6274TIP3   OH240380   2.173   6.632   7.068
 6274TIP3    H140381   2.174   6.723   7.039
 6274TIP3    H240382   2.081   6.614   7.090
 6275TIP3   OH240383   4.753   6.046   8.602
 6275TIP3    H140384   4.699   5.976   8.565
 6275TIP3    H240385   4.827   6.053   8.542
 6276TIP3   OH240386   0.473   4.115   8.418
 6276TIP3    H140387   0.406   4.052   8.442
 6276TIP3    H240388   0.556   4.067   8.427
 6277TIP3   OH240389   5.629   1.381   0.262
 6277TIP3    H140390   5.610   1.472   0.283
 6277TIP3    H240391   5.701   1.358   0.322
 6278TIP3   OH240392   4.907   5.680   7.923
 6278TIP3    H140393   4.825   5.725   7.904
 6278TIP3    H240394   4.893   5.638   8.007
 6279TIP3   OH240395   1.541   5.014   1.841
 6279TIP3    H140396   1.627   5.056   1.848
 6279TIP3    H240397   1.503   5.050   1.761
 6280TIP3   OH240398   5.191   1.553   1.608
 6280TIP3    H140399   5.195   1.469   1.563
 6280TIP3    H240400   5.280   1.568   1.639
 6281TIP3   OH240401   0.611   1.762   2.450
 6281TIP3    H140402   0.655   1.688   2.408
 6281TIP3    H240403   0.565   1.723   2.524
 6282TIP3   OH240404   2.892   4.886   2.618
 6282TIP3    H140405   2.984   4.912   2.616
 6282TIP3    H240406   2.888   4.816   2.682
 6283TIP3   OH240407   3.665   3.373   1.714
 6283TIP3    H140408   3.614   3.318   1.655
 6283TIP3    H240409   3.709   3.435   1.655
 6284TIP3   OH240410   4.607   6.717   0.274
 6284TIP3    H140411   4.553   6.769   0.334
 6284TIP3    H240412   4.689   6.704   0.321
 6285TIP3   OH240413   2.141   1.636   0.695
 6285TIP3    H140414   2.108   1.638   0.785
 6285TIP3    H240415   2.120   1.723   0.660
 6286TIP3   OH240416   1.808   4.734   8.663
 6286TIP3    H140417   1.887   4.783   8.643
 6286TIP3    H240418   1.784   4.763   8.751
 6287TIP3   OH240419   1.033   4.156   7.982
 6287TIP3    H140420   1.072   4.100   8.048
 6287TIP3    H240421   1.024   4.242   8.024
 6288TIP3   OH240422   3.478   1.363   1.442
 6288TIP3    H140423   3.517   1.281   1.413
 6288TIP3    H240424   3.392   1.338   1.475
 6289TIP3   OH240425   4.319   4.998   6.705
 6289TIP3    H140426   4.320   5.011   6.800
 6289TIP3    H240427   4.332   4.904   6.694
 6290TIP3   OH240428   2.213   1.048   1.123
 6290TIP3    H140429   2.189   1.140   1.115
 6290TIP3    H240430   2.308   1.046   1.110
 6291TIP3   OH240431   4.831   2.431   8.584
 6291TIP3    H140432   4.848   2.337   8.578
 6291TIP3    H240433   4.849   2.465   8.497
 6292TIP3   OH240434   1.304   1.964   6.463
 6292TIP3    H140435   1.268   1.931   6.381
 6292TIP3    H240436   1.278   2.056   6.466
 6293TIP3   OH240437   6.442   6.123   2.217
 6293TIP3    H140438   6.371   6.174   2.256
 6293TIP3    H240439   6.522   6.168   2.245
 6294TIP3   OH240440   6.741   2.441   8.243
 6294TIP3    H140441   6.677   2.387   8.197
 6294TIP3    H240442   6.748   2.520   8.189
 6295TIP3   OH240443   4.743   4.453   8.388
 6295TIP3    H140444   4.736   4.544   8.414
 6295TIP3    H240445   4.810   4.416   8.446
 6296TIP3   OH240446   1.799   5.108   1.821
 6296TIP3    H140447   1.880   5.127   1.868
 6296TIP3    H240448   1.825   5.111   1.728
 6297TIP3   OH240449   3.930   0.801   0.688
 6297TIP3    H140450   3.962   0.890   0.699
 6297TIP3    H240451   3.849   0.798   0.739
 6298TIP3   OH240452   6.621   1.899   1.969
 6298TIP3    H140453   6.598   1.808   1.988
 6298TIP3    H240454   6.559   1.926   1.902
 6299TIP3   OH240455   3.524   5.314   8.098
 6299TIP3    H140456   3.542   5.238   8.153
 6299TIP3    H240457   3.455   5.285   8.038
 6300TIP3   OH240458   5.296   3.245   8.585
 6300TIP3    H140459   5.343   3.209   8.509
 6300TIP3    H240460   5.204   3.225   8.566
 6301TIP3   OH240461   4.622   5.787   0.493
 6301TIP3    H140462   4.531   5.762   0.509
 6301TIP3    H240463   4.623   5.883   0.501
 6302TIP3   OH240464   4.206   6.240   7.631
 6302TIP3    H140465   4.293   6.260   7.598
 6302TIP3    H240466   4.216   6.157   7.678
 6303TIP3   OH240467   6.472   2.386   0.975
 6303TIP3    H140468   6.429   2.306   1.005
 6303TIP3    H240469   6.539   2.355   0.914
 6304TIP3   OH240470   4.452   5.210   8.507
 6304TIP3    H140471   4.532   5.181   8.463
 6304TIP3    H240472   4.469   5.193   8.599
 6305TIP3   OH240473   5.980   3.235   7.827
 6305TIP3    H140474   5.930   3.247   7.746
 6305TIP3    H240475   6.066   3.205   7.797
 6306TIP3   OH240476   5.665   4.359   8.687
 6306TIP3    H140477   5.704   4.431   8.737
 6306TIP3    H240478   5.694   4.374   8.597
 6307TIP3   OH240479   3.045   3.063   0.547
 6307TIP3    H140480   3.004   3.047   0.461
 6307TIP3    H240481   2.975   3.101   0.600
 6308TIP3   OH240482   5.611   0.310   6.547
 6308TIP3    H140483   5.536   0.346   6.596
 6308TIP3    H240484   5.593   0.333   6.456
 6309TIP3   OH240485   5.987   5.967   8.477
 6309TIP3    H140486   6.011   6.022   8.403
 6309TIP3    H240487   6.062   5.909   8.490
 6310TIP3   OH240488   5.351   4.173   8.342
 6310TIP3    H140489   5.304   4.240   8.392
 6310TIP3    H240490   5.373   4.216   8.260
 6311TIP3   OH240491   1.531   6.580   1.471
 6311TIP3    H140492   1.507   6.618   1.556
 6311TIP3    H240493   1.556   6.655   1.417
 6312TIP3   OH240494   2.354   1.347   1.252
 6312TIP3    H140495   2.409   1.318   1.325
 6312TIP3    H240496   2.401   1.319   1.174
 6313TIP3   OH240497   1.429   2.782   7.031
 6313TIP3    H140498   1.350   2.755   6.985
 6313TIP3    H240499   1.481   2.702   7.040
 6314TIP3   OH240500   5.074   0.284   7.658
 6314TIP3    H140501   5.106   0.211   7.605
 6314TIP3    H240502   5.089   0.361   7.604
 6315TIP3   OH240503   1.219   5.305   6.877
 6315TIP3    H140504   1.134   5.325   6.916
 6315TIP3    H240505   1.205   5.224   6.828
 6316TIP3   OH240506   5.915   1.055   0.562
 6316TIP3    H140507   5.852   0.997   0.519
 6316TIP3    H240508   6.000   1.029   0.526
 6317TIP3   OH240509   4.673   2.781   0.608
 6317TIP3    H140510   4.663   2.795   0.514
 6317TIP3    H240511   4.684   2.686   0.617
 6318TIP3   OH240512   0.836   0.468   1.356
 6318TIP3    H140513   0.744   0.488   1.346
 6318TIP3    H240514   0.862   0.430   1.272
 6319TIP3   OH240515   4.635   6.770   8.069
 6319TIP3    H140516   4.602   0.013   8.106
 6319TIP3    H240517   4.576   6.703   8.103
 6320TIP3   OH240518   6.399   6.392   7.373
 6320TIP3    H140519   6.304   6.390   7.379
 6320TIP3    H240520   6.421   6.484   7.361
 6321TIP3   OH240521   3.135   3.880   8.162
 6321TIP3    H140522   3.088   3.804   8.128
 6321TIP3    H240523   3.067   3.938   8.195
 6322TIP3   OH240524   2.825   5.720   2.411
 6322TIP3    H140525   2.907   5.672   2.397
 6322TIP3    H240526   2.779   5.669   2.477
 6323TIP3   OH240527   1.872   6.830   0.550
 6323TIP3    H140528   1.797   0.001   0.609
 6323TIP3    H240529   1.855   6.749   0.502
 6324TIP3   OH240530   0.006   1.680   8.664
 6324TIP3    H140531   6.809   1.765   8.693
 6324TIP3    H240532   0.011   1.628   8.745
 6325TIP3   OH240533   5.380   0.362   7.158
 6325TIP3    H140534   5.319   0.369   7.086
 6325TIP3    H240535   5.325   0.361   7.237
 6326TIP3   OH240536   2.838   5.241   0.788
 6326TIP3    H140537   2.877   5.296   0.856
 6326TIP3    H240538   2.913   5.205   0.741
 6327TIP3   OH240539   4.057   4.944   6.940
 6327TIP3    H140540   4.100   4.871   6.896
 6327TIP3    H240541   4.125   5.011   6.949
 6328TIP3   OH240542   2.545   1.635   7.663
 6328TIP3    H140543   2.477   1.702   7.653
 6328TIP3    H240544   2.580   1.622   7.575
 6329TIP3   OH240545   5.060   6.238   7.311
 6329TIP3    H140546   5.063   6.302   7.240
 6329TIP3    H240547   5.057   6.290   7.391
 6330TIP3   OH240548   6.128   2.244   6.836
 6330TIP3    H140549   6.105   2.158   6.803
 6330TIP3    H240550   6.060   2.302   6.801
 6331TIP3   OH240551   4.938   1.968   0.313
 6331TIP3    H140552   4.951   2.061   0.297
 6331TIP3    H240553   4.844   1.959   0.327
 6332TIP3   OH240554   1.734   6.610   8.246
 6332TIP3    H140555   1.653   6.598   8.296
 6332TIP3    H240556   1.706   6.645   8.162
 6333TIP3   OH240557   1.138   0.630   7.303
 6333TIP3    H140558   1.186   0.584   7.234
 6333TIP3    H240559   1.195   0.703   7.327
 6334TIP3   OH240560   0.463   2.358   2.177
 6334TIP3    H140561   0.553   2.347   2.208
 6334TIP3    H240562   0.425   2.270   2.184
 6335TIP3   OH240563   6.137   4.867   1.974
 6335TIP3    H140564   6.218   4.863   2.025
 6335TIP3    H240565   6.140   4.791   1.917
 6336TIP3   OH240566   2.714   5.552   1.551
 6336TIP3    H140567   2.651   5.559   1.480
 6336TIP3    H240568   2.701   5.464   1.587
 6337TIP3   OH240569   1.165   4.082   1.142
 6337TIP3    H140570   1.239   4.062   1.198
 6337TIP3    H240571   1.097   4.112   1.202
 6338TIP3   OH240572   5.182   3.696   1.992
 6338TIP3    H140573   5.126   3.630   2.033
 6338TIP3    H240574   5.212   3.751   2.064
 6339TIP3   OH240575   0.685   0.797   8.247
 6339TIP3    H140576   0.669   0.870   8.306
 6339TIP3    H240577   0.677   0.834   8.159
 6340TIP3   OH240578   0.238   0.112   6.990
 6340TIP3    H140579   0.171   0.177   7.011
 6340TIP3    H240580   0.302   0.160   6.938
 6341TIP3   OH240581   2.170   0.796   1.080
 6341TIP3    H140582   2.170   0.890   1.100
 6341TIP3    H240583   2.219   0.756   1.152
 6342TIP3   OH240584   6.646   1.256   7.740
 6342TIP3    H140585   6.586   1.277   7.811
 6342TIP3    H240586   6.680   1.169   7.763
 6343TIP3   OH240587   5.746   2.558   8.230
 6343TIP3    H140588   5.717   2.638   8.275
 6343TIP3    H240589   5.673   2.534   8.174
 6344TIP3   OH240590   6.130   6.756   1.501
 6344TIP3    H140591   6.104   6.694   1.433
 6344TIP3    H240592   6.053   6.762   1.557
 6345TIP3   OH240593   3.852   4.870   7.616
 6345TIP3    H140594   3.867   4.776   7.611
 6345TIP3    H240595   3.914   4.907   7.553
 6346TIP3   OH240596   0.622   0.055   0.188
 6346TIP3    H140597   0.593   0.046   0.098
 6346TIP3    H240598   0.710   0.017   0.189
 6347TIP3   OH240599   4.295   3.915   0.828
 6347TIP3    H140600   4.242   3.883   0.755
 6347TIP3    H240601   4.299   3.841   0.889
 6348TIP3   OH240602   3.861   1.925   7.632
 6348TIP3    H140603   3.844   1.996   7.695
 6348TIP3    H240604   3.876   1.848   7.686
 6349TIP3   OH240605   5.434   5.550   1.116
 6349TIP3    H140606   5.509   5.608   1.130
 6349TIP3    H240607   5.452   5.508   1.032
 6350TIP3   OH240608   1.414   2.756   1.290
 6350TIP3    H140609   1.356   2.775   1.363
 6350TIP3    H240610   1.375   2.803   1.216
 6351TIP3   OH240611   5.653   3.015   8.238
 6351TIP3    H140612   5.672   2.922   8.254
 6351TIP3    H240613   5.739   3.057   8.235
 6352TIP3   OH240614   1.262   3.653   8.577
 6352TIP3    H140615   1.326   3.586   8.550
 6352TIP3    H240616   1.188   3.603   8.610
 6353TIP3   OH240617   1.353   3.947   7.404
 6353TIP3    H140618   1.440   3.939   7.365
 6353TIP3    H240619   1.310   4.015   7.352
 6354TIP3   OH240620   2.257   6.354   7.742
 6354TIP3    H140621   2.233   6.444   7.762
 6354TIP3    H240622   2.295   6.359   7.654
 6355TIP3   OH240623   3.368   0.117   6.493
 6355TIP3    H140624   3.361   0.038   6.440
 6355TIP3    H240625   3.287   0.119   6.543
 6356TIP3   OH240626   6.405   4.151   7.266
 6356TIP3    H140627   6.314   4.172   7.243
 6356TIP3    H240628   6.454   4.230   7.242
 6357TIP3   OH240629   6.730   4.204   0.510
 6357TIP3    H140630   6.799   4.243   0.457
 6357TIP3    H240631   6.745   4.110   0.505
 6358TIP3   OH240632   6.271   0.544   8.455
 6358TIP3    H140633   6.266   0.450   8.441
 6358TIP3    H240634   6.247   0.582   8.370
 6359TIP3   OH240635   2.661   2.617   7.518
 6359TIP3    H140636   2.572   2.652   7.524
 6359TIP3    H240637   2.712   2.686   7.476
 6360TIP3   OH240638   0.054   6.002   7.080
 6360TIP3    H140639   0.130   5.982   7.025
 6360TIP3    H240640   0.009   5.919   7.091
 6361TIP3   OH240641   2.322   0.156   7.429
 6361TIP3    H140642   2.360   0.102   7.499
 6361TIP3    H240643   2.395   0.174   7.371
 6362TIP3   OH240644   6.144   1.673   7.057
 6362TIP3    H140645   6.088   1.639   6.987
 6362TIP3    H240646   6.196   1.742   7.014
 6363TIP3   OH240647   2.379   4.593   2.004
 6363TIP3    H140648   2.296   4.639   2.014
 6363TIP3    H240649   2.401   4.562   2.092
 6364TIP3   OH240650   4.429   3.280   0.413
 6364TIP3    H140651   4.368   3.340   0.455
 6364TIP3    H240652   4.437   3.207   0.474
 6365TIP3   OH240653   1.937   1.997   6.973
 6365TIP3    H140654   1.989   1.972   7.050
 6365TIP3    H240655   1.960   1.931   6.907
 6366TIP3   OH240656   2.258   4.230   8.690
 6366TIP3    H140657   2.197   4.220   8.618
 6366TIP3    H240658   2.217   4.295   8.747
 6367TIP3   OH240659   1.398   0.702   1.111
 6367TIP3    H140660   1.390   0.609   1.134
 6367TIP3    H240661   1.385   0.703   1.016
 6368TIP3   OH240662   5.216   2.484   7.621
 6368TIP3    H140663   5.132   2.440   7.626
 6368TIP3    H240664   5.210   2.555   7.685
 6369TIP3   OH240665   4.817   2.082   6.704
 6369TIP3    H140666   4.797   2.014   6.640
 6369TIP3    H240667   4.906   2.062   6.734
 6370TIP3   OH240668   6.383   5.832   7.824
 6370TIP3    H140669   6.325   5.868   7.891
 6370TIP3    H240670   6.363   5.881   7.745
 6371TIP3   OH240671   5.665   1.429   8.578
 6371TIP3    H140672   5.691   1.511   8.538
 6371TIP3    H240673   5.569   1.432   8.579
 6372TIP3   OH240674   4.070   6.182   6.501
 6372TIP3    H140675   3.975   6.192   6.502
 6372TIP3    H240676   4.093   6.173   6.408
 6373TIP3   OH240677   0.530   4.505   8.756
 6373TIP3    H140678   0.620   4.485   8.781
 6373TIP3    H240679   0.513   4.451   8.679
 6374TIP3   OH240680   5.415   3.144   0.828
 6374TIP3    H140681   5.381   3.192   0.903
 6374TIP3    H240682   5.495   3.190   0.804
 6375TIP3   OH240683   0.599   6.766   6.446
 6375TIP3    H140684   0.605   6.796   6.356
 6375TIP3    H240685   0.689   6.748   6.472
 6376TIP3   OH240686   3.142   1.180   8.020
 6376TIP3    H140687   3.193   1.258   8.041
 6376TIP3    H240688   3.052   1.212   8.010
 6377TIP3   OH240689   4.932   4.267   7.167
 6377TIP3    H140690   5.001   4.202   7.171
 6377TIP3    H240691   4.904   4.278   7.258
 6378TIP3   OH240692   4.341   2.974   2.298
 6378TIP3    H140693   4.246   2.979   2.285
 6378TIP3    H240694   4.372   3.062   2.275
 6379TIP3   OH240695   6.838   0.639   6.607
 6379TIP3    H140696   6.764   0.582   6.588
 6379TIP3    H240697   6.813   0.724   6.572
 6380TIP3   OH240698   6.260   1.051   1.595
 6380TIP3    H140699   6.342   1.010   1.567
 6380TIP3    H240700   6.244   1.016   1.682
 6381TIP3   OH240701   4.848   0.976   7.652
 6381TIP3    H140702   4.859   0.985   7.558
 6381TIP3    H240703   4.803   0.892   7.663
 6382TIP3   OH240704   6.437   6.264   8.153
 6382TIP3    H140705   6.524   6.245   8.118
 6382TIP3    H240706   6.445   6.253   8.248
 6383TIP3   OH240707   4.580   6.239   8.542
 6383TIP3    H140708   4.645   6.186   8.588
 6383TIP3    H240709   4.626   6.272   8.465
 6384TIP3   OH240710   6.563   3.939   7.284
 6384TIP3    H140711   6.658   3.949   7.278
 6384TIP3    H240712   6.529   4.025   7.261
 6385TIP3   OH240713   2.088   0.959   6.311
 6385TIP3    H140714   2.183   0.964   6.311
 6385TIP3    H240715   2.068   0.886   6.370
 6386TIP3   OH240716   1.122   5.931   7.583
 6386TIP3    H140717   1.207   5.887   7.575
 6386TIP3    H240718   1.062   5.876   7.532
 6387TIP3   OH240719   5.006   3.193   7.582
 6387TIP3    H140720   5.071   3.259   7.606
 6387TIP3    H240721   4.957   3.178   7.663
 6388TIP3   OH240722   0.064   2.225   1.506
 6388TIP3    H140723   6.817   2.228   1.550
 6388TIP3    H240724   0.110   2.153   1.550
 6389TIP3   OH240725   2.632   5.919   8.088
 6389TIP3    H140726   2.594   5.833   8.073
 6389TIP3    H240727   2.699   5.905   8.154
 6390TIP3   OH240728   2.973   0.462   7.782
 6390TIP3    H140729   2.880   0.443   7.782
 6390TIP3    H240730   2.982   0.539   7.838
 6391TIP3   OH240731   0.229   2.772   1.075
 6391TIP3    H140732   0.218   2.854   1.124
 6391TIP3    H240733   0.323   2.765   1.062
 6392TIP3   OH240734   3.419   2.502   7.651
 6392TIP3    H140735   3.430   2.597   7.640
 6392TIP3    H240736   3.412   2.468   7.562
 6393TIP3   OH240737   5.922   3.610   7.185
 6393TIP3    H140738   5.948   3.677   7.248
 6393TIP3    H240739   6.003   3.561   7.168
 6394TIP3   OH240740   1.835   3.231   0.205
 6394TIP3    H140741   1.890   3.194   0.135
 6394TIP3    H240742   1.887   3.303   0.241
 6395TIP3   OH240743   4.764   5.298   6.999
 6395TIP3    H140744   4.746   5.373   6.942
 6395TIP3    H240745   4.819   5.241   6.947
 6396TIP3   OH240746   2.043   2.849   7.759
 6396TIP3    H140747   2.050   2.814   7.848
 6396TIP3    H240748   2.001   2.934   7.770
 6397TIP3   OH240749   3.941   4.783   2.095
 6397TIP3    H140750   3.871   4.840   2.128
 6397TIP3    H240751   3.960   4.724   2.168
 6398TIP3   OH240752   3.518   1.567   0.691
 6398TIP3    H140753   3.503   1.552   0.598
 6398TIP3    H240754   3.593   1.627   0.693
 6399TIP3   OH240755   5.529   0.658   0.403
 6399TIP3    H140756   5.541   0.745   0.366
 6399TIP3    H240757   5.439   0.658   0.436
 6400TIP3   OH240758   5.969   3.328   0.266
 6400TIP3    H140759   5.926   3.277   0.197
 6400TIP3    H240760   5.985   3.264   0.336
 6401TIP3   OH240761   5.237   3.895   6.976
 6401TIP3    H140762   5.182   3.847   7.038
 6401TIP3    H240763   5.178   3.919   6.905
 6402TIP3   OH240764   3.143   1.757   1.873
 6402TIP3    H140765   3.078   1.697   1.836
 6402TIP3    H240766   3.226   1.709   1.868
 6403TIP3   OH240767   5.407   4.884   0.870
 6403TIP3    H140768   5.394   4.957   0.809
 6403TIP3    H240769   5.399   4.924   0.956
 6404TIP3   OH240770   2.208   4.813   8.749
 6404TIP3    H140771   2.284   4.763   8.781
 6404TIP3    H240772   2.233   4.840   8.661
 6405TIP3   OH240773   0.880   4.019   0.447
 6405TIP3    H140774   0.972   4.042   0.456
 6405TIP3    H240775   0.868   3.945   0.507
 6406TIP3   OH240776   6.647   4.792   1.795
 6406TIP3    H140777   6.713   4.847   1.752
 6406TIP3    H240778   6.589   4.765   1.725
 6407TIP3   OH240779   2.026   4.946   1.551
 6407TIP3    H140780   1.961   4.883   1.518
 6407TIP3    H240781   1.975   5.025   1.570
 6408TIP3   OH240782   3.141   5.853   0.587
 6408TIP3    H140783   3.048   5.875   0.590
 6408TIP3    H240784   3.144   5.759   0.599
 6409TIP3   OH240785   0.787   5.585   8.233
 6409TIP3    H140786   0.847   5.656   8.212
 6409TIP3    H240787   0.724   5.624   8.294
 6410TIP3   OH240788   1.168   0.468   8.386
 6410TIP3    H140789   1.248   0.419   8.369
 6410TIP3    H240790   1.127   0.422   8.459
 6411TIP3   OH240791   2.810   3.113   8.529
 6411TIP3    H140792   2.825   3.155   8.444
 6411TIP3    H240793   2.872   3.040   8.530
 6412TIP3   OH240794   3.406   3.689   7.883
 6412TIP3    H140795   3.451   3.613   7.918
 6412TIP3    H240796   3.475   3.755   7.873
 6413TIP3   OH240797   2.583   0.913   7.580
 6413TIP3    H140798   2.603   0.820   7.587
 6413TIP3    H240799   2.667   0.955   7.564
 6414TIP3   OH240800   2.374   0.152   2.343
 6414TIP3    H140801   2.352   0.244   2.329
 6414TIP3    H240802   2.454   0.153   2.394
 6415TIP3   OH240803   2.214   2.152   0.106
 6415TIP3    H140804   2.278   2.178   0.040
 6415TIP3    H240805   2.216   2.222   0.171
 6416TIP3   OH240806   2.280   4.734   1.323
 6416TIP3    H140807   2.287   4.809   1.383
 6416TIP3    H240808   2.186   4.723   1.309
 6417TIP3   OH240809   1.914   0.355   7.907
 6417TIP3    H140810   1.925   0.430   7.964
 6417TIP3    H240811   1.960   0.379   7.826
 6418TIP3   OH240812   3.876   2.290   1.694
 6418TIP3    H140813   3.801   2.249   1.737
 6418TIP3    H240814   3.856   2.286   1.601
 6419TIP3   OH240815   4.705   5.843   7.675
 6419TIP3    H140816   4.799   5.844   7.659
 6419TIP3    H240817   4.679   5.752   7.662
 6420TIP3   OH240818   2.312   3.349   1.076
 6420TIP3    H140819   2.272   3.360   1.163
 6420TIP3    H240820   2.406   3.346   1.094
 6421TIP3   OH240821   5.773   2.468   0.698
 6421TIP3    H140822   5.752   2.388   0.745
 6421TIP3    H240823   5.692   2.519   0.700
 6422TIP3   OH240824   3.123   2.610   0.508
 6422TIP3    H140825   3.125   2.652   0.594
 6422TIP3    H240826   3.034   2.578   0.499
 6423TIP3   OH240827   1.467   5.396   7.582
 6423TIP3    H140828   1.518   5.443   7.648
 6423TIP3    H240829   1.439   5.316   7.627
 6424TIP3   OH240830   4.613   2.462   1.026
 6424TIP3    H140831   4.673   2.495   1.093
 6424TIP3    H240832   4.571   2.541   0.990
 6425TIP3   OH240833   1.377   6.274   1.279
 6425TIP3    H140834   1.302   6.215   1.281
 6425TIP3    H240835   1.422   6.259   1.362
 6426TIP3   OH240836   1.186   1.608   1.265
 6426TIP3    H140837   1.115   1.588   1.327
 6426TIP3    H240838   1.165   1.695   1.231
 6427TIP3   OH240839   0.381   2.741   0.223
 6427TIP3    H140840   0.352   2.697   0.303
 6427TIP3    H240841   0.356   2.681   0.152
 6428TIP3   OH240842   5.666   3.865   2.216
 6428TIP3    H140843   5.735   3.827   2.162
 6428TIP3    H240844   5.651   3.951   2.178
 6429TIP3   OH240845   2.382   3.188   0.257
 6429TIP3    H140846   2.450   3.174   0.191
 6429TIP3    H240847   2.346   3.274   0.236
 6430TIP3   OH240848   5.597   1.663   7.741
 6430TIP3    H140849   5.551   1.709   7.670
 6430TIP3    H240850   5.589   1.721   7.816
 6431TIP3   OH240851   5.615   3.481   8.049
 6431TIP3    H140852   5.583   3.435   7.971
 6431TIP3    H240853   5.540   3.533   8.079
 6432TIP3   OH240854   3.895   0.648   0.479
 6432TIP3    H140855   3.910   0.716   0.545
 6432TIP3    H240856   3.964   0.583   0.495
 6433TIP3   OH240857   0.803   4.870   0.197
 6433TIP3    H140858   0.856   4.848   0.120
 6433TIP3    H240859   0.771   4.959   0.180
 6434TIP3   OH240860   2.163   1.868   0.568
 6434TIP3    H140861   2.247   1.912   0.575
 6434TIP3    H240862   2.134   1.883   0.478
 6435TIP3   OH240863   0.478   3.050   7.593
 6435TIP3    H140864   0.435   2.964   7.600
 6435TIP3    H240865   0.450   3.083   7.508
 6436TIP3   OH240866   0.717   0.780   0.324
 6436TIP3    H140867   0.679   0.862   0.293
 6436TIP3    H240868   0.642   0.722   0.334
 6437TIP3   OH240869   0.699   5.091   1.192
 6437TIP3    H140870   0.676   5.011   1.240
 6437TIP3    H240871   0.734   5.060   1.108
 6438TIP3   OH240872   1.861   0.450   8.508
 6438TIP3    H140873   1.876   0.476   8.599
 6438TIP3    H240874   1.865   0.532   8.458
 6439TIP3   OH240875   0.875   6.274   1.123
 6439TIP3    H140876   0.943   6.208   1.107
 6439TIP3    H240877   0.896   6.345   1.063
 6440TIP3   OH240878   1.653   4.636   7.683
 6440TIP3    H140879   1.660   4.550   7.642
 6440TIP3    H240880   1.739   4.677   7.667
 6441TIP3   OH240881   0.168   1.069   7.959
 6441TIP3    H140882   0.165   1.048   8.052
 6441TIP3    H240883   0.259   1.055   7.934
 6442TIP3   OH240884   2.905   5.537   0.613
 6442TIP3    H140885   2.888   5.607   0.676
 6442TIP3    H240886   2.977   5.487   0.652
 6443TIP3   OH240887   3.917   1.640   1.272
 6443TIP3    H140888   4.008   1.633   1.301
 6443TIP3    H240889   3.920   1.697   1.196
 6444TIP3   OH240890   0.539   5.699   1.569
 6444TIP3    H140891   0.489   5.683   1.649
 6444TIP3    H240892   0.612   5.755   1.598
 6445TIP3   OH240893   0.071   2.936   6.766
 6445TIP3    H140894   0.051   2.843   6.777
 6445TIP3    H240895   0.033   2.978   6.844
 6446TIP3   OH240896   4.552   5.119   0.714
 6446TIP3    H140897   4.634   5.165   0.695
 6446TIP3    H240898   4.490   5.188   0.737
 6447TIP3   OH240899   3.718   6.040   0.945
 6447TIP3    H140900   3.772   6.070   1.017
 6447TIP3    H240901   3.650   5.986   0.986
 6448TIP3   OH240902   5.869   1.007   8.038
 6448TIP3    H140903   5.804   1.046   7.979
 6448TIP3    H240904   5.851   1.047   8.123
 6449TIP3   OH240905   3.094   0.629   8.425
 6449TIP3    H140906   3.131   0.664   8.506
 6449TIP3    H240907   3.036   0.558   8.454
 6450TIP3   OH240908   4.365   0.977   8.280
 6450TIP3    H140909   4.370   1.035   8.355
 6450TIP3    H240910   4.346   0.890   8.317
 6451TIP3   OH240911   3.150   6.509   7.456
 6451TIP3    H140912   3.133   6.563   7.534
 6451TIP3    H240913   3.120   6.563   7.383
 6452TIP3   OH240914   1.791   1.554   8.373
 6452TIP3    H140915   1.799   1.590   8.285
 6452TIP3    H240916   1.877   1.568   8.413
 6453TIP3   OH240917   1.967   4.296   0.473
 6453TIP3    H140918   2.053   4.334   0.487
 6453TIP3    H240919   1.911   4.370   0.449
 6454TIP3   OH240920   4.600   2.277   2.557
 6454TIP3    H140921   4.599   2.191   2.599
 6454TIP3    H240922   4.518   2.317   2.583
 6455TIP3   OH240923   1.188   6.676   6.572
 6455TIP3    H140924   1.251   6.610   6.601
 6455TIP3    H240925   1.102   6.637   6.588
 6456TIP3   OH240926   1.258   4.316   1.045
 6456TIP3    H140927   1.241   4.229   1.080
 6456TIP3    H240928   1.324   4.302   0.977
 6457TIP3   OH240929   6.179   0.622   3.080
 6457TIP3    H140930   6.159   0.536   3.116
 6457TIP3    H240931   6.124   0.628   3.001
 6458TIP3   OH240932   0.603   6.160   7.965
 6458TIP3    H140933   0.678   6.219   7.972
 6458TIP3    H240934   0.639   6.073   7.983
 6459TIP3   OH240935   0.872   1.191   1.415
 6459TIP3    H140936   0.817   1.128   1.462
 6459TIP3    H240937   0.877   1.156   1.326
 6460TIP3   OH240938   1.516   6.650   6.286
 6460TIP3    H140939   1.540   6.683   6.373
 6460TIP3    H240940   1.501   6.556   6.300
 6461TIP3   OH240941   6.344   1.853   1.455
 6461TIP3    H140942   6.251   1.829   1.452
 6461TIP3    H240943   6.346   1.936   1.502
 6462TIP3   OH240944   1.288   4.581   7.533
 6462TIP3    H140945   1.196   4.573   7.507
 6462TIP3    H240946   1.329   4.628   7.460
 6463TIP3   OH240947   2.958   1.816   6.188
 6463TIP3    H140948   2.863   1.827   6.187
 6463TIP3    H240949   2.972   1.736   6.238
 6464TIP3   OH240950   1.606   0.959   6.627
 6464TIP3    H140951   1.677   0.905   6.589
 6464TIP3    H240952   1.651   1.021   6.684
 6465TIP3   OH240953   5.794   5.036   7.348
 6465TIP3    H140954   5.873   5.026   7.295
 6465TIP3    H240955   5.824   5.019   7.438
 6466TIP3   OH240956   0.259   4.182   6.818
 6466TIP3    H140957   0.214   4.112   6.770
 6466TIP3    H240958   0.350   4.177   6.789
 6467TIP3   OH240959   3.396   2.114   7.838
 6467TIP3    H140960   3.481   2.156   7.826
 6467TIP3    H240961   3.417   2.022   7.858
 6468TIP3   OH240962   2.845   3.189   0.706
 6468TIP3    H140963   2.845   3.168   0.799
 6468TIP3    H240964   2.803   3.275   0.701
 6469TIP3   OH240965   4.872   2.022   7.322
 6469TIP3    H140966   4.959   2.039   7.357
 6469TIP3    H240967   4.814   2.020   7.398
 6470TIP3   OH240968   2.308   6.414   1.519
 6470TIP3    H140969   2.391   6.369   1.505
 6470TIP3    H240970   2.248   6.345   1.548
 6471TIP3   OH240971   0.575   0.353   8.549
 6471TIP3    H140972   0.514   0.422   8.574
 6471TIP3    H240973   0.534   0.310   8.474
 6472TIP3   OH240974   1.245   2.241   0.274
 6472TIP3    H140975   1.213   2.192   0.198
 6472TIP3    H240976   1.278   2.175   0.334
 6473TIP3   OH240977   4.569   0.886   1.233
 6473TIP3    H140978   4.525   0.967   1.209
 6473TIP3    H240979   4.501   0.818   1.224
 6474TIP3   OH240980   2.472   1.715   6.537
 6474TIP3    H140981   2.456   1.621   6.546
 6474TIP3    H240982   2.393   1.756   6.573
 6475TIP3   OH240983   4.292   0.234   8.025
 6475TIP3    H140984   4.223   0.237   7.958
 6475TIP3    H240985   4.246   0.225   8.108
 6476TIP3   OH240986   4.818   3.735   0.086
 6476TIP3    H140987   4.907   3.743   0.052
 6476TIP3    H240988   4.765   3.788   0.027
 6477TIP3   OH240989   0.900   6.804   7.087
 6477TIP3    H140990   0.864   0.054   7.098
 6477TIP3    H240991   0.985   6.817   7.045
 6478TIP3   OH240992   0.257   4.360   7.425
 6478TIP3    H140993   0.331   4.310   7.389
 6478TIP3    H240994   0.214   4.299   7.485
 6479TIP3   OH240995   0.356   5.772   8.292
 6479TIP3    H140996   0.283   5.738   8.343
 6479TIP3    H240997   0.337   5.866   8.283
 6480TIP3   OH240998   5.992   5.045   8.323
 6480TIP3    H140999   6.077   5.065   8.285
 6480TIP3    H241000   5.989   5.098   8.403
 6481TIP3   OH241001   6.755   1.020   0.030
 6481TIP3    H141002   6.834   0.986   8.771
 6481TIP3    H241003   6.695   0.945   0.032
 6482TIP3   OH241004   3.237   1.721   7.609
 6482TIP3    H141005   3.166   1.666   7.577
 6482TIP3    H241006   3.256   1.781   7.537
 6483TIP3   OH241007   6.242   4.487   0.792
 6483TIP3    H141008   6.169   4.446   0.745
 6483TIP3    H241009   6.306   4.507   0.724
 6484TIP3   OH241010   6.571   0.394   7.620
 6484TIP3    H141011   6.605   0.475   7.657
 6484TIP3    H241012   6.482   0.388   7.654
 6485TIP3   OH241013   4.103   2.097   2.055
 6485TIP3    H141014   4.149   2.100   2.140
 6485TIP3    H241015   4.019   2.056   2.075
 6486TIP3   OH241016   3.628   5.529   7.629
 6486TIP3    H141017   3.704   5.541   7.573
 6486TIP3    H241018   3.595   5.442   7.606
 6487TIP3   OH241019   2.121   5.864   0.495
 6487TIP3    H141020   2.166   5.862   0.411
 6487TIP3    H241021   2.033   5.895   0.475
 6488TIP3   OH241022   0.790   3.176   7.904
 6488TIP3    H141023   0.852   3.164   7.976
 6488TIP3    H241024   0.704   3.171   7.945
 6489TIP3   OH241025   5.101   6.070   1.809
 6489TIP3    H141026   5.090   6.105   1.897
 6489TIP3    H241027   5.028   6.010   1.796
 6490TIP3   OH241028   2.616   2.020   0.359
 6490TIP3    H141029   2.586   1.930   0.340
 6490TIP3    H241030   2.604   2.066   0.276
 6491TIP3   OH241031   1.880   4.486   0.035
 6491TIP3    H141032   1.841   4.573   0.046
 6491TIP3    H241033   1.871   4.467   8.724
 6492TIP3   OH241034   4.506   6.357   2.400
 6492TIP3    H141035   4.446   6.427   2.376
 6492TIP3    H241036   4.458   6.276   2.378
 6493TIP3   OH241037   1.177   4.570   1.459
 6493TIP3    H141038   1.192   4.485   1.418
 6493TIP3    H241039   1.231   4.631   1.408
 6494TIP3   OH241040   1.623   4.183   8.537
 6494TIP3    H141041   1.693   4.150   8.480
 6494TIP3    H241042   1.614   4.275   8.514
 6495TIP3   OH241043   1.290   0.934   0.978
 6495TIP3    H141044   1.223   1.001   0.989
 6495TIP3    H241045   1.295   0.891   1.064
 6496TIP3   OH241046   4.843   4.312   0.684
 6496TIP3    H141047   4.880   4.382   0.631
 6496TIP3    H241048   4.754   4.342   0.704
 6497TIP3   OH241049   3.481   1.639   1.284
 6497TIP3    H141050   3.394   1.601   1.275
 6497TIP3    H241051   3.530   1.576   1.336
 6498TIP3   OH241052   2.571   5.464   8.624
 6498TIP3    H141053   2.595   5.550   8.660
 6498TIP3    H241054   2.648   5.436   8.575
 6499TIP3   OH241055   3.031   4.012   0.092
 6499TIP3    H141056   2.991   3.976   0.172
 6499TIP3    H241057   2.957   4.023   0.032
 6500TIP3   OH241058   5.570   6.558   8.389
 6500TIP3    H141059   5.627   6.632   8.414
 6500TIP3    H241060   5.481   6.593   8.396
 6501TIP3   OH241061   5.818   5.217   1.063
 6501TIP3    H141062   5.865   5.190   0.985
 6501TIP3    H241063   5.726   5.199   1.042
 6502TIP3   OH241064   2.426   3.900   8.041
 6502TIP3    H141065   2.345   3.952   8.034
 6502TIP3    H241066   2.437   3.862   7.954
 6503TIP3   OH241067   0.842   1.422   0.714
 6503TIP3    H141068   0.823   1.330   0.696
 6503TIP3    H241069   0.896   1.449   0.640
 6504TIP3   OH241070   6.285   0.405   7.678
 6504TIP3    H141071   6.236   0.417   7.759
 6504TIP3    H241072   6.285   0.491   7.637
 6505TIP3   OH241073   5.104   5.393   7.434
 6505TIP3    H141074   5.015   5.393   7.469
 6505TIP3    H241075   5.111   5.312   7.383
 6506TIP3   OH241076   6.457   1.513   1.792
 6506TIP3    H141077   6.477   1.542   1.703
 6506TIP3    H241078   6.488   1.584   1.848
 6507TIP3   OH241079   0.479   5.228   0.152
 6507TIP3    H141080   0.541   5.297   0.178
 6507TIP3    H241081   0.448   5.256   0.066
 6508TIP3   OH241082   5.562   6.440   7.897
 6508TIP3    H141083   5.494   6.415   7.959
 6508TIP3    H241084   5.625   6.368   7.899
 6509TIP3   OH241085   5.944   1.910   1.695
 6509TIP3    H141086   6.024   1.859   1.707
 6509TIP3    H241087   5.942   1.968   1.771
 6510TIP3   OH241088   6.650   6.023   8.241
 6510TIP3    H141089   6.620   5.943   8.284
 6510TIP3    H241090   6.701   5.992   8.165
 6511TIP3   OH241091   0.210   3.088   7.755
 6511TIP3    H141092   0.296   3.090   7.713
 6511TIP3    H241093   0.148   3.096   7.682
 6512TIP3   OH241094   5.911   5.808   7.528
 6512TIP3    H141095   5.945   5.815   7.617
 6512TIP3    H241096   5.824   5.769   7.539
 6513TIP3   OH241097   4.686   1.253   0.381
 6513TIP3    H141098   4.663   1.344   0.401
 6513TIP3    H241099   4.602   1.208   0.378
 6514TIP3   OH241100   4.359   1.083   1.442
 6514TIP3    H141101   4.432   1.124   1.488
 6514TIP3    H241102   4.299   1.155   1.422
 6515TIP3   OH241103   0.247   4.133   1.275
 6515TIP3    H141104   0.183   4.190   1.318
 6515TIP3    H241105   0.213   4.045   1.290
 6516TIP3   OH241106   0.316   1.223   1.491
 6516TIP3    H141107   0.277   1.136   1.481
 6516TIP3    H241108   0.345   1.225   1.583
 6517TIP3   OH241109   3.054   2.705   8.616
 6517TIP3    H141110   3.103   2.623   8.605
 6517TIP3    H241111   3.109   2.758   8.673
 6518TIP3   OH241112   5.152   6.408   7.510
 6518TIP3    H141113   5.186   6.469   7.576
 6518TIP3    H241114   5.059   6.430   7.503
 6519TIP3   OH241115   0.919   6.017   0.672
 6519TIP3    H141116   0.863   5.940   0.660
 6519TIP3    H241117   0.857   6.089   0.689
 6520TIP3   OH241118   4.205   4.997   0.989
 6520TIP3    H141119   4.280   5.056   0.994
 6520TIP3    H241120   4.230   4.920   1.040
 6521TIP3   OH241121   6.026   0.552   0.797
 6521TIP3    H141122   6.028   0.563   0.701
 6521TIP3    H241123   6.022   0.457   0.810
 6522TIP3   OH241124   3.094   3.591   2.561
 6522TIP3    H141125   3.149   3.533   2.508
 6522TIP3    H241126   3.011   3.595   2.516
 6523TIP3   OH241127   4.747   3.823   8.407
 6523TIP3    H141128   4.726   3.798   8.317
 6523TIP3    H241129   4.840   3.846   8.405
 6524TIP3   OH241130   0.798   2.980   2.475
 6524TIP3    H141131   0.837   2.958   2.390
 6524TIP3    H241132   0.834   3.065   2.496
 6525TIP3   OH241133   6.484   2.872   8.066
 6525TIP3    H141134   6.407   2.889   8.012
 6525TIP3    H241135   6.450   2.829   8.145
 6526TIP3   OH241136   1.338   3.499   7.101
 6526TIP3    H141137   1.249   3.515   7.132
 6526TIP3    H241138   1.345   3.403   7.098
 6527TIP3   OH241139   6.679   4.852   6.980
 6527TIP3    H141140   6.747   4.846   6.912
 6527TIP3    H241141   6.608   4.796   6.947
 6528TIP3   OH241142   4.357   5.489   6.728
 6528TIP3    H141143   4.451   5.481   6.745
 6528TIP3    H241144   4.334   5.407   6.684
 6529TIP3   OH241145   1.628   1.060   0.285
 6529TIP3    H141146   1.601   0.978   0.325
 6529TIP3    H241147   1.591   1.057   0.197
 6530TIP3   OH241148   1.678   5.837   0.134
 6530TIP3    H141149   1.745   5.852   0.068
 6530TIP3    H241150   1.644   5.750   0.116
 6531TIP3   OH241151   4.785   4.179   0.922
 6531TIP3    H141152   4.720   4.246   0.943
 6531TIP3    H241153   4.824   4.208   0.840
 6532TIP3   OH241154   6.662   1.549   0.294
 6532TIP3    H141155   6.650   1.643   0.306
 6532TIP3    H241156   6.755   1.540   0.269
 6533TIP3   OH241157   6.198   2.693   7.801
 6533TIP3    H141158   6.154   2.636   7.739
 6533TIP3    H241159   6.289   2.695   7.772
 6534TIP3   OH241160   5.858   4.356   6.194
 6534TIP3    H141161   5.763   4.363   6.197
 6534TIP3    H241162   5.874   4.269   6.157
 6535TIP3   OH241163   3.300   1.136   1.199
 6535TIP3    H141164   3.388   1.173   1.192
 6535TIP3    H241165   3.257   1.161   1.117
 6536TIP3   OH241166   6.600   3.413   8.726
 6536TIP3    H141167   6.527   3.392   0.002
 6536TIP3    H241168   6.619   3.331   8.680
 6537TIP3   OH241169   3.387   4.800   7.757
 6537TIP3    H141170   3.364   4.855   7.832
 6537TIP3    H241171   3.332   4.833   7.686
 6538TIP3   OH241172   5.855   0.372   6.720
 6538TIP3    H141173   5.924   0.316   6.685
 6538TIP3    H241174   5.777   0.350   6.669
 6539TIP3   OH241175   4.611   4.239   8.249
 6539TIP3    H141176   4.627   4.287   8.330
 6539TIP3    H241177   4.580   4.153   8.278
 6540TIP3   OH241178   4.513   1.951   1.762
 6540TIP3    H141179   4.487   1.949   1.854
 6540TIP3    H241180   4.435   1.984   1.717
 6541TIP3   OH241181   4.398   1.120   7.021
 6541TIP3    H141182   4.437   1.085   6.941
 6541TIP3    H241183   4.304   1.123   7.003
 6542TIP3   OH241184   0.179   3.402   0.297
 6542TIP3    H141185   0.109   3.363   0.349
 6542TIP3    H241186   0.144   3.406   0.208
 6543TIP3   OH241187   5.079   3.747   8.094
 6543TIP3    H141188   5.111   3.659   8.113
 6543TIP3    H241189   5.076   3.751   7.998
 6544TIP3   OH241190   2.499   0.675   7.902
 6544TIP3    H141191   2.412   0.697   7.936
 6544TIP3    H241192   2.482   0.626   7.822
 6545TIP3   OH241193   2.460   0.200   7.006
 6545TIP3    H141194   2.539   0.183   6.955
 6545TIP3    H241195   2.388   0.183   6.946
 6546TIP3   OH241196   2.313   1.666   0.166
 6546TIP3    H141197   2.261   1.698   0.092
 6546TIP3    H241198   2.293   1.573   0.170
 6547TIP3   OH241199   4.141   1.203   6.946
 6547TIP3    H141200   4.164   1.221   6.855
 6547TIP3    H241201   4.061   1.150   6.941
 6548TIP3   OH241202   1.739   5.843   2.370
 6548TIP3    H141203   1.693   5.926   2.374
 6548TIP3    H241204   1.696   5.795   2.299
 6549TIP3   OH241205   3.223   0.701   1.491
 6549TIP3    H141206   3.143   0.746   1.521
 6549TIP3    H241207   3.252   0.752   1.415
 6550TIP3   OH241208   5.320   2.127   6.070
 6550TIP3    H141209   5.268   2.096   6.145
 6550TIP3    H241210   5.341   2.218   6.091
 6551TIP3   OH241211   1.112   1.112   1.108
 6551TIP3    H141212   1.153   1.168   1.174
 6551TIP3    H241213   1.084   1.034   1.155
 6552TIP3   OH241214   3.822   6.294   0.718
 6552TIP3    H141215   3.731   6.262   0.720
 6552TIP3    H241216   3.867   6.242   0.785
 6553TIP3   OH241217   3.617   1.965   8.463
 6553TIP3    H141218   3.591   2.056   8.477
 6553TIP3    H241219   3.542   1.925   8.419
 6554TIP3   OH241220   0.824   4.428   2.328
 6554TIP3    H141221   0.845   4.509   2.375
 6554TIP3    H241222   0.874   4.360   2.374
 6555TIP3   OH241223   0.472   3.821   1.260
 6555TIP3    H141224   0.469   3.853   1.170
 6555TIP3    H241225   0.397   3.862   1.303
 6556TIP3   OH241226   4.928   3.090   1.829
 6556TIP3    H141227   4.872   3.056   1.899
 6556TIP3    H241228   4.993   3.022   1.815
 6557TIP3   OH241229   2.533   2.841   1.986
 6557TIP3    H141230   2.506   2.815   2.074
 6557TIP3    H241231   2.451   2.856   1.940
 6558TIP3   OH241232   5.390   0.724   1.616
 6558TIP3    H141233   5.442   0.699   1.693
 6558TIP3    H241234   5.448   0.709   1.542
 6559TIP3   OH241235   2.987   4.506   2.183
 6559TIP3    H141236   3.000   4.600   2.169
 6559TIP3    H241237   2.922   4.481   2.117
 6560TIP3   OH241238   1.647   0.765   8.596
 6560TIP3    H141239   1.659   0.696   8.661
 6560TIP3    H241240   1.562   0.748   8.558
 6561TIP3   OH241241   6.333   5.734   0.295
 6561TIP3    H141242   6.365   5.778   0.373
 6561TIP3    H241243   6.407   5.734   0.235
 6562TIP3   OH241244   0.109   1.618   7.577
 6562TIP3    H141245   0.027   1.590   7.536
 6562TIP3    H241246   0.168   1.635   7.504
 6563TIP3   OH241247   3.266   6.070   2.477
 6563TIP3    H141248   3.360   6.069   2.457
 6563TIP3    H241249   3.230   6.137   2.421
 6564TIP3   OH241250   5.200   6.654   7.411
 6564TIP3    H141251   5.140   6.688   7.345
 6564TIP3    H241252   5.194   6.559   7.401
 6565TIP3   OH241253   2.942   0.214   0.415
 6565TIP3    H141254   2.865   0.216   0.358
 6565TIP3    H241255   3.017   0.218   0.355
 6566TIP3   OH241256   4.697   0.550   2.307
 6566TIP3    H141257   4.732   0.639   2.306
 6566TIP3    H241258   4.766   0.496   2.268
 6567TIP3   OH241259   6.070   0.658   8.221
 6567TIP3    H141260   6.091   0.567   8.200
 6567TIP3    H241261   5.992   0.676   8.169
 6568TIP3   OH241262   0.213   5.127   0.250
 6568TIP3    H141263   0.286   5.097   0.197
 6568TIP3    H241264   0.136   5.114   0.195
 6569TIP3   OH241265   2.590   3.177   1.478
 6569TIP3    H141266   2.604   3.205   1.388
 6569TIP3    H241267   2.549   3.090   1.469
 6570TIP3   OH241268   4.007   0.038   1.616
 6570TIP3    H141269   4.018   0.073   1.528
 6570TIP3    H241270   3.991   0.116   1.671
 6571TIP3   OH241271   4.679   3.538   0.955
 6571TIP3    H141272   4.767   3.522   0.922
 6571TIP3    H241273   4.621   3.520   0.882
 6572TIP3   OH241274   3.128   3.802   1.934
 6572TIP3    H141275   3.068   3.729   1.919
 6572TIP3    H241276   3.206   3.762   1.972
 6573TIP3   OH241277   1.613   2.499   0.912
 6573TIP3    H141278   1.621   2.592   0.891
 6573TIP3    H241279   1.628   2.454   0.829
 6574TIP3   OH241280   6.180   4.735   1.509
 6574TIP3    H141281   6.238   4.684   1.565
 6574TIP3    H241282   6.121   4.670   1.470
 6575TIP3   OH241283   3.399   3.444   0.086
 6575TIP3    H141284   3.343   3.522   0.080
 6575TIP3    H241285   3.341   3.377   0.122
 6576TIP3   OH241286   3.952   1.999   1.728
 6576TIP3    H141287   4.025   2.042   1.773
 6576TIP3    H241288   3.929   2.059   1.657
 6577TIP3   OH241289   4.858   3.137   1.554
 6577TIP3    H141290   4.818   3.218   1.521
 6577TIP3    H241291   4.826   3.130   1.644
 6578TIP3   OH241292   5.352   2.592   1.667
 6578TIP3    H141293   5.404   2.524   1.709
 6578TIP3    H241294   5.297   2.627   1.736
 6579TIP3   OH241295   3.233   3.291   0.231
 6579TIP3    H141296   3.232   3.332   0.318
 6579TIP3    H241297   3.141   3.269   0.214
 6580TIP3   OH241298   4.636   5.871   7.964
 6580TIP3    H141299   4.636   5.805   8.032
 6580TIP3    H241300   4.578   5.836   7.896
 6581TIP3   OH241301   0.265   0.649   1.482
 6581TIP3    H141302   0.212   0.588   1.533
 6581TIP3    H241303   0.347   0.655   1.531
 6582TIP3   OH241304   4.644   3.481   1.906
 6582TIP3    H141305   4.709   3.537   1.864
 6582TIP3    H241306   4.620   3.417   1.839
 6583TIP3   OH241307   4.000   4.152   7.275
 6583TIP3    H141308   3.978   4.244   7.290
 6583TIP3    H241309   3.915   4.107   7.277
 6584TIP3   OH241310   0.734   0.984   8.065
 6584TIP3    H141311   0.761   1.067   8.104
 6584TIP3    H241312   0.784   0.978   7.984
 6585TIP3   OH241313   5.276   3.867   1.342
 6585TIP3    H141314   5.231   3.799   1.292
 6585TIP3    H241315   5.340   3.820   1.395
 6586TIP3   OH241316   6.217   1.416   0.409
 6586TIP3    H141317   6.174   1.341   0.368
 6586TIP3    H241318   6.153   1.449   0.472
 6587TIP3   OH241319   3.888   3.388   1.880
 6587TIP3    H141320   3.875   3.476   1.914
 6587TIP3    H241321   3.830   3.383   1.804
 6588TIP3   OH241322   5.848   5.907   0.270
 6588TIP3    H141323   5.772   5.874   0.317
 6588TIP3    H241324   5.923   5.886   0.326
 6589TIP3   OH241325   2.496   0.401   2.557
 6589TIP3    H141326   2.451   0.470   2.508
 6589TIP3    H241327   2.562   0.369   2.497
 6590TIP3   OH241328   3.318   6.252   1.156
 6590TIP3    H141329   3.313   6.172   1.207
 6590TIP3    H241330   3.408   6.254   1.123
 6591TIP3   OH241331   2.982   3.122   7.716
 6591TIP3    H141332   2.896   3.082   7.705
 6591TIP3    H241333   2.966   3.196   7.775
 6592TIP3   OH241334   0.242   0.276   7.530
 6592TIP3    H141335   0.177   0.267   7.600
 6592TIP3    H241336   0.317   0.318   7.572
 6593TIP3   OH241337   3.645   4.633   2.202
 6593TIP3    H141338   3.698   4.633   2.281
 6593TIP3    H241339   3.586   4.708   2.212
 6594TIP3   OH241340   4.398   1.849   0.561
 6594TIP3    H141341   4.400   1.913   0.632
 6594TIP3    H241342   4.489   1.839   0.535
 6595TIP3   OH241343   1.852   1.872   0.684
 6595TIP3    H141344   1.861   1.864   0.589
 6595TIP3    H241345   1.783   1.809   0.707
 6596TIP3   OH241346   6.270   2.766   7.230
 6596TIP3    H141347   6.329   2.820   7.176
 6596TIP3    H241348   6.305   2.775   7.319
 6597TIP3   OH241349   3.219   3.451   8.507
 6597TIP3    H141350   3.133   3.419   8.481
 6597TIP3    H241351   3.270   3.372   8.527
 6598TIP3   OH241352   4.890   0.793   7.972
 6598TIP3    H141353   4.826   0.865   7.971
 6598TIP3    H241354   4.886   0.757   7.884
 6599TIP3   OH241355   6.126   1.669   2.150
 6599TIP3    H141356   6.164   1.721   2.221
 6599TIP3    H241357   6.198   1.612   2.121
 6600TIP3   OH241358   1.544   1.136   8.441
 6600TIP3    H141359   1.476   1.132   8.509
 6600TIP3    H241360   1.620   1.093   8.481
 6601TIP3   OH241361   2.403   1.004   2.036
 6601TIP3    H141362   2.417   0.916   2.002
 6601TIP3    H241363   2.484   1.027   2.081
 6602TIP3   OH241364   5.151   0.502   1.216
 6602TIP3    H141365   5.065   0.543   1.224
 6602TIP3    H241366   5.166   0.460   1.301
 6603TIP3   OH241367   6.001   2.862   1.553
 6603TIP3    H141368   6.035   2.772   1.547
 6603TIP3    H241369   6.022   2.901   1.468
 6604TIP3   OH241370   5.219   6.102   7.765
 6604TIP3    H141371   5.127   6.105   7.738
 6604TIP3    H241372   5.233   6.186   7.809
 6605TIP3   OH241373   2.748   6.239   7.288
 6605TIP3    H141374   2.788   6.157   7.261
 6605TIP3    H241375   2.705   6.272   7.209
 6606TIP3   OH241376   2.993   4.354   2.415
 6606TIP3    H141377   3.056   4.282   2.415
 6606TIP3    H241378   3.021   4.411   2.343
 6607TIP3   OH241379   5.091   4.589   1.476
 6607TIP3    H141380   5.114   4.625   1.391
 6607TIP3    H241381   5.081   4.665   1.533
 6608TIP3   OH241382   5.452   2.008   1.112
 6608TIP3    H141383   5.392   2.023   1.039
 6608TIP3    H241384   5.413   1.934   1.160
 6609TIP3   OH241385   4.272   4.357   8.191
 6609TIP3    H141386   4.218   4.388   8.263
 6609TIP3    H241387   4.359   4.391   8.209
 6610TIP3   OH241388   2.037   3.442   0.020
 6610TIP3    H141389   1.985   3.445   0.101
 6610TIP3    H241390   2.128   3.438   0.049
 6611TIP3   OH241391   1.718   6.047   0.306
 6611TIP3    H141392   1.696   5.978   0.244
 6611TIP3    H241393   1.749   6.119   0.252
 6612TIP3   OH241394   5.534   1.562   0.931
 6612TIP3    H141395   5.532   1.618   0.853
 6612TIP3    H241396   5.538   1.473   0.895
 6613TIP3   OH241397   1.354   1.703   6.924
 6613TIP3    H141398   1.367   1.797   6.937
 6613TIP3    H241399   1.415   1.680   6.855
 6614TIP3   OH241400   3.285   3.330   2.002
 6614TIP3    H141401   3.225   3.264   2.036
 6614TIP3    H241402   3.359   3.329   2.063
 6615TIP3   OH241403   4.187   1.007   8.060
 6615TIP3    H141404   4.219   0.924   8.026
 6615TIP3    H241405   4.248   1.029   8.131
 6616TIP3   OH241406   1.724   4.178   0.009
 6616TIP3    H141407   1.707   4.167   8.698
 6616TIP3    H241408   1.768   4.263   0.015
 6617TIP3   OH241409   0.100   3.492   6.717
 6617TIP3    H141410   0.081   3.552   6.790
 6617TIP3    H241411   0.045   3.523   6.645
 6618TIP3   OH241412   1.198   2.264   8.336
 6618TIP3    H141413   1.280   2.306   8.359
 6618TIP3    H241414   1.158   2.322   8.272
 6619TIP3   OH241415   1.157   2.997   0.662
 6619TIP3    H141416   1.089   2.935   0.690
 6619TIP3    H241417   1.174   3.049   0.741
 6620TIP3   OH241418   3.161   3.261   6.791
 6620TIP3    H141419   3.089   3.321   6.768
 6620TIP3    H241420   3.185   3.221   6.707
 6621TIP3   OH241421   6.315   3.092   8.362
 6621TIP3    H141422   6.237   3.142   8.387
 6621TIP3    H241423   6.329   3.116   8.270
 6622TIP3   OH241424   6.643   2.151   0.364
 6622TIP3    H141425   6.704   2.104   0.306
 6622TIP3    H241426   6.643   2.241   0.330
 6623TIP3   OH241427   5.923   2.868   7.263
 6623TIP3    H141428   5.851   2.916   7.304
 6623TIP3    H241429   5.990   2.862   7.331
 6624TIP3   OH241430   2.079   4.748   8.273
 6624TIP3    H141431   2.010   4.811   8.294
 6624TIP3    H241432   2.161   4.798   8.281
 6625TIP3   OH241433   1.498   6.832   7.730
 6625TIP3    H141434   1.542   0.068   7.770
 6625TIP3    H241435   1.569   6.781   7.691
 6626TIP3   OH241436   2.880   2.781   7.117
 6626TIP3    H141437   2.828   2.828   7.053
 6626TIP3    H241438   2.955   2.746   7.067
 6627TIP3   OH241439   5.054   2.848   2.073
 6627TIP3    H141440   4.984   2.912   2.073
 6627TIP3    H241441   5.012   2.766   2.098
 6628TIP3   OH241442   3.631   0.196   7.747
 6628TIP3    H141443   3.669   0.237   7.670
 6628TIP3    H241444   3.562   0.139   7.712
 6629TIP3   OH241445   2.417   2.829   7.467
 6629TIP3    H141446   2.385   2.854   7.554
 6629TIP3    H241447   2.453   2.910   7.431
 6630TIP3   OH241448   5.699   4.469   0.343
 6630TIP3    H141449   5.632   4.511   0.397
 6630TIP3    H241450   5.752   4.419   0.405
 6631TIP3   OH241451   1.603   3.068   0.491
 6631TIP3    H141452   1.611   2.993   0.433
 6631TIP3    H241453   1.563   3.137   0.437
 6632TIP3   OH241454   5.612   5.550   8.562
 6632TIP3    H141455   5.571   5.493   8.627
 6632TIP3    H241456   5.547   5.619   8.546
 6633TIP3   OH241457   3.695   1.130   0.569
 6633TIP3    H141458   3.706   1.208   0.623
 6633TIP3    H241459   3.611   1.143   0.525
 6634TIP3   OH241460   1.718   1.590   0.169
 6634TIP3    H141461   1.731   1.501   0.136
 6634TIP3    H241462   1.727   1.582   0.264
 6635TIP3   OH241463   1.960   3.285   2.141
 6635TIP3    H141464   1.997   3.209   2.097
 6635TIP3    H241465   2.030   3.316   2.199
 6636TIP3   OH241466   0.308   5.198   6.658
 6636TIP3    H141467   0.302   5.105   6.640
 6636TIP3    H241468   0.265   5.240   6.583
 6637TIP3   OH241469   6.698   3.616   7.298
 6637TIP3    H141470   6.675   3.546   7.358
 6637TIP3    H241471   6.782   3.648   7.330
 6638TIP3   OH241472   3.958   2.188   8.146
 6638TIP3    H141473   3.877   2.224   8.182
 6638TIP3    H241474   4.021   2.260   8.153
 6639TIP3   OH241475   6.271   1.173   0.700
 6639TIP3    H141476   6.279   1.112   0.626
 6639TIP3    H241477   6.182   1.206   0.694
 6640TIP3   OH241478   1.468   6.692   8.174
 6640TIP3    H141479   1.393   6.660   8.124
 6640TIP3    H241480   1.526   6.731   8.108
 6641TIP3   OH241481   1.781   6.204   0.018
 6641TIP3    H141482   1.813   6.288   0.051
 6641TIP3    H241483   1.765   6.219   8.707
 6642TIP3   OH241484   0.870   2.020   1.009
 6642TIP3    H141485   0.956   1.978   0.998
 6642TIP3    H241486   0.879   2.069   1.091
 6643TIP3   OH241487   4.412   1.122   1.129
 6643TIP3    H141488   4.357   1.054   1.090
 6643TIP3    H241489   4.362   1.203   1.116
 6644TIP3   OH241490   0.671   1.698   0.022
 6644TIP3    H141491   0.652   1.645   8.727
 6644TIP3    H241492   0.693   1.634   0.090
 6645TIP3   OH241493   5.048   5.375   0.672
 6645TIP3    H141494   5.049   5.471   0.681
 6645TIP3    H241495   4.956   5.354   0.657
 6646TIP3   OH241496   6.534   0.040   1.331
 6646TIP3    H141497   6.439   0.041   1.319
 6646TIP3    H241498   6.561   6.791   1.300
 6647TIP3   OH241499   6.679   3.869   8.602
 6647TIP3    H141500   6.617   3.796   8.605
 6647TIP3    H241501   6.735   3.850   8.526
 6648TIP3   OH241502   5.655   6.163   0.992
 6648TIP3    H141503   5.606   6.110   0.929
 6648TIP3    H241504   5.721   6.104   1.028
 6649TIP3   OH241505   2.341   6.397   7.450
 6649TIP3    H141506   2.318   6.488   7.468
 6649TIP3    H241507   2.257   6.355   7.429
 6650TIP3   OH241508   6.379   1.086   0.441
 6650TIP3    H141509   6.447   1.059   0.379
 6650TIP3    H241510   6.415   1.163   0.485
 6651TIP3   OH241511   6.347   1.485   1.477
 6651TIP3    H141512   6.325   1.421   1.408
 6651TIP3    H241513   6.439   1.506   1.461
 6652TIP3   OH241514   0.937   0.607   2.415
 6652TIP3    H141515   1.018   0.577   2.458
 6652TIP3    H241516   0.884   0.528   2.407
 6653TIP3   OH241517   5.540   6.093   7.568
 6653TIP3    H141518   5.572   6.053   7.487
 6653TIP3    H241519   5.462   6.142   7.542
 6654TIP3   OH241520   2.297   5.423   1.659
 6654TIP3    H141521   2.346   5.486   1.607
 6654TIP3    H241522   2.343   5.420   1.743
 6655TIP3   OH241523   5.303   5.607   2.021
 6655TIP3    H141524   5.302   5.512   2.028
 6655TIP3    H241525   5.280   5.638   2.109
 6656TIP3   OH241526   3.072   6.806   1.882
 6656TIP3    H141527   3.078   0.011   1.797
 6656TIP3    H241528   3.163   6.802   1.913
 6657TIP3   OH241529   0.398   3.890   6.901
 6657TIP3    H141530   0.462   3.873   6.831
 6657TIP3    H241531   0.439   3.956   6.956
 6658TIP3   OH241532   0.957   3.625   8.371
 6658TIP3    H141533   0.862   3.617   8.365
 6658TIP3    H241534   0.978   3.592   8.459
 6659TIP3   OH241535   2.789   5.774   1.676
 6659TIP3    H141536   2.752   5.714   1.613
 6659TIP3    H241537   2.747   5.752   1.759
 6660TIP3   OH241538   6.177   2.560   0.591
 6660TIP3    H141539   6.175   2.482   0.647
 6660TIP3    H241540   6.180   2.526   0.502
 6661TIP3   OH241541   4.419   3.004   8.246
 6661TIP3    H141542   4.379   2.948   8.180
 6661TIP3    H241543   4.368   3.085   8.244
 6662TIP3   OH241544   4.573   1.211   1.548
 6662TIP3    H141545   4.582   1.240   1.457
 6662TIP3    H241546   4.661   1.221   1.585
 6663TIP3   OH241547   4.558   3.916   0.595
 6663TIP3    H141548   4.637   3.884   0.639
 6663TIP3    H241549   4.526   3.986   0.652
 6664TIP3   OH241550   1.073   6.454   1.432
 6664TIP3    H141551   1.084   6.535   1.382
 6664TIP3    H241552   0.983   6.427   1.415
 6665TIP3   OH241553   3.512   2.740   1.590
 6665TIP3    H141554   3.561   2.817   1.561
 6665TIP3    H241555   3.447   2.725   1.522
 6666TIP3   OH241556   3.757   5.470   8.119
 6666TIP3    H141557   3.669   5.434   8.131
 6666TIP3    H241558   3.753   5.516   8.036
 6667TIP3   OH241559   5.273   3.731   6.393
 6667TIP3    H141560   5.360   3.755   6.361
 6667TIP3    H241561   5.227   3.700   6.315
 6668TIP3   OH241562   4.639   3.071   6.300
 6668TIP3    H141563   4.696   3.096   6.227
 6668TIP3    H241564   4.663   3.130   6.371
 6669TIP3   OH241565   1.843   3.949   7.574
 6669TIP3    H141566   1.902   3.905   7.513
 6669TIP3    H241567   1.822   4.032   7.531
 6670TIP3   OH241568   0.984   0.732   0.704
 6670TIP3    H141569   1.077   0.732   0.682
 6670TIP3    H241570   0.969   0.645   0.742
 6671TIP3   OH241571   1.548   1.235   0.802
 6671TIP3    H141572   1.514   1.206   0.717
 6671TIP3    H241573   1.470   1.245   0.856
 6672TIP3   OH241574   0.630   5.937   8.153
 6672TIP3    H141575   0.564   5.885   8.108
 6672TIP3    H241576   0.710   5.922   8.102
 6673TIP3   OH241577   6.181   2.045   0.048
 6673TIP3    H141578   6.136   2.127   0.068
 6673TIP3    H241579   6.111   1.981   0.036
 6674TIP3   OH241580   3.736   3.405   7.426
 6674TIP3    H141581   3.747   3.468   7.497
 6674TIP3    H241582   3.773   3.448   7.349
 6675TIP3   OH241583   2.196   0.379   7.361
 6675TIP3    H141584   2.227   0.447   7.421
 6675TIP3    H241585   2.241   0.300   7.389
 6676TIP3   OH241586   4.987   6.720   0.116
 6676TIP3    H141587   4.921   6.675   0.170
 6676TIP3    H241588   4.997   6.663   0.039
 6677TIP3   OH241589   2.275   6.796   0.665
 6677TIP3    H141590   2.283   0.037   0.611
 6677TIP3    H241591   2.186   6.800   0.700
 6678TIP3   OH241592   0.696   2.299   6.801
 6678TIP3    H141593   0.763   2.337   6.744
 6678TIP3    H241594   0.686   2.209   6.771
 6679TIP3   OH241595   6.688   4.218   1.670
 6679TIP3    H141596   6.752   4.267   1.723
 6679TIP3    H241597   6.611   4.212   1.726
 6680TIP3   OH241598   5.224   0.437   1.475
 6680TIP3    H141599   5.253   0.348   1.456
 6680TIP3    H241600   5.254   0.454   1.564
 6681TIP3   OH241601   5.178   4.594   0.434
 6681TIP3    H141602   5.237   4.629   0.367
 6681TIP3    H241603   5.162   4.668   0.493
 6682TIP3   OH241604   3.419   3.505   0.888
 6682TIP3    H141605   3.486   3.497   0.956
 6682TIP3    H241606   3.339   3.528   0.935
 6683TIP3   OH241607   2.819   5.969   7.213
 6683TIP3    H141608   2.838   5.914   7.289
 6683TIP3    H241609   2.817   5.908   7.139
 6684TIP3   OH241610   4.494   1.888   7.283
 6684TIP3    H141611   4.455   1.802   7.301
 6684TIP3    H241612   4.585   1.880   7.312
 6685TIP3   OH241613   4.442   2.940   1.169
 6685TIP3    H141614   4.387   2.916   1.095
 6685TIP3    H241615   4.385   2.992   1.226
 6686TIP3   OH241616   1.970   5.615   7.540
 6686TIP3    H141617   1.934   5.628   7.452
 6686TIP3    H241618   2.064   5.608   7.527
 6687TIP3   OH241619   0.592   6.458   7.718
 6687TIP3    H141620   0.567   6.382   7.664
 6687TIP3    H241621   0.560   6.534   7.669
 6688TIP3   OH241622   3.683   3.381   8.492
 6688TIP3    H141623   3.599   3.396   8.450
 6688TIP3    H241624   3.684   3.441   8.567
 6689TIP3   OH241625   1.756   3.402   8.504
 6689TIP3    H141626   1.788   3.454   8.429
 6689TIP3    H241627   1.742   3.315   8.468
 6690TIP3   OH241628   2.518   4.618   1.234
 6690TIP3    H141629   2.561   4.696   1.270
 6690TIP3    H241630   2.427   4.624   1.265
 6691TIP3   OH241631   5.190   5.739   8.579
 6691TIP3    H141632   5.156   5.779   8.499
 6691TIP3    H241633   5.122   5.755   8.644
 6692TIP3   OH241634   6.150   6.365   0.672
 6692TIP3    H141635   6.151   6.432   0.740
 6692TIP3    H241636   6.221   6.390   0.613
 6693TIP3   OH241637   2.134   5.103   0.034
 6693TIP3    H141638   2.192   5.150   8.757
 6693TIP3    H241639   2.050   5.147   0.025
 6694TIP3   OH241640   4.936   3.098   0.505
 6694TIP3    H141641   4.989   3.065   0.432
 6694TIP3    H241642   5.000   3.132   0.568
 6695TIP3   OH241643   6.711   2.551   7.606
 6695TIP3    H141644   6.692   2.638   7.570
 6695TIP3    H241645   6.631   2.501   7.593
 6696TIP3   OH241646   5.336   3.182   6.968
 6696TIP3    H141647   5.316   3.141   6.884
 6696TIP3    H241648   5.253   3.185   7.014
 6697TIP3   OH241649   1.584   6.260   7.028
 6697TIP3    H141650   1.634   6.221   7.100
 6697TIP3    H241651   1.588   6.195   6.958
 6698TIP3   OH241652   1.304   3.115   0.866
 6698TIP3    H141653   1.361   3.162   0.806
 6698TIP3    H241654   1.354   3.037   0.892
 6699TIP3   OH241655   2.657   4.727   0.639
 6699TIP3    H141656   2.726   4.778   0.682
 6699TIP3    H241657   2.589   4.792   0.619
 6700TIP3   OH241658   0.078   4.729   0.958
 6700TIP3    H141659   0.071   4.733   0.863
 6700TIP3    H241660   0.172   4.735   0.976
 6701TIP3   OH241661   3.586   0.131   7.000
 6701TIP3    H141662   3.558   0.161   6.913
 6701TIP3    H241663   3.673   0.169   7.011
 6702TIP3   OH241664   4.713   5.365   8.167
 6702TIP3    H141665   4.680   5.424   8.234
 6702TIP3    H241666   4.718   5.419   8.088
 6703TIP3   OH241667   1.656   0.035   2.253
 6703TIP3    H141668   1.567   0.000   2.246
 6703TIP3    H241669   1.645   0.130   2.242
 6704TIP3   OH241670   4.047   3.651   8.492
 6704TIP3    H141671   4.074   3.606   8.412
 6704TIP3    H241672   4.015   3.736   8.462
 6705TIP3   OH241673   2.413   1.778   0.837
 6705TIP3    H141674   2.481   1.711   0.833
 6705TIP3    H241675   2.418   1.811   0.927
 6706TIP3   OH241676   4.450   6.039   8.155
 6706TIP3    H141677   4.409   6.124   8.144
 6706TIP3    H241678   4.478   6.014   8.067
 6707TIP3   OH241679   2.967   0.663   6.393
 6707TIP3    H141680   2.960   0.711   6.310
 6707TIP3    H241681   2.953   0.730   6.460
 6708TIP3   OH241682   5.548   6.067   8.444
 6708TIP3    H141683   5.614   6.074   8.376
 6708TIP3    H241684   5.538   6.157   8.477
 6709TIP3   OH241685   4.262   4.767   6.879
 6709TIP3    H141686   4.299   4.749   6.792
 6709TIP3    H241687   4.289   4.693   6.933
 6710TIP3   OH241688   0.182   4.398   1.558
 6710TIP3    H141689   0.242   4.326   1.540
 6710TIP3    H241690   0.148   4.422   1.471
 6711TIP3   OH241691   6.828   3.754   6.565
 6711TIP3    H141692   6.758   3.788   6.621
 6711TIP3    H241693   6.784   3.693   6.506
 6712TIP3   OH241694   6.075   1.999   0.320
 6712TIP3    H141695   6.093   2.007   0.227
 6712TIP3    H241696   6.031   1.914   0.329
 6713TIP3   OH241697   4.448   6.093   2.282
 6713TIP3    H141698   4.458   6.066   2.190
 6713TIP3    H241699   4.432   6.011   2.329
 6714TIP3   OH241700   1.034   6.021   0.318
 6714TIP3    H141701   0.986   5.956   0.266
 6714TIP3    H241702   1.098   5.969   0.367
 6715TIP3   OH241703   1.541   3.061   7.341
 6715TIP3    H141704   1.465   3.083   7.287
 6715TIP3    H241705   1.531   2.967   7.360
 6716TIP3   OH241706   1.287   1.253   8.185
 6716TIP3    H141707   1.378   1.234   8.162
 6716TIP3    H241708   1.276   1.218   8.274
 6717TIP3   OH241709   0.456   6.319   8.163
 6717TIP3    H141710   0.514   6.247   8.137
 6717TIP3    H241711   0.469   6.386   8.097
 6718TIP3   OH241712   4.214   2.625   7.192
 6718TIP3    H141713   4.299   2.657   7.221
 6718TIP3    H241714   4.163   2.616   7.272
 6719TIP3   OH241715   5.397   3.714   1.513
 6719TIP3    H141716   5.485   3.689   1.485
 6719TIP3    H241717   5.411   3.760   1.596
 6720TIP3   OH241718   0.948   0.419   7.922
 6720TIP3    H141719   0.981   0.497   7.967
 6720TIP3    H241720   1.014   0.401   7.855
 6721TIP3   OH241721   4.717   4.793   6.884
 6721TIP3    H141722   4.690   4.747   6.804
 6721TIP3    H241723   4.810   4.811   6.872
 6722TIP3   OH241724   2.876   3.071   2.727
 6722TIP3    H141725   2.860   2.989   2.679
 6722TIP3    H241726   2.965   3.096   2.700
 6723TIP3   OH241727   2.933   1.319   1.595
 6723TIP3    H141728   2.991   1.258   1.550
 6723TIP3    H241729   2.901   1.270   1.671
 6724TIP3   OH241730   1.378   0.020   7.133
 6724TIP3    H141731   1.344   0.066   7.210
 6724TIP3    H241732   1.381   0.086   7.064
 6725TIP3   OH241733   6.157   4.257   7.191
 6725TIP3    H141734   6.086   4.215   7.239
 6725TIP3    H241735   6.137   4.350   7.194
 6726TIP3   OH241736   5.160   4.487   7.735
 6726TIP3    H141737   5.180   4.571   7.694
 6726TIP3    H241738   5.088   4.506   7.794
 6727TIP3   OH241739   0.824   6.323   8.263
 6727TIP3    H141740   0.908   6.278   8.271
 6727TIP3    H241741   0.845   6.404   8.215
 6728TIP3   OH241742   6.075   3.554   6.624
 6728TIP3    H141743   6.139   3.488   6.649
 6728TIP3    H241744   6.025   3.514   6.553
 6729TIP3   OH241745   2.078   3.331   8.535
 6729TIP3    H141746   2.073   3.394   8.607
 6729TIP3    H241747   2.143   3.267   8.563
 6730TIP3   OH241748   2.388   4.901   7.515
 6730TIP3    H141749   2.403   4.823   7.461
 6730TIP3    H241750   2.312   4.943   7.475
 6731TIP3   OH241751   2.814   1.626   2.365
 6731TIP3    H141752   2.828   1.691   2.296
 6731TIP3    H241753   2.894   1.630   2.418
 6732TIP3   OH241754   1.889   2.283   6.274
 6732TIP3    H141755   1.894   2.243   6.361
 6732TIP3    H241756   1.834   2.360   6.287
 6733TIP3   OH241757   1.132   1.186   0.038
 6733TIP3    H141758   1.172   1.142   0.112
 6733TIP3    H241759   1.088   1.116   8.772
 6734TIP3   OH241760   3.779   3.260   7.786
 6734TIP3    H141761   3.832   3.242   7.708
 6734TIP3    H241762   3.701   3.206   7.775
 6735TIP3   OH241763   1.922   0.650   8.013
 6735TIP3    H141764   1.862   0.606   8.073
 6735TIP3    H241765   1.879   0.733   7.992
 6736TIP3   OH241766   5.982   5.255   8.109
 6736TIP3    H141767   6.034   5.320   8.156
 6736TIP3    H241768   6.023   5.171   8.131
 6737TIP3   OH241769   3.420   0.722   1.071
 6737TIP3    H141770   3.434   0.761   0.984
 6737TIP3    H241771   3.448   0.631   1.061
 6738TIP3   OH241772   4.262   0.683   0.889
 6738TIP3    H141773   4.248   0.709   0.798
 6738TIP3    H241774   4.269   0.765   0.937
 6739TIP3   OH241775   1.922   2.578   8.230
 6739TIP3    H141776   1.896   2.530   8.309
 6739TIP3    H241777   1.857   2.551   8.165
 6740TIP3   OH241778   2.078   6.598   0.868
 6740TIP3    H141779   1.983   6.598   0.881
 6740TIP3    H241780   2.108   6.518   0.912
 6741TIP3   OH241781   0.386   3.449   8.442
 6741TIP3    H141782   0.361   3.473   8.353
 6741TIP3    H241783   0.305   3.456   8.493
 6742TIP3   OH241784   3.776   5.254   1.941
 6742TIP3    H141785   3.703   5.236   2.000
 6742TIP3    H241786   3.783   5.174   1.888
 6743TIP3   OH241787   3.776   4.151   1.492
 6743TIP3    H141788   3.769   4.172   1.399
 6743TIP3    H241789   3.866   4.122   1.503
 6744TIP3   OH241790   6.811   5.488   6.446
 6744TIP3    H141791   6.726   5.526   6.424
 6744TIP3    H241792   6.825   5.513   6.537
 6745TIP3   OH241793   0.942   1.032   8.711
 6745TIP3    H141794   0.933   0.939   8.690
 6745TIP3    H241795   0.941   1.076   8.626
 6746TIP3   OH241796   5.776   2.635   7.610
 6746TIP3    H141797   5.738   2.549   7.630
 6746TIP3    H241798   5.731   2.695   7.670
 6747TIP3   OH241799   6.441   6.769   1.616
 6747TIP3    H141800   6.358   6.807   1.647
 6747TIP3    H241801   6.464   6.705   1.683
 6748TIP3   OH241802   2.107   1.286   1.096
 6748TIP3    H141803   2.017   1.317   1.106
 6748TIP3    H241804   2.155   1.363   1.065
 6749TIP3   OH241805   3.291   3.533   2.354
 6749TIP3    H141806   3.271   3.557   2.263
 6749TIP3    H241807   3.348   3.603   2.385
 6750TIP3   OH241808   0.017   3.872   8.393
 6750TIP3    H141809   0.047   3.946   8.340
 6750TIP3    H241810   0.092   3.813   8.397
 6751TIP3   OH241811   0.656   4.752   1.356
 6751TIP3    H141812   0.633   4.818   1.421
 6751TIP3    H241813   0.577   4.698   1.346
 6752TIP3   OH241814   6.210   5.791   7.087
 6752TIP3    H141815   6.221   5.823   7.176
 6752TIP3    H241816   6.215   5.869   7.032
 6753TIP3   OH241817   4.412   5.328   0.550
 6753TIP3    H141818   4.498   5.288   0.563
 6753TIP3    H241819   4.403   5.390   0.622
 6754TIP3   OH241820   1.961   1.190   0.190
 6754TIP3    H141821   1.873   1.201   0.227
 6754TIP3    H241822   2.001   1.122   0.244
 6755TIP3   OH241823   1.626   4.127   0.476
 6755TIP3    H141824   1.576   4.059   0.521
 6755TIP3    H241825   1.715   4.119   0.511
 6756TIP3   OH241826   2.994   0.462   0.552
 6756TIP3    H141827   3.047   0.449   0.631
 6756TIP3    H241828   2.999   0.379   0.506
 6757TIP3   OH241829   5.679   2.603   1.293
 6757TIP3    H141830   5.585   2.605   1.277
 6757TIP3    H241831   5.696   2.680   1.346
 6758TIP3   OH241832   4.307   6.667   8.558
 6758TIP3    H141833   4.306   6.573   8.579
 6758TIP3    H241834   4.307   6.711   8.643
 6759TIP3   OH241835   6.181   4.417   8.492
 6759TIP3    H141836   6.178   4.345   8.556
 6759TIP3    H241837   6.171   4.374   8.407
 6760TIP3   OH241838   4.338   5.326   1.730
 6760TIP3    H141839   4.384   5.370   1.802
 6760TIP3    H241840   4.313   5.397   1.671
 6761TIP3   OH241841   0.908   4.803   8.159
 6761TIP3    H141842   0.900   4.787   8.066
 6761TIP3    H241843   0.998   4.834   8.171
 6762TIP3   OH241844   1.855   2.498   0.342
 6762TIP3    H141845   1.903   2.568   0.384
 6762TIP3    H241846   1.847   2.430   0.409
 6763TIP3   OH241847   4.766   3.082   0.121
 6763TIP3    H141848   4.673   3.080   0.141
 6763TIP3    H241849   4.798   3.162   0.162
 6764TIP3   OH241850   3.230   6.387   8.384
 6764TIP3    H141851   3.263   6.421   8.467
 6764TIP3    H241852   3.207   6.464   8.333
 6765TIP3   OH241853   1.195   6.026   6.451
 6765TIP3    H141854   1.242   6.074   6.519
 6765TIP3    H241855   1.104   6.054   6.461
 6766TIP3   OH241856   1.828   1.471   1.508
 6766TIP3    H141857   1.889   1.454   1.436
 6766TIP3    H241858   1.853   1.556   1.543
 6767TIP3   OH241859   3.652   6.812   1.822
 6767TIP3    H141860   3.664   6.809   1.916
 6767TIP3    H241861   3.559   6.832   1.809
 6768TIP3   OH241862   2.952   4.827   0.191
 6768TIP3    H141863   3.043   4.804   0.207
 6768TIP3    H241864   2.904   4.790   0.264
 6769TIP3   OH241865   4.759   2.500   0.628
 6769TIP3    H141866   4.690   2.434   0.625
 6769TIP3    H241867   4.809   2.480   0.707
 6770TIP3   OH241868   1.460   1.979   0.827
 6770TIP3    H141869   1.489   1.895   0.863
 6770TIP3    H241870   1.491   2.044   0.889
 6771TIP3   OH241871   3.259   5.725   8.692
 6771TIP3    H141872   3.245   5.805   8.743
 6771TIP3    H241873   3.322   5.751   8.625
 6772TIP3   OH241874   6.653   1.216   8.444
 6772TIP3    H141875   6.651   1.311   8.457
 6772TIP3    H241876   6.670   1.180   8.531
 6773TIP3   OH241877   5.193   4.046   1.148
 6773TIP3    H141878   5.213   3.994   1.225
 6773TIP3    H241879   5.123   3.998   1.104
 6774TIP3   OH241880   5.267   4.318   7.934
 6774TIP3    H141881   5.202   4.293   7.999
 6774TIP3    H241882   5.219   4.371   7.870
 6775TIP3   OH241883   4.143   5.697   7.584
 6775TIP3    H141884   4.193   5.620   7.612
 6775TIP3    H241885   4.116   5.677   7.495
 6776TIP3   OH241886   2.088   6.605   0.334
 6776TIP3    H141887   2.010   6.621   0.280
 6776TIP3    H241888   2.142   6.683   0.323
 6777TIP3   OH241889   4.611   1.935   1.213
 6777TIP3    H141890   4.571   2.022   1.202
 6777TIP3    H241891   4.607   1.896   1.126
 6778TIP3   OH241892   2.851   5.771   7.041
 6778TIP3    H141893   2.931   5.756   7.091
 6778TIP3    H241894   2.868   5.732   6.956
 6779TIP3   OH241895   6.026   0.035   8.533
 6779TIP3    H141896   6.008   0.115   8.484
 6779TIP3    H241897   5.979   6.805   8.484
 6780TIP3   OH241898   4.284   1.898   6.959
 6780TIP3    H141899   4.217   1.940   6.906
 6780TIP3    H241900   4.245   1.891   7.047
 6781TIP3   OH241901   3.251   2.653   1.737
 6781TIP3    H141902   3.185   2.722   1.749
 6781TIP3    H241903   3.270   2.654   1.643
 6782TIP3   OH241904   2.645   2.301   6.624
 6782TIP3    H141905   2.725   2.299   6.572
 6782TIP3    H241906   2.675   2.303   6.715
 6783TIP3   OH241907   4.673   0.546   1.929
 6783TIP3    H141908   4.643   0.629   1.964
 6783TIP3    H241909   4.743   0.519   1.988
 6784TIP3   OH241910   5.215   2.010   7.739
 6784TIP3    H141911   5.196   2.026   7.831
 6784TIP3    H241912   5.246   2.094   7.705
 6785TIP3   OH241913   5.462   1.086   8.524
 6785TIP3    H141914   5.456   1.052   8.613
 6785TIP3    H241915   5.554   1.076   8.500
 6786TIP3   OH241916   3.328   5.769   7.814
 6786TIP3    H141917   3.401   5.821   7.848
 6786TIP3    H241918   3.326   5.691   7.870
 6787TIP3   OH241919   3.720   0.273   0.622
 6787TIP3    H141920   3.646   0.225   0.586
 6787TIP3    H241921   3.683   0.358   0.648
 6788TIP3   OH241922   6.788   3.320   0.448
 6788TIP3    H141923   6.792   3.294   0.540
 6788TIP3    H241924   6.751   3.408   0.450
 6789TIP3   OH241925   3.841   4.137   7.616
 6789TIP3    H141926   3.910   4.142   7.681
 6789TIP3    H241927   3.788   4.215   7.630
 6790TIP3   OH241928   3.047   0.732   0.581
 6790TIP3    H141929   3.039   0.650   0.532
 6790TIP3    H241930   3.060   0.704   0.672
 6791TIP3   OH241931   1.476   0.172   6.672
 6791TIP3    H141932   1.384   0.171   6.645
 6791TIP3    H241933   1.482   0.105   6.740
 6792TIP3   OH241934   3.415   4.139   8.782
 6792TIP3    H141935   3.363   4.080   0.055
 6792TIP3    H241936   3.485   4.084   8.748
 6793TIP3   OH241937   5.312   1.721   8.748
 6793TIP3    H141938   5.262   1.802   8.764
 6793TIP3    H241939   5.395   1.751   8.711
 6794TIP3   OH241940   2.040   3.786   6.961
 6794TIP3    H141941   2.014   3.876   6.940
 6794TIP3    H241942   2.098   3.795   7.037
 6795TIP3   OH241943   3.646   3.742   6.873
 6795TIP3    H141944   3.641   3.807   6.803
 6795TIP3    H241945   3.645   3.794   6.953
 6796TIP3   OH241946   4.565   2.276   1.951
 6796TIP3    H141947   4.537   2.324   2.029
 6796TIP3    H241948   4.627   2.210   1.984
 6797TIP3   OH241949   3.799   4.327   6.417
 6797TIP3    H141950   3.882   4.361   6.449
 6797TIP3    H241951   3.816   4.303   6.326
 6798TIP3   OH241952   0.555   3.032   0.710
 6798TIP3    H141953   0.587   3.008   0.797
 6798TIP3    H241954   0.583   2.960   0.653
 6799TIP3   OH241955   2.797   0.549   1.077
 6799TIP3    H141956   2.843   0.523   0.998
 6799TIP3    H241957   2.782   0.467   1.125
 6800TIP3   OH241958   6.057   3.917   8.018
 6800TIP3    H141959   6.028   3.871   7.939
 6800TIP3    H241960   6.064   3.848   8.084
 6801TIP3   OH241961   2.216   4.435   0.317
 6801TIP3    H141962   2.171   4.513   0.350
 6801TIP3    H241963   2.304   4.441   0.352
 6802TIP3   OH241964   0.360   5.970   0.235
 6802TIP3    H141965   0.350   6.040   0.171
 6802TIP3    H241966   0.271   5.948   0.262
 6803TIP3   OH241967   1.947   1.070   7.617
 6803TIP3    H141968   1.952   1.133   7.545
 6803TIP3    H241969   1.887   1.003   7.586
 6804TIP3   OH241970   4.052   3.513   1.027
 6804TIP3    H141971   3.967   3.526   0.986
 6804TIP3    H241972   4.104   3.466   0.962
 6805TIP3   OH241973   6.418   1.707   7.748
 6805TIP3    H141974   6.459   1.782   7.793
 6805TIP3    H241975   6.390   1.743   7.664
 6806TIP3   OH241976   6.435   4.108   7.945
 6806TIP3    H141977   6.459   4.072   8.031
 6806TIP3    H241978   6.469   4.198   7.947
 6807TIP3   OH241979   3.680   0.072   1.551
 6807TIP3    H141980   3.606   0.132   1.562
 6807TIP3    H241981   3.691   0.031   1.637
 6808TIP3   OH241982   3.829   6.744   0.457
 6808TIP3    H141983   3.862   6.655   0.463
 6808TIP3    H241984   3.813   6.770   0.547
 6809TIP3   OH241985   2.451   1.308   1.738
 6809TIP3    H141986   2.486   1.393   1.710
 6809TIP3    H241987   2.449   1.256   1.658
 6810TIP3   OH241988   4.361   0.786   7.050
 6810TIP3    H141989   4.323   0.708   7.091
 6810TIP3    H241990   4.444   0.800   7.098
 6811TIP3   OH241991   0.519   0.329   0.610
 6811TIP3    H141992   0.570   0.275   0.549
 6811TIP3    H241993   0.503   0.272   0.685
 6812TIP3   OH241994   1.677   1.058   7.039
 6812TIP3    H141995   1.716   1.081   6.954
 6812TIP3    H241996   1.613   1.128   7.055
 6813TIP3   OH241997   6.068   5.156   8.778
 6813TIP3    H141998   6.094   5.075   0.038
 6813TIP3    H241999   6.007   5.129   8.710
 6814TIP3   OH242000   6.537   0.036   0.010
 6814TIP3    H142001   6.514   6.816   8.720
 6814TIP3    H242002   6.552   6.816   0.084
 6815TIP3   OH242003   4.644   4.360   8.010
 6815TIP3    H142004   4.621   4.333   8.099
 6815TIP3    H242005   4.644   4.278   7.961
 6816TIP3   OH242006   4.573   3.099   7.436
 6816TIP3    H142007   4.649   3.088   7.380
 6816TIP3    H242008   4.540   3.186   7.416
 6817TIP3   OH242009   2.717   1.265   8.292
 6817TIP3    H142010   2.661   1.339   8.270
 6817TIP3    H242011   2.657   1.195   8.314
 6818TIP3   OH242012   0.700   1.458   7.965
 6818TIP3    H142013   0.783   1.501   7.986
 6818TIP3    H242014   0.633   1.520   7.993
 6819TIP3   OH242015   3.660   4.346   7.392
 6819TIP3    H142016   3.576   4.330   7.436
 6819TIP3    H242017   3.712   4.268   7.411
 6820TIP3   OH242018   2.642   0.357   1.856
 6820TIP3    H142019   2.615   0.344   1.947
 6820TIP3    H242020   2.560   0.372   1.809
 6821TIP3   OH242021   5.375   6.702   0.606
 6821TIP3    H142022   5.470   6.716   0.609
 6821TIP3    H242023   5.343   6.742   0.687
 6822TIP3   OH242024   6.249   0.390   7.164
 6822TIP3    H142025   6.292   0.416   7.246
 6822TIP3    H242026   6.272   0.298   7.154
 6823TIP3   OH242027   3.672   0.674   6.927
 6823TIP3    H142028   3.709   0.755   6.892
 6823TIP3    H242029   3.665   0.617   6.851
 6824TIP3   OH242030   3.190   1.013   7.086
 6824TIP3    H142031   3.107   0.972   7.059
 6824TIP3    H242032   3.239   0.942   7.128
 6825TIP3   OH242033   5.215   1.804   7.340
 6825TIP3    H142034   5.271   1.822   7.265
 6825TIP3    H242035   5.196   1.890   7.377
 6826TIP3   OH242036   6.004   3.617   0.645
 6826TIP3    H142037   5.942   3.563   0.597
 6826TIP3    H242038   6.079   3.561   0.661
 6827TIP3   OH242039   3.662   4.339   0.984
 6827TIP3    H142040   3.674   4.431   0.963
 6827TIP3    H242041   3.670   4.294   0.899
 6828TIP3   OH242042   3.993   3.529   0.206
 6828TIP3    H142043   3.925   3.508   0.142
 6828TIP3    H242044   4.006   3.448   0.255
 6829TIP3   OH242045   5.985   5.298   7.291
 6829TIP3    H142046   5.894   5.328   7.294
 6829TIP3    H242047   5.981   5.212   7.250
 6830TIP3   OH242048   4.720   6.293   7.552
 6830TIP3    H142049   4.717   6.244   7.470
 6830TIP3    H242050   4.660   6.246   7.611
 6831TIP3   OH242051   2.017   0.468   0.345
 6831TIP3    H142052   1.960   0.443   0.272
 6831TIP3    H242053   1.971   0.437   0.423
 6832TIP3   OH242054   5.062   3.048   1.084
 6832TIP3    H142055   4.971   3.079   1.088
 6832TIP3    H242056   5.114   3.128   1.082
 6833TIP3   OH242057   6.678   1.424   0.684
 6833TIP3    H142058   6.666   1.451   0.775
 6833TIP3    H242059   6.703   1.504   0.639
 6834TIP3   OH242060   5.819   1.786   2.243
 6834TIP3    H142061   5.877   1.814   2.314
 6834TIP3    H242062   5.781   1.704   2.273
 6835TIP3   OH242063   4.388   2.022   8.533
 6835TIP3    H142064   4.328   1.976   8.474
 6835TIP3    H242065   4.366   1.989   8.620
 6836TIP3   OH242066   2.274   2.220   1.278
 6836TIP3    H142067   2.268   2.165   1.357
 6836TIP3    H242068   2.256   2.160   1.206
 6837TIP3   OH242069   5.290   5.647   1.319
 6837TIP3    H142070   5.221   5.706   1.291
 6837TIP3    H242071   5.329   5.615   1.237
 6838TIP3   OH242072   6.251   5.088   8.227
 6838TIP3    H142073   6.257   5.043   8.142
 6838TIP3    H242074   6.332   5.137   8.234
 6839TIP3   OH242075   1.913   0.687   1.133
 6839TIP3    H142076   1.934   0.649   1.219
 6839TIP3    H242077   1.998   0.706   1.093
 6840TIP3   OH242078   1.083   5.394   8.301
 6840TIP3    H142079   1.063   5.396   8.207
 6840TIP3    H242080   1.133   5.473   8.317
 6841TIP3   OH242081   5.679   4.616   6.991
 6841TIP3    H142082   5.682   4.666   7.072
 6841TIP3    H242083   5.670   4.682   6.922
 6842TIP3   OH242084   0.592   6.430   0.699
 6842TIP3    H142085   0.635   6.344   0.700
 6842TIP3    H242086   0.605   6.464   0.787
 6843TIP3   OH242087   5.496   3.407   8.384
 6843TIP3    H142088   5.589   3.403   8.405
 6843TIP3    H242089   5.465   3.487   8.426
 6844TIP3   OH242090   0.732   3.576   7.170
 6844TIP3    H142091   0.655   3.519   7.172
 6844TIP3    H242092   0.734   3.617   7.256
 6845TIP3   OH242093   3.881   0.015   8.136
 6845TIP3    H142094   3.937   6.777   8.145
 6845TIP3    H242095   3.795   6.817   8.116
 6846TIP3   OH242096   5.389   5.402   8.721
 6846TIP3    H142097   5.347   5.439   0.016
 6846TIP3    H242098   5.420   5.316   8.749
 6847TIP3   OH242099   0.115   3.993   6.681
 6847TIP3    H142100   0.167   3.984   6.601
 6847TIP3    H242101   0.054   3.919   6.678
 6848TIP3   OH242102   3.495   4.912   8.372
 6848TIP3    H142103   3.524   4.946   8.288
 6848TIP3    H242104   3.514   4.981   8.435
 6849TIP3   OH242105   5.781   4.762   1.985
 6849TIP3    H142106   5.847   4.829   2.003
 6849TIP3    H242107   5.822   4.680   2.014
 6850TIP3   OH242108   1.301   2.813   7.765
 6850TIP3    H142109   1.215   2.835   7.801
 6850TIP3    H242110   1.308   2.718   7.777
 6851TIP3   OH242111   3.656   3.750   0.841
 6851TIP3    H142112   3.590   3.752   0.911
 6851TIP3    H242113   3.654   3.837   0.803
 6852TIP3   OH242114   5.223   0.594   8.536
 6852TIP3    H142115   5.130   0.614   8.539
 6852TIP3    H242116   5.266   0.680   8.528
 6853TIP3   OH242117   1.739   0.445   1.036
 6853TIP3    H142118   1.679   0.372   1.018
 6853TIP3    H242119   1.710   0.479   1.121
 6854TIP3   OH242120   5.809   5.950   1.037
 6854TIP3    H142121   5.821   5.855   1.025
 6854TIP3    H242122   5.855   5.970   1.119
 6855TIP3   OH242123   4.050   5.427   0.639
 6855TIP3    H142124   4.098   5.450   0.719
 6855TIP3    H242125   3.983   5.495   0.632
 6856TIP3   OH242126   1.368   0.556   8.160
 6856TIP3    H142127   1.459   0.568   8.184
 6856TIP3    H242128   1.358   0.461   8.152
 6857TIP3   OH242129   0.259   2.438   7.937
 6857TIP3    H142130   0.301   2.355   7.916
 6857TIP3    H242131   0.165   2.421   7.924
 6858TIP3   OH242132   1.674   5.503   7.750
 6858TIP3    H142133   1.709   5.591   7.766
 6858TIP3    H242134   1.733   5.445   7.799
 6859TIP3   OH242135   0.732   0.166   6.780
 6859TIP3    H142136   0.670   0.188   6.711
 6859TIP3    H242137   0.737   0.070   6.780
 6860TIP3   OH242138   5.991   3.922   6.991
 6860TIP3    H142139   5.901   3.889   6.995
 6860TIP3    H242140   5.981   4.017   6.979
 6861TIP3   OH242141   6.502   6.557   1.810
 6861TIP3    H142142   6.586   6.514   1.792
 6861TIP3    H242143   6.474   6.520   1.893
 6862TIP3   OH242144   3.926   4.155   8.153
 6862TIP3    H142145   4.010   4.141   8.109
 6862TIP3    H242146   3.895   4.067   8.174
 6863TIP3   OH242147   3.967   3.124   1.543
 6863TIP3    H142148   3.943   3.034   1.563
 6863TIP3    H242149   3.902   3.151   1.477
 6864TIP3   OH242150   6.146   6.151   7.244
 6864TIP3    H142151   6.134   6.232   7.294
 6864TIP3    H242152   6.072   6.096   7.271
 6865TIP3   OH242153   6.210   0.063   0.328
 6865TIP3    H142154   6.224   0.132   0.262
 6865TIP3    H242155   6.232   0.105   0.411
 6866TIP3   OH242156   4.996   4.441   0.133
 6866TIP3    H142157   5.064   4.396   0.083
 6866TIP3    H242158   4.963   4.375   0.194
 6867TIP3   OH242159   5.224   5.873   8.343
 6867TIP3    H142160   5.234   5.968   8.354
 6867TIP3    H242161   5.294   5.849   8.283
 6868TIP3   OH242162   2.455   1.076   6.843
 6868TIP3    H142163   2.526   1.018   6.816
 6868TIP3    H242164   2.455   1.147   6.778
 6869TIP3   OH242165   0.948   5.740   8.452
 6869TIP3    H142166   1.036   5.719   8.482
 6869TIP3    H242167   0.899   5.659   8.461
 6870TIP3   OH242168   1.376   3.184   1.751
 6870TIP3    H142169   1.313   3.122   1.712
 6870TIP3    H242170   1.325   3.234   1.814
 6871TIP3   OH242171   0.370   3.117   8.448
 6871TIP3    H142172   0.328   3.203   8.447
 6871TIP3    H242173   0.463   3.137   8.459
 6872TIP3   OH242174   0.176   6.248   0.245
 6872TIP3    H142175   0.201   6.206   0.328
 6872TIP3    H242176   0.117   6.185   0.203
 6873TIP3   OH242177   5.154   4.164   0.711
 6873TIP3    H142178   5.060   4.159   0.693
 6873TIP3    H242179   5.191   4.088   0.667
 6874TIP3   OH242180   4.001   4.004   1.552
 6874TIP3    H142181   4.022   3.910   1.555
 6874TIP3    H242182   4.080   4.046   1.585
 6875TIP3   OH242183   3.832   6.620   1.733
 6875TIP3    H142184   3.886   6.682   1.684
 6875TIP3    H242185   3.758   6.671   1.765
 6876TIP3   OH242186   4.889   2.024   1.846
 6876TIP3    H142187   4.885   2.099   1.787
 6876TIP3    H242188   4.961   1.971   1.814
 6877TIP3   OH242189   6.164   0.416   8.162
 6877TIP3    H142190   6.196   0.396   8.250
 6877TIP3    H242191   6.104   0.344   8.143
 6878TIP3   OH242192   2.038   5.303   8.139
 6878TIP3    H142193   2.113   5.361   8.153
 6878TIP3    H242194   1.961   5.358   8.157
 6879TIP3   OH242195   1.319   0.878   8.241
 6879TIP3    H142196   1.337   0.963   8.280
 6879TIP3    H242197   1.405   0.837   8.230
 6880TIP3   OH242198   4.585   1.738   0.366
 6880TIP3    H142199   4.558   1.723   0.275
 6880TIP3    H242200   4.622   1.827   0.366
 6881TIP3   OH242201   0.678   5.887   7.819
 6881TIP3    H142202   0.756   5.881   7.875
 6881TIP3    H242203   0.696   5.960   7.760
 6882TIP3   OH242204   6.772   1.875   1.580
 6882TIP3    H142205   6.760   1.963   1.615
 6882TIP3    H242206   6.687   1.832   1.592
 6883TIP3   OH242207   5.013   6.824   0.761
 6883TIP3    H142208   4.954   6.767   0.811
 6883TIP3    H242209   4.996   0.073   0.797
 6884TIP3   OH242210   4.882   1.251   7.743
 6884TIP3    H142211   4.824   1.288   7.676
 6884TIP3    H242212   4.878   1.156   7.729
 6885TIP3   OH242213   6.467   0.383   6.757
 6885TIP3    H142214   6.426   0.452   6.809
 6885TIP3    H242215   6.491   0.316   6.820
 6886TIP3   OH242216   1.063   4.330   0.228
 6886TIP3    H142217   1.059   4.286   0.143
 6886TIP3    H242218   1.100   4.416   0.209
 6887TIP3   OH242219   3.617   4.038   8.581
 6887TIP3    H142220   3.555   4.094   8.533
 6887TIP3    H242221   3.698   4.043   8.530
 6888TIP3   OH242222   0.822   0.001   8.147
 6888TIP3    H142223   0.802   0.011   8.240
 6888TIP3    H242224   0.907   0.044   8.137
 6889TIP3   OH242225   4.683   6.499   0.924
 6889TIP3    H142226   4.616   6.540   0.869
 6889TIP3    H242227   4.675   6.542   1.009
 6890TIP3   OH242228   6.608   6.758   0.670
 6890TIP3    H142229   6.666   6.682   0.661
 6890TIP3    H242230   6.609   6.798   0.584
 6891TIP3   OH242231   2.507   2.195   0.615
 6891TIP3    H142232   2.505   2.105   0.582
 6891TIP3    H242233   2.430   2.201   0.672
 6892TIP3   OH242234   4.054   6.555   7.294
 6892TIP3    H142235   4.092   6.637   7.263
 6892TIP3    H242236   4.044   6.502   7.215
 6893TIP3   OH242237   5.926   4.784   8.283
 6893TIP3    H142238   5.966   4.751   8.364
 6893TIP3    H242239   5.929   4.880   8.292
 6894TIP3   OH242240   0.382   6.399   0.147
 6894TIP3    H142241   0.307   6.377   0.202
 6894TIP3    H242242   0.414   6.483   0.181
 6895TIP3   OH242243   5.542   3.976   1.777
 6895TIP3    H142244   5.564   3.983   1.684
 6895TIP3    H242245   5.466   3.919   1.780
 6896TIP3   OH242246   2.508   0.797   8.683
 6896TIP3    H142247   2.426   0.844   8.700
 6896TIP3    H242248   2.481   0.722   8.629
 6897TIP3   OH242249   5.471   2.546   7.595
 6897TIP3    H142250   5.503   2.533   7.683
 6897TIP3    H242251   5.386   2.501   7.593
 6898TIP3   OH242252   1.065   3.380   0.258
 6898TIP3    H142253   0.970   3.371   0.257
 6898TIP3    H242254   1.096   3.305   0.309
 6899TIP3   OH242255   2.386   3.683   7.273
 6899TIP3    H142256   2.317   3.729   7.225
 6899TIP3    H242257   2.362   3.693   7.365
 6900TIP3   OH242258   6.544   3.050   1.380
 6900TIP3    H142259   6.502   3.119   1.329
 6900TIP3    H242260   6.638   3.067   1.370
 6901TIP3   OH242261   4.584   2.136   1.577
 6901TIP3    H142262   4.522   2.099   1.514
 6901TIP3    H242263   4.585   2.074   1.649
 6902TIP3   OH242264   2.194   0.262   2.907
 6902TIP3    H142265   2.266   0.325   2.911
 6902TIP3    H242266   2.189   0.238   2.814
 6903TIP3   OH242267   2.912   2.816   0.974
 6903TIP3    H142268   2.912   2.894   0.919
 6903TIP3    H242269   2.934   2.848   1.061
 6904TIP3   OH242270   4.453   0.387   0.284
 6904TIP3    H142271   4.497   0.424   0.207
 6904TIP3    H242272   4.457   0.458   0.349
 6905TIP3   OH242273   5.885   6.540   6.860
 6905TIP3    H142274   5.846   6.561   6.775
 6905TIP3    H242275   5.979   6.536   6.843
 6906TIP3   OH242276   3.232   4.261   1.628
 6906TIP3    H142277   3.258   4.313   1.552
 6906TIP3    H242278   3.263   4.173   1.608
 6907TIP3   OH242279   0.810   2.763   0.498
 6907TIP3    H142280   0.774   2.769   0.586
 6907TIP3    H242281   0.783   2.677   0.466
 6908TIP3   OH242282   2.081   5.110   1.905
 6908TIP3    H142283   2.141   5.060   1.850
 6908TIP3    H242284   2.060   5.051   1.977
 6909TIP3   OH242285   5.340   4.305   1.244
 6909TIP3    H142286   5.271   4.302   1.178
 6909TIP3    H242287   5.331   4.224   1.293
 6910TIP3   OH242288   6.564   6.278   7.171
 6910TIP3    H142289   6.647   6.319   7.194
 6910TIP3    H242290   6.508   6.292   7.248
 6911TIP3   OH242291   3.494   0.541   7.436
 6911TIP3    H142292   3.553   0.611   7.464
 6911TIP3    H242293   3.552   0.473   7.401
 6912TIP3   OH242294   3.726   1.739   0.493
 6912TIP3    H142295   3.653   1.777   0.444
 6912TIP3    H242296   3.757   1.667   0.438
 6913TIP3   OH242297   0.415   1.259   1.757
 6913TIP3    H142298   0.384   1.207   1.831
 6913TIP3    H242299   0.475   1.323   1.796
 6914TIP3   OH242300   6.187   1.316   2.075
 6914TIP3    H142301   6.171   1.287   2.165
 6914TIP3    H242302   6.239   1.396   2.085
 6915TIP3   OH242303   5.484   3.613   6.180
 6915TIP3    H142304   5.506   3.541   6.238
 6915TIP3    H242305   5.559   3.621   6.121
 6916TIP3   OH242306   4.229   2.080   2.280
 6916TIP3    H142307   4.221   2.015   2.350
 6916TIP3    H242308   4.312   2.124   2.299
 6917TIP3   OH242309   0.947   3.515   1.816
 6917TIP3    H142310   0.939   3.437   1.761
 6917TIP3    H242311   0.876   3.508   1.880
 6918TIP3   OH242312   2.666   0.657   7.625
 6918TIP3    H142313   2.739   0.622   7.574
 6918TIP3    H242314   2.665   0.604   7.705
 6919TIP3   OH242315   6.708   3.604   0.536
 6919TIP3    H142316   6.783   3.657   0.507
 6919TIP3    H242317   6.688   3.638   0.624
 6920TIP3   OH242318   0.667   5.953   8.426
 6920TIP3    H142319   0.651   6.047   8.432
 6920TIP3    H242320   0.669   5.935   8.332
 6921TIP3   OH242321   1.558   1.856   1.510
 6921TIP3    H142322   1.507   1.814   1.578
 6921TIP3    H242323   1.646   1.863   1.547
 6922TIP3   OH242324   1.567   0.427   1.255
 6922TIP3    H142325   1.581   0.448   1.347
 6922TIP3    H242326   1.473   0.442   1.241
 6923TIP3   OH242327   5.374   6.463   6.324
 6923TIP3    H142328   5.408   6.552   6.318
 6923TIP3    H242329   5.443   6.408   6.288
 6924TIP3   OH242330   5.569   2.144   8.651
 6924TIP3    H142331   5.640   2.195   8.689
 6924TIP3    H242332   5.577   2.158   8.556
 6925TIP3   OH242333   2.414   6.012   1.566
 6925TIP3    H142334   2.433   5.955   1.640
 6925TIP3    H242335   2.460   6.093   1.585
 6926TIP3   OH242336   2.857   1.358   0.391
 6926TIP3    H142337   2.828   1.310   0.314
 6926TIP3    H242338   2.783   1.355   0.451
 6927TIP3   OH242339   4.793   1.452   7.250
 6927TIP3    H142340   4.852   1.464   7.176
 6927TIP3    H242341   4.773   1.540   7.279
 6928TIP3   OH242342   3.878   3.432   1.528
 6928TIP3    H142343   3.878   3.424   1.432
 6928TIP3    H242344   3.971   3.440   1.551
 6929TIP3   OH242345   3.672   3.575   1.291
 6929TIP3    H142346   3.630   3.617   1.216
 6929TIP3    H242347   3.670   3.641   1.360
 6930TIP3   OH242348   5.173   2.065   7.430
 6930TIP3    H142349   5.149   2.142   7.378
 6930TIP3    H242350   5.205   2.101   7.512
 6931TIP3   OH242351   3.487   0.647   8.054
 6931TIP3    H142352   3.513   0.572   8.000
 6931TIP3    H242353   3.419   0.614   8.111
 6932TIP3   OH242354   6.163   4.599   1.851
 6932TIP3    H142355   6.183   4.508   1.832
 6932TIP3    H242356   6.074   4.612   1.817
 6933TIP3   OH242357   6.264   4.519   6.913
 6933TIP3    H142358   6.185   4.485   6.955
 6933TIP3    H242359   6.246   4.512   6.820
 6934TIP3   OH242360   1.736   2.938   0.686
 6934TIP3    H142361   1.752   2.999   0.759
 6934TIP3    H242362   1.679   2.987   0.626
 6935TIP3   OH242363   5.573   3.941   8.766
 6935TIP3    H142364   5.538   3.938   8.677
 6935TIP3    H242365   5.599   3.850   0.001
 6936TIP3   OH242366   3.288   1.585   2.235
 6936TIP3    H142367   3.369   1.635   2.227
 6936TIP3    H242368   3.218   1.650   2.222
 6937TIP3   OH242369   1.389   6.316   8.345
 6937TIP3    H142370   1.461   6.256   8.361
 6937TIP3    H242371   1.366   6.350   8.431
 6938TIP3   OH242372   4.908   4.110   8.177
 6938TIP3    H142373   4.825   4.130   8.220
 6938TIP3    H242374   4.886   4.104   8.084
 6939TIP3   OH242375   0.020   0.709   8.303
 6939TIP3    H142376   6.821   0.792   8.332
 6939TIP3    H242377   0.039   0.722   8.210
 6940TIP3   OH242378   2.532   6.590   1.066
 6940TIP3    H142379   2.566   6.650   1.132
 6940TIP3    H242380   2.505   6.646   0.994
 6941TIP3   OH242381   5.439   5.075   0.693
 6941TIP3    H142382   5.495   5.084   0.616
 6941TIP3    H242383   5.353   5.106   0.665
 6942TIP3   OH242384   1.834   5.614   7.322
 6942TIP3    H142385   1.806   5.551   7.254
 6942TIP3    H242386   1.762   5.615   7.384
 6943TIP3   OH242387   0.716   0.839   1.015
 6943TIP3    H142388   0.697   0.923   1.056
 6943TIP3    H242389   0.783   0.859   0.949
 6944TIP3   OH242390   2.904   6.665   7.854
 6944TIP3    H142391   2.921   6.753   7.819
 6944TIP3    H242392   2.809   6.656   7.849
 6945TIP3   OH242393   0.713   1.162   5.975
 6945TIP3    H142394   0.772   1.089   5.996
 6945TIP3    H242395   0.714   1.217   6.053
 6946TIP3   OH242396   2.303   4.265   0.637
 6946TIP3    H142397   2.302   4.339   0.698
 6946TIP3    H242398   2.259   4.195   0.684
 6947TIP3   OH242399   6.720   3.055   0.002
 6947TIP3    H142400   6.693   3.094   0.085
 6947TIP3    H242401   6.739   2.964   0.024
 6948TIP3   OH242402   1.245   0.126   0.162
 6948TIP3    H142403   1.282   0.068   0.096
 6948TIP3    H242404   1.204   0.067   0.225
 6949TIP3   OH242405   5.713   1.710   7.411
 6949TIP3    H142406   5.618   1.703   7.416
 6949TIP3    H242407   5.732   1.725   7.318
 6950TIP3   OH242408   4.982   2.199   1.626
 6950TIP3    H142409   4.901   2.230   1.665
 6950TIP3    H242410   5.048   2.262   1.655
 6951TIP3   OH242411   5.076   1.602   0.055
 6951TIP3    H142412   5.156   1.654   0.050
 6951TIP3    H242413   5.085   1.551   0.135
 6952TIP3   OH242414   0.138   6.510   7.821
 6952TIP3    H142415   0.205   6.485   7.756
 6952TIP3    H242416   0.076   6.563   7.772
 6953TIP3   OH242417   5.513   5.484   0.556
 6953TIP3    H142418   5.478   5.566   0.520
 6953TIP3    H242419   5.563   5.446   0.483
 6954TIP3   OH242420   1.659   0.354   7.008
 6954TIP3    H142421   1.672   0.346   6.913
 6954TIP3    H242422   1.686   0.269   7.043
 6955TIP3   OH242423   2.583   3.264   0.997
 6955TIP3    H142424   2.589   3.283   0.903
 6955TIP3    H242425   2.547   3.176   1.002
 6956TIP3   OH242426   6.687   6.259   2.039
 6956TIP3    H142427   6.742   6.333   2.064
 6956TIP3    H242428   6.600   6.297   2.027
 6957TIP3   OH242429   5.162   2.862   0.912
 6957TIP3    H142430   5.158   2.776   0.956
 6957TIP3    H242431   5.130   2.923   0.978
 6958TIP3   OH242432   2.835   4.269   0.102
 6958TIP3    H142433   2.819   4.363   0.110
 6958TIP3    H242434   2.811   4.233   0.188
 6959TIP3   OH242435   0.863   2.421   6.608
 6959TIP3    H142436   0.854   2.500   6.554
 6959TIP3    H242437   0.873   2.350   6.546
 6960TIP3   OH242438   2.030   4.921   2.812
 6960TIP3    H142439   2.117   4.929   2.773
 6960TIP3    H242440   2.010   4.828   2.806
 6961TIP3   OH242441   2.689   4.212   7.905
 6961TIP3    H142442   2.636   4.169   7.972
 6961TIP3    H242443   2.778   4.185   7.924
 6962TIP3   OH242444   5.036   4.776   1.199
 6962TIP3    H142445   4.989   4.840   1.146
 6962TIP3    H242446   5.075   4.716   1.135
 6963TIP3   OH242447   1.974   4.444   0.876
 6963TIP3    H142448   1.943   4.493   0.800
 6963TIP3    H242449   1.895   4.403   0.912
 6964TIP3   OH242450   5.614   0.528   7.861
 6964TIP3    H142451   5.568   0.599   7.816
 6964TIP3    H242452   5.595   0.451   7.807
 6965TIP3   OH242453   1.600   4.433   8.412
 6965TIP3    H142454   1.574   4.496   8.479
 6965TIP3    H242455   1.594   4.481   8.330
 6966TIP3   OH242456   3.173   5.280   7.963
 6966TIP3    H142457   3.082   5.296   7.941
 6966TIP3    H242458   3.209   5.367   7.983
 6967TIP3   OH242459   2.763   2.321   8.704
 6967TIP3    H142460   2.763   2.411   8.672
 6967TIP3    H242461   2.695   2.277   8.652
 6968TIP3   OH242462   1.696   5.293   8.755
 6968TIP3    H142463   1.612   5.267   0.009
 6968TIP3    H242464   1.756   5.222   8.780
 6969TIP3   OH242465   5.874   2.743   6.995
 6969TIP3    H142466   5.965   2.735   6.969
 6969TIP3    H242467   5.877   2.769   7.087
 6970TIP3   OH242468   0.428   0.343   7.716
 6970TIP3    H142469   0.457   0.282   7.784
 6970TIP3    H242470   0.366   0.401   7.761
 6971TIP3   OH242471   3.819   6.389   1.415
 6971TIP3    H142472   3.819   6.388   1.511
 6971TIP3    H242473   3.727   6.384   1.391
 6972TIP3   OH242474   3.669   1.023   1.243
 6972TIP3    H142475   3.704   0.935   1.257
 6972TIP3    H242476   3.627   1.045   1.326
 6973TIP3   OH242477   2.135   1.415   7.810
 6973TIP3    H142478   2.115   1.459   7.728
 6973TIP3    H242479   2.062   1.355   7.824
 6974TIP3   OH242480   6.706   5.814   8.768
 6974TIP3    H142481   6.664   5.795   8.684
 6974TIP3    H242482   6.729   5.727   0.020
 6975TIP3   OH242483   2.945   1.470   1.325
 6975TIP3    H142484   3.038   1.495   1.330
 6975TIP3    H242485   2.948   1.376   1.304
 6976TIP3   OH242486   1.433   5.047   2.563
 6976TIP3    H142487   1.452   5.141   2.572
 6976TIP3    H242488   1.448   5.029   2.471
 6977TIP3   OH242489   1.757   3.933   1.778
 6977TIP3    H142490   1.756   3.956   1.685
 6977TIP3    H242491   1.849   3.940   1.803
 6978TIP3   OH242492   0.394   5.683   0.705
 6978TIP3    H142493   0.335   5.748   0.666
 6978TIP3    H242494   0.476   5.730   0.718
 6979TIP3   OH242495   5.802   0.569   2.411
 6979TIP3    H142496   5.771   0.497   2.355
 6979TIP3    H242497   5.722   0.610   2.443
 6980TIP3   OH242498   4.827   5.114   8.138
 6980TIP3    H142499   4.788   5.201   8.140
 6980TIP3    H242500   4.756   5.055   8.161
 6981TIP3   OH242501   2.107   1.811   2.342
 6981TIP3    H142502   2.109   1.726   2.386
 6981TIP3    H242503   2.016   1.822   2.315
 6982TIP3   OH242504   4.769   3.037   8.610
 6982TIP3    H142505   4.807   3.114   8.568
 6982TIP3    H242506   4.751   3.064   8.700
 6983TIP3   OH242507   2.162   5.660   7.931
 6983TIP3    H142508   2.171   5.748   7.968
 6983TIP3    H242509   2.068   5.650   7.918
 6984TIP3   OH242510   0.499   0.660   1.068
 6984TIP3    H142511   0.579   0.709   1.049
 6984TIP3    H242512   0.519   0.612   1.148
 6985TIP3   OH242513   4.552   0.801   1.951
 6985TIP3    H142514   4.467   0.812   1.994
 6985TIP3    H242515   4.580   0.890   1.928
 6986TIP3   OH242516   1.485   2.978   8.361
 6986TIP3    H142517   1.410   2.919   8.361
 6986TIP3    H242518   1.515   2.979   8.270
 6987TIP3   OH242519   4.494   5.686   1.514
 6987TIP3    H142520   4.584   5.656   1.500
 6987TIP3    H242521   4.441   5.607   1.504
 6988TIP3   OH242522   2.854   0.344   1.666
 6988TIP3    H142523   2.807   0.348   1.749
 6988TIP3    H242524   2.848   0.433   1.630
 6989TIP3   OH242525   0.659   4.690   1.823
 6989TIP3    H142526   0.626   4.605   1.794
 6989TIP3    H242527   0.734   4.707   1.765
 6990TIP3   OH242528   4.074   6.785   6.874
 6990TIP3    H142529   4.031   0.012   6.819
 6990TIP3    H242530   4.086   6.709   6.817
 6991TIP3   OH242531   0.401   1.581   2.208
 6991TIP3    H142532   0.437   1.494   2.192
 6991TIP3    H242533   0.375   1.579   2.300
 6992TIP3   OH242534   2.210   0.052   7.721
 6992TIP3    H142535   2.214   0.147   7.734
 6992TIP3    H242536   2.292   0.030   7.678
 6993TIP3   OH242537   6.406   5.219   1.271
 6993TIP3    H142538   6.402   5.307   1.232
 6993TIP3    H242539   6.499   5.195   1.267
 6994TIP3   OH242540   1.768   5.318   7.476
 6994TIP3    H142541   1.699   5.303   7.412
 6994TIP3    H242542   1.722   5.344   7.556
 6995TIP3   OH242543   3.914   1.026   8.762
 6995TIP3    H142544   3.899   0.934   8.738
 6995TIP3    H242545   3.881   1.076   8.688
 6996TIP3   OH242546   6.749   6.259   0.831
 6996TIP3    H142547   6.664   6.288   0.798
 6996TIP3    H242548   6.730   6.187   0.890
 6997TIP3   OH242549   5.193   5.210   7.259
 6997TIP3    H142550   5.153   5.284   7.214
 6997TIP3    H242551   5.162   5.133   7.210
 6998TIP3   OH242552   0.969   3.500   6.735
 6998TIP3    H142553   1.062   3.485   6.750
 6998TIP3    H242554   0.965   3.585   6.692
 6999TIP3   OH242555   0.469   0.980   6.929
 6999TIP3    H142556   0.459   0.915   6.859
 6999TIP3    H242557   0.564   0.990   6.938
 7000TIP3   OH242558   2.235   3.306   0.802
 7000TIP3    H142559   2.288   3.367   0.750
 7000TIP3    H242560   2.273   3.310   0.890
 7001TIP3   OH242561   2.473   5.771   2.324
 7001TIP3    H142562   2.398   5.715   2.345
 7001TIP3    H242563   2.434   5.851   2.290
 7002TIP3   OH242564   2.086   0.119   0.109
 7002TIP3    H142565   2.111   0.058   0.178
 7002TIP3    H242566   2.165   0.171   0.092
 7003TIP3   OH242567   6.322   2.478   6.924
 7003TIP3    H142568   6.255   2.431   6.973
 7003TIP3    H242569   6.391   2.413   6.908
 7004TIP3   OH242570   4.233   4.873   8.422
 7004TIP3    H142571   4.306   4.821   8.455
 7004TIP3    H242572   4.272   4.930   8.356
 7005TIP3   OH242573   4.405   3.616   1.447
 7005TIP3    H142574   4.360   3.587   1.526
 7005TIP3    H242575   4.355   3.577   1.375
 7006TIP3   OH242576   3.815   4.251   2.238
 7006TIP3    H142577   3.873   4.270   2.163
 7006TIP3    H242578   3.833   4.322   2.300
 7007TIP3   OH242579   4.376   5.665   6.948
 7007TIP3    H142580   4.373   5.613   6.867
 7007TIP3    H242581   4.311   5.734   6.934
 7008TIP3   OH242582   4.454   0.059   1.534
 7008TIP3    H142583   4.412   0.069   1.448
 7008TIP3    H242584   4.383   0.072   1.597
 7009TIP3   OH242585   5.914   2.320   0.344
 7009TIP3    H142586   5.866   2.255   0.396
 7009TIP3    H242587   5.852   2.391   0.332
 7010TIP3   OH242588   1.271   5.159   8.213
 7010TIP3    H142589   1.340   5.146   8.278
 7010TIP3    H242590   1.217   5.229   8.248
 7011TIP3   OH242591   0.529   6.406   1.195
 7011TIP3    H142592   0.553   6.315   1.211
 7011TIP3    H242593   0.471   6.403   1.119
 7012TIP3   OH242594   0.509   4.038   7.126
 7012TIP3    H142595   0.565   4.102   7.081
 7012TIP3    H242596   0.569   3.993   7.186
 7013TIP3   OH242597   0.604   1.161   0.290
 7013TIP3    H142598   0.549   1.091   0.325
 7013TIP3    H242599   0.678   1.116   0.250
 7014TIP3   OH242600   1.520   1.577   1.949
 7014TIP3    H142601   1.561   1.552   1.866
 7014TIP3    H242602   1.503   1.671   1.940
 7015TIP3   OH242603   1.642   6.030   1.516
 7015TIP3    H142604   1.572   5.965   1.516
 7015TIP3    H242605   1.598   6.112   1.536
 7016TIP3   OH242606   3.320   4.267   8.147
 7016TIP3    H142607   3.333   4.189   8.094
 7016TIP3    H242608   3.408   4.289   8.179
 7017TIP3   OH242609   6.373   3.432   1.202
 7017TIP3    H142610   6.467   3.434   1.221
 7017TIP3    H242611   6.356   3.512   1.153
 7018TIP3   OH242612   6.645   0.786   2.219
 7018TIP3    H142613   6.712   0.745   2.274
 7018TIP3    H242614   6.689   0.806   2.137
 7019TIP3   OH242615   0.325   0.241   7.281
 7019TIP3    H142616   0.260   0.246   7.352
 7019TIP3    H242617   0.273   0.241   7.201
 7020TIP3   OH242618   5.021   5.979   0.884
 7020TIP3    H142619   4.981   5.896   0.908
 7020TIP3    H242620   4.947   6.034   0.856
 7021TIP3   OH242621   4.678   4.960   0.089
 7021TIP3    H142622   4.630   4.957   0.172
 7021TIP3    H242623   4.769   4.944   0.114
 7022TIP3   OH242624   5.515   3.153   8.007
 7022TIP3    H142625   5.570   3.105   8.068
 7022TIP3    H242626   5.462   3.211   8.061
 7023TIP3   OH242627   2.281   2.261   2.121
 7023TIP3    H142628   2.253   2.173   2.096
 7023TIP3    H242629   2.272   2.262   2.217
 7024TIP3   OH242630   3.035   5.136   0.539
 7024TIP3    H142631   3.004   5.211   0.488
 7024TIP3    H242632   3.100   5.094   0.483
 7025TIP3   OH242633   0.850   0.372   7.347
 7025TIP3    H142634   0.879   0.439   7.409
 7025TIP3    H242635   0.770   0.337   7.386
 7026TIP3   OH242636   3.164   6.526   6.248
 7026TIP3    H142637   3.079   6.569   6.244
 7026TIP3    H242638   3.150   6.452   6.307
 7027TIP3   OH242639   0.005   4.008   1.565
 7027TIP3    H142640   6.808   4.097   1.572
 7027TIP3    H242641   0.023   3.982   1.655
 7028TIP3   OH242642   4.751   6.800   0.023
 7028TIP3    H142643   4.732   6.763   0.109
 7028TIP3    H242644   4.845   6.815   0.023
 7029TIP3   OH242645   2.163   6.395   1.051
 7029TIP3    H142646   2.211   6.423   1.129
 7029TIP3    H242647   2.231   6.373   0.988
 7030TIP3   OH242648   6.293   5.805   2.131
 7030TIP3    H142649   6.283   5.736   2.196
 7030TIP3    H242650   6.241   5.878   2.165
 7031TIP3   OH242651   4.636   3.789   6.132
 7031TIP3    H142652   4.595   3.817   6.214
 7031TIP3    H242653   4.563   3.765   6.075
 7032TIP3   OH242654   2.218   2.594   0.366
 7032TIP3    H142655   2.296   2.649   0.365
 7032TIP3    H242656   2.208   2.565   0.275
 7033TIP3   OH242657   3.519   1.958   1.821
 7033TIP3    H142658   3.556   1.890   1.765
 7033TIP3    H242659   3.548   1.935   1.909
 7034TIP3   OH242660   1.687   3.969   8.052
 7034TIP3    H142661   1.764   4.011   8.090
 7034TIP3    H242662   1.612   4.010   8.096
 7035TIP3   OH242663   1.689   5.574   0.848
 7035TIP3    H142664   1.671   5.537   0.934
 7035TIP3    H242665   1.632   5.651   0.843
 7036TIP3   OH242666   0.814   2.895   0.980
 7036TIP3    H142667   0.888   2.955   0.968
 7036TIP3    H242668   0.740   2.952   1.002
 7037TIP3   OH242669   0.198   5.550   7.419
 7037TIP3    H142670   0.290   5.534   7.397
 7037TIP3    H242671   0.178   5.486   7.488
 7038TIP3   OH242672   3.824   5.808   0.366
 7038TIP3    H142673   3.752   5.778   0.311
 7038TIP3    H242674   3.868   5.875   0.313
 7039TIP3   OH242675   6.490   1.287   7.311
 7039TIP3    H142676   6.456   1.203   7.343
 7039TIP3    H242677   6.417   1.324   7.260
 7040TIP3   OH242678   4.781   2.646   8.734
 7040TIP3    H142679   4.803   2.553   8.737
 7040TIP3    H242680   4.788   2.675   0.043
 7041TIP3   OH242681   2.262   1.538   8.451
 7041TIP3    H142682   2.203   1.525   8.377
 7041TIP3    H242683   2.349   1.518   8.416
 7042TIP3   OH242684   3.246   2.896   1.911
 7042TIP3    H142685   3.251   2.812   1.956
 7042TIP3    H242686   3.188   2.949   1.966
 7043TIP3   OH242687   5.917   6.836   1.683
 7043TIP3    H142688   5.889   0.084   1.653
 7043TIP3    H242689   5.894   6.835   1.776
 7044TIP3   OH242690   5.187   6.507   6.928
 7044TIP3    H142691   5.197   6.439   6.861
 7044TIP3    H242692   5.102   6.490   6.966
 7045TIP3   OH242693   2.787   6.688   6.868
 7045TIP3    H142694   2.860   6.746   6.850
 7045TIP3    H242695   2.746   6.724   6.947
 7046TIP3   OH242696   4.469   4.779   7.520
 7046TIP3    H142697   4.479   4.841   7.448
 7046TIP3    H242698   4.384   4.799   7.558
 7047TIP3   OH242699   1.132   3.737   7.317
 7047TIP3    H142700   1.101   3.799   7.383
 7047TIP3    H242701   1.213   3.702   7.354
 7048TIP3   OH242702   4.201   1.045   7.622
 7048TIP3    H142703   4.228   0.979   7.558
 7048TIP3    H242704   4.233   1.011   7.706
 7049TIP3   OH242705   4.081   4.412   6.465
 7049TIP3    H142706   4.156   4.377   6.418
 7049TIP3    H242707   4.092   4.507   6.460
 7050TIP3   OH242708   5.606   4.463   1.842
 7050TIP3    H142709   5.660   4.394   1.882
 7050TIP3    H242710   5.559   4.502   1.916
 7051TIP3   OH242711   5.340   0.070   2.340
 7051TIP3    H142712   5.276   0.085   2.271
 7051TIP3    H242713   5.421   0.109   2.307
 7052TIP3   OH242714   5.733   1.877   1.998
 7052TIP3    H142715   5.809   1.933   1.984
 7052TIP3    H242716   5.739   1.851   2.090
 7053TIP3   OH242717   0.756   6.078   7.628
 7053TIP3    H142718   0.789   6.055   7.542
 7053TIP3    H242719   0.686   6.142   7.611
 7054TIP3   OH242720   6.503   0.005   7.563
 7054TIP3    H142721   6.473   0.041   7.480
 7054TIP3    H242722   6.587   0.047   7.579
 7055TIP3   OH242723   3.518   5.129   7.071
 7055TIP3    H142724   3.610   5.138   7.048
 7055TIP3    H242725   3.512   5.158   7.162
 7056TIP3   OH242726   1.663   3.620   0.777
 7056TIP3    H142727   1.728   3.669   0.727
 7056TIP3    H242728   1.626   3.558   0.715
 7057TIP3   OH242729   4.495   4.949   7.308
 7057TIP3    H142730   4.491   4.876   7.246
 7057TIP3    H242731   4.551   5.014   7.265
 7058TIP3   OH242732   0.628   0.630   7.958
 7058TIP3    H142733   0.561   0.664   8.016
 7058TIP3    H242734   0.646   0.542   7.991
 7059TIP3   OH242735   5.089   4.294   7.565
 7059TIP3    H142736   5.129   4.374   7.597
 7059TIP3    H242737   5.154   4.256   7.506
 7060TIP3   OH242738   3.138   4.920   8.602
 7060TIP3    H142739   3.139   4.826   8.621
 7060TIP3    H242740   3.130   4.925   8.507
 7061TIP3   OH242741   6.620   2.790   1.951
 7061TIP3    H142742   6.650   2.874   1.984
 7061TIP3    H242743   6.563   2.811   1.877
 7062TIP3   OH242744   0.996   0.473   0.821
 7062TIP3    H142745   1.053   0.396   0.826
 7062TIP3    H242746   0.918   0.443   0.774
 7063TIP3   OH242747   3.593   6.063   1.861
 7063TIP3    H142748   3.529   6.047   1.792
 7063TIP3    H242749   3.541   6.079   1.940
 7064TIP3   OH242750   5.010   6.522   1.813
 7064TIP3    H142751   5.091   6.504   1.860
 7064TIP3    H242752   5.016   6.613   1.787
 7065TIP3   OH242753   6.057   0.468   2.423
 7065TIP3    H142754   5.976   0.517   2.425
 7065TIP3    H242755   6.074   0.444   2.514
 7066TIP3   OH242756   6.041   4.777   7.097
 7066TIP3    H142757   6.032   4.815   7.009
 7066TIP3    H242758   6.035   4.853   7.156
 7067TIP3   OH242759   3.518   5.163   6.496
 7067TIP3    H142760   3.477   5.087   6.456
 7067TIP3    H242761   3.468   5.238   6.462
 7068TIP3   OH242762   2.164   0.636   2.121
 7068TIP3    H142763   2.119   0.704   2.071
 7068TIP3    H242764   2.119   0.634   2.205
 7069TIP3   OH242765   3.905   5.897   2.018
 7069TIP3    H142766   3.872   5.872   1.932
 7069TIP3    H242767   3.990   5.852   2.025
 7070TIP3   OH242768   3.144   1.995   8.311
 7070TIP3    H142769   3.063   2.005   8.360
 7070TIP3    H242770   3.122   1.933   8.242
 7071TIP3   OH242771   6.486   6.095   0.538
 7071TIP3    H142772   6.495   6.156   0.610
 7071TIP3    H242773   6.478   6.009   0.579
 7072LIG      O42774   3.809   5.173   4.400
 7072LIG     C142775   3.706   5.188   4.496
 7072LIG     C242776   3.617   5.311   4.479
 7072LIG     C342777   3.618   5.069   4.467
 7072LIG     H142778   3.756   5.179   4.595
 7072LIG     H242779   3.556   5.313   4.386
 7072LIG     H342780   3.680   5.403   4.483
 7072LIG     H442781   3.554   5.301   4.570
 7072LIG     H542782   3.596   5.076   4.359
 7072LIG     H642783   3.530   5.075   4.534
 7072LIG     H742784   3.670   4.972   4.481
 7072LIG     H842785   3.862   5.251   4.417
   6.83838   6.83838   8.78251
