Title
42785
    1SAPS     N    1   1.285   4.450   6.932 -0.3109 -0.1297  0.6948
    1SAPS   HN1    2   1.255   4.548   6.949  1.3172  0.4935  0.1073
    1SAPS   HN2    3   1.281   4.433   6.830 -1.2226  1.1837  0.4785
    1SAPS   HN3    4   1.222   4.379   6.975 -0.5243 -0.3101  0.0993
    1SAPS   C12    5   1.418   4.421   6.990  0.3721  0.1990 -0.0587
    1SAPS  H12A    6   1.411   4.405   7.097  2.7721  0.4573  0.1953
    1SAPS   C13    7   1.489   4.296   6.933 -0.0601 -0.1128  0.3172
    1SAPS  O13A    8   1.438   4.235   6.841  0.0764 -0.2553  0.3942
    1SAPS  O13B    9   1.599   4.256   6.989 -0.1556  0.1013  0.5129
    1SAPS   C11   10   1.515   4.544   6.977  1.0655 -0.3172  0.3877
    1SAPS  H11A   11   1.541   4.536   6.869 -3.3215  1.9312 -1.0881
    1SAPS  H11B   12   1.609   4.524   7.033  1.0949  0.2389  0.5404
    1SAPS     P   13   1.528   4.800   7.009  0.3092 -0.4594 -0.1823
    1SAPS   O13   14   1.453   4.920   7.056  0.5856  0.3235  0.1648
    1SAPS   O14   15   1.659   4.792   7.080  0.2890  0.1849 -0.7210
    1SAPS   O12   16   1.449   4.666   7.010  0.1161  0.1957 -0.2034
    1SAPS   O11   17   1.566   4.821   6.859  0.8312 -0.0897  0.6410
    1SAPS    C1   18   1.468   4.806   6.758  0.2516 -0.3247 -0.2666
    1SAPS    HA   19   1.494   4.727   6.684  3.2905 -0.8513  1.2093
    1SAPS    HB   20   1.377   4.757   6.798 -0.5740  0.3602 -1.2511
    1SAPS    C2   21   1.433   4.936   6.679 -0.3822 -0.4465  0.9251
    1SAPS    HS   22   1.342   4.918   6.617  0.7929 -0.9051 -0.7366
    1SAPS   O21   23   1.549   4.986   6.608 -0.3311 -0.3887  0.4888
    1SAPS   C21   24   1.566   4.925   6.494  0.0053 -0.4341  0.4011
    1SAPS   O22   25   1.490   4.842   6.448  0.2576  0.0665  0.0068
    1SAPS   C22   26   1.706   4.963   6.435  0.1820 -0.1628  0.1844
    1SAPS   H2R   27   1.716   5.073   6.443 -0.5142  0.1792 -2.6642
    1SAPS   H2S   28   1.776   4.900   6.494  0.1583 -0.7784 -0.4225
    1SAPS    C3   29   1.393   5.052   6.770 -0.0209  0.9969 -0.9156
    1SAPS    HX   30   1.484   5.077   6.829 -1.4123 -0.6383  2.1511
    1SAPS    HY   31   1.317   5.012   6.840  0.9792  2.5238  1.1301
    1SAPS   O31   32   1.337   5.158   6.688 -0.1742 -0.0668 -1.0818
    1SAPS   C31   33   1.420   5.232   6.628  0.0086 -0.6193 -0.8024
    1SAPS   O32   34   1.540   5.235   6.643  0.3880 -0.1164 -0.7588
    1SAPS   C32   35   1.340   5.328   6.547 -0.0833 -0.4407 -0.2920
    1SAPS   H2X   36   1.312   5.418   6.606  2.2163 -0.4301  0.9194
    1SAPS   H2Y   37   1.248   5.276   6.513 -0.9879 -0.3205  1.8666
    1SAPS   C23   38   1.723   4.935   6.285 -0.3012 -0.4306  0.6004
    1SAPS   H3R   39   1.800   5.004   6.244  0.4973 -0.5803  1.7968
    1SAPS   H3S   40   1.629   4.942   6.228  0.5052  1.0416 -0.6173
    1SAPS   C24   41   1.782   4.794   6.276  0.7302  0.2111  0.4180
    1SAPS   H4R   42   1.851   4.769   6.358 -0.8501  1.4363  2.2022
    1SAPS   H4S   43   1.846   4.803   6.185  1.3729 -0.4745  0.7974
    1SAPS   C25   44   1.680   4.677   6.247  0.1897 -1.2013 -0.2718
    1SAPS   H5R   45   1.631   4.654   6.342 -0.1814  2.2077  0.4897
    1SAPS   C26   46   1.655   4.609   6.133 -0.1768  0.1350 -0.7282
    1SAPS   H6R   47   1.570   4.539   6.144 -0.0397  0.0316 -0.2793
    1SAPS   C27   48   1.715   4.618   6.001  0.4670  0.2838 -0.1148
    1SAPS   H7R   49   1.666   4.532   5.949 -0.2556 -0.6019  1.9089
    1SAPS   H7S   50   1.824   4.602   6.005  0.5038  0.7359  0.6566
    1SAPS   C28   51   1.670   4.740   5.926 -0.2701 -0.5046  0.5540
    1SAPS   H8R   52   1.643   4.822   5.995 -1.3677 -0.0293 -0.4001
    1SAPS   C29   53   1.679   4.758   5.790  0.6247  0.6588 -0.3192
    1SAPS   H9R   54   1.621   4.832   5.732 -0.4790 -2.4143 -3.4574
    1SAPS  C210   55   1.740   4.650   5.702 -0.0038  0.2376  0.1897
    1SAPS  H10R   56   1.657   4.591   5.658 -0.8994  0.4221  1.5968
    1SAPS  H10S   57   1.803   4.579   5.759  2.4710 -0.0443 -2.5969
    1SAPS  C211   58   1.813   4.721   5.588  0.1026 -0.4406  0.1842
    1SAPS  H11R   59   1.893   4.790   5.619  0.1637 -0.7666  0.7510
    1SAPS  C212   60   1.811   4.679   5.456 -0.3285  0.9906 -0.2231
    1SAPS  H12R   61   1.878   4.729   5.385  1.6427  0.2259  0.9801
    1SAPS  C213   62   1.731   4.568   5.394 -0.4008 -0.0755 -0.0314
    1SAPS  H13R   63   1.645   4.612   5.339 -1.5316  1.6046  2.8594
    1SAPS  H13S   64   1.671   4.514   5.470  1.3058 -1.1709  0.5779
    1SAPS  C214   65   1.796   4.466   5.315  0.0434 -0.5185  0.4659
    1SAPS  H14R   66   1.813   4.368   5.362 -0.1521 -1.5599 -1.5302
    1SAPS  C215   67   1.835   4.468   5.189  0.3490  0.5045  0.2054
    1SAPS  H15R   68   1.889   4.380   5.152  1.6510  0.0870  2.8603
    1SAPS  C216   69   1.830   4.579   5.091 -0.5865 -0.0400  0.2507
    1SAPS  H16R   70   1.801   4.679   5.129 -1.8906 -1.0101  1.9478
    1SAPS  H16S   71   1.758   4.562   5.007 -0.0927 -1.8166  0.1386
    1SAPS  C217   72   1.967   4.622   5.032 -0.1272  0.2649 -0.1209
    1SAPS  H17R   73   2.020   4.533   4.994  0.4152 -1.6022  4.3758
    1SAPS  H17S   74   2.020   4.687   5.105 -0.3243  1.0269 -0.6359
    1SAPS  C218   75   1.949   4.720   4.910  0.5653  0.0269 -0.0249
    1SAPS  H18R   76   2.050   4.741   4.868 -0.3502  2.2522 -1.3036
    1SAPS  H18S   77   1.895   4.811   4.943 -1.7006 -0.9104 -0.9808
    1SAPS  C219   78   1.864   4.662   4.798 -0.0311 -0.2359  0.3782
    1SAPS  H19R   79   1.756   4.676   4.821  0.2157 -0.3411  1.6489
    1SAPS  H19S   80   1.880   4.552   4.788  1.1242 -0.0430  0.0323
    1SAPS  C220   81   1.889   4.720   4.656 -0.1016 -0.1251  0.1074
    1SAPS  H20R   82   1.849   4.823   4.663  0.0657 -0.0624  0.1283
    1SAPS  H20S   83   1.824   4.667   4.583 -3.4507  4.1926 -0.3946
    1SAPS  H20T   84   1.996   4.709   4.627 -0.4102 -3.3949 -0.1910
    1SAPS   C33   85   1.428   5.380   6.433 -0.6044  0.3160 -0.1455
    1SAPS   H3X   86   1.532   5.395   6.469  0.4382  1.9335 -3.4532
    1SAPS   H3Y   87   1.393   5.470   6.379 -0.7949 -1.0422 -2.4472
    1SAPS   C34   88   1.447   5.272   6.328  0.2275 -0.2589  0.1525
    1SAPS   H4X   89   1.348   5.253   6.282  0.3365 -0.4490 -0.0079
    1SAPS   H4Y   90   1.479   5.174   6.369  0.4290  0.3324  1.4659
    1SAPS   C35   91   1.549   5.315   6.222 -0.3226 -0.3493  0.0128
    1SAPS   H5X   92   1.648   5.306   6.272 -1.0458 -1.9596  1.2640
    1SAPS   H5Y   93   1.529   5.420   6.193  1.0157 -0.5709 -1.8936
    1SAPS   C36   94   1.574   5.222   6.105 -0.0549 -0.3134 -0.3274
    1SAPS   H6X   95   1.543   5.120   6.137 -1.4762  0.6318  1.4962
    1SAPS   H6Y   96   1.681   5.219   6.076  0.4244 -3.8552  1.2833
    1SAPS   C37   97   1.512   5.258   5.968  0.0048 -0.2063 -0.0358
    1SAPS   H7X   98   1.567   5.348   5.933 -1.7425 -0.2025 -3.1650
    1SAPS   H7Y   99   1.405   5.289   5.966 -0.3572 -1.4156 -0.5036
    1SAPS   C38  100   1.532   5.164   5.849  0.3800  0.9457 -1.0736
    1SAPS   H8X  101   1.487   5.064   5.864  2.6398 -0.0552 -0.4967
    1SAPS   H8Y  102   1.640   5.143   5.830  0.9530  1.4113  1.3108
    1SAPS   C39  103   1.484   5.232   5.718  0.1377 -0.6442 -0.0465
    1SAPS   H9X  104   1.550   5.320   5.702  0.6465 -0.8386  0.9614
    1SAPS   H9Y  105   1.381   5.271   5.728  1.3037  3.0467 -0.8310
    1SAPS  C310  106   1.489   5.141   5.593  0.5800 -0.6396 -0.3669
    1SAPS  H10X  107   1.446   5.194   5.506 -1.0704 -2.8632 -1.0150
    1SAPS  H10Y  108   1.426   5.053   5.621  0.2629 -0.6968 -1.2302
    1SAPS  C311  109   1.632   5.092   5.561 -0.7841  0.5877  0.1372
    1SAPS  H11X  110   1.649   5.026   5.649 -0.1754 -0.1699 -0.5307
    1SAPS  H11Y  111   1.710   5.172   5.564 -0.5807  0.4368 -0.8992
    1SAPS  C312  112   1.637   5.018   5.430  0.0207 -0.4112  0.5343
    1SAPS  H12X  113   1.551   4.948   5.429 -1.3334  1.1996  0.8436
    1SAPS  H12Y  114   1.727   4.952   5.428  0.7695  0.5475  1.5349
    1SAPS  C313  115   1.617   5.111   5.309 -0.5108 -0.1854  0.3346
    1SAPS  H13X  116   1.682   5.201   5.309  2.7625 -2.1269 -4.3938
    1SAPS  H13Y  117   1.511   5.146   5.313 -0.3465  0.4663 -0.7153
    1SAPS  C314  118   1.631   5.049   5.164 -0.2926  1.3398 -0.0397
    1SAPS  H14X  119   1.560   4.963   5.170  1.2408 -0.0472 -0.9801
    1SAPS  H14Y  120   1.727   4.995   5.159 -1.0008  0.1424 -1.2626
    1SAPS  C315  121   1.621   5.147   5.043 -0.2597  0.0140 -0.5771
    1SAPS  H15X  122   1.687   5.234   5.066 -1.1034  0.4763  0.1703
    1SAPS  H15Y  123   1.517   5.174   5.015 -0.3598 -0.1981 -0.4142
    1SAPS  C316  124   1.678   5.080   4.916 -1.0854  0.2007  0.1925
    1SAPS  H16X  125   1.612   4.996   4.887 -0.1904 -0.2516 -0.6143
    1SAPS  H16Y  126   1.776   5.030   4.934 -1.1565 -0.8593 -2.0965
    1SAPS  C317  127   1.688   5.175   4.797 -0.0563  0.6617 -0.4021
    1SAPS  H17X  128   1.730   5.116   4.712 -0.5431 -1.2851  0.6555
    1SAPS  H17Y  129   1.766   5.251   4.819  2.5828 -1.6388 -1.1503
    1SAPS  C318  130   1.557   5.224   4.747  0.1282 -0.2324  0.0779
    1SAPS  H18X  131   1.541   5.325   4.790  1.6790 -0.1078  0.3982
    1SAPS  H18Y  132   1.465   5.171   4.781 -0.6420  1.1527  0.2140
    1SAPS  H18Z  133   1.567   5.222   4.637 -0.1937  0.1722  0.0369
    2SAPS     N  134   3.244   0.116   6.653  0.2818 -0.2422  0.0051
    2SAPS   HN1  135   3.245   0.212   6.614 -0.0486  0.4130  1.5302
    2SAPS   HN2  136   3.328   0.125   6.715 -0.6188  1.8094  1.0108
    2SAPS   HN3  137   3.272   0.044   6.583  2.1691  1.2646 -0.8860
    2SAPS   C12  138   3.120   0.107   6.728 -0.4823 -0.2678  0.3809
    2SAPS  H12A  139   3.117   0.010   6.775  2.7712 -0.7353 -0.1037
    2SAPS   C13  140   3.136   0.199   6.856  0.1486 -0.0184 -0.4719
    2SAPS  O13A  141   3.240   0.270   6.871  0.2110 -0.0119  0.1849
    2SAPS  O13B  142   3.051   0.188   6.947  0.4227 -0.5893 -0.2223
    2SAPS   C11  143   2.996   0.139   6.653 -0.3125 -0.1430  1.3051
    2SAPS  H11A  144   2.968   0.247   6.651 -1.7582 -0.4385  2.8057
    2SAPS  H11B  145   2.912   0.108   6.719 -1.4672  1.9264  0.8822
    2SAPS     P  146   2.870   0.018   6.443  0.1962 -0.3814  0.1741
    2SAPS   O13  147   2.929  -0.061   6.335  0.1530 -0.4366 -0.5663
    2SAPS   O14  148   2.758  -0.031   6.529 -0.1996 -0.0043 -0.2280
    2SAPS   O12  149   2.995   0.072   6.527 -0.1282 -0.3798 -0.0018
    2SAPS   O11  150   2.809   0.151   6.382  0.2293  0.4833 -0.8251
    2SAPS    C1  151   2.891   0.242   6.307  0.4836 -0.3934 -0.6073
    2SAPS    HA  152   2.883   0.341   6.357 -0.3623  1.2928 -3.8041
    2SAPS    HB  153   2.998   0.211   6.309 -0.2463 -3.3333 -1.5870
    2SAPS    C2  154   2.857   0.266   6.154 -0.6969  0.1346  0.6186
    2SAPS    HS  155   2.754   0.305   6.141 -0.5126  0.2050 -0.7845
    2SAPS   O21  156   2.873   0.148   6.077 -0.7433  0.1786 -0.3085
    2SAPS   C21  157   2.782   0.053   6.099 -0.1581 -0.4722  0.1456
    2SAPS   O22  158   2.680   0.068   6.165  0.3977  0.4557  0.2881
    2SAPS   C22  159   2.822  -0.076   6.019  0.5848  0.0785 -0.3921
    2SAPS   H2R  160   2.918  -0.061   5.966  1.8421  1.7904  2.1184
    2SAPS   H2S  161   2.847  -0.142   6.105 -2.1814 -0.8925 -0.2233
    2SAPS    C3  162   2.954   0.369   6.093  0.8599  0.1233  0.0972
    2SAPS    HX  163   3.055   0.323   6.093  0.9214  0.2561 -0.0655
    2SAPS    HY  164   2.969   0.463   6.150 -1.1661 -0.3156  1.4624
    2SAPS   O31  165   2.913   0.407   5.957 -0.0908  0.4083  0.3884
    2SAPS   C31  166   3.004   0.475   5.890 -0.2706  0.4419  0.3880
    2SAPS   O32  167   3.108   0.508   5.941 -0.2644 -0.4397  0.1665
    2SAPS   C32  168   2.954   0.520   5.748 -0.5216 -0.4421  0.2165
    2SAPS   H2X  169   2.896   0.611   5.772  1.0642  0.1374  2.1865
    2SAPS   H2Y  170   2.895   0.436   5.706 -0.5879 -1.1373  1.6130
    2SAPS   C23  171   2.705  -0.141   5.952 -0.0902  0.0394  0.2974
    2SAPS   H3R  172   2.619  -0.135   6.023 -1.4994 -1.1724 -1.2371
    2SAPS   H3S  173   2.727  -0.250   5.949  3.7858  0.4852  3.6375
    2SAPS   C24  174   2.676  -0.081   5.812 -0.5813  0.1436  0.3078
    2SAPS   H4R  175   2.681  -0.168   5.743 -0.0998 -0.7099  1.3787
    2SAPS   H4S  176   2.755  -0.011   5.779 -0.6758  1.2191  2.1999
    2SAPS   C25  177   2.536  -0.022   5.794  0.1693  0.5707 -0.1198
    2SAPS   H5R  178   2.470  -0.017   5.882 -0.1975 -0.0754 -0.3437
    2SAPS   C26  179   2.476   0.014   5.670  0.3584 -0.1539  0.7559
    2SAPS   H6R  180   2.378   0.064   5.670 -0.5024 -1.7887 -0.2594
    2SAPS   C27  181   2.544   0.011   5.528 -0.3401 -0.7061 -0.5075
    2SAPS   H7R  182   2.649   0.049   5.526 -0.4736 -0.1722  0.8942
    2SAPS   H7S  183   2.480   0.076   5.466  0.9830  1.0698 -0.0948
    2SAPS   C28  184   2.555  -0.120   5.461  0.7555 -0.5022 -0.4158
    2SAPS   H8R  185   2.634  -0.181   5.507  0.8846  0.8782  1.3076
    2SAPS   C29  186   2.474  -0.180   5.372 -0.0693 -0.0425  0.2562
    2SAPS   H9R  187   2.500  -0.278   5.329 -0.2204  0.2102 -0.4158
    2SAPS  C210  188   2.338  -0.130   5.327  0.4233  0.9452 -0.6172
    2SAPS  H10R  189   2.324  -0.142   5.217  0.1984 -1.2235 -0.4031
    2SAPS  H10S  190   2.318  -0.024   5.353 -0.0933  0.3455  1.6055
    2SAPS  C211  191   2.248  -0.220   5.403  0.2526 -0.5859  0.3443
    2SAPS  H11R  192   2.232  -0.191   5.508  0.5072  0.0977  0.2006
    2SAPS  C212  193   2.189  -0.328   5.353 -0.0295 -0.1886 -0.3845
    2SAPS  H12R  194   2.149  -0.396   5.430 -1.7130  0.9597 -0.1924
    2SAPS  C213  195   2.209  -0.392   5.214  0.1502 -0.1676 -0.1886
    2SAPS  H13R  196   2.166  -0.494   5.225  1.3249 -0.7339 -0.6422
    2SAPS  H13S  197   2.319  -0.393   5.204  0.1879 -2.5151 -0.1313
    2SAPS  C214  198   2.151  -0.317   5.103  0.6135 -0.2696  0.7458
    2SAPS  H14R  199   2.097  -0.224   5.126  2.1241  0.6564  0.7001
    2SAPS  C215  200   2.138  -0.347   4.970 -0.1217  0.2350 -0.5285
    2SAPS  H15R  201   2.082  -0.272   4.912 -0.9317  0.1755  0.1472
    2SAPS  C216  202   2.196  -0.461   4.895  0.4032  0.1247  0.0230
    2SAPS  H16R  203   2.120  -0.492   4.820  0.3411  1.5925 -0.5665
    2SAPS  H16S  204   2.228  -0.542   4.963  2.2849  0.5514 -0.2836
    2SAPS  C217  205   2.323  -0.414   4.817 -0.2170  0.1593 -0.0057
    2SAPS  H17R  206   2.389  -0.503   4.808  2.3666  1.7057  1.9635
    2SAPS  H17S  207   2.382  -0.346   4.882  2.2482  1.0803 -2.9549
    2SAPS  C218  208   2.296  -0.349   4.683  0.4535 -1.0057  0.0136
    2SAPS  H18R  209   2.291  -0.238   4.691  1.0802 -0.8158 -1.7558
    2SAPS  H18S  210   2.200  -0.387   4.643  0.4452  0.6016 -1.6593
    2SAPS  C219  211   2.396  -0.380   4.569  0.6761 -0.7466 -0.5176
    2SAPS  H19R  212   2.400  -0.490   4.557  1.1522 -0.6210 -1.6713
    2SAPS  H19S  213   2.496  -0.339   4.594 -0.4443  2.4059 -0.6990
    2SAPS  C220  214   2.357  -0.317   4.435 -0.1040  0.3921  0.1460
    2SAPS  H20R  215   2.262  -0.365   4.403  0.6277  0.1278 -1.7697
    2SAPS  H20S  216   2.423  -0.344   4.350 -2.3531 -1.3362 -1.1559
    2SAPS  H20T  217   2.333  -0.209   4.442 -0.9338  0.1157  2.4557
    2SAPS   C33  218   3.068   0.536   5.647 -1.0685  0.6230  0.1224
    2SAPS   H3X  219   3.111   0.441   5.609 -0.1087  0.8122  0.6895
    2SAPS   H3Y  220   3.152   0.591   5.696 -0.8257  1.3069 -1.0195
    2SAPS   C34  221   3.025   0.622   5.529  0.6559 -0.5149  1.2043
    2SAPS   H4X  222   3.118   0.646   5.473  0.1339  1.0298  0.9677
    2SAPS   H4Y  223   2.993   0.721   5.565 -2.1327 -0.9754  0.2545
    2SAPS   C35  224   2.929   0.538   5.437  0.6248 -0.5013  0.4510
    2SAPS   H5X  225   2.828   0.544   5.484  0.6929  2.9984  0.3897
    2SAPS   H5Y  226   2.941   0.428   5.439 -2.6665 -0.9733  1.2921
    2SAPS   C36  227   2.930   0.586   5.288  0.0462  0.5520 -0.8631
    2SAPS   H6X  228   2.890   0.498   5.232  0.0445  1.4271 -2.2787
    2SAPS   H6Y  229   3.034   0.616   5.260  0.1956  0.7006 -0.1670
    2SAPS   C37  230   2.851   0.717   5.273 -0.5257  0.0358 -0.4998
    2SAPS   H7X  231   2.910   0.807   5.303  0.3163  0.2426 -2.5531
    2SAPS   H7Y  232   2.756   0.717   5.329  0.5524 -2.1056  1.4718
    2SAPS   C38  233   2.806   0.735   5.123 -0.4427  0.0168 -0.0421
    2SAPS   H8X  234   2.715   0.798   5.123  0.9827  2.1700 -0.2491
    2SAPS   H8Y  235   2.773   0.634   5.089 -0.6996 -0.2438  0.9546
    2SAPS   C39  236   2.920   0.787   5.026 -0.2198  0.6083 -0.3982
    2SAPS   H9X  237   3.021   0.753   5.059 -0.2813 -1.1677 -1.8849
    2SAPS   H9Y  238   2.928   0.896   5.045  1.1010  0.0423  2.8406
    2SAPS  C310  239   2.894   0.758   4.877  0.0351 -0.1207 -0.0549
    2SAPS  H10X  240   2.894   0.649   4.857 -0.2765 -0.2940  0.8345
    2SAPS  H10Y  241   2.984   0.797   4.825  0.6275  0.6136  1.4623
    2SAPS  C311  242   2.779   0.839   4.813  0.2289 -0.1290  0.1868
    2SAPS  H11X  243   2.806   0.944   4.837  1.7060 -0.2988 -0.5888
    2SAPS  H11Y  244   2.681   0.835   4.865  1.3258  0.0698  2.4124
    2SAPS  C312  245   2.765   0.822   4.666  0.9159  0.1610 -0.5055
    2SAPS  H12X  246   2.862   0.780   4.630  0.2234 -1.7025 -0.3343
    2SAPS  H12Y  247   2.742   0.921   4.620  1.7330  0.9983  0.8287
    2SAPS  C313  248   2.665   0.711   4.633 -0.1013  0.4674  0.4445
    2SAPS  H13X  249   2.561   0.748   4.618 -1.4047 -2.8723  0.2356
    2SAPS  H13Y  250   2.665   0.633   4.712 -1.0069 -0.4697 -0.4443
    2SAPS  C314  251   2.703   0.633   4.512 -0.0980  0.7831  1.0005
    2SAPS  H14X  252   2.627   0.553   4.507  0.5261  0.1882  0.9196
    2SAPS  H14Y  253   2.800   0.581   4.528 -0.3117 -0.0818 -0.3487
    2SAPS  C315  254   2.697   0.704   4.378  1.2907 -0.5347 -0.0032
    2SAPS  H15X  255   2.795   0.734   4.336  2.5036 -1.1548  2.2477
    2SAPS  H15Y  256   2.621   0.786   4.385 -2.4130 -3.4769 -1.8628
    2SAPS  C316  257   2.629   0.615   4.270  0.1522  0.4085  0.3285
    2SAPS  H16X  258   2.530   0.579   4.305  0.7838  0.6603  2.5387
    2SAPS  H16Y  259   2.688   0.522   4.257  0.2475 -0.3215  4.5737
    2SAPS  C317  260   2.632   0.705   4.137 -0.1317  0.5816  0.3485
    2SAPS  H17X  261   2.729   0.760   4.137  0.8906 -1.0285  2.9747
    2SAPS  H17Y  262   2.545   0.774   4.130 -0.2062  0.4219 -0.3173
    2SAPS  C318  263   2.633   0.623   4.010 -0.0788 -0.6381  0.0811
    2SAPS  H18X  264   2.533   0.576   3.999 -0.0650 -0.4066 -1.3162
    2SAPS  H18Y  265   2.708   0.541   4.005 -0.5903 -1.0595 -0.9720
    2SAPS  H18Z  266   2.631   0.684   3.917  0.9561 -3.1903 -1.7298
    3SAPS     N  267   3.886   6.430   6.345  0.8495 -0.6699 -0.6002
    3SAPS   HN1  268   3.870   6.532   6.344 -2.2576 -0.9405  2.5239
    3SAPS   HN2  269   3.986   6.413   6.323  0.4293 -0.6985 -2.6620
    3SAPS   HN3  270   3.829   6.377   6.276 -0.7344 -0.0392  0.1852
    3SAPS   C12  271   3.856   6.387   6.488  0.7874  0.4897  0.0441
    3SAPS  H12A  272   3.857   6.279   6.493 -1.0552  0.4709  0.6590
    3SAPS   C13  273   3.953   6.440   6.598 -0.6743 -0.4213  0.6222
    3SAPS  O13A  274   4.048   6.514   6.552  0.4238 -0.0560  0.5720
    3SAPS  O13B  275   3.954   6.404   6.715  0.1444  0.5564  0.9253
    3SAPS   C11  276   3.708   6.424   6.513 -0.3207  0.8711  0.8643
    3SAPS  H11A  277   3.695   6.531   6.486  2.2612  1.2269  0.7618
    3SAPS  H11B  278   3.675   6.405   6.618  0.8115  0.8947  1.2403
    3SAPS     P  279   3.476   6.380   6.393 -0.3186 -0.3428  0.2395
    3SAPS   O13  280   3.409   6.254   6.343  0.6188 -0.1973 -0.1515
    3SAPS   O14  281   3.406   6.458   6.501  0.0007  0.0759  0.4997
    3SAPS   O12  282   3.625   6.341   6.431 -0.0373 -0.1347 -0.3420
    3SAPS   O11  283   3.500   6.483   6.270  0.0392  0.7555 -0.3360
    3SAPS    C1  284   3.549   6.436   6.144 -0.3508 -0.5448 -0.3196
    3SAPS    HA  285   3.638   6.496   6.113 -0.7654  0.1098 -0.2556
    3SAPS    HB  286   3.580   6.330   6.132 -1.9457 -0.9708 -0.9261
    3SAPS    C2  287   3.436   6.457   6.038 -0.3557 -0.0883  0.4684
    3SAPS    HS  288   3.345   6.399   6.065 -0.7099  0.3938  0.3192
    3SAPS   O21  289   3.472   6.419   5.906  0.2358 -0.1441 -0.2227
    3SAPS   C21  290   3.432   6.299   5.868  0.0717 -0.2213 -0.0659
    3SAPS   O22  291   3.369   6.218   5.936 -0.3017 -0.2972 -0.0345
    3SAPS   C22  292   3.457   6.276   5.723  0.6859  0.0721  0.7120
    3SAPS   H2R  293   3.359   6.310   5.682  0.1113 -0.6523  1.4487
    3SAPS   H2S  294   3.538   6.341   5.684  1.9333 -2.5825 -1.4374
    3SAPS    C3  295   3.390   6.604   6.027  0.1838  0.2413 -0.9429
    3SAPS    HX  296   3.481   6.660   5.997  1.1506 -0.9461 -0.3035
    3SAPS    HY  297   3.349   6.641   6.123 -0.1841 -0.9367 -0.6245
    3SAPS   O31  298   3.294   6.615   5.921  0.2448 -0.2313 -0.3228
    3SAPS   C31  299   3.177   6.561   5.951  0.7028  0.9896  0.6631
    3SAPS   O32  300   3.133   6.539   6.063  0.2998  0.0479  0.2240
    3SAPS   C32  301   3.118   6.498   5.819 -0.5231  0.1472  0.2833
    3SAPS   H2X  302   3.199   6.441   5.767 -0.0389  1.6650 -0.6837
    3SAPS   H2Y  303   3.088   6.583   5.754  1.5220  2.2785  1.9745
    3SAPS   C23  304   3.505   6.131   5.701 -0.3958  0.0623 -0.3334
    3SAPS   H3R  305   3.424   6.066   5.740 -0.5908 -0.1560 -1.0802
    3SAPS   H3S  306   3.596   6.110   5.761 -1.3150  2.1214  1.9595
    3SAPS   C24  307   3.523   6.086   5.556  0.1756  0.4887  0.0924
    3SAPS   H4R  308   3.615   6.139   5.522  2.7622 -2.7475  1.3852
    3SAPS   H4S  309   3.429   6.110   5.504 -0.8075  0.0521  1.5970
    3SAPS   C25  310   3.549   5.943   5.543  0.1887  0.7099  0.0158
    3SAPS   H5R  311   3.637   5.907   5.598  0.8578  0.2580 -1.3012
    3SAPS   C26  312   3.493   5.859   5.455 -0.2631  0.3666 -0.0027
    3SAPS   H6R  313   3.517   5.752   5.453  0.7650  0.5721  0.6903
    3SAPS   C27  314   3.379   5.886   5.354  0.1128 -1.3208 -0.8117
    3SAPS   H7R  315   3.421   5.940   5.266 -0.5142  0.0943 -0.2833
    3SAPS   H7S  316   3.306   5.958   5.397  1.6902  1.3157 -2.2590
    3SAPS   C28  317   3.309   5.758   5.319 -0.0829  0.8489  0.4876
    3SAPS   H8R  318   3.239   5.721   5.396  0.7289  0.4647  1.0479
    3SAPS   C29  319   3.304   5.699   5.195 -0.4449  0.2131  0.5078
    3SAPS   H9R  320   3.232   5.617   5.187 -0.1868  0.0781 -0.5183
    3SAPS  C210  321   3.380   5.737   5.068 -1.1002  0.2247 -0.0523
    3SAPS  H10R  322   3.405   5.643   5.015 -0.0327  0.8680 -0.7040
    3SAPS  H10S  323   3.471   5.789   5.104 -2.3952 -0.1722  4.5330
    3SAPS  C211  324   3.291   5.831   4.987 -0.3074  0.2677 -0.5778
    3SAPS  H11R  325   3.207   5.876   5.042 -0.4732 -0.6364 -0.0800
    3SAPS  C212  326   3.310   5.863   4.853  0.0055  0.3776  0.1021
    3SAPS  H12R  327   3.234   5.923   4.801 -0.1620  1.1528  1.2007
    3SAPS  C213  328   3.429   5.811   4.772 -0.3916  0.6342 -0.3097
    3SAPS  H13R  329   3.443   5.706   4.803 -1.7589 -0.3102 -2.6519
    3SAPS  H13S  330   3.519   5.871   4.800 -0.0311  0.2685 -0.6712
    3SAPS  C214  331   3.382   5.799   4.629 -0.4213  0.1143 -0.2576
    3SAPS  H14R  332   3.287   5.748   4.611  0.2233 -0.3663 -2.7657
    3SAPS  C215  333   3.452   5.844   4.521  0.3205  0.3164 -0.3603
    3SAPS  H15R  334   3.405   5.844   4.422  0.4865 -0.3670 -0.4475
    3SAPS  C216  335   3.581   5.924   4.534  0.0579 -0.7624  0.4903
    3SAPS  H16R  336   3.636   5.924   4.438 -1.2398  2.2233 -0.3903
    3SAPS  H16S  337   3.638   5.892   4.624 -1.2282  0.6409  1.8880
    3SAPS  C217  338   3.538   6.070   4.568 -0.5706  0.0615  0.0227
    3SAPS  H17R  339   3.633   6.127   4.575 -0.1123 -0.4053 -1.8026
    3SAPS  H17S  340   3.490   6.091   4.666  0.1709  2.6377 -0.0953
    3SAPS  C218  341   3.444   6.136   4.462 -0.0692  0.1713 -1.0807
    3SAPS  H18R  342   3.420   6.242   4.486  2.2210  0.4926  0.0682
    3SAPS  H18S  343   3.339   6.102   4.467  0.1468 -0.3207  1.0562
    3SAPS  C219  344   3.501   6.119   4.324 -0.5298 -0.5756 -0.1648
    3SAPS  H19R  345   3.609   6.141   4.317 -0.8873  1.3422 -0.0365
    3SAPS  H19S  346   3.487   6.015   4.286 -3.8806 -0.0109 -0.8496
    3SAPS  C220  347   3.435   6.206   4.223 -0.0107 -0.4532 -0.8254
    3SAPS  H20R  348   3.329   6.175   4.227  0.0626 -0.6594  1.8943
    3SAPS  H20S  349   3.484   6.184   4.126 -0.6223 -5.1705 -0.2817
    3SAPS  H20T  350   3.444   6.311   4.261 -0.6699 -1.2960  1.9150
    3SAPS   C33  351   2.994   6.410   5.838  0.0268 -0.2075  0.6272
    3SAPS   H3X  352   2.907   6.472   5.868 -0.9339 -0.9374 -0.5456
    3SAPS   H3Y  353   3.018   6.342   5.923 -0.9331  0.1145  1.1668
    3SAPS   C34  354   2.956   6.322   5.712  0.8329  0.4260  0.2100
    3SAPS   H4X  355   2.854   6.281   5.732  1.3311 -1.5080 -0.9610
    3SAPS   H4Y  356   3.029   6.241   5.690  1.3667  1.2485 -1.1352
    3SAPS   C35  357   2.948   6.404   5.579 -0.1040 -0.4448  0.5098
    3SAPS   H5X  358   2.879   6.490   5.594  1.6329  0.9438  0.8576
    3SAPS   H5Y  359   3.045   6.454   5.558  1.5559 -2.2065  3.3523
    3SAPS   C36  360   2.904   6.318   5.457 -0.2312 -0.2347 -0.3934
    3SAPS   H6X  361   2.859   6.387   5.383 -0.5558 -0.4091 -0.3643
    3SAPS   H6Y  362   2.826   6.241   5.480  0.2851 -0.5048  0.5256
    3SAPS   C37  363   3.027   6.241   5.392  0.0737  0.4796  0.1975
    3SAPS   H7X  364   3.036   6.155   5.462 -0.3993 -1.1014 -1.6119
    3SAPS   H7Y  365   3.118   6.304   5.384  0.6532 -0.4052 -0.3046
    3SAPS   C38  366   2.987   6.187   5.253 -0.7567  0.7726  0.2327
    3SAPS   H8X  367   2.964   6.262   5.175 -0.8885 -1.5273 -2.0703
    3SAPS   H8Y  368   2.894   6.127   5.266 -0.8628  0.6958 -0.7853
    3SAPS   C39  369   3.092   6.089   5.188  0.4171 -0.2038 -0.2605
    3SAPS   H9X  370   3.040   6.030   5.109 -0.9331 -0.2908  0.6564
    3SAPS   H9Y  371   3.109   6.015   5.269 -0.8384  1.1672  1.3335
    3SAPS  C310  372   3.228   6.151   5.145 -0.2290  1.0107  0.7279
    3SAPS  H10X  373   3.301   6.086   5.094 -0.9863  0.2979  0.5183
    3SAPS  H10Y  374   3.280   6.183   5.237  0.7781 -0.1217  0.5788
    3SAPS  C311  375   3.213   6.274   5.054  0.3243  0.2694 -0.0647
    3SAPS  H11X  376   3.314   6.299   5.015  1.2146 -1.3316  1.0655
    3SAPS  H11Y  377   3.171   6.357   5.115 -1.0570 -0.9496  0.6996
    3SAPS  C312  378   3.118   6.249   4.931 -0.1907 -0.5801 -0.0315
    3SAPS  H12X  379   3.015   6.251   4.973  0.0579  0.7815  0.5825
    3SAPS  H12Y  380   3.122   6.143   4.898 -0.9125 -1.2604  1.8982
    3SAPS  C313  381   3.148   6.350   4.815  0.3317  0.2157 -0.6394
    3SAPS  H13X  382   3.253   6.329   4.786  0.2013 -0.4798 -0.6352
    3SAPS  H13Y  383   3.139   6.452   4.856  1.3593 -0.2650  0.8565
    3SAPS  C314  384   3.054   6.329   4.695 -0.0522  0.4326 -1.3603
    3SAPS  H14X  385   2.949   6.340   4.731  0.9515 -0.2676  2.1076
    3SAPS  H14Y  386   3.077   6.222   4.680  0.3035  0.1201  0.9957
    3SAPS  C315  387   3.081   6.421   4.579 -0.2249 -0.5409  0.4911
    3SAPS  H15X  388   3.162   6.373   4.520 -0.1004 -0.4074  0.5548
    3SAPS  H15Y  389   3.099   6.526   4.610  1.9148 -1.0084  0.9797
    3SAPS  C316  390   2.967   6.408   4.478 -0.0806  0.4497  0.0041
    3SAPS  H16X  391   2.873   6.432   4.532 -1.5111 -1.5041 -1.4620
    3SAPS  H16Y  392   2.964   6.305   4.437  0.3622  0.6744 -0.6056
    3SAPS  C317  393   2.974   6.512   4.360  0.7079  0.3624  0.0818
    3SAPS  H17X  394   2.984   6.614   4.403 -1.3494 -0.2075  2.1311
    3SAPS  H17Y  395   2.880   6.497   4.304  0.2444 -2.4818  1.4292
    3SAPS  C318  396   3.081   6.484   4.261 -0.7210 -0.3438  1.0769
    3SAPS  H18X  397   3.108   6.377   4.245  1.8268  0.1304  1.7163
    3SAPS  H18Y  398   3.181   6.520   4.293  0.2582 -2.3142  0.3923
    3SAPS  H18Z  399   3.061   6.515   4.156 -1.7661  2.9086  2.1303
    4SAPS     N  400   6.569   2.895   6.838 -0.4986  0.0328  0.5061
    4SAPS   HN1  401   6.613   2.906   6.745  0.1815 -0.2329  0.7888
    4SAPS   HN2  402   6.644   2.845   6.890 -0.2551 -0.0676  0.0620
    4SAPS   HN3  403   6.480   2.842   6.824 -0.5603  0.1119  0.5960
    4SAPS   C12  404   6.543   3.032   6.890  0.2234  0.6712 -0.3500
    4SAPS  H12A  405   6.476   3.028   6.975  0.1866 -0.0162 -0.4090
    4SAPS   C13  406   6.665   3.112   6.931  0.2556  0.2263 -0.0113
    4SAPS  O13A  407   6.774   3.052   6.936  0.2697  0.0234  0.9851
    4SAPS  O13B  408   6.649   3.223   6.986  0.1273 -0.1492 -0.2722
    4SAPS   C11  409   6.451   3.111   6.791  0.0472  0.4010 -0.0095
    4SAPS  H11A  410   6.438   3.213   6.833  1.1968  0.8150 -0.6100
    4SAPS  H11B  411   6.353   3.058   6.795  0.5211 -0.4849  0.2377
    4SAPS     P  412   6.426   3.040   6.538 -0.1754  0.3733 -0.1831
    4SAPS   O13  413   6.471   2.896   6.533  0.1712 -0.6167 -0.0502
    4SAPS   O14  414   6.279   3.060   6.557 -0.1206 -0.4504 -0.3957
    4SAPS   O12  415   6.502   3.107   6.655 -0.2512 -0.1709  0.6078
    4SAPS   O11  416   6.483   3.126   6.416  0.3728  0.0410 -0.5160
    4SAPS    C1  417   6.622   3.109   6.387  0.8492 -0.3172 -0.0361
    4SAPS    HA  418   6.672   3.206   6.405 -0.3665  0.3520 -0.1637
    4SAPS    HB  419   6.675   3.031   6.447  0.9464  0.1593  0.5033
    4SAPS    C2  420   6.635   3.077   6.241 -0.3307 -0.7875 -0.1438
    4SAPS    HS  421   6.646   3.174   6.186 -0.5876 -0.1024  0.9873
    4SAPS   O21  422   6.528   3.000   6.194 -0.4148  0.4621 -0.1893
    4SAPS   C21  423   6.466   3.030   6.085  0.3371 -0.2021  0.3216
    4SAPS   O22  424   6.471   3.140   6.030 -0.2367 -0.4379 -0.0345
    4SAPS   C22  425   6.377   2.916   6.043 -0.4590  0.5743 -0.3647
    4SAPS   H2R  426   6.440   2.825   6.045  2.0526  2.1691  2.9272
    4SAPS   H2S  427   6.308   2.904   6.129 -0.2131  2.9956  0.2411
    4SAPS    C3  428   6.765   2.998   6.210 -0.3924  0.4232  0.2933
    4SAPS    HX  429   6.774   2.911   6.279  1.3445  1.2011  1.1291
    4SAPS    HY  430   6.850   3.062   6.242  0.0030  0.4949 -0.8789
    4SAPS   O31  431   6.773   2.948   6.070 -0.0937 -0.4174 -0.5355
    4SAPS   C31  432   6.835   3.039   5.990 -0.1949  0.7266  0.0193
    4SAPS   O32  433   6.884   3.142   6.033 -0.0817  0.1101  0.0243
    4SAPS   C32  434   6.854   2.981   5.849  0.4757  0.3992 -0.6454
    4SAPS   H2X  435   6.762   2.923   5.826  1.8640 -1.5120 -1.7103
    4SAPS   H2Y  436   6.933   2.903   5.845  0.0948  0.0515 -1.8278
    4SAPS   C23  437   6.295   2.957   5.920  0.2825 -0.1062  0.3295
    4SAPS   H3R  438   6.255   3.061   5.921  0.6545  0.1435 -2.5202
    4SAPS   H3S  439   6.206   2.891   5.915 -2.1386  2.7610  2.0255
    4SAPS   C24  440   6.382   2.935   5.793 -0.0262  0.3459  0.4916
    4SAPS   H4R  441   6.410   2.828   5.787 -1.9309 -0.3055  2.2480
    4SAPS   H4S  442   6.474   2.997   5.799  0.0580  0.4938 -1.7271
    4SAPS   C25  443   6.310   2.989   5.665  0.5041  0.7069 -0.1358
    4SAPS   H5R  444   6.201   2.987   5.681  0.5220  3.5493  0.9646
    4SAPS   C26  445   6.363   3.043   5.555 -0.6550 -0.2037 -0.2071
    4SAPS   H6R  446   6.306   3.086   5.472 -1.3501 -1.2932 -0.3108
    4SAPS   C27  447   6.511   3.055   5.535 -0.5572  0.4893 -0.9053
    4SAPS   H7R  448   6.569   3.093   5.622 -0.3097  3.9593 -2.4242
    4SAPS   H7S  449   6.545   3.131   5.462  0.1970  2.7371  1.6214
    4SAPS   C28  450   6.577   2.925   5.500 -0.4149 -0.0571  0.2149
    4SAPS   H8R  451   6.630   2.872   5.580  0.2406 -1.2062 -0.9557
    4SAPS   C29  452   6.588   2.882   5.370 -0.6068  0.0664  0.7388
    4SAPS   H9R  453   6.638   2.786   5.350 -4.1263 -1.5524 -1.1293
    4SAPS  C210  454   6.530   2.952   5.247  0.0874  0.7391  0.3469
    4SAPS  H10R  455   6.614   3.004   5.196  0.3132  0.1497  0.1164
    4SAPS  H10S  456   6.460   3.033   5.278 -1.6956 -0.7941  0.4923
    4SAPS  C211  457   6.458   2.863   5.151  0.2002 -0.1870  0.4398
    4SAPS  H11R  458   6.351   2.855   5.176  0.2663 -0.5225  0.6142
    4SAPS  C212  459   6.512   2.805   5.032  0.0041  0.5672  0.1923
    4SAPS  H12R  460   6.454   2.742   4.964  0.0645  0.7841 -0.0636
    4SAPS  C213  461   6.661   2.811   4.994  0.0690  0.7848  0.6326
    4SAPS  H13R  462   6.715   2.868   5.073  2.8839 -1.2509  0.3186
    4SAPS  H13S  463   6.685   2.859   4.897  2.1056  0.3910  0.9010
    4SAPS  C214  464   6.733   2.677   4.987  0.4936  0.2420  0.0535
    4SAPS  H14R  465   6.790   2.642   5.075  1.7593  0.3589 -0.6927
    4SAPS  C215  466   6.742   2.594   4.877  0.1144  0.3952  0.3580
    4SAPS  H15R  467   6.800   2.501   4.877 -0.0684  0.2737  0.9603
    4SAPS  C216  468   6.679   2.613   4.741 -0.5216 -0.0159 -1.1195
    4SAPS  H16R  469   6.603   2.693   4.743  0.3129  0.7722  0.2500
    4SAPS  H16S  470   6.622   2.520   4.716  1.5368 -2.2325  1.7449
    4SAPS  C217  471   6.786   2.656   4.638 -0.1833  1.6995  0.3774
    4SAPS  H17R  472   6.855   2.569   4.635 -3.1330 -0.7920  0.2947
    4SAPS  H17S  473   6.845   2.749   4.654 -0.0584  1.8353 -0.7752
    4SAPS  C218  474   6.740   2.674   4.489  0.4600  0.3366  0.3957
    4SAPS  H18R  475   6.828   2.714   4.434  0.4514 -0.2309 -0.0421
    4SAPS  H18S  476   6.659   2.750   4.483 -1.3200 -1.4696  0.4744
    4SAPS  C219  477   6.682   2.552   4.419 -0.9370 -0.0055  0.4651
    4SAPS  H19R  478   6.609   2.498   4.483  0.8811 -3.1764  0.0846
    4SAPS  H19S  479   6.763   2.479   4.396 -1.1966 -0.3808  0.7270
    4SAPS  C220  480   6.608   2.581   4.294  0.3793 -0.5953  0.7686
    4SAPS  H20R  481   6.558   2.491   4.254 -3.5163  1.5851  0.1785
    4SAPS  H20S  482   6.667   2.623   4.210 -0.0617  0.0146  0.7578
    4SAPS  H20T  483   6.521   2.648   4.314 -0.3270 -1.0671 -0.6172
    4SAPS   C33  484   6.900   3.084   5.743 -0.2036  0.1648  0.2672
    4SAPS   H3X  485   6.981   3.143   5.790  0.3931 -1.3226  1.1826
    4SAPS   H3Y  486   6.814   3.154   5.732  0.7803  1.0489 -2.6425
    4SAPS   C34  487   6.926   3.010   5.614 -0.7435  0.5936 -0.1447
    4SAPS   H4X  488   6.832   2.955   5.587  1.0828 -1.2972 -3.3465
    4SAPS   H4Y  489   7.011   2.939   5.625 -1.1673  0.1768  0.5044
    4SAPS   C35  490   6.956   3.101   5.494  0.2223  0.0377  0.0429
    4SAPS   H5X  491   7.064   3.128   5.502  0.1178 -0.0627  2.7444
    4SAPS   H5Y  492   6.897   3.195   5.501  1.7405  1.1001 -0.6489
    4SAPS   C36  493   6.915   3.038   5.359  0.0623  0.5442  0.2235
    4SAPS   H6X  494   6.805   3.050   5.353 -0.0702 -0.9987 -1.4240
    4SAPS   H6Y  495   6.945   2.932   5.362  0.4449  0.5936 -1.0146
    4SAPS   C37  496   6.969   3.112   5.235  0.4266  0.1123 -0.0860
    4SAPS   H7X  497   7.078   3.113   5.257  0.4625 -0.7670 -0.1762
    4SAPS   H7Y  498   6.934   3.217   5.238 -1.2962 -0.3199 -2.5678
    4SAPS   C38  499   6.929   3.046   5.100  0.4488  0.1771  0.1360
    4SAPS   H8X  500   6.818   3.045   5.095  0.4952 -0.5044 -1.4136
    4SAPS   H8Y  501   6.974   2.944   5.101 -0.1114 -0.1183  2.9103
    4SAPS   C39  502   7.003   3.128   4.988  0.0492 -0.0168 -0.0961
    4SAPS   H9X  503   7.110   3.107   5.009  0.8649  0.3763 -3.4236
    4SAPS   H9Y  504   6.987   3.236   5.007 -2.0183 -0.2806 -0.1581
    4SAPS  C310  505   6.957   3.085   4.850 -0.4600  0.5387 -0.0739
    4SAPS  H10X  506   6.867   3.141   4.817 -0.5073 -0.5456 -1.9394
    4SAPS  H10Y  507   6.938   2.976   4.849  2.2019 -0.0209  0.6604
    4SAPS  C311  508   7.058   3.119   4.739  0.6490  0.2065  0.4501
    4SAPS  H11X  509   7.147   3.054   4.752 -0.7489 -1.4045  2.6356
    4SAPS  H11Y  510   7.085   3.227   4.743  1.1559  0.0805  0.5836
    4SAPS  C312  511   6.994   3.082   4.601 -0.0869  0.5702 -0.6134
    4SAPS  H12X  512   6.894   3.131   4.601 -1.4396 -1.9638  0.9771
    4SAPS  H12Y  513   6.970   2.974   4.613 -1.1968  0.8033 -0.5618
    4SAPS  C313  514   7.092   3.127   4.484 -0.5016 -0.1915 -0.1104
    4SAPS  H13X  515   7.183   3.066   4.501 -2.0310 -2.5194  0.1728
    4SAPS  H13Y  516   7.112   3.236   4.490 -1.1336 -0.0113 -1.0533
    4SAPS  C314  517   7.041   3.101   4.346  0.6220 -0.0320 -0.2608
    4SAPS  H14X  518   6.951   3.165   4.336  1.1998  0.5935 -1.7420
    4SAPS  H14Y  519   7.022   2.991   4.350  2.3736 -0.3740  4.0309
    4SAPS  C315  520   7.142   3.137   4.233 -0.1006 -0.5823 -0.8757
    4SAPS  H15X  521   7.161   3.244   4.254 -2.1241 -0.0053 -1.7261
    4SAPS  H15Y  522   7.085   3.126   4.138 -0.3200 -2.3577 -0.5793
    4SAPS  C316  523   7.271   3.054   4.242 -0.0906  0.0519  0.1070
    4SAPS  H16X  524   7.284   3.007   4.142  1.6875  2.5773 -0.9472
    4SAPS  H16Y  525   7.264   2.964   4.307 -6.0658  0.2970  0.4052
    4SAPS  C317  526   7.388   3.137   4.287 -0.6368  0.0557 -0.0646
    4SAPS  H17X  527   7.367   3.161   4.394 -2.2418 -1.8033  0.0888
    4SAPS  H17Y  528   7.390   3.228   4.222 -1.1988  1.4030  1.7088
    4SAPS  C318  529   7.533   3.083   4.289 -0.3041 -0.1455 -0.1913
    4SAPS  H18X  530   7.601   3.159   4.331 -0.8298  0.6271 -0.7062
    4SAPS  H18Y  531   7.579   3.047   4.194 -1.6289 -0.3764 -0.7742
    4SAPS  H18Z  532   7.530   2.998   4.360 -3.8214 -1.0344 -1.1871
    5SAPS     N  533   2.749   5.386   6.512 -0.2695  0.0584  0.1329
    5SAPS   HN1  534   2.735   5.481   6.550  0.0983  0.3120 -0.3652
    5SAPS   HN2  535   2.826   5.383   6.443 -0.7763 -0.3701 -0.4329
    5SAPS   HN3  536   2.663   5.366   6.456 -0.3972 -0.8024  0.6122
    5SAPS   C12  537   2.750   5.271   6.605 -0.5128  0.4462 -0.2075
    5SAPS  H12A  538   2.739   5.175   6.557 -1.7922  0.1878  0.5561
    5SAPS   C13  539   2.877   5.260   6.700  0.5008  0.3308 -0.6616
    5SAPS  O13A  540   2.950   5.361   6.711 -0.4981  0.5511 -0.1557
    5SAPS  O13B  541   2.904   5.153   6.757 -0.1077 -0.2476 -0.4005
    5SAPS   C11  542   2.619   5.283   6.693 -0.8453 -0.4466 -0.1617
    5SAPS  H11A  543   2.614   5.385   6.736 -0.5341 -0.7921  0.7231
    5SAPS  H11B  544   2.621   5.212   6.779  0.7643  2.4814  2.4275
    5SAPS     P  545   2.357   5.273   6.666  0.0286 -0.1659 -0.3487
    5SAPS   O13  546   2.352   5.223   6.802 -1.0472  0.5029 -0.5663
    5SAPS   O14  547   2.307   5.407   6.640 -0.5697 -0.1749 -0.2929
    5SAPS   O12  548   2.504   5.274   6.613  0.4420 -0.3499 -0.5240
    5SAPS   O11  549   2.280   5.171   6.574 -0.0184 -0.8001  0.1692
    5SAPS    C1  550   2.332   5.038   6.553 -0.6021  0.2096 -0.1569
    5SAPS    HA  551   2.427   5.026   6.608 -1.6590  1.2108  1.9943
    5SAPS    HB  552   2.258   4.958   6.574  1.8045 -2.3761 -0.8801
    5SAPS    C2  553   2.372   5.022   6.402 -0.3352  0.0388  0.2961
    5SAPS    HS  554   2.424   5.114   6.369 -0.5529 -0.1058 -0.4662
    5SAPS   O21  555   2.246   5.002   6.342 -0.2221 -0.0599 -0.1043
    5SAPS   C21  556   2.232   5.044   6.214  0.2137 -0.0143 -0.2952
    5SAPS   O22  557   2.316   5.107   6.151 -0.4540  0.3531 -0.1022
    5SAPS   C22  558   2.091   5.007   6.164  0.0468  0.2056 -0.9844
    5SAPS   H2R  559   2.041   4.940   6.238  0.1254  0.1074 -1.0204
    5SAPS   H2S  560   2.033   5.102   6.170  2.0382  1.3880  0.8842
    5SAPS    C3  561   2.477   4.915   6.375 -0.0600  0.2919  0.6989
    5SAPS    HX  562   2.457   4.819   6.428 -0.1983 -0.7801 -1.1912
    5SAPS    HY  563   2.572   4.947   6.422  0.3897 -1.6083  1.1892
    5SAPS   O31  564   2.485   4.888   6.233 -0.3923  0.3309 -0.6418
    5SAPS   C31  565   2.573   4.976   6.171 -0.4790 -0.0889 -0.5343
    5SAPS   O32  566   2.633   5.063   6.229  0.3555 -0.2528  0.1613
    5SAPS   C32  567   2.606   4.934   6.024  0.3849  0.1327  0.8467
    5SAPS   H2X  568   2.511   4.911   5.972 -0.4080 -1.3358  2.8234
    5SAPS   H2Y  569   2.666   4.843   6.044 -0.5305 -0.0981  2.8129
    5SAPS   C23  570   2.085   4.950   6.017  0.5737 -0.4051 -0.2662
    5SAPS   H3R  571   2.144   5.003   5.939  0.7070  0.5914  0.4938
    5SAPS   H3S  572   1.982   4.966   5.977  0.9420  0.2731 -0.9902
    5SAPS   C24  573   2.122   4.803   6.007  0.4078  0.5661  0.4876
    5SAPS   H4R  574   2.059   4.748   6.079  0.3965 -0.2981 -0.1729
    5SAPS   H4S  575   2.227   4.789   6.042  0.8852 -2.0821 -1.6341
    5SAPS   C25  576   2.092   4.746   5.866  0.0566 -0.1097  0.2179
    5SAPS   H5R  577   1.989   4.715   5.847 -0.5040  0.8683  1.5365
    5SAPS   C26  578   2.177   4.733   5.761  0.0287 -0.3096 -0.2111
    5SAPS   H6R  579   2.136   4.693   5.667  0.3952 -0.3148 -0.3701
    5SAPS   C27  580   2.325   4.756   5.766 -0.8626 -0.0154  0.3411
    5SAPS   H7R  581   2.382   4.671   5.722 -1.3818  0.8276 -2.1479
    5SAPS   H7S  582   2.376   4.770   5.863 -0.9312  0.9316  0.2559
    5SAPS   C28  583   2.364   4.886   5.692 -0.8106 -0.5537 -0.4144
    5SAPS   H8R  584   2.348   4.980   5.748 -2.1916 -1.5449  0.9369
    5SAPS   C29  585   2.430   4.901   5.576 -0.2040  0.2077 -0.7544
    5SAPS   H9R  586   2.464   5.002   5.551  0.7420 -0.1440 -0.9065
    5SAPS  C210  587   2.479   4.795   5.485 -0.3826  0.6946  0.6147
    5SAPS  H10R  588   2.521   4.719   5.554 -0.5424 -0.1459 -0.1982
    5SAPS  H10S  589   2.565   4.826   5.421  0.2593  0.6907  1.4499
    5SAPS  C211  590   2.370   4.713   5.422 -1.0769 -0.4962 -0.1337
    5SAPS  H11R  591   2.283   4.698   5.487 -0.2548  0.4620  1.2289
    5SAPS  C212  592   2.375   4.658   5.303  0.3613  0.2352 -1.1815
    5SAPS  H12R  593   2.290   4.599   5.265  0.4658 -0.0984 -0.8886
    5SAPS  C213  594   2.487   4.671   5.196 -0.4783 -0.0629 -0.2746
    5SAPS  H13R  595   2.549   4.579   5.195 -0.7217 -0.2563  1.1976
    5SAPS  H13S  596   2.557   4.752   5.227  1.2045 -1.0761 -1.2517
    5SAPS  C214  597   2.438   4.709   5.064 -0.1840  0.4801 -0.0580
    5SAPS  H14R  598   2.329   4.723   5.059 -0.4030 -0.4397  1.5448
    5SAPS  C215  599   2.513   4.732   4.955  0.2709 -0.2378  0.0390
    5SAPS  H15R  600   2.453   4.769   4.870 -0.6466 -0.5134  0.5470
    5SAPS  C216  601   2.665   4.731   4.947  0.7545 -0.2160 -0.4006
    5SAPS  H16R  602   2.727   4.767   5.032  2.1536  0.6532 -1.7269
    5SAPS  H16S  603   2.696   4.787   4.856  1.3271 -2.4650 -1.6830
    5SAPS  C217  604   2.711   4.585   4.925  0.9232  0.3823  1.5661
    5SAPS  H17R  605   2.693   4.519   5.013  0.9534 -1.2259  0.4155
    5SAPS  H17S  606   2.823   4.587   4.927  1.0477  0.8790 -1.6142
    5SAPS  C218  607   2.692   4.516   4.787  0.2646 -0.7368 -0.4439
    5SAPS  H18R  608   2.585   4.490   4.771 -0.1316 -1.2437  2.3702
    5SAPS  H18S  609   2.756   4.426   4.778 -0.9250 -1.4405 -2.5950
    5SAPS  C219  610   2.731   4.604   4.668 -0.6153  0.5675 -0.2865
    5SAPS  H19R  611   2.835   4.633   4.695 -0.3595  1.2807 -1.9367
    5SAPS  H19S  612   2.667   4.694   4.663 -2.0072 -0.3190  0.7383
    5SAPS  C220  613   2.762   4.527   4.537  0.2705  0.2187  0.0071
    5SAPS  H20R  614   2.803   4.602   4.467  0.2072  2.8521  2.5986
    5SAPS  H20S  615   2.680   4.468   4.490  1.5232 -0.7531 -1.0426
    5SAPS  H20T  616   2.841   4.450   4.551  0.2816  0.4737  1.4806
    5SAPS   C33  617   2.704   5.041   5.948  0.5229  0.1078 -0.1980
    5SAPS   H3X  618   2.759   5.096   6.027  2.7746 -1.0890 -0.8322
    5SAPS   H3Y  619   2.651   5.112   5.881 -0.4948  1.5062  1.9720
    5SAPS   C34  620   2.812   4.971   5.863 -0.2676  0.0762 -0.5454
    5SAPS   H4X  621   2.760   4.931   5.774 -1.4255 -0.4112  0.3181
    5SAPS   H4Y  622   2.851   4.878   5.912  0.8904  1.3522  1.0933
    5SAPS   C35  623   2.939   5.057   5.833 -0.1689 -0.1589 -0.0867
    5SAPS   H5X  624   2.980   5.082   5.934 -1.9593 -2.0003  1.1775
    5SAPS   H5Y  625   2.912   5.147   5.774  0.0082 -0.5775 -0.8216
    5SAPS   C36  626   3.047   4.974   5.749  0.9717  0.3599  0.0597
    5SAPS   H6X  627   3.078   4.881   5.801  0.8789 -0.3241 -1.0574
    5SAPS   H6Y  628   3.142   5.031   5.742  1.3397 -0.2127  0.3885
    5SAPS   C37  629   2.999   4.939   5.609 -0.2243  0.4351  0.0313
    5SAPS   H7X  630   2.994   5.033   5.550  1.4480  0.7975  0.4236
    5SAPS   H7Y  631   2.903   4.885   5.620  0.8809 -1.6082  0.2333
    5SAPS   C38  632   3.094   4.834   5.541  0.4851 -0.3581  0.2076
    5SAPS   H8X  633   3.116   4.751   5.611  3.2691  2.0126  2.4161
    5SAPS   H8Y  634   3.193   4.883   5.551  0.7385 -0.4181 -1.7011
    5SAPS   C39  635   3.057   4.771   5.399  0.2317 -0.4685 -0.2472
    5SAPS   H9X  636   2.947   4.760   5.406 -0.1872  3.0789  0.7207
    5SAPS   H9Y  637   3.100   4.668   5.393 -1.9867 -1.4221 -0.7979
    5SAPS  C310  638   3.095   4.863   5.285  0.3683 -0.3779  0.9742
    5SAPS  H10X  639   3.203   4.890   5.294  0.3941 -0.1443  0.0604
    5SAPS  H10Y  640   3.037   4.956   5.299 -0.9530 -0.9694 -0.3334
    5SAPS  C311  641   3.057   4.789   5.151 -0.1268 -0.7855  0.0761
    5SAPS  H11X  642   2.957   4.740   5.155  0.2035 -1.4689  4.2485
    5SAPS  H11Y  643   3.127   4.705   5.130  2.0653  1.3958 -2.0812
    5SAPS  C312  644   3.062   4.893   5.032 -0.4189 -0.1395 -0.9545
    5SAPS  H12X  645   3.159   4.947   5.031 -0.6593  0.3401 -2.9628
    5SAPS  H12Y  646   2.984   4.972   5.034  0.6738  1.0083 -1.7978
    5SAPS  C313  647   3.041   4.834   4.887  0.6111  0.4718 -0.9771
    5SAPS  H13X  648   2.992   4.905   4.817 -1.8342  0.2053  0.3437
    5SAPS  H13Y  649   2.982   4.740   4.884  1.2386 -0.0038  0.5586
    5SAPS  C314  650   3.175   4.792   4.825 -0.1751  0.3518 -0.5275
    5SAPS  H14X  651   3.217   4.713   4.890  0.2390  0.4281 -0.6990
    5SAPS  H14Y  652   3.247   4.876   4.817 -0.0594  0.2270 -0.7949
    5SAPS  C315  653   3.158   4.738   4.686 -0.2894  0.0958 -0.0819
    5SAPS  H15X  654   3.137   4.820   4.614 -1.1601  0.9989  1.1580
    5SAPS  H15Y  655   3.075   4.663   4.681  1.0265 -1.3716 -0.7494
    5SAPS  C316  656   3.278   4.656   4.652 -0.0667 -0.4194  0.0988
    5SAPS  H16X  657   3.290   4.580   4.733  1.5156  1.0377  1.3217
    5SAPS  H16Y  658   3.361   4.728   4.666 -1.1271  0.3105  3.8407
    5SAPS  C317  659   3.293   4.596   4.512  0.7923  0.0272  0.8535
    5SAPS  H17X  660   3.329   4.686   4.459 -0.9923  0.8937  1.0371
    5SAPS  H17Y  661   3.190   4.562   4.487  1.0227 -0.1194  0.0942
    5SAPS  C318  662   3.391   4.473   4.495 -0.1666 -0.1869 -0.1597
    5SAPS  H18X  663   3.330   4.380   4.502  0.1860 -0.5011 -1.0272
    5SAPS  H18Y  664   3.473   4.481   4.569 -2.4583  1.6405  2.3795
    5SAPS  H18Z  665   3.443   4.471   4.397  1.0668  1.0342  0.4443
    6SAPS     N  666   6.539   6.061   6.518 -0.1302 -0.2983  0.0883
    6SAPS   HN1  667   6.465   6.112   6.466 -3.6472 -2.5738  2.4209
    6SAPS   HN2  668   6.627   6.117   6.513  0.0977 -0.5139  1.4272
    6SAPS   HN3  669   6.559   5.966   6.481  1.0577  0.1586 -0.5313
    6SAPS   C12  670   6.500   6.074   6.659  0.1124 -0.3100 -0.0919
    6SAPS  H12A  671   6.557   6.003   6.717 -2.1650 -0.7248  1.7963
    6SAPS   C13  672   6.518   6.223   6.705  0.0714  0.1717 -0.0208
    6SAPS  O13A  673   6.559   6.307   6.620  0.3898  0.3561  0.5896
    6SAPS  O13B  674   6.482   6.253   6.824  0.2700  0.1391  0.2151
    6SAPS   C11  675   6.348   6.036   6.660 -0.5690  0.8837 -0.0771
    6SAPS  H11A  676   6.316   6.075   6.760  0.3595  1.0570  0.1586
    6SAPS  H11B  677   6.339   5.926   6.661  0.0170  0.8341 -0.3241
    6SAPS     P  678   6.133   6.163   6.561 -0.1501 -0.1655  0.0090
    6SAPS   O13  679   6.037   6.089   6.646  0.4074 -0.1834 -0.3828
    6SAPS   O14  680   6.162   6.309   6.583  1.2435  0.5308 -0.0079
    6SAPS   O12  681   6.269   6.083   6.552  0.1187 -0.0155  0.3594
    6SAPS   O11  682   6.088   6.144   6.408  0.1737  0.0098 -0.5275
    6SAPS    C1  683   6.138   6.030   6.337  0.0284  0.5714  0.2130
    6SAPS    HA  684   6.143   5.940   6.401  1.1322 -0.4213 -1.2125
    6SAPS    HB  685   6.062   6.009   6.259 -0.5573 -1.0012  1.1590
    6SAPS    C2  686   6.273   6.055   6.260 -0.7545  0.8813 -0.0261
    6SAPS    HS  687   6.355   6.040   6.333  1.6395 -0.6008 -2.7731
    6SAPS   O21  688   6.278   6.187   6.211 -0.6407 -0.5100 -0.2616
    6SAPS   C21  689   6.376   6.267   6.244 -0.5084 -0.3551  0.2748
    6SAPS   O22  690   6.478   6.235   6.307  0.2285 -0.0324  0.0155
    6SAPS   C22  691   6.348   6.418   6.194  0.6191  0.2186  0.2897
    6SAPS   H2R  692   6.265   6.411   6.120  1.3335  3.0261 -0.8971
    6SAPS   H2S  693   6.314   6.461   6.290 -0.9425  0.7061 -0.4535
    6SAPS    C3  694   6.290   5.955   6.142  0.0878 -0.4992 -0.2987
    6SAPS    HX  695   6.202   5.966   6.076 -1.3600 -0.2636  1.6056
    6SAPS    HY  696   6.280   5.848   6.170  1.3424 -0.4802  0.3188
    6SAPS   O31  697   6.399   5.976   6.050  0.5320 -0.5120  0.1928
    6SAPS   C31  698   6.527   5.958   6.101  0.2679 -0.2559 -0.1572
    6SAPS   O32  699   6.550   5.895   6.198 -0.4509 -0.4587  0.3840
    6SAPS   C32  700   6.617   6.064   6.042 -0.1214 -0.2732  0.6554
    6SAPS   H2X  701   6.713   6.054   6.095 -0.5682 -0.1839  1.4924
    6SAPS   H2Y  702   6.579   6.167   6.057 -0.5638 -0.3262 -0.0206
    6SAPS   C23  703   6.468   6.494   6.151 -0.2313  0.0870  0.0164
    6SAPS   H3R  704   6.559   6.467   6.210  1.6494  4.1550 -0.6491
    6SAPS   H3S  705   6.467   6.603   6.173  2.8185  0.5296 -1.5102
    6SAPS   C24  706   6.490   6.482   5.995 -0.1478  0.1211 -0.2841
    6SAPS   H4R  707   6.391   6.491   5.946  0.0818  3.2182 -0.3491
    6SAPS   H4S  708   6.522   6.376   5.988  0.5299  0.3789 -1.1838
    6SAPS   C25  709   6.603   6.562   5.938 -0.3617  0.3593 -1.0501
    6SAPS   H5R  710   6.659   6.623   6.010 -0.0258  2.2849 -2.8300
    6SAPS   C26  711   6.620   6.579   5.811 -0.1990  0.8755  0.9480
    6SAPS   H6R  712   6.712   6.633   5.785  3.7994 -5.4911 -0.3946
    6SAPS   C27  713   6.545   6.525   5.694 -0.3220  1.0015 -0.0747
    6SAPS   H7R  714   6.493   6.433   5.728  1.8540 -1.1635 -2.2621
    6SAPS   H7S  715   6.615   6.485   5.618 -1.9671 -0.2622 -0.9942
    6SAPS   C28  716   6.439   6.616   5.640  0.3698  0.4119  0.5885
    6SAPS   H8R  717   6.360   6.636   5.715 -1.6015  0.1482 -1.3094
    6SAPS   C29  718   6.445   6.673   5.520 -0.6261 -0.8376  0.2052
    6SAPS   H9R  719   6.366   6.742   5.489  1.3203  2.4686  2.0201
    6SAPS  C210  720   6.556   6.666   5.419 -0.3173 -0.1757  0.7560
    6SAPS  H10R  721   6.649   6.671   5.479  0.2238  0.5363 -0.1098
    6SAPS  H10S  722   6.556   6.764   5.365 -1.4512 -0.0036  1.0326
    6SAPS  C211  723   6.564   6.548   5.327 -0.0891  0.8362 -0.2666
    6SAPS  H11R  724   6.542   6.447   5.365  0.1520  0.4955 -1.0109
    6SAPS  C212  725   6.600   6.554   5.196 -0.3551 -0.0847 -0.1259
    6SAPS  H12R  726   6.590   6.470   5.126  1.0800 -0.5756  0.2361
    6SAPS  C213  727   6.632   6.676   5.123 -0.3824  0.0364 -0.4645
    6SAPS  H13R  728   6.545   6.741   5.145 -0.5253 -0.7903  1.5477
    6SAPS  H13S  729   6.633   6.658   5.013  0.6486 -0.1159 -0.4360
    6SAPS  C214  730   6.762   6.754   5.150 -0.2871 -0.1891 -0.3506
    6SAPS  H14R  731   6.852   6.704   5.189 -1.0607 -2.4043 -1.2727
    6SAPS  C215  732   6.772   6.886   5.129  0.4252 -0.7984  0.0966
    6SAPS  H15R  733   6.870   6.931   5.152  0.1578 -0.2983  0.2846
    6SAPS  C216  734   6.677   6.978   5.055 -0.0171  0.6653  0.0457
    6SAPS  H16R  735   6.662   7.069   5.118 -1.3092 -0.5483  1.5672
    6SAPS  H16S  736   6.574   6.937   5.048 -0.1686  0.8495  1.0113
    6SAPS  C217  737   6.732   7.013   4.918 -0.8894  0.3946  0.4011
    6SAPS  H17R  738   6.735   6.917   4.861 -1.1252  0.6173  0.0112
    6SAPS  H17S  739   6.835   7.055   4.913 -0.1705 -1.3482 -0.3457
    6SAPS  C218  740   6.636   7.111   4.853  0.5195 -0.3503 -0.2682
    6SAPS  H18R  741   6.642   7.191   4.930  1.8415  0.5280 -1.2324
    6SAPS  H18S  742   6.531   7.076   4.849  0.4306 -0.1824  0.4283
    6SAPS  C219  743   6.680   7.162   4.716 -0.3826 -0.2147  0.2290
    6SAPS  H19R  744   6.648   7.089   4.639  0.7128  0.5121 -0.9477
    6SAPS  H19S  745   6.790   7.170   4.727 -0.2867 -1.4422  0.2577
    6SAPS  C220  746   6.618   7.303   4.680  0.2297 -0.1077  0.9029
    6SAPS  H20R  747   6.666   7.379   4.746  2.4248  0.1615 -0.8759
    6SAPS  H20S  748   6.507   7.300   4.685  0.2771  0.0493  2.4476
    6SAPS  H20T  749   6.636   7.334   4.575  0.8543 -1.7171  0.5154
    6SAPS   C33  750   6.631   6.036   5.890  0.3504  0.2334 -0.0316
    6SAPS   H3X  751   6.528   6.042   5.849  0.3955 -0.8699 -0.3589
    6SAPS   H3Y  752   6.678   5.937   5.870 -0.4105  0.1714 -1.6765
    6SAPS   C34  753   6.712   6.140   5.814 -0.0028  0.3119  0.1433
    6SAPS   H4X  754   6.814   6.126   5.858  0.1002 -0.2473 -0.2670
    6SAPS   H4Y  755   6.675   6.244   5.827 -0.8639  0.0558 -0.2049
    6SAPS   C35  756   6.701   6.092   5.670 -0.0487  1.1021  0.2272
    6SAPS   H5X  757   6.601   6.101   5.622 -0.4578  0.7911  0.9977
    6SAPS   H5Y  758   6.707   5.982   5.659  0.6839  1.3709 -3.1816
    6SAPS   C36  759   6.799   6.160   5.568  0.9161  0.0064 -0.4913
    6SAPS   H6X  760   6.904   6.164   5.603  1.4056  5.9169 -1.5697
    6SAPS   H6Y  761   6.770   6.267   5.565  1.9270  0.2867 -0.8134
    6SAPS   C37  762   6.782   6.107   5.427  0.0577  0.7949  0.1098
    6SAPS   H7X  763   6.804   5.999   5.432 -3.4095  0.0314  1.0920
    6SAPS   H7Y  764   6.857   6.155   5.360  0.7443 -0.5290 -0.0950
    6SAPS   C38  765   6.646   6.133   5.364 -0.5234  0.7504  0.2035
    6SAPS   H8X  766   6.621   6.241   5.362 -2.0965  0.3958 -0.5636
    6SAPS   H8Y  767   6.570   6.075   5.421  2.4885 -1.2486  2.5449
    6SAPS   C39  768   6.624   6.080   5.219 -0.0741 -0.8219  0.0337
    6SAPS   H9X  769   6.523   6.106   5.180 -0.1159 -0.3993  0.4103
    6SAPS   H9Y  770   6.631   5.970   5.212  0.8413 -0.9297  1.9924
    6SAPS  C310  771   6.731   6.129   5.114  0.5764 -0.7698 -0.4467
    6SAPS  H10X  772   6.834   6.107   5.148  1.3704  2.2346 -0.5854
    6SAPS  H10Y  773   6.714   6.238   5.105 -1.8721 -1.0198  0.3086
    6SAPS  C311  774   6.708   6.073   4.973 -0.3216 -0.3856  0.2284
    6SAPS  H11X  775   6.626   6.132   4.927 -0.8590 -2.2019 -1.2971
    6SAPS  H11Y  776   6.670   5.968   4.974 -0.3025 -0.4757 -2.1378
    6SAPS  C312  777   6.831   6.086   4.887 -0.4821  0.1114  0.9193
    6SAPS  H12X  778   6.905   6.004   4.893  1.1640  1.3277 -1.0545
    6SAPS  H12Y  779   6.893   6.173   4.919  1.8265 -1.1460  0.1445
    6SAPS  C313  780   6.791   6.106   4.740  0.4465  1.0928  0.4821
    6SAPS  H13X  781   6.714   6.181   4.713  0.0634  0.2057 -0.9835
    6SAPS  H13Y  782   6.743   6.009   4.713  1.4344  0.9484 -0.8453
    6SAPS  C314  783   6.923   6.134   4.661  0.1754  0.7576 -0.1415
    6SAPS  H14X  784   6.994   6.053   4.685  0.6829  0.3542 -2.7048
    6SAPS  H14Y  785   6.969   6.227   4.700 -0.3420  1.3472 -0.9001
    6SAPS  C315  786   6.912   6.138   4.506  0.4437  0.5829  0.0660
    6SAPS  H15X  787   6.829   6.067   4.483  0.2555  0.3045  1.4800
    6SAPS  H15Y  788   7.000   6.090   4.458 -0.8355 -1.5840 -0.2374
    6SAPS  C316  789   6.892   6.276   4.444  0.0366 -0.3992  0.0715
    6SAPS  H16X  790   6.806   6.331   4.488 -0.3409 -0.5066 -0.5166
    6SAPS  H16Y  791   6.872   6.268   4.335  2.0748 -0.2832 -0.3542
    6SAPS  C317  792   7.019   6.364   4.475  1.2434  0.1740  0.1625
    6SAPS  H17X  793   7.108   6.310   4.438  1.6322  0.9224 -0.0116
    6SAPS  H17Y  794   7.034   6.382   4.584  0.9403 -0.3899  0.2988
    6SAPS  C318  795   7.018   6.492   4.392 -0.0204 -0.2710  0.6280
    6SAPS  H18X  796   6.937   6.566   4.407  0.1087  0.3158 -1.3096
    6SAPS  H18Y  797   7.022   6.464   4.284  1.7857  0.3056  0.5230
    6SAPS  H18Z  798   7.109   6.550   4.415 -0.7752  1.4308 -0.4812
    7SAPS     N  799   0.599   0.922   6.896  0.3559 -0.0353 -0.0689
    7SAPS   HN1  800   0.590   0.987   6.977 -1.7032 -1.7486  1.1586
    7SAPS   HN2  801   0.700   0.899   6.890  0.1405 -0.8686 -0.6789
    7SAPS   HN3  802   0.575   0.968   6.806  0.7280 -0.5929 -0.4588
    7SAPS   C12  803   0.507   0.809   6.923 -0.0447 -0.1065 -0.2540
    7SAPS  H12A  804   0.539   0.763   7.015 -1.4304  0.0195  0.3228
    7SAPS   C13  805   0.357   0.839   6.961 -0.2538  0.1420  0.9510
    7SAPS  O13A  806   0.319   0.962   6.974 -0.0699  0.4321 -0.1339
    7SAPS  O13B  807   0.274   0.746   6.983 -0.3874  0.0073  0.1858
    7SAPS   C11  808   0.522   0.686   6.824 -0.8160 -0.4172  0.2260
    7SAPS  H11A  809   0.473   0.723   6.732  2.7108 -0.1831 -1.7436
    7SAPS  H11B  810   0.469   0.603   6.875  0.3606 -0.1554  1.9774
    7SAPS     P  811   0.696   0.576   6.668  0.0771 -0.2449 -0.0542
    7SAPS   O13  812   0.838   0.537   6.662 -0.4011  0.0078 -0.0646
    7SAPS   O14  813   0.604   0.457   6.650 -0.6024  0.4147  0.5045
    7SAPS   O12  814   0.663   0.647   6.802  0.0747 -0.4604 -0.0808
    7SAPS   O11  815   0.667   0.685   6.556 -0.4129  0.7333 -0.3072
    7SAPS    C1  816   0.570   0.665   6.446 -0.1211  0.5405 -0.0694
    7SAPS    HA  817   0.479   0.613   6.481  1.6921 -2.4202  0.6288
    7SAPS    HB  818   0.536   0.760   6.399 -2.8861  0.4035  1.4438
    7SAPS    C2  819   0.629   0.566   6.325 -0.6161 -0.1489 -0.3099
    7SAPS    HS  820   0.628   0.467   6.375 -0.2706 -0.8182 -1.5667
    7SAPS   O21  821   0.764   0.601   6.293 -0.2176 -0.4780  0.0783
    7SAPS   C21  822   0.833   0.495   6.249  0.7288 -0.1263 -0.2136
    7SAPS   O22  823   0.787   0.385   6.234 -0.1750  0.0973 -0.0835
    7SAPS   C22  824   0.968   0.542   6.214  0.5989 -0.1721 -0.3172
    7SAPS   H2R  825   0.940   0.634   6.158  2.1139  0.6502  0.2333
    7SAPS   H2S  826   1.019   0.568   6.309 -0.8480  0.3422  0.3511
    7SAPS    C3  827   0.527   0.557   6.202  0.5591  0.6067 -0.0589
    7SAPS    HX  828   0.523   0.657   6.154 -1.9892  0.6177  0.0460
    7SAPS    HY  829   0.427   0.525   6.239  0.6766 -1.0461 -1.0728
    7SAPS   O31  830   0.569   0.467   6.099  0.0873  0.1044 -0.2073
    7SAPS   C31  831   0.524   0.341   6.115 -0.3674  0.1042 -0.2501
    7SAPS   O32  832   0.443   0.311   6.205 -0.7023  0.2788 -0.8706
    7SAPS   C32  833   0.574   0.247   6.006  0.6557 -0.1696  0.2516
    7SAPS   H2X  834   0.670   0.200   6.036 -0.4255 -1.5616  1.6781
    7SAPS   H2Y  835   0.594   0.314   5.920 -0.6513  1.9733  1.5271
    7SAPS   C23  836   1.056   0.451   6.121  0.0105 -0.3453 -0.4143
    7SAPS   H3R  837   0.993   0.415   6.038 -0.1141  1.0392 -0.9434
    7SAPS   H3S  838   1.097   0.365   6.179  1.9227 -0.2308 -1.5094
    7SAPS   C24  839   1.163   0.531   6.064 -0.5589  0.0015 -0.0436
    7SAPS   H4R  840   1.213   0.596   6.139  0.6494  0.0138 -0.8360
    7SAPS   H4S  841   1.114   0.600   5.992  1.7430  1.1100 -0.6476
    7SAPS   C25  842   1.256   0.435   5.991 -0.1810 -0.1322  0.5072
    7SAPS   H5R  843   1.318   0.370   6.054  0.7136  0.5328  0.3323
    7SAPS   C26  844   1.299   0.435   5.863 -0.2254 -0.3402  0.3104
    7SAPS   H6R  845   1.375   0.359   5.837 -1.0456 -0.4092 -2.2248
    7SAPS   C27  846   1.259   0.526   5.745 -0.2102 -0.4763  0.0675
    7SAPS   H7R  847   1.168   0.473   5.708 -0.5784  0.5091 -0.4789
    7SAPS   H7S  848   1.341   0.518   5.671  1.4619 -1.2409  1.9184
    7SAPS   C28  849   1.222   0.672   5.759  0.0526 -0.2713  0.6697
    7SAPS   H8R  850   1.211   0.712   5.861  0.1080  1.0668  0.1716
    7SAPS   C29  851   1.214   0.762   5.654 -0.5858  0.0472 -0.6970
    7SAPS   H9R  852   1.177   0.861   5.684  0.8144  0.6521 -0.8991
    7SAPS  C210  853   1.224   0.746   5.507  0.2720 -0.0704 -0.2884
    7SAPS  H10R  854   1.263   0.644   5.489  2.6070  0.9050 -1.1918
    7SAPS  H10S  855   1.312   0.811   5.486  1.1846 -0.6399  1.5723
    7SAPS  C211  856   1.101   0.783   5.419  0.0905  0.3101  0.0341
    7SAPS  H11R  857   1.008   0.780   5.477  0.9445  0.2955  1.4504
    7SAPS  C212  858   1.108   0.808   5.290  0.2115  0.2570 -0.0297
    7SAPS  H12R  859   1.015   0.842   5.241  0.3197 -1.2066 -1.3262
    7SAPS  C213  860   1.227   0.811   5.196 -1.2508  0.2630  0.4863
    7SAPS  H13R  861   1.326   0.791   5.242 -1.1124 -3.6105 -1.1148
    7SAPS  H13S  862   1.229   0.909   5.143  0.3670  1.0710  1.9775
    7SAPS  C214  863   1.210   0.685   5.104 -0.0553  0.4871  0.7164
    7SAPS  H14R  864   1.239   0.587   5.143  1.8242 -0.5521 -2.9054
    7SAPS  C215  865   1.187   0.685   4.972 -0.1462  0.3518 -0.0368
    7SAPS  H15R  866   1.176   0.590   4.918  1.9011 -1.5261  2.5735
    7SAPS  C216  867   1.161   0.809   4.891  0.0681 -0.3351 -0.2507
    7SAPS  H16R  868   1.261   0.859   4.888  0.5579 -0.9286  3.1750
    7SAPS  H16S  869   1.100   0.890   4.937  3.0224  1.3899  0.9277
    7SAPS  C217  870   1.108   0.784   4.748  0.2205 -0.7102 -0.4256
    7SAPS  H17R  871   0.997   0.775   4.743  0.0396  0.8926 -0.0925
    7SAPS  H17S  872   1.158   0.694   4.709 -0.0089 -0.5557 -1.0929
    7SAPS  C218  873   1.159   0.890   4.649 -0.0707  0.3356 -0.0283
    7SAPS  H18R  874   1.130   0.850   4.550 -0.7704  1.2131 -0.1918
    7SAPS  H18S  875   1.270   0.894   4.653 -0.0853 -0.1773  1.5158
    7SAPS  C219  876   1.100   1.025   4.671  0.3459  0.4401  0.5709
    7SAPS  H19R  877   1.137   1.066   4.767 -0.6567  1.8096  0.4044
    7SAPS  H19S  878   0.990   1.012   4.678  0.2754  0.8209  0.2436
    7SAPS  C220  879   1.124   1.127   4.562  0.3567 -0.2503 -0.4552
    7SAPS  H20R  880   1.235   1.137   4.561  0.4434  0.1982  2.7193
    7SAPS  H20S  881   1.087   1.227   4.594  1.3286 -0.5338  1.7631
    7SAPS  H20T  882   1.096   1.079   4.466 -2.1755 -1.6348  0.8663
    7SAPS   C33  883   0.466   0.140   5.968  0.1141  0.3901 -0.2923
    7SAPS   H3X  884   0.368   0.188   5.948 -0.6879 -2.1705 -3.0995
    7SAPS   H3Y  885   0.444   0.077   6.057 -0.8942  1.9992  0.6559
    7SAPS   C34  886   0.494   0.064   5.831 -0.1811 -0.0529 -0.1539
    7SAPS   H4X  887   0.395   0.019   5.806 -0.5550  1.0991 -0.8983
    7SAPS   H4Y  888   0.568  -0.016   5.850  0.1672  0.4743  0.7521
    7SAPS   C35  889   0.528   0.153   5.713 -0.0531 -0.1825  0.0010
    7SAPS   H5X  890   0.636   0.177   5.718  0.2327 -1.2641 -0.6172
    7SAPS   H5Y  891   0.465   0.242   5.733  0.0410 -0.1007 -0.0665
    7SAPS   C36  892   0.488   0.086   5.577 -1.0546 -0.1237  0.5089
    7SAPS   H6X  893   0.383   0.052   5.582 -0.6780 -1.3212  0.4985
    7SAPS   H6Y  894   0.549  -0.004   5.552 -0.4993  0.7706 -1.5909
    7SAPS   C37  895   0.493   0.178   5.456 -0.2567  0.2554  0.6275
    7SAPS   H7X  896   0.597   0.206   5.429 -0.4694 -0.5474 -1.1419
    7SAPS   H7Y  897   0.442   0.266   5.502 -0.9653  0.7944 -1.1149
    7SAPS   C38  898   0.422   0.119   5.331  1.0194  0.1621  0.2673
    7SAPS   H8X  899   0.321   0.092   5.369  1.3546 -0.2705  0.8631
    7SAPS   H8Y  900   0.480   0.029   5.302  1.1070  0.3846 -0.2620
    7SAPS   C39  901   0.406   0.215   5.214 -0.1584  0.2626  0.3581
    7SAPS   H9X  902   0.505   0.246   5.175 -1.1159  2.2772 -0.5839
    7SAPS   H9Y  903   0.353   0.303   5.257  1.6948  1.1917  0.8555
    7SAPS  C310  904   0.329   0.145   5.093  0.8275 -0.4826  0.0209
    7SAPS  H10X  905   0.238   0.099   5.137 -0.7677  0.7123 -1.8718
    7SAPS  H10Y  906   0.383   0.060   5.046 -1.7886 -1.1690 -1.9586
    7SAPS  C311  907   0.296   0.251   4.988  0.3758 -0.8854  0.0431
    7SAPS  H11X  908   0.218   0.321   5.025  0.5676 -1.0498  0.7803
    7SAPS  H11Y  909   0.235   0.201   4.910 -0.1480  0.6236 -0.5386
    7SAPS  C312  910   0.411   0.326   4.913  0.2988 -0.3953  0.0142
    7SAPS  H12X  911   0.492   0.250   4.907  0.4311 -0.3669  1.1702
    7SAPS  H12Y  912   0.445   0.418   4.965  3.3991 -2.0613  1.1734
    7SAPS  C313  913   0.376   0.363   4.766  0.4351 -0.2407  0.7484
    7SAPS  H13X  914   0.455   0.436   4.738 -1.0970  1.8792  1.6982
    7SAPS  H13Y  915   0.281   0.421   4.770  1.8634  2.1653  2.1288
    7SAPS  C314  916   0.381   0.239   4.677 -0.4356  0.2404  0.5486
    7SAPS  H14X  917   0.302   0.171   4.716 -0.7338  1.0953  1.4641
    7SAPS  H14Y  918   0.479   0.188   4.682 -0.7362 -0.4790 -0.5064
    7SAPS  C315  919   0.359   0.276   4.527  0.4835  0.6051  0.0309
    7SAPS  H15X  920   0.351   0.187   4.462  1.1632  0.9289 -0.5038
    7SAPS  H15Y  921   0.453   0.328   4.499  0.4741  0.5943 -0.0209
    7SAPS  C316  922   0.239   0.376   4.520 -0.2780  1.0507 -0.4784
    7SAPS  H16X  923   0.272   0.478   4.550 -0.1577  0.9484 -0.2638
    7SAPS  H16Y  924   0.169   0.342   4.599  0.5066  0.7383  0.1003
    7SAPS  C317  925   0.165   0.384   4.388 -0.0211  0.7062  0.2581
    7SAPS  H17X  926   0.086   0.460   4.406  0.1072  1.0944 -0.7969
    7SAPS  H17Y  927   0.123   0.282   4.374  1.4378 -0.3590  2.8324
    7SAPS  C318  928   0.264   0.411   4.270  0.3847  0.7239 -0.1261
    7SAPS  H18X  929   0.294   0.518   4.270 -1.0489  1.1514 -0.4930
    7SAPS  H18Y  930   0.209   0.399   4.174 -0.2737  1.1748  0.1892
    7SAPS  H18Z  931   0.352   0.343   4.271  1.2917  1.8183 -1.1775
    8SAPS     N  932   0.253   1.059   6.724  0.0493 -0.3853 -0.1248
    8SAPS   HN1  933   0.172   1.123   6.713  0.6706  0.2709 -1.0304
    8SAPS   HN2  934   0.272   1.052   6.826  1.0376  0.2083 -0.2496
    8SAPS   HN3  935   0.330   1.117   6.684 -0.6976  1.9701  1.6237
    8SAPS   C12  936   0.224   0.940   6.642 -0.6090  0.7297 -0.6571
    8SAPS  H12A  937   0.298   0.864   6.662  0.0039  1.4896  0.0189
    8SAPS   C13  938   0.084   0.875   6.673  0.0894  0.1203 -0.7112
    8SAPS  O13A  939   0.015   0.933   6.765 -0.8209  0.3743 -0.3327
    8SAPS  O13B  940   0.054   0.761   6.630  0.1646 -0.2006 -0.1234
    8SAPS   C11  941   0.233   0.976   6.487  1.1081 -0.9320 -0.4923
    8SAPS  H11A  942   0.158   1.055   6.466  2.6181  1.0025  0.8953
    8SAPS  H11B  943   0.207   0.887   6.426 -1.6038 -0.2833 -0.3978
    8SAPS     P  944   0.382   1.119   6.329  0.4291  0.1222 -0.2366
    8SAPS   O13  945   0.303   1.238   6.366 -0.1429  0.2445  0.6213
    8SAPS   O14  946   0.526   1.139   6.298 -0.1006  0.0107  0.1390
    8SAPS   O12  947   0.365   1.015   6.445  0.6224 -0.2751 -0.0379
    8SAPS   O11  948   0.312   1.048   6.203  0.1798 -0.0549 -0.3809
    8SAPS    C1  949   0.380   0.959   6.117 -0.4982  0.3776  0.2499
    8SAPS    HA  950   0.460   0.898   6.165  0.4473  0.5978 -0.9969
    8SAPS    HB  951   0.304   0.898   6.065  0.7775 -0.1932 -1.0194
    8SAPS    C2  952   0.453   1.035   5.996  0.1918 -0.0805  0.3571
    8SAPS    HS  953   0.527   1.105   6.040  0.7561 -0.0717 -0.5718
    8SAPS   O21  954   0.354   1.109   5.921 -0.3572  0.1314  0.0680
    8SAPS   C21  955   0.348   1.241   5.946 -0.2580  0.1926 -0.5830
    8SAPS   O22  956   0.425   1.306   6.012 -0.4837  0.3273 -0.2963
    8SAPS   C22  957   0.227   1.311   5.894  0.6655  0.1261 -0.2706
    8SAPS   H2R  958   0.151   1.242   5.852  1.2795 -0.8379  0.1635
    8SAPS   H2S  959   0.175   1.351   5.984  1.4474  0.0193  0.2348
    8SAPS    C3  960   0.523   0.953   5.888 -0.0932  0.0525  0.7812
    8SAPS    HX  961   0.566   1.021   5.813  1.1626 -3.2376 -1.7294
    8SAPS    HY  962   0.447   0.889   5.838  0.8962 -0.2713 -0.3505
    8SAPS   O31  963   0.616   0.855   5.942  0.1189 -0.5669  0.5937
    8SAPS   C31  964   0.720   0.821   5.857 -0.4085  0.0733  0.3776
    8SAPS   O32  965   0.739   0.876   5.750  0.2886 -0.1425  0.9410
    8SAPS   C32  966   0.814   0.722   5.918  0.1650 -0.8108  0.3599
    8SAPS   H2X  967   0.759   0.668   5.998 -2.6795  2.6650  0.9687
    8SAPS   H2Y  968   0.878   0.784   5.984 -1.5623  2.3919 -0.7453
    8SAPS   C23  969   0.258   1.429   5.799  0.5226  0.3883 -1.3257
    8SAPS   H3R  970   0.325   1.506   5.843 -1.5061  1.1403  0.6601
    8SAPS   H3S  971   0.165   1.489   5.783  1.5011  2.0751 -0.9106
    8SAPS   C24  972   0.283   1.377   5.655 -0.0198 -0.4443 -0.3181
    8SAPS   H4R  973   0.359   1.298   5.671  0.3095 -0.0377  0.1405
    8SAPS   H4S  974   0.315   1.463   5.593 -1.3380  0.1859 -0.1701
    8SAPS   C25  975   0.160   1.318   5.583 -0.4621  0.4811 -0.0362
    8SAPS   H5R  976   0.071   1.382   5.572 -0.7947  0.1583  0.7161
    8SAPS   C26  977   0.159   1.200   5.522 -0.0986 -0.0082 -0.3147
    8SAPS   H6R  978   0.065   1.169   5.474  0.8619 -1.8972 -1.1026
    8SAPS   C27  979   0.271   1.099   5.521  1.1369 -0.2746  0.1932
    8SAPS   H7R  980   0.210   1.010   5.492  0.0408  0.2829  0.7263
    8SAPS   H7S  981   0.307   1.081   5.624  1.8960  1.4365  0.2724
    8SAPS   C28  982   0.396   1.104   5.433  0.1511  0.0079  0.3152
    8SAPS   H8R  983   0.491   1.077   5.481 -0.5415  0.0431  1.7694
    8SAPS   C29  984   0.416   1.139   5.303 -0.4354  0.3884 -0.7140
    8SAPS   H9R  985   0.521   1.144   5.269 -0.1631 -1.5076 -0.2891
    8SAPS  C210  986   0.317   1.191   5.204 -0.0482  0.1099  0.7273
    8SAPS  H10R  987   0.363   1.283   5.162 -0.8146  0.6094  0.9598
    8SAPS  H10S  988   0.224   1.216   5.259  0.3879  1.0971  1.0352
    8SAPS  C211  989   0.292   1.092   5.096 -0.1605 -0.5586  0.9775
    8SAPS  H11R  990   0.281   0.989   5.133 -2.0556  0.1837  2.6945
    8SAPS  C212  991   0.290   1.105   4.959 -0.9301  0.0462 -0.2012
    8SAPS  H12R  992   0.268   1.017   4.896  1.3608 -0.1633 -0.8060
    8SAPS  C213  993   0.304   1.234   4.880  0.3039 -0.5482 -0.4817
    8SAPS  H13R  994   0.383   1.214   4.805 -0.6130 -0.9163 -1.3679
    8SAPS  H13S  995   0.346   1.318   4.940 -0.9060 -0.7441  0.6898
    8SAPS  C214  996   0.169   1.278   4.823  0.0266  1.0405  0.4837
    8SAPS  H14R  997   0.095   1.297   4.902  0.0747  0.5402  0.6529
    8SAPS  C215  998   0.135   1.293   4.693 -0.0626  0.2270  0.4011
    8SAPS  H15R  999   0.037   1.329   4.659  0.0227  0.7525  0.6913
    8SAPS  C216 1000   0.231   1.256   4.574 -0.3766 -0.5967  0.5484
    8SAPS  H16R 1001   0.177   1.251   4.477 -0.0552  1.0937  0.2620
    8SAPS  H16S 1002   0.285   1.163   4.603  1.7702  0.4893  0.2104
    8SAPS  C217 1003   0.345   1.352   4.545 -0.1952  0.2073  0.4527
    8SAPS  H17R 1004   0.382   1.310   4.448 -2.0400  0.0573 -0.2230
    8SAPS  H17S 1005   0.428   1.344   4.618  0.6599  0.8668 -0.4175
    8SAPS  C218 1006   0.289   1.493   4.513  0.1439 -0.1620 -0.1617
    8SAPS  H18R 1007   0.237   1.538   4.601 -0.7408  0.3123 -0.9141
    8SAPS  H18S 1008   0.211   1.477   4.435  0.0846  0.0609 -0.1494
    8SAPS  C219 1009   0.401   1.595   4.470  0.0430 -0.1172  0.1140
    8SAPS  H19R 1010   0.434   1.542   4.378  0.3239 -2.8507  1.6725
    8SAPS  H19S 1011   0.491   1.586   4.535  0.6352  0.9288 -0.5407
    8SAPS  C220 1012   0.346   1.738   4.444  0.0989  0.8083  0.4200
    8SAPS  H20R 1013   0.420   1.797   4.387  0.7093  0.3865  0.7674
    8SAPS  H20S 1014   0.345   1.786   4.544 -0.3020  0.6567  0.4932
    8SAPS  H20T 1015   0.243   1.732   4.402 -0.1145  0.4316  0.9865
    8SAPS   C33 1016   0.874   0.625   5.813  0.4437  0.1018  0.3417
    8SAPS   H3X 1017   0.969   0.583   5.852 -0.4582 -1.0815  1.3238
    8SAPS   H3Y 1018   0.896   0.687   5.723  0.8045 -0.8962 -0.2717
    8SAPS   C34 1019   0.782   0.506   5.786 -0.0614 -0.0747  0.7133
    8SAPS   H4X 1020   0.714   0.532   5.702  1.3870 -0.2545 -0.5560
    8SAPS   H4Y 1021   0.719   0.489   5.876  0.6227 -1.5760  0.9344
    8SAPS   C35 1022   0.860   0.378   5.752  1.1052  0.1615 -1.0945
    8SAPS   H5X 1023   0.795   0.289   5.769  1.4240  0.4830  2.6912
    8SAPS   H5Y 1024   0.947   0.367   5.820  0.2378  1.0267  0.1842
    8SAPS   C36 1025   0.929   0.386   5.620 -0.8561 -0.4400  0.1714
    8SAPS   H6X 1026   1.025   0.333   5.605  0.6282  2.3928 -1.2007
    8SAPS   H6Y 1027   0.959   0.490   5.593 -2.1626 -0.4747 -1.5869
    8SAPS   C37 1028   0.846   0.339   5.497 -0.6495 -0.1396 -0.3970
    8SAPS   H7X 1029   0.749   0.394   5.499 -0.4735  0.2152  2.2022
    8SAPS   H7Y 1030   0.826   0.230   5.503 -0.5165 -0.1007  1.1052
    8SAPS   C38 1031   0.931   0.374   5.372  0.3852  0.1577  0.0745
    8SAPS   H8X 1032   1.035   0.336   5.379  0.0032 -1.3556 -1.8508
    8SAPS   H8Y 1033   0.931   0.485   5.363 -0.7439  0.2447  0.7749
    8SAPS   C39 1034   0.866   0.314   5.246 -0.5432  0.0591 -0.1600
    8SAPS   H9X 1035   0.758   0.336   5.241 -0.2024  1.8075 -0.4670
    8SAPS   H9Y 1036   0.895   0.207   5.257 -0.0059  0.3630  1.8793
    8SAPS  C310 1037   0.917   0.374   5.110 -0.0719  0.7217 -0.1191
    8SAPS  H10X 1038   1.027   0.386   5.122  0.0132  1.1170 -1.1535
    8SAPS  H10Y 1039   0.869   0.474   5.102 -3.0333 -0.6352 -0.5611
    8SAPS  C311 1040   0.892   0.268   4.998 -0.6524 -0.0070  0.4485
    8SAPS  H11X 1041   0.783   0.247   4.996 -0.8263  0.8663 -0.0216
    8SAPS  H11Y 1042   0.957   0.181   5.021  0.7575  0.2320 -2.2283
    8SAPS  C312 1043   0.943   0.320   4.854 -0.3593  0.5163 -0.4459
    8SAPS  H12X 1044   0.940   0.247   4.771  0.4344 -1.4741  1.1957
    8SAPS  H12Y 1045   1.049   0.352   4.864 -0.6842  1.1375  1.4487
    8SAPS  C313 1046   0.866   0.444   4.799  1.5207  0.1107  0.7405
    8SAPS  H13X 1047   0.893   0.520   4.876 -0.6217  0.7509  0.9256
    8SAPS  H13Y 1048   0.758   0.420   4.810  1.1625  0.6882 -1.2669
    8SAPS  C314 1049   0.902   0.472   4.654  0.0227  0.3746  0.0020
    8SAPS  H14X 1050   0.878   0.393   4.580 -0.3012  1.3710 -0.9783
    8SAPS  H14Y 1051   1.012   0.489   4.656  0.3015 -1.3538  1.0300
    8SAPS  C315 1052   0.831   0.603   4.601  0.4978 -0.1189 -0.3060
    8SAPS  H15X 1053   0.831   0.689   4.672  0.2289  1.4525 -2.1374
    8SAPS  H15Y 1054   0.722   0.587   4.588  0.5474  0.7248 -1.9826
    8SAPS  C316 1055   0.882   0.656   4.470 -0.3805  0.0457  0.1366
    8SAPS  H16X 1056   0.856   0.578   4.394 -0.7985 -1.7706  2.0603
    8SAPS  H16Y 1057   0.991   0.669   4.484 -0.3678  2.0241 -1.2851
    8SAPS  C317 1058   0.817   0.790   4.424 -0.2730 -0.2354 -0.3641
    8SAPS  H17X 1059   0.876   0.828   4.338 -0.8661  2.4289  0.3084
    8SAPS  H17Y 1060   0.821   0.871   4.501 -0.5779  0.7724 -1.3795
    8SAPS  C318 1061   0.677   0.776   4.369  0.0749  0.4057 -0.0063
    8SAPS  H18X 1062   0.693   0.721   4.274  1.9353  1.0935 -0.1234
    8SAPS  H18Y 1063   0.638   0.873   4.333  0.9646  0.4361 -0.9250
    8SAPS  H18Z 1064   0.597   0.720   4.423 -0.7324  1.7868  0.2807
    9SAPS     N 1065   6.028   5.792   6.669  0.8426 -0.4247 -0.2997
    9SAPS   HN1 1066   5.996   5.756   6.576 -0.0014  1.0146 -0.6111
    9SAPS   HN2 1067   5.939   5.812   6.720  0.7526 -0.9574 -0.2497
    9SAPS   HN3 1068   6.079   5.882   6.656  1.0871 -0.6743 -1.1570
    9SAPS   C12 1069   6.122   5.689   6.733 -0.1614 -0.3744 -0.1510
    9SAPS  H12A 1070   6.213   5.691   6.675 -0.1510 -0.6327 -0.1470
    9SAPS   C13 1071   6.162   5.721   6.883  0.4926  0.3082  0.7623
    9SAPS  O13A 1072   6.122   5.825   6.936  0.2469 -0.1220  0.5508
    9SAPS  O13B 1073   6.252   5.653   6.945 -0.2903  0.3960 -0.4250
    9SAPS   C11 1074   6.055   5.545   6.723 -0.9950 -0.4694  0.1293
    9SAPS  H11A 1075   5.960   5.559   6.779 -0.8207 -1.2432  0.6247
    9SAPS  H11B 1076   6.103   5.473   6.792  1.1303 -0.5397 -1.3446
    9SAPS     P 1077   6.111   5.385   6.536 -0.2809  0.0536  0.2525
    9SAPS   O13 1078   6.106   5.282   6.641  0.1652  0.2026  0.6942
    9SAPS   O14 1079   6.058   5.345   6.401  0.2431  0.1167 -0.0519
    9SAPS   O12 1080   6.030   5.506   6.586  0.1427 -0.1710  0.3118
    9SAPS   O11 1081   6.256   5.446   6.515  0.1806  0.4907  0.9286
    9SAPS    C1 1082   6.387   5.409   6.544 -0.3802 -0.0800  0.4939
    9SAPS    HA 1083   6.435   5.502   6.581  3.0703 -1.6200  0.2350
    9SAPS    HB 1084   6.388   5.324   6.616 -0.0545  1.4677  2.4040
    9SAPS    C2 1085   6.483   5.361   6.421  0.3793  0.5800  0.2766
    9SAPS    HS 1086   6.588   5.378   6.452  0.2962  2.5523 -0.3591
    9SAPS   O21 1087   6.444   5.440   6.307  0.0115 -0.2207 -0.7155
    9SAPS   C21 1088   6.532   5.536   6.278 -0.6670 -0.7479 -1.1971
    9SAPS   O22 1089   6.621   5.581   6.354 -0.0072 -0.1078  0.3113
    9SAPS   C22 1090   6.532   5.579   6.132 -0.0299 -0.0440 -0.1006
    9SAPS   H2R 1091   6.449   5.652   6.121 -0.8318 -0.4392  2.7333
    9SAPS   H2S 1092   6.630   5.632   6.128 -2.1660  4.2235 -0.9043
    9SAPS    C3 1093   6.473   5.213   6.379 -0.3322  0.5341 -0.0176
    9SAPS    HX 1094   6.363   5.200   6.393 -0.3200 -0.4012 -0.6809
    9SAPS    HY 1095   6.518   5.143   6.452  0.8863  0.4809 -0.8001
    9SAPS   O31 1096   6.521   5.188   6.249 -0.5481  0.5373  0.2054
    9SAPS   C31 1097   6.497   5.064   6.212  0.8660  0.0177 -0.3589
    9SAPS   O32 1098   6.414   4.991   6.266  0.2009 -0.1129 -0.0252
    9SAPS   C32 1099   6.548   5.035   6.074  0.4993 -1.0343 -0.6923
    9SAPS   H2X 1100   6.659   5.045   6.073  0.4113  0.5225  0.7101
    9SAPS   H2Y 1101   6.512   5.115   6.006  0.2469  0.2016  0.8510
    9SAPS   C23 1102   6.529   5.464   6.035  0.2877  0.1679  0.1363
    9SAPS   H3R 1103   6.438   5.401   6.046 -0.6009  1.4262  0.3161
    9SAPS   H3S 1104   6.612   5.393   6.050  0.8920  0.6971 -0.5906
    9SAPS   C24 1105   6.517   5.508   5.886  0.0769  0.1371  0.0535
    9SAPS   H4R 1106   6.620   5.549   5.876 -0.6422  1.9811 -0.1147
    9SAPS   H4S 1107   6.452   5.593   5.856  2.4084  2.3435  0.8387
    9SAPS   C25 1108   6.494   5.393   5.797 -0.1345  0.1008 -0.2875
    9SAPS   H5R 1109   6.421   5.318   5.832 -0.1702 -0.1214 -0.8218
    9SAPS   C26 1110   6.565   5.361   5.686 -0.2497 -0.5199 -0.1711
    9SAPS   H6R 1111   6.519   5.279   5.630 -1.6536  0.2352 -0.1686
    9SAPS   C27 1112   6.677   5.443   5.627  0.5441 -0.7173 -0.1672
    9SAPS   H7R 1113   6.774   5.439   5.683  0.6861  0.1651 -0.3492
    9SAPS   H7S 1114   6.651   5.550   5.632  0.3781 -0.5232 -3.4505
    9SAPS   C28 1115   6.696   5.393   5.486 -0.7539  0.2374  0.7667
    9SAPS   H8R 1116   6.745   5.295   5.480  0.8141  1.0017  0.5423
    9SAPS   C29 1117   6.688   5.468   5.372  0.3259 -0.1439 -1.2543
    9SAPS   H9R 1118   6.721   5.431   5.274 -1.1713  1.4766 -2.4235
    9SAPS  C210 1119   6.640   5.611   5.369  1.2192  0.5055 -0.5379
    9SAPS  H10R 1120   6.653   5.662   5.467  0.1861  1.1786 -0.7323
    9SAPS  H10S 1121   6.530   5.610   5.353  1.3446 -0.5715 -1.4760
    9SAPS  C211 1122   6.706   5.692   5.259  0.4673  0.1270  0.1755
    9SAPS  H11R 1123   6.809   5.723   5.282  0.3933  0.8751 -0.4738
    9SAPS  C212 1124   6.664   5.718   5.133  0.1078  0.2856 -0.4019
    9SAPS  H12R 1125   6.730   5.779   5.069 -0.4811  1.0991 -0.2528
    9SAPS  C213 1126   6.527   5.671   5.086 -0.5048  0.1894  0.0482
    9SAPS  H13R 1127   6.468   5.599   5.147 -0.8870 -2.8133 -3.4796
    9SAPS  H13S 1128   6.554   5.608   4.999  1.2558 -0.1384  0.7947
    9SAPS  C214 1129   6.433   5.786   5.056 -0.3648 -0.5077 -0.3122
    9SAPS  H14R 1130   6.374   5.825   5.139 -0.5380 -0.5104 -0.4339
    9SAPS  C215 1131   6.412   5.846   4.938  0.0352  0.3486  0.5317
    9SAPS  H15R 1132   6.349   5.936   4.941 -0.3768  0.0661  0.4504
    9SAPS  C216 1133   6.468   5.800   4.804 -0.0921  0.3955  0.2542
    9SAPS  H16R 1134   6.415   5.708   4.773  1.3735  0.6814 -3.5698
    9SAPS  H16S 1135   6.578   5.787   4.816  0.2530 -0.4302 -2.8927
    9SAPS  C217 1136   6.447   5.901   4.690 -0.3207  0.4170  0.1294
    9SAPS  H17R 1137   6.468   6.003   4.728  1.9870 -0.5381  1.6291
    9SAPS  H17S 1138   6.340   5.898   4.660 -0.5056 -1.5794  0.8303
    9SAPS  C218 1139   6.519   5.861   4.562  0.5328 -0.1408 -0.3091
    9SAPS  H18R 1140   6.512   5.751   4.545 -0.9720 -0.2446  0.7756
    9SAPS  H18S 1141   6.627   5.884   4.569  0.7643 -0.5598 -2.0454
    9SAPS  C219 1142   6.463   5.917   4.430 -0.4480  0.0839 -0.2919
    9SAPS  H19R 1143   6.473   6.027   4.442 -0.6066  0.1489 -0.7403
    9SAPS  H19S 1144   6.358   5.893   4.404  0.3145 -0.5914 -3.1020
    9SAPS  C220 1145   6.558   5.876   4.309  0.4366 -0.0444 -0.0143
    9SAPS  H20R 1146   6.552   5.767   4.290  0.1949  0.4191 -3.0994
    9SAPS  H20S 1147   6.664   5.899   4.335  0.7474  0.2588 -1.4621
    9SAPS  H20T 1148   6.517   5.916   4.213 -0.0039 -0.7506 -0.1236
    9SAPS   C33 1149   6.508   4.904   6.009  0.0688 -0.2897  0.4498
    9SAPS   H3X 1150   6.407   4.919   5.967  0.7542 -0.5378 -1.3879
    9SAPS   H3Y 1151   6.500   4.816   6.077  0.5047 -1.6108 -1.1397
    9SAPS   C34 1152   6.602   4.862   5.891  0.5197 -0.3805 -0.2747
    9SAPS   H4X 1153   6.599   4.751   5.883  0.0501 -0.4794  0.9791
    9SAPS   H4Y 1154   6.701   4.906   5.918 -0.5427  1.5024  0.7987
    9SAPS   C35 1155   6.560   4.926   5.754 -0.1057 -0.7600 -0.4649
    9SAPS   H5X 1156   6.587   5.034   5.755 -2.9195  0.0298 -1.1612
    9SAPS   H5Y 1157   6.450   4.923   5.741 -0.1256  0.5789 -0.7305
    9SAPS   C36 1158   6.622   4.878   5.621 -0.2541 -1.1675 -0.6075
    9SAPS   H6X 1159   6.582   4.776   5.600 -1.3750 -0.9097  0.2198
    9SAPS   H6Y 1160   6.733   4.875   5.630 -0.2650  0.3938  0.3523
    9SAPS   C37 1161   6.593   4.963   5.496  0.5627  0.1705  0.2791
    9SAPS   H7X 1162   6.628   5.065   5.525 -0.1088  1.0530 -1.8514
    9SAPS   H7Y 1163   6.485   4.976   5.474  0.2708 -3.4530 -0.9944
    9SAPS   C38 1164   6.659   4.906   5.373 -0.8427 -0.5922  0.2613
    9SAPS   H8X 1165   6.753   4.850   5.391  0.1201  1.0938  0.6447
    9SAPS   H8Y 1166   6.695   4.993   5.314 -1.1371  0.3455  1.4297
    9SAPS   C39 1167   6.571   4.823   5.284 -0.3293  0.7206  0.0983
    9SAPS   H9X 1168   6.467   4.856   5.302 -0.8991 -1.3702  0.8647
    9SAPS   H9Y 1169   6.585   4.720   5.323  1.9388  0.8538 -0.2201
    9SAPS  C310 1170   6.606   4.830   5.135 -0.5333  0.2295 -0.1019
    9SAPS  H10X 1171   6.603   4.940   5.118  1.3085  0.2128 -0.7865
    9SAPS  H10Y 1172   6.523   4.784   5.077 -0.3242 -0.2990  0.0156
    9SAPS  C311 1173   6.738   4.777   5.091  0.7491  0.4496  0.2282
    9SAPS  H11X 1174   6.758   4.677   5.134 -2.1684 -0.3065  0.0060
    9SAPS  H11Y 1175   6.816   4.839   5.140  0.5368 -0.4153  1.7067
    9SAPS  C312 1176   6.745   4.778   4.935 -0.1140 -0.1423  0.1125
    9SAPS  H12X 1177   6.848   4.761   4.898  0.1592  0.9841  0.3005
    9SAPS  H12Y 1178   6.714   4.882   4.909  1.7268  0.5103  0.3608
    9SAPS  C313 1179   6.645   4.686   4.862 -0.1623 -0.0007 -0.5735
    9SAPS  H13X 1180   6.539   4.714   4.880 -0.0662 -0.3048  0.5061
    9SAPS  H13Y 1181   6.662   4.577   4.872 -0.7330 -0.0444 -0.0482
    9SAPS  C314 1182   6.664   4.700   4.713 -0.2572 -0.0916 -0.0617
    9SAPS  H14X 1183   6.767   4.665   4.692 -0.6579 -1.1436 -0.3370
    9SAPS  H14Y 1184   6.661   4.809   4.689  0.1856 -0.3291 -1.2476
    9SAPS  C315 1185   6.568   4.610   4.636 -0.8763 -0.6653 -0.2204
    9SAPS  H15X 1186   6.469   4.659   4.623 -0.6201 -0.4343 -1.4377
    9SAPS  H15Y 1187   6.555   4.514   4.690  2.8040 -0.1885  1.8297
    9SAPS  C316 1188   6.618   4.576   4.491  0.0046  0.1808 -0.2287
    9SAPS  H16X 1189   6.612   4.669   4.430 -3.0795  0.4014  0.2657
    9SAPS  H16Y 1190   6.540   4.512   4.444  0.0197 -0.0257  0.0235
    9SAPS  C317 1191   6.751   4.501   4.480 -0.3011 -0.8311  0.0973
    9SAPS  H17X 1192   6.838   4.567   4.499 -1.1840 -0.2243  2.4011
    9SAPS  H17Y 1193   6.763   4.467   4.375 -1.5080  0.5310 -0.5151
    9SAPS  C318 1194   6.759   4.381   4.573  0.0043  0.1139  0.3295
    9SAPS  H18X 1195   6.852   4.323   4.558 -0.5012 -0.9222  1.0749
    9SAPS  H18Y 1196   6.671   4.314   4.566 -0.8532  1.0413  1.7672
    9SAPS  H18Z 1197   6.761   4.414   4.679 -0.9226  0.4400  0.2579
   10SAPS     N 1198   0.125   5.930   6.946  0.0313  0.1756 -0.5325
   10SAPS   HN1 1199   0.132   5.833   6.985  3.3078  0.7832  0.6732
   10SAPS   HN2 1200   0.113   5.998   7.024  1.0956  0.6549 -0.7805
   10SAPS   HN3 1201   0.044   5.928   6.881  0.3960 -1.3121 -0.9926
   10SAPS   C12 1202   0.245   5.963   6.867  0.1534  0.6858  0.4021
   10SAPS  H12A 1203   0.265   6.069   6.876  4.7180 -0.1555  3.3591
   10SAPS   C13 1204   0.376   5.896   6.918  0.0167  0.4736 -0.1328
   10SAPS  O13A 1205   0.366   5.816   7.018  0.3501  0.3584 -0.2824
   10SAPS  O13B 1206   0.480   5.904   6.853 -0.6803  0.3017 -0.2331
   10SAPS   C11 1207   0.218   5.911   6.726  0.2505 -0.5947 -0.2808
   10SAPS  H11A 1208   0.204   5.801   6.717 -0.7003 -0.6025  0.9902
   10SAPS  H11B 1209   0.306   5.936   6.665  0.5014  2.0555  1.0320
   10SAPS     P 1210   0.101   6.093   6.578  0.1989  0.2658  0.1358
   10SAPS   O13 1211  -0.024   6.095   6.497 -0.0163 -1.0707  0.0540
   10SAPS   O14 1212   0.135   6.217   6.653 -0.6345  0.1181 -0.1220
   10SAPS   O12 1213   0.094   5.963   6.680 -0.4061 -0.3825 -0.4082
   10SAPS   O11 1214   0.225   6.059   6.490  0.0192  0.1896  0.1881
   10SAPS    C1 1215   0.242   5.946   6.402 -0.3169  0.8560 -0.8224
   10SAPS    HA 1216   0.348   5.920   6.380 -0.7927 -0.1669 -2.0010
   10SAPS    HB 1217   0.207   5.855   6.455 -1.8715  1.7446 -0.2632
   10SAPS    C2 1218   0.163   5.977   6.269 -0.3070 -0.8460 -0.1057
   10SAPS    HS 1219   0.056   5.996   6.291  0.2266  1.0582  1.0928
   10SAPS   O21 1220   0.190   5.880   6.169  0.4318  0.4941 -0.4492
   10SAPS   C21 1221   0.122   5.766   6.188  0.0043  0.2303  1.1488
   10SAPS   O22 1222   0.045   5.749   6.280  0.1765 -0.0071 -0.0456
   10SAPS   C22 1223   0.142   5.672   6.067 -0.1164  0.2297 -0.2197
   10SAPS   H2R 1224   0.250   5.649   6.073 -0.3579 -0.4934  2.5256
   10SAPS   H2S 1225   0.088   5.580   6.098  0.3067  0.7582  2.2956
   10SAPS    C3 1226   0.212   6.121   6.219  0.8010 -0.5118 -0.4154
   10SAPS    HX 1227   0.316   6.134   6.256  0.0521  1.2150  1.2174
   10SAPS    HY 1228   0.142   6.196   6.262  1.3603 -0.6077  0.7102
   10SAPS   O31 1229   0.201   6.123   6.074 -0.4005  0.6439 -0.0467
   10SAPS   C31 1230   0.307   6.078   5.997  0.2178  0.4500  0.3930
   10SAPS   O32 1231   0.405   6.014   6.035 -0.4045 -0.1891  0.1395
   10SAPS   C32 1232   0.280   6.107   5.850  0.1083  0.2926  0.3711
   10SAPS   H2X 1233   0.195   6.173   5.824  0.4508 -0.4939 -3.4645
   10SAPS   H2Y 1234   0.259   6.008   5.804  1.5125  0.3009 -0.3642
   10SAPS   C23 1235   0.104   5.725   5.933  0.3677 -0.4794 -0.5734
   10SAPS   H3R 1236   0.154   5.821   5.911 -0.6015 -0.2600 -1.9118
   10SAPS   H3S 1237  -0.004   5.752   5.936 -0.0515 -1.8210 -2.0608
   10SAPS   C24 1238   0.136   5.638   5.808 -0.2593  0.2675 -0.1510
   10SAPS   H4R 1239   0.092   5.537   5.821 -0.4929  0.3360 -0.3911
   10SAPS   H4S 1240   0.247   5.630   5.800  0.0508  1.3944  2.2573
   10SAPS   C25 1241   0.083   5.692   5.673 -0.0053 -0.1107 -0.6330
   10SAPS   H5R 1242  -0.025   5.710   5.664  0.3579  1.9250 -1.3225
   10SAPS   C26 1243   0.145   5.717   5.566  0.0355 -0.6679  0.4391
   10SAPS   H6R 1244   0.072   5.760   5.496 -0.1499  3.4759  2.8308
   10SAPS   C27 1245   0.293   5.702   5.541 -0.0235  0.4266 -0.3392
   10SAPS   H7R 1246   0.358   5.719   5.629 -0.5063  0.0707  0.0913
   10SAPS   H7S 1247   0.334   5.782   5.475 -1.1562  2.6337  1.5351
   10SAPS   C28 1248   0.317   5.564   5.476 -0.1820 -0.0306 -0.2466
   10SAPS   H8R 1249   0.296   5.488   5.552  1.5170  1.7423  2.1287
   10SAPS   C29 1250   0.367   5.541   5.356  0.0906  0.1533  0.6532
   10SAPS   H9R 1251   0.373   5.437   5.321  0.4114  0.4923 -0.3245
   10SAPS  C210 1252   0.403   5.638   5.244 -0.2046 -0.6189  0.1824
   10SAPS  H10R 1253   0.340   5.726   5.266  1.6043  0.2311  2.3195
   10SAPS  H10S 1254   0.379   5.599   5.143 -1.1436  2.0064 -0.6718
   10SAPS  C211 1255   0.547   5.690   5.247  0.5277  0.1605  0.5858
   10SAPS  H11R 1256   0.565   5.768   5.323  0.3815  1.5605 -0.7693
   10SAPS  C212 1257   0.644   5.661   5.160 -0.5341 -0.0583  0.3208
   10SAPS  H12R 1258   0.744   5.700   5.185  0.5583 -3.5173  1.9475
   10SAPS  C213 1259   0.647   5.567   5.044 -0.6881  0.4195  0.0145
   10SAPS  H13R 1260   0.596   5.472   5.072  1.4660 -1.0709 -0.7975
   10SAPS  H13S 1261   0.748   5.533   5.012 -1.3921 -0.9261 -0.8835
   10SAPS  C214 1262   0.580   5.610   4.906 -0.2822  0.3364  0.4317
   10SAPS  H14R 1263   0.504   5.689   4.917 -1.1016 -0.7499  3.3645
   10SAPS  C215 1264   0.589   5.538   4.793  0.1214  0.3052  0.4194
   10SAPS  H15R 1265   0.533   5.569   4.704 -2.5326 -0.2975  1.7525
   10SAPS  C216 1266   0.670   5.413   4.783  0.5033  0.5506 -0.7521
   10SAPS  H16R 1267   0.617   5.333   4.727  0.6132 -0.5402  0.6528
   10SAPS  H16S 1268   0.700   5.361   4.877  0.0417 -2.3381 -2.0800
   10SAPS  C217 1269   0.804   5.447   4.720 -0.5436  0.3204 -0.2270
   10SAPS  H17R 1270   0.855   5.348   4.712 -1.3987 -0.1358 -0.1964
   10SAPS  H17S 1271   0.861   5.510   4.792 -2.5803 -0.1050  1.8698
   10SAPS  C218 1272   0.807   5.501   4.581  0.2210 -0.3292  0.5527
   10SAPS  H18R 1273   0.805   5.611   4.572  0.7274 -0.3963 -0.5760
   10SAPS  H18S 1274   0.713   5.470   4.529 -0.7725 -0.1773  2.1864
   10SAPS  C219 1275   0.936   5.459   4.504  0.0513 -0.1849 -0.0383
   10SAPS  H19R 1276   0.967   5.354   4.525  0.2888 -0.0307  0.3860
   10SAPS  H19S 1277   1.017   5.523   4.543  1.2101 -1.3323 -0.4864
   10SAPS  C220 1278   0.925   5.474   4.349 -0.0877  0.0670 -0.8766
   10SAPS  H20R 1279   0.840   5.419   4.303 -1.2473  0.9594  0.1015
   10SAPS  H20S 1280   1.022   5.450   4.302  0.7697 -0.7968  1.1998
   10SAPS  H20T 1281   0.891   5.578   4.327 -2.8811 -0.5696 -0.0348
   10SAPS   C33 1282   0.404   6.166   5.777 -0.0126  0.2351  0.7017
   10SAPS   H3X 1283   0.494   6.103   5.799  0.7790  0.2095 -2.2143
   10SAPS   H3Y 1284   0.424   6.261   5.830 -1.0601 -0.0988  1.7312
   10SAPS   C34 1285   0.393   6.207   5.627  0.3928  0.0048 -0.2232
   10SAPS   H4X 1286   0.455   6.293   5.593 -0.7097  0.4915 -1.0645
   10SAPS   H4Y 1287   0.292   6.252   5.617  0.1505 -0.6128 -0.6294
   10SAPS   C35 1288   0.417   6.096   5.521 -0.5108 -0.6154  0.1451
   10SAPS   H5X 1289   0.363   6.000   5.535 -2.4011  0.0560 -1.9756
   10SAPS   H5Y 1290   0.523   6.066   5.530 -1.4269 -4.0742  0.8480
   10SAPS   C36 1291   0.389   6.151   5.386  0.1728 -0.7978  0.3560
   10SAPS   H6X 1292   0.469   6.228   5.378 -1.2672  0.7552  0.3974
   10SAPS   H6Y 1293   0.292   6.204   5.387 -0.0619 -1.2232  0.9267
   10SAPS   C37 1294   0.404   6.044   5.272  1.0029  0.0120  0.3133
   10SAPS   H7X 1295   0.327   5.968   5.300  0.1816  0.4941 -0.5521
   10SAPS   H7Y 1296   0.508   6.011   5.289  0.6433 -1.8806 -0.8616
   10SAPS   C38 1297   0.362   6.100   5.129  0.1905  0.1106 -0.3457
   10SAPS   H8X 1298   0.427   6.186   5.104  1.8148 -0.7511  0.7826
   10SAPS   H8Y 1299   0.255   6.133   5.130 -0.2475 -1.2554  0.4330
   10SAPS   C39 1300   0.391   5.995   5.019 -0.2827 -0.0320  0.8561
   10SAPS   H9X 1301   0.327   5.904   5.015 -0.5468  0.1956 -0.6844
   10SAPS   H9Y 1302   0.495   5.961   5.042 -0.2994  0.4103  1.6350
   10SAPS  C310 1303   0.401   6.058   4.875  0.4300 -0.3355 -0.5098
   10SAPS  H10X 1304   0.309   6.117   4.853 -0.1378 -0.0446  2.2581
   10SAPS  H10Y 1305   0.399   5.974   4.801 -2.1041 -1.6967  0.9715
   10SAPS  C311 1306   0.530   6.139   4.845  0.4112  0.0777  0.4136
   10SAPS  H11X 1307   0.614   6.066   4.840 -0.2826 -0.7252  0.2156
   10SAPS  H11Y 1308   0.554   6.215   4.922  0.2700  1.2369 -0.6681
   10SAPS  C312 1309   0.517   6.215   4.713  0.6454 -0.2003 -0.2719
   10SAPS  H12X 1310   0.425   6.278   4.714  1.4689  1.1944 -2.6094
   10SAPS  H12Y 1311   0.513   6.153   4.621 -0.2567 -1.5875  0.6750
   10SAPS  C313 1312   0.630   6.316   4.691  0.1648  0.1168  0.3757
   10SAPS  H13X 1313   0.730   6.268   4.681  0.4667  0.3908  1.8640
   10SAPS  H13Y 1314   0.641   6.388   4.775 -0.1916 -0.5401  0.9974
   10SAPS  C314 1315   0.608   6.400   4.568 -0.2240  0.4835 -0.5571
   10SAPS  H14X 1316   0.541   6.338   4.503  0.4995  1.5128 -2.3658
   10SAPS  H14Y 1317   0.706   6.423   4.521  0.1690  0.4658  0.2436
   10SAPS  C315 1318   0.534   6.528   4.593 -0.0058  0.4207 -0.2797
   10SAPS  H15X 1319   0.436   6.519   4.645 -0.4088  0.4546 -1.0111
   10SAPS  H15Y 1320   0.503   6.575   4.497 -0.9056  0.1708 -0.1257
   10SAPS  C316 1321   0.614   6.637   4.663  0.1094 -0.5191  0.0878
   10SAPS  H16X 1322   0.721   6.614   4.642  0.1618 -0.6900  0.5211
   10SAPS  H16Y 1323   0.606   6.627   4.773 -1.5381 -1.1955 -0.0666
   10SAPS  C317 1324   0.571   6.784   4.629 -0.5660  0.0856 -0.0478
   10SAPS  H17X 1325   0.580   6.845   4.721 -0.9031  0.5163 -0.2945
   10SAPS  H17Y 1326   0.466   6.798   4.596 -0.0272  2.1576 -1.0909
   10SAPS  C318 1327   0.665   6.842   4.521 -0.3468 -0.1112  0.0452
   10SAPS  H18X 1328   0.657   6.779   4.430  0.6987 -1.6694  0.9825
   10SAPS  H18Y 1329   0.771   6.840   4.557 -0.8483  1.1177  1.7467
   10SAPS  H18Z 1330   0.642   6.950   4.503  1.1990  0.4505  1.1458
   11SAPS     N 1331   5.293   4.337   1.603  0.0888  0.1797  0.1450
   11SAPS   HN1 1332   5.351   4.251   1.595 -0.4650 -0.4080  1.9122
   11SAPS   HN2 1333   5.272   4.355   1.704 -1.4101 -0.2143 -0.0721
   11SAPS   HN3 1334   5.207   4.298   1.559 -0.0369 -1.8313  1.9811
   11SAPS   C12 1335   5.351   4.453   1.532  0.1113  0.2826 -0.6912
   11SAPS  H12A 1336   5.408   4.415   1.448  1.0371 -0.0445  0.0643
   11SAPS   C13 1337   5.237   4.554   1.488 -0.7270 -0.2805 -0.9175
   11SAPS  O13A 1338   5.117   4.525   1.508 -0.1471 -0.4113 -0.1258
   11SAPS  O13B 1339   5.278   4.672   1.452 -0.6109  0.7370  0.0648
   11SAPS   C11 1340   5.460   4.520   1.621  0.1748 -0.0570  0.7126
   11SAPS  H11A 1341   5.411   4.565   1.709 -1.7396  0.7795 -0.6987
   11SAPS  H11B 1342   5.492   4.610   1.565 -1.8250  1.8139  2.3899
   11SAPS     P 1343   5.707   4.447   1.569  0.0446 -0.1778 -0.0399
   11SAPS   O13 1344   5.736   4.317   1.515  0.0832 -0.1805  0.3014
   11SAPS   O14 1345   5.702   4.560   1.474  0.3900 -0.4956  0.1546
   11SAPS   O12 1346   5.569   4.431   1.652 -0.2059 -0.8418  0.5236
   11SAPS   O11 1347   5.805   4.481   1.682  0.1665  0.9006  0.1411
   11SAPS    C1 1348   5.772   4.583   1.775 -0.7281 -0.4671  0.1483
   11SAPS    HA 1349   5.864   4.646   1.775 -1.5619  0.8017  1.0043
   11SAPS    HB 1350   5.697   4.661   1.752  0.3989  0.0469 -2.0201
   11SAPS    C2 1351   5.746   4.521   1.915 -0.0942 -0.5510 -0.5620
   11SAPS    HS 1352   5.705   4.609   1.969  0.4933  0.3496 -1.5431
   11SAPS   O21 1353   5.862   4.474   1.981 -0.2304 -0.0122  0.1582
   11SAPS   C21 1354   5.942   4.554   2.052 -0.3713  0.1675 -0.2923
   11SAPS   O22 1355   5.931   4.671   2.077  0.0579 -0.4117  0.3190
   11SAPS   C22 1356   6.062   4.468   2.097 -0.0557 -0.4026  0.1614
   11SAPS   H2R 1357   6.010   4.378   2.136 -1.3376 -0.9203 -2.5383
   11SAPS   H2S 1358   6.115   4.431   2.007  0.0566 -1.4202  0.6341
   11SAPS    C3 1359   5.633   4.418   1.936 -0.5075 -0.0573 -0.2134
   11SAPS    HX 1360   5.638   4.336   1.861 -0.6308  0.7203 -1.0876
   11SAPS    HY 1361   5.538   4.473   1.921 -0.7784 -0.1360  1.0911
   11SAPS   O31 1362   5.642   4.355   2.070  0.2015 -0.1581 -0.1932
   11SAPS   C31 1363   5.528   4.287   2.094 -0.1747  0.2203 -1.1194
   11SAPS   O32 1364   5.427   4.289   2.020 -0.0113 -0.0097  0.5031
   11SAPS   C32 1365   5.541   4.213   2.230 -0.4024  0.1496  0.2029
   11SAPS   H2X 1366   5.552   4.104   2.211  1.8355  0.6129 -1.5709
   11SAPS   H2Y 1367   5.444   4.228   2.282 -0.3734 -0.8309  0.5454
   11SAPS   C23 1368   6.153   4.543   2.194 -0.4470  0.0816  0.0535
   11SAPS   H3R 1369   6.187   4.642   2.157  2.2098 -0.4798  0.7401
   11SAPS   H3S 1370   6.250   4.489   2.202 -0.0357  1.0672  3.3858
   11SAPS   C24 1371   6.092   4.557   2.332 -0.2124  0.0121 -0.2917
   11SAPS   H4R 1372   5.991   4.604   2.323 -0.0491  0.4994  0.3019
   11SAPS   H4S 1373   6.149   4.633   2.391 -0.1949 -1.4074  1.6224
   11SAPS   C25 1374   6.067   4.428   2.411  0.0714 -0.5214  0.6915
   11SAPS   H5R 1375   5.971   4.380   2.389  0.3131  0.1808 -2.3627
   11SAPS   C26 1376   6.153   4.371   2.495  0.7527  0.1490 -0.0959
   11SAPS   H6R 1377   6.119   4.272   2.528 -0.0786 -0.8026 -3.4891
   11SAPS   C27 1378   6.290   4.420   2.537 -0.5430 -0.3699 -0.2748
   11SAPS   H7R 1379   6.343   4.466   2.451 -0.2313  1.9383  1.0657
   11SAPS   H7S 1380   6.353   4.334   2.566 -0.1127  0.0729  0.1193
   11SAPS   C28 1381   6.279   4.520   2.654  0.0299 -0.6602 -0.2458
   11SAPS   H8R 1382   6.294   4.628   2.639  0.5712 -0.9492 -2.0328
   11SAPS   C29 1383   6.266   4.479   2.783  0.7141 -0.6637  0.3194
   11SAPS   H9R 1384   6.266   4.551   2.866  0.3646 -1.3925  0.9610
   11SAPS  C210 1385   6.253   4.337   2.836  0.7408 -0.0613 -0.5111
   11SAPS  H10R 1386   6.353   4.299   2.865  1.9168  3.3251  0.3030
   11SAPS  H10S 1387   6.219   4.271   2.753  0.3674 -0.3336 -0.1451
   11SAPS  C211 1388   6.152   4.300   2.950 -0.3470 -0.9241 -0.8747
   11SAPS  H11R 1389   6.053   4.337   2.921 -0.6541  0.1242  1.2734
   11SAPS  C212 1390   6.165   4.228   3.066  0.7716 -0.7781 -0.3339
   11SAPS  H12R 1391   6.069   4.202   3.113  1.5205 -0.6833  1.3412
   11SAPS  C213 1392   6.288   4.162   3.119 -0.2353 -0.1635  0.0421
   11SAPS  H13R 1393   6.377   4.184   3.056 -1.6917 -1.2602 -2.5737
   11SAPS  H13S 1394   6.275   4.052   3.107  0.2076 -0.4022  1.4976
   11SAPS  C214 1395   6.323   4.206   3.256 -0.5049  0.5757 -0.0931
   11SAPS  H14R 1396   6.377   4.301   3.267 -1.3605  0.9096  1.4116
   11SAPS  C215 1397   6.337   4.119   3.363  0.4319  0.5657  0.3446
   11SAPS  H15R 1398   6.365   4.168   3.458  0.6572 -2.7317  2.1204
   11SAPS  C216 1399   6.294   3.975   3.379  0.2605 -0.1712 -0.4203
   11SAPS  H16R 1400   6.229   3.944   3.294 -0.3943  0.8991 -0.3323
   11SAPS  H16S 1401   6.230   3.956   3.468 -0.0014 -1.9664 -0.9454
   11SAPS  C217 1402   6.423   3.888   3.390  0.0447 -0.5769 -0.4905
   11SAPS  H17R 1403   6.487   3.888   3.300  2.8270 -1.4744  1.3434
   11SAPS  H17S 1404   6.403   3.783   3.417  1.0877 -0.6341  0.1275
   11SAPS  C218 1405   6.523   3.923   3.499 -0.3799  0.1019 -1.3707
   11SAPS  H18R 1406   6.562   4.025   3.477 -2.5032  1.5156  0.9783
   11SAPS  H18S 1407   6.594   3.838   3.507 -2.1394 -1.2863  0.4719
   11SAPS  C219 1408   6.453   3.938   3.636 -0.3266  0.2796 -0.4634
   11SAPS  H19R 1409   6.389   3.851   3.662  1.2253 -0.6447  0.3950
   11SAPS  H19S 1410   6.383   4.024   3.636  1.6125  1.9197 -0.8832
   11SAPS  C220 1411   6.550   3.971   3.751  0.0426 -0.6705 -0.0291
   11SAPS  H20R 1412   6.593   4.073   3.746 -1.7539  0.1661  0.6827
   11SAPS  H20S 1413   6.642   3.909   3.749 -0.1463 -1.0961  1.9846
   11SAPS  H20T 1414   6.497   3.963   3.848 -1.4439 -0.6698 -0.8113
   11SAPS   C33 1415   5.649   4.268   2.319  0.0453 -0.3159  0.1761
   11SAPS   H3X 1416   5.645   4.379   2.332  1.6793 -0.1892 -0.1231
   11SAPS   H3Y 1417   5.751   4.248   2.278  0.1589  1.0860 -0.3173
   11SAPS   C34 1418   5.637   4.211   2.458  0.4933  0.4412  0.3438
   11SAPS   H4X 1419   5.622   4.101   2.458  0.7412  0.4045 -0.6885
   11SAPS   H4Y 1420   5.540   4.247   2.500 -0.7616 -2.0631 -0.2692
   11SAPS   C35 1421   5.745   4.265   2.544 -0.2169 -0.8647 -0.6297
   11SAPS   H5X 1422   5.765   4.373   2.534 -0.5084 -0.9548 -2.4480
   11SAPS   H5Y 1423   5.847   4.222   2.533 -0.1295 -1.0200  0.5681
   11SAPS   C36 1424   5.707   4.226   2.688  0.3288 -0.0240  0.1445
   11SAPS   H6X 1425   5.717   4.115   2.693  1.8475  0.0514 -0.7515
   11SAPS   H6Y 1426   5.599   4.244   2.706 -0.0232 -1.0506 -0.7801
   11SAPS   C37 1427   5.790   4.305   2.790  0.9279 -0.0950 -0.0350
   11SAPS   H7X 1428   5.760   4.412   2.786  1.4688  0.0518 -0.1815
   11SAPS   H7Y 1429   5.898   4.296   2.764  1.0119  1.5329 -0.3247
   11SAPS   C38 1430   5.772   4.249   2.930  0.0357 -0.6543 -0.3659
   11SAPS   H8X 1431   5.837   4.159   2.936 -0.1791 -0.9250 -1.7776
   11SAPS   H8Y 1432   5.667   4.220   2.949  0.4088 -0.9961  1.4085
   11SAPS   C39 1433   5.783   4.356   3.034 -0.2512  0.7376 -0.6412
   11SAPS   H9X 1434   5.710   4.435   3.006  1.6662  1.9155 -2.6095
   11SAPS   H9Y 1435   5.884   4.402   3.030 -0.0328  0.4879  1.1305
   11SAPS  C310 1436   5.755   4.299   3.175  0.4675  0.1950  0.1374
   11SAPS  H10X 1437   5.812   4.208   3.204  0.0590 -0.7716 -1.8285
   11SAPS  H10Y 1438   5.649   4.268   3.159  0.4927  1.1165 -2.3660
   11SAPS  C311 1439   5.758   4.413   3.278 -0.6026 -0.0751  0.1570
   11SAPS  H11X 1440   5.676   4.486   3.260 -1.2539 -0.5389  1.1505
   11SAPS  H11Y 1441   5.855   4.463   3.256 -0.3448 -0.9430 -0.7007
   11SAPS  C312 1442   5.751   4.364   3.425  0.0316  0.4350  0.4352
   11SAPS  H12X 1443   5.791   4.444   3.490  2.5224 -0.8737  0.6458
   11SAPS  H12Y 1444   5.802   4.267   3.442 -0.6348 -0.0608 -0.3038
   11SAPS  C313 1445   5.603   4.333   3.463 -0.3669 -0.3448 -0.8803
   11SAPS  H13X 1446   5.559   4.246   3.411 -0.7375  0.0112 -1.1709
   11SAPS  H13Y 1447   5.550   4.428   3.438 -2.8242 -1.3822  0.0466
   11SAPS  C314 1448   5.595   4.294   3.610 -0.6772 -0.3839  0.2670
   11SAPS  H14X 1449   5.658   4.367   3.665 -1.6691  1.7000 -1.2329
   11SAPS  H14Y 1450   5.623   4.188   3.629 -1.8538 -0.7858 -0.1244
   11SAPS  C315 1451   5.458   4.305   3.665  0.1386  0.3923 -0.2610
   11SAPS  H15X 1452   5.398   4.241   3.597 -0.2931  0.9662 -0.4315
   11SAPS  H15Y 1453   5.426   4.410   3.646  0.0398  0.4842  0.3990
   11SAPS  C316 1454   5.452   4.271   3.814 -0.4576  0.3910 -0.1628
   11SAPS  H16X 1455   5.483   4.166   3.826 -3.2647 -0.5480 -0.3195
   11SAPS  H16Y 1456   5.344   4.274   3.842  0.0108  1.2495  1.6996
   11SAPS  C317 1457   5.531   4.364   3.909 -0.5264  0.2614  0.3068
   11SAPS  H17X 1458   5.498   4.470   3.910  0.3218  0.6200 -2.4511
   11SAPS  H17Y 1459   5.636   4.357   3.875 -0.6118 -1.7965  0.3550
   11SAPS  C318 1460   5.521   4.301   4.057  0.7101 -0.5559 -0.5411
   11SAPS  H18X 1461   5.606   4.346   4.112 -0.0043  3.0851 -2.1769
   11SAPS  H18Y 1462   5.529   4.190   4.063 -1.4892 -0.6864  2.6370
   11SAPS  H18Z 1463   5.419   4.323   4.095  0.1518 -1.7246 -1.2650
   12SAPS     N 1464   5.707   4.082   1.626 -0.2745 -0.0651 -0.2826
   12SAPS   HN1 1465   5.697   4.181   1.593 -0.7038 -0.4353 -1.3289
   12SAPS   HN2 1466   5.800   4.059   1.665 -0.2298  0.2177 -0.2192
   12SAPS   HN3 1467   5.693   4.027   1.539  0.8842  0.2031 -0.6544
   12SAPS   C12 1468   5.598   4.044   1.716  0.5349  0.2391  0.0902
   12SAPS  H12A 1469   5.606   4.096   1.810 -0.9448 -1.1977  1.0738
   12SAPS   C13 1470   5.459   4.085   1.650  0.1569  1.1923 -0.5963
   12SAPS  O13A 1471   5.450   4.129   1.534 -0.3775  0.0124  0.1724
   12SAPS  O13B 1472   5.365   4.085   1.732 -0.0830  0.0402 -0.1926
   12SAPS   C11 1473   5.607   3.886   1.731 -0.6904  0.3084  0.0759
   12SAPS  H11A 1474   5.586   3.832   1.637 -0.0287  2.3222 -1.3084
   12SAPS  H11B 1475   5.526   3.863   1.804  0.2222 -1.3533  0.5941
   12SAPS     P 1476   5.746   3.777   1.922 -0.0943  0.5700 -0.1530
   12SAPS   O13 1477   5.629   3.687   1.944  0.3529  0.1765  0.2541
   12SAPS   O14 1478   5.880   3.720   1.944 -0.4745 -0.3954 -0.0100
   12SAPS   O12 1479   5.739   3.850   1.780 -0.5087  0.4167  0.3466
   12SAPS   O11 1480   5.734   3.889   2.030  0.1346 -0.3546  0.2553
   12SAPS    C1 1481   5.827   3.924   2.132  0.5685  0.4123 -0.1613
   12SAPS    HA 1482   5.927   3.917   2.085  2.2243  1.6195  2.8927
   12SAPS    HB 1483   5.809   4.032   2.151 -0.3680  0.7728 -2.7059
   12SAPS    C2 1484   5.804   3.832   2.256  0.5431 -0.1131 -0.2866
   12SAPS    HS 1485   5.813   3.727   2.219 -1.5247 -1.2006  2.0707
   12SAPS   O21 1486   5.676   3.872   2.306 -0.1248  0.0422 -0.2364
   12SAPS   C21 1487   5.599   3.767   2.358 -0.3014 -0.2578  0.3345
   12SAPS   O22 1488   5.636   3.654   2.357 -0.3168 -0.5382 -0.4390
   12SAPS   C22 1489   5.465   3.828   2.394 -0.0216  0.1613 -0.3893
   12SAPS   H2R 1490   5.480   3.938   2.405  0.5880  0.2137 -1.5808
   12SAPS   H2S 1491   5.396   3.817   2.308 -0.3780 -0.5984 -0.0191
   12SAPS    C3 1492   5.915   3.868   2.361  0.1479  0.7370 -0.3869
   12SAPS    HX 1493   5.885   3.969   2.399  1.0807  1.4372 -1.4349
   12SAPS    HY 1494   6.014   3.854   2.313 -0.4979 -1.2109 -1.2509
   12SAPS   O31 1495   5.914   3.781   2.478  0.2348 -0.3869 -0.5202
   12SAPS   C31 1496   5.945   3.654   2.463  0.1081 -0.4838 -0.7955
   12SAPS   O32 1497   5.994   3.609   2.361 -0.6478  0.0261  0.2257
   12SAPS   C32 1498   5.874   3.572   2.575 -0.1645 -1.0185  0.1801
   12SAPS   H2X 1499   5.766   3.596   2.558  0.1031  1.5104  1.5196
   12SAPS   H2Y 1500   5.906   3.615   2.672 -1.6611 -0.4640  0.4648
   12SAPS   C23 1501   5.421   3.757   2.522  0.2685  0.3019 -0.1597
   12SAPS   H3R 1502   5.507   3.713   2.576  2.2017  2.0564 -1.6708
   12SAPS   H3S 1503   5.366   3.665   2.494 -0.1981  0.4897  0.1215
   12SAPS   C24 1504   5.341   3.839   2.629  0.4040  0.0905  0.2875
   12SAPS   H4R 1505   5.297   3.767   2.701 -2.6777  0.2393 -1.2988
   12SAPS   H4S 1506   5.254   3.891   2.584 -0.6602 -0.1730  1.9781
   12SAPS   C25 1507   5.441   3.933   2.691  0.1055 -0.9888 -0.1125
   12SAPS   H5R 1508   5.512   3.973   2.617 -0.6309  0.5535 -0.0335
   12SAPS   C26 1509   5.448   3.981   2.819 -0.3088 -0.5089  0.1449
   12SAPS   H6R 1510   5.519   4.061   2.845  2.1525 -1.6664 -2.5031
   12SAPS   C27 1511   5.359   3.935   2.934  0.0581 -0.0777 -0.8020
   12SAPS   H7R 1512   5.270   3.886   2.890 -0.3295  1.2356 -1.5254
   12SAPS   H7S 1513   5.320   4.015   3.000  2.3238  0.2331  0.2565
   12SAPS   C28 1514   5.424   3.819   3.014  0.5687  0.2031  0.2834
   12SAPS   H8R 1515   5.453   3.730   2.956  2.5630  1.2855 -0.4906
   12SAPS   C29 1516   5.459   3.819   3.145  0.1135 -0.7936  0.7593
   12SAPS   H9R 1517   5.508   3.726   3.179  1.6805 -0.6249 -0.8764
   12SAPS  C210 1518   5.459   3.922   3.250  0.4988 -1.1827 -0.0933
   12SAPS  H10R 1519   5.452   4.029   3.220  1.6214 -1.5432 -1.7885
   12SAPS  H10S 1520   5.562   3.915   3.292 -0.1564 -0.0891  1.8350
   12SAPS  C211 1521   5.361   3.889   3.368 -0.1145 -0.3304  0.4182
   12SAPS  H11R 1522   5.262   3.937   3.361 -0.0508 -0.4352 -3.9367
   12SAPS  C212 1523   5.395   3.831   3.486  1.0567  0.7753  0.1313
   12SAPS  H12R 1524   5.320   3.830   3.567 -0.1283 -1.3808 -0.8926
   12SAPS  C213 1525   5.522   3.768   3.520 -0.9098 -0.4468  0.3412
   12SAPS  H13R 1526   5.599   3.784   3.441 -0.4790  1.1118  1.0334
   12SAPS  H13S 1527   5.510   3.658   3.535  0.3158 -0.3894  1.9348
   12SAPS  C214 1528   5.581   3.847   3.631 -0.4478  0.3669 -0.1919
   12SAPS  H14R 1529   5.573   3.956   3.623  1.2769  0.4677 -0.9060
   12SAPS  C215 1530   5.617   3.808   3.757 -0.1581  0.0530  0.3843
   12SAPS  H15R 1531   5.653   3.879   3.832 -2.6224  0.1238  1.6244
   12SAPS  C216 1532   5.624   3.669   3.809 -0.8079  0.5464 -0.2455
   12SAPS  H16R 1533   5.577   3.594   3.741 -0.8373 -2.1968  2.5572
   12SAPS  H16S 1534   5.564   3.659   3.902  0.5179  2.0114  0.8264
   12SAPS  C217 1535   5.778   3.635   3.836 -0.0921  0.5026 -0.1045
   12SAPS  H17R 1536   5.830   3.644   3.738 -1.6781  0.0797 -1.0201
   12SAPS  H17S 1537   5.783   3.526   3.854 -0.0123  0.4186 -0.6143
   12SAPS  C218 1538   5.844   3.709   3.954  0.2104  0.2185  0.6076
   12SAPS  H18R 1539   5.887   3.806   3.922  1.8959 -0.8029 -0.3521
   12SAPS  H18S 1540   5.929   3.641   3.975  0.3673  0.2672  0.1425
   12SAPS  C219 1541   5.764   3.711   4.084 -0.4747  0.3377  0.8989
   12SAPS  H19R 1542   5.754   3.608   4.125  2.3859 -0.2027  0.5054
   12SAPS  H19S 1543   5.663   3.754   4.072 -0.5012  1.0111  3.0394
   12SAPS  C220 1544   5.832   3.813   4.185 -0.2083 -0.2446 -0.2673
   12SAPS  H20R 1545   5.937   3.780   4.197 -0.1907  0.0933  0.5816
   12SAPS  H20S 1546   5.783   3.797   4.283  1.0145 -0.4605  0.3202
   12SAPS  H20T 1547   5.823   3.915   4.140 -0.7876 -0.4596 -0.6624
   12SAPS   C33 1548   5.914   3.421   2.578  0.4292 -0.4978 -0.2446
   12SAPS   H3X 1549   6.016   3.410   2.536 -0.5218 -0.7389 -2.6931
   12SAPS   H3Y 1550   5.843   3.362   2.515 -1.3681 -0.1080  1.3331
   12SAPS   C34 1551   5.912   3.360   2.721 -0.7650  0.2421  0.3762
   12SAPS   H4X 1552   5.927   3.249   2.724 -1.9493  0.0353 -0.7878
   12SAPS   H4Y 1553   5.813   3.373   2.771 -0.8640 -0.3553  0.3505
   12SAPS   C35 1554   6.024   3.400   2.815 -0.3887  0.2636  0.4121
   12SAPS   H5X 1555   6.043   3.509   2.807  0.3327  0.0072 -1.7842
   12SAPS   H5Y 1556   6.120   3.348   2.799 -2.1033 -3.0219 -0.0553
   12SAPS   C36 1557   5.982   3.365   2.957  0.1092 -0.5259 -0.4032
   12SAPS   H6X 1558   5.953   3.258   2.965  0.1289 -0.6049 -1.2309
   12SAPS   H6Y 1559   5.889   3.421   2.981  0.2275 -0.2721 -0.5276
   12SAPS   C37 1560   6.091   3.409   3.054 -0.1670 -0.3879  0.3276
   12SAPS   H7X 1561   6.103   3.519   3.049  0.4586 -0.4835 -0.5145
   12SAPS   H7Y 1562   6.186   3.368   3.012  0.3793 -0.1986  1.3507
   12SAPS   C38 1563   6.071   3.353   3.195  0.4080 -0.1146  1.0150
   12SAPS   H8X 1564   6.114   3.251   3.188 -0.9915 -0.8470  2.4389
   12SAPS   H8Y 1565   5.963   3.343   3.221 -0.2927 -0.1655 -1.5937
   12SAPS   C39 1566   6.150   3.432   3.309 -0.1102 -0.4325  0.1085
   12SAPS   H9X 1567   6.152   3.542   3.293  1.7338 -0.0407  2.4554
   12SAPS   H9Y 1568   6.254   3.406   3.281 -0.3959 -0.8702 -0.5760
   12SAPS  C310 1569   6.111   3.387   3.450  0.2466 -0.3996  0.0266
   12SAPS  H10X 1570   6.159   3.287   3.455  0.8431 -0.0841  0.8064
   12SAPS  H10Y 1571   6.000   3.385   3.464  0.4515 -1.1939  1.8607
   12SAPS  C311 1572   6.187   3.456   3.567 -0.0992 -0.5933  0.2494
   12SAPS  H11X 1573   6.151   3.559   3.586 -1.1929 -0.8652 -0.3004
   12SAPS  H11Y 1574   6.292   3.471   3.532 -0.8702  0.5123 -1.7144
   12SAPS  C312 1575   6.169   3.385   3.700 -0.2042 -1.1123 -0.2170
   12SAPS  H12X 1576   6.210   3.282   3.691 -0.7989 -1.3486 -0.2371
   12SAPS  H12Y 1577   6.060   3.376   3.717  0.0114 -3.2596  0.3710
   12SAPS  C313 1578   6.230   3.459   3.818  0.2934 -0.2805 -0.2547
   12SAPS  H13X 1579   6.338   3.451   3.797  0.6245  0.0738  1.2124
   12SAPS  H13Y 1580   6.204   3.411   3.915 -3.3287  3.3706  0.9022
   12SAPS  C314 1581   6.203   3.612   3.821 -0.3086 -0.0468 -0.4721
   12SAPS  H14X 1582   6.094   3.634   3.827 -0.0024  1.7648 -1.0762
   12SAPS  H14Y 1583   6.233   3.664   3.728 -3.2738  1.8937 -0.4800
   12SAPS  C315 1584   6.273   3.685   3.944 -0.1087 -0.1598  0.9594
   12SAPS  H15X 1585   6.383   3.685   3.935 -0.0496  1.8801  1.2156
   12SAPS  H15Y 1586   6.243   3.622   4.031 -1.6992 -1.0136 -0.1377
   12SAPS  C316 1587   6.212   3.822   3.963  0.0463 -0.1575  0.0741
   12SAPS  H16X 1588   6.112   3.789   3.998 -0.4614 -1.1962 -2.1433
   12SAPS  H16Y 1589   6.202   3.885   3.872  2.4772 -0.4868 -0.4934
   12SAPS  C317 1590   6.280   3.913   4.068  0.1568  0.2097  0.0031
   12SAPS  H17X 1591   6.387   3.922   4.038 -0.0281 -2.0627 -1.5703
   12SAPS  H17Y 1592   6.278   3.864   4.168 -2.9461 -0.9074 -0.4838
   12SAPS  C318 1593   6.231   4.055   4.064  0.0026  0.1269  0.5831
   12SAPS  H18X 1594   6.260   4.113   3.973  0.8382 -1.5426 -0.2573
   12SAPS  H18Y 1595   6.262   4.108   4.157  1.2072 -1.6517  1.2527
   12SAPS  H18Z 1596   6.120   4.050   4.069 -0.1395  2.3391  0.6241
   13SAPS     N 1597   6.271   2.761   1.845 -0.2298 -0.5053 -0.1202
   13SAPS   HN1 1598   6.299   2.825   1.923 -1.1724 -2.7377  2.1747
   13SAPS   HN2 1599   6.252   2.833   1.773  0.2287  0.0488  0.2964
   13SAPS   HN3 1600   6.182   2.721   1.880 -0.6901 -0.6955 -1.4673
   13SAPS   C12 1601   6.366   2.654   1.800 -1.0765  0.0443 -0.5123
   13SAPS  H12A 1602   6.329   2.617   1.706  2.8457 -1.6193 -1.5973
   13SAPS   C13 1603   6.511   2.699   1.774  0.2941 -0.3272 -0.2417
   13SAPS  O13A 1604   6.556   2.801   1.833 -0.5958  0.4990  0.1029
   13SAPS  O13B 1605   6.593   2.622   1.718 -0.0199 -0.2778 -0.2110
   13SAPS   C11 1606   6.346   2.542   1.901 -0.3704  0.9530  0.5852
   13SAPS  H11A 1607   6.374   2.585   2.000  3.0026 -0.4488  0.3918
   13SAPS  H11B 1608   6.424   2.465   1.879  0.4555  2.1461 -0.8479
   13SAPS     P 1609   6.124   2.447   2.010 -0.2129  0.5223 -0.0712
   13SAPS   O13 1610   6.056   2.566   2.071 -0.6858 -0.1398 -0.5111
   13SAPS   O14 1611   6.034   2.332   1.971 -0.1785  0.5395 -0.8481
   13SAPS   O12 1612   6.217   2.485   1.884 -0.1459  0.1912  0.6128
   13SAPS   O11 1613   6.225   2.387   2.113  0.2397 -0.3680 -0.0143
   13SAPS    C1 1614   6.242   2.443   2.246 -0.4746 -0.2339  0.5858
   13SAPS    HA 1615   6.299   2.537   2.232 -1.1795 -0.0073 -1.0231
   13SAPS    HB 1616   6.144   2.464   2.294 -2.0164  0.5315 -2.6575
   13SAPS    C2 1617   6.339   2.367   2.338 -0.3767 -0.4003 -0.2511
   13SAPS    HS 1618   6.410   2.324   2.264  1.6296  1.4048  0.5231
   13SAPS   O21 1619   6.262   2.271   2.412  0.2680 -0.0771  0.2521
   13SAPS   C21 1620   6.342   2.176   2.467  0.4323  0.1275  0.3743
   13SAPS   O22 1621   6.461   2.165   2.436 -0.6010 -0.2189  0.2244
   13SAPS   C22 1622   6.266   2.086   2.559  0.2764 -0.0464 -0.1386
   13SAPS   H2R 1623   6.235   2.145   2.647  3.5809 -0.4394  1.4420
   13SAPS   H2S 1624   6.178   2.039   2.511 -0.9335  2.0851 -0.1698
   13SAPS    C3 1625   6.413   2.463   2.438 -0.1719 -0.1516 -0.4452
   13SAPS    HX 1626   6.486   2.527   2.384 -0.1023 -0.4449 -0.7055
   13SAPS    HY 1627   6.481   2.414   2.511  0.9283  1.5087 -0.3036
   13SAPS   O31 1628   6.312   2.542   2.506  0.4252 -0.1940  0.1236
   13SAPS   C31 1629   6.291   2.511   2.633  0.3366 -0.2459  0.2131
   13SAPS   O32 1630   6.335   2.407   2.689 -0.0944 -0.3909 -0.2234
   13SAPS   C32 1631   6.177   2.608   2.687 -0.0282  0.3677  0.2837
   13SAPS   H2X 1632   6.088   2.584   2.625  1.3987 -1.2028 -1.3099
   13SAPS   H2Y 1633   6.210   2.709   2.653  3.1630  0.2376  2.5247
   13SAPS   C23 1634   6.351   1.959   2.600  0.9887 -0.7184  0.1999
   13SAPS   H3R 1635   6.435   1.979   2.669 -0.8718 -0.7136  2.6342
   13SAPS   H3S 1636   6.394   1.918   2.506  1.9454 -1.0827  0.7912
   13SAPS   C24 1637   6.269   1.852   2.664 -0.1584 -0.6409  0.2775
   13SAPS   H4R 1638   6.184   1.837   2.594  0.2140  3.5572 -1.3819
   13SAPS   H4S 1639   6.218   1.879   2.759  1.1170  0.8251  0.5802
   13SAPS   C25 1640   6.350   1.729   2.682 -0.8397  0.3129  0.6438
   13SAPS   H5R 1641   6.400   1.691   2.592  0.8446  2.2978  0.6790
   13SAPS   C26 1642   6.366   1.661   2.800  0.7753 -0.0762  0.1674
   13SAPS   H6R 1643   6.427   1.569   2.801  1.0416  0.1006  0.5598
   13SAPS   C27 1644   6.304   1.696   2.931 -0.6654 -0.3727  0.4341
   13SAPS   H7R 1645   6.199   1.727   2.911 -0.3667  0.2789 -0.1529
   13SAPS   H7S 1646   6.367   1.777   2.973  2.2986 -2.4342  0.2392
   13SAPS   C28 1647   6.312   1.578   3.026 -0.0512 -1.0561 -0.1998
   13SAPS   H8R 1648   6.332   1.477   2.987  0.0641 -0.6895 -1.1240
   13SAPS   C29 1649   6.318   1.595   3.159  0.1970 -0.2533  0.4187
   13SAPS   H9R 1650   6.309   1.506   3.222 -3.2259 -0.8454 -0.6906
   13SAPS  C210 1651   6.299   1.725   3.238 -0.1333  0.2738  0.2753
   13SAPS  H10R 1652   6.308   1.820   3.181  0.0576  1.2138  1.7960
   13SAPS  H10S 1653   6.380   1.737   3.314 -0.2374  0.3372  0.3769
   13SAPS  C211 1654   6.166   1.724   3.314  0.7630 -0.4796 -0.3164
   13SAPS  H11R 1655   6.100   1.801   3.271  0.5515 -1.6404 -2.2166
   13SAPS  C212 1656   6.123   1.644   3.408  0.6101 -0.0958  0.3603
   13SAPS  H12R 1657   6.021   1.655   3.447  0.7796 -1.5111  1.3125
   13SAPS  C213 1658   6.208   1.534   3.481  0.1167  0.0914 -0.1969
   13SAPS  H13R 1659   6.295   1.500   3.421 -0.1086 -0.3322 -0.2830
   13SAPS  H13S 1660   6.153   1.438   3.488 -1.2031  0.8159 -0.4165
   13SAPS  C214 1661   6.291   1.569   3.609  0.5604 -0.1298 -0.6385
   13SAPS  H14R 1662   6.352   1.659   3.597 -0.3024  0.2805 -2.1784
   13SAPS  C215 1663   6.280   1.496   3.723  0.2092  0.1150  0.1627
   13SAPS  H15R 1664   6.342   1.517   3.812 -0.6320 -1.5288  1.1834
   13SAPS  C216 1665   6.176   1.388   3.745 -0.8666 -0.4375  0.1993
   13SAPS  H16R 1666   6.221   1.288   3.733 -2.1744 -1.4355  2.7862
   13SAPS  H16S 1667   6.095   1.394   3.670  1.9053  1.2050 -2.9847
   13SAPS  C217 1668   6.110   1.383   3.885 -0.0653  0.2824 -0.0680
   13SAPS  H17R 1669   6.063   1.283   3.894  0.8211 -0.2030 -0.6250
   13SAPS  H17S 1670   6.028   1.457   3.899 -0.8657 -0.5956 -0.0103
   13SAPS  C218 1671   6.206   1.371   4.005 -0.0124  0.8013  0.4243
   13SAPS  H18R 1672   6.145   1.346   4.095  1.0871  2.2944  1.6332
   13SAPS  H18S 1673   6.245   1.475   4.008  0.0337  0.7890  0.2061
   13SAPS  C219 1674   6.320   1.271   3.991  0.2660 -0.0342 -0.4425
   13SAPS  H19R 1675   6.402   1.290   4.064 -0.2226 -0.5260  0.2504
   13SAPS  H19S 1676   6.357   1.276   3.887  0.4770 -2.7486 -0.5520
   13SAPS  C220 1677   6.276   1.123   4.016  0.0519  0.3604  0.7211
   13SAPS  H20R 1678   6.206   1.083   3.940  1.5783 -2.5591  0.7125
   13SAPS  H20S 1679   6.237   1.104   4.118 -1.5304 -0.7470 -0.0509
   13SAPS  H20T 1680   6.371   1.065   4.007  2.0212  3.1248  2.1440
   13SAPS   C33 1681   6.149   2.590   2.833  0.2121  0.0243 -0.6517
   13SAPS   H3X 1682   6.077   2.669   2.865 -0.2681 -1.0164  0.9539
   13SAPS   H3Y 1683   6.241   2.600   2.893  0.5695 -0.0972 -1.1757
   13SAPS   C34 1684   6.066   2.465   2.866 -0.4154  0.2765 -0.0459
   13SAPS   H4X 1685   6.113   2.365   2.853  2.6909  1.3597  1.6596
   13SAPS   H4Y 1686   5.988   2.463   2.787 -0.9355  0.0837  0.4651
   13SAPS   C35 1687   6.004   2.474   3.005  1.1520 -0.6429 -0.4585
   13SAPS   H5X 1688   5.948   2.379   3.020  1.8424 -0.9514  0.2139
   13SAPS   H5Y 1689   5.941   2.565   3.008  1.5154 -0.4182  1.8894
   13SAPS   C36 1690   6.104   2.480   3.123 -0.3368 -0.2124 -0.5373
   13SAPS   H6X 1691   6.174   2.566   3.114 -1.0987  0.9307  3.0061
   13SAPS   H6Y 1692   6.162   2.385   3.120  1.9400  1.0334  0.6330
   13SAPS   C37 1693   6.036   2.496   3.256  0.6448 -0.2398 -0.3602
   13SAPS   H7X 1694   5.950   2.427   3.255  0.9012 -0.5630 -0.0939
   13SAPS   H7Y 1695   5.984   2.594   3.270  1.1266 -0.0175 -0.1029
   13SAPS   C38 1696   6.135   2.472   3.377  0.3829 -0.5176  0.1070
   13SAPS   H8X 1697   6.222   2.539   3.360  2.8885 -2.9201  2.5249
   13SAPS   H8Y 1698   6.170   2.366   3.377 -1.6134 -1.2238  0.5043
   13SAPS   C39 1699   6.080   2.514   3.517  0.6042 -0.2842  0.4182
   13SAPS   H9X 1700   5.988   2.467   3.558  1.3481 -0.3127  2.1254
   13SAPS   H9Y 1701   6.066   2.624   3.522 -1.3990 -0.4786  0.1054
   13SAPS  C310 1702   6.185   2.488   3.625  0.4138  0.3599 -0.1481
   13SAPS  H10X 1703   6.279   2.533   3.585  1.2342 -0.1100  1.2037
   13SAPS  H10Y 1704   6.191   2.377   3.625 -2.6937  0.1074 -1.1186
   13SAPS  C311 1705   6.138   2.542   3.765 -0.4385 -0.6530 -0.5987
   13SAPS  H11X 1706   6.038   2.516   3.806 -0.2040  2.7433  2.6393
   13SAPS  H11Y 1707   6.142   2.653   3.758  1.2519 -0.7577 -2.0671
   13SAPS  C312 1708   6.242   2.502   3.873 -0.8177  0.0763  0.3147
   13SAPS  H12X 1709   6.344   2.520   3.833 -0.5426 -0.3804  0.7907
   13SAPS  H12Y 1710   6.231   2.393   3.893 -0.4450 -0.2049 -0.9312
   13SAPS  C313 1711   6.230   2.585   4.002  0.1166  1.0279  0.0224
   13SAPS  H13X 1712   6.278   2.533   4.088  0.1756  0.8812 -0.0964
   13SAPS  H13Y 1713   6.122   2.592   4.025 -0.1062  0.1845 -0.7017
   13SAPS  C314 1714   6.291   2.720   3.988  0.5353  0.8222  0.2636
   13SAPS  H14X 1715   6.230   2.786   3.922  2.2494  1.3331 -0.8886
   13SAPS  H14Y 1716   6.393   2.718   3.944  0.8339  2.6066  0.7830
   13SAPS  C315 1717   6.303   2.798   4.116 -0.7352  0.2742 -0.0611
   13SAPS  H15X 1718   6.375   2.881   4.099 -0.0508 -0.2873  0.0188
   13SAPS  H15Y 1719   6.348   2.732   4.194 -2.6265 -2.2704 -1.0108
   13SAPS  C316 1720   6.178   2.878   4.157 -0.0832  0.1869  0.1952
   13SAPS  H16X 1721   6.096   2.807   4.184  0.0051  0.4488  1.2208
   13SAPS  H16Y 1722   6.149   2.942   4.071  0.5279  0.5094  0.2265
   13SAPS  C317 1723   6.202   2.969   4.275 -0.1182  0.3011 -0.1899
   13SAPS  H17X 1724   6.303   3.015   4.265 -0.8919  2.5279  1.2276
   13SAPS  H17Y 1725   6.214   2.901   4.362  3.1538 -2.1278 -2.3426
   13SAPS  C318 1726   6.102   3.074   4.316 -0.3861  0.1814  0.0126
   13SAPS  H18X 1727   5.999   3.034   4.320 -0.8071  1.1276 -0.8499
   13SAPS  H18Y 1728   6.085   3.145   4.233 -1.8444  0.9241  0.9064
   13SAPS  H18Z 1729   6.114   3.127   4.414  0.2522  0.1415 -0.0353
   14SAPS     N 1730   0.442   5.236   2.170  0.1739 -0.2031  0.8765
   14SAPS   HN1 1731   0.455   5.338   2.178  2.9377 -0.1095 -2.5760
   14SAPS   HN2 1732   0.341   5.216   2.186  0.5065 -1.7779  1.2571
   14SAPS   HN3 1733   0.508   5.196   2.240  4.2463  1.3847 -1.7079
   14SAPS   C12 1734   0.497   5.191   2.034  0.2838 -0.4131  0.3431
   14SAPS  H12A 1735   0.461   5.090   2.022 -0.9285 -0.4418  3.2125
   14SAPS   C13 1736   0.458   5.281   1.912 -0.2817 -0.2977 -0.2492
   14SAPS  O13A 1737   0.349   5.346   1.926 -0.7430 -0.5643  0.0486
   14SAPS  O13B 1738   0.510   5.262   1.804 -0.6104 -0.3457  0.8866
   14SAPS   C11 1739   0.653   5.178   2.043 -0.0796 -0.5594 -0.1739
   14SAPS  H11A 1740   0.714   5.270   2.036  0.6272 -0.0743  6.3879
   14SAPS  H11B 1741   0.674   5.109   1.958 -0.9583  1.9218 -2.5592
   14SAPS     P 1742   0.688   4.966   2.205 -0.0052 -0.0888  0.6583
   14SAPS   O13 1743   0.549   4.937   2.238 -0.2422  0.1983  0.0477
   14SAPS   O14 1744   0.751   4.887   2.099 -0.4805 -0.5854 -0.2170
   14SAPS   O12 1745   0.702   5.122   2.168  0.0969 -0.2586 -0.1051
   14SAPS   O11 1746   0.770   4.962   2.337  0.0822 -0.6029  0.3160
   14SAPS    C1 1747   0.812   4.845   2.404  0.1904  0.3178 -0.0023
   14SAPS    HA 1748   0.834   4.754   2.345  0.8196 -0.3458  1.2152
   14SAPS    HB 1749   0.902   4.871   2.464  0.5897  0.2808 -0.5864
   14SAPS    C2 1750   0.703   4.791   2.500  0.0775  0.0308 -0.5504
   14SAPS    HS 1751   0.601   4.797   2.455  0.4660 -2.2732 -1.9513
   14SAPS   O21 1752   0.717   4.868   2.625  0.4201  0.3426 -0.4068
   14SAPS   C21 1753   0.593   4.899   2.676 -0.2847  0.4883  0.4219
   14SAPS   O22 1754   0.484   4.875   2.629  0.2033  0.0415  0.9260
   14SAPS   C22 1755   0.609   4.980   2.801  0.3834  0.6138 -0.6852
   14SAPS   H2R 1756   0.683   4.931   2.869 -0.0460 -1.8176 -1.8786
   14SAPS   H2S 1757   0.641   5.073   2.750 -2.8515  2.1196 -0.2115
   14SAPS    C3 1758   0.720   4.646   2.541 -0.3255 -0.4273 -0.6159
   14SAPS    HX 1759   0.825   4.635   2.576 -0.2799  2.2167  0.2376
   14SAPS    HY 1760   0.695   4.577   2.457 -0.1612 -2.2809  0.7858
   14SAPS   O31 1761   0.629   4.620   2.649  0.4150 -0.1446  0.6498
   14SAPS   C31 1762   0.655   4.524   2.733  0.0041 -0.3233  0.4149
   14SAPS   O32 1763   0.743   4.443   2.729 -0.1206  0.2688  0.4482
   14SAPS   C32 1764   0.541   4.532   2.836 -0.0374 -0.0357  0.3850
   14SAPS   H2X 1765   0.464   4.457   2.808 -2.9391  2.6191  0.7181
   14SAPS   H2Y 1766   0.493   4.630   2.817 -0.5962 -0.7447 -2.1765
   14SAPS   C23 1767   0.474   4.999   2.872 -0.0700 -0.7283 -0.0930
   14SAPS   H3R 1768   0.430   4.904   2.909 -1.2679  0.1686  0.8802
   14SAPS   H3S 1769   0.401   5.054   2.809  0.6146 -1.9579 -2.0794
   14SAPS   C24 1770   0.475   5.089   2.994 -1.0532 -0.1099  0.2568
   14SAPS   H4R 1771   0.370   5.087   3.030 -1.0270  1.3104  0.4913
   14SAPS   H4S 1772   0.506   5.195   2.976  0.6326 -0.1380  2.5347
   14SAPS   C25 1773   0.568   5.034   3.097  0.2068  1.4658  0.4581
   14SAPS   H5R 1774   0.676   5.039   3.076  0.8434 -5.0175 -0.0056
   14SAPS   C26 1775   0.535   4.956   3.203 -0.0656 -0.1662 -0.5856
   14SAPS   H6R 1776   0.610   4.923   3.277  0.9078 -0.8425 -1.8339
   14SAPS   C27 1777   0.399   4.932   3.250  0.1363 -0.2523  0.5264
   14SAPS   H7R 1778   0.333   5.019   3.227 -2.4778 -2.2884 -0.1025
   14SAPS   H7S 1779   0.403   4.929   3.361 -0.3636 -0.2010  0.5478
   14SAPS   C28 1780   0.331   4.810   3.195 -0.0717  0.1800  0.8019
   14SAPS   H8R 1781   0.329   4.798   3.085 -0.0523 -1.7747  0.9896
   14SAPS   C29 1782   0.279   4.703   3.263 -0.1152  0.4357  0.3541
   14SAPS   H9R 1783   0.257   4.611   3.206  1.7247 -0.6320  1.2732
   14SAPS  C210 1784   0.270   4.688   3.410  0.9087  0.1379  0.4355
   14SAPS  H10R 1785   0.366   4.726   3.452  0.1435  1.3955  1.0786
   14SAPS  H10S 1786   0.269   4.581   3.442 -1.0101 -0.1708 -0.5559
   14SAPS  C211 1787   0.137   4.758   3.467 -0.2742  0.2982  0.0866
   14SAPS  H11R 1788   0.070   4.809   3.397 -0.3901  0.1510  0.0913
   14SAPS  C212 1789   0.126   4.774   3.600  0.2311  0.2463 -0.0475
   14SAPS  H12R 1790   0.032   4.812   3.643  0.0601 -1.4389  1.1481
   14SAPS  C213 1791   0.225   4.722   3.712  1.4025  0.2421  0.1782
   14SAPS  H13R 1792   0.331   4.752   3.694  1.6100 -0.5760 -0.0029
   14SAPS  H13S 1793   0.245   4.616   3.688 -0.1053  0.1975 -1.0604
   14SAPS  C214 1794   0.185   4.763   3.851  0.2601 -0.8348 -0.2031
   14SAPS  H14R 1795   0.194   4.870   3.874 -0.0107 -0.7752 -0.3581
   14SAPS  C215 1796   0.134   4.688   3.949  0.0965 -0.4813  0.1786
   14SAPS  H15R 1797   0.112   4.738   4.044  0.2939 -0.1347  0.0450
   14SAPS  C216 1798   0.110   4.543   3.944  0.6131 -0.0414  0.5680
   14SAPS  H16R 1799   0.143   4.500   3.847 -1.0598  3.0909 -1.5162
   14SAPS  H16S 1800   0.005   4.509   3.956  0.3779 -0.8678 -2.9188
   14SAPS  C217 1801   0.172   4.475   4.067  0.3651  0.3398  0.2841
   14SAPS  H17R 1802   0.127   4.519   4.158  0.0258 -1.7674  1.1832
   14SAPS  H17S 1803   0.282   4.494   4.069  0.6170 -1.0625  1.0583
   14SAPS  C218 1804   0.166   4.318   4.071  0.0586 -0.4694 -0.4665
   14SAPS  H18R 1805   0.200   4.268   3.978  0.0503 -0.1567 -0.6387
   14SAPS  H18S 1806   0.061   4.283   4.078 -0.0854 -0.1927 -1.1908
   14SAPS  C219 1807   0.231   4.259   4.192 -0.5263  0.2289 -1.1176
   14SAPS  H19R 1808   0.184   4.298   4.285 -1.6523 -3.3744 -0.0166
   14SAPS  H19S 1809   0.338   4.287   4.201  0.7428 -4.2175 -0.2705
   14SAPS  C220 1810   0.217   4.105   4.192  0.1948  0.4710 -0.5638
   14SAPS  H20R 1811   0.238   4.062   4.092  2.1281  0.2545 -0.0891
   14SAPS  H20S 1812   0.112   4.077   4.218  0.5012 -0.7296 -0.6009
   14SAPS  H20T 1813   0.286   4.072   4.272 -0.4950 -0.4645 -0.3394
   14SAPS   C33 1814   0.610   4.508   2.976  0.5319  0.0816  0.2093
   14SAPS   H3X 1815   0.650   4.406   2.992 -3.8446 -1.3898  4.5278
   14SAPS   H3Y 1816   0.535   4.519   3.058 -0.4907 -2.2711 -0.3345
   14SAPS   C34 1817   0.702   4.626   3.013 -0.1137  0.2508 -0.2415
   14SAPS   H4X 1818   0.649   4.722   2.996 -1.5106 -0.7542 -1.8957
   14SAPS   H4Y 1819   0.783   4.617   2.937  0.1441 -2.9998  0.2954
   14SAPS   C35 1820   0.770   4.636   3.156  0.0961  0.8253 -0.4486
   14SAPS   H5X 1821   0.693   4.678   3.224 -0.8919 -2.0252  0.3278
   14SAPS   H5Y 1822   0.855   4.706   3.167 -0.1729  0.8732  1.7318
   14SAPS   C36 1823   0.822   4.504   3.213  0.1871  0.4560 -0.6392
   14SAPS   H6X 1824   0.881   4.458   3.131  0.1699 -1.6697  0.4670
   14SAPS   H6Y 1825   0.738   4.432   3.227  0.8249 -0.2024 -0.1296
   14SAPS   C37 1826   0.892   4.513   3.352 -0.4127  0.1471  0.1235
   14SAPS   H7X 1827   0.823   4.582   3.405 -0.4469 -1.1444  1.8316
   14SAPS   H7Y 1828   0.994   4.554   3.340 -0.3306  0.3443  1.3491
   14SAPS   C38 1829   0.895   4.377   3.427  0.1758 -0.5907  0.4211
   14SAPS   H8X 1830   0.966   4.313   3.370 -0.2561 -1.9125  1.3203
   14SAPS   H8Y 1831   0.792   4.336   3.421  0.5317 -1.3136 -2.1586
   14SAPS   C39 1832   0.940   4.391   3.570  0.2026  0.0253 -0.0222
   14SAPS   H9X 1833   0.876   4.462   3.627 -1.0038 -0.7943 -0.3146
   14SAPS   H9Y 1834   1.046   4.425   3.571 -0.4451  2.2440  0.2654
   14SAPS  C310 1835   0.928   4.254   3.644  0.0269 -0.5388 -0.1051
   14SAPS  H10X 1836   0.996   4.182   3.594  0.6577  0.0604 -0.1123
   14SAPS  H10Y 1837   0.825   4.213   3.635 -0.3976  0.2634  0.9359
   14SAPS  C311 1838   0.966   4.271   3.790  0.0623  0.1302  0.3548
   14SAPS  H11X 1839   0.930   4.367   3.833  1.1403  0.1569  1.2760
   14SAPS  H11Y 1840   1.077   4.271   3.801  0.1239 -2.5032  0.3452
   14SAPS  C312 1841   0.903   4.152   3.866 -0.0139  1.4884  0.2630
   14SAPS  H12X 1842   0.905   4.066   3.796 -0.3761  0.0681  1.9261
   14SAPS  H12Y 1843   0.796   4.173   3.883 -0.3752  0.8403 -1.0723
   14SAPS  C313 1844   0.975   4.119   3.999 -0.3117 -0.2385 -0.1302
   14SAPS  H13X 1845   0.977   4.210   4.063  0.0148 -1.0835  1.0905
   14SAPS  H13Y 1846   1.084   4.103   3.981  1.1082  5.1607  1.7020
   14SAPS  C314 1847   0.925   3.993   4.073  0.1179  0.1715 -0.6540
   14SAPS  H14X 1848   0.953   3.906   4.010  1.5222 -0.7993  1.2304
   14SAPS  H14Y 1849   0.815   4.000   4.078  0.0720 -0.1950 -1.0879
   14SAPS  C315 1850   0.981   3.985   4.211 -0.2862 -0.2821  0.2420
   14SAPS  H15X 1851   0.932   4.058   4.280 -0.6569 -1.7222  1.5407
   14SAPS  H15Y 1852   1.087   4.014   4.200 -0.8011  1.2457 -1.2734
   14SAPS  C316 1853   0.982   3.840   4.274  0.1748  0.6923 -0.6230
   14SAPS  H16X 1854   1.038   3.784   4.196  0.5170 -1.9529  1.4160
   14SAPS  H16Y 1855   0.874   3.816   4.270  0.3943 -0.2089 -1.5464
   14SAPS  C317 1856   1.047   3.822   4.412 -0.4332  0.2912 -0.0272
   14SAPS  H17X 1857   1.011   3.902   4.481 -2.3493 -1.1479  0.7215
   14SAPS  H17Y 1858   1.157   3.825   4.397 -0.3324  0.1480  0.6419
   14SAPS  C318 1859   1.026   3.691   4.483 -0.2011  0.3124  0.5985
   14SAPS  H18X 1860   0.931   3.647   4.446 -0.6722  0.7536  1.2558
   14SAPS  H18Y 1861   1.013   3.697   4.594  0.5441 -2.2940  0.9097
   14SAPS  H18Z 1862   1.098   3.613   4.449 -1.5877 -0.2517 -1.1876
   15SAPS     N 1863   6.276   4.455   1.737 -0.1608 -0.6661 -0.1108
   15SAPS   HN1 1864   6.200   4.384   1.732 -0.9445  0.1324  0.1962
   15SAPS   HN2 1865   6.369   4.418   1.765  0.2781 -0.2346 -0.9675
   15SAPS   HN3 1866   6.251   4.527   1.808 -0.3995  1.6653 -2.4138
   15SAPS   C12 1867   6.279   4.535   1.612 -0.3109  0.6651 -0.5412
   15SAPS  H12A 1868   6.363   4.603   1.617 -0.7216  1.3081 -1.8266
   15SAPS   C13 1869   6.299   4.459   1.478  0.0273 -0.1342  0.0379
   15SAPS  O13A 1870   6.320   4.330   1.481  0.2705 -0.9157  0.2842
   15SAPS  O13B 1871   6.302   4.527   1.371 -0.0942 -1.1224 -0.5237
   15SAPS   C11 1872   6.148   4.620   1.605 -0.0348  0.0533  0.4062
   15SAPS  H11A 1873   6.066   4.548   1.583  0.1000 -0.4438  1.4554
   15SAPS  H11B 1874   6.155   4.682   1.513  2.5065 -1.2779 -0.4002
   15SAPS     P 1875   6.157   4.851   1.735 -0.0083 -0.0186  0.3844
   15SAPS   O13 1876   6.279   4.872   1.657 -0.7579 -0.4515 -0.1319
   15SAPS   O14 1877   6.036   4.931   1.695 -0.3266 -0.3223 -0.2500
   15SAPS   O12 1878   6.120   4.701   1.720  0.2966 -0.2545 -0.0354
   15SAPS   O11 1879   6.194   4.857   1.887 -0.0974  0.1520  0.7423
   15SAPS    C1 1880   6.266   4.973   1.933  0.4621  0.0717 -0.1128
   15SAPS    HA 1881   6.372   4.990   1.904  0.0033  2.6228 -0.5006
   15SAPS    HB 1882   6.224   5.071   1.901  0.3357 -0.0929 -0.4581
   15SAPS    C2 1883   6.267   4.970   2.087 -0.1266 -0.0760 -0.2033
   15SAPS    HS 1884   6.310   5.068   2.113 -2.4844  1.2418 -0.9352
   15SAPS   O21 1885   6.350   4.853   2.118 -0.6567  0.4571 -0.1646
   15SAPS   C21 1886   6.412   4.874   2.231  0.5040 -0.1817 -0.1528
   15SAPS   O22 1887   6.417   4.974   2.295  0.0079 -0.2903 -0.4376
   15SAPS   C22 1888   6.478   4.749   2.278  0.4552  0.0810 -0.6681
   15SAPS   H2R 1889   6.402   4.715   2.352  0.6759 -0.9806 -0.9094
   15SAPS   H2S 1890   6.474   4.679   2.192 -1.3049  1.4587 -1.7742
   15SAPS    C3 1891   6.122   4.959   2.153 -0.0177  0.6632  0.1980
   15SAPS    HX 1892   6.082   4.857   2.135  0.5366  0.6689 -1.1363
   15SAPS    HY 1893   6.054   5.034   2.109 -0.9688  0.8435  1.8753
   15SAPS   O31 1894   6.128   4.986   2.298 -0.0523  0.1390 -0.6130
   15SAPS   C31 1895   6.014   5.042   2.355  0.4986 -0.4702 -0.0071
   15SAPS   O32 1896   5.916   5.061   2.290  0.3039 -0.0715 -0.9965
   15SAPS   C32 1897   6.022   5.062   2.508 -0.1700  0.7705 -0.0233
   15SAPS   H2X 1898   5.921   5.053   2.552 -0.6449 -0.2605 -1.2662
   15SAPS   H2Y 1899   6.060   5.166   2.516 -0.8558  0.9233  1.3517
   15SAPS   C23 1900   6.619   4.770   2.342  0.3695  0.3450 -1.0068
   15SAPS   H3R 1901   6.609   4.858   2.410  0.4046 -0.2658 -0.1874
   15SAPS   H3S 1902   6.704   4.796   2.276  3.5254 -1.7969  1.8393
   15SAPS   C24 1903   6.672   4.646   2.413  0.1903 -0.2359 -1.2225
   15SAPS   H4R 1904   6.605   4.617   2.496 -1.4481 -0.3901 -2.5372
   15SAPS   H4S 1905   6.767   4.677   2.462  1.0578  0.0080 -2.9633
   15SAPS   C25 1906   6.685   4.528   2.320 -0.7596  0.1899  0.5110
   15SAPS   H5R 1907   6.698   4.568   2.219 -1.3808  3.2115  1.5100
   15SAPS   C26 1908   6.692   4.402   2.353 -0.0357  0.5655 -0.5250
   15SAPS   H6R 1909   6.712   4.330   2.273 -2.1025 -0.9307  0.1991
   15SAPS   C27 1910   6.663   4.349   2.494  0.2313  0.0560 -0.1449
   15SAPS   H7R 1911   6.585   4.272   2.481  0.4843 -0.2061 -0.1122
   15SAPS   H7S 1912   6.618   4.424   2.562 -1.8601 -0.2611 -1.1163
   15SAPS   C28 1913   6.790   4.288   2.543 -0.6277 -0.4607  0.1084
   15SAPS   H8R 1914   6.882   4.312   2.487  0.6729  1.2377  2.7698
   15SAPS   C29 1915   6.800   4.200   2.642  0.3104  0.1877  0.1994
   15SAPS   H9R 1916   6.901   4.164   2.667 -0.0324 -0.3021  0.9056
   15SAPS  C210 1917   6.687   4.170   2.741  0.1059  0.6922 -0.0093
   15SAPS  H10R 1918   6.593   4.204   2.692 -0.4591  0.1863  0.7088
   15SAPS  H10S 1919   6.690   4.234   2.832  1.4673 -0.2280  0.6142
   15SAPS  C211 1920   6.662   4.020   2.758 -0.3472 -1.0166  0.1472
   15SAPS  H11R 1921   6.640   3.953   2.674 -1.9876 -0.7278  0.3216
   15SAPS  C212 1922   6.681   3.967   2.880 -0.6723 -0.0681  1.1297
   15SAPS  H12R 1923   6.688   3.858   2.887 -0.1790 -0.3349 -1.9966
   15SAPS  C213 1924   6.705   4.040   3.012  0.3487  0.2836 -0.0845
   15SAPS  H13R 1925   6.624   4.115   3.016 -2.0159 -2.1254 -0.2800
   15SAPS  H13S 1926   6.794   4.107   3.006  0.2243  0.4686  0.1118
   15SAPS  C214 1927   6.689   3.953   3.134 -0.0433 -0.1217 -0.1999
   15SAPS  H14R 1928   6.612   3.875   3.133  0.3975 -0.6547 -3.5221
   15SAPS  C215 1929   6.757   3.975   3.250 -0.7618  0.2852 -0.2225
   15SAPS  H15R 1930   6.742   3.897   3.327  1.2391 -2.5093 -2.4659
   15SAPS  C216 1931   6.861   4.079   3.281  0.3165 -0.3581  0.0526
   15SAPS  H16R 1932   6.819   4.149   3.357 -3.3942 -0.0283 -2.0348
   15SAPS  H16S 1933   6.903   4.129   3.191 -0.7039  1.2311  0.4045
   15SAPS  C217 1934   6.980   4.003   3.352  0.6065  0.0349  0.8317
   15SAPS  H17R 1935   7.074   4.052   3.319  0.6078 -0.1727  0.5239
   15SAPS  H17S 1936   6.999   3.905   3.303  0.3192  0.0995  0.5883
   15SAPS  C218 1937   6.976   4.001   3.502 -0.4245  0.4637  0.3623
   15SAPS  H18R 1938   7.057   3.935   3.540 -0.3497  0.1963 -0.2459
   15SAPS  H18S 1939   6.891   3.962   3.560  1.2990  2.2310  4.4665
   15SAPS  C219 1940   7.017   4.138   3.562  0.1444  0.0135 -0.3037
   15SAPS  H19R 1941   6.953   4.220   3.521  0.2184 -0.4679 -1.4225
   15SAPS  H19S 1942   7.121   4.132   3.525 -0.4462 -0.1260 -2.0516
   15SAPS  C220 1943   7.003   4.134   3.715  0.3257 -0.3541 -0.0130
   15SAPS  H20R 1944   6.913   4.187   3.754  0.6636  0.2293 -0.0161
   15SAPS  H20S 1945   7.079   4.199   3.763 -1.7053  1.3111  1.1064
   15SAPS  H20T 1946   7.002   4.026   3.741  0.2566 -0.2823  0.2727
   15SAPS   C33 1947   6.132   4.979   2.575 -0.0433 -0.1269 -0.0602
   15SAPS   H3X 1948   6.230   4.982   2.522  0.4937 -2.5153  0.6891
   15SAPS   H3Y 1949   6.095   4.875   2.569 -2.7204  0.7155  0.5068
   15SAPS   C34 1950   6.163   5.016   2.719 -0.5738 -0.7013 -0.2212
   15SAPS   H4X 1951   6.082   4.993   2.791 -0.5788 -0.4803 -0.1566
   15SAPS   H4Y 1952   6.177   5.126   2.714  1.9954 -0.9255  0.3607
   15SAPS   C35 1953   6.285   4.933   2.771  0.1827  0.3137 -0.4322
   15SAPS   H5X 1954   6.375   4.970   2.718  0.9640  0.8315  1.2165
   15SAPS   H5Y 1955   6.249   4.834   2.733  1.7563 -0.6660  0.5390
   15SAPS   C36 1956   6.314   4.958   2.916 -0.5226  0.2587  0.2519
   15SAPS   H6X 1957   6.216   4.993   2.955 -0.9338 -0.3020 -0.2433
   15SAPS   H6Y 1958   6.384   5.042   2.933 -2.0032  1.6328 -0.1507
   15SAPS   C37 1959   6.357   4.832   2.997 -0.2219 -0.4141  0.3695
   15SAPS   H7X 1960   6.452   4.793   2.953  0.0975  1.2433 -0.4992
   15SAPS   H7Y 1961   6.277   4.755   2.995 -1.0770  0.4594  0.4225
   15SAPS   C38 1962   6.382   4.856   3.144 -0.4228  0.3112  0.2916
   15SAPS   H8X 1963   6.423   4.758   3.173  2.5619  0.8508 -1.6994
   15SAPS   H8Y 1964   6.287   4.878   3.198 -2.0244 -2.3311 -1.2112
   15SAPS   C39 1965   6.484   4.966   3.177 -0.0344 -0.8674 -0.2911
   15SAPS   H9X 1966   6.448   5.065   3.140  3.8214 -0.4966 -3.7923
   15SAPS   H9Y 1967   6.577   4.950   3.119 -2.3698 -0.7275 -4.4895
   15SAPS  C310 1968   6.516   4.968   3.323  0.2775 -0.0595 -0.0662
   15SAPS  H10X 1969   6.572   4.881   3.363  0.4932  1.4629  3.3319
   15SAPS  H10Y 1970   6.426   4.980   3.386  1.7894 -2.1707  2.7184
   15SAPS  C311 1971   6.594   5.094   3.356 -0.2587 -0.0950 -0.3902
   15SAPS  H11X 1972   6.528   5.178   3.326  0.2696 -0.4194 -2.6261
   15SAPS  H11Y 1973   6.688   5.101   3.297 -0.2417 -0.2078 -0.3778
   15SAPS  C312 1974   6.645   5.100   3.512  0.1591 -0.1607  0.3240
   15SAPS  H12X 1975   6.684   5.200   3.538 -2.0548  0.6711  0.5962
   15SAPS  H12Y 1976   6.731   5.031   3.497 -1.1112 -1.7253 -0.1950
   15SAPS  C313 1977   6.554   5.037   3.617  0.0358 -0.1588 -0.0863
   15SAPS  H13X 1978   6.524   4.936   3.581  0.1012  0.1671 -1.0758
   15SAPS  H13Y 1979   6.459   5.096   3.621  0.1610  0.3189 -2.6300
   15SAPS  C314 1980   6.614   5.015   3.758 -0.7161 -0.2372  0.2664
   15SAPS  H14X 1981   6.664   5.109   3.788  3.6552 -1.5032 -2.3288
   15SAPS  H14Y 1982   6.693   4.937   3.753  1.3043  1.6953  0.8581
   15SAPS  C315 1983   6.506   4.964   3.861 -0.0366  0.2722 -0.9385
   15SAPS  H15X 1984   6.462   4.877   3.807  1.5652 -1.4945  0.4568
   15SAPS  H15Y 1985   6.446   5.055   3.876 -0.4828  0.1926 -2.1019
   15SAPS  C316 1986   6.569   4.898   3.987  0.2280 -0.8045  0.2463
   15SAPS  H16X 1987   6.628   4.975   4.041  0.9220 -0.9749 -0.2531
   15SAPS  H16Y 1988   6.635   4.815   3.955  0.6669 -0.0740 -0.8000
   15SAPS  C317 1989   6.476   4.833   4.088  0.9126 -0.3132  0.3695
   15SAPS  H17X 1990   6.381   4.798   4.041  0.7341  0.2594  0.2914
   15SAPS  H17Y 1991   6.436   4.908   4.160  0.3021 -2.0135  1.8942
   15SAPS  C318 1992   6.556   4.733   4.170 -0.0482  0.6889  0.4167
   15SAPS  H18X 1993   6.481   4.675   4.229  0.0791  1.3752  1.2550
   15SAPS  H18Y 1994   6.621   4.794   4.235  1.8014  2.2870 -2.6912
   15SAPS  H18Z 1995   6.615   4.663   4.107 -0.2702  0.3874  0.5371
   16SAPS     N 1996   1.458   6.604   1.683 -0.6567 -0.2036 -0.1503
   16SAPS   HN1 1997   1.442   6.501   1.689 -0.5455 -0.1781  0.8396
   16SAPS   HN2 1998   1.454   6.651   1.591  0.3252  0.6332  0.2219
   16SAPS   HN3 1999   1.557   6.614   1.712 -0.9420 -0.0367  0.7998
   16SAPS   C12 2000   1.389   6.687   1.782 -0.4012 -0.1982 -0.5226
   16SAPS  H12A 2001   1.432   6.658   1.877  0.9830 -0.8701 -1.3081
   16SAPS   C13 2002   1.405   6.840   1.769  0.0996 -1.0039 -0.7410
   16SAPS  O13A 2003   1.504   6.883   1.693  0.2072  0.6454 -0.1678
   16SAPS  O13B 2004   1.351   6.925   1.851 -0.2182  1.0998  0.0380
   16SAPS   C11 2005   1.238   6.631   1.799  0.5648  0.1455  0.0620
   16SAPS  H11A 2006   1.170   6.653   1.714 -0.0621 -2.8251 -0.3019
   16SAPS  H11B 2007   1.201   6.673   1.895  0.6140 -1.0115  0.6049
   16SAPS     P 2008   1.185   6.402   1.928  0.1089  0.4553  0.1727
   16SAPS   O13 2009   1.038   6.436   1.946 -0.3107 -0.0130  0.1079
   16SAPS   O14 2010   1.224   6.260   1.917  0.1776  0.0859  0.0367
   16SAPS   O12 2011   1.242   6.491   1.805 -0.7888  0.1553 -0.4579
   16SAPS   O11 2012   1.261   6.467   2.048 -0.1695 -0.1037  0.0975
   16SAPS    C1 2013   1.393   6.429   2.087  0.5336  0.3043  0.7666
   16SAPS    HA 2014   1.445   6.368   2.011  1.0689 -2.4663  3.2155
   16SAPS    HB 2015   1.457   6.518   2.105 -0.1142  1.2482 -1.2600
   16SAPS    C2 2016   1.394   6.333   2.208 -0.4064 -0.0942  0.4075
   16SAPS    HS 2017   1.324   6.250   2.187  1.0838 -0.8719 -1.7764
   16SAPS   O21 2018   1.358   6.407   2.332  0.1074  0.6472  0.0699
   16SAPS   C21 2019   1.305   6.330   2.424 -0.0574  0.4917 -0.0372
   16SAPS   O22 2020   1.262   6.216   2.408  0.3193 -0.0784 -0.2301
   16SAPS   C22 2021   1.299   6.408   2.554 -0.1337 -0.7091 -1.1550
   16SAPS   H2R 2022   1.335   6.512   2.542  2.8903 -1.5374 -0.1027
   16SAPS   H2S 2023   1.190   6.398   2.575  0.2569 -1.9706  0.5045
   16SAPS    C3 2024   1.533   6.266   2.223  0.0282 -0.3213  0.3827
   16SAPS    HX 2025   1.618   6.337   2.208 -0.2195  0.3617  1.9577
   16SAPS    HY 2026   1.545   6.199   2.135 -1.4715 -1.6287  1.1509
   16SAPS   O31 2027   1.556   6.199   2.348  0.1003 -0.1761  0.7738
   16SAPS   C31 2028   1.523   6.071   2.338  0.3377  0.0931  0.5086
   16SAPS   O32 2029   1.462   6.019   2.245 -0.3496 -0.2827  0.0280
   16SAPS   C32 2030   1.593   5.994   2.452  0.5087 -0.1298  0.0911
   16SAPS   H2X 2031   1.698   6.027   2.463  0.0697  0.8026  1.9893
   16SAPS   H2Y 2032   1.585   5.887   2.424  2.9667 -0.5762  0.8542
   16SAPS   C23 2033   1.378   6.346   2.677  0.3533 -0.5006  0.0058
   16SAPS   H3R 2034   1.487   6.362   2.665  0.5102 -2.1470 -1.1224
   16SAPS   H3S 2035   1.348   6.239   2.680 -1.0626 -0.1242  0.6899
   16SAPS   C24 2036   1.345   6.415   2.814  0.3323  0.0771 -0.4912
   16SAPS   H4R 2037   1.389   6.355   2.896 -0.9122  2.3667  2.0519
   16SAPS   H4S 2038   1.234   6.411   2.818  0.3386 -0.1236 -0.5073
   16SAPS   C25 2039   1.398   6.559   2.820 -0.1384  0.3016 -0.4080
   16SAPS   H5R 2040   1.494   6.578   2.771 -0.5640 -1.2866 -1.9440
   16SAPS   C26 2041   1.337   6.663   2.867 -0.7626 -0.0716  0.3302
   16SAPS   H6R 2042   1.392   6.757   2.876 -2.1898  0.8245  0.0155
   16SAPS   C27 2043   1.205   6.675   2.939  0.4626 -0.2405 -0.0523
   16SAPS   H7R 2044   1.166   6.573   2.957  0.9774 -0.9490 -2.6304
   16SAPS   H7S 2045   1.131   6.728   2.875  1.0605  2.1222  1.0958
   16SAPS   C28 2046   1.216   6.756   3.060  0.3518  0.3386 -0.1074
   16SAPS   H8R 2047   1.143   6.839   3.054  0.3417  0.2986 -0.5063
   16SAPS   C29 2048   1.292   6.764   3.171  0.1828 -0.2937 -0.6607
   16SAPS   H9R 2049   1.269   6.839   3.248 -1.5518 -0.7028 -0.7456
   16SAPS  C210 2050   1.401   6.667   3.211  0.2817  0.3948  0.6909
   16SAPS  H10R 2051   1.438   6.717   3.303 -0.6650  1.3905  0.5575
   16SAPS  H10S 2052   1.492   6.669   3.147  0.2960 -0.9588  0.6335
   16SAPS  C211 2053   1.351   6.527   3.229 -0.9277 -0.0173 -0.5659
   16SAPS  H11R 2054   1.336   6.492   3.126  0.3661  1.7923 -1.4277
   16SAPS  C212 2055   1.351   6.448   3.340 -0.7901 -0.5514 -0.8556
   16SAPS  H12R 2056   1.329   6.340   3.332  0.3977 -0.9558  0.6452
   16SAPS  C213 2057   1.393   6.498   3.480 -0.0585  0.0327  0.9116
   16SAPS  H13R 2058   1.377   6.418   3.556 -0.3182  1.4795  2.4399
   16SAPS  H13S 2059   1.328   6.586   3.501 -1.2417 -0.1799 -1.5558
   16SAPS  C214 2060   1.542   6.532   3.490 -0.2968 -0.1455 -0.0817
   16SAPS  H14R 2061   1.588   6.531   3.390 -0.4032 -1.0134 -0.1279
   16SAPS  C215 2062   1.613   6.571   3.601 -0.1155  0.1699  0.4436
   16SAPS  H15R 2063   1.722   6.574   3.593  0.1628 -1.9176  2.4551
   16SAPS  C216 2064   1.565   6.588   3.741  0.1368 -1.1260  0.5077
   16SAPS  H16R 2065   1.590   6.502   3.807 -0.8274 -1.5938  0.2858
   16SAPS  H16S 2066   1.455   6.594   3.724  0.6757 -1.1811 -4.1383
   16SAPS  C217 2067   1.616   6.718   3.809 -0.1230 -0.2065 -0.2036
   16SAPS  H17R 2068   1.600   6.807   3.743  1.9282  0.1241 -0.3325
   16SAPS  H17S 2069   1.725   6.699   3.805 -0.0149  0.3196  0.1285
   16SAPS  C218 2070   1.566   6.718   3.951 -0.4043  0.2675  0.5576
   16SAPS  H18R 2071   1.566   6.621   4.004  0.5380  0.9730  1.8971
   16SAPS  H18S 2072   1.462   6.758   3.960 -0.8113 -0.1535 -1.6348
   16SAPS  C219 2073   1.632   6.829   4.038 -0.4237  0.6722  0.0763
   16SAPS  H19R 2074   1.609   6.931   4.002  0.5149  1.7466  2.3429
   16SAPS  H19S 2075   1.740   6.807   4.051 -1.0138 -1.7430  1.6736
   16SAPS  C220 2076   1.582   6.834   4.190  0.4142 -0.2673 -0.4541
   16SAPS  H20R 2077   1.651   6.892   4.255 -1.0957  1.8820 -0.6497
   16SAPS  H20S 2078   1.586   6.727   4.219  0.1604  0.9942  5.3105
   16SAPS  H20T 2079   1.486   6.881   4.220  1.2229  0.4766  1.0833
   16SAPS   C33 2080   1.528   6.013   2.587  0.6783 -0.1940  0.6587
   16SAPS   H3X 2081   1.418   6.030   2.579  0.7547  1.0957  1.9427
   16SAPS   H3Y 2082   1.561   6.114   2.619 -1.1733  1.2196 -1.5106
   16SAPS   C34 2083   1.565   5.902   2.680 -0.7409  0.4468  0.3231
   16SAPS   H4X 2084   1.544   5.802   2.636  0.7991 -0.1408  0.8199
   16SAPS   H4Y 2085   1.508   5.898   2.776 -0.5390  1.2864  0.4822
   16SAPS   C35 2086   1.712   5.904   2.714  0.1516  0.2220  0.4508
   16SAPS   H5X 2087   1.734   5.998   2.769 -0.1574  0.6999 -0.2271
   16SAPS   H5Y 2088   1.776   5.886   2.625 -0.2022 -2.2509  0.6217
   16SAPS   C36 2089   1.737   5.792   2.814  0.7059  0.1414  0.0845
   16SAPS   H6X 2090   1.847   5.786   2.819  0.8785  0.0559 -2.4354
   16SAPS   H6Y 2091   1.698   5.697   2.773 -1.2022  1.2754 -0.8819
   16SAPS   C37 2092   1.690   5.825   2.955  0.3994 -0.3700 -0.4523
   16SAPS   H7X 2093   1.579   5.824   2.950  0.3742  1.9895 -1.6153
   16SAPS   H7Y 2094   1.743   5.921   2.975  0.2600 -0.0956 -1.3928
   16SAPS   C38 2095   1.737   5.732   3.067 -0.3515  0.9376 -0.4113
   16SAPS   H8X 2096   1.845   5.709   3.058 -0.4589 -0.8286  1.7621
   16SAPS   H8Y 2097   1.685   5.634   3.055  0.4102  0.7119 -2.0430
   16SAPS   C39 2098   1.691   5.807   3.198  0.4720  0.4590  0.6323
   16SAPS   H9X 2099   1.583   5.783   3.208  0.1497  1.4220 -0.3910
   16SAPS   H9Y 2100   1.706   5.916   3.190 -1.6078  0.6720 -1.7737
   16SAPS  C310 2101   1.765   5.758   3.322  0.0950 -0.0588 -0.4026
   16SAPS  H10X 2102   1.761   5.648   3.308 -0.2280  0.0940 -1.6475
   16SAPS  H10Y 2103   1.701   5.799   3.403  0.1005 -0.1804 -0.3367
   16SAPS  C311 2104   1.906   5.797   3.345 -0.7964  0.3761  0.3840
   16SAPS  H11X 2105   1.917   5.907   3.356  1.2092  0.0812  1.8272
   16SAPS  H11Y 2106   1.967   5.768   3.257  0.1237  2.3258  0.3310
   16SAPS  C312 2107   1.968   5.740   3.476  0.3698 -0.1139 -0.0427
   16SAPS  H12X 2108   2.078   5.747   3.478  0.3054  1.0470  2.3010
   16SAPS  H12Y 2109   1.929   5.636   3.481 -1.5441  0.5550 -0.2757
   16SAPS  C313 2110   1.912   5.816   3.598  0.0064  0.2571  0.3297
   16SAPS  H13X 2111   1.801   5.808   3.595 -0.0396  1.1725 -0.9484
   16SAPS  H13Y 2112   1.949   5.920   3.591 -3.2197  1.5007  0.2376
   16SAPS  C314 2113   1.948   5.745   3.729 -0.0409  0.0337 -0.6992
   16SAPS  H14X 2114   2.058   5.731   3.730  0.1591  1.4191 -1.2487
   16SAPS  H14Y 2115   1.900   5.645   3.735  2.4158 -1.1966 -0.5163
   16SAPS  C315 2116   1.908   5.827   3.844  0.1653 -0.9355  0.5941
   16SAPS  H15X 2117   1.801   5.856   3.834  0.6756  1.0005  0.1855
   16SAPS  H15Y 2118   1.964   5.923   3.853  2.7507 -2.3693  0.8463
   16SAPS  C316 2119   1.924   5.763   3.980 -0.3846  0.2651  0.4032
   16SAPS  H16X 2120   1.914   5.653   3.967  1.8281  0.0323  0.2883
   16SAPS  H16Y 2121   1.840   5.794   4.047 -1.5805  0.8693 -1.2905
   16SAPS  C317 2122   2.051   5.790   4.052 -0.3697 -0.5450 -0.3583
   16SAPS  H17X 2123   2.061   5.900   4.063  0.5161 -0.5822 -0.6661
   16SAPS  H17Y 2124   2.143   5.756   4.000  0.2910  0.5717  0.0422
   16SAPS  C318 2125   2.049   5.734   4.196  0.0834  0.1154  0.0270
   16SAPS  H18X 2126   2.045   5.624   4.212  1.1658  0.1695  0.7345
   16SAPS  H18Y 2127   1.965   5.770   4.260 -1.3663 -1.2843 -1.0047
   16SAPS  H18Z 2128   2.145   5.754   4.247  0.3614 -0.6000 -0.1970
   17SAPS     N 2129   3.747   4.025   1.801 -0.2937  0.0928  0.3727
   17SAPS   HN1 2130   3.786   4.116   1.770 -0.7599 -0.0889 -0.7927
   17SAPS   HN2 2131   3.646   4.017   1.775 -0.3980  4.4514 -1.2533
   17SAPS   HN3 2132   3.761   4.048   1.902  2.7820  4.8633 -0.8402
   17SAPS   C12 2133   3.840   3.923   1.753  0.1465  0.1307 -0.7969
   17SAPS  H12A 2134   3.792   3.827   1.767 -0.2206  0.5895  1.4706
   17SAPS   C13 2135   3.884   3.949   1.605  0.7898  0.8472  0.6283
   17SAPS  O13A 2136   3.796   3.978   1.515 -0.4408 -0.5735  0.0303
   17SAPS  O13B 2137   3.986   3.884   1.572 -0.1244  0.1606 -0.2942
   17SAPS   C11 2138   3.960   3.924   1.846 -0.5583 -0.4429 -0.2455
   17SAPS  H11A 2139   4.018   4.016   1.823  0.9464 -1.8942 -2.6900
   17SAPS  H11B 2140   4.030   3.848   1.806  2.7008  2.7859 -1.1941
   17SAPS     P 2141   4.071   3.883   2.084  0.1392  0.5353  0.2734
   17SAPS   O13 2142   4.189   3.949   2.022 -0.5168  0.1260 -0.2146
   17SAPS   O14 2143   4.036   3.931   2.218 -0.3626  0.3341 -0.1776
   17SAPS   O12 2144   3.948   3.906   1.987  0.2463 -0.6154  0.0998
   17SAPS   O11 2145   4.092   3.721   2.074  0.5851 -0.0070 -0.3376
   17SAPS    C1 2146   3.976   3.629   2.084 -0.5895 -1.1425  0.2212
   17SAPS    HA 2147   3.880   3.681   2.064 -0.8608 -2.1897 -1.3809
   17SAPS    HB 2148   3.980   3.553   2.004  0.1685  0.9112 -1.8208
   17SAPS    C2 2149   3.980   3.551   2.220 -0.3995 -0.2310 -0.3103
   17SAPS    HS 2150   4.086   3.535   2.248 -0.3476  0.7396  0.0916
   17SAPS   O21 2151   3.912   3.428   2.205 -0.1041  0.3247 -0.0279
   17SAPS   C21 2152   3.985   3.330   2.159 -0.2503 -0.0517 -0.3237
   17SAPS   O22 2153   4.091   3.339   2.100  0.2036  0.2997  0.0995
   17SAPS   C22 2154   3.902   3.203   2.189  0.8109 -0.0314  0.0855
   17SAPS   H2R 2155   3.850   3.210   2.288  0.7648 -0.6330  0.1079
   17SAPS   H2S 2156   3.831   3.176   2.108  2.2327  0.7645 -1.4881
   17SAPS    C3 2157   3.918   3.632   2.343 -0.0147 -0.4428 -0.5662
   17SAPS    HX 2158   3.813   3.660   2.321 -0.6960 -1.0381  1.6035
   17SAPS    HY 2159   3.972   3.727   2.363 -1.2187  0.2785 -0.6874
   17SAPS   O31 2160   3.943   3.563   2.467 -0.1256 -0.0243  0.2875
   17SAPS   C31 2161   3.850   3.490   2.513 -0.1726  0.3894  0.5218
   17SAPS   O32 2162   3.745   3.457   2.456 -1.0571 -0.0408  0.5050
   17SAPS   C32 2163   3.893   3.440   2.650  0.2953 -0.1496  0.0569
   17SAPS   H2X 2164   3.913   3.519   2.726  1.0427  1.1576 -1.4565
   17SAPS   H2Y 2165   3.992   3.390   2.644  0.6860  0.4975  0.8627
   17SAPS   C23 2166   3.996   3.082   2.211  0.1661 -0.6366  0.2499
   17SAPS   H3R 2167   4.104   3.108   2.210 -0.2255  1.0505 -0.2405
   17SAPS   H3S 2168   3.973   3.001   2.138 -0.3332  0.4689 -0.8458
   17SAPS   C24 2169   3.981   2.997   2.339  0.0630  0.1621 -0.1355
   17SAPS   H4R 2170   4.046   2.908   2.329 -0.5971 -0.1362 -2.0549
   17SAPS   H4S 2171   3.884   2.943   2.341  1.1817 -1.9080  0.8033
   17SAPS   C25 2172   4.001   3.074   2.462  0.2865  0.2576 -0.7130
   17SAPS   H5R 2173   3.909   3.107   2.514  0.4515 -0.7146  0.2438
   17SAPS   C26 2174   4.120   3.087   2.526  0.1801 -0.4298  0.4111
   17SAPS   H6R 2175   4.134   3.145   2.618 -1.6935 -1.2311  1.2463
   17SAPS   C27 2176   4.254   3.033   2.483  0.1319 -0.0601 -0.2491
   17SAPS   H7R 2177   4.242   2.952   2.408 -1.0833 -1.0722  1.0029
   17SAPS   H7S 2178   4.304   2.981   2.568  2.1485  2.6517  0.3910
   17SAPS   C28 2179   4.346   3.140   2.422 -0.5249 -0.1726  0.3115
   17SAPS   H8R 2180   4.323   3.165   2.318 -1.5933  2.5085  1.1171
   17SAPS   C29 2181   4.458   3.185   2.481 -0.5474 -0.3653  0.7148
   17SAPS   H9R 2182   4.523   3.259   2.434  0.7553 -1.0695  1.3585
   17SAPS  C210 2183   4.503   3.160   2.618 -0.1814 -0.5420  0.4419
   17SAPS  H10R 2184   4.586   3.088   2.631 -0.4359 -0.3777  4.1843
   17SAPS  H10S 2185   4.422   3.106   2.673  1.0450 -1.5581  1.2975
   17SAPS  C211 2186   4.540   3.285   2.688 -0.3445  0.3191 -0.2303
   17SAPS  H11R 2187   4.609   3.358   2.645  0.3695  0.1845  0.6656
   17SAPS  C212 2188   4.489   3.327   2.801 -0.3220  0.2826 -0.0672
   17SAPS  H12R 2189   4.533   3.420   2.839  0.5045  0.5374 -1.5764
   17SAPS  C213 2190   4.389   3.256   2.896 -0.3463 -0.9627 -0.0791
   17SAPS  H13R 2191   4.308   3.223   2.828 -1.3437 -0.8970  1.0542
   17SAPS  H13S 2192   4.346   3.336   2.960  3.2717  2.0612 -1.0669
   17SAPS  C214 2193   4.438   3.152   2.994  0.1155  0.9637 -0.3817
   17SAPS  H14R 2194   4.526   3.183   3.053  0.8424  1.1116 -1.5018
   17SAPS  C215 2195   4.373   3.037   3.016 -0.4112 -0.0280  0.5711
   17SAPS  H15R 2196   4.411   2.976   3.099 -0.0773  0.4728  0.7890
   17SAPS  C216 2197   4.249   2.985   2.952  0.1137 -0.0198  0.0320
   17SAPS  H16R 2198   4.268   2.923   2.862  0.7196  0.6160 -0.2844
   17SAPS  H16S 2199   4.184   3.071   2.924 -0.9900  0.1027  2.6698
   17SAPS  C217 2200   4.174   2.904   3.054 -0.1729  0.0047 -0.1817
   17SAPS  H17R 2201   4.236   2.827   3.105 -0.9079  1.3110  2.9060
   17SAPS  H17S 2202   4.084   2.859   3.006 -0.2607 -0.0887  0.0730
   17SAPS  C218 2203   4.117   2.984   3.170 -0.4796  0.6452 -0.0392
   17SAPS  H18R 2204   4.016   3.022   3.140 -1.4502 -1.8916 -0.2094
   17SAPS  H18S 2205   4.179   3.073   3.194  0.7142  0.4849 -2.2807
   17SAPS  C219 2206   4.099   2.902   3.298  0.2671  0.1152  0.4471
   17SAPS  H19R 2207   4.201   2.863   3.318  1.1789  2.4917  0.7623
   17SAPS  H19S 2208   4.032   2.818   3.269  2.6405 -2.1179  1.0538
   17SAPS  C220 2209   4.060   2.991   3.408  0.0823  0.7488 -0.0542
   17SAPS  H20R 2210   4.072   2.945   3.508  0.0906  1.8699  0.4818
   17SAPS  H20S 2211   3.959   3.034   3.389 -0.1507  0.1359 -0.2065
   17SAPS  H20T 2212   4.129   3.079   3.414 -0.2039  1.0653 -1.2076
   17SAPS   C33 2213   3.785   3.350   2.710 -0.2092  0.7236  0.6062
   17SAPS   H3X 2214   3.761   3.276   2.630 -0.6637 -0.4825  1.8190
   17SAPS   H3Y 2215   3.686   3.398   2.725 -0.6443  0.1796 -0.4129
   17SAPS   C34 2216   3.826   3.270   2.832  0.1312  0.5252 -0.1902
   17SAPS   H4X 2217   3.899   3.191   2.804 -1.2171 -0.8995  0.1544
   17SAPS   H4Y 2218   3.744   3.202   2.865 -0.2989  0.5892 -1.0687
   17SAPS   C35 2219   3.865   3.358   2.945  0.5370 -0.0168 -0.0483
   17SAPS   H5X 2220   3.793   3.442   2.956  1.2708  0.5564  0.4278
   17SAPS   H5Y 2221   3.962   3.406   2.924 -0.0705  1.8795  1.2020
   17SAPS   C36 2222   3.866   3.287   3.080 -0.6846  0.1765  0.3824
   17SAPS   H6X 2223   3.939   3.203   3.084 -0.6989  0.0731 -0.9069
   17SAPS   H6Y 2224   3.762   3.252   3.092 -0.5477 -1.2954 -2.0052
   17SAPS   C37 2225   3.912   3.376   3.192  0.4431  0.2268 -0.5333
   17SAPS   H7X 2226   3.850   3.467   3.186  1.0472  0.5756 -1.7690
   17SAPS   H7Y 2227   4.014   3.409   3.161  0.6386 -0.0559 -0.2014
   17SAPS   C38 2228   3.927   3.309   3.328 -0.1527 -0.4289  0.4441
   17SAPS   H8X 2229   4.008   3.235   3.308 -0.6784 -0.8763 -0.1062
   17SAPS   H8Y 2230   3.829   3.264   3.354 -0.2943 -0.0959  0.4876
   17SAPS   C39 2231   3.966   3.406   3.436 -0.3877  0.0170  0.4602
   17SAPS   H9X 2232   3.889   3.476   3.475 -0.7913 -0.6737  0.9274
   17SAPS   H9Y 2233   4.048   3.466   3.390  0.9327 -2.0714 -0.0299
   17SAPS  C310 2234   4.018   3.326   3.556  0.0525 -0.4536  0.2033
   17SAPS  H10X 2235   4.105   3.263   3.529 -0.2499 -0.9518  0.3896
   17SAPS  H10Y 2236   3.940   3.250   3.579 -1.0623  0.7444  0.5519
   17SAPS  C311 2237   4.049   3.415   3.677  0.2610 -0.4940 -0.3187
   17SAPS  H11X 2238   3.950   3.451   3.710  0.9082  0.5986  0.5126
   17SAPS  H11Y 2239   4.101   3.505   3.636 -0.3420 -0.1099 -0.2531
   17SAPS  C312 2240   4.126   3.346   3.787 -0.4452  0.0063  0.2832
   17SAPS  H12X 2241   4.215   3.303   3.736 -1.1635  0.8044 -1.7389
   17SAPS  H12Y 2242   4.062   3.267   3.833 -0.9990 -0.8330 -1.8233
   17SAPS  C313 2243   4.178   3.451   3.892  0.6267  0.1954 -0.5337
   17SAPS  H13X 2244   4.199   3.394   3.984 -1.6789 -2.0997 -1.3323
   17SAPS  H13Y 2245   4.094   3.518   3.921  0.2793  0.3144 -1.7487
   17SAPS  C314 2246   4.283   3.554   3.852  0.1322 -0.2408 -0.3922
   17SAPS  H14X 2247   4.260   3.628   3.773  1.4795  0.7606  0.1219
   17SAPS  H14Y 2248   4.376   3.500   3.825  1.0673  0.6832  0.8886
   17SAPS  C315 2249   4.310   3.631   3.980 -0.4984 -0.0560 -0.0846
   17SAPS  H15X 2250   4.333   3.564   4.066 -2.6885  0.4030  0.9162
   17SAPS  H15Y 2251   4.207   3.661   4.010 -1.1839 -1.5502 -0.8119
   17SAPS  C316 2252   4.431   3.726   3.967 -0.0349 -0.4781  0.2844
   17SAPS  H16X 2253   4.407   3.799   3.887  0.7757  0.5562  0.9526
   17SAPS  H16Y 2254   4.525   3.671   3.947  0.5515  0.0306  1.5682
   17SAPS  C317 2255   4.460   3.816   4.093 -0.2479 -0.7558 -0.9880
   17SAPS  H17X 2256   4.358   3.843   4.130  0.9189  3.1281 -0.2040
   17SAPS  H17Y 2257   4.502   3.910   4.053 -0.3140 -1.7953 -3.7557
   17SAPS  C318 2258   4.555   3.756   4.199 -0.8745 -0.0953  0.5656
   17SAPS  H18X 2259   4.495   3.685   4.261 -0.2211 -0.1382  1.1670
   17SAPS  H18Y 2260   4.603   3.832   4.264  0.8836 -0.6158 -0.0617
   17SAPS  H18Z 2261   4.637   3.703   4.146 -1.2148  1.4737 -1.6228
   18SAPS     N 2262   6.711   4.086   1.522  0.3119 -0.9104  0.4037
   18SAPS   HN1 2263   6.743   4.185   1.523 -2.3187  0.0186  1.8795
   18SAPS   HN2 2264   6.730   4.053   1.426  1.4689  1.2766 -0.1944
   18SAPS   HN3 2265   6.610   4.092   1.546  0.1075  2.7862 -0.7244
   18SAPS   C12 2266   6.795   4.014   1.624  0.3449 -0.4085  0.6097
   18SAPS  H12A 2267   6.775   3.908   1.623  0.3358 -0.4062  0.5173
   18SAPS   C13 2268   6.951   4.020   1.597 -0.3355  0.1852 -0.0343
   18SAPS  O13A 2269   6.994   4.117   1.528 -0.2758  0.4041  0.2579
   18SAPS  O13B 2270   7.028   3.961   1.675  0.0281 -0.6172 -0.5422
   18SAPS   C11 2271   6.768   4.078   1.759 -0.1686 -0.2092 -0.3093
   18SAPS  H11A 2272   6.801   4.184   1.749 -0.0570 -0.3829 -2.2545
   18SAPS  H11B 2273   6.833   4.030   1.835 -2.2198 -1.4984  0.7268
   18SAPS     P 2274   6.560   3.952   1.861 -0.3924 -0.0144 -0.1179
   18SAPS   O13 2275   6.424   4.006   1.891  0.3044  0.2973 -0.2236
   18SAPS   O14 2276   6.566   3.830   1.779  0.4477  0.1332 -0.1492
   18SAPS   O12 2277   6.629   4.073   1.788 -0.0242 -0.1466  0.1723
   18SAPS   O11 2278   6.639   3.940   1.995  0.3683  0.5201 -0.4563
   18SAPS    C1 2279   6.649   4.046   2.088  0.3340 -0.1368 -0.1156
   18SAPS    HA 2280   6.752   4.087   2.086  0.5220 -0.1982  2.9585
   18SAPS    HB 2281   6.577   4.127   2.062  1.6997  0.5681 -1.8917
   18SAPS    C2 2282   6.615   3.998   2.232 -0.5439  0.0695  0.3748
   18SAPS    HS 2283   6.623   4.078   2.308 -0.3346 -2.8696  3.7237
   18SAPS   O21 2284   6.714   3.896   2.268 -0.0861  0.2029 -0.0162
   18SAPS   C21 2285   6.835   3.945   2.280  0.0903 -0.4340  0.9304
   18SAPS   O22 2286   6.865   4.064   2.282 -0.4277  0.7084 -0.6342
   18SAPS   C22 2287   6.927   3.829   2.311  0.0960  0.5603  0.3572
   18SAPS   H2R 2288   6.922   3.768   2.218  1.3939  0.4762  0.3243
   18SAPS   H2S 2289   7.026   3.877   2.324 -0.0988  0.9108  0.5508
   18SAPS    C3 2290   6.465   3.952   2.236 -0.0489  0.1119  0.1540
   18SAPS    HX 2291   6.438   3.878   2.157 -1.2775 -0.3124  0.9406
   18SAPS    HY 2292   6.416   4.050   2.218  1.2717  0.9192  0.8802
   18SAPS   O31 2293   6.441   3.892   2.366  0.0910  0.4100 -0.4466
   18SAPS   C31 2294   6.328   3.943   2.424 -1.3973 -0.1261 -1.1176
   18SAPS   O32 2295   6.260   4.037   2.380  0.3639 -0.4214  0.2109
   18SAPS   C32 2296   6.302   3.871   2.553  0.3152 -0.4712 -0.5366
   18SAPS   H2X 2297   6.385   3.801   2.578  2.3471  1.3729 -1.7831
   18SAPS   H2Y 2298   6.207   3.817   2.536 -0.2701  0.5762 -0.6680
   18SAPS   C23 2299   6.903   3.735   2.429 -0.0319  0.2126  0.2337
   18SAPS   H3R 2300   6.804   3.685   2.423  0.0610  0.0551 -0.0048
   18SAPS   H3S 2301   6.893   3.792   2.523  0.1037  0.8659 -0.1428
   18SAPS   C24 2302   7.004   3.623   2.455 -0.2855 -0.0932 -0.4142
   18SAPS   H4R 2303   7.017   3.555   2.367 -0.6338  0.1170 -0.6324
   18SAPS   H4S 2304   6.963   3.560   2.537  1.6338 -1.4262 -0.4328
   18SAPS   C25 2305   7.142   3.682   2.488 -0.4751  0.6556 -0.8697
   18SAPS   H5R 2306   7.199   3.729   2.406 -2.1446  0.4816 -2.1612
   18SAPS   C26 2307   7.223   3.673   2.602  0.3273 -0.5086 -0.3812
   18SAPS   H6R 2308   7.320   3.725   2.601  0.4310 -0.6967 -1.2265
   18SAPS   C27 2309   7.186   3.614   2.742  0.0528  0.1298  0.5652
   18SAPS   H7R 2310   7.279   3.625   2.802 -0.4329  0.3486  1.2995
   18SAPS   H7S 2311   7.183   3.503   2.735 -1.2627  0.2707 -2.6303
   18SAPS   C28 2312   7.068   3.673   2.818  0.5243  0.3236  0.1991
   18SAPS   H8R 2313   6.991   3.718   2.754 -1.5929 -1.1740  1.5541
   18SAPS   C29 2314   7.048   3.674   2.954  0.2042 -0.0026  0.6523
   18SAPS   H9R 2315   6.962   3.730   2.994 -0.6059 -0.3743 -0.5195
   18SAPS  C210 2316   7.131   3.598   3.054 -0.1316 -0.5447 -0.2041
   18SAPS  H10R 2317   7.207   3.530   3.009 -0.8143 -0.4345 -1.5542
   18SAPS  H10S 2318   7.065   3.523   3.104 -2.4697 -1.1580 -3.8602
   18SAPS  C211 2319   7.204   3.684   3.153  0.0678  0.3633  0.5210
   18SAPS  H11R 2320   7.193   3.792   3.131 -0.6589  0.4048  1.0501
   18SAPS  C212 2321   7.290   3.646   3.246 -0.0276 -0.5440  0.8068
   18SAPS  H12R 2322   7.333   3.713   3.322  2.8063 -2.1812  0.8082
   18SAPS  C213 2323   7.339   3.509   3.268 -0.4462 -0.3634 -0.3905
   18SAPS  H13R 2324   7.274   3.427   3.229  0.3377 -0.9200 -0.5447
   18SAPS  H13S 2325   7.340   3.496   3.379 -0.7245  0.4766 -0.2847
   18SAPS  C214 2326   7.481   3.493   3.213  0.6669  0.0136  1.2835
   18SAPS  H14R 2327   7.483   3.463   3.107 -0.2193 -0.1910  1.3148
   18SAPS  C215 2328   7.590   3.516   3.281 -0.0508 -0.5046 -0.4331
   18SAPS  H15R 2329   7.688   3.501   3.234  0.5774 -1.2804  1.0372
   18SAPS  C216 2330   7.592   3.571   3.422 -0.1305  0.0223  1.0567
   18SAPS  H16R 2331   7.497   3.627   3.438 -0.1552  0.7034 -1.0396
   18SAPS  H16S 2332   7.675   3.644   3.428 -1.3783  1.3662  2.7930
   18SAPS  C217 2333   7.603   3.454   3.524 -0.0559  0.0715  0.5837
   18SAPS  H17R 2334   7.697   3.396   3.516  0.3196  0.5151  1.6273
   18SAPS  H17S 2335   7.523   3.380   3.502 -0.7378  0.7501  0.7260
   18SAPS  C218 2336   7.582   3.494   3.674  0.2707  0.0898  0.0071
   18SAPS  H18R 2337   7.534   3.413   3.732  0.1528  1.4565  1.8864
   18SAPS  H18S 2338   7.512   3.579   3.686  0.8684  0.4064  1.3762
   18SAPS  C219 2339   7.716   3.528   3.745 -0.2046  0.1841 -0.7945
   18SAPS  H19R 2340   7.763   3.604   3.679 -2.8428  2.2232 -0.5189
   18SAPS  H19S 2341   7.777   3.438   3.768 -0.3824  0.0541 -0.8282
   18SAPS  C220 2342   7.696   3.595   3.884 -0.2611 -0.4492 -0.0153
   18SAPS  H20R 2343   7.639   3.688   3.863 -0.0881 -0.1485  0.8245
   18SAPS  H20S 2344   7.794   3.615   3.933 -0.1850 -0.4263 -0.1749
   18SAPS  H20T 2345   7.639   3.532   3.955 -0.7266 -0.2077 -0.1686
   18SAPS   C33 2346   6.307   3.968   2.677 -0.2820 -0.0446 -1.0253
   18SAPS   H3X 2347   6.222   4.039   2.671 -1.9414 -1.9021 -0.4679
   18SAPS   H3Y 2348   6.397   4.033   2.668 -1.0340  0.9650 -1.3951
   18SAPS   C34 2349   6.305   3.893   2.809 -0.2225 -0.2584  0.1205
   18SAPS   H4X 2350   6.285   3.964   2.892 -1.8741  0.0894 -0.5268
   18SAPS   H4Y 2351   6.391   3.829   2.836  0.9242 -0.4716 -3.4596
   18SAPS   C35 2352   6.173   3.807   2.824  0.0228  0.5088  0.6829
   18SAPS   H5X 2353   6.183   3.747   2.916 -0.9990  0.0539  0.5027
   18SAPS   H5Y 2354   6.153   3.741   2.737 -0.2153 -0.3429  1.3763
   18SAPS   C36 2355   6.048   3.894   2.855 -0.7848  0.0900  0.7669
   18SAPS   H6X 2356   6.030   3.952   2.763 -1.4433  1.2260  1.5874
   18SAPS   H6Y 2357   6.081   3.972   2.926  3.0326 -1.9748  1.5100
   18SAPS   C37 2358   5.932   3.811   2.902 -0.3562  0.2140  0.1552
   18SAPS   H7X 2359   5.944   3.717   2.844  0.3454 -0.4276  1.3131
   18SAPS   H7Y 2360   5.838   3.870   2.893  0.4514  1.2387 -2.7900
   18SAPS   C38 2361   5.931   3.752   3.047 -1.0942 -0.3032  0.0267
   18SAPS   H8X 2362   6.036   3.720   3.067 -0.6014  1.2244 -0.0209
   18SAPS   H8Y 2363   5.859   3.668   3.050 -1.0352 -0.3432  0.3737
   18SAPS   C39 2364   5.896   3.875   3.141 -0.5621 -0.2339 -0.2911
   18SAPS   H9X 2365   5.785   3.876   3.137 -0.6114  0.6891  0.7072
   18SAPS   H9Y 2366   5.947   3.967   3.107  0.7685 -0.3021  1.3762
   18SAPS  C310 2367   5.920   3.841   3.290 -0.0468  0.0786 -0.4576
   18SAPS  H10X 2368   6.023   3.800   3.292  0.2803  0.8986  0.0403
   18SAPS  H10Y 2369   5.853   3.761   3.329 -0.1392  0.1276 -0.5176
   18SAPS  C311 2370   5.898   3.966   3.387  0.2072  0.0863 -0.3293
   18SAPS  H11X 2371   5.789   3.984   3.372  0.4932  1.5070 -0.8116
   18SAPS  H11Y 2372   5.957   4.052   3.349  1.7798 -0.8299 -0.0632
   18SAPS  C312 2373   5.941   3.935   3.529 -0.7511 -0.8583 -0.1411
   18SAPS  H12X 2374   6.046   3.902   3.535 -0.7460 -0.9086 -0.4658
   18SAPS  H12Y 2375   5.873   3.865   3.581  0.2954 -1.9473 -0.2052
   18SAPS  C313 2376   5.920   4.060   3.607 -0.8440  0.2183 -0.5798
   18SAPS  H13X 2377   5.914   4.021   3.711 -0.9812 -1.3380 -1.1483
   18SAPS  H13Y 2378   5.818   4.092   3.578 -1.8855 -0.6474  1.8386
   18SAPS  C314 2379   6.021   4.175   3.601  0.0440  0.1544  0.3805
   18SAPS  H14X 2380   6.014   4.218   3.499  0.3083 -0.6934  0.0035
   18SAPS  H14Y 2381   6.126   4.140   3.611  0.5694  0.4168 -3.1560
   18SAPS  C315 2382   6.001   4.290   3.709 -0.1387  0.3871 -0.0083
   18SAPS  H15X 2383   5.910   4.351   3.690 -0.2088  2.2190  4.6980
   18SAPS  H15Y 2384   6.093   4.351   3.702  1.0236 -1.1933  0.7716
   18SAPS  C316 2385   5.988   4.240   3.851 -0.0447  0.7751 -0.4864
   18SAPS  H16X 2386   6.054   4.152   3.865 -0.4687  0.8727  3.0875
   18SAPS  H16Y 2387   5.884   4.211   3.876 -0.1854  0.5934 -1.2754
   18SAPS  C317 2388   6.018   4.339   3.960 -0.0450 -0.2781 -0.3270
   18SAPS  H17X 2389   6.129   4.347   3.968 -0.0976 -1.1798  2.5544
   18SAPS  H17Y 2390   5.976   4.301   4.056 -0.1908 -1.3738 -0.8152
   18SAPS  C318 2391   5.952   4.480   3.936  0.5026  0.9141 -0.2258
   18SAPS  H18X 2392   5.968   4.517   3.833 -2.2179  3.6941  0.2151
   18SAPS  H18Y 2393   5.993   4.557   4.004 -2.3455  1.7355  0.7047
   18SAPS  H18Z 2394   5.843   4.474   3.957  0.3167 -1.6079 -1.4789
   19SAPS     N 2395   6.225   6.237   2.203 -0.1583  0.3492 -0.0301
   19SAPS   HN1 2396   6.183   6.331   2.188  0.9228  0.3977 -3.6235
   19SAPS   HN2 2397   6.144   6.174   2.188 -0.9554  1.4275 -0.4028
   19SAPS   HN3 2398   6.264   6.216   2.297 -0.8175  1.4278  0.5072
   19SAPS   C12 2399   6.334   6.230   2.103  0.3166 -0.0196  0.4140
   19SAPS  H12A 2400   6.380   6.134   2.119 -0.4319 -0.2160  1.5006
   19SAPS   C13 2401   6.286   6.245   1.956  0.1467 -0.0581 -0.1863
   19SAPS  O13A 2402   6.163   6.251   1.919 -0.0109 -0.1513  0.3246
   19SAPS  O13B 2403   6.374   6.240   1.870 -0.0228  0.5563 -0.4668
   19SAPS   C11 2404   6.426   6.351   2.130 -0.2530  0.4414 -0.2389
   19SAPS  H11A 2405   6.369   6.446   2.126  1.4214  1.5041  0.0945
   19SAPS  H11B 2406   6.489   6.361   2.039 -0.2901  3.0893 -0.0374
   19SAPS     P 2407   6.605   6.463   2.275  0.0544  0.1643  0.0920
   19SAPS   O13 2408   6.739   6.403   2.286 -0.4219  0.3522  0.3426
   19SAPS   O14 2409   6.601   6.577   2.183  0.2153  0.7300 -0.8777
   19SAPS   O12 2410   6.503   6.347   2.248 -0.2290 -0.1699  0.0896
   19SAPS   O11 2411   6.551   6.504   2.415 -0.0839  0.1210 -0.6679
   19SAPS    C1 2412   6.409   6.526   2.453 -0.1592  0.2434 -0.7054
   19SAPS    HA 2413   6.381   6.630   2.425  0.4178  0.1606 -1.6493
   19SAPS    HB 2414   6.343   6.452   2.404 -1.3408 -1.1396  2.7092
   19SAPS    C2 2415   6.391   6.517   2.608 -0.4551 -0.0553 -0.3180
   19SAPS    HS 2416   6.286   6.485   2.626 -0.8478  1.2445 -0.1423
   19SAPS   O21 2417   6.405   6.642   2.676 -0.0326  0.0885  0.3538
   19SAPS   C21 2418   6.302   6.736   2.676 -0.1703 -0.0932  0.4569
   19SAPS   O22 2419   6.192   6.717   2.630 -0.4949 -0.0576 -0.3034
   19SAPS   C22 2420   6.345   6.860   2.741  0.2551 -0.2304 -0.3812
   19SAPS   H2R 2421   6.454   6.866   2.756  0.2242 -2.5671  1.4025
   19SAPS   H2S 2422   6.304   6.942   2.678 -1.5838 -1.5240 -0.9764
   19SAPS    C3 2423   6.481   6.412   2.680  0.2177 -0.1161  0.0540
   19SAPS    HX 2424   6.582   6.455   2.699 -0.4419  1.3447  0.3961
   19SAPS    HY 2425   6.496   6.321   2.618  0.0140  0.9968 -1.6989
   19SAPS   O31 2426   6.431   6.384   2.811 -0.2182  0.1043 -0.2992
   19SAPS   C31 2427   6.373   6.270   2.824  0.2137  0.1210 -0.4732
   19SAPS   O32 2428   6.340   6.186   2.739 -0.2173  0.7429 -0.5536
   19SAPS   C32 2429   6.371   6.231   2.964 -0.5194 -0.5431  0.1420
   19SAPS   H2X 2430   6.323   6.312   3.023  1.5578  1.5726 -0.9202
   19SAPS   H2Y 2431   6.474   6.223   3.006 -0.9515 -1.8655  1.0133
   19SAPS   C23 2432   6.280   6.871   2.883  0.2289 -0.7774 -0.0742
   19SAPS   H3R 2433   6.170   6.881   2.865  0.2372 -3.9625 -3.0592
   19SAPS   H3S 2434   6.316   6.963   2.934 -1.3684 -0.9185  1.3938
   19SAPS   C24 2435   6.321   6.756   2.980  0.4435 -0.1983  0.4060
   19SAPS   H4R 2436   6.270   6.668   2.937  2.0058 -0.4669 -1.0025
   19SAPS   H4S 2437   6.277   6.771   3.081 -0.6666  1.2982 -0.2645
   19SAPS   C25 2438   6.466   6.742   2.986 -0.0760  0.1328  0.8203
   19SAPS   H5R 2439   6.495   6.684   2.897 -2.8251 -0.3038  0.1191
   19SAPS   C26 2440   6.552   6.787   3.081 -0.5755  0.2010  0.4567
   19SAPS   H6R 2441   6.655   6.750   3.070 -1.1212 -0.7748 -1.8244
   19SAPS   C27 2442   6.520   6.857   3.205  0.3536  0.3775 -0.4615
   19SAPS   H7R 2443   6.425   6.811   3.239  0.9137  0.6334  1.5645
   19SAPS   H7S 2444   6.506   6.964   3.182 -0.0331  0.2540 -0.8073
   19SAPS   C28 2445   6.626   6.826   3.313  0.2152  0.3853  0.3357
   19SAPS   H8R 2446   6.721   6.780   3.284 -0.0503  1.3613 -2.3047
   19SAPS   C29 2447   6.623   6.876   3.438 -0.7484  0.3216  0.7463
   19SAPS   H9R 2448   6.714   6.861   3.496  1.0685 -2.5081 -2.4643
   19SAPS  C210 2449   6.507   6.952   3.494 -0.9266  0.1708  0.2627
   19SAPS  H10R 2450   6.448   7.015   3.424  1.5308  2.1638 -0.1368
   19SAPS  H10S 2451   6.554   7.029   3.559  1.8156 -0.0675 -1.2592
   19SAPS  C211 2452   6.418   6.882   3.582 -0.0957  0.2034 -0.1606
   19SAPS  H11R 2453   6.316   6.863   3.545  0.3198  0.3690 -1.4318
   19SAPS  C212 2454   6.437   6.847   3.715  0.5243 -0.2124  0.4154
   19SAPS  H12R 2455   6.361   6.775   3.750  0.6426 -0.4657  0.1523
   19SAPS  C213 2456   6.560   6.856   3.801 -0.3855  0.3103 -0.2362
   19SAPS  H13R 2457   6.584   6.959   3.833 -0.5580  0.4347 -0.5102
   19SAPS  H13S 2458   6.653   6.828   3.746 -1.6896 -2.4532 -1.2374
   19SAPS  C214 2459   6.560   6.756   3.916 -0.7717 -1.4778 -0.6811
   19SAPS  H14R 2460   6.586   6.651   3.892 -1.4859 -1.9074  0.3623
   19SAPS  C215 2461   6.528   6.783   4.039  0.3783  0.0570 -0.4463
   19SAPS  H15R 2462   6.531   6.698   4.109 -0.2067 -0.3949 -0.9532
   19SAPS  C216 2463   6.476   6.914   4.081 -0.8884 -0.7595 -0.8264
   19SAPS  H16R 2464   6.373   6.901   4.120 -0.1315  0.0648  1.6689
   19SAPS  H16S 2465   6.471   6.997   4.007  0.4998 -0.9270 -1.1434
   19SAPS  C217 2466   6.541   6.978   4.214  0.4772  0.0055  0.1956
   19SAPS  H17R 2467   6.647   6.998   4.188  0.0601 -0.6006 -2.2764
   19SAPS  H17S 2468   6.553   6.901   4.293  0.1368 -0.5638 -0.2986
   19SAPS  C218 2469   6.462   7.091   4.288 -0.0112 -0.3897  0.4726
   19SAPS  H18R 2470   6.437   7.163   4.207  0.0542 -1.6785 -0.7278
   19SAPS  H18S 2471   6.516   7.156   4.360  1.3906 -0.9782 -0.0162
   19SAPS  C219 2472   6.340   7.042   4.366 -0.4651  0.0987 -0.0298
   19SAPS  H19R 2473   6.271   6.973   4.312 -0.1678 -0.8304  0.7612
   19SAPS  H19S 2474   6.281   7.134   4.386 -0.5858  0.2411 -0.9904
   19SAPS  C220 2475   6.379   6.967   4.497 -0.4471  0.0915 -0.1471
   19SAPS  H20R 2476   6.422   6.867   4.471 -1.3734 -0.9388  2.0373
   19SAPS  H20S 2477   6.287   6.936   4.551  0.7931  0.0977  2.0802
   19SAPS  H20T 2478   6.440   7.021   4.572  0.9246 -1.7684  0.1770
   19SAPS   C33 2479   6.303   6.097   2.995 -0.8899  1.0404  0.2696
   19SAPS   H3X 2480   6.359   6.013   2.947 -0.1029  2.1775 -0.8689
   19SAPS   H3Y 2481   6.202   6.099   2.949 -0.6817 -0.9759 -0.3913
   19SAPS   C34 2482   6.293   6.068   3.141 -0.7508 -0.5151 -0.5870
   19SAPS   H4X 2483   6.390   6.052   3.191 -0.9168 -1.1718 -0.4645
   19SAPS   H4Y 2484   6.246   5.967   3.151  0.8844 -1.2121  0.4846
   19SAPS   C35 2485   6.205   6.167   3.217  0.3071 -0.8290  0.4936
   19SAPS   H5X 2486   6.103   6.155   3.176  0.1352 -4.7356  1.6931
   19SAPS   H5Y 2487   6.241   6.271   3.203  0.7896 -1.0436  0.1157
   19SAPS   C36 2488   6.183   6.144   3.366  0.0210 -0.5896 -0.3351
   19SAPS   H6X 2489   6.128   6.048   3.365  0.5735 -0.9145 -0.2803
   19SAPS   H6Y 2490   6.106   6.211   3.409  0.3937 -1.2945  1.5204
   19SAPS   C37 2491   6.304   6.137   3.452  0.4849 -0.3888  0.2263
   19SAPS   H7X 2492   6.361   6.232   3.440  3.2928 -2.2012 -2.2649
   19SAPS   H7Y 2493   6.368   6.055   3.415 -0.4812 -0.1824 -2.0776
   19SAPS   C38 2494   6.281   6.129   3.605  0.3365 -0.7017  0.0930
   19SAPS   H8X 2495   6.241   6.226   3.642 -0.1540 -0.8038 -0.1585
   19SAPS   H8Y 2496   6.374   6.113   3.664  0.9496  1.5261 -0.1886
   19SAPS   C39 2497   6.177   6.022   3.655 -0.1825 -0.8617  0.6838
   19SAPS   H9X 2498   6.219   5.931   3.607 -0.0044 -0.1021 -0.6439
   19SAPS   H9Y 2499   6.078   6.040   3.608 -0.0747  0.1072  0.8063
   19SAPS  C310 2500   6.156   6.017   3.808  0.2210  0.4769 -0.0003
   19SAPS  H10X 2501   6.083   5.938   3.835 -2.1600  2.9185  1.0877
   19SAPS  H10Y 2502   6.113   6.111   3.848 -1.1656 -0.7149  1.4620
   19SAPS  C311 2503   6.277   5.991   3.902 -0.2266 -0.8421  0.2718
   19SAPS  H11X 2504   6.345   6.079   3.899 -1.2328 -0.0582 -0.1185
   19SAPS  H11Y 2505   6.323   5.900   3.857 -2.1034 -1.1444 -1.1391
   19SAPS  C312 2506   6.234   5.973   4.057  0.1792  0.0901 -0.3213
   19SAPS  H12X 2507   6.204   6.072   4.097  0.8388 -0.3029  1.2354
   19SAPS  H12Y 2508   6.329   5.957   4.113  1.0536 -1.6358 -2.1460
   19SAPS  C313 2509   6.126   5.875   4.098 -0.5778 -0.3358  0.5560
   19SAPS  H13X 2510   6.150   5.774   4.058  0.7627 -0.6062  1.9725
   19SAPS  H13Y 2511   6.039   5.915   4.041  0.1956  1.4924  0.6126
   19SAPS  C314 2512   6.105   5.850   4.242 -0.5333 -0.2801 -0.1214
   19SAPS  H14X 2513   6.174   5.773   4.283 -1.1034 -1.1721 -0.8120
   19SAPS  H14Y 2514   6.007   5.799   4.256 -0.3078 -0.6196  0.2481
   19SAPS  C315 2515   6.100   5.971   4.340 -0.3376 -0.4286  0.5968
   19SAPS  H15X 2516   6.035   6.049   4.295  0.7930  0.6039  0.6827
   19SAPS  H15Y 2517   6.203   6.014   4.340  0.8262 -3.0041  0.2930
   19SAPS  C316 2518   6.075   5.920   4.476  0.1863  0.0390  0.5255
   19SAPS  H16X 2519   6.157   5.849   4.500 -1.9212 -2.5169  0.7062
   19SAPS  H16Y 2520   5.981   5.861   4.483  0.2787 -0.1394  0.2772
   19SAPS  C317 2521   6.058   6.042   4.576 -0.3704  0.4879 -0.7064
   19SAPS  H17X 2522   5.994   6.119   4.527 -1.2082 -0.4749 -1.1465
   19SAPS  H17Y 2523   6.162   6.079   4.593  0.0311  0.1452 -2.2784
   19SAPS  C318 2524   5.998   5.990   4.709 -0.3856 -0.0374 -0.2092
   19SAPS  H18X 2525   5.895   5.951   4.694 -0.3880  0.0832 -0.5178
   19SAPS  H18Y 2526   6.007   6.078   4.776  0.5862  0.2059 -0.6401
   19SAPS  H18Z 2527   6.049   5.901   4.752 -1.0388 -0.3326 -0.0367
   20SAPS     N 2528   1.020   0.992   2.288  0.1486  0.1936 -0.1143
   20SAPS   HN1 2529   0.953   1.073   2.286 -1.5568 -1.1574 -0.3434
   20SAPS   HN2 2530   0.973   0.909   2.329 -1.7729  1.4543  0.4156
   20SAPS   HN3 2531   1.115   1.015   2.323  0.1803 -0.1947  0.0588
   20SAPS   C12 2532   1.040   0.978   2.138 -0.4607 -0.1483 -0.3801
   20SAPS  H12A 2533   0.970   0.897   2.119 -1.8410  0.7037  0.8760
   20SAPS   C13 2534   0.985   1.100   2.058  0.0344  0.0662  0.2657
   20SAPS  O13A 2535   0.901   1.173   2.115 -0.5209  0.1434 -0.4002
   20SAPS  O13B 2536   0.995   1.099   1.934  0.6557  0.0068 -0.7634
   20SAPS   C11 2537   1.188   0.948   2.115  0.2991 -0.7145 -0.2242
   20SAPS  H11A 2538   1.187   0.950   2.003 -2.2397 -0.4520 -0.2600
   20SAPS  H11B 2539   1.218   0.845   2.142 -0.0068 -0.7504 -0.0218
   20SAPS     P 2540   1.393   1.116   2.087  0.2857 -0.4042 -0.5417
   20SAPS   O13 2541   1.449   1.014   1.996 -0.0780  0.7587  0.5227
   20SAPS   O14 2542   1.341   1.239   2.029 -0.2271 -0.1806  0.0261
   20SAPS   O12 2543   1.278   1.050   2.179 -0.0171  0.1233 -0.5019
   20SAPS   O11 2544   1.505   1.159   2.187 -0.0911  0.7106 -0.1859
   20SAPS    C1 2545   1.560   1.063   2.280 -0.0617  0.3154  0.5956
   20SAPS    HA 2546   1.583   0.963   2.237  0.2213  0.0305  1.3810
   20SAPS    HB 2547   1.656   1.105   2.318  0.2374  1.1070 -0.9571
   20SAPS    C2 2548   1.464   1.024   2.405  0.2174 -0.1325  0.0195
   20SAPS    HS 2549   1.381   0.961   2.367 -0.4285 -0.0466  1.2564
   20SAPS   O21 2550   1.420   1.148   2.460  0.2083 -0.7250 -0.1485
   20SAPS   C21 2551   1.298   1.156   2.498  0.3050  0.4500  0.1188
   20SAPS   O22 2552   1.208   1.081   2.463 -0.2303 -0.2835 -0.3328
   20SAPS   C22 2553   1.290   1.258   2.610  0.0523 -0.8348 -0.6884
   20SAPS   H2R 2554   1.356   1.241   2.698  0.9512 -2.2236 -1.5835
   20SAPS   H2S 2555   1.323   1.352   2.561  3.6418 -1.0828  0.9245
   20SAPS    C3 2556   1.535   0.929   2.507 -0.1483 -0.5665 -0.0608
   20SAPS    HX 2557   1.632   0.964   2.549 -0.5934  1.2302 -0.4340
   20SAPS    HY 2558   1.562   0.842   2.444  2.7327 -0.4810  0.9031
   20SAPS   O31 2559   1.456   0.872   2.602  0.1827 -0.7500  0.2301
   20SAPS   C31 2560   1.468   0.918   2.729  0.7251 -0.6040  0.5441
   20SAPS   O32 2561   1.549   0.994   2.774 -0.2341 -0.2103  0.1609
   20SAPS   C32 2562   1.368   0.849   2.816  0.6882 -0.8116 -0.2395
   20SAPS   H2X 2563   1.401   0.748   2.848 -1.3046 -1.1333  0.9531
   20SAPS   H2Y 2564   1.282   0.848   2.746  2.1287 -0.6856 -2.1183
   20SAPS   C23 2565   1.136   1.270   2.653 -0.5341 -0.1957  0.1151
   20SAPS   H3R 2566   1.078   1.311   2.567 -2.6934 -0.9669  1.1168
   20SAPS   H3S 2567   1.128   1.356   2.722 -2.5692 -1.2231  1.2754
   20SAPS   C24 2568   1.071   1.146   2.717  0.0508  0.5791 -0.1059
   20SAPS   H4R 2569   1.102   1.129   2.822  1.8068 -3.3981 -1.0650
   20SAPS   H4S 2570   1.106   1.055   2.664  1.8814  0.8561  0.5749
   20SAPS   C25 2571   0.918   1.149   2.700  0.2642  0.6289 -0.0011
   20SAPS   H5R 2572   0.885   1.190   2.603  1.3544 -0.5869 -0.9278
   20SAPS   C26 2573   0.819   1.128   2.798 -0.1331 -0.2616 -0.0067
   20SAPS   H6R 2574   0.719   1.128   2.752  0.6751  1.0572 -1.9033
   20SAPS   C27 2575   0.830   1.084   2.941 -0.0224 -0.0833 -0.2064
   20SAPS   H7R 2576   0.910   1.008   2.953 -0.1029 -0.0036  0.9196
   20SAPS   H7S 2577   0.735   1.027   2.948 -1.1775  1.6496 -0.8776
   20SAPS   C28 2578   0.822   1.200   3.042 -0.1692 -0.1992  0.7568
   20SAPS   H8R 2579   0.780   1.293   3.000 -2.6891 -0.9714  1.4459
   20SAPS   C29 2580   0.845   1.177   3.170  0.6738  0.1113 -0.2961
   20SAPS   H9R 2581   0.842   1.256   3.246  3.3907 -0.2456  0.2802
   20SAPS  C210 2582   0.898   1.050   3.235  0.1855 -0.4978 -0.2943
   20SAPS  H10R 2583   0.951   0.977   3.171  0.8763 -0.6176  0.3931
   20SAPS  H10S 2584   0.816   0.984   3.271 -0.5113  1.1606  1.3610
   20SAPS  C211 2585   0.985   1.092   3.354  0.0203  0.1825 -0.3188
   20SAPS  H11R 2586   1.075   1.147   3.325 -0.2227 -0.0871 -1.6596
   20SAPS  C212 2587   0.953   1.095   3.485 -0.0517 -1.1180  0.0908
   20SAPS  H12R 2588   1.029   1.133   3.555 -0.5250  0.6258 -0.3007
   20SAPS  C213 2589   0.829   1.038   3.544  1.0494  0.7598  0.2101
   20SAPS  H13R 2590   0.749   1.035   3.467 -0.0820 -3.5635  1.2860
   20SAPS  H13S 2591   0.788   1.109   3.619 -2.2917 -0.7034 -0.0122
   20SAPS  C214 2592   0.839   0.895   3.597  0.5863  0.9844 -0.8148
   20SAPS  H14R 2593   0.888   0.814   3.541  0.3750 -0.1622  0.5879
   20SAPS  C215 2594   0.792   0.858   3.718 -0.0247 -0.5718 -0.1685
   20SAPS  H15R 2595   0.801   0.752   3.746  0.2225 -0.3830  0.4862
   20SAPS  C216 2596   0.719   0.940   3.819  1.0825  0.0208 -0.5057
   20SAPS  H16R 2597   0.717   1.051   3.816  1.0412  0.0400  0.1705
   20SAPS  H16S 2598   0.749   0.912   3.922 -0.8153  0.3515  0.1866
   20SAPS  C217 2599   0.561   0.909   3.802 -0.5724  0.2241 -0.8099
   20SAPS  H17R 2600   0.531   0.909   3.695 -2.5527 -0.1452 -0.2907
   20SAPS  H17S 2601   0.510   0.996   3.846 -0.1432  0.6224 -1.0885
   20SAPS  C218 2602   0.506   0.781   3.866  0.1444 -0.5575 -0.9263
   20SAPS  H18R 2603   0.505   0.792   3.977  0.7382  0.8140 -1.0462
   20SAPS  H18S 2604   0.576   0.699   3.838 -1.2301 -2.0905 -0.1055
   20SAPS  C219 2605   0.367   0.755   3.815 -0.1120  0.6643  0.6066
   20SAPS  H19R 2606   0.361   0.771   3.706 -0.5794  0.8047  0.6494
   20SAPS  H19S 2607   0.300   0.838   3.847 -0.3860  0.0775  1.6093
   20SAPS  C220 2608   0.304   0.619   3.854  0.1620 -0.0195 -0.6992
   20SAPS  H20R 2609   0.216   0.591   3.792  0.1911 -0.0349 -0.7340
   20SAPS  H20S 2610   0.277   0.628   3.961  1.6074  1.5845 -0.4224
   20SAPS  H20T 2611   0.364   0.527   3.838 -0.5175 -1.0442  2.0274
   20SAPS   C33 2612   1.327   0.932   2.943 -0.3847  0.6631 -0.0693
   20SAPS   H3X 2613   1.216   0.931   2.955 -0.3346 -0.4831  0.3725
   20SAPS   H3Y 2614   1.356   1.038   2.924  0.6673  0.3400 -0.2939
   20SAPS   C34 2615   1.398   0.889   3.072 -0.6587  0.5752 -0.1775
   20SAPS   H4X 2616   1.502   0.863   3.043 -0.7667 -1.1805  0.7924
   20SAPS   H4Y 2617   1.358   0.790   3.104 -2.6363  0.8188 -1.7867
   20SAPS   C35 2618   1.392   0.984   3.197  0.5250 -0.0059  0.2113
   20SAPS   H5X 2619   1.284   1.004   3.215  0.5050  0.9236 -0.8191
   20SAPS   H5Y 2620   1.431   1.082   3.163 -0.2534  1.8453  4.0504
   20SAPS   C36 2621   1.463   0.942   3.330  0.0804 -0.3571  0.9041
   20SAPS   H6X 2622   1.571   0.967   3.324  0.0145  0.2200  1.9122
   20SAPS   H6Y 2623   1.446   0.832   3.339  2.1950 -0.7178  0.9725
   20SAPS   C37 2624   1.399   1.025   3.441 -0.7727  0.6414  0.0610
   20SAPS   H7X 2625   1.291   1.039   3.418 -0.5674  1.7281 -0.3413
   20SAPS   H7Y 2626   1.442   1.127   3.429  0.2488  0.3118  0.8090
   20SAPS   C38 2627   1.419   0.960   3.572 -0.9304 -0.0951 -0.0831
   20SAPS   H8X 2628   1.524   0.986   3.599 -1.0654  2.8088 -1.9165
   20SAPS   H8Y 2629   1.428   0.851   3.556 -1.0231 -0.1954  0.5289
   20SAPS   C39 2630   1.309   0.984   3.685 -0.3251 -0.0578  0.2399
   20SAPS   H9X 2631   1.335   0.916   3.768  0.9818 -2.3649 -1.9362
   20SAPS   H9Y 2632   1.208   0.953   3.648 -1.5638 -0.2406  3.4697
   20SAPS  C310 2633   1.302   1.121   3.740  0.3866 -0.5804 -0.2525
   20SAPS  H10X 2634   1.281   1.182   3.649  0.3308 -1.0878 -0.5867
   20SAPS  H10Y 2635   1.399   1.153   3.784 -1.0192 -0.6726  3.1885
   20SAPS  C311 2636   1.192   1.139   3.844 -0.4200 -0.9698  0.1081
   20SAPS  H11X 2637   1.219   1.084   3.937  0.9610 -1.9109 -0.8163
   20SAPS  H11Y 2638   1.099   1.090   3.807  0.0259  0.3018 -2.9681
   20SAPS  C312 2639   1.182   1.284   3.897  0.1897 -0.0352  0.1509
   20SAPS  H12X 2640   1.288   1.308   3.921  1.1683 -3.0590 -0.7416
   20SAPS  H12Y 2641   1.129   1.271   3.994 -2.4642  0.0238 -1.2132
   20SAPS  C313 2642   1.120   1.389   3.809 -0.2034 -0.2731  0.7404
   20SAPS  H13X 2643   1.160   1.389   3.706  0.8173 -1.1027  1.1111
   20SAPS  H13Y 2644   1.144   1.489   3.852 -3.0646  0.8070  0.0676
   20SAPS  C314 2645   0.967   1.368   3.815 -0.4878 -0.2497  0.3065
   20SAPS  H14X 2646   0.930   1.368   3.919  2.0201  1.3562  1.2900
   20SAPS  H14Y 2647   0.947   1.273   3.760  0.8136 -0.1792 -0.3313
   20SAPS  C315 2648   0.898   1.487   3.747  0.0121 -0.1250 -0.2969
   20SAPS  H15X 2649   0.951   1.518   3.655 -1.4103  2.4893 -0.3325
   20SAPS  H15Y 2650   0.917   1.565   3.824 -1.5553 -0.7936  0.8312
   20SAPS  C316 2651   0.749   1.461   3.716  0.1001  0.0170  0.3897
   20SAPS  H16X 2652   0.706   1.413   3.806 -0.3009 -0.7756 -0.2126
   20SAPS  H16Y 2653   0.732   1.410   3.619 -1.0719  2.6732 -0.8997
   20SAPS  C317 2654   0.678   1.596   3.683  0.3413  0.1343  0.0261
   20SAPS  H17X 2655   0.580   1.584   3.632  0.9616 -3.2833 -0.6474
   20SAPS  H17Y 2656   0.751   1.646   3.615 -0.9566  0.7155 -0.9724
   20SAPS  C318 2657   0.651   1.680   3.810  0.0040  0.4405  0.5207
   20SAPS  H18X 2658   0.728   1.656   3.886 -0.2644  0.3307  0.7565
   20SAPS  H18Y 2659   0.551   1.657   3.854  0.3487 -1.3574  0.4502
   20SAPS  H18Z 2660   0.659   1.790   3.795  0.1152  0.4075  0.3355
   21CHL1    C3 2661   6.419   4.362   5.856 -0.4442  0.5091 -0.3107
   21CHL1    H3 2662   6.454   4.259   5.834 -1.5613 -0.0946  0.6103
   21CHL1    O3 2663   6.445   4.394   5.995 -0.3926 -0.0119  0.2756
   21CHL1   H3' 2664   6.412   4.484   6.006  0.3418  0.1896  0.9227
   21CHL1    C4 2665   6.489   4.465   5.771  0.1256 -0.6079  0.4975
   21CHL1   H4A 2666   6.447   4.567   5.786  1.1825  0.0172 -0.6540
   21CHL1   H4B 2667   6.596   4.467   5.798  0.0926 -0.6545  0.6318
   21CHL1    C5 2668   6.465   4.450   5.618 -0.1091 -0.1852  0.5500
   21CHL1    C6 2669   6.563   4.444   5.523  0.2736  0.0738 -0.1196
   21CHL1    H6 2670   6.668   4.449   5.556  0.4088  0.4292 -0.5952
   21CHL1    C7 2671   6.554   4.431   5.374  0.0887  0.3081  0.3715
   21CHL1   H7A 2672   6.633   4.499   5.336  0.8723 -0.6595  0.2365
   21CHL1   H7B 2673   6.576   4.326   5.347 -0.6523  0.0076  0.8849
   21CHL1    C8 2674   6.405   4.463   5.339  0.6165  0.1487 -0.1789
   21CHL1    H8 2675   6.385   4.572   5.339 -1.7410 -0.2305 -0.5489
   21CHL1   C14 2676   6.386   4.417   5.198  1.2071 -0.0654 -0.2603
   21CHL1   H14 2677   6.406   4.308   5.208  0.5526 -0.0968  0.8573
   21CHL1   C15 2678   6.485   4.460   5.093  0.2024  0.4080 -0.4802
   21CHL1  H15A 2679   6.504   4.570   5.101 -1.2951  0.8099 -1.8348
   21CHL1  H15B 2680   6.575   4.396   5.105  0.0718  0.4288  0.6519
   21CHL1   C16 2681   6.414   4.438   4.962  0.0667 -0.3069 -0.4489
   21CHL1  H16A 2682   6.405   4.539   4.917  0.6116  0.1180  0.3747
   21CHL1  H16B 2683   6.478   4.372   4.901  1.5704  0.0802  0.6393
   21CHL1   C17 2684   6.267   4.386   4.993  0.0238  0.1784 -0.1443
   21CHL1   H17 2685   6.268   4.276   5.004  0.3862  0.0825 -1.0281
   21CHL1   C13 2686   6.249   4.432   5.145  0.2561  0.1142  0.1709
   21CHL1   C18 2687   6.198   4.577   5.148 -0.7479 -0.1048  0.4906
   21CHL1  H18A 2688   6.263   4.646   5.090 -1.4225  0.6827  0.6628
   21CHL1  H18B 2689   6.102   4.597   5.097 -0.5737  1.5220  0.7545
   21CHL1  H18C 2690   6.194   4.619   5.251 -3.1321  0.1044  0.3737
   21CHL1   C12 2691   6.154   4.335   5.220 -0.0392 -0.5142 -0.0096
   21CHL1  H12A 2692   6.050   4.346   5.184 -0.4927  0.2621  1.4686
   21CHL1  H12B 2693   6.189   4.230   5.213 -1.0433 -0.8544 -0.0153
   21CHL1   C11 2694   6.154   4.373   5.371 -0.7690  0.0973 -0.2295
   21CHL1  H11A 2695   6.095   4.467   5.365 -0.1918  0.4062 -1.2228
   21CHL1  H11B 2696   6.096   4.302   5.434 -0.6183 -0.0523 -0.2576
   21CHL1    C9 2697   6.298   4.388   5.429 -0.1892  0.0448 -0.3176
   21CHL1    H9 2698   6.348   4.289   5.430 -0.9906 -0.4208 -2.3274
   21CHL1   C10 2699   6.311   4.440   5.581 -0.3107 -0.5014  1.1064
   21CHL1   C19 2700   6.238   4.580   5.589 -0.3345 -0.2406 -0.6177
   21CHL1  H19A 2701   6.258   4.641   5.680  1.8445 -0.7117 -0.7245
   21CHL1  H19B 2702   6.276   4.651   5.512  2.0921 -1.2087 -0.4175
   21CHL1  H19C 2703   6.128   4.568   5.581 -0.7803  1.9120  1.3089
   21CHL1    C1 2704   6.239   4.340   5.669 -0.4053 -0.4134 -0.5536
   21CHL1   H1A 2705   6.128   4.340   5.666 -0.5284 -0.3914  1.8149
   21CHL1   H1B 2706   6.264   4.236   5.641 -0.5367 -0.2446 -1.3047
   21CHL1    C2 2707   6.273   4.364   5.820  0.8832 -0.4102 -0.2097
   21CHL1   H2A 2708   6.228   4.282   5.881 -0.5092  1.0840  0.8430
   21CHL1   H2B 2709   6.225   4.457   5.857  0.6925  0.1301 -1.7544
   21CHL1   C20 2710   6.171   4.424   4.885  0.4698  0.2775 -0.0949
   21CHL1   H20 2711   6.165   4.534   4.892 -1.6993  0.1818  0.2140
   21CHL1   C21 2712   6.029   4.356   4.915 -0.9070  0.0332  0.9305
   21CHL1  H21A 2713   6.033   4.246   4.928  1.0853 -0.2950 -1.6719
   21CHL1  H21B 2714   5.965   4.392   4.831  1.0312  3.1834  0.6287
   21CHL1  H21C 2715   5.986   4.403   5.006 -0.0976  0.5162  1.0699
   21CHL1   C22 2716   6.215   4.384   4.746  0.2843 -0.1509  0.0481
   21CHL1  H22A 2717   6.325   4.383   4.729  0.2751  0.4789 -0.0709
   21CHL1  H22B 2718   6.180   4.279   4.729  0.9346  0.0565 -3.1012
   21CHL1   C23 2719   6.151   4.480   4.639 -0.1175 -0.1019 -0.3576
   21CHL1  H23A 2720   6.040   4.483   4.631 -0.0187  0.4446 -1.7455
   21CHL1  H23B 2721   6.185   4.584   4.659 -0.2306 -0.4753  2.2125
   21CHL1   C24 2722   6.197   4.437   4.495  0.7411 -0.0304 -0.2690
   21CHL1  H24A 2723   6.305   4.411   4.490  1.0483  1.0302  0.6187
   21CHL1  H24B 2724   6.144   4.342   4.471 -3.4948  2.2124 -0.7929
   21CHL1   C25 2725   6.162   4.533   4.381 -0.2492  0.8774  0.1401
   21CHL1   H25 2726   6.053   4.554   4.375 -0.4741  0.0424  1.1231
   21CHL1   C26 2727   6.226   4.670   4.392 -0.2080 -0.4480 -0.1184
   21CHL1  H26A 2728   6.328   4.663   4.435  0.6309  1.7995 -1.5328
   21CHL1  H26B 2729   6.241   4.726   4.297  0.7999  0.5744  0.6264
   21CHL1  H26C 2730   6.158   4.729   4.457 -0.7004  1.5286 -2.2778
   21CHL1   C27 2731   6.200   4.468   4.241  0.1718  0.4848  0.4992
   21CHL1  H27A 2732   6.150   4.369   4.233  1.9553 -0.4239  0.2949
   21CHL1  H27B 2733   6.165   4.547   4.170 -1.7118 -1.2912 -0.6908
   21CHL1  H27C 2734   6.309   4.447   4.236 -0.1074 -1.0828  0.5260
   22CHL1    C3 2735   0.457   3.537   5.895  0.2971 -0.2680  0.1350
   22CHL1    H3 2736   0.524   3.624   5.910  1.7300 -1.1884 -0.6986
   22CHL1    O3 2737   0.453   3.480   6.026  0.3409  0.3329 -0.0855
   22CHL1   H3' 2738   0.379   3.420   6.036  2.2426 -2.1487  0.0755
   22CHL1    C4 2739   0.310   3.590   5.863 -0.1676  0.6351 -0.2154
   22CHL1   H4A 2740   0.228   3.526   5.902  0.5505 -0.7786 -0.9160
   22CHL1   H4B 2741   0.303   3.677   5.932  0.4824  1.0572 -0.6669
   22CHL1    C5 2742   0.285   3.628   5.720  0.0496  0.1911  0.4868
   22CHL1    C6 2743   0.240   3.747   5.682  0.1853 -0.3724 -0.6430
   22CHL1    H6 2744   0.204   3.819   5.758  1.4513 -0.1267 -0.2464
   22CHL1    C7 2745   0.215   3.786   5.535  0.1916 -0.3005 -0.1768
   22CHL1   H7A 2746   0.110   3.821   5.539  0.3912  0.2414  0.4425
   22CHL1   H7B 2747   0.286   3.857   5.490 -0.6198  1.4500  1.1703
   22CHL1    C8 2748   0.208   3.661   5.439 -0.8005  0.3116 -0.5972
   22CHL1    H8 2749   0.116   3.606   5.469 -0.9044  0.2369 -1.0564
   22CHL1   C14 2750   0.194   3.710   5.296  0.3376  0.1208 -0.0782
   22CHL1   H14 2751   0.282   3.774   5.272  0.1354 -0.2316 -1.9270
   22CHL1   C15 2752   0.077   3.796   5.261 -0.4005  0.0501  0.0907
   22CHL1  H15A 2753  -0.019   3.756   5.302 -0.1046 -1.0516 -0.2728
   22CHL1  H15B 2754   0.089   3.903   5.289  0.0476 -0.7392  3.2772
   22CHL1   C16 2755   0.071   3.782   5.106 -0.0520  0.4533  0.1546
   22CHL1  H16A 2756  -0.028   3.746   5.070  1.1416 -0.2258 -2.7414
   22CHL1  H16B 2757   0.076   3.884   5.062  0.6201  0.7379  0.8659
   22CHL1   C17 2758   0.178   3.684   5.067 -0.6854  0.7244  0.1984
   22CHL1   H17 2759   0.277   3.734   5.057 -1.6836  3.0820  1.3762
   22CHL1   C13 2760   0.207   3.594   5.189  0.5051 -0.3183 -0.0613
   22CHL1   C18 2761   0.089   3.495   5.206  0.1199 -0.0018  0.1503
   22CHL1  H18A 2762   0.102   3.433   5.298 -0.6415 -0.3916  0.0045
   22CHL1  H18B 2763  -0.007   3.549   5.211 -0.0197 -0.3241  1.4404
   22CHL1  H18C 2764   0.082   3.426   5.119  2.4365  0.2842 -0.3369
   22CHL1   C12 2765   0.343   3.529   5.205 -0.3603  0.7040  0.1667
   22CHL1  H12A 2766   0.375   3.447   5.138  0.1424  0.5156  0.6336
   22CHL1  H12B 2767   0.421   3.607   5.185  0.4010 -0.2505 -0.6826
   22CHL1   C11 2768   0.364   3.469   5.347  0.5598  1.0558 -0.6881
   22CHL1  H11A 2769   0.302   3.377   5.353 -0.5844  1.8139 -0.4889
   22CHL1  H11B 2770   0.465   3.425   5.356 -0.2956 -0.6148  2.1667
   22CHL1    C9 2771   0.330   3.576   5.464 -0.3422  0.3098 -0.5244
   22CHL1    H9 2772   0.413   3.650   5.458 -0.5796  0.5918 -0.3021
   22CHL1   C10 2773   0.338   3.526   5.613  0.3778 -0.0315  0.1280
   22CHL1   C19 2774   0.241   3.399   5.612  0.5276  0.1391 -0.1162
   22CHL1  H19A 2775   0.268   3.313   5.547 -1.9763 -1.2155  0.5121
   22CHL1  H19B 2776   0.243   3.360   5.716 -3.8655 -0.2576  0.0004
   22CHL1  H19C 2777   0.135   3.423   5.589  0.4396 -0.5734 -0.4814
   22CHL1    C1 2778   0.481   3.475   5.645 -0.0451  0.5655 -0.6860
   22CHL1   H1A 2779   0.506   3.390   5.579 -0.2065  0.5294 -0.7023
   22CHL1   H1B 2780   0.557   3.551   5.617  0.9687 -0.8206 -1.8243
   22CHL1    C2 2781   0.511   3.438   5.796 -0.4295  0.4335  0.4614
   22CHL1   H2A 2782   0.619   3.419   5.815 -0.4510  0.9377  1.1358
   22CHL1   H2B 2783   0.449   3.347   5.807  0.5675 -0.2249  0.7019
   22CHL1   C20 2784   0.145   3.610   4.935  0.1809 -0.0559  0.8915
   22CHL1   H20 2785   0.047   3.560   4.948  0.1807  0.2954  2.3753
   22CHL1   C21 2786   0.254   3.511   4.895  0.1334  0.1972  0.0898
   22CHL1  H21A 2787   0.213   3.468   4.802 -2.2624  0.2200  1.0685
   22CHL1  H21B 2788   0.261   3.432   4.973  2.8941 -0.7685 -1.0227
   22CHL1  H21C 2789   0.353   3.560   4.881 -0.9591  2.7272  0.6036
   22CHL1   C22 2790   0.127   3.712   4.816  1.0402 -0.4911 -0.1566
   22CHL1  H22A 2791   0.116   3.652   4.723 -0.0163  0.2143 -0.5018
   22CHL1  H22B 2792   0.026   3.758   4.815  0.3535 -1.9627 -0.5383
   22CHL1   C23 2793   0.233   3.824   4.795  0.1871  0.9307 -1.5558
   22CHL1  H23A 2794   0.224   3.912   4.862 -1.6104 -0.0840 -0.3561
   22CHL1  H23B 2795   0.327   3.771   4.820 -0.1786  1.6992  1.8936
   22CHL1   C24 2796   0.229   3.877   4.647 -0.0653 -0.4346 -0.6462
   22CHL1  H24A 2797   0.309   3.954   4.646  0.3139 -0.8152 -0.1675
   22CHL1  H24B 2798   0.248   3.799   4.570 -0.2768  0.3022 -1.4664
   22CHL1   C25 2799   0.100   3.956   4.630 -0.2817  0.6066  0.3362
   22CHL1   H25 2800   0.024   3.876   4.616  1.1002 -0.9335  1.2711
   22CHL1   C26 2801   0.063   4.059   4.738 -1.3531 -0.0366 -0.7556
   22CHL1  H26A 2802  -0.035   4.108   4.719 -1.7106 -0.2240  0.4934
   22CHL1  H26B 2803   0.045   4.018   4.840 -1.6907  0.3955 -0.6393
   22CHL1  H26C 2804   0.145   4.133   4.743  0.8017 -2.0597 -3.0291
   22CHL1   C27 2805   0.105   4.024   4.494 -0.1557 -0.2864  1.0200
   22CHL1  H27A 2806   0.195   4.089   4.490 -1.3351  1.4040  1.0512
   22CHL1  H27B 2807   0.101   3.960   4.403 -4.0049  2.1814 -0.8156
   22CHL1  H27C 2808   0.030   4.106   4.488  1.2508  0.9746 -0.6438
   23CHL1    C3 2809   5.675   3.682   5.810  0.4585 -0.0206  0.4833
   23CHL1    H3 2810   5.590   3.750   5.829  0.8629  0.8919 -0.8682
   23CHL1    O3 2811   5.722   3.643   5.933  0.0580 -0.1379 -0.1588
   23CHL1   H3' 2812   5.772   3.718   5.967 -0.5235 -0.3727  1.2831
   23CHL1    C4 2813   5.627   3.557   5.728  0.1908 -0.3403 -0.0838
   23CHL1   H4A 2814   5.713   3.487   5.725 -0.2301 -0.8744  0.3390
   23CHL1   H4B 2815   5.550   3.510   5.792 -0.6038 -0.4927 -1.1206
   23CHL1    C5 2816   5.578   3.574   5.587  0.3742 -0.2210 -0.6531
   23CHL1    C6 2817   5.462   3.530   5.546  0.0272 -0.3807  0.5775
   23CHL1    H6 2818   5.399   3.472   5.614 -0.3907 -1.5366 -0.7613
   23CHL1    C7 2819   5.422   3.543   5.397  0.1198 -0.7619  0.5918
   23CHL1   H7A 2820   5.391   3.444   5.357 -0.0093 -0.6954  0.5253
   23CHL1   H7B 2821   5.328   3.601   5.384 -1.2002 -3.0425 -0.7408
   23CHL1    C8 2822   5.533   3.593   5.305 -0.1657 -0.0989  0.4194
   23CHL1    H8 2823   5.612   3.517   5.292 -0.7115 -0.6898  0.5190
   23CHL1   C14 2824   5.474   3.644   5.174 -0.2672 -0.7655  0.2074
   23CHL1   H14 2825   5.411   3.731   5.200  0.6103  0.0291 -0.2648
   23CHL1   C15 2826   5.381   3.558   5.094 -0.0999 -0.0929  0.4765
   23CHL1  H15A 2827   5.412   3.452   5.096  0.5411  0.0887  0.6077
   23CHL1  H15B 2828   5.277   3.573   5.130 -0.0491  0.4823  0.3969
   23CHL1   C16 2829   5.384   3.616   4.950 -0.1489  0.8558  0.3121
   23CHL1  H16A 2830   5.417   3.542   4.875  1.1795  0.2065  1.4876
   23CHL1  H16B 2831   5.281   3.644   4.919 -0.5091 -0.0007  0.7217
   23CHL1   C17 2832   5.491   3.727   4.942  0.0817 -0.8563 -0.1186
   23CHL1   H17 2833   5.431   3.817   4.968  1.1360 -0.8861  2.7955
   23CHL1   C13 2834   5.577   3.697   5.064  0.3965 -0.1340  0.1011
   23CHL1   C18 2835   5.677   3.590   5.017  0.5967  0.6455 -0.3039
   23CHL1  H18A 2836   5.774   3.621   4.974  1.1776 -1.6100 -0.7381
   23CHL1  H18B 2837   5.713   3.527   5.101  0.8856  0.0356 -0.8697
   23CHL1  H18C 2838   5.632   3.516   4.947  0.5880  1.4702 -1.1809
   23CHL1   C12 2839   5.637   3.818   5.132 -0.6698 -0.0129 -0.5420
   23CHL1  H12A 2840   5.704   3.871   5.061 -1.5005 -0.3500 -1.6007
   23CHL1  H12B 2841   5.559   3.889   5.168 -0.8587 -0.2254 -0.5305
   23CHL1   C11 2842   5.706   3.778   5.267 -0.6504 -0.4252  0.4539
   23CHL1  H11A 2843   5.788   3.708   5.240  0.5792  1.2210 -0.2290
   23CHL1  H11B 2844   5.756   3.866   5.313  0.5611 -0.2200 -1.1619
   23CHL1    C9 2845   5.612   3.705   5.372  0.1382 -0.1178  0.4495
   23CHL1    H9 2846   5.543   3.790   5.396  0.3499 -0.5216  2.7314
   23CHL1   C10 2847   5.674   3.655   5.503 -0.0852 -0.1246 -0.2765
   23CHL1   C19 2848   5.803   3.573   5.478 -0.0664 -0.0109  0.0725
   23CHL1  H19A 2849   5.837   3.529   5.574 -3.7175 -0.2555  1.4183
   23CHL1  H19B 2850   5.794   3.503   5.392  1.7008 -1.2441  0.8159
   23CHL1  H19C 2851   5.888   3.634   5.442  0.4217 -1.7802 -2.0447
   23CHL1    C1 2852   5.718   3.786   5.586 -0.2714 -0.9145 -0.3541
   23CHL1   H1A 2853   5.791   3.832   5.516  1.2071 -1.2023  0.9707
   23CHL1   H1B 2854   5.631   3.855   5.587  0.5452  0.1227  0.5127
   23CHL1    C2 2855   5.771   3.760   5.732 -0.1963 -0.0715  0.2658
   23CHL1   H2A 2856   5.801   3.857   5.778  1.6770 -0.4986  0.0366
   23CHL1   H2B 2857   5.865   3.700   5.725 -0.5848 -1.1956  3.1590
   23CHL1   C20 2858   5.553   3.746   4.800  0.3612  0.5593  0.8340
   23CHL1   H20 2859   5.612   3.656   4.775  2.0330  2.5446 -3.3121
   23CHL1   C21 2860   5.645   3.864   4.793 -0.1761  0.1526 -0.3798
   23CHL1  H21A 2861   5.737   3.851   4.853 -0.7169  1.4652  0.7723
   23CHL1  H21B 2862   5.606   3.957   4.839 -0.7930 -0.3946  0.2234
   23CHL1  H21C 2863   5.679   3.882   4.688 -1.4755  2.7878 -0.4437
   23CHL1   C22 2864   5.449   3.762   4.690 -0.6600 -0.4109 -0.3079
   23CHL1  H22A 2865   5.367   3.687   4.701  0.8367 -1.9310  1.2185
   23CHL1  H22B 2866   5.407   3.864   4.707  1.8934  0.6768 -0.1694
   23CHL1   C23 2867   5.501   3.747   4.547 -0.9274  0.1735 -0.6872
   23CHL1  H23A 2868   5.563   3.838   4.528 -2.1867  1.3856  0.7633
   23CHL1  H23B 2869   5.561   3.654   4.540 -2.1894 -0.8557  1.5381
   23CHL1   C24 2870   5.386   3.736   4.451  0.6462 -0.7484 -0.1215
   23CHL1  H24A 2871   5.330   3.642   4.469 -3.0088  1.3728  0.5321
   23CHL1  H24B 2872   5.317   3.823   4.455 -0.5096 -1.6740  1.1126
   23CHL1   C25 2873   5.432   3.739   4.303 -0.0012  0.4698  0.2893
   23CHL1   H25 2874   5.523   3.676   4.304 -0.4497 -0.3060 -2.3365
   23CHL1   C26 2875   5.332   3.668   4.207 -0.6082  0.0687  0.4147
   23CHL1  H26A 2876   5.373   3.661   4.104 -0.3881 -1.2144  0.5768
   23CHL1  H26B 2877   5.313   3.566   4.246 -0.4450  0.3754  1.3087
   23CHL1  H26C 2878   5.239   3.729   4.208 -0.8916 -0.3146 -0.6213
   23CHL1   C27 2879   5.463   3.877   4.258 -0.0119 -0.2750  0.1025
   23CHL1  H27A 2880   5.373   3.938   4.234 -0.6834 -0.2172  2.4701
   23CHL1  H27B 2881   5.540   3.930   4.318 -2.4660  1.7813  1.6384
   23CHL1  H27C 2882   5.504   3.876   4.155 -0.2322 -0.7614  0.0143
   24CHL1    C3 2883   1.328   6.260   6.293 -0.3558  0.4703  0.5859
   24CHL1    H3 2884   1.350   6.158   6.256 -2.9031 -0.0188  0.2683
   24CHL1    O3 2885   1.335   6.269   6.431  0.8273  0.8569  0.1168
   24CHL1   H3' 2886   1.428   6.268   6.454  1.2596  0.9226 -1.5143
   24CHL1    C4 2887   1.423   6.356   6.226 -0.4342 -0.5504 -0.1007
   24CHL1   H4A 2888   1.390   6.459   6.250  0.8295 -0.5368  1.8022
   24CHL1   H4B 2889   1.523   6.348   6.273 -0.0971 -2.4194 -1.0242
   24CHL1    C5 2890   1.439   6.338   6.074  0.1677  0.2158  0.2699
   24CHL1    C6 2891   1.554   6.307   6.019  0.1946 -0.7277  0.2369
   24CHL1    H6 2892   1.648   6.312   6.074 -0.3581  1.1200  1.0680
   24CHL1    C7 2893   1.564   6.273   5.870 -0.0371  0.0764 -0.3509
   24CHL1   H7A 2894   1.654   6.321   5.827 -1.2248  2.3543 -0.4084
   24CHL1   H7B 2895   1.573   6.162   5.864 -0.9507 -0.0532  0.3980
   24CHL1    C8 2896   1.447   6.323   5.785  1.3728  0.3213  0.3711
   24CHL1    H8 2897   1.445   6.434   5.778 -3.8661  0.4913  0.7378
   24CHL1   C14 2898   1.452   6.263   5.638 -0.1404 -0.1705  0.4147
   24CHL1   H14 2899   1.427   6.158   5.662 -0.6103 -0.4121 -1.0552
   24CHL1   C15 2900   1.587   6.233   5.561 -0.4709  0.3001  0.3004
   24CHL1  H15A 2901   1.670   6.306   5.567  0.5946 -0.6049 -2.3677
   24CHL1  H15B 2902   1.625   6.136   5.599  2.9066  2.6462  3.6630
   24CHL1   C16 2903   1.540   6.220   5.415  0.5341  0.6118 -0.3562
   24CHL1  H16A 2904   1.576   6.314   5.367 -0.7640  0.9079 -0.7984
   24CHL1  H16B 2905   1.580   6.130   5.364 -1.3327 -0.2495 -0.3722
   24CHL1   C17 2906   1.383   6.215   5.411 -0.7144  0.4135  0.0529
   24CHL1   H17 2907   1.352   6.111   5.436 -1.8513  0.6365 -0.3859
   24CHL1   C13 2908   1.340   6.295   5.540  0.3598 -0.2990 -0.1098
   24CHL1   C18 2909   1.351   6.445   5.517  0.3186  0.1817  0.0390
   24CHL1  H18A 2910   1.450   6.476   5.477 -0.6898  1.1531 -1.8593
   24CHL1  H18B 2911   1.267   6.472   5.449  1.1574 -1.3074 -1.6602
   24CHL1  H18C 2912   1.327   6.512   5.602 -0.1245  0.8189 -0.5766
   24CHL1   C12 2913   1.218   6.264   5.621 -0.1213  0.1379  0.0308
   24CHL1  H12A 2914   1.131   6.283   5.555 -0.9910 -3.0293  0.0770
   24CHL1  H12B 2915   1.224   6.153   5.625  0.4694  0.1187 -0.9809
   24CHL1   C11 2916   1.196   6.319   5.765 -0.4004  0.3702  0.0043
   24CHL1  H11A 2917   1.168   6.426   5.754  0.2097  0.5275 -0.0460
   24CHL1  H11B 2918   1.107   6.265   5.804  0.6970 -0.4879  1.4399
   24CHL1    C9 2919   1.315   6.288   5.851  0.2880 -0.2595 -0.8719
   24CHL1    H9 2920   1.311   6.177   5.860  0.8630 -0.3096 -1.1854
   24CHL1   C10 2921   1.308   6.351   5.996  0.0557 -0.4763 -0.0538
   24CHL1   C19 2922   1.281   6.502   5.993  0.2729 -0.0018 -0.1879
   24CHL1  H19A 2923   1.366   6.563   5.955  1.1214  0.2549  1.9780
   24CHL1  H19B 2924   1.190   6.523   5.933 -0.5402 -3.1435 -0.2171
   24CHL1  H19C 2925   1.255   6.545   6.092  1.0373  1.6065 -0.6429
   24CHL1    C1 2926   1.193   6.285   6.077 -0.1741 -1.2043 -0.1644
   24CHL1   H1A 2927   1.100   6.330   6.036  2.1301  1.1908 -3.2369
   24CHL1   H1B 2928   1.193   6.178   6.046 -1.6568 -0.8073 -1.6236
   24CHL1    C2 2929   1.191   6.289   6.233  0.3258  0.0949  0.1640
   24CHL1   H2A 2930   1.127   6.211   6.281  0.3594  0.8267  1.4481
   24CHL1   H2B 2931   1.161   6.392   6.263  0.0958  0.4839 -1.3317
   24CHL1   C20 2932   1.327   6.259   5.276  1.2881  0.0480 -0.6469
   24CHL1   H20 2933   1.338   6.368   5.260 -1.5163  0.3696 -0.8940
   24CHL1   C21 2934   1.171   6.229   5.278 -0.1825 -0.0873 -0.3863
   24CHL1  H21A 2935   1.132   6.306   5.347 -0.2454 -0.9388  0.5661
   24CHL1  H21B 2936   1.145   6.124   5.306  1.1504 -0.5302 -0.6924
   24CHL1  H21C 2937   1.127   6.242   5.177 -0.2845  1.7399 -0.1333
   24CHL1   C22 2938   1.412   6.193   5.168  0.2580 -1.1672 -0.3624
   24CHL1  H22A 2939   1.505   6.253   5.165 -1.0438  1.2168  2.4231
   24CHL1  H22B 2940   1.452   6.095   5.200  2.4758 -0.2256 -0.1009
   24CHL1   C23 2941   1.352   6.165   5.031 -0.1929  0.3521 -0.0913
   24CHL1  H23A 2942   1.263   6.099   5.030 -0.4808  0.6847 -2.6636
   24CHL1  H23B 2943   1.334   6.261   4.978  2.1143  1.2228  0.5712
   24CHL1   C24 2944   1.466   6.102   4.945  0.2385 -0.2012  0.5004
   24CHL1  H24A 2945   1.555   6.161   4.975  1.1187 -2.2608  2.2995
   24CHL1  H24B 2946   1.473   6.002   4.993 -1.6315  0.0625  1.4315
   24CHL1   C25 2947   1.441   6.088   4.790  0.4442 -0.4546  0.0868
   24CHL1   H25 2948   1.423   6.188   4.746  2.0406 -0.3813 -0.4581
   24CHL1   C26 2949   1.562   6.027   4.727  0.2876 -0.1973  0.2301
   24CHL1  H26A 2950   1.585   5.931   4.779  1.5512  0.4734  0.9586
   24CHL1  H26B 2951   1.542   6.003   4.621 -1.0155 -1.9647  0.8136
   24CHL1  H26C 2952   1.651   6.093   4.732  0.7020 -0.5612 -1.8130
   24CHL1   C27 2953   1.313   6.003   4.755 -0.4324 -0.1544 -0.5267
   24CHL1  H27A 2954   1.218   6.053   4.784 -1.0259 -1.4025 -0.2350
   24CHL1  H27B 2955   1.322   5.964   4.651  0.4032  1.4566 -1.0870
   24CHL1  H27C 2956   1.322   5.924   4.832 -3.3254  2.3038  2.6410
   25CHL1    C3 2957   5.047   6.607   5.656  0.3751  0.0094 -0.2736
   25CHL1    H3 2958   4.964   6.534   5.658  0.2384  0.1775  0.6922
   25CHL1    O3 2959   5.059   6.665   5.788  0.9248  0.3540  0.2094
   25CHL1   H3' 2960   4.975   6.703   5.813  0.0058 -1.3226 -0.1708
   25CHL1    C4 2961   5.175   6.540   5.611 -0.3027  0.0917  0.1128
   25CHL1   H4A 2962   5.259   6.613   5.615 -1.4105  1.5430 -1.3349
   25CHL1   H4B 2963   5.197   6.468   5.692  0.2532 -1.5162 -1.3924
   25CHL1    C5 2964   5.171   6.467   5.478  1.2535 -0.1253  0.6985
   25CHL1    C6 2965   5.199   6.337   5.455 -0.7920 -0.1852 -0.2942
   25CHL1    H6 2966   5.235   6.277   5.540 -0.9709  0.5994  0.3473
   25CHL1    C7 2967   5.188   6.266   5.322  0.7283 -0.6642 -0.2751
   25CHL1   H7A 2968   5.269   6.190   5.314  1.5455  0.1848 -0.2087
   25CHL1   H7B 2969   5.098   6.201   5.318 -0.5161  1.0293 -1.5425
   25CHL1    C8 2970   5.178   6.365   5.204  0.1535 -1.5039 -0.2156
   25CHL1    H8 2971   5.277   6.413   5.199  0.0800 -1.0254  2.0043
   25CHL1   C14 2972   5.129   6.296   5.078  0.2907  0.2739 -0.6932
   25CHL1   H14 2973   5.021   6.276   5.097 -0.4084  1.7670 -2.7185
   25CHL1   C15 2974   5.189   6.157   5.041  0.8836 -0.2781  0.4076
   25CHL1  H15A 2975   5.300   6.153   5.035  0.8237 -0.0877 -1.2479
   25CHL1  H15B 2976   5.156   6.064   5.093 -1.8263  0.4132  0.0605
   25CHL1   C16 2977   5.129   6.140   4.897 -0.0035  0.2379  0.2935
   25CHL1  H16A 2978   5.218   6.124   4.831  1.5017  1.4642  1.9274
   25CHL1  H16B 2979   5.050   6.062   4.892  0.0650 -0.1085  3.1656
   25CHL1   C17 2980   5.078   6.276   4.853 -0.2367 -0.6627 -0.3986
   25CHL1   H17 2981   4.967   6.279   4.859 -0.2750  2.2445 -0.8839
   25CHL1   C13 2982   5.129   6.385   4.952 -0.1173  0.2970 -0.0111
   25CHL1   C18 2983   5.271   6.433   4.916 -0.5060  0.2668  0.0131
   25CHL1  H18A 2984   5.269   6.471   4.812  1.2911 -0.5500 -0.3520
   25CHL1  H18B 2985   5.316   6.507   4.986  1.2042 -2.1587  1.6459
   25CHL1  H18C 2986   5.339   6.346   4.914  0.4183  0.8539  2.3049
   25CHL1   C12 2987   5.036   6.512   4.987  0.5550  0.1213 -0.0167
   25CHL1  H12A 2988   5.032   6.583   4.901 -1.1942 -0.6212 -0.5993
   25CHL1  H12B 2989   4.932   6.473   4.998  1.2211 -1.6223  0.3185
   25CHL1   C11 2990   5.072   6.582   5.115 -0.2487  0.6765  0.3318
   25CHL1  H11A 2991   5.163   6.640   5.089 -0.4803  0.8451 -0.1246
   25CHL1  H11B 2992   4.990   6.653   5.140 -0.8033 -0.0356  0.5571
   25CHL1    C9 2993   5.088   6.486   5.234 -0.1157  0.2539 -0.5533
   25CHL1    H9 2994   4.983   6.450   5.248 -0.3620 -0.1294 -3.0230
   25CHL1   C10 2995   5.127   6.563   5.367  0.7186 -0.8042  0.2624
   25CHL1   C19 2996   5.245   6.660   5.332  0.0403 -0.3194 -0.0771
   25CHL1  H19A 2997   5.321   6.607   5.270 -0.6515  0.1473 -1.3697
   25CHL1  H19B 2998   5.208   6.748   5.275  1.3895  0.4389  0.1848
   25CHL1  H19C 2999   5.295   6.691   5.426 -1.2871 -1.1684  0.9381
   25CHL1    C1 3000   4.997   6.655   5.411  0.0069 -0.1092  0.1055
   25CHL1   H1A 3001   4.997   6.746   5.346  1.2700 -0.8155 -0.9253
   25CHL1   H1B 3002   4.900   6.602   5.404 -0.8672  1.6230 -2.1976
   25CHL1    C2 3003   5.006   6.712   5.557 -0.1067 -0.1633 -0.0243
   25CHL1   H2A 3004   4.916   6.767   5.593  1.0642  0.8678  1.4589
   25CHL1   H2B 3005   5.092   6.783   5.559  0.6302 -0.9801 -1.3566
   25CHL1   C20 3006   5.098   6.301   4.700  0.4154 -0.0446 -0.4736
   25CHL1   H20 3007   5.207   6.291   4.680  0.1396  1.2675 -3.0123
   25CHL1   C21 3008   5.034   6.429   4.653  0.8998 -0.8131  0.1028
   25CHL1  H21A 3009   5.037   6.437   4.543 -0.8408 -2.7485 -0.1546
   25CHL1  H21B 3010   5.073   6.522   4.701 -1.9833  0.3677  0.3668
   25CHL1  H21C 3011   4.927   6.440   4.681  0.6631  0.7332 -1.2538
   25CHL1   C22 3012   5.032   6.182   4.627 -0.5064  0.2750  0.3304
   25CHL1  H22A 3013   5.040   6.083   4.678 -3.3836  1.1138  2.7115
   25CHL1  H22B 3014   4.925   6.211   4.627 -0.5901 -0.0028 -0.7093
   25CHL1   C23 3015   5.075   6.164   4.482 -0.1121 -0.5838  0.4474
   25CHL1  H23A 3016   5.077   6.261   4.428  3.2109 -1.3698 -1.0449
   25CHL1  H23B 3017   5.182   6.136   4.473  1.2846  4.3431 -1.6934
   25CHL1   C24 3018   4.995   6.065   4.406 -0.3704 -0.6203 -0.3087
   25CHL1  H24A 3019   5.027   5.968   4.450  0.3159  0.3071  1.3472
   25CHL1  H24B 3020   4.885   6.081   4.411 -0.9472 -4.2541  1.7956
   25CHL1   C25 3021   5.018   6.054   4.256  0.0863  0.1097  0.0667
   25CHL1   H25 3022   5.127   6.041   4.237  0.0825 -2.8035  1.4911
   25CHL1   C26 3023   4.955   5.920   4.216 -0.0230 -0.0786 -0.5649
   25CHL1  H26A 3024   4.847   5.917   4.243  0.2159 -0.9883  0.3727
   25CHL1  H26B 3025   4.971   5.894   4.109 -0.5638 -1.6204 -0.2962
   25CHL1  H26C 3026   5.003   5.842   4.279 -0.3930  0.2952  0.2041
   25CHL1   C27 3027   4.949   6.169   4.174  0.5217  0.8458  0.2616
   25CHL1  H27A 3028   4.841   6.154   4.195  1.2285 -1.0377  3.1005
   25CHL1  H27B 3029   4.975   6.273   4.206 -1.7884  2.2929 -2.1013
   25CHL1  H27C 3030   4.976   6.144   4.070 -0.3236 -0.8271  0.4144
   26CHL1    C3 3031   1.205   3.953   6.257  0.3435  0.1355  0.1863
   26CHL1    H3 3032   1.123   3.879   6.263  2.0053 -1.8882 -0.6461
   26CHL1    O3 3033   1.208   4.009   6.387 -0.6427 -0.7960  0.1570
   26CHL1   H3' 3034   1.286   4.064   6.386  0.2812 -2.0519  0.8302
   26CHL1    C4 3035   1.338   3.888   6.219  0.2232  0.3086  0.0917
   26CHL1   H4A 3036   1.417   3.965   6.228 -0.3904  1.4107 -2.6507
   26CHL1   H4B 3037   1.345   3.813   6.301 -0.1306 -0.8009 -0.8554
   26CHL1    C5 3038   1.333   3.824   6.081  0.6397  0.2414  0.3455
   26CHL1    C6 3039   1.341   3.689   6.058 -0.1898 -0.0079  0.1224
   26CHL1    H6 3040   1.344   3.619   6.143 -2.0769  0.1335  0.3402
   26CHL1    C7 3041   1.331   3.625   5.927 -0.3421 -0.2651  0.1434
   26CHL1   H7A 3042   1.403   3.543   5.908  3.6032  2.7319  0.7291
   26CHL1   H7B 3043   1.229   3.583   5.918 -1.3598  2.2519 -1.0247
   26CHL1    C8 3044   1.349   3.733   5.814  0.1053  0.3957  0.1327
   26CHL1    H8 3045   1.456   3.760   5.812  0.3652 -0.5896  0.4955
   26CHL1   C14 3046   1.315   3.677   5.678  0.4997 -0.8351  0.2026
   26CHL1   H14 3047   1.207   3.652   5.677  0.1728  0.5078 -0.1104
   26CHL1   C15 3048   1.374   3.546   5.631 -0.5308  0.2389 -0.4223
   26CHL1  H15A 3049   1.482   3.545   5.656 -0.7872  0.3281  0.7178
   26CHL1  H15B 3050   1.321   3.457   5.672 -0.4578  0.0983 -0.6300
   26CHL1   C16 3051   1.359   3.549   5.477 -0.3884 -0.4810 -0.9582
   26CHL1  H16A 3052   1.464   3.541   5.441  0.2023  2.2388 -0.0579
   26CHL1  H16B 3053   1.288   3.472   5.440 -0.8881  0.0224 -1.0731
   26CHL1   C17 3054   1.296   3.691   5.446  0.4204 -0.2716  0.9500
   26CHL1   H17 3055   1.186   3.687   5.441  0.4291  0.7656 -1.5471
   26CHL1   C13 3056   1.324   3.785   5.571  1.0698  0.6554  0.0767
   26CHL1   C18 3057   1.471   3.835   5.556 -0.3201 -0.2827 -0.2970
   26CHL1  H18A 3058   1.471   3.912   5.476  1.9598  0.1382  0.0411
   26CHL1  H18B 3059   1.509   3.893   5.642 -0.5085 -1.8678  0.9075
   26CHL1  H18C 3060   1.542   3.753   5.531 -0.4833 -1.2183  2.0413
   26CHL1   C12 3061   1.223   3.896   5.584  0.3533 -0.1301  0.3096
   26CHL1  H12A 3062   1.213   3.981   5.512 -0.3904  0.5736  1.2139
   26CHL1  H12B 3063   1.121   3.854   5.588 -0.6112  2.1331  2.3977
   26CHL1   C11 3064   1.258   3.958   5.721  1.2530  0.1201  0.0732
   26CHL1  H11A 3065   1.347   4.021   5.699 -0.5851  2.0729 -2.2759
   26CHL1  H11B 3066   1.180   4.035   5.740  2.1823  1.1564 -0.2256
   26CHL1    C9 3067   1.267   3.862   5.837 -0.9726 -0.2369 -0.6778
   26CHL1    H9 3068   1.167   3.813   5.846 -1.3409  0.7893  1.3798
   26CHL1   C10 3069   1.300   3.929   5.971  0.3938  0.4810  0.5359
   26CHL1   C19 3070   1.427   4.016   5.957  0.7493 -0.6099  0.1088
   26CHL1  H19A 3071   1.455   4.074   6.048 -1.5667  1.2760 -0.2588
   26CHL1  H19B 3072   1.512   3.966   5.907  1.1074  1.6998 -1.8023
   26CHL1  H19C 3073   1.405   4.102   5.890  2.5750 -0.0311  0.1959
   26CHL1    C1 3074   1.174   4.001   6.018 -0.1237 -0.2058  0.5116
   26CHL1   H1A 3075   1.160   4.087   5.949 -1.2297 -0.9713 -0.2679
   26CHL1   H1B 3076   1.091   3.935   5.985  1.6089 -0.9895 -2.6812
   26CHL1    C2 3077   1.177   4.067   6.160 -0.3450 -0.1852 -0.2049
   26CHL1   H2A 3078   1.085   4.124   6.186 -1.4156 -1.3094 -1.4035
   26CHL1   H2B 3079   1.264   4.135   6.153  1.2656 -2.0924  0.4055
   26CHL1   C20 3080   1.335   3.742   5.299  0.2515 -0.3897 -0.1539
   26CHL1   H20 3081   1.444   3.766   5.295  0.2792  0.5350  3.2193
   26CHL1   C21 3082   1.257   3.866   5.266 -0.3541  0.7269 -0.6098
   26CHL1  H21A 3083   1.149   3.860   5.292 -0.4405  1.4754 -0.7753
   26CHL1  H21B 3084   1.268   3.886   5.158 -0.4172 -0.0342 -0.7572
   26CHL1  H21C 3085   1.293   3.950   5.329 -0.7373 -0.2876  1.0372
   26CHL1   C22 3086   1.307   3.635   5.187  0.6198  0.0497 -0.4590
   26CHL1  H22A 3087   1.314   3.681   5.087  1.3418  0.3099 -0.2976
   26CHL1  H22B 3088   1.378   3.554   5.214  1.1230  0.1676 -1.3996
   26CHL1   C23 3089   1.169   3.567   5.194 -0.3255 -0.3598  0.3742
   26CHL1  H23A 3090   1.148   3.507   5.285 -0.6942  2.4166  2.2559
   26CHL1  H23B 3091   1.083   3.637   5.201 -0.1197 -0.2417  2.9330
   26CHL1   C24 3092   1.141   3.470   5.074  0.5995  0.2442  0.1601
   26CHL1  H24A 3093   1.209   3.384   5.092  1.3186  1.0008  1.1160
   26CHL1  H24B 3094   1.038   3.428   5.084  1.0456 -1.1932 -0.9858
   26CHL1   C25 3095   1.172   3.522   4.931 -0.0063 -0.1355 -0.2954
   26CHL1   H25 3096   1.281   3.528   4.910  0.0658  1.7851  0.3783
   26CHL1   C26 3097   1.112   3.428   4.825 -0.0684 -0.2900 -0.7070
   26CHL1  H26A 3098   1.183   3.345   4.809 -1.8925 -1.8912 -0.7750
   26CHL1  H26B 3099   1.022   3.368   4.850  1.1382 -1.6683  0.5204
   26CHL1  H26C 3100   1.100   3.479   4.727  0.6847 -0.0455 -0.6757
   26CHL1   C27 3101   1.104   3.662   4.901 -0.5831 -0.1197 -0.6368
   26CHL1  H27A 3102   1.140   3.744   4.966  1.2639 -1.2988 -0.0866
   26CHL1  H27B 3103   1.130   3.683   4.796 -2.0112  0.4687 -0.8969
   26CHL1  H27C 3104   0.994   3.645   4.910 -0.5176 -0.7548 -0.9763
   27CHL1    C3 3105   5.434   2.762   6.104  0.3138 -0.8661  0.1216
   27CHL1    H3 3106   5.542   2.746   6.085  0.2511 -0.2452 -0.8575
   27CHL1    O3 3107   5.392   2.723   6.229  0.2561  0.5757 -0.3764
   27CHL1   H3' 3108   5.452   2.778   6.281  0.6313  1.2654 -1.4939
   27CHL1    C4 3109   5.414   2.909   6.071 -0.0435 -0.0830 -0.3337
   27CHL1   H4A 3110   5.303   2.916   6.084  0.1201 -0.9836  2.1610
   27CHL1   H4B 3111   5.447   2.980   6.150 -0.9936  1.7169 -1.4690
   27CHL1    C5 3112   5.450   2.951   5.931  0.4339  0.3934 -0.1547
   27CHL1    C6 3113   5.532   3.053   5.910  0.0205 -0.0021  0.0241
   27CHL1    H6 3114   5.562   3.113   5.997 -1.6513  2.5237 -1.0263
   27CHL1    C7 3115   5.566   3.099   5.768  0.1679  0.2083  0.2425
   27CHL1   H7A 3116   5.537   3.206   5.757 -0.5678 -0.1172 -1.2367
   27CHL1   H7B 3117   5.675   3.101   5.748  0.0125 -1.7376 -1.1418
   27CHL1    C8 3118   5.486   3.024   5.654 -0.1220  0.2092 -1.1625
   27CHL1    H8 3119   5.388   3.075   5.639 -0.0603  0.5374 -0.4860
   27CHL1   C14 3120   5.573   3.051   5.529 -0.3486  0.9300  0.2668
   27CHL1   H14 3121   5.663   2.989   5.548 -0.2146  0.1740 -2.4077
   27CHL1   C15 3122   5.627   3.192   5.480  0.2335 -0.3704  0.4464
   27CHL1  H15A 3123   5.552   3.270   5.508 -0.4072 -0.8103 -0.0029
   27CHL1  H15B 3124   5.724   3.215   5.529  0.4950  0.5900 -0.5030
   27CHL1   C16 3125   5.641   3.188   5.329  0.1233 -0.0509 -0.1023
   27CHL1  H16A 3126   5.580   3.260   5.270  1.1783 -0.4145 -1.6777
   27CHL1  H16B 3127   5.747   3.207   5.300  0.0327  0.1617 -0.2998
   27CHL1   C17 3128   5.606   3.040   5.293  0.3674  0.3610  1.0970
   27CHL1   H17 3129   5.702   2.987   5.309  0.1592 -0.7680 -1.0520
   27CHL1   C13 3130   5.508   2.990   5.401 -0.2966  0.0474 -0.2914
   27CHL1   C18 3131   5.371   3.047   5.375  0.4133 -0.1581  0.4089
   27CHL1  H18A 3132   5.375   3.157   5.360 -1.4542  0.0734  1.2418
   27CHL1  H18B 3133   5.330   3.010   5.278 -0.9662  0.8896  0.5601
   27CHL1  H18C 3134   5.297   3.013   5.450 -1.7150  0.3468 -1.3462
   27CHL1   C12 3135   5.484   2.836   5.419 -0.3543 -0.0781  0.6532
   27CHL1  H12A 3136   5.438   2.795   5.326 -0.0948 -0.3456  0.6429
   27CHL1  H12B 3137   5.585   2.790   5.418  0.3283  1.3427 -0.3359
   27CHL1   C11 3138   5.411   2.806   5.555 -0.4322 -0.1139  0.3925
   27CHL1  H11A 3139   5.302   2.824   5.544 -0.6746 -1.2903  0.6945
   27CHL1  H11B 3140   5.426   2.696   5.567 -0.5564 -0.2808 -0.8164
   27CHL1    C9 3141   5.468   2.877   5.681 -0.2798 -0.8549  0.1647
   27CHL1    H9 3142   5.574   2.848   5.698 -0.3573  0.4954  3.9793
   27CHL1   C10 3143   5.398   2.861   5.820  0.0407 -0.8158  0.9530
   27CHL1   C19 3144   5.248   2.901   5.809 -0.4051 -0.1863 -0.7117
   27CHL1  H19A 3145   5.191   2.848   5.729 -0.0855  0.1488 -1.1707
   27CHL1  H19B 3146   5.203   2.877   5.907  0.9765 -0.1523 -0.0476
   27CHL1  H19C 3147   5.232   3.010   5.792  1.3885  0.0157 -1.3521
   27CHL1    C1 3148   5.407   2.713   5.856 -0.2460 -0.2072 -0.0712
   27CHL1   H1A 3149   5.340   2.655   5.788 -1.8079 -1.0060  2.0260
   27CHL1   H1B 3150   5.515   2.691   5.851  0.6649  2.8276  2.7393
   27CHL1    C2 3151   5.358   2.679   5.999 -0.5333 -0.0565  0.0164
   27CHL1   H2A 3152   5.351   2.570   6.016  0.8633 -0.2420 -0.4694
   27CHL1   H2B 3153   5.253   2.715   6.005 -0.1552  1.2969 -0.9098
   27CHL1   C20 3154   5.564   3.018   5.142  0.3598 -0.1990  0.3619
   27CHL1   H20 3155   5.455   3.038   5.127  0.4179 -1.4588 -2.2934
   27CHL1   C21 3156   5.580   2.881   5.095 -0.6522  0.4190 -0.0119
   27CHL1  H21A 3157   5.656   2.838   5.163 -0.1101  0.1459 -0.7897
   27CHL1  H21B 3158   5.608   2.871   4.988  0.2609 -1.4864  0.3610
   27CHL1  H21C 3159   5.490   2.817   5.110 -0.5135 -0.0507 -1.1053
   27CHL1   C22 3160   5.648   3.113   5.046  0.5986  0.0168  0.0519
   27CHL1  H22A 3161   5.642   3.216   5.087 -0.9378  0.1404 -0.4415
   27CHL1  H22B 3162   5.756   3.087   5.051  0.5631 -0.0918  0.2834
   27CHL1   C23 3163   5.623   3.120   4.889  0.3939 -0.0519  0.1437
   27CHL1  H23A 3164   5.671   3.032   4.840  1.4047  0.9873 -0.8272
   27CHL1  H23B 3165   5.516   3.104   4.867  0.5835 -3.1338  1.0929
   27CHL1   C24 3166   5.661   3.249   4.818 -0.1981 -0.3497  0.5349
   27CHL1  H24A 3167   5.586   3.319   4.860 -0.2938  0.7455 -1.3867
   27CHL1  H24B 3168   5.760   3.288   4.848  1.8849 -2.3074 -3.1806
   27CHL1   C25 3169   5.654   3.258   4.666  0.5357 -0.3583  0.0879
   27CHL1   H25 3170   5.572   3.188   4.639  0.4997 -0.5846  0.7708
   27CHL1   C26 3171   5.622   3.400   4.633 -0.0078 -0.6676  0.1746
   27CHL1  H26A 3172   5.548   3.445   4.703  0.5877  1.2644 -0.3867
   27CHL1  H26B 3173   5.706   3.470   4.651 -0.4911  0.1747 -0.7250
   27CHL1  H26C 3174   5.587   3.400   4.528 -2.1488  0.8000  0.8211
   27CHL1   C27 3175   5.778   3.208   4.591  0.2457  0.1469  0.2779
   27CHL1  H27A 3176   5.860   3.278   4.616  0.0010 -0.1012  1.8555
   27CHL1  H27B 3177   5.749   3.218   4.484  1.9446  1.0659 -0.1287
   27CHL1  H27C 3178   5.805   3.105   4.621  0.8092  0.3854  0.5968
   28CHL1    C3 3179   3.287   4.137   5.862  0.5284 -0.2621  0.4549
   28CHL1    H3 3180   3.293   4.231   5.804 -3.0800 -1.2481 -1.8368
   28CHL1    O3 3181   3.296   4.171   6.001  0.4587  0.3832  0.2604
   28CHL1   H3' 3182   3.299   4.086   6.045  2.1460  1.2061  1.9011
   28CHL1    C4 3183   3.148   4.070   5.850  0.3619  0.7722  0.2990
   28CHL1   H4A 3184   3.131   3.981   5.914  2.1582  0.0932 -0.1176
   28CHL1   H4B 3185   3.067   4.140   5.882  0.1123  0.3248  0.6486
   28CHL1    C5 3186   3.127   4.019   5.709  0.0991  0.1368  0.0093
   28CHL1    C6 3187   3.026   4.066   5.642  0.0286  0.1763 -0.6016
   28CHL1    H6 3188   2.967   4.145   5.690  1.1480  2.4215 -2.6536
   28CHL1    C7 3189   2.998   4.035   5.500 -0.1062 -0.3634 -0.0886
   28CHL1   H7A 3190   2.895   3.998   5.485  0.7890 -2.2802 -2.0928
   28CHL1   H7B 3191   3.011   4.120   5.430 -1.8197  0.6585  0.7897
   28CHL1    C8 3192   3.084   3.908   5.457 -0.0528 -0.8548 -0.2286
   28CHL1    H8 3193   3.040   3.825   5.516 -0.1013 -0.4387  0.3298
   28CHL1   C14 3194   3.068   3.881   5.311  0.3522  0.2923 -0.2338
   28CHL1   H14 3195   3.102   3.967   5.249  0.2817 -0.5035 -1.4182
   28CHL1   C15 3196   2.922   3.857   5.253  0.3207 -1.0956  0.7812
   28CHL1  H15A 3197   2.876   3.787   5.326  0.2779  0.0312  1.8582
   28CHL1  H15B 3198   2.876   3.958   5.249  1.9062 -0.3573 -2.4043
   28CHL1   C16 3199   2.944   3.791   5.117 -0.1606 -0.2916  0.2867
   28CHL1  H16A 3200   2.879   3.702   5.103  1.3573 -1.4915  0.6361
   28CHL1  H16B 3201   2.923   3.858   5.031  2.2928 -1.0084 -0.9765
   28CHL1   C17 3202   3.092   3.753   5.105 -0.3613  0.4481 -0.4449
   28CHL1   H17 3203   3.142   3.829   5.040  0.1392 -0.6829 -1.4093
   28CHL1   C13 3204   3.149   3.763   5.253 -0.5020 -0.8617 -0.7730
   28CHL1   C18 3205   3.127   3.626   5.317  0.5390 -0.2185 -0.2137
   28CHL1  H18A 3206   3.191   3.545   5.275 -0.6006 -1.6544  0.7017
   28CHL1  H18B 3207   3.145   3.644   5.425  0.6654  0.9929 -0.4272
   28CHL1  H18C 3208   3.023   3.594   5.294 -0.0787  0.8092  1.0157
   28CHL1   C12 3209   3.295   3.808   5.279 -0.7014  0.0053  0.0874
   28CHL1  H12A 3210   3.371   3.742   5.233 -0.6174 -0.0936  0.3716
   28CHL1  H12B 3211   3.306   3.910   5.237  0.7946  0.4529  1.4914
   28CHL1   C11 3212   3.328   3.826   5.427  0.4372 -0.2214  0.2747
   28CHL1  H11A 3213   3.335   3.728   5.478  0.3489  0.4606  1.6299
   28CHL1  H11B 3214   3.427   3.876   5.435  0.0961  0.3077  1.3666
   28CHL1    C9 3215   3.231   3.927   5.493 -0.2108  0.3588 -0.6669
   28CHL1    H9 3216   3.263   4.027   5.457  1.2537 -0.0375 -0.5373
   28CHL1   C10 3217   3.249   3.934   5.652 -0.4828 -0.0442  0.4548
   28CHL1   C19 3218   3.247   3.794   5.718 -0.0737  0.5214  0.2992
   28CHL1  H19A 3219   3.177   3.719   5.676  2.2242 -1.7238  0.1645
   28CHL1  H19B 3220   3.345   3.742   5.703 -0.5187 -0.2818  0.1108
   28CHL1  H19C 3221   3.234   3.815   5.826 -1.0795  1.7417 -0.0489
   28CHL1    C1 3222   3.380   4.003   5.684  0.3752 -0.2197 -0.3926
   28CHL1   H1A 3223   3.458   3.937   5.641 -1.2808 -2.3829 -0.2559
   28CHL1   H1B 3224   3.390   4.100   5.631  1.7712  0.2574  0.6989
   28CHL1    C2 3225   3.395   4.039   5.831  0.3786 -0.3973 -0.0299
   28CHL1   H2A 3226   3.499   4.076   5.843  1.3254 -3.2065  1.4748
   28CHL1   H2B 3227   3.390   3.947   5.894  1.0069 -0.1786  0.3508
   28CHL1   C20 3228   3.113   3.631   5.018 -0.9667 -0.0204  0.8808
   28CHL1   H20 3229   3.044   3.553   5.057  0.1300 -3.0008 -2.5353
   28CHL1   C21 3230   3.261   3.588   5.011  0.0477 -0.3908  0.4201
   28CHL1  H21A 3231   3.304   3.572   5.112  2.0276  1.4263 -0.0433
   28CHL1  H21B 3232   3.315   3.675   4.967 -1.6140  1.0367  1.0747
   28CHL1  H21C 3233   3.278   3.502   4.942  0.8239 -1.8416  2.3303
   28CHL1   C22 3234   3.054   3.663   4.877  0.1875  0.3168  0.2279
   28CHL1  H22A 3235   2.961   3.723   4.879 -0.4215 -0.5730  2.6703
   28CHL1  H22B 3236   3.123   3.722   4.814 -0.3114 -2.4268 -3.2157
   28CHL1   C23 3237   3.024   3.534   4.797  0.1230 -0.1621 -0.3129
   28CHL1  H23A 3238   3.111   3.468   4.780 -0.6753 -0.9619 -1.4588
   28CHL1  H23B 3239   2.952   3.475   4.858 -2.9621  0.2174 -3.2966
   28CHL1   C24 3240   2.952   3.550   4.665 -0.2802  0.3186  0.2362
   28CHL1  H24A 3241   2.851   3.594   4.677 -0.0613  1.9132 -2.8252
   28CHL1  H24B 3242   3.008   3.607   4.589 -0.4121  2.3837  1.6192
   28CHL1   C25 3243   2.929   3.403   4.610 -0.6882  0.1879  0.4918
   28CHL1   H25 3244   3.027   3.350   4.617 -0.6869  0.2254  0.7768
   28CHL1   C26 3245   2.837   3.315   4.685  0.7970 -0.4792  0.1376
   28CHL1  H26A 3246   2.844   3.206   4.664  0.5179 -0.8520  1.8056
   28CHL1  H26B 3247   2.864   3.316   4.793  0.6165  0.6047  0.1773
   28CHL1  H26C 3248   2.731   3.345   4.670  0.3067 -1.9806  0.4048
   28CHL1   C27 3249   2.893   3.406   4.459  0.0180 -0.2445 -0.2927
   28CHL1  H27A 3250   2.851   3.311   4.419  0.1279 -0.3738 -0.1037
   28CHL1  H27B 3251   2.815   3.482   4.439  0.4403  0.0297 -0.9151
   28CHL1  H27C 3252   2.982   3.441   4.402 -0.0428  1.9493  0.8506
   29CHL1    C3 3253   6.826   4.488   6.172  0.5665  0.5948  0.1544
   29CHL1    H3 3254   6.724   4.466   6.134  1.1467  0.0251 -1.1229
   29CHL1    O3 3255   6.837   4.488   6.312  0.4693  0.1846  0.0024
   29CHL1   H3' 3256   6.926   4.509   6.341  0.1498  3.5512 -1.0614
   29CHL1    C4 3257   6.914   4.374   6.111 -0.5623  0.5310  0.2230
   29CHL1   H4A 3258   7.010   4.368   6.167 -1.0134 -0.4417  0.9185
   29CHL1   H4B 3259   6.864   4.281   6.145 -0.4215  0.2800 -0.2522
   29CHL1    C5 3260   6.923   4.383   5.959  0.2310  0.3307  0.4765
   29CHL1    C6 3261   6.893   4.276   5.884 -0.1719  0.0503  0.1638
   29CHL1    H6 3262   6.857   4.183   5.929 -0.7093 -0.5310 -1.4008
   29CHL1    C7 3263   6.904   4.284   5.729  0.2538  0.0816  0.1243
   29CHL1   H7A 3264   6.956   4.195   5.688 -1.9550 -2.4179  2.3003
   29CHL1   H7B 3265   6.802   4.270   5.687  0.0845  1.1482  0.1416
   29CHL1    C8 3266   6.984   4.405   5.680  0.0972  0.0353 -0.5139
   29CHL1    H8 3267   7.088   4.382   5.711  0.0855  1.9309  1.1817
   29CHL1   C14 3268   6.980   4.412   5.533 -0.4358  0.7268  0.2954
   29CHL1   H14 3269   6.874   4.424   5.500 -0.1993  0.6771 -0.4916
   29CHL1   C15 3270   7.020   4.286   5.451 -0.3512 -0.2759  0.1554
   29CHL1  H15A 3271   7.110   4.238   5.497 -0.5425 -0.0587  0.7681
   29CHL1  H15B 3272   6.940   4.209   5.447  0.1639 -0.7957 -0.3851
   29CHL1   C16 3273   7.047   4.344   5.311 -0.1487 -0.6976 -0.1949
   29CHL1  H16A 3274   7.150   4.310   5.287 -0.0080 -0.3918 -0.0416
   29CHL1  H16B 3275   6.989   4.300   5.228 -1.3387 -0.4739  0.4991
   29CHL1   C17 3276   7.029   4.498   5.321 -0.0869 -0.6930 -0.3225
   29CHL1   H17 3277   6.920   4.518   5.306 -0.2511 -1.5260 -0.2797
   29CHL1   C13 3278   7.054   4.533   5.469  0.9599  0.2316 -0.0529
   29CHL1   C18 3279   7.202   4.514   5.499 -0.1873  0.0116  0.2400
   29CHL1  H18A 3280   7.224   4.517   5.608 -1.0901  1.8921  0.4071
   29CHL1  H18B 3281   7.233   4.415   5.459  2.5570  0.8967 -0.0738
   29CHL1  H18C 3282   7.252   4.599   5.447 -0.7992  0.9525  1.1510
   29CHL1   C12 3283   6.991   4.659   5.528  0.5935  0.4676  0.3743
   29CHL1  H12A 3284   7.032   4.756   5.492  2.6192 -0.3330  0.3688
   29CHL1  H12B 3285   6.886   4.657   5.491  0.2674 -0.7121  1.3174
   29CHL1   C11 3286   7.005   4.660   5.686 -0.2635  0.1570  0.9046
   29CHL1  H11A 3287   7.113   4.654   5.713 -0.3245  1.8324  1.6523
   29CHL1  H11B 3288   6.971   4.760   5.722 -0.8290 -0.2601  1.5407
   29CHL1    C9 3289   6.939   4.534   5.742 -0.1709  0.7263 -0.4307
   29CHL1    H9 3290   6.830   4.543   5.723 -0.3785 -3.2344 -2.1613
   29CHL1   C10 3291   6.949   4.523   5.902 -0.1939 -0.3396  0.1595
   29CHL1   C19 3292   7.095   4.550   5.947  0.2987  0.2347  0.2232
   29CHL1  H19A 3293   7.168   4.487   5.892  1.3838  0.6682  1.1072
   29CHL1  H19B 3294   7.124   4.653   5.916 -1.0416  0.2683 -1.0312
   29CHL1  H19C 3295   7.106   4.550   6.058  0.9264 -0.3974  0.1641
   29CHL1    C1 3296   6.858   4.633   5.973 -0.5407 -0.2110 -0.0809
   29CHL1   H1A 3297   6.897   4.735   5.949 -0.8607 -0.7824 -3.6316
   29CHL1   H1B 3298   6.754   4.625   5.935 -1.4473 -0.1629  2.2529
   29CHL1    C2 3299   6.862   4.624   6.121 -0.3772  0.2302  0.2949
   29CHL1   H2A 3300   6.795   4.706   6.154  0.5838  1.6657 -1.1174
   29CHL1   H2B 3301   6.965   4.648   6.156  0.1928 -1.4470 -0.1550
   29CHL1   C20 3302   7.106   4.571   5.207  0.7620  0.5095  0.3983
   29CHL1   H20 3303   7.214   4.548   5.220  0.4266  0.0497  3.0094
   29CHL1   C21 3304   7.085   4.729   5.215 -0.1706  0.4655 -0.3178
   29CHL1  H21A 3305   7.126   4.773   5.122 -0.5720  0.6799 -0.3942
   29CHL1  H21B 3306   7.138   4.763   5.307  2.3119 -1.4756 -0.9045
   29CHL1  H21C 3307   6.980   4.763   5.228  0.1224  2.5089 -2.7384
   29CHL1   C22 3308   7.067   4.509   5.065  0.4181 -0.0924 -0.1804
   29CHL1  H22A 3309   7.096   4.402   5.059 -0.7789 -0.3669 -1.7363
   29CHL1  H22B 3310   6.957   4.510   5.051  0.4535 -2.0904 -0.9333
   29CHL1   C23 3311   7.129   4.589   4.951  0.5657 -0.2706  0.2881
   29CHL1  H23A 3312   7.096   4.692   4.924  1.1879 -0.0567  0.3359
   29CHL1  H23B 3313   7.235   4.608   4.976  1.2445 -0.9219 -1.8614
   29CHL1   C24 3314   7.114   4.507   4.819  0.3916 -0.0286 -0.0373
   29CHL1  H24A 3315   7.132   4.399   4.839  1.4089  0.1530  0.0766
   29CHL1  H24B 3316   7.012   4.519   4.775 -1.3082 -4.0571  2.2214
   29CHL1   C25 3317   7.211   4.551   4.707  0.5941 -0.4468  0.6040
   29CHL1   H25 3318   7.216   4.662   4.703  0.5281 -0.4382  0.7713
   29CHL1   C26 3319   7.359   4.501   4.733  0.4990 -0.4261  0.0137
   29CHL1  H26A 3320   7.352   4.416   4.804  0.7138  0.2468  0.8512
   29CHL1  H26B 3321   7.419   4.475   4.643 -1.0255 -1.6995 -0.6850
   29CHL1  H26C 3322   7.411   4.584   4.786 -0.9039 -0.1307  0.9712
   29CHL1   C27 3323   7.159   4.498   4.569  0.2355  0.3873 -0.3860
   29CHL1  H27A 3324   7.222   4.537   4.485 -1.0265  0.0109 -1.5484
   29CHL1  H27B 3325   7.168   4.388   4.560 -0.8246  0.3857 -1.7971
   29CHL1  H27C 3326   7.057   4.541   4.560  0.4366  1.2192  1.0783
   30CHL1    C3 3327   0.765   4.946   6.121  0.1446  0.1117 -0.0444
   30CHL1    H3 3328   0.849   5.019   6.117 -1.2347  1.7796  0.5730
   30CHL1    O3 3329   0.746   4.915   6.252 -0.1270  0.1686 -0.5161
   30CHL1   H3' 3330   0.771   4.822   6.258  0.0797 -0.0183 -3.1586
   30CHL1    C4 3331   0.639   5.016   6.074 -0.5975  0.7308  0.0935
   30CHL1   H4A 3332   0.556   4.944   6.087 -0.3977 -0.0833 -2.4629
   30CHL1   H4B 3333   0.615   5.094   6.148 -2.5607 -2.2341  2.8227
   30CHL1    C5 3334   0.634   5.058   5.926  0.0376 -1.0521  0.0702
   30CHL1    C6 3335   0.616   5.187   5.885  0.8248 -0.0989  0.2120
   30CHL1    H6 3336   0.608   5.267   5.960  0.4781  0.8500 -0.8104
   30CHL1    C7 3337   0.602   5.227   5.741  0.4093  0.4429  0.8562
   30CHL1   H7A 3338   0.504   5.280   5.732  0.6794  0.8162 -0.0145
   30CHL1   H7B 3339   0.684   5.294   5.708  0.8385 -0.4693  0.0031
   30CHL1    C8 3340   0.598   5.106   5.637  0.8370  0.7286  0.1077
   30CHL1    H8 3341   0.493   5.069   5.634  1.5352 -1.3774 -0.0172
   30CHL1   C14 3342   0.639   5.146   5.500  0.0611 -0.7406  0.7415
   30CHL1   H14 3343   0.742   5.188   5.508  0.2316 -0.9880 -0.0606
   30CHL1   C15 3344   0.569   5.267   5.440 -0.0022  0.0250  0.6304
   30CHL1  H15A 3345   0.462   5.243   5.454 -0.1509  0.1670 -0.2007
   30CHL1  H15B 3346   0.587   5.368   5.483 -2.8383  0.0378  1.9787
   30CHL1   C16 3347   0.604   5.254   5.286  0.0657 -0.3391 -0.1552
   30CHL1  H16A 3348   0.511   5.269   5.226  0.7817  2.6856 -0.6481
   30CHL1  H16B 3349   0.679   5.327   5.249  0.1034  0.7557  1.9550
   30CHL1   C17 3350   0.672   5.116   5.267 -0.6611  0.2710  0.6445
   30CHL1   H17 3351   0.778   5.131   5.294 -0.9413  1.7261  1.0121
   30CHL1   C13 3352   0.632   5.032   5.386 -0.6027 -0.3516 -0.1998
   30CHL1   C18 3353   0.489   4.973   5.376 -0.1051 -0.0183  0.4244
   30CHL1  H18A 3354   0.492   4.893   5.299 -0.9259 -0.6665  1.0490
   30CHL1  H18B 3355   0.456   4.936   5.475  0.9056  0.5485  0.9953
   30CHL1  H18C 3356   0.416   5.045   5.333  0.5596  0.4126  0.0001
   30CHL1   C12 3357   0.742   4.930   5.431  0.4250  0.0840  0.4058
   30CHL1  H12A 3358   0.751   4.842   5.364  1.6638  1.0575 -0.7596
   30CHL1  H12B 3359   0.838   4.985   5.423  1.3352 -1.4186  0.7024
   30CHL1   C11 3360   0.695   4.878   5.572 -0.1248  0.6274  0.3672
   30CHL1  H11A 3361   0.596   4.830   5.559 -1.3640  2.7109  1.6612
   30CHL1  H11B 3362   0.769   4.802   5.605  0.4673  1.2440  0.4823
   30CHL1    C9 3363   0.689   4.993   5.679  0.2719 -0.4512 -0.1978
   30CHL1    H9 3364   0.792   5.033   5.686 -1.1556  3.5993  0.5445
   30CHL1   C10 3365   0.665   4.942   5.824 -0.3607 -0.7267  0.4423
   30CHL1   C19 3366   0.551   4.848   5.818  0.1269 -0.2140  0.1345
   30CHL1  H19A 3367   0.561   4.760   5.751  1.5918 -0.3001  0.4237
   30CHL1  H19B 3368   0.527   4.804   5.917 -0.2812 -1.1949 -0.3834
   30CHL1  H19C 3369   0.458   4.901   5.790 -0.4172 -0.0686  2.0821
   30CHL1    C1 3370   0.797   4.862   5.871  0.6249  0.5124 -0.3226
   30CHL1   H1A 3371   0.802   4.772   5.806  1.5679 -1.0211  1.7569
   30CHL1   H1B 3372   0.882   4.930   5.852 -0.0683  0.5134 -4.1453
   30CHL1    C2 3373   0.797   4.825   6.026  0.7439 -0.1161  0.6221
   30CHL1   H2A 3374   0.904   4.801   6.046  1.3719  0.2478 -1.9994
   30CHL1   H2B 3375   0.734   4.739   6.058 -0.0173  0.3993  0.5546
   30CHL1   C20 3376   0.669   5.046   5.122  0.2999  0.0665  0.0656
   30CHL1   H20 3377   0.657   4.937   5.137  0.1273 -0.4780 -3.1315
   30CHL1   C21 3378   0.804   5.070   5.046 -0.4648  0.4015  0.1216
   30CHL1  H21A 3379   0.817   5.173   5.008  0.5760  0.3426  0.2706
   30CHL1  H21B 3380   0.823   4.992   4.968 -0.0184 -2.0459  2.5080
   30CHL1  H21C 3381   0.895   5.048   5.106  0.1532  1.1351 -0.5244
   30CHL1   C22 3382   0.548   5.092   5.037 -0.0957 -0.3061  0.8472
   30CHL1  H22A 3383   0.450   5.095   5.088 -0.4383 -0.1111  0.1813
   30CHL1  H22B 3384   0.568   5.197   5.007  2.7659 -1.5899 -2.4802
   30CHL1   C23 3385   0.515   5.000   4.916  0.2439 -0.5759 -0.5100
   30CHL1  H23A 3386   0.609   5.006   4.857  1.0153  0.0885  0.7386
   30CHL1  H23B 3387   0.504   4.892   4.940  0.6343 -0.4752  0.1512
   30CHL1   C24 3388   0.388   5.044   4.837 -0.6723  0.1141  1.0538
   30CHL1  H24A 3389   0.300   5.063   4.902 -0.4153  0.6951  1.2357
   30CHL1  H24B 3390   0.414   5.132   4.775  1.1289 -0.8819  0.2941
   30CHL1   C25 3391   0.344   4.936   4.731  0.0451  0.3775 -0.6178
   30CHL1   H25 3392   0.325   4.853   4.802  2.6956  1.0756  1.0636
   30CHL1   C26 3393   0.207   4.967   4.665 -0.0369  0.1792  0.0007
   30CHL1  H26A 3394   0.196   4.870   4.612  0.9451 -1.5956  2.8162
   30CHL1  H26B 3395   0.123   4.994   4.732 -2.1545  0.9893 -2.7937
   30CHL1  H26C 3396   0.211   5.057   4.600 -1.0537 -0.3943 -0.8863
   30CHL1   C27 3397   0.451   4.903   4.629 -0.1771  0.2411  0.7597
   30CHL1  H27A 3398   0.548   4.863   4.666 -0.4124  0.3789  1.5494
   30CHL1  H27B 3399   0.412   4.835   4.550  2.4234 -1.7810  1.0826
   30CHL1  H27C 3400   0.476   4.998   4.577  1.2562 -1.2732 -1.5076
   31CHL1    C3 3401   6.195   5.083   5.661 -0.4598  0.6704 -0.0083
   31CHL1    H3 3402   6.301   5.059   5.686  0.2789  2.4979 -1.1860
   31CHL1    O3 3403   6.116   5.089   5.777  0.2751 -0.1320  0.6042
   31CHL1   H3' 3404   6.155   5.159   5.829 -1.8316  1.8792 -0.3433
   31CHL1    C4 3405   6.177   5.215   5.591  0.1080  0.0270 -0.1185
   31CHL1   H4A 3406   6.068   5.234   5.596  0.2387  0.4721  2.1442
   31CHL1   H4B 3407   6.203   5.293   5.666 -0.4604 -0.5102  0.6573
   31CHL1    C5 3408   6.237   5.208   5.451  0.7784 -0.1190  0.9469
   31CHL1    C6 3409   6.326   5.299   5.408  0.3960 -0.2592  0.4097
   31CHL1    H6 3410   6.357   5.369   5.487 -2.6012  0.5106  1.0518
   31CHL1    C7 3411   6.368   5.304   5.262 -0.0165 -0.2745 -0.8800
   31CHL1   H7A 3412   6.364   5.410   5.227 -0.2044  0.4006  1.0512
   31CHL1   H7B 3413   6.471   5.265   5.259 -0.2905 -1.0662 -0.3778
   31CHL1    C8 3414   6.285   5.218   5.167  0.4804  0.2768 -0.0830
   31CHL1    H8 3415   6.187   5.265   5.145 -1.0157 -3.4522 -2.4251
   31CHL1   C14 3416   6.356   5.197   5.034  0.1788 -0.3658 -0.0842
   31CHL1   H14 3417   6.446   5.137   5.060  0.3261 -0.0959  0.0310
   31CHL1   C15 3418   6.408   5.324   4.965  0.2757 -0.4261  0.0916
   31CHL1  H15A 3419   6.325   5.398   4.966  0.3327 -0.3247  2.3575
   31CHL1  H15B 3420   6.499   5.374   5.003 -0.1240  1.5522 -1.3787
   31CHL1   C16 3421   6.413   5.274   4.815 -0.4308  0.1048 -0.8733
   31CHL1  H16A 3422   6.344   5.332   4.751 -0.7873  0.9249  0.2168
   31CHL1  H16B 3423   6.516   5.281   4.773 -0.7339  0.8923 -1.5130
   31CHL1   C17 3424   6.378   5.124   4.811 -0.1153  0.0394  0.1635
   31CHL1   H17 3425   6.457   5.054   4.844  0.1764  0.2774 -0.0252
   31CHL1   C13 3426   6.280   5.113   4.927 -0.1315 -0.0322 -0.3993
   31CHL1   C18 3427   6.148   5.184   4.884  0.4964 -0.0368  0.1496
   31CHL1  H18A 3428   6.088   5.170   4.977 -0.2666 -1.3598 -0.5209
   31CHL1  H18B 3429   6.170   5.290   4.858 -1.2099  0.5177  0.7804
   31CHL1  H18C 3430   6.100   5.120   4.808 -0.1892 -1.9674  2.1049
   31CHL1   C12 3431   6.253   4.971   4.980 -0.7396 -0.1266 -0.6991
   31CHL1  H12A 3432   6.180   4.925   4.910 -1.1275 -0.7336  0.0917
   31CHL1  H12B 3433   6.351   4.920   4.980  1.1470  3.1816 -0.7352
   31CHL1   C11 3434   6.196   4.975   5.120 -0.5478  0.7912 -1.5962
   31CHL1  H11A 3435   6.088   4.996   5.100 -1.1909 -1.3454 -0.6299
   31CHL1  H11B 3436   6.191   4.872   5.162 -1.5041 -0.2542 -4.0623
   31CHL1    C9 3437   6.257   5.077   5.228  0.2195 -0.1595 -0.0996
   31CHL1    H9 3438   6.360   5.048   5.259  1.0471  2.5749 -0.0697
   31CHL1   C10 3439   6.184   5.087   5.362 -0.0051  0.2214  0.3114
   31CHL1   C19 3440   6.032   5.113   5.326 -0.7954 -0.4530  0.8602
   31CHL1  H19A 3441   6.035   5.195   5.252  0.0645  2.8046  4.1962
   31CHL1  H19B 3442   5.979   5.024   5.285 -1.7652  0.7483 -0.5879
   31CHL1  H19C 3443   5.974   5.141   5.417  2.4852  2.1040  2.3808
   31CHL1    C1 3444   6.195   4.956   5.437  0.2912 -0.1092 -0.6653
   31CHL1   H1A 3445   6.154   4.867   5.383  2.7355  0.4266 -3.7183
   31CHL1   H1B 3446   6.298   4.916   5.449 -0.2217 -1.0743  0.8922
   31CHL1    C2 3447   6.135   4.968   5.580  0.0249 -0.4471  0.0105
   31CHL1   H2A 3448   6.158   4.881   5.646 -0.7763 -1.8057 -1.4106
   31CHL1   H2B 3449   6.024   4.974   5.585  0.0449 -0.4402  0.5014
   31CHL1   C20 3450   6.331   5.079   4.669  0.6475 -0.4549 -0.1389
   31CHL1   H20 3451   6.235   5.130   4.645  1.2854  0.7949 -0.0783
   31CHL1   C21 3452   6.296   4.927   4.658 -0.3429 -0.0513  0.7116
   31CHL1  H21A 3453   6.271   4.906   4.552 -1.2902  0.1762  0.8774
   31CHL1  H21B 3454   6.205   4.908   4.719  0.0688 -1.1818  0.9950
   31CHL1  H21C 3455   6.378   4.860   4.691  0.9798  0.5162 -1.2551
   31CHL1   C22 3456   6.424   5.132   4.558  0.3963  0.4233 -0.4942
   31CHL1  H22A 3457   6.367   5.121   4.463 -0.1221  0.1637 -0.1525
   31CHL1  H22B 3458   6.436   5.242   4.560  2.2749  0.2625 -0.9409
   31CHL1   C23 3459   6.568   5.074   4.530  0.0364  0.1289  0.6491
   31CHL1  H23A 3460   6.640   5.080   4.615 -0.4184  0.2498  1.0288
   31CHL1  H23B 3461   6.562   4.967   4.499 -0.0290  0.4013 -0.3019
   31CHL1   C24 3462   6.617   5.153   4.405  0.1308 -0.1163 -0.0291
   31CHL1  H24A 3463   6.556   5.133   4.314 -0.7298 -0.8621  0.6856
   31CHL1  H24B 3464   6.607   5.260   4.431  2.7866  0.3520 -0.5942
   31CHL1   C25 3465   6.761   5.130   4.365  0.5996 -0.5200 -0.0174
   31CHL1   H25 3466   6.824   5.154   4.453  0.3372 -1.0089  0.3074
   31CHL1   C26 3467   6.798   4.988   4.340 -0.1000 -0.3215  0.2392
   31CHL1  H26A 3468   6.751   4.917   4.412 -2.2976 -2.1060 -2.7115
   31CHL1  H26B 3469   6.758   4.953   4.242 -1.1466  0.6390  0.3040
   31CHL1  H26C 3470   6.907   4.967   4.344  0.0096 -0.0588 -0.8958
   31CHL1   C27 3471   6.809   5.220   4.255  0.5778 -0.2425 -0.0388
   31CHL1  H27A 3472   6.757   5.197   4.160 -1.1079  0.2843  0.7161
   31CHL1  H27B 3473   6.790   5.325   4.285  3.3705  0.2221  0.3618
   31CHL1  H27C 3474   6.917   5.207   4.232  0.6902  0.0089  0.3406
   32CHL1    C3 3475   0.688   1.374   5.755  0.4486 -0.0953  0.6688
   32CHL1    H3 3476   0.600   1.308   5.737  0.7469 -0.3840  0.2685
   32CHL1    O3 3477   0.715   1.383   5.893  0.0351 -0.3756 -0.1301
   32CHL1   H3' 3478   0.677   1.468   5.917  0.3681 -0.0923 -0.6143
   32CHL1    C4 3479   0.813   1.312   5.698  0.0008  0.6288  0.4381
   32CHL1   H4A 3480   0.902   1.376   5.717  1.3117 -0.8748 -0.3688
   32CHL1   H4B 3481   0.835   1.223   5.760 -1.2072  1.3221  1.9221
   32CHL1    C5 3482   0.804   1.291   5.552  0.1491 -0.4499  0.2065
   32CHL1    C6 3483   0.824   1.172   5.498 -0.2070  0.3530 -0.0515
   32CHL1    H6 3484   0.849   1.080   5.553 -1.0549 -0.6232 -1.2514
   32CHL1    C7 3485   0.831   1.150   5.350 -0.3395 -0.1090  0.5732
   32CHL1   H7A 3486   0.922   1.092   5.325 -0.5618 -0.1075 -0.2849
   32CHL1   H7B 3487   0.737   1.099   5.322 -2.0721  1.0806  3.6538
   32CHL1    C8 3488   0.832   1.279   5.264  0.0274  0.2014 -0.0537
   32CHL1    H8 3489   0.937   1.314   5.255 -0.1678  0.8776  0.2028
   32CHL1   C14 3490   0.781   1.243   5.126 -0.2428 -0.4449 -0.2337
   32CHL1   H14 3491   0.671   1.230   5.133 -0.3671  1.2733  2.2970
   32CHL1   C15 3492   0.841   1.127   5.055 -0.0533 -0.0343  0.5831
   32CHL1  H15A 3493   0.950   1.126   5.073 -0.3543  0.3665  2.7138
   32CHL1  H15B 3494   0.798   1.030   5.090 -2.7304  1.3687  1.4768
   32CHL1   C16 3495   0.820   1.151   4.903 -0.1964  0.0666 -0.4403
   32CHL1  H16A 3496   0.921   1.154   4.857  0.4357  1.1985  0.9415
   32CHL1  H16B 3497   0.764   1.063   4.865  2.1023 -2.7858  2.2101
   32CHL1   C17 3498   0.756   1.286   4.895  0.3678 -1.0662  0.6455
   32CHL1   H17 3499   0.646   1.272   4.885  0.4916 -2.4616  1.0008
   32CHL1   C13 3500   0.796   1.361   5.028  0.0294  0.4723 -0.4389
   32CHL1   C18 3501   0.943   1.409   5.021  0.2428 -0.3184 -0.1982
   32CHL1  H18A 3502   0.988   1.437   5.119 -0.3176 -0.7962  0.2088
   32CHL1  H18B 3503   1.007   1.330   4.978  1.1692  0.4446 -0.2622
   32CHL1  H18C 3504   0.947   1.499   4.956 -0.6510 -0.7605 -0.8797
   32CHL1   C12 3505   0.709   1.468   5.079 -0.2053  0.3549 -0.8001
   32CHL1  H12A 3506   0.710   1.567   5.029  1.2141 -1.4249 -4.6861
   32CHL1  H12B 3507   0.610   1.419   5.086  1.0267 -2.1461  0.5324
   32CHL1   C11 3508   0.727   1.512   5.228 -0.5025  0.7438  0.3642
   32CHL1  H11A 3509   0.816   1.578   5.227  0.2928 -0.2424 -2.1056
   32CHL1  H11B 3510   0.652   1.584   5.265 -0.7097 -0.6897  2.9976
   32CHL1    C9 3511   0.735   1.390   5.323 -0.7946  0.4320 -0.0049
   32CHL1    H9 3512   0.631   1.350   5.323 -0.8541  0.5786 -0.2955
   32CHL1   C10 3513   0.768   1.421   5.467 -0.0440  0.7678  0.1058
   32CHL1   C19 3514   0.894   1.511   5.473 -0.1680  0.0952 -0.1942
   32CHL1  H19A 3515   0.986   1.467   5.429 -1.3285 -0.9368 -1.6782
   32CHL1  H19B 3516   0.878   1.609   5.422 -0.7252 -0.1171 -0.4360
   32CHL1  H19C 3517   0.916   1.543   5.577 -1.1553  0.8027 -0.1947
   32CHL1    C1 3518   0.638   1.487   5.543 -0.0961  0.7754 -0.8288
   32CHL1   H1A 3519   0.611   1.581   5.490  0.1402  0.9281 -0.6829
   32CHL1   H1B 3520   0.553   1.417   5.531  0.5582 -0.0770 -0.5667
   32CHL1    C2 3521   0.649   1.507   5.698 -0.0017 -0.2739  1.3648
   32CHL1   H2A 3522   0.555   1.556   5.733 -1.1598 -0.6177 -1.0516
   32CHL1   H2B 3523   0.727   1.580   5.728 -1.1524  0.8138  1.8215
   32CHL1   C20 3524   0.779   1.359   4.758  0.3740  0.3329 -0.2251
   32CHL1   H20 3525   0.890   1.371   4.756  0.2934  1.0101 -0.9213
   32CHL1   C21 3526   0.705   1.499   4.744  0.1307  0.3397  0.0967
   32CHL1  H21A 3527   0.735   1.570   4.824  0.2532  0.5949 -0.1723
   32CHL1  H21B 3528   0.597   1.477   4.758  0.3854 -0.3715  0.9928
   32CHL1  H21C 3529   0.716   1.535   4.639  0.3259  1.3733  0.4566
   32CHL1   C22 3530   0.742   1.276   4.631  0.6711  0.3117 -0.1160
   32CHL1  H22A 3531   0.813   1.192   4.647 -1.2606 -1.3801 -0.0045
   32CHL1  H22B 3532   0.641   1.233   4.645  0.0686  1.6954 -0.1021
   32CHL1   C23 3533   0.789   1.325   4.496 -0.0272  0.2709 -0.1130
   32CHL1  H23A 3534   0.725   1.412   4.471 -1.0107  0.3963  2.5684
   32CHL1  H23B 3535   0.887   1.369   4.522 -0.4896  0.9354  0.5199
   32CHL1   C24 3536   0.784   1.207   4.394  0.3242  0.3078 -0.4685
   32CHL1  H24A 3537   0.848   1.128   4.437 -1.0805 -0.4610  0.2799
   32CHL1  H24B 3538   0.684   1.159   4.407  0.3541 -0.2850 -2.1254
   32CHL1   C25 3539   0.807   1.240   4.245 -0.0912  0.1287  0.4822
   32CHL1   H25 3540   0.905   1.292   4.244 -0.0155 -0.0029  0.9077
   32CHL1   C26 3541   0.830   1.104   4.168  0.1676  0.0623  0.1805
   32CHL1  H26A 3542   0.917   1.042   4.199  0.6972  1.8324  2.4622
   32CHL1  H26B 3543   0.753   1.025   4.181  0.9314 -0.8755 -0.7387
   32CHL1  H26C 3544   0.827   1.127   4.059  0.9937 -2.1746 -0.3707
   32CHL1   C27 3545   0.691   1.318   4.189  0.0586  0.0792  0.5581
   32CHL1  H27A 3546   0.704   1.420   4.232  1.3406  0.0477  0.2847
   32CHL1  H27B 3547   0.688   1.321   4.078 -0.5377 -3.4468  0.3636
   32CHL1  H27C 3548   0.597   1.279   4.235  0.2178 -1.2266 -0.1844
   33CHL1    C3 3549   5.599   1.604   5.785  0.1687  0.1675  0.4513
   33CHL1    H3 3550   5.491   1.581   5.782 -0.1426  0.5131  3.9397
   33CHL1    O3 3551   5.666   1.584   5.910  0.3807  0.4881  0.2748
   33CHL1   H3' 3552   5.747   1.634   5.901 -0.9921  2.4881 -2.6444
   33CHL1    C4 3553   5.672   1.517   5.683 -0.1318 -0.0710  0.3648
   33CHL1   H4A 3554   5.780   1.529   5.705  0.0825 -2.3362  0.8416
   33CHL1   H4B 3555   5.648   1.416   5.724  2.4213 -0.7999  0.2786
   33CHL1    C5 3556   5.627   1.534   5.541 -0.0730  0.0796 -0.3986
   33CHL1    C6 3557   5.576   1.429   5.475 -0.4117  0.1930  0.6172
   33CHL1    H6 3558   5.587   1.327   5.513 -0.1447 -1.2847 -3.0537
   33CHL1    C7 3559   5.530   1.450   5.329  0.5266  0.4720 -0.4875
   33CHL1   H7A 3560   5.555   1.361   5.267  2.6603  0.9286 -0.3814
   33CHL1   H7B 3561   5.419   1.451   5.327  0.4057 -1.9469  1.0086
   33CHL1    C8 3562   5.581   1.578   5.252 -0.3800 -0.6303 -0.2052
   33CHL1    H8 3563   5.690   1.565   5.236 -0.3013  0.3918 -0.6035
   33CHL1   C14 3564   5.509   1.608   5.116  0.3412 -0.5241 -0.1716
   33CHL1   H14 3565   5.408   1.618   5.161  0.0404  1.1274 -1.1557
   33CHL1   C15 3566   5.498   1.495   5.013  0.0264  1.0989  0.0254
   33CHL1  H15A 3567   5.597   1.455   4.985 -0.8784 -0.5752 -0.9378
   33CHL1  H15B 3568   5.429   1.412   5.042  2.2150 -1.2020 -0.9666
   33CHL1   C16 3569   5.437   1.567   4.890  0.2761 -0.1921  0.5699
   33CHL1  H16A 3570   5.485   1.527   4.798  0.6634 -0.1232  0.7399
   33CHL1  H16B 3571   5.329   1.544   4.879  0.7297 -2.1630 -0.1187
   33CHL1   C17 3572   5.452   1.720   4.922 -0.2479  0.2972  0.5823
   33CHL1   H17 3573   5.351   1.761   4.946 -1.0213 -0.5552 -1.0468
   33CHL1   C13 3574   5.541   1.738   5.046 -0.0422  1.0502  0.7991
   33CHL1   C18 3575   5.688   1.730   5.006  0.2409 -0.2022 -0.1189
   33CHL1  H18A 3576   5.745   1.736   5.102 -1.4483 -2.5419  1.1235
   33CHL1  H18B 3577   5.734   1.642   4.956 -0.5508 -1.1128  0.7072
   33CHL1  H18C 3578   5.720   1.819   4.948 -1.9735  0.0679 -0.9812
   33CHL1   C12 3579   5.496   1.849   5.144  0.1610  0.3064  0.0386
   33CHL1  H12A 3580   5.521   1.945   5.094 -0.4555 -0.1759 -1.2238
   33CHL1  H12B 3581   5.387   1.849   5.162  0.3864 -0.7186  1.6350
   33CHL1   C11 3582   5.576   1.835   5.275  0.1613 -0.2730  0.3635
   33CHL1  H11A 3583   5.685   1.854   5.258 -0.4450  0.8867 -3.0698
   33CHL1  H11B 3584   5.547   1.906   5.354  1.7292  1.3083 -0.4045
   33CHL1    C9 3585   5.560   1.699   5.350  0.3337  0.0880 -0.0203
   33CHL1    H9 3586   5.451   1.694   5.370  0.8699 -2.1119  3.1605
   33CHL1   C10 3587   5.639   1.678   5.487  0.1833  0.3459  0.5159
   33CHL1   C19 3588   5.790   1.712   5.459 -0.3845 -0.4336 -0.7002
   33CHL1  H19A 3589   5.851   1.693   5.551 -1.7424 -1.1762  0.0840
   33CHL1  H19B 3590   5.832   1.644   5.382 -0.5691 -1.4363  0.0496
   33CHL1  H19C 3591   5.810   1.815   5.424 -2.8925 -0.3721 -2.1528
   33CHL1    C1 3592   5.581   1.771   5.596  0.2133 -0.2216 -0.4603
   33CHL1   H1A 3593   5.605   1.878   5.580  0.0330 -0.3722 -1.8141
   33CHL1   H1B 3594   5.472   1.753   5.589 -0.0037  0.3239  1.1139
   33CHL1    C2 3595   5.620   1.745   5.745  0.6574  0.0156 -0.7627
   33CHL1   H2A 3596   5.571   1.815   5.816 -1.2872 -3.2264  1.3899
   33CHL1   H2B 3597   5.728   1.757   5.765  0.4201 -3.6092  4.8878
   33CHL1   C20 3598   5.498   1.794   4.797  0.1477  0.1651 -0.5935
   33CHL1   H20 3599   5.597   1.749   4.778  0.8894  1.3217  0.3317
   33CHL1   C21 3600   5.511   1.946   4.814  0.2989  0.7052 -0.1139
   33CHL1  H21A 3601   5.417   2.001   4.837  1.4682  2.1268  1.4137
   33CHL1  H21B 3602   5.536   1.994   4.717 -1.8853 -0.9670 -1.6418
   33CHL1  H21C 3603   5.578   1.981   4.895 -0.3540  2.1964 -0.1909
   33CHL1   C22 3604   5.417   1.760   4.673 -0.3269  0.0276  0.6751
   33CHL1  H22A 3605   5.465   1.828   4.599  0.1886 -0.2513  0.7516
   33CHL1  H22B 3606   5.429   1.659   4.628 -1.9722  1.1533 -2.6091
   33CHL1   C23 3607   5.270   1.788   4.674  0.1373 -1.6152 -0.4701
   33CHL1  H23A 3608   5.235   1.779   4.779 -0.8740 -0.2232 -0.6565
   33CHL1  H23B 3609   5.258   1.894   4.641 -0.3161 -1.1919  0.9890
   33CHL1   C24 3610   5.174   1.691   4.604 -0.3272 -0.3633  0.6014
   33CHL1  H24A 3611   5.176   1.587   4.641  0.8902 -0.0346  1.5450
   33CHL1  H24B 3612   5.067   1.720   4.612 -0.7532 -1.4739 -0.8064
   33CHL1   C25 3613   5.202   1.691   4.452 -0.5269 -0.0312  0.3679
   33CHL1   H25 3614   5.311   1.666   4.448 -0.0089  2.0504 -0.0440
   33CHL1   C26 3615   5.132   1.572   4.374  0.4992 -0.0982  0.0997
   33CHL1  H26A 3616   5.132   1.589   4.264  0.3037  0.1363  0.1326
   33CHL1  H26B 3617   5.179   1.477   4.407 -1.1899 -0.1691  2.6241
   33CHL1  H26C 3618   5.027   1.576   4.412  1.1824 -0.7126  2.1777
   33CHL1   C27 3619   5.184   1.834   4.381  0.0118 -0.1747  0.1321
   33CHL1  H27A 3620   5.263   1.904   4.415 -0.8957  1.5988 -1.2139
   33CHL1  H27B 3621   5.207   1.816   4.274  1.9042  0.8575  0.3221
   33CHL1  H27C 3622   5.086   1.885   4.383  0.7536  1.9467 -4.5825
   34CHL1    C3 3623   0.750   4.355   5.956 -0.2766  0.6837  0.0402
   34CHL1    H3 3624   0.684   4.270   5.931  0.7213 -0.0229 -0.2786
   34CHL1    O3 3625   0.753   4.371   6.096 -0.3621  0.7868 -0.6169
   34CHL1   H3' 3626   0.663   4.395   6.121  0.0492  2.8538 -0.9190
   34CHL1    C4 3627   0.891   4.309   5.916  0.6796  0.4373 -0.7717
   34CHL1   H4A 3628   0.964   4.384   5.952 -0.6681  1.6042 -0.3481
   34CHL1   H4B 3629   0.910   4.210   5.963 -2.1353 -0.5652 -1.5367
   34CHL1    C5 3630   0.895   4.301   5.758 -0.3765 -0.1298  0.0547
   34CHL1    C6 3631   0.935   4.191   5.689 -0.4317 -0.0710  0.6490
   34CHL1    H6 3632   0.974   4.107   5.748 -2.3983 -1.2974  0.2878
   34CHL1    C7 3633   0.940   4.185   5.538  0.5786 -0.6000 -0.3049
   34CHL1   H7A 3634   1.027   4.129   5.500 -0.1134 -1.7530 -0.2337
   34CHL1   H7B 3635   0.854   4.122   5.507 -0.4567 -1.3272  3.5404
   34CHL1    C8 3636   0.924   4.328   5.464  0.0539 -0.0730  0.1951
   34CHL1    H8 3637   1.022   4.376   5.487 -0.8082  1.0027  1.7835
   34CHL1   C14 3638   0.901   4.309   5.318  0.1284 -0.3270  0.1428
   34CHL1   H14 3639   0.794   4.279   5.316 -0.2256  0.7977  1.2649
   34CHL1   C15 3640   0.977   4.194   5.237 -0.7004 -0.3438  0.1301
   34CHL1  H15A 3641   1.078   4.205   5.282 -0.2754  0.3318 -0.9433
   34CHL1  H15B 3642   0.941   4.089   5.246 -0.3342 -0.5698 -0.9688
   34CHL1   C16 3643   0.965   4.243   5.094 -0.1660 -0.7364  0.1723
   34CHL1  H16A 3644   1.066   4.264   5.053  0.2972 -2.0018  0.5841
   34CHL1  H16B 3645   0.924   4.165   5.026  0.2049  0.0936 -1.0283
   34CHL1   C17 3646   0.886   4.383   5.090 -0.2480  0.0737  0.6498
   34CHL1   H17 3647   0.779   4.353   5.085  0.3256 -2.4488  1.7924
   34CHL1   C13 3648   0.896   4.437   5.233  0.3435  0.8099  1.0567
   34CHL1   C18 3649   1.035   4.519   5.243  0.5018  0.6433  0.0142
   34CHL1  H18A 3650   1.110   4.471   5.176  0.2646 -1.3027  1.1003
   34CHL1  H18B 3651   1.025   4.619   5.196  1.0760 -0.1557 -1.9153
   34CHL1  H18C 3652   1.074   4.531   5.346  0.1729 -2.2009  0.5293
   34CHL1   C12 3653   0.778   4.515   5.288  0.7050 -0.1617 -0.4673
   34CHL1  H12A 3654   0.769   4.617   5.244 -1.6953  0.0881  0.4700
   34CHL1  H12B 3655   0.684   4.461   5.266 -1.1466  0.9269  3.7986
   34CHL1   C11 3656   0.785   4.541   5.440  0.2691  0.1095 -0.1863
   34CHL1  H11A 3657   0.863   4.619   5.449  0.6961 -0.4936  1.6937
   34CHL1  H11B 3658   0.690   4.590   5.470 -0.3888 -0.7210 -0.8405
   34CHL1    C9 3659   0.822   4.417   5.530  0.5141  0.1768 -0.0933
   34CHL1    H9 3660   0.734   4.350   5.523  0.7440 -0.0226 -1.1925
   34CHL1   C10 3661   0.841   4.433   5.686 -0.2739  0.1052  0.6062
   34CHL1   C19 3662   0.943   4.545   5.700 -0.5694 -0.0916 -0.2528
   34CHL1  H19A 3663   0.891   4.638   5.668 -2.8408 -1.9575 -2.3600
   34CHL1  H19B 3664   0.983   4.560   5.802 -0.6006  0.7002 -0.3496
   34CHL1  H19C 3665   1.034   4.519   5.641  2.0470  1.5416  2.7228
   34CHL1    C1 3666   0.706   4.478   5.739 -0.3798 -0.2751 -0.1489
   34CHL1   H1A 3667   0.690   4.582   5.702  0.7601  0.5461  1.5456
   34CHL1   H1B 3668   0.629   4.405   5.709  1.3994 -1.9492 -0.8343
   34CHL1    C2 3669   0.706   4.482   5.894  0.6801 -0.2779  0.4299
   34CHL1   H2A 3670   0.601   4.497   5.927 -0.1785 -1.0017 -1.7609
   34CHL1   H2B 3671   0.767   4.569   5.927  1.9383 -0.7004 -0.6947
   34CHL1   C20 3672   0.918   4.483   4.979 -0.5457 -0.3158  0.5275
   34CHL1   H20 3673   1.024   4.514   4.982 -0.3626 -0.9897  2.7991
   34CHL1   C21 3674   0.826   4.606   4.989 -0.5244  0.7446  0.2016
   34CHL1  H21A 3675   0.824   4.665   4.895  0.9913  0.3079 -0.1274
   34CHL1  H21B 3676   0.868   4.686   5.054  2.6282 -1.6547  1.3939
   34CHL1  H21C 3677   0.720   4.574   4.999 -0.5867 -0.0488 -2.3511
   34CHL1   C22 3678   0.900   4.422   4.842  0.2613  0.0509 -0.3120
   34CHL1  H22A 3679   0.936   4.318   4.834  0.0851 -0.2743  2.2324
   34CHL1  H22B 3680   0.790   4.425   4.824  0.2835  0.0898 -0.4406
   34CHL1   C23 3681   0.964   4.500   4.724  0.3381 -0.1002  0.0286
   34CHL1  H23A 3682   0.894   4.584   4.711  2.3212  1.3226 -2.3314
   34CHL1  H23B 3683   1.061   4.545   4.755 -0.4234  0.2200  2.0914
   34CHL1   C24 3684   0.971   4.420   4.592  0.5088  0.5969 -0.3899
   34CHL1  H24A 3685   1.042   4.339   4.615 -1.3604 -0.5527  1.8100
   34CHL1  H24B 3686   0.875   4.367   4.575  0.5271  0.9416 -1.6725
   34CHL1   C25 3687   1.010   4.491   4.458  0.7474  0.2109  0.5484
   34CHL1   H25 3688   1.088   4.564   4.487  0.7974 -0.0741  1.1482
   34CHL1   C26 3689   1.070   4.398   4.343 -0.2647 -0.2257 -0.1509
   34CHL1  H26A 3690   1.068   4.441   4.241  0.4755 -1.5167 -0.7395
   34CHL1  H26B 3691   1.176   4.374   4.366  0.2371  0.4505 -1.6298
   34CHL1  H26C 3692   1.010   4.304   4.334  0.8564 -0.7733 -2.9212
   34CHL1   C27 3693   0.884   4.572   4.413 -0.2060 -0.6720  0.0863
   34CHL1  H27A 3694   0.908   4.629   4.320 -3.0840  1.1152  0.3183
   34CHL1  H27B 3695   0.798   4.503   4.402 -1.2211  0.7774 -1.7840
   34CHL1  H27C 3696   0.866   4.637   4.501 -0.4169  0.1204 -0.5352
   35CHL1    C3 3697   3.674   4.551   5.900  0.5976  0.3154 -0.7068
   35CHL1    H3 3698   3.740   4.463   5.886  0.2344 -0.1750  0.5034
   35CHL1    O3 3699   3.707   4.610   6.028 -0.0347 -0.0833 -0.1136
   35CHL1   H3' 3700   3.653   4.690   6.026  0.0330 -0.0454 -1.1888
   35CHL1    C4 3701   3.690   4.649   5.792 -0.2391 -0.2896 -0.3842
   35CHL1   H4A 3702   3.622   4.731   5.824  0.2597 -0.7755  2.0585
   35CHL1   H4B 3703   3.794   4.687   5.794  0.8851 -3.0916  2.5959
   35CHL1    C5 3704   3.650   4.587   5.657 -0.1361  0.0758 -0.2444
   35CHL1    C6 3705   3.739   4.591   5.556 -0.0851  0.2706  0.1297
   35CHL1    H6 3706   3.838   4.636   5.573  0.3525 -0.8905  0.7902
   35CHL1    C7 3707   3.706   4.533   5.421 -0.1529  0.3628 -0.3400
   35CHL1   H7A 3708   3.751   4.592   5.338 -0.2360 -0.2701 -0.8390
   35CHL1   H7B 3709   3.765   4.439   5.423  0.0594  0.5048  0.1700
   35CHL1    C8 3710   3.555   4.511   5.407  0.1084 -0.5796  0.6921
   35CHL1    H8 3711   3.504   4.609   5.393  2.3137  0.7909  1.7401
   35CHL1   C14 3712   3.537   4.425   5.279 -0.0032  0.3275  0.3837
   35CHL1   H14 3713   3.589   4.334   5.315  1.2355  1.4627  1.5719
   35CHL1   C15 3714   3.600   4.470   5.141 -0.1222 -0.4555  0.2344
   35CHL1  H15A 3715   3.583   4.578   5.123 -0.9999 -1.0083 -2.7073
   35CHL1  H15B 3716   3.711   4.459   5.143  0.1160  1.2388  3.2973
   35CHL1   C16 3717   3.523   4.388   5.038 -0.9105 -0.8965 -0.9766
   35CHL1  H16A 3718   3.476   4.463   4.970 -0.8370  0.6635  0.6408
   35CHL1  H16B 3719   3.578   4.305   4.989  0.5503  0.5018 -1.7946
   35CHL1   C17 3720   3.409   4.316   5.121  0.1240  0.5882 -0.1401
   35CHL1   H17 3721   3.459   4.220   5.151 -1.7393 -1.0743 -2.0705
   35CHL1   C13 3722   3.389   4.393   5.251 -0.1089  0.3828 -0.4636
   35CHL1   C18 3723   3.315   4.523   5.202 -0.3364  0.3034 -0.2564
   35CHL1  H18A 3724   3.338   4.557   5.099  0.5981  1.3801  0.2885
   35CHL1  H18B 3725   3.206   4.506   5.211 -0.4501  1.1800  0.0834
   35CHL1  H18C 3726   3.327   4.613   5.266 -2.2724  0.9375 -0.7344
   35CHL1   C12 3727   3.316   4.327   5.363 -0.5055  0.3561 -1.1729
   35CHL1  H12A 3728   3.209   4.306   5.343 -0.1887 -2.4608 -0.4031
   35CHL1  H12B 3729   3.355   4.224   5.375  1.0882  0.9040 -1.3569
   35CHL1   C11 3730   3.335   4.408   5.496 -0.6222 -0.1567  0.3234
   35CHL1  H11A 3731   3.274   4.500   5.482  0.2133  0.2064 -1.2723
   35CHL1  H11B 3732   3.289   4.348   5.577 -0.4149 -2.2422 -1.0206
   35CHL1    C9 3733   3.485   4.444   5.529 -0.2785  0.6891 -0.1937
   35CHL1    H9 3734   3.537   4.346   5.538 -1.3309  0.0813 -0.5923
   35CHL1   C10 3735   3.506   4.525   5.654 -0.0451  0.5374  0.1254
   35CHL1   C19 3736   3.404   4.641   5.665  0.2496 -0.1277  0.5852
   35CHL1  H19A 3737   3.303   4.596   5.673  0.7543 -2.1613 -2.7808
   35CHL1  H19B 3738   3.438   4.706   5.749 -0.4655  3.0299 -1.3870
   35CHL1  H19C 3739   3.413   4.720   5.587 -0.5152  0.1413  0.7633
   35CHL1    C1 3740   3.494   4.434   5.781 -0.0784  0.1301  0.1603
   35CHL1   H1A 3741   3.389   4.398   5.783  0.4905 -1.9867 -2.6358
   35CHL1   H1B 3742   3.536   4.335   5.753 -1.5065 -0.1140 -1.2493
   35CHL1    C2 3743   3.529   4.499   5.913  0.1967 -0.4279 -0.4895
   35CHL1   H2A 3744   3.509   4.437   6.003 -0.3338  2.3245  1.3753
   35CHL1   H2B 3745   3.462   4.585   5.931  1.0697  0.0781  0.4864
   35CHL1   C20 3746   3.289   4.275   5.033 -0.5665  0.1907 -0.3161
   35CHL1   H20 3747   3.248   4.363   4.979 -0.5013 -0.6864 -1.8498
   35CHL1   C21 3748   3.172   4.208   5.116 -0.0677 -0.3393  0.2631
   35CHL1  H21A 3749   3.086   4.167   5.060 -2.4499  4.0779  0.2501
   35CHL1  H21B 3750   3.104   4.280   5.166 -0.5622 -0.3883 -0.3269
   35CHL1  H21C 3751   3.206   4.125   5.182  0.1371 -1.5294 -1.3003
   35CHL1   C22 3752   3.329   4.185   4.916 -0.2806  0.4595  0.3545
   35CHL1  H22A 3753   3.426   4.216   4.872 -0.3775 -0.8736 -0.8928
   35CHL1  H22B 3754   3.334   4.081   4.954  0.1100 -0.5004 -2.1004
   35CHL1   C23 3755   3.208   4.179   4.814  0.3702  0.2555 -0.6286
   35CHL1  H23A 3756   3.137   4.100   4.847  2.2717 -1.6516 -0.9179
   35CHL1  H23B 3757   3.157   4.277   4.807  0.5811  0.7203  2.9585
   35CHL1   C24 3758   3.251   4.137   4.675  0.1169 -0.3972  0.2213
   35CHL1  H24A 3759   3.339   4.200   4.649  1.0698 -1.5082  0.6479
   35CHL1  H24B 3760   3.293   4.036   4.696 -1.5881 -0.5186  3.8214
   35CHL1   C25 3761   3.138   4.114   4.572  0.5207 -0.1337 -0.0412
   35CHL1   H25 3762   3.045   4.102   4.632 -0.6846  4.9497 -0.4125
   35CHL1   C26 3763   3.110   4.239   4.488  0.2475  0.5657 -0.4277
   35CHL1  H26A 3764   3.104   4.329   4.552 -0.9303  1.4496 -1.7283
   35CHL1  H26B 3765   3.197   4.248   4.419  2.3891 -1.9756  1.7012
   35CHL1  H26C 3766   3.012   4.237   4.435  1.4288  0.9991 -2.7330
   35CHL1   C27 3767   3.162   3.991   4.479  0.1538  0.2002 -0.2899
   35CHL1  H27A 3768   3.168   3.899   4.542  2.0567  0.1995 -0.4131
   35CHL1  H27B 3769   3.088   3.981   4.397 -0.2633  1.3057 -0.0589
   35CHL1  H27C 3770   3.265   4.012   4.441  0.2434  0.9562  0.3439
   36CHL1    C3 3771   5.200   3.985   5.751 -0.6231  0.4227  1.0205
   36CHL1    H3 3772   5.090   3.967   5.750 -0.4439 -1.3567  3.3089
   36CHL1    O3 3773   5.242   3.974   5.885  0.0504 -0.3067  0.2204
   36CHL1   H3' 3774   5.322   4.026   5.887 -0.2424  0.3631 -2.0909
   36CHL1    C4 3775   5.280   3.884   5.665  0.3155  0.3781  0.3686
   36CHL1   H4A 3776   5.388   3.907   5.672  0.5101 -0.3994  0.0233
   36CHL1   H4B 3777   5.258   3.784   5.709 -1.2205 -0.0963 -1.3640
   36CHL1    C5 3778   5.230   3.904   5.525 -0.8322 -0.0750  0.1340
   36CHL1    C6 3779   5.157   3.806   5.464  0.4338 -0.2046 -0.0305
   36CHL1    H6 3780   5.123   3.718   5.520  0.4079 -1.6520 -2.1736
   36CHL1    C7 3781   5.107   3.818   5.321 -0.5170  0.0506 -0.1618
   36CHL1   H7A 3782   5.128   3.723   5.268  3.2316  0.4027  0.4264
   36CHL1   H7B 3783   4.996   3.820   5.318 -0.5024  0.1078 -0.6767
   36CHL1    C8 3784   5.164   3.938   5.236  0.0549  0.2726 -0.2823
   36CHL1    H8 3785   5.268   3.909   5.208  0.7765  0.1206  2.3506
   36CHL1   C14 3786   5.077   3.958   5.110 -0.7237 -0.2598 -0.2396
   36CHL1   H14 3787   4.984   3.995   5.158  0.0755 -0.3340  1.4617
   36CHL1   C15 3788   5.039   3.838   5.023 -0.5241 -0.0235 -0.0843
   36CHL1  H15A 3789   5.122   3.765   5.019  1.2643  1.8676  0.6356
   36CHL1  H15B 3790   4.946   3.797   5.069  0.0769 -0.0439  1.1747
   36CHL1   C16 3791   5.008   3.899   4.884  0.6677  0.6032 -0.2825
   36CHL1  H16A 3792   5.074   3.865   4.801  0.9503  0.9622 -0.2061
   36CHL1  H16B 3793   4.903   3.888   4.850  0.2381 -0.4279  1.2854
   36CHL1   C17 3794   5.034   4.053   4.894 -0.2606  0.4937  0.6204
   36CHL1   H17 3795   4.939   4.101   4.926  0.6585  2.3765  0.6693
   36CHL1   C13 3796   5.126   4.072   5.016  0.3104  0.6542  0.2962
   36CHL1   C18 3797   5.270   4.044   4.968 -0.4068 -0.1822  0.4025
   36CHL1  H18A 3798   5.274   3.957   4.899  2.3949  2.0482 -2.5704
   36CHL1  H18B 3799   5.300   4.130   4.904 -1.4262 -1.1792 -1.4798
   36CHL1  H18C 3800   5.343   4.043   5.052 -0.4275  1.9151  0.5004
   36CHL1   C12 3801   5.116   4.198   5.104 -0.4050 -0.3772  0.2676
   36CHL1  H12A 3802   5.147   4.291   5.053 -0.6169 -0.2057  0.4436
   36CHL1  H12B 3803   5.009   4.222   5.123 -1.1833 -1.2691 -2.5850
   36CHL1   C11 3804   5.190   4.188   5.243 -0.0487 -0.0072  0.2737
   36CHL1  H11A 3805   5.294   4.196   5.205 -0.2151 -0.4561 -0.2849
   36CHL1  H11B 3806   5.166   4.284   5.293 -2.8555 -0.7976  0.6085
   36CHL1    C9 3807   5.160   4.062   5.328  0.4858  0.2499  0.7617
   36CHL1    H9 3808   5.053   4.069   5.356  0.0121  2.1129 -1.2792
   36CHL1   C10 3809   5.247   4.039   5.455  0.1255  0.4437  0.6379
   36CHL1   C19 3810   5.399   4.057   5.424 -0.8905  0.5079 -0.1062
   36CHL1  H19A 3811   5.424   4.161   5.396  0.0233  0.4720  0.5487
   36CHL1  H19B 3812   5.463   4.035   5.512 -0.8868  0.1901 -0.1849
   36CHL1  H19C 3813   5.441   3.978   5.358 -2.1218 -2.3273  2.2597
   36CHL1    C1 3814   5.184   4.144   5.552 -0.1249  0.6095  0.1845
   36CHL1   H1A 3815   5.222   4.244   5.520  2.2614  0.1128  1.2494
   36CHL1   H1B 3816   5.074   4.147   5.538 -0.0026  1.3657 -0.7625
   36CHL1    C2 3817   5.227   4.122   5.701 -0.1657  0.1591  0.4568
   36CHL1   H2A 3818   5.169   4.187   5.770 -1.6112 -0.1401 -0.4156
   36CHL1   H2B 3819   5.335   4.145   5.700  0.4077 -2.1068 -1.5569
   36CHL1   C20 3820   5.073   4.125   4.756 -0.2781  0.3788  0.2428
   36CHL1   H20 3821   5.164   4.073   4.719  0.8080  0.6345  2.3705
   36CHL1   C21 3822   5.099   4.282   4.776 -0.5329  0.6196 -0.0737
   36CHL1  H21A 3823   5.111   4.338   4.681  1.9581  0.1149 -0.1270
   36CHL1  H21B 3824   5.185   4.311   4.841 -0.2501  0.8281 -0.5393
   36CHL1  H21C 3825   5.011   4.318   4.833  0.9091 -0.9013  3.3932
   36CHL1   C22 3826   4.969   4.097   4.653 -0.0130  0.2990  0.1893
   36CHL1  H22A 3827   4.955   3.987   4.661  0.9573  0.0934 -0.7176
   36CHL1  H22B 3828   4.875   4.153   4.672  0.3430  1.6929 -1.8157
   36CHL1   C23 3829   5.012   4.107   4.504 -0.4483 -0.4005 -0.0372
   36CHL1  H23A 3830   5.041   4.212   4.488 -2.2705 -0.0058 -0.9998
   36CHL1  H23B 3831   5.093   4.036   4.475 -2.1840 -1.7874 -1.8080
   36CHL1   C24 3832   4.890   4.075   4.414 -0.3339  0.2144 -0.4036
   36CHL1  H24A 3833   4.849   3.974   4.437  0.5060  0.0477  0.4519
   36CHL1  H24B 3834   4.806   4.141   4.441  1.5862  2.3776  0.5978
   36CHL1   C25 3835   4.919   4.078   4.260  0.0932 -0.5708  0.1172
   36CHL1   H25 3836   4.989   4.159   4.230  1.7032 -2.5180 -1.7301
   36CHL1   C26 3837   4.997   3.961   4.194  0.2039  0.6323 -0.3757
   36CHL1  H26A 3838   4.947   3.864   4.211 -1.3345  1.4594 -0.0208
   36CHL1  H26B 3839   4.998   3.970   4.084  0.8244 -0.0022 -0.4297
   36CHL1  H26C 3840   5.101   3.956   4.235 -1.3369 -0.4486  3.9432
   36CHL1   C27 3841   4.787   4.105   4.174  0.6061 -0.7931 -0.3105
   36CHL1  H27A 3842   4.751   4.204   4.209 -0.3112 -1.5600  0.9865
   36CHL1  H27B 3843   4.807   4.106   4.065  0.5501  0.6153 -0.3256
   36CHL1  H27C 3844   4.706   4.035   4.201  0.4658 -1.0576 -1.3999
   37CHL1    C3 3845   3.818   1.806   5.558 -0.7709  0.1352  0.0330
   37CHL1    H3 3846   3.804   1.915   5.570 -1.6075  0.2548 -1.6879
   37CHL1    O3 3847   3.845   1.747   5.687 -0.3276  0.5221  0.0229
   37CHL1   H3' 3848   3.941   1.747   5.696 -0.1941 -3.0278  0.0530
   37CHL1    C4 3849   3.691   1.748   5.495 -0.2665  0.3651 -0.7379
   37CHL1   H4A 3850   3.699   1.638   5.481 -0.6763 -0.1988  2.6322
   37CHL1   H4B 3851   3.620   1.759   5.580  1.1524 -2.2528  0.9053
   37CHL1    C5 3852   3.645   1.818   5.368 -0.1889  0.1061  0.1425
   37CHL1    C6 3853   3.521   1.870   5.362  0.5208 -0.5708 -0.2350
   37CHL1    H6 3854   3.459   1.873   5.453  0.5158  3.7577 -0.1632
   37CHL1    C7 3855   3.468   1.954   5.253  0.0838 -0.6295  0.1144
   37CHL1   H7A 3856   3.366   1.918   5.228 -0.4625  2.0347 -1.9493
   37CHL1   H7B 3857   3.458   2.059   5.287  0.0874 -1.4057  2.7422
   37CHL1    C8 3858   3.562   1.951   5.128 -0.0988  0.2178 -0.2172
   37CHL1    H8 3859   3.538   1.853   5.082 -0.8613 -0.0321  0.6739
   37CHL1   C14 3860   3.533   2.067   5.032  0.0541  0.3995 -0.8957
   37CHL1   H14 3861   3.561   2.159   5.089 -0.9394  0.6225 -0.7504
   37CHL1   C15 3862   3.389   2.072   4.974 -0.7105 -0.4870  0.0848
   37CHL1  H15A 3863   3.346   1.973   4.949 -1.6786  0.2661 -1.4253
   37CHL1  H15B 3864   3.315   2.121   5.042 -0.7296 -1.4945  0.7998
   37CHL1   C16 3865   3.408   2.153   4.844 -0.4996 -0.1663 -0.5485
   37CHL1  H16A 3866   3.366   2.098   4.758 -0.4047  1.5538 -1.7451
   37CHL1  H16B 3867   3.363   2.253   4.863 -1.1425 -0.8225  1.6589
   37CHL1   C17 3868   3.562   2.175   4.821  0.0926 -0.3599 -0.3576
   37CHL1   H17 3869   3.578   2.273   4.872  0.7056 -0.1690 -0.9097
   37CHL1   C13 3870   3.630   2.069   4.906 -0.0099  0.4628 -0.4621
   37CHL1   C18 3871   3.618   1.939   4.821  0.1502 -0.7077  0.0583
   37CHL1  H18A 3872   3.667   1.853   4.872  2.8262  0.6078 -0.1133
   37CHL1  H18B 3873   3.513   1.912   4.796  0.2948 -0.0903 -1.2917
   37CHL1  H18C 3874   3.676   1.952   4.727  2.3910  2.3010  1.6987
   37CHL1   C12 3875   3.771   2.098   4.960  0.6876  0.3156  0.3138
   37CHL1  H12A 3876   3.856   2.106   4.890  0.2423 -1.0806 -0.4219
   37CHL1  H12B 3877   3.759   2.189   5.023  1.0043  1.3771 -1.0966
   37CHL1   C11 3878   3.805   1.983   5.063 -0.2540  0.1443  0.3211
   37CHL1  H11A 3879   3.826   1.892   5.002  0.6650  0.6943 -0.1960
   37CHL1  H11B 3880   3.903   2.014   5.104  0.7495 -1.0166 -1.1022
   37CHL1    C9 3881   3.706   1.961   5.178  0.4642 -0.6292  0.5493
   37CHL1    H9 3882   3.711   2.055   5.237  3.6247  0.4661 -1.2396
   37CHL1   C10 3883   3.750   1.835   5.265  0.9396 -0.1887 -0.4639
   37CHL1   C19 3884   3.751   1.705   5.190 -0.2836  0.3440  0.2861
   37CHL1  H19A 3885   3.831   1.702   5.113 -0.1239 -2.5019  0.4453
   37CHL1  H19B 3886   3.772   1.622   5.260 -0.9159 -0.8475 -0.8837
   37CHL1  H19C 3887   3.656   1.678   5.138 -0.4889 -0.6652  1.1452
   37CHL1    C1 3888   3.899   1.861   5.321 -0.3801 -0.0162 -0.2385
   37CHL1   H1A 3889   3.964   1.827   5.238 -0.4071  3.2063 -1.7359
   37CHL1   H1B 3890   3.916   1.970   5.328  1.4614 -0.3354  1.1533
   37CHL1    C2 3891   3.936   1.793   5.456  0.6617  0.0828  0.0970
   37CHL1   H2A 3892   4.026   1.843   5.496  1.8001 -1.8774  0.0938
   37CHL1   H2B 3893   3.947   1.685   5.433 -1.0184  0.2872 -1.9721
   37CHL1   C20 3894   3.589   2.189   4.670 -0.2506  0.2027  0.4372
   37CHL1   H20 3895   3.567   2.096   4.614 -0.1531  0.1228  0.5306
   37CHL1   C21 3896   3.737   2.217   4.658 -0.5353  0.2648 -0.0782
   37CHL1  H21A 3897   3.775   2.261   4.564  0.7353 -0.6195 -0.0066
   37CHL1  H21B 3898   3.806   2.130   4.665  0.2657  0.5300 -3.3785
   37CHL1  H21C 3899   3.761   2.284   4.744  1.5925 -0.7072  0.1333
   37CHL1   C22 3900   3.510   2.302   4.606  0.0639 -0.0906  0.3770
   37CHL1  H22A 3901   3.405   2.299   4.640  0.0748 -0.0480  0.4156
   37CHL1  H22B 3902   3.554   2.401   4.630 -1.4434  0.6456  0.2200
   37CHL1   C23 3903   3.500   2.291   4.456 -0.7740 -0.2439 -0.2576
   37CHL1  H23A 3904   3.596   2.265   4.407 -1.0528 -1.8933  0.0170
   37CHL1  H23B 3905   3.430   2.208   4.430 -1.5798  1.3899 -3.9805
   37CHL1   C24 3906   3.442   2.422   4.393 -0.1403  0.5301 -1.8658
   37CHL1  H24A 3907   3.358   2.469   4.449  0.9321  0.7291 -0.3828
   37CHL1  H24B 3908   3.512   2.506   4.413 -1.2026  1.3244 -1.3552
   37CHL1   C25 3909   3.419   2.410   4.242 -0.2674 -0.1912  0.3692
   37CHL1   H25 3910   3.392   2.513   4.209 -0.8812  0.8628  3.7310
   37CHL1   C26 3911   3.558   2.393   4.177 -0.9541 -0.4570  0.1070
   37CHL1  H26A 3912   3.634   2.464   4.218  0.1100 -0.2320 -2.0978
   37CHL1  H26B 3913   3.603   2.296   4.206  1.7516  0.6589  0.0081
   37CHL1  H26C 3914   3.560   2.401   4.066  0.7650 -0.7540  0.0893
   37CHL1   C27 3915   3.328   2.299   4.200 -0.1137 -0.0145  0.4672
   37CHL1  H27A 3916   3.360   2.197   4.230 -0.4250 -1.1610 -2.6854
   37CHL1  H27B 3917   3.224   2.320   4.234 -0.8178 -3.3195  0.7158
   37CHL1  H27C 3918   3.325   2.299   4.088  2.4852  1.8814  0.3070
   38CHL1    C3 3919   5.572   2.184   6.014 -0.0614  0.9186 -0.4658
   38CHL1    H3 3920   5.656   2.112   6.020 -1.7775 -1.1311  0.4963
   38CHL1    O3 3921   5.530   2.200   6.148  0.9229 -0.2160  0.4535
   38CHL1   H3' 3922   5.525   2.295   6.161  1.0779  0.1699 -1.9074
   38CHL1    C4 3923   5.628   2.310   5.960  0.9604 -0.3828 -0.4798
   38CHL1   H4A 3924   5.564   2.396   5.989 -0.5657 -1.9647  1.0237
   38CHL1   H4B 3925   5.719   2.324   6.023 -0.7185  2.1062  1.6145
   38CHL1    C5 3926   5.666   2.308   5.813 -1.2053  0.0864  0.0835
   38CHL1    C6 3927   5.790   2.334   5.774 -0.1225 -0.1727 -0.8917
   38CHL1    H6 3928   5.865   2.363   5.849 -1.5129 -1.1048  0.9449
   38CHL1    C7 3929   5.833   2.352   5.640 -0.4757  0.6778  0.1467
   38CHL1   H7A 3930   5.905   2.437   5.637 -1.6601  1.7402  0.5695
   38CHL1   H7B 3931   5.876   2.256   5.606 -1.0736  0.7187 -0.7430
   38CHL1    C8 3932   5.713   2.369   5.546 -0.4914  0.1506  0.6391
   38CHL1    H8 3933   5.653   2.459   5.573 -0.4826  0.4446 -0.2632
   38CHL1   C14 3934   5.762   2.364   5.400  0.0112  0.6315 -0.8429
   38CHL1   H14 3935   5.812   2.267   5.379 -1.9446 -0.7224  0.3996
   38CHL1   C15 3936   5.861   2.466   5.365  0.5538 -0.6691 -0.2372
   38CHL1  H15A 3937   5.828   2.564   5.406  0.5264 -0.1610 -1.4327
   38CHL1  H15B 3938   5.967   2.443   5.386  1.1595  2.9477  1.5608
   38CHL1   C16 3939   5.847   2.481   5.215 -0.3196  0.1727  0.3715
   38CHL1  H16A 3940   5.848   2.587   5.184  0.2929  0.6755  2.0002
   38CHL1  H16B 3941   5.939   2.425   5.186 -1.3021 -1.2008 -0.1775
   38CHL1   C17 3942   5.725   2.395   5.171 -0.2956 -0.4038  0.3686
   38CHL1   H17 3943   5.768   2.295   5.150  2.4548  0.3928  1.6707
   38CHL1   C13 3944   5.648   2.373   5.308  0.0483 -0.0120 -0.6605
   38CHL1   C18 3945   5.566   2.508   5.331  0.5267  0.2102 -0.1234
   38CHL1  H18A 3946   5.469   2.511   5.277  0.7853 -0.6319 -0.6635
   38CHL1  H18B 3947   5.543   2.533   5.437 -0.2656 -0.5906 -0.0874
   38CHL1  H18C 3948   5.626   2.597   5.304  1.9046 -0.6267  0.0727
   38CHL1   C12 3949   5.563   2.240   5.316 -0.3607  0.1208  0.2511
   38CHL1  H12A 3950   5.489   2.233   5.233 -1.3842  0.2521  1.1287
   38CHL1  H12B 3951   5.621   2.145   5.307 -0.9567 -0.1280 -1.3898
   38CHL1   C11 3952   5.498   2.229   5.461  0.0088 -0.1311 -0.1352
   38CHL1  H11A 3953   5.426   2.313   5.467  0.1214 -0.1309  1.7794
   38CHL1  H11B 3954   5.436   2.136   5.461  0.1914 -0.2697 -1.3788
   38CHL1    C9 3955   5.606   2.250   5.575 -0.6425 -0.4591  0.1733
   38CHL1    H9 3956   5.666   2.157   5.568 -0.4669 -0.2713 -0.9948
   38CHL1   C10 3957   5.555   2.266   5.719  1.2378  0.1542  0.7623
   38CHL1   C19 3958   5.440   2.375   5.719  0.4001  0.0226 -0.4112
   38CHL1  H19A 3959   5.469   2.472   5.673 -0.5053 -0.1432 -1.3451
   38CHL1  H19B 3960   5.347   2.351   5.664  0.3898  1.5285 -1.0945
   38CHL1  H19C 3961   5.409   2.390   5.825  1.1251  4.5929 -0.6310
   38CHL1    C1 3962   5.495   2.128   5.775 -0.5140 -0.5710 -0.2454
   38CHL1   H1A 3963   5.402   2.105   5.718 -2.4658  0.2095  2.4133
   38CHL1   H1B 3964   5.567   2.046   5.757  3.3853  2.0582  2.0194
   38CHL1    C2 3965   5.463   2.122   5.924  0.5683 -0.1958  0.0718
   38CHL1   H2A 3966   5.442   2.022   5.967  3.2888  0.2643  2.7543
   38CHL1   H2B 3967   5.369   2.180   5.935 -0.6012 -1.7186 -1.2526
   38CHL1   C20 3968   5.642   2.455   5.055 -0.3457  0.3721 -0.1719
   38CHL1   H20 3969   5.601   2.554   5.084  2.1824  2.0665 -1.9940
   38CHL1   C21 3970   5.528   2.369   5.006 -0.6844 -0.1162  0.0560
   38CHL1  H21A 3971   5.478   2.409   4.915 -2.7002 -0.3164  1.0122
   38CHL1  H21B 3972   5.446   2.368   5.081 -1.1396 -0.4745 -0.4416
   38CHL1  H21C 3973   5.568   2.266   4.991  0.8030  0.4672 -0.1674
   38CHL1   C22 3974   5.732   2.478   4.933  0.2312 -0.6519 -0.3210
   38CHL1  H22A 3975   5.830   2.508   4.975 -0.5681 -1.1919  2.0632
   38CHL1  H22B 3976   5.740   2.384   4.874 -1.0612  0.2414 -2.0263
   38CHL1   C23 3977   5.688   2.598   4.842  0.1919 -0.3003 -0.3232
   38CHL1  H23A 3978   5.581   2.598   4.813 -0.5592  0.4825  2.1903
   38CHL1  H23B 3979   5.678   2.680   4.916 -0.0639 -2.4308  2.1462
   38CHL1   C24 3980   5.780   2.636   4.732 -0.6380 -0.2384 -0.1075
   38CHL1  H24A 3981   5.881   2.664   4.769 -0.0122 -1.3209 -0.9305
   38CHL1  H24B 3982   5.792   2.541   4.675 -2.5481 -0.4732 -0.1796
   38CHL1   C25 3983   5.745   2.735   4.616  0.1078  0.5245 -0.0163
   38CHL1   H25 3984   5.709   2.822   4.675 -0.6480  0.6064 -0.5818
   38CHL1   C26 3985   5.869   2.776   4.547  0.6963  0.1438  0.6151
   38CHL1  H26A 3986   5.897   2.695   4.477 -1.0081  2.0294 -2.4938
   38CHL1  H26B 3987   5.862   2.867   4.484  1.3847 -0.0839  0.1914
   38CHL1  H26C 3988   5.955   2.792   4.616  2.2137 -0.3129 -1.1123
   38CHL1   C27 3989   5.626   2.676   4.533 -0.3188  0.3890  0.3856
   38CHL1  H27A 3990   5.586   2.736   4.449  1.7542 -0.8273 -1.5566
   38CHL1  H27B 3991   5.656   2.580   4.485 -0.8705  1.1219 -1.4937
   38CHL1  H27C 3992   5.537   2.650   4.595 -1.2592 -3.7057 -2.2792
   39CHL1    C3 3993   6.799   2.478   5.985  0.0380 -0.3267  0.3608
   39CHL1    H3 3994   6.716   2.414   5.948  1.0468 -0.0266 -2.6814
   39CHL1    O3 3995   6.802   2.504   6.129  0.6595 -0.4448  0.1196
   39CHL1   H3' 3996   6.709   2.518   6.150  0.8816 -1.3590  1.8712
   39CHL1    C4 3997   6.934   2.412   5.960 -0.3055  0.3196  0.1709
   39CHL1   H4A 3998   7.013   2.473   6.008 -1.7924  1.4301  1.3235
   39CHL1   H4B 3999   6.931   2.312   6.008  0.2374  1.3504  2.4814
   39CHL1    C5 4000   6.977   2.401   5.811  0.5740 -0.1031 -0.4510
   39CHL1    C6 4001   7.036   2.285   5.766 -0.0806  0.1811  0.0135
   39CHL1    H6 4002   7.041   2.202   5.838 -3.2074  1.3014  1.7238
   39CHL1    C7 4003   7.097   2.271   5.635 -0.1855  0.0716 -0.2145
   39CHL1   H7A 4004   7.202   2.237   5.651 -0.4353 -0.3881  0.4920
   39CHL1   H7B 4005   7.041   2.189   5.584  0.6903 -1.4009  1.1293
   39CHL1    C8 4006   7.092   2.399   5.548  0.2993 -0.2130 -0.3073
   39CHL1    H8 4007   7.186   2.456   5.571  0.9137 -0.6881 -1.5519
   39CHL1   C14 4008   7.103   2.369   5.399 -0.7273 -0.5349 -0.4853
   39CHL1   H14 4009   7.003   2.329   5.375 -1.3915  0.4778  0.5083
   39CHL1   C15 4010   7.213   2.277   5.355  0.1988  0.4361 -0.2123
   39CHL1  H15A 4011   7.308   2.284   5.411 -0.4548  0.8796  0.8650
   39CHL1  H15B 4012   7.165   2.177   5.363  1.3388  0.0291  2.8501
   39CHL1   C16 4013   7.254   2.323   5.210  0.1890  0.5656 -0.6241
   39CHL1  H16A 4014   7.363   2.344   5.204  0.5262 -0.8828 -0.1309
   39CHL1  H16B 4015   7.237   2.245   5.132  0.0766  1.6529 -1.7187
   39CHL1   C17 4016   7.157   2.441   5.183  0.3668  0.1637 -0.1128
   39CHL1   H17 4017   7.061   2.398   5.148  1.8162 -3.9586  0.4305
   39CHL1   C13 4018   7.122   2.497   5.320  0.9168  0.3453 -0.0099
   39CHL1   C18 4019   7.240   2.582   5.370 -0.2277 -0.7355  0.2275
   39CHL1  H18A 4020   7.262   2.663   5.298  0.7424  0.3059  1.6247
   39CHL1  H18B 4021   7.213   2.634   5.465  1.9825  0.6071  0.1955
   39CHL1  H18C 4022   7.332   2.521   5.382 -1.0415 -2.4461 -1.6738
   39CHL1   C12 4023   6.987   2.570   5.334  0.2383  0.2832  0.8148
   39CHL1  H12A 4024   6.974   2.655   5.263 -1.1600 -2.3205 -2.3428
   39CHL1  H12B 4025   6.916   2.493   5.297 -2.5570  2.7995  0.5774
   39CHL1   C11 4026   6.962   2.607   5.480  0.5082  0.3912 -0.2562
   39CHL1  H11A 4027   7.026   2.689   5.517  0.9705  0.1570 -0.5378
   39CHL1  H11B 4028   6.857   2.643   5.481  0.0566 -0.8653  1.0984
   39CHL1    C9 4029   6.970   2.487   5.582 -0.0322 -0.6824  0.4964
   39CHL1    H9 4030   6.879   2.428   5.560 -1.7480  1.5165  1.3173
   39CHL1   C10 4031   6.960   2.520   5.727 -0.2108 -0.3472 -0.6998
   39CHL1   C19 4032   7.069   2.619   5.782 -0.0462 -0.3136  0.3532
   39CHL1  H19A 4033   7.088   2.625   5.891 -2.0584 -0.8106  0.7837
   39CHL1  H19B 4034   7.159   2.595   5.722  0.3831 -1.8133  1.5452
   39CHL1  H19C 4035   7.038   2.717   5.738  1.4115 -1.3147 -3.2485
   39CHL1    C1 4036   6.821   2.585   5.754  0.3209 -0.3469 -0.5595
   39CHL1   H1A 4037   6.804   2.671   5.687  0.6385  0.0443 -0.1400
   39CHL1   H1B 4038   6.739   2.517   5.721  0.3944 -0.7386  0.0512
   39CHL1    C2 4039   6.803   2.611   5.905  0.0950  0.1918 -0.0898
   39CHL1   H2A 4040   6.706   2.659   5.925 -1.8183 -3.4047  0.1742
   39CHL1   H2B 4041   6.873   2.690   5.938 -0.1524 -0.0759  1.1208
   39CHL1   C20 4042   7.214   2.528   5.065 -0.4635 -0.2175  0.9835
   39CHL1   H20 4043   7.295   2.593   5.106  1.6678 -0.2130 -2.7328
   39CHL1   C21 4044   7.105   2.631   5.022  0.5625 -0.6480 -0.1778
   39CHL1  H21A 4045   7.010   2.573   5.012 -0.2314  0.5089  0.3843
   39CHL1  H21B 4046   7.129   2.672   4.922 -0.5967 -3.5148 -1.7770
   39CHL1  H21C 4047   7.090   2.700   5.107 -0.8862 -0.8621 -0.2339
   39CHL1   C22 4048   7.270   2.453   4.940  0.1490  0.8980  0.8083
   39CHL1  H22A 4049   7.316   2.523   4.867  3.4628 -0.4343  1.4559
   39CHL1  H22B 4050   7.362   2.396   4.965  0.2629  0.6499 -0.1513
   39CHL1   C23 4051   7.182   2.353   4.867 -0.3903  0.0890 -0.0693
   39CHL1  H23A 4052   7.130   2.282   4.934  0.2108 -1.5463 -1.2742
   39CHL1  H23B 4053   7.097   2.411   4.823  0.8485  0.3179 -2.3247
   39CHL1   C24 4054   7.267   2.266   4.769 -0.5461 -0.4178  0.4143
   39CHL1  H24A 4055   7.320   2.332   4.698 -2.0288 -0.6266 -0.9487
   39CHL1  H24B 4056   7.347   2.206   4.817 -0.0694  0.4003  0.6619
   39CHL1   C25 4057   7.188   2.169   4.683  0.1644  0.7087 -0.1126
   39CHL1   H25 4058   7.135   2.089   4.740  0.9038  0.9724  0.9821
   39CHL1   C26 4059   7.086   2.254   4.603 -0.4168  0.8665  0.3382
   39CHL1  H26A 4060   7.011   2.288   4.678 -0.5900 -0.4010  0.7731
   39CHL1  H26B 4061   7.124   2.337   4.541 -2.3367  0.3324 -1.6612
   39CHL1  H26C 4062   7.031   2.187   4.533 -0.0592  0.6073  0.3037
   39CHL1   C27 4063   7.266   2.096   4.578  0.4368  0.0151 -0.1406
   39CHL1  H27A 4064   7.222   1.997   4.552 -0.8478  1.2367 -2.9480
   39CHL1  H27B 4065   7.279   2.159   4.488  0.8283  2.6584  1.6423
   39CHL1  H27C 4066   7.374   2.082   4.599  0.3280 -1.0422 -0.2108
   40CHL1    C3 4067   1.372   5.741   6.203  0.1154 -0.2667 -0.0396
   40CHL1    H3 4068   1.468   5.687   6.217 -0.2300 -1.3689 -1.5297
   40CHL1    O3 4069   1.305   5.777   6.324 -0.8293 -0.2755  0.3253
   40CHL1   H3' 4070   1.214   5.799   6.303  0.1978  2.5693 -2.0146
   40CHL1    C4 4071   1.389   5.872   6.116 -0.3663  0.0424  0.3568
   40CHL1   H4A 4072   1.291   5.918   6.092 -0.4759 -0.2766  0.1932
   40CHL1   H4B 4073   1.442   5.946   6.180  0.7202 -1.2183  0.9458
   40CHL1    C5 4074   1.454   5.839   5.981 -0.0215  0.3610 -0.0425
   40CHL1    C6 4075   1.576   5.892   5.944 -0.1644  0.1503  1.1066
   40CHL1    H6 4076   1.625   5.963   6.011  3.4681 -3.0857  2.2598
   40CHL1    C7 4077   1.641   5.857   5.810  0.4345 -0.8280 -0.2437
   40CHL1   H7A 4078   1.689   5.949   5.772 -1.7746  0.1088 -0.9587
   40CHL1   H7B 4079   1.718   5.777   5.823  1.1843 -0.6685 -2.9821
   40CHL1    C8 4080   1.544   5.795   5.713 -0.3081 -0.0264  0.0739
   40CHL1    H8 4081   1.473   5.873   5.678 -0.7852  0.3275  1.7425
   40CHL1   C14 4082   1.615   5.739   5.592 -0.1088 -0.3097 -0.6348
   40CHL1   H14 4083   1.663   5.647   5.633 -2.0810 -0.5876  1.2229
   40CHL1   C15 4084   1.725   5.828   5.534  0.3343  0.2164 -0.6091
   40CHL1  H15A 4085   1.694   5.934   5.526  0.4148  0.1814 -1.4732
   40CHL1  H15B 4086   1.813   5.825   5.603  0.9043  0.3420 -1.3205
   40CHL1   C16 4087   1.754   5.761   5.403 -0.5556 -0.0714 -0.2005
   40CHL1  H16A 4088   1.746   5.847   5.334  2.6184  2.1906  1.9650
   40CHL1  H16B 4089   1.860   5.730   5.390  0.0530  0.4190  2.7316
   40CHL1   C17 4090   1.657   5.643   5.384  0.4976 -0.3252  0.0792
   40CHL1   H17 4091   1.714   5.553   5.414  0.7166  0.6798  2.9889
   40CHL1   C13 4092   1.538   5.677   5.474  0.2765 -0.2634 -0.1821
   40CHL1   C18 4093   1.447   5.782   5.409 -0.2267  0.6451 -0.9419
   40CHL1  H18A 4094   1.385   5.750   5.322 -0.2902 -0.3732 -0.5349
   40CHL1  H18B 4095   1.382   5.837   5.481 -0.1980 -1.7131  1.0307
   40CHL1  H18C 4096   1.510   5.860   5.361  2.4400 -0.8525 -0.0861
   40CHL1   C12 4097   1.453   5.566   5.532 -0.0454  0.5463 -0.3146
   40CHL1  H12A 4098   1.373   5.526   5.466 -1.0301 -0.8063  1.5928
   40CHL1  H12B 4099   1.517   5.478   5.555  2.0460  1.9425 -0.5461
   40CHL1   C11 4100   1.372   5.607   5.655 -0.0332 -0.0736 -0.6034
   40CHL1  H11A 4101   1.292   5.670   5.609 -0.6278 -1.8597 -2.1477
   40CHL1  H11B 4102   1.319   5.522   5.703  1.0932 -0.7351 -0.4961
   40CHL1    C9 4103   1.458   5.683   5.768  0.8303 -0.3328 -0.2836
   40CHL1    H9 4104   1.521   5.605   5.817 -1.3649 -0.2882  2.9405
   40CHL1   C10 4105   1.373   5.736   5.894 -0.1504 -0.7011  0.8953
   40CHL1   C19 4106   1.238   5.808   5.855 -0.4522 -0.4893 -0.1239
   40CHL1  H19A 4107   1.168   5.724   5.832 -3.2262  0.9168  2.5064
   40CHL1  H19B 4108   1.191   5.881   5.924  0.7983  0.3115 -0.0906
   40CHL1  H19C 4109   1.261   5.865   5.763 -1.2324  1.3095  0.7511
   40CHL1    C1 4110   1.336   5.615   5.978 -0.3258 -0.6315 -0.4232
   40CHL1   H1A 4111   1.272   5.545   5.921 -0.3853  0.7886 -2.1658
   40CHL1   H1B 4112   1.436   5.573   6.003  0.9983  2.1736 -0.5301
   40CHL1    C2 4113   1.283   5.644   6.120 -0.1758  0.4935 -0.1054
   40CHL1   H2A 4114   1.293   5.547   6.175  1.8513 -0.4883 -2.0397
   40CHL1   H2B 4115   1.182   5.688   6.113 -0.0775  0.7587  0.1164
   40CHL1   C20 4116   1.618   5.622   5.235 -0.5874  0.2015 -0.6722
   40CHL1   H20 4117   1.553   5.708   5.207 -0.8889 -0.3913 -1.8717
   40CHL1   C21 4118   1.527   5.503   5.218  0.0063  0.3227 -0.1532
   40CHL1  H21A 4119   1.516   5.487   5.108 -2.0321  1.8915 -0.2372
   40CHL1  H21B 4120   1.426   5.512   5.262  0.0927  1.0678 -0.0964
   40CHL1  H21C 4121   1.570   5.413   5.267 -0.2898  1.4301  2.2278
   40CHL1   C22 4122   1.740   5.614   5.137 -0.4392 -0.5804  0.2835
   40CHL1  H22A 4123   1.822   5.681   5.171 -0.6407 -0.9671  1.5924
   40CHL1  H22B 4124   1.778   5.510   5.144 -2.3144 -1.6263 -3.0557
   40CHL1   C23 4125   1.712   5.664   4.989  0.1861  0.4715 -0.1995
   40CHL1  H23A 4126   1.627   5.607   4.949  1.3448 -1.9437  0.5689
   40CHL1  H23B 4127   1.690   5.771   4.969  0.9225 -0.0081 -4.4169
   40CHL1   C24 4128   1.829   5.634   4.902  0.1097  0.8870  0.2438
   40CHL1  H24A 4129   1.915   5.699   4.930  0.8460  0.3112 -0.6120
   40CHL1  H24B 4130   1.875   5.533   4.905 -0.5550  0.5860  0.5607
   40CHL1   C25 4131   1.808   5.664   4.754  0.0177  0.4538 -0.3180
   40CHL1   H25 4132   1.744   5.755   4.755 -1.7222 -0.7192  1.2017
   40CHL1   C26 4133   1.944   5.680   4.686 -0.9450 -0.0998 -0.4765
   40CHL1  H26A 4134   1.992   5.585   4.715 -2.0681 -0.6197 -0.2760
   40CHL1  H26B 4135   1.925   5.684   4.577 -0.6975 -0.4196 -0.5317
   40CHL1  H26C 4136   2.006   5.763   4.727  0.0280 -0.8365 -0.4371
   40CHL1   C27 4137   1.722   5.548   4.687  0.3164 -0.6032  0.1758
   40CHL1  H27A 4138   1.618   5.538   4.725  0.8072 -1.5057  1.3390
   40CHL1  H27B 4139   1.693   5.581   4.585  1.3738 -1.2254 -0.3401
   40CHL1  H27C 4140   1.765   5.446   4.691 -2.5290 -2.0318 -2.0681
   41CHL1    C3 4141   5.505   5.511   5.715 -0.2070 -0.5444  0.0861
   41CHL1    H3 4142   5.411   5.499   5.656 -1.4390  0.0349  1.8394
   41CHL1    O3 4143   5.468   5.550   5.846 -0.3884  0.0928 -0.0856
   41CHL1   H3' 4144   5.547   5.565   5.898 -1.1921 -1.1006  1.5994
   41CHL1    C4 4145   5.578   5.376   5.714 -0.0424  0.1889 -0.4297
   41CHL1   H4A 4146   5.673   5.379   5.773  1.1111  0.5493 -2.2401
   41CHL1   H4B 4147   5.523   5.299   5.772 -1.2191  0.3180 -1.3464
   41CHL1    C5 4148   5.601   5.323   5.581 -0.4653 -0.0505 -0.5754
   41CHL1    C6 4149   5.555   5.200   5.541 -0.2876  0.5950 -0.0656
   41CHL1    H6 4150   5.512   5.129   5.613  2.5262  0.1874  1.3735
   41CHL1    C7 4151   5.558   5.151   5.401 -0.8977 -0.5663  0.5000
   41CHL1   H7A 4152   5.615   5.056   5.397 -0.0510 -0.1208  1.5345
   41CHL1   H7B 4153   5.452   5.137   5.371 -0.5644  1.7630 -2.1571
   41CHL1    C8 4154   5.633   5.244   5.306  0.0416  0.5624  0.6522
   41CHL1    H8 4155   5.742   5.224   5.306  0.1964  1.2687  2.4557
   41CHL1   C14 4156   5.591   5.211   5.163  0.5866 -0.4644 -0.2537
   41CHL1   H14 4157   5.482   5.234   5.161  0.0798 -2.6810 -1.6053
   41CHL1   C15 4158   5.586   5.061   5.114  0.0857 -0.2073  0.4954
   41CHL1  H15A 4159   5.675   5.011   5.157  1.4562  1.7460  0.0499
   41CHL1  H15B 4160   5.483   5.020   5.128 -1.0471  1.6659 -1.6882
   41CHL1   C16 4161   5.590   5.081   4.959  0.2144  1.0749  0.5012
   41CHL1  H16A 4162   5.684   5.033   4.922  0.2682  0.5429  1.2881
   41CHL1  H16B 4163   5.497   5.035   4.919 -0.5399  2.1551  0.9731
   41CHL1   C17 4164   5.584   5.227   4.936 -0.7258 -0.4961  0.1764
   41CHL1   H17 4165   5.481   5.257   4.965 -0.1965 -0.0887  1.7558
   41CHL1   C13 4166   5.657   5.294   5.057 -0.3454  0.5467 -0.4229
   41CHL1   C18 4167   5.815   5.278   5.036  0.3770 -0.1523 -0.4250
   41CHL1  H18A 4168   5.875   5.319   5.120  0.6665  0.0800 -0.7369
   41CHL1  H18B 4169   5.851   5.176   5.010  1.0059  0.3052 -1.4634
   41CHL1  H18C 4170   5.844   5.341   4.949 -0.7578  1.2935  0.2078
   41CHL1   C12 4171   5.614   5.443   5.088 -0.3770  0.0127  0.0540
   41CHL1  H12A 4172   5.661   5.512   5.015  1.1682  0.0398  1.0393
   41CHL1  H12B 4173   5.504   5.460   5.090 -0.4290 -0.3260  0.7626
   41CHL1   C11 4174   5.666   5.485   5.226  0.3202  0.2221 -0.0747
   41CHL1  H11A 4175   5.777   5.481   5.236  0.4394 -0.6995 -1.5300
   41CHL1  H11B 4176   5.645   5.593   5.245  1.2995  0.0840  2.1590
   41CHL1    C9 4177   5.617   5.395   5.334 -0.0070 -0.2182 -0.1597
   41CHL1    H9 4178   5.510   5.421   5.324  0.4803  1.2895 -2.2718
   41CHL1   C10 4179   5.662   5.430   5.478  0.2200 -0.3481 -0.1398
   41CHL1   C19 4180   5.817   5.431   5.489  0.4018  0.1560  0.3332
   41CHL1  H19A 4181   5.854   5.329   5.469 -0.3641 -0.5412  2.2901
   41CHL1  H19B 4182   5.858   5.500   5.411  0.1285 -0.4681 -0.3757
   41CHL1  H19C 4183   5.857   5.456   5.589  0.4962  0.8634  0.1304
   41CHL1    C1 4184   5.617   5.581   5.509  0.7653 -0.0170 -0.9689
   41CHL1   H1A 4185   5.683   5.661   5.469 -1.1176  2.5094  0.6356
   41CHL1   H1B 4186   5.529   5.601   5.445  2.4717  0.5069 -3.2681
   41CHL1    C2 4187   5.600   5.616   5.658 -0.6049  0.2005  0.2154
   41CHL1   H2A 4188   5.563   5.721   5.656  0.8621  0.7345 -0.7502
   41CHL1   H2B 4189   5.695   5.614   5.716 -0.1158 -2.3633 -0.5620
   41CHL1   C20 4190   5.619   5.283   4.799 -0.6148  0.3077 -0.3919
   41CHL1   H20 4191   5.647   5.390   4.812  1.9603 -0.1851 -1.4097
   41CHL1   C21 4192   5.489   5.284   4.723 -0.1795  0.3799 -0.6521
   41CHL1  H21A 4193   5.450   5.185   4.691  0.1295  0.6739 -2.0130
   41CHL1  H21B 4194   5.492   5.365   4.646  1.0512  0.9619 -0.0327
   41CHL1  H21C 4195   5.410   5.329   4.787  0.6692  0.5335  0.3152
   41CHL1   C22 4196   5.734   5.212   4.715  0.0124  0.2103  0.0483
   41CHL1  H22A 4197   5.811   5.179   4.788  0.6425 -0.6529 -0.9814
   41CHL1  H22B 4198   5.712   5.116   4.664 -1.6278 -0.0151  1.0916
   41CHL1   C23 4199   5.806   5.309   4.616 -0.0305  0.2703  0.6736
   41CHL1  H23A 4200   5.867   5.253   4.542 -1.0219 -0.1617  0.1520
   41CHL1  H23B 4201   5.729   5.359   4.554 -1.0653 -2.2074 -0.1890
   41CHL1   C24 4202   5.906   5.412   4.685 -0.1409  0.1218  0.5001
   41CHL1  H24A 4203   5.839   5.491   4.726 -0.4986  0.8177 -1.3114
   41CHL1  H24B 4204   5.969   5.361   4.761  1.9314  1.1940 -0.4198
   41CHL1   C25 4205   6.011   5.480   4.587 -0.6587 -0.3702  0.1256
   41CHL1   H25 4206   6.081   5.405   4.546  0.8527 -0.1908  2.2042
   41CHL1   C26 4207   5.944   5.552   4.469 -0.1991  0.1312 -0.6717
   41CHL1  H26A 4208   5.873   5.633   4.497 -0.2474  0.1334 -0.8013
   41CHL1  H26B 4209   6.022   5.589   4.400  1.8240 -0.4758  1.1902
   41CHL1  H26C 4210   5.885   5.476   4.413 -1.1781 -0.3423  0.9090
   41CHL1   C27 4211   6.109   5.567   4.669  0.1080  0.2218  0.2003
   41CHL1  H27A 4212   6.156   5.517   4.756 -0.2326  0.8575  0.7634
   41CHL1  H27B 4213   6.195   5.602   4.608  1.5019 -2.6598  0.3939
   41CHL1  H27C 4214   6.057   5.659   4.705  1.1274  1.9175 -2.3265
   42CHL1    C3 4215   3.839   5.435   5.627  0.3495  0.1150 -0.1351
   42CHL1    H3 4216   3.950   5.439   5.630  0.4648 -1.7974 -0.6607
   42CHL1    O3 4217   3.798   5.442   5.763  0.2027 -0.5968 -0.0683
   42CHL1   H3' 4218   3.711   5.402   5.765  0.2051 -0.6230 -0.4554
   42CHL1    C4 4219   3.781   5.565   5.559 -0.5047 -0.6639 -0.4461
   42CHL1   H4A 4220   3.674   5.585   5.581 -0.6904 -2.2629  0.2401
   42CHL1   H4B 4221   3.837   5.644   5.614  0.2518 -0.8773 -0.9004
   42CHL1    C5 4222   3.803   5.561   5.409 -0.3148  0.1769 -0.5085
   42CHL1    C6 4223   3.855   5.658   5.337  0.4759 -0.7686  0.1905
   42CHL1    H6 4224   3.886   5.743   5.399 -0.5022  0.3317 -0.7979
   42CHL1    C7 4225   3.855   5.667   5.189  0.0897  0.5605  0.7130
   42CHL1   H7A 4226   3.811   5.765   5.161 -3.5526 -0.6624  1.5789
   42CHL1   H7B 4227   3.954   5.673   5.141  0.2407  0.1150  0.9567
   42CHL1    C8 4228   3.774   5.561   5.114  0.2104 -0.6644  0.3533
   42CHL1    H8 4229   3.665   5.578   5.120  0.0826 -1.7402  1.5309
   42CHL1   C14 4230   3.812   5.556   4.967 -0.1859 -0.3195 -0.3023
   42CHL1   H14 4231   3.921   5.536   4.957 -0.0366  0.5178 -0.3533
   42CHL1   C15 4232   3.791   5.684   4.878 -0.0018 -0.4992  0.0575
   42CHL1  H15A 4233   3.693   5.736   4.883  0.4029  0.3695 -0.6917
   42CHL1  H15B 4234   3.876   5.754   4.896  1.1695 -1.8271 -0.1023
   42CHL1   C16 4235   3.795   5.627   4.738 -1.4370  0.8524  0.1115
   42CHL1  H16A 4236   3.715   5.669   4.673  0.0835  1.5681 -1.3723
   42CHL1  H16B 4237   3.893   5.653   4.694 -1.2280  0.0407  0.0825
   42CHL1   C17 4238   3.787   5.473   4.754 -0.1089 -0.0767  0.2866
   42CHL1   H17 4239   3.892   5.437   4.752 -0.4323 -1.0507 -0.0382
   42CHL1   C13 4240   3.741   5.443   4.896 -0.7914  0.1291  0.2351
   42CHL1   C18 4241   3.599   5.457   4.893  0.3012  0.3097 -0.0917
   42CHL1  H18A 4242   3.572   5.552   4.842 -0.2988 -0.7203 -1.7967
   42CHL1  H18B 4243   3.554   5.370   4.839 -0.7421  1.3399 -0.9469
   42CHL1  H18C 4244   3.548   5.449   4.992  0.3042  0.7963 -0.0489
   42CHL1   C12 4245   3.775   5.309   4.956 -0.2235  0.4281  0.0938
   42CHL1  H12A 4246   3.713   5.226   4.917 -2.5899  0.4552  3.4148
   42CHL1  H12B 4247   3.882   5.280   4.950 -0.0990  0.6763  0.9058
   42CHL1   C11 4248   3.738   5.309   5.106 -0.5080  0.2949 -0.1911
   42CHL1  H11A 4249   3.629   5.300   5.120 -0.5348 -1.4628 -1.2960
   42CHL1  H11B 4250   3.777   5.210   5.141  1.1690  1.3000  0.9435
   42CHL1    C9 4251   3.795   5.427   5.190  0.0842 -0.1869  0.4218
   42CHL1    H9 4252   3.905   5.415   5.192  0.1893  0.4201 -0.8512
   42CHL1   C10 4253   3.754   5.429   5.343  0.4333 -0.0493 -0.6857
   42CHL1   C19 4254   3.596   5.416   5.358  0.1404 -0.0432 -0.1254
   42CHL1  H19A 4255   3.564   5.436   5.462  0.5790  2.8064 -0.4564
   42CHL1  H19B 4256   3.535   5.478   5.288 -2.3570 -1.8076  0.3636
   42CHL1  H19C 4257   3.566   5.312   5.337 -0.8326 -0.2870  2.1660
   42CHL1    C1 4258   3.812   5.306   5.418 -0.1732 -0.4872  0.4570
   42CHL1   H1A 4259   3.775   5.215   5.366  1.2764 -2.7537  3.1310
   42CHL1   H1B 4260   3.923   5.296   5.412 -0.2434 -1.8656  0.9692
   42CHL1    C2 4261   3.786   5.311   5.571 -0.3197  0.3836 -0.0980
   42CHL1   H2A 4262   3.842   5.231   5.623 -0.0376  0.9998  0.5681
   42CHL1   H2B 4263   3.677   5.289   5.574 -0.0267 -1.0747  2.5171
   42CHL1   C20 4264   3.718   5.407   4.626 -0.1435  0.4764 -0.4778
   42CHL1   H20 4265   3.609   5.428   4.628 -0.5364 -1.3472 -0.8887
   42CHL1   C21 4266   3.735   5.254   4.637  0.3186  0.7454  0.2270
   42CHL1  H21A 4267   3.840   5.228   4.663 -0.0846  0.7732  2.0266
   42CHL1  H21B 4268   3.698   5.196   4.550  1.2121  0.8392 -0.2246
   42CHL1  H21C 4269   3.675   5.215   4.722 -0.6047 -0.7732 -1.0751
   42CHL1   C22 4270   3.792   5.457   4.499 -0.8666 -0.1940  0.0222
   42CHL1  H22A 4271   3.819   5.564   4.490 -1.1455 -0.0705  0.5860
   42CHL1  H22B 4272   3.888   5.400   4.501  0.2324  1.5975  0.4359
   42CHL1   C23 4273   3.718   5.411   4.371 -0.3091  0.3249 -0.5418
   42CHL1  H23A 4274   3.694   5.303   4.380  1.7472 -0.0863  0.6756
   42CHL1  H23B 4275   3.622   5.466   4.366  0.2317  1.7713  2.4930
   42CHL1   C24 4276   3.796   5.429   4.238 -0.2505  0.2354  0.1481
   42CHL1  H24A 4277   3.821   5.536   4.226  1.1607 -0.0063  0.7279
   42CHL1  H24B 4278   3.895   5.380   4.242 -0.7470 -0.7741  0.4495
   42CHL1   C25 4279   3.731   5.369   4.106 -0.6808 -0.1290 -0.8993
   42CHL1   H25 4280   3.635   5.419   4.084 -0.4804 -0.5065 -2.8302
   42CHL1   C26 4281   3.818   5.395   3.979 -0.3741 -0.4912  0.8696
   42CHL1  H26A 4282   3.748   5.395   3.892 -0.6557 -0.4773  1.0916
   42CHL1  H26B 4283   3.857   5.497   3.961 -1.7274 -0.3688 -2.0559
   42CHL1  H26C 4284   3.900   5.321   3.969  2.2856  2.3798 -0.0834
   42CHL1   C27 4285   3.687   5.231   4.112 -0.9621 -0.0976  0.6370
   42CHL1  H27A 4286   3.631   5.204   4.205 -0.6289  0.8155  1.1167
   42CHL1  H27B 4287   3.618   5.207   4.029  0.1876 -0.6020 -0.1925
   42CHL1  H27C 4288   3.776   5.166   4.105  0.1405  0.7890  4.1717
   43CHL1    C3 4289   3.357   1.425   5.804  0.6114  0.1200  0.9449
   43CHL1    H3 4290   3.363   1.536   5.816  2.7217  0.2077 -0.4184
   43CHL1    O3 4291   3.360   1.362   5.928  0.2189  0.6915  0.5430
   43CHL1   H3' 4292   3.311   1.280   5.923 -0.5546  1.2059 -0.6213
   43CHL1    C4 4293   3.227   1.387   5.740 -0.2367 -0.3190 -0.6747
   43CHL1   H4A 4294   3.216   1.277   5.726 -0.4887 -0.4556  0.4872
   43CHL1   H4B 4295   3.145   1.410   5.812 -0.6790 -2.2500 -0.5086
   43CHL1    C5 4296   3.222   1.450   5.603  0.8291  0.0716  0.0150
   43CHL1    C6 4297   3.112   1.519   5.570  0.2255  0.0801 -0.5699
   43CHL1    H6 4298   3.026   1.529   5.637 -0.4978 -0.1855 -1.4284
   43CHL1    C7 4299   3.097   1.580   5.437  0.3795 -0.2645 -0.0984
   43CHL1   H7A 4300   2.990   1.572   5.407 -0.0768  0.7923  1.1419
   43CHL1   H7B 4301   3.101   1.691   5.444 -2.3256 -0.1530  1.1292
   43CHL1    C8 4302   3.182   1.511   5.334  0.0970  0.4295  0.2818
   43CHL1    H8 4303   3.138   1.412   5.309  1.2022 -0.4270  1.5896
   43CHL1   C14 4304   3.188   1.599   5.211  0.2389  0.1938 -0.1811
   43CHL1   H14 4305   3.243   1.689   5.247 -0.2669  0.7474 -0.7799
   43CHL1   C15 4306   3.057   1.652   5.160  0.2550 -0.0639 -0.3193
   43CHL1  H15A 4307   2.994   1.561   5.155 -0.2050  0.3100 -2.0588
   43CHL1  H15B 4308   3.024   1.736   5.225  0.0266  0.3385 -0.9522
   43CHL1   C16 4309   3.093   1.702   5.025 -0.3465  0.0425  0.1726
   43CHL1  H16A 4310   3.019   1.671   4.949  0.2042  1.6948 -1.1142
   43CHL1  H16B 4311   3.089   1.812   5.012 -0.5975 -0.0096 -0.2022
   43CHL1   C17 4312   3.242   1.659   4.998  0.3317 -0.1147  0.0663
   43CHL1   H17 4313   3.298   1.745   5.040  0.0792  0.1163 -0.0632
   43CHL1   C13 4314   3.269   1.544   5.095 -0.5900 -0.1937 -0.0588
   43CHL1   C18 4315   3.219   1.415   5.030 -0.1244 -0.0857 -0.0930
   43CHL1  H18A 4316   3.297   1.368   4.967  0.2173  1.6684 -1.0133
   43CHL1  H18B 4317   3.195   1.333   5.102  0.3299 -0.6996 -0.6307
   43CHL1  H18C 4318   3.131   1.438   4.967 -0.6158  1.5232  1.0940
   43CHL1   C12 4319   3.416   1.524   5.150 -0.1913  0.3477  0.0026
   43CHL1  H12A 4320   3.474   1.464   5.078  1.8525 -3.2843  4.2249
   43CHL1  H12B 4321   3.452   1.622   5.188 -0.0222 -0.2342  1.3844
   43CHL1   C11 4322   3.422   1.431   5.273  0.2743  0.1625 -0.1429
   43CHL1  H11A 4323   3.397   1.329   5.240  2.7474 -0.6707  0.3173
   43CHL1  H11B 4324   3.525   1.439   5.316 -0.2783  2.1915  0.9489
   43CHL1    C9 4325   3.327   1.485   5.383  0.8278 -0.1823  0.1760
   43CHL1    H9 4326   3.369   1.585   5.408  3.4423 -1.1258 -0.1242
   43CHL1   C10 4327   3.337   1.407   5.511 -0.0449 -0.0123 -0.7831
   43CHL1   C19 4328   3.339   1.246   5.480 -0.2181 -0.2657  0.1046
   43CHL1  H19A 4329   3.424   1.221   5.414 -0.7913  2.6668 -1.9956
   43CHL1  H19B 4330   3.330   1.191   5.576  0.2672  0.8741  0.8233
   43CHL1  H19C 4331   3.253   1.233   5.411  0.4319  2.2371 -1.2944
   43CHL1    C1 4332   3.467   1.448   5.587 -0.1170  0.3241  0.0429
   43CHL1   H1A 4333   3.550   1.410   5.523  2.4338 -0.4580  3.5119
   43CHL1   H1B 4334   3.480   1.557   5.606 -0.1100  0.4658 -0.7184
   43CHL1    C2 4335   3.480   1.382   5.728 -0.1846  0.2517 -0.2128
   43CHL1   H2A 4336   3.564   1.414   5.792  0.3817  4.1091 -2.5705
   43CHL1   H2B 4337   3.488   1.271   5.722 -2.1056  0.1053 -0.8488
   43CHL1   C20 4338   3.279   1.633   4.851 -0.3786 -0.1895 -0.0312
   43CHL1   H20 4339   3.227   1.547   4.804 -1.6646  0.7382 -0.3380
   43CHL1   C21 4340   3.433   1.608   4.835  0.3585 -0.2142  0.3016
   43CHL1  H21A 4341   3.486   1.677   4.904  1.0768  0.9330 -1.3588
   43CHL1  H21B 4342   3.466   1.611   4.729 -1.2607  0.6050 -0.2070
   43CHL1  H21C 4343   3.442   1.503   4.871 -0.6513  0.2147  1.9312
   43CHL1   C22 4344   3.230   1.752   4.760 -0.5799  0.3356 -0.4232
   43CHL1  H22A 4345   3.120   1.738   4.751 -0.6152 -0.4838  1.0512
   43CHL1  H22B 4346   3.245   1.856   4.795  1.4264  0.0103 -0.2073
   43CHL1   C23 4347   3.286   1.747   4.613 -0.2581 -0.1749 -0.4164
   43CHL1  H23A 4348   3.397   1.755   4.611 -0.3730  2.5301 -2.5512
   43CHL1  H23B 4349   3.255   1.654   4.561 -0.3330  0.1191 -0.8979
   43CHL1   C24 4350   3.222   1.863   4.534 -0.2589  0.1951 -0.5566
   43CHL1  H24A 4351   3.112   1.849   4.538 -0.5114  1.8531 -0.9755
   43CHL1  H24B 4352   3.250   1.959   4.583 -1.3200 -1.5943  4.0592
   43CHL1   C25 4353   3.266   1.855   4.386  0.6268  0.2299  0.1761
   43CHL1   H25 4354   3.230   1.754   4.356  1.0845  0.0470  0.2323
   43CHL1   C26 4355   3.198   1.970   4.309  0.3300  0.2901  0.1565
   43CHL1  H26A 4356   3.217   1.964   4.200  2.0130  0.2683  0.4350
   43CHL1  H26B 4357   3.087   1.965   4.324  0.3799 -0.2029  0.4176
   43CHL1  H26C 4358   3.226   2.068   4.352  0.4394  0.1958  0.3036
   43CHL1   C27 4359   3.420   1.860   4.373 -0.1936  0.0476 -0.4926
   43CHL1  H27A 4360   3.452   1.947   4.434 -0.9648  0.7375 -1.0464
   43CHL1  H27B 4361   3.468   1.771   4.418  0.6503 -0.7685 -2.8448
   43CHL1  H27C 4362   3.451   1.887   4.270 -0.9339 -0.5476 -0.8815
   44CHL1    C3 4363   5.041   2.522   5.870 -0.2425  0.0242  0.5299
   44CHL1    H3 4364   5.128   2.591   5.882 -1.0087  1.0010  0.5531
   44CHL1    O3 4365   4.993   2.480   5.993 -0.3279  0.1300 -0.1215
   44CHL1   H3' 4366   4.917   2.426   5.968  1.0150 -2.0273  0.2103
   44CHL1    C4 4367   4.919   2.605   5.808  0.6541 -0.0317 -0.3726
   44CHL1   H4A 4368   4.833   2.537   5.789  0.2499  0.7257 -1.3847
   44CHL1   H4B 4369   4.888   2.681   5.882 -0.0925  0.2026 -0.9054
   44CHL1    C5 4370   4.944   2.666   5.668  0.2659  0.3136  0.1898
   44CHL1    C6 4371   4.936   2.796   5.639  0.0220 -0.2108  0.0393
   44CHL1    H6 4372   4.906   2.864   5.721  1.0862 -1.2169  1.3052
   44CHL1    C7 4373   4.986   2.859   5.515  0.4717 -0.0007 -0.3242
   44CHL1   H7A 4374   4.919   2.942   5.483  2.9369  2.3934  0.3390
   44CHL1   H7B 4375   5.082   2.908   5.539  0.5845  0.3607 -1.4425
   44CHL1    C8 4376   4.999   2.757   5.400  0.0841 -0.2199 -0.2276
   44CHL1    H8 4377   4.893   2.738   5.370 -0.0683 -0.9517  0.7429
   44CHL1   C14 4378   5.073   2.818   5.278 -0.1045  0.5020 -0.3520
   44CHL1   H14 4379   5.171   2.848   5.320 -0.5495  0.9734  0.3912
   44CHL1   C15 4380   5.003   2.938   5.224  0.0481  0.1465  0.3584
   44CHL1  H15A 4381   4.897   2.907   5.218  0.7793 -2.4263 -4.4266
   44CHL1  H15B 4382   5.007   3.027   5.291 -0.7344  2.2582 -2.2158
   44CHL1   C16 4383   5.068   2.954   5.081 -0.2507  0.4668 -0.0383
   44CHL1  H16A 4384   4.997   2.965   4.996 -0.5299 -0.4366  0.0576
   44CHL1  H16B 4385   5.146   3.032   5.076  0.2348 -0.0066  0.0550
   44CHL1   C17 4386   5.147   2.823   5.057  0.5297  0.8373  0.5300
   44CHL1   H17 4387   5.250   2.851   5.088  0.9000  0.6761 -0.4896
   44CHL1   C13 4388   5.094   2.724   5.163 -0.2639 -0.3400  0.3952
   44CHL1   C18 4389   4.961   2.662   5.099 -0.0232  0.3770 -0.5208
   44CHL1  H18A 4390   4.973   2.613   5.001 -0.7611 -0.5311 -0.1613
   44CHL1  H18B 4391   4.915   2.586   5.166 -0.3858  1.0987  0.0694
   44CHL1  H18C 4392   4.892   2.745   5.071 -1.8028 -1.0797 -0.6489
   44CHL1   C12 4393   5.186   2.610   5.217 -0.0828 -0.4084  0.0621
   44CHL1  H12A 4394   5.220   2.529   5.149 -1.5201 -0.1553 -1.0062
   44CHL1  H12B 4395   5.275   2.662   5.259  1.1126 -3.2831  1.3650
   44CHL1   C11 4396   5.121   2.537   5.342 -0.2482 -0.1658 -0.1442
   44CHL1  H11A 4397   5.036   2.475   5.306  0.1123 -0.5939 -0.2671
   44CHL1  H11B 4398   5.191   2.463   5.387  1.6416  0.8054 -1.3825
   44CHL1    C9 4399   5.075   2.636   5.453 -0.1835 -0.3530 -0.4825
   44CHL1    H9 4400   5.170   2.677   5.493 -0.0011 -0.4681 -0.7859
   44CHL1   C10 4401   5.005   2.564   5.569  0.4700 -1.1225  0.4413
   44CHL1   C19 4402   4.878   2.489   5.522 -0.1392  0.2798  0.0173
   44CHL1  H19A 4403   4.827   2.423   5.595  0.0190  0.1320 -0.0067
   44CHL1  H19B 4404   4.816   2.556   5.458  0.2587  1.1877  0.5618
   44CHL1  H19C 4405   4.915   2.411   5.452 -0.8973 -0.5918  0.5608
   44CHL1    C1 4406   5.103   2.461   5.634  0.1395  0.4514 -0.3065
   44CHL1   H1A 4407   5.113   2.366   5.578 -0.8814  0.9242 -1.3520
   44CHL1   H1B 4408   5.203   2.507   5.650  0.1775 -0.3346  2.1705
   44CHL1    C2 4409   5.077   2.404   5.775  0.0299  0.3843  0.3135
   44CHL1   H2A 4410   5.164   2.354   5.822 -1.3544 -2.4301  0.1074
   44CHL1   H2B 4411   4.996   2.328   5.773  1.5241 -1.2643 -0.3012
   44CHL1   C20 4412   5.175   2.782   4.912  0.9073 -0.8365  0.2447
   44CHL1   H20 4413   5.081   2.745   4.864  0.0304  0.4826  0.8655
   44CHL1   C21 4414   5.257   2.657   4.905  0.1833 -0.2039  0.3407
   44CHL1  H21A 4415   5.334   2.647   4.984  0.0018 -0.2710  0.5068
   44CHL1  H21B 4416   5.287   2.626   4.802 -0.8263  2.7347 -0.9489
   44CHL1  H21C 4417   5.191   2.574   4.936  0.2982 -0.6846 -0.6631
   44CHL1   C22 4418   5.242   2.896   4.840  0.8242  0.1570  0.4768
   44CHL1  H22A 4419   5.175   2.985   4.837 -1.0721 -1.2217 -0.1715
   44CHL1  H22B 4420   5.336   2.933   4.886  1.1487 -0.7320  0.5496
   44CHL1   C23 4421   5.263   2.868   4.691 -0.4228  0.5408 -0.2443
   44CHL1  H23A 4422   5.347   2.796   4.687 -2.3533 -1.8374 -4.0630
   44CHL1  H23B 4423   5.171   2.818   4.655  0.4325 -0.2597 -1.3797
   44CHL1   C24 4424   5.295   2.988   4.601 -0.2472 -0.5748  0.1730
   44CHL1  H24A 4425   5.214   3.061   4.623  0.9569  0.7242  0.5118
   44CHL1  H24B 4426   5.389   3.039   4.633 -1.0028  1.3823 -0.5952
   44CHL1   C25 4427   5.317   2.961   4.452 -0.1821  0.2433 -0.3842
   44CHL1   H25 4428   5.390   2.877   4.451  0.1460  0.5241 -0.0072
   44CHL1   C26 4429   5.189   2.890   4.385 -0.7364  0.0318 -0.1680
   44CHL1  H26A 4430   5.180   2.792   4.437 -1.4373 -0.7662 -1.7047
   44CHL1  H26B 4431   5.092   2.936   4.412 -0.2936  1.1757 -0.4613
   44CHL1  H26C 4432   5.195   2.878   4.275 -2.8863 -0.7036 -0.2472
   44CHL1   C27 4433   5.361   3.081   4.366  0.2932  0.4769 -1.0909
   44CHL1  H27A 4434   5.367   3.034   4.265  1.2571 -1.2931 -0.2588
   44CHL1  H27B 4435   5.285   3.161   4.374 -0.3486 -0.0763 -1.5272
   44CHL1  H27C 4436   5.465   3.115   4.386  0.6221  0.7764 -3.0880
   45CHL1    C3 4437   4.389   4.459   5.792 -0.0073  0.6082 -0.1627
   45CHL1    H3 4438   4.496   4.467   5.765  0.3797 -0.8002  0.8114
   45CHL1    O3 4439   4.367   4.483   5.930  0.1276 -0.4497  0.3272
   45CHL1   H3' 4440   4.301   4.422   5.963  0.0249 -1.1252 -1.0567
   45CHL1    C4 4441   4.308   4.566   5.716  0.1759 -0.0280  0.4444
   45CHL1   H4A 4442   4.203   4.567   5.751  0.5584  0.3125  1.6024
   45CHL1   H4B 4443   4.360   4.662   5.732  1.6903 -0.5691 -0.9610
   45CHL1    C5 4444   4.294   4.541   5.566 -0.4560  0.1187 -0.2740
   45CHL1    C6 4445   4.316   4.640   5.478  0.7806 -0.0341  0.9877
   45CHL1    H6 4446   4.341   4.741   5.512  0.0961  0.6310 -0.4106
   45CHL1    C7 4447   4.304   4.626   5.328 -0.1689 -0.5009 -0.4295
   45CHL1   H7A 4448   4.261   4.721   5.291  0.4101  0.2328  0.7208
   45CHL1   H7B 4449   4.409   4.630   5.293  0.9428  2.6192  2.6778
   45CHL1    C8 4450   4.223   4.499   5.293 -0.3311 -0.1704  0.2693
   45CHL1    H8 4451   4.113   4.513   5.290 -0.3442 -0.0986  0.8454
   45CHL1   C14 4452   4.257   4.475   5.146 -0.4126  0.3633  0.0997
   45CHL1   H14 4453   4.365   4.452   5.139 -0.3888  0.9383 -2.6042
   45CHL1   C15 4454   4.246   4.594   5.045  0.7754  0.0893 -1.0193
   45CHL1  H15A 4455   4.140   4.627   5.052 -0.1865 -2.7036 -1.0832
   45CHL1  H15B 4456   4.311   4.680   5.070 -0.0700  0.4046  0.1318
   45CHL1   C16 4457   4.241   4.527   4.906  0.0434 -0.2584 -0.3442
   45CHL1  H16A 4458   4.154   4.564   4.848  0.1142  2.2381  1.0151
   45CHL1  H16B 4459   4.335   4.560   4.855  0.5211 -0.9694  0.0574
   45CHL1   C17 4460   4.250   4.373   4.926  0.4522  0.5074  0.0962
   45CHL1   H17 4461   4.352   4.330   4.917 -0.5928 -1.8423 -2.0090
   45CHL1   C13 4462   4.190   4.356   5.073 -0.0849 -0.2546  0.0790
   45CHL1   C18 4463   4.036   4.367   5.062  0.0263  0.4023  0.0306
   45CHL1  H18A 4464   3.997   4.376   5.166 -0.1292  1.9457 -0.1278
   45CHL1  H18B 4465   4.014   4.467   5.018 -0.8376  0.7888  1.2762
   45CHL1  H18C 4466   3.983   4.282   5.014 -0.2837  0.6980 -0.1590
   45CHL1   C12 4467   4.236   4.235   5.149 -0.2561  1.1193  0.8118
   45CHL1  H12A 4468   4.169   4.151   5.123 -0.1868  2.1410 -3.3579
   45CHL1  H12B 4469   4.345   4.218   5.140 -0.8101 -1.7301 -1.9716
   45CHL1   C11 4470   4.221   4.242   5.307 -0.2287 -0.0103  0.0549
   45CHL1  H11A 4471   4.110   4.241   5.318 -0.4743  0.7774 -1.9919
   45CHL1  H11B 4472   4.263   4.156   5.364  3.3722  0.4844 -1.5940
   45CHL1    C9 4473   4.277   4.373   5.374 -0.1134 -0.1258  0.4171
   45CHL1    H9 4474   4.385   4.362   5.354 -0.5929 -1.9865 -1.4931
   45CHL1   C10 4475   4.257   4.394   5.524  0.2023  0.7674  0.7102
   45CHL1   C19 4476   4.102   4.382   5.551 -0.6870 -0.1344  0.1279
   45CHL1  H19A 4477   4.068   4.278   5.532 -0.4506 -0.2089  0.1052
   45CHL1  H19B 4478   4.088   4.412   5.657 -2.3064  1.5795 -0.5190
   45CHL1  H19C 4479   4.052   4.448   5.478  0.7382 -0.5552 -1.2867
   45CHL1    C1 4480   4.339   4.293   5.599 -0.2647  0.4075 -0.0754
   45CHL1   H1A 4481   4.292   4.194   5.577 -1.3203  0.8886 -0.0264
   45CHL1   H1B 4482   4.442   4.298   5.559  0.2487 -1.7114  0.8597
   45CHL1    C2 4483   4.340   4.312   5.754  0.7431  0.6730  0.3358
   45CHL1   H2A 4484   4.416   4.240   5.791  2.0091  0.1402 -2.9621
   45CHL1   H2B 4485   4.238   4.295   5.795  0.8182 -1.5009 -0.2491
   45CHL1   C20 4486   4.185   4.286   4.807 -0.2731  0.3730  0.0630
   45CHL1   H20 4487   4.077   4.312   4.800 -0.1813  0.8250  0.2729
   45CHL1   C21 4488   4.189   4.139   4.852 -0.0168  0.4904  0.7406
   45CHL1  H21A 4489   4.165   4.077   4.763 -0.5690  2.7712 -0.7696
   45CHL1  H21B 4490   4.120   4.109   4.934 -0.7486  1.5472  0.5240
   45CHL1  H21C 4491   4.291   4.108   4.885 -1.2030 -1.7110  2.6798
   45CHL1   C22 4492   4.274   4.323   4.683  0.3648  0.6899 -0.7731
   45CHL1  H22A 4493   4.267   4.430   4.653  0.6045  0.8710 -0.1925
   45CHL1  H22B 4494   4.376   4.306   4.721 -0.3201 -2.3659 -0.0521
   45CHL1   C23 4495   4.256   4.229   4.563  0.0465 -0.4272 -0.0341
   45CHL1  H23A 4496   4.276   4.127   4.602  0.8140 -0.3821 -0.2929
   45CHL1  H23B 4497   4.150   4.241   4.533 -0.0298  1.9840  0.9242
   45CHL1   C24 4498   4.358   4.267   4.449 -0.4379  0.2287 -0.1396
   45CHL1  H24A 4499   4.329   4.361   4.397  0.1134 -0.5847 -2.0309
   45CHL1  H24B 4500   4.459   4.275   4.494 -0.5546 -1.5710  0.5062
   45CHL1   C25 4501   4.356   4.168   4.321  0.0023 -0.0591  0.0057
   45CHL1   H25 4502   4.418   4.083   4.357  0.1229  1.0433  2.6575
   45CHL1   C26 4503   4.214   4.118   4.271 -0.0200 -0.4052 -0.1558
   45CHL1  H26A 4504   4.213   4.063   4.175 -0.0556  0.3020 -0.5708
   45CHL1  H26B 4505   4.178   4.039   4.341 -0.1606 -1.1244 -1.0269
   45CHL1  H26C 4506   4.148   4.208   4.266  2.4123  1.3957 -2.7088
   45CHL1   C27 4507   4.429   4.235   4.203  0.5570 -0.1958  0.6150
   45CHL1  H27A 4508   4.516   4.292   4.243 -1.6568  1.3655  3.6441
   45CHL1  H27B 4509   4.463   4.159   4.129 -1.6550 -0.8400  0.1926
   45CHL1  H27C 4510   4.366   4.302   4.140  1.3912 -1.0583 -1.2143
   46CHL1    C3 4511   6.609   0.888   5.827  0.1650 -0.4246  0.0472
   46CHL1    H3 4512   6.652   0.990   5.839  0.4507 -0.7387  2.0319
   46CHL1    O3 4513   6.609   0.827   5.955  0.2287  0.2073 -0.2658
   46CHL1   H3' 4514   6.610   0.732   5.945 -0.6414  0.3624 -2.3476
   46CHL1    C4 4515   6.469   0.906   5.774 -0.0978  0.3519  0.3272
   46CHL1   H4A 4516   6.416   0.808   5.780 -1.1014  0.8642  0.0624
   46CHL1   H4B 4517   6.412   0.976   5.840 -0.5476  1.2493 -0.9802
   46CHL1    C5 4518   6.458   0.944   5.627  0.0166  0.0289  0.6890
   46CHL1    C6 4519   6.382   1.047   5.582 -0.2535 -0.1726 -0.1377
   46CHL1    H6 4520   6.315   1.099   5.652  0.0406  1.8443 -1.2599
   46CHL1    C7 4521   6.370   1.086   5.439 -0.5713 -0.1446 -0.8149
   46CHL1   H7A 4522   6.261   1.098   5.425 -0.4678  1.1489 -0.6119
   46CHL1   H7B 4523   6.430   1.179   5.433  0.0694 -0.4898  0.0151
   46CHL1    C8 4524   6.436   0.989   5.338 -0.6447 -0.2179  0.6426
   46CHL1    H8 4525   6.369   0.901   5.331  2.3279 -2.5791 -0.0335
   46CHL1   C14 4526   6.455   1.057   5.202 -0.2462  0.8589  0.0848
   46CHL1   H14 4527   6.523   1.141   5.226  0.6420  0.2517 -0.2719
   46CHL1   C15 4528   6.335   1.124   5.141 -0.4752  0.4960  0.2227
   46CHL1  H15A 4529   6.250   1.052   5.137  1.9361 -2.6127  1.1023
   46CHL1  H15B 4530   6.301   1.213   5.198 -2.2280 -0.0647  0.1093
   46CHL1   C16 4531   6.378   1.155   4.999 -0.5977  0.3441  0.0453
   46CHL1  H16A 4532   6.308   1.118   4.921  0.6806  0.8271 -1.3748
   46CHL1  H16B 4533   6.390   1.264   4.983 -1.3858  0.4739  0.2778
   46CHL1   C17 4534   6.518   1.074   4.978  0.2169 -0.1387 -0.4404
   46CHL1   H17 4535   6.599   1.146   5.004  0.8766 -0.1813 -2.3029
   46CHL1   C13 4536   6.519   0.974   5.095 -0.3812  0.6026 -0.7273
   46CHL1   C18 4537   6.443   0.846   5.056  0.2791  0.0469 -0.4245
   46CHL1  H18A 4538   6.420   0.784   5.146 -2.0512  1.8074  0.2886
   46CHL1  H18B 4539   6.344   0.878   5.017  0.7237  2.2386  0.1280
   46CHL1  H18C 4540   6.503   0.790   4.981  0.0950 -1.8537  0.7627
   46CHL1   C12 4541   6.664   0.931   5.145  0.1873  0.6792  0.2148
   46CHL1  H12A 4542   6.694   0.855   5.070 -0.1458  0.7715 -0.0121
   46CHL1  H12B 4543   6.741   1.008   5.169  0.4265  0.3550  0.4957
   46CHL1   C11 4544   6.652   0.849   5.279  0.4159 -0.2652  0.4769
   46CHL1  H11A 4545   6.583   0.766   5.253 -2.2997  1.8914  0.2983
   46CHL1  H11B 4546   6.750   0.807   5.309  0.0657 -4.0683 -2.8171
   46CHL1    C9 4547   6.567   0.932   5.391 -0.1615 -0.1702 -0.7188
   46CHL1    H9 4548   6.636   1.017   5.404  0.0194 -0.2575 -1.0934
   46CHL1   C10 4549   6.563   0.869   5.531 -0.4712  0.0463 -0.3426
   46CHL1   C19 4550   6.515   0.722   5.514 -0.2568  0.7295  0.1739
   46CHL1  H19A 4551   6.425   0.727   5.449  1.5028  0.1754 -2.4941
   46CHL1  H19B 4552   6.597   0.675   5.455  0.9106  1.7575  0.9249
   46CHL1  H19C 4553   6.494   0.661   5.605  1.8363  2.3429  1.8584
   46CHL1    C1 4554   6.701   0.863   5.591  0.7696  0.3684  0.1134
   46CHL1   H1A 4555   6.783   0.811   5.537  1.3305 -0.1877  1.4276
   46CHL1   H1B 4556   6.735   0.968   5.600  3.5819 -0.5184  1.1271
   46CHL1    C2 4557   6.701   0.804   5.737 -0.5048 -0.1617 -0.1728
   46CHL1   H2A 4558   6.808   0.815   5.765  0.5637  0.0184 -3.8094
   46CHL1   H2B 4559   6.660   0.701   5.741 -2.7060  0.5784 -1.7622
   46CHL1   C20 4560   6.558   1.025   4.837 -0.0422 -0.2110 -0.4706
   46CHL1   H20 4561   6.633   0.943   4.841  0.7138  0.3842 -1.8149
   46CHL1   C21 4562   6.630   1.143   4.767  0.1096  0.0303 -0.2125
   46CHL1  H21A 4563   6.561   1.230   4.756  2.3043  1.7951 -0.8795
   46CHL1  H21B 4564   6.664   1.104   4.669 -0.2122 -1.6900  0.3311
   46CHL1  H21C 4565   6.710   1.185   4.831 -2.5703  2.3304  1.9210
   46CHL1   C22 4566   6.440   0.967   4.754  0.5364 -0.0895 -0.4055
   46CHL1  H22A 4567   6.363   0.916   4.815  1.6734  0.7521  1.8514
   46CHL1  H22B 4568   6.396   1.060   4.712  2.9348  1.2380 -0.1882
   46CHL1   C23 4569   6.493   0.866   4.645  0.1108  0.5594 -0.5277
   46CHL1  H23A 4570   6.584   0.911   4.599  0.2008 -0.1373 -1.0559
   46CHL1  H23B 4571   6.529   0.767   4.683  1.3259  1.3142  0.3475
   46CHL1   C24 4572   6.378   0.835   4.547 -0.5583  0.4016  0.1944
   46CHL1  H24A 4573   6.295   0.789   4.603 -0.7682  1.6280  0.9272
   46CHL1  H24B 4574   6.341   0.928   4.499 -3.5729 -0.2893  0.9736
   46CHL1   C25 4575   6.422   0.755   4.422  0.0561  0.3584 -0.4156
   46CHL1   H25 4576   6.447   0.653   4.457 -0.3856  0.5815  0.5816
   46CHL1   C26 4577   6.298   0.735   4.330  0.1316 -0.0737  0.0183
   46CHL1  H26A 4578   6.312   0.669   4.241  1.3847  2.3981 -1.7565
   46CHL1  H26B 4579   6.213   0.700   4.391  1.1452  0.1340  1.5882
   46CHL1  H26C 4580   6.267   0.837   4.297  0.9081 -0.1113 -0.8827
   46CHL1   C27 4581   6.541   0.813   4.347  0.4405  0.5380  0.2342
   46CHL1  H27A 4582   6.625   0.813   4.421  2.7991 -2.5502 -2.1568
   46CHL1  H27B 4583   6.564   0.747   4.261  2.0655  2.7071 -1.1287
   46CHL1  H27C 4584   6.532   0.920   4.319  0.7054  0.7997  1.0982
   47CHL1    C3 4585   1.876   5.396   5.909  0.0903 -0.5001  0.2114
   47CHL1    H3 4586   1.776   5.366   5.872 -0.1429  1.4199 -0.8073
   47CHL1    O3 4587   1.874   5.429   6.044  0.5812  0.0585  0.6491
   47CHL1   H3' 4588   1.821   5.509   6.049  2.4665  1.3451  1.7918
   47CHL1    C4 4589   1.974   5.277   5.895  0.9390  0.6663 -0.5889
   47CHL1   H4A 4590   2.070   5.292   5.948  0.3973  2.7279 -0.1000
   47CHL1   H4B 4591   1.920   5.191   5.941  0.3451  0.6409 -1.3189
   47CHL1    C5 4592   1.993   5.237   5.751  0.6649 -0.0141 -0.0600
   47CHL1    C6 4593   1.974   5.104   5.719  0.5765 -0.2307 -0.1622
   47CHL1    H6 4594   1.949   5.031   5.798  0.3286 -1.3937 -1.2907
   47CHL1    C7 4595   2.000   5.050   5.584  0.4165  0.4271  0.5831
   47CHL1   H7A 4596   2.071   4.966   5.604 -0.9308 -1.1733 -1.0473
   47CHL1   H7B 4597   1.908   5.023   5.529  1.5766  1.4319 -1.9791
   47CHL1    C8 4598   2.077   5.148   5.496  0.1087  0.3117  0.2988
   47CHL1    H8 4599   2.186   5.146   5.516  0.2483  0.3509 -0.4343
   47CHL1   C14 4600   2.052   5.108   5.348 -0.1877 -0.5086 -0.0962
   47CHL1   H14 4601   1.943   5.103   5.325  0.1705  1.5823 -2.6540
   47CHL1   C15 4602   2.110   4.971   5.310 -0.3540 -0.1179  0.8523
   47CHL1  H15A 4603   2.211   4.981   5.354 -0.8213  2.3233  1.5642
   47CHL1  H15B 4604   2.054   4.883   5.347 -0.7991  0.5614  1.8472
   47CHL1   C16 4605   2.105   4.970   5.156 -0.0402 -0.0712  0.4797
   47CHL1  H16A 4606   2.189   4.911   5.113  1.4035  0.0798  2.8911
   47CHL1  H16B 4607   2.012   4.916   5.129  0.1625  0.2152 -0.8833
   47CHL1   C17 4608   2.091   5.116   5.105  0.3313 -0.6383 -0.4287
   47CHL1   H17 4609   1.983   5.126   5.078  0.2899 -1.6571 -0.6716
   47CHL1   C13 4610   2.116   5.201   5.239  0.3905 -0.3737  0.0782
   47CHL1   C18 4611   2.269   5.223   5.262  0.1322 -0.6850 -0.4713
   47CHL1  H18A 4612   2.291   5.232   5.371  0.8945  0.3422 -0.6960
   47CHL1  H18B 4613   2.321   5.134   5.222  0.5899  0.1716 -1.8498
   47CHL1  H18C 4614   2.310   5.311   5.207  1.6596  0.7288  2.6108
   47CHL1   C12 4615   2.038   5.342   5.260 -0.0802 -0.0581  0.6661
   47CHL1  H12A 4616   2.068   5.419   5.186  1.5323 -0.5168  0.8022
   47CHL1  H12B 4617   1.930   5.319   5.247 -0.3457  0.9353  1.0508
   47CHL1   C11 4618   2.056   5.396   5.398 -0.1893  0.0641 -0.5020
   47CHL1  H11A 4619   2.164   5.417   5.404 -0.4958  2.0232 -1.3323
   47CHL1  H11B 4620   2.003   5.493   5.406  1.1814  0.6817  2.3907
   47CHL1    C9 4621   2.018   5.288   5.510 -0.4399 -0.1244  0.5591
   47CHL1    H9 4622   1.909   5.274   5.491 -0.2408 -0.9995  0.0161
   47CHL1   C10 4623   2.035   5.347   5.653 -0.1729 -0.1436 -0.3433
   47CHL1   C19 4624   2.187   5.396   5.678 -0.2157 -0.0102 -0.0058
   47CHL1  H19A 4625   2.257   5.324   5.629  1.4900  1.4138  0.2316
   47CHL1  H19B 4626   2.188   5.498   5.634 -2.3897 -0.7440 -1.9884
   47CHL1  H19C 4627   2.204   5.395   5.788 -0.4346 -0.5558  0.0242
   47CHL1    C1 4628   1.944   5.469   5.678  0.6319 -0.1341  0.0176
   47CHL1   H1A 4629   1.979   5.560   5.625 -0.2817 -0.0325 -0.4466
   47CHL1   H1B 4630   1.844   5.437   5.640  0.0009 -0.1667  1.6099
   47CHL1    C2 4631   1.920   5.507   5.822 -0.6424 -0.7169 -0.3610
   47CHL1   H2A 4632   1.849   5.591   5.834 -0.9884 -1.1592  0.8756
   47CHL1   H2B 4633   2.013   5.548   5.868 -0.8067 -0.1013 -0.5696
   47CHL1   C20 4634   2.174   5.148   4.982  0.6543 -0.0792 -0.0410
   47CHL1   H20 4635   2.283   5.150   5.002  0.5225  0.0773  0.6876
   47CHL1   C21 4636   2.134   5.285   4.927 -0.3413 -0.1096 -0.1673
   47CHL1  H21A 4637   2.156   5.366   5.001 -0.9805 -0.7952  0.8002
   47CHL1  H21B 4638   2.023   5.293   4.917 -0.4429 -1.1015  0.1405
   47CHL1  H21C 4639   2.179   5.307   4.828 -1.2527 -2.3311 -1.1467
   47CHL1   C22 4640   2.145   5.045   4.869 -0.6575 -0.3568 -0.7102
   47CHL1  H22A 4641   2.146   4.941   4.907 -1.4922 -0.1941 -0.2177
   47CHL1  H22B 4642   2.043   5.063   4.830 -0.7067  0.6866 -0.1442
   47CHL1   C23 4643   2.247   5.049   4.758 -0.5830 -0.9090 -0.2200
   47CHL1  H23A 4644   2.241   5.131   4.683  1.5911 -1.7937 -1.4573
   47CHL1  H23B 4645   2.351   5.071   4.790 -1.0834  0.6479  0.4377
   47CHL1   C24 4646   2.240   4.916   4.679 -0.2960 -0.4765 -0.0240
   47CHL1  H24A 4647   2.288   4.832   4.733 -1.1360 -1.4407 -0.7646
   47CHL1  H24B 4648   2.134   4.887   4.688 -1.0967  2.1958  0.0634
   47CHL1   C25 4649   2.291   4.909   4.532  1.3645 -0.8019  0.1281
   47CHL1   H25 4650   2.392   4.952   4.514  0.8998  1.6683  2.5840
   47CHL1   C26 4651   2.297   4.759   4.491  0.4130  0.2470 -0.1806
   47CHL1  H26A 4652   2.380   4.707   4.542  0.0494 -1.9368 -1.6992
   47CHL1  H26B 4653   2.209   4.693   4.503  0.3938 -0.8565 -4.6514
   47CHL1  H26C 4654   2.320   4.750   4.383 -3.1448 -1.6055 -0.9184
   47CHL1   C27 4655   2.201   4.984   4.440 -0.4355 -0.4294  0.1360
   47CHL1  H27A 4656   2.100   4.937   4.435  0.7037 -3.1288  0.6969
   47CHL1  H27B 4657   2.195   5.091   4.469 -0.1096  0.0618 -1.5006
   47CHL1  H27C 4658   2.249   4.992   4.340  0.5753 -0.1282  0.6315
   48CHL1    C3 4659   5.033   4.591   5.604  0.2972  0.3771  0.3817
   48CHL1    H3 4660   5.124   4.584   5.541 -1.7931 -3.9152 -2.6352
   48CHL1    O3 4661   5.057   4.591   5.744  0.1028  0.3647 -0.3742
   48CHL1   H3' 4662   4.974   4.619   5.782 -0.6762 -0.7912 -1.1664
   48CHL1    C4 4663   4.936   4.702   5.567  0.5601  0.0905  0.2550
   48CHL1   H4A 4664   4.834   4.675   5.602  0.2902 -2.2399 -1.9713
   48CHL1   H4B 4665   4.983   4.795   5.604  1.1990  1.6554 -3.9992
   48CHL1    C5 4666   4.925   4.699   5.417 -0.1891  0.2480 -0.1639
   48CHL1    C6 4667   4.965   4.806   5.346 -0.2085 -0.5822  0.1108
   48CHL1    H6 4668   4.992   4.895   5.404  1.1099 -0.1563 -1.0981
   48CHL1    C7 4669   4.949   4.826   5.200 -0.1232  0.3834  0.8342
   48CHL1   H7A 4670   4.909   4.928   5.180  1.7560  1.0626  0.4155
   48CHL1   H7B 4671   5.051   4.808   5.162  0.8102 -0.2991  3.4191
   48CHL1    C8 4672   4.862   4.712   5.138 -0.3400  0.0902  0.7948
   48CHL1    H8 4673   4.760   4.744   5.169 -0.4966 -0.5753  0.9852
   48CHL1   C14 4674   4.857   4.701   4.986  0.0831  0.8642  0.4390
   48CHL1   H14 4675   4.959   4.665   4.960 -0.8358 -0.4406 -1.5018
   48CHL1   C15 4676   4.829   4.831   4.915  0.4870 -0.1894 -0.0410
   48CHL1  H15A 4677   4.741   4.883   4.957  1.6626 -0.9679  3.8145
   48CHL1  H15B 4678   4.914   4.902   4.904  0.4995 -0.2127 -0.0990
   48CHL1   C16 4679   4.789   4.782   4.772  0.3244  0.8847  0.6958
   48CHL1  H16A 4680   4.684   4.814   4.757 -1.8529 -5.2265  0.0528
   48CHL1  H16B 4681   4.852   4.825   4.690  3.0188 -1.5014  1.3729
   48CHL1   C17 4682   4.791   4.628   4.777  0.1574 -0.5215  0.3000
   48CHL1   H17 4683   4.895   4.590   4.774  0.8531  1.0600  2.3764
   48CHL1   C13 4684   4.757   4.604   4.924 -0.4013 -0.1794  0.5968
   48CHL1   C18 4685   4.608   4.628   4.959  0.1193 -0.7336 -0.4157
   48CHL1  H18A 4686   4.565   4.713   4.902 -1.0226 -1.1756 -0.2542
   48CHL1  H18B 4687   4.544   4.540   4.935 -3.1703  1.6622 -1.2168
   48CHL1  H18C 4688   4.584   4.646   5.066  1.8155 -0.2284 -0.0928
   48CHL1   C12 4689   4.798   4.458   4.982  0.0143 -0.2432  0.5013
   48CHL1  H12A 4690   4.721   4.394   4.934 -1.2146 -1.2493  3.5668
   48CHL1  H12B 4691   4.901   4.435   4.949 -0.4264 -0.2124 -0.9449
   48CHL1   C11 4692   4.790   4.462   5.135 -0.7624 -0.2112 -0.3922
   48CHL1  H11A 4693   4.685   4.490   5.153 -0.3046  1.6799 -0.4691
   48CHL1  H11B 4694   4.796   4.363   5.185 -1.1642  0.0675  0.2124
   48CHL1    C9 4695   4.878   4.571   5.202  0.4301  0.4579 -0.6068
   48CHL1    H9 4696   4.983   4.541   5.186  0.4200  0.1587 -0.1225
   48CHL1   C10 4697   4.863   4.567   5.356  0.7198  0.1023  0.1883
   48CHL1   C19 4698   4.712   4.568   5.393 -0.4062  0.1876  0.2863
   48CHL1  H19A 4699   4.672   4.471   5.357 -0.0813 -0.2578  1.1045
   48CHL1  H19B 4700   4.682   4.572   5.500  0.1826  2.2963  0.4145
   48CHL1  H19C 4701   4.660   4.649   5.338  3.3506  2.4159 -0.3399
   48CHL1    C1 4702   4.948   4.444   5.409  0.7268 -0.2692 -0.5976
   48CHL1   H1A 4703   4.886   4.356   5.381 -0.2455  0.7260 -1.6736
   48CHL1   H1B 4704   5.048   4.450   5.361  1.0074  0.3534  0.0454
   48CHL1    C2 4705   4.971   4.453   5.565  0.3447  0.6107 -0.6273
   48CHL1   H2A 4706   5.038   4.376   5.610 -1.6020  0.5507  2.4887
   48CHL1   H2B 4707   4.868   4.434   5.602  0.0196  0.2273 -1.7040
   48CHL1   C20 4708   4.693   4.574   4.673 -0.2373 -0.2753 -0.2553
   48CHL1   H20 4709   4.596   4.629   4.675 -0.1714 -0.1375 -0.6537
   48CHL1   C21 4710   4.666   4.423   4.681 -0.2655 -0.5153  0.1860
   48CHL1  H21A 4711   4.586   4.405   4.756  0.6573 -0.0649  1.3232
   48CHL1  H21B 4712   4.629   4.393   4.581  1.8364  1.4082 -1.2774
   48CHL1  H21C 4713   4.760   4.367   4.702  0.9113  1.2680 -0.1108
   48CHL1   C22 4714   4.738   4.603   4.528 -0.2960 -0.3685 -0.4438
   48CHL1  H22A 4715   4.661   4.569   4.456  0.1423  0.3675 -1.2828
   48CHL1  H22B 4716   4.760   4.711   4.514  0.1669 -0.4660 -0.5069
   48CHL1   C23 4717   4.869   4.543   4.494  0.0766  0.9723 -0.0378
   48CHL1  H23A 4718   4.950   4.586   4.557  1.6697 -0.7050 -0.8405
   48CHL1  H23B 4719   4.871   4.433   4.512 -0.1416  0.5445 -2.3436
   48CHL1   C24 4720   4.902   4.535   4.337  0.4301  0.3228 -0.5746
   48CHL1  H24A 4721   4.824   4.476   4.284 -0.6477  1.2511 -0.0595
   48CHL1  H24B 4722   4.882   4.630   4.282 -0.8812  0.3897 -0.0214
   48CHL1   C25 4723   5.038   4.473   4.296  0.3221 -0.2419 -0.0489
   48CHL1   H25 4724   5.021   4.366   4.324 -1.1959  0.1193  0.4611
   48CHL1   C26 4725   5.060   4.490   4.138  0.7244  1.0261  0.1116
   48CHL1  H26A 4726   4.967   4.457   4.087  0.2487  0.5294  1.2657
   48CHL1  H26B 4727   5.053   4.599   4.116 -3.0671  1.2214  1.6119
   48CHL1  H26C 4728   5.155   4.446   4.101  0.3858 -0.4234  0.9007
   48CHL1   C27 4729   5.160   4.531   4.367 -0.0942  0.2458 -0.5622
   48CHL1  H27A 4730   5.240   4.457   4.344 -0.3837  0.1303 -1.2242
   48CHL1  H27B 4731   5.199   4.634   4.354  0.4693  0.1152  0.0400
   48CHL1  H27C 4732   5.153   4.524   4.478  1.7271  0.6439 -0.3853
   49CHL1    C3 4733   1.126   4.755   2.630 -0.5679 -0.4447  0.8390
   49CHL1    H3 4734   1.065   4.847   2.622 -0.3915 -0.4485 -0.9923
   49CHL1    O3 4735   1.118   4.698   2.500  0.2002 -0.2440 -0.2979
   49CHL1   H3' 4736   1.199   4.723   2.456 -0.2262  0.5197 -0.6837
   49CHL1    C4 4737   1.271   4.787   2.664  0.8216  0.1972  0.4763
   49CHL1   H4A 4738   1.331   4.696   2.644  0.2149 -0.2524  0.6827
   49CHL1   H4B 4739   1.319   4.860   2.595 -0.0461  0.4410  0.1087
   49CHL1    C5 4740   1.294   4.830   2.804 -0.3578  0.6546 -0.5670
   49CHL1    C6 4741   1.352   4.948   2.839  0.1444  0.1020  0.0250
   49CHL1    H6 4742   1.382   5.018   2.759  0.8347 -2.8777 -2.5391
   49CHL1    C7 4743   1.395   4.989   2.982  0.9070  0.6970 -0.4417
   49CHL1   H7A 4744   1.502   5.016   2.972  1.8514 -2.5059 -0.2877
   49CHL1   H7B 4745   1.331   5.074   3.014  2.3291  0.5472  3.2139
   49CHL1    C8 4746   1.382   4.871   3.083  0.1304  0.1113 -0.7584
   49CHL1    H8 4747   1.473   4.812   3.062  0.3338 -0.6664  1.9570
   49CHL1   C14 4748   1.377   4.933   3.228  0.2420  0.0508 -0.5853
   49CHL1   H14 4749   1.281   4.990   3.232  0.1201 -0.2017  0.2322
   49CHL1   C15 4750   1.476   5.037   3.284 -0.5309  0.5028  0.5926
   49CHL1  H15A 4751   1.580   5.007   3.260 -1.2177 -2.1546  0.5917
   49CHL1  H15B 4752   1.456   5.137   3.239 -1.2576 -0.8398 -2.3841
   49CHL1   C16 4753   1.473   5.021   3.438  0.6831  0.4757  0.0330
   49CHL1  H16A 4754   1.581   5.013   3.466  0.6118 -0.1076  0.1486
   49CHL1  H16B 4755   1.424   5.109   3.484  0.0504 -0.2970  0.8872
   49CHL1   C17 4756   1.383   4.907   3.469  0.0609  0.8516  0.3905
   49CHL1   H17 4757   1.275   4.933   3.480 -0.0253  0.4884  0.4508
   49CHL1   C13 4758   1.371   4.827   3.338  0.0650  0.2404  0.3262
   49CHL1   C18 4759   1.496   4.730   3.327 -0.0511 -0.2448  0.2557
   49CHL1  H18A 4760   1.504   4.705   3.219 -0.2816 -1.9096  0.6010
   49CHL1  H18B 4761   1.592   4.770   3.364 -0.1564 -1.6721  2.2240
   49CHL1  H18C 4762   1.483   4.638   3.387 -0.4977 -0.1942  0.2455
   49CHL1   C12 4763   1.245   4.733   3.309  0.4899  0.5919 -0.0971
   49CHL1  H12A 4764   1.231   4.648   3.379 -0.9164  1.4408  0.7025
   49CHL1  H12B 4765   1.154   4.797   3.316  1.4522  2.0998 -0.6603
   49CHL1   C11 4766   1.233   4.681   3.165  0.0406 -0.0915 -0.0754
   49CHL1  H11A 4767   1.295   4.589   3.160  0.1571  0.0478 -1.9175
   49CHL1  H11B 4768   1.126   4.656   3.150  0.0198  0.3746 -0.7466
   49CHL1    C9 4769   1.262   4.783   3.054 -0.1555 -0.6223  0.7162
   49CHL1    H9 4770   1.185   4.862   3.047  2.4794  2.1892  1.2323
   49CHL1   C10 4771   1.256   4.727   2.905  0.4965 -0.4538 -0.1887
   49CHL1   C19 4772   1.346   4.594   2.894  0.7072  0.1110  0.5026
   49CHL1  H19A 4773   1.288   4.521   2.954  0.8502 -0.7277 -0.3576
   49CHL1  H19B 4774   1.363   4.547   2.795  1.6560 -1.6761  1.4657
   49CHL1  H19C 4775   1.445   4.622   2.936  2.2055 -0.1731 -2.5922
   49CHL1    C1 4776   1.104   4.702   2.865 -0.5044 -0.1114  0.3148
   49CHL1   H1A 4777   1.084   4.620   2.937  2.0987  0.3579  1.7108
   49CHL1   H1B 4778   1.033   4.784   2.886  1.0402  0.9855  1.4309
   49CHL1    C2 4779   1.074   4.652   2.724  0.4047 -0.3300 -0.0606
   49CHL1   H2A 4780   0.966   4.630   2.715 -0.5569  2.5574  2.5865
   49CHL1   H2B 4781   1.132   4.559   2.708  1.4830  0.2153  0.5293
   49CHL1   C20 4782   1.425   4.831   3.602  0.3122  0.3294  0.9125
   49CHL1   H20 4783   1.527   4.790   3.590  0.1663 -0.2169  1.5412
   49CHL1   C21 4784   1.329   4.712   3.631  0.4588 -0.1193 -0.0774
   49CHL1  H21A 4785   1.331   4.681   3.737 -3.3127  1.0681  0.4745
   49CHL1  H21B 4786   1.373   4.629   3.570  0.5881  0.7672 -1.2367
   49CHL1  H21C 4787   1.219   4.720   3.618  0.0712 -3.9236 -0.3400
   49CHL1   C22 4788   1.422   4.928   3.724 -0.3703  0.7869  0.7604
   49CHL1  H22A 4789   1.490   5.013   3.705 -1.1557  0.9109 -1.8599
   49CHL1  H22B 4790   1.327   4.979   3.751 -1.1811 -0.3629  0.1538
   49CHL1   C23 4791   1.475   4.861   3.854  0.1923  0.2557  0.1169
   49CHL1  H23A 4792   1.399   4.784   3.880 -2.3109  2.6848  0.4188
   49CHL1  H23B 4793   1.571   4.810   3.833 -0.1574 -1.7230  2.7318
   49CHL1   C24 4794   1.513   4.959   3.968  1.0137  0.3122  0.4690
   49CHL1  H24A 4795   1.605   5.006   3.927  1.4203  0.5801  1.6619
   49CHL1  H24B 4796   1.444   5.038   4.004 -1.2892 -1.0029 -0.7833
   49CHL1   C25 4797   1.564   4.872   4.085  0.0724 -0.4656 -0.4839
   49CHL1   H25 4798   1.627   4.788   4.049  0.4542 -1.2534  1.8065
   49CHL1   C26 4799   1.646   4.961   4.176  0.3926 -0.1138 -0.9080
   49CHL1  H26A 4800   1.588   5.050   4.209  1.3120 -0.2331  1.1847
   49CHL1  H26B 4801   1.672   4.895   4.261  0.9305 -0.6972 -1.5079
   49CHL1  H26C 4802   1.748   4.985   4.140  0.4288 -0.8082 -1.2829
   49CHL1   C27 4803   1.446   4.810   4.166 -0.5724 -0.0024 -0.6438
   49CHL1  H27A 4804   1.477   4.746   4.251 -2.8135  2.0057  1.8919
   49CHL1  H27B 4805   1.383   4.894   4.204  1.7720  1.8716 -0.6398
   49CHL1  H27C 4806   1.379   4.750   4.100 -1.0706 -0.5166  0.3053
   50CHL1    C3 4807   6.603   2.253   2.872  0.3188 -0.3223 -0.3013
   50CHL1    H3 4808   6.710   2.264   2.901  0.3233 -2.0603  0.4396
   50CHL1    O3 4809   6.574   2.283   2.734  0.1916 -0.3142 -0.1017
   50CHL1   H3' 4810   6.484   2.311   2.714  0.4590 -0.4297 -1.5801
   50CHL1    C4 4811   6.567   2.108   2.904  0.1378 -0.1602 -0.2510
   50CHL1   H4A 4812   6.468   2.090   2.856  0.2767 -0.4744 -0.4234
   50CHL1   H4B 4813   6.643   2.045   2.853  0.0750  0.9840 -1.8238
   50CHL1    C5 4814   6.556   2.062   3.050 -0.1228 -0.1099  0.3198
   50CHL1    C6 4815   6.613   1.949   3.102 -0.2038 -0.5093  0.2831
   50CHL1    H6 4816   6.660   1.872   3.038 -1.9386 -0.3851 -1.2271
   50CHL1    C7 4817   6.618   1.919   3.245  0.6237 -0.0533  0.3429
   50CHL1   H7A 4818   6.582   1.814   3.256 -0.2746  0.1795 -0.2351
   50CHL1   H7B 4819   6.722   1.932   3.280  0.0235  0.9634  1.8517
   50CHL1    C8 4820   6.517   1.995   3.339 -0.1455  0.1886  0.4629
   50CHL1    H8 4821   6.411   1.963   3.327 -0.3099  1.3718 -1.8185
   50CHL1   C14 4822   6.561   1.981   3.479 -0.0880  0.6525  0.1854
   50CHL1   H14 4823   6.665   2.021   3.472  0.4926 -0.5502  1.4384
   50CHL1   C15 4824   6.599   1.847   3.541  0.0638 -0.3547 -0.0215
   50CHL1  H15A 4825   6.523   1.770   3.519 -0.3127  0.0623 -0.1930
   50CHL1  H15B 4826   6.698   1.812   3.505  1.3236  1.8659  1.0546
   50CHL1   C16 4827   6.606   1.869   3.689 -0.1702 -0.8663  0.0486
   50CHL1  H16A 4828   6.522   1.815   3.737  0.6838 -0.7462  1.7909
   50CHL1  H16B 4829   6.703   1.844   3.738  0.3359  1.3652  0.3230
   50CHL1   C17 4830   6.572   2.022   3.711  0.1904 -0.2347 -0.2554
   50CHL1   H17 4831   6.672   2.070   3.703  0.3020 -0.7874 -3.3892
   50CHL1   C13 4832   6.492   2.065   3.582  0.3009  0.3876 -0.2029
   50CHL1   C18 4833   6.343   2.021   3.594 -0.4346 -0.3609 -0.1181
   50CHL1  H18A 4834   6.284   2.040   3.501 -0.5820 -0.2966 -0.0117
   50CHL1  H18B 4835   6.340   1.913   3.618  0.5365 -0.1710  0.9588
   50CHL1  H18C 4836   6.294   2.077   3.676  0.1272 -2.7386  1.9762
   50CHL1   C12 4837   6.510   2.215   3.544  0.3238  0.1882  0.2353
   50CHL1  H12A 4838   6.464   2.282   3.620 -0.9678  0.9173 -1.1366
   50CHL1  H12B 4839   6.617   2.245   3.545  0.2121  0.7636 -1.4836
   50CHL1   C11 4840   6.461   2.248   3.399 -0.6130  0.0659  0.3819
   50CHL1  H11A 4841   6.351   2.236   3.396 -0.5193 -0.8478  0.4162
   50CHL1  H11B 4842   6.477   2.355   3.372  1.2101 -0.8722 -2.8954
   50CHL1    C9 4843   6.530   2.148   3.297 -0.4222 -0.1510 -0.1815
   50CHL1    H9 4844   6.640   2.162   3.311 -0.1530 -2.0878 -0.0938
   50CHL1   C10 4845   6.498   2.164   3.144 -0.0469 -0.3358 -0.7865
   50CHL1   C19 4846   6.347   2.154   3.130  0.3004 -0.4433  0.0023
   50CHL1  H19A 4847   6.315   2.052   3.159  0.6757 -0.4983  0.2408
   50CHL1  H19B 4848   6.298   2.232   3.192 -1.0614 -1.0853 -0.2367
   50CHL1  H19C 4849   6.321   2.183   3.026  0.2274  2.6257  0.7770
   50CHL1    C1 4850   6.547   2.308   3.102  0.5634 -0.5463  0.4817
   50CHL1   H1A 4851   6.492   2.380   3.166  0.9989 -0.1228  0.3849
   50CHL1   H1B 4852   6.656   2.309   3.122  0.8159 -4.0674 -0.1940
   50CHL1    C2 4853   6.520   2.351   2.956 -0.0660 -0.1688 -0.4507
   50CHL1   H2A 4854   6.569   2.449   2.937 -1.3993  0.7172  0.4763
   50CHL1   H2B 4855   6.411   2.354   2.933  0.4808  0.4990 -3.2939
   50CHL1   C20 4856   6.512   2.051   3.852  0.1504  0.1022 -0.5067
   50CHL1   H20 4857   6.417   1.994   3.860  0.5961 -0.4122  2.1792
   50CHL1   C21 4858   6.454   2.192   3.873 -0.8056  0.4221 -0.3524
   50CHL1  H21A 4859   6.538   2.263   3.854  0.1976 -0.9905 -1.4026
   50CHL1  H21B 4860   6.433   2.207   3.981 -1.5979 -1.5070 -0.2105
   50CHL1  H21C 4861   6.369   2.220   3.808 -1.3855 -0.3600  0.0521
   50CHL1   C22 4862   6.608   2.010   3.965  0.0484  0.2645 -0.4169
   50CHL1  H22A 4863   6.707   2.013   3.915  0.6631  0.0313  0.7459
   50CHL1  H22B 4864   6.606   2.100   4.030 -0.4359 -0.2210  0.2568
   50CHL1   C23 4865   6.576   1.875   4.039  0.3479  0.0213  0.4074
   50CHL1  H23A 4866   6.479   1.880   4.092 -0.1197 -0.0694 -0.4162
   50CHL1  H23B 4867   6.576   1.780   3.982 -1.1631  0.6411 -0.6867
   50CHL1   C24 4868   6.684   1.862   4.148 -0.1697  0.1793 -0.1103
   50CHL1  H24A 4869   6.782   1.850   4.098 -0.2428  1.6141 -0.6451
   50CHL1  H24B 4870   6.687   1.966   4.188 -0.4980  0.2528 -0.2715
   50CHL1   C25 4871   6.664   1.758   4.254  0.4012  0.6506 -0.4448
   50CHL1   H25 4872   6.631   1.667   4.199 -0.4601  0.0443  1.0307
   50CHL1   C26 4873   6.798   1.714   4.320  0.4251  0.0644 -0.2104
   50CHL1  H26A 4874   6.825   1.786   4.400  0.9345  0.8329 -1.0604
   50CHL1  H26B 4875   6.772   1.614   4.362 -0.5596 -0.9165 -2.9211
   50CHL1  H26C 4876   6.882   1.695   4.250 -0.1848 -2.6346 -0.3202
   50CHL1   C27 4877   6.571   1.786   4.368  0.1344  0.1151 -0.0207
   50CHL1  H27A 4878   6.490   1.848   4.324 -1.1432 -0.5583  1.3129
   50CHL1  H27B 4879   6.533   1.692   4.413 -0.0648 -0.3494 -1.1276
   50CHL1  H27C 4880   6.626   1.846   4.443 -1.4229  0.2107  1.0827
   51CHL1    C3 4881   5.476   4.862   2.197 -0.5109 -1.2083  0.2167
   51CHL1    H3 4882   5.566   4.902   2.147 -1.3309  2.3768  1.3093
   51CHL1    O3 4883   5.374   4.854   2.102  0.0750 -0.5258  0.4333
   51CHL1   H3' 4884   5.306   4.799   2.142 -1.3659  1.5411  1.0229
   51CHL1    C4 4885   5.488   4.727   2.274 -0.3729 -0.8349  0.5053
   51CHL1   H4A 4886   5.387   4.705   2.314  0.2534 -1.8048  1.6211
   51CHL1   H4B 4887   5.506   4.645   2.202 -1.7400  0.1895 -1.0810
   51CHL1    C5 4888   5.579   4.745   2.400 -0.4934 -0.4375 -0.5442
   51CHL1    C6 4889   5.696   4.680   2.404 -0.3324  0.5532  0.6315
   51CHL1    H6 4890   5.727   4.607   2.328  0.8052  0.9747  0.6639
   51CHL1    C7 4891   5.784   4.696   2.522  0.4107 -0.6849  0.2716
   51CHL1   H7A 4892   5.839   4.602   2.541  2.8013  0.3227 -1.1798
   51CHL1   H7B 4893   5.871   4.762   2.503 -2.5384  3.1116 -1.4622
   51CHL1    C8 4894   5.715   4.745   2.652  0.1738 -0.3870  0.6228
   51CHL1    H8 4895   5.656   4.657   2.686  2.5143 -2.8962 -1.3254
   51CHL1   C14 4896   5.817   4.793   2.754 -0.3416 -0.4195 -0.4848
   51CHL1   H14 4897   5.862   4.883   2.708 -0.3102 -0.0633  0.2401
   51CHL1   C15 4898   5.926   4.703   2.792 -0.2514 -0.4475  0.1009
   51CHL1  H15A 4899   5.886   4.599   2.782  0.3461 -0.6089 -0.7700
   51CHL1  H15B 4900   6.028   4.705   2.749  0.0416 -2.9821  0.5223
   51CHL1   C16 4901   5.957   4.729   2.942 -0.6106  0.2794  0.1063
   51CHL1  H16A 4902   5.925   4.635   2.992 -1.0211  0.9467  1.1314
   51CHL1  H16B 4903   6.067   4.732   2.960  0.0484 -1.8424 -2.9026
   51CHL1   C17 4904   5.861   4.842   2.986 -0.3684 -0.5420  0.5214
   51CHL1   H17 4905   5.915   4.937   2.966  0.8096 -0.9363  1.6719
   51CHL1   C13 4906   5.748   4.834   2.890  0.8663 -0.1559  0.6214
   51CHL1   C18 4907   5.654   4.718   2.938  0.0490 -0.7686  0.2074
   51CHL1  H18A 4908   5.599   4.731   3.034 -1.8597  1.0540 -1.0324
   51CHL1  H18B 4909   5.570   4.704   2.866  1.6255  1.4292 -2.2306
   51CHL1  H18C 4910   5.703   4.619   2.948 -0.0926 -0.6801  2.2240
   51CHL1   C12 4911   5.667   4.968   2.865  0.0283 -0.6314  0.4634
   51CHL1  H12A 4912   5.611   4.998   2.956  0.7693  0.9523  0.4421
   51CHL1  H12B 4913   5.732   5.050   2.827 -0.8401 -0.1724 -0.0607
   51CHL1   C11 4914   5.568   4.940   2.747  0.0036  0.2128  0.4529
   51CHL1  H11A 4915   5.482   4.878   2.781 -0.9000  0.8725 -0.5889
   51CHL1  H11B 4916   5.522   5.036   2.715 -1.1427 -0.3693  0.3276
   51CHL1    C9 4917   5.625   4.868   2.626  0.1662  0.0270 -0.3805
   51CHL1    H9 4918   5.702   4.941   2.593  0.5908  0.5781  1.6927
   51CHL1   C10 4919   5.535   4.851   2.502  0.4197  0.3109  0.4197
   51CHL1   C19 4920   5.394   4.825   2.559  0.1093  0.4408  0.0358
   51CHL1  H19A 4921   5.390   4.736   2.626  1.3077 -0.5711 -1.1691
   51CHL1  H19B 4922   5.350   4.913   2.610 -3.3422 -1.0177 -0.1178
   51CHL1  H19C 4923   5.326   4.804   2.474 -0.0943 -0.0579  0.3158
   51CHL1    C1 4924   5.529   4.987   2.419  0.4685 -0.2616  0.1120
   51CHL1   H1A 4925   5.491   5.069   2.484  2.1019  2.1224 -1.7895
   51CHL1   H1B 4926   5.633   5.011   2.388  0.9158  0.7534  2.2033
   51CHL1    C2 4927   5.440   4.979   2.291  0.6816 -0.4716  0.8318
   51CHL1   H2A 4928   5.445   5.077   2.238  0.4513 -0.6530  0.4637
   51CHL1   H2B 4929   5.334   4.970   2.326 -0.2016  1.0797 -1.2020
   51CHL1   C20 4930   5.844   4.845   3.134  0.3408  0.0121 -0.4906
   51CHL1   H20 4931   5.791   4.753   3.166 -1.7230  1.0479 -0.7505
   51CHL1   C21 4932   5.754   4.956   3.195  0.4636  0.1431  0.5784
   51CHL1  H21A 4933   5.764   4.950   3.305 -1.3901 -0.8101  0.7322
   51CHL1  H21B 4934   5.652   4.925   3.162  1.4158 -1.9442 -0.6695
   51CHL1  H21C 4935   5.778   5.055   3.151 -0.6057  0.2803  0.2750
   51CHL1   C22 4936   5.971   4.856   3.219 -0.6998 -0.3044 -0.2172
   51CHL1  H22A 4937   6.046   4.796   3.162 -1.7501 -0.5827 -1.3445
   51CHL1  H22B 4938   6.008   4.960   3.234 -0.5957 -0.5145  1.1215
   51CHL1   C23 4939   5.980   4.770   3.350  0.1079 -0.6300  0.5292
   51CHL1  H23A 4940   5.906   4.810   3.422  0.4094  2.7564 -0.8496
   51CHL1  H23B 4941   5.962   4.663   3.327  2.7531 -1.0765  0.2111
   51CHL1   C24 4942   6.127   4.766   3.390  0.1253  0.5300  0.6592
   51CHL1  H24A 4943   6.188   4.734   3.302  0.0336 -0.1426  0.8333
   51CHL1  H24B 4944   6.173   4.865   3.406 -0.7575  1.3377 -1.3902
   51CHL1   C25 4945   6.171   4.672   3.504  0.2030 -0.1936  0.6930
   51CHL1   H25 4946   6.275   4.707   3.519 -0.1625  0.8629  0.8878
   51CHL1   C26 4947   6.074   4.677   3.624  0.2960  0.0208 -0.4413
   51CHL1  H26A 4948   6.119   4.613   3.703 -0.0082 -0.5323 -0.7052
   51CHL1  H26B 4949   6.061   4.777   3.670  2.5577 -0.4669  1.4283
   51CHL1  H26C 4950   5.978   4.634   3.589  0.7459 -3.7206  2.2270
   51CHL1   C27 4951   6.192   4.522   3.454 -0.2138 -0.0008 -0.8240
   51CHL1  H27A 4952   6.224   4.457   3.538  1.5628 -1.8135 -2.7798
   51CHL1  H27B 4953   6.092   4.477   3.432 -1.2624  1.5123  0.6595
   51CHL1  H27C 4954   6.256   4.519   3.363  0.4117 -2.2477 -0.3918
   52CHL1    C3 4955   5.483   5.737   2.578 -0.4167  0.6235  0.4006
   52CHL1    H3 4956   5.483   5.626   2.571  3.2227  0.4513  1.0573
   52CHL1    O3 4957   5.505   5.784   2.441  0.3218  0.0324 -0.2797
   52CHL1   H3' 4958   5.599   5.795   2.430  0.2285  0.7004 -0.4996
   52CHL1    C4 4959   5.352   5.795   2.630 -0.4098 -0.0105  0.2290
   52CHL1   H4A 4960   5.349   5.905   2.614 -3.2398  0.3551  2.5518
   52CHL1   H4B 4961   5.277   5.753   2.560 -0.1853 -0.9744  0.5580
   52CHL1    C5 4962   5.336   5.761   2.772  0.3747 -0.8688 -0.7015
   52CHL1    C6 4963   5.232   5.692   2.815  1.1791 -0.5493  0.2502
   52CHL1    H6 4964   5.147   5.681   2.746 -0.3840  3.7597  1.2030
   52CHL1    C7 4965   5.214   5.651   2.961  0.1918  0.6680  0.2188
   52CHL1   H7A 4966   5.107   5.649   2.990  0.4788 -1.6714  1.3756
   52CHL1   H7B 4967   5.250   5.547   2.975 -0.6957  0.2730 -0.3530
   52CHL1    C8 4968   5.301   5.737   3.050 -0.0475  0.6292 -0.6199
   52CHL1    H8 4969   5.256   5.839   3.049  0.0177  0.6546 -1.2208
   52CHL1   C14 4970   5.297   5.668   3.187 -0.1509 -0.8433 -0.2572
   52CHL1   H14 4971   5.341   5.566   3.183  0.2220 -0.7750  1.3685
   52CHL1   C15 4972   5.155   5.651   3.253  1.5438 -0.2633  0.0862
   52CHL1  H15A 4973   5.087   5.738   3.241 -1.7122 -2.5904  0.3153
   52CHL1  H15B 4974   5.115   5.559   3.206  3.6391 -0.7800 -0.7730
   52CHL1   C16 4975   5.184   5.632   3.400 -0.2532 -0.1052 -0.0852
   52CHL1  H16A 4976   5.119   5.690   3.468 -0.8209 -0.6985 -0.1126
   52CHL1  H16B 4977   5.165   5.532   3.444  0.9781  0.4968  1.9647
   52CHL1   C17 4978   5.336   5.676   3.424 -0.0462  0.5209 -0.1403
   52CHL1   H17 4979   5.395   5.582   3.427  0.4966  0.7903 -1.6936
   52CHL1   C13 4980   5.374   5.747   3.292  0.0062  0.1579 -0.4698
   52CHL1   C18 4981   5.313   5.901   3.309  0.7410  0.0317  1.5439
   52CHL1  H18A 4982   5.301   5.952   3.211  0.3610  0.1066  1.6290
   52CHL1  H18B 4983   5.209   5.886   3.345  0.4411  2.0725  1.6601
   52CHL1  H18C 4984   5.373   5.961   3.381  1.6904  0.1084  0.7186
   52CHL1   C12 4985   5.521   5.741   3.253  0.5966  0.6158  0.4306
   52CHL1  H12A 4986   5.577   5.799   3.330  0.9569 -0.0225  0.6520
   52CHL1  H12B 4987   5.572   5.643   3.255  0.2629  0.3022 -2.3717
   52CHL1   C11 4988   5.546   5.795   3.109  0.7988 -0.9112 -0.7052
   52CHL1  H11A 4989   5.541   5.906   3.118 -1.2265 -0.9736 -0.5708
   52CHL1  H11B 4990   5.645   5.775   3.062  1.0916 -0.5908 -0.2375
   52CHL1    C9 4991   5.446   5.737   3.006 -0.3487  0.8610  0.3254
   52CHL1    H9 4992   5.468   5.628   3.001  0.5669  1.0260  0.6126
   52CHL1   C10 4993   5.462   5.801   2.864  0.3039  0.2700  0.1046
   52CHL1   C19 4994   5.461   5.954   2.886 -0.5285 -0.3229 -0.4344
   52CHL1  H19A 4995   5.564   5.996   2.893 -0.7340 -0.1067  3.1449
   52CHL1  H19B 4996   5.424   5.999   2.791  4.2151 -1.1508 -3.0015
   52CHL1  H19C 4997   5.403   5.974   2.978  1.0428 -0.8433  0.7062
   52CHL1    C1 4998   5.591   5.752   2.797 -0.3102 -0.0621  0.8372
   52CHL1   H1A 4999   5.671   5.804   2.854  1.5491 -1.4331 -0.3923
   52CHL1   H1B 5000   5.602   5.642   2.808  1.0809 -0.0251  0.1226
   52CHL1    C2 5001   5.599   5.788   2.652 -0.1340  0.6021  0.8913
   52CHL1   H2A 5002   5.692   5.749   2.605 -2.8279 -2.7733 -2.1070
   52CHL1   H2B 5003   5.606   5.898   2.634  1.8148  0.4250  0.3616
   52CHL1   C20 5004   5.355   5.749   3.559  0.3024 -0.2026  0.2924
   52CHL1   H20 5005   5.307   5.850   3.550  2.5497  0.8261 -0.9123
   52CHL1   C21 5006   5.508   5.766   3.591 -0.3317 -0.1623 -0.4525
   52CHL1  H21A 5007   5.558   5.667   3.593  1.9777  0.8893  2.6236
   52CHL1  H21B 5008   5.511   5.807   3.694 -1.1904 -1.2794  0.0350
   52CHL1  H21C 5009   5.574   5.832   3.531  1.9505 -2.3712 -0.5011
   52CHL1   C22 5010   5.290   5.675   3.678  0.2087  0.1047 -0.0101
   52CHL1  H22A 5011   5.288   5.744   3.766 -1.8792 -0.3411  0.3596
   52CHL1  H22B 5012   5.182   5.651   3.664 -0.8623  1.1285  4.7163
   52CHL1   C23 5013   5.335   5.542   3.717 -0.3876  0.2851 -0.3083
   52CHL1  H23A 5014   5.317   5.470   3.635 -0.5877  1.4533 -1.3144
   52CHL1  H23B 5015   5.444   5.540   3.738 -0.1579 -0.8224 -1.5222
   52CHL1   C24 5016   5.261   5.490   3.849 -0.1396 -1.5083  0.2004
   52CHL1  H24A 5017   5.155   5.467   3.827  0.6105 -2.0925 -3.3038
   52CHL1  H24B 5018   5.320   5.403   3.884  1.5476 -2.2357 -3.8782
   52CHL1   C25 5019   5.251   5.596   3.970 -0.3837 -0.6170  0.0379
   52CHL1   H25 5020   5.192   5.683   3.934  0.4507 -1.0938 -2.7229
   52CHL1   C26 5021   5.171   5.528   4.077 -0.7516  0.2383 -1.1290
   52CHL1  H26A 5022   5.225   5.440   4.117 -4.0460 -1.6454 -0.3947
   52CHL1  H26B 5023   5.154   5.577   4.176 -0.6912 -1.6010 -0.1569
   52CHL1  H26C 5024   5.070   5.495   4.044  0.6035 -3.0300 -2.3568
   52CHL1   C27 5025   5.383   5.645   4.022 -0.1673 -0.1363 -0.2281
   52CHL1  H27A 5026   5.434   5.558   4.070 -1.4590 -1.7574 -1.6496
   52CHL1  H27B 5027   5.450   5.694   3.948  0.6038  0.9037  1.1156
   52CHL1  H27C 5028   5.362   5.720   4.101 -2.9449 -0.1450 -0.8775
   53CHL1    C3 5029   5.161   4.445   2.427  0.2745  0.4997 -0.4421
   53CHL1    H3 5030   5.151   4.548   2.470 -1.8914  0.4418 -0.6589
   53CHL1    O3 5031   5.174   4.439   2.287  0.0212  1.1982 -0.2996
   53CHL1   H3' 5032   5.200   4.346   2.281 -2.6619  0.3947 -0.5813
   53CHL1    C4 5033   5.283   4.371   2.493 -0.4832 -0.5915 -0.2645
   53CHL1   H4A 5034   5.296   4.265   2.462 -1.7994 -0.6976 -0.5026
   53CHL1   H4B 5035   5.367   4.436   2.461 -1.7213  1.2169  0.0209
   53CHL1    C5 5036   5.266   4.365   2.645  0.7754 -1.1397 -0.6517
   53CHL1    C6 5037   5.357   4.419   2.729 -0.5318 -0.3451 -0.4270
   53CHL1    H6 5038   5.448   4.458   2.681  1.1889 -2.4874  0.9054
   53CHL1    C7 5039   5.346   4.410   2.879  0.1515 -0.0954 -0.5655
   53CHL1   H7A 5040   5.440   4.367   2.919 -0.0071  0.5614  0.5642
   53CHL1   H7B 5041   5.350   4.510   2.928  0.4905 -0.4782  0.2160
   53CHL1    C8 5042   5.223   4.327   2.927 -0.4619 -0.4261  0.0564
   53CHL1    H8 5043   5.250   4.220   2.921 -2.9384 -1.0251 -2.8443
   53CHL1   C14 5044   5.197   4.362   3.073 -0.4460  0.0567 -0.2387
   53CHL1   H14 5045   5.176   4.471   3.076  0.5943  0.2615  1.1435
   53CHL1   C15 5046   5.317   4.337   3.171  0.1265 -0.4979 -0.0911
   53CHL1  H15A 5047   5.359   4.234   3.162 -2.2125 -1.3390 -3.6386
   53CHL1  H15B 5048   5.401   4.401   3.137  2.3272 -2.8707  0.5122
   53CHL1   C16 5049   5.250   4.351   3.308 -0.4091 -0.6018 -0.8769
   53CHL1  H16A 5050   5.292   4.282   3.384 -1.2829 -0.5871 -0.3676
   53CHL1  H16B 5051   5.277   4.446   3.358  1.1942 -1.4010 -0.1383
   53CHL1   C17 5052   5.095   4.345   3.285 -0.3795 -0.1994  0.5220
   53CHL1   H17 5053   5.053   4.448   3.284 -0.0743 -0.0811  0.0938
   53CHL1   C13 5054   5.085   4.288   3.142  0.5439  0.3561  0.1770
   53CHL1   C18 5055   5.103   4.134   3.147 -0.1778  0.0749  0.1876
   53CHL1  H18A 5056   5.120   4.091   3.046 -0.6198 -0.2098  0.2332
   53CHL1  H18B 5057   5.182   4.100   3.218 -0.1033 -2.1465 -0.8896
   53CHL1  H18C 5058   5.006   4.095   3.183  0.5447 -0.9520  1.0765
   53CHL1   C12 5059   4.953   4.319   3.056 -0.3720  0.0862  0.3879
   53CHL1  H12A 5060   4.863   4.267   3.094 -0.7229 -1.5277 -2.4434
   53CHL1  H12B 5061   4.927   4.427   3.064  0.0156  0.2314 -0.2151
   53CHL1   C11 5062   4.971   4.281   2.910 -0.4698 -0.3194  0.4989
   53CHL1  H11A 5063   4.988   4.172   2.898  3.0358  0.1579  0.0052
   53CHL1  H11B 5064   4.879   4.316   2.858 -0.1252  0.6493  0.5248
   53CHL1    C9 5065   5.097   4.346   2.846  0.1508 -0.2013  0.7249
   53CHL1    H9 5066   5.068   4.454   2.854 -1.8503 -0.6205 -0.2643
   53CHL1   C10 5067   5.122   4.313   2.698 -0.4304  0.3165  0.1378
   53CHL1   C19 5068   5.126   4.158   2.683 -0.1247  0.1529 -0.1454
   53CHL1  H19A 5069   5.029   4.106   2.697 -0.4439 -0.2892 -3.2970
   53CHL1  H19B 5070   5.148   4.121   2.581 -0.2051 -0.2223 -0.0313
   53CHL1  H19C 5071   5.202   4.114   2.752  0.4107  0.5879 -0.4471
   53CHL1    C1 5072   5.009   4.381   2.618 -0.2305  1.0639 -0.3735
   53CHL1   H1A 5073   4.913   4.325   2.628  0.5359 -0.8189 -2.6221
   53CHL1   H1B 5074   4.998   4.486   2.653  0.7793  1.2758 -0.6617
   53CHL1    C2 5075   5.030   4.374   2.465  0.1706 -0.0440 -0.5096
   53CHL1   H2A 5076   4.943   4.429   2.422  0.9129 -0.0969 -2.1510
   53CHL1   H2B 5077   5.032   4.269   2.428 -1.2133 -0.9141  1.6851
   53CHL1   C20 5078   5.032   4.272   3.405  0.2456 -0.4810  0.7201
   53CHL1   H20 5079   5.065   4.166   3.405 -0.3372 -0.6681  1.3449
   53CHL1   C21 5080   4.880   4.273   3.372  0.2978  0.4743  0.2875
   53CHL1  H21A 5081   4.846   4.369   3.328  1.5560  0.4150 -0.8975
   53CHL1  H21B 5082   4.824   4.250   3.465 -1.5415  0.0520 -0.8777
   53CHL1  H21C 5083   4.863   4.189   3.302 -2.8061  0.5274  0.8448
   53CHL1   C22 5084   5.068   4.339   3.543  0.4226  0.7083 -0.7853
   53CHL1  H22A 5085   5.023   4.277   3.623  0.1302  1.0203 -0.7098
   53CHL1  H22B 5086   5.177   4.356   3.556  1.0111 -2.5158 -0.6341
   53CHL1   C23 5087   4.986   4.472   3.572 -0.5070 -0.1730  0.1624
   53CHL1  H23A 5088   5.012   4.541   3.489  0.2308  2.3319  2.3466
   53CHL1  H23B 5089   4.876   4.459   3.568 -0.7890  2.0631 -0.8183
   53CHL1   C24 5090   5.027   4.531   3.708 -0.0960 -0.2144  0.3834
   53CHL1  H24A 5091   4.992   4.461   3.787  1.8162 -0.3697  1.1525
   53CHL1  H24B 5092   5.137   4.545   3.715 -0.0497 -0.8532  1.0968
   53CHL1   C25 5093   4.967   4.669   3.737 -0.0528  0.0385  0.3315
   53CHL1   H25 5094   5.011   4.693   3.837  0.1885 -0.0469  0.2463
   53CHL1   C26 5095   5.002   4.776   3.632  0.2462 -0.3036  0.4460
   53CHL1  H26A 5096   4.971   4.876   3.670 -1.2714  0.7028 -3.0762
   53CHL1  H26B 5097   5.112   4.780   3.615  0.1942  0.3108  0.2138
   53CHL1  H26C 5098   4.951   4.766   3.534  0.7709  1.1767 -0.0039
   53CHL1   C27 5099   4.821   4.662   3.751  0.0928 -0.3587  0.6393
   53CHL1  H27A 5100   4.767   4.633   3.658  3.0520 -2.5256 -0.5472
   53CHL1  H27B 5101   4.798   4.588   3.831  2.5901 -0.9340  0.8960
   53CHL1  H27C 5102   4.778   4.761   3.777 -0.9186 -0.6134  0.0099
   54CHL1    C3 5103   4.105   4.066   2.490  0.0235  0.5354 -0.4538
   54CHL1    H3 5104   4.161   3.971   2.482  1.9677  1.5490  0.3554
   54CHL1    O3 5105   4.106   4.136   2.367 -0.5530 -0.2075  0.0783
   54CHL1   H3' 5106   4.071   4.062   2.316  1.1345  0.3745 -2.0753
   54CHL1    C4 5107   3.956   4.037   2.534  0.3025 -0.1585 -0.8056
   54CHL1   H4A 5108   3.920   4.142   2.526  0.2072 -0.1193  0.0302
   54CHL1   H4B 5109   3.915   3.964   2.461 -0.7066  0.6642 -1.0914
   54CHL1    C5 5110   3.941   3.991   2.680  0.1837  0.1873  0.1021
   54CHL1    C6 5111   3.882   3.877   2.714  0.1722  0.5973 -0.4144
   54CHL1    H6 5112   3.842   3.813   2.634 -1.0975 -0.6437  1.1490
   54CHL1    C7 5113   3.878   3.820   2.853  0.3486 -0.2716 -0.0981
   54CHL1   H7A 5114   3.785   3.761   2.869  0.5947  0.1934  4.0974
   54CHL1   H7B 5115   3.964   3.749   2.845  0.3172 -0.1461 -2.1995
   54CHL1    C8 5116   3.889   3.939   2.964 -0.1997  0.0974 -0.5502
   54CHL1    H8 5117   3.796   3.999   2.956  0.7674  1.4215 -2.6899
   54CHL1   C14 5118   3.902   3.876   3.102  0.3956 -0.1408  0.1461
   54CHL1   H14 5119   3.983   3.801   3.087 -1.4739 -2.0119 -1.1487
   54CHL1   C15 5120   3.782   3.785   3.158 -0.2781  0.3438 -0.1942
   54CHL1  H15A 5121   3.689   3.837   3.128  0.5652  1.6094 -0.7256
   54CHL1  H15B 5122   3.777   3.684   3.111 -4.6691  1.1566 -1.9954
   54CHL1   C16 5123   3.811   3.782   3.312 -0.4045 -0.0551  0.6917
   54CHL1  H16A 5124   3.730   3.834   3.366 -1.6038 -1.6232  0.4604
   54CHL1  H16B 5125   3.816   3.674   3.338  1.9510  0.1629  1.3841
   54CHL1   C17 5126   3.935   3.867   3.334  0.1726  0.0788 -0.1614
   54CHL1   H17 5127   4.023   3.802   3.312 -0.9187 -0.9075 -1.8767
   54CHL1   C13 5128   3.939   3.970   3.219 -0.1262  0.1391  0.1679
   54CHL1   C18 5129   3.826   4.066   3.236 -0.2521  0.1953  0.5937
   54CHL1  H18A 5130   3.848   4.123   3.329  0.2396 -0.7492  1.0780
   54CHL1  H18B 5131   3.826   4.129   3.145  2.5773 -1.6257 -0.8135
   54CHL1  H18C 5132   3.727   4.018   3.255  0.3088 -2.5226 -2.4651
   54CHL1   C12 5133   4.071   4.038   3.179  0.6684  0.1663 -0.1222
   54CHL1  H12A 5134   4.107   4.108   3.257  1.2986  0.6344 -0.8199
   54CHL1  H12B 5135   4.150   3.966   3.149  0.2743  0.0331 -0.8642
   54CHL1   C11 5136   4.061   4.118   3.052 -0.5421  0.3108  0.4493
   54CHL1  H11A 5137   3.992   4.203   3.072 -1.2547 -0.7191  2.7360
   54CHL1  H11B 5138   4.163   4.159   3.036  0.0975 -1.6279 -0.6571
   54CHL1    C9 5139   4.014   4.020   2.932 -0.1045  0.0008 -0.2288
   54CHL1    H9 5140   4.104   3.955   2.928  0.4367  0.7005  0.2561
   54CHL1   C10 5141   4.007   4.081   2.789 -0.0442 -0.4460  0.4434
   54CHL1   C19 5142   3.936   4.214   2.790 -0.1220 -1.1970 -0.5251
   54CHL1  H19A 5143   3.832   4.187   2.820  0.2909 -1.1425  1.0536
   54CHL1  H19B 5144   3.985   4.287   2.858 -0.9616 -0.4889 -0.6530
   54CHL1  H19C 5145   3.940   4.266   2.692 -2.2275 -0.0783 -0.0912
   54CHL1    C1 5146   4.157   4.098   2.739  0.3722  0.3520 -0.0169
   54CHL1   H1A 5147   4.191   4.183   2.802  0.7795 -1.0121  1.6723
   54CHL1   H1B 5148   4.213   4.003   2.756  0.1113 -0.3232 -2.4983
   54CHL1    C2 5149   4.168   4.157   2.594 -0.0918  0.1719 -0.2724
   54CHL1   H2A 5150   4.271   4.188   2.565 -1.0524  2.4935 -1.4735
   54CHL1   H2B 5151   4.121   4.257   2.586 -1.9477 -0.4192  2.0739
   54CHL1   C20 5152   3.944   3.918   3.479  0.9067  0.2181 -0.2219
   54CHL1   H20 5153   3.857   3.977   3.513  0.3501  1.1010 -2.9437
   54CHL1   C21 5154   4.082   3.993   3.503  0.0106  0.4945  0.5723
   54CHL1  H21A 5155   4.087   4.089   3.446 -2.8297  0.3121 -0.1357
   54CHL1  H21B 5156   4.170   3.929   3.479 -0.3145 -0.0176  0.7237
   54CHL1  H21C 5157   4.089   4.028   3.608 -1.6514  1.1259  0.4971
   54CHL1   C22 5158   3.959   3.787   3.571 -0.0015 -0.0985 -0.1323
   54CHL1  H22A 5159   3.876   3.720   3.540  0.7446 -0.3791 -1.6057
   54CHL1  H22B 5160   4.054   3.735   3.546 -0.6720 -1.1976 -0.4070
   54CHL1   C23 5161   3.957   3.811   3.722  0.0666 -0.3120  0.0427
   54CHL1  H23A 5162   4.000   3.728   3.783  0.5751 -1.4050 -1.7058
   54CHL1  H23B 5163   4.026   3.895   3.744 -0.8231  0.5234 -0.2842
   54CHL1   C24 5164   3.815   3.845   3.778 -0.4822  0.3439  0.6197
   54CHL1  H24A 5165   3.781   3.946   3.745  1.7091  1.2797  0.9932
   54CHL1  H24B 5166   3.748   3.767   3.737  0.3112 -0.4457  0.8038
   54CHL1   C25 5167   3.805   3.856   3.931  0.0792  0.5370  0.2593
   54CHL1   H25 5168   3.882   3.929   3.962  2.7722 -1.2377 -1.7938
   54CHL1   C26 5169   3.663   3.919   3.972  0.0819  0.1302  0.8916
   54CHL1  H26A 5170   3.594   3.835   3.953 -0.9229  1.3402 -1.1524
   54CHL1  H26B 5171   3.660   3.953   4.077  0.3738  1.2355  0.5533
   54CHL1  H26C 5172   3.639   4.007   3.909 -1.4973 -1.1159 -0.3352
   54CHL1   C27 5173   3.837   3.721   4.004 -0.2713  0.6977  0.5981
   54CHL1  H27A 5174   3.937   3.683   3.974 -1.1013  0.3850 -2.0519
   54CHL1  H27B 5175   3.853   3.730   4.113  1.0245 -1.2386  0.6239
   54CHL1  H27C 5176   3.768   3.637   3.981 -1.0574  0.8848  2.1661
   55CHL1    C3 5177   6.163   1.055   2.455  0.1406  0.2432 -0.2035
   55CHL1    H3 5178   6.117   0.954   2.456  1.8584 -0.5839  1.2806
   55CHL1    O3 5179   6.170   1.091   2.319 -0.2222  0.6895  0.1958
   55CHL1   H3' 5180   6.080   1.081   2.286  0.1722  0.4748 -0.8668
   55CHL1    C4 5181   6.090   1.159   2.536  0.6000 -0.5834 -0.5788
   55CHL1   H4A 5182   6.143   1.257   2.526 -0.0021 -0.0538  1.0944
   55CHL1   H4B 5183   5.989   1.181   2.495  0.5152  2.8771  1.0916
   55CHL1    C5 5184   6.085   1.124   2.685  0.4238  0.4269 -0.2559
   55CHL1    C6 5185   5.972   1.114   2.753  0.2565  0.2238  0.3178
   55CHL1    H6 5186   5.874   1.122   2.702  0.3763  1.6945  0.2823
   55CHL1    C7 5187   5.970   1.093   2.902 -0.4176  0.2954  0.0330
   55CHL1   H7A 5188   5.895   1.161   2.947 -3.4441 -1.3229 -2.1291
   55CHL1   H7B 5189   5.926   0.997   2.936  0.7996 -0.0829  0.5831
   55CHL1    C8 5190   6.112   1.113   2.979  0.7709  0.9771  0.3370
   55CHL1    H8 5191   6.143   1.219   2.985 -0.7064  1.4816 -0.4271
   55CHL1   C14 5192   6.114   1.056   3.124  0.6401  0.2164  0.0834
   55CHL1   H14 5193   6.076   0.952   3.115  1.4566  0.0395 -1.9098
   55CHL1   C15 5194   6.027   1.137   3.221 -0.0989  0.0571 -0.4292
   55CHL1  H15A 5195   6.032   1.246   3.200 -0.2472  0.4387  1.3716
   55CHL1  H15B 5196   5.921   1.112   3.198 -1.6025  4.7136  0.2462
   55CHL1   C16 5197   6.081   1.106   3.359 -0.5944  0.5228  0.9409
   55CHL1  H16A 5198   6.106   1.196   3.419  2.2708  0.0312  0.6490
   55CHL1  H16B 5199   6.009   1.043   3.414 -0.6295  0.4191  0.7782
   55CHL1   C17 5200   6.212   1.025   3.332 -0.2333  0.7554 -0.0045
   55CHL1   H17 5201   6.190   0.916   3.319 -0.5298  0.5121  2.1719
   55CHL1   C13 5202   6.253   1.058   3.187  0.3795 -0.0739  0.1143
   55CHL1   C18 5203   6.306   1.202   3.187  0.4622  0.1903  0.0041
   55CHL1  H18A 5204   6.324   1.247   3.087  0.6633  1.1711  0.4642
   55CHL1  H18B 5205   6.249   1.275   3.249  1.0004  1.6297 -1.1269
   55CHL1  H18C 5206   6.402   1.188   3.241  0.1857 -0.3067  0.3784
   55CHL1   C12 5207   6.341   0.958   3.108  0.9609  0.6254  0.4907
   55CHL1  H12A 5208   6.446   0.951   3.144  1.0331 -3.0890 -0.0118
   55CHL1  H12B 5209   6.292   0.859   3.119 -1.5287  1.5668 -1.2584
   55CHL1   C11 5210   6.352   1.009   2.958  0.5318  0.1205 -0.3025
   55CHL1  H11A 5211   6.422   1.095   2.955  3.5852 -2.1220  0.2375
   55CHL1  H11B 5212   6.399   0.926   2.899  0.4108 -0.0578 -0.1491
   55CHL1    C9 5213   6.215   1.037   2.893 -0.1716 -0.7024  0.5468
   55CHL1    H9 5214   6.181   0.933   2.874 -0.5897 -0.1559 -1.9982
   55CHL1   C10 5215   6.221   1.097   2.753  0.1927  0.0712  0.2696
   55CHL1   C19 5216   6.296   1.230   2.772 -0.4621  0.2036 -0.7637
   55CHL1  H19A 5217   6.240   1.304   2.833  0.5493 -0.8956  1.5852
   55CHL1  H19B 5218   6.402   1.224   2.804 -0.4102  2.1673 -0.4080
   55CHL1  H19C 5219   6.300   1.278   2.672 -1.2207 -0.1815 -0.9902
   55CHL1    C1 5220   6.311   1.009   2.663  0.3899  0.0869 -0.2051
   55CHL1   H1A 5221   6.421   1.012   2.679  0.2892 -0.9437  0.8054
   55CHL1   H1B 5222   6.279   0.903   2.675  0.0229  0.0160 -1.5948
   55CHL1    C2 5223   6.303   1.039   2.509  0.1967 -0.2275 -0.9324
   55CHL1   H2A 5224   6.349   0.963   2.442  0.3009 -0.0749 -1.0354
   55CHL1   H2B 5225   6.354   1.136   2.494  0.6938 -0.0977  1.2615
   55CHL1   C20 5226   6.314   1.038   3.439  0.3410  0.1034 -0.3502
   55CHL1   H20 5227   6.356   1.140   3.446  1.1867 -0.2473 -0.2260
   55CHL1   C21 5228   6.440   0.947   3.421  0.6229 -0.4190 -0.5907
   55CHL1  H21A 5229   6.513   0.980   3.344  1.7657 -0.4280  0.4643
   55CHL1  H21B 5230   6.403   0.843   3.404 -1.4803 -0.0304  1.0763
   55CHL1  H21C 5231   6.502   0.951   3.513 -0.0550  0.7812 -0.1712
   55CHL1   C22 5232   6.257   1.003   3.581 -0.3463 -0.6341 -0.4852
   55CHL1  H22A 5233   6.332   1.028   3.660 -1.6985  0.6546  0.4592
   55CHL1  H22B 5234   6.171   1.074   3.590  0.4026  0.1281  1.0674
   55CHL1   C23 5235   6.225   0.857   3.606  0.4086  0.1478 -0.1637
   55CHL1  H23A 5236   6.143   0.821   3.540 -0.0895 -1.3452  1.2051
   55CHL1  H23B 5237   6.312   0.790   3.588 -1.1268 -1.3154 -2.7486
   55CHL1   C24 5238   6.189   0.834   3.753  0.2102 -0.3167 -0.2264
   55CHL1  H24A 5239   6.276   0.866   3.814  0.1716  1.1191 -0.8980
   55CHL1  H24B 5240   6.108   0.899   3.794  1.2130 -0.1798  1.6421
   55CHL1   C25 5241   6.147   0.682   3.803 -0.3065 -0.0918 -0.6906
   55CHL1   H25 5242   6.078   0.647   3.724  0.1929  2.2391 -2.2512
   55CHL1   C26 5243   6.282   0.600   3.801  0.1495  0.4967  0.1884
   55CHL1  H26A 5244   6.262   0.497   3.839  2.6930  0.0303  0.4649
   55CHL1  H26B 5245   6.332   0.596   3.702  1.0051 -1.1347  0.6412
   55CHL1  H26C 5246   6.354   0.651   3.868  2.2172 -1.9502 -0.0209
   55CHL1   C27 5247   6.087   0.672   3.942  0.4599 -0.7284 -1.2811
   55CHL1  H27A 5248   6.153   0.724   4.015 -0.9127 -1.4408  0.5555
   55CHL1  H27B 5249   5.990   0.724   3.956  0.5626 -0.9718  0.5743
   55CHL1  H27C 5250   6.077   0.570   3.984 -0.9242 -0.4248 -0.8127
   56CHL1    C3 5251   1.418   2.812   2.602 -0.3585 -0.0439  0.2589
   56CHL1    H3 5252   1.310   2.793   2.584 -0.7462 -0.2580  2.5010
   56CHL1    O3 5253   1.489   2.792   2.479 -0.1612 -1.0636  0.3673
   56CHL1   H3' 5254   1.583   2.796   2.497 -0.1228 -0.7035  0.0972
   56CHL1    C4 5255   1.442   2.960   2.639 -0.4610  0.2317 -0.6306
   56CHL1   H4A 5256   1.551   2.980   2.644 -0.2225 -0.9097 -0.9779
   56CHL1   H4B 5257   1.395   3.025   2.562 -0.2715  2.8108  1.2838
   56CHL1    C5 5258   1.392   2.992   2.777  0.3974 -0.0360  1.2700
   56CHL1    C6 5259   1.314   3.099   2.803 -0.6318  0.1074  0.7853
   56CHL1    H6 5260   1.282   3.162   2.718 -1.5219  0.1549  1.1434
   56CHL1    C7 5261   1.281   3.146   2.942  0.5587 -0.0421  0.0714
   56CHL1   H7A 5262   1.285   3.256   2.958 -0.1404  0.3154 -1.9307
   56CHL1   H7B 5263   1.179   3.114   2.970  1.7075 -2.1236  2.1916
   56CHL1    C8 5264   1.369   3.076   3.052 -0.2795  0.3957 -0.5228
   56CHL1    H8 5265   1.473   3.114   3.056 -0.3816  0.5714  1.6462
   56CHL1   C14 5266   1.304   3.086   3.190  0.5634  0.1964  0.4687
   56CHL1   H14 5267   1.208   3.032   3.179  1.2776 -0.7227 -1.4993
   56CHL1   C15 5268   1.260   3.226   3.224 -0.3509 -0.4449  0.1892
   56CHL1  H15A 5269   1.355   3.279   3.202 -0.5774 -0.4253 -0.7896
   56CHL1  H15B 5270   1.181   3.275   3.163  3.4743  3.1298 -2.4750
   56CHL1   C16 5271   1.239   3.216   3.371  0.6596 -0.0848 -0.5458
   56CHL1  H16A 5272   1.288   3.297   3.428  0.0723  0.2249 -0.4785
   56CHL1  H16B 5273   1.134   3.239   3.399  1.3265  3.1043 -0.3112
   56CHL1   C17 5274   1.292   3.079   3.420  0.3032  0.1239  0.4144
   56CHL1   H17 5275   1.211   3.003   3.415 -0.9989  1.4827  0.1524
   56CHL1   C13 5276   1.381   3.027   3.302  0.0205  0.3674 -0.0470
   56CHL1   C18 5277   1.525   3.091   3.305 -0.0229  0.6929 -1.1156
   56CHL1  H18A 5278   1.573   3.063   3.402  1.8242  3.4027 -1.1497
   56CHL1  H18B 5279   1.591   3.064   3.220 -0.9223  0.8591 -1.8845
   56CHL1  H18C 5280   1.520   3.202   3.310  0.3181  0.7458 -1.8436
   56CHL1   C12 5281   1.396   2.875   3.280 -0.5605  1.0116  0.3722
   56CHL1  H12A 5282   1.468   2.831   3.352  1.3755 -0.4894 -2.3033
   56CHL1  H12B 5283   1.300   2.820   3.291 -1.4478  2.5530  0.7683
   56CHL1   C11 5284   1.453   2.839   3.143  0.2937  0.0877  0.0466
   56CHL1  H11A 5285   1.558   2.873   3.148  0.5235 -0.3494 -1.3046
   56CHL1  H11B 5286   1.453   2.728   3.136  2.9725  0.0498 -0.3750
   56CHL1    C9 5287   1.387   2.920   3.025  0.3621 -1.0231 -0.3039
   56CHL1    H9 5288   1.279   2.896   3.014 -0.0182  0.8537 -0.9436
   56CHL1   C10 5289   1.446   2.896   2.881  0.2149 -0.2379 -0.1642
   56CHL1   C19 5290   1.597   2.917   2.891 -0.0838 -0.3128  0.0627
   56CHL1  H19A 5291   1.644   2.838   2.952  2.2349 -0.3337 -1.5969
   56CHL1  H19B 5292   1.653   2.909   2.795 -0.2593  0.6574 -0.1385
   56CHL1  H19C 5293   1.626   3.013   2.939  2.8738 -1.0730 -0.0318
   56CHL1    C1 5294   1.411   2.750   2.851 -0.1463  0.8435  0.5936
   56CHL1   H1A 5295   1.454   2.680   2.925  0.7020 -1.0046 -1.5225
   56CHL1   H1B 5296   1.301   2.738   2.845  0.0089 -0.8880  0.7181
   56CHL1    C2 5297   1.471   2.717   2.713 -0.5623 -0.0042  0.8083
   56CHL1   H2A 5298   1.458   2.613   2.674 -1.2497  0.7550 -1.0965
   56CHL1   H2B 5299   1.581   2.730   2.719 -0.4951 -0.4876  0.6861
   56CHL1   C20 5300   1.348   3.079   3.565 -0.1720 -0.5743  0.1550
   56CHL1   H20 5301   1.428   3.156   3.569 -1.4279  0.7958 -0.2334
   56CHL1   C21 5302   1.391   2.942   3.598 -0.7724 -0.0978  0.3283
   56CHL1  H21A 5303   1.337   2.863   3.543 -1.5120 -0.4894  1.5670
   56CHL1  H21B 5304   1.391   2.919   3.707  2.5029  0.0271  0.4689
   56CHL1  H21C 5305   1.496   2.934   3.562 -1.1169  0.1957 -0.7618
   56CHL1   C22 5306   1.242   3.144   3.665 -0.4599  0.1985 -0.3941
   56CHL1  H22A 5307   1.211   3.242   3.623  2.2177  0.8673 -0.9984
   56CHL1  H22B 5308   1.149   3.084   3.677  0.3540 -1.0700 -0.3228
   56CHL1   C23 5309   1.305   3.186   3.804  0.5002 -0.3037  0.2456
   56CHL1  H23A 5310   1.320   3.092   3.862  0.0486 -1.0033 -0.7401
   56CHL1  H23B 5311   1.407   3.226   3.785  0.7229 -1.3325 -0.8667
   56CHL1   C24 5312   1.209   3.267   3.897  0.0206 -1.0332 -0.8857
   56CHL1  H24A 5313   1.199   3.363   3.843  1.0094 -0.3014  0.1878
   56CHL1  H24B 5314   1.104   3.232   3.908 -0.5016  0.4756 -0.8048
   56CHL1   C25 5315   1.278   3.309   4.028 -0.1804 -0.4909  0.8490
   56CHL1   H25 5316   1.383   3.344   4.010 -0.8445  1.2248  0.0445
   56CHL1   C26 5317   1.223   3.433   4.093  0.4347 -0.7736 -0.1744
   56CHL1  H26A 5318   1.114   3.416   4.106  0.0544 -0.2604 -2.2264
   56CHL1  H26B 5319   1.269   3.459   4.191 -0.6973  2.3715 -0.3442
   56CHL1  H26C 5320   1.226   3.518   4.021 -0.0508  0.7695  1.5519
   56CHL1   C27 5321   1.289   3.203   4.134 -0.3037  0.5042  0.4108
   56CHL1  H27A 5322   1.199   3.154   4.177  0.1692  1.9074  3.2852
   56CHL1  H27B 5323   1.337   3.119   4.080 -3.7243 -1.3472 -0.0216
   56CHL1  H27C 5324   1.361   3.241   4.211  2.1127 -2.7958 -0.0019
   57CHL1    C3 5325   0.582   0.786   2.535  0.2296  0.0059  0.0147
   57CHL1    H3 5326   0.688   0.760   2.517  0.3282  0.2336  0.2413
   57CHL1    O3 5327   0.528   0.831   2.413  0.2630 -0.3331  0.1994
   57CHL1   H3' 5328   0.516   0.747   2.368  3.8900 -0.8138 -0.1712
   57CHL1    C4 5329   0.512   0.660   2.570  0.0169  0.8695  0.7531
   57CHL1   H4A 5330   0.401   0.658   2.568 -0.0506 -1.8109 -2.6769
   57CHL1   H4B 5331   0.520   0.587   2.486 -1.9426 -0.9506  2.0108
   57CHL1    C5 5332   0.537   0.600   2.707 -0.3732  0.3131 -0.0197
   57CHL1    C6 5333   0.575   0.477   2.730  0.4363 -0.3671  0.1852
   57CHL1    H6 5334   0.587   0.409   2.644 -1.6398  1.3482 -1.5730
   57CHL1    C7 5335   0.605   0.408   2.866  0.0819 -0.0428 -0.0909
   57CHL1   H7A 5336   0.564   0.305   2.866  2.6974 -1.1757 -0.4210
   57CHL1   H7B 5337   0.715   0.397   2.880 -0.0442 -1.3187  0.0335
   57CHL1    C8 5338   0.555   0.495   2.984  0.5662 -0.3704 -0.5865
   57CHL1    H8 5339   0.445   0.478   2.990  0.7896 -1.4920  1.0359
   57CHL1   C14 5340   0.610   0.444   3.121 -0.1201 -0.0609 -0.0264
   57CHL1   H14 5341   0.720   0.448   3.107 -0.0358  0.9539  0.7706
   57CHL1   C15 5342   0.564   0.305   3.161 -1.1279  0.5350 -0.2156
   57CHL1  H15A 5343   0.454   0.294   3.151 -1.0193 -0.6901 -0.2046
   57CHL1  H15B 5344   0.623   0.238   3.095 -2.3256  1.2540 -2.0995
   57CHL1   C16 5345   0.592   0.296   3.307 -0.4236 -0.7617 -0.2172
   57CHL1  H16A 5346   0.501   0.285   3.369  0.4966 -0.5188  1.2563
   57CHL1  H16B 5347   0.678   0.227   3.321 -0.0574 -0.0239  1.4334
   57CHL1   C17 5348   0.653   0.438   3.353  0.0854  0.5665 -0.7497
   57CHL1   H17 5349   0.763   0.445   3.341  0.5451 -1.1943  1.6219
   57CHL1   C13 5350   0.587   0.535   3.245  0.1461  0.6569 -0.3700
   57CHL1   C18 5351   0.436   0.563   3.261 -0.4146 -0.1003 -0.4973
   57CHL1  H18A 5352   0.426   0.655   3.323 -1.0874 -2.7392  3.7127
   57CHL1  H18B 5353   0.389   0.579   3.162  0.2969  1.1134 -0.6595
   57CHL1  H18C 5354   0.389   0.479   3.317  0.8122  0.3711  1.3569
   57CHL1   C12 5355   0.658   0.667   3.203 -0.5086  0.2038  0.1805
   57CHL1  H12A 5356   0.675   0.748   3.276  3.4950 -0.2106 -0.0747
   57CHL1  H12B 5357   0.758   0.634   3.166 -1.1849  0.6800 -2.2698
   57CHL1   C11 5358   0.586   0.733   3.086 -0.4068 -0.1203 -0.1067
   57CHL1  H11A 5359   0.482   0.760   3.116 -0.1386 -0.9714  1.6965
   57CHL1  H11B 5360   0.647   0.823   3.065  0.7159 -1.0598 -0.9683
   57CHL1    C9 5361   0.594   0.643   2.960  0.6908 -0.2533  0.8814
   57CHL1    H9 5362   0.703   0.641   2.937  0.4380  3.1941 -1.2317
   57CHL1   C10 5363   0.528   0.698   2.824  0.0573  0.0065 -0.1949
   57CHL1   C19 5364   0.377   0.717   2.859 -0.4802  0.3138  0.0083
   57CHL1  H19A 5365   0.342   0.621   2.902  3.1779 -1.8223 -1.2799
   57CHL1  H19B 5366   0.362   0.800   2.931  0.8837  0.0414  0.6391
   57CHL1  H19C 5367   0.312   0.721   2.770  2.5683  2.0909 -2.3647
   57CHL1    C1 5368   0.601   0.833   2.789 -0.5924  0.1986  0.8144
   57CHL1   H1A 5369   0.562   0.911   2.857 -3.8667 -1.3915  0.9839
   57CHL1   H1B 5370   0.712   0.831   2.799 -0.4866  1.1153 -0.1299
   57CHL1    C2 5371   0.561   0.887   2.644 -0.2194  0.3751 -0.0978
   57CHL1   H2A 5372   0.616   0.982   2.627 -1.8931  1.3941 -0.0683
   57CHL1   H2B 5373   0.450   0.899   2.640 -0.5857 -0.4493  3.7484
   57CHL1   C20 5374   0.619   0.462   3.499 -0.0404  0.2196  0.6178
   57CHL1   H20 5375   0.508   0.460   3.505 -0.3035  3.0154 -1.3401
   57CHL1   C21 5376   0.667   0.608   3.522 -0.4844  0.1265 -0.5850
   57CHL1  H21A 5377   0.595   0.667   3.461 -2.0670 -0.0096  1.0394
   57CHL1  H21B 5378   0.773   0.624   3.494 -0.2848  0.5841  0.3667
   57CHL1  H21C 5379   0.653   0.631   3.630 -2.2293 -3.0668 -0.0213
   57CHL1   C22 5380   0.681   0.353   3.593 -0.8005 -0.3723 -0.0076
   57CHL1  H22A 5381   0.647   0.249   3.571 -1.3219  0.2730 -2.5790
   57CHL1  H22B 5382   0.792   0.352   3.583 -0.6030  2.1484  1.2738
   57CHL1   C23 5383   0.650   0.377   3.743 -0.4603  0.2605 -0.4060
   57CHL1  H23A 5384   0.652   0.484   3.775  0.7197  0.2951 -0.5563
   57CHL1  H23B 5385   0.543   0.351   3.757 -0.6531  1.6532  1.1090
   57CHL1   C24 5386   0.741   0.296   3.843  0.3895 -0.2136  0.8498
   57CHL1  H24A 5387   0.728   0.189   3.813 -2.1367  0.4596 -0.8048
   57CHL1  H24B 5388   0.844   0.320   3.811 -0.1729 -0.0480 -0.9662
   57CHL1   C25 5389   0.715   0.323   3.997 -0.3169 -0.1227  0.2392
   57CHL1   H25 5390   0.793   0.266   4.053  1.2827  1.9643  0.2774
   57CHL1   C26 5391   0.744   0.468   4.041  0.0484  0.1254  0.1171
   57CHL1  H26A 5392   0.672   0.542   4.000 -2.3005 -2.1948 -0.1645
   57CHL1  H26B 5393   0.749   0.478   4.152  0.9085 -0.9332  0.1945
   57CHL1  H26C 5394   0.840   0.495   3.993  0.1753 -1.1993 -0.4072
   57CHL1   C27 5395   0.570   0.290   4.045 -0.3067 -0.2469  0.7822
   57CHL1  H27A 5396   0.569   0.288   4.156  2.2377 -1.3286  0.8470
   57CHL1  H27B 5397   0.493   0.359   4.004 -0.4501 -1.1706 -0.5636
   57CHL1  H27C 5398   0.541   0.187   4.014  1.4176 -0.6425  0.3626
   58CHL1    C3 5399   0.112   6.748   2.685 -0.4569  0.0480  0.0883
   58CHL1    H3 5400   0.095   6.856   2.706  0.0843  0.2642 -0.5729
   58CHL1    O3 5401   0.066   6.714   2.560 -0.0423  0.7473  0.1918
   58CHL1   H3' 5402  -0.029   6.706   2.576 -0.5694  1.4761 -2.1427
   58CHL1    C4 5403   0.259   6.713   2.701 -0.2854 -0.3178  0.1603
   58CHL1   H4A 5404   0.281   6.610   2.664  1.4226 -0.0837  0.4384
   58CHL1   H4B 5405   0.313   6.782   2.634 -1.4629  0.3207 -0.1503
   58CHL1    C5 5406   0.307   6.711   2.843  0.8525  0.2467 -0.3980
   58CHL1    C6 5407   0.415   6.788   2.876  0.1492  0.0977 -0.3253
   58CHL1    H6 5408   0.472   6.841   2.798  0.8023 -0.0605  0.0333
   58CHL1    C7 5409   0.470   6.797   3.020  0.0720 -0.6924  0.3078
   58CHL1   H7A 5410   0.580   6.790   3.013  0.2553  1.7833 -0.0094
   58CHL1   H7B 5411   0.449   6.895   3.067 -0.3808 -1.2073  1.2158
   58CHL1    C8 5412   0.409   6.686   3.115 -0.2352 -0.2199 -0.0704
   58CHL1    H8 5413   0.454   6.586   3.100  0.8149  0.1119  0.7540
   58CHL1   C14 5414   0.443   6.723   3.255 -0.4398 -0.2830  0.0573
   58CHL1   H14 5415   0.404   6.825   3.274  0.9540  0.3693 -0.4338
   58CHL1   C15 5416   0.593   6.745   3.290  0.5866 -0.4338 -0.3364
   58CHL1  H15A 5417   0.641   6.658   3.240 -0.2033 -0.7424 -0.5808
   58CHL1  H15B 5418   0.634   6.838   3.245 -0.4113 -0.8131 -2.1229
   58CHL1   C16 5419   0.594   6.744   3.441  0.2232 -0.6117  1.0332
   58CHL1  H16A 5420   0.668   6.665   3.465 -0.7493 -1.1559  2.3713
   58CHL1  H16B 5421   0.614   6.845   3.483 -2.6890  0.5582 -0.0928
   58CHL1   C17 5422   0.457   6.699   3.488 -0.0303 -0.4991  0.3002
   58CHL1   H17 5423   0.394   6.790   3.487  0.3596 -0.2116  1.0242
   58CHL1   C13 5424   0.392   6.627   3.360 -0.1650  0.0086 -0.7469
   58CHL1   C18 5425   0.456   6.484   3.361  0.1832  0.0102  0.4268
   58CHL1  H18A 5426   0.562   6.489   3.396 -0.0189 -0.2315  1.0750
   58CHL1  H18B 5427   0.391   6.418   3.421 -1.7386 -0.4559 -1.9838
   58CHL1  H18C 5428   0.455   6.437   3.260  1.0009 -0.7802  0.7695
   58CHL1   C12 5429   0.238   6.619   3.348  0.1536 -0.0610  0.5019
   58CHL1  H12A 5430   0.191   6.551   3.423 -1.1920 -0.7294 -0.8771
   58CHL1  H12B 5431   0.203   6.724   3.357  3.8718  1.2520  1.2939
   58CHL1   C11 5432   0.200   6.580   3.204 -0.3172 -0.6797 -0.4100
   58CHL1  H11A 5433   0.236   6.477   3.186 -0.1931 -0.8515  0.7254
   58CHL1  H11B 5434   0.089   6.571   3.196 -0.4218 -0.6303  0.7361
   58CHL1    C9 5435   0.258   6.672   3.094 -0.3712 -0.5776  0.3326
   58CHL1    H9 5436   0.218   6.774   3.110 -0.6637 -0.4851 -0.8514
   58CHL1   C10 5437   0.222   6.637   2.950 -0.2756  0.0044  0.2500
   58CHL1   C19 5438   0.236   6.486   2.928 -0.5188  0.5554  0.8501
   58CHL1  H19A 5439   0.334   6.445   2.960  0.8535  1.8640 -1.4051
   58CHL1  H19B 5440   0.161   6.424   2.981  1.0593 -0.8058  1.6021
   58CHL1  H19C 5441   0.224   6.460   2.820 -2.4597  2.7073  0.4757
   58CHL1    C1 5442   0.078   6.700   2.925 -0.2496 -0.2354 -0.0836
   58CHL1   H1A 5443   0.000   6.673   2.999 -1.5083 -0.0965 -1.3225
   58CHL1   H1B 5444   0.087   6.809   2.940 -0.2168 -0.1025 -1.0331
   58CHL1    C2 5445   0.032   6.668   2.782  0.5760 -0.7657  1.0622
   58CHL1   H2A 5446  -0.074   6.702   2.774 -0.0146 -2.0603  2.7265
   58CHL1   H2B 5447   0.036   6.558   2.765  1.1621 -0.4616 -0.9923
   58CHL1   C20 5448   0.453   6.641   3.638  0.0413  0.3692  0.8751
   58CHL1   H20 5449   0.508   6.545   3.643 -0.0477  0.3095  0.7210
   58CHL1   C21 5450   0.308   6.615   3.678 -0.0810  0.0227 -0.2392
   58CHL1  H21A 5451   0.239   6.698   3.653 -1.1195 -0.4620  0.9328
   58CHL1  H21B 5452   0.301   6.589   3.786  1.2652 -1.8527 -0.5587
   58CHL1  H21C 5453   0.272   6.523   3.629  0.5556 -1.5673  2.1025
   58CHL1   C22 5454   0.532   6.729   3.741 -0.0830 -0.2725 -0.7618
   58CHL1  H22A 5455   0.634   6.754   3.705 -0.1366  0.7068 -0.2927
   58CHL1  H22B 5456   0.473   6.820   3.765  0.4812  0.4660 -2.0903
   58CHL1   C23 5457   0.551   6.655   3.881  0.3643  0.9829 -0.0796
   58CHL1  H23A 5458   0.449   6.633   3.919  1.0767 -1.9467  0.4064
   58CHL1  H23B 5459   0.612   6.566   3.853  1.3970  1.3565  0.9527
   58CHL1   C24 5460   0.644   6.728   3.980  0.3017  0.1196 -0.4298
   58CHL1  H24A 5461   0.723   6.789   3.931  1.6453  2.3678  3.9802
   58CHL1  H24B 5462   0.579   6.806   4.024  0.6185  1.4610 -2.2263
   58CHL1   C25 5463   0.701   6.648   4.103 -0.0544  0.2908 -0.2683
   58CHL1   H25 5464   0.756   6.561   4.062 -1.3827 -0.6495 -0.1335
   58CHL1   C26 5465   0.788   6.743   4.178  0.6164  0.1526 -0.0254
   58CHL1  H26A 5466   0.828   6.684   4.263 -1.7919 -4.0818 -1.5334
   58CHL1  H26B 5467   0.875   6.787   4.124  0.0292  1.0896 -0.2266
   58CHL1  H26C 5468   0.724   6.831   4.201  0.0632  0.2005 -1.6234
   58CHL1   C27 5469   0.584   6.600   4.192 -0.6074  0.1671  0.2230
   58CHL1  H27A 5470   0.533   6.513   4.146 -1.0227  0.7626 -0.4755
   58CHL1  H27B 5471   0.625   6.562   4.287 -0.6435 -1.0872 -0.2530
   58CHL1  H27C 5472   0.508   6.679   4.214 -1.8243 -0.1237 -2.4945
   59CHL1    C3 5473   6.411   5.504   2.795 -0.1143  0.0737 -0.0821
   59CHL1    H3 5474   6.315   5.455   2.822 -0.0050 -0.7737 -1.1231
   59CHL1    O3 5475   6.416   5.504   2.656 -0.5755  0.0526  0.3660
   59CHL1   H3' 5476   6.469   5.579   2.627  2.4059 -2.0710 -0.1884
   59CHL1    C4 5477   6.434   5.650   2.845  0.1534  0.2434 -0.5723
   59CHL1   H4A 5478   6.527   5.690   2.799  1.0438 -0.0701  0.8956
   59CHL1   H4B 5479   6.352   5.718   2.813 -0.3919 -0.6438 -1.1064
   59CHL1    C5 5480   6.439   5.653   3.000 -0.8877  0.7587  0.1217
   59CHL1    C6 5481   6.350   5.716   3.069 -0.4966 -0.3549  0.5104
   59CHL1    H6 5482   6.277   5.775   3.012  0.5753  0.2462 -0.2612
   59CHL1    C7 5483   6.344   5.717   3.224 -0.3621 -0.1340  1.0857
   59CHL1   H7A 5484   6.330   5.819   3.264 -0.6388  0.3644 -0.2315
   59CHL1   H7B 5485   6.263   5.648   3.256 -0.3332 -0.6703  0.0644
   59CHL1    C8 5486   6.484   5.678   3.285 -0.2590  0.2752  0.7776
   59CHL1    H8 5487   6.550   5.768   3.276  0.8113 -0.2052  3.0001
   59CHL1   C14 5488   6.476   5.655   3.438  0.2381 -0.6999  0.1297
   59CHL1   H14 5489   6.412   5.564   3.444  1.6427 -1.6490  1.3476
   59CHL1   C15 5490   6.398   5.756   3.521 -0.7428  0.5796  0.2512
   59CHL1  H15A 5491   6.447   5.855   3.506  0.0075  0.1989  0.1142
   59CHL1  H15B 5492   6.289   5.766   3.502 -0.5765  0.4032 -0.9184
   59CHL1   C16 5493   6.451   5.732   3.663  0.3357  0.2102  0.5667
   59CHL1  H16A 5494   6.486   5.827   3.709 -1.2211  2.1406 -1.8989
   59CHL1  H16B 5495   6.370   5.701   3.733 -0.7412 -0.5736 -0.9628
   59CHL1   C17 5496   6.549   5.621   3.655  0.2373  0.1514  0.0775
   59CHL1   H17 5497   6.497   5.524   3.637 -1.6700  1.3895 -1.4395
   59CHL1   C13 5498   6.611   5.627   3.512  0.0911  0.2497 -0.3308
   59CHL1   C18 5499   6.711   5.749   3.490 -0.3918 -0.4023 -0.1411
   59CHL1  H18A 5500   6.814   5.714   3.513 -0.9086 -1.7174  0.2427
   59CHL1  H18B 5501   6.721   5.766   3.381  0.9809  2.9562  0.4012
   59CHL1  H18C 5502   6.667   5.835   3.545 -4.8560 -2.3532 -0.2275
   59CHL1   C12 5503   6.654   5.497   3.442 -0.2000 -0.7140 -0.0941
   59CHL1  H12A 5504   6.754   5.461   3.472 -0.1669  0.0854  0.8204
   59CHL1  H12B 5505   6.585   5.414   3.470 -0.1575 -0.2901  1.3457
   59CHL1   C11 5506   6.663   5.492   3.288 -0.7315 -0.2279  0.4068
   59CHL1  H11A 5507   6.751   5.550   3.253 -0.3875 -1.4562 -0.8973
   59CHL1  H11B 5508   6.689   5.390   3.251  0.8519  0.9688 -2.0125
   59CHL1    C9 5509   6.537   5.552   3.211 -0.4481 -0.6304 -0.5838
   59CHL1    H9 5510   6.455   5.480   3.229 -2.3582  1.3136 -1.1727
   59CHL1   C10 5511   6.554   5.567   3.061 -1.2355 -0.0953  0.5041
   59CHL1   C19 5512   6.700   5.625   3.027  0.4716 -0.5882  0.2493
   59CHL1  H19A 5513   6.733   5.717   3.078  0.3056  1.5986 -3.2536
   59CHL1  H19B 5514   6.768   5.540   3.051 -0.1387 -0.6726  1.7929
   59CHL1  H19C 5515   6.709   5.654   2.920 -0.4357  2.0220  0.8281
   59CHL1    C1 5516   6.548   5.419   2.998 -0.4941 -0.1469 -0.6762
   59CHL1   H1A 5517   6.642   5.370   3.029 -0.3384  0.8760  0.5661
   59CHL1   H1B 5518   6.471   5.364   3.056  0.0160 -2.8825 -2.4087
   59CHL1    C2 5519   6.516   5.409   2.850 -0.3532  0.2348  0.4026
   59CHL1   H2A 5520   6.495   5.305   2.816  1.7396  0.4826 -1.9843
   59CHL1   H2B 5521   6.606   5.442   2.794 -0.0177  1.5910  1.6905
   59CHL1   C20 5522   6.642   5.626   3.782 -0.3552 -0.7077  0.3814
   59CHL1   H20 5523   6.697   5.721   3.770 -0.3705 -0.5266  1.6553
   59CHL1   C21 5524   6.748   5.524   3.766 -0.0671  1.1001 -0.3509
   59CHL1  H21A 5525   6.814   5.549   3.680  0.1651  1.7097  0.0022
   59CHL1  H21B 5526   6.704   5.426   3.738  1.1626  0.8541 -1.5849
   59CHL1  H21C 5527   6.804   5.521   3.862 -0.8526 -2.5101  0.1224
   59CHL1   C22 5528   6.574   5.627   3.922  0.8354 -0.3681 -0.4601
   59CHL1  H22A 5529   6.651   5.644   4.000  1.9003 -2.6616 -0.9322
   59CHL1  H22B 5530   6.497   5.706   3.930  0.5503 -0.7384  0.5706
   59CHL1   C23 5531   6.505   5.495   3.964 -0.6988  0.3400 -0.6092
   59CHL1  H23A 5532   6.414   5.496   3.900 -1.2052  0.2382  0.0968
   59CHL1  H23B 5533   6.576   5.410   3.948 -1.0129 -0.0219 -0.1330
   59CHL1   C24 5534   6.450   5.498   4.104 -0.2934 -0.0548 -0.5713
   59CHL1  H24A 5535   6.527   5.492   4.184 -0.4633 -0.1451 -0.4143
   59CHL1  H24B 5536   6.398   5.596   4.111  1.3809  0.9750 -2.0050
   59CHL1   C25 5537   6.350   5.388   4.140  0.7828  0.2878  0.2488
   59CHL1   H25 5538   6.389   5.293   4.098 -0.8474  0.3748 -1.6421
   59CHL1   C26 5539   6.339   5.377   4.296  0.6109  0.3055  0.2979
   59CHL1  H26A 5540   6.278   5.458   4.343  1.6788  0.4099  1.5499
   59CHL1  H26B 5541   6.298   5.281   4.334 -2.0160  0.4302 -1.8857
   59CHL1  H26C 5542   6.433   5.391   4.353  0.8570  1.1459 -0.3079
   59CHL1   C27 5543   6.209   5.413   4.081  0.4320  0.8018 -0.6567
   59CHL1  H27A 5544   6.197   5.443   3.975 -2.0215  0.5197 -0.5175
   59CHL1  H27B 5545   6.152   5.318   4.088 -1.2523  1.5436 -3.1414
   59CHL1  H27C 5546   6.156   5.490   4.141 -3.3916 -2.3138  0.3812
   60CHL1    C3 5547   1.388   0.332   2.671  0.0966  0.5687  0.3781
   60CHL1    H3 5548   1.325   0.423   2.677 -0.8357 -0.1093  1.0356
   60CHL1    O3 5549   1.379   0.293   2.531  0.3648 -0.1250 -0.0733
   60CHL1   H3' 5550   1.424   0.208   2.528 -1.3616 -1.1093  0.3771
   60CHL1    C4 5551   1.525   0.366   2.713 -0.0952  0.4019 -0.5918
   60CHL1   H4A 5552   1.586   0.276   2.689 -1.3113 -0.4884 -0.4073
   60CHL1   H4B 5553   1.561   0.447   2.646  2.7423  0.6843  1.1172
   60CHL1    C5 5554   1.534   0.404   2.860  0.5320  0.3778 -0.0044
   60CHL1    C6 5555   1.580   0.527   2.899  0.0020  0.4912 -0.3152
   60CHL1    H6 5556   1.624   0.595   2.825 -0.0180 -1.2973 -2.0200
   60CHL1    C7 5557   1.602   0.568   3.043 -0.4655  0.1611  0.0229
   60CHL1   H7A 5558   1.708   0.598   3.058 -0.0511 -0.6373 -1.2368
   60CHL1   H7B 5559   1.538   0.651   3.080 -1.6251 -0.2795 -0.9212
   60CHL1    C8 5560   1.586   0.446   3.139  0.2788 -0.4001 -0.9808
   60CHL1    H8 5561   1.680   0.387   3.133  1.5939  1.6461 -1.9193
   60CHL1   C14 5562   1.575   0.507   3.283  0.3866  0.3574  0.1049
   60CHL1   H14 5563   1.488   0.575   3.265 -0.0683 -0.7534 -2.2877
   60CHL1   C15 5564   1.696   0.593   3.344  0.5133  0.0408  0.2438
   60CHL1  H15A 5565   1.789   0.536   3.326  1.6754  2.7429 -3.9224
   60CHL1  H15B 5566   1.703   0.696   3.303 -2.3978  0.9279  1.6635
   60CHL1   C16 5567   1.660   0.599   3.490  0.4538 -0.2982  0.5548
   60CHL1  H16A 5568   1.749   0.579   3.553  1.8645 -2.3482 -1.9042
   60CHL1  H16B 5569   1.621   0.699   3.517 -1.2210 -0.5106 -0.8750
   60CHL1   C17 5570   1.544   0.500   3.513  0.8454  0.5950 -0.0867
   60CHL1   H17 5571   1.451   0.560   3.505  0.3753 -0.3532 -2.7899
   60CHL1   C13 5572   1.544   0.408   3.395 -0.3453  0.3131  0.0333
   60CHL1   C18 5573   1.665   0.308   3.416 -0.5850 -0.3934  0.4609
   60CHL1  H18A 5574   1.748   0.354   3.474  0.9921 -2.5778  0.0617
   60CHL1  H18B 5575   1.631   0.222   3.478 -0.1430 -0.0124  1.2541
   60CHL1  H18C 5576   1.708   0.277   3.318  0.3426 -1.5132  1.1870
   60CHL1   C12 5577   1.415   0.346   3.356  0.0738  0.4717  0.3328
   60CHL1  H12A 5578   1.391   0.275   3.438 -1.3174 -2.1342 -2.1682
   60CHL1  H12B 5579   1.333   0.418   3.335 -2.2176 -2.4677 -1.6081
   60CHL1   C11 5580   1.427   0.262   3.221  0.5066 -0.2103 -0.7987
   60CHL1  H11A 5581   1.503   0.183   3.241  2.2528  1.0410 -2.1680
   60CHL1  H11B 5582   1.332   0.209   3.201 -0.9834  2.1440 -0.3108
   60CHL1    C9 5583   1.463   0.357   3.109 -0.2846 -0.1295  0.4997
   60CHL1    H9 5584   1.382   0.432   3.098 -1.5838 -1.7382 -1.6293
   60CHL1   C10 5585   1.478   0.302   2.966 -0.1271 -0.0703  0.3438
   60CHL1   C19 5586   1.572   0.182   2.959 -0.1097  0.2187  0.3159
   60CHL1  H19A 5587   1.536   0.097   3.022 -1.9106 -1.5224 -2.8262
   60CHL1  H19B 5588   1.586   0.143   2.856 -1.2501 -0.1719  0.2970
   60CHL1  H19C 5589   1.674   0.211   2.992  0.5650 -1.0798 -0.5265
   60CHL1    C1 5590   1.338   0.280   2.913  0.4818 -0.0940 -0.2006
   60CHL1   H1A 5591   1.288   0.206   2.980 -1.0817 -0.4658 -1.7128
   60CHL1   H1B 5592   1.273   0.369   2.923  0.6785  0.1109 -0.7337
   60CHL1    C2 5593   1.327   0.231   2.763  0.1791 -0.1420 -0.7715
   60CHL1   H2A 5594   1.219   0.214   2.745 -0.0081 -3.2012  2.1984
   60CHL1   H2B 5595   1.385   0.138   2.746 -0.3621 -0.7485  0.5714
   60CHL1   C20 5596   1.548   0.435   3.656 -0.2625 -0.3600 -0.2545
   60CHL1   H20 5597   1.644   0.380   3.663 -0.0865  0.0237  0.4465
   60CHL1   C21 5598   1.440   0.333   3.686  0.0759  0.8034  0.3496
   60CHL1  H21A 5599   1.335   0.362   3.663 -0.0140  0.4816  0.3382
   60CHL1  H21B 5600   1.448   0.304   3.793  0.7068 -0.0844  0.0756
   60CHL1  H21C 5601   1.477   0.238   3.642  0.3298  1.0181  0.0977
   60CHL1   C22 5602   1.548   0.541   3.775 -0.4478 -0.1713 -0.2131
   60CHL1  H22A 5603   1.604   0.630   3.740  2.1176 -1.7077 -0.2767
   60CHL1  H22B 5604   1.446   0.579   3.796  0.6117  3.4506 -0.9540
   60CHL1   C23 5605   1.618   0.491   3.908  0.0882 -0.4795 -0.0044
   60CHL1  H23A 5606   1.555   0.409   3.947  2.0744 -1.8467  0.4835
   60CHL1  H23B 5607   1.720   0.455   3.882 -0.2591 -1.2311 -0.3508
   60CHL1   C24 5608   1.640   0.604   4.010  0.6917 -0.1179 -0.5308
   60CHL1  H24A 5609   1.705   0.690   3.983  0.4076  0.6754  1.1765
   60CHL1  H24B 5610   1.538   0.646   4.023 -0.6752 -3.0256 -1.0654
   60CHL1   C25 5611   1.683   0.556   4.150 -0.4058  0.0984 -0.5261
   60CHL1   H25 5612   1.619   0.470   4.179 -2.0693  0.8100 -1.8587
   60CHL1   C26 5613   1.827   0.514   4.147 -0.0702  1.2432  0.0008
   60CHL1  H26A 5614   1.860   0.501   4.252  1.0486  2.9583 -0.1040
   60CHL1  H26B 5615   1.829   0.412   4.103 -0.6122  1.2614 -0.0790
   60CHL1  H26C 5616   1.905   0.581   4.105  2.1967 -1.1044  0.1706
   60CHL1   C27 5617   1.670   0.670   4.251  0.2059 -0.3852 -0.0766
   60CHL1  H27A 5618   1.568   0.713   4.261  0.6511  0.5068  0.7114
   60CHL1  H27B 5619   1.679   0.635   4.355  0.0922 -3.6590 -1.0532
   60CHL1  H27C 5620   1.740   0.754   4.230 -2.1298  2.3799  2.3093
   61CHL1    C3 5621   0.233   3.231   2.456  0.3755 -0.2164  0.6091
   61CHL1    H3 5622   0.262   3.334   2.485  0.7489 -0.6748  1.9739
   61CHL1    O3 5623   0.219   3.214   2.314 -0.2774  0.3189  0.2050
   61CHL1   H3' 5624   0.305   3.178   2.290 -1.0748 -1.7972  0.3426
   61CHL1    C4 5625   0.340   3.126   2.502  0.5480  1.1667  0.4331
   61CHL1   H4A 5626   0.321   3.020   2.473  2.3614  0.6612  0.9084
   61CHL1   H4B 5627   0.437   3.152   2.453  0.0593  1.6237 -0.3133
   61CHL1    C5 5628   0.360   3.131   2.653  0.0384 -0.1075 -0.0979
   61CHL1    C6 5629   0.480   3.152   2.714 -0.6868 -0.0002  0.5364
   61CHL1    H6 5630   0.575   3.168   2.661  0.6277 -1.7190  2.2390
   61CHL1    C7 5631   0.492   3.156   2.863 -0.1303  0.1435  0.0340
   61CHL1   H7A 5632   0.590   3.112   2.889  0.4953 -0.9798 -3.6045
   61CHL1   H7B 5633   0.498   3.263   2.892 -3.1395  0.8959 -1.6554
   61CHL1    C8 5634   0.381   3.084   2.944  0.3588  0.1200 -0.1647
   61CHL1    H8 5635   0.397   2.975   2.935 -1.8707 -0.7627  4.1675
   61CHL1   C14 5636   0.385   3.115   3.092 -0.3313 -0.1343 -0.2497
   61CHL1   H14 5637   0.374   3.225   3.093  0.7759  0.0050 -1.2830
   61CHL1   C15 5638   0.519   3.104   3.173  0.2021 -0.3733  0.6061
   61CHL1  H15A 5639   0.576   3.015   3.139 -0.2445 -1.2136  1.9547
   61CHL1  H15B 5640   0.576   3.197   3.155  0.5250 -0.8479 -0.9372
   61CHL1   C16 5641   0.466   3.075   3.314  0.5781  0.2084 -0.0293
   61CHL1  H16A 5642   0.509   2.979   3.350 -1.4356 -1.4682 -1.8113
   61CHL1  H16B 5643   0.518   3.150   3.378 -0.1704  3.0180 -2.4770
   61CHL1   C17 5644   0.315   3.088   3.314 -0.2502 -0.4704 -0.1620
   61CHL1   H17 5645   0.285   3.195   3.326  1.3638  0.0082 -0.1597
   61CHL1   C13 5646   0.271   3.051   3.173 -1.0863 -0.1244  1.0286
   61CHL1   C18 5647   0.266   2.893   3.153 -0.2990  0.8338 -0.4552
   61CHL1  H18A 5648   0.184   2.851   3.215  1.8130 -0.8581  1.3444
   61CHL1  H18B 5649   0.237   2.874   3.047 -0.2990  2.6630 -0.8196
   61CHL1  H18C 5650   0.349   2.831   3.192 -1.6598 -1.0776 -0.4801
   61CHL1   C12 5651   0.139   3.118   3.127 -1.0560 -0.2404 -0.0543
   61CHL1  H12A 5652   0.055   3.067   3.178  0.5030 -3.3772 -0.4267
   61CHL1  H12B 5653   0.146   3.228   3.145  0.3749 -0.4601  0.8278
   61CHL1   C11 5654   0.122   3.096   2.972 -0.0293 -0.0275  0.0248
   61CHL1  H11A 5655   0.095   2.989   2.956  2.3038 -0.6632 -0.0682
   61CHL1  H11B 5656   0.041   3.156   2.926 -0.8875 -1.6685 -0.7069
   61CHL1    C9 5657   0.252   3.131   2.885 -0.5527 -1.1871  0.1728
   61CHL1    H9 5658   0.257   3.242   2.896 -2.5386 -1.0492  0.0157
   61CHL1   C10 5659   0.232   3.114   2.732  0.2492  0.0099  0.4782
   61CHL1   C19 5660   0.184   2.965   2.706  0.1446  0.0808 -0.0207
   61CHL1  H19A 5661   0.085   2.942   2.752 -0.2485 -0.8670 -1.2774
   61CHL1  H19B 5662   0.164   2.954   2.597  0.5158  0.7574 -0.1575
   61CHL1  H19C 5663   0.263   2.893   2.736  0.8186  0.5803 -0.5837
   61CHL1    C1 5664   0.117   3.209   2.685 -0.7003 -0.8292  0.6012
   61CHL1   H1A 5665   0.020   3.184   2.733 -0.9961  1.1663  1.1581
   61CHL1   H1B 5666   0.137   3.316   2.708 -1.4724 -0.6249  0.3524
   61CHL1    C2 5667   0.102   3.204   2.530 -0.3448  0.4702  0.6024
   61CHL1   H2A 5668   0.040   3.291   2.498  0.3739  0.0256 -2.2898
   61CHL1   H2B 5669   0.063   3.102   2.509  0.8336  0.0161  0.5512
   61CHL1   C20 5670   0.266   3.006   3.433  0.0459  0.2672 -0.0973
   61CHL1   H20 5671   0.296   2.900   3.420  0.2523  0.3844 -0.5796
   61CHL1   C21 5672   0.111   3.018   3.443  0.3087  0.3766 -0.2664
   61CHL1  H21A 5673   0.090   2.978   3.545  0.4517  0.3160 -0.2606
   61CHL1  H21B 5674   0.041   2.964   3.376 -3.9841  3.3721  1.3051
   61CHL1  H21C 5675   0.075   3.123   3.434 -0.0486  0.2473 -0.3934
   61CHL1   C22 5676   0.330   3.048   3.565 -0.0210 -0.8249  0.2907
   61CHL1  H22A 5677   0.273   3.003   3.648  0.4535  0.1902  1.1892
   61CHL1  H22B 5678   0.436   3.017   3.578  1.0813  1.8320 -1.5648
   61CHL1   C23 5679   0.323   3.199   3.604  0.0581  0.5931 -0.2166
   61CHL1  H23A 5680   0.386   3.247   3.526  2.0425  1.2991  1.7194
   61CHL1  H23B 5681   0.219   3.238   3.606  0.2333  1.1018 -0.7687
   61CHL1   C24 5682   0.396   3.217   3.743  0.7132  0.3793  1.1089
   61CHL1  H24A 5683   0.349   3.146   3.814 -1.2281  1.0639  0.5640
   61CHL1  H24B 5684   0.505   3.197   3.733  0.8695  0.4891  2.4283
   61CHL1   C25 5685   0.373   3.362   3.798 -0.3877 -0.4228  0.3110
   61CHL1   H25 5686   0.269   3.374   3.837 -0.4064 -0.2513  0.2084
   61CHL1   C26 5687   0.465   3.391   3.922  0.3980  0.0795  0.5364
   61CHL1  H26A 5688   0.409   3.439   4.005  0.3188  1.5613 -0.3448
   61CHL1  H26B 5689   0.511   3.293   3.945  0.9406 -0.1381 -1.2517
   61CHL1  H26C 5690   0.553   3.448   3.888 -0.1612  0.6643  0.0329
   61CHL1   C27 5691   0.403   3.474   3.694  0.4161 -0.0989 -0.0986
   61CHL1  H27A 5692   0.320   3.472   3.620 -1.1006 -0.8501  1.5253
   61CHL1  H27B 5693   0.406   3.574   3.742  1.8557 -0.3670  0.3991
   61CHL1  H27C 5694   0.505   3.457   3.654  0.9895  1.0940  0.8145
   62CHL1    C3 5695   3.924   1.412   2.908 -0.7678 -0.6516 -0.2441
   62CHL1    H3 5696   4.016   1.358   2.938  1.7529  3.1864 -0.3623
   62CHL1    O3 5697   3.916   1.413   2.769 -0.3345 -0.8321 -0.0315
   62CHL1   H3' 5698   4.002   1.449   2.744 -0.2667 -0.2212  1.0173
   62CHL1    C4 5699   3.798   1.354   2.962  0.4670 -0.6460  0.0261
   62CHL1   H4A 5700   3.706   1.407   2.930  0.2657 -0.0718  1.4955
   62CHL1   H4B 5701   3.778   1.254   2.916 -3.3664  0.2526 -0.5806
   62CHL1    C5 5702   3.805   1.343   3.116  1.0100 -0.1786  0.5944
   62CHL1    C6 5703   3.776   1.224   3.173 -0.6725  0.3541 -0.2408
   62CHL1    H6 5704   3.756   1.130   3.120 -0.1459 -0.6259  1.2498
   62CHL1    C7 5705   3.784   1.207   3.321  0.0878  0.0525  0.6274
   62CHL1   H7A 5706   3.692   1.161   3.363  0.9951 -0.2853  2.3363
   62CHL1   H7B 5707   3.869   1.140   3.344  1.7797  2.1440  0.7967
   62CHL1    C8 5708   3.799   1.341   3.403 -0.3557  0.0629  0.5048
   62CHL1    H8 5709   3.697   1.385   3.413 -0.4500 -0.2284  0.8611
   62CHL1   C14 5710   3.843   1.308   3.542 -0.4587 -0.4505 -0.4520
   62CHL1   H14 5711   3.944   1.263   3.533 -0.2060  0.2265 -1.1007
   62CHL1   C15 5712   3.751   1.199   3.615  0.1414 -0.3085  0.3781
   62CHL1  H15A 5713   3.642   1.199   3.595  0.3861  1.1089 -1.2402
   62CHL1  H15B 5714   3.792   1.103   3.578  2.2141  0.0109  1.6529
   62CHL1   C16 5715   3.790   1.214   3.762  0.0724  0.2547  0.0403
   62CHL1  H16A 5716   3.695   1.244   3.812 -0.8304 -0.7776 -0.9925
   62CHL1  H16B 5717   3.827   1.122   3.811 -1.4458  0.1612  1.0911
   62CHL1   C17 5718   3.883   1.335   3.771  0.6874 -0.8720  0.2714
   62CHL1   H17 5719   3.989   1.301   3.767  1.3930  1.1188  1.0616
   62CHL1   C13 5720   3.860   1.423   3.643  0.0067 -0.1286  0.2655
   62CHL1   C18 5721   3.720   1.488   3.660 -0.2040  0.6391 -0.4852
   62CHL1  H18A 5722   3.647   1.423   3.714  1.1603  0.5995  1.4265
   62CHL1  H18B 5723   3.736   1.585   3.711 -1.4001  0.3313  0.5177
   62CHL1  H18C 5724   3.669   1.516   3.565 -2.0152  2.0577  0.8348
   62CHL1   C12 5725   3.970   1.522   3.583 -0.5614  0.2558  0.5189
   62CHL1  H12A 5726   3.972   1.617   3.640  2.2676 -0.9732  2.6957
   62CHL1  H12B 5727   4.072   1.481   3.574  0.2136  2.1835 -0.0587
   62CHL1   C11 5728   3.924   1.564   3.442 -0.3312  0.3538 -0.0885
   62CHL1  H11A 5729   3.829   1.620   3.458 -0.5766 -0.2129  0.5066
   62CHL1  H11B 5730   4.001   1.628   3.394  0.5604  0.1090  0.9599
   62CHL1    C9 5731   3.890   1.446   3.341  0.4563  0.7584 -0.5657
   62CHL1    H9 5732   3.986   1.391   3.332  1.3228  2.4248 -2.2802
   62CHL1   C10 5733   3.840   1.477   3.193  0.6264 -0.6318  0.3281
   62CHL1   C19 5734   3.722   1.567   3.204  0.3487 -0.6517  0.6781
   62CHL1  H19A 5735   3.696   1.607   3.104 -1.4403 -0.6349  1.1186
   62CHL1  H19B 5736   3.632   1.521   3.248  0.9654 -0.7390  1.8974
   62CHL1  H19C 5737   3.741   1.655   3.270 -2.6476  0.9378 -0.3973
   62CHL1    C1 5738   3.957   1.553   3.126 -0.4113  0.2070  0.3719
   62CHL1   H1A 5739   3.951   1.654   3.172  0.8294  0.7456 -0.6081
   62CHL1   H1B 5740   4.054   1.510   3.159 -0.2198  0.2748 -0.1053
   62CHL1    C2 5741   3.955   1.554   2.970  0.7073 -0.2201  0.3615
   62CHL1   H2A 5742   4.046   1.596   2.924 -1.1031  1.3577 -1.9950
   62CHL1   H2B 5743   3.878   1.626   2.936  1.8405  0.8917  0.1156
   62CHL1   C20 5744   3.864   1.413   3.907 -0.0331  0.1183  0.0703
   62CHL1   H20 5745   3.758   1.443   3.907 -0.4038 -1.1286 -0.2681
   62CHL1   C21 5746   3.951   1.540   3.913 -0.0304 -0.1610 -0.1686
   62CHL1  H21A 5747   3.899   1.628   3.872  0.8259 -0.9774 -3.2326
   62CHL1  H21B 5748   4.052   1.529   3.868 -0.1859 -1.2812 -0.2952
   62CHL1  H21C 5749   3.958   1.570   4.020  1.1830  0.1073 -0.3134
   62CHL1   C22 5750   3.891   1.321   4.031  0.2352  0.2257  0.0836
   62CHL1  H22A 5751   3.872   1.390   4.117 -0.8730  0.8141 -0.6020
   62CHL1  H22B 5752   3.825   1.235   4.006 -0.2928  0.5882  0.2140
   62CHL1   C23 5753   4.036   1.269   4.051  0.5947  0.2141  0.6265
   62CHL1  H23A 5754   4.061   1.215   3.957 -0.8603  3.5487 -1.8850
   62CHL1  H23B 5755   4.108   1.354   4.050  1.6409 -0.6527  0.5675
   62CHL1   C24 5756   4.052   1.169   4.175  0.1410  0.1637 -0.0442
   62CHL1  H24A 5757   4.010   1.229   4.259 -1.5495  0.3681 -1.0060
   62CHL1  H24B 5758   3.981   1.090   4.145 -1.2881  0.5770  2.0505
   62CHL1   C25 5759   4.189   1.105   4.209  0.1060 -0.1117  0.1304
   62CHL1   H25 5760   4.238   1.052   4.124  2.6664  0.3210  1.2321
   62CHL1   C26 5761   4.285   1.215   4.254  0.1601 -0.0933  0.2775
   62CHL1  H26A 5762   4.308   1.295   4.181 -1.4681  0.7773  0.6876
   62CHL1  H26B 5763   4.243   1.272   4.340 -0.5135 -1.5431  0.9362
   62CHL1  H26C 5764   4.378   1.175   4.300  0.7320  1.5717  0.6476
   62CHL1   C27 5765   4.170   0.996   4.318  0.3477 -0.3637  1.5501
   62CHL1  H27A 5766   4.117   1.046   4.402 -0.1331  1.2873  0.3087
   62CHL1  H27B 5767   4.113   0.914   4.269  1.6158 -0.5347  0.3110
   62CHL1  H27C 5768   4.267   0.961   4.361  2.0072 -0.3284 -1.8430
   63CHL1    C3 5769   1.045   5.983   2.837  0.1490  0.2022  0.2544
   63CHL1    H3 5770   1.038   5.872   2.832  2.0516  0.0304  0.6757
   63CHL1    O3 5771   0.996   6.045   2.719  0.0163 -0.5309  0.2048
   63CHL1   H3' 5772   1.071   6.050   2.660  0.7197 -0.7469  1.0592
   63CHL1    C4 5773   0.950   6.032   2.944  0.6239  0.2038  0.2699
   63CHL1   H4A 5774   0.944   6.143   2.950 -2.3134  0.0571  1.9313
   63CHL1   H4B 5775   0.853   5.987   2.917  2.0433 -1.0983 -3.2982
   63CHL1    C5 5776   1.002   5.984   3.081  0.0024 -0.5726  1.2762
   63CHL1    C6 5777   0.924   5.925   3.166  0.0527  0.7112 -0.0760
   63CHL1    H6 5778   0.819   5.913   3.135 -0.2556  0.7477  0.9151
   63CHL1    C7 5779   0.957   5.865   3.299 -0.6092 -0.3607  0.2284
   63CHL1   H7A 5780   0.871   5.877   3.368 -0.3791 -0.2579  0.5014
   63CHL1   H7B 5781   0.963   5.755   3.287 -1.2971 -0.4381  0.5529
   63CHL1    C8 5782   1.086   5.932   3.361  0.7023  0.1812  0.5116
   63CHL1    H8 5783   1.058   6.037   3.385  0.0514  0.6712 -2.0936
   63CHL1   C14 5784   1.146   5.846   3.471 -0.5140 -0.5627 -0.4956
   63CHL1   H14 5785   1.174   5.743   3.438  0.5233 -0.2243 -0.7157
   63CHL1   C15 5786   1.055   5.826   3.596  0.5486  0.0746 -0.0465
   63CHL1  H15A 5787   1.003   5.915   3.638 -0.5616 -1.4471  1.9873
   63CHL1  H15B 5788   0.976   5.749   3.581  1.2142 -1.0562  1.8058
   63CHL1   C16 5789   1.155   5.788   3.704 -0.3471 -0.0830 -0.5449
   63CHL1  H16A 5790   1.133   5.852   3.792 -2.4322 -1.8265  0.2909
   63CHL1  H16B 5791   1.137   5.686   3.746  0.8196  0.2274  0.7911
   63CHL1   C17 5792   1.301   5.801   3.653 -0.3669 -0.2376 -0.5487
   63CHL1   H17 5793   1.338   5.704   3.613  0.0848 -0.6472  0.8156
   63CHL1   C13 5794   1.281   5.897   3.532 -0.1332  0.2229 -0.3726
   63CHL1   C18 5795   1.259   6.042   3.579  0.1335 -0.3832  0.1431
   63CHL1  H18A 5796   1.353   6.082   3.621  0.3688 -2.6012  1.9297
   63CHL1  H18B 5797   1.219   6.109   3.500 -0.7252  0.4091  1.2130
   63CHL1  H18C 5798   1.196   6.036   3.670 -0.8918 -0.9284 -0.5787
   63CHL1   C12 5799   1.375   5.884   3.414 -0.2995  0.0425 -0.0838
   63CHL1  H12A 5800   1.482   5.905   3.436  1.0917 -4.6639 -1.2239
   63CHL1  H12B 5801   1.379   5.776   3.387  2.8610  0.2669 -1.0234
   63CHL1   C11 5802   1.337   5.966   3.296  0.4632 -0.5354 -0.7641
   63CHL1  H11A 5803   1.343   6.074   3.323 -1.4262 -0.4207 -0.6707
   63CHL1  H11B 5804   1.412   5.952   3.215 -0.4537 -0.7038 -1.6065
   63CHL1    C9 5805   1.189   5.939   3.248  0.3688  0.8095  0.7523
   63CHL1    H9 5806   1.187   5.833   3.216 -1.9058  1.1986 -0.6300
   63CHL1   C10 5807   1.148   6.018   3.123  0.0335  0.4650  0.5103
   63CHL1   C19 5808   1.158   6.171   3.140 -0.0231 -0.3476 -0.9100
   63CHL1  H19A 5809   1.117   6.224   3.052  3.3884 -0.1417 -2.5534
   63CHL1  H19B 5810   1.105   6.192   3.235 -1.7539 -4.2523 -0.7892
   63CHL1  H19C 5811   1.267   6.195   3.142 -0.1561  0.2504 -0.8906
   63CHL1    C1 5812   1.237   5.977   2.997  0.4847 -0.6044 -0.9274
   63CHL1   H1A 5813   1.341   6.016   3.003 -0.3493  1.9312 -2.0482
   63CHL1   H1B 5814   1.258   5.868   3.004  0.1164 -0.6087  0.4289
   63CHL1    C2 5815   1.188   6.033   2.864  0.5315  0.5354 -0.7952
   63CHL1   H2A 5816   1.247   5.995   2.777  0.7050 -0.3707 -0.2915
   63CHL1   H2B 5817   1.190   6.144   2.868 -1.1299  0.5864 -0.7325
   63CHL1   C20 5818   1.399   5.845   3.764 -0.2874  0.0264 -0.0785
   63CHL1   H20 5819   1.366   5.944   3.802  0.2036  1.4898 -3.1805
   63CHL1   C21 5820   1.539   5.864   3.703  0.7911  0.3210 -0.4408
   63CHL1  H21A 5821   1.574   5.763   3.671 -1.7678 -0.7090 -0.2302
   63CHL1  H21B 5822   1.601   5.900   3.787  0.7083 -1.6318  0.5221
   63CHL1  H21C 5823   1.543   5.939   3.621 -0.0990 -1.8683 -2.6211
   63CHL1   C22 5824   1.399   5.742   3.881 -0.0126 -0.3571 -0.5890
   63CHL1  H22A 5825   1.303   5.740   3.936  0.6088 -3.2426  0.5593
   63CHL1  H22B 5826   1.423   5.645   3.833  0.1671 -0.3385 -0.5370
   63CHL1   C23 5827   1.499   5.759   4.001 -0.2308  0.0095  0.1682
   63CHL1  H23A 5828   1.485   5.663   4.055 -0.0288 -0.0585  0.1011
   63CHL1  H23B 5829   1.599   5.751   3.954 -0.9176 -0.9315 -1.2183
   63CHL1   C24 5830   1.491   5.887   4.092  0.7736  0.7542  0.3623
   63CHL1  H24A 5831   1.508   5.974   4.025 -0.0544  0.6729  0.0350
   63CHL1  H24B 5832   1.381   5.890   4.109  0.7555  4.0895  0.4448
   63CHL1   C25 5833   1.576   5.876   4.223 -0.3109  1.2511  1.1015
   63CHL1   H25 5834   1.683   5.881   4.192 -0.6126  1.3219  0.0289
   63CHL1   C26 5835   1.550   6.000   4.306 -0.8100  0.0088 -0.2767
   63CHL1  H26A 5836   1.447   5.999   4.348 -0.7185  1.6147  0.0617
   63CHL1  H26B 5837   1.611   5.990   4.399 -0.9286  0.8773 -0.0967
   63CHL1  H26C 5838   1.577   6.097   4.258  2.6573 -0.8894 -0.3914
   63CHL1   C27 5839   1.525   5.758   4.303 -0.2667  0.2666  0.0480
   63CHL1  H27A 5840   1.544   5.662   4.250 -1.5105 -0.1159  0.2547
   63CHL1  H27B 5841   1.563   5.758   4.407 -0.3029  0.5914  0.0619
   63CHL1  H27C 5842   1.414   5.764   4.302 -0.3019  0.0933  1.3357
   64CHL1    C3 5843   5.019   3.152   2.604  0.1704 -1.0801 -0.4079
   64CHL1    H3 5844   4.916   3.165   2.566  0.9945 -0.8684 -2.7309
   64CHL1    O3 5845   5.084   3.061   2.514  0.8464 -0.1252 -0.1292
   64CHL1   H3' 5846   5.177   3.071   2.534  0.2311  0.5934  2.9579
   64CHL1    C4 5847   5.105   3.275   2.607 -0.1142 -0.5545  1.0470
   64CHL1   H4A 5848   5.211   3.245   2.625  0.6904  0.2045 -1.9680
   64CHL1   H4B 5849   5.099   3.315   2.504  1.4956  1.9497  1.8329
   64CHL1    C5 5850   5.057   3.373   2.712 -0.5972  0.1735 -0.7734
   64CHL1    C6 5851   5.014   3.496   2.683  0.0157  0.1261  0.8779
   64CHL1    H6 5852   5.040   3.531   2.582  0.9328 -1.2715  0.6100
   64CHL1    C7 5853   4.963   3.605   2.775  0.0633 -0.6276 -0.2008
   64CHL1   H7A 5854   5.012   3.701   2.748 -1.2558 -0.2511 -1.3925
   64CHL1   H7B 5855   4.857   3.629   2.754  0.4231  0.6760 -0.6172
   64CHL1    C8 5856   4.977   3.555   2.924 -0.2003 -0.1037 -0.6033
   64CHL1    H8 5857   5.086   3.563   2.944 -0.1313  0.6304 -1.2130
   64CHL1   C14 5858   4.900   3.630   3.028  0.8708 -0.1076 -0.4373
   64CHL1   H14 5859   4.793   3.622   2.999  0.6252  1.6976 -0.1602
   64CHL1   C15 5860   4.943   3.780   3.021 -0.0426 -0.2483  0.0484
   64CHL1  H15A 5861   5.051   3.782   2.992  0.0144  1.1011  0.2966
   64CHL1  H15B 5862   4.878   3.824   2.942  0.6414  1.1733  0.2564
   64CHL1   C16 5863   4.923   3.833   3.167  0.1142  0.1789 -0.3358
   64CHL1  H16A 5864   5.023   3.857   3.207  0.5727 -3.2005  0.9216
   64CHL1  H16B 5865   4.849   3.916   3.173 -1.1725 -0.9375 -0.0219
   64CHL1   C17 5866   4.871   3.714   3.251  0.5868  1.0195  0.4787
   64CHL1   H17 5867   4.760   3.716   3.243  0.7217  1.7828 -2.2303
   64CHL1   C13 5868   4.921   3.584   3.173 -0.5984 -0.3566 -0.5660
   64CHL1   C18 5869   5.071   3.563   3.205 -0.7676  0.0110  0.1403
   64CHL1  H18A 5870   5.115   3.490   3.134 -2.3343 -0.9312  0.0958
   64CHL1  H18B 5871   5.123   3.661   3.204 -3.7632  1.7570  1.3972
   64CHL1  H18C 5872   5.072   3.507   3.301  1.4045  0.2023  0.2922
   64CHL1   C12 5873   4.842   3.455   3.182 -0.2457 -0.1897  0.1538
   64CHL1  H12A 5874   4.854   3.400   3.278  1.2432 -2.2705 -1.1337
   64CHL1  H12B 5875   4.735   3.481   3.174 -0.7314 -0.9712  2.9419
   64CHL1   C11 5876   4.904   3.358   3.081 -0.0214  0.6847  0.1396
   64CHL1  H11A 5877   4.987   3.319   3.143  1.1977  2.2221 -0.4680
   64CHL1  H11B 5878   4.827   3.279   3.068 -0.1030  0.7893 -0.0161
   64CHL1    C9 5879   4.933   3.405   2.931 -0.0933  0.5473  0.2795
   64CHL1    H9 5880   4.837   3.410   2.874  0.7394  1.2849 -1.1300
   64CHL1   C10 5881   5.028   3.311   2.847 -0.0074  0.9090 -0.4117
   64CHL1   C19 5882   5.170   3.289   2.923  1.3737 -0.8132  0.3508
   64CHL1  H19A 5883   5.230   3.216   2.865  0.2444  0.4374 -2.5507
   64CHL1  H19B 5884   5.226   3.385   2.924 -1.1925  0.8270 -1.2240
   64CHL1  H19C 5885   5.155   3.260   3.030 -0.4191  0.4806  0.5055
   64CHL1    C1 5886   4.958   3.173   2.836  0.5456 -0.3686  0.0663
   64CHL1   H1A 5887   4.948   3.123   2.935  3.4995 -1.7731 -0.2067
   64CHL1   H1B 5888   4.857   3.206   2.806  0.2603 -3.0761 -2.3275
   64CHL1    C2 5889   5.026   3.084   2.739 -0.0735  0.7763  0.0895
   64CHL1   H2A 5890   4.986   2.980   2.735  1.0398  0.3290  0.3685
   64CHL1   H2B 5891   5.133   3.066   2.762 -0.8245 -0.1688  3.5690
   64CHL1   C20 5892   4.894   3.724   3.403  0.5709 -0.6490 -0.0613
   64CHL1   H20 5893   4.992   3.680   3.430  1.0091  1.0800  1.3196
   64CHL1   C21 5894   4.798   3.632   3.480 -0.1526  0.1170  0.0569
   64CHL1  H21A 5895   4.695   3.673   3.473 -0.5548 -0.2697  2.8658
   64CHL1  H21B 5896   4.824   3.625   3.587 -0.0749 -0.8359 -0.0219
   64CHL1  H21C 5897   4.792   3.529   3.439 -2.8227  0.0990  0.2838
   64CHL1   C22 5898   4.892   3.869   3.458  0.3768 -0.5449  0.1088
   64CHL1  H22A 5899   4.969   3.936   3.415 -1.3564  2.2219  1.0480
   64CHL1  H22B 5900   4.792   3.904   3.423 -0.8177 -2.6187  1.2334
   64CHL1   C23 5901   4.895   3.879   3.611  0.2532 -0.1147 -0.6613
   64CHL1  H23A 5902   4.910   3.986   3.636 -1.1409 -0.5345  2.4764
   64CHL1  H23B 5903   4.801   3.855   3.667 -1.4124  3.1872 -1.8003
   64CHL1   C24 5904   5.019   3.807   3.663  0.6434 -0.3947 -0.5345
   64CHL1  H24A 5905   5.005   3.700   3.639 -1.2788 -0.0758 -1.0276
   64CHL1  H24B 5906   5.099   3.866   3.612  0.0346  0.9868  0.0371
   64CHL1   C25 5907   5.040   3.819   3.815 -0.0797  0.4475 -0.1528
   64CHL1   H25 5908   5.039   3.924   3.851 -0.0229  0.6452 -0.7169
   64CHL1   C26 5909   4.927   3.739   3.893  1.2355  0.5255 -1.1734
   64CHL1  H26A 5910   4.928   3.635   3.856  0.2851 -0.9151  2.3901
   64CHL1  H26B 5911   4.959   3.739   4.000  0.9833  1.1087 -1.0892
   64CHL1  H26C 5912   4.825   3.783   3.895  0.8293 -0.3894 -1.6393
   64CHL1   C27 5913   5.182   3.758   3.849  0.1999 -0.2797  0.1450
   64CHL1  H27A 5914   5.169   3.650   3.828 -0.6235  0.1545 -1.8919
   64CHL1  H27B 5915   5.262   3.794   3.781  0.0061  2.0701  1.0484
   64CHL1  H27C 5916   5.204   3.769   3.957 -1.1797  0.0874  0.4135
   65CHL1    C3 5917   3.422   0.585   2.628  0.2033  0.4036  0.6396
   65CHL1    H3 5918   3.465   0.484   2.645  3.0229  1.1910 -1.1109
   65CHL1    O3 5919   3.424   0.638   2.497 -0.1457  0.2820  0.0085
   65CHL1   H3' 5920   3.405   0.732   2.502  0.3021  0.4807 -1.5299
   65CHL1    C4 5921   3.280   0.595   2.684  0.2525  0.4549 -0.4695
   65CHL1   H4A 5922   3.234   0.687   2.643 -1.8747 -1.2001 -2.0501
   65CHL1   H4B 5923   3.221   0.526   2.620 -0.3148  1.1079 -0.6626
   65CHL1    C5 5924   3.262   0.563   2.830 -0.5729  0.5402  0.2932
   65CHL1    C6 5925   3.181   0.459   2.864 -0.0298  0.2745 -0.0600
   65CHL1    H6 5926   3.116   0.414   2.787 -0.2884  0.6328 -0.0543
   65CHL1    C7 5927   3.167   0.425   3.009 -0.2071  0.7203  0.4367
   65CHL1   H7A 5928   3.058   0.404   3.014 -0.3441  0.6220 -2.0286
   65CHL1   H7B 5929   3.212   0.326   3.028 -0.6658  0.2059 -1.0711
   65CHL1    C8 5930   3.225   0.524   3.113  0.0461 -0.3293 -0.0579
   65CHL1    H8 5931   3.151   0.606   3.105  0.4225 -0.0616 -0.8963
   65CHL1   C14 5932   3.229   0.470   3.255 -0.3340  0.2804  0.5259
   65CHL1   H14 5933   3.297   0.382   3.255 -1.8034 -0.8987  0.4312
   65CHL1   C15 5934   3.100   0.412   3.326  0.0225 -0.0518  0.1606
   65CHL1  H15A 5935   3.006   0.466   3.304  0.0954 -0.1957 -0.5395
   65CHL1  H15B 5936   3.088   0.309   3.286  2.2487  0.0370 -0.8935
   65CHL1   C16 5937   3.138   0.426   3.472 -0.3989  0.6836  0.3956
   65CHL1  H16A 5938   3.067   0.479   3.539  0.4242  0.9350  1.0875
   65CHL1  H16B 5939   3.140   0.323   3.515  0.6131  0.9147  0.9395
   65CHL1   C17 5940   3.270   0.500   3.490 -0.0525 -0.2103 -0.0191
   65CHL1   H17 5941   3.345   0.419   3.507 -0.1780  0.0075  1.7189
   65CHL1   C13 5942   3.288   0.578   3.356  0.2849  1.3778 -0.6786
   65CHL1   C18 5943   3.194   0.698   3.361  0.4373  0.9629  0.2993
   65CHL1  H18A 5944   3.247   0.776   3.419 -0.3231  2.4702 -0.9301
   65CHL1  H18B 5945   3.178   0.733   3.256  0.3498  0.5590  0.1736
   65CHL1  H18C 5946   3.088   0.679   3.391 -0.0210  3.5052  0.4897
   65CHL1   C12 5947   3.437   0.607   3.322 -0.3251  0.2500 -0.0762
   65CHL1  H12A 5948   3.467   0.692   3.387 -1.1902  1.7948 -1.6098
   65CHL1  H12B 5949   3.504   0.522   3.344 -1.1108 -0.0307  1.4248
   65CHL1   C11 5950   3.440   0.658   3.180 -0.5402 -0.1788  0.6033
   65CHL1  H11A 5951   3.401   0.761   3.195 -0.5815  0.1907 -1.5928
   65CHL1  H11B 5952   3.545   0.678   3.149 -1.2209 -0.4890 -2.1540
   65CHL1    C9 5953   3.368   0.573   3.075  0.4542  0.1831  0.1180
   65CHL1    H9 5954   3.414   0.473   3.062  0.4148  0.3216 -1.2117
   65CHL1   C10 5955   3.367   0.636   2.933 -0.0706 -0.4357 -0.2193
   65CHL1   C19 5956   3.312   0.773   2.941  0.5587 -0.6043  0.4468
   65CHL1  H19A 5957   3.203   0.774   2.960  0.4720  1.3018 -0.0289
   65CHL1  H19B 5958   3.363   0.834   3.018  1.6712 -0.6941 -0.2041
   65CHL1  H19C 5959   3.322   0.819   2.841  0.0541 -1.3899  0.0239
   65CHL1    C1 5960   3.503   0.643   2.866  0.5625  0.7310  0.1974
   65CHL1   H1A 5961   3.564   0.720   2.919 -0.2592  2.3365 -1.0685
   65CHL1   H1B 5962   3.538   0.538   2.864  0.6442  0.7607 -1.0460
   65CHL1    C2 5963   3.498   0.677   2.716 -0.5598 -0.2604 -0.1126
   65CHL1   H2A 5964   3.607   0.669   2.694 -0.0482 -0.5944  2.2854
   65CHL1   H2B 5965   3.465   0.781   2.694  0.9901 -0.2535 -2.8634
   65CHL1   C20 5966   3.275   0.583   3.626 -0.2018 -0.0087 -0.3952
   65CHL1   H20 5967   3.197   0.662   3.635 -0.0083  0.1124  0.2625
   65CHL1   C21 5968   3.407   0.668   3.650 -0.0153 -0.2608 -0.0694
   65CHL1  H21A 5969   3.496   0.602   3.636 -1.0947 -1.7446 -0.1668
   65CHL1  H21B 5970   3.410   0.705   3.755  1.1852  2.0425 -0.8377
   65CHL1  H21C 5971   3.414   0.755   3.581 -0.5540 -1.5646 -1.8551
   65CHL1   C22 5972   3.239   0.497   3.749  0.5592 -0.2512 -0.0891
   65CHL1  H22A 5973   3.165   0.417   3.724 -0.5236 -0.4836  3.3488
   65CHL1  H22B 5974   3.339   0.450   3.762  1.3343  1.0615 -1.0960
   65CHL1   C23 5975   3.186   0.563   3.881 -0.0921 -0.1161 -0.4860
   65CHL1  H23A 5976   3.241   0.659   3.891  0.5328 -0.5934  1.2110
   65CHL1  H23B 5977   3.081   0.598   3.876  0.3761  1.3224 -0.8510
   65CHL1   C24 5978   3.206   0.462   3.993 -0.3710  1.1544 -0.0334
   65CHL1  H24A 5979   3.146   0.375   3.960 -0.0180  0.8887  0.0124
   65CHL1  H24B 5980   3.306   0.413   3.995 -2.0528 -2.5596  0.0935
   65CHL1   C25 5981   3.157   0.502   4.129  0.1613  0.5308 -0.3618
   65CHL1   H25 5982   3.070   0.568   4.105 -1.9011 -2.3482 -1.3149
   65CHL1   C26 5983   3.114   0.375   4.210  1.0279  1.3190 -0.4469
   65CHL1  H26A 5984   3.023   0.340   4.157  0.7211  2.6751 -0.8518
   65CHL1  H26B 5985   3.195   0.300   4.220 -0.8076 -0.3799  3.5318
   65CHL1  H26C 5986   3.074   0.404   4.309  2.2748  0.5964  0.2896
   65CHL1   C27 5987   3.267   0.582   4.203 -0.6168 -0.1058 -0.2386
   65CHL1  H27A 5988   3.360   0.524   4.223 -0.2881 -0.1358 -1.7286
   65CHL1  H27B 5989   3.306   0.665   4.140 -1.5584 -0.5586 -1.4402
   65CHL1  H27C 5990   3.237   0.620   4.303  1.1208 -0.0379  0.2963
   66CHL1    C3 5991   6.561   2.887   2.602  0.1439  0.8863  0.4134
   66CHL1    H3 5992   6.649   2.819   2.609  0.1271  1.0171  2.7788
   66CHL1    O3 5993   6.516   2.885   2.465  0.4132  0.0552  0.3016
   66CHL1   H3' 5994   6.435   2.936   2.459 -0.7530 -1.6276  1.0795
   66CHL1    C4 5995   6.453   2.815   2.696  0.4699  0.6932  0.5090
   66CHL1   H4A 5996   6.361   2.865   2.659  0.4503  0.8681  0.7924
   66CHL1   H4B 5997   6.443   2.713   2.654  3.2855  0.1606  0.8848
   66CHL1    C5 5998   6.470   2.836   2.842  0.2254  0.1509 -0.2488
   66CHL1    C6 5999   6.479   2.731   2.918  0.1240  0.7475  0.1298
   66CHL1    H6 6000   6.483   2.633   2.868 -1.1919  1.6667 -1.8865
   66CHL1    C7 6001   6.488   2.733   3.068  0.1190  0.5804  0.1070
   66CHL1   H7A 6002   6.416   2.658   3.107 -0.2655  0.1116 -1.4382
   66CHL1   H7B 6003   6.592   2.717   3.104 -0.9070  0.3726  3.2441
   66CHL1    C8 6004   6.461   2.874   3.124  0.3929  0.1052 -0.3700
   66CHL1    H8 6005   6.354   2.905   3.114  0.6690  0.5040 -2.5311
   66CHL1   C14 6006   6.494   2.892   3.275 -0.7396  0.1662  0.0233
   66CHL1   H14 6007   6.603   2.881   3.294 -1.2609 -2.3326  2.1372
   66CHL1   C15 6008   6.440   2.794   3.382  0.5550 -0.1559 -0.9051
   66CHL1  H15A 6009   6.335   2.767   3.358  0.1320  0.0215  0.6441
   66CHL1  H15B 6010   6.490   2.696   3.388  2.0562  0.6329 -0.0187
   66CHL1   C16 6011   6.470   2.868   3.518  0.5594 -0.2567  0.5691
   66CHL1  H16A 6012   6.377   2.886   3.575  0.0010 -1.5340  0.1033
   66CHL1  H16B 6013   6.547   2.818   3.580 -0.5776 -3.1510 -0.1628
   66CHL1   C17 6014   6.521   3.012   3.485 -0.3398  0.1233 -0.2192
   66CHL1   H17 6015   6.631   3.002   3.495 -0.3001 -0.2204 -0.9996
   66CHL1   C13 6016   6.484   3.033   3.333 -0.6410 -0.0223 -0.0829
   66CHL1   C18 6017   6.341   3.073   3.326 -0.0086 -0.0170 -0.2229
   66CHL1  H18A 6018   6.286   3.066   3.230 -0.6872  3.6738 -0.2392
   66CHL1  H18B 6019   6.270   3.027   3.398 -0.8638  2.7945  0.8616
   66CHL1  H18C 6020   6.335   3.184   3.330  2.3551  0.1738 -0.3584
   66CHL1   C12 6021   6.580   3.126   3.252 -0.0988  0.4109 -0.7079
   66CHL1  H12A 6022   6.594   3.230   3.290  2.4735  0.0478 -0.5012
   66CHL1  H12B 6023   6.681   3.080   3.256 -1.2342 -2.1772  0.0747
   66CHL1   C11 6024   6.554   3.123   3.104 -0.2865  0.5920  0.2656
   66CHL1  H11A 6025   6.455   3.170   3.086  0.0311  1.2865  0.2771
   66CHL1  H11B 6026   6.639   3.177   3.056  1.2377 -1.0578  0.9938
   66CHL1    C9 6027   6.544   2.978   3.043 -0.5448  0.1174  0.1731
   66CHL1    H9 6028   6.651   2.948   3.046 -0.6114 -0.2891 -1.0786
   66CHL1   C10 6029   6.500   2.973   2.890  0.8678  0.2978 -0.8739
   66CHL1   C19 6030   6.374   3.056   2.872  0.6140 -0.6331 -0.2655
   66CHL1  H19A 6031   6.389   3.163   2.896 -2.5737  0.0133 -0.6310
   66CHL1  H19B 6032   6.335   3.054   2.768 -2.1198 -2.0765  0.6771
   66CHL1  H19C 6033   6.288   3.011   2.927  0.3629  1.3987  1.1238
   66CHL1    C1 6034   6.612   3.036   2.804 -0.1653  0.1887  0.3202
   66CHL1   H1A 6035   6.635   3.142   2.832 -1.1632 -0.0544  2.2035
   66CHL1   H1B 6036   6.712   2.991   2.822 -0.1811  0.4211  1.0275
   66CHL1    C2 6037   6.579   3.026   2.656 -0.2313 -0.6715  0.0468
   66CHL1   H2A 6038   6.667   3.065   2.601 -1.5713  1.0483 -0.9999
   66CHL1   H2B 6039   6.489   3.086   2.629 -0.3168 -1.1747 -0.8405
   66CHL1   C20 6040   6.472   3.117   3.588 -0.0634 -0.3048  0.2318
   66CHL1   H20 6041   6.367   3.151   3.572 -0.1834 -0.4232  0.7530
   66CHL1   C21 6042   6.549   3.254   3.563 -0.0782 -0.0854 -0.4903
   66CHL1  H21A 6043   6.654   3.242   3.531 -0.5708  0.9454 -2.6531
   66CHL1  H21B 6044   6.557   3.326   3.647 -0.7111 -0.3731 -0.1735
   66CHL1  H21C 6045   6.497   3.302   3.477 -0.9207 -2.3054 -1.3100
   66CHL1   C22 6046   6.493   3.071   3.734  0.6380  0.7609  0.0154
   66CHL1  H22A 6047   6.483   3.169   3.786 -0.5294  0.4736  0.3592
   66CHL1  H22B 6048   6.411   3.017   3.787 -0.1629  2.6551  0.8039
   66CHL1   C23 6049   6.621   3.004   3.775  0.6858 -0.6937 -0.0159
   66CHL1  H23A 6050   6.635   2.902   3.733  0.0775 -0.5091 -0.6846
   66CHL1  H23B 6051   6.709   3.059   3.735 -0.6794  2.6748  1.2519
   66CHL1   C24 6052   6.626   2.987   3.924  0.1249 -0.6613 -0.3273
   66CHL1  H24A 6053   6.630   3.087   3.972 -2.4383 -0.0357 -1.2383
   66CHL1  H24B 6054   6.539   2.933   3.967 -0.5341  0.3235 -0.4061
   66CHL1   C25 6055   6.752   2.909   3.977 -0.0478  0.1399 -0.0484
   66CHL1   H25 6056   6.755   2.807   3.934 -0.4414  1.1562 -2.6236
   66CHL1   C26 6057   6.883   2.968   3.927  0.6661  0.9873  0.4850
   66CHL1  H26A 6058   6.902   2.929   3.825 -1.1324 -0.1789  0.5715
   66CHL1  H26B 6059   6.884   3.079   3.923  0.1779  1.0501  1.6485
   66CHL1  H26C 6060   6.976   2.937   3.979  1.0509 -0.1505 -0.8372
   66CHL1   C27 6061   6.756   2.903   4.131  0.4231 -0.0139 -0.8461
   66CHL1  H27A 6062   6.675   2.840   4.172  0.6669  0.1174 -0.1434
   66CHL1  H27B 6063   6.748   3.009   4.162  1.3989 -0.8308  2.6749
   66CHL1  H27C 6064   6.853   2.860   4.165 -1.1225 -0.8861  2.9730
   67CHL1    C3 6065   6.762   6.073   2.789  0.4503 -1.4522 -0.4438
   67CHL1    H3 6066   6.653   6.077   2.770  0.3442 -0.1111  0.3228
   67CHL1    O3 6067   6.836   6.042   2.675 -0.1523 -0.0969 -0.7863
   67CHL1   H3' 6068   6.826   5.947   2.662 -0.0240  0.0955 -2.4606
   67CHL1    C4 6069   6.811   6.210   2.847  0.3609 -0.2235  0.4026
   67CHL1   H4A 6070   6.918   6.212   2.819 -0.0582  3.9413 -1.7287
   67CHL1   H4B 6071   6.763   6.285   2.780 -1.4840 -0.8374  0.9752
   67CHL1    C5 6072   6.773   6.245   2.984 -0.1368 -0.0230 -0.5833
   67CHL1    C6 6073   6.714   6.360   3.022  0.0478  0.4958 -0.1025
   67CHL1    H6 6074   6.695   6.438   2.948  0.0092 -0.8075 -1.5095
   67CHL1    C7 6075   6.674   6.394   3.167 -0.7115 -0.1837  1.0424
   67CHL1   H7A 6076   6.684   6.502   3.191 -1.4160  0.2298 -0.3678
   67CHL1   H7B 6077   6.564   6.385   3.177 -1.2077  3.0054 -0.3288
   67CHL1    C8 6078   6.744   6.308   3.273 -0.5152 -0.4705 -0.2939
   67CHL1    H8 6079   6.850   6.341   3.287 -1.1205  2.1910 -1.4176
   67CHL1   C14 6080   6.680   6.336   3.408 -0.2816  0.5543  0.3628
   67CHL1   H14 6081   6.575   6.301   3.401 -0.1912 -0.5857  3.2849
   67CHL1   C15 6082   6.675   6.475   3.463  0.2406 -0.9618 -0.8327
   67CHL1  H15A 6083   6.771   6.529   3.461  0.8968 -1.9512  1.2632
   67CHL1  H15B 6084   6.594   6.527   3.407  2.9786  1.7611 -2.5235
   67CHL1   C16 6085   6.618   6.445   3.610  0.5009  0.7373  0.2152
   67CHL1  H16A 6086   6.679   6.511   3.676  1.2120  1.1319 -0.8062
   67CHL1  H16B 6087   6.509   6.459   3.626  0.5365  0.7982  0.4125
   67CHL1   C17 6088   6.651   6.293   3.634  0.0274  0.1971 -0.2914
   67CHL1   H17 6089   6.559   6.235   3.611 -0.0342 -0.6906  2.0311
   67CHL1   C13 6090   6.746   6.251   3.520 -0.5395  0.1595 -0.8512
   67CHL1   C18 6091   6.887   6.307   3.552  0.2049 -0.3092 -0.6376
   67CHL1  H18A 6092   6.885   6.412   3.587  0.6613 -0.1835 -0.9768
   67CHL1  H18B 6093   6.938   6.256   3.637  2.4267 -1.1756 -2.3950
   67CHL1  H18C 6094   6.959   6.299   3.468  0.5755 -0.1679 -0.3350
   67CHL1   C12 6095   6.746   6.102   3.489  0.4602  0.0917  0.3509
   67CHL1  H12A 6096   6.799   6.040   3.563 -2.1238 -1.4139  1.0902
   67CHL1  H12B 6097   6.644   6.058   3.492 -0.1902  1.6094  1.7737
   67CHL1   C11 6098   6.808   6.079   3.351  0.2791  0.0059 -0.7246
   67CHL1  H11A 6099   6.913   6.116   3.357  0.2490  0.2325 -1.4816
   67CHL1  H11B 6100   6.818   5.973   3.320  0.8109 -0.3899  0.6865
   67CHL1    C9 6101   6.749   6.159   3.231 -0.3777 -0.1792  0.4827
   67CHL1    H9 6102   6.646   6.119   3.219 -0.7810  1.0399 -0.2372
   67CHL1   C10 6103   6.804   6.135   3.086 -0.4061 -0.1760 -0.3020
   67CHL1   C19 6104   6.962   6.137   3.105  0.7009 -0.4237 -0.4042
   67CHL1  H19A 6105   6.997   6.060   3.177  1.0050 -0.5562 -0.6912
   67CHL1  H19B 6106   7.010   6.118   3.007  1.8092  1.0710 -0.1850
   67CHL1  H19C 6107   6.991   6.236   3.146 -2.0405  0.3629 -0.1512
   67CHL1    C1 6108   6.736   6.008   3.034 -0.0414 -1.0561 -0.7006
   67CHL1   H1A 6109   6.776   5.929   3.101  0.1107 -1.4056 -1.1984
   67CHL1   H1B 6110   6.625   6.014   3.038  0.0512  1.0037 -0.2176
   67CHL1    C2 6111   6.790   5.965   2.899 -0.4312 -0.4142  0.1459
   67CHL1   H2A 6112   6.738   5.874   2.863  1.7423 -1.6629  0.0245
   67CHL1   H2B 6113   6.900   5.949   2.904 -0.2873  0.6293  0.5458
   67CHL1   C20 6114   6.681   6.252   3.780 -0.1702  0.6087 -0.0485
   67CHL1   H20 6115   6.774   6.302   3.816 -0.5627  1.8307 -0.6800
   67CHL1   C21 6116   6.702   6.105   3.801  0.5120  0.3792  0.4704
   67CHL1  H21A 6117   6.688   6.080   3.908  1.8150 -2.8817  0.0045
   67CHL1  H21B 6118   6.805   6.070   3.775 -0.2783 -2.1622  0.5072
   67CHL1  H21C 6119   6.626   6.048   3.744  0.4683  2.5067 -1.7543
   67CHL1   C22 6120   6.570   6.299   3.875  0.4554  0.1722 -0.4013
   67CHL1  H22A 6121   6.556   6.405   3.843  3.4127 -0.2084 -3.5204
   67CHL1  H22B 6122   6.477   6.241   3.859 -1.2259  1.4906  3.4383
   67CHL1   C23 6123   6.612   6.294   4.024  0.3477 -0.0197 -0.5639
   67CHL1  H23A 6124   6.658   6.197   4.051  0.2566 -0.0365 -0.4677
   67CHL1  H23B 6125   6.681   6.379   4.042  2.7187 -1.7521 -1.0892
   67CHL1   C24 6126   6.492   6.302   4.118  0.3313 -0.0635 -0.4643
   67CHL1  H24A 6127   6.429   6.386   4.084  0.3517 -0.6105 -1.9205
   67CHL1  H24B 6128   6.434   6.208   4.108 -0.2334  0.1372  0.7283
   67CHL1   C25 6129   6.529   6.320   4.273 -0.3037 -0.6104  0.1167
   67CHL1   H25 6130   6.612   6.250   4.297  1.5363  0.1511 -3.3501
   67CHL1   C26 6131   6.595   6.457   4.308  0.3574 -0.2367  0.5737
   67CHL1  H26A 6132   6.631   6.449   4.413  2.4707  2.2000  0.1312
   67CHL1  H26B 6133   6.670   6.488   4.232 -1.4371  0.1055 -1.1574
   67CHL1  H26C 6134   6.517   6.537   4.306  0.8014  0.1913 -0.5617
   67CHL1   C27 6135   6.408   6.312   4.370  0.5885 -0.0765 -0.1626
   67CHL1  H27A 6136   6.341   6.400   4.363  2.8062  1.8125  0.7531
   67CHL1  H27B 6137   6.339   6.226   4.358  0.0493  0.4340 -0.7838
   67CHL1  H27C 6138   6.458   6.307   4.469  1.1974 -0.0848 -0.4654
   68CHL1    C3 6139   4.674   0.026   2.464  0.8261  0.0428  0.3890
   68CHL1    H3 6140   4.712  -0.076   2.486  1.2662  0.1603  0.1934
   68CHL1    O3 6141   4.633   0.024   2.331  0.4091 -0.4411 -0.0129
   68CHL1   H3' 6142   4.589   0.109   2.322  0.6244  0.5178  4.9854
   68CHL1    C4 6143   4.560   0.066   2.552  0.0765 -0.3385  0.6062
   68CHL1   H4A 6144   4.515   0.161   2.516  0.9037 -0.5754 -1.1573
   68CHL1   H4B 6145   4.474  -0.005   2.549 -1.1633  1.1319 -0.1177
   68CHL1    C5 6146   4.606   0.091   2.694 -0.1716  0.0060  0.1497
   68CHL1    C6 6147   4.540   0.025   2.790  0.1345  0.2523 -1.0208
   68CHL1    H6 6148   4.457  -0.041   2.764  0.0446  0.7314 -1.9777
   68CHL1    C7 6149   4.569   0.051   2.937 -0.6493 -0.2476 -0.0359
   68CHL1   H7A 6150   4.480   0.071   3.001  0.0071  0.5968  0.6370
   68CHL1   H7B 6151   4.625  -0.038   2.974  0.4133  0.8877  1.2008
   68CHL1    C8 6152   4.648   0.184   2.955  0.3342 -0.2337  0.3027
   68CHL1    H8 6153   4.589   0.278   2.953 -0.1447 -0.4525  1.9900
   68CHL1   C14 6154   4.705   0.185   3.098  0.1512  0.2036  0.2497
   68CHL1   H14 6155   4.768   0.094   3.089 -2.1793 -1.5036  0.1586
   68CHL1   C15 6156   4.614   0.158   3.215 -0.1958 -0.3244  0.0035
   68CHL1  H15A 6157   4.511   0.198   3.200 -0.4404 -0.7855  0.4013
   68CHL1  H15B 6158   4.612   0.050   3.243  1.7581 -1.2763 -3.0110
   68CHL1   C16 6159   4.677   0.235   3.331  0.1012  0.3489  0.3395
   68CHL1  H16A 6160   4.609   0.320   3.352  0.1410 -0.1463  2.7693
   68CHL1  H16B 6161   4.677   0.168   3.420  2.2299 -1.5249 -0.9550
   68CHL1   C17 6162   4.812   0.289   3.282  0.0819 -0.2444  0.0214
   68CHL1   H17 6163   4.881   0.203   3.294  1.5034  0.8644  0.1247
   68CHL1   C13 6164   4.796   0.312   3.132 -0.1650  0.3913  0.0317
   68CHL1   C18 6165   4.728   0.443   3.108  0.4136 -0.2663  0.2000
   68CHL1  H18A 6166   4.701   0.459   3.002  1.3499 -2.1152 -0.3499
   68CHL1  H18B 6167   4.630   0.450   3.160 -0.0241 -0.6337 -0.5594
   68CHL1  H18C 6168   4.796   0.526   3.139  0.5215 -0.0462 -0.6006
   68CHL1   C12 6169   4.921   0.295   3.044 -0.3616 -0.8062  0.3513
   68CHL1  H12A 6170   5.002   0.365   3.070  1.6679 -2.3850 -1.3069
   68CHL1  H12B 6171   4.973   0.200   3.070  1.6498  0.0704 -0.3406
   68CHL1   C11 6172   4.883   0.284   2.896 -0.2262 -0.0874 -0.2480
   68CHL1  H11A 6173   4.856   0.388   2.868 -2.6378 -0.0971  1.7100
   68CHL1  H11B 6174   4.979   0.257   2.848  0.5890  0.4226  1.0347
   68CHL1    C9 6175   4.766   0.188   2.853 -0.0989 -0.3169 -1.3037
   68CHL1    H9 6176   4.806   0.086   2.872 -1.4476 -0.5745  0.4095
   68CHL1   C10 6177   4.724   0.188   2.708 -0.1048 -0.3564  0.2499
   68CHL1   C19 6178   4.669   0.328   2.672  0.1783 -0.3608  0.5798
   68CHL1  H19A 6179   4.646   0.340   2.564 -0.3846 -0.3671  0.6953
   68CHL1  H19B 6180   4.586   0.370   2.733 -0.0904  0.0284 -0.0368
   68CHL1  H19C 6181   4.750   0.399   2.696  1.1161 -1.4270  0.6361
   68CHL1    C1 6182   4.841   0.141   2.618  0.2759 -0.8504 -0.4853
   68CHL1   H1A 6183   4.922   0.216   2.626 -0.5957 -0.0400  1.0459
   68CHL1   H1B 6184   4.883   0.043   2.651 -0.2750  0.0104  3.1177
   68CHL1    C2 6185   4.798   0.120   2.471 -0.6959 -0.3282 -0.6961
   68CHL1   H2A 6186   4.884   0.073   2.419  0.2045  0.7233 -0.2098
   68CHL1   H2B 6187   4.775   0.217   2.421 -1.4133  0.0633  0.3378
   68CHL1   C20 6188   4.876   0.398   3.378  0.0703  0.0935 -0.0785
   68CHL1   H20 6189   4.807   0.486   3.378  0.1283  0.1390  0.0317
   68CHL1   C21 6190   5.009   0.442   3.320  0.3457 -0.3449  0.3334
   68CHL1  H21A 6191   4.999   0.505   3.230 -1.6812  2.6927  2.4905
   68CHL1  H21B 6192   5.075   0.356   3.295  1.5417  0.4470  0.6978
   68CHL1  H21C 6193   5.078   0.502   3.382  0.7468  0.3471 -0.7573
   68CHL1   C22 6194   4.881   0.332   3.515 -0.2807  0.1831  0.1860
   68CHL1  H22A 6195   4.783   0.294   3.552 -0.6327 -0.4405 -1.3096
   68CHL1  H22B 6196   4.947   0.246   3.493 -0.0351  0.5904 -0.7475
   68CHL1   C23 6197   4.946   0.416   3.624  0.8254  0.3113  0.0124
   68CHL1  H23A 6198   5.036   0.471   3.589  1.3042 -1.7208 -2.2430
   68CHL1  H23B 6199   4.878   0.496   3.658 -0.4692 -1.0321  0.7071
   68CHL1   C24 6200   4.999   0.332   3.743 -0.7418  0.2189  0.6629
   68CHL1  H24A 6201   4.912   0.283   3.790  0.0614 -1.0718  0.8800
   68CHL1  H24B 6202   5.066   0.246   3.719 -0.8050  0.5158 -0.6506
   68CHL1   C25 6203   5.070   0.409   3.856  0.3594 -1.0477  1.1777
   68CHL1   H25 6204   5.146   0.478   3.814 -0.9025  0.9050  1.9331
   68CHL1   C26 6205   4.974   0.498   3.932 -0.0618  0.0302  0.4589
   68CHL1  H26A 6206   4.872   0.454   3.931  0.4981 -1.4079 -1.8252
   68CHL1  H26B 6207   5.003   0.520   4.036  0.9047  2.2730 -0.2379
   68CHL1  H26C 6208   4.968   0.597   3.883  1.4843  0.3568  0.8870
   68CHL1   C27 6209   5.140   0.310   3.949  0.5012  0.0129 -0.9484
   68CHL1  H27A 6210   5.063   0.243   3.994 -0.4531  2.2885  1.0087
   68CHL1  H27B 6211   5.224   0.253   3.904  2.3013  0.6802  1.3505
   68CHL1  H27C 6212   5.187   0.360   4.036 -3.2232  0.5582  0.9723
   69CHL1    C3 6213   2.899   3.756   2.289 -0.3625 -0.2724 -0.4939
   69CHL1    H3 6214   2.788   3.764   2.288 -0.3096  0.5723 -0.0989
   69CHL1    O3 6215   2.932   3.763   2.151 -0.0820 -0.1366  0.3650
   69CHL1   H3' 6216   2.880   3.699   2.103  0.6977  0.9124 -2.0712
   69CHL1    C4 6217   2.975   3.871   2.365  1.0542 -0.6845 -0.5910
   69CHL1   H4A 6218   3.084   3.861   2.343  1.6175  2.0926  0.4999
   69CHL1   H4B 6219   2.955   3.965   2.310  0.9095 -1.0642 -1.1928
   69CHL1    C5 6220   2.965   3.878   2.516  0.6226  0.1147 -0.0904
   69CHL1    C6 6221   2.944   3.989   2.584  0.2890 -0.3464 -0.7671
   69CHL1    H6 6222   2.947   4.087   2.534  0.3645  0.3423  0.5362
   69CHL1    C7 6223   2.939   3.992   2.735 -0.3205  0.3493  0.1866
   69CHL1   H7A 6224   2.995   4.080   2.771 -0.2633  0.3925 -0.0069
   69CHL1   H7B 6225   2.836   3.994   2.778 -0.8886  0.0910 -1.0897
   69CHL1    C8 6226   3.002   3.865   2.805 -0.0227 -0.2739 -0.1031
   69CHL1    H8 6227   3.111   3.885   2.798 -0.1709  3.0102  3.2941
   69CHL1   C14 6228   2.958   3.859   2.948  0.2199 -0.2750 -0.3805
   69CHL1   H14 6229   2.850   3.835   2.949 -0.1107  1.0974 -1.3028
   69CHL1   C15 6230   2.980   3.982   3.034 -0.4488  0.2200  0.5996
   69CHL1  H15A 6231   3.077   4.033   3.016  0.0705  0.0416  2.5985
   69CHL1  H15B 6232   2.900   4.054   3.009 -0.2539  0.1152 -0.3713
   69CHL1   C16 6233   2.988   3.937   3.181 -0.4473  0.4321 -0.1285
   69CHL1  H16A 6234   3.083   3.980   3.220  0.9339 -0.4285 -2.3166
   69CHL1  H16B 6235   2.905   3.983   3.238  0.1531  1.4487 -0.0502
   69CHL1   C17 6236   2.973   3.779   3.179 -0.0680 -0.4459 -0.0586
   69CHL1   H17 6237   2.864   3.757   3.182 -0.4170  0.4471 -3.0983
   69CHL1   C13 6238   3.015   3.746   3.034 -0.0658  0.0257 -0.0902
   69CHL1   C18 6239   3.166   3.753   3.027  0.3817  0.5016 -0.2398
   69CHL1  H18A 6240   3.201   3.719   2.927  1.7410  3.6732 -0.9694
   69CHL1  H18B 6241   3.206   3.856   3.037 -1.4755  1.4028 -1.6296
   69CHL1  H18C 6242   3.215   3.677   3.093 -0.6340  0.6009  0.6460
   69CHL1   C12 6243   2.949   3.616   2.964 -0.4821  0.8450  0.7549
   69CHL1  H12A 6244   2.985   3.523   3.013  0.3509  1.1306  0.7047
   69CHL1  H12B 6245   2.839   3.620   2.975 -0.5821  0.2684  0.0739
   69CHL1   C11 6246   2.971   3.609   2.817  0.2314  0.8245  0.3455
   69CHL1  H11A 6247   3.075   3.572   2.803  0.2978  1.7571 -2.2865
   69CHL1  H11B 6248   2.899   3.532   2.782  0.2591 -0.2020  2.4276
   69CHL1    C9 6249   2.944   3.743   2.736 -0.4865  0.2851 -0.1206
   69CHL1    H9 6250   2.835   3.759   2.742 -0.1934  2.3294  0.4098
   69CHL1   C10 6251   2.976   3.738   2.584 -0.0934 -0.7878  0.5600
   69CHL1   C19 6252   3.123   3.694   2.574 -0.4234 -0.6005  0.0831
   69CHL1  H19A 6253   3.180   3.770   2.632 -1.6093 -0.5009  1.1572
   69CHL1  H19B 6254   3.136   3.593   2.619  1.1148  0.0207  1.1271
   69CHL1  H19C 6255   3.154   3.690   2.468 -0.6156 -0.9347  0.0408
   69CHL1    C1 6256   2.886   3.631   2.505 -0.7423 -1.1485 -0.3761
   69CHL1   H1A 6257   2.916   3.532   2.545  1.8929 -0.5510 -0.6844
   69CHL1   H1B 6258   2.777   3.644   2.523 -0.4987 -2.6251  2.8069
   69CHL1    C2 6259   2.926   3.630   2.354  0.6087 -0.4811 -0.1088
   69CHL1   H2A 6260   2.855   3.555   2.312 -1.0524  0.6441  0.6260
   69CHL1   H2B 6261   3.032   3.607   2.329  0.6655 -0.0867 -0.2468
   69CHL1   C20 6262   3.054   3.713   3.295  0.2528  0.3734 -0.4614
   69CHL1   H20 6263   3.163   3.732   3.289  0.4358 -0.9670 -2.0851
   69CHL1   C21 6264   3.037   3.554   3.297  0.3796 -0.1881 -0.1805
   69CHL1  H21A 6265   3.088   3.514   3.207  1.1836  2.2897 -0.9084
   69CHL1  H21B 6266   2.928   3.538   3.282  0.6292 -0.9871 -1.3235
   69CHL1  H21C 6267   3.076   3.505   3.389  0.3509  1.4843  0.7556
   69CHL1   C22 6268   3.005   3.764   3.432 -0.0211  0.0294  0.2583
   69CHL1  H22A 6269   3.077   3.728   3.508  0.2129  0.3541  0.1938
   69CHL1  H22B 6270   3.021   3.874   3.440  0.7535 -0.0662  0.1471
   69CHL1   C23 6271   2.855   3.739   3.465 -0.5290 -0.6885 -1.0389
   69CHL1  H23A 6272   2.792   3.795   3.393 -0.0797 -2.2480 -2.7116
   69CHL1  H23B 6273   2.830   3.632   3.446 -2.9800 -0.0617 -1.6476
   69CHL1   C24 6274   2.822   3.780   3.607  0.5772 -0.4342  0.2354
   69CHL1  H24A 6275   2.894   3.733   3.677  0.3103 -1.0272  0.1090
   69CHL1  H24B 6276   2.849   3.886   3.630  2.4796 -0.9240  0.4130
   69CHL1   C25 6277   2.675   3.756   3.645 -0.0683  0.1889 -0.9705
   69CHL1   H25 6278   2.651   3.648   3.631  3.1409 -0.4172 -2.9038
   69CHL1   C26 6279   2.646   3.797   3.789 -0.9136 -1.0145 -0.0809
   69CHL1  H26A 6280   2.550   3.759   3.829 -0.0456 -1.8089  1.3824
   69CHL1  H26B 6281   2.723   3.745   3.851 -0.1671  1.0647  0.8338
   69CHL1  H26C 6282   2.659   3.905   3.809  2.3802 -1.0719 -1.1742
   69CHL1   C27 6283   2.581   3.825   3.550  0.2336  0.0411  0.3086
   69CHL1  H27A 6284   2.638   3.915   3.520 -1.5381  0.6861 -1.3960
   69CHL1  H27B 6285   2.562   3.764   3.458 -1.5340  2.3769 -0.9941
   69CHL1  H27C 6286   2.488   3.856   3.602  1.3147  2.9217  0.6906
   70CHL1    C3 6287   5.455   1.618   2.800  0.5998 -0.3743 -0.9187
   70CHL1    H3 6288   5.381   1.679   2.745 -1.9873 -2.2728  0.2240
   70CHL1    O3 6289   5.514   1.539   2.701 -0.7441 -0.0163 -0.1048
   70CHL1   H3' 6290   5.443   1.488   2.662 -0.7577 -1.2921  1.4756
   70CHL1    C4 6291   5.564   1.700   2.870  0.6940  0.1848 -0.5786
   70CHL1   H4A 6292   5.635   1.633   2.924 -1.8183 -0.9858  1.4955
   70CHL1   H4B 6293   5.612   1.752   2.784 -0.7711 -1.3936 -2.4573
   70CHL1    C5 6294   5.504   1.801   2.963 -0.6428  0.1960 -0.5701
   70CHL1    C6 6295   5.525   1.933   2.952  0.1464  0.0673  0.1226
   70CHL1    H6 6296   5.588   1.971   2.870  1.1088  0.0508  0.8437
   70CHL1    C7 6297   5.494   2.019   3.071  0.7314  0.4919 -0.3181
   70CHL1   H7A 6298   5.585   2.079   3.092 -0.2257  1.6299  0.6846
   70CHL1   H7B 6299   5.417   2.096   3.047 -0.1437  0.1371  1.2400
   70CHL1    C8 6300   5.449   1.944   3.199 -1.2290 -0.6826  0.1488
   70CHL1    H8 6301   5.546   1.907   3.238 -0.5599  0.4965 -0.3452
   70CHL1   C14 6302   5.381   2.037   3.290 -0.1173 -0.2828  0.8392
   70CHL1   H14 6303   5.290   2.074   3.239  1.1551  0.6074 -0.8801
   70CHL1   C15 6304   5.447   2.177   3.326  0.2276 -0.4431  0.4925
   70CHL1  H15A 6305   5.551   2.160   3.359  1.4405  0.4206 -2.4906
   70CHL1  H15B 6306   5.449   2.257   3.248 -0.0733 -0.9455 -0.0372
   70CHL1   C16 6307   5.371   2.221   3.449 -0.2933 -0.0523  0.2367
   70CHL1  H16A 6308   5.442   2.247   3.531 -0.1603  0.4800 -0.0416
   70CHL1  H16B 6309   5.309   2.310   3.422  1.1190  0.3613 -1.8320
   70CHL1   C17 6310   5.280   2.105   3.497 -0.6249  0.3986  0.3122
   70CHL1   H17 6311   5.180   2.119   3.449 -0.9296  0.1697  0.8636
   70CHL1   C13 6312   5.322   1.976   3.424 -0.6886 -0.2246  0.4169
   70CHL1   C18 6313   5.439   1.930   3.513  0.3175  0.0558 -0.9244
   70CHL1  H18A 6314   5.503   2.008   3.559 -0.7257  0.8377 -0.7401
   70CHL1  H18B 6315   5.400   1.862   3.593 -0.4151  0.4648 -0.9213
   70CHL1  H18C 6316   5.511   1.869   3.455  1.0398 -0.9304  0.9058
   70CHL1   C12 6317   5.218   1.870   3.389  0.2067  0.0427 -0.0161
   70CHL1  H12A 6318   5.179   1.817   3.479 -2.1854  1.8399  0.0949
   70CHL1  H12B 6319   5.136   1.919   3.333 -0.7682 -2.4035 -0.8863
   70CHL1   C11 6320   5.276   1.769   3.289  0.5016  0.1037  0.2437
   70CHL1  H11A 6321   5.336   1.695   3.346 -0.8325 -1.5335 -0.4226
   70CHL1  H11B 6322   5.185   1.721   3.250  1.5244 -1.9632  0.2657
   70CHL1    C9 6323   5.352   1.835   3.163  0.4193  0.3592 -0.6137
   70CHL1    H9 6324   5.273   1.881   3.100  0.5321  0.2417 -0.8406
   70CHL1   C10 6325   5.423   1.735   3.072 -0.5130  0.4039 -0.0198
   70CHL1   C19 6326   5.517   1.639   3.164 -0.3914 -0.0082 -0.3618
   70CHL1  H19A 6327   5.576   1.565   3.106  2.0178 -0.3214  2.2445
   70CHL1  H19B 6328   5.592   1.694   3.225  0.0015 -0.8580 -0.0711
   70CHL1  H19C 6329   5.455   1.585   3.238  0.7214 -0.2142  0.4411
   70CHL1    C1 6330   5.317   1.634   3.012 -0.0414  0.1867 -0.0439
   70CHL1   H1A 6331   5.272   1.574   3.094  1.3398  1.7730  1.9913
   70CHL1   H1B 6332   5.230   1.684   2.963 -0.1588 -0.6186 -0.6802
   70CHL1    C2 6333   5.371   1.536   2.905  0.2161 -0.2793  0.2188
   70CHL1   H2A 6334   5.298   1.476   2.846  0.6240  1.3001 -2.0098
   70CHL1   H2B 6335   5.431   1.460   2.960 -0.8744  0.1655  2.0978
   70CHL1   C20 6336   5.251   2.101   3.652 -0.9468 -0.1241  0.6293
   70CHL1   H20 6337   5.345   2.062   3.696 -0.8399  1.9023  2.3552
   70CHL1   C21 6338   5.136   2.003   3.688  0.8998  0.4636  0.3335
   70CHL1  H21A 6339   5.108   2.021   3.794 -3.1134 -2.5582  0.0488
   70CHL1  H21B 6340   5.167   1.896   3.683  0.1933  0.2742 -0.2734
   70CHL1  H21C 6341   5.047   2.004   3.621  2.2541 -0.9743 -1.6141
   70CHL1   C22 6342   5.218   2.249   3.709 -0.1436  0.5547  0.2300
   70CHL1  H22A 6343   5.296   2.322   3.680  0.5800 -0.1235  0.4133
   70CHL1  H22B 6344   5.128   2.293   3.662  0.6701  0.2747 -1.7164
   70CHL1   C23 6345   5.213   2.260   3.865 -0.2927  0.0133  0.6244
   70CHL1  H23A 6346   5.128   2.206   3.912 -0.8594  0.0019 -0.3855
   70CHL1  H23B 6347   5.305   2.208   3.898 -0.2530 -0.2135  0.1552
   70CHL1   C24 6348   5.230   2.408   3.926  0.0100 -0.0580  0.5793
   70CHL1  H24A 6349   5.315   2.458   3.875  0.1122  0.1917  0.9905
   70CHL1  H24B 6350   5.133   2.461   3.913  0.5085  1.3102  2.0013
   70CHL1   C25 6351   5.258   2.400   4.075  0.3028  0.4413 -0.8195
   70CHL1   H25 6352   5.342   2.330   4.095 -0.3199  0.3091  1.7615
   70CHL1   C26 6353   5.285   2.537   4.130  0.2713 -0.3305 -0.0846
   70CHL1  H26A 6354   5.200   2.605   4.110 -1.3208 -2.2605 -0.0715
   70CHL1  H26B 6355   5.309   2.534   4.238 -2.9360 -1.6533  0.6750
   70CHL1  H26C 6356   5.360   2.586   4.063 -1.4280 -0.1084 -1.8899
   70CHL1   C27 6357   5.139   2.341   4.157 -0.0755 -0.3199 -0.2095
   70CHL1  H27A 6358   5.052   2.407   4.138  0.2427 -0.5585 -2.8907
   70CHL1  H27B 6359   5.114   2.235   4.135  0.0766 -0.0870 -1.6634
   70CHL1  H27C 6360   5.164   2.338   4.265 -1.1139 -4.1548  0.0780
   71CHL1    C3 6361   2.361   6.687   2.460  0.4427 -0.1019  0.2041
   71CHL1    H3 6362   2.465   6.693   2.499  0.4719 -1.0958  0.3077
   71CHL1    O3 6363   2.347   6.793   2.366 -0.1561  0.1186 -0.4719
   71CHL1   H3' 6364   2.318   6.865   2.422 -0.5927 -1.6475  1.7066
   71CHL1    C4 6365   2.360   6.548   2.389  0.3941 -0.1686  0.1612
   71CHL1   H4A 6366   2.274   6.526   2.322 -0.1999  2.0432  0.1024
   71CHL1   H4B 6367   2.444   6.575   2.322  1.6088  2.6874  2.6258
   71CHL1    C5 6368   2.379   6.434   2.483  0.1517 -1.4338 -0.5437
   71CHL1    C6 6369   2.470   6.342   2.476 -0.5663  0.2141  1.1049
   71CHL1    H6 6370   2.534   6.357   2.388 -1.1157 -0.8168  0.5037
   71CHL1    C7 6371   2.485   6.221   2.556  0.3629  0.0169 -0.6647
   71CHL1   H7A 6372   2.498   6.131   2.493 -2.4700 -1.9340  1.3159
   71CHL1   H7B 6373   2.575   6.243   2.618 -0.2135  1.2145 -0.2248
   71CHL1    C8 6374   2.355   6.201   2.649 -0.1858  0.0450  0.0386
   71CHL1    H8 6375   2.277   6.153   2.586 -0.5358 -2.0722  1.9507
   71CHL1   C14 6376   2.381   6.105   2.772 -0.3267 -0.6854  0.2957
   71CHL1   H14 6377   2.459   6.165   2.822 -0.9509  1.9607 -1.6751
   71CHL1   C15 6378   2.457   5.971   2.748 -0.3103  0.2897 -0.3915
   71CHL1  H15A 6379   2.416   5.917   2.661  0.8996 -0.9304 -0.2403
   71CHL1  H15B 6380   2.566   5.990   2.732  0.1954 -0.5443  1.7093
   71CHL1   C16 6381   2.425   5.894   2.881  0.2842  0.1718  0.2763
   71CHL1  H16A 6382   2.371   5.811   2.831 -0.2974  2.4607 -3.2672
   71CHL1  H16B 6383   2.519   5.857   2.927  2.9123  1.1488 -3.7856
   71CHL1   C17 6384   2.342   5.986   2.973  0.6983 -0.3034  0.6875
   71CHL1   H17 6385   2.412   6.055   3.025  0.6695  0.3602 -0.1278
   71CHL1   C13 6386   2.271   6.082   2.875  0.2676 -0.0123 -0.0874
   71CHL1   C18 6387   2.161   6.006   2.799 -0.1065  0.1123 -0.2612
   71CHL1  H18A 6388   2.192   5.900   2.783  2.0274  0.7543 -0.6601
   71CHL1  H18B 6389   2.073   6.015   2.866  0.0732 -1.4722  0.2314
   71CHL1  H18C 6390   2.149   6.055   2.700  1.4807  1.1228  0.0255
   71CHL1   C12 6391   2.216   6.212   2.924 -0.0698  0.5548 -0.1806
   71CHL1  H12A 6392   2.114   6.203   2.966 -0.3765 -0.1563 -1.0609
   71CHL1  H12B 6393   2.290   6.261   2.991  1.1034  0.7096 -1.5466
   71CHL1   C11 6394   2.198   6.311   2.804 -0.0919  0.2177 -0.5683
   71CHL1  H11A 6395   2.109   6.271   2.752  0.0312  0.1080 -0.6970
   71CHL1  H11B 6396   2.172   6.406   2.855  1.8898  0.6049 -0.1817
   71CHL1    C9 6397   2.313   6.336   2.710 -0.0086  1.0714  0.4371
   71CHL1    H9 6398   2.398   6.385   2.761  2.2154 -0.3547 -1.6680
   71CHL1   C10 6399   2.283   6.441   2.603 -0.1223 -0.7300  0.0737
   71CHL1   C19 6400   2.130   6.424   2.548 -0.3241  0.2076 -0.0959
   71CHL1  H19A 6401   2.108   6.513   2.485  0.9194 -0.3754 -1.4282
   71CHL1  H19B 6402   2.125   6.334   2.482 -0.3904  1.4595 -1.8916
   71CHL1  H19C 6403   2.064   6.418   2.636  0.0301 -1.5851  0.0900
   71CHL1    C1 6404   2.296   6.579   2.671 -0.4022  0.1315 -0.3172
   71CHL1   H1A 6405   2.225   6.583   2.757 -0.8242 -0.0780 -0.6478
   71CHL1   H1B 6406   2.401   6.588   2.705 -0.0901  2.2951 -1.6359
   71CHL1    C2 6407   2.272   6.702   2.583  0.4789 -0.6440  0.3779
   71CHL1   H2A 6408   2.303   6.792   2.641  0.3503 -0.5245  0.2592
   71CHL1   H2B 6409   2.165   6.713   2.555  0.3101 -1.0194  0.8565
   71CHL1   C20 6410   2.256   5.909   3.074  0.2079 -1.3142 -0.2646
   71CHL1   H20 6411   2.174   5.854   3.023  0.3645 -1.4229 -0.4006
   71CHL1   C21 6412   2.182   5.997   3.176 -0.2757  0.1295  0.0834
   71CHL1  H21A 6413   2.254   6.078   3.203  1.0081 -0.6188 -0.9784
   71CHL1  H21B 6414   2.148   5.951   3.271  0.7964 -1.9605 -0.4816
   71CHL1  H21C 6415   2.087   6.031   3.130 -0.9887 -1.6388  0.1703
   71CHL1   C22 6416   2.334   5.798   3.143 -0.0439  0.6804 -0.4883
   71CHL1  H22A 6417   2.268   5.742   3.212 -0.8191 -0.3067 -1.9801
   71CHL1  H22B 6418   2.379   5.731   3.066  0.1114  2.1142 -1.6921
   71CHL1   C23 6419   2.448   5.855   3.239 -0.3274 -0.8801  0.5410
   71CHL1  H23A 6420   2.518   5.926   3.190  1.1787 -1.3732  1.8908
   71CHL1  H23B 6421   2.394   5.907   3.321 -0.1514  0.6720 -0.2993
   71CHL1   C24 6422   2.532   5.739   3.287  0.1254 -0.0099  0.9085
   71CHL1  H24A 6423   2.474   5.675   3.357 -0.0377 -0.8526  0.0269
   71CHL1  H24B 6424   2.555   5.677   3.198 -3.4210  2.1464 -1.7866
   71CHL1   C25 6425   2.667   5.766   3.357  0.3976  0.2738  1.0951
   71CHL1   H25 6426   2.705   5.667   3.390  3.2351  0.1078 -2.0988
   71CHL1   C26 6427   2.772   5.802   3.252  0.1633 -0.2447  0.4919
   71CHL1  H26A 6428   2.754   5.901   3.203  1.3724 -0.8350 -1.2417
   71CHL1  H26B 6429   2.873   5.811   3.295  1.3731  0.0373 -2.1852
   71CHL1  H26C 6430   2.782   5.723   3.174 -0.7031  0.9263 -0.8711
   71CHL1   C27 6431   2.664   5.863   3.476 -0.6506  0.0206  0.3795
   71CHL1  H27A 6432   2.633   5.960   3.431 -1.5298  0.3631  1.6580
   71CHL1  H27B 6433   2.584   5.838   3.549  0.5293 -0.5880  1.4781
   71CHL1  H27C 6434   2.760   5.874   3.529 -0.5746 -2.3839  0.8710
   72CHL1    C3 6435   3.849   5.252   2.291 -0.0174  0.0560  0.3628
   72CHL1    H3 6436   3.911   5.170   2.249 -3.3981 -2.1390 -0.8170
   72CHL1    O3 6437   3.785   5.328   2.188 -0.2251 -0.0042  0.1581
   72CHL1   H3' 6438   3.724   5.390   2.228 -0.5093  1.3554 -2.1773
   72CHL1    C4 6439   3.747   5.202   2.394  0.2573 -0.1265  0.3845
   72CHL1   H4A 6440   3.672   5.282   2.415  0.1302  0.5539 -2.3598
   72CHL1   H4B 6441   3.674   5.135   2.344  0.0886 -1.6327  2.5429
   72CHL1    C5 6442   3.800   5.135   2.515  0.3627  0.6568  0.3028
   72CHL1    C6 6443   3.751   5.014   2.556 -0.4722  0.4733  0.5505
   72CHL1    H6 6444   3.674   4.966   2.495  2.0318 -1.3348 -1.4184
   72CHL1    C7 6445   3.797   4.955   2.680  0.2518  0.1144 -0.5019
   72CHL1   H7A 6446   3.706   4.917   2.731 -1.3310  1.8112 -1.9256
   72CHL1   H7B 6447   3.838   4.853   2.663 -3.0099 -1.4543  0.1992
   72CHL1    C8 6448   3.879   5.052   2.777 -0.5580  0.2901 -0.0350
   72CHL1    H8 6449   3.796   5.113   2.818 -1.4168 -0.9290  0.0853
   72CHL1   C14 6450   3.947   4.983   2.891  0.2280 -1.2144 -0.2609
   72CHL1   H14 6451   4.036   4.927   2.856  0.9655  0.3639 -0.9731
   72CHL1   C15 6452   3.860   4.877   2.971  0.3872 -0.2392 -0.1085
   72CHL1  H15A 6453   3.761   4.923   2.992 -0.2971 -1.9205  0.4970
   72CHL1  H15B 6454   3.846   4.783   2.914  1.0970 -0.3361 -0.1406
   72CHL1   C16 6455   3.937   4.861   3.107 -0.4199 -0.5849 -0.6742
   72CHL1  H16A 6456   3.868   4.871   3.194  0.2311 -0.2204 -0.1907
   72CHL1  H16B 6457   3.988   4.764   3.126 -0.0615 -0.0424  1.3779
   72CHL1   C17 6458   4.050   4.972   3.106 -0.5446 -0.5822  0.3529
   72CHL1   H17 6459   4.144   4.920   3.076 -0.5136 -1.3352  1.6999
   72CHL1   C13 6460   4.007   5.076   2.995 -0.5182  0.1641 -0.7469
   72CHL1   C18 6461   3.902   5.172   3.050 -0.2117  0.1709 -0.1246
   72CHL1  H18A 6462   3.861   5.238   2.970 -1.2730  1.4373  1.3929
   72CHL1  H18B 6463   3.826   5.117   3.109  0.7244 -2.3956 -1.2104
   72CHL1  H18C 6464   3.958   5.243   3.114  2.3671 -1.3958 -0.5328
   72CHL1   C12 6465   4.120   5.150   2.924  0.6416  0.5788 -0.4245
   72CHL1  H12A 6466   4.181   5.220   2.987  2.3412 -0.0205 -1.3497
   72CHL1  H12B 6467   4.191   5.071   2.892 -0.7812 -2.1784  2.6730
   72CHL1   C11 6468   4.073   5.224   2.791 -0.2444  0.0361  0.3251
   72CHL1  H11A 6469   4.024   5.309   2.843  0.1910 -0.3421  1.4001
   72CHL1  H11B 6470   4.159   5.260   2.732 -0.4526  1.0033  0.5988
   72CHL1    C9 6471   3.979   5.139   2.699  0.4704 -0.2458  0.3328
   72CHL1    H9 6472   4.039   5.066   2.640 -2.1348 -0.2001 -2.6764
   72CHL1   C10 6473   3.907   5.222   2.585 -0.0344  0.4131  0.2054
   72CHL1   C19 6474   3.841   5.340   2.651  0.0099  0.1038 -0.2291
   72CHL1  H19A 6475   3.814   5.320   2.757  2.9480  0.2167  0.6524
   72CHL1  H19B 6476   3.918   5.420   2.657 -0.0679  0.2720 -1.2874
   72CHL1  H19C 6477   3.755   5.386   2.599 -1.0003 -2.6998 -1.2328
   72CHL1    C1 6478   4.013   5.265   2.483  0.1344  0.1315 -0.6255
   72CHL1   H1A 6479   4.095   5.323   2.531  1.5889 -1.3873 -1.1510
   72CHL1   H1B 6480   4.062   5.174   2.441  2.2693  0.9202  0.0141
   72CHL1    C2 6481   3.954   5.336   2.360  0.4123  0.4861 -0.0253
   72CHL1   H2A 6482   4.029   5.363   2.283  0.3341 -1.7980 -0.9856
   72CHL1   H2B 6483   3.906   5.426   2.404  0.4455  1.1131 -1.2138
   72CHL1   C20 6484   4.089   5.022   3.240 -0.2225 -0.6761 -0.0426
   72CHL1   H20 6485   3.999   5.079   3.270 -1.1641 -0.9501 -2.1587
   72CHL1   C21 6486   4.210   5.124   3.225  0.2209 -0.2604  0.5438
   72CHL1  H21A 6487   4.286   5.089   3.152  0.0899 -0.2254  0.3901
   72CHL1  H21B 6488   4.257   5.146   3.323  0.0999  2.6922  0.0422
   72CHL1  H21C 6489   4.191   5.224   3.180  1.2567 -0.4415 -0.3390
   72CHL1   C22 6490   4.119   4.914   3.357 -0.4372  0.0652 -0.1929
   72CHL1  H22A 6491   4.042   4.834   3.353  1.6485 -2.1324  0.8814
   72CHL1  H22B 6492   4.218   4.869   3.331 -0.7354  0.2269 -1.7318
   72CHL1   C23 6493   4.121   4.976   3.496  0.3642 -0.0432 -0.1033
   72CHL1  H23A 6494   4.169   4.910   3.572  2.1930  0.9473 -0.3356
   72CHL1  H23B 6495   4.179   5.070   3.502  2.3200 -1.2621  0.8617
   72CHL1   C24 6496   3.978   5.009   3.546  0.0605  0.2321  0.3144
   72CHL1  H24A 6497   3.923   5.062   3.465 -1.0610  1.8910  2.0664
   72CHL1  H24B 6498   3.913   4.922   3.568  1.8035 -1.0067  0.7712
   72CHL1   C25 6499   3.975   5.101   3.664  0.5654 -0.5508 -0.1006
   72CHL1   H25 6500   4.011   5.199   3.626 -0.8257  0.7028  1.6380
   72CHL1   C26 6501   3.832   5.147   3.710  0.5868  0.5662 -0.2622
   72CHL1  H26A 6502   3.760   5.184   3.633  0.3918  1.7233  0.4606
   72CHL1  H26B 6503   3.791   5.062   3.769  1.4215  0.1766 -0.2241
   72CHL1  H26C 6504   3.842   5.227   3.786  1.8967  0.0153  0.1777
   72CHL1   C27 6505   4.053   5.052   3.783 -0.4324  0.7494  0.2467
   72CHL1  H27A 6506   4.054   5.121   3.870 -0.3358  3.3074 -1.6640
   72CHL1  H27B 6507   4.028   4.953   3.825 -2.0924  0.9058 -0.3044
   72CHL1  H27C 6508   4.158   5.047   3.748 -0.3616 -0.9351  0.6057
   73CHL1    C3 6509   3.792   5.878   2.482  0.2128  0.0285  0.7182
   73CHL1    H3 6510   3.859   5.965   2.468  0.2278 -0.0412  0.3324
   73CHL1    O3 6511   3.784   5.814   2.353 -0.0687  0.1019  0.4033
   73CHL1   H3' 6512   3.692   5.802   2.328  0.7487 -1.2735 -2.3820
   73CHL1    C4 6513   3.852   5.769   2.567 -0.0247  1.0279 -0.4373
   73CHL1   H4A 6514   3.792   5.676   2.558 -1.0424  1.2606  2.7523
   73CHL1   H4B 6515   3.959   5.751   2.543  1.1253  4.2337  1.5097
   73CHL1    C5 6516   3.848   5.807   2.713  0.6126 -0.7432  0.7258
   73CHL1    C6 6517   3.951   5.821   2.790  0.0652  0.1699  0.2221
   73CHL1    H6 6518   4.049   5.790   2.750  0.0448  0.3891 -0.0019
   73CHL1    C7 6519   3.947   5.860   2.940 -0.4095 -0.4506 -0.1920
   73CHL1   H7A 6520   4.024   5.810   3.004 -0.6188  0.7523  1.0258
   73CHL1   H7B 6521   3.974   5.967   2.940  0.3194 -0.6168  1.0414
   73CHL1    C8 6522   3.810   5.853   3.003  0.0786 -0.1651 -0.7990
   73CHL1    H8 6523   3.790   5.743   3.007 -2.3272  0.2737  0.9397
   73CHL1   C14 6524   3.806   5.918   3.140  0.3868 -0.1926  0.0662
   73CHL1   H14 6525   3.831   6.026   3.130 -2.0376  0.5672  1.3857
   73CHL1   C15 6526   3.902   5.879   3.254  0.0291 -0.0124  0.2902
   73CHL1  H15A 6527   3.912   5.770   3.270  3.6410  0.1388 -0.0210
   73CHL1  H15B 6528   4.009   5.905   3.238  1.1331 -3.1898  1.7819
   73CHL1   C16 6529   3.843   5.943   3.379 -0.1324 -0.2383 -0.3857
   73CHL1  H16A 6530   3.843   5.859   3.452  3.2489 -1.0083 -1.0987
   73CHL1  H16B 6531   3.910   6.026   3.408  0.5598 -1.1776  0.8194
   73CHL1   C17 6532   3.705   5.999   3.342  0.6853 -0.4074  0.6965
   73CHL1   H17 6533   3.725   6.106   3.321  2.2949 -1.2977 -3.3426
   73CHL1   C13 6534   3.667   5.923   3.206 -0.2639  0.0844 -0.0205
   73CHL1   C18 6535   3.622   5.773   3.235  0.7759 -0.7743  0.2822
   73CHL1  H18A 6536   3.692   5.726   3.308 -2.7069 -3.0546  2.4153
   73CHL1  H18B 6537   3.520   5.778   3.278  0.4671  2.9167 -0.5149
   73CHL1  H18C 6538   3.627   5.714   3.141  0.5475  0.8958 -0.8241
   73CHL1   C12 6539   3.571   5.995   3.112  0.0638  0.0529  0.0883
   73CHL1  H12A 6540   3.470   5.981   3.156 -0.0451 -0.2087 -0.2402
   73CHL1  H12B 6541   3.599   6.102   3.117  0.9887 -0.1471 -0.5591
   73CHL1   C11 6542   3.571   5.944   2.963  0.0843  0.5689  0.0189
   73CHL1  H11A 6543   3.510   5.851   2.963  0.7930  0.0972 -0.0589
   73CHL1  H11B 6544   3.515   6.019   2.904 -1.8547 -1.6753 -1.1461
   73CHL1    C9 6545   3.712   5.915   2.905 -0.1191 -0.3633  0.4924
   73CHL1    H9 6546   3.753   6.017   2.894  1.3590 -1.0950 -1.4417
   73CHL1   C10 6547   3.713   5.854   2.761 -0.4808 -0.0212  0.1556
   73CHL1   C19 6548   3.611   5.736   2.767 -0.2894  0.2383  0.0286
   73CHL1  H19A 6549   3.502   5.754   2.782 -0.4060  1.0597 -1.5396
   73CHL1  H19B 6550   3.615   5.675   2.674  0.0269  0.4890 -0.1221
   73CHL1  H19C 6551   3.640   5.660   2.843 -0.7601  1.3869  1.3870
   73CHL1    C1 6552   3.652   5.958   2.672  0.2130 -0.7661 -0.5064
   73CHL1   H1A 6553   3.547   5.985   2.697  1.0172  0.9041  1.3962
   73CHL1   H1B 6554   3.715   6.049   2.687 -1.1549 -0.0816  1.7005
   73CHL1    C2 6555   3.655   5.923   2.520  0.4200  0.5339  0.2654
   73CHL1   H2A 6556   3.625   6.004   2.451 -0.3755  0.9972  1.1380
   73CHL1   H2B 6557   3.589   5.836   2.501  1.6874 -0.6407  1.0688
   73CHL1   C20 6558   3.604   5.989   3.455 -0.4397  0.3761 -0.2460
   73CHL1   H20 6559   3.585   5.883   3.479 -1.2307  0.3636 -0.8809
   73CHL1   C21 6560   3.475   6.068   3.412  0.6064  0.2784 -0.2296
   73CHL1  H21A 6561   3.410   6.009   3.344  3.1481 -2.9668 -0.0546
   73CHL1  H21B 6562   3.503   6.169   3.376  2.7120 -0.1160  0.2111
   73CHL1  H21C 6563   3.409   6.073   3.501 -2.4313 -3.8194 -1.9243
   73CHL1   C22 6564   3.657   6.042   3.591  0.4725 -0.0521  0.6401
   73CHL1  H22A 6565   3.572   6.035   3.662  0.6738 -2.6100  0.7056
   73CHL1  H22B 6566   3.738   5.978   3.633 -0.2993 -1.9966 -0.6853
   73CHL1   C23 6567   3.703   6.193   3.593  0.3221  0.1838 -0.7073
   73CHL1  H23A 6568   3.785   6.195   3.518 -1.0807 -3.8202 -2.6572
   73CHL1  H23B 6569   3.627   6.261   3.549 -1.6238 -1.6709 -0.4076
   73CHL1   C24 6570   3.763   6.229   3.729 -0.1889  0.5262  0.2771
   73CHL1  H24A 6571   3.852   6.165   3.745 -0.9967 -0.3432  1.4329
   73CHL1  H24B 6572   3.799   6.333   3.713 -0.0413  0.2269 -1.4944
   73CHL1   C25 6573   3.677   6.226   3.853 -0.1182 -0.8021  0.5938
   73CHL1   H25 6574   3.642   6.121   3.860  0.5976 -1.0073  1.2670
   73CHL1   C26 6575   3.763   6.255   3.978 -0.1264  0.3515  0.5766
   73CHL1  H26A 6576   3.798   6.361   3.973 -0.3818  0.4002 -0.6258
   73CHL1  H26B 6577   3.709   6.246   4.074 -0.4848  0.6246  0.4044
   73CHL1  H26C 6578   3.847   6.183   3.976 -1.4105 -1.1903 -1.2580
   73CHL1   C27 6579   3.561   6.318   3.836  0.3228 -0.3117  0.0218
   73CHL1  H27A 6580   3.593   6.424   3.827 -1.2748  0.0329 -2.2959
   73CHL1  H27B 6581   3.509   6.294   3.741  0.4969 -0.9028  0.0703
   73CHL1  H27C 6582   3.488   6.320   3.920 -0.8854 -0.7163 -0.9957
   74CHL1    C3 6583   3.277   4.820   2.867 -0.0114  0.1695  0.1983
   74CHL1    H3 6584   3.168   4.801   2.879 -0.0031 -0.5873 -0.7727
   74CHL1    O3 6585   3.302   4.835   2.725  0.0681 -0.0754 -0.3658
   74CHL1   H3' 6586   3.214   4.828   2.687  1.0204 -0.8048 -2.5950
   74CHL1    C4 6587   3.289   4.962   2.936 -0.5339 -0.0505  0.1967
   74CHL1   H4A 6588   3.385   5.000   2.896  1.5059 -0.3004  4.2986
   74CHL1   H4B 6589   3.206   5.026   2.900  0.4936 -0.2850 -2.8830
   74CHL1    C5 6590   3.297   4.948   3.084 -0.7283 -0.2973  0.6598
   74CHL1    C6 6591   3.217   5.028   3.150 -0.6271 -0.9939 -0.3156
   74CHL1    H6 6592   3.157   5.102   3.096  0.8145  0.4701  0.0042
   74CHL1    C7 6593   3.217   5.035   3.300 -0.2102 -0.4896 -0.4951
   74CHL1   H7A 6594   3.224   5.137   3.343 -1.7917 -0.3541 -0.4943
   74CHL1   H7B 6595   3.121   4.998   3.342  0.2315  0.0576  1.0703
   74CHL1    C8 6596   3.342   4.961   3.368 -0.5899 -0.2198 -0.0901
   74CHL1    H8 6597   3.432   5.024   3.352 -0.7561  0.0402  0.0035
   74CHL1   C14 6598   3.320   4.938   3.514 -0.6571  0.3044 -0.1898
   74CHL1   H14 6599   3.233   4.869   3.522  0.2161 -0.7405  0.7557
   74CHL1   C15 6600   3.285   5.061   3.605 -0.1765  0.5201  0.2011
   74CHL1  H15A 6601   3.342   5.146   3.564  2.5442 -2.0610 -1.8342
   74CHL1  H15B 6602   3.175   5.071   3.596  0.0866  1.4096 -3.2721
   74CHL1   C16 6603   3.342   5.026   3.738  0.1530 -0.2875  0.0410
   74CHL1  H16A 6604   3.417   5.107   3.751  0.9057 -0.8010 -1.0183
   74CHL1  H16B 6605   3.268   5.035   3.820 -1.0587 -1.8513 -0.8291
   74CHL1   C17 6606   3.405   4.885   3.730  0.4269  1.1962  0.2051
   74CHL1   H17 6607   3.311   4.825   3.740  1.3812 -0.5479 -0.7456
   74CHL1   C13 6608   3.438   4.867   3.587  0.3735  0.5558  0.2371
   74CHL1   C18 6609   3.571   4.940   3.560 -0.1043 -0.8368  0.0845
   74CHL1  H18A 6610   3.573   5.050   3.578 -1.2292 -0.9222  0.8454
   74CHL1  H18B 6611   3.648   4.902   3.630  0.1620  0.4545  0.5120
   74CHL1  H18C 6612   3.605   4.933   3.455 -0.7880  0.6540 -0.2688
   74CHL1   C12 6613   3.441   4.727   3.527  0.3703  0.1589  0.3033
   74CHL1  H12A 6614   3.511   4.662   3.583  0.8415  0.4937  0.1076
   74CHL1  H12B 6615   3.340   4.682   3.540  0.5250 -0.8535 -1.6482
   74CHL1   C11 6616   3.467   4.734   3.372  0.0507  0.0304  0.0845
   74CHL1  H11A 6617   3.576   4.755   3.362  0.5130 -1.9353  0.4805
   74CHL1  H11B 6618   3.448   4.633   3.330  0.9021  0.7604 -2.1748
   74CHL1    C9 6619   3.367   4.826   3.303 -0.2207  0.5691  1.1599
   74CHL1    H9 6620   3.270   4.772   3.306 -0.4947  0.8035 -1.4110
   74CHL1   C10 6621   3.391   4.844   3.152  1.2726  0.4342 -0.1914
   74CHL1   C19 6622   3.537   4.895   3.131  0.1080 -0.0386 -0.0642
   74CHL1  H19A 6623   3.560   4.928   3.028  3.0289 -1.1283  0.1643
   74CHL1  H19B 6624   3.562   4.978   3.199 -0.5996  0.4556 -0.3935
   74CHL1  H19C 6625   3.611   4.814   3.150  1.9295  1.1562 -1.7330
   74CHL1    C1 6626   3.357   4.711   3.084  0.1773  0.1836  0.3828
   74CHL1   H1A 6627   3.437   4.637   3.106 -0.0134 -0.5877 -1.3661
   74CHL1   H1B 6628   3.259   4.668   3.114 -1.1416 -0.2416 -3.8439
   74CHL1    C2 6629   3.358   4.707   2.930 -0.2641 -0.0524  0.1888
   74CHL1   H2A 6630   3.318   4.612   2.888 -0.2879  1.2459 -3.0388
   74CHL1   H2B 6631   3.462   4.729   2.898 -0.5375  0.3936 -0.4176
   74CHL1   C20 6632   3.502   4.845   3.845 -0.2400  0.5036  0.4095
   74CHL1   H20 6633   3.600   4.897   3.837  0.0247  0.0769  0.8135
   74CHL1   C21 6634   3.556   4.696   3.832 -0.5136 -0.3608  0.3104
   74CHL1  H21A 6635   3.485   4.611   3.827  0.8583 -1.6438  1.4077
   74CHL1  H21B 6636   3.617   4.673   3.922 -0.3174  0.3411  0.3581
   74CHL1  H21C 6637   3.620   4.687   3.741 -0.4920 -2.0748  0.4525
   74CHL1   C22 6638   3.434   4.862   3.987 -0.1387  0.3165  0.2104
   74CHL1  H22A 6639   3.403   4.968   4.000 -1.0467  0.0751  0.1043
   74CHL1  H22B 6640   3.352   4.788   3.999 -1.6163  2.0747  1.5422
   74CHL1   C23 6641   3.538   4.842   4.097 -0.0787 -0.0966 -0.7464
   74CHL1  H23A 6642   3.561   4.735   4.117  2.3579  0.9868  3.4659
   74CHL1  H23B 6643   3.635   4.880   4.061  0.3323 -1.0153 -0.6280
   74CHL1   C24 6644   3.494   4.915   4.224  0.0738  0.1781 -0.2263
   74CHL1  H24A 6645   3.481   5.024   4.213 -1.5959  0.1928  1.4563
   74CHL1  H24B 6646   3.396   4.870   4.249  0.3792 -0.6035 -0.3807
   74CHL1   C25 6647   3.578   4.883   4.353  0.3412  0.2955  0.2943
   74CHL1   H25 6648   3.579   4.773   4.365 -0.4805 -0.4037 -4.3635
   74CHL1   C26 6649   3.721   4.928   4.347 -0.0930  0.3793  0.3474
   74CHL1  H26A 6650   3.771   4.940   4.445 -0.3351 -0.3102  0.5570
   74CHL1  H26B 6651   3.781   4.864   4.278 -0.2243  0.4808  0.1366
   74CHL1  H26C 6652   3.715   5.032   4.307 -0.1472 -0.2964 -1.5412
   74CHL1   C27 6653   3.509   4.936   4.481  0.3425 -0.0304 -0.4983
   74CHL1  H27A 6654   3.536   5.042   4.497  0.3156  0.1671 -1.6265
   74CHL1  H27B 6655   3.399   4.925   4.474  0.0988  1.4911  0.5480
   74CHL1  H27C 6656   3.546   4.878   4.568 -1.9954 -0.7335  0.0792
   75CHL1    C3 6657   2.679   3.018   2.430 -0.0196  0.3055  0.5765
   75CHL1    H3 6658   2.610   2.934   2.454 -2.7216  1.8279 -1.3288
   75CHL1    O3 6659   2.702   3.034   2.293 -0.5670 -0.2349  0.0900
   75CHL1   H3' 6660   2.644   2.973   2.247  1.8920 -2.4842 -0.3005
   75CHL1    C4 6661   2.624   3.147   2.484 -0.2309 -0.5001 -0.2630
   75CHL1   H4A 6662   2.689   3.235   2.469 -2.1314  0.8755 -0.7685
   75CHL1   H4B 6663   2.533   3.169   2.424 -1.4703 -0.2294  1.6330
   75CHL1    C5 6664   2.603   3.132   2.639 -0.0210 -0.4778  0.0202
   75CHL1    C6 6665   2.482   3.144   2.693  1.0914 -0.1015 -0.8919
   75CHL1    H6 6666   2.394   3.166   2.631 -0.3996 -1.2486  0.7208
   75CHL1    C7 6667   2.454   3.146   2.838 -0.3901  0.8845  0.0504
   75CHL1   H7A 6668   2.380   3.227   2.854 -2.3647 -0.3821 -2.0991
   75CHL1   H7B 6669   2.422   3.042   2.864  1.4022 -0.4969 -2.7951
   75CHL1    C8 6670   2.588   3.180   2.914  0.0316 -0.2470  0.0506
   75CHL1    H8 6671   2.603   3.288   2.896 -1.8254  0.1081  0.4296
   75CHL1   C14 6672   2.559   3.146   3.058  0.2104 -0.2295  0.0969
   75CHL1   H14 6673   2.527   3.040   3.061 -1.5101  0.1158 -2.5668
   75CHL1   C15 6674   2.440   3.222   3.126 -0.0297 -0.0715  0.5412
   75CHL1  H15A 6675   2.435   3.327   3.089 -0.6569  0.5522  2.3102
   75CHL1  H15B 6676   2.340   3.179   3.103 -0.2078  1.6806 -2.4273
   75CHL1   C16 6677   2.474   3.232   3.272 -0.0140  0.3289  0.1548
   75CHL1  H16A 6678   2.467   3.338   3.306 -1.2143  0.0995  0.6802
   75CHL1  H16B 6679   2.403   3.177   3.338 -0.5110  1.2012  0.3622
   75CHL1   C17 6680   2.618   3.170   3.282  0.3250  0.6525 -0.0250
   75CHL1   H17 6681   2.603   3.061   3.295 -0.3805  0.6536 -0.7553
   75CHL1   C13 6682   2.682   3.173   3.143  0.9873 -0.0281 -0.4315
   75CHL1   C18 6683   2.723   3.317   3.122  0.6811 -0.8961 -0.0988
   75CHL1  H18A 6684   2.760   3.340   3.020 -0.4007  1.4753 -0.0021
   75CHL1  H18B 6685   2.638   3.385   3.141  2.4141  1.7102 -1.0714
   75CHL1  H18C 6686   2.804   3.355   3.188  0.7212 -1.5802  0.2619
   75CHL1   C12 6687   2.779   3.058   3.104  0.1907 -0.8120 -0.1961
   75CHL1  H12A 6688   2.871   3.053   3.167 -0.1653 -0.8395  0.3290
   75CHL1  H12B 6689   2.726   2.960   3.108 -0.1886 -0.5733  0.7214
   75CHL1   C11 6690   2.826   3.078   2.967  0.4309 -0.0656  0.4612
   75CHL1  H11A 6691   2.878   3.177   2.961  0.2134  0.1861  2.1953
   75CHL1  H11B 6692   2.897   2.997   2.943 -1.5576 -1.6187 -0.4237
   75CHL1    C9 6693   2.706   3.089   2.861  0.2618  0.4155 -0.1140
   75CHL1    H9 6694   2.663   2.988   2.876 -1.4088  1.3523  2.0098
   75CHL1   C10 6695   2.737   3.108   2.717 -0.1686 -0.4762 -0.3600
   75CHL1   C19 6696   2.828   3.234   2.698 -0.5214 -0.8479 -0.4316
   75CHL1  H19A 6697   2.929   3.223   2.743 -0.7723  0.2963  0.4333
   75CHL1  H19B 6698   2.848   3.272   2.595  2.9152 -0.8191  0.1142
   75CHL1  H19C 6699   2.780   3.323   2.743 -0.5166  0.7066 -3.2323
   75CHL1    C1 6700   2.797   2.981   2.652 -0.2148 -0.1798  0.2522
   75CHL1   H1A 6701   2.901   2.965   2.689  0.4507 -0.5182 -1.6910
   75CHL1   H1B 6702   2.734   2.893   2.677 -0.5317  0.1820  0.7418
   75CHL1    C2 6703   2.814   2.992   2.500  0.6100  0.0292  0.2221
   75CHL1   H2A 6704   2.862   2.895   2.473 -2.0857 -1.6744  1.0505
   75CHL1   H2B 6705   2.876   3.082   2.484 -0.4681  0.4249 -2.1501
   75CHL1   C20 6706   2.694   3.229   3.398 -0.4374  0.4162  0.3456
   75CHL1   H20 6707   2.692   3.338   3.377 -3.4787  0.4651  0.5022
   75CHL1   C21 6708   2.846   3.179   3.401  0.6897  0.5016  0.0671
   75CHL1  H21A 6709   2.848   3.068   3.390 -1.2732  0.6819 -3.8837
   75CHL1  H21B 6710   2.903   3.213   3.490  2.2844 -1.1903 -0.2551
   75CHL1  H21C 6711   2.906   3.209   3.313  2.1509 -0.6800  0.6136
   75CHL1   C22 6712   2.627   3.229   3.536 -0.4951 -0.3209 -0.3714
   75CHL1  H22A 6713   2.528   3.276   3.520 -0.4233  0.3752  1.1001
   75CHL1  H22B 6714   2.603   3.125   3.567 -0.1097  0.2140  1.8522
   75CHL1   C23 6715   2.703   3.303   3.647 -0.3205  0.3939  0.9953
   75CHL1  H23A 6716   2.788   3.243   3.687 -1.9742 -2.6917  0.1794
   75CHL1  H23B 6717   2.749   3.400   3.620 -0.6737  0.3412  0.1783
   75CHL1   C24 6718   2.617   3.340   3.771 -0.1851 -0.3598 -0.1371
   75CHL1  H24A 6719   2.557   3.427   3.739 -4.2963 -2.0900  2.1175
   75CHL1  H24B 6720   2.550   3.253   3.786  1.5091 -1.5947  0.5966
   75CHL1   C25 6721   2.698   3.380   3.890 -0.1931  0.3919 -0.1268
   75CHL1   H25 6722   2.782   3.444   3.856  0.1999  0.0355  0.1656
   75CHL1   C26 6723   2.601   3.456   3.991  0.5662 -0.4285 -0.3921
   75CHL1  H26A 6724   2.501   3.411   4.006  0.6016 -0.6649 -0.8434
   75CHL1  H26B 6725   2.645   3.462   4.093 -0.6456  5.6701  0.1496
   75CHL1  H26C 6726   2.572   3.559   3.963  0.3107 -1.0069 -2.4487
   75CHL1   C27 6727   2.757   3.255   3.959  0.2762  0.0182 -0.6034
   75CHL1  H27A 6728   2.829   3.196   3.897  1.2910 -0.3948  0.9053
   75CHL1  H27B 6729   2.808   3.288   4.053  0.3919  0.0045 -0.6613
   75CHL1  H27C 6730   2.673   3.190   3.992 -0.1613 -0.2139 -2.1008
   76CHL1    C3 6731   2.163   0.318   2.797  0.0864  0.0404 -0.0005
   76CHL1    H3 6732   2.189   0.215   2.830 -1.4014 -0.1789  0.5738
   76CHL1    O3 6733   2.142   0.334   2.654 -0.2550 -0.5520 -0.1827
   76CHL1   H3' 6734   2.109   0.424   2.651  3.4895  1.1130  1.5641
   76CHL1    C4 6735   2.035   0.352   2.875 -0.4869 -0.2896 -0.4101
   76CHL1   H4A 6736   1.999   0.454   2.850  0.5427  0.1327 -0.2007
   76CHL1   H4B 6737   1.953   0.291   2.832 -0.9742 -1.7038  2.3265
   76CHL1    C5 6738   2.067   0.332   3.025 -0.1694 -0.0862  0.1995
   76CHL1    C6 6739   2.000   0.244   3.101  0.2577  0.2839  0.4900
   76CHL1    H6 6740   1.925   0.180   3.052  0.5191  0.1407  0.2816
   76CHL1    C7 6741   2.016   0.226   3.246  0.0762 -0.3027  0.1368
   76CHL1   H7A 6742   1.919   0.218   3.298 -0.7694  0.5622 -1.2228
   76CHL1   H7B 6743   2.073   0.135   3.277  0.1153 -0.3738 -0.1397
   76CHL1    C8 6744   2.080   0.348   3.311  0.3044  0.2151  0.3699
   76CHL1    H8 6745   2.009   0.433   3.315  1.6763  1.4926 -0.9909
   76CHL1   C14 6746   2.126   0.308   3.454 -0.3428 -0.1659  0.4741
   76CHL1   H14 6747   2.197   0.223   3.444 -0.2184  0.0337 -0.4395
   76CHL1   C15 6748   2.031   0.246   3.556  0.5297  0.5864 -1.0439
   76CHL1  H15A 6749   1.932   0.295   3.572 -0.7989 -2.4337  0.7869
   76CHL1  H15B 6750   2.011   0.138   3.537 -2.3134  1.1684 -1.9111
   76CHL1   C16 6751   2.095   0.281   3.691  0.4364 -0.0829  0.2137
   76CHL1  H16A 6752   2.035   0.327   3.772  0.3936 -0.1435  0.2161
   76CHL1  H16B 6753   2.131   0.185   3.734 -0.9485 -1.2558 -1.1238
   76CHL1   C17 6754   2.221   0.367   3.664  0.4415 -0.8464  0.8441
   76CHL1   H17 6755   2.299   0.289   3.653  1.9076  0.5552  1.0146
   76CHL1   C13 6756   2.206   0.424   3.529  0.0987 -0.7340  0.2436
   76CHL1   C18 6757   2.118   0.551   3.528  0.3217 -0.2344 -0.1752
   76CHL1  H18A 6758   2.096   0.598   3.430 -1.0426 -0.2880  0.0834
   76CHL1  H18B 6759   2.025   0.511   3.575  0.6394 -1.0515 -0.2360
   76CHL1  H18C 6760   2.152   0.632   3.596 -0.1277 -0.3388  0.1850
   76CHL1   C12 6761   2.344   0.445   3.452  0.3614  0.4418  0.7493
   76CHL1  H12A 6762   2.393   0.533   3.499  3.0780 -1.5622  1.9796
   76CHL1  H12B 6763   2.410   0.356   3.458  0.8553  0.7624  0.1255
   76CHL1   C11 6764   2.313   0.480   3.300  0.0027 -0.1002 -0.1300
   76CHL1  H11A 6765   2.279   0.585   3.311  0.0942 -0.0837 -0.0007
   76CHL1  H11B 6766   2.409   0.495   3.246 -0.0152  0.5159  0.0043
   76CHL1    C9 6767   2.212   0.390   3.231  0.0479  0.1894  0.5007
   76CHL1    H9 6768   2.269   0.294   3.227  0.6716  0.5811 -0.3079
   76CHL1   C10 6769   2.182   0.425   3.086 -0.0489 -0.1020 -0.1512
   76CHL1   C19 6770   2.132   0.573   3.081 -0.8530  0.3127 -0.0318
   76CHL1  H19A 6771   2.094   0.597   2.979  1.4759 -2.2211 -1.6509
   76CHL1  H19B 6772   2.051   0.586   3.156  0.9747  0.8682  1.9533
   76CHL1  H19C 6773   2.217   0.641   3.103 -0.2425 -0.3470 -0.2946
   76CHL1    C1 6774   2.300   0.395   2.994 -0.8106  0.1427 -0.4730
   76CHL1   H1A 6775   2.386   0.458   3.025  1.1336 -2.3501 -0.5100
   76CHL1   H1B 6776   2.342   0.293   3.004  0.6590  0.4668 -2.5899
   76CHL1    C2 6777   2.276   0.406   2.839  0.3823 -0.1339 -0.0056
   76CHL1   H2A 6778   2.368   0.366   2.790  0.0083 -2.2940  0.9132
   76CHL1   H2B 6779   2.260   0.507   2.796 -0.5969  0.3143  1.3411
   76CHL1   C20 6780   2.267   0.450   3.781 -0.1243  0.1122 -0.5016
   76CHL1   H20 6781   2.347   0.516   3.741  0.5391 -0.7339 -0.6074
   76CHL1   C21 6782   2.344   0.356   3.882 -0.3278  0.2276 -0.1030
   76CHL1  H21A 6783   2.274   0.275   3.912 -1.0399 -0.0810 -2.3976
   76CHL1  H21B 6784   2.376   0.426   3.962  0.5713 -0.5151  0.1999
   76CHL1  H21C 6785   2.438   0.311   3.846  0.8235  1.2622  1.5012
   76CHL1   C22 6786   2.168   0.543   3.858  0.4826  1.0123  0.2896
   76CHL1  H22A 6787   2.086   0.579   3.792 -0.0783 -1.8147 -0.7032
   76CHL1  H22B 6788   2.099   0.480   3.919  1.3570 -0.5985 -0.3176
   76CHL1   C23 6789   2.236   0.656   3.931 -0.6148 -0.6260 -0.0439
   76CHL1  H23A 6790   2.316   0.613   3.995  0.9115  0.7042 -0.9945
   76CHL1  H23B 6791   2.263   0.733   3.856 -1.1039  2.3728  2.6779
   76CHL1   C24 6792   2.142   0.726   4.026 -0.6590  0.9487  0.4815
   76CHL1  H24A 6793   2.046   0.748   3.975 -0.8354  0.0958  0.4286
   76CHL1  H24B 6794   2.114   0.655   4.107 -0.8072 -1.1771 -1.3425
   76CHL1   C25 6795   2.190   0.855   4.095  0.1416 -0.5717 -0.7378
   76CHL1   H25 6796   2.291   0.836   4.139  0.8963 -0.4789 -2.3523
   76CHL1   C26 6797   2.221   0.967   3.993 -0.2506  0.0123  0.9484
   76CHL1  H26A 6798   2.135   0.986   3.927 -0.1629 -1.2476  0.4459
   76CHL1  H26B 6799   2.250   1.063   4.042  0.7690 -0.0631  0.5124
   76CHL1  H26C 6800   2.313   0.941   3.936 -1.1486 -1.1811  0.0187
   76CHL1   C27 6801   2.089   0.895   4.205  0.2931  0.2470 -0.0173
   76CHL1  H27A 6802   2.086   0.810   4.277  0.2810  1.1451  1.0539
   76CHL1  H27B 6803   2.090   0.990   4.262  0.0376  0.4219 -0.3008
   76CHL1  H27C 6804   1.989   0.905   4.158 -0.1493  0.2331  0.9005
   77SOPE     N 6805   0.305   4.706   6.733  0.1666 -0.0809 -0.0507
   77SOPE   HN1 6806   0.289   4.604   6.746 -1.1557 -0.0861 -1.4050
   77SOPE   HN2 6807   0.346   4.732   6.825  3.3350 -0.6755 -1.1931
   77SOPE   HN3 6808   0.215   4.753   6.713  0.4745  0.2509 -0.6629
   77SOPE   C12 6809   0.409   4.731   6.629  0.1731 -0.1420 -0.3328
   77SOPE  H12A 6810   0.426   4.840   6.634  0.9728 -0.2333 -1.0123
   77SOPE  H12B 6811   0.369   4.709   6.528  1.8710  0.6341 -1.2147
   77SOPE   C11 6812   0.533   4.640   6.661  0.4608  0.2192  0.5747
   77SOPE  H11A 6813   0.500   4.535   6.672  1.1439 -0.0914 -0.2640
   77SOPE  H11B 6814   0.573   4.666   6.762 -1.7338  1.8164  1.1299
   77SOPE     P 6815   0.654   4.593   6.424  0.0530  0.0911  0.1636
   77SOPE   O13 6816   0.528   4.625   6.344 -0.1966 -0.0254  0.0176
   77SOPE   O14 6817   0.689   4.446   6.436 -0.1691 -0.6648  0.0947
   77SOPE   O12 6818   0.641   4.656   6.564  0.5521 -0.0189 -0.3189
   77SOPE   O11 6819   0.777   4.675   6.356  0.1715 -0.2589  0.0174
   77SOPE    C1 6820   0.904   4.678   6.427  0.8059 -0.1201  0.1527
   77SOPE    HA 6821   0.914   4.601   6.506  3.3688  1.2375  1.2860
   77SOPE    HB 6822   0.907   4.764   6.497 -0.7923 -1.6082  2.1709
   77SOPE    C2 6823   1.018   4.684   6.322  0.7970 -0.4377 -0.0053
   77SOPE    HS 6824   1.104   4.651   6.384  0.0070  0.1952  1.4649
   77SOPE   O21 6825   1.040   4.802   6.240 -0.2942 -0.6462 -0.2465
   77SOPE   C21 6826   1.076   4.910   6.317  0.0929  0.2789 -0.8171
   77SOPE   O22 6827   1.063   4.918   6.437  0.0608 -0.2182 -0.3538
   77SOPE   C22 6828   1.134   5.016   6.226  0.9459 -0.1394  0.4216
   77SOPE   H2R 6829   1.116   5.105   6.291 -3.3627  1.3254 -2.3561
   77SOPE   H2S 6830   1.069   5.015   6.136  1.1648 -2.0873  0.2485
   77SOPE    C3 6831   1.003   4.556   6.224 -0.6099 -0.3435  0.1966
   77SOPE    HX 6832   0.912   4.577   6.164  2.0370  1.6189 -3.5020
   77SOPE    HY 6833   0.987   4.467   6.289  1.5214 -0.8126  0.1655
   77SOPE   O31 6834   1.113   4.551   6.129 -0.3621  0.0312  0.1523
   77SOPE   C31 6835   1.216   4.471   6.158  0.3704 -0.1350  0.2668
   77SOPE   O32 6836   1.224   4.399   6.255 -0.3937  0.6178  0.1414
   77SOPE   C32 6837   1.321   4.488   6.050 -0.1659 -0.0935 -0.1633
   77SOPE   H2X 6838   1.409   4.426   6.077 -0.3582  0.5321  2.1703
   77SOPE   H2Y 6839   1.354   4.592   6.030  4.6840 -1.1765  0.9104
   77SOPE   C23 6840   1.286   4.998   6.181  0.1448  0.6019  0.4318
   77SOPE   H3R 6841   1.349   4.968   6.268  1.5125 -0.5423 -0.9178
   77SOPE   H3S 6842   1.318   5.096   6.140 -1.3760  2.1682  2.7033
   77SOPE   C24 6843   1.307   4.894   6.065 -0.4439 -0.2665  0.7155
   77SOPE   H4R 6844   1.416   4.875   6.057 -0.6700 -1.9946  1.2028
   77SOPE   H4S 6845   1.259   4.795   6.080  2.3500 -1.5372  2.0465
   77SOPE   C25 6846   1.238   4.940   5.928 -0.0860  0.6470 -0.3471
   77SOPE   H5R 6847   1.128   4.939   5.944  0.1338 -0.5480  1.3096
   77SOPE   H5S 6848   1.252   5.049   5.911 -0.6268  0.8168  0.2497
   77SOPE   C26 6849   1.285   4.853   5.815  0.3507  0.4085  0.0641
   77SOPE   H6R 6850   1.396   4.853   5.806  0.4078  0.1605  0.6921
   77SOPE   H6S 6851   1.275   4.747   5.847 -0.7098  0.4395 -0.1620
   77SOPE   C27 6852   1.203   4.887   5.690  0.3432 -0.5942 -0.2096
   77SOPE   H7R 6853   1.094   4.876   5.710  0.7382 -3.2471  0.7945
   77SOPE   H7S 6854   1.214   4.994   5.663 -3.0027 -0.3127 -0.9538
   77SOPE   C28 6855   1.243   4.784   5.582 -0.1118 -0.3559 -0.7490
   77SOPE   H8R 6856   1.345   4.815   5.550  0.1029  1.9774  1.8066
   77SOPE   H8S 6857   1.247   4.684   5.629 -1.0546  0.1456  0.4491
   77SOPE   C29 6858   1.147   4.782   5.469  0.8668 -0.4647 -0.3227
   77SOPE   H91 6859   1.069   4.705   5.471  0.3920  0.0025  1.7704
   77SOPE  C210 6860   1.146   4.870   5.369  0.8834 -0.0033  0.1315
   77SOPE  H101 6861   1.057   4.872   5.306  0.1414  1.1874  1.1606
   77SOPE  C211 6862   1.246   4.980   5.354  0.1108 -1.2226 -0.2368
   77SOPE  H11R 6863   1.346   4.965   5.399  1.3130  2.6736 -1.2080
   77SOPE  H11S 6864   1.195   5.071   5.393  1.0066 -0.3914 -0.9463
   77SOPE  C212 6865   1.260   5.015   5.203 -0.2999  0.3679  0.2425
   77SOPE  H12R 6866   1.338   5.094   5.193  3.5317 -3.2567 -1.6308
   77SOPE  H12S 6867   1.166   5.055   5.161 -2.6332 -1.8684  2.9437
   77SOPE  C213 6868   1.317   4.904   5.111  0.1455  0.2952 -0.0710
   77SOPE  H13R 6869   1.346   4.825   5.183  1.8345  2.0637  1.3125
   77SOPE  H13S 6870   1.395   4.935   5.038 -0.3130  1.4940 -0.0725
   77SOPE  C214 6871   1.209   4.843   5.021 -0.1746  0.7851 -0.0340
   77SOPE  H14R 6872   1.114   4.827   5.077 -1.0576  0.3751 -1.5954
   77SOPE  H14S 6873   1.233   4.745   4.975 -1.0863  2.1346 -3.7349
   77SOPE  C215 6874   1.175   4.939   4.900 -0.0931 -0.3842 -0.0588
   77SOPE  H15R 6875   1.271   4.966   4.850 -0.1866 -1.7353 -1.0378
   77SOPE  H15S 6876   1.118   5.030   4.926 -0.1387  0.9298 -4.0566
   77SOPE  C216 6877   1.079   4.867   4.800 -0.1138 -0.7657  0.1087
   77SOPE  H16R 6878   0.983   4.846   4.852 -0.2902  0.6795  0.3944
   77SOPE  H16S 6879   1.129   4.776   4.760 -0.1558  0.0465 -1.9253
   77SOPE  C217 6880   1.047   4.954   4.679  0.0957 -0.4381  1.0711
   77SOPE  H17R 6881   1.137   4.981   4.620 -0.7720  1.4710  0.5679
   77SOPE  H17S 6882   1.013   5.053   4.715  4.1842  0.8258  2.0490
   77SOPE  C218 6883   0.945   4.899   4.593 -0.0441  0.4378  0.7627
   77SOPE  H18R 6884   0.984   4.826   4.519  0.3403  1.1391  0.2696
   77SOPE  H18S 6885   0.894   4.982   4.540  2.0451 -0.3530 -2.7852
   77SOPE  H18T 6886   0.868   4.847   4.654 -0.8223  1.5838  0.8012
   77SOPE   C33 6887   1.260   4.419   5.927 -0.2312 -0.5890  0.1178
   77SOPE   H3X 6888   1.188   4.493   5.886  0.7740  0.6228  0.4704
   77SOPE   H3Y 6889   1.210   4.321   5.941 -0.1980 -0.9775 -2.0466
   77SOPE   C34 6890   1.359   4.389   5.814 -0.4044  0.1353 -0.1937
   77SOPE   H4X 6891   1.429   4.312   5.854  1.2536  1.7129  0.0482
   77SOPE   H4Y 6892   1.416   4.476   5.776 -3.8264  2.2508 -0.9359
   77SOPE   C35 6893   1.291   4.343   5.684  0.2363 -0.0781 -0.1801
   77SOPE   H5X 6894   1.195   4.398   5.671  0.8360  0.5941 -2.3530
   77SOPE   H5Y 6895   1.269   4.234   5.686  0.2377 -0.0687  0.3100
   77SOPE   C36 6896   1.378   4.375   5.562 -0.4775 -0.4162 -0.3310
   77SOPE   H6X 6897   1.477   4.326   5.576 -0.0839  0.4380 -0.0634
   77SOPE   H6Y 6898   1.406   4.482   5.561  0.2732 -0.5848  0.8298
   77SOPE   C37 6899   1.313   4.334   5.429 -0.1018 -0.9449 -0.4655
   77SOPE   H7X 6900   1.226   4.401   5.414 -0.5909 -1.4662 -0.0279
   77SOPE   H7Y 6901   1.304   4.224   5.416  0.9384 -1.1906  0.6501
   77SOPE   C38 6902   1.396   4.381   5.305  0.0997  0.3305 -0.7660
   77SOPE   H8X 6903   1.498   4.348   5.335 -0.2352 -0.2369 -0.2235
   77SOPE   H8Y 6904   1.397   4.492   5.303  1.7424  0.5297  2.8723
   77SOPE   C39 6905   1.354   4.314   5.174 -0.1766 -0.0665 -0.1166
   77SOPE   H9X 6906   1.267   4.371   5.136 -0.3086  0.5903  1.1336
   77SOPE   H9Y 6907   1.315   4.211   5.187  0.7556 -0.7673 -2.2772
   77SOPE  C310 6908   1.459   4.326   5.073 -0.2016 -0.0356  0.8426
   77SOPE  H10X 6909   1.545   4.256   5.083 -1.5075 -2.0956 -1.2283
   77SOPE  H10Y 6910   1.510   4.424   5.082 -0.8877  0.3390  0.6706
   77SOPE  C311 6911   1.411   4.330   4.930 -0.4482  0.5787 -0.0555
   77SOPE  H11X 6912   1.343   4.418   4.926 -2.1581 -0.7187 -0.2869
   77SOPE  H11Y 6913   1.354   4.237   4.907 -1.2617  1.2920 -1.0118
   77SOPE  C312 6914   1.523   4.339   4.830 -0.4331  0.0844  0.0534
   77SOPE  H12X 6915   1.555   4.234   4.810  0.0151 -0.1210  1.6697
   77SOPE  H12Y 6916   1.603   4.400   4.877  1.5595 -2.7714  0.6140
   77SOPE  C313 6917   1.472   4.399   4.702  0.1378  0.0182  0.3250
   77SOPE  H13X 6918   1.439   4.505   4.710  2.3230  0.7913  0.0477
   77SOPE  H13Y 6919   1.393   4.337   4.655  1.5372 -0.5397 -1.4059
   77SOPE  C314 6920   1.577   4.407   4.588 -0.7301 -0.3458 -0.2759
   77SOPE  H14X 6921   1.625   4.308   4.574  0.9039  0.2876  0.5402
   77SOPE  H14Y 6922   1.658   4.477   4.618  0.7985 -1.9654 -0.4211
   77SOPE  C315 6923   1.522   4.460   4.455 -0.4582  0.6788  0.8182
   77SOPE  H15X 6924   1.604   4.508   4.399  0.6448 -0.9944  0.9389
   77SOPE  H15Y 6925   1.443   4.537   4.473 -0.3240  1.1942 -0.6812
   77SOPE  C316 6926   1.466   4.355   4.362 -0.1477 -0.0238  0.0985
   77SOPE  H16X 6927   1.410   4.403   4.279  0.3167  2.0192  0.9101
   77SOPE  H16Y 6928   1.403   4.277   4.409  0.0940  0.0730  0.5886
   77SOPE  C317 6929   1.566   4.270   4.287 -0.1304 -0.0263  0.1119
   77SOPE  H17X 6930   1.636   4.222   4.358  0.3046  1.2147  0.5532
   77SOPE  H17Y 6931   1.630   4.338   4.226 -1.1232 -0.5584 -1.5938
   77SOPE  C318 6932   1.506   4.154   4.203  0.3612  0.1270 -0.3738
   77SOPE  H18X 6933   1.439   4.196   4.124  0.2295 -2.1490 -1.5582
   77SOPE  H18Y 6934   1.442   4.102   4.277 -0.0186  0.1358 -0.6941
   77SOPE  H18Z 6935   1.579   4.082   4.159 -3.1121 -3.3662 -0.9939
   78SOPE     N 6936   0.763   4.959   6.723  0.2150  0.1763  0.6198
   78SOPE   HN1 6937   0.821   5.015   6.789  1.4198 -1.1401  0.7478
   78SOPE   HN2 6938   0.666   4.960   6.760 -0.2670  0.4535 -0.6318
   78SOPE   HN3 6939   0.793   4.859   6.732 -1.9008 -0.5642  0.1214
   78SOPE   C12 6940   0.776   5.003   6.581  0.1222 -0.0640 -0.2977
   78SOPE  H12A 6941   0.749   4.910   6.525  0.8826  0.0901 -0.9376
   78SOPE  H12B 6942   0.882   5.023   6.557  0.2742 -0.8089 -0.2636
   78SOPE   C11 6943   0.692   5.125   6.548 -0.0893  0.8459  0.1062
   78SOPE  H11A 6944   0.709   5.127   6.438  3.9034 -0.9578  0.5295
   78SOPE  H11B 6945   0.735   5.217   6.594 -0.2998  1.6524 -1.2499
   78SOPE     P 6946   0.446   5.216   6.558  0.3723 -0.1315 -0.4296
   78SOPE   O13 6947   0.451   5.314   6.666  0.0351 -0.6240  0.0385
   78SOPE   O14 6948   0.315   5.142   6.552 -0.0657 -0.2631 -0.5151
   78SOPE   O12 6949   0.560   5.112   6.583  0.0895 -0.0454 -0.5038
   78SOPE   O11 6950   0.476   5.285   6.417 -0.4879 -0.1631 -1.0196
   78SOPE    C1 6951   0.371   5.369   6.366  0.0046 -0.0537  0.4141
   78SOPE    HA 6952   0.395   5.468   6.409  3.4784 -0.8634  0.6707
   78SOPE    HB 6953   0.272   5.347   6.410  0.3568  0.6870  1.6070
   78SOPE    C2 6954   0.388   5.381   6.213  0.2106  0.2695  0.1998
   78SOPE    HS 6955   0.304   5.445   6.178 -0.5775  0.3105  2.0520
   78SOPE   O21 6956   0.385   5.251   6.149 -0.1971  0.2725 -0.0062
   78SOPE   C21 6957   0.262   5.207   6.138  0.5701 -0.0772 -0.3512
   78SOPE   O22 6958   0.161   5.272   6.158  0.0999  0.2464 -0.4688
   78SOPE   C22 6959   0.268   5.072   6.065  0.0804  0.2876  0.2516
   78SOPE   H2R 6960   0.264   4.997   6.147 -0.3270 -0.8335 -0.7578
   78SOPE   H2S 6961   0.361   5.066   6.003 -0.7707 -2.3464 -0.9244
   78SOPE    C3 6962   0.511   5.468   6.172  0.0024  0.7621 -0.4729
   78SOPE    HX 6963   0.604   5.414   6.199 -0.4570 -0.6728 -1.6477
   78SOPE    HY 6964   0.496   5.560   6.234  0.3769  0.4390  0.1044
   78SOPE   O31 6965   0.499   5.503   6.035  0.3442  0.1398  0.6764
   78SOPE   C31 6966   0.596   5.589   6.001  0.4369 -0.5893 -0.3264
   78SOPE   O32 6967   0.687   5.623   6.069  0.4465 -1.0387 -0.0021
   78SOPE   C32 6968   0.566   5.632   5.852  0.3177  0.4757  0.1948
   78SOPE   H2X 6969   0.461   5.666   5.858 -0.0691 -0.8713  1.4304
   78SOPE   H2Y 6970   0.569   5.544   5.784  2.4044 -0.5288  1.4982
   78SOPE   C23 6971   0.153   5.044   5.962  0.1868 -0.4522  0.2802
   78SOPE   H3R 6972   0.052   5.042   6.009 -0.8639  2.6936 -1.5133
   78SOPE   H3S 6973   0.166   4.943   5.918 -0.3610 -1.7825  2.9467
   78SOPE   C24 6974   0.161   5.143   5.841  0.2728 -0.0535  0.4788
   78SOPE   H4R 6975   0.112   5.239   5.865  0.2423 -0.0203  0.2861
   78SOPE   H4S 6976   0.271   5.149   5.824  0.1643 -3.2773 -2.6645
   78SOPE   C25 6977   0.100   5.098   5.703  0.4481  0.5303  0.4473
   78SOPE   H5R 6978   0.128   4.992   5.686 -2.1815 -0.2875  0.7403
   78SOPE   H5S 6979  -0.011   5.105   5.707  0.5290  2.4184  4.1779
   78SOPE   C26 6980   0.153   5.188   5.589 -0.7175  0.5325  0.0742
   78SOPE   H6R 6981   0.111   5.291   5.589  2.6496  2.0437 -1.5887
   78SOPE   H6S 6982   0.260   5.202   5.612 -0.8821  2.8000 -0.2393
   78SOPE   C27 6983   0.135   5.117   5.449 -0.5711  0.0741 -0.1008
   78SOPE   H7R 6984   0.195   5.023   5.454 -2.6626 -1.2462  1.5906
   78SOPE   H7S 6985   0.035   5.070   5.439 -0.3648 -0.8934  1.9180
   78SOPE   C28 6986   0.172   5.206   5.324  0.7918  0.2303  0.0203
   78SOPE   H8R 6987   0.116   5.301   5.320 -0.3750 -0.4719 -1.0539
   78SOPE   H8S 6988   0.270   5.257   5.331 -0.5697  2.9474  0.4176
   78SOPE   C29 6989   0.170   5.116   5.198  0.0735  0.5846 -0.1818
   78SOPE   H91 6990   0.250   5.042   5.189 -2.0538 -1.7617 -1.1923
   78SOPE  C210 6991   0.076   5.106   5.102 -0.3724  0.3466 -0.1864
   78SOPE  H101 6992   0.103   5.037   5.021  1.5740  1.0268 -0.1661
   78SOPE  C211 6993  -0.054   5.182   5.091  0.2716 -0.9951  0.2936
   78SOPE  H11R 6994  -0.068   5.241   5.184  0.0961  0.0931 -0.4090
   78SOPE  H11S 6995  -0.150   5.125   5.091  0.1643 -0.9276 -2.3801
   78SOPE  C212 6996  -0.042   5.269   4.961  0.4754 -0.5864 -0.0754
   78SOPE  H12R 6997  -0.146   5.290   4.929  0.9215  2.0111  0.0097
   78SOPE  H12S 6998  -0.010   5.200   4.880 -0.4307  2.0930 -2.8967
   78SOPE  C213 6999   0.047   5.394   4.972  0.1106  0.7901  0.1952
   78SOPE  H13R 7000   0.149   5.355   4.990 -0.3186 -0.3581  0.2113
   78SOPE  H13S 7001   0.007   5.459   5.053  0.7508 -1.5703  2.5108
   78SOPE  C214 7002   0.039   5.475   4.835  0.1632 -0.1063  0.3716
   78SOPE  H14R 7003  -0.054   5.537   4.844  0.4511  0.8067 -2.0832
   78SOPE  H14S 7004   0.018   5.406   4.751 -1.6171 -2.4874  2.5894
   78SOPE  C215 7005   0.154   5.566   4.806 -0.2332  0.6805 -0.2514
   78SOPE  H15R 7006   0.236   5.494   4.787 -0.4420  0.2361  0.4745
   78SOPE  H15S 7007   0.187   5.618   4.899  1.1617  0.6465 -0.7172
   78SOPE  C216 7008   0.127   5.655   4.691  0.2772  0.3561 -0.0070
   78SOPE  H16R 7009   0.022   5.689   4.685  0.5564  1.2459 -0.0172
   78SOPE  H16S 7010   0.143   5.590   4.601 -0.0197 -0.7719  0.7347
   78SOPE  C217 7011   0.234   5.758   4.673 -0.1732 -0.3069 -0.1827
   78SOPE  H17R 7012   0.334   5.717   4.698 -0.3735 -0.2823  0.7146
   78SOPE  H17S 7013   0.209   5.847   4.734  1.6338 -0.0812  0.2900
   78SOPE  C218 7014   0.234   5.808   4.526  0.3773  0.2666  0.2835
   78SOPE  H18R 7015   0.237   5.722   4.456 -0.8953  0.9722 -0.6837
   78SOPE  H18S 7016   0.324   5.865   4.495  0.5239 -0.6828 -1.1387
   78SOPE  H18T 7017   0.135   5.853   4.500  0.7742  0.6451 -0.6176
   78SOPE   C33 7018   0.655   5.747   5.805 -0.0589 -1.1081 -0.0053
   78SOPE   H3X 7019   0.660   5.825   5.884 -1.8980 -1.0757  0.1336
   78SOPE   H3Y 7020   0.607   5.801   5.721  0.0449  2.9087  2.2454
   78SOPE   C34 7021   0.786   5.699   5.757 -0.0819 -0.9465  0.4807
   78SOPE   H4X 7022   0.786   5.633   5.667 -1.8354  1.2922 -1.2537
   78SOPE   H4Y 7023   0.846   5.636   5.826  0.0901 -0.5676  0.6783
   78SOPE   C35 7024   0.884   5.804   5.705 -0.5352  0.4326 -0.9367
   78SOPE   H5X 7025   0.976   5.751   5.671 -1.1080 -2.1082  1.2029
   78SOPE   H5Y 7026   0.905   5.875   5.788  3.4362  0.6090 -1.8852
   78SOPE   C36 7027   0.831   5.887   5.592  0.4144  0.5224  0.2661
   78SOPE   H6X 7028   0.743   5.949   5.620  0.1871  0.2384  0.1842
   78SOPE   H6Y 7029   0.784   5.827   5.511  0.7881  0.0442  0.4009
   78SOPE   C37 7030   0.948   5.969   5.540  0.0966  0.1617 -0.0714
   78SOPE   H7X 7031   1.034   5.904   5.512  1.8618  1.7430  1.3585
   78SOPE   H7Y 7032   0.988   6.037   5.619 -0.1127 -1.8284  1.8528
   78SOPE   C38 7033   0.903   6.047   5.410 -0.5703 -0.5747  0.7673
   78SOPE   H8X 7034   0.976   6.128   5.389  0.3444 -1.9720 -1.9403
   78SOPE   H8Y 7035   0.812   6.107   5.432  0.2230  1.2281 -0.6159
   78SOPE   C39 7036   0.882   5.963   5.281 -0.0104  0.5135  0.0151
   78SOPE   H9X 7037   0.810   5.879   5.293 -1.5329  1.5501 -1.5389
   78SOPE   H9Y 7038   0.972   5.902   5.258 -1.3553 -1.0822 -1.2707
   78SOPE  C310 7039   0.846   6.048   5.165  0.1179 -0.0317  0.9498
   78SOPE  H10X 7040   0.922   6.128   5.155  0.3315 -0.4957 -4.3227
   78SOPE  H10Y 7041   0.750   6.100   5.186  0.1710  0.6098 -0.2532
   78SOPE  C311 7042   0.832   5.977   5.027  0.0775  0.1103 -0.3122
   78SOPE  H11X 7043   0.826   6.061   4.954 -1.4640  0.4974  0.2033
   78SOPE  H11Y 7044   0.740   5.915   5.013  0.6123 -1.1329  1.3466
   78SOPE  C312 7045   0.942   5.876   4.981  0.2868  0.5908 -0.0951
   78SOPE  H12X 7046   0.940   5.783   5.042 -2.3305 -1.5127 -2.9985
   78SOPE  H12Y 7047   1.045   5.918   4.983  1.4584 -2.0614  1.6186
   78SOPE  C313 7048   0.928   5.813   4.840  0.5600  0.2473 -0.4796
   78SOPE  H13X 7049   0.833   5.754   4.837 -0.6316  2.1036 -1.3711
   78SOPE  H13Y 7050   1.003   5.733   4.826  0.6248 -0.0159  1.1430
   78SOPE  C314 7051   0.940   5.914   4.731  0.1818  0.1718  0.4971
   78SOPE  H14X 7052   1.041   5.960   4.739  1.2046 -1.6074 -1.3560
   78SOPE  H14Y 7053   0.865   5.994   4.749  1.4635  1.4920  0.2015
   78SOPE  C315 7054   0.938   5.862   4.585  0.6863  0.3443 -0.4369
   78SOPE  H15X 7055   0.833   5.828   4.574  0.0341  1.1918  2.2958
   78SOPE  H15Y 7056   1.001   5.771   4.575 -1.0478 -0.9101 -0.2667
   78SOPE  C316 7057   0.953   5.982   4.484 -0.0764 -0.1538  0.0817
   78SOPE  H16X 7058   0.893   6.069   4.517  1.0504  0.8503 -0.4218
   78SOPE  H16Y 7059   0.930   5.941   4.384 -1.8585 -1.2745  0.9084
   78SOPE  C317 7060   1.099   6.019   4.465  0.1488 -0.4472 -0.2916
   78SOPE  H17X 7061   1.164   5.929   4.453  0.9111  0.2694 -1.7491
   78SOPE  H17Y 7062   1.141   6.061   4.559 -0.1666 -0.5883 -0.0848
   78SOPE  C318 7063   1.121   6.122   4.353  0.1881 -0.3794  1.0153
   78SOPE  H18X 7064   1.228   6.151   4.343  0.2260 -0.2850  1.6502
   78SOPE  H18Y 7065   1.063   6.214   4.378  0.1531 -0.0590 -0.1886
   78SOPE  H18Z 7066   1.089   6.070   4.260 -0.5050  0.2162  0.9047
   79SOPE     N 7067   2.371   2.205   6.552 -0.3335  0.2962  0.0088
   79SOPE   HN1 7068   2.287   2.260   6.580 -0.1302  0.7388 -0.2371
   79SOPE   HN2 7069   2.432   2.263   6.491  0.2800  0.5104  0.8026
   79SOPE   HN3 7070   2.343   2.116   6.506  1.5077 -1.5022  2.0914
   79SOPE   C12 7071   2.454   2.157   6.660  0.0177 -0.1615  0.3977
   79SOPE  H12A 7072   2.398   2.147   6.756 -0.3068 -4.1533 -0.0520
   79SOPE  H12B 7073   2.534   2.232   6.676  1.3630 -1.5607  0.4867
   79SOPE   C11 7074   2.519   2.027   6.622  1.0236  0.9526  0.5549
   79SOPE  H11A 7075   2.581   1.996   6.708 -1.1208 -1.3983  1.3883
   79SOPE  H11B 7076   2.588   2.027   6.534  3.6833  0.2356  2.5247
   79SOPE     P 7077   2.382   1.845   6.491  0.0402 -0.3743 -0.1917
   79SOPE   O13 7078   2.284   1.737   6.533 -0.0708 -0.0369  0.1648
   79SOPE   O14 7079   2.505   1.789   6.439 -0.1174 -0.8101 -0.0476
   79SOPE   O12 7080   2.419   1.924   6.619  0.5683  0.0466  0.3615
   79SOPE   O11 7081   2.307   1.956   6.406 -0.0035 -0.1747 -0.0477
   79SOPE    C1 7082   2.210   1.929   6.304  0.1050  1.1188 -0.4791
   79SOPE    HA 7083   2.150   2.021   6.286 -3.3196 -0.8636 -0.0707
   79SOPE    HB 7084   2.131   1.857   6.334  3.0207 -1.4997  1.5565
   79SOPE    C2 7085   2.275   1.880   6.167  0.9094 -0.4361 -0.5873
   79SOPE    HS 7086   2.314   1.779   6.190  1.6145  0.0773  0.5727
   79SOPE   O21 7087   2.385   1.966   6.127  0.0706  0.2439  0.4334
   79SOPE   C21 7088   2.463   1.915   6.035  0.5970  0.4917  0.5138
   79SOPE   O22 7089   2.455   1.799   5.993 -0.3873  0.4374 -0.3105
   79SOPE   C22 7090   2.556   2.028   5.989 -0.4941  0.0695  0.1895
   79SOPE   H2R 7091   2.610   2.047   6.084  1.7816 -1.5209 -0.6964
   79SOPE   H2S 7092   2.496   2.116   5.956  1.1671  1.3748  0.4744
   79SOPE    C3 7093   2.171   1.850   6.052 -0.1720 -0.5333  0.0060
   79SOPE    HX 7094   2.072   1.828   6.097 -1.9541  3.8710 -1.2211
   79SOPE    HY 7095   2.209   1.771   5.985 -2.1275 -1.8635  0.3721
   79SOPE   O31 7096   2.161   1.962   5.966  0.2961  0.0981  0.1335
   79SOPE   C31 7097   2.089   2.065   6.001 -1.1334  0.3178 -0.8910
   79SOPE   O32 7098   2.023   2.076   6.104 -0.2120 -0.4937 -0.0664
   79SOPE   C32 7099   2.088   2.181   5.902 -0.0378  0.2722  0.4374
   79SOPE   H2X 7100   2.192   2.215   5.881 -0.1688  1.7413  1.9047
   79SOPE   H2Y 7101   2.036   2.262   5.959 -1.1785 -0.5917  0.6592
   79SOPE   C23 7102   2.666   1.980   5.897 -0.2191  0.1815  0.2021
   79SOPE   H3R 7103   2.717   1.888   5.932 -0.2772  0.8578  2.1524
   79SOPE   H3S 7104   2.740   2.063   5.893  0.4119 -0.3064  1.3739
   79SOPE   C24 7105   2.609   1.953   5.757  0.0998  0.3763  0.2753
   79SOPE   H4R 7106   2.689   1.919   5.688  1.4261  2.8166  0.5202
   79SOPE   H4S 7107   2.538   1.867   5.755  2.0966 -1.3631  0.4000
   79SOPE   C25 7108   2.544   2.072   5.698  0.2409  0.5040 -0.3820
   79SOPE   H5R 7109   2.501   2.048   5.599  1.5877 -1.1295 -0.6210
   79SOPE   H5S 7110   2.454   2.107   5.755  1.2850  2.8109 -0.0345
   79SOPE   C26 7111   2.632   2.194   5.665 -0.9265  0.4914  0.4678
   79SOPE   H6R 7112   2.673   2.248   5.753 -0.7749 -1.1012  1.4004
   79SOPE   H6S 7113   2.713   2.151   5.603 -0.7856  0.1671  0.8771
   79SOPE   C27 7114   2.556   2.287   5.563 -0.4261 -0.4449  0.2875
   79SOPE   H7R 7115   2.502   2.232   5.483  1.2172 -1.0713 -0.4571
   79SOPE   H7S 7116   2.479   2.341   5.622  1.0755  1.5765  0.5091
   79SOPE   C28 7117   2.658   2.382   5.488 -0.7048  0.9955 -0.2103
   79SOPE   H8R 7118   2.697   2.451   5.565 -0.4475 -1.5438  2.1123
   79SOPE   H8S 7119   2.745   2.329   5.444 -1.8043 -0.5134 -0.6654
   79SOPE   C29 7120   2.595   2.453   5.371  0.1245  0.1161  0.0842
   79SOPE   H91 7121   2.485   2.456   5.376  0.1370  1.5677 -0.1480
   79SOPE  C210 7122   2.659   2.504   5.263 -0.0378 -0.3711 -0.2626
   79SOPE  H101 7123   2.605   2.554   5.182 -1.0565 -0.6860  0.2014
   79SOPE  C211 7124   2.809   2.499   5.231  0.0204 -0.6888 -0.8762
   79SOPE  H11R 7125   2.870   2.481   5.322 -3.1853 -1.1265  1.3506
   79SOPE  H11S 7126   2.835   2.598   5.189 -2.1804 -0.2821 -1.3902
   79SOPE  C212 7127   2.853   2.404   5.113  0.0297  0.2279  0.3454
   79SOPE  H12R 7128   2.805   2.437   5.018  0.4458  0.2807  0.1495
   79SOPE  H12S 7129   2.809   2.309   5.149  3.6411 -1.0063  1.9717
   79SOPE  C213 7130   2.999   2.395   5.066 -0.2218 -0.2710 -0.8069
   79SOPE  H13R 7131   3.065   2.360   5.148 -0.0495 -2.4535 -1.8163
   79SOPE  H13S 7132   3.035   2.498   5.044 -1.7757  0.8632  1.5776
   79SOPE  C214 7133   3.035   2.309   4.947  0.5220  0.1609  0.1669
   79SOPE  H14R 7134   2.993   2.210   4.976 -0.9011  1.5147  3.0860
   79SOPE  H14S 7135   3.145   2.308   4.931  0.4777  0.6193 -0.2098
   79SOPE  C215 7136   2.980   2.342   4.810  0.4918  0.7829 -0.2877
   79SOPE  H15R 7137   2.994   2.447   4.777 -2.3746  0.5581 -2.6245
   79SOPE  H15S 7138   2.870   2.332   4.822  0.8525 -1.0760  2.2029
   79SOPE  C216 7139   3.043   2.255   4.701  0.4458  0.0880  0.5411
   79SOPE  H16R 7140   3.019   2.151   4.734 -0.2797 -0.5091 -1.7157
   79SOPE  H16S 7141   3.152   2.275   4.696  0.3394  0.9559  1.3946
   79SOPE  C217 7142   2.988   2.277   4.561  0.2323 -0.2506  0.1706
   79SOPE  H17R 7143   2.880   2.250   4.571 -0.3000  2.2018  1.8161
   79SOPE  H17S 7144   3.024   2.206   4.484 -0.2077 -0.1459 -0.1393
   79SOPE  C218 7145   3.017   2.421   4.510 -0.4148  0.3306  0.2958
   79SOPE  H18R 7146   2.989   2.501   4.582  0.6961 -0.0569  1.1929
   79SOPE  H18S 7147   2.977   2.456   4.413  1.6673  2.3210  0.0870
   79SOPE  H18T 7148   3.127   2.430   4.501 -0.4402 -0.2299 -0.6878
   79SOPE   C33 7149   2.023   2.143   5.766  0.4315 -0.7995 -0.9743
   79SOPE   H3X 7150   1.992   2.233   5.708  2.0868 -0.0558 -0.7440
   79SOPE   H3Y 7151   1.937   2.074   5.775 -0.3045  0.2937  0.9329
   79SOPE   C34 7152   2.128   2.073   5.676 -0.8267  0.0095 -0.2720
   79SOPE   H4X 7153   2.155   1.977   5.724 -0.2592  0.3948  0.1978
   79SOPE   H4Y 7154   2.227   2.124   5.670  0.7685 -2.8689 -0.2305
   79SOPE   C35 7155   2.075   2.062   5.534  0.5103  0.2248  0.2741
   79SOPE   H5X 7156   2.032   2.158   5.498  1.1079  0.7407  0.9166
   79SOPE   H5Y 7157   1.993   1.988   5.530  0.1496  0.1534  4.6010
   79SOPE   C36 7158   2.193   2.019   5.436  0.1818 -0.2760 -0.4152
   79SOPE   H6X 7159   2.220   1.915   5.464 -1.1096 -0.4326  0.3717
   79SOPE   H6Y 7160   2.275   2.089   5.463 -0.5924 -0.1981  2.0163
   79SOPE   C37 7161   2.143   2.019   5.289 -0.4698  0.5785 -1.2254
   79SOPE   H7X 7162   2.045   1.966   5.282 -1.1241  1.0123  2.3482
   79SOPE   H7Y 7163   2.220   1.964   5.231 -0.0903  0.2139 -0.4069
   79SOPE   C38 7164   2.128   2.161   5.240  0.5345  0.1363  0.3194
   79SOPE   H8X 7165   2.231   2.203   5.234  0.6466 -0.2710 -1.3400
   79SOPE   H8Y 7166   2.065   2.229   5.301 -0.9910  0.8704 -1.9041
   79SOPE   C39 7167   2.071   2.174   5.093 -0.2953 -0.6737 -0.4628
   79SOPE   H9X 7168   2.036   2.275   5.064  1.9482  0.5781  0.9153
   79SOPE   H9Y 7169   1.984   2.105   5.095 -0.0741 -0.9690 -0.7519
   79SOPE  C310 7170   2.164   2.115   4.986 -0.0628  0.3924 -0.1302
   79SOPE  H10X 7171   2.160   2.007   5.010 -1.4452  1.0952  3.2617
   79SOPE  H10Y 7172   2.266   2.152   5.013 -0.9252  1.2349  2.2201
   79SOPE  C311 7173   2.127   2.146   4.839 -0.6440  0.5902  0.6996
   79SOPE  H11X 7174   2.197   2.086   4.776 -0.5281  1.0281  0.4082
   79SOPE  H11Y 7175   2.167   2.246   4.812  2.2994 -0.3207  1.3425
   79SOPE  C312 7176   1.977   2.124   4.809 -0.1264 -0.3499 -0.7648
   79SOPE  H12X 7177   1.917   2.200   4.863 -2.0361 -1.8000 -0.7849
   79SOPE  H12Y 7178   1.940   2.022   4.831  2.3018 -1.4837 -1.5096
   79SOPE  C313 7179   1.943   2.136   4.657 -0.5906  0.0403  0.0548
   79SOPE  H13X 7180   1.986   2.050   4.601  1.5833  0.5415  0.8799
   79SOPE  H13Y 7181   1.980   2.231   4.611 -0.3307 -1.0052 -2.0531
   79SOPE  C314 7182   1.790   2.144   4.634 -0.3427 -0.0532  1.1422
   79SOPE  H14X 7183   1.748   2.241   4.669 -0.6741 -0.1097  0.9138
   79SOPE  H14Y 7184   1.744   2.051   4.674 -0.7191 -0.4787 -0.2225
   79SOPE  C315 7185   1.737   2.142   4.485 -0.3855 -0.2559  0.1377
   79SOPE  H15X 7186   1.627   2.154   4.488 -0.3068  1.7446 -2.1825
   79SOPE  H15Y 7187   1.753   2.054   4.419  0.3706  0.8793 -1.2433
   79SOPE  C316 7188   1.763   2.274   4.412  0.1783  0.2425 -0.0441
   79SOPE  H16X 7189   1.872   2.296   4.411  0.5387 -1.2754  1.3660
   79SOPE  H16Y 7190   1.718   2.360   4.466 -1.8631 -1.2215  0.7301
   79SOPE  C317 7191   1.695   2.274   4.272 -0.5380  0.4618 -0.2072
   79SOPE  H17X 7192   1.586   2.265   4.295  0.0451 -1.0221  2.3906
   79SOPE  H17Y 7193   1.735   2.185   4.219  1.7610  0.5431  1.2382
   79SOPE  C318 7194   1.734   2.392   4.189 -0.4218  0.3885  1.2629
   79SOPE  H18X 7195   1.844   2.407   4.197 -0.1750 -1.2001  1.1713
   79SOPE  H18Y 7196   1.690   2.484   4.233 -0.4242  1.3361 -0.6126
   79SOPE  H18Z 7197   1.717   2.384   4.079  0.0490  0.9381  1.1451
   80SOPE     N 7198   0.018   3.345   6.854  0.0999  0.2601 -0.1796
   80SOPE   HN1 7199   0.110   3.307   6.885 -0.6153 -0.4456  1.1799
   80SOPE   HN2 7200  -0.005   3.435   6.901 -0.3188  1.0721 -1.8473
   80SOPE   HN3 7201  -0.059   3.280   6.880  1.0029 -0.8062 -0.1084
   80SOPE   C12 7202   0.024   3.340   6.700  1.2160  0.2720  0.3986
   80SOPE  H12A 7203   0.015   3.237   6.660 -0.6139  0.6816 -0.3704
   80SOPE  H12B 7204   0.122   3.383   6.674  1.3560  0.4424  1.1959
   80SOPE   C11 7205  -0.099   3.419   6.640 -0.8302 -0.0607  0.1071
   80SOPE  H11A 7206  -0.200   3.381   6.664 -2.0399  1.1549 -2.6776
   80SOPE  H11B 7207  -0.092   3.397   6.531 -0.0874 -1.5736  0.4331
   80SOPE     P 7208  -0.013   3.666   6.574 -0.3877 -0.2239 -0.0308
   80SOPE   O13 7209   0.130   3.623   6.582  0.3640 -0.5769  0.2614
   80SOPE   O14 7210  -0.049   3.814   6.600 -0.1423 -0.3004 -0.3043
   80SOPE   O12 7211  -0.098   3.564   6.663 -0.4214  0.4888 -0.6736
   80SOPE   O11 7212  -0.060   3.622   6.432  0.2935 -0.3917 -0.1033
   80SOPE    C1 7213  -0.191   3.640   6.372 -0.6393  0.2837 -0.1904
   80SOPE    HA 7214  -0.253   3.687   6.451  0.5875  1.6793 -0.0150
   80SOPE    HB 7215  -0.228   3.539   6.343  1.8211 -0.8656  0.3763
   80SOPE    C2 7216  -0.178   3.733   6.257  0.3421 -0.1624  0.2027
   80SOPE    HS 7217  -0.283   3.737   6.220  0.5773  1.4412 -0.3580
   80SOPE   O21 7218  -0.087   3.696   6.151 -0.3469  0.6787  0.7958
   80SOPE   C21 7219  -0.141   3.632   6.050 -0.7747 -0.3590  0.5812
   80SOPE   O22 7220  -0.256   3.592   6.041 -0.0438 -0.0152  0.2216
   80SOPE   C22 7221  -0.035   3.598   5.939  0.0143 -0.0184 -0.5668
   80SOPE   H2R 7222   0.064   3.613   5.989  0.0766  1.4391 -1.0932
   80SOPE   H2S 7223  -0.053   3.665   5.852 -0.0794  0.1907 -0.3875
   80SOPE    C3 7224  -0.143   3.881   6.299 -0.4260  0.1264 -0.1051
   80SOPE    HX 7225  -0.045   3.880   6.351 -0.0307 -0.2896 -0.8333
   80SOPE    HY 7226  -0.209   3.927   6.375 -0.9639 -0.3878 -0.2529
   80SOPE   O31 7227  -0.129   3.964   6.180 -0.0289 -0.2988  0.3062
   80SOPE   C31 7228  -0.239   3.980   6.110  0.3603  0.1068  0.2839
   80SOPE   O32 7229  -0.348   3.939   6.137 -0.4524 -0.0832  0.0801
   80SOPE   C32 7230  -0.215   4.057   5.978  0.4067  0.1843 -0.3805
   80SOPE   H2X 7231  -0.107   4.080   5.976  0.4417  0.0593 -0.0689
   80SOPE   H2Y 7232  -0.277   4.148   5.990  0.2966  0.3138 -1.7627
   80SOPE   C23 7233  -0.041   3.450   5.907  0.9275 -0.9829 -0.0960
   80SOPE   H3R 7234  -0.067   3.390   5.997 -2.0469  1.3905  0.7742
   80SOPE   H3S 7235   0.055   3.423   5.859  1.2088 -1.1667  0.5610
   80SOPE   C24 7236  -0.162   3.416   5.804 -0.3592  0.4573 -0.1044
   80SOPE   H4R 7237  -0.156   3.306   5.785  1.0917  0.5261 -0.1675
   80SOPE   H4S 7238  -0.259   3.438   5.852 -0.4759 -0.0134 -0.1180
   80SOPE   C25 7239  -0.156   3.487   5.667 -0.3845  1.6055 -0.2644
   80SOPE   H5R 7240  -0.164   3.595   5.689 -1.8548  2.0549 -2.6611
   80SOPE   H5S 7241  -0.059   3.462   5.619  0.7465  2.2490  1.5882
   80SOPE   C26 7242  -0.275   3.459   5.573  0.5038 -0.0354 -0.2807
   80SOPE   H6R 7243  -0.286   3.352   5.547 -0.8769  0.5388 -2.3619
   80SOPE   H6S 7244  -0.363   3.507   5.621 -0.5590 -1.0035 -1.2030
   80SOPE   C27 7245  -0.256   3.536   5.447  0.4107  0.0357 -0.3324
   80SOPE   H7R 7246  -0.225   3.639   5.478  0.6574 -0.4257  1.0068
   80SOPE   H7S 7247  -0.179   3.487   5.383 -0.6947  0.2741 -1.9026
   80SOPE   C28 7248  -0.380   3.537   5.357 -0.8768  0.0288 -0.3572
   80SOPE   H8R 7249  -0.389   3.434   5.317 -0.2285  1.0837 -3.4474
   80SOPE   H8S 7250  -0.468   3.554   5.423  2.2732 -1.4065  4.8459
   80SOPE   C29 7251  -0.367   3.645   5.255 -0.2260 -0.3637  0.6441
   80SOPE   H91 7252  -0.320   3.738   5.291 -0.3673  0.0473 -0.2045
   80SOPE  C210 7253  -0.373   3.621   5.121  0.4663 -0.2534 -0.5364
   80SOPE  H101 7254  -0.348   3.704   5.053  2.3764  0.0712  0.4785
   80SOPE  C211 7255  -0.409   3.496   5.049  0.7032  0.6474 -0.8561
   80SOPE  H11R 7256  -0.485   3.511   4.969  1.5240 -0.7034 -1.9201
   80SOPE  H11S 7257  -0.444   3.415   5.117 -1.1790  0.4090 -2.0261
   80SOPE  C212 7258  -0.287   3.431   4.972  0.0575 -0.6753 -0.4627
   80SOPE  H12R 7259  -0.298   3.321   4.971  0.9700 -0.7779 -0.1494
   80SOPE  H12S 7260  -0.188   3.455   5.017  0.0586 -1.3195 -0.1099
   80SOPE  C213 7261  -0.281   3.501   4.828 -0.6418 -0.0691  0.0072
   80SOPE  H13R 7262  -0.248   3.606   4.842 -0.9502  0.2153 -1.3175
   80SOPE  H13S 7263  -0.386   3.505   4.791 -0.8921  1.4646  0.7838
   80SOPE  C214 7264  -0.178   3.427   4.728 -0.1022 -0.1050 -0.4977
   80SOPE  H14R 7265  -0.185   3.319   4.752  1.1455 -0.3380 -1.1137
   80SOPE  H14S 7266  -0.079   3.461   4.766 -0.2217 -1.3383  1.0471
   80SOPE  C215 7267  -0.206   3.461   4.583  0.4565 -0.1844  0.9987
   80SOPE  H15R 7268  -0.218   3.572   4.582  1.4626 -0.0259  2.6938
   80SOPE  H15S 7269  -0.301   3.408   4.559  0.7612  0.0819 -0.8877
   80SOPE  C216 7270  -0.093   3.410   4.487 -0.6789 -0.0221 -0.2556
   80SOPE  H16R 7271  -0.141   3.395   4.387  1.1626 -2.0543 -0.9152
   80SOPE  H16S 7272  -0.071   3.307   4.522 -3.1481 -0.1917  1.0022
   80SOPE  C217 7273   0.017   3.515   4.469  0.1363 -0.4170 -0.3380
   80SOPE  H17R 7274   0.063   3.509   4.570 -1.5472 -0.8920  0.4341
   80SOPE  H17S 7275  -0.026   3.617   4.462  2.3595  0.5342 -1.0092
   80SOPE  C218 7276   0.120   3.493   4.363  0.6526  0.1758 -0.7413
   80SOPE  H18R 7277   0.159   3.390   4.378  0.9934  0.2548 -1.0585
   80SOPE  H18S 7278   0.208   3.561   4.369  1.0666 -0.4564  0.7227
   80SOPE  H18T 7279   0.073   3.512   4.264 -0.8252  1.9028  0.2560
   80SOPE   C33 7280  -0.280   3.983   5.856 -0.0832 -0.5224 -0.2305
   80SOPE   H3X 7281  -0.387   4.013   5.858  0.2702  1.1031 -2.2252
   80SOPE   H3Y 7282  -0.269   3.873   5.853  0.0739 -0.4939 -1.1844
   80SOPE   C34 7283  -0.211   4.041   5.730  0.4108 -0.0567 -0.6165
   80SOPE   H4X 7284  -0.106   4.007   5.718  0.6208  0.8022 -1.3720
   80SOPE   H4Y 7285  -0.210   4.152   5.743 -2.0318 -0.2464  2.0411
   80SOPE   C35 7286  -0.291   4.010   5.600 -0.6297  0.1917  0.1532
   80SOPE   H5X 7287  -0.372   4.086   5.594 -0.2872  0.4429 -1.9647
   80SOPE   H5Y 7288  -0.322   3.904   5.594 -1.3843  0.4718 -1.5300
   80SOPE   C36 7289  -0.203   4.041   5.476 -0.0314  0.5155  0.4838
   80SOPE   H6X 7290  -0.118   3.970   5.463  0.4276  1.3696 -1.6286
   80SOPE   H6Y 7291  -0.144   4.132   5.497  1.8742 -0.9555  1.8699
   80SOPE   C37 7292  -0.284   4.038   5.347 -0.5219 -0.6654  0.6792
   80SOPE   H7X 7293  -0.364   4.115   5.344  0.8982  1.0683  3.4500
   80SOPE   H7Y 7294  -0.334   3.939   5.341  1.4542 -1.6430 -1.0220
   80SOPE   C38 7295  -0.191   4.062   5.222  0.4458 -0.1295 -0.5835
   80SOPE   H8X 7296  -0.093   4.018   5.248 -0.9339 -1.4761  3.0029
   80SOPE   H8Y 7297  -0.186   4.171   5.201 -0.7645  0.3465  1.3144
   80SOPE   C39 7298  -0.242   3.990   5.095 -0.0192 -0.3712 -0.2569
   80SOPE   H9X 7299  -0.269   3.886   5.122 -2.2041  0.6454  1.8747
   80SOPE   H9Y 7300  -0.156   3.982   5.025  0.4903  0.6488  0.2298
   80SOPE  C310 7301  -0.356   4.067   5.041  0.0126  0.1215 -0.1508
   80SOPE  H10X 7302  -0.323   4.170   5.014 -3.7497  2.3326  2.6783
   80SOPE  H10Y 7303  -0.436   4.079   5.117 -1.1321  0.0503 -1.3202
   80SOPE  C311 7304  -0.422   3.995   4.918 -0.4918 -0.2001  0.3322
   80SOPE  H11X 7305  -0.512   4.055   4.890  0.3299  0.7168 -0.4048
   80SOPE  H11Y 7306  -0.454   3.893   4.950  2.2350 -0.9017  1.0287
   80SOPE  C312 7307  -0.323   3.975   4.804 -0.4776 -0.4451  0.4487
   80SOPE  H12X 7308  -0.231   3.917   4.828  1.6769  1.9068 -1.5219
   80SOPE  H12Y 7309  -0.294   4.074   4.762 -1.0235 -0.5889 -0.2953
   80SOPE  C313 7310  -0.383   3.896   4.691 -0.3302 -0.3384 -0.2252
   80SOPE  H13X 7311  -0.486   3.927   4.666 -0.3677  0.9394  1.3447
   80SOPE  H13Y 7312  -0.395   3.790   4.721 -2.2630 -0.0561  0.1299
   80SOPE  C314 7313  -0.297   3.909   4.560 -0.4138 -0.2229  0.3184
   80SOPE  H14X 7314  -0.198   3.866   4.587  0.5698  1.3899 -0.5842
   80SOPE  H14Y 7315  -0.273   4.009   4.518  1.5178 -0.9829 -0.5353
   80SOPE  C315 7316  -0.357   3.824   4.449 -0.2135 -0.4431  0.0171
   80SOPE  H15X 7317  -0.446   3.879   4.410  2.4423  2.3173 -2.7006
   80SOPE  H15Y 7318  -0.388   3.728   4.496  0.5521 -0.1432  1.1620
   80SOPE  C316 7319  -0.260   3.802   4.337  0.0597  0.1859  0.5729
   80SOPE  H16X 7320  -0.314   3.749   4.256  0.1442  0.6040  0.2392
   80SOPE  H16Y 7321  -0.172   3.741   4.367  0.4295  0.4301  0.0009
   80SOPE  C317 7322  -0.205   3.920   4.247  0.5612 -0.1455 -0.1795
   80SOPE  H17X 7323  -0.142   3.978   4.317  0.2106 -1.2034  1.0688
   80SOPE  H17Y 7324  -0.283   3.993   4.217  0.5776  0.3983  1.0461
   80SOPE  C318 7325  -0.111   3.889   4.123  0.2397 -0.1157 -0.4588
   80SOPE  H18X 7326  -0.163   3.837   4.040  0.5467 -0.8013 -0.2236
   80SOPE  H18Y 7327  -0.021   3.829   4.147  0.6987  0.3039 -1.0827
   80SOPE  H18Z 7328  -0.076   3.987   4.082 -2.6351  0.4190 -1.8565
   81SOPE     N 7329   2.028   4.219   6.814  0.0036  0.0031 -0.3393
   81SOPE   HN1 7330   2.061   4.132   6.860  0.3681 -0.1553 -0.8959
   81SOPE   HN2 7331   2.043   4.293   6.885  0.4426 -0.4589  0.0573
   81SOPE   HN3 7332   1.925   4.216   6.797 -0.1076 -1.4150  0.4366
   81SOPE   C12 7333   2.099   4.235   6.683  0.3765 -0.1127 -0.8442
   81SOPE  H12A 7334   2.208   4.231   6.703 -0.1539  0.2331  2.7962
   81SOPE  H12B 7335   2.072   4.329   6.630  2.2313 -0.0420 -1.7342
   81SOPE   C11 7336   2.069   4.111   6.589 -0.4167  0.5935 -0.2167
   81SOPE  H11A 7337   2.114   4.123   6.488 -1.3728  0.5662 -0.6590
   81SOPE  H11B 7338   1.959   4.097   6.578 -0.2858  0.1012 -0.9629
   81SOPE     P 7339   2.267   3.936   6.628  0.1025 -0.2300  0.1497
   81SOPE   O13 7340   2.286   3.794   6.673  0.5401  0.2891 -0.1902
   81SOPE   O14 7341   2.345   4.040   6.700  0.3776 -0.2904  0.1629
   81SOPE   O12 7342   2.118   3.989   6.653  0.3949 -0.4623 -0.0158
   81SOPE   O11 7343   2.274   3.951   6.477  0.0030  0.2354  0.6670
   81SOPE    C1 7344   2.183   3.868   6.404  0.0969  0.6102 -1.0107
   81SOPE    HA 7345   2.087   3.922   6.391 -1.1705 -1.2593  0.1302
   81SOPE    HB 7346   2.163   3.769   6.449 -1.1143  0.4993 -1.7727
   81SOPE    C2 7347   2.235   3.835   6.264 -0.1876  0.2478  0.0068
   81SOPE    HS 7348   2.196   3.734   6.241 -1.1555  0.3989  0.9303
   81SOPE   O21 7349   2.381   3.830   6.257 -0.3171 -0.0003 -0.3133
   81SOPE   C21 7350   2.434   3.730   6.315 -1.0742  0.7315  0.4673
   81SOPE   O22 7351   2.379   3.624   6.343 -0.3404 -0.6102  0.0909
   81SOPE   C22 7352   2.586   3.760   6.345 -0.1575  1.0781  0.2386
   81SOPE   H2R 7353   2.606   3.769   6.454  0.2143  0.2883  0.2440
   81SOPE   H2S 7354   2.621   3.857   6.302  2.4032  2.4737  4.7962
   81SOPE    C3 7355   2.191   3.938   6.155  0.1868 -0.5076 -1.3285
   81SOPE    HX 7356   2.217   4.043   6.180  0.7348 -0.7473 -0.8748
   81SOPE    HY 7357   2.080   3.927   6.158  0.3202 -2.2177  1.7485
   81SOPE   O31 7358   2.255   3.910   6.032  0.7611 -0.8615 -0.5824
   81SOPE   C31 7359   2.199   3.802   5.969 -0.2684 -0.4046  0.2752
   81SOPE   O32 7360   2.120   3.720   6.016 -0.4128 -0.6727  0.1442
   81SOPE   C32 7361   2.253   3.789   5.822  0.5546  0.2116  0.1462
   81SOPE   H2X 7362   2.355   3.748   5.831  0.3319 -0.0962  1.4772
   81SOPE   H2Y 7363   2.276   3.887   5.776  0.9611  0.5149  0.9724
   81SOPE   C23 7364   2.681   3.654   6.279  0.0156  0.2385 -0.2132
   81SOPE   H3R 7365   2.660   3.549   6.310  0.1370  0.7234  1.6029
   81SOPE   H3S 7366   2.788   3.676   6.299  0.0285  0.5111 -0.5857
   81SOPE   C24 7367   2.675   3.668   6.120  0.3117 -0.0504 -0.6251
   81SOPE   H4R 7368   2.570   3.678   6.083  1.2066  0.0702 -3.3763
   81SOPE   H4S 7369   2.729   3.761   6.091 -0.4147  0.4380 -0.4376
   81SOPE   C25 7370   2.762   3.555   6.058 -0.2438 -0.2629  0.4784
   81SOPE   H5R 7371   2.854   3.541   6.119 -1.1012 -2.7542  1.2967
   81SOPE   H5S 7372   2.699   3.470   6.091 -0.6441 -0.0724  0.2131
   81SOPE   C26 7373   2.781   3.554   5.909  0.5649 -0.1397  0.1177
   81SOPE   H6R 7374   2.834   3.464   5.872  0.2165 -0.6981  0.9568
   81SOPE   H6S 7375   2.677   3.539   5.873  0.3093  3.5331 -1.0977
   81SOPE   C27 7376   2.834   3.682   5.844  0.2249 -0.3313  0.4550
   81SOPE   H7R 7377   2.772   3.767   5.881 -0.3028 -0.5714  0.1219
   81SOPE   H7S 7378   2.940   3.697   5.876  0.2251  0.6754  0.0039
   81SOPE   C28 7379   2.826   3.691   5.690  0.7492 -0.4834 -0.3963
   81SOPE   H8R 7380   2.719   3.664   5.677  0.1711  0.1735  2.3579
   81SOPE   H8S 7381   2.838   3.790   5.642 -2.3202  0.5024  0.6052
   81SOPE   C29 7382   2.906   3.580   5.629  0.0279  0.3205  0.2061
   81SOPE   H91 7383   3.012   3.579   5.658  0.1028 -0.3357 -0.0790
   81SOPE  C210 7384   2.857   3.494   5.537  0.5011  0.3287  0.1518
   81SOPE  H101 7385   2.924   3.411   5.509  0.2239 -1.5504  4.3143
   81SOPE  C211 7386   2.720   3.482   5.475 -0.6483  0.3448 -0.7555
   81SOPE  H11R 7387   2.655   3.572   5.479 -1.0562  0.0428  2.9105
   81SOPE  H11S 7388   2.667   3.394   5.520  0.7165 -0.4425 -0.6302
   81SOPE  C212 7389   2.744   3.439   5.329 -0.8531 -0.2800  0.3219
   81SOPE  H12R 7390   2.786   3.336   5.324  3.6320  1.3682 -2.3365
   81SOPE  H12S 7391   2.823   3.494   5.273 -1.0946 -0.4983 -0.2474
   81SOPE  C213 7392   2.619   3.441   5.240 -0.0378  0.0762  0.3328
   81SOPE  H13R 7393   2.573   3.541   5.247  1.1978  0.7194 -0.5335
   81SOPE  H13S 7394   2.545   3.362   5.267  0.2949 -0.2482  0.3193
   81SOPE  C214 7395   2.645   3.425   5.089  0.2706 -0.7505 -0.2766
   81SOPE  H14R 7396   2.720   3.348   5.064  1.8356  0.7391 -0.3176
   81SOPE  H14S 7397   2.706   3.515   5.066  0.4037 -0.5863  0.6416
   81SOPE  C215 7398   2.517   3.431   5.007  0.1119 -0.2301 -0.4371
   81SOPE  H15R 7399   2.452   3.518   5.031 -0.3897 -1.1737  1.9079
   81SOPE  H15S 7400   2.459   3.350   5.056 -0.0742  1.6629  2.7638
   81SOPE  C216 7401   2.522   3.414   4.856  0.4329 -0.1972  0.0347
   81SOPE  H16R 7402   2.581   3.326   4.824  0.0942 -0.4650  0.1457
   81SOPE  H16S 7403   2.570   3.503   4.808  1.3704 -1.5587 -1.6672
   81SOPE  C217 7404   2.386   3.400   4.793 -0.8349  0.6740 -0.3920
   81SOPE  H17R 7405   2.334   3.490   4.832  1.8081  0.9108  3.0599
   81SOPE  H17S 7406   2.325   3.317   4.836 -1.4561  0.7000 -1.1852
   81SOPE  C218 7407   2.381   3.398   4.642 -0.1258  0.0998  0.0703
   81SOPE  H18R 7408   2.279   3.416   4.600 -0.1967 -1.4839 -0.4945
   81SOPE  H18S 7409   2.429   3.302   4.612  2.0175  0.2913  2.6323
   81SOPE  H18T 7410   2.440   3.484   4.604 -0.3953  1.0072  1.6485
   81SOPE   C33 7411   2.169   3.691   5.737 -0.2986  0.3300 -0.0388
   81SOPE   H3X 7412   2.078   3.747   5.705  0.2245  1.8736  1.0676
   81SOPE   H3Y 7413   2.118   3.609   5.794 -0.2359  0.3073 -0.0148
   81SOPE   C34 7414   2.260   3.638   5.628 -0.2999 -0.0223  0.1858
   81SOPE   H4X 7415   2.335   3.567   5.670  0.7948 -0.0764 -1.7359
   81SOPE   H4Y 7416   2.329   3.720   5.599 -0.0359  0.6092  2.4238
   81SOPE   C35 7417   2.199   3.568   5.514  0.6229  0.4753 -0.1505
   81SOPE   H5X 7418   2.123   3.635   5.470  0.9824  1.5847  0.8834
   81SOPE   H5Y 7419   2.157   3.473   5.553  0.8040  0.1810 -0.6546
   81SOPE   C36 7420   2.297   3.527   5.401  0.2166  0.1864 -0.3174
   81SOPE   H6X 7421   2.387   3.472   5.437  1.5790  2.3747 -0.1952
   81SOPE   H6Y 7422   2.345   3.622   5.369 -0.2849  0.8714  0.8882
   81SOPE   C37 7423   2.231   3.451   5.281  0.3507  0.0768  0.5285
   81SOPE   H7X 7424   2.154   3.377   5.313  2.8167 -1.6668  2.8500
   81SOPE   H7Y 7425   2.312   3.392   5.234  0.2016  0.4322 -0.1904
   81SOPE   C38 7426   2.177   3.549   5.173  0.0215 -0.1501 -0.6067
   81SOPE   H8X 7427   2.254   3.626   5.150 -0.1673  0.1727 -0.1694
   81SOPE   H8Y 7428   2.084   3.596   5.212 -0.0683 -0.9118  0.1103
   81SOPE   C39 7429   2.125   3.482   5.041 -0.0434 -0.1607 -0.2146
   81SOPE   H9X 7430   2.030   3.429   5.061 -1.6245  1.9849 -1.5583
   81SOPE   H9Y 7431   2.208   3.423   4.996 -2.1676 -1.5218 -2.6119
   81SOPE  C310 7432   2.089   3.596   4.940  0.4932  0.1748  0.1886
   81SOPE  H10X 7433   2.173   3.669   4.929 -0.1283  0.8442 -0.1913
   81SOPE  H10Y 7434   1.996   3.645   4.974  1.0347 -0.0495  2.0975
   81SOPE  C311 7435   2.040   3.551   4.799 -1.1957  0.3277  0.6752
   81SOPE  H11X 7436   1.938   3.507   4.812 -1.2750  0.0865 -0.6617
   81SOPE  H11Y 7437   2.095   3.471   4.745  0.6222  0.4276  2.2810
   81SOPE  C312 7438   2.029   3.663   4.696  0.1829  0.4727 -0.1767
   81SOPE  H12X 7439   2.120   3.726   4.686 -1.5698  3.2860  0.4221
   81SOPE  H12Y 7440   1.954   3.729   4.744  1.0514  0.0414  1.8844
   81SOPE  C313 7441   1.970   3.620   4.564  0.3287 -0.4191 -0.0646
   81SOPE  H13X 7442   1.885   3.549   4.556  1.2121 -1.2862 -2.5895
   81SOPE  H13Y 7443   2.054   3.587   4.500  0.8143  0.1948  0.2380
   81SOPE  C314 7444   1.907   3.750   4.495  0.3446 -0.0126  0.3984
   81SOPE  H14X 7445   1.968   3.843   4.496  0.2294  0.0818 -0.4632
   81SOPE  H14Y 7446   1.820   3.773   4.560 -0.5447 -1.2064 -0.3364
   81SOPE  C315 7447   1.876   3.722   4.350  0.7090  0.0934  0.7147
   81SOPE  H15X 7448   1.798   3.644   4.360 -0.6792  1.4279  0.6045
   81SOPE  H15Y 7449   1.962   3.686   4.289  0.1131  0.0820 -0.1388
   81SOPE  C316 7450   1.829   3.848   4.267 -0.0353  0.2815 -0.3454
   81SOPE  H16X 7451   1.742   3.898   4.315  0.0272  2.0713 -1.9759
   81SOPE  H16Y 7452   1.788   3.799   4.176 -0.7662  0.3623 -0.0671
   81SOPE  C317 7453   1.930   3.949   4.214 -0.3541 -0.4549  0.5992
   81SOPE  H17X 7454   1.990   3.898   4.135 -1.6222 -0.0003 -0.6900
   81SOPE  H17Y 7455   1.998   3.985   4.294 -2.0099 -0.1811  1.9409
   81SOPE  C318 7456   1.873   4.071   4.146 -0.2991  0.2846  0.0132
   81SOPE  H18X 7457   1.773   4.042   4.107 -0.2493 -1.0274  0.7985
   81SOPE  H18Y 7458   1.942   4.105   4.067 -0.4651 -0.2001 -0.3431
   81SOPE  H18Z 7459   1.857   4.149   4.224 -0.0658  0.5589 -0.2112
   82SOPE     N 7460   0.124   0.588   6.823 -0.4185  0.0057 -0.1678
   82SOPE   HN1 7461   0.179   0.521   6.766 -2.6069  0.5280 -3.1084
   82SOPE   HN2 7462   0.084   0.646   6.746 -2.2830 -3.1866 -1.7958
   82SOPE   HN3 7463   0.170   0.634   6.904 -0.1109 -1.6437  0.6373
   82SOPE   C12 7464   0.003   0.524   6.877  0.4691  0.1014 -0.6841
   82SOPE  H12A 7465  -0.004   0.531   6.987 -0.5136  0.7380 -0.7796
   82SOPE  H12B 7466   0.007   0.415   6.855  0.3430 -0.6229  2.3971
   82SOPE   C11 7467  -0.120   0.594   6.819 -0.7829 -0.3584  0.5131
   82SOPE  H11A 7468  -0.110   0.590   6.708 -1.1642  0.5816  0.4322
   82SOPE  H11B 7469  -0.110   0.701   6.847  1.7236  0.2629 -2.2417
   82SOPE     P 7470  -0.368   0.615   6.865  0.2666 -0.4286  0.5587
   82SOPE   O13 7471  -0.344   0.741   6.945 -0.0372 -0.1455 -0.4583
   82SOPE   O14 7472  -0.485   0.529   6.894  0.1043 -0.6768  0.2111
   82SOPE   O12 7473  -0.240   0.536   6.864  0.0026  0.0905  0.3551
   82SOPE   O11 7474  -0.372   0.676   6.719 -0.0531  0.1631 -0.3615
   82SOPE    C1 7475  -0.435   0.620   6.609 -0.6293  0.3595  0.6599
   82SOPE    HA 7476  -0.463   0.703   6.540  1.1304 -1.0718 -1.9858
   82SOPE    HB 7477  -0.526   0.558   6.624 -0.9300  0.5520 -0.2443
   82SOPE    C2 7478  -0.340   0.528   6.531 -0.0848  0.3640  0.5187
   82SOPE    HS 7479  -0.293   0.465   6.609  0.0988 -1.4387 -0.9421
   82SOPE   O21 7480  -0.243   0.603   6.449  0.2254  0.8316  0.2876
   82SOPE   C21 7481  -0.139   0.529   6.399  1.2273  0.2227 -0.0354
   82SOPE   O22 7482  -0.108   0.421   6.435 -0.4687 -0.6980 -0.7316
   82SOPE   C22 7483  -0.087   0.597   6.270  0.1612 -0.6509 -0.1305
   82SOPE   H2R 7484  -0.049   0.688   6.321 -2.2340 -0.4038  1.4172
   82SOPE   H2S 7485  -0.171   0.619   6.201 -0.3481 -0.8814  0.4018
   82SOPE    C3 7486  -0.427   0.435   6.437  0.2379  0.5774 -0.2146
   82SOPE    HX 7487  -0.491   0.371   6.502 -1.9512  0.3961 -2.4192
   82SOPE    HY 7488  -0.362   0.356   6.394  0.2413  0.8264 -0.6779
   82SOPE   O31 7489  -0.523   0.508   6.350 -0.0339  0.2840  0.1510
   82SOPE   C31 7490  -0.496   0.494   6.220 -0.3914 -0.0414  0.5770
   82SOPE   O32 7491  -0.398   0.443   6.172 -0.5203  0.2135  0.1574
   82SOPE   C32 7492  -0.614   0.536   6.137 -0.4947 -0.0482 -0.6769
   82SOPE   H2X 7493  -0.674   0.614   6.188 -1.2410 -0.9093 -0.2070
   82SOPE   H2Y 7494  -0.682   0.449   6.126 -0.8016 -0.1991  1.7493
   82SOPE   C23 7495   0.019   0.514   6.201  0.8943 -0.1454  0.3434
   82SOPE   H3R 7496  -0.024   0.415   6.174 -0.1753  0.7565 -1.4470
   82SOPE   H3S 7497   0.101   0.476   6.265 -0.0979 -0.0601  1.7092
   82SOPE   C24 7498   0.081   0.588   6.083 -0.2109 -0.0539 -0.0032
   82SOPE   H4R 7499   0.001   0.636   6.022 -0.5044 -0.4877  0.0297
   82SOPE   H4S 7500   0.141   0.674   6.119 -2.0543  1.1444  0.3429
   82SOPE   C25 7501   0.177   0.505   5.995 -0.0371  0.1564  0.0081
   82SOPE   H5R 7502   0.240   0.429   6.047  1.6109  0.3195 -1.6530
   82SOPE   H5S 7503   0.108   0.448   5.929  0.0220 -2.2012  1.8791
   82SOPE   C26 7504   0.257   0.599   5.900  0.5604 -0.2952  0.8678
   82SOPE   H6R 7505   0.190   0.656   5.833 -0.1375  0.6049  2.2960
   82SOPE   H6S 7506   0.323   0.668   5.957  0.4906  0.8351 -0.3938
   82SOPE   C27 7507   0.326   0.505   5.796  0.0465 -0.5845 -0.1841
   82SOPE   H7R 7508   0.395   0.434   5.846  0.5584  0.7376  1.0430
   82SOPE   H7S 7509   0.252   0.455   5.729 -0.2406  1.3462 -1.3545
   82SOPE   C28 7510   0.421   0.588   5.708  1.1274 -0.0930 -0.4915
   82SOPE   H8R 7511   0.485   0.636   5.786  0.3797  0.7772 -0.3939
   82SOPE   H8S 7512   0.495   0.523   5.659  0.4798 -2.9365  1.9872
   82SOPE   C29 7513   0.364   0.693   5.617 -0.0268 -0.1903 -0.1393
   82SOPE   H91 7514   0.254   0.692   5.612 -0.0221 -0.0761 -0.2727
   82SOPE  C210 7515   0.432   0.764   5.526  0.3738  0.0712  0.5638
   82SOPE  H101 7516   0.380   0.831   5.457  1.8650 -0.2925 -0.9645
   82SOPE  C211 7517   0.577   0.760   5.504 -0.1834 -0.0584 -0.3538
   82SOPE  H11R 7518   0.617   0.671   5.558  1.1076  0.5413 -0.3112
   82SOPE  H11S 7519   0.634   0.852   5.528  1.5634 -0.7814 -1.5255
   82SOPE  C212 7520   0.608   0.726   5.356 -0.0052 -0.3863  0.3999
   82SOPE  H12R 7521   0.578   0.622   5.328 -0.2468 -0.1462 -0.2532
   82SOPE  H12S 7522   0.718   0.727   5.338  0.2506  0.0444  1.9192
   82SOPE  C213 7523   0.543   0.802   5.239  0.3374  0.3882 -0.1065
   82SOPE  H13R 7524   0.564   0.906   5.272  0.8101  0.3407 -0.2418
   82SOPE  H13S 7525   0.433   0.786   5.239  0.4707 -0.7677  1.6368
   82SOPE  C214 7526   0.600   0.744   5.107 -0.2555 -0.4852 -0.5124
   82SOPE  H14R 7527   0.589   0.634   5.094  0.3873 -0.4129 -1.7565
   82SOPE  H14S 7528   0.709   0.760   5.120 -0.3227 -0.2841 -0.1647
   82SOPE  C215 7529   0.540   0.812   4.985 -0.2490 -0.4695 -0.0712
   82SOPE  H15R 7530   0.568   0.918   5.005 -0.7419 -0.3727  0.1192
   82SOPE  H15S 7531   0.430   0.797   4.989 -0.4070  0.6326  0.0199
   82SOPE  C216 7532   0.589   0.755   4.858 -0.4568  0.2575  0.3373
   82SOPE  H16R 7533   0.560   0.648   4.860 -1.6582  0.5812  0.8634
   82SOPE  H16S 7534   0.700   0.757   4.854 -0.1857 -1.5372  3.4451
   82SOPE  C217 7535   0.518   0.801   4.731  0.6013 -0.0240 -0.7069
   82SOPE  H17R 7536   0.407   0.792   4.732  0.6934 -1.2512  0.3702
   82SOPE  H17S 7537   0.554   0.735   4.650  2.1695 -3.1065  2.2381
   82SOPE  C218 7538   0.542   0.950   4.704 -0.1289 -0.1936 -0.0908
   82SOPE  H18R 7539   0.538   1.013   4.795  1.5178 -1.2209  0.7456
   82SOPE  H18S 7540   0.488   0.991   4.616  0.9506 -1.7455 -1.5414
   82SOPE  H18T 7541   0.649   0.958   4.677  0.0017 -0.4734  0.3207
   82SOPE   C33 7542  -0.579   0.594   5.999 -0.2315  0.3780 -0.7883
   82SOPE   H3X 7543  -0.494   0.530   5.969  1.3134  0.6757  2.4768
   82SOPE   H3Y 7544  -0.555   0.702   6.009  0.7901  0.1659 -0.7957
   82SOPE   C34 7545  -0.689   0.581   5.894  0.4145 -0.0259  0.3617
   82SOPE   H4X 7546  -0.780   0.628   5.937 -0.8526 -1.7530 -0.3445
   82SOPE   H4Y 7547  -0.703   0.472   5.879 -2.3160  0.3079 -0.1469
   82SOPE   C35 7548  -0.650   0.649   5.764 -0.5125 -0.3735 -0.9788
   82SOPE   H5X 7549  -0.548   0.617   5.736 -0.9636 -2.5492 -0.3175
   82SOPE   H5Y 7550  -0.652   0.759   5.781 -0.1698 -0.7914  2.5807
   82SOPE   C36 7551  -0.743   0.609   5.642  0.5855 -0.4282  1.0868
   82SOPE   H6X 7552  -0.835   0.670   5.649  2.2105  3.5117 -4.7563
   82SOPE   H6Y 7553  -0.758   0.499   5.629 -1.8948  0.0850 -1.4057
   82SOPE   C37 7554  -0.680   0.654   5.511  0.1875 -0.1124  0.7189
   82SOPE   H7X 7555  -0.603   0.584   5.474  0.1608  1.1636 -2.0178
   82SOPE   H7Y 7556  -0.625   0.748   5.534 -1.2107  0.9370 -0.0143
   82SOPE   C38 7557  -0.780   0.696   5.401  0.4297  0.2510  0.2988
   82SOPE   H8X 7558  -0.859   0.763   5.442 -0.0434 -0.0323 -0.1350
   82SOPE   H8Y 7559  -0.816   0.595   5.372  0.2392 -0.4127  2.5936
   82SOPE   C39 7560  -0.722   0.757   5.271  0.0666  1.1035 -0.1278
   82SOPE   H9X 7561  -0.625   0.712   5.239  0.1767  2.8628 -2.5143
   82SOPE   H9Y 7562  -0.700   0.862   5.301  1.0978  1.4107 -1.8421
   82SOPE  C310 7563  -0.813   0.760   5.152  0.2896  0.4099 -0.0783
   82SOPE  H10X 7564  -0.772   0.830   5.076  1.7656 -1.2684 -0.8925
   82SOPE  H10Y 7565  -0.909   0.812   5.173  0.0428  0.4218 -1.1995
   82SOPE  C311 7566  -0.840   0.622   5.075  0.2215 -0.0174  0.3305
   82SOPE  H11X 7567  -0.920   0.567   5.129 -0.4076 -0.4086 -0.9866
   82SOPE  H11Y 7568  -0.739   0.576   5.084  0.2656 -0.0551 -0.3399
   82SOPE  C312 7569  -0.891   0.636   4.933  0.3381  0.9103 -0.1000
   82SOPE  H12X 7570  -0.970   0.714   4.924 -1.0362 -0.0655  2.3481
   82SOPE  H12Y 7571  -0.936   0.539   4.903 -1.6909  1.7124  0.1859
   82SOPE  C313 7572  -0.782   0.675   4.829 -0.5999 -0.2450  0.1576
   82SOPE  H13X 7573  -0.682   0.631   4.852 -0.7039 -0.8983 -0.6002
   82SOPE  H13Y 7574  -0.761   0.784   4.828 -1.7108  0.0147 -2.1148
   82SOPE  C314 7575  -0.821   0.630   4.689  0.0961 -0.5705 -0.1343
   82SOPE  H14X 7576  -0.869   0.532   4.711  0.1375 -0.2590  1.4551
   82SOPE  H14Y 7577  -0.729   0.601   4.633  0.4509 -2.6883  1.4137
   82SOPE  C315 7578  -0.903   0.737   4.618  0.6939 -0.0031 -0.0634
   82SOPE  H15X 7579  -0.829   0.819   4.616 -0.9355  1.5647  0.8891
   82SOPE  H15Y 7580  -0.988   0.778   4.678  2.0705  0.6566  1.5085
   82SOPE  C316 7581  -0.940   0.699   4.474 -0.9803 -0.3382 -0.5149
   82SOPE  H16X 7582  -1.033   0.638   4.482 -0.5079 -1.1584 -1.2040
   82SOPE  H16Y 7583  -0.849   0.651   4.433 -0.7366  0.1490 -0.5543
   82SOPE  C317 7584  -0.965   0.829   4.396  0.0303  0.2841 -0.6113
   82SOPE  H17X 7585  -0.904   0.911   4.439 -2.2460  1.3934  0.6687
   82SOPE  H17Y 7586  -1.073   0.854   4.404 -0.7011 -2.6146 -0.4155
   82SOPE  C318 7587  -0.938   0.804   4.249 -0.2848  0.1363 -0.0030
   82SOPE  H18X 7588  -0.843   0.747   4.244 -0.6179 -0.9225  3.2940
   82SOPE  H18Y 7589  -0.926   0.907   4.210 -1.3392  0.5406  0.6859
   82SOPE  H18Z 7590  -1.030   0.757   4.208 -1.6787  2.1436  0.6849
   83SOPE     N 7591   3.035   2.877   2.050  0.3638 -0.5054 -0.1821
   83SOPE   HN1 7592   3.090   2.790   2.037 -1.7989 -1.7409 -1.9378
   83SOPE   HN2 7593   2.937   2.855   2.022  0.4162  0.2937 -1.0535
   83SOPE   HN3 7594   3.078   2.956   1.997  0.8457  1.0380  2.3492
   83SOPE   C12 7595   3.035   2.912   2.193 -0.7935 -0.1800 -0.5145
   83SOPE  H12A 7596   2.980   2.831   2.246  0.2228 -0.3658  0.2764
   83SOPE  H12B 7597   2.981   3.007   2.210  0.2889  0.0605  1.9624
   83SOPE   C11 7598   3.173   2.918   2.261  0.1438  0.4575  0.2129
   83SOPE  H11A 7599   3.168   2.969   2.360 -2.4258 -1.7542  1.3497
   83SOPE  H11B 7600   3.244   2.978   2.201  1.2009 -0.8391  0.1125
   83SOPE     P 7601   3.323   2.722   2.173 -0.2443  0.2626  0.3749
   83SOPE   O13 7602   3.431   2.820   2.148  0.0226  0.2084 -0.0013
   83SOPE   O14 7603   3.237   2.681   2.059 -0.0043 -0.8858 -0.1914
   83SOPE   O12 7604   3.224   2.782   2.275  0.0926 -0.3008 -0.1484
   83SOPE   O11 7605   3.384   2.598   2.254 -0.2147  0.1587  0.4077
   83SOPE    C1 7606   3.324   2.544   2.365  0.4315 -0.3898 -0.1822
   83SOPE    HA 7607   3.318   2.436   2.341 -0.5317 -0.1778 -0.9770
   83SOPE    HB 7608   3.224   2.587   2.389  0.7211 -0.0700  0.4871
   83SOPE    C2 7609   3.414   2.562   2.485 -0.6788 -0.6272 -0.7421
   83SOPE    HS 7610   3.509   2.609   2.451 -0.4600 -0.5774 -0.0671
   83SOPE   O21 7611   3.435   2.436   2.546 -0.4495  0.1248 -0.2797
   83SOPE   C21 7612   3.551   2.423   2.613 -0.0429 -0.5614 -0.3050
   83SOPE   O22 7613   3.636   2.510   2.613  0.0712  0.2303 -0.0949
   83SOPE   C22 7614   3.558   2.294   2.695  0.0193  0.1965  0.0801
   83SOPE   H2R 7615   3.662   2.295   2.736  0.1386  2.5336 -0.1417
   83SOPE   H2S 7616   3.553   2.217   2.615  0.8122  1.5203 -1.3127
   83SOPE    C3 7617   3.347   2.661   2.591  0.4294  0.5368 -0.6883
   83SOPE    HX 7618   3.258   2.610   2.634  0.7808  0.2600 -0.2858
   83SOPE    HY 7619   3.323   2.757   2.540  3.2648  1.5205 -0.3133
   83SOPE   O31 7620   3.428   2.688   2.704 -0.0561  0.2769 -0.3189
   83SOPE   C31 7621   3.515   2.783   2.696  0.7794  0.3724  0.7301
   83SOPE   O32 7622   3.526   2.864   2.606  0.2798  0.2705 -0.3832
   83SOPE   C32 7623   3.594   2.794   2.823  0.7048  0.5207  0.3202
   83SOPE   H2X 7624   3.667   2.710   2.816 -1.3900 -1.3225 -0.4810
   83SOPE   H2Y 7625   3.523   2.767   2.904  0.0058  0.1195 -0.4168
   83SOPE   C23 7626   3.459   2.278   2.800  0.3710  0.2767 -0.1720
   83SOPE   H3R 7627   3.476   2.179   2.846  1.4843  0.3729 -0.3547
   83SOPE   H3S 7628   3.358   2.269   2.756  0.0727 -2.1592  0.8383
   83SOPE   C24 7629   3.457   2.382   2.913  0.1384 -0.4838 -0.1002
   83SOPE   H4R 7630   3.561   2.392   2.951 -0.6590  3.1328  1.5348
   83SOPE   H4S 7631   3.431   2.482   2.872  0.9598 -0.2369 -0.0501
   83SOPE   C25 7632   3.371   2.347   3.034  0.1081  0.5940 -0.7332
   83SOPE   H5R 7633   3.267   2.377   3.009 -0.3231 -1.5394 -1.7273
   83SOPE   H5S 7634   3.378   2.237   3.044  1.5178  0.7277  0.0337
   83SOPE   C26 7635   3.424   2.411   3.165  0.9217 -0.0428  0.0571
   83SOPE   H6R 7636   3.467   2.331   3.230 -0.1569 -1.2972 -0.7309
   83SOPE   H6S 7637   3.506   2.486   3.154  0.0164  0.9599 -0.0151
   83SOPE   C27 7638   3.308   2.492   3.227 -0.5139 -0.3384 -0.3497
   83SOPE   H7R 7639   3.289   2.569   3.149  0.2213  2.5525  2.0894
   83SOPE   H7S 7640   3.215   2.433   3.238 -1.2859  0.1435 -3.3787
   83SOPE   C28 7641   3.349   2.561   3.359  0.0065  0.0404  0.6053
   83SOPE   H8R 7642   3.441   2.619   3.338  0.1439 -0.2065  0.5210
   83SOPE   H8S 7643   3.270   2.635   3.384 -0.6893  0.4207 -2.3711
   83SOPE   C29 7644   3.363   2.472   3.483 -0.3632  0.5556 -0.1657
   83SOPE   H91 7645   3.372   2.363   3.466 -3.9643 -0.3460  2.3934
   83SOPE  C210 7646   3.330   2.521   3.609  0.5774  0.4071  0.3521
   83SOPE  H101 7647   3.325   2.445   3.688 -1.7637 -3.3454 -3.0209
   83SOPE  C211 7648   3.297   2.669   3.637 -1.1658 -0.3952  0.0508
   83SOPE  H11R 7649   3.193   2.684   3.674 -2.4398 -0.6289 -3.1518
   83SOPE  H11S 7650   3.306   2.740   3.552  2.5251 -0.3406  0.3535
   83SOPE  C212 7651   3.404   2.719   3.737 -0.3961  0.3702 -0.1810
   83SOPE  H12R 7652   3.396   2.829   3.746 -0.9818  0.4830 -1.7327
   83SOPE  H12S 7653   3.504   2.697   3.693 -1.6987 -0.5927 -2.8515
   83SOPE  C213 7654   3.399   2.650   3.879 -0.3537 -0.7200 -1.1599
   83SOPE  H13R 7655   3.425   2.543   3.866  0.5471 -0.7866  0.8216
   83SOPE  H13S 7656   3.295   2.650   3.920  0.1138  0.5145  0.1078
   83SOPE  C214 7657   3.496   2.709   3.980  0.3671 -0.5090  0.1108
   83SOPE  H14R 7658   3.602   2.728   3.952  0.8482  1.0116  2.5822
   83SOPE  H14S 7659   3.496   2.636   4.064 -0.0769 -1.6834 -0.8900
   83SOPE  C215 7660   3.436   2.843   4.036 -0.9097  0.4773 -0.1307
   83SOPE  H15R 7661   3.334   2.828   4.078 -0.7804 -2.1121 -0.5491
   83SOPE  H15S 7662   3.424   2.920   3.957  0.7755  2.6596  1.6061
   83SOPE  C216 7663   3.531   2.902   4.140  0.4659  0.0995  0.2333
   83SOPE  H16R 7664   3.472   2.990   4.175 -0.9552 -0.8071  0.1971
   83SOPE  H16S 7665   3.635   2.924   4.109 -0.0187  1.2204 -0.6467
   83SOPE  C217 7666   3.533   2.824   4.275  0.1505 -0.2711 -0.3766
   83SOPE  H17R 7667   3.602   2.865   4.351 -0.2734 -0.2858  0.0223
   83SOPE  H17S 7668   3.572   2.721   4.256  3.1097  0.9857 -1.7486
   83SOPE  C218 7669   3.392   2.802   4.335 -0.5157 -0.2903 -0.0545
   83SOPE  H18R 7670   3.392   2.752   4.434  1.6579 -1.7214 -0.6929
   83SOPE  H18S 7671   3.325   2.740   4.271  0.0783 -0.3069 -0.6648
   83SOPE  H18T 7672   3.356   2.905   4.356 -1.7087 -0.6749 -0.1511
   83SOPE   C33 7673   3.681   2.920   2.846 -0.0586 -0.2569  0.0118
   83SOPE   H3X 7674   3.604   3.001   2.848 -0.0636 -0.1604 -1.9286
   83SOPE   H3Y 7675   3.743   2.941   2.756 -1.0847 -0.7311 -0.8349
   83SOPE   C34 7676   3.748   2.911   2.987 -0.6856 -0.0730  1.3505
   83SOPE   H4X 7677   3.820   2.994   3.000 -1.7882  2.0590 -3.6010
   83SOPE   H4Y 7678   3.814   2.822   2.992  0.4284  0.5261 -1.0554
   83SOPE   C35 7679   3.642   2.918   3.098 -0.3669 -0.2133  0.3196
   83SOPE   H5X 7680   3.590   2.820   3.099  0.1441 -0.5262  3.3702
   83SOPE   H5Y 7681   3.564   2.995   3.081 -1.5293 -1.3740  0.3180
   83SOPE   C36 7682   3.692   2.959   3.238  0.2298 -0.6368  0.2653
   83SOPE   H6X 7683   3.741   3.057   3.223 -1.1219 -0.0706 -0.5620
   83SOPE   H6Y 7684   3.775   2.889   3.260  1.2400  0.1903 -0.8307
   83SOPE   C37 7685   3.581   2.959   3.341  0.1861  0.6033 -0.9243
   83SOPE   H7X 7686   3.533   2.861   3.325  2.6401 -1.3743  2.5113
   83SOPE   H7Y 7687   3.512   3.046   3.329 -0.6183  0.2661  0.8413
   83SOPE   C38 7688   3.631   2.954   3.487  0.0285  1.0730 -0.4407
   83SOPE   H8X 7689   3.722   2.891   3.484 -0.1761  0.7960 -1.1657
   83SOPE   H8Y 7690   3.551   2.904   3.546  0.4565  0.8172 -0.0671
   83SOPE   C39 7691   3.669   3.086   3.547 -0.0379 -0.8635 -0.2419
   83SOPE   H9X 7692   3.587   3.160   3.539  0.2360 -0.2076  2.1317
   83SOPE   H9Y 7693   3.763   3.127   3.504 -1.0921 -0.6912 -2.5543
   83SOPE  C310 7694   3.687   3.068   3.696  0.4890 -0.5794  0.3428
   83SOPE  H10X 7695   3.780   3.013   3.722  0.6639  1.0956  3.9023
   83SOPE  H10Y 7696   3.610   2.997   3.734  0.0380  0.6108  1.7413
   83SOPE  C311 7697   3.692   3.202   3.766  0.5306 -0.3140 -0.1049
   83SOPE  H11X 7698   3.630   3.267   3.700 -2.8798 -1.6671  1.5506
   83SOPE  H11Y 7699   3.799   3.234   3.762  0.0281  1.4691 -2.9373
   83SOPE  C312 7700   3.634   3.193   3.914  0.2241 -0.3673 -0.5261
   83SOPE  H12X 7701   3.698   3.122   3.971  1.3744  0.6468 -0.4975
   83SOPE  H12Y 7702   3.527   3.164   3.915 -0.6480  2.3821  2.3024
   83SOPE  C313 7703   3.638   3.337   3.982 -0.5016 -0.5071  0.7689
   83SOPE  H13X 7704   3.603   3.408   3.904 -1.5720 -2.0385 -0.2108
   83SOPE  H13Y 7705   3.745   3.346   4.008 -0.6766 -0.3630  1.4740
   83SOPE  C314 7706   3.546   3.359   4.096 -0.2933 -0.2249  0.1277
   83SOPE  H14X 7707   3.566   3.292   4.183 -0.3810 -0.2721  0.1107
   83SOPE  H14Y 7708   3.451   3.334   4.046 -0.5781 -0.9002  0.9861
   83SOPE  C315 7709   3.536   3.499   4.149 -0.6375 -0.8990  0.0943
   83SOPE  H15X 7710   3.480   3.557   4.073  0.7050  1.4991  0.8597
   83SOPE  H15Y 7711   3.634   3.550   4.146 -1.2444  0.2652 -0.3365
   83SOPE  C316 7712   3.475   3.513   4.291 -0.5908 -0.3422 -0.5349
   83SOPE  H16X 7713   3.464   3.619   4.322 -1.4629 -0.4762 -0.3770
   83SOPE  H16Y 7714   3.539   3.461   4.366  1.9126  1.3217 -1.3625
   83SOPE  C317 7715   3.329   3.457   4.310 -0.7567  0.1315 -0.3553
   83SOPE  H17X 7716   3.336   3.346   4.301  4.3861  0.1673 -0.0508
   83SOPE  H17Y 7717   3.253   3.487   4.235 -3.7710 -1.3399  1.9154
   83SOPE  C318 7718   3.274   3.497   4.440 -0.0781 -0.4591  0.7916
   83SOPE  H18X 7719   3.204   3.415   4.468 -2.1290 -0.1657 -2.8724
   83SOPE  H18Y 7720   3.223   3.595   4.436  3.3861  1.4677 -2.0160
   83SOPE  H18Z 7721   3.356   3.520   4.511  0.4045  0.2430  0.0310
   84SOPE     N 7722   2.908   1.723   2.162  0.1381 -0.0768 -0.1172
   84SOPE   HN1 7723   2.917   1.778   2.074  1.6157  1.4884  0.9487
   84SOPE   HN2 7724   2.876   1.779   2.244 -0.5356 -1.3478  0.5214
   84SOPE   HN3 7725   3.007   1.697   2.179  1.3137  1.1210 -4.0827
   84SOPE   C12 7726   2.830   1.600   2.128  0.5686  0.8079  0.3421
   84SOPE  H12A 7727   2.724   1.627   2.108  0.4686 -0.2766 -0.7186
   84SOPE  H12B 7728   2.854   1.525   2.206 -0.4011  0.5875  0.4411
   84SOPE   C11 7729   2.882   1.552   1.984  0.3956  0.2609  0.2498
   84SOPE  H11A 7730   2.857   1.636   1.917  0.5489  0.3625  0.3203
   84SOPE  H11B 7731   2.824   1.470   1.936  0.5993  0.6271 -0.6262
   84SOPE     P 7732   3.092   1.395   1.963  0.0434  0.1708  0.4380
   84SOPE   O13 7733   3.236   1.418   1.949 -0.1614  0.4236  0.1012
   84SOPE   O14 7734   3.020   1.318   1.861  0.2586  0.0292 -0.4437
   84SOPE   O12 7735   3.019   1.531   1.974  0.3990 -0.3012  0.1384
   84SOPE   O11 7736   3.056   1.342   2.109  0.3888 -0.0798  0.4758
   84SOPE    C1 7737   3.036   1.201   2.146  0.5553  0.3318 -0.1767
   84SOPE    HA 7738   3.131   1.150   2.171 -0.1618 -0.3082  1.3703
   84SOPE    HB 7739   2.987   1.153   2.058 -0.8522  1.1838  0.1155
   84SOPE    C2 7740   2.936   1.181   2.269  0.0533 -0.4666 -0.5946
   84SOPE    HS 7741   2.839   1.222   2.237 -1.2977  0.1097  3.5935
   84SOPE   O21 7742   2.999   1.254   2.387  0.6765  0.2645  0.3398
   84SOPE   C21 7743   2.920   1.329   2.460  0.7251  0.0130  0.9863
   84SOPE   O22 7744   2.803   1.349   2.427  0.2703  0.2254 -0.6138
   84SOPE   C22 7745   2.995   1.370   2.584  0.4897 -0.1817  0.1884
   84SOPE   H2R 7746   3.092   1.409   2.547  1.1326 -1.0967  0.8435
   84SOPE   H2S 7747   3.018   1.273   2.632 -0.5780 -1.3605 -1.5908
   84SOPE    C3 7748   2.911   1.034   2.310 -0.3324  0.4055 -0.1560
   84SOPE    HX 7749   3.007   0.992   2.346 -0.9669 -1.7670 -0.8442
   84SOPE    HY 7750   2.900   0.980   2.214  2.6243  1.5351 -1.2543
   84SOPE   O31 7751   2.809   1.009   2.408  0.2671  0.2779  0.4152
   84SOPE   C31 7752   2.678   1.017   2.367  0.2062  0.2938 -0.1910
   84SOPE   O32 7753   2.641   1.061   2.258 -0.4486 -0.0481  0.1842
   84SOPE   C32 7754   2.575   0.977   2.472  0.1058 -0.4072 -0.2287
   84SOPE   H2X 7755   2.606   0.876   2.508 -1.3305 -0.3886  1.2181
   84SOPE   H2Y 7756   2.474   0.975   2.426  0.9922  0.7379 -2.3328
   84SOPE   C23 7757   2.926   1.465   2.681  0.0412  0.5810 -0.3876
   84SOPE   H3R 7758   2.826   1.432   2.716 -0.2008  0.8623 -0.8184
   84SOPE   H3S 7759   2.909   1.564   2.635  0.2218  0.5637 -0.4922
   84SOPE   C24 7760   3.016   1.494   2.805  0.4703 -0.1647  0.2433
   84SOPE   H4R 7761   3.059   1.401   2.847 -0.8756  0.1295  2.4217
   84SOPE   H4S 7762   3.099   1.559   2.770 -1.5686  1.9685 -0.9112
   84SOPE   C25 7763   2.949   1.552   2.931 -0.2400  0.1328  0.3909
   84SOPE   H5R 7764   2.960   1.663   2.932  3.2893 -0.1077  2.1304
   84SOPE   H5S 7765   2.840   1.529   2.926 -0.5640  1.1360  2.1914
   84SOPE   C26 7766   3.004   1.500   3.067 -0.3715  0.6729 -0.2642
   84SOPE   H6R 7767   2.969   1.396   3.081  1.1351  0.2690  0.6879
   84SOPE   H6S 7768   3.114   1.492   3.078 -0.6523 -1.1606  2.0702
   84SOPE   C27 7769   2.934   1.572   3.184 -0.6880 -0.3130 -0.4003
   84SOPE   H7R 7770   2.935   1.678   3.153  0.1064 -0.8911 -2.5211
   84SOPE   H7S 7771   2.828   1.542   3.199  0.2325 -2.4298  3.2219
   84SOPE   C28 7772   3.015   1.559   3.318  0.7680  0.5050 -0.4665
   84SOPE   H8R 7773   3.121   1.579   3.292  0.5977  0.9740 -0.8092
   84SOPE   H8S 7774   2.970   1.637   3.383  0.0170 -0.1309 -0.2011
   84SOPE   C29 7775   2.991   1.429   3.377 -0.0709 -0.2455  0.5134
   84SOPE   H91 7776   2.928   1.367   3.311  0.2188 -1.4636  1.3430
   84SOPE  C210 7777   3.000   1.398   3.507 -0.1894  0.8668  0.1294
   84SOPE  H101 7778   2.976   1.296   3.542 -2.7621  1.8030  1.3742
   84SOPE  C211 7779   3.068   1.483   3.609  0.6412  0.6141 -0.2381
   84SOPE  H11R 7780   2.995   1.517   3.686 -0.0794  1.3170 -1.2018
   84SOPE  H11S 7781   3.096   1.582   3.566 -0.9884  0.9832 -0.5372
   84SOPE  C212 7782   3.188   1.421   3.666 -0.5002  0.4089 -0.2703
   84SOPE  H12R 7783   3.269   1.413   3.591  1.3774  1.1563  1.5933
   84SOPE  H12S 7784   3.174   1.316   3.700 -0.6253  0.0325 -1.4386
   84SOPE  C213 7785   3.239   1.497   3.789 -1.0150  0.5238 -0.3444
   84SOPE  H13R 7786   3.154   1.504   3.861  1.0566 -2.6487  2.7523
   84SOPE  H13S 7787   3.274   1.597   3.755 -3.5903  1.7950  0.4520
   84SOPE  C214 7788   3.343   1.415   3.874 -0.1136 -0.2579  1.0065
   84SOPE  H14R 7789   3.439   1.424   3.820 -0.7961 -2.0876 -0.6543
   84SOPE  H14S 7790   3.307   1.310   3.871  1.1869 -0.7007 -0.8461
   84SOPE  C215 7791   3.353   1.467   4.018  0.0301  0.3720 -0.0731
   84SOPE  H15R 7792   3.407   1.385   4.069 -0.6541 -0.4099 -0.5716
   84SOPE  H15S 7793   3.261   1.454   4.079 -0.0386  1.6312  0.1228
   84SOPE  C216 7794   3.422   1.600   4.040  0.7576 -0.5584 -0.1879
   84SOPE  H16R 7795   3.416   1.646   4.141  0.2937 -0.0943 -0.4198
   84SOPE  H16S 7796   3.376   1.658   3.957  0.9395 -1.2046 -0.7468
   84SOPE  C217 7797   3.570   1.599   4.000 -0.3273  0.1581  0.1068
   84SOPE  H17R 7798   3.600   1.589   3.894  1.3790 -2.7567  0.7541
   84SOPE  H17S 7799   3.630   1.525   4.056  0.7623  1.5322  0.8320
   84SOPE  C218 7800   3.641   1.728   4.054  0.0925  0.3317  0.0438
   84SOPE  H18R 7801   3.749   1.710   4.036  0.2701  0.6381  0.7818
   84SOPE  H18S 7802   3.623   1.742   4.162 -0.7973  0.1704 -0.0722
   84SOPE  H18T 7803   3.609   1.818   3.997  0.8295  0.2657 -0.4917
   84SOPE   C33 7804   2.571   1.076   2.592  0.4698 -0.1276  0.1612
   84SOPE   H3X 7805   2.476   1.058   2.647 -0.3024  0.4883 -0.9277
   84SOPE   H3Y 7806   2.561   1.183   2.564  1.1759 -0.1478 -0.1702
   84SOPE   C34 7807   2.683   1.063   2.696 -0.4140 -0.3078 -0.0778
   84SOPE   H4X 7808   2.774   1.083   2.637 -0.7329  0.3441 -0.3527
   84SOPE   H4Y 7809   2.699   0.963   2.742 -0.2559 -0.0379  0.4654
   84SOPE   C35 7810   2.670   1.160   2.812  0.6914  0.6102  0.8154
   84SOPE   H5X 7811   2.570   1.150   2.859  0.7375  1.5559  1.1288
   84SOPE   H5Y 7812   2.666   1.262   2.769 -2.5162  1.0773  1.9573
   84SOPE   C36 7813   2.783   1.179   2.921  0.2989 -0.4267  0.1330
   84SOPE   H6X 7814   2.758   1.269   2.980 -2.2901 -0.3385 -0.9830
   84SOPE   H6Y 7815   2.883   1.199   2.876  0.7014 -0.6655  0.8935
   84SOPE   C37 7816   2.784   1.057   3.012 -0.3054  0.5913  0.1882
   84SOPE   H7X 7817   2.800   0.967   2.949 -0.2553  0.3627  0.5229
   84SOPE   H7Y 7818   2.684   1.048   3.059 -1.7816 -0.2713 -2.8680
   84SOPE   C38 7819   2.898   1.059   3.118 -0.2121 -0.5072  0.0868
   84SOPE   H8X 7820   2.893   1.150   3.181 -1.2286 -0.0932 -0.5694
   84SOPE   H8Y 7821   2.996   1.055   3.066 -0.9657  0.1087 -1.4272
   84SOPE   C39 7822   2.888   0.927   3.211  0.1576 -0.8216 -0.1472
   84SOPE   H9X 7823   2.979   0.921   3.274 -0.6755 -0.5484  1.1393
   84SOPE   H9Y 7824   2.883   0.839   3.144  2.0816 -1.6515  0.7445
   84SOPE  C310 7825   2.765   0.936   3.307 -0.5925  0.4918 -0.6541
   84SOPE  H10X 7826   2.676   0.912   3.245 -0.6881  0.2523 -0.4251
   84SOPE  H10Y 7827   2.776   1.032   3.360  3.3179 -0.8956  1.4016
   84SOPE  C311 7828   2.767   0.823   3.409 -0.1456 -0.4497 -0.2316
   84SOPE  H11X 7829   2.706   0.854   3.497  1.6241 -1.5459  1.4575
   84SOPE  H11Y 7830   2.868   0.807   3.453  0.2422  2.0202 -0.0603
   84SOPE  C312 7831   2.734   0.690   3.350 -0.9039  0.7639  0.4297
   84SOPE  H12X 7832   2.820   0.641   3.298 -0.1186  1.0610  1.4312
   84SOPE  H12Y 7833   2.652   0.697   3.275 -0.5441 -4.1164 -0.7706
   84SOPE  C313 7834   2.672   0.581   3.441  0.6742 -0.3581 -0.3608
   84SOPE  H13X 7835   2.609   0.509   3.384 -1.8908  0.6133  1.1269
   84SOPE  H13Y 7836   2.596   0.636   3.499  0.4220 -0.2512 -0.7878
   84SOPE  C314 7837   2.775   0.509   3.526 -0.1762  0.3134 -0.1639
   84SOPE  H14X 7838   2.819   0.575   3.604 -2.8275 -0.3292  2.0301
   84SOPE  H14Y 7839   2.851   0.468   3.456 -1.1786  2.5148 -2.7001
   84SOPE  C315 7840   2.708   0.402   3.609 -0.2277  0.3740  0.1171
   84SOPE  H15X 7841   2.647   0.330   3.549 -0.1874 -0.3903  0.9575
   84SOPE  H15Y 7842   2.634   0.453   3.675  0.6726 -0.6773  2.0188
   84SOPE  C316 7843   2.811   0.319   3.685 -0.1542  0.4400 -1.0739
   84SOPE  H16X 7844   2.907   0.356   3.643 -1.5446  2.2494 -2.8913
   84SOPE  H16Y 7845   2.789   0.215   3.654 -0.0456  0.2517 -0.5243
   84SOPE  C317 7846   2.809   0.325   3.835  0.1718 -0.2509  0.1377
   84SOPE  H17X 7847   2.705   0.324   3.874  0.0401  2.9946  0.2155
   84SOPE  H17Y 7848   2.856   0.421   3.867 -1.3603  0.1063  1.4493
   84SOPE  C318 7849   2.884   0.214   3.900  0.9089  0.5035 -1.0068
   84SOPE  H18X 7850   2.992   0.236   3.903  0.9417  0.3785  2.1539
   84SOPE  H18Y 7851   2.869   0.111   3.860 -0.1950  0.2642 -0.0622
   84SOPE  H18Z 7852   2.864   0.209   4.010  2.3999  0.2342 -0.7272
   85SOPE     N 7853   1.549   0.298   1.941 -0.2755  0.1913 -0.2392
   85SOPE   HN1 7854   1.643   0.297   1.897  0.5253 -1.1484  1.3918
   85SOPE   HN2 7855   1.499   0.222   1.890 -0.3437 -0.4082  0.7031
   85SOPE   HN3 7856   1.501   0.388   1.920 -1.3007  0.8950  4.1211
   85SOPE   C12 7857   1.562   0.278   2.088  0.0897 -0.3660 -0.6447
   85SOPE  H12A 7858   1.460   0.264   2.130 -0.0826  1.4401 -0.3816
   85SOPE  H12B 7859   1.606   0.363   2.145 -0.3745 -0.9237  0.5753
   85SOPE   C11 7860   1.657   0.160   2.113 -0.4112  0.6680 -0.6808
   85SOPE  H11A 7861   1.672   0.142   2.222  2.2507  1.6275 -0.8053
   85SOPE  H11B 7862   1.757   0.199   2.084  1.5105 -2.1588  1.5052
   85SOPE     P 7863   1.714  -0.080   2.008  0.0810 -0.0500 -0.1670
   85SOPE   O13 7864   1.806  -0.027   1.912 -0.5292 -0.4511  0.9596
   85SOPE   O14 7865   1.630  -0.194   1.971  0.5938 -0.9681 -0.3254
   85SOPE   O12 7866   1.611   0.037   2.048 -0.6712  0.2809  0.0128
   85SOPE   O11 7867   1.788  -0.114   2.137  0.0023 -0.4807  0.0065
   85SOPE    C1 7868   1.718  -0.184   2.242  0.4503 -0.7261 -0.3382
   85SOPE    HA 7869   1.786  -0.254   2.296 -0.7055 -0.1147  2.0500
   85SOPE    HB 7870   1.633  -0.243   2.203 -0.5369  0.2411  0.2972
   85SOPE    C2 7871   1.649  -0.102   2.358  0.7281 -0.2188 -0.2668
   85SOPE    HS 7872   1.571  -0.039   2.310  2.8795  1.8370 -1.3259
   85SOPE   O21 7873   1.747  -0.019   2.414 -0.1673 -0.0500 -0.1181
   85SOPE   C21 7874   1.704   0.074   2.505  0.0932  0.1759  0.7269
   85SOPE   O22 7875   1.590   0.096   2.542  0.6667  0.1203 -0.1751
   85SOPE   C22 7876   1.821   0.152   2.569 -0.0415  0.5260 -0.3933
   85SOPE   H2R 7877   1.788   0.236   2.634  0.5544 -0.8523  1.8178
   85SOPE   H2S 7878   1.877   0.196   2.484  0.2524 -0.6170 -0.8080
   85SOPE    C3 7879   1.589  -0.190   2.467  0.6612  0.5943  0.5002
   85SOPE    HX 7880   1.532  -0.277   2.429  2.3310 -0.4623  0.3434
   85SOPE    HY 7881   1.506  -0.128   2.508 -0.3302 -0.4362  0.1192
   85SOPE   O31 7882   1.673  -0.234   2.579  0.2104  0.0303  0.4425
   85SOPE   C31 7883   1.740  -0.346   2.558 -0.4039  0.0693  0.2074
   85SOPE   O32 7884   1.754  -0.412   2.457 -0.7366  0.3638  0.5012
   85SOPE   C32 7885   1.783  -0.405   2.696  0.6829 -0.2009  0.1977
   85SOPE   H2X 7886   1.735  -0.353   2.781  1.1435  0.5136  0.0276
   85SOPE   H2Y 7887   1.891  -0.381   2.711  1.0983 -2.3003  0.9180
   85SOPE   C23 7888   1.920   0.047   2.640  0.4070 -0.6177 -0.1527
   85SOPE   H3R 7889   2.018   0.099   2.646 -0.9801  2.1991 -0.5485
   85SOPE   H3S 7890   1.936  -0.036   2.567  4.2004 -0.4120  0.2363
   85SOPE   C24 7891   1.875   0.014   2.781  0.2252 -0.1999 -0.2190
   85SOPE   H4R 7892   1.878   0.105   2.844 -3.6553 -0.0446  0.0046
   85SOPE   H4S 7893   1.771  -0.028   2.782 -0.2699  0.9348  1.7180
   85SOPE   C25 7894   1.979  -0.090   2.839  0.1432 -0.1856  0.2990
   85SOPE   H5R 7895   1.969  -0.182   2.778  0.7663  0.2542 -0.4791
   85SOPE   H5S 7896   2.081  -0.050   2.822 -0.2630  0.9118  0.3636
   85SOPE   C26 7897   1.950  -0.129   2.984  0.1201 -0.0959  0.1636
   85SOPE   H6R 7898   2.016  -0.213   3.014  2.7353  1.3822 -1.1990
   85SOPE   H6S 7899   1.995  -0.041   3.034  2.0241 -1.0448  0.1970
   85SOPE   C27 7900   1.808  -0.159   3.010 -0.2638 -0.0805  0.5425
   85SOPE   H7R 7901   1.735  -0.078   2.987  0.3192  0.3806  0.2889
   85SOPE   H7S 7902   1.792  -0.250   2.948  0.0055 -0.0423  0.4176
   85SOPE   C28 7903   1.785  -0.197   3.157  0.0684 -0.3119  0.5224
   85SOPE   H8R 7904   1.682  -0.237   3.172 -0.7107  1.7293  1.0731
   85SOPE   H8S 7905   1.858  -0.279   3.172  0.9891  0.0807 -1.5267
   85SOPE   C29 7906   1.809  -0.089   3.258  0.0968  0.0805  0.6712
   85SOPE   H91 7907   1.756   0.006   3.241  1.9621  0.8959 -0.9737
   85SOPE  C210 7908   1.878  -0.105   3.376  0.1734  0.2012  1.0777
   85SOPE  H101 7909   1.894  -0.021   3.444  1.4095 -0.5570  1.7644
   85SOPE  C211 7910   1.945  -0.231   3.416 -0.2501  0.3100  0.4467
   85SOPE  H11R 7911   1.982  -0.288   3.327  4.0934 -1.6985  3.1662
   85SOPE  H11S 7912   1.872  -0.295   3.470  0.5651 -0.4878  0.6361
   85SOPE  C212 7913   2.064  -0.203   3.511 -0.1294 -0.3526 -0.1964
   85SOPE  H12R 7914   2.134  -0.123   3.475 -1.7708  0.5929 -1.4260
   85SOPE  H12S 7915   2.117  -0.299   3.525 -1.4897 -0.8195  2.3786
   85SOPE  C213 7916   2.014  -0.153   3.650 -0.3971 -0.0384  0.1394
   85SOPE  H13R 7917   1.944  -0.221   3.703  0.2106  1.0281  2.4339
   85SOPE  H13S 7918   1.958  -0.058   3.638  0.3052  0.3467 -0.1555
   85SOPE  C214 7919   2.130  -0.132   3.753 -0.2856 -0.0031  0.3988
   85SOPE  H14R 7920   2.177  -0.035   3.724 -0.3023  1.2460  3.9884
   85SOPE  H14S 7921   2.207  -0.211   3.765  0.1384  0.3952  0.3286
   85SOPE  C215 7922   2.066  -0.120   3.894 -0.3386 -0.0507 -0.1243
   85SOPE  H15R 7923   2.023  -0.219   3.922 -1.9076  0.8779  0.9834
   85SOPE  H15S 7924   1.975  -0.056   3.885  0.3278  1.2137  1.5340
   85SOPE  C216 7925   2.155  -0.056   4.006  0.7188  0.1196 -0.3562
   85SOPE  H16R 7926   2.190   0.043   3.972 -1.7494  1.1163 -0.1883
   85SOPE  H16S 7927   2.244  -0.118   4.034  1.6669  0.5816 -2.1516
   85SOPE  C217 7928   2.081  -0.028   4.143 -0.2277  0.1836 -0.0044
   85SOPE  H17R 7929   2.045  -0.123   4.188 -1.2752  1.3545  1.7151
   85SOPE  H17S 7930   1.991   0.036   4.129 -0.8176 -0.1968  1.8580
   85SOPE  C218 7931   2.171   0.036   4.253 -0.5232  0.6951 -0.5337
   85SOPE  H18R 7932   2.172   0.146   4.242  0.0137  0.6948 -0.5279
   85SOPE  H18S 7933   2.276   0.006   4.230 -0.4337 -0.2102  0.9574
   85SOPE  H18T 7934   2.138  -0.003   4.351 -1.1259  0.5585 -0.7847
   85SOPE   C33 7935   1.777  -0.551   2.714 -0.1770  0.0588 -0.4293
   85SOPE   H3X 7936   1.847  -0.602   2.646  0.8703 -1.9012  1.9587
   85SOPE   H3Y 7937   1.673  -0.586   2.694 -0.0684 -1.0937  0.8433
   85SOPE   C34 7938   1.838  -0.600   2.843 -0.0211 -0.2017 -0.2889
   85SOPE   H4X 7939   1.938  -0.555   2.862 -0.3563  1.0085 -1.2670
   85SOPE   H4Y 7940   1.869  -0.706   2.828  1.0883  0.3098 -2.0432
   85SOPE   C35 7941   1.753  -0.579   2.964 -0.0022  0.3943 -0.5075
   85SOPE   H5X 7942   1.671  -0.653   2.980  0.6153 -0.1252  0.3706
   85SOPE   H5Y 7943   1.716  -0.474   2.966 -0.1219  0.3570 -0.6962
   85SOPE   C36 7944   1.841  -0.576   3.090 -0.4049  0.2140 -0.3872
   85SOPE   H6X 7945   1.927  -0.505   3.084  1.8274 -2.0994  1.8142
   85SOPE   H6Y 7946   1.893  -0.674   3.096  0.1367  0.2798 -2.8056
   85SOPE   C37 7947   1.764  -0.546   3.215  0.4523  0.3584  0.1397
   85SOPE   H7X 7948   1.664  -0.592   3.228  0.0209  1.4766  0.8579
   85SOPE   H7Y 7949   1.743  -0.441   3.242  0.9536  0.0881  1.6998
   85SOPE   C38 7950   1.832  -0.605   3.340 -0.8669 -0.3496  0.4623
   85SOPE   H8X 7951   1.934  -0.565   3.358 -0.3105 -0.6755 -1.7092
   85SOPE   H8Y 7952   1.855  -0.712   3.322  1.7901  0.0711  0.9182
   85SOPE   C39 7953   1.757  -0.582   3.471  0.2929  0.6188 -0.1205
   85SOPE   H9X 7954   1.675  -0.655   3.484  0.6610  0.4876  1.7393
   85SOPE   H9Y 7955   1.706  -0.484   3.475  1.7699  1.5601 -2.3312
   85SOPE  C310 7956   1.852  -0.602   3.588 -0.1319 -0.1209  0.2800
   85SOPE  H10X 7957   1.936  -0.532   3.566 -2.1868  1.4065 -3.8863
   85SOPE  H10Y 7958   1.899  -0.702   3.573 -2.0970 -0.7837 -2.0147
   85SOPE  C311 7959   1.792  -0.594   3.722  0.7298 -0.8898  0.5052
   85SOPE  H11X 7960   1.693  -0.643   3.725 -0.4521  1.1917 -1.7766
   85SOPE  H11Y 7961   1.768  -0.487   3.736 -0.4504 -0.8007 -1.7875
   85SOPE  C312 7962   1.892  -0.627   3.834  0.1922  0.2542 -0.1993
   85SOPE  H12X 7963   1.955  -0.709   3.791 -2.5673 -2.8431  1.2054
   85SOPE  H12Y 7964   1.844  -0.665   3.927 -0.2284 -0.7282 -0.8056
   85SOPE  C313 7965   1.986  -0.513   3.868  0.0178 -0.0634  0.2317
   85SOPE  H13X 7966   1.923  -0.429   3.906  1.4557  2.2555 -2.1390
   85SOPE  H13Y 7967   2.037  -0.483   3.774  0.9975 -0.8560  0.4952
   85SOPE  C314 7968   2.095  -0.568   3.958 -0.1337  0.2582  0.0220
   85SOPE  H14X 7969   2.136  -0.658   3.906  0.3359 -0.4836  1.5991
   85SOPE  H14Y 7970   2.051  -0.612   4.050 -3.0118 -3.2841 -2.7058
   85SOPE  C315 7971   2.198  -0.459   3.983  0.1895  0.5106  0.8219
   85SOPE  H15X 7972   2.157  -0.375   4.042  1.0321 -0.1452  2.4240
   85SOPE  H15Y 7973   2.229  -0.423   3.883 -1.0793 -0.9636 -0.1553
   85SOPE  C316 7974   2.325  -0.509   4.049  0.1676  0.1648 -0.5588
   85SOPE  H16X 7975   2.374  -0.592   3.994  2.0862  0.7737  0.1527
   85SOPE  H16Y 7976   2.305  -0.548   4.151  1.9066 -1.1537 -0.6587
   85SOPE  C317 7977   2.439  -0.409   4.045 -0.1401 -0.3137  0.2206
   85SOPE  H17X 7978   2.417  -0.313   4.096  0.5902 -0.5515  1.0060
   85SOPE  H17Y 7979   2.464  -0.390   3.939  2.4362 -2.1227  0.4200
   85SOPE  C318 7980   2.564  -0.465   4.108 -0.0831 -0.1528 -0.0427
   85SOPE  H18X 7981   2.586  -0.559   4.053 -2.1638 -0.5011 -0.3603
   85SOPE  H18Y 7982   2.554  -0.480   4.218 -1.2054 -0.8797 -0.2284
   85SOPE  H18Z 7983   2.645  -0.389   4.094 -1.2738  0.9912 -0.9770
   86SOPE     N 7984   1.005   1.413   2.157 -0.0529 -0.2868 -0.4211
   86SOPE   HN1 7985   0.929   1.470   2.200  0.1982 -0.6638  0.5517
   86SOPE   HN2 7986   1.042   1.455   2.069  2.9939  0.8613  1.2884
   86SOPE   HN3 7987   0.967   1.318   2.138  1.5054 -0.8246 -0.9870
   86SOPE   C12 7988   1.112   1.399   2.258  0.3626 -0.9836  0.5931
   86SOPE  H12A 7989   1.190   1.328   2.221  1.4754 -0.0930  1.1641
   86SOPE  H12B 7990   1.078   1.362   2.357  2.4759 -0.5528  1.5385
   86SOPE   C11 7991   1.172   1.539   2.281 -0.1619 -0.5657  0.0533
   86SOPE  H11A 7992   1.205   1.589   2.188  0.2848  0.1587  0.5927
   86SOPE  H11B 7993   1.255   1.530   2.354 -0.3348 -2.8376  0.0466
   86SOPE     P 7994   1.112   1.755   2.405  0.0636 -0.2021 -0.0747
   86SOPE   O13 7995   0.975   1.816   2.430  0.1480 -0.0257 -0.0270
   86SOPE   O14 7996   1.203   1.824   2.311 -0.0283  0.2443 -0.9680
   86SOPE   O12 7997   1.067   1.621   2.337  0.4306 -0.4353 -0.1564
   86SOPE   O11 7998   1.182   1.711   2.538  0.4122 -0.3131 -0.7632
   86SOPE    C1 7999   1.121   1.622   2.628  0.3447 -0.4618  0.0548
   86SOPE    HA 8000   1.196   1.578   2.698 -0.4691 -1.7939  0.1197
   86SOPE    HB 8001   1.060   1.538   2.588 -0.6168  0.3993 -0.3146
   86SOPE    C2 8002   1.021   1.699   2.729 -0.0753  0.3294  0.0265
   86SOPE    HS 8003   0.960   1.766   2.665  0.2089  0.2134 -0.3715
   86SOPE   O21 8004   1.099   1.777   2.816 -0.7044  0.4835 -0.1947
   86SOPE   C21 8005   1.043   1.884   2.862 -0.0081  0.0428 -0.3135
   86SOPE   O22 8006   0.934   1.930   2.829  0.1860 -0.3737 -0.5247
   86SOPE   C22 8007   1.132   1.941   2.975 -0.0192  0.5636  0.0528
   86SOPE   H2R 8008   1.220   1.983   2.921  0.9102 -1.2257  0.1222
   86SOPE   H2S 8009   1.157   1.861   3.048 -0.0154  0.7320  0.2367
   86SOPE    C3 8010   0.928   1.602   2.809  0.1846 -0.5335  0.3962
   86SOPE    HX 8011   0.990   1.533   2.871  0.9736  0.6640  0.9616
   86SOPE    HY 8012   0.874   1.538   2.735 -1.2236  1.1497 -0.0982
   86SOPE   O31 8013   0.834   1.673   2.888 -0.2782  0.0959  0.2582
   86SOPE   C31 8014   0.722   1.717   2.819  0.6415 -0.2078 -0.5389
   86SOPE   O32 8015   0.709   1.696   2.700 -0.2296 -0.0554 -0.1198
   86SOPE   C32 8016   0.632   1.796   2.920 -0.5604 -0.6081  0.4898
   86SOPE   H2X 8017   0.701   1.873   2.961 -0.8025  0.5359 -1.1771
   86SOPE   H2Y 8018   0.621   1.724   3.005  0.4149 -2.0107 -0.5126
   86SOPE   C23 8019   1.055   2.053   3.049 -0.0217 -1.1439 -0.3034
   86SOPE   H3R 8020   1.022   2.141   2.990  1.3360  0.8926  1.8016
   86SOPE   H3S 8021   1.128   2.101   3.117  0.8241 -0.2389 -1.8087
   86SOPE   C24 8022   0.940   2.004   3.135 -0.5482  0.2046  0.6946
   86SOPE   H4R 8023   0.865   1.957   3.069  0.5199 -1.1127  0.3731
   86SOPE   H4S 8024   0.979   1.922   3.200  0.0869  0.2212  0.3390
   86SOPE   C25 8025   0.890   2.114   3.228  1.0854  0.4177 -0.5061
   86SOPE   H5R 8026   0.973   2.140   3.297  0.8535 -1.1218  0.4158
   86SOPE   H5S 8027   0.853   2.200   3.169  0.7270 -0.1112 -1.0652
   86SOPE   C26 8028   0.774   2.069   3.310 -0.0097  0.4040  0.2242
   86SOPE   H6R 8029   0.698   2.033   3.237 -0.6459  2.5882 -0.2489
   86SOPE   H6S 8030   0.813   1.989   3.377 -2.8306 -1.5142 -0.2375
   86SOPE   C27 8031   0.713   2.187   3.389  0.3988  0.1190  0.6719
   86SOPE   H7R 8032   0.792   2.238   3.449  0.6529  0.4884  0.0299
   86SOPE   H7S 8033   0.681   2.260   3.312  3.7207 -1.1379 -2.1900
   86SOPE   C28 8034   0.593   2.145   3.480 -0.2665 -0.1302 -0.5825
   86SOPE   H8R 8035   0.542   2.240   3.508  1.8513  1.1035 -0.7368
   86SOPE   H8S 8036   0.519   2.089   3.418 -3.0568  2.1032  0.4879
   86SOPE   C29 8037   0.629   2.065   3.600 -0.1974  0.1491 -0.1493
   86SOPE   H91 8038   0.686   1.973   3.578 -1.2935 -0.9141  1.2769
   86SOPE  C210 8039   0.595   2.099   3.729 -0.3929 -0.8058  1.0510
   86SOPE  H101 8040   0.620   2.025   3.807  0.6794 -2.0534 -0.4268
   86SOPE  C211 8041   0.525   2.227   3.779 -0.1029  0.9433  0.3435
   86SOPE  H11R 8042   0.431   2.196   3.829  0.0529  0.4228  0.3226
   86SOPE  H11S 8043   0.485   2.297   3.702  0.2828  0.3460 -0.4074
   86SOPE  C212 8044   0.612   2.318   3.872  0.2988  0.3050 -0.2482
   86SOPE  H12R 8045   0.543   2.387   3.927  0.3964  0.0223  0.2305
   86SOPE  H12S 8046   0.692   2.370   3.815 -0.9559  0.2309 -2.1700
   86SOPE  C213 8047   0.677   2.231   3.980 -0.6115  0.6780  0.6672
   86SOPE  H13R 8048   0.773   2.176   3.963 -1.9412 -1.7881  0.7032
   86SOPE  H13S 8049   0.602   2.161   4.023  0.2230 -0.5969  0.1134
   86SOPE  C214 8050   0.725   2.314   4.102  0.1175 -0.1512  0.0079
   86SOPE  H14R 8051   0.767   2.239   4.172  0.8745 -0.8754 -1.1950
   86SOPE  H14S 8052   0.636   2.367   4.143 -1.3177 -1.6219 -1.0847
   86SOPE  C215 8053   0.824   2.422   4.063  0.6930 -0.4033 -0.4737
   86SOPE  H15R 8054   0.772   2.508   4.016  1.3510 -0.3208 -1.0685
   86SOPE  H15S 8055   0.893   2.388   3.982  1.5418  2.5389 -1.0980
   86SOPE  C216 8056   0.905   2.471   4.182 -0.3066 -0.4566 -0.0574
   86SOPE  H16R 8057   0.991   2.527   4.141 -0.7370  1.4007  1.4442
   86SOPE  H16S 8058   0.943   2.381   4.235  0.9860  0.8366  1.3058
   86SOPE  C217 8059   0.820   2.557   4.273  0.6843  0.2155 -0.5270
   86SOPE  H17R 8060   0.738   2.505   4.328  2.0791 -1.4300  0.1177
   86SOPE  H17S 8061   0.770   2.641   4.221 -0.7256  0.2778  0.8393
   86SOPE  C218 8062   0.901   2.613   4.393 -0.6074 -0.0906  0.4249
   86SOPE  H18R 8063   0.971   2.690   4.354  0.6492 -0.4684  1.8168
   86SOPE  H18S 8064   0.965   2.538   4.445 -0.6630 -0.5606 -0.1776
   86SOPE  H18T 8065   0.835   2.675   4.458  0.1126  0.8418  0.2829
   86SOPE   C33 8066   0.515   1.869   2.854 -0.0623  1.0873 -0.7260
   86SOPE   H3X 8067   0.429   1.802   2.833  0.2993 -0.1670  1.5490
   86SOPE   H3Y 8068   0.548   1.915   2.758  0.2632  1.2270 -0.5488
   86SOPE   C34 8069   0.456   1.976   2.941  1.0714 -0.5293  0.8215
   86SOPE   H4X 8070   0.515   2.069   2.955  0.2425  0.0465  0.5802
   86SOPE   H4Y 8071   0.436   1.930   3.040  0.0432  1.7153  1.7141
   86SOPE   C35 8072   0.319   2.021   2.876 -0.0282 -0.0407 -0.3647
   86SOPE   H5X 8073   0.237   1.947   2.889 -0.9270  0.9242 -0.4016
   86SOPE   H5Y 8074   0.351   2.032   2.770  0.6872 -0.2680 -0.1802
   86SOPE   C36 8075   0.260   2.148   2.907  0.1360  0.0024 -0.6606
   86SOPE   H6X 8076   0.228   2.199   2.813  0.4559  0.4579 -0.5309
   86SOPE   H6Y 8077   0.343   2.211   2.946 -2.2753  4.4464 -2.0133
   86SOPE   C37 8078   0.150   2.158   3.014  0.3258  0.1264  0.2996
   86SOPE   H7X 8079   0.056   2.114   2.974  1.6742 -3.3973  0.6509
   86SOPE   H7Y 8080   0.141   2.268   3.024  0.5282  0.3988 -2.0203
   86SOPE   C38 8081   0.199   2.109   3.153 -0.1057  0.2900 -0.1804
   86SOPE   H8X 8082   0.305   2.141   3.159  0.2875 -0.5657 -1.9224
   86SOPE   H8Y 8083   0.197   1.999   3.169 -0.9322  0.4264  0.7376
   86SOPE   C39 8084   0.119   2.160   3.270 -0.0551  0.2963  0.8289
   86SOPE   H9X 8085   0.009   2.152   3.261 -0.2495  1.1921  2.0969
   86SOPE   H9Y 8086   0.124   2.271   3.266 -1.3293  0.3190 -0.9473
   86SOPE  C310 8087   0.161   2.108   3.414 -0.2517  0.2397 -0.4560
   86SOPE  H10X 8088   0.082   2.144   3.484 -0.4866 -1.0518 -0.0426
   86SOPE  H10Y 8089   0.263   2.142   3.440 -0.7558 -0.3670  2.5767
   86SOPE  C311 8090   0.174   1.955   3.431  0.1496 -0.2502 -0.2265
   86SOPE  H11X 8091   0.268   1.946   3.373 -0.5568  2.4575 -1.9790
   86SOPE  H11Y 8092   0.092   1.899   3.381 -1.8352  1.9599  0.3519
   86SOPE  C312 8093   0.172   1.920   3.579  0.9695  0.1336 -0.3621
   86SOPE  H12X 8094   0.071   1.929   3.625  0.0739  0.1932 -2.2658
   86SOPE  H12Y 8095   0.252   1.975   3.634  1.2988 -0.8081  0.1314
   86SOPE  C313 8096   0.197   1.770   3.607 -0.2836 -0.5828 -0.0603
   86SOPE  H13X 8097   0.297   1.746   3.565  0.2928  1.2052  0.2074
   86SOPE  H13Y 8098   0.123   1.694   3.576 -1.4939 -0.3898  2.1250
   86SOPE  C314 8099   0.216   1.741   3.759  0.8770  0.4253 -0.8443
   86SOPE  H14X 8100   0.148   1.811   3.812  1.7515  2.2545 -2.0091
   86SOPE  H14Y 8101   0.319   1.772   3.785  0.8963 -1.1966  1.2751
   86SOPE  C315 8102   0.196   1.594   3.813  0.4933  0.5838 -0.4063
   86SOPE  H15X 8103   0.270   1.526   3.765 -0.3615 -1.5087  1.1089
   86SOPE  H15Y 8104   0.099   1.546   3.787  1.4330 -2.5486  1.3545
   86SOPE  C316 8105   0.190   1.601   3.968 -0.4917 -0.0014  0.6078
   86SOPE  H16X 8106   0.090   1.643   3.990 -0.7319  0.6921 -1.5722
   86SOPE  H16Y 8107   0.261   1.684   3.988 -2.7818  1.5323  2.9597
   86SOPE  C317 8108   0.220   1.481   4.048 -0.3206 -0.7582 -0.5317
   86SOPE  H17X 8109   0.150   1.397   4.026 -0.0731 -1.3921  1.0066
   86SOPE  H17Y 8110   0.222   1.506   4.156 -0.8342  1.0688 -0.9220
   86SOPE  C318 8111   0.354   1.415   4.026 -0.5459  1.0559 -0.4103
   86SOPE  H18X 8112   0.358   1.325   4.091  0.4283 -0.4996 -2.5187
   86SOPE  H18Y 8113   0.433   1.486   4.059 -1.6448  2.3138 -0.3744
   86SOPE  H18Z 8114   0.388   1.393   3.923  0.9041  1.2991 -0.0144
   87SOPE     N 8115   1.433   2.685   2.244  0.4051  0.1749  0.4025
   87SOPE   HN1 8116   1.464   2.587   2.262 -1.1581 -0.3171  0.5922
   87SOPE   HN2 8117   1.448   2.746   2.326 -2.3550  1.7640 -0.1410
   87SOPE   HN3 8118   1.330   2.695   2.228  0.6252  1.6285 -0.2790
   87SOPE   C12 8119   1.518   2.726   2.129  0.6572 -0.0703 -0.2061
   87SOPE  H12A 8120   1.617   2.699   2.172  0.1766 -0.4152  0.7244
   87SOPE  H12B 8121   1.502   2.833   2.107  0.4257 -0.1831 -0.5904
   87SOPE   C11 8122   1.486   2.636   2.001 -0.5774 -0.1434 -0.6691
   87SOPE  H11A 8123   1.548   2.669   1.915 -1.3987  1.5579 -0.6376
   87SOPE  H11B 8124   1.383   2.663   1.971 -1.0106 -0.6638  0.3297
   87SOPE     P 8125   1.522   2.381   1.937 -0.3063 -0.0417  0.3333
   87SOPE   O13 8126   1.508   2.429   1.799  0.8278  0.2709 -0.4481
   87SOPE   O14 8127   1.446   2.259   1.970 -0.2669 -0.0209  0.1897
   87SOPE   O12 8128   1.493   2.496   2.041 -0.2252 -0.1102  0.2139
   87SOPE   O11 8129   1.675   2.347   1.953  0.4382  0.4073 -0.9233
   87SOPE    C1 8130   1.750   2.353   2.072 -0.2772  0.5055 -0.5321
   87SOPE    HA 8131   1.728   2.442   2.135 -0.5352 -0.6184  1.0084
   87SOPE    HB 8132   1.853   2.367   2.032  0.7812 -0.9675  1.5172
   87SOPE    C2 8133   1.763   2.213   2.149 -0.6406  0.0771 -0.3771
   87SOPE    HS 8134   1.788   2.138   2.071 -2.2179  0.9081 -1.7331
   87SOPE   O21 8135   1.632   2.187   2.206 -0.5519 -0.3189  0.3270
   87SOPE   C21 8136   1.607   2.059   2.236  0.1979 -0.4703  0.1525
   87SOPE   O22 8137   1.678   1.970   2.207 -0.4483  0.3894  0.5449
   87SOPE   C22 8138   1.477   2.060   2.314 -0.2132 -1.1618  0.5988
   87SOPE   H2R 8139   1.430   1.959   2.312 -0.6086 -0.9762 -0.6773
   87SOPE   H2S 8140   1.409   2.132   2.263  1.2771 -0.7983 -0.9608
   87SOPE    C3 8141   1.867   2.205   2.265 -1.1311  0.1762  0.3167
   87SOPE    HX 8142   1.966   2.208   2.214 -0.6718  0.1318  1.1766
   87SOPE    HY 8143   1.865   2.112   2.326  0.5801  1.9094  3.2540
   87SOPE   O31 8144   1.858   2.320   2.352  0.1956  0.5216 -0.6818
   87SOPE   C31 8145   1.791   2.314   2.469  0.1050 -0.3853 -0.7382
   87SOPE   O32 8146   1.763   2.210   2.526 -0.6840  0.1442  0.5596
   87SOPE   C32 8147   1.755   2.458   2.506  0.1943  0.0011  0.2257
   87SOPE   H2X 8148   1.663   2.465   2.568 -0.1869  0.9014 -0.4148
   87SOPE   H2Y 8149   1.732   2.510   2.410  0.3478  1.2684  0.8575
   87SOPE   C23 8150   1.484   2.104   2.455 -0.4337  0.2957 -0.2760
   87SOPE   H3R 8151   1.547   2.195   2.464  0.6822 -0.5879  1.3405
   87SOPE   H3S 8152   1.535   2.019   2.505 -0.7311 -1.5450 -2.9519
   87SOPE   C24 8153   1.350   2.119   2.530 -0.2542 -0.3054  0.1198
   87SOPE   H4R 8154   1.273   2.154   2.458  0.3602  3.1283  0.9350
   87SOPE   H4S 8155   1.311   2.022   2.567 -0.0899  0.3286  2.0951
   87SOPE   C25 8156   1.344   2.221   2.646 -1.1460 -0.1247  0.6379
   87SOPE   H5R 8157   1.361   2.311   2.583  0.6783 -0.3032  0.8047
   87SOPE   H5S 8158   1.243   2.236   2.690 -2.0330 -2.6686 -0.2944
   87SOPE   C26 8159   1.440   2.199   2.767 -0.3276  0.0800  0.5573
   87SOPE   H6R 8160   1.385   2.131   2.835  0.6786  0.5126  1.8525
   87SOPE   H6S 8161   1.536   2.155   2.731 -2.0462 -1.5832 -2.4042
   87SOPE   C27 8162   1.467   2.325   2.838  0.3348 -0.2604 -0.0882
   87SOPE   H7R 8163   1.498   2.403   2.764  3.3223  1.0991  2.3458
   87SOPE   H7S 8164   1.371   2.353   2.885  0.2145 -2.2356  0.9216
   87SOPE   C28 8165   1.576   2.318   2.942 -0.0747 -0.0955 -0.0179
   87SOPE   H8R 8166   1.657   2.265   2.887  0.2176 -1.2437  1.4297
   87SOPE   H8S 8167   1.620   2.416   2.966  0.0153 -0.3099  0.7225
   87SOPE   C29 8168   1.530   2.249   3.064 -0.3295 -0.0922 -0.6671
   87SOPE   H91 8169   1.514   2.143   3.041 -0.1569 -0.5786  1.2691
   87SOPE  C210 8170   1.511   2.290   3.188 -0.1844 -1.4693 -0.7924
   87SOPE  H101 8171   1.480   2.217   3.264 -2.1196  0.9049  0.8396
   87SOPE  C211 8172   1.529   2.433   3.242  0.5792 -0.4912  0.0041
   87SOPE  H11R 8173   1.504   2.498   3.155 -0.3290 -1.0110 -0.1334
   87SOPE  H11S 8174   1.636   2.454   3.267  0.1023  1.2111  0.7987
   87SOPE  C212 8175   1.435   2.466   3.355 -0.3823  0.4061 -0.5988
   87SOPE  H12R 8176   1.348   2.397   3.354 -0.1589  0.1264 -1.3376
   87SOPE  H12S 8177   1.413   2.575   3.358 -0.2445  0.4234 -0.1796
   87SOPE  C213 8178   1.510   2.437   3.489 -0.1901  0.3946 -0.2035
   87SOPE  H13R 8179   1.608   2.490   3.486  0.5937 -1.0685 -1.2362
   87SOPE  H13S 8180   1.532   2.328   3.485 -2.1782 -0.0949  1.0085
   87SOPE  C214 8181   1.427   2.460   3.615  0.0319  0.1898 -0.4443
   87SOPE  H14R 8182   1.330   2.408   3.598 -0.2868  1.1878 -1.9282
   87SOPE  H14S 8183   1.407   2.570   3.621  0.9085  0.3873 -0.9919
   87SOPE  C215 8184   1.492   2.418   3.745 -0.2478 -0.2837  0.8240
   87SOPE  H15R 8185   1.454   2.471   3.835  0.1905  0.3294  0.6460
   87SOPE  H15S 8186   1.601   2.422   3.729 -0.3553  2.2379  0.2392
   87SOPE  C216 8187   1.471   2.268   3.765 -0.3087  0.0714  0.0085
   87SOPE  H16R 8188   1.500   2.208   3.676  0.5626 -1.5408  1.3234
   87SOPE  H16S 8189   1.364   2.245   3.783 -0.1624  0.4132  1.4695
   87SOPE  C217 8190   1.568   2.210   3.867  0.0169  0.2367 -0.0223
   87SOPE  H17R 8191   1.530   2.220   3.972 -1.2198 -0.0775 -0.4221
   87SOPE  H17S 8192   1.662   2.268   3.860 -0.0875  0.4583  0.3350
   87SOPE  C218 8193   1.608   2.062   3.833  0.1940 -0.6865 -0.1566
   87SOPE  H18R 8194   1.524   2.005   3.877  0.5922 -0.6173  0.7224
   87SOPE  H18S 8195   1.699   2.047   3.896  1.3206  3.9327 -0.3247
   87SOPE  H18T 8196   1.626   2.058   3.724  1.7779  1.1127 -0.0389
   87SOPE   C33 8197   1.863   2.538   2.582  0.3808  0.7283  0.3572
   87SOPE   H3X 8198   1.831   2.644   2.587 -1.6747  0.2253 -0.5587
   87SOPE   H3Y 8199   1.962   2.536   2.532  0.2752 -0.7871  0.1409
   87SOPE   C34 8200   1.887   2.488   2.720 -0.3757 -0.4217 -0.2347
   87SOPE   H4X 8201   1.922   2.383   2.719 -0.3342 -0.4119  0.0478
   87SOPE   H4Y 8202   1.805   2.477   2.793 -0.6002 -0.1321 -0.4405
   87SOPE   C35 8203   1.994   2.574   2.793  0.0146 -0.4789  0.1378
   87SOPE   H5X 8204   1.958   2.678   2.803  0.9801 -0.1671  0.4303
   87SOPE   H5Y 8205   2.082   2.571   2.727 -0.8196  4.2412 -1.5117
   87SOPE   C36 8206   2.029   2.529   2.936 -0.0796 -0.5073  0.1814
   87SOPE   H6X 8207   2.128   2.579   2.951 -1.1046  0.9089  2.6713
   87SOPE   H6Y 8208   2.046   2.420   2.924 -1.7936 -0.6667 -1.2505
   87SOPE   C37 8209   1.919   2.552   3.035  0.0179 -0.1244 -0.9851
   87SOPE   H7X 8210   1.827   2.502   2.997  0.9480 -0.9195 -2.2650
   87SOPE   H7Y 8211   1.900   2.659   3.057  3.1179  0.3114  0.0920
   87SOPE   C38 8212   1.944   2.468   3.165 -0.0177  0.2511 -0.5164
   87SOPE   H8X 8213   1.973   2.365   3.133 -1.0094 -0.4739  0.8305
   87SOPE   H8Y 8214   1.860   2.463   3.237  1.9013  3.8707  2.2966
   87SOPE   C39 8215   2.053   2.529   3.258 -0.1509  0.2616  0.3364
   87SOPE   H9X 8216   2.028   2.630   3.297  1.8397  1.1110 -0.4174
   87SOPE   H9Y 8217   2.146   2.550   3.201 -0.2009  0.3386  0.2841
   87SOPE  C310 8218   2.108   2.437   3.375 -0.1396  0.3348  0.0464
   87SOPE  H10X 8219   2.179   2.486   3.446  0.0404  1.0327 -0.6066
   87SOPE  H10Y 8220   2.161   2.350   3.331  0.3145 -0.0154  1.2208
   87SOPE  C311 8221   1.995   2.387   3.471 -0.0880  0.4196 -0.9185
   87SOPE  H11X 8222   1.927   2.324   3.408 -0.4092 -0.7562  0.5453
   87SOPE  H11Y 8223   1.929   2.471   3.501  0.7527  1.3389 -1.5735
   87SOPE  C312 8224   2.040   2.310   3.589 -0.2379  0.1602 -0.1251
   87SOPE  H12X 8225   2.073   2.378   3.670  0.9724  0.0781 -0.5351
   87SOPE  H12Y 8226   2.126   2.242   3.569  0.2252  0.4783  0.7456
   87SOPE  C313 8227   1.916   2.230   3.642  0.4085  0.3993 -0.0126
   87SOPE  H13X 8228   1.869   2.171   3.561 -0.4502 -1.4682  1.7581
   87SOPE  H13Y 8229   1.845   2.307   3.679 -0.0464 -0.0672  0.0983
   87SOPE  C314 8230   1.950   2.133   3.749  0.2832 -0.1561 -0.4584
   87SOPE  H14X 8231   2.034   2.068   3.716 -0.4134 -0.8568 -0.8927
   87SOPE  H14Y 8232   1.866   2.063   3.767  0.4422 -0.1390  0.3705
   87SOPE  C315 8233   1.993   2.200   3.885  0.1927  1.4333 -0.1851
   87SOPE  H15X 8234   1.903   2.251   3.925 -0.2778 -0.8284  1.9499
   87SOPE  H15Y 8235   2.081   2.260   3.852  0.7398  0.0773 -1.2777
   87SOPE  C316 8236   2.042   2.093   3.998  0.0403 -0.1991 -0.0226
   87SOPE  H16X 8237   2.118   2.024   3.955  0.5054  0.8226 -0.8774
   87SOPE  H16Y 8238   1.950   2.036   4.020 -0.0224  0.1309  0.5884
   87SOPE  C317 8239   2.098   2.171   4.123 -0.5700  0.2735 -0.0375
   87SOPE  H17X 8240   2.023   2.225   4.185  2.1880  1.6614  2.3327
   87SOPE  H17Y 8241   2.176   2.239   4.085 -0.5212  0.2939  0.0991
   87SOPE  C318 8242   2.164   2.072   4.221  0.3444 -0.2136  0.5346
   87SOPE  H18X 8243   2.100   2.002   4.278 -0.7235  1.4992  1.5185
   87SOPE  H18Y 8244   2.236   2.128   4.285  0.8404  0.1948 -0.3625
   87SOPE  H18Z 8245   2.230   2.013   4.154 -0.9099  0.2294 -1.1596
   88SOPE     N 8246   3.661   0.104   1.800  0.0258  0.2365 -0.2760
   88SOPE   HN1 8247   3.640   0.079   1.701 -0.8089 -1.3567  0.2556
   88SOPE   HN2 8248   3.582   0.148   1.851  0.4574 -0.2459  0.8408
   88SOPE   HN3 8249   3.741   0.169   1.806  0.4389 -0.3382  0.6190
   88SOPE   C12 8250   3.708  -0.017   1.876  0.2497  0.1108  0.3355
   88SOPE  H12A 8251   3.777  -0.063   1.801 -2.9517 -1.3928 -1.9225
   88SOPE  H12B 8252   3.615  -0.076   1.887 -0.6139  0.6165 -2.9667
   88SOPE   C11 8253   3.770   0.032   2.004 -0.2507 -0.1307 -0.2561
   88SOPE  H11A 8254   3.767  -0.048   2.081  0.9541  1.7287  1.8725
   88SOPE  H11B 8255   3.716   0.118   2.050 -0.0237  1.0225 -2.0459
   88SOPE     P 8256   3.955   0.197   1.948  0.3206  0.1649 -0.2556
   88SOPE   O13 8257   3.862   0.268   1.864 -0.4259  0.0583 -0.0482
   88SOPE   O14 8258   4.089   0.186   1.893  0.5061 -0.0323  0.0383
   88SOPE   O12 8259   3.910   0.056   1.981  0.2988  0.0220  0.1336
   88SOPE   O11 8260   3.959   0.270   2.085 -0.0436  0.3139  0.3620
   88SOPE    C1 8261   4.009   0.200   2.201  0.0005 -0.5373  0.0968
   88SOPE    HA 8262   3.986   0.092   2.207 -0.6035 -0.3457  1.5617
   88SOPE    HB 8263   3.966   0.257   2.286 -0.4890 -0.6651 -0.0642
   88SOPE    C2 8264   4.159   0.237   2.215 -0.3333 -0.5372  0.0878
   88SOPE    HS 8265   4.210   0.160   2.153  1.4135  1.1753 -0.7264
   88SOPE   O21 8266   4.201   0.225   2.345  0.1521  0.8576 -0.4883
   88SOPE   C21 8267   4.182   0.114   2.406 -0.1845  0.1820  0.2426
   88SOPE   O22 8268   4.159   0.007   2.356 -0.2910  0.5518  0.6055
   88SOPE   C22 8269   4.202   0.133   2.555 -0.9325  0.3204 -0.5789
   88SOPE   H2R 8270   4.133   0.217   2.578 -1.2994 -0.2862  0.6040
   88SOPE   H2S 8271   4.301   0.181   2.570  0.1903 -2.5142  2.3388
   88SOPE    C3 8272   4.189   0.382   2.175 -0.4856  0.5650 -0.5402
   88SOPE    HX 8273   4.133   0.399   2.080 -0.0579  0.8453 -0.7466
   88SOPE    HY 8274   4.297   0.398   2.154 -0.5627  2.7508  0.4777
   88SOPE   O31 8275   4.137   0.471   2.268 -0.1946 -0.1098  0.3418
   88SOPE   C31 8276   4.222   0.508   2.359 -0.0727 -0.6603 -0.3958
   88SOPE   O32 8277   4.342   0.488   2.365 -0.3216  0.3260 -0.2151
   88SOPE   C32 8278   4.154   0.593   2.466  0.8083  0.2432  0.0919
   88SOPE   H2X 8279   4.049   0.611   2.437  1.5176  1.0503 -2.1483
   88SOPE   H2Y 8280   4.205   0.692   2.467 -1.7982  1.6860  0.1220
   88SOPE   C23 8281   4.186   0.023   2.662  0.2494 -0.6237 -0.4762
   88SOPE   H3R 8282   4.260  -0.060   2.664 -0.1375 -0.9567  0.3134
   88SOPE   H3S 8283   4.090  -0.034   2.655  0.6224 -1.4517  0.8909
   88SOPE   C24 8284   4.183   0.078   2.803  0.4157 -0.0804 -0.5091
   88SOPE   H4R 8285   4.273   0.135   2.837  0.5343 -1.1557  1.1161
   88SOPE   H4S 8286   4.097   0.144   2.824 -0.3932 -1.5022  0.8732
   88SOPE   C25 8287   4.172  -0.040   2.899 -0.5909 -0.2528 -0.1554
   88SOPE   H5R 8288   4.085  -0.102   2.868 -0.5411 -1.2883  1.6435
   88SOPE   H5S 8289   4.264  -0.101   2.894 -1.0515 -0.9467 -0.2915
   88SOPE   C26 8290   4.140  -0.000   3.041  0.8025 -0.1322 -0.0985
   88SOPE   H6R 8291   4.223   0.057   3.087  4.7983 -3.8127 -1.9410
   88SOPE   H6S 8292   4.046   0.059   3.040 -0.2974 -1.7982  0.0917
   88SOPE   C27 8293   4.108  -0.126   3.125 -0.2292  0.1516  0.1378
   88SOPE   H7R 8294   4.028  -0.181   3.070  0.4413  1.6729 -2.5194
   88SOPE   H7S 8295   4.206  -0.178   3.132 -0.4137 -0.0852  1.1999
   88SOPE   C28 8296   4.046  -0.087   3.267 -0.2001  0.4442 -0.0146
   88SOPE   H8R 8297   3.938  -0.059   3.265 -0.6337 -0.9004  1.5415
   88SOPE   H8S 8298   4.060  -0.187   3.313 -1.6499 -0.3964 -1.2848
   88SOPE   C29 8299   4.135   0.024   3.337 -0.2259 -0.1256 -0.0823
   88SOPE   H91 8300   4.105   0.128   3.321 -1.6356 -0.7682 -2.1210
   88SOPE  C210 8301   4.232   0.003   3.423 -0.6087 -0.7045 -0.3128
   88SOPE  H101 8302   4.287   0.095   3.448 -2.5186  0.9319 -1.8290
   88SOPE  C211 8303   4.294  -0.127   3.486  0.2943 -0.1448  0.8120
   88SOPE  H11R 8304   4.404  -0.115   3.476  0.1919  0.6606  0.4955
   88SOPE  H11S 8305   4.274  -0.222   3.434 -0.1767 -0.2008  1.0842
   88SOPE  C212 8306   4.253  -0.139   3.635  0.3239  0.0830 -0.0051
   88SOPE  H12R 8307   4.315  -0.225   3.669 -3.1747 -1.8725  1.9729
   88SOPE  H12S 8308   4.145  -0.161   3.651  0.5723 -1.2535 -0.0564
   88SOPE  C213 8309   4.292  -0.017   3.720  0.2586  0.2122 -0.3070
   88SOPE  H13R 8310   4.250  -0.029   3.823 -0.3659  1.4101 -0.3984
   88SOPE  H13S 8311   4.246   0.078   3.684  2.3884  0.7930 -1.6794
   88SOPE  C214 8312   4.441  -0.001   3.720 -0.3668  0.0822 -0.6162
   88SOPE  H14R 8313   4.486   0.012   3.620  1.6909  0.1425  0.2722
   88SOPE  H14S 8314   4.483  -0.084   3.780 -0.1745  0.8254  0.3101
   88SOPE  C215 8315   4.481   0.124   3.808 -0.1143 -0.4179  0.2942
   88SOPE  H15R 8316   4.457   0.106   3.915  0.1738 -1.5385  0.1801
   88SOPE  H15S 8317   4.422   0.210   3.769  0.5007 -0.0779  0.0997
   88SOPE  C216 8318   4.632   0.147   3.795  0.0835  0.1818 -0.0577
   88SOPE  H16R 8319   4.666   0.237   3.850 -1.2042 -0.1130  1.2673
   88SOPE  H16S 8320   4.644   0.164   3.686 -3.3741  0.9428 -0.4384
   88SOPE  C217 8321   4.717   0.027   3.841 -0.4234 -0.1590  0.1124
   88SOPE  H17R 8322   4.819   0.032   3.799 -0.4732  0.2763  0.0400
   88SOPE  H17S 8323   4.687  -0.078   3.817  1.0544 -0.4605 -0.4841
   88SOPE  C218 8324   4.734   0.039   3.994  0.5381 -0.3129  0.3786
   88SOPE  H18R 8325   4.755   0.143   4.027  0.9021  0.6554 -2.5992
   88SOPE  H18S 8326   4.827  -0.013   4.025 -0.6842 -2.3939  0.6828
   88SOPE  H18T 8327   4.649  -0.005   4.049  1.4143 -0.0498  2.0057
   88SOPE   C33 8328   4.158   0.537   2.610 -0.2542 -1.0135 -0.3365
   88SOPE   H3X 8329   4.133   0.429   2.609 -3.1016 -0.4343 -1.3541
   88SOPE   H3Y 8330   4.078   0.590   2.666 -0.6848 -1.1578 -0.8082
   88SOPE   C34 8331   4.300   0.562   2.680 -0.4082  0.3653 -0.2461
   88SOPE   H4X 8332   4.310   0.672   2.694  0.7731  0.5297 -1.9748
   88SOPE   H4Y 8333   4.383   0.525   2.616 -1.2127  0.1776 -1.2167
   88SOPE   C35 8334   4.314   0.493   2.813 -0.6671 -0.0055  0.2883
   88SOPE   H5X 8335   4.418   0.498   2.851  0.6646 -1.7027 -2.7768
   88SOPE   H5Y 8336   4.292   0.385   2.799 -1.3969  0.2455 -0.5819
   88SOPE   C36 8337   4.227   0.546   2.922 -0.3981 -0.2229 -0.3406
   88SOPE   H6X 8338   4.131   0.490   2.925 -0.9657  0.7337 -0.1736
   88SOPE   H6Y 8339   4.193   0.650   2.904 -0.0529  0.0515  0.5260
   88SOPE   C37 8340   4.291   0.541   3.060 -0.2841 -0.5578 -0.3651
   88SOPE   H7X 8341   4.383   0.604   3.064  0.4309 -1.6212  0.8166
   88SOPE   H7Y 8342   4.334   0.440   3.077  0.9648 -0.2708 -1.5885
   88SOPE   C38 8343   4.199   0.565   3.184  0.1724 -0.4306 -0.4779
   88SOPE   H8X 8344   4.116   0.491   3.180 -1.0400  0.7327  1.5881
   88SOPE   H8Y 8345   4.146   0.660   3.164 -2.9164 -1.5680  1.5976
   88SOPE   C39 8346   4.262   0.549   3.321 -0.0787  0.2470  0.1300
   88SOPE   H9X 8347   4.346   0.617   3.347 -2.0118  2.1820  1.6144
   88SOPE   H9Y 8348   4.304   0.446   3.316 -1.4207 -0.3223 -0.0025
   88SOPE  C310 8349   4.164   0.557   3.445  0.5387  0.2591 -0.1685
   88SOPE  H10X 8350   4.079   0.497   3.407  0.5703  1.3828 -2.1368
   88SOPE  H10Y 8351   4.136   0.664   3.456  1.1494  0.5471 -1.2566
   88SOPE  C311 8352   4.230   0.501   3.568  0.4385 -1.1068  0.4105
   88SOPE  H11X 8353   4.323   0.562   3.571 -0.4280  0.6353 -2.8136
   88SOPE  H11Y 8354   4.267   0.397   3.560 -1.0033 -1.4925 -2.9550
   88SOPE  C312 8355   4.142   0.517   3.696 -0.0400 -0.0454 -0.5592
   88SOPE  H12X 8356   4.051   0.453   3.694 -0.0304 -0.0544 -0.7747
   88SOPE  H12Y 8357   4.103   0.621   3.698  1.2498  0.4398  0.1291
   88SOPE  C313 8358   4.224   0.502   3.820 -0.0749 -0.6782 -0.4578
   88SOPE  H13X 8359   4.290   0.589   3.839 -0.4391 -0.7207  1.1270
   88SOPE  H13Y 8360   4.289   0.412   3.810  1.6493  0.7403 -3.2055
   88SOPE  C314 8361   4.130   0.488   3.938 -0.3553  0.3261  0.5205
   88SOPE  H14X 8362   4.079   0.391   3.922 -2.2607  1.1971  1.1069
   88SOPE  H14Y 8363   4.053   0.568   3.927 -0.7046 -0.3814 -4.2956
   88SOPE  C315 8364   4.203   0.504   4.081  0.4911 -0.1726  0.8581
   88SOPE  H15X 8365   4.121   0.489   4.154 -0.7028 -0.7259 -0.5468
   88SOPE  H15Y 8366   4.236   0.610   4.082  0.4067 -0.1349  0.2210
   88SOPE  C316 8367   4.315   0.407   4.110  0.1401 -0.0676  1.1534
   88SOPE  H16X 8368   4.365   0.435   4.205 -0.8179 -1.3774  2.0760
   88SOPE  H16Y 8369   4.393   0.394   4.032  1.5633 -0.6714  2.6240
   88SOPE  C317 8370   4.262   0.266   4.134 -0.2832  0.2982 -0.0814
   88SOPE  H17X 8371   4.211   0.230   4.042  0.0739 -0.4306 -0.0056
   88SOPE  H17Y 8372   4.179   0.279   4.207  0.1756  0.4363  0.4189
   88SOPE  C318 8373   4.375   0.181   4.182  0.1573 -0.4865  0.1548
   88SOPE  H18X 8374   4.424   0.233   4.267 -1.7685 -1.1759  1.7665
   88SOPE  H18Y 8375   4.451   0.161   4.103  0.1402 -0.0001  0.0092
   88SOPE  H18Z 8376   4.342   0.077   4.203 -1.3288 -0.4877 -1.8609
   89SAPC     N 8377   2.510   4.728   7.139 -0.0879 -0.1430  0.2701
   89SAPC   C12 8378   2.402   4.784   7.057  0.1247  0.2780 -0.4796
   89SAPC  H12A 8379   2.423   4.765   6.953 -1.1668  0.9844 -0.8971
   89SAPC  H12B 8380   2.396   4.890   7.075  0.7785 -0.0424  1.9838
   89SAPC   C13 8381   2.475   4.736   7.280 -0.4639  0.6546  0.3291
   89SAPC  H13A 8382   2.559   4.717   7.346 -0.7266 -0.3665  0.3936
   89SAPC  H13B 8383   2.431   4.831   7.305  0.7576  2.1879 -2.9021
   89SAPC  H13C 8384   2.405   4.655   7.297  1.1486 -1.3836 -2.0733
   89SAPC   C14 8385   2.541   4.591   7.112 -0.3490  0.0472 -0.0370
   89SAPC  H14A 8386   2.459   4.523   7.132  1.1843 -1.2420  2.2870
   89SAPC  H14B 8387   2.576   4.576   7.011  0.2948 -3.1420  0.5438
   89SAPC  H14C 8388   2.619   4.543   7.170 -0.8087 -0.2144  0.3737
   89SAPC   C15 8389   2.631   4.807   7.111  0.7820  0.2324 -0.4707
   89SAPC  H15A 8390   2.723   4.758   7.143 -0.0368 -2.0543 -1.4352
   89SAPC  H15B 8391   2.639   4.833   7.007  0.0343  0.0036 -0.5844
   89SAPC  H15C 8392   2.621   4.902   7.162  0.8218  0.0942 -0.1996
   89SAPC   C11 8393   2.261   4.720   7.075 -0.2867  0.1936 -0.3380
   89SAPC  H11A 8394   2.183   4.780   7.023 -1.1171 -1.8533 -1.5669
   89SAPC  H11B 8395   2.240   4.731   7.184  0.8223 -0.2186 -0.0748
   89SAPC     P 8396   2.255   4.516   6.909  0.2506  0.2519  0.5648
   89SAPC   O13 8397   2.356   4.410   6.900 -0.1028 -0.1542 -0.2557
   89SAPC   O14 8398   2.114   4.471   6.891  0.2663 -0.5281  0.1131
   89SAPC   O12 8399   2.252   4.578   7.052 -0.2878 -0.1698 -0.1674
   89SAPC   O11 8400   2.288   4.640   6.823  0.1950 -0.2508 -0.0867
   89SAPC    C1 8401   2.190   4.693   6.730 -0.2216 -0.0217 -0.0777
   89SAPC    HA 8402   2.086   4.694   6.770 -0.2267 -1.6033  0.0133
   89SAPC    HB 8403   2.223   4.798   6.713 -0.5876 -0.3658 -3.6191
   89SAPC    C2 8404   2.193   4.618   6.596 -0.3208  0.4045  0.2663
   89SAPC    HS 8405   2.158   4.515   6.618 -2.5591  0.7355 -1.4698
   89SAPC   O21 8406   2.326   4.618   6.545 -0.2598  0.0306  0.4872
   89SAPC   C21 8407   2.377   4.505   6.497 -0.1605  0.6348 -0.5917
   89SAPC   O22 8408   2.324   4.396   6.494  0.6396 -0.2176 -0.5911
   89SAPC   C22 8409   2.528   4.524   6.455  0.1222  0.0452  0.5579
   89SAPC   H2R 8410   2.548   4.631   6.474 -0.5360  0.9753 -3.1004
   89SAPC   H2S 8411   2.569   4.442   6.517  2.1815 -1.1096 -2.1179
   89SAPC    C3 8412   2.092   4.684   6.497  0.5943  0.6176 -0.2250
   89SAPC    HX 8413   2.150   4.772   6.461 -0.0870  0.2788 -2.3141
   89SAPC    HY 8414   1.999   4.716   6.548  0.4623  0.1447 -0.1630
   89SAPC   O31 8415   2.069   4.601   6.384 -0.1939  0.5431 -0.2361
   89SAPC   C31 8416   1.976   4.511   6.398  0.3196  0.3046 -0.2054
   89SAPC   O32 8417   1.898   4.505   6.492 -0.0375  0.5364 -0.1702
   89SAPC   C32 8418   2.004   4.407   6.293  0.1640 -0.2214 -0.1800
   89SAPC   H2X 8419   2.082   4.339   6.335 -2.9043 -3.7710  0.2970
   89SAPC   H2Y 8420   2.052   4.455   6.205  1.4627 -0.4658  0.3695
   89SAPC   C23 8421   2.548   4.475   6.310 -0.3957  0.1350  0.2229
   89SAPC   H3R 8422   2.526   4.369   6.283  0.8366 -0.3289  0.9510
   89SAPC   H3S 8423   2.659   4.477   6.313 -0.4241  1.4427  1.6359
   89SAPC   C24 8424   2.499   4.572   6.206 -0.8886 -0.2078 -0.4107
   89SAPC   H4R 8425   2.554   4.667   6.221 -3.4322  1.1101  1.1756
   89SAPC   H4S 8426   2.391   4.596   6.201 -1.3104 -2.0914 -1.3702
   89SAPC   C25 8427   2.538   4.525   6.067 -0.4963 -0.3723  0.8572
   89SAPC   H5R 8428   2.632   4.561   6.023 -1.0916 -2.2648 -2.2591
   89SAPC   C26 8429   2.462   4.457   5.984  0.6492  0.2044 -0.0874
   89SAPC   H6R 8430   2.503   4.435   5.884 -1.1287 -0.5355 -0.7080
   89SAPC   C27 8431   2.324   4.403   6.012 -1.2108 -0.2196 -0.1991
   89SAPC   H7R 8432   2.253   4.479   5.972  0.4855  1.1457 -0.7282
   89SAPC   H7S 8433   2.312   4.395   6.122  1.4988 -2.2387  0.0713
   89SAPC   C28 8434   2.284   4.274   5.953  0.0226 -1.1473  1.2711
   89SAPC   H8R 8435   2.310   4.188   6.016 -0.2759 -1.8604  0.4269
   89SAPC   C29 8436   2.206   4.269   5.843  0.1713  0.1735  0.4669
   89SAPC   H9R 8437   2.187   4.170   5.798  0.9457 -0.0173  0.5541
   89SAPC  C210 8438   2.169   4.379   5.741 -0.3794  0.2241 -0.4077
   89SAPC  H10R 8439   2.147   4.469   5.802 -0.5207 -0.6754  0.9085
   89SAPC  H10S 8440   2.073   4.357   5.690 -0.3242  1.8864 -1.3218
   89SAPC  C211 8441   2.278   4.413   5.644  0.3618 -0.1539 -0.4431
   89SAPC  H11R 8442   2.366   4.463   5.684  0.8099 -0.0154 -1.5506
   89SAPC  C212 8443   2.276   4.383   5.512  0.4079  1.3728 -0.1905
   89SAPC  H12R 8444   2.356   4.409   5.442 -0.5471  0.6679 -1.5888
   89SAPC  C213 8445   2.159   4.315   5.431 -0.3805  0.0363  0.1085
   89SAPC  H13R 8446   2.123   4.379   5.348  0.6478 -1.3807 -1.4783
   89SAPC  H13S 8447   2.069   4.294   5.493 -0.6984  0.5802 -0.1689
   89SAPC  C214 8448   2.194   4.184   5.362 -0.2998 -0.6237  0.3159
   89SAPC  H14R 8449   2.205   4.093   5.423  0.1982 -0.9676 -0.2647
   89SAPC  C215 8450   2.221   4.174   5.227 -0.6007 -0.5332  0.1376
   89SAPC  H15R 8451   2.242   4.077   5.180  0.8898 -0.3823  0.4259
   89SAPC  C216 8452   2.205   4.289   5.121  0.5015  0.5677 -0.0869
   89SAPC  H16R 8453   2.259   4.381   5.152  0.8262  0.1064  0.7610
   89SAPC  H16S 8454   2.096   4.306   5.106  0.8492  1.3236 -1.9682
   89SAPC  C217 8455   2.263   4.226   4.993  0.3993  0.3336 -0.0427
   89SAPC  H17R 8456   2.214   4.133   4.955 -1.7047  1.7431 -0.9529
   89SAPC  H17S 8457   2.370   4.201   5.005 -0.0971 -2.4804 -0.5261
   89SAPC  C218 8458   2.252   4.333   4.881  0.1782  0.4368 -0.1538
   89SAPC  H18R 8459   2.267   4.426   4.940 -0.7377 -0.8049  2.1243
   89SAPC  H18S 8460   2.150   4.355   4.844 -0.9864 -1.5349  1.6840
   89SAPC  C219 8461   2.338   4.307   4.759 -0.1030  0.5936  0.1450
   89SAPC  H19R 8462   2.310   4.206   4.721  2.1263 -0.5034  1.1935
   89SAPC  H19S 8463   2.447   4.292   4.774 -0.0626 -0.1197 -0.7884
   89SAPC  C220 8464   2.326   4.410   4.651  0.0691  0.1140  0.3586
   89SAPC  H20R 8465   2.391   4.377   4.567  2.3564 -0.3968  2.2032
   89SAPC  H20S 8466   2.373   4.509   4.669  3.1469 -0.8051 -1.7468
   89SAPC  H20T 8467   2.220   4.423   4.621  0.5551 -0.3940 -1.7734
   89SAPC   C33 8468   1.883   4.322   6.258  0.4064  0.4343  0.8531
   89SAPC   H3X 8469   1.788   4.378   6.247  0.4945  0.3367 -0.6050
   89SAPC   H3Y 8470   1.877   4.247   6.339  2.2929 -1.3496 -0.5484
   89SAPC   C34 8471   1.913   4.252   6.121  0.5844 -0.4672 -0.3647
   89SAPC   H4X 8472   2.018   4.217   6.121  0.4890 -0.7547 -0.5085
   89SAPC   H4Y 8473   1.901   4.329   6.041 -0.6240 -1.2586 -0.9642
   89SAPC   C35 8474   1.823   4.138   6.089 -0.5881 -0.0337 -0.5641
   89SAPC   H5X 8475   1.718   4.176   6.087 -0.7550 -0.5057 -1.0803
   89SAPC   H5Y 8476   1.830   4.059   6.168 -0.9332  1.6205  1.1892
   89SAPC   C36 8477   1.855   4.080   5.954 -0.3958 -0.1368  0.3214
   89SAPC   H6X 8478   1.804   3.984   5.934  0.4776 -0.1717 -2.1261
   89SAPC   H6Y 8479   1.966   4.069   5.950  0.0384  3.3508 -1.2412
   89SAPC   C37 8480   1.820   4.170   5.838  0.7697  0.6298 -0.1186
   89SAPC   H7X 8481   1.833   4.279   5.851 -0.3269  0.8546 -0.7473
   89SAPC   H7Y 8482   1.710   4.155   5.832  0.4784  1.7501  1.8597
   89SAPC   C38 8483   1.872   4.118   5.701 -0.7442  0.1558  0.2473
   89SAPC   H8X 8484   1.886   4.008   5.704  2.2136  0.4522  0.7131
   89SAPC   H8Y 8485   1.975   4.155   5.681 -0.6280  0.8859  2.0079
   89SAPC   C39 8486   1.778   4.151   5.579 -0.5272 -0.0751  0.6087
   89SAPC   H9X 8487   1.768   4.258   5.553 -3.1255  0.0750  1.9805
   89SAPC   H9Y 8488   1.676   4.111   5.596 -0.5418 -1.1548 -1.6369
   89SAPC  C310 8489   1.824   4.071   5.449  0.5037  0.0773 -0.1104
   89SAPC  H10X 8490   1.842   3.969   5.487 -1.2132 -0.2035  0.0222
   89SAPC  H10Y 8491   1.922   4.113   5.418 -0.1716  2.7034  0.9912
   89SAPC  C311 8492   1.707   4.067   5.355 -0.2116 -0.8960 -0.5726
   89SAPC  H11X 8493   1.665   4.169   5.340  0.8358 -0.3439  0.0777
   89SAPC  H11Y 8494   1.630   4.000   5.398 -1.9115 -1.0935 -3.6258
   89SAPC  C312 8495   1.743   4.009   5.223 -0.1505 -0.0296  0.5395
   89SAPC  H12X 8496   1.649   3.985   5.169  0.0508  0.7738 -0.1852
   89SAPC  H12Y 8497   1.803   3.917   5.238 -3.7317 -2.3081  2.3870
   89SAPC  C313 8498   1.814   4.120   5.138  0.1430  0.4244 -0.1636
   89SAPC  H13X 8499   1.905   4.168   5.180 -0.2147  1.5388 -0.6145
   89SAPC  H13Y 8500   1.735   4.195   5.118 -0.0842  0.2849  0.1972
   89SAPC  C314 8501   1.856   4.065   5.000  0.2068 -0.2982 -0.0604
   89SAPC  H14X 8502   1.768   4.012   4.958 -0.6563  1.2832 -0.3422
   89SAPC  H14Y 8503   1.934   3.988   5.016 -0.4777 -1.1637 -0.7515
   89SAPC  C315 8504   1.885   4.171   4.899  0.3950 -0.3810 -0.0054
   89SAPC  H15X 8505   1.964   4.245   4.925  3.1795 -1.5662 -3.9823
   89SAPC  H15Y 8506   1.788   4.224   4.885  0.8693  0.4448 -0.2762
   89SAPC  C316 8507   1.922   4.107   4.770 -0.2574  0.3822 -0.1584
   89SAPC  H16X 8508   1.857   4.020   4.748 -1.4733  1.5952 -1.6358
   89SAPC  H16Y 8509   2.025   4.065   4.765 -0.0147  0.9051  0.4253
   89SAPC  C317 8510   1.904   4.198   4.656  0.3386 -0.0899 -0.5425
   89SAPC  H17X 8511   1.986   4.273   4.646  1.4846 -1.0777  1.0715
   89SAPC  H17Y 8512   1.807   4.253   4.663  0.1260 -0.1931 -2.3118
   89SAPC  C318 8513   1.893   4.128   4.527 -0.3404  0.1935 -0.0864
   89SAPC  H18X 8514   1.995   4.089   4.505 -0.7544 -1.8463  1.2603
   89SAPC  H18Y 8515   1.871   4.196   4.442 -0.6756  0.8001  0.4790
   89SAPC  H18Z 8516   1.816   4.048   4.526 -0.6137  0.4418  0.7125
   90SAPC     N 8517   2.004   6.171   6.866 -0.7031  1.2013  0.3704
   90SAPC   C12 8518   1.858   6.199   6.815  0.0259  0.7231 -0.2408
   90SAPC  H12A 8519   1.815   6.273   6.882 -0.8764 -1.5926  1.8946
   90SAPC  H12B 8520   1.796   6.115   6.843  1.5646  0.2418  1.9876
   90SAPC   C13 8521   1.993   6.121   6.999  0.2147 -0.0014  0.0968
   90SAPC  H13A 8522   2.091   6.089   7.032  1.1374  0.8177 -1.7242
   90SAPC  H13B 8523   1.960   6.201   7.063 -1.2480 -2.3808  2.5051
   90SAPC  H13C 8524   1.915   6.046   7.005 -1.5043  1.6261 -1.0637
   90SAPC   C14 8525   2.059   6.054   6.783  1.0927 -0.7464 -0.1093
   90SAPC  H14A 8526   2.047   6.076   6.678  0.3453 -0.6013  0.0036
   90SAPC  H14B 8527   2.164   6.042   6.806  1.4254  0.6574 -0.7975
   90SAPC  H14C 8528   1.999   5.969   6.810 -0.8865  0.8321  0.7498
   90SAPC   C15 8529   2.103   6.279   6.852 -0.1355  0.3333 -0.0731
   90SAPC  H15A 8530   2.118   6.316   6.751  0.8793  0.3093  0.0550
   90SAPC  H15B 8531   2.076   6.363   6.914  0.6682 -0.5879  1.5986
   90SAPC  H15C 8532   2.201   6.246   6.885  1.0518  2.9690 -0.7478
   90SAPC   C11 8533   1.851   6.230   6.670 -0.3617  0.8477  0.5083
   90SAPC  H11A 8534   1.819   6.139   6.615  1.9135  0.5992 -0.4904
   90SAPC  H11B 8535   1.951   6.253   6.628 -1.3725  3.6877 -0.5769
   90SAPC     P 8536   1.678   6.353   6.529  0.7456 -0.2576  0.1606
   90SAPC   O13 8537   1.565   6.255   6.545  0.3601 -0.4201 -0.2327
   90SAPC   O14 8538   1.647   6.497   6.503 -0.1496  0.4975  0.2525
   90SAPC   O12 8539   1.772   6.349   6.659  0.1992 -0.1395  0.1070
   90SAPC   O11 8540   1.773   6.306   6.418  0.7016  0.0617 -0.1863
   90SAPC    C1 8541   1.894   6.374   6.390  0.1742 -0.4145 -0.8333
   90SAPC    HA 8542   1.904   6.473   6.438 -1.2829 -0.6551  0.0582
   90SAPC    HB 8543   1.977   6.314   6.434  0.8221  1.9486  1.4000
   90SAPC    C2 8544   1.911   6.390   6.235 -0.0405  0.3706 -0.4270
   90SAPC    HS 8545   2.002   6.453   6.223  0.5013 -0.7621 -3.0866
   90SAPC   O21 8546   1.798   6.453   6.174  0.0696  0.1280 -0.7049
   90SAPC   C21 8547   1.782   6.580   6.213 -0.4680  0.5189 -0.1035
   90SAPC   O22 8548   1.866   6.642   6.283  0.1065 -0.6473  0.1962
   90SAPC   C22 8549   1.657   6.639   6.145  0.2458 -0.5580  0.3814
   90SAPC   H2R 8550   1.633   6.588   6.049  2.2707  1.2765 -1.1953
   90SAPC   H2S 8551   1.564   6.636   6.207 -1.3832 -0.4763 -1.9127
   90SAPC    C3 8552   1.937   6.257   6.171 -0.5125 -0.5928  0.7140
   90SAPC    HX 8553   1.853   6.188   6.192 -1.1715  0.1567  0.5731
   90SAPC    HY 8554   2.027   6.213   6.218  0.5360  0.3337 -0.3580
   90SAPC   O31 8555   1.962   6.275   6.024  0.3034 -0.6038 -0.4001
   90SAPC   C31 8556   1.930   6.178   5.944 -0.4928  0.4609  0.2623
   90SAPC   O32 8557   1.866   6.080   5.972  0.5956 -0.0223 -0.5971
   90SAPC   C32 8558   1.994   6.200   5.804 -0.2569 -0.4149 -0.0769
   90SAPC   H2X 8559   2.103   6.184   5.822  0.4180  1.4989 -2.0589
   90SAPC   H2Y 8560   1.978   6.309   5.790  0.7967 -0.4638 -1.9519
   90SAPC   C23 8561   1.682   6.785   6.105  0.2231  0.2108  0.2687
   90SAPC   H3R 8562   1.780   6.792   6.052  0.8790 -0.1780  1.4083
   90SAPC   H3S 8563   1.689   6.851   6.194 -2.1247  0.5880  0.2352
   90SAPC   C24 8564   1.568   6.845   6.030 -0.3499  1.1944  0.5340
   90SAPC   H4R 8565   1.476   6.859   6.091 -1.0738 -2.9599  0.6643
   90SAPC   H4S 8566   1.541   6.776   5.947  2.1323  1.1109 -0.2783
   90SAPC   C25 8567   1.601   6.984   5.979  0.0079  0.0511 -0.1487
   90SAPC   H5R 8568   1.634   7.056   6.055  1.9455 -1.6977  0.7640
   90SAPC   C26 8569   1.625   7.029   5.853 -0.6009  0.8936 -0.0459
   90SAPC   H6R 8570   1.631   7.135   5.823  2.3969  0.1296 -2.7401
   90SAPC   C27 8571   1.604   6.938   5.725  0.6485 -0.2852 -0.1721
   90SAPC   H7R 8572   1.627   6.833   5.753  0.3533 -0.4452 -0.5168
   90SAPC   H7S 8573   1.671   6.958   5.638 -1.8061 -0.5411 -2.2296
   90SAPC   C28 8574   1.451   6.926   5.682  0.1485  0.0826 -0.2694
   90SAPC   H8R 8575   1.376   6.894   5.756  1.1530  1.0778  1.2364
   90SAPC   C29 8576   1.421   6.952   5.553  0.0401  0.2185  0.0388
   90SAPC   H9R 8577   1.318   6.933   5.521  0.0043 -0.3514  0.4661
   90SAPC  C210 8578   1.503   6.992   5.431  0.2585  0.0232 -0.5095
   90SAPC  H10R 8579   1.487   6.918   5.349  1.0300 -1.1294  0.3475
   90SAPC  H10S 8580   1.613   6.982   5.439  0.0639 -1.3508  0.9419
   90SAPC  C211 8581   1.470   7.127   5.376  0.0293 -0.2748 -0.2105
   90SAPC  H11R 8582   1.444   7.190   5.462 -0.3380  1.3888 -1.5037
   90SAPC  C212 8583   1.456   7.176   5.253 -0.6863 -0.1604  0.0385
   90SAPC  H12R 8584   1.420   7.279   5.242 -2.7316 -0.7313  0.9490
   90SAPC  C213 8585   1.473   7.098   5.123  0.6783  0.6678 -0.1677
   90SAPC  H13R 8586   1.386   7.125   5.061 -1.9931  2.1295  3.8211
   90SAPC  H13S 8587   1.451   6.992   5.149 -1.2880  0.7688 -1.2667
   90SAPC  C214 8588   1.603   7.087   5.059 -0.0205  0.2204 -0.5671
   90SAPC  H14R 8589   1.687   7.093   5.129  1.4547 -0.5814 -2.2075
   90SAPC  C215 8590   1.621   7.070   4.925  0.5457 -0.8400 -0.1412
   90SAPC  H15R 8591   1.725   7.068   4.891  0.6414  2.1593 -0.3039
   90SAPC  C216 8592   1.514   7.063   4.813 -0.0776  0.2530 -0.2153
   90SAPC  H16R 8593   1.422   7.014   4.851  0.7544 -1.2921 -0.1188
   90SAPC  H16S 8594   1.551   7.000   4.729  1.8208 -2.9374  2.7696
   90SAPC  C217 8595   1.466   7.199   4.761 -0.5682 -0.2280  0.0898
   90SAPC  H17R 8596   1.552   7.269   4.768 -1.0596  0.2993  0.9262
   90SAPC  H17S 8597   1.384   7.233   4.827 -0.4021 -4.0196  2.4978
   90SAPC  C218 8598   1.426   7.192   4.612  1.0492  0.3348 -0.0073
   90SAPC  H18R 8599   1.366   7.101   4.593  1.6758 -0.4547  1.5503
   90SAPC  H18S 8600   1.519   7.177   4.553  1.8002  0.5366  1.0884
   90SAPC  C219 8601   1.345   7.313   4.570  0.2268  0.4646 -0.1482
   90SAPC  H19R 8602   1.399   7.407   4.594 -3.3586  2.5778  0.4279
   90SAPC  H19S 8603   1.249   7.313   4.627  1.3545 -0.4856  1.8647
   90SAPC  C220 8604   1.322   7.312   4.413 -0.5605  0.5997 -0.2156
   90SAPC  H20R 8605   1.297   7.416   4.384 -2.2646  1.0080  2.3949
   90SAPC  H20S 8606   1.247   7.236   4.383 -0.1808  0.5667 -1.1176
   90SAPC  H20T 8607   1.415   7.294   4.355  0.5978  1.5802  1.2543
   90SAPC   C33 8608   1.932   6.118   5.689  0.1565  0.6487 -0.2656
   90SAPC   H3X 8609   1.823   6.138   5.686 -0.3805 -1.5194  1.7360
   90SAPC   H3Y 8610   1.956   6.010   5.703 -0.8835  0.4027 -0.2992
   90SAPC   C34 8611   1.998   6.158   5.556 -0.1124 -0.1047  0.0925
   90SAPC   H4X 8612   2.104   6.128   5.549 -0.1437 -0.4344  0.9987
   90SAPC   H4Y 8613   1.976   6.267   5.551  0.0101  0.0187  1.8596
   90SAPC   C35 8614   1.923   6.101   5.438  0.0913 -0.6377 -0.2401
   90SAPC   H5X 8615   1.814   6.114   5.453  0.2365 -0.6378  0.8591
   90SAPC   H5Y 8616   1.936   5.991   5.435  1.5278 -0.4685 -1.2622
   90SAPC   C36 8617   1.960   6.162   5.300 -0.6508  0.5799 -0.1291
   90SAPC   H6X 8618   2.068   6.138   5.293 -1.1903 -2.6849  1.1320
   90SAPC   H6Y 8619   1.962   6.273   5.293 -1.5303  0.5421 -1.4566
   90SAPC   C37 8620   1.876   6.107   5.189 -0.4197  0.3907  0.3162
   90SAPC   H7X 8621   1.778   6.158   5.182  0.8336  3.0954  0.9155
   90SAPC   H7Y 8622   1.865   6.002   5.222  0.2043  1.0075  2.6463
   90SAPC   C38 8623   1.953   6.133   5.062 -0.6004  0.2637  0.2888
   90SAPC   H8X 8624   2.049   6.077   5.054 -1.1728 -0.6648 -0.2743
   90SAPC   H8Y 8625   1.968   6.243   5.052 -0.2248  0.1036 -1.1679
   90SAPC   C39 8626   1.868   6.090   4.937  0.3377  0.6664 -0.6422
   90SAPC   H9X 8627   1.762   6.122   4.942  0.9555  2.6507  0.8913
   90SAPC   H9Y 8628   1.862   5.979   4.935  1.8738  0.5611 -1.7205
   90SAPC  C310 8629   1.937   6.118   4.811 -0.0988  0.0354  0.1972
   90SAPC  H10X 8630   1.958   6.226   4.795  0.8233 -0.3284 -1.1486
   90SAPC  H10Y 8631   1.877   6.092   4.721 -1.0501  0.1363  0.7880
   90SAPC  C311 8632   2.076   6.056   4.797 -0.2146  0.3743  0.1568
   90SAPC  H11X 8633   2.074   5.946   4.805  2.6907  0.3839  3.5414
   90SAPC  H11Y 8634   2.141   6.088   4.881  2.0922  0.0924 -1.3978
   90SAPC  C312 8635   2.132   6.080   4.652 -0.2301  0.2960  0.4728
   90SAPC  H12X 8636   2.234   6.034   4.648  0.7620  2.4053 -0.0463
   90SAPC  H12Y 8637   2.150   6.188   4.635  1.5067  0.0345  0.4277
   90SAPC  C313 8638   2.042   6.036   4.535  0.6007  0.3211  0.1036
   90SAPC  H13X 8639   1.976   5.951   4.559 -0.7050  0.5596 -2.3473
   90SAPC  H13Y 8640   2.110   5.998   4.456  2.2622  0.5693  1.3440
   90SAPC  C314 8641   1.961   6.156   4.477 -0.7739 -0.7128 -0.4225
   90SAPC  H14X 8642   1.947   6.238   4.550 -2.7616  0.9072 -2.5007
   90SAPC  H14Y 8643   1.867   6.125   4.427 -0.2519 -1.0976 -1.1798
   90SAPC  C315 8644   2.045   6.217   4.363 -0.8899 -1.0035 -0.0497
   90SAPC  H15X 8645   2.054   6.146   4.278  0.4515 -2.4307  1.2141
   90SAPC  H15Y 8646   2.153   6.238   4.378 -1.5848  0.7624  3.8965
   90SAPC  C316 8647   1.985   6.349   4.318 -1.0086  0.2797  0.5023
   90SAPC  H16X 8648   2.058   6.409   4.259 -0.0393  1.9249  3.1862
   90SAPC  H16Y 8649   1.983   6.413   4.409 -2.4531  0.5773  0.2817
   90SAPC  C317 8650   1.851   6.351   4.240 -0.1644 -0.4511  0.0048
   90SAPC  H17X 8651   1.774   6.305   4.305 -1.2453 -1.7524 -2.0857
   90SAPC  H17Y 8652   1.862   6.289   4.149  0.5972 -3.4780  2.0303
   90SAPC  C318 8653   1.810   6.495   4.202 -0.2989  0.6149  0.2384
   90SAPC  H18X 8654   1.701   6.492   4.181 -0.2339  0.6398 -0.0972
   90SAPC  H18Y 8655   1.873   6.524   4.115 -0.7205 -1.8969 -0.9842
   90SAPC  H18Z 8656   1.829   6.552   4.296  2.7238 -2.1834  1.5090
   91SAPC     N 8657   5.063   5.902   6.783  0.2526  0.4815 -0.2864
   91SAPC   C12 8658   5.028   5.820   6.661 -0.3812  0.0308  0.3182
   91SAPC  H12A 8659   4.920   5.814   6.659 -0.3616 -0.3996  0.5463
   91SAPC  H12B 8660   5.065   5.721   6.684 -2.0631 -0.4365  1.1455
   91SAPC   C13 8661   4.991   5.846   6.911 -0.3524 -0.0629  0.6351
   91SAPC  H13A 8662   5.037   5.752   6.940  1.9633  0.1281 -1.9950
   91SAPC  H13B 8663   4.995   5.918   6.990  2.1298  0.5251  0.0745
   91SAPC  H13C 8664   4.886   5.821   6.902 -0.4604  0.6535 -0.3450
   91SAPC   C14 8665   5.209   5.914   6.807  0.6237 -0.3148  0.1221
   91SAPC  H14A 8666   5.236   5.964   6.898 -0.8017 -0.1693  0.4839
   91SAPC  H14B 8667   5.246   5.813   6.815  0.4891 -0.3517  0.2779
   91SAPC  H14C 8668   5.253   5.981   6.734 -0.3776  1.1199  0.8100
   91SAPC   C15 8669   5.013   6.040   6.767 -0.1902 -0.5816 -0.2310
   91SAPC  H15A 8670   5.051   6.114   6.836 -1.1016 -0.4190  0.1216
   91SAPC  H15B 8671   5.055   6.084   6.678  0.4048  2.3637  1.3636
   91SAPC  H15C 8672   4.905   6.049   6.766 -0.1863 -0.2771  0.7851
   91SAPC   C11 8673   5.066   5.876   6.520  0.0443 -0.6664  0.2504
   91SAPC  H11A 8674   5.025   5.980   6.515  2.3075  0.2325 -1.3954
   91SAPC  H11B 8675   5.024   5.812   6.439 -1.1202  0.0290  0.2768
   91SAPC     P 8676   5.287   6.004   6.452 -0.1710 -0.0371  0.1216
   91SAPC   O13 8677   5.306   6.106   6.558  0.3470 -0.2022 -0.2636
   91SAPC   O14 8678   5.409   5.942   6.394  0.3100  0.4840  0.2149
   91SAPC   O12 8679   5.208   5.885   6.506 -0.1664  0.5756  0.2268
   91SAPC   O11 8680   5.199   6.052   6.329  0.3219  0.1647 -0.0711
   91SAPC    C1 8681   5.188   5.980   6.206  0.4119  0.3618  0.2519
   91SAPC    HA 8682   5.252   5.890   6.207  0.8386  0.6604  1.4710
   91SAPC    HB 8683   5.080   5.954   6.206 -0.3020  2.8935  2.5305
   91SAPC    C2 8684   5.219   6.057   6.076  0.3624 -0.7970  0.8664
   91SAPC    HS 8685   5.132   6.122   6.053  0.1398 -2.1666 -2.9572
   91SAPC   O21 8686   5.233   5.968   5.970  0.5171  0.0077  0.1510
   91SAPC   C21 8687   5.129   5.900   5.919  0.2185  0.7301  0.9801
   91SAPC   O22 8688   5.017   5.905   5.957  0.3507 -0.5637 -0.1658
   91SAPC   C22 8689   5.180   5.810   5.801 -0.0469 -0.1062  0.1460
   91SAPC   H2R 8690   5.191   5.707   5.842 -2.5857 -1.4606 -2.2294
   91SAPC   H2S 8691   5.090   5.804   5.735  0.0723  3.7964 -0.6098
   91SAPC    C3 8692   5.356   6.140   6.082 -0.3389 -0.2359  0.0710
   91SAPC    HX 8693   5.447   6.080   6.105  0.2077  0.3968 -0.4142
   91SAPC    HY 8694   5.357   6.212   6.167  3.2349  0.6385 -0.5507
   91SAPC   O31 8695   5.372   6.202   5.951  0.1144 -0.0112  0.2343
   91SAPC   C31 8696   5.487   6.263   5.917 -0.3322 -0.4635  0.1083
   91SAPC   O32 8697   5.565   6.301   6.000 -0.7119 -0.7710 -0.4055
   91SAPC   C32 8698   5.484   6.290   5.763 -0.0175  0.7981 -0.6029
   91SAPC   H2X 8699   5.382   6.306   5.722 -0.4549  0.3404  0.2916
   91SAPC   H2Y 8700   5.512   6.187   5.734 -0.1313  0.1205  1.5393
   91SAPC   C23 8701   5.298   5.869   5.730  0.0102 -0.2533  0.3670
   91SAPC   H3R 8702   5.329   5.789   5.659 -0.0838 -0.7771  0.9050
   91SAPC   H3S 8703   5.387   5.892   5.792 -0.1145  2.7169 -0.3833
   91SAPC   C24 8704   5.267   6.002   5.650 -0.0383 -0.2756  0.3196
   91SAPC   H4R 8705   5.357   6.035   5.594 -0.8996 -0.1474 -1.0588
   91SAPC   H4S 8706   5.236   6.084   5.718 -0.3443  1.1770 -1.4887
   91SAPC   C25 8707   5.162   5.981   5.548 -0.0432 -0.2797  0.3613
   91SAPC   H5R 8708   5.071   6.031   5.587  2.0063  3.4119  0.8848
   91SAPC   C26 8709   5.178   5.940   5.417  0.2708 -0.4696 -0.5794
   91SAPC   H6R 8710   5.087   5.950   5.356 -0.1014 -1.1240 -0.1519
   91SAPC   C27 8711   5.314   5.905   5.360  0.0630  0.2895  0.5547
   91SAPC   H7R 8712   5.402   5.926   5.424 -0.1430  3.1523  0.0329
   91SAPC   H7S 8713   5.343   5.973   5.277  0.1037  0.4658  0.7125
   91SAPC   C28 8714   5.303   5.762   5.313 -0.0285  0.3508  0.2048
   91SAPC   H8R 8715   5.297   5.692   5.398 -3.0876  2.6569  2.1123
   91SAPC   C29 8716   5.315   5.708   5.194  0.4533 -0.0037 -0.0082
   91SAPC   H9R 8717   5.288   5.602   5.176  0.5710  0.0730 -0.6366
   91SAPC  C210 8718   5.309   5.781   5.066  0.0966  0.4316  0.0697
   91SAPC  H10R 8719   5.298   5.891   5.069  2.2429  0.7582 -1.5508
   91SAPC  H10S 8720   5.213   5.745   5.023  0.3974 -1.8743  1.1255
   91SAPC  C211 8721   5.436   5.756   4.983 -0.0223 -0.4156 -0.9353
   91SAPC  H11R 8722   5.525   5.717   5.036 -0.2115  0.2160 -0.1391
   91SAPC  C212 8723   5.464   5.782   4.857  0.3275 -0.5934 -0.2018
   91SAPC  H12R 8724   5.567   5.757   4.826  0.5511 -0.1481  0.1819
   91SAPC  C213 8725   5.364   5.839   4.757  0.1884 -0.3193 -0.1558
   91SAPC  H13R 8726   5.392   5.942   4.726  0.5215 -0.6459 -0.9734
   91SAPC  H13S 8727   5.262   5.847   4.800  0.7137 -3.0274  1.8732
   91SAPC  C214 8728   5.358   5.755   4.632 -0.1075  0.7756  1.0772
   91SAPC  H14R 8729   5.330   5.649   4.645 -1.8352  0.7486 -1.9292
   91SAPC  C215 8730   5.373   5.793   4.505 -0.6152  0.2398  0.2237
   91SAPC  H15R 8731   5.374   5.714   4.429  1.0878  1.1023 -0.7095
   91SAPC  C216 8732   5.401   5.933   4.444  0.4150  0.0407  0.0301
   91SAPC  H16R 8733   5.438   6.001   4.525 -3.5879  0.5145  1.6914
   91SAPC  H16S 8734   5.301   5.979   4.428 -0.5992 -1.3432  1.9128
   91SAPC  C217 8735   5.482   5.944   4.315  0.5603 -0.2612  0.6555
   91SAPC  H17R 8736   5.458   6.045   4.276  0.3048 -0.2879  0.7421
   91SAPC  H17S 8737   5.446   5.876   4.234 -1.1239  1.5402 -0.1910
   91SAPC  C218 8738   5.629   5.915   4.335  0.4425 -0.1591  0.6473
   91SAPC  H18R 8739   5.631   5.807   4.360 -1.4083 -0.6691 -1.2011
   91SAPC  H18S 8740   5.678   5.972   4.417  1.1520  0.5185 -0.2235
   91SAPC  C219 8741   5.714   5.938   4.211  0.0427  0.0612  0.5149
   91SAPC  H19R 8742   5.657   5.915   4.119  0.3790  0.6990  0.1437
   91SAPC  H19S 8743   5.791   5.857   4.212 -1.8354 -1.8369 -0.7634
   91SAPC  C220 8744   5.767   6.083   4.197 -0.0657 -0.2999  0.2616
   91SAPC  H20R 8745   5.821   6.116   4.289  2.6347 -1.3448 -0.8373
   91SAPC  H20S 8746   5.676   6.143   4.179 -0.9116 -1.5225  0.3715
   91SAPC  H20T 8747   5.834   6.090   4.108 -1.6760 -0.1253 -0.9742
   91SAPC   C33 8748   5.580   6.402   5.721  0.8113  0.9937  0.2463
   91SAPC   H3X 8749   5.616   6.375   5.620  2.3216  0.2506  0.9517
   91SAPC   H3Y 8750   5.674   6.409   5.781  3.5582 -0.8399 -3.4674
   91SAPC   C34 8751   5.528   6.549   5.728 -0.6323  0.8991  0.3492
   91SAPC   H4X 8752   5.465   6.554   5.819 -1.8800  0.1978 -0.4545
   91SAPC   H4Y 8753   5.453   6.580   5.651 -0.0674  0.6179 -0.3240
   91SAPC   C35 8754   5.636   6.658   5.719 -0.0707  0.3482 -0.2848
   91SAPC   H5X 8755   5.693   6.661   5.624  0.7762 -1.3344  0.1396
   91SAPC   H5Y 8756   5.701   6.649   5.808  0.5932 -2.6431 -0.9434
   91SAPC   C36 8757   5.557   6.791   5.736 -0.3911  0.1183  0.5940
   91SAPC   H6X 8758   5.507   6.781   5.835  3.2571 -1.9462  2.4519
   91SAPC   H6Y 8759   5.483   6.797   5.654 -0.4700 -0.2900  0.6302
   91SAPC   C37 8760   5.644   6.914   5.735  0.0686  0.5167 -0.1738
   91SAPC   H7X 8761   5.681   6.916   5.840  0.9893 -3.2416 -0.2690
   91SAPC   H7Y 8762   5.589   7.007   5.711  0.6334  1.1595  0.9206
   91SAPC   C38 8763   5.768   6.904   5.643  0.3481  0.3914  0.1107
   91SAPC   H8X 8764   5.739   6.854   5.548  0.1049  1.3885 -0.3550
   91SAPC   H8Y 8765   5.841   6.835   5.692 -1.2579 -0.3723  1.5145
   91SAPC   C39 8766   5.835   7.047   5.617  0.0892  0.0456  0.3143
   91SAPC   H9X 8767   5.903   7.076   5.699  1.9150 -1.1310 -0.6953
   91SAPC   H9Y 8768   5.753   7.118   5.590 -0.3552 -0.4609  0.3023
   91SAPC  C310 8769   5.905   7.046   5.477  0.1589  0.2137 -0.6805
   91SAPC  H10X 8770   5.986   6.972   5.462  1.0576  1.4685 -2.3051
   91SAPC  H10Y 8771   5.964   7.140   5.472 -0.3440  0.4917 -1.6650
   91SAPC  C311 8772   5.809   7.048   5.355 -0.9916  0.6626 -0.3869
   91SAPC  H11X 8773   5.719   7.110   5.374 -0.5871  0.7651  1.3301
   91SAPC  H11Y 8774   5.782   6.942   5.339  0.9916 -0.0658  0.7005
   91SAPC  C312 8775   5.877   7.099   5.228 -0.6532  0.2425 -0.9173
   91SAPC  H12X 8776   5.965   7.032   5.220 -0.9864 -0.5945  1.4881
   91SAPC  H12Y 8777   5.921   7.201   5.234 -1.3219  0.6907 -2.9251
   91SAPC  C313 8778   5.802   7.079   5.101  0.3249 -0.7386  0.4584
   91SAPC  H13X 8779   5.751   7.170   5.065  0.7695 -0.4044  0.6590
   91SAPC  H13Y 8780   5.724   7.002   5.119  0.5412 -1.6401 -2.0478
   91SAPC  C314 8781   5.895   7.027   4.984  0.2418  0.1996  0.0193
   91SAPC  H14X 8782   5.940   6.928   5.010 -2.2170 -0.1541  3.6880
   91SAPC  H14Y 8783   5.981   7.097   4.976  1.1668 -1.0008 -0.9156
   91SAPC  C315 8784   5.829   7.057   4.851  0.1566 -0.1441  0.0290
   91SAPC  H15X 8785   5.809   7.166   4.839  1.7638  0.2793  0.8700
   91SAPC  H15Y 8786   5.734   7.001   4.837  0.4588 -0.6470 -0.0406
   91SAPC  C316 8787   5.917   7.024   4.732  0.0703  0.2074 -0.0635
   91SAPC  H16X 8788   5.932   6.913   4.734  2.9862  0.5037 -0.0802
   91SAPC  H16Y 8789   6.025   7.049   4.737  0.4337 -1.2219 -0.1878
   91SAPC  C317 8790   5.872   7.075   4.602 -0.0110  0.2868  0.4153
   91SAPC  H17X 8791   5.892   7.184   4.612  0.2181  0.2528  0.3167
   91SAPC  H17Y 8792   5.763   7.054   4.592 -0.5469  2.2617  1.5933
   91SAPC  C318 8793   5.957   7.003   4.497 -0.0013  0.2390 -0.0579
   91SAPC  H18X 8794   5.948   6.893   4.504 -1.1495 -0.0033 -3.3846
   91SAPC  H18Y 8795   6.061   7.041   4.507  0.0593 -0.3107  1.7968
   91SAPC  H18Z 8796   5.917   7.015   4.394  0.7675  0.2502 -0.3630
   92SAPC     N 8797   3.119   4.978   6.429  0.3536  0.3665  0.4061
   92SAPC   C12 8798   2.981   4.997   6.360 -0.2560  0.7203 -0.9772
   92SAPC  H12A 8799   2.919   5.005   6.447  0.8781 -0.5551 -0.0025
   92SAPC  H12B 8800   2.942   4.907   6.315  0.7197 -0.0607 -0.3158
   92SAPC   C13 8801   3.240   4.963   6.340 -0.2027  0.6931 -0.2241
   92SAPC  H13A 8802   3.228   4.883   6.267 -1.6899  1.0578 -0.4078
   92SAPC  H13B 8803   3.276   5.048   6.284  0.0426  1.6021  1.2722
   92SAPC  H13C 8804   3.326   4.936   6.399 -1.0121 -1.4182  0.0831
   92SAPC   C14 8805   3.151   5.092   6.516  0.1714  0.2286  0.0863
   92SAPC  H14A 8806   3.191   5.174   6.458 -0.8605  2.2783  2.1195
   92SAPC  H14B 8807   3.061   5.144   6.545  0.6334  1.0222  0.1214
   92SAPC  H14C 8808   3.212   5.066   6.602 -1.2153  1.4989  1.5226
   92SAPC   C15 8809   3.111   4.856   6.504 -0.7779  0.6765 -0.1683
   92SAPC  H15A 8810   3.106   4.771   6.437  3.0503 -0.1146  0.3390
   92SAPC  H15B 8811   3.198   4.845   6.567  0.5070  1.7834 -1.6705
   92SAPC  H15C 8812   3.023   4.854   6.567 -0.4127 -0.1613  0.3369
   92SAPC   C11 8813   2.970   5.119   6.265 -0.2224  0.2008  0.4352
   92SAPC  H11A 8814   2.884   5.099   6.199  0.2806 -1.4063  0.2266
   92SAPC  H11B 8815   3.060   5.115   6.200  2.1454  0.2933  3.4772
   92SAPC     P 8816   3.005   5.374   6.261  0.2301  0.3372 -0.0511
   92SAPC   O13 8817   2.947   5.485   6.343 -0.7788  0.4760  0.3642
   92SAPC   O14 8818   3.152   5.380   6.247  0.3217 -0.2766  0.0772
   92SAPC   O12 8819   2.956   5.243   6.332  0.5295  0.0553 -0.3244
   92SAPC   O11 8820   2.925   5.386   6.125 -0.5625  0.1953  0.1393
   92SAPC    C1 8821   2.984   5.406   6.004 -0.5376  0.4013  0.4446
   92SAPC    HA 8822   3.089   5.370   5.996 -1.0584 -1.3681  1.1550
   92SAPC    HB 8823   2.926   5.362   5.920  2.2632 -1.1258 -0.8411
   92SAPC    C2 8824   3.001   5.561   5.974  0.0655  0.0996 -0.0743
   92SAPC    HS 8825   3.065   5.598   6.056 -0.7660 -1.0464  1.1302
   92SAPC   O21 8826   2.875   5.622   5.980 -0.5700 -0.2350 -0.1615
   92SAPC   C21 8827   2.862   5.757   5.992  0.2246  0.0463 -0.1145
   92SAPC   O22 8828   2.957   5.833   6.006  0.3282 -0.3425 -0.1171
   92SAPC   C22 8829   2.717   5.798   5.985  0.0544 -0.6705  0.2368
   92SAPC   H2R 8830   2.659   5.721   5.931  0.8444 -1.0597 -0.0734
   92SAPC   H2S 8831   2.674   5.801   6.087 -0.5360  0.1483 -0.0356
   92SAPC    C3 8832   3.069   5.580   5.835 -0.5077 -0.4079  0.3016
   92SAPC    HX 8833   3.173   5.542   5.843  0.1230  1.0607 -0.5375
   92SAPC    HY 8834   3.080   5.689   5.815 -0.3518 -0.5019 -0.1548
   92SAPC   O31 8835   2.993   5.520   5.730  0.1018 -0.0112  0.0299
   92SAPC   C31 8836   3.067   5.500   5.618  1.1979 -0.0344 -0.4795
   92SAPC   O32 8837   3.183   5.535   5.596  0.2137  0.2430 -0.8474
   92SAPC   C32 8838   2.988   5.395   5.539 -0.1381  0.3464  0.1286
   92SAPC   H2X 8839   2.882   5.426   5.534  0.2988  1.7398 -1.8303
   92SAPC   H2Y 8840   3.000   5.295   5.585 -0.5792  0.4782  0.5358
   92SAPC   C23 8841   2.702   5.933   5.916  0.1356  0.3246 -0.0109
   92SAPC   H3R 8842   2.736   6.010   5.989  3.8465 -2.0172  0.9843
   92SAPC   H3S 8843   2.592   5.941   5.903 -0.1903 -1.1475  1.4876
   92SAPC   C24 8844   2.777   5.964   5.784  0.4386  0.3623  0.5393
   92SAPC   H4R 8845   2.877   5.916   5.790  1.2276  1.6886 -1.2053
   92SAPC   H4S 8846   2.796   6.074   5.785 -1.0116  0.6620 -0.4611
   92SAPC   C25 8847   2.702   5.933   5.657  0.1524  0.5508  0.3062
   92SAPC   H5R 8848   2.605   5.985   5.658 -0.4532 -0.5070 -0.6221
   92SAPC   C26 8849   2.729   5.847   5.559  0.8206  0.3202  0.3577
   92SAPC   H6R 8850   2.653   5.833   5.481  0.3648  2.1801  0.4170
   92SAPC   C27 8851   2.855   5.757   5.549 -0.4094  0.5015 -0.1523
   92SAPC   H7R 8852   2.830   5.649   5.551  0.4772  0.2905  0.8946
   92SAPC   H7S 8853   2.919   5.774   5.638  1.8278  1.2643 -1.8180
   92SAPC   C28 8854   2.930   5.795   5.416  0.0768 -0.1973  0.3031
   92SAPC   H8R 8855   3.013   5.867   5.427  0.5708 -0.4946 -1.2370
   92SAPC   C29 8856   2.895   5.760   5.294  0.1462  0.2057  0.7218
   92SAPC   H9R 8857   2.949   5.810   5.212  0.2195 -0.9271  0.0638
   92SAPC  C210 8858   2.778   5.664   5.249 -0.2047  0.1325 -0.1984
   92SAPC  H10R 8859   2.697   5.675   5.325 -0.7983 -1.0427 -0.6439
   92SAPC  H10S 8860   2.804   5.557   5.240 -2.7095 -0.5466 -0.0300
   92SAPC  C211 8861   2.725   5.677   5.105  0.0546  1.0210  0.1650
   92SAPC  H11R 8862   2.617   5.657   5.100  0.3084  0.0030 -2.6394
   92SAPC  C212 8863   2.782   5.689   4.976  0.2403 -0.1008  0.4531
   92SAPC  H12R 8864   2.721   5.703   4.886  3.5108  1.6052 -1.6703
   92SAPC  C213 8865   2.929   5.701   4.940 -0.2141  0.4992 -0.4108
   92SAPC  H13R 8866   2.993   5.706   5.031  2.5543  0.0085 -2.1914
   92SAPC  H13S 8867   2.950   5.803   4.901  1.0676  1.0916  1.6522
   92SAPC  C214 8868   2.984   5.597   4.842  0.0754  0.3370 -0.4791
   92SAPC  H14R 8869   3.069   5.539   4.880 -1.6051 -1.5534  0.6170
   92SAPC  C215 8870   2.936   5.565   4.722  0.1445 -0.0776  1.0096
   92SAPC  H15R 8871   2.988   5.490   4.662 -1.4419 -0.5718  0.1988
   92SAPC  C216 8872   2.821   5.621   4.642 -0.1691 -0.4949  0.4910
   92SAPC  H16R 8873   2.777   5.710   4.693 -0.0200  0.0731 -0.3490
   92SAPC  H16S 8874   2.740   5.545   4.643 -0.3508 -0.3070  0.2365
   92SAPC  C217 8875   2.845   5.659   4.499 -0.0463  0.0597  0.5200
   92SAPC  H17R 8876   2.748   5.693   4.454  0.0049 -0.5333 -0.0593
   92SAPC  H17S 8877   2.876   5.568   4.443  0.4912 -0.4727  1.6580
   92SAPC  C218 8878   2.954   5.764   4.488 -0.7295 -0.6583 -0.3066
   92SAPC  H18R 8879   3.047   5.730   4.538 -0.1936  1.5198  0.2653
   92SAPC  H18S 8880   2.912   5.849   4.546  2.1526 -0.6151  1.9914
   92SAPC  C219 8881   2.975   5.820   4.344 -0.1996  0.3193  0.0421
   92SAPC  H19R 8882   2.867   5.826   4.317 -0.5572 -1.5104  0.9126
   92SAPC  H19S 8883   3.019   5.740   4.280  1.1089  0.4634  0.7317
   92SAPC  C220 8884   3.053   5.954   4.345  0.0914 -0.2123 -0.1249
   92SAPC  H20R 8885   3.042   6.002   4.245 -1.2559 -2.7642 -1.2878
   92SAPC  H20S 8886   3.158   5.933   4.373  1.8368  4.2187 -2.2575
   92SAPC  H20T 8887   3.015   6.014   4.431  0.6640 -0.5533  0.3672
   92SAPC   C33 8888   3.040   5.369   5.393 -0.2109 -0.1155  0.1974
   92SAPC   H3X 8889   3.071   5.466   5.349 -1.1704  0.1673  0.1195
   92SAPC   H3Y 8890   2.960   5.345   5.321 -2.0157  3.8360  0.6379
   92SAPC   C34 8891   3.160   5.273   5.403  0.3021 -0.0597  0.4741
   92SAPC   H4X 8892   3.126   5.168   5.415 -0.2854  0.0640 -0.0724
   92SAPC   H4Y 8893   3.226   5.314   5.482 -0.3545  0.2451  0.8704
   92SAPC   C35 8894   3.250   5.270   5.278  0.0500 -0.5867  0.0636
   92SAPC   H5X 8895   3.335   5.199   5.287  0.1958 -0.5146 -0.7190
   92SAPC   H5Y 8896   3.302   5.367   5.278 -1.6608  0.3869 -1.3628
   92SAPC   C36 8897   3.178   5.248   5.148  1.1468  0.1117 -0.2350
   92SAPC   H6X 8898   3.099   5.325   5.135  0.6740 -0.2889  0.2262
   92SAPC   H6Y 8899   3.131   5.147   5.148 -0.6153  0.8615  1.8065
   92SAPC   C37 8900   3.270   5.264   5.021  0.7681  0.0469 -0.3191
   92SAPC   H7X 8901   3.366   5.216   5.048 -0.0797 -2.6947 -1.8223
   92SAPC   H7Y 8902   3.275   5.373   4.998  2.2182  0.3424  1.1971
   92SAPC   C38 8903   3.219   5.208   4.879 -0.4167  0.6075 -0.0233
   92SAPC   H8X 8904   3.111   5.228   4.867 -1.2299 -3.2755 -0.3437
   92SAPC   H8Y 8905   3.226   5.098   4.874  0.8540  0.7169 -1.5431
   92SAPC   C39 8906   3.295   5.269   4.762 -0.0791  0.7615 -0.0397
   92SAPC   H9X 8907   3.402   5.242   4.778  0.0004  1.3666  0.4743
   92SAPC   H9Y 8908   3.268   5.377   4.760 -2.2369  0.3157 -3.2442
   92SAPC  C310 8909   3.257   5.199   4.628 -0.1544 -0.0356  0.6287
   92SAPC  H10X 8910   3.146   5.200   4.631 -0.1878 -0.6907 -0.0431
   92SAPC  H10Y 8911   3.285   5.092   4.616  3.6363  0.9276 -0.6261
   92SAPC  C311 8912   3.330   5.277   4.510  0.0981 -0.0153  0.4676
   92SAPC  H11X 8913   3.438   5.277   4.537  0.2845 -0.2158 -0.2465
   92SAPC  H11Y 8914   3.295   5.381   4.492 -3.3421 -0.9255  1.0554
   92SAPC  C312 8915   3.304   5.209   4.372  0.4804  0.2036  0.6579
   92SAPC  H12X 8916   3.317   5.099   4.379  0.8197  0.1452 -0.6695
   92SAPC  H12Y 8917   3.383   5.249   4.306  0.3033 -0.6546 -0.0878
   92SAPC  C313 8918   3.162   5.234   4.318 -0.0987  0.6291 -0.2425
   92SAPC  H13X 8919   3.139   5.336   4.280  1.9406  0.8520 -0.9918
   92SAPC  H13Y 8920   3.087   5.205   4.394  0.1753  0.8881  0.1300
   92SAPC  C314 8921   3.133   5.147   4.189 -0.1246 -0.1859 -0.2807
   92SAPC  H14X 8922   3.024   5.160   4.169 -0.7632 -0.9731  2.2948
   92SAPC  H14Y 8923   3.154   5.042   4.219  0.8122  0.4994  1.6621
   92SAPC  C315 8924   3.210   5.188   4.055  0.3293 -0.0771  0.0704
   92SAPC  H15X 8925   3.183   5.115   3.976  4.7665  0.0196 -1.8348
   92SAPC  H15Y 8926   3.317   5.162   4.074 -0.1830 -2.6220 -0.1645
   92SAPC  C316 8927   3.197   5.336   4.005 -0.2522  0.0679 -0.1551
   92SAPC  H16X 8928   3.275   5.356   3.928 -1.8045 -1.4831 -2.2631
   92SAPC  H16Y 8929   3.208   5.407   4.090 -1.3487  0.5562 -0.4089
   92SAPC  C317 8930   3.078   5.364   3.911  0.1428  0.4100  0.3797
   92SAPC  H17X 8931   3.079   5.287   3.831 -1.1428 -0.4544  1.1688
   92SAPC  H17Y 8932   3.095   5.466   3.871 -0.5906  0.2906 -0.2675
   92SAPC  C318 8933   2.942   5.365   3.974  0.2665 -0.3786  0.1705
   92SAPC  H18X 8934   2.908   5.442   4.046 -0.7320  1.4688 -2.1380
   92SAPC  H18Y 8935   2.905   5.265   4.006  0.9950 -1.3277 -1.8097
   92SAPC  H18Z 8936   2.878   5.395   3.888 -0.0625 -2.9596 -0.5745
   93SAPC     N 8937   5.868   1.026   6.966 -0.3457  0.4585 -0.6182
   93SAPC   C12 8938   5.896   1.061   6.818  0.1277 -0.5907 -0.0339
   93SAPC  H12A 8939   6.002   1.063   6.796 -0.0251  2.6512 -0.9336
   93SAPC  H12B 8940   5.852   1.157   6.796 -3.0567 -1.7330  0.8469
   93SAPC   C13 8941   5.720   1.036   6.993 -0.4641 -0.1641 -0.0308
   93SAPC  H13A 8942   5.690   1.133   6.957 -2.3865 -0.2161  1.3044
   93SAPC  H13B 8943   5.670   0.972   6.922  1.9947 -2.6984  0.3222
   93SAPC  H13C 8944   5.696   1.028   7.098 -2.8161 -0.5702 -0.5458
   93SAPC   C14 8945   5.921   0.893   6.995  0.9551  0.5630 -0.3109
   93SAPC  H14A 8946   6.023   0.871   6.968  1.7141  0.3026  2.4994
   93SAPC  H14B 8947   5.912   0.872   7.101  0.6876 -0.2272 -0.4834
   93SAPC  H14C 8948   5.863   0.811   6.957  0.4477  0.5949  0.3819
   93SAPC   C15 8949   5.936   1.131   7.054 -0.0300  0.8608 -0.2695
   93SAPC  H15A 8950   5.885   1.227   7.053 -1.5651  0.0794  0.0116
   93SAPC  H15B 8951   5.952   1.093   7.154 -0.5046 -0.8438 -0.8170
   93SAPC  H15C 8952   6.024   1.150   6.995 -0.9601 -3.4110 -3.5120
   93SAPC   C11 8953   5.838   0.959   6.718  1.2359 -0.4008  0.3888
   93SAPC  H11A 8954   5.874   0.856   6.738  3.9501  0.4350  0.1806
   93SAPC  H11B 8955   5.881   0.977   6.617 -0.5385 -2.2136 -0.7737
   93SAPC     P 8956   5.614   1.070   6.633 -0.2611  0.5632 -0.0405
   93SAPC   O13 8957   5.472   1.032   6.651 -0.2865  0.1356 -0.3155
   93SAPC   O14 8958   5.649   1.205   6.678  0.0534  0.4924  0.1350
   93SAPC   O12 8959   5.698   0.962   6.724 -0.1082 -0.4066  0.4039
   93SAPC   O11 8960   5.664   1.034   6.486  0.2878  0.2056 -0.3279
   93SAPC    C1 8961   5.685   0.895   6.454  0.5296  0.1162  0.2452
   93SAPC    HA 8962   5.790   0.857   6.455  0.1921 -0.8984 -0.6743
   93SAPC    HB 8963   5.623   0.826   6.514  1.8439 -2.1491 -0.8841
   93SAPC    C2 8964   5.650   0.862   6.305  0.2888  0.0995 -0.7569
   93SAPC    HS 8965   5.663   0.752   6.294 -0.6732  0.1343 -2.6304
   93SAPC   O21 8966   5.725   0.948   6.218 -0.4493 -0.0795  0.2147
   93SAPC   C21 8967   5.847   0.922   6.187 -0.3620 -0.0041  0.3520
   93SAPC   O22 8968   5.916   0.830   6.229 -0.8191 -0.5795  0.0568
   93SAPC   C22 8969   5.885   1.022   6.073  0.2174  0.5485  0.2585
   93SAPC   H2R 8970   5.786   1.061   6.040  0.2811  2.0654  1.6886
   93SAPC   H2S 8971   5.944   1.098   6.128  2.2398 -1.0601  0.4552
   93SAPC    C3 8972   5.497   0.877   6.289 -1.0683 -0.3282 -0.6418
   93SAPC    HX 8973   5.463   0.979   6.315  2.2158  0.0531  2.9569
   93SAPC    HY 8974   5.465   0.798   6.360  3.5897 -1.1665  0.8368
   93SAPC   O31 8975   5.463   0.839   6.149  0.0864 -0.2711 -0.6075
   93SAPC   C31 8976   5.472   0.946   6.070 -0.2779 -0.9407  0.4109
   93SAPC   O32 8977   5.492   1.064   6.106 -0.2508  0.2933 -0.3344
   93SAPC   C32 8978   5.455   0.890   5.924 -0.3845  0.2342  0.4466
   93SAPC   H2X 8979   5.399   0.795   5.915 -0.1060  0.2159 -1.7317
   93SAPC   H2Y 8980   5.556   0.852   5.896 -1.8678 -2.4204 -1.7989
   93SAPC   C23 8981   5.970   0.961   5.957  0.0335 -0.0207 -0.7961
   93SAPC   H3R 8982   5.914   0.886   5.898 -0.4997  0.3314 -0.7393
   93SAPC   H3S 8983   6.058   0.919   6.011 -0.6039 -0.9494 -0.4412
   93SAPC   C24 8984   6.003   1.060   5.853  0.0097 -0.5370 -0.0661
   93SAPC   H4R 8985   6.076   1.129   5.900 -1.0651  0.9129 -0.4882
   93SAPC   H4S 8986   5.914   1.125   5.841  0.5350  0.1916 -0.0247
   93SAPC   C25 8987   6.061   1.011   5.718  0.0207  0.0196 -0.4099
   93SAPC   H5R 8988   6.158   0.958   5.724  0.4309  0.6927 -0.9258
   93SAPC   C26 8989   6.007   1.031   5.598 -0.1602  0.1000  0.1788
   93SAPC   H6R 8990   6.056   0.986   5.510 -0.5201  1.0698 -0.5394
   93SAPC   C27 8991   5.887   1.113   5.572 -0.1493  0.5705 -1.3219
   93SAPC   H7R 8992   5.852   1.175   5.658 -0.3628  1.3233 -1.9338
   93SAPC   H7S 8993   5.791   1.060   5.552 -0.2361  0.1923  0.0234
   93SAPC   C28 8994   5.906   1.216   5.466 -0.3596 -0.2369  0.3005
   93SAPC   H8R 8995   5.896   1.319   5.504  0.2188 -0.7845  2.0434
   93SAPC   C29 8996   5.896   1.192   5.332  0.6100  0.3313 -0.3623
   93SAPC   H9R 8997   5.882   1.280   5.267 -0.0533 -0.4249 -1.2546
   93SAPC  C210 8998   5.886   1.055   5.266  0.4899  0.2889  0.1957
   93SAPC  H10R 8999   5.905   0.973   5.338 -1.0575  0.2497  0.6069
   93SAPC  H10S 9000   5.955   1.051   5.180 -1.4645 -2.4083 -1.4324
   93SAPC  C211 9001   5.739   1.032   5.222  0.4914  0.7048  0.0024
   93SAPC  H11R 9002   5.672   0.995   5.301 -0.3219  2.9299  0.4318
   93SAPC  C212 9003   5.691   1.054   5.102 -0.3150  0.4761 -0.1115
   93SAPC  H12R 9004   5.584   1.040   5.080 -0.7013  1.1102  1.2284
   93SAPC  C213 9005   5.781   1.110   4.992  0.3385  0.4271  0.5032
   93SAPC  H13R 9006   5.830   1.198   5.038  0.3348  0.9443 -0.4651
   93SAPC  H13S 9007   5.717   1.148   4.909  0.5947 -0.6467 -0.2109
   93SAPC  C214 9008   5.886   1.033   4.915 -1.0598  0.1681 -0.7316
   93SAPC  H14R 9009   5.910   0.932   4.951  1.5838  0.8718 -0.2914
   93SAPC  C215 9010   5.937   1.075   4.799  0.2684  0.8827  0.0479
   93SAPC  H15R 9011   6.016   1.012   4.755  0.7554  1.0795  0.6307
   93SAPC  C216 9012   5.913   1.208   4.725 -0.1679  0.6087 -0.3820
   93SAPC  H16R 9013   6.009   1.260   4.707  0.1010 -0.1593 -1.2236
   93SAPC  H16S 9014   5.847   1.272   4.788 -0.0502  0.7729 -0.4264
   93SAPC  C217 9015   5.830   1.184   4.601 -0.7876 -0.4232 -0.3025
   93SAPC  H17R 9016   5.849   1.091   4.543  0.5743  0.7718 -1.8604
   93SAPC  H17S 9017   5.852   1.273   4.539  0.2277 -0.6333 -0.2675
   93SAPC  C218 9018   5.679   1.169   4.631 -0.3467  0.8973 -0.2067
   93SAPC  H18R 9019   5.635   1.251   4.691 -0.5294  1.2013 -0.7535
   93SAPC  H18S 9020   5.669   1.086   4.704 -0.4699  1.2248  0.1490
   93SAPC  C219 9021   5.587   1.135   4.516 -0.7342  0.1526  0.4168
   93SAPC  H19R 9022   5.489   1.098   4.554  0.2832 -1.6702  1.4232
   93SAPC  H19S 9023   5.636   1.056   4.455  1.0496  2.3715 -1.2147
   93SAPC  C220 9024   5.558   1.263   4.430 -0.0685  0.0316  1.1038
   93SAPC  H20R 9025   5.528   1.347   4.496  0.2930  0.3752  0.8391
   93SAPC  H20S 9026   5.475   1.235   4.361 -1.0604  2.8332  1.0222
   93SAPC  H20T 9027   5.651   1.288   4.375  0.5533 -2.8354  0.6852
   93SAPC   C33 9028   5.411   0.998   5.821 -0.1335  0.3265  0.2616
   93SAPC   H3X 9029   5.482   1.081   5.842 -2.0095  1.5341  2.1745
   93SAPC   H3Y 9030   5.309   1.037   5.842 -0.3973  1.6567 -3.0046
   93SAPC   C34 9031   5.424   0.956   5.672 -0.1511 -0.5202 -0.1104
   93SAPC   H4X 9032   5.367   0.863   5.652 -0.0442 -0.9178  1.3195
   93SAPC   H4Y 9033   5.532   0.951   5.643 -0.2711  3.0683 -1.7179
   93SAPC   C35 9034   5.358   1.062   5.583  0.3098  0.3960  0.5024
   93SAPC   H5X 9035   5.423   1.151   5.583  0.8821  0.0274 -1.4381
   93SAPC   H5Y 9036   5.254   1.076   5.619 -0.1301  0.3775 -0.7068
   93SAPC   C36 9037   5.361   1.017   5.441  0.0598 -0.2816  0.1162
   93SAPC   H6X 9038   5.320   0.913   5.441 -0.0384 -0.2641  1.4909
   93SAPC   H6Y 9039   5.455   1.014   5.382  0.2850  0.4759  0.4225
   93SAPC   C37 9040   5.263   1.114   5.355 -0.0802 -0.5085 -0.0974
   93SAPC   H7X 9041   5.301   1.218   5.369  0.3452 -0.4435 -1.5030
   93SAPC   H7Y 9042   5.163   1.104   5.403  0.9539 -2.1158  1.8626
   93SAPC   C38 9043   5.265   1.078   5.208 -0.1206 -0.1380  0.1463
   93SAPC   H8X 9044   5.219   0.981   5.178 -2.2410  0.7977  0.1771
   93SAPC   H8Y 9045   5.374   1.079   5.190 -0.6094 -1.3394 -3.6699
   93SAPC   C39 9046   5.186   1.178   5.121  0.1085  0.4784 -0.1042
   93SAPC   H9X 9047   5.207   1.287   5.119  0.9034  0.3254 -0.3141
   93SAPC   H9Y 9048   5.079   1.189   5.149 -0.9680 -2.1143 -2.6689
   93SAPC  C310 9049   5.209   1.136   4.972 -0.1275 -0.5421  0.3543
   93SAPC  H10X 9050   5.184   1.028   4.961  0.7116 -0.6811 -0.2405
   93SAPC  H10Y 9051   5.318   1.152   4.958  0.2021  1.0222  3.6223
   93SAPC  C311 9052   5.117   1.212   4.878  0.1148  0.3503  0.7182
   93SAPC  H11X 9053   5.151   1.316   4.895 -1.8662  0.7990  2.3047
   93SAPC  H11Y 9054   5.010   1.206   4.904  0.0152  0.4385  0.3382
   93SAPC  C312 9055   5.141   1.169   4.730  0.0837 -0.1647  1.0116
   93SAPC  H12X 9056   5.093   1.069   4.723 -1.8629  0.7447  0.8658
   93SAPC  H12Y 9057   5.250   1.170   4.710 -0.0612 -0.2212  0.1909
   93SAPC  C313 9058   5.067   1.265   4.631 -0.3512 -0.1971 -0.3918
   93SAPC  H13X 9059   5.112   1.366   4.645  3.2431 -1.8609  1.0473
   93SAPC  H13Y 9060   4.960   1.280   4.657 -0.9951 -0.5128 -2.6549
   93SAPC  C314 9061   5.080   1.231   4.484  0.1943 -0.2601 -0.2718
   93SAPC  H14X 9062   5.190   1.242   4.469  0.3243  0.8541  1.2087
   93SAPC  H14Y 9063   5.030   1.301   4.414 -0.6390 -0.8844 -0.3228
   93SAPC  C315 9064   5.019   1.094   4.451  0.2898  0.6188  0.1070
   93SAPC  H15X 9065   4.911   1.106   4.473 -0.6172 -0.8103 -2.9349
   93SAPC  H15Y 9066   5.061   1.013   4.514 -0.0020 -0.4227 -0.9848
   93SAPC  C316 9067   5.032   1.059   4.306 -0.7868  0.4873 -0.3881
   93SAPC  H16X 9068   5.137   1.029   4.286 -1.1177 -1.5959  0.7229
   93SAPC  H16Y 9069   5.007   1.149   4.246 -1.5109  2.0663  2.1001
   93SAPC  C317 9070   4.943   0.938   4.269 -0.1042  0.7111  0.5128
   93SAPC  H17X 9071   4.848   0.941   4.326 -2.0146 -3.0475 -2.0728
   93SAPC  H17Y 9072   4.992   0.845   4.303  0.4877  0.8914  0.1617
   93SAPC  C318 9073   4.921   0.927   4.115  0.4195  1.2924 -0.6231
   93SAPC  H18X 9074   5.008   0.879   4.065 -0.2580 -1.6041  0.8089
   93SAPC  H18Y 9075   4.907   1.032   4.080  1.3589  2.3966  2.0927
   93SAPC  H18Z 9076   4.832   0.863   4.102 -0.7698  2.5921  0.7158
   94SAPC     N 9077   4.965   5.165   6.587 -0.6789  0.0603 -0.3037
   94SAPC   C12 9078   5.044   5.108   6.468 -0.4968  0.2154 -0.0314
   94SAPC  H12A 9079   5.063   5.005   6.491  2.1038  0.3168 -1.3251
   94SAPC  H12B 9080   5.141   5.156   6.482 -0.7805  0.1978  2.2793
   94SAPC   C13 9081   4.835   5.095   6.593  0.6180  0.1256 -0.3353
   94SAPC  H13A 9082   4.791   5.099   6.691  1.3559 -1.9663  0.1334
   94SAPC  H13B 9083   4.767   5.116   6.512 -1.8507 -2.8583  0.7745
   94SAPC  H13C 9084   4.843   4.988   6.579 -1.7702 -0.2581  0.7199
   94SAPC   C14 9085   5.033   5.128   6.717  0.1284 -0.1762  0.5757
   94SAPC  H14A 9086   5.010   5.193   6.801  1.8177  0.0489  0.9123
   94SAPC  H14B 9087   5.009   5.027   6.747 -2.4991  0.4949  0.9625
   94SAPC  H14C 9088   5.140   5.146   6.712  0.2173 -0.5395  1.0508
   94SAPC   C15 9089   4.942   5.313   6.579 -0.7145  0.4382  0.3431
   94SAPC  H15A 9090   4.854   5.335   6.638 -0.6755 -0.3883  0.7191
   94SAPC  H15B 9091   5.020   5.378   6.617 -0.5152 -0.6470  1.8669
   94SAPC  H15C 9092   4.911   5.332   6.477  0.7158 -2.9283 -0.8419
   94SAPC   C11 9093   4.984   5.130   6.331  0.3284  0.6371  0.5104
   94SAPC  H11A 9094   5.047   5.071   6.261 -0.6600 -0.3140  0.4071
   94SAPC  H11B 9095   4.996   5.235   6.297 -0.5527  0.7764  0.6162
   94SAPC     P 9096   4.761   5.113   6.190 -0.0626 -0.5728 -0.0580
   94SAPC   O13 9097   4.654   5.016   6.185  0.0598 -0.3332  0.3206
   94SAPC   O14 9098   4.726   5.253   6.205 -0.2487 -0.5064 -0.1782
   94SAPC   O12 9099   4.845   5.089   6.320  0.1032  0.2896 -0.4581
   94SAPC   O11 9100   4.866   5.099   6.068  0.4624  0.0704 -0.3278
   94SAPC    C1 9101   4.920   5.217   6.009 -0.0290 -0.2982 -0.2769
   94SAPC    HA 9102   4.961   5.287   6.085  0.6666  0.7455 -1.5810
   94SAPC    HB 9103   5.012   5.184   5.955  0.3901 -0.4471  0.5067
   94SAPC    C2 9104   4.823   5.292   5.914  0.3504  0.1864 -0.4692
   94SAPC    HS 9105   4.751   5.351   5.975  2.6484  2.0538  0.6042
   94SAPC   O21 9106   4.767   5.190   5.833  0.3051 -0.0643  0.4809
   94SAPC   C21 9107   4.646   5.215   5.786  0.5317  0.4215 -0.7582
   94SAPC   O22 9108   4.584   5.316   5.802  0.4098 -0.6190 -0.7791
   94SAPC   C22 9109   4.592   5.084   5.724 -0.0239 -0.6017  0.5192
   94SAPC   H2R 9110   4.616   5.000   5.793 -2.2474 -0.6780  1.2640
   94SAPC   H2S 9111   4.483   5.081   5.702  0.2551 -1.1991 -0.8773
   94SAPC    C3 9112   4.910   5.393   5.825 -0.1992 -0.2074 -0.0323
   94SAPC    HX 9113   4.980   5.454   5.886  1.2370  1.1515 -2.8489
   94SAPC    HY 9114   4.841   5.472   5.788 -0.0157  0.8077  1.6614
   94SAPC   O31 9115   4.995   5.336   5.720  0.0125 -0.3661  0.0323
   94SAPC   C31 9116   4.944   5.291   5.607  1.0049  0.1879  0.7508
   94SAPC   O32 9117   4.832   5.314   5.569 -0.5245 -0.3646  0.1758
   94SAPC   C32 9118   5.039   5.205   5.522 -0.3467 -0.6510 -0.0326
   94SAPC   H2X 9119   5.017   5.102   5.557 -0.2893 -0.3070  1.0668
   94SAPC   H2Y 9120   5.140   5.225   5.564 -0.9520 -1.4738  1.9534
   94SAPC   C23 9121   4.664   5.068   5.581  0.2687 -0.2058 -0.4922
   94SAPC   H3R 9122   4.774   5.073   5.594  0.1292  1.9295  0.2446
   94SAPC   H3S 9123   4.639   5.163   5.529  2.4024  0.6152 -0.1046
   94SAPC   C24 9124   4.630   4.937   5.509  0.0916 -0.5980  0.4796
   94SAPC   H4R 9125   4.632   4.851   5.579 -1.1735 -0.9507  0.1189
   94SAPC   H4S 9126   4.704   4.924   5.428  1.9808  3.6402  1.2537
   94SAPC   C25 9127   4.488   4.954   5.457 -0.7008  0.0425 -0.2667
   94SAPC   H5R 9128   4.415   4.935   5.537 -0.6002 -0.1672 -0.2242
   94SAPC   C26 9129   4.459   4.958   5.324 -0.4757  0.5956  0.0971
   94SAPC   H6R 9130   4.358   4.945   5.283 -0.4863 -0.0770  0.3295
   94SAPC   C27 9131   4.568   4.981   5.224 -0.1106 -0.7132 -0.1127
   94SAPC   H7R 9132   4.528   4.944   5.127 -0.2155 -2.6693  0.6378
   94SAPC   H7S 9133   4.645   4.903   5.244  0.1501  0.2418  3.0149
   94SAPC   C28 9134   4.626   5.115   5.216 -0.1020 -0.7401 -0.7474
   94SAPC   H8R 9135   4.675   5.165   5.301  0.6197 -0.1102 -1.5197
   94SAPC   C29 9136   4.640   5.196   5.112 -0.3098  0.0063  0.2401
   94SAPC   H9R 9137   4.691   5.292   5.127  1.7520 -0.9578 -0.1948
   94SAPC  C210 9138   4.597   5.168   4.972 -0.6822  0.8245 -0.1063
   94SAPC  H10R 9139   4.492   5.131   4.970  0.6046 -3.3244 -1.5673
   94SAPC  H10S 9140   4.661   5.083   4.938 -2.4048  0.1387 -1.8293
   94SAPC  C211 9141   4.618   5.273   4.863  0.1179  0.1560 -0.2553
   94SAPC  H11R 9142   4.604   5.376   4.899  0.7521 -0.8490  3.2369
   94SAPC  C212 9143   4.667   5.259   4.739  1.2607 -0.0791 -0.1460
   94SAPC  H12R 9144   4.654   5.350   4.678 -2.7527 -1.3135 -1.4879
   94SAPC  C213 9145   4.697   5.132   4.663  0.6716 -0.0036 -0.4874
   94SAPC  H13R 9146   4.692   5.052   4.740 -2.2468  2.2410  1.8690
   94SAPC  H13S 9147   4.795   5.132   4.611  1.4678  0.3241  0.9749
   94SAPC  C214 9148   4.585   5.111   4.561  0.1427  0.2861  0.2298
   94SAPC  H14R 9149   4.486   5.113   4.608  1.5708  2.5029  3.5706
   94SAPC  C215 9150   4.582   5.075   4.429 -0.1844 -0.6822  0.1066
   94SAPC  H15R 9151   4.487   5.080   4.374  0.6078  3.2184 -1.2687
   94SAPC  C216 9152   4.697   5.063   4.335  0.2306  0.2880 -0.7712
   94SAPC  H16R 9153   4.778   5.005   4.384  0.0076  0.3189 -0.3589
   94SAPC  H16S 9154   4.731   5.164   4.305  1.4193 -0.6733 -2.9182
   94SAPC  C217 9155   4.659   4.973   4.210  0.1662 -0.5251 -0.3109
   94SAPC  H17R 9156   4.738   4.993   4.135  0.7796 -0.6309  0.2918
   94SAPC  H17S 9157   4.558   4.994   4.170 -0.6855 -1.1096  1.4404
   94SAPC  C218 9158   4.661   4.822   4.227 -0.2140 -0.0368 -0.7198
   94SAPC  H18R 9159   4.601   4.785   4.313 -0.9192  1.4981 -0.5204
   94SAPC  H18S 9160   4.764   4.787   4.251 -0.2709  1.4841  2.1970
   94SAPC  C219 9161   4.598   4.760   4.106 -0.5662  0.0215 -0.4686
   94SAPC  H19R 9162   4.648   4.812   4.021  1.9271  1.0487  1.4989
   94SAPC  H19S 9163   4.488   4.776   4.102 -0.6892  0.0614  1.8931
   94SAPC  C220 9164   4.635   4.608   4.112 -0.1008  0.0237  0.3816
   94SAPC  H20R 9165   4.745   4.596   4.105 -0.0902  0.4983 -0.4570
   94SAPC  H20S 9166   4.586   4.544   4.035  0.2391 -1.7612  1.5876
   94SAPC  H20T 9167   4.599   4.571   4.210 -0.1432 -4.0189 -0.9863
   94SAPC   C33 9168   5.023   5.218   5.372  0.4425 -0.1920 -0.3974
   94SAPC   H3X 9169   5.005   5.325   5.352  0.9574  0.7944  3.6007
   94SAPC   H3Y 9170   4.933   5.161   5.339  0.4165 -0.6498  0.4190
   94SAPC   C34 9171   5.152   5.169   5.299  0.7607  0.5754 -0.1999
   94SAPC   H4X 9172   5.170   5.065   5.332  0.7309  0.7852  0.4921
   94SAPC   H4Y 9173   5.243   5.221   5.335 -0.5057  0.8558  3.0070
   94SAPC   C35 9174   5.132   5.181   5.143 -0.3336  0.4256 -1.1946
   94SAPC   H5X 9175   5.043   5.122   5.110 -2.0293  1.3024  1.4663
   94SAPC   H5Y 9176   5.223   5.143   5.093 -0.1880  0.8693 -1.2720
   94SAPC   C36 9177   5.134   5.325   5.104  0.2192 -0.4776 -0.1899
   94SAPC   H6X 9178   5.239   5.363   5.103  0.1695 -0.2721 -2.1492
   94SAPC   H6Y 9179   5.075   5.393   5.168  0.3074  1.8807 -2.4256
   94SAPC   C37 9180   5.089   5.356   4.956 -0.9544  0.2320 -0.4289
   94SAPC   H7X 9181   4.978   5.350   4.955 -1.1703  2.9841 -1.0365
   94SAPC   H7Y 9182   5.132   5.286   4.882  0.1455  0.0140  0.3982
   94SAPC   C38 9183   5.134   5.500   4.921  0.2444  0.1999 -0.3303
   94SAPC   H8X 9184   5.235   5.511   4.965 -0.8046 -1.1103  2.6964
   94SAPC   H8Y 9185   5.066   5.572   4.972 -1.4228 -0.0238 -2.1102
   94SAPC   C39 9186   5.122   5.530   4.765  0.7667  0.8215 -0.2693
   94SAPC   H9X 9187   5.197   5.469   4.710  1.6485  0.2887  1.4565
   94SAPC   H9Y 9188   5.141   5.639   4.752  1.0654  0.8031  0.0055
   94SAPC  C310 9189   4.976   5.495   4.704 -0.4474 -0.5634 -0.0495
   94SAPC  H10X 9190   4.897   5.542   4.767  0.3432  0.8167 -0.0748
   94SAPC  H10Y 9191   4.966   5.384   4.710  3.8627 -1.0548  1.3462
   94SAPC  C311 9192   4.950   5.550   4.560  0.2700  0.7990 -0.1102
   94SAPC  H11X 9193   5.034   5.506   4.503  0.8490 -0.7098  1.8238
   94SAPC  H11Y 9194   4.952   5.661   4.564  0.0425  0.8443 -1.0360
   94SAPC  C312 9195   4.818   5.511   4.497 -0.1124 -0.2951 -0.0063
   94SAPC  H12X 9196   4.753   5.554   4.576  0.0518 -0.3010  0.1328
   94SAPC  H12Y 9197   4.805   5.401   4.498 -0.4914 -0.2624  1.8192
   94SAPC  C313 9198   4.816   5.577   4.362  0.3223  0.0285 -0.1687
   94SAPC  H13X 9199   4.911   5.551   4.309  1.3354 -0.6578  1.8791
   94SAPC  H13Y 9200   4.803   5.687   4.366 -0.0487 -0.0344  0.4855
   94SAPC  C314 9201   4.697   5.524   4.279 -0.3199 -0.6438 -0.7847
   94SAPC  H14X 9202   4.600   5.550   4.327 -0.1078  1.5420 -1.4583
   94SAPC  H14Y 9203   4.704   5.416   4.304 -2.3699 -0.3555  1.4162
   94SAPC  C315 9204   4.720   5.558   4.128 -0.6709 -0.3505  0.1891
   94SAPC  H15X 9205   4.823   5.521   4.110 -0.6586 -0.7166  0.9640
   94SAPC  H15Y 9206   4.715   5.667   4.104 -2.0254 -0.8316 -1.9976
   94SAPC  C316 9207   4.610   5.505   4.032 -0.7645 -0.0851 -0.1004
   94SAPC  H16X 9208   4.594   5.397   4.048 -2.3545  0.2810  1.0528
   94SAPC  H16Y 9209   4.649   5.526   3.930 -1.0272  1.2726  0.0562
   94SAPC  C317 9210   4.476   5.590   4.048  0.0664 -0.0589 -0.0362
   94SAPC  H17X 9211   4.490   5.690   4.002 -1.6412  0.3847  0.3440
   94SAPC  H17Y 9212   4.470   5.609   4.158  0.5582  1.2084 -0.2081
   94SAPC  C318 9213   4.344   5.523   3.992  0.1114  0.7103  0.2234
   94SAPC  H18X 9214   4.252   5.585   3.987  0.1319  0.6997 -0.3076
   94SAPC  H18Y 9215   4.315   5.433   4.051 -1.5415 -0.0210 -1.6057
   94SAPC  H18Z 9216   4.370   5.481   3.892  0.1641 -0.4507  0.7054
   95SAPC     N 9217   0.915   6.087   2.237  0.0588  0.3016 -0.4680
   95SAPC   C12 9218   0.839   6.009   2.131  0.2022  0.0022  0.0318
   95SAPC  H12A 9219   0.899   5.923   2.106 -0.5590 -0.1899 -1.2320
   95SAPC  H12B 9220   0.840   6.063   2.037 -0.1989 -0.9123 -0.5135
   95SAPC   C13 9221   1.060   6.109   2.195 -0.6449 -0.2315  0.5894
   95SAPC  H13A 9222   1.110   6.021   2.234  1.2040  0.1098 -0.8786
   95SAPC  H13B 9223   1.067   6.127   2.089 -0.1424 -2.7409  0.1247
   95SAPC  H13C 9224   1.098   6.199   2.242 -1.8207  0.7455 -0.2990
   95SAPC   C14 9225   0.857   6.223   2.259  0.0788  0.3812 -0.3337
   95SAPC  H14A 9226   0.751   6.212   2.276  0.1667  0.8448  0.5698
   95SAPC  H14B 9227   0.892   6.278   2.345 -0.6012  1.4147 -0.6983
   95SAPC  H14C 9228   0.861   6.291   2.176 -1.4698  1.0442  0.0944
   95SAPC   C15 9229   0.905   6.008   2.367 -0.1357 -0.0189 -0.5650
   95SAPC  H15A 9230   0.925   5.906   2.337 -0.2324 -0.3033  0.3254
   95SAPC  H15B 9231   0.972   6.040   2.445 -1.8262 -1.4812  1.6257
   95SAPC  H15C 9232   0.813   6.013   2.422  2.2358  2.6027  3.7462
   95SAPC   C11 9233   0.698   5.964   2.167 -0.8295  0.2830  0.0240
   95SAPC  H11A 9234   0.693   5.917   2.268  1.8073  0.5430  0.3480
   95SAPC  H11B 9235   0.679   5.886   2.091 -2.2004 -1.2962  1.8924
   95SAPC     P 9236   0.475   6.075   2.090  0.4348 -0.0687 -0.2356
   95SAPC   O13 9237   0.457   6.190   1.996 -0.4413  0.2128  0.0900
   95SAPC   O14 9238   0.445   5.941   2.034 -0.1224  0.5510  0.6706
   95SAPC   O12 9239   0.615   6.081   2.162 -0.1271  0.2716 -0.4487
   95SAPC   O11 9240   0.370   6.102   2.206  0.3055  0.4047  0.2032
   95SAPC    C1 9241   0.384   6.215   2.288  0.5955  0.0894 -1.0404
   95SAPC    HA 9242   0.391   6.310   2.231 -1.4315  1.8853  1.5099
   95SAPC    HB 9243   0.283   6.221   2.334  0.6857 -1.2608 -0.6124
   95SAPC    C2 9244   0.476   6.197   2.417 -0.2134  0.2339 -0.2261
   95SAPC    HS 9245   0.582   6.210   2.388  0.2340 -0.6962  0.9307
   95SAPC   O21 9246   0.442   6.069   2.479  0.2991 -0.6234 -0.3574
   95SAPC   C21 9247   0.538   5.987   2.519 -0.1890 -0.2257  0.1514
   95SAPC   O22 9248   0.656   6.012   2.513 -0.3068  0.4049  0.5480
   95SAPC   C22 9249   0.484   5.861   2.581  0.3783 -0.3336 -0.4697
   95SAPC   H2R 9250   0.473   5.775   2.511  0.7563  0.1903 -1.1821
   95SAPC   H2S 9251   0.551   5.844   2.668 -0.1832  2.1542  0.5436
   95SAPC    C3 9252   0.446   6.303   2.530 -0.5719  0.2358  1.0043
   95SAPC    HX 9253   0.339   6.278   2.545 -0.7078  0.5088  0.5221
   95SAPC    HY 9254   0.451   6.407   2.491  0.6980  0.2518  1.1651
   95SAPC   O31 9255   0.528   6.298   2.643 -0.0886 -0.4217  0.3541
   95SAPC   C31 9256   0.657   6.349   2.618  0.0773 -0.2887 -0.5772
   95SAPC   O32 9257   0.682   6.410   2.516 -0.5580  0.5558 -0.4351
   95SAPC   C32 9258   0.738   6.316   2.746 -0.4769  0.5179  0.1023
   95SAPC   H2X 9259   0.757   6.208   2.734  0.5557  0.6375  0.5432
   95SAPC   H2Y 9260   0.680   6.343   2.836  1.2073  1.5445  0.9321
   95SAPC   C23 9261   0.347   5.881   2.652 -0.9387 -0.0888  0.7828
   95SAPC   H3R 9262   0.299   5.782   2.644  0.9102 -0.9176 -1.0604
   95SAPC   H3S 9263   0.282   5.950   2.594 -2.0811 -1.7250  0.0643
   95SAPC   C24 9264   0.357   5.911   2.799  0.2022 -0.4405  0.1426
   95SAPC   H4R 9265   0.424   5.840   2.852  0.1896  0.1334  0.9391
   95SAPC   H4S 9266   0.254   5.899   2.838 -0.7669 -1.4997 -2.5500
   95SAPC   C25 9267   0.385   6.064   2.808  0.3631 -0.1291  0.4232
   95SAPC   H5R 9268   0.324   6.130   2.744 -1.1716 -1.5430  0.3615
   95SAPC   C26 9269   0.481   6.115   2.890  0.5060  0.3126  0.7565
   95SAPC   H6R 9270   0.488   6.225   2.890 -0.5589  0.5069 -3.1315
   95SAPC   C27 9271   0.576   6.030   2.975 -0.1479 -0.5683  0.3974
   95SAPC   H7R 9272   0.657   6.102   2.997  0.4908 -0.2919 -2.4986
   95SAPC   H7S 9273   0.622   5.951   2.912 -1.8301 -1.3899  0.1207
   95SAPC   C28 9274   0.517   5.969   3.098 -0.5432  0.4353  0.1266
   95SAPC   H8R 9275   0.462   5.874   3.093  4.0273 -2.5190  0.3083
   95SAPC   C29 9276   0.531   6.012   3.227  0.0815  0.5498  0.0708
   95SAPC   H9R 9277   0.500   5.936   3.299  1.4979  0.9361  1.1322
   95SAPC  C210 9278   0.597   6.130   3.273 -0.5024  0.5425 -0.2433
   95SAPC  H10R 9279   0.532   6.209   3.317  2.1048  1.9865  1.2955
   95SAPC  H10S 9280   0.642   6.186   3.188 -0.0696  0.0775 -0.3233
   95SAPC  C211 9281   0.707   6.099   3.367  0.3955  0.9849 -0.5170
   95SAPC  H11R 9282   0.805   6.072   3.326  1.8642  0.7701  2.7756
   95SAPC  C212 9283   0.694   6.103   3.502  0.1842 -0.4672  0.2721
   95SAPC  H12R 9284   0.789   6.092   3.558 -0.4366 -2.1123  1.0729
   95SAPC  C213 9285   0.570   6.144   3.580 -0.2567  0.6232  0.0416
   95SAPC  H13R 9286   0.529   6.052   3.628 -2.7477  1.1164 -1.0310
   95SAPC  H13S 9287   0.493   6.190   3.515 -0.8260  0.7334  0.7832
   95SAPC  C214 9288   0.599   6.243   3.685  0.3858 -0.5378  0.6583
   95SAPC  H14R 9289   0.686   6.309   3.669  0.4489 -0.7908 -0.0536
   95SAPC  C215 9290   0.548   6.251   3.811  0.1451 -0.3878 -0.2165
   95SAPC  H15R 9291   0.593   6.330   3.873  1.4386 -0.6666 -0.7669
   95SAPC  C216 9292   0.428   6.170   3.864  0.1672  0.3685 -0.0821
   95SAPC  H16R 9293   0.456   6.115   3.956 -0.3548  0.5183  0.1647
   95SAPC  H16S 9294   0.385   6.106   3.784 -1.4203  0.0883  0.9751
   95SAPC  C217 9295   0.313   6.263   3.909 -0.1452 -0.8294 -1.0975
   95SAPC  H17R 9296   0.281   6.328   3.824 -0.3692  1.7281  0.8226
   95SAPC  H17S 9297   0.346   6.340   3.982 -1.4763 -0.2528 -1.0749
   95SAPC  C218 9298   0.192   6.184   3.952  0.6300  0.3771  0.3818
   95SAPC  H18R 9299   0.177   6.112   3.870 -1.6733  2.4366 -1.1430
   95SAPC  H18S 9300   0.097   6.241   3.962  0.0380 -0.3554 -0.9508
   95SAPC  C219 9301   0.215   6.111   4.081 -0.0332 -0.4553  0.1033
   95SAPC  H19R 9302   0.257   6.177   4.160  1.5312  1.9120 -2.5160
   95SAPC  H19S 9303   0.294   6.034   4.072  0.1458 -0.3183  0.4614
   95SAPC  C220 9304   0.096   6.024   4.126 -0.2900 -0.6337 -0.3667
   95SAPC  H20R 9305   0.055   5.967   4.041  0.3595  0.5156 -1.4834
   95SAPC  H20S 9306   0.010   6.085   4.160 -0.8189 -0.4820 -1.9283
   95SAPC  H20T 9307   0.134   5.946   4.196 -1.0324 -0.9294 -0.2877
   95SAPC   C33 9308   0.871   6.390   2.750 -0.1661  0.3569 -0.4248
   95SAPC   H3X 9309   0.912   6.388   2.647 -0.9539 -1.3185 -0.7422
   95SAPC   H3Y 9310   0.943   6.354   2.827 -2.0051 -0.1145  1.1535
   95SAPC   C34 9311   0.854   6.535   2.786 -0.3300 -1.2211  0.1622
   95SAPC   H4X 9312   0.821   6.596   2.699 -1.3245  2.7813  3.0832
   95SAPC   H4Y 9313   0.952   6.581   2.809 -0.7823 -1.4004  2.6440
   95SAPC   C35 9314   0.746   6.577   2.893 -0.1752  0.8376  0.1289
   95SAPC   H5X 9315   0.646   6.555   2.849 -0.4493 -0.6089  1.3950
   95SAPC   H5Y 9316   0.745   6.685   2.920  1.3237  0.4270  2.0568
   95SAPC   C36 9317   0.759   6.495   3.024  0.1681  0.4354  0.7237
   95SAPC   H6X 9318   0.782   6.388   3.009 -0.1480  0.0844  2.4747
   95SAPC   H6Y 9319   0.656   6.491   3.065 -0.8478  0.6448 -1.6409
   95SAPC   C37 9320   0.871   6.540   3.114 -0.1851  0.1407  0.6819
   95SAPC   H7X 9321   0.834   6.631   3.166  1.3345  1.4740 -0.4548
   95SAPC   H7Y 9322   0.963   6.575   3.062  0.3201  0.7337  1.9326
   95SAPC   C38 9323   0.902   6.433   3.223 -0.2747 -0.0371 -0.1696
   95SAPC   H8X 9324   0.947   6.340   3.182 -0.4049 -0.3433  0.3800
   95SAPC   H8Y 9325   0.815   6.401   3.284 -0.7231 -1.6904 -1.5992
   95SAPC   C39 9326   1.014   6.489   3.324  0.4026  0.0835 -0.4230
   95SAPC   H9X 9327   1.085   6.554   3.267 -0.1680 -0.2019 -1.4815
   95SAPC   H9Y 9328   1.065   6.402   3.369 -2.1025  0.0187  2.5964
   95SAPC  C310 9329   0.951   6.572   3.434  0.6358  0.9813  0.0654
   95SAPC  H10X 9330   0.875   6.637   3.386 -1.6664 -0.5963  1.3882
   95SAPC  H10Y 9331   1.023   6.642   3.482  3.2428 -0.8574 -0.8976
   95SAPC  C311 9332   0.889   6.491   3.548 -0.3464 -0.2605 -0.3859
   95SAPC  H11X 9333   0.857   6.388   3.522 -0.4876  0.0610 -1.5287
   95SAPC  H11Y 9334   0.794   6.541   3.576  0.1095  1.7204 -2.1144
   95SAPC  C312 9335   0.988   6.489   3.668  0.7194  0.8410  0.2165
   95SAPC  H12X 9336   0.978   6.586   3.722  0.4872  1.0450 -0.1898
   95SAPC  H12Y 9337   1.087   6.478   3.620  0.1573  0.6834 -0.9402
   95SAPC  C313 9338   0.953   6.384   3.779 -0.1940  0.1129  0.8522
   95SAPC  H13X 9339   0.931   6.287   3.729  1.5954 -0.3071  0.8013
   95SAPC  H13Y 9340   0.857   6.403   3.832  0.4475 -0.6453  2.3423
   95SAPC  C314 9341   1.064   6.359   3.883  0.1461  0.0411  0.6014
   95SAPC  H14X 9342   1.021   6.289   3.958 -0.9004 -0.7067 -0.6496
   95SAPC  H14Y 9343   1.073   6.461   3.927 -3.0079  0.7890 -0.2383
   95SAPC  C315 9344   1.190   6.306   3.826 -0.6957  0.1628  0.2902
   95SAPC  H15X 9345   1.222   6.362   3.735  0.7645 -1.0677  0.0041
   95SAPC  H15Y 9346   1.188   6.200   3.794  1.2752 -0.4524  1.9916
   95SAPC  C316 9347   1.303   6.311   3.926 -0.0914 -0.3378 -0.3466
   95SAPC  H16X 9348   1.277   6.246   4.012  0.2813 -1.7288 -1.2525
   95SAPC  H16Y 9349   1.308   6.415   3.966 -2.2230 -1.4415  3.2361
   95SAPC  C317 9350   1.430   6.249   3.876  0.7339 -0.1664  0.0300
   95SAPC  H17X 9351   1.450   6.298   3.778 -3.7144 -1.0769 -1.5547
   95SAPC  H17Y 9352   1.402   6.153   3.827 -0.7033  2.0124 -3.8278
   95SAPC  C318 9353   1.546   6.242   3.972 -0.1085  0.9537  0.1154
   95SAPC  H18X 9354   1.561   6.348   3.998 -1.8665  1.3754 -0.4644
   95SAPC  H18Y 9355   1.634   6.205   3.915 -0.1464  0.5328  0.3234
   95SAPC  H18Z 9356   1.539   6.171   4.057  1.9099  0.6591  0.0777
   96SAPC     N 9357   6.622   3.432   1.625  0.0838  0.2569 -0.6837
   96SAPC   C12 9358   6.535   3.304   1.639 -0.6711 -0.7116  0.0406
   96SAPC  H12A 9359   6.561   3.236   1.559 -0.7787 -0.3294 -0.3199
   96SAPC  H12B 9360   6.436   3.344   1.626 -0.0214  1.6335  1.5704
   96SAPC   C13 9361   6.762   3.406   1.662 -0.1155  0.0365 -0.3790
   96SAPC  H13A 9362   6.823   3.493   1.645  0.2632 -0.6113 -2.8318
   96SAPC  H13B 9363   6.766   3.375   1.765 -2.0974  1.1303  0.0768
   96SAPC  H13C 9364   6.809   3.325   1.608 -1.5628 -0.8817 -0.3038
   96SAPC   C14 9365   6.621   3.487   1.490 -0.2472 -0.3380 -0.6359
   96SAPC  H14A 9366   6.642   3.593   1.493 -0.9064 -0.1770  3.5462
   96SAPC  H14B 9367   6.697   3.441   1.429 -0.1076  1.0142 -1.5357
   96SAPC  H14C 9368   6.536   3.464   1.427 -0.0349  1.2554 -1.5758
   96SAPC   C15 9369   6.566   3.544   1.708  0.3350  0.9269  0.2366
   96SAPC  H15A 9370   6.625   3.634   1.710  1.0495  0.4538  1.3883
   96SAPC  H15B 9371   6.466   3.571   1.677 -0.8608 -1.5987  1.6056
   96SAPC  H15C 9372   6.559   3.504   1.808 -0.4487  0.2739 -0.0637
   96SAPC   C11 9373   6.541   3.219   1.768  0.8335 -0.0936  0.1517
   96SAPC  H11A 9374   6.641   3.191   1.807  0.7834  1.1461  1.2496
   96SAPC  H11B 9375   6.488   3.125   1.742  1.9089 -0.6193 -0.2143
   96SAPC     P 9376   6.326   3.295   1.897 -0.0235  0.0487  0.2585
   96SAPC   O13 9377   6.269   3.422   1.844  0.1062 -0.2596 -0.0871
   96SAPC   O14 9378   6.263   3.167   1.852 -0.3367  0.5853 -0.9351
   96SAPC   O12 9379   6.482   3.292   1.874 -0.5599  0.0998 -0.2017
   96SAPC   O11 9380   6.319   3.296   2.056  0.2199 -0.8225  0.0976
   96SAPC    C1 9381   6.401   3.204   2.134 -0.0376  0.1180 -0.3100
   96SAPC    HA 9382   6.388   3.104   2.086 -0.1183 -0.4570  0.8645
   96SAPC    HB 9383   6.507   3.235   2.142 -0.5549  1.6738  0.8955
   96SAPC    C2 9384   6.343   3.192   2.271  0.4327  0.2444  0.3409
   96SAPC    HS 9385   6.425   3.149   2.332 -0.0668 -0.8211  0.2874
   96SAPC   O21 9386   6.222   3.114   2.269 -0.2479 -0.1011 -0.2435
   96SAPC   C21 9387   6.208   3.048   2.388  0.4811  0.0406  0.0276
   96SAPC   O22 9388   6.297   3.021   2.466  0.5482  0.0060 -0.0352
   96SAPC   C22 9389   6.062   3.010   2.409  0.0945 -0.0092 -0.0707
   96SAPC   H2R 9390   6.002   3.104   2.417  1.4800  1.0912 -1.8014
   96SAPC   H2S 9391   6.029   2.962   2.314  0.4156 -0.9386  0.2834
   96SAPC    C3 9392   6.305   3.344   2.316  0.3581  0.5561 -1.1292
   96SAPC    HX 9393   6.202   3.361   2.278 -0.6187 -1.3373  0.4732
   96SAPC    HY 9394   6.384   3.407   2.270  1.4038  0.3492  0.3107
   96SAPC   O31 9395   6.307   3.371   2.458  0.2254 -0.0868  0.3023
   96SAPC   C31 9396   6.422   3.392   2.519 -0.3553 -0.2620 -0.5498
   96SAPC   O32 9397   6.530   3.366   2.472 -0.0311  0.3306 -0.0314
   96SAPC   C32 9398   6.389   3.446   2.663  0.9667  0.0252  0.6983
   96SAPC   H2X 9399   6.321   3.374   2.712 -1.0217  1.0105 -0.5019
   96SAPC   H2Y 9400   6.337   3.543   2.646  1.8242  0.1467 -1.5498
   96SAPC   C23 9401   6.044   2.911   2.524  0.5169  0.2315 -1.5872
   96SAPC   H3R 9402   6.088   2.953   2.617 -1.8748  0.7246 -0.5905
   96SAPC   H3S 9403   6.102   2.818   2.504  1.5160 -0.0078  1.7790
   96SAPC   C24 9404   5.896   2.879   2.560 -0.2007  0.2943  0.3120
   96SAPC   H4R 9405   5.893   2.783   2.615  2.3974 -0.3699 -0.5112
   96SAPC   H4S 9406   5.846   2.848   2.466 -1.2818 -0.3647  1.0870
   96SAPC   C25 9407   5.834   2.996   2.631 -0.4417  0.4772 -0.2586
   96SAPC   H5R 9408   5.804   3.076   2.561 -0.7603  1.0567  0.5181
   96SAPC   C26 9409   5.825   3.014   2.762  0.2591  0.0933 -0.5688
   96SAPC   H6R 9410   5.798   3.107   2.814  0.7890  0.0150 -0.1457
   96SAPC   C27 9411   5.872   2.924   2.873 -0.2048  0.1287  0.8231
   96SAPC   H7R 9412   5.908   2.825   2.838  3.0615  1.4326  0.0456
   96SAPC   H7S 9413   5.788   2.892   2.938  0.2917  0.7745  1.8105
   96SAPC   C28 9414   5.992   2.975   2.951 -0.6832  1.2192 -0.4717
   96SAPC   H8R 9415   6.064   3.026   2.885 -1.2842  3.7242  0.6852
   96SAPC   C29 9416   6.022   2.963   3.085  0.0999  0.0027 -0.2435
   96SAPC   H9R 9417   6.124   2.977   3.122  0.4595  1.0637 -1.5731
   96SAPC  C210 9418   5.930   2.877   3.179 -0.5032  0.4812 -0.3016
   96SAPC  H10R 9419   5.999   2.835   3.255 -0.7524  0.7555  0.0780
   96SAPC  H10S 9420   5.881   2.798   3.118 -1.7704  0.3799  0.7975
   96SAPC  C211 9421   5.818   2.960   3.254  0.1153 -0.2853  0.4051
   96SAPC  H11R 9422   5.716   2.937   3.219 -0.1895  0.3486  0.8660
   96SAPC  C212 9423   5.832   3.035   3.366 -0.2988 -0.3355  0.1899
   96SAPC  H12R 9424   5.742   3.075   3.414  0.7680  0.5611  1.5198
   96SAPC  C213 9425   5.953   3.065   3.442 -0.0717  0.2122 -0.1295
   96SAPC  H13R 9426   5.937   3.155   3.505 -1.0037  0.5893 -0.8812
   96SAPC  H13S 9427   6.031   3.085   3.365 -1.6166  0.8174 -1.5969
   96SAPC  C214 9428   6.006   2.952   3.528 -0.3756  0.2231  0.3488
   96SAPC  H14R 9429   6.096   2.902   3.489 -0.6488 -0.5708  0.7187
   96SAPC  C215 9430   5.956   2.903   3.645 -0.0462 -0.0349  0.2525
   96SAPC  H15R 9431   6.008   2.823   3.698  0.6912  1.6649  2.1929
   96SAPC  C216 9432   5.831   2.950   3.713 -0.2063  0.0155  0.1874
   96SAPC  H16R 9433   5.756   2.869   3.707  2.3916 -2.4456 -1.4911
   96SAPC  H16S 9434   5.779   3.036   3.666  0.0944  0.0820 -0.0211
   96SAPC  C217 9435   5.864   3.002   3.853  0.2164  0.2766  0.0800
   96SAPC  H17R 9436   5.930   2.936   3.914 -0.4030 -1.0421 -0.6256
   96SAPC  H17S 9437   5.774   3.013   3.917 -1.2839 -1.4278 -1.6032
   96SAPC  C218 9438   5.923   3.146   3.846 -0.3548  0.0380 -0.2529
   96SAPC  H18R 9439   5.842   3.214   3.813  0.1609 -0.8683 -3.8204
   96SAPC  H18S 9440   6.001   3.138   3.768 -0.4332  0.0001 -0.3280
   96SAPC  C219 9441   5.984   3.191   3.977  0.3470  0.2169  0.0516
   96SAPC  H19R 9442   6.068   3.259   3.952  0.4702  0.4565  1.0723
   96SAPC  H19S 9443   6.031   3.112   4.039 -1.7194 -0.7804  0.4597
   96SAPC  C220 9444   5.893   3.266   4.070  0.1067  0.0397  0.4198
   96SAPC  H20R 9445   5.953   3.324   4.144 -2.1461 -0.9117  3.1781
   96SAPC  H20S 9446   5.851   3.197   4.145  0.9994  0.0268  0.9239
   96SAPC  H20T 9447   5.804   3.311   4.022 -0.8986 -2.6970 -0.4167
   96SAPC   C33 9448   6.518   3.464   2.744 -0.4197  0.0445  0.5872
   96SAPC   H3X 9449   6.567   3.552   2.697 -0.0537  1.4314  3.3968
   96SAPC   H3Y 9450   6.584   3.375   2.733  0.8576  0.6428  2.7823
   96SAPC   C34 9451   6.493   3.499   2.891 -0.2604 -0.6684 -0.9458
   96SAPC   H4X 9452   6.435   3.423   2.948  1.7853 -2.5769 -1.2772
   96SAPC   H4Y 9453   6.438   3.595   2.885 -0.0190 -0.4830 -0.2306
   96SAPC   C35 9454   6.632   3.506   2.958 -0.1970 -0.4535 -0.0352
   96SAPC   H5X 9455   6.711   3.561   2.901  0.6691 -1.7848 -0.1524
   96SAPC   H5Y 9456   6.661   3.399   2.955 -0.7990 -0.6080 -2.3899
   96SAPC   C36 9457   6.627   3.565   3.105  0.4790 -0.7322 -0.0862
   96SAPC   H6X 9458   6.546   3.520   3.166  0.5572 -0.2271  0.4051
   96SAPC   H6Y 9459   6.600   3.673   3.107  3.0973 -0.0022  2.3069
   96SAPC   C37 9460   6.759   3.541   3.174 -0.3695  0.8712  0.7392
   96SAPC   H7X 9461   6.846   3.591   3.126 -0.0414 -1.7983 -1.8044
   96SAPC   H7Y 9462   6.769   3.430   3.166 -2.8122  0.5915  0.9682
   96SAPC   C38 9463   6.756   3.567   3.324  0.0182 -0.5231  0.1041
   96SAPC   H8X 9464   6.666   3.516   3.364  0.2640 -0.9037  0.1851
   96SAPC   H8Y 9465   6.754   3.674   3.355  0.7562 -0.5609  0.3162
   96SAPC   C39 9466   6.874   3.496   3.389 -0.5326 -0.0562 -0.9646
   96SAPC   H9X 9467   6.969   3.542   3.352 -2.2494  1.3138 -4.0437
   96SAPC   H9Y 9468   6.869   3.392   3.351 -2.8925  0.1869 -1.4514
   96SAPC  C310 9469   6.863   3.477   3.540  0.0216  0.0445  0.4152
   96SAPC  H10X 9470   6.930   3.411   3.599 -1.0210  0.0412  1.6431
   96SAPC  H10Y 9471   6.760   3.437   3.552  0.4739 -1.2668  0.0824
   96SAPC  C311 9472   6.874   3.613   3.617 -0.8052  0.0808  0.0142
   96SAPC  H11X 9473   6.808   3.685   3.564  0.6928 -0.9055 -3.4732
   96SAPC  H11Y 9474   6.982   3.635   3.602 -0.7604 -0.4011 -0.4208
   96SAPC  C312 9475   6.838   3.600   3.769 -0.1111  0.1052  0.6808
   96SAPC  H12X 9476   6.808   3.703   3.799  1.4033  0.1610  2.1469
   96SAPC  H12Y 9477   6.939   3.577   3.809 -0.5012 -0.9037  1.1136
   96SAPC  C313 9478   6.730   3.494   3.798  0.0893  0.0396 -0.3217
   96SAPC  H13X 9479   6.754   3.388   3.774 -2.8705 -0.6186 -0.7934
   96SAPC  H13Y 9480   6.643   3.518   3.734 -0.1169 -0.1805 -0.1251
   96SAPC  C314 9481   6.674   3.514   3.944  0.5591 -0.2322 -0.4466
   96SAPC  H14X 9482   6.606   3.601   3.937 -0.4109 -0.8998  0.4180
   96SAPC  H14Y 9483   6.750   3.548   4.017 -0.6214  2.3639 -0.3242
   96SAPC  C315 9484   6.594   3.390   3.990  0.1497  0.4474 -0.3535
   96SAPC  H15X 9485   6.664   3.306   4.004 -1.9824 -1.0982  1.9764
   96SAPC  H15Y 9486   6.530   3.375   3.900 -0.8570  1.0820  0.2332
   96SAPC  C316 9487   6.516   3.413   4.120 -0.4535  1.0103 -0.0056
   96SAPC  H16X 9488   6.437   3.490   4.107 -1.0881  0.2893 -0.4859
   96SAPC  H16Y 9489   6.585   3.442   4.203 -2.1327  1.1301  1.4208
   96SAPC  C317 9490   6.439   3.288   4.172 -0.2755 -0.1814 -0.8391
   96SAPC  H17X 9491   6.412   3.302   4.279 -1.8836  1.9526 -1.4509
   96SAPC  H17Y 9492   6.516   3.208   4.177  0.1569  0.1162 -2.3081
   96SAPC  C318 9493   6.331   3.233   4.080  0.3962  1.2136 -0.5785
   96SAPC  H18X 9494   6.239   3.294   4.094  0.1972  0.8668 -0.3567
   96SAPC  H18Y 9495   6.317   3.124   4.099 -2.4457  1.7370  1.0339
   96SAPC  H18Z 9496   6.374   3.225   3.978  2.6077  1.4076  0.2931
   97SAPC     N 9497   6.271   1.993   1.965 -0.5660 -0.0372 -0.1989
   97SAPC   C12 9498   6.143   2.061   2.013 -0.0083 -0.4372 -0.2957
   97SAPC  H12A 9499   6.056   2.018   1.966 -0.3127 -0.7788  0.5753
   97SAPC  H12B 9500   6.135   2.164   1.979 -1.6626 -1.4646 -3.3965
   97SAPC   C13 9501   6.257   1.846   1.987  0.3079  0.1709  0.0190
   97SAPC  H13A 9502   6.167   1.810   1.940  1.5918  0.6724 -3.0217
   97SAPC  H13B 9503   6.342   1.790   1.952 -0.4877  0.1213 -1.9777
   97SAPC  H13C 9504   6.246   1.826   2.093 -0.6101  1.2580  0.1585
   97SAPC   C14 9505   6.304   2.023   1.827 -0.3392  0.1208 -0.1378
   97SAPC  H14A 9506   6.358   2.116   1.828 -1.1786  0.6253  1.0985
   97SAPC  H14B 9507   6.375   1.956   1.781  0.5046 -1.0551  2.6676
   97SAPC  H14C 9508   6.214   2.028   1.767 -0.3829 -1.8187 -0.3102
   97SAPC   C15 9509   6.378   2.036   2.059  0.3707 -0.3662 -0.0132
   97SAPC  H15A 9510   6.476   2.022   2.016 -0.0042 -0.9721 -0.6925
   97SAPC  H15B 9511   6.375   2.143   2.077  1.9812 -0.2302 -0.3932
   97SAPC  H15C 9512   6.369   1.976   2.148 -0.7916  0.7019  0.6443
   97SAPC   C11 9513   6.095   2.049   2.167 -0.4862 -0.3832  0.9926
   97SAPC  H11A 9514   6.004   2.109   2.187 -0.8033  0.0958 -1.5841
   97SAPC  H11B 9515   6.187   2.076   2.224  1.3902 -1.2257 -1.4692
   97SAPC     P 9516   5.916   1.861   2.165 -0.3353  0.2369 -0.0109
   97SAPC   O13 9517   5.866   1.910   2.035  0.5641 -0.5104 -0.5807
   97SAPC   O14 9518   5.926   1.720   2.173 -0.6002 -0.0327 -0.5399
   97SAPC   O12 9519   6.056   1.920   2.203  0.6466  0.7603  0.5892
   97SAPC   O11 9520   5.822   1.898   2.277 -0.0137 -0.5854 -0.1306
   97SAPC    C1 9521   5.854   1.891   2.421 -0.1216 -0.6769  0.5701
   97SAPC    HA 9522   5.862   1.785   2.452 -0.3658 -2.4124 -4.3792
   97SAPC    HB 9523   5.951   1.941   2.439 -0.0367 -0.7396  0.2968
   97SAPC    C2 9524   5.751   1.961   2.511  0.2366  0.2414  0.0033
   97SAPC    HS 9525   5.768   2.070   2.496  0.8765  0.3701  1.5060
   97SAPC   O21 9526   5.792   1.929   2.650  0.2831 -0.3988  0.3832
   97SAPC   C21 9527   5.879   2.005   2.708  0.3824 -0.0948  0.2230
   97SAPC   O22 9528   5.938   2.104   2.662  0.5897  0.0772  0.0132
   97SAPC   C22 9529   5.906   1.948   2.842  0.4049  0.2585  0.2872
   97SAPC   H2R 9530   5.817   1.904   2.891 -0.8430 -0.0867 -2.1401
   97SAPC   H2S 9531   5.980   1.867   2.822  0.3238  0.1962  0.2370
   97SAPC    C3 9532   5.600   1.920   2.482  0.4793 -0.5719 -0.4315
   97SAPC    HX 9533   5.596   1.811   2.501  0.5244 -0.3525  0.9232
   97SAPC    HY 9534   5.569   1.959   2.383 -0.3362  0.5933  0.2565
   97SAPC   O31 9535   5.511   2.001   2.566 -0.0464 -0.3758 -0.3599
   97SAPC   C31 9536   5.383   1.981   2.528 -0.4020  0.2138 -0.0018
   97SAPC   O32 9537   5.345   1.906   2.442 -0.4217  0.6599  0.4015
   97SAPC   C32 9538   5.283   2.070   2.591 -0.4581 -0.2551  0.3860
   97SAPC   H2X 9539   5.248   2.118   2.497  0.3284 -1.5695 -0.6075
   97SAPC   H2Y 9540   5.332   2.148   2.652 -1.4783  0.8330 -0.1494
   97SAPC   C23 9541   5.972   2.054   2.927 -0.7019 -0.2189  0.1532
   97SAPC   H3R 9542   5.913   2.146   2.945 -0.0877  0.7073 -2.2039
   97SAPC   H3S 9543   6.069   2.085   2.882 -0.9201  0.3640  0.0771
   97SAPC   C24 9544   6.013   1.997   3.064 -0.2823 -0.1224  1.1331
   97SAPC   H4R 9545   6.068   2.082   3.108 -0.5638  1.2840 -1.0554
   97SAPC   H4S 9546   6.095   1.926   3.043  0.4547  1.4672 -2.0635
   97SAPC   C25 9547   5.906   1.938   3.156  0.3817 -0.2939  0.4335
   97SAPC   H5R 9548   5.840   1.859   3.118 -0.3091  0.8479 -0.8245
   97SAPC   C26 9549   5.897   1.975   3.287 -0.2497 -0.2898 -0.8098
   97SAPC   H6R 9550   5.807   1.934   3.336 -0.3455  0.9392  0.0576
   97SAPC   C27 9551   5.981   2.071   3.368 -0.1894  0.0946 -0.6094
   97SAPC   H7R 9552   6.052   2.135   3.311  0.7063 -1.2559 -1.0563
   97SAPC   H7S 9553   6.054   2.021   3.435  0.4440  1.3147 -0.3555
   97SAPC   C28 9554   5.890   2.168   3.436 -0.0793  0.3501 -0.1694
   97SAPC   H8R 9555   5.874   2.265   3.388  1.2848  2.3675  3.1124
   97SAPC   C29 9556   5.846   2.160   3.568 -0.0366 -0.1509  0.1395
   97SAPC   H9R 9557   5.777   2.237   3.604  0.2658  0.9167 -1.4520
   97SAPC  C210 9558   5.889   2.048   3.655 -0.4169  0.5700  0.2246
   97SAPC  H10R 9559   5.926   1.965   3.592 -1.8594  0.1654 -0.1285
   97SAPC  H10S 9560   5.816   1.993   3.718  0.7864  1.4611  2.5466
   97SAPC  C211 9561   5.998   2.100   3.746 -0.3135  0.0588 -0.8586
   97SAPC  H11R 9562   6.021   2.207   3.744 -2.5426  0.5657 -1.9279
   97SAPC  C212 9563   6.081   2.022   3.818 -0.1742 -1.0663  0.1084
   97SAPC  H12R 9564   6.160   2.074   3.875 -2.2247  0.7734  1.4791
   97SAPC  C213 9565   6.065   1.871   3.828 -0.7752  0.3050 -0.6679
   97SAPC  H13R 9566   6.059   1.836   3.722 -3.9896  0.1477 -0.5442
   97SAPC  H13S 9567   5.973   1.852   3.887 -0.5235  1.0520 -0.0174
   97SAPC  C214 9568   6.193   1.813   3.887  0.6484  0.3575  0.1524
   97SAPC  H14R 9569   6.289   1.826   3.834  1.6265 -2.6172  0.9731
   97SAPC  C215 9570   6.208   1.756   4.006  0.1947 -0.3939 -0.6172
   97SAPC  H15R 9571   6.305   1.718   4.042  0.9142  1.6395 -0.2703
   97SAPC  C216 9572   6.111   1.741   4.111 -0.5476  0.0299  0.1985
   97SAPC  H16R 9573   6.101   1.635   4.142  2.6021 -0.5810 -0.5490
   97SAPC  H16S 9574   6.010   1.772   4.076 -0.9068 -3.3589 -2.2941
   97SAPC  C217 9575   6.152   1.817   4.231 -0.0736  0.2636  0.5892
   97SAPC  H17R 9576   6.252   1.795   4.274  0.1021  1.7618  1.0157
   97SAPC  H17S 9577   6.079   1.786   4.309 -0.0559 -2.9426 -0.5357
   97SAPC  C218 9578   6.132   1.972   4.224 -0.4281  0.1840 -0.3626
   97SAPC  H18R 9579   6.187   2.026   4.145  1.6991 -0.8508  0.3302
   97SAPC  H18S 9580   6.171   2.018   4.318 -0.2148  0.4640 -0.5873
   97SAPC  C219 9581   5.982   2.015   4.227 -0.3472  0.9453 -0.0882
   97SAPC  H19R 9582   5.930   1.958   4.307  1.5543  1.5129  1.6395
   97SAPC  H19S 9583   5.928   1.970   4.140  0.9166 -1.2894  0.1852
   97SAPC  C220 9584   5.959   2.165   4.256 -0.6911 -0.2104  0.3006
   97SAPC  H20R 9585   5.977   2.182   4.364  3.1452 -0.8548 -0.0811
   97SAPC  H20S 9586   5.853   2.196   4.245 -1.0445 -0.7995  1.7450
   97SAPC  H20T 9587   6.020   2.225   4.185  0.4768  0.8126  2.0919
   97SAPC   C33 9588   5.182   1.998   2.674  0.4320  0.6810 -0.3974
   97SAPC   H3X 9589   5.219   1.915   2.738  1.5177  0.8884 -0.7315
   97SAPC   H3Y 9590   5.092   1.978   2.612  1.4017  2.6102 -2.6013
   97SAPC   C34 9591   5.135   2.096   2.779  0.0764 -1.1047 -0.0176
   97SAPC   H4X 9592   5.086   2.188   2.739  0.0618 -1.4846 -0.8770
   97SAPC   H4Y 9593   5.227   2.124   2.834  0.6452 -0.4191 -1.2835
   97SAPC   C35 9594   5.032   2.047   2.881 -0.4800  0.5758  0.3303
   97SAPC   H5X 9595   5.058   1.947   2.924 -0.6392 -0.5904 -2.0882
   97SAPC   H5Y 9596   4.936   2.027   2.829  0.0301 -2.6473  0.4265
   97SAPC   C36 9597   5.022   2.138   2.999  0.7432 -0.3059  0.1628
   97SAPC   H6X 9598   5.008   2.242   2.963 -0.4385 -0.1794  0.9287
   97SAPC   H6Y 9599   5.117   2.152   3.055  0.7198 -0.3296  0.2092
   97SAPC   C37 9600   4.914   2.092   3.094  0.2780  0.4505  0.4808
   97SAPC   H7X 9601   4.941   1.989   3.125  1.4079  0.2700 -0.9685
   97SAPC   H7Y 9602   4.811   2.088   3.051  1.0367  1.1918 -1.5063
   97SAPC   C38 9603   4.908   2.171   3.225 -0.0453  0.0780 -0.1241
   97SAPC   H8X 9604   4.905   2.276   3.189  0.3269 -0.5370 -2.0492
   97SAPC   H8Y 9605   4.994   2.170   3.295  1.3204  4.1646 -1.4199
   97SAPC   C39 9606   4.786   2.147   3.316  0.6811  0.0375  0.6350
   97SAPC   H9X 9607   4.788   2.043   3.355  2.6558  0.0596  0.6947
   97SAPC   H9Y 9608   4.689   2.173   3.267  0.4415 -0.9215  0.5682
   97SAPC  C310 9609   4.807   2.240   3.438  0.4882 -0.4375 -0.0910
   97SAPC  H10X 9610   4.808   2.342   3.396 -1.6040 -0.9683 -1.5682
   97SAPC  H10Y 9611   4.900   2.229   3.498  0.5286  3.6975  0.8597
   97SAPC  C311 9612   4.704   2.214   3.550  0.4264 -0.9156  0.5060
   97SAPC  H11X 9613   4.602   2.211   3.508  0.6045 -1.3932  0.0845
   97SAPC  H11Y 9614   4.719   2.284   3.635  0.3446  1.2622 -1.2112
   97SAPC  C312 9615   4.719   2.077   3.622  0.3913 -0.7231  0.0695
   97SAPC  H12X 9616   4.826   2.058   3.647  0.2778 -1.2753  0.1425
   97SAPC  H12Y 9617   4.672   2.001   3.557 -2.0530 -0.8701  1.8586
   97SAPC  C313 9618   4.649   2.083   3.759  0.1152  0.3365 -0.2313
   97SAPC  H13X 9619   4.650   2.177   3.817 -0.3796  0.6568 -0.7325
   97SAPC  H13Y 9620   4.710   2.023   3.830 -0.6691 -0.2610 -0.0425
   97SAPC  C314 9621   4.509   2.022   3.763  0.9770  0.7776  0.9095
   97SAPC  H14X 9622   4.498   1.930   3.702 -1.7081  0.7526  1.2981
   97SAPC  H14Y 9623   4.451   2.099   3.707  1.3445 -0.0457 -0.6518
   97SAPC  C315 9624   4.443   2.012   3.905  0.6549 -0.0185  0.3232
   97SAPC  H15X 9625   4.496   1.938   3.968 -0.5296 -1.7634 -0.6437
   97SAPC  H15Y 9626   4.344   1.965   3.889  0.5311  0.7561 -1.4420
   97SAPC  C316 9627   4.426   2.146   3.981  0.2582 -0.1966  0.0571
   97SAPC  H16X 9628   4.349   2.200   3.922  0.6812  0.1493 -0.1893
   97SAPC  H16Y 9629   4.522   2.204   3.977 -0.0593  0.4964  1.5557
   97SAPC  C317 9630   4.398   2.138   4.134 -0.1909  0.4039 -0.2185
   97SAPC  H17X 9631   4.364   2.237   4.170 -0.0391  1.0553 -1.7873
   97SAPC  H17Y 9632   4.493   2.135   4.192 -0.4391  0.4218  0.1932
   97SAPC  C318 9633   4.318   2.023   4.188  0.0145  0.0871 -0.4277
   97SAPC  H18X 9634   4.228   2.018   4.124 -0.8971  2.7835  0.5262
   97SAPC  H18Y 9635   4.280   2.039   4.291 -3.3266 -1.0852 -1.3452
   97SAPC  H18Z 9636   4.370   1.924   4.192 -0.9366 -0.4056  0.1975
   98SAPC     N 9637   2.097   0.108   2.109  0.7117  0.1006 -0.5146
   98SAPC   C12 9638   2.228   0.201   2.112  0.3903  0.2605  0.0668
   98SAPC  H12A 9639   2.314   0.176   2.050  0.7366  3.0154 -0.6826
   98SAPC  H12B 9640   2.268   0.191   2.212  0.9074 -0.3037 -0.1836
   98SAPC   C13 9641   2.123  -0.031   2.143  0.9342 -0.7407 -0.4027
   98SAPC  H13A 9642   2.150  -0.091   2.058 -2.4432 -2.1867 -0.5933
   98SAPC  H13B 9643   2.194  -0.038   2.224  0.9787 -2.2399 -0.5450
   98SAPC  H13C 9644   2.027  -0.068   2.175  0.5429  1.1022  0.7232
   98SAPC   C14 9645   2.002   0.160   2.209  0.4351  0.0348  0.1062
   98SAPC  H14A 9646   1.965   0.259   2.184 -0.7848 -0.6595 -0.9563
   98SAPC  H14B 9647   1.917   0.094   2.211 -0.5660  1.1600 -1.8128
   98SAPC  H14C 9648   2.043   0.159   2.309  1.0176 -0.1099 -0.1330
   98SAPC   C15 9649   2.061   0.103   1.962  0.4651  0.2372  0.4468
   98SAPC  H15A 9650   2.144   0.077   1.899 -0.5019 -2.4893  0.1912
   98SAPC  H15B 9651   1.989   0.024   1.950  1.1039 -0.9240  3.3753
   98SAPC  H15C 9652   2.003   0.190   1.933 -1.2059 -0.4518  1.5555
   98SAPC   C11 9653   2.195   0.346   2.081  0.6560 -0.8863 -0.1537
   98SAPC  H11A 9654   2.127   0.387   2.159  3.3151  2.5071  0.6219
   98SAPC  H11B 9655   2.138   0.351   1.986 -1.7048 -2.2301  1.0752
   98SAPC     P 9656   2.418   0.424   2.189  0.0700 -0.0208  0.1478
   98SAPC   O13 9657   2.490   0.292   2.184  0.3844  0.2367  0.3242
   98SAPC   O14 9658   2.492   0.552   2.184 -0.3237 -0.2821 -0.2054
   98SAPC   O12 9659   2.306   0.426   2.077  0.7949 -0.4669 -0.0956
   98SAPC   O11 9660   2.323   0.409   2.313  0.2560  0.6511 -0.2846
   98SAPC    C1 9661   2.269   0.536   2.363  0.3780  0.4374 -0.4435
   98SAPC    HA 9662   2.240   0.614   2.290 -0.4483  0.8466  0.3059
   98SAPC    HB 9663   2.169   0.508   2.402  0.1407  1.1607 -0.5229
   98SAPC    C2 9664   2.363   0.595   2.473 -0.4799 -0.1328 -0.8632
   98SAPC    HS 9665   2.437   0.662   2.426  0.2430 -0.4486 -0.1876
   98SAPC   O21 9666   2.425   0.479   2.541 -0.0057 -0.2028 -0.0009
   98SAPC   C21 9667   2.553   0.475   2.531  0.0465  0.2394  0.1044
   98SAPC   O22 9668   2.629   0.564   2.501  0.6665  0.5719  0.9798
   98SAPC   C22 9669   2.597   0.341   2.594 -0.4577  0.2087  0.6134
   98SAPC   H2R 9670   2.626   0.358   2.700  1.9936 -0.2853  0.0785
   98SAPC   H2S 9671   2.517   0.265   2.589 -1.0270  0.5378  3.0298
   98SAPC    C3 9672   2.279   0.682   2.567 -0.1996 -0.2062 -0.0223
   98SAPC    HX 9673   2.199   0.618   2.609 -0.1348 -0.1548  0.1809
   98SAPC    HY 9674   2.247   0.774   2.513  0.6178  0.6718  0.9379
   98SAPC   O31 9675   2.366   0.721   2.676 -0.9530  0.3392  0.5424
   98SAPC   C31 9676   2.311   0.813   2.767 -0.3751  0.1322  0.2715
   98SAPC   O32 9677   2.204   0.861   2.749 -0.0469 -0.4297  0.0045
   98SAPC   C32 9678   2.404   0.829   2.889  1.2483 -0.0112 -0.7675
   98SAPC   H2X 9679   2.508   0.814   2.851  1.3293 -1.7635  0.0543
   98SAPC   H2Y 9680   2.365   0.754   2.961  0.6850 -0.5881 -1.6545
   98SAPC   C23 9681   2.723   0.290   2.514  0.0735  0.7016 -0.0932
   98SAPC   H3R 9682   2.790   0.377   2.499  1.0152  0.3396  1.6746
   98SAPC   H3S 9683   2.692   0.254   2.414  0.5857  1.8992 -0.7040
   98SAPC   C24 9684   2.813   0.185   2.581 -0.2861  0.3906 -0.4457
   98SAPC   H4R 9685   2.820   0.215   2.687  0.9864 -0.5874 -0.2264
   98SAPC   H4S 9686   2.917   0.200   2.545 -0.1883 -0.3404 -0.5018
   98SAPC   C25 9687   2.767   0.039   2.560 -0.6358 -0.9325  0.3081
   98SAPC   H5R 9688   2.815  -0.021   2.483 -0.9110 -1.4515  0.5364
   98SAPC   C26 9689   2.697  -0.042   2.641  0.4665 -0.3407 -0.0661
   98SAPC   H6R 9690   2.678  -0.147   2.615  1.0027 -0.1183 -1.4114
   98SAPC   C27 9691   2.612   0.010   2.759 -0.4982  1.1439 -0.7014
   98SAPC   H7R 9692   2.505   0.014   2.730 -0.7538  0.3755  0.0888
   98SAPC   H7S 9693   2.627   0.119   2.773 -1.7419  1.7693 -3.5007
   98SAPC   C28 9694   2.621  -0.071   2.887 -0.6624 -0.5744  0.3215
   98SAPC   H8R 9695   2.699  -0.148   2.880 -0.3772 -0.2757  0.2230
   98SAPC   C29 9696   2.547  -0.060   2.997 -0.7186 -0.1362  0.4230
   98SAPC   H9R 9697   2.576  -0.128   3.078  0.5522  0.8468  0.8351
   98SAPC  C210 9698   2.440   0.042   3.034  0.4684 -0.1068  0.3414
   98SAPC  H10R 9699   2.452   0.130   2.967  4.1492 -1.9778 -1.7979
   98SAPC  H10S 9700   2.482   0.079   3.130 -0.1761  1.4722  0.0479
   98SAPC  C211 9701   2.306  -0.031   3.052 -0.1326  0.0235  0.6554
   98SAPC  H11R 9702   2.233  -0.029   2.970  0.7076  0.2614 -0.1026
   98SAPC  C212 9703   2.263  -0.096   3.162  0.3029  0.1145 -0.3381
   98SAPC  H12R 9704   2.157  -0.122   3.174  0.3863 -0.2755 -0.4338
   98SAPC  C213 9705   2.346  -0.111   3.290  0.0304  1.0359  0.3989
   98SAPC  H13R 9706   2.443  -0.155   3.258 -0.4830 -1.1787  1.6683
   98SAPC  H13S 9707   2.314  -0.198   3.351  1.3828 -0.0563 -0.3852
   98SAPC  C214 9708   2.370   0.015   3.377 -0.1333 -0.5715  0.2835
   98SAPC  H14R 9709   2.334   0.108   3.332  0.3260  0.8828  2.7444
   98SAPC  C215 9710   2.421   0.024   3.502 -0.8744  0.5478 -0.5721
   98SAPC  H15R 9711   2.437   0.119   3.556  2.0232 -1.0022  1.6278
   98SAPC  C216 9712   2.469  -0.093   3.580 -0.4853  0.3416 -0.6657
   98SAPC  H16R 9713   2.493  -0.177   3.512 -0.6583 -0.7866  0.6379
   98SAPC  H16S 9714   2.390  -0.124   3.652 -0.9616 -0.8131 -1.6498
   98SAPC  C217 9715   2.591  -0.069   3.674  0.1324 -0.7273  0.1970
   98SAPC  H17R 9716   2.555  -0.015   3.764 -0.8830 -1.1396  0.0530
   98SAPC  H17S 9717   2.670  -0.010   3.623 -0.0855  0.0333  0.7353
   98SAPC  C218 9718   2.664  -0.193   3.721 -0.6443 -0.0707  0.3989
   98SAPC  H18R 9719   2.697  -0.244   3.627 -0.0944  0.7150  0.1551
   98SAPC  H18S 9720   2.603  -0.262   3.783  1.5112 -1.4532  1.0934
   98SAPC  C219 9721   2.794  -0.169   3.802  0.4280 -0.2296 -0.2224
   98SAPC  H19R 9722   2.780  -0.113   3.898  0.2200 -1.7066  0.6424
   98SAPC  H19S 9723   2.866  -0.114   3.738  0.1351 -0.7023 -0.9686
   98SAPC  C220 9724   2.863  -0.298   3.846  0.5539 -0.2236 -0.7263
   98SAPC  H20R 9725   2.817  -0.350   3.933 -0.8924  1.6660 -0.3155
   98SAPC  H20S 9726   2.964  -0.266   3.880 -0.6141  2.1226  0.7825
   98SAPC  H20T 9727   2.887  -0.365   3.760 -1.6587 -1.0979 -0.7335
   98SAPC   C33 9728   2.377   0.969   2.952  0.1361  0.0553  0.5689
   98SAPC   H3X 9729   2.325   1.037   2.881 -0.7903 -0.3277  0.8704
   98SAPC   H3Y 9730   2.481   1.001   2.977 -0.5018  1.3440  1.6909
   98SAPC   C34 9731   2.292   0.975   3.080 -0.3624 -0.8971  0.1672
   98SAPC   H4X 9732   2.217   0.893   3.083  1.2115 -2.3670  1.8395
   98SAPC   H4Y 9733   2.242   1.073   3.097 -0.7118 -0.9601 -0.4684
   98SAPC   C35 9734   2.380   0.947   3.201 -1.2468 -0.5820 -0.3465
   98SAPC   H5X 9735   2.477   0.999   3.189 -1.8071  0.7812  0.8243
   98SAPC   H5Y 9736   2.399   0.838   3.215  1.0372 -0.4261 -1.6254
   98SAPC   C36 9737   2.327   0.999   3.330 -0.3157 -0.1953 -0.3436
   98SAPC   H6X 9738   2.232   0.945   3.350  0.3855 -0.5947  2.2570
   98SAPC   H6Y 9739   2.300   1.107   3.336 -0.2095 -0.2051  0.3447
   98SAPC   C37 9740   2.424   0.950   3.436  0.5758  0.3924  0.2970
   98SAPC   H7X 9741   2.513   1.015   3.426  0.5182  0.3699 -0.3874
   98SAPC   H7Y 9742   2.465   0.850   3.409  0.3221  0.4005 -0.1237
   98SAPC   C38 9743   2.370   0.928   3.576  1.1280 -0.0672 -0.4499
   98SAPC   H8X 9744   2.432   0.856   3.634 -0.2893 -1.2821 -0.3966
   98SAPC   H8Y 9745   2.271   0.881   3.562  1.8325 -1.9586  0.5758
   98SAPC   C39 9746   2.350   1.057   3.655  0.5867 -0.1958  0.6359
   98SAPC   H9X 9747   2.270   1.044   3.730  0.0865 -1.4291 -0.0801
   98SAPC   H9Y 9748   2.298   1.128   3.586 -2.8921 -0.7489  2.4865
   98SAPC  C310 9749   2.473   1.121   3.724  0.8811 -0.0562  0.4112
   98SAPC  H10X 9750   2.545   1.145   3.643 -2.1647 -0.3224 -2.6034
   98SAPC  H10Y 9751   2.515   1.040   3.788  2.6695  0.0814 -0.5356
   98SAPC  C311 9752   2.438   1.251   3.802 -0.9760 -0.1692  0.1974
   98SAPC  H11X 9753   2.373   1.217   3.886 -2.6217 -0.7902 -1.2631
   98SAPC  H11Y 9754   2.386   1.331   3.745  2.5953  2.1884 -0.0397
   98SAPC  C312 9755   2.565   1.324   3.850  0.0984  0.1336 -0.3061
   98SAPC  H12X 9756   2.609   1.387   3.770  4.0802  0.3519  1.7672
   98SAPC  H12Y 9757   2.644   1.254   3.884 -0.5630 -1.2574 -1.5401
   98SAPC  C313 9758   2.529   1.420   3.967  0.3184  0.3133  0.0535
   98SAPC  H13X 9759   2.623   1.440   4.023  1.0196 -0.1254 -0.9317
   98SAPC  H13Y 9760   2.458   1.371   4.036  1.9180 -1.5400  0.4531
   98SAPC  C314 9761   2.489   1.559   3.918 -0.1834  0.3389 -0.4451
   98SAPC  H14X 9762   2.396   1.554   3.858  0.1551  3.8129 -1.5380
   98SAPC  H14Y 9763   2.566   1.592   3.845  0.8740  0.0365  0.5092
   98SAPC  C315 9764   2.496   1.669   4.025  0.3368 -0.3083  0.6006
   98SAPC  H15X 9765   2.597   1.712   4.039 -0.4488  1.6063  0.6265
   98SAPC  H15Y 9766   2.455   1.645   4.125 -0.2222 -1.7907  0.0412
   98SAPC  C316 9767   2.428   1.796   3.966  0.1914  0.1426 -0.1713
   98SAPC  H16X 9768   2.432   1.878   4.040  3.7482 -0.1262  0.0805
   98SAPC  H16Y 9769   2.326   1.769   3.930 -0.0531  1.0001 -0.1443
   98SAPC  C317 9770   2.502   1.851   3.847  0.2019 -0.1882 -0.2544
   98SAPC  H17X 9771   2.510   1.780   3.762  1.9512  0.1557 -0.4102
   98SAPC  H17Y 9772   2.605   1.879   3.876 -0.0756 -0.7398  1.3940
   98SAPC  C318 9773   2.432   1.967   3.785 -0.5791  0.2623 -0.6955
   98SAPC  H18X 9774   2.493   2.027   3.714  0.9794  1.1156  1.2626
   98SAPC  H18Y 9775   2.414   2.045   3.862 -1.4443  0.2267 -0.8468
   98SAPC  H18Z 9776   2.331   1.936   3.750 -0.6941  0.4646 -0.5467
   99SAPC     N 9777   5.304   6.732   1.726 -0.4311 -0.2921 -0.1875
   99SAPC   C12 9778   5.229   6.856   1.778  0.0050  0.6005  0.1469
   99SAPC  H12A 9779   5.136   6.818   1.815  0.6151 -0.2263  0.8639
   99SAPC  H12B 9780   5.200   6.930   1.705 -2.6663 -0.5482 -0.0454
   99SAPC   C13 9781   5.224   6.656   1.627  0.1361  0.0329 -0.3632
   99SAPC  H13A 9782   5.214   6.720   1.540 -0.7914 -0.1890 -0.4269
   99SAPC  H13B 9783   5.273   6.565   1.597 -0.2943 -0.2651 -0.1742
   99SAPC  H13C 9784   5.121   6.633   1.651 -0.4522  2.7096  0.0108
   99SAPC   C14 9785   5.428   6.783   1.658  0.6258  0.8426  0.2857
   99SAPC  H14A 9786   5.496   6.700   1.644  1.1829  1.4481 -0.6864
   99SAPC  H14B 9787   5.397   6.833   1.568 -0.4426  0.4293  0.4152
   99SAPC  H14C 9788   5.476   6.853   1.725 -0.4419  1.4651  0.4203
   99SAPC   C15 9789   5.331   6.642   1.836  0.1801 -0.0307 -0.2271
   99SAPC  H15A 9790   5.402   6.679   1.909  0.6349 -2.8487  0.8995
   99SAPC  H15B 9791   5.239   6.628   1.892 -0.8742 -0.6939 -2.0519
   99SAPC  H15C 9792   5.366   6.546   1.801  0.6891 -0.7320  2.0149
   99SAPC   C11 9793   5.293   6.942   1.893  0.1363 -1.2030 -1.1747
   99SAPC  H11A 9794   5.280   6.908   1.998 -0.2257  1.3863 -0.3150
   99SAPC  H11B 9795   5.235   7.036   1.883  0.3608 -0.7529  1.0812
   99SAPC     P 9796   5.500   7.070   1.980  0.1432 -0.2450  0.2142
   99SAPC   O13 9797   5.614   7.132   1.917 -0.1213 -0.4163 -0.0277
   99SAPC   O14 9798   5.397   7.159   2.047 -1.0429  0.2532  0.2383
   99SAPC   O12 9799   5.433   6.974   1.869  0.2737 -0.8930 -0.1349
   99SAPC   O11 9800   5.545   6.965   2.094  0.1970  0.0572 -0.4384
   99SAPC    C1 9801   5.664   6.888   2.086  0.8026 -0.6923  0.1581
   99SAPC    HA 9802   5.693   6.867   1.981  1.2899 -0.8103  0.3125
   99SAPC    HB 9803   5.752   6.941   2.128  0.3948  0.0269  0.1074
   99SAPC    C2 9804   5.647   6.754   2.159  0.0787  0.3738 -0.1258
   99SAPC    HS 9805   5.558   6.716   2.105  0.2564  1.6331 -1.3846
   99SAPC   O21 9806   5.644   6.780   2.298 -0.2574  0.1928 -0.4021
   99SAPC   C21 9807   5.588   6.693   2.371 -0.5732  0.2087 -0.0109
   99SAPC   O22 9808   5.508   6.609   2.330 -0.2420  0.3484  0.1616
   99SAPC   C22 9809   5.633   6.728   2.521 -0.5983  0.0588  0.2615
   99SAPC   H2R 9810   5.742   6.747   2.517 -0.8118  1.5899  0.9991
   99SAPC   H2S 9811   5.595   6.827   2.555 -1.8927 -0.3862  0.1867
   99SAPC    C3 9812   5.773   6.665   2.124  0.5331 -0.1670 -0.2142
   99SAPC    HX 9813   5.854   6.706   2.188 -0.0035 -0.1892  0.4853
   99SAPC    HY 9814   5.798   6.688   2.018  3.0123  1.5877  0.6287
   99SAPC   O31 9815   5.765   6.531   2.162 -0.0196 -0.0466  0.4178
   99SAPC   C31 9816   5.673   6.457   2.109  0.7280  0.2961  0.1903
   99SAPC   O32 9817   5.590   6.488   2.024 -0.1903  0.0292 -0.1960
   99SAPC   C32 9818   5.684   6.321   2.168  0.7193  0.0863  0.1564
   99SAPC   H2X 9819   5.752   6.267   2.099 -1.6793 -2.3601 -0.4433
   99SAPC   H2Y 9820   5.587   6.268   2.161 -0.1260  1.5226  0.5868
   99SAPC   C23 9821   5.613   6.622   2.622  0.8557 -0.4541  0.0799
   99SAPC   H3R 9822   5.655   6.525   2.587 -1.1920 -0.9892 -1.0503
   99SAPC   H3S 9823   5.505   6.596   2.628  1.3094 -2.9113 -1.1616
   99SAPC   C24 9824   5.678   6.635   2.766 -0.2489 -0.2142  0.2473
   99SAPC   H4R 9825   5.786   6.634   2.741 -0.5740 -1.6566 -1.2645
   99SAPC   H4S 9826   5.645   6.547   2.825  1.0989 -2.1333 -1.7118
   99SAPC   C25 9827   5.631   6.759   2.840  0.1448 -0.2081 -0.7615
   99SAPC   H5R 9828   5.530   6.741   2.879  1.4843 -3.7476  1.5728
   99SAPC   C26 9829   5.703   6.873   2.864  0.3080 -0.1540 -0.7350
   99SAPC   H6R 9830   5.656   6.951   2.926  0.0727 -1.8424  1.3260
   99SAPC   C27 9831   5.840   6.900   2.806 -0.5157  0.9946  0.1996
   99SAPC   H7R 9832   5.844   6.875   2.698  2.4790 -1.0953  0.6724
   99SAPC   H7S 9833   5.910   6.829   2.854 -1.2885  0.8235  1.1103
   99SAPC   C28 9834   5.888   7.037   2.850 -0.4543  0.0303  0.5788
   99SAPC   H8R 9835   5.893   7.119   2.777  3.0384  0.3604  0.9938
   99SAPC   C29 9836   5.923   7.072   2.976  0.2019  0.1238 -0.2421
   99SAPC   H9R 9837   5.968   7.172   2.983 -0.2486  0.2766  0.5719
   99SAPC  C210 9838   5.921   6.980   3.104  0.2770  0.3994  0.0875
   99SAPC  H10R 9839   5.892   6.876   3.075  0.6258 -0.8696  3.7817
   99SAPC  H10S 9840   5.846   7.004   3.182 -1.8502 -1.6046 -1.1622
   99SAPC  C211 9841   6.063   6.964   3.158  0.1476  0.4678  0.4291
   99SAPC  H11R 9842   6.144   6.968   3.084  0.0348  2.3584  0.3651
   99SAPC  C212 9843   6.096   6.940   3.284  0.4986  0.1572 -0.4428
   99SAPC  H12R 9844   6.203   6.947   3.310  1.0912  0.0653 -2.6534
   99SAPC  C213 9845   6.006   6.934   3.403  0.7132 -0.3157  0.3202
   99SAPC  H13R 9846   6.044   6.844   3.457  0.8276 -0.5610 -0.1653
   99SAPC  H13S 9847   5.901   6.905   3.379  0.8680 -2.2955  1.7828
   99SAPC  C214 9848   6.006   7.068   3.479  0.1779 -0.0412 -0.5428
   99SAPC  H14R 9849   6.022   7.161   3.422  0.5366  1.1715  1.4402
   99SAPC  C215 9850   6.003   7.080   3.610  0.0898  0.1547 -0.0675
   99SAPC  H15R 9851   6.019   7.184   3.642 -0.5089  0.5945 -1.1299
   99SAPC  C216 9852   5.988   6.972   3.718 -0.1848 -0.0547  0.0380
   99SAPC  H16R 9853   6.039   6.880   3.681  2.5776  1.7347 -1.0147
   99SAPC  H16S 9854   5.880   6.952   3.728 -0.5443  1.4062 -0.5968
   99SAPC  C217 9855   6.042   6.999   3.857  0.5835 -0.6783  0.2108
   99SAPC  H17R 9856   5.985   7.076   3.914  0.3395 -0.8618  0.2176
   99SAPC  H17S 9857   6.145   7.039   3.842  0.2587 -0.0527 -0.4109
   99SAPC  C218 9858   6.049   6.881   3.953 -0.0346  0.0190  0.6146
   99SAPC  H18R 9859   6.129   6.894   4.029  2.7836  0.2595 -2.1969
   99SAPC  H18S 9860   6.087   6.797   3.892  0.1404  0.1795  0.5002
   99SAPC  C219 9861   5.918   6.848   4.018 -0.6241 -0.2308  0.0322
   99SAPC  H19R 9862   5.837   6.845   3.942  0.1172 -1.3315 -0.7430
   99SAPC  H19S 9863   5.904   6.936   4.085 -2.0314  0.2193 -0.8112
   99SAPC  C220 9864   5.915   6.724   4.105 -0.1127 -0.3438 -0.2278
   99SAPC  H20R 9865   5.932   6.630   4.048 -0.4799 -1.1303  0.9192
   99SAPC  H20S 9866   5.820   6.720   4.163  0.4302 -0.9645  0.6446
   99SAPC  H20T 9867   5.993   6.731   4.183 -0.5026  0.0193  0.1391
   99SAPC   C33 9868   5.725   6.328   2.318  0.1442 -0.0146  0.1233
   99SAPC   H3X 9869   5.651   6.386   2.377 -0.2564 -0.9379  0.5480
   99SAPC   H3Y 9870   5.827   6.370   2.333  0.8480 -1.3077 -0.8138
   99SAPC   C34 9871   5.714   6.191   2.374 -0.1801  0.0425  0.0565
   99SAPC   H4X 9872   5.801   6.138   2.330  1.0213  1.8048  0.1977
   99SAPC   H4Y 9873   5.618   6.146   2.344 -0.2534 -1.6010  2.4461
   99SAPC   C35 9874   5.719   6.186   2.525 -0.1345 -0.1872  0.3186
   99SAPC   H5X 9875   5.670   6.091   2.556  0.7344 -0.3837  1.1077
   99SAPC   H5Y 9876   5.660   6.275   2.556 -0.1373  0.3410 -1.0834
   99SAPC   C36 9877   5.860   6.187   2.580  0.1263 -0.5313  0.6472
   99SAPC   H6X 9878   5.897   6.288   2.553 -0.2065 -0.5355  0.1751
   99SAPC   H6Y 9879   5.917   6.101   2.537  2.5341  1.2174  0.1287
   99SAPC   C37 9880   5.853   6.162   2.737  0.1177  0.2476  0.0172
   99SAPC   H7X 9881   5.866   6.053   2.757 -1.8429  0.3242  2.1533
   99SAPC   H7Y 9882   5.754   6.193   2.777  1.1277  1.1643  1.9741
   99SAPC   C38 9883   5.958   6.248   2.823 -0.3849 -0.6055  0.2814
   99SAPC   H8X 9884   6.055   6.233   2.772 -1.1334 -0.1300 -1.3673
   99SAPC   H8Y 9885   5.966   6.212   2.928 -0.8374 -0.6553  0.3039
   99SAPC   C39 9886   5.928   6.394   2.829 -0.5645  0.1717  0.2491
   99SAPC   H9X 9887   5.820   6.398   2.855 -0.5861  1.8416  0.0475
   99SAPC   H9Y 9888   5.932   6.441   2.729 -1.0860 -1.2314 -0.4396
   99SAPC  C310 9889   6.007   6.479   2.927 -0.0402  0.3194  0.5832
   99SAPC  H10X 9890   5.984   6.586   2.911  0.1074  0.1494 -0.8800
   99SAPC  H10Y 9891   6.117   6.470   2.913 -0.0403  0.6007  0.4059
   99SAPC  C311 9892   5.973   6.451   3.077 -0.1608  0.3169  0.5602
   99SAPC  H11X 9893   5.979   6.343   3.102 -0.2934 -0.2550 -1.6729
   99SAPC  H11Y 9894   5.871   6.490   3.099 -0.6214  0.8534 -2.1834
   99SAPC  C312 9895   6.073   6.526   3.167 -0.3647  0.7221  0.0899
   99SAPC  H12X 9896   6.082   6.631   3.131  0.2138  1.1463  1.4120
   99SAPC  H12Y 9897   6.174   6.479   3.166  0.0244  1.4799 -2.3320
   99SAPC  C313 9898   6.012   6.540   3.309 -0.0445 -0.5360 -0.4742
   99SAPC  H13X 9899   5.954   6.451   3.340  2.7045 -2.4239 -0.3919
   99SAPC  H13Y 9900   5.948   6.631   3.314  0.7064 -0.0604  1.6398
   99SAPC  C314 9901   6.121   6.541   3.413 -0.2958 -0.4676 -0.1726
   99SAPC  H14X 9902   6.184   6.631   3.399 -1.6209  0.5098 -0.1230
   99SAPC  H14Y 9903   6.176   6.445   3.404  1.6277  0.6257 -0.6796
   99SAPC  C315 9904   6.059   6.546   3.558  0.6020  0.0463  0.7876
   99SAPC  H15X 9905   5.997   6.457   3.582 -1.9286  1.4955 -0.0339
   99SAPC  H15Y 9906   5.990   6.632   3.572 -0.3362 -0.7513  1.1427
   99SAPC  C316 9907   6.177   6.545   3.656  0.3106  0.9202 -0.0966
   99SAPC  H16X 9908   6.220   6.648   3.657  2.3422  0.2165 -2.8230
   99SAPC  H16Y 9909   6.252   6.467   3.634 -1.9662 -1.0348 -1.4348
   99SAPC  C317 9910   6.122   6.500   3.791 -0.2242 -0.0105  0.2287
   99SAPC  H17X 9911   6.091   6.394   3.795  1.2532 -0.5137 -0.8259
   99SAPC  H17Y 9912   6.024   6.551   3.799 -1.1820 -1.9697  1.8720
   99SAPC  C318 9913   6.207   6.534   3.917 -0.9013 -0.1605 -0.0727
   99SAPC  H18X 9914   6.311   6.498   3.904 -1.7557 -3.4227  0.9762
   99SAPC  H18Y 9915   6.171   6.474   4.004 -1.2393 -0.8008 -0.6428
   99SAPC  H18Z 9916   6.207   6.642   3.941  1.1576 -0.0906 -0.2515
  100SAPC     N 9917   5.094   5.105   1.236  0.0312 -0.3868  0.3324
  100SAPC   C12 9918   4.950   5.133   1.250 -0.1135 -0.5766  0.0278
  100SAPC  H12A 9919   4.909   5.059   1.318 -2.5946  2.7133  2.4395
  100SAPC  H12B 9920   4.908   5.124   1.151  0.9928 -0.4389 -0.4701
  100SAPC   C13 9921   5.166   5.218   1.165 -0.2276 -0.0718  0.3497
  100SAPC  H13A 9922   5.270   5.199   1.143  0.0904 -0.0186  1.6975
  100SAPC  H13B 9923   5.120   5.250   1.073  1.2789  2.2842  0.3191
  100SAPC  H13C 9924   5.156   5.305   1.227  1.9101 -0.7164  1.7216
  100SAPC   C14 9925   5.156   5.088   1.371 -0.2174 -0.3843 -0.0260
  100SAPC  H14A 9926   5.262   5.066   1.359 -0.4931 -1.4664 -0.5873
  100SAPC  H14B 9927   5.155   5.181   1.426 -3.0446 -0.2531 -0.1695
  100SAPC  H14C 9928   5.114   5.005   1.426  1.4629 -1.3990 -0.2028
  100SAPC   C15 9929   5.110   4.980   1.164 -0.2851  0.4901  0.5615
  100SAPC  H15A 9930   5.056   4.896   1.204  1.0829 -1.3065 -1.1093
  100SAPC  H15B 9931   5.096   4.993   1.058  3.9075  2.2855  0.0323
  100SAPC  H15C 9932   5.213   4.948   1.169 -0.7329 -1.0081  0.6967
  100SAPC   C11 9933   4.906   5.266   1.323  0.2989  0.1087  0.1930
  100SAPC  H11A 9934   4.796   5.271   1.308  0.0435 -2.4532  0.6979
  100SAPC  H11B 9935   4.950   5.359   1.280  0.5951 -1.2108 -2.6502
  100SAPC     P 9936   4.854   5.192   1.572  0.2709 -0.0443 -0.0387
  100SAPC   O13 9937   4.718   5.142   1.519  0.2048  0.0487  0.7603
  100SAPC   O14 9938   4.932   5.094   1.651 -0.1822 -0.4996 -0.4347
  100SAPC   O12 9939   4.935   5.260   1.458 -0.5050  0.2803 -0.0802
  100SAPC   O11 9940   4.822   5.316   1.655  0.1428  0.2884  0.5217
  100SAPC    C1 9941   4.912   5.382   1.752 -0.0179  0.0999 -0.6885
  100SAPC    HA 9942   5.018   5.377   1.718  0.0724  1.8314 -0.7488
  100SAPC    HB 9943   4.883   5.489   1.758  1.0888  0.3769  0.1581
  100SAPC    C2 9944   4.893   5.316   1.882  0.1212  0.0383 -0.2129
  100SAPC    HS 9945   4.895   5.206   1.863 -2.1116 -0.0520 -0.1704
  100SAPC   O21 9946   4.773   5.365   1.940 -0.0513 -0.3036 -0.1342
  100SAPC   C21 9947   4.721   5.283   2.032 -0.3743 -0.9760  0.4916
  100SAPC   O22 9948   4.744   5.165   2.039 -0.0821  0.5541  0.3415
  100SAPC   C22 9949   4.622   5.350   2.116 -0.2032 -0.1599  0.0326
  100SAPC   H2R 9950   4.529   5.363   2.056 -0.2509 -0.5382  0.0268
  100SAPC   H2S 9951   4.596   5.279   2.197 -2.4779  0.5455  0.0012
  100SAPC    C3 9952   5.004   5.357   1.982 -0.9840  0.1324 -0.1819
  100SAPC    HX 9953   4.979   5.462   2.010  1.2520  0.7844 -0.4707
  100SAPC    HY 9954   5.100   5.368   1.927 -0.1659 -1.4744  0.8404
  100SAPC   O31 9955   5.003   5.273   2.099  0.0357 -0.3346  0.3627
  100SAPC   C31 9956   5.060   5.154   2.073 -0.0195  0.2690  0.1470
  100SAPC   O32 9957   5.111   5.125   1.968 -0.4778  0.0261 -0.1666
  100SAPC   C32 9958   5.083   5.071   2.193  0.6235 -0.0767 -1.2882
  100SAPC   H2X 9959   5.153   5.124   2.261 -0.0723  0.3661 -0.9002
  100SAPC   H2Y 9960   5.145   4.988   2.153  1.9075  0.6056 -0.7506
  100SAPC   C23 9961   4.674   5.481   2.175 -0.6286  0.4741 -0.2634
  100SAPC   H3R 9962   4.681   5.555   2.094  0.3234 -1.1674 -1.7516
  100SAPC   H3S 9963   4.772   5.474   2.226  0.6172 -0.2393 -2.6435
  100SAPC   C24 9964   4.576   5.539   2.284 -0.0634 -0.4335 -0.0518
  100SAPC   H4R 9965   4.475   5.548   2.238 -0.2622 -0.2384  0.4199
  100SAPC   H4S 9966   4.603   5.641   2.317 -2.2627  0.4786 -0.8788
  100SAPC   C25 9967   4.554   5.439   2.393 -0.0922  0.1204 -0.2389
  100SAPC   H5R 9968   4.519   5.340   2.362  1.8847 -0.3983 -0.9590
  100SAPC   C26 9969   4.586   5.456   2.524 -0.2849  0.5284 -0.0385
  100SAPC   H6R 9970   4.575   5.375   2.597 -1.2405 -0.3981 -1.1655
  100SAPC   C27 9971   4.649   5.586   2.575 -0.3544 -0.1143  0.0600
  100SAPC   H7R 9972   4.581   5.632   2.649  1.8654  3.2600  0.1950
  100SAPC   H7S 9973   4.661   5.674   2.509 -0.0114  1.1918  1.8007
  100SAPC   C28 9974   4.782   5.570   2.636  0.4028  0.6402 -0.2411
  100SAPC   H8R 9975   4.863   5.536   2.571  1.5293 -1.3263  2.0193
  100SAPC   C29 9976   4.807   5.594   2.764 -0.2395  0.0055 -0.2033
  100SAPC   H9R 9977   4.906   5.563   2.801 -0.6357 -0.9962  0.0577
  100SAPC  C210 9978   4.707   5.631   2.869  0.0833 -0.0661 -0.4350
  100SAPC  H10R 9979   4.615   5.568   2.876 -0.8720  1.2564 -0.7508
  100SAPC  H10S 9980   4.655   5.725   2.839 -0.0683 -0.0282 -0.0667
  100SAPC  C211 9981   4.765   5.632   3.007  0.0929 -0.4288  0.0697
  100SAPC  H11R 9982   4.871   5.661   3.012 -0.0152  0.6074 -2.4465
  100SAPC  C212 9983   4.708   5.612   3.130 -0.3094 -0.3716 -0.1512
  100SAPC  H12R 9984   4.777   5.629   3.215  0.8110 -0.1303 -1.0856
  100SAPC  C213 9985   4.569   5.575   3.166  0.0110  0.0070 -0.1025
  100SAPC  H13R 9986   4.505   5.604   3.080 -1.7398  0.4199  1.2606
  100SAPC  H13S 9987   4.530   5.647   3.242 -0.2687  1.3578 -1.4641
  100SAPC  C214 9988   4.558   5.424   3.192  0.7560 -0.1146 -0.7220
  100SAPC  H14R 9989   4.585   5.350   3.115  2.3051 -0.3354 -0.0192
  100SAPC  C215 9990   4.502   5.371   3.304 -0.2029 -0.3967 -0.0008
  100SAPC  H15R 9991   4.507   5.261   3.314 -1.8640 -0.4877  0.2287
  100SAPC  C216 9992   4.463   5.448   3.425  0.0639  0.6091 -0.3101
  100SAPC  H16R 9993   4.354   5.472   3.426  0.0818  0.7004 -0.6525
  100SAPC  H16S 9994   4.511   5.548   3.427 -1.9405  1.6743 -1.8451
  100SAPC  C217 9995   4.508   5.378   3.552 -0.9749 -0.2388 -0.1299
  100SAPC  H17R 9996   4.484   5.270   3.543  0.5236 -0.6073  0.0583
  100SAPC  H17S 9997   4.447   5.418   3.635 -0.0306 -0.4170  0.6683
  100SAPC  C218 9998   4.658   5.403   3.583 -0.6091 -0.2451 -0.5150
  100SAPC  H18R 9999   4.720   5.355   3.504  0.7906 -0.3940  0.6397
  100SAPC  H18S10000   4.669   5.360   3.684 -0.6860  1.6057  0.3159
  100SAPC  C21910001   4.689   5.549   3.603  0.3268  0.3231  0.3146
  100SAPC  H19R10002   4.621   5.599   3.675 -0.0826  1.7661 -1.0324
  100SAPC  H19S10003   4.677   5.603   3.507  1.1285 -1.6906 -0.9927
  100SAPC  C22010004   4.833   5.561   3.655 -0.1612 -0.3085  0.0742
  100SAPC  H20R10005   4.894   5.531   3.567 -0.8095  2.5132 -1.4642
  100SAPC  H20S10006   4.850   5.498   3.744 -1.1793 -0.2229  0.3473
  100SAPC  H20T10007   4.858   5.666   3.679 -0.0846 -0.7822  2.2609
  100SAPC   C3310008   4.951   5.022   2.258  0.4497  0.4346  0.2369
  100SAPC   H3X10009   4.882   4.981   2.181 -0.6677  0.3035  1.2769
  100SAPC   H3Y10010   4.895   5.111   2.295 -0.2426  0.4909 -0.8896
  100SAPC   C3410011   4.941   4.906   2.373  0.1898  0.1880 -0.3060
  100SAPC   H4X10012   4.995   4.813   2.347 -2.2424 -1.3678 -0.0897
  100SAPC   H4Y10013   4.835   4.879   2.390  0.4614  0.3130  1.9078
  100SAPC   C3510014   4.998   4.959   2.506 -0.1688  0.3082 -0.0502
  100SAPC   H5X10015   4.940   5.032   2.566  2.2938  0.4651  2.3587
  100SAPC   H5Y10016   5.096   5.012   2.506  0.7230 -1.2361  1.2203
  100SAPC   C3610017   5.007   4.841   2.597  0.1727 -0.2261 -0.3594
  100SAPC   H6X10018   5.073   4.760   2.558 -0.4320 -1.4704  1.0598
  100SAPC   H6Y10019   4.907   4.793   2.607  1.7323 -3.4328  1.9965
  100SAPC   C3710020   5.060   4.892   2.731 -0.8288  0.2514  0.4114
  100SAPC   H7X10021   4.980   4.950   2.783 -2.3779 -0.9541 -0.5399
  100SAPC   H7Y10022   5.142   4.963   2.710  0.6070 -2.0618 -2.3854
  100SAPC   C3810023   5.116   4.784   2.827  0.4690  0.2986 -0.1011
  100SAPC   H8X10024   5.185   4.721   2.768  1.2222  1.9270 -1.0329
  100SAPC   H8Y10025   5.043   4.709   2.865 -0.0461  1.1693  0.6705
  100SAPC   C3910026   5.182   4.860   2.945 -0.3438 -0.1135  0.0214
  100SAPC   H9X10027   5.108   4.939   2.968  1.2424  1.6269 -0.5430
  100SAPC   H9Y10028   5.284   4.887   2.909 -1.4481  3.3558 -0.8521
  100SAPC  C31010029   5.204   4.781   3.072  0.2065  0.4080  0.0729
  100SAPC  H10X10030   5.265   4.690   3.052  2.9142  1.9953  0.5800
  100SAPC  H10Y10031   5.107   4.743   3.112  0.0887 -0.3724 -0.8776
  100SAPC  C31110032   5.281   4.844   3.186  0.1171 -1.3128 -0.8068
  100SAPC  H11X10033   5.212   4.921   3.227  2.3854 -0.4543  1.6673
  100SAPC  H11Y10034   5.372   4.901   3.158  0.2950  1.6912  4.5922
  100SAPC  C31210035   5.323   4.738   3.287 -0.1736  0.3968 -0.3128
  100SAPC  H12X10036   5.407   4.680   3.242 -0.6784 -0.7312  0.1546
  100SAPC  H12Y10037   5.242   4.668   3.314  0.2217 -0.4290 -1.2020
  100SAPC  C31310038   5.379   4.809   3.409  0.6610  0.1741  0.1464
  100SAPC  H13X10039   5.307   4.874   3.463  1.6061 -0.0751  1.7911
  100SAPC  H13Y10040   5.453   4.888   3.384  0.5904  0.6353  1.3418
  100SAPC  C31410041   5.444   4.723   3.521  0.7053 -0.3222 -0.3711
  100SAPC  H14X10042   5.538   4.674   3.488  0.5836 -0.6270 -0.2711
  100SAPC  H14Y10043   5.376   4.641   3.551 -0.8435  0.9837 -0.1427
  100SAPC  C31510044   5.473   4.803   3.647  0.4426 -0.3159 -0.8960
  100SAPC  H15X10045   5.380   4.838   3.696 -0.0599 -0.6211 -1.6047
  100SAPC  H15Y10046   5.522   4.900   3.627 -0.0352  0.7666  2.5479
  100SAPC  C31610047   5.562   4.719   3.740 -0.3104 -0.4164  0.0544
  100SAPC  H16X10048   5.662   4.705   3.693  0.8088  0.8180  1.9082
  100SAPC  H16Y10049   5.513   4.620   3.743  2.2337 -1.7712 -0.7170
  100SAPC  C31710050   5.590   4.779   3.877  0.2759  1.2824 -0.1853
  100SAPC  H17X10051   5.626   4.883   3.860 -2.4510  2.3610  0.0875
  100SAPC  H17Y10052   5.667   4.721   3.932 -1.1640 -0.4759  0.0432
  100SAPC  C31810053   5.471   4.785   3.967  0.1725  0.1048  0.5553
  100SAPC  H18X10054   5.423   4.685   3.976  0.0493  0.0260 -0.7827
  100SAPC  H18Y10055   5.401   4.861   3.925 -1.5004 -1.7789 -0.2205
  100SAPC  H18Z10056   5.506   4.823   4.066  0.7363 -1.0385  0.8128
  101OSM      N10057   1.926   3.724   6.870 -0.3467  0.4285 -0.2606
  101OSM    C1510058   1.866   3.595   6.924  0.2746  0.3499  0.0512
  101OSM   H15A10059   1.799   3.608   7.008  0.4211  1.9824 -0.0663
  101OSM   H15B10060   1.957   3.547   6.958  1.6529  1.5285 -1.7990
  101OSM   H15C10061   1.819   3.546   6.841 -0.6565  0.7980  0.3086
  101OSM    C1410062   1.819   3.815   6.828 -0.1924 -0.0893  0.3815
  101OSM   H14A10063   1.750   3.761   6.765  0.7695 -0.9468  0.0257
  101OSM   H14B10064   1.861   3.901   6.778 -1.9855  1.3186  1.2319
  101OSM   H14C10065   1.754   3.839   6.910  1.3449 -1.5607  2.1255
  101OSM    C1310066   2.015   3.777   6.979 -0.4338 -0.0733 -0.7849
  101OSM   H13A10067   1.969   3.816   7.069  0.8406 -0.4268  0.0442
  101OSM   H13B10068   2.071   3.865   6.949 -0.6233  0.8332  1.3031
  101OSM   H13C10069   2.082   3.701   7.018 -1.6233 -0.3152  0.8831
  101OSM    C1210070   2.016   3.690   6.753 -0.2070  0.3779  0.3730
  101OSM   H12A10071   2.092   3.627   6.796 -2.3795 -3.1647 -0.4684
  101OSM   H12B10072   2.047   3.788   6.721  1.3593 -0.4690 -0.8276
  101OSM    C1110073   1.947   3.600   6.641  0.3643 -0.0385  0.2465
  101OSM   H11A10074   1.993   3.641   6.549 -0.3799 -0.6600 -0.4159
  101OSM   H11B10075   1.838   3.619   6.645 -0.2887 -3.3179  2.1146
  101OSM      P10076   1.874   3.350   6.603 -0.2632  0.0877 -0.4745
  101OSM    O1310077   1.925   3.213   6.614 -0.2694  0.0757  0.0677
  101OSM    O1410078   1.741   3.372   6.662 -0.2796 -0.0335  0.4688
  101OSM    O1110079   1.855   3.377   6.452  0.1250 -0.2309 -0.0923
  101OSM    O1210080   1.974   3.461   6.656 -0.6469  0.3634 -0.9462
  101OSM    C1S10081   1.972   3.398   6.371 -0.6626  0.3920 -0.0212
  101OSM    H1S10082   2.048   3.317   6.378 -0.9459  0.2623  2.7386
  101OSM    H1T10083   2.020   3.494   6.400  1.1530 -0.4565 -0.0496
  101OSM     NF10084   2.078   3.467   6.149  0.4440  0.2313 -0.1802
  101OSM    HNF10085   2.089   3.556   6.105 -1.0281 -0.0611 -1.2161
  101OSM    C2S10086   1.952   3.448   6.225  0.2277  0.0798  0.5670
  101OSM    H2S10087   1.901   3.367   6.168 -0.8449  0.3989  1.0511
  101OSM    C3S10088   1.858   3.578   6.221 -0.4187  0.9896 -0.2424
  101OSM    H3S10089   1.919   3.656   6.271  0.3831  0.2372 -0.0239
  101OSM     O310090   1.737   3.539   6.284 -0.2339  0.4345 -0.5049
  101OSM    HO310091   1.749   3.454   6.327  1.6331  2.3246  3.1662
  101OSM    C4S10092   1.840   3.627   6.073  0.1072  0.4495 -0.6435
  101OSM    H4S10093   1.889   3.722   6.051 -0.0444  0.6492 -0.1363
  101OSM    C5S10094   1.775   3.571   5.968 -0.6442 -0.5528  0.6009
  101OSM    H5S10095   1.712   3.482   5.986 -0.8550  0.0349  3.2293
  101OSM    C6S10096   1.772   3.624   5.823 -0.2034 -0.1169 -0.5711
  101OSM    H6S10097   1.830   3.719   5.823  0.9299 -0.7866 -0.6465
  101OSM    H6T10098   1.672   3.648   5.781  0.8257  0.6776 -2.7159
  101OSM    C7S10099   1.841   3.521   5.735  0.1558  0.4761 -0.4446
  101OSM    H7S10100   1.785   3.425   5.734 -0.7004  0.7730  3.3553
  101OSM    H7T10101   1.946   3.496   5.762 -0.7617 -2.0441  1.0355
  101OSM    C8S10102   1.840   3.564   5.590 -0.1392 -0.1145  0.1039
  101OSM    H8S10103   1.937   3.614   5.568 -1.2380  2.1981  0.2422
  101OSM    H8T10104   1.764   3.641   5.565  1.3685  1.6994  0.8591
  101OSM    C9S10105   1.844   3.433   5.508 -0.5359  0.4007  0.5481
  101OSM    H9S10106   1.753   3.373   5.529 -0.2362 -0.7697 -1.2645
  101OSM    H9T10107   1.928   3.372   5.547 -0.5506 -0.5751 -0.8966
  101OSM   C10S10108   1.858   3.445   5.350  0.5080  0.5181  0.2686
  101OSM   H10S10109   1.864   3.344   5.304 -1.7260  0.7681 -0.6669
  101OSM   H10T10110   1.959   3.490   5.337  0.8702 -0.7585 -2.0310
  101OSM   C11S10111   1.743   3.524   5.292  0.4707 -0.4750 -0.3694
  101OSM   H11S10112   1.713   3.604   5.363  0.1233 -2.3418  1.7023
  101OSM   H11T10113   1.652   3.460   5.292 -0.2285  0.4950 -0.1929
  101OSM   C12S10114   1.763   3.568   5.149 -0.1551  0.2966  0.2042
  101OSM   H12S10115   1.770   3.474   5.089 -1.0582 -0.3806  1.1227
  101OSM   H12T10116   1.856   3.623   5.126  1.3981 -1.4473  1.9631
  101OSM   C13S10117   1.642   3.638   5.095 -0.1362 -0.6150  0.0701
  101OSM   H13S10118   1.609   3.718   5.165 -1.4679 -0.8397 -0.2782
  101OSM   H13T10119   1.560   3.566   5.119  0.4314 -1.1454  0.4604
  101OSM   C14S10120   1.646   3.684   4.955 -0.0108  0.1197 -0.1385
  101OSM   H14S10121   1.649   3.601   4.882  1.4038  0.0994 -0.0682
  101OSM   H14T10122   1.736   3.742   4.927  0.4800  0.1870  1.4722
  101OSM   C15S10123   1.533   3.787   4.923 -0.3906 -0.1701  1.0038
  101OSM   H15S10124   1.533   3.869   4.997  1.9833 -0.9776  1.9869
  101OSM   H15T10125   1.433   3.738   4.914 -1.1389  0.3012  5.1247
  101OSM   C16S10126   1.561   3.849   4.787  0.0974 -0.3476 -0.5100
  101OSM   H16S10127   1.592   3.765   4.721  2.0471  0.4809 -0.7104
  101OSM   H16T10128   1.649   3.916   4.796 -0.3760  0.1187  0.8454
  101OSM   C17S10129   1.436   3.918   4.726 -0.3651  0.2159 -0.5263
  101OSM   H17S10130   1.382   3.987   4.795 -3.3333 -2.2696 -0.1211
  101OSM   H17T10131   1.369   3.830   4.712 -3.2139  2.4394 -1.9374
  101OSM   C18S10132   1.471   3.986   4.586 -0.0450 -0.4460 -0.2631
  101OSM   H18S10133   1.530   4.078   4.603 -1.3394  0.0835  1.5974
  101OSM   H18T10134   1.373   4.005   4.538 -0.5423 -0.1096  0.8648
  101OSM   H18U10135   1.529   3.916   4.521 -0.2985 -1.4326  0.5537
  101OSM    C1F10136   2.176   3.378   6.132  0.3810  0.1477  0.4147
  101OSM     OF10137   2.157   3.263   6.165  0.9322  0.0015  0.1909
  101OSM    C2F10138   2.314   3.435   6.089  0.3795  0.3179  0.7139
  101OSM    H2F10139   2.381   3.438   6.177 -0.0652  2.2759  1.0230
  101OSM    H2G10140   2.308   3.540   6.054  0.3930  0.3462  0.7979
  101OSM    C3F10141   2.371   3.348   5.971  0.3798 -0.9056  0.6303
  101OSM    H3F10142   2.404   3.249   6.010  4.3691 -0.2650 -0.7175
  101OSM    H3G10143   2.462   3.377   5.914 -0.3914  0.3977  0.0182
  101OSM    C4F10144   2.261   3.313   5.864  0.0905 -0.5157 -0.5083
  101OSM    H4F10145   2.186   3.395   5.851 -0.3612 -0.8159  0.1732
  101OSM    H4G10146   2.207   3.227   5.908 -2.0212  1.2260  0.5376
  101OSM    C5F10147   2.318   3.267   5.728  0.2372 -0.1032  0.1791
  101OSM    H5F10148   2.391   3.185   5.747  0.8126  0.0513 -1.2640
  101OSM    H5G10149   2.358   3.342   5.657  1.2317 -1.7724 -1.1097
  101OSM    C6F10150   2.209   3.207   5.641  0.0044  0.1665  0.3342
  101OSM    H6F10151   2.252   3.207   5.539 -0.8170  1.3407 -0.0392
  101OSM    H6G10152   2.116   3.267   5.630  0.5483  0.9694  0.0984
  101OSM    C7F10153   2.165   3.061   5.673 -0.3851 -0.6230 -0.1641
  101OSM    H7F10154   2.095   3.043   5.758 -0.5934  3.3834  0.7491
  101OSM    H7G10155   2.254   2.998   5.693 -2.9691 -4.2891  0.8896
  101OSM    C8F10156   2.093   2.992   5.553 -0.4027  0.3515  0.5435
  101OSM    H8F10157   2.065   2.888   5.578  0.8414 -1.2540 -3.7962
  101OSM    H8G10158   2.165   2.986   5.469 -1.5521  2.8160 -0.7281
  101OSM    C9F10159   1.981   3.073   5.510  0.6234 -0.4677 -0.4893
  101OSM    H9F10160   1.947   3.139   5.590 -1.4828 -0.9434 -0.9431
  101OSM   C10F10161   1.924   3.075   5.387  0.3282 -0.0318  0.2753
  101OSM   H10F10162   1.839   3.143   5.365  0.3374  0.3694  1.3805
  101OSM   C11F10163   1.959   2.986   5.269 -0.3384 -0.2089  0.2713
  101OSM   H11F10164   1.869   2.946   5.218 -0.2259  0.3359 -0.3717
  101OSM   H11G10165   2.026   2.905   5.305  0.1625 -0.3124 -0.8695
  101OSM   C12F10166   2.041   3.053   5.154  0.3873  0.3949 -0.2974
  101OSM   H12F10167   2.107   2.981   5.103  1.1864 -0.8585  2.3781
  101OSM   H12G10168   2.110   3.127   5.199 -0.0738  0.2273  0.7163
  101OSM   C13F10169   1.949   3.117   5.050 -0.5335  0.2173 -0.6608
  101OSM   H13F10170   1.902   3.210   5.089  2.1420  1.1047  0.6963
  101OSM   H13G10171   1.873   3.039   5.030 -1.3020  0.9792 -0.7649
  101OSM   C14F10172   2.026   3.143   4.919 -0.2476  0.1154 -0.0821
  101OSM   H14F10173   2.081   3.049   4.897  1.5721  0.6075  2.0152
  101OSM   H14G10174   2.109   3.217   4.923 -0.7372  0.7124 -0.6800
  101OSM   C15F10175   1.941   3.173   4.796 -0.6239  0.1976  0.4243
  101OSM   H15F10176   1.897   3.275   4.808 -2.1657 -0.2887 -0.6879
  101OSM   H15G10177   1.866   3.091   4.792 -1.3055  0.8327 -0.2431
  101OSM   C16F10178   2.027   3.172   4.670  0.2360 -0.3127  0.0625
  101OSM   H16F10179   2.073   3.072   4.656  1.3368 -0.3794  3.2102
  101OSM   H16G10180   2.117   3.234   4.693 -0.8927  0.7063  1.9496
  101OSM   C17F10181   1.954   3.223   4.543  0.0678 -0.6006  0.4096
  101OSM   H17F10182   1.918   3.327   4.557 -0.7711 -0.9091  0.6159
  101OSM   H17G10183   1.867   3.155   4.533  0.4232 -1.2142  1.3665
  101OSM   C18F10184   2.046   3.198   4.423  0.9406  0.3828 -0.6668
  101OSM   H18F10185   2.004   3.240   4.330 -1.7558 -1.6377 -0.4571
  101OSM   H18G10186   2.050   3.089   4.406  1.1293  0.6832 -2.7434
  101OSM   H18H10187   2.148   3.237   4.445  0.2766  2.7258 -1.3876
  102OSM      N10188   1.838   2.167   6.364 -0.6575  0.6830 -0.1608
  102OSM    C1510189   1.874   2.285   6.285 -1.0551 -0.0408  0.1550
  102OSM   H15A10190   1.785   2.326   6.239  0.3260  2.3074 -0.5518
  102OSM   H15B10191   1.952   2.269   6.212 -0.2978 -2.3366  1.3721
  102OSM   H15C10192   1.910   2.362   6.351 -0.6186  3.5885 -3.8981
  102OSM    C1410193   1.795   2.050   6.279  0.0323 -0.1434 -0.2475
  102OSM   H14A10194   1.862   2.034   6.196 -0.9198 -1.2546 -0.8183
  102OSM   H14B10195   1.701   2.074   6.232  0.1443  1.1781  0.1432
  102OSM   H14C10196   1.779   1.961   6.338 -0.5740 -0.1104 -0.3567
  102OSM    C1310197   1.962   2.121   6.441  0.1123 -0.4633  0.2848
  102OSM   H13A10198   1.959   2.018   6.472 -0.8122 -0.5524 -0.0621
  102OSM   H13B10199   1.948   2.178   6.532  3.0284 -1.2927  1.3352
  102OSM   H13C10200   2.049   2.156   6.388  0.2342 -3.5141 -1.7638
  102OSM    C1210201   1.728   2.200   6.463 -0.5839 -0.0456  0.5949
  102OSM   H12A10202   1.754   2.297   6.504  2.5297  0.6577 -2.5746
  102OSM   H12B10203   1.717   2.125   6.539  0.4173 -0.9498 -0.1319
  102OSM    C1110204   1.589   2.226   6.409 -0.6708 -0.0742  0.0392
  102OSM   H11A10205   1.516   2.225   6.493 -0.3707 -2.2408  0.3373
  102OSM   H11B10206   1.559   2.147   6.338  0.0951 -0.5731  0.2625
  102OSM      P10207   1.561   2.479   6.409 -0.0091  0.1794  0.0265
  102OSM    O1310208   1.447   2.460   6.503  0.7597 -0.0012  0.2457
  102OSM    O1410209   1.687   2.523   6.474  0.4295 -0.4357  0.3382
  102OSM    O1110210   1.508   2.582   6.298  0.0899 -0.1144  0.1706
  102OSM    O1210211   1.593   2.348   6.326  0.2414  0.6781 -0.0435
  102OSM    C1S10212   1.595   2.603   6.185 -0.3398  0.0293  0.1631
  102OSM    H1S10213   1.602   2.508   6.128 -1.4272 -0.9201  1.5798
  102OSM    H1T10214   1.700   2.626   6.213 -0.4461  1.2270 -0.3194
  102OSM     NF10215   1.623   2.731   5.975  0.3767 -0.7322  0.1843
  102OSM    HNF10216   1.679   2.811   5.955 -1.8907  0.4142 -2.4021
  102OSM    C2S10217   1.549   2.723   6.096 -0.1450  0.2239 -0.1514
  102OSM    H2S10218   1.445   2.695   6.070  0.2265 -0.7287 -0.6786
  102OSM    C3S10219   1.545   2.852   6.181 -0.3702  0.3143  0.0489
  102OSM    H3S10220   1.642   2.869   6.231 -0.1370  2.3851 -0.9837
  102OSM     O310221   1.462   2.840   6.296 -0.2736  0.8708  0.0789
  102OSM    HO310222   1.461   2.744   6.307 -0.4517  0.8135 -0.4324
  102OSM    C4S10223   1.489   2.966   6.100  0.4267  0.4485 -0.3859
  102OSM    H4S10224   1.393   2.945   6.049  0.7750 -0.0096 -0.8537
  102OSM    C5S10225   1.549   3.084   6.085 -0.0766  0.7452  0.2633
  102OSM    H5S10226   1.643   3.108   6.136 -0.9452 -0.6524  2.6845
  102OSM    C6S10227   1.495   3.207   6.012 -0.7010 -0.6889 -0.0278
  102OSM    H6S10228   1.507   3.300   6.072 -0.5227 -0.1347 -0.9087
  102OSM    H6T10229   1.385   3.204   5.999 -1.0783  3.9143  0.3160
  102OSM    C7S10230   1.566   3.230   5.877  0.6062 -0.7564  0.6653
  102OSM    H7S10231   1.675   3.244   5.886  0.5517  1.1195 -0.9318
  102OSM    H7T10232   1.514   3.311   5.822  0.2177 -2.5781 -1.8203
  102OSM    C8S10233   1.535   3.107   5.782 -1.1859 -0.1545  0.1986
  102OSM    H8S10234   1.428   3.077   5.785 -1.1738 -0.7395 -2.6026
  102OSM    H8T10235   1.595   3.020   5.816 -0.6838 -1.3829 -3.3811
  102OSM    C9S10236   1.586   3.118   5.634  0.1443 -0.2782 -0.7184
  102OSM    H9S10237   1.629   3.021   5.600 -0.7171 -1.3000  0.9784
  102OSM    H9T10238   1.661   3.199   5.627  0.1346 -0.1740  0.2346
  102OSM   C10S10239   1.469   3.168   5.547 -0.4260 -0.6852  0.3491
  102OSM   H10S10240   1.416   3.250   5.599  0.2225  0.0360 -0.1004
  102OSM   H10T10241   1.388   3.094   5.532 -0.5340 -0.2096 -1.7563
  102OSM   C11S10242   1.517   3.204   5.401  0.1016 -0.1678 -0.0640
  102OSM   H11S10243   1.616   3.256   5.406 -0.8159  1.5441  1.6408
  102OSM   H11T10244   1.447   3.285   5.372 -1.3538 -1.6025 -0.6961
  102OSM   C12S10245   1.521   3.082   5.301 -0.3697 -0.1561 -0.0111
  102OSM   H12S10246   1.415   3.051   5.298 -0.7667  0.8461  2.0534
  102OSM   H12T10247   1.569   2.993   5.348 -1.3436 -1.1732 -0.8958
  102OSM   C13S10248   1.596   3.110   5.172 -0.1227 -0.3909  0.5579
  102OSM   H13S10249   1.595   3.018   5.109 -1.1276  0.4271 -0.6655
  102OSM   H13T10250   1.697   3.154   5.185 -0.0334 -0.0000 -1.2782
  102OSM   C14S10251   1.516   3.204   5.085 -0.0092 -0.2093  0.2363
  102OSM   H14S10252   1.498   3.299   5.139  1.5394  0.5109 -0.4381
  102OSM   H14T10253   1.419   3.164   5.051 -0.2580  0.4132  0.1921
  102OSM   C15S10254   1.582   3.236   4.948 -0.3678 -0.0945 -0.4615
  102OSM   H15S10255   1.606   3.140   4.898  0.3088  0.4813 -1.2759
  102OSM   H15T10256   1.677   3.292   4.959 -1.2831  2.1220 -2.7510
  102OSM   C16S10257   1.500   3.325   4.854 -0.6132  0.1816 -0.0260
  102OSM   H16S10258   1.489   3.419   4.912 -0.9284  0.4611 -0.5330
  102OSM   H16T10259   1.396   3.288   4.841 -0.5611 -0.0186  0.1223
  102OSM   C17S10260   1.561   3.346   4.713 -0.1763 -1.0471 -0.2586
  102OSM   H17S10261   1.553   3.242   4.673  0.9759 -0.9074 -0.8755
  102OSM   H17T10262   1.669   3.369   4.708 -0.0217 -1.9602 -1.7479
  102OSM   C18S10263   1.480   3.441   4.629  0.2500 -0.1215  0.1647
  102OSM   H18S10264   1.381   3.404   4.596  0.1936  0.9148 -0.8817
  102OSM   H18T10265   1.522   3.465   4.529  0.7701  2.4642  0.9300
  102OSM   H18U10266   1.456   3.535   4.683 -0.8980 -0.7527  0.7976
  102OSM    C1F10267   1.613   2.638   5.879  0.2114  0.5072 -0.2714
  102OSM     OF10268   1.543   2.540   5.899  0.4902  0.2229  0.8108
  102OSM    C2F10269   1.696   2.652   5.761  0.4178 -0.2629 -0.0784
  102OSM    H2F10270   1.803   2.641   5.791 -0.0773 -1.3816  1.4101
  102OSM    H2G10271   1.668   2.754   5.727  1.9333  0.5200  0.9063
  102OSM    C3F10272   1.657   2.555   5.638  0.0077 -0.5573 -0.4222
  102OSM    H3F10273   1.547   2.550   5.632 -0.2285  2.0168  0.6074
  102OSM    H3G10274   1.683   2.452   5.668  3.4378 -0.7791 -3.3395
  102OSM    C4F10275   1.716   2.600   5.500 -0.8536 -0.1178  0.6094
  102OSM    H4F10276   1.823   2.625   5.520 -0.4559 -0.5422 -0.9155
  102OSM    H4G10277   1.664   2.690   5.462 -0.1318  0.4739  0.9954
  102OSM    C5F10278   1.710   2.481   5.395 -0.1273 -0.3280  0.5776
  102OSM    H5F10279   1.606   2.476   5.356  1.1679  0.7172 -3.6057
  102OSM    H5G10280   1.732   2.389   5.454  0.0508 -0.1379  0.8044
  102OSM    C6F10281   1.803   2.495   5.269  0.5017 -0.1079 -0.0789
  102OSM    H6F10282   1.790   2.406   5.204 -1.6558  0.4385 -0.4925
  102OSM    H6G10283   1.905   2.495   5.312 -0.3601  0.4499  2.1389
  102OSM    C7F10284   1.774   2.625   5.186 -0.6773  0.1394 -0.0787
  102OSM    H7F10285   1.826   2.702   5.247 -0.6442 -1.1705  1.6106
  102OSM    H7G10286   1.665   2.644   5.192 -0.4027  1.4286  1.8054
  102OSM    C8F10287   1.827   2.636   5.042 -0.2384 -0.1689 -0.1741
  102OSM    H8F10288   1.807   2.545   4.983 -0.9332  1.2407 -2.2252
  102OSM    H8G10289   1.938   2.646   5.047 -0.0708 -2.1579  1.3742
  102OSM    C9F10290   1.766   2.759   4.976  0.5634 -0.0889 -0.1989
  102OSM    H9F10291   1.748   2.842   5.047 -1.1587  1.4936 -2.3398
  102OSM   C10F10292   1.713   2.773   4.857 -0.6710 -0.0250 -0.1079
  102OSM   H10F10293   1.683   2.872   4.821  0.1251  0.0112 -0.6999
  102OSM   C11F10294   1.721   2.665   4.749  0.7350 -0.3213 -0.5710
  102OSM   H11F10295   1.640   2.692   4.677 -2.2512 -0.1225  2.5848
  102OSM   H11G10296   1.687   2.570   4.797  0.5070 -0.0599 -0.2066
  102OSM   C12F10297   1.857   2.668   4.681 -0.2459 -0.0073 -0.0902
  102OSM   H12F10298   1.856   2.580   4.613  1.6416  0.8023 -1.2435
  102OSM   H12G10299   1.936   2.648   4.757 -0.2096  1.3762  0.2504
  102OSM   C13F10300   1.890   2.792   4.596 -0.4288  0.8074 -0.1634
  102OSM   H13F10301   1.903   2.877   4.667 -0.5430  2.3601 -1.9189
  102OSM   H13G10302   1.802   2.806   4.530 -0.9044 -1.1941 -0.0028
  102OSM   C14F10303   2.016   2.773   4.507 -0.7179 -0.1925 -0.0123
  102OSM   H14F10304   2.104   2.768   4.575 -1.1615 -1.5908  0.4892
  102OSM   H14G10305   2.017   2.866   4.445 -1.2012 -0.9242 -1.1443
  102OSM   C15F10306   1.996   2.659   4.409  0.1703  0.1325 -0.3605
  102OSM   H15F10307   1.889   2.663   4.381  0.1870  1.9043 -0.2792
  102OSM   H15G10308   2.027   2.560   4.448 -0.9117 -0.5669 -1.2304
  102OSM   C16F10309   2.089   2.672   4.285 -0.7025 -0.7883  0.2659
  102OSM   H16F10310   2.196   2.683   4.312 -0.6625 -0.0029 -0.2032
  102OSM   H16G10311   2.057   2.767   4.238  0.1812 -1.4481 -1.8331
  102OSM   C17F10312   2.078   2.558   4.184  0.0599 -0.6536  0.1493
  102OSM   H17F10313   1.981   2.560   4.131  1.2881  0.3762 -2.1923
  102OSM   H17G10314   2.091   2.469   4.250 -0.5764  0.3798  1.7390
  102OSM   C18F10315   2.173   2.574   4.055 -0.6184 -0.1217 -0.4888
  102OSM   H18F10316   2.173   2.478   4.000 -0.7505  0.4943 -1.5819
  102OSM   H18G10317   2.275   2.595   4.095 -0.4177  0.9830 -1.5152
  102OSM   H18H10318   2.140   2.656   3.988  0.0919 -0.8285 -1.7492
  103OSM      N10319   1.084   5.936   6.653 -0.3215  0.4524  0.7060
  103OSM    C1510320   0.938   5.931   6.697  0.5820 -0.7015  0.3953
  103OSM   H15A10321   0.875   5.869   6.635 -0.6001  0.5346  0.3141
  103OSM   H15B10322   0.890   6.027   6.703 -2.8101 -2.2727  0.5744
  103OSM   H15C10323   0.939   5.886   6.796 -2.2162  0.1744  0.9001
  103OSM    C1410324   1.076   6.033   6.534  1.1912 -0.1063 -0.9379
  103OSM   H14A10325   1.015   5.996   6.453  0.6719  3.1451 -2.2199
  103OSM   H14B10326   1.176   6.056   6.501  1.1165  1.9360  0.0450
  103OSM   H14C10327   1.030   6.126   6.564 -0.9162 -1.5362  0.5190
  103OSM    C1310328   1.165   5.994   6.764  0.5903 -0.0185  0.4764
  103OSM   H13A10329   1.173   5.923   6.845  1.5093 -1.0288 -0.4660
  103OSM   H13B10330   1.135   6.096   6.784  2.1167  1.2710 -3.0005
  103OSM   H13C10331   1.265   6.003   6.725  0.1656  0.3002 -0.5636
  103OSM    C1210332   1.139   5.806   6.605  0.1883  0.1075  0.3962
  103OSM   H12A10333   1.239   5.811   6.565  0.7030 -1.2636  1.4352
  103OSM   H12B10334   1.076   5.765   6.528  0.4827 -1.9898  1.2144
  103OSM    C1110335   1.143   5.696   6.717 -0.1525 -0.2367  0.0484
  103OSM   H11A10336   1.211   5.725   6.799 -0.3364  1.1979 -0.2874
  103OSM   H11B10337   1.172   5.605   6.659  1.6360  0.7526 -0.6773
  103OSM      P10338   0.909   5.565   6.736  0.1876 -0.1811  0.1215
  103OSM    O1310339   0.937   5.444   6.818 -0.0916 -0.0560 -0.2646
  103OSM    O1410340   0.766   5.611   6.745  0.2222 -0.0054  0.5275
  103OSM    O1110341   0.938   5.528   6.584 -0.4772 -0.6161  0.0850
  103OSM    O1210342   1.011   5.682   6.775 -0.3146  0.1478 -0.4263
  103OSM    C1S10343   0.885   5.614   6.480 -0.3719  0.4577 -0.1120
  103OSM    H1S10344   0.897   5.722   6.505  4.0631  0.4120 -1.1482
  103OSM    H1T10345   0.775   5.598   6.477 -0.7782  2.6549  0.9306
  103OSM     NF10346   0.900   5.650   6.242  0.4320 -0.9435 -0.0498
  103OSM    HNF10347   0.824   5.621   6.185 -1.5175 -0.7461  2.2906
  103OSM    C2S10348   0.947   5.560   6.346 -0.4294 -0.0323  0.0612
  103OSM    H2S10349   1.057   5.578   6.357 -0.4460  0.2879 -0.2544
  103OSM    C3S10350   0.923   5.409   6.325 -0.0081 -0.2739  0.3107
  103OSM    H3S10351   0.814   5.396   6.310  0.1234 -2.1536  0.7822
  103OSM     O310352   0.959   5.321   6.427  0.1694  0.0513  0.1116
  103OSM    HO310353   0.972   5.379   6.503  0.7358 -1.7269  1.4523
  103OSM    C4S10354   0.994   5.368   6.198 -0.5225 -0.9324  0.3574
  103OSM    H4S10355   1.104   5.371   6.197 -0.5314 -0.5438 -0.0863
  103OSM    C5S10356   0.936   5.314   6.094 -0.1524  0.4424 -0.0706
  103OSM    H5S10357   0.827   5.300   6.091 -0.1520  0.3056  0.5571
  103OSM    C6S10358   1.007   5.247   5.982 -0.6608 -0.1468  0.4594
  103OSM    H6S10359   0.987   5.138   5.986  2.1941 -0.7118  1.5338
  103OSM    H6T10360   1.114   5.270   6.002 -1.1363  2.7695  0.1506
  103OSM    C7S10361   0.969   5.302   5.842  0.0597 -0.2012 -0.2934
  103OSM    H7S10362   0.963   5.413   5.845  1.5669 -0.0898 -0.7056
  103OSM    H7T10363   0.869   5.271   5.805 -0.5277  1.1717  0.0603
  103OSM    C8S10364   1.081   5.264   5.742  0.5753  0.7527  0.5046
  103OSM    H8S10365   1.115   5.160   5.760  2.3203  0.9600 -1.2908
  103OSM    H8T10366   1.178   5.314   5.765  1.2390 -0.8866  1.4780
  103OSM    C9S10367   1.046   5.277   5.592 -0.4331 -0.7963  0.0131
  103OSM    H9S10368   0.965   5.204   5.569 -3.5239  1.5419  2.5103
  103OSM    H9T10369   1.135   5.249   5.532 -0.3546  0.2569 -0.3842
  103OSM   C10S10370   0.990   5.416   5.556 -0.0408  0.6773  0.0154
  103OSM   H10S10371   1.064   5.491   5.590 -0.9785  2.4872 -1.7582
  103OSM   H10T10372   0.893   5.429   5.609 -0.2395 -2.8911  0.8199
  103OSM   C11S10373   0.963   5.445   5.409  1.0605 -0.3593 -0.7318
  103OSM   H11S10374   0.909   5.542   5.403  0.3643 -0.6354  0.5430
  103OSM   H11T10375   0.898   5.361   5.377  0.3417  0.6600 -2.0128
  103OSM   C12S10376   1.090   5.435   5.327 -0.1048  0.3532 -1.4764
  103OSM   H12S10377   1.133   5.333   5.329  0.8792  0.7533 -1.3055
  103OSM   H12T10378   1.164   5.509   5.364 -0.3837 -0.1439  0.1453
  103OSM   C13S10379   1.062   5.464   5.174 -0.5580 -0.7404  0.2200
  103OSM   H13S10380   1.001   5.556   5.167  0.9597  0.2204 -0.8645
  103OSM   H13T10381   0.990   5.391   5.132 -0.2160 -1.3704  0.6975
  103OSM   C14S10382   1.190   5.469   5.087  0.1333  1.0992 -0.1541
  103OSM   H14S10383   1.251   5.379   5.107  0.6695  2.1130  3.4511
  103OSM   H14T10384   1.252   5.554   5.122 -0.9849  1.4523  1.0346
  103OSM   C15S10385   1.152   5.477   4.943  0.0369 -0.0650  0.5602
  103OSM   H15S10386   1.060   5.538   4.931  0.9943  1.1087 -1.3447
  103OSM   H15T10387   1.131   5.376   4.901 -1.0186  0.1912  0.4553
  103OSM   C16S10388   1.272   5.541   4.864  0.1630 -0.0657 -0.5279
  103OSM   H16S10389   1.344   5.458   4.879  0.3682  0.3224  0.7737
  103OSM   H16T10390   1.299   5.631   4.922 -1.2232  0.6783 -0.9986
  103OSM   C17S10391   1.243   5.565   4.719  0.2248 -0.0631  0.5823
  103OSM   H17S10392   1.171   5.650   4.724  0.4487  0.4461 -2.6480
  103OSM   H17T10393   1.196   5.477   4.669  2.4992 -1.1559  0.2552
  103OSM   C18S10394   1.362   5.611   4.634  0.0110  0.2228  0.2347
  103OSM   H18S10395   1.425   5.523   4.607  2.6457  1.1356  2.8853
  103OSM   H18T10396   1.428   5.672   4.698 -1.4486  1.4579  0.6310
  103OSM   H18U10397   1.329   5.676   4.550  1.7209  1.7987  0.7333
  103OSM    C1F10398   0.948   5.778   6.244  0.0467  0.7973  0.0628
  103OSM     OF10399   1.031   5.815   6.327 -0.2841 -0.6517 -0.0372
  103OSM    C2F10400   0.906   5.868   6.135  0.7174 -0.0975 -0.0532
  103OSM    H2F10401   0.797   5.849   6.122  0.4979  0.3709  1.0194
  103OSM    H2G10402   0.978   5.858   6.051  0.2648 -1.7778 -0.2929
  103OSM    C3F10403   0.904   6.027   6.181  0.6380  0.1619 -0.2093
  103OSM    H3F10404   0.999   6.050   6.234  0.8078 -1.0675  0.0533
  103OSM    H3G10405   0.818   6.051   6.247  0.2689  2.2013 -1.3566
  103OSM    C4F10406   0.893   6.120   6.063  0.4763  0.8364  0.2648
  103OSM    H4F10407   0.987   6.094   6.010  0.4258 -1.3868  1.1604
  103OSM    H4G10408   0.898   6.228   6.089  0.0795  0.6534  1.1445
  103OSM    C5F10409   0.771   6.108   5.970 -0.0661 -0.2834  1.0081
  103OSM    H5F10410   0.687   6.145   6.033  0.6044  0.7434  1.3126
  103OSM    H5G10411   0.767   6.002   5.935 -0.2100  0.0147  0.0924
  103OSM    C6F10412   0.785   6.196   5.840  0.2986 -0.2256  0.1502
  103OSM    H6F10413   0.688   6.201   5.785  0.1740 -3.4517 -0.1267
  103OSM    H6G10414   0.860   6.152   5.771 -0.6498  0.1088 -1.1412
  103OSM    C7F10415   0.814   6.346   5.870 -0.7879 -0.2953 -0.6421
  103OSM    H7F10416   0.921   6.368   5.890 -1.1086  0.6410  0.0982
  103OSM    H7G10417   0.759   6.382   5.959  0.5016  3.3344 -1.1332
  103OSM    C8F10418   0.769   6.431   5.751  0.0889  0.3494 -0.0379
  103OSM    H8F10419   0.784   6.529   5.801  4.1483  0.0842 -0.4023
  103OSM    H8G10420   0.661   6.414   5.729 -0.0105 -1.1226  1.3741
  103OSM    C9F10421   0.863   6.429   5.638 -0.2824 -0.1692 -0.2108
  103OSM    H9F10422   0.968   6.449   5.663 -0.3346  1.9009 -1.3863
  103OSM   C10F10423   0.843   6.434   5.507 -0.7332 -0.4564  0.4253
  103OSM   H10F10424   0.931   6.435   5.441  0.1482  0.1305  1.5627
  103OSM   C11F10425   0.712   6.416   5.441  0.5983  0.8268  1.7478
  103OSM   H11F10426   0.635   6.406   5.521 -0.0439 -1.5441  0.9063
  103OSM   H11G10427   0.721   6.318   5.389 -1.2313  1.4242  0.1692
  103OSM   C12F10428   0.673   6.529   5.349 -0.1656 -0.5265 -0.8326
  103OSM   H12F10429   0.664   6.625   5.405 -0.0073 -0.2309 -1.3081
  103OSM   H12G10430   0.572   6.509   5.305 -1.3800  0.0625  1.5227
  103OSM   C13F10431   0.777   6.556   5.238  0.0606 -0.1793 -0.0940
  103OSM   H13F10432   0.869   6.587   5.293 -0.5572 -1.0430  1.4898
  103OSM   H13G10433   0.752   6.647   5.179  0.8309 -0.7906 -1.4096
  103OSM   C14F10434   0.793   6.445   5.141 -0.6800  0.7193  0.7020
  103OSM   H14F10435   0.695   6.437   5.088  0.5262  3.3036 -2.2666
  103OSM   H14G10436   0.818   6.349   5.191  0.4367  0.3444 -0.5187
  103OSM   C15F10437   0.906   6.472   5.035 -0.6460  0.5442  0.2271
  103OSM   H15F10438   0.997   6.466   5.098 -1.2274 -2.7095  0.9287
  103OSM   H15G10439   0.894   6.576   4.997 -0.3249  0.2987 -0.5900
  103OSM   C16F10440   0.918   6.370   4.925 -1.1464 -0.0381  0.1252
  103OSM   H16F10441   0.822   6.319   4.900  0.8222 -4.0742  0.0272
  103OSM   H16G10442   0.980   6.285   4.962 -2.2728 -0.4829  1.0861
  103OSM   C17F10443   0.974   6.437   4.797  0.6320 -0.0252  0.2536
  103OSM   H17F10444   1.065   6.491   4.830  1.1675 -2.8162  4.0168
  103OSM   H17G10445   0.898   6.503   4.751  0.3369 -0.7018 -0.2549
  103OSM   C18F10446   1.015   6.352   4.682 -0.3752  0.2097 -0.0364
  103OSM   H18F10447   1.087   6.270   4.702  0.3033  0.6065 -0.7766
  103OSM   H18G10448   1.070   6.417   4.610  0.7234 -2.0499 -1.3398
  103OSM   H18H10449   0.927   6.310   4.627 -0.3441 -0.3759  0.3551
  104OSM      N10450   3.047   4.408   6.971  0.3123  0.3407 -0.0222
  104OSM    C1510451   3.034   4.271   7.024  0.6814 -0.5895 -0.5860
  104OSM   H15A10452   3.135   4.233   7.022  1.0549  0.2992  0.4695
  104OSM   H15B10453   2.981   4.214   6.949 -0.3071  0.0256 -0.3720
  104OSM   H15C10454   2.997   4.264   7.125  0.4845 -2.0777 -0.7419
  104OSM    C1410455   2.907   4.469   6.958  0.4650  0.1361  0.4522
  104OSM   H14A10456   2.857   4.496   7.049 -3.3640 -0.9848 -1.1361
  104OSM   H14B10457   2.841   4.392   6.920 -1.7987  1.5517  1.3339
  104OSM   H14C10458   2.911   4.557   6.896 -2.5998 -0.0430 -0.1470
  104OSM    C1310459   3.118   4.482   7.084  0.1238  0.1713  0.4129
  104OSM   H13A10460   3.054   4.467   7.170 -0.8953 -0.3678 -0.4301
  104OSM   H13B10461   3.138   4.587   7.064  2.4855  0.0869  1.8920
  104OSM   H13C10462   3.210   4.432   7.111  0.0436 -1.7252 -2.4468
  104OSM    C1210463   3.121   4.407   6.842  0.4756 -0.1434 -0.1489
  104OSM   H12A10464   3.068   4.340   6.776  0.0360 -1.1841  1.2192
  104OSM   H12B10465   3.224   4.378   6.850  0.6089  0.1839 -0.5974
  104OSM    C1110466   3.130   4.540   6.758  0.4456 -0.0484  0.0468
  104OSM   H11A10467   3.204   4.513   6.679  0.8683  1.1045  0.0264
  104OSM   H11B10468   3.178   4.618   6.821  1.1853  0.6891 -1.3687
  104OSM      P10469   2.938   4.527   6.575 -0.1119 -0.4731  0.4324
  104OSM    O1310470   2.850   4.412   6.600 -0.5573  0.3488  0.3490
  104OSM    O1410471   2.876   4.640   6.504 -0.1176 -0.1479 -0.2660
  104OSM    O1110472   3.063   4.475   6.485  0.4629  0.3579 -0.2725
  104OSM    O1210473   3.004   4.584   6.707  0.0144 -0.4751 -0.1003
  104OSM    C1S10474   3.067   4.444   6.346  0.0181 -0.9824  0.0361
  104OSM    H1S10475   3.006   4.523   6.298 -2.0941 -0.3169  3.4963
  104OSM    H1T10476   3.034   4.341   6.322 -0.3542 -1.2791  1.7252
  104OSM     NF10477   3.222   4.440   6.147  0.2715 -0.8567 -0.4254
  104OSM    HNF10478   3.270   4.359   6.114  1.5065 -0.5896  0.6396
  104OSM    C2S10479   3.210   4.444   6.292  0.2234  0.5084 -0.1050
  104OSM    H2S10480   3.261   4.536   6.327 -0.0966  0.6602 -0.0255
  104OSM    C3S10481   3.286   4.325   6.349 -0.0320 -0.0965 -0.4913
  104OSM    H3S10482   3.228   4.235   6.319 -0.8901 -0.8448  2.9156
  104OSM     O310483   3.274   4.300   6.490 -0.3223 -0.2163 -0.2848
  104OSM    HO310484   3.197   4.354   6.508 -1.1592 -1.6397  0.6509
  104OSM    C4S10485   3.425   4.300   6.287  0.3732  0.0178 -0.1544
  104OSM    H4S10486   3.408   4.240   6.196 -0.9070 -0.1637  0.1952
  104OSM    C5S10487   3.552   4.333   6.321  0.2002  0.4778 -0.0153
  104OSM    H5S10488   3.561   4.391   6.414 -2.3388 -0.5852  0.9838
  104OSM    C6S10489   3.684   4.302   6.253 -0.2217  0.0842  0.1375
  104OSM    H6S10490   3.741   4.241   6.326 -2.0830 -2.0200 -0.0695
  104OSM    H6T10491   3.737   4.400   6.247  1.3590 -0.5953  2.0578
  104OSM    C7S10492   3.680   4.215   6.133 -0.4154  0.9854  0.3576
  104OSM    H7S10493   3.614   4.245   6.049 -0.4620 -4.5657 -2.0447
  104OSM    H7T10494   3.652   4.114   6.171  0.6585  0.4859 -0.1251
  104OSM    C8S10495   3.826   4.197   6.064  0.6711 -0.5100  0.2239
  104OSM    H8S10496   3.886   4.132   6.131  1.6097  0.4153  0.3050
  104OSM    H8T10497   3.871   4.299   6.062  0.1331 -0.2633  0.4456
  104OSM    C9S10498   3.818   4.137   5.921 -0.2076 -0.0305 -1.0130
  104OSM    H9S10499   3.748   4.207   5.871  1.7025  1.2640 -2.0266
  104OSM    H9T10500   3.763   4.041   5.929 -0.9942  0.3601 -1.6756
  104OSM   C10S10501   3.947   4.135   5.854 -0.1353 -0.0667 -0.1659
  104OSM   H10S10502   4.031   4.107   5.922  1.4809  0.7639 -1.7367
  104OSM   H10T10503   3.967   4.237   5.815 -0.6532  0.6420  1.3221
  104OSM   C11S10504   3.973   4.037   5.733  0.2012  0.3160  0.0586
  104OSM   H11S10505   3.965   3.934   5.776  0.8364  0.4810  0.5928
  104OSM   H11T10506   4.070   4.065   5.688  0.0013  0.5794 -0.2135
  104OSM   C12S10507   3.871   4.050   5.616  0.2767  0.1141  0.2080
  104OSM   H12S10508   3.849   4.158   5.601 -1.3862  0.3987  3.5943
  104OSM   H12T10509   3.775   4.004   5.646  0.8056 -0.4459  1.0957
  104OSM   C13S10510   3.916   3.991   5.490 -0.1393 -0.2088  0.1760
  104OSM   H13S10511   3.928   3.880   5.491 -1.7630 -0.4054  1.1562
  104OSM   H13T10512   4.016   4.028   5.459  1.3074 -3.0694  1.0662
  104OSM   C14S10513   3.814   4.019   5.379 -1.1696  0.4980 -0.2080
  104OSM   H14S10514   3.774   4.122   5.371 -0.7138  0.6158 -1.0887
  104OSM   H14T10515   3.720   3.964   5.398 -0.8616 -0.0179 -0.1519
  104OSM   C15S10516   3.860   3.977   5.238 -0.5339  0.7421  0.5706
  104OSM   H15S10517   3.885   3.869   5.237 -2.0569  0.3278 -1.3860
  104OSM   H15T10518   3.953   4.027   5.204 -0.8056  1.1873  0.4767
  104OSM   C16S10519   3.743   4.005   5.134 -0.1929  0.0226  0.0633
  104OSM   H16S10520   3.727   4.115   5.137 -0.5919 -0.0250 -0.2899
  104OSM   H16T10521   3.648   3.956   5.164  0.6919 -1.0242  1.2575
  104OSM   C17S10522   3.786   3.986   4.981  0.7247 -0.2367 -0.4455
  104OSM   H17S10523   3.780   3.878   4.954 -1.8835 -0.7665  1.7849
  104OSM   H17T10524   3.889   4.022   4.960  1.2200  0.4322  2.6359
  104OSM   C18S10525   3.694   4.056   4.879  1.0544  0.5498  0.4646
  104OSM   H18S10526   3.720   4.032   4.774 -0.2883 -1.4163  0.5412
  104OSM   H18T10527   3.696   4.166   4.898 -2.7041  0.6131  1.3878
  104OSM   H18U10528   3.591   4.023   4.905  0.8366  0.0790 -0.9226
  104OSM    C1F10529   3.159   4.539   6.075 -0.1286 -0.7239 -0.2441
  104OSM     OF10530   3.129   4.650   6.129 -0.5224  0.3657 -0.0899
  104OSM    C2F10531   3.139   4.521   5.928 -0.6576  0.3547  0.3983
  104OSM    H2F10532   3.174   4.428   5.880  0.5878  1.0655 -0.1002
  104OSM    H2G10533   3.193   4.602   5.875  0.4577  0.2698  1.3491
  104OSM    C3F10534   2.987   4.535   5.891 -0.9194  0.0784 -0.8778
  104OSM    H3F10535   2.946   4.627   5.937  0.1962 -0.8747  2.3952
  104OSM    H3G10536   2.928   4.451   5.935  0.3846 -0.1593  0.5406
  104OSM    C4F10537   2.969   4.525   5.743  0.6263 -0.3030 -0.0948
  104OSM    H4F10538   3.037   4.450   5.696 -0.4938 -0.9629 -0.7235
  104OSM    H4G10539   3.001   4.622   5.699 -0.8580  0.2413 -0.0419
  104OSM    C5F10540   2.821   4.507   5.705  0.2650  0.1125  0.0293
  104OSM    H5F10541   2.771   4.600   5.739  0.3858 -0.2841  1.3836
  104OSM    H5G10542   2.767   4.415   5.737  0.3573 -0.6709 -1.9422
  104OSM    C6F10543   2.802   4.500   5.549 -0.2518  0.6218  0.1016
  104OSM    H6F10544   2.868   4.584   5.517 -0.3600 -0.4340 -3.3486
  104OSM    H6G10545   2.698   4.528   5.522 -0.1518  0.4007 -0.5370
  104OSM    C7F10546   2.855   4.373   5.479  0.3707 -0.0417  0.3628
  104OSM    H7F10547   2.814   4.280   5.524  1.8858  0.3391  2.6786
  104OSM    H7G10548   2.965   4.373   5.492  0.2428 -0.0983  1.6252
  104OSM    C8F10549   2.838   4.375   5.325 -0.3871 -0.5251 -0.9708
  104OSM    H8F10550   2.908   4.303   5.277 -1.5778 -1.2284 -1.6852
  104OSM    H8G10551   2.872   4.475   5.288 -1.2443  0.1030 -0.1083
  104OSM    C9F10552   2.705   4.340   5.265  0.3003  0.4527  0.1649
  104OSM    H9F10553   2.631   4.404   5.314 -0.3414  0.4643 -0.7992
  104OSM   C10F10554   2.666   4.253   5.171  0.1252  0.2191 -0.4309
  104OSM   H10F10555   2.559   4.252   5.144  0.1656 -0.0435 -0.5842
  104OSM   C11F10556   2.741   4.153   5.093  0.3876 -0.0887 -0.3648
  104OSM   H11F10557   2.698   4.054   5.116  0.1145 -0.5959 -2.7948
  104OSM   H11G10558   2.845   4.140   5.132  0.1529 -1.2153 -0.0994
  104OSM   C12F10559   2.743   4.180   4.938  0.0411  0.9193 -0.5284
  104OSM   H12F10560   2.814   4.262   4.911 -0.0680  1.2898  0.2856
  104OSM   H12G10561   2.639   4.203   4.908 -1.2649 -1.6091  1.6591
  104OSM   C13F10562   2.789   4.051   4.870  0.2039  0.0645  0.4178
  104OSM   H13F10563   2.730   3.968   4.915  2.8327 -2.6129 -0.7910
  104OSM   H13G10564   2.892   4.012   4.884  0.8473  1.7505  0.6481
  104OSM   C14F10565   2.741   4.059   4.721  0.6697 -0.2269  0.3199
  104OSM   H14F10566   2.785   4.145   4.666 -0.6611  0.4998  0.3666
  104OSM   H14G10567   2.631   4.073   4.717  0.7753  0.4568 -0.4432
  104OSM   C15F10568   2.775   3.926   4.644  0.3448 -0.5431 -0.1322
  104OSM   H15F10569   2.751   3.845   4.717  0.4721 -0.9378 -0.5221
  104OSM   H15G10570   2.885   3.919   4.642  0.4841  0.7450  1.3468
  104OSM   C16F10571   2.717   3.920   4.501  0.1616 -0.1784  0.3710
  104OSM   H16F10572   2.776   3.985   4.433 -1.4336  0.5251 -0.3908
  104OSM   H16G10573   2.614   3.961   4.499 -0.8126 -2.3783 -2.2330
  104OSM   C17F10574   2.707   3.786   4.425 -0.5037 -0.5018 -0.3370
  104OSM   H17F10575   2.671   3.712   4.500  1.4882 -2.3044 -1.0564
  104OSM   H17G10576   2.809   3.751   4.399 -0.4328  0.9547 -2.1902
  104OSM   C18F10577   2.627   3.789   4.298  0.3266  0.6565  0.0585
  104OSM   H18F10578   2.624   3.689   4.249  0.1545  1.6779 -2.1269
  104OSM   H18G10579   2.673   3.859   4.226 -0.3373 -1.7705 -2.9125
  104OSM   H18H10580   2.530   3.836   4.324  1.1671  0.0828  5.5560
  105OSM      N10581   4.382   6.390   6.593  0.7799 -0.1610 -0.7448
  105OSM    C1510582   4.365   6.531   6.634 -0.9880 -0.2150 -0.2447
  105OSM   H15A10583   4.278   6.567   6.580 -0.3350  1.0511 -0.4989
  105OSM   H15B10584   4.451   6.586   6.599 -1.3983 -0.4820 -1.7633
  105OSM   H15C10585   4.364   6.540   6.741 -1.8772 -2.0156 -0.0585
  105OSM    C1410586   4.500   6.320   6.659  0.0157 -0.7432 -0.7411
  105OSM   H14A10587   4.506   6.213   6.645  0.1048 -0.6689 -1.3206
  105OSM   H14B10588   4.493   6.333   6.766 -1.3692  0.5285 -0.9451
  105OSM   H14C10589   4.591   6.371   6.628 -0.8256  2.1911  1.1869
  105OSM    C1310590   4.258   6.309   6.636 -0.5818 -0.1288  0.7523
  105OSM   H13A10591   4.251   6.308   6.743  0.1678  0.2784  0.8125
  105OSM   H13B10592   4.247   6.210   6.594 -0.7399  0.7303 -1.4027
  105OSM   H13C10593   4.175   6.363   6.594 -0.9568 -2.0503 -1.2134
  105OSM    C1210594   4.391   6.380   6.439  0.8217 -0.5167 -0.4498
  105OSM   H12A10595   4.473   6.446   6.414  0.2277  0.1654 -0.6327
  105OSM   H12B10596   4.298   6.425   6.407  0.4264 -1.5723 -0.8271
  105OSM    C1110597   4.391   6.235   6.375  0.1252 -0.7625  0.2193
  105OSM   H11A10598   4.475   6.179   6.421  0.4025  0.7406  1.6254
  105OSM   H11B10599   4.416   6.236   6.267 -2.5577  0.8124 -0.4792
  105OSM      P10600   4.144   6.208   6.292 -0.5433 -0.4098  0.4028
  105OSM    O1310601   4.029   6.117   6.311  1.0761 -0.7353  0.8714
  105OSM    O1410602   4.129   6.355   6.293 -0.1072  0.1334 -0.5454
  105OSM    O1110603   4.203   6.157   6.155 -0.1884  0.1652  0.4619
  105OSM    O1210604   4.257   6.180   6.387  0.3591  0.3071 -0.3506
  105OSM    C1S10605   4.254   6.024   6.126  0.0825  1.1467  0.4177
  105OSM    H1S10606   4.188   5.943   6.163  0.5488  0.3370 -0.5087
  105OSM    H1T10607   4.356   6.017   6.170  1.0105 -0.0103 -1.7682
  105OSM     NF10608   4.279   5.856   5.935 -0.3708  0.7635 -0.5465
  105OSM    HNF10609   4.366   5.808   5.926  0.2998  1.9234 -0.3633
  105OSM    C2S10610   4.273   5.998   5.971 -0.2494  0.8335 -0.3323
  105OSM    H2S10611   4.176   6.035   5.932 -0.3954  0.2103 -0.5699
  105OSM    C3S10612   4.392   6.085   5.931 -0.2512 -0.1988 -0.3551
  105OSM    H3S10613   4.487   6.043   5.969 -0.6137  0.7724  1.8061
  105OSM     O310614   4.396   6.216   5.987 -0.2709 -0.3269 -0.0875
  105OSM    HO310615   4.327   6.208   6.053  0.1973  0.6278  0.5259
  105OSM    C4S10616   4.387   6.093   5.778 -0.7936 -0.2538 -0.6425
  105OSM    H4S10617   4.433   6.001   5.739 -1.4331 -0.5517 -0.7190
  105OSM    C5S10618   4.329   6.184   5.697 -1.0758 -0.6537  0.0254
  105OSM    H5S10619   4.280   6.279   5.725  0.0699  0.5678 -1.9294
  105OSM    C6S10620   4.324   6.174   5.547  0.3673  0.2127  0.6893
  105OSM    H6S10621   4.392   6.247   5.497 -0.6642  2.5172  2.4960
  105OSM    H6T10622   4.222   6.202   5.513  0.3377  0.4213  0.9459
  105OSM    C7S10623   4.355   6.033   5.491  0.0257 -0.0980 -0.6784
  105OSM    H7S10624   4.288   5.972   5.554  0.4724  1.4117  1.3362
  105OSM    H7T10625   4.461   6.001   5.503  0.1614  0.6122  0.0976
  105OSM    C8S10626   4.296   6.016   5.345  0.0316  0.2150 -0.3776
  105OSM    H8S10627   4.333   6.100   5.283 -3.6087  1.4660 -1.1116
  105OSM    H8T10628   4.185   6.025   5.346 -0.3231 -2.6315  2.6274
  105OSM    C9S10629   4.337   5.880   5.290 -0.1907  1.0355  0.0469
  105OSM    H9S10630   4.337   5.800   5.367  1.9140  0.3344 -0.6250
  105OSM    H9T10631   4.446   5.877   5.271  0.6469 -2.5974  3.8385
  105OSM   C10S10632   4.268   5.833   5.160  0.3769 -0.5667  0.5953
  105OSM   H10S10633   4.159   5.814   5.173 -0.1450  0.6981 -1.4297
  105OSM   H10T10634   4.303   5.730   5.135 -2.7630 -1.3479 -1.1401
  105OSM   C11S10635   4.285   5.929   5.041 -0.0713 -0.0223 -0.6023
  105OSM   H11S10636   4.393   5.934   5.019  0.1795  0.5230  0.7006
  105OSM   H11T10637   4.246   6.029   5.069 -1.5753 -0.7528  0.0672
  105OSM   C12S10638   4.209   5.873   4.919 -0.0046  0.3140 -0.2098
  105OSM   H12S10639   4.101   5.865   4.943 -0.1410  0.2114 -0.8287
  105OSM   H12T10640   4.247   5.778   4.877 -1.0374  0.2277 -0.9787
  105OSM   C13S10641   4.214   5.980   4.804 -0.5368 -0.5169 -0.1708
  105OSM   H13S10642   4.315   5.962   4.761 -0.4842  0.8387 -0.6989
  105OSM   H13T10643   4.226   6.084   4.842  0.2294 -0.6213 -0.1119
  105OSM   C14S10644   4.117   5.966   4.689  0.0468  0.0640  0.7243
  105OSM   H14S10645   4.157   6.032   4.610  0.0540 -1.0257 -0.2199
  105OSM   H14T10646   4.010   5.983   4.715  0.4605  1.3011  1.7357
  105OSM   C15S10647   4.108   5.829   4.621  0.2136  0.0588 -0.5971
  105OSM   H15S10648   4.062   5.754   4.690 -0.9995 -0.0845 -1.5177
  105OSM   H15T10649   4.208   5.795   4.588  0.4622 -0.4937  0.6575
  105OSM   C16S10650   4.015   5.840   4.505  0.1673  0.2759 -0.2534
  105OSM   H16S10651   4.054   5.931   4.453 -1.1727  0.6181 -0.6994
  105OSM   H16T10652   3.910   5.862   4.534 -0.6722 -0.8002 -2.3193
  105OSM   C17S10653   4.030   5.713   4.417  0.5497 -0.4848  0.1037
  105OSM   H17S10654   3.949   5.723   4.341  0.0020 -1.2180  0.5675
  105OSM   H17T10655   4.018   5.621   4.479  1.3771 -0.9056 -0.3515
  105OSM   C18S10656   4.164   5.697   4.346 -0.3909 -0.2596 -0.5598
  105OSM   H18S10657   4.196   5.793   4.298  0.3258  0.0163  0.4349
  105OSM   H18T10658   4.163   5.618   4.268  2.4669 -1.4328  0.4771
  105OSM   H18U10659   4.233   5.666   4.427  0.0701 -0.5933 -1.0722
  105OSM    C1F10660   4.168   5.783   5.932  0.0906 -0.1518 -0.0846
  105OSM     OF10661   4.054   5.832   5.931 -0.0214 -0.3353 -0.1976
  105OSM    C2F10662   4.189   5.638   5.962  0.5335 -0.3316 -0.3811
  105OSM    H2F10663   4.117   5.598   6.036 -0.8644  0.3524 -1.3305
  105OSM    H2G10664   4.292   5.627   6.001  0.1555  0.7008  0.9750
  105OSM    C3F10665   4.179   5.549   5.839 -0.5331 -0.1057  0.2513
  105OSM    H3F10666   4.074   5.556   5.803  0.5671  0.7332 -3.1427
  105OSM    H3G10667   4.189   5.445   5.877 -0.2126 -0.2224 -0.1480
  105OSM    C4F10668   4.265   5.577   5.718  0.4366  0.5735 -0.9177
  105OSM    H4F10669   4.370   5.584   5.752 -0.7453  2.0643  2.9048
  105OSM    H4G10670   4.246   5.675   5.668  0.4551  2.5617  2.6580
  105OSM    C5F10671   4.255   5.467   5.609 -0.0939  0.3505 -0.4536
  105OSM    H5F10672   4.160   5.461   5.553  0.9952 -1.8927 -2.2327
  105OSM    H5G10673   4.255   5.371   5.664 -0.1854  0.2447 -0.6404
  105OSM    C6F10674   4.374   5.468   5.504  0.4821  0.1750 -0.0011
  105OSM    H6F10675   4.473   5.463   5.554  0.8442 -1.8109 -0.8201
  105OSM    H6G10676   4.368   5.567   5.454 -1.3575  1.0855  1.8418
  105OSM    C7F10677   4.378   5.349   5.404 -0.4165  0.0243 -0.2094
  105OSM    H7F10678   4.417   5.259   5.455  2.3488  0.5338 -1.2451
  105OSM    H7G10679   4.454   5.370   5.326 -0.4080 -1.7282 -0.7062
  105OSM    C8F10680   4.245   5.312   5.335 -0.6420 -0.5608  0.0541
  105OSM    H8F10681   4.178   5.264   5.410 -1.1355 -0.8151 -0.5462
  105OSM    H8G10682   4.264   5.242   5.251  0.4288 -0.2931  0.0639
  105OSM    C9F10683   4.185   5.429   5.269  0.1012 -0.0501  0.4212
  105OSM    H9F10684   4.104   5.476   5.328 -0.2942 -1.9638  1.5038
  105OSM   C10F10685   4.200   5.475   5.150  0.3369  0.0723 -0.5538
  105OSM   H10F10686   4.140   5.564   5.125 -2.2990 -1.2955  0.5207
  105OSM   C11F10687   4.278   5.430   5.035  0.2173  0.6038  0.3234
  105OSM   H11F10688   4.314   5.326   5.046 -1.5407 -0.0788 -0.0739
  105OSM   H11G10689   4.371   5.491   5.027  0.7244  0.0899  1.8308
  105OSM   C12F10690   4.197   5.432   4.906  0.1689 -0.9968 -0.4015
  105OSM   H12F10691   4.164   5.537   4.893  0.9365 -0.8330 -1.0666
  105OSM   H12G10692   4.107   5.370   4.924 -2.2279  2.5896  1.1153
  105OSM   C13F10693   4.267   5.374   4.786  0.3960  0.5760 -0.5514
  105OSM   H13F10694   4.293   5.271   4.820 -2.4122 -0.3424 -0.9881
  105OSM   H13G10695   4.369   5.416   4.769  1.5679  0.1043  3.9908
  105OSM   C14F10696   4.187   5.369   4.651  0.3247  0.2357  0.1920
  105OSM   H14F10697   4.189   5.464   4.594  2.2225 -0.0161 -0.2275
  105OSM   H14G10698   4.084   5.368   4.694 -0.6882  4.9989 -1.5029
  105OSM   C15F10699   4.223   5.254   4.557  0.5147  0.0045  0.1797
  105OSM   H15F10700   4.217   5.157   4.611  3.6378  0.4516  1.5898
  105OSM   H15G10701   4.322   5.265   4.507 -0.6436 -0.2262 -2.3074
  105OSM   C16F10702   4.120   5.233   4.443 -0.0810  0.1480 -0.5204
  105OSM   H16F10703   4.096   5.330   4.393 -0.8845 -0.3083 -1.0510
  105OSM   H16G10704   4.028   5.190   4.489  0.6789 -1.3902 -0.3903
  105OSM   C17F10705   4.172   5.140   4.330  0.1824 -0.5132 -0.1155
  105OSM   H17F10706   4.217   5.049   4.375 -0.4804 -1.8127 -1.9623
  105OSM   H17G10707   4.247   5.188   4.264 -1.9767  1.5709 -1.2236
  105OSM   C18F10708   4.043   5.094   4.250 -0.0831 -0.1795 -0.5513
  105OSM   H18F10709   3.989   5.183   4.210 -2.1439 -0.9694  0.3625
  105OSM   H18G10710   3.971   5.038   4.314  1.0416 -1.3264 -0.2489
  105OSM   H18H10711   4.074   5.023   4.171  1.1136 -2.6566  1.9838
  106OSM      N10712   0.719   2.076   6.138  0.3681 -0.0028 -0.0478
  106OSM    C1510713   0.684   2.092   5.996  0.1031 -0.0594 -0.4570
  106OSM   H15A10714   0.741   2.176   5.958  0.2579  0.3976  0.7285
  106OSM   H15B10715   0.580   2.109   5.976  0.1021  0.8190  0.2064
  106OSM   H15C10716   0.699   2.005   5.934 -2.3156 -1.1919  0.4290
  106OSM    C1410717   0.699   2.209   6.205 -0.0072 -0.7672 -0.3175
  106OSM   H14A10718   0.689   2.203   6.312  0.9944 -2.2399 -0.2792
  106OSM   H14B10719   0.606   2.255   6.174  0.1062 -0.8827 -0.8342
  106OSM   H14C10720   0.786   2.273   6.194 -0.2131 -0.2391  0.9286
  106OSM    C1310721   0.622   1.983   6.207 -0.6110  0.4088 -0.0334
  106OSM   H13A10722   0.645   1.980   6.312  3.1444  2.5560 -0.5963
  106OSM   H13B10723   0.630   1.882   6.169  0.1576  0.0981  0.9085
  106OSM   H13C10724   0.520   2.019   6.204 -0.5281  0.7538  1.0413
  106OSM    C1210725   0.852   2.023   6.144 -0.1231 -0.5368  0.7482
  106OSM   H12A10726   0.855   1.923   6.104  0.1649 -1.2349  2.4119
  106OSM   H12B10727   0.881   2.007   6.247  0.3662  1.1617  0.9033
  106OSM    C1110728   0.959   2.112   6.081  0.1996 -0.3104 -0.2984
  106OSM   H11A10729   0.942   2.139   5.975  0.8401  2.8221  0.2787
  106OSM   H11B10730   1.052   2.053   6.089 -0.2650 -0.8322  2.0646
  106OSM      P10731   1.070   2.261   6.280 -0.3075  0.0929 -0.0617
  106OSM    O1310732   0.990   2.306   6.397 -0.3527  0.5926  0.7462
  106OSM    O1410733   1.167   2.146   6.298 -0.3344 -0.3564 -0.2198
  106OSM    O1110734   1.154   2.383   6.234  0.2029 -0.2231  0.4099
  106OSM    O1210735   0.978   2.238   6.155 -0.3104  0.2305 -0.0730
  106OSM    C1S10736   1.289   2.390   6.181  1.3456 -0.3607  0.9447
  106OSM    H1S10737   1.360   2.323   6.233  1.6058 -0.0274  1.0220
  106OSM    H1T10738   1.321   2.496   6.183 -2.6817  1.0161  1.4810
  106OSM     NF10739   1.440   2.303   6.000 -0.1194  0.5424  0.1008
  106OSM    HNF10740   1.485   2.384   5.962  1.6415  0.2206  1.3640
  106OSM    C2S10741   1.305   2.340   6.030 -0.1868 -0.1279  0.0095
  106OSM    H2S10742   1.259   2.240   6.015  1.6017 -0.6319 -2.9741
  106OSM    C3S10743   1.237   2.446   5.931 -0.3453 -0.3036  0.3887
  106OSM    H3S10744   1.279   2.547   5.951 -2.3280  0.3344  1.6864
  106OSM     O310745   1.095   2.466   5.950  0.1322  0.1627 -0.4414
  106OSM    HO310746   1.083   2.412   6.029  0.8609 -0.5923 -0.8350
  106OSM    C4S10747   1.264   2.408   5.792  0.6073 -0.5797  0.0436
  106OSM    H4S10748   1.363   2.443   5.759 -0.3864  1.3027 -1.0792
  106OSM    C5S10749   1.183   2.341   5.704 -0.0062 -0.4892 -0.3379
  106OSM    H5S10750   1.083   2.315   5.741 -0.2469  0.2662 -0.4396
  106OSM    C6S10751   1.218   2.308   5.564  0.3562  0.1857 -0.2950
  106OSM    H6S10752   1.316   2.355   5.541  0.3321  1.9898  2.6767
  106OSM    H6T10753   1.138   2.343   5.495  1.5547  0.6963 -1.4504
  106OSM    C7S10754   1.238   2.158   5.550 -0.2655  0.1965  0.6446
  106OSM    H7S10755   1.143   2.108   5.578 -0.9201  0.5856 -0.7884
  106OSM    H7T10756   1.317   2.134   5.625  1.8691  1.6276 -1.0040
  106OSM    C8S10757   1.273   2.115   5.408  0.9045 -0.3166  0.3144
  106OSM    H8S10758   1.330   2.020   5.400 -0.0564 -0.7452 -2.4727
  106OSM    H8T10759   1.333   2.192   5.356 -1.4932  2.1300  0.9913
  106OSM    C9S10760   1.149   2.087   5.312  0.0303 -0.1997 -0.1588
  106OSM    H9S10761   1.090   2.181   5.311 -0.3938 -0.4470  0.5256
  106OSM    H9T10762   1.095   1.999   5.353 -0.5211  1.0251  1.9036
  106OSM   C10S10763   1.199   2.062   5.165  0.6692 -0.0100  0.2213
  106OSM   H10S10764   1.267   1.975   5.171  2.1045  1.0216 -0.4279
  106OSM   H10T10765   1.250   2.152   5.123 -0.0505 -0.2443 -1.2372
  106OSM   C11S10766   1.074   2.020   5.084  0.0155 -0.0105 -0.0809
  106OSM   H11S10767   1.108   2.012   4.979 -1.0537 -1.1542 -0.3608
  106OSM   H11T10768   0.996   2.097   5.103  0.4729  0.4092  0.1411
  106OSM   C12S10769   1.016   1.882   5.127  0.4407  0.6641 -0.4659
  106OSM   H12S10770   0.930   1.854   5.062  1.7339 -2.1263 -1.1518
  106OSM   H12T10771   0.980   1.875   5.232 -1.1738 -0.9445 -1.0794
  106OSM   C13S10772   1.104   1.756   5.105 -0.3991 -0.1509 -0.0008
  106OSM   H13S10773   1.038   1.673   5.138 -0.5062 -0.4386 -0.8923
  106OSM   H13T10774   1.197   1.767   5.165 -0.3730 -0.5693  0.0368
  106OSM   C14S10775   1.136   1.742   4.958 -0.7478  0.0316  0.1105
  106OSM   H14S10776   1.209   1.822   4.933 -2.4604  2.8392  3.3186
  106OSM   H14T10777   1.051   1.772   4.893 -1.1340  0.0877  0.6385
  106OSM   C15S10778   1.211   1.614   4.939 -0.2543  1.4016  0.0379
  106OSM   H15S10779   1.153   1.523   4.967 -0.3982  0.7850 -2.1399
  106OSM   H15T10780   1.305   1.626   4.997 -0.2111  2.7049 -0.2763
  106OSM   C16S10781   1.265   1.601   4.790 -0.2049  0.8677  0.2720
  106OSM   H16S10782   1.368   1.560   4.795  0.9362  3.1535 -2.2035
  106OSM   H16T10783   1.274   1.699   4.738  0.7309  1.4404  1.4547
  106OSM   C17S10784   1.181   1.510   4.706  0.1213  0.6014 -0.5867
  106OSM   H17S10785   1.152   1.418   4.761 -1.1088  0.1639 -1.8948
  106OSM   H17T10786   1.230   1.480   4.611  0.9509  1.0591 -0.3141
  106OSM   C18S10787   1.053   1.587   4.666  0.0428  0.0514  0.1762
  106OSM   H18S10788   0.974   1.537   4.604 -0.7145  0.1661  1.0327
  106OSM   H18T10789   1.090   1.678   4.614  0.7149  0.1663  0.8455
  106OSM   H18U10790   1.002   1.629   4.755 -1.2656  2.0521 -1.4190
  106OSM    C1F10791   1.515   2.199   6.040  0.0474 -0.0996 -1.3605
  106OSM     OF10792   1.474   2.118   6.124 -0.2292  0.4671  0.6838
  106OSM    C2F10793   1.658   2.184   5.998 -0.1495  0.4788  0.1875
  106OSM    H2F10794   1.700   2.088   6.035  0.2527 -0.5834 -2.7046
  106OSM    H2G10795   1.713   2.275   6.029  0.6703  0.3447 -0.8213
  106OSM    C3F10796   1.670   2.172   5.846 -0.1715  0.6303 -0.1580
  106OSM    H3F10797   1.778   2.161   5.825 -0.6077  0.4399 -2.6516
  106OSM    H3G10798   1.629   2.265   5.799 -1.0164  2.2891  3.5129
  106OSM    C4F10799   1.590   2.048   5.796  0.1953 -0.5584  0.3111
  106OSM    H4F10800   1.480   2.066   5.787  0.4778  0.3815 -1.7993
  106OSM    H4G10801   1.597   1.981   5.884  1.1280  1.9062  2.2418
  106OSM    C5F10802   1.643   1.988   5.669 -0.2791  0.0931  0.4873
  106OSM    H5F10803   1.597   1.888   5.652  0.8550 -0.1745 -1.3168
  106OSM    H5G10804   1.753   1.971   5.668 -0.0750  1.2819 -0.1245
  106OSM    C6F10805   1.618   2.067   5.540  1.1103  0.5389  0.1656
  106OSM    H6F10806   1.660   2.169   5.547  0.9599  0.8478 -2.5573
  106OSM    H6G10807   1.509   2.081   5.525  0.8732  0.1029  1.3728
  106OSM    C7F10808   1.681   1.996   5.416  0.3872 -0.7561  0.1713
  106OSM    H7F10809   1.677   1.888   5.440  4.4107 -1.2759 -0.8418
  106OSM    H7G10810   1.786   2.032   5.406 -0.2120  2.1747  2.7665
  106OSM    C8F10811   1.607   2.012   5.282  0.2541  0.1666 -0.7516
  106OSM    H8F10812   1.505   1.971   5.289  0.4518 -0.4343 -1.3397
  106OSM    H8G10813   1.666   1.945   5.215  1.6835 -2.3602  2.7170
  106OSM    C9F10814   1.605   2.153   5.243  0.3034 -0.0802 -0.2938
  106OSM    H9F10815   1.597   2.228   5.322 -2.2222  0.0318 -0.5934
  106OSM   C10F10816   1.601   2.192   5.115  0.3475  0.4212  0.5389
  106OSM   H10F10817   1.605   2.300   5.095 -3.1609  0.7092  0.7989
  106OSM   C11F10818   1.586   2.102   4.990  0.6329  0.6384 -0.1604
  106OSM   H11F10819   1.558   1.996   5.010  0.3250  0.4519 -1.4626
  106OSM   H11G10820   1.684   2.089   4.941  1.0791  3.5769 -0.2451
  106OSM   C12F10821   1.477   2.162   4.887 -0.4208  0.1323 -0.0048
  106OSM   H12F10822   1.501   2.263   4.849  4.3454 -0.3839  0.9635
  106OSM   H12G10823   1.378   2.156   4.938 -0.2102 -1.7301  0.2743
  106OSM   C13F10824   1.457   2.075   4.768  0.9255  1.0232  0.0523
  106OSM   H13F10825   1.456   1.973   4.812 -1.5911  0.3901 -1.2600
  106OSM   H13G10826   1.545   2.079   4.700  0.4555  1.0618 -0.5677
  106OSM   C14F10827   1.334   2.115   4.689  0.2969  0.3376  0.5722
  106OSM   H14F10828   1.344   2.220   4.653  0.9274  0.0690 -0.0813
  106OSM   H14G10829   1.236   2.112   4.740 -0.1053  3.4755  0.1498
  106OSM   C15F10830   1.334   2.049   4.550 -0.2111  1.0220  0.1022
  106OSM   H15F10831   1.310   1.941   4.559  3.1810  0.0236 -1.1079
  106OSM   H15G10832   1.429   2.058   4.492  1.2263  0.4280  2.2350
  106OSM   C16F10833   1.233   2.114   4.456  0.1099  0.0257 -0.5896
  106OSM   H16F10834   1.262   2.217   4.427  1.8525 -0.5224 -0.9128
  106OSM   H16G10835   1.132   2.112   4.502 -0.3457 -0.7106 -1.5657
  106OSM   C17F10836   1.223   2.045   4.323  0.2718  0.3864 -0.0608
  106OSM   H17F10837   1.183   1.944   4.348  0.2229  0.7438  1.3770
  106OSM   H17G10838   1.326   2.026   4.285 -0.6783 -2.8439 -1.3568
  106OSM   C18F10839   1.128   2.113   4.218  0.1538  0.2202 -1.2428
  106OSM   H18F10840   1.161   2.215   4.187 -1.5629  0.5892 -1.9941
  106OSM   H18G10841   1.025   2.117   4.258  0.2739  1.4081 -1.0035
  106OSM   H18H10842   1.138   2.048   4.128  3.2547  1.3494 -1.8490
  107OSM      N10843   1.870   0.610   6.780 -0.0350 -0.3848 -0.0011
  107OSM    C1510844   1.749   0.583   6.867  0.3330 -0.0164  0.4788
  107OSM   H15A10845   1.742   0.480   6.898 -0.1450 -0.2654 -0.4164
  107OSM   H15B10846   1.666   0.605   6.801  1.0873  3.6393  0.5263
  107OSM   H15C10847   1.744   0.641   6.958  0.5636  0.7115  0.0389
  107OSM    C1410848   2.003   0.581   6.852 -0.2838 -0.1384 -0.3706
  107OSM   H14A10849   2.019   0.639   6.942  0.5784  1.0034 -1.2289
  107OSM   H14B10850   2.089   0.606   6.792  0.2741 -0.0274  0.4557
  107OSM   H14C10851   2.016   0.482   6.892  0.6513 -0.6351 -1.8538
  107OSM    C1310852   1.864   0.512   6.667 -0.1624  0.3280  0.0005
  107OSM   H13A10853   1.879   0.418   6.718 -0.6950  0.9039  1.2704
  107OSM   H13B10854   1.938   0.534   6.591  0.1675  1.3384  0.6023
  107OSM   H13C10855   1.768   0.497   6.619  0.1396 -0.3319 -0.4161
  107OSM    C1210856   1.869   0.755   6.727 -0.0191 -0.8084 -0.2376
  107OSM   H12A10857   1.900   0.823   6.805 -0.3284  2.2696 -2.5968
  107OSM   H12B10858   1.770   0.796   6.707  0.3901  0.6284  0.5166
  107OSM    C1110859   1.963   0.779   6.608  0.6771  0.0205 -0.9017
  107OSM   H11A10860   1.939   0.885   6.584  1.1201  0.9918  2.4164
  107OSM   H11B10861   1.942   0.710   6.524  2.7552 -0.2931 -1.2203
  107OSM      P10862   2.194   0.876   6.695 -0.0958  0.0879 -0.1247
  107OSM    O1310863   2.142   0.931   6.823  0.2145  0.6245  0.6192
  107OSM    O1410864   2.340   0.837   6.694 -0.4621 -0.2835 -0.2543
  107OSM    O1110865   2.183   0.997   6.593 -0.7063 -0.2633 -0.1998
  107OSM    O1210866   2.097   0.765   6.635 -0.1465  0.0535  0.6863
  107OSM    C1S10867   2.197   0.976   6.448 -0.3383 -0.3418 -0.6844
  107OSM    H1S10868   2.118   0.901   6.426 -0.6200 -0.0170 -0.7987
  107OSM    H1T10869   2.300   0.937   6.435  0.9521  1.6689  2.3943
  107OSM     NF10870   2.198   1.067   6.236 -0.1753  0.0433 -0.0020
  107OSM    HNF10871   2.289   1.092   6.202 -0.2138 -0.4730 -0.5097
  107OSM    C2S10872   2.163   1.102   6.373 -0.6037  0.4424  0.3274
  107OSM    H2S10873   2.054   1.117   6.393 -0.7051  0.7279 -0.4266
  107OSM    C3S10874   2.226   1.238   6.424 -0.3830 -0.4306  0.2042
  107OSM    H3S10875   2.336   1.236   6.442 -0.7470  0.9827  3.1030
  107OSM     O310876   2.180   1.273   6.553  0.2225  0.1438  0.1626
  107OSM    HO310877   2.121   1.202   6.581  2.4699 -0.4690  3.9512
  107OSM    C4S10878   2.183   1.353   6.335 -0.0220  0.0754 -0.2467
  107OSM    H4S10879   2.082   1.391   6.356  1.2069  3.4888  0.0650
  107OSM    C5S10880   2.252   1.396   6.230 -0.5514  0.3155 -0.5176
  107OSM    H5S10881   2.342   1.337   6.208  0.3056  0.6350  1.9001
  107OSM    C6S10882   2.219   1.510   6.135  0.8466 -0.4169  0.1675
  107OSM    H6S10883   2.307   1.577   6.127  1.4877 -1.1594  0.7713
  107OSM    H6T10884   2.127   1.567   6.162  0.1524 -1.1615 -0.5869
  107OSM    C7S10885   2.198   1.448   5.993  0.0288 -0.2863 -0.4714
  107OSM    H7S10886   2.145   1.526   5.934  1.0322  0.2068 -0.7360
  107OSM    H7T10887   2.124   1.365   5.993 -0.9320  0.5432 -1.4735
  107OSM    C8S10888   2.326   1.408   5.923 -0.4834  0.1868 -0.1924
  107OSM    H8S10889   2.379   1.324   5.972 -0.5238 -0.5727 -1.4217
  107OSM    H8T10890   2.391   1.499   5.921 -2.5682  2.0344  3.9976
  107OSM    C9S10891   2.318   1.363   5.779 -0.3795 -0.6874  0.1981
  107OSM    H9S10892   2.408   1.402   5.725 -0.7997 -1.5442 -1.1744
  107OSM    H9T10893   2.232   1.416   5.732  0.0202 -0.4900 -0.3248
  107OSM   C10S10894   2.289   1.212   5.763 -0.6844  0.5213 -0.1655
  107OSM   H10S10895   2.192   1.187   5.810 -0.6941  1.4790  0.3403
  107OSM   H10T10896   2.369   1.154   5.813  0.5289  2.4568  0.2565
  107OSM   C11S10897   2.274   1.157   5.621  0.9791  0.0030  0.4825
  107OSM   H11S10898   2.178   1.193   5.577  0.0899 -0.8529  1.6579
  107OSM   H11T10899   2.253   1.048   5.630 -1.5661  0.4810  1.2241
  107OSM   C12S10900   2.379   1.173   5.515  0.6150 -0.1741  0.3727
  107OSM   H12S10901   2.475   1.169   5.570  1.4458  2.1217 -0.7969
  107OSM   H12T10902   2.380   1.278   5.479 -1.0987 -0.2521  0.0171
  107OSM   C13S10903   2.380   1.076   5.397  0.4515  0.5650  0.6075
  107OSM   H13S10904   2.314   1.112   5.315  0.6534  0.1318  0.2488
  107OSM   H13T10905   2.341   0.975   5.425  1.4011  0.1634  0.5138
  107OSM   C14S10906   2.519   1.038   5.335  0.4152  0.5836 -0.1636
  107OSM   H14S10907   2.580   1.131   5.335 -1.9347  2.3128 -2.9527
  107OSM   H14T10908   2.519   1.012   5.227 -0.1778  1.2717 -0.3387
  107OSM   C15S10909   2.593   0.937   5.412  0.7195 -0.4426 -0.3576
  107OSM   H15S10910   2.690   0.922   5.360  0.5871  3.6715 -2.1244
  107OSM   H15T10911   2.531   0.845   5.403 -0.9326  0.4858  0.9218
  107OSM   C16S10912   2.614   0.964   5.561 -0.0895 -0.6759 -0.7944
  107OSM   H16S10913   2.512   0.970   5.604  0.3235 -0.5683  0.1888
  107OSM   H16T10914   2.677   1.054   5.575 -0.2400 -0.7483  0.4567
  107OSM   C17S10915   2.687   0.855   5.636 -0.0572  0.3731  0.1930
  107OSM   H17S10916   2.795   0.869   5.611  0.1554  0.9518  1.3386
  107OSM   H17T10917   2.643   0.759   5.602 -0.5984  1.1283 -1.2816
  107OSM   C18S10918   2.676   0.859   5.795  0.2549  0.4127 -0.4885
  107OSM   H18S10919   2.569   0.882   5.812  0.9601  4.1127 -0.4031
  107OSM   H18T10920   2.735   0.943   5.836  2.0191 -1.2397  0.5764
  107OSM   H18U10921   2.719   0.766   5.838  0.2987 -0.1492 -1.7020
  107OSM    C1F10922   2.127   0.982   6.163 -0.5273  0.4263  0.8871
  107OSM     OF10923   2.029   0.934   6.218 -0.0536  0.3527 -0.1245
  107OSM    C2F10924   2.162   0.958   6.022  0.5234  0.7711  0.3389
  107OSM    H2F10925   2.254   0.896   6.032 -1.2348 -1.6018  3.7814
  107OSM    H2G10926   2.184   1.046   5.958  0.1937 -0.2407 -1.2324
  107OSM    C3F10927   2.045   0.873   5.959 -0.1468 -0.2069 -0.2238
  107OSM    H3F10928   1.964   0.949   5.961  0.4010  0.4863 -2.3449
  107OSM    H3G10929   2.031   0.777   6.014  1.4396  0.3718  1.2911
  107OSM    C4F10930   2.065   0.844   5.807 -0.1414 -1.2880  0.0485
  107OSM    H4F10931   2.086   0.937   5.751 -1.4737 -0.3457  1.0178
  107OSM    H4G10932   1.967   0.809   5.768 -1.2031  1.5393 -0.1134
  107OSM    C5F10933   2.184   0.742   5.778  0.0348 -0.3128  0.2944
  107OSM    H5F10934   2.198   0.676   5.866 -1.5704 -1.5304 -0.3041
  107OSM    H5G10935   2.274   0.805   5.762 -0.8831  1.1274  0.5662
  107OSM    C6F10936   2.160   0.655   5.651 -0.2205  0.2641 -0.2422
  107OSM    H6F10937   2.061   0.608   5.669  0.4824 -0.8899  0.7283
  107OSM    H6G10938   2.238   0.578   5.667  1.0699  1.7205  0.7912
  107OSM    C7F10939   2.188   0.723   5.517 -0.3546  0.3564 -0.0751
  107OSM    H7F10940   2.298   0.736   5.517 -0.2931 -0.1331 -0.0152
  107OSM    H7G10941   2.135   0.820   5.516 -1.7543 -0.2367  3.1430
  107OSM    C8F10942   2.154   0.629   5.395  0.0680  0.0686  0.8124
  107OSM    H8F10943   2.051   0.589   5.382  0.6757 -0.8543 -1.6004
  107OSM    H8G10944   2.223   0.543   5.390  1.5895  1.2110  1.2301
  107OSM    C9F10945   2.188   0.707   5.278  0.1310 -0.3841 -0.1467
  107OSM    H9F10946   2.167   0.813   5.296  2.1154  0.4062 -1.9987
  107OSM   C10F10947   2.251   0.676   5.162  0.1874  0.0218  0.2378
  107OSM   H10F10948   2.285   0.757   5.096 -2.7737  0.4291 -0.9423
  107OSM   C11F10949   2.311   0.551   5.123  0.2422 -0.6543  0.1566
  107OSM   H11F10950   2.288   0.464   5.188  1.6800 -0.6745  0.6611
  107OSM   H11G10951   2.420   0.569   5.131  0.5252 -2.1621 -0.0549
  107OSM   C12F10952   2.279   0.506   4.978 -0.1841 -0.2548 -0.4198
  107OSM   H12F10953   2.168   0.507   4.969 -0.3467  2.1875  0.9140
  107OSM   H12G10954   2.325   0.405   4.967  0.8917  0.1537  0.1939
  107OSM   C13F10955   2.327   0.601   4.865  0.5205 -0.3041  0.9259
  107OSM   H13F10956   2.431   0.633   4.886 -0.0343  1.2658  1.4301
  107OSM   H13G10957   2.265   0.691   4.885  0.5675 -0.3426  1.2505
  107OSM   C14F10958   2.320   0.560   4.720 -0.2513  0.4373  0.1312
  107OSM   H14F10959   2.377   0.470   4.690  2.6403  2.4344 -0.7954
  107OSM   H14G10960   2.355   0.642   4.653 -1.0165 -0.0752 -0.9156
  107OSM   C15F10961   2.176   0.526   4.684  0.0510 -0.6017  0.0398
  107OSM   H15F10962   2.110   0.613   4.707  0.5737 -0.6034  1.6599
  107OSM   H15G10963   2.132   0.435   4.730  2.6291 -2.0288 -0.1381
  107OSM   C16F10964   2.166   0.504   4.529 -0.1151 -0.0638  0.5234
  107OSM   H16F10965   2.202   0.599   4.484  0.7096 -1.4036 -1.8056
  107OSM   H16G10966   2.061   0.481   4.501  0.6484 -2.8776 -0.3717
  107OSM   C17F10967   2.250   0.385   4.464 -0.0971 -0.0728 -0.1457
  107OSM   H17F10968   2.206   0.288   4.498  3.6896 -1.4182  1.5724
  107OSM   H17G10969   2.355   0.388   4.500 -0.0869 -0.1801 -0.1658
  107OSM   C18F10970   2.269   0.387   4.316  0.0821 -0.6629 -0.4841
  107OSM   H18F10971   2.321   0.292   4.290  2.1344 -0.0660  1.2258
  107OSM   H18G10972   2.335   0.466   4.275  3.3276 -2.9708 -0.0797
  107OSM   H18H10973   2.169   0.401   4.269  0.6851  1.6575 -1.1779
  108OSM      N10974   5.479   0.286   6.745 -0.2295 -0.1634 -0.3372
  108OSM    C1510975   5.528   0.153   6.794 -1.1054 -0.7077 -0.1451
  108OSM   H15A10976   5.618   0.127   6.740 -0.4017  0.6255  0.3436
  108OSM   H15B10977   5.460   0.077   6.758  1.4070 -3.7803  1.1783
  108OSM   H15C10978   5.536   0.150   6.902 -0.2192  0.5870 -0.1524
  108OSM    C1410979   5.356   0.328   6.812  0.6182  0.3893 -0.5389
  108OSM   H14A10980   5.371   0.352   6.917  1.8360 -0.0548 -0.5964
  108OSM   H14B10981   5.274   0.257   6.801  0.8152  0.0085  0.3474
  108OSM   H14C10982   5.315   0.419   6.772 -2.5195 -0.2244  0.8948
  108OSM    C1310983   5.584   0.388   6.788  0.8816 -0.1502 -1.0886
  108OSM   H13A10984   5.685   0.354   6.772  0.8975  0.8320 -3.4000
  108OSM   H13B10985   5.578   0.401   6.895  3.3128 -1.4285 -0.7290
  108OSM   H13C10986   5.568   0.484   6.741 -0.3578 -0.6125 -1.6569
  108OSM    C1210987   5.462   0.283   6.592 -1.4151 -0.3163 -0.0560
  108OSM   H12A10988   5.552   0.245   6.546 -1.5100 -0.1858 -0.3492
  108OSM   H12B10989   5.455   0.379   6.543 -1.6562 -1.1217 -1.6672
  108OSM    C1110990   5.328   0.211   6.547 -0.0820 -0.0140 -0.2053
  108OSM   H11A10991   5.322   0.236   6.439  0.1234 -0.0195 -0.2190
  108OSM   H11B10992   5.232   0.243   6.593 -0.6556 -2.3430  0.3506
  108OSM      P10993   5.416  -0.027   6.470 -0.3212 -0.2569 -0.1162
  108OSM    O1310994   5.520  -0.087   6.559 -0.4831  0.3001 -0.2395
  108OSM    O1410995   5.329  -0.123   6.401 -0.0200  0.0703  0.5379
  108OSM    O1110996   5.474   0.074   6.360  0.0069  0.4595  0.5711
  108OSM    O1210997   5.334   0.066   6.566 -0.1009 -0.2212  0.1541
  108OSM    C1S10998   5.610   0.051   6.324 -0.5928 -0.8813  0.4257
  108OSM    H1S10999   5.633  -0.058   6.321  3.6946 -0.1317  0.4987
  108OSM    H1T11000   5.681   0.099   6.394 -1.1705  3.1267 -1.4756
  108OSM     NF11001   5.772   0.074   6.135  0.5711 -0.3441 -0.0578
  108OSM    HNF11002   5.857   0.124   6.152  0.7830 -0.6559 -0.1757
  108OSM    C2S11003   5.642   0.122   6.192 -0.7036  0.1407  0.4356
  108OSM    H2S11004   5.570   0.092   6.113  0.9414  2.6002 -2.2064
  108OSM    C3S11005   5.627   0.270   6.198  0.9887 -0.4126  0.1309
  108OSM    H3S11006   5.688   0.319   6.276  0.9546 -0.5508  0.2425
  108OSM     O311007   5.497   0.327   6.232  0.1095  0.2813 -0.3253
  108OSM    HO311008   5.441   0.257   6.266 -0.1390  1.7670  2.6385
  108OSM    C4S11009   5.653   0.334   6.059  0.6725 -0.1423  0.0863
  108OSM    H4S11010   5.589   0.301   5.976 -0.6198 -0.0738  1.0176
  108OSM    C5S11011   5.733   0.442   6.036 -0.0193  0.1103  0.1837
  108OSM    H5S11012   5.780   0.507   6.112 -0.9438  1.1003 -0.0736
  108OSM    C6S11013   5.744   0.488   5.894  0.1923  0.4024  0.5215
  108OSM    H6S11014   5.733   0.405   5.821 -2.1825 -1.4296  2.7805
  108OSM    H6T11015   5.843   0.535   5.879  0.3730 -0.3969 -0.9806
  108OSM    C7S11016   5.629   0.581   5.860 -0.6767  0.6248  0.6530
  108OSM    H7S11017   5.648   0.673   5.918 -1.5579 -0.4978  2.8343
  108OSM    H7T11018   5.538   0.542   5.910  0.1355 -1.6766  0.4515
  108OSM    C8S11019   5.583   0.599   5.718  0.5637 -0.0881 -0.3665
  108OSM    H8S11020   5.489   0.658   5.721 -0.6658 -1.9379 -0.8350
  108OSM    H8T11021   5.551   0.500   5.679  0.0261  0.0160 -0.1933
  108OSM    C9S11022   5.687   0.653   5.620  0.3735  0.0579  0.5846
  108OSM    H9S11023   5.776   0.588   5.609 -0.8897 -1.7183  0.4336
  108OSM    H9T11024   5.721   0.748   5.666 -0.5899  1.0508 -0.6790
  108OSM   C10S11025   5.634   0.691   5.478 -0.2903  0.7904  0.3621
  108OSM   H10S11026   5.717   0.753   5.437 -0.6650  2.1733  1.6170
  108OSM   H10T11027   5.538   0.746   5.474 -2.5246 -2.8749 -2.2733
  108OSM   C11S11028   5.622   0.580   5.370 -0.7214 -0.2792 -0.8200
  108OSM   H11S11029   5.530   0.522   5.392 -1.0887  0.9212  1.0639
  108OSM   H11T11030   5.709   0.511   5.384  0.1051  0.7988 -0.4987
  108OSM   C12S11031   5.603   0.640   5.229 -0.3097 -0.2063 -0.4395
  108OSM   H12S11032   5.603   0.563   5.148 -1.0709 -0.5375 -0.1338
  108OSM   H12T11033   5.686   0.705   5.195  1.0474 -1.3010  0.6723
  108OSM   C13S11034   5.471   0.720   5.198  0.2212 -0.8387 -0.0888
  108OSM   H13S11035   5.501   0.826   5.183 -0.0519 -0.0884  3.7029
  108OSM   H13T11036   5.416   0.728   5.294 -1.4048  0.6205 -1.0916
  108OSM   C14S11037   5.387   0.674   5.079  0.3146  0.5236  0.0715
  108OSM   H14S11038   5.288   0.721   5.096  1.7134  2.5945  3.6465
  108OSM   H14T11039   5.379   0.564   5.069  1.1256  0.5727 -1.4510
  108OSM   C15S11040   5.439   0.717   4.939  0.7744  0.2281 -0.2255
  108OSM   H15S11041   5.528   0.656   4.915 -1.0056 -3.0502  0.9578
  108OSM   H15T11042   5.471   0.823   4.946 -2.4491  1.2435  1.4567
  108OSM   C16S11043   5.345   0.699   4.822 -0.2290  0.0072  0.4378
  108OSM   H16S11044   5.249   0.752   4.840  0.3849  1.1799  0.3720
  108OSM   H16T11045   5.336   0.590   4.800 -0.3511 -0.0819  0.9322
  108OSM   C17S11046   5.400   0.774   4.693  0.0908  0.4447  0.6491
  108OSM   H17S11047   5.421   0.880   4.716 -0.5270  0.6222  0.4123
  108OSM   H17T11048   5.314   0.768   4.623  0.2874 -3.3495  0.5302
  108OSM   C18S11049   5.513   0.702   4.622 -0.5810 -0.9189 -0.3627
  108OSM   H18S11050   5.550   0.737   4.524 -3.1591 -4.4520 -2.8663
  108OSM   H18T11051   5.482   0.596   4.607 -1.3602 -0.6360 -0.8119
  108OSM   H18U11052   5.602   0.705   4.688 -0.2795  1.5441 -0.7961
  108OSM    C1F11053   5.779  -0.046   6.080 -0.3927 -0.0376  0.1429
  108OSM     OF11054   5.674  -0.110   6.053 -0.0180 -0.1499 -0.5804
  108OSM    C2F11055   5.916  -0.094   6.045  0.3024 -0.3087 -0.0698
  108OSM    H2F11056   5.989  -0.084   6.129 -1.3175 -1.0594  1.4863
  108OSM    H2G11057   5.948  -0.032   5.959  0.5467  1.9266  1.5399
  108OSM    C3F11058   5.923  -0.243   5.992  0.4744  0.3384 -0.2144
  108OSM    H3F11059   5.847  -0.268   5.915  0.8279  0.6536 -0.6681
  108OSM    H3G11060   5.914  -0.312   6.079 -0.6755 -1.4280 -1.6548
  108OSM    C4F11061   6.053  -0.273   5.912  0.0637 -0.3214  0.5210
  108OSM    H4F11062   6.131  -0.249   5.987 -0.0283  2.8882 -0.2667
  108OSM    H4G11063   6.055  -0.194   5.834  1.5933 -0.5729  0.2768
  108OSM    C5F11064   6.075  -0.414   5.856 -0.2730  0.4962  0.7019
  108OSM    H5F11065   5.977  -0.453   5.822  0.7466 -1.1433 -0.5261
  108OSM    H5G11066   6.103  -0.472   5.947  3.8999  1.9579  0.5595
  108OSM    C6F11067   6.188  -0.437   5.747  1.3675  0.5939  0.1414
  108OSM    H6F11068   6.291  -0.452   5.786  0.9278 -0.1540  1.0495
  108OSM    H6G11069   6.176  -0.354   5.674 -1.0147  1.5185  1.4721
  108OSM    C7F11070   6.156  -0.570   5.665 -0.1441  0.1954  0.1237
  108OSM    H7F11071   6.070  -0.558   5.595 -0.2060 -1.8528 -0.2211
  108OSM    H7G11072   6.135  -0.652   5.737  0.4339  0.0587  0.1372
  108OSM    C8F11073   6.270  -0.614   5.575  0.1336  0.1950 -0.2623
  108OSM    H8F11074   6.357  -0.613   5.644 -1.9166  0.7964  2.5029
  108OSM    H8G11075   6.290  -0.534   5.500  0.8088 -1.9850 -2.5499
  108OSM    C9F11076   6.255  -0.752   5.514  0.1900 -0.0615 -0.0241
  108OSM    H9F11077   6.302  -0.831   5.574 -1.6049 -1.3109 -0.1854
  108OSM   C10F11078   6.195  -0.771   5.398  1.0350 -0.1480 -0.1177
  108OSM   H10F11079   6.180  -0.875   5.366  0.4523 -0.5942  1.5087
  108OSM   C11F11080   6.130  -0.672   5.306  0.1773 -0.2930  0.4208
  108OSM   H11F11081   6.112  -0.575   5.356  0.8700 -0.3564  0.7991
  108OSM   H11G11082   6.044  -0.721   5.254  1.8398 -1.0677 -1.7335
  108OSM   C12F11083   6.224  -0.632   5.185  0.1619  0.5810  0.3074
  108OSM   H12F11084   6.282  -0.722   5.153 -1.0067 -0.5185  1.1573
  108OSM   H12G11085   6.298  -0.557   5.222  0.4499 -0.3097  1.6389
  108OSM   C13F11086   6.137  -0.572   5.075  0.7563  1.0443 -0.2150
  108OSM   H13F11087   6.060  -0.510   5.127 -0.2031  0.1495 -0.5268
  108OSM   H13G11088   6.074  -0.649   5.025 -0.5105 -0.8824  3.9677
  108OSM   C14F11089   6.216  -0.496   4.972  0.3563  0.6732  0.1524
  108OSM   H14F11090   6.267  -0.413   5.025 -0.5400  0.9465  0.6179
  108OSM   H14G11091   6.134  -0.457   4.907  1.3071  1.8960 -0.3527
  108OSM   C15F11092   6.321  -0.579   4.897  0.8418 -0.3180 -0.2124
  108OSM   H15F11093   6.289  -0.683   4.875 -3.1396  0.6957  0.0563
  108OSM   H15G11094   6.404  -0.597   4.969  0.2674  2.6260  1.3434
  108OSM   C16F11095   6.378  -0.512   4.775 -0.6219  0.1146 -0.2070
  108OSM   H16F11096   6.302  -0.498   4.695 -1.9866 -2.3061  0.5658
  108OSM   H16G11097   6.449  -0.580   4.723  0.6349  0.4155  1.0472
  108OSM   C17F11098   6.473  -0.402   4.814 -0.2351 -0.5693  0.1903
  108OSM   H17F11099   6.566  -0.444   4.859 -0.3910 -1.3705 -0.2230
  108OSM   H17G11100   6.426  -0.350   4.900  0.1402  0.9825 -0.4962
  108OSM   C18F11101   6.508  -0.297   4.708  0.0684  0.2352 -0.4765
  108OSM   H18F11102   6.572  -0.347   4.632 -2.0867 -0.7573 -1.7463
  108OSM   H18G11103   6.573  -0.222   4.756  1.9532  0.6801 -3.5031
  108OSM   H18H11104   6.423  -0.255   4.649 -0.1107  0.2781 -0.1905
  109OSM      N11105   0.796   3.802   7.233  0.3625 -0.0125 -0.2448
  109OSM    C1511106   0.715   3.901   7.308  0.1070  0.5983 -0.1299
  109OSM   H15A11107   0.652   3.863   7.386 -1.6482  2.6626 -0.4418
  109OSM   H15B11108   0.643   3.937   7.236 -1.7357 -2.7302 -0.1638
  109OSM   H15C11109   0.767   3.987   7.348  0.1190 -0.0510  1.3044
  109OSM    C1411110   0.913   3.754   7.326  0.2233  0.3569 -0.3729
  109OSM   H14A11111   0.873   3.703   7.412  0.3195  1.7484  0.5239
  109OSM   H14B11112   0.956   3.843   7.368 -1.2657  0.1635  1.7004
  109OSM   H14C11113   0.981   3.684   7.280 -0.9360 -1.9814  1.2665
  109OSM    C1311114   0.715   3.683   7.186 -0.0285 -0.1357 -0.1365
  109OSM   H13A11115   0.782   3.618   7.131 -1.2281 -0.7521 -0.9009
  109OSM   H13B11116   0.639   3.731   7.126 -1.3615 -1.2698  0.6028
  109OSM   H13C11117   0.655   3.642   7.266 -2.4542  2.4847 -0.4230
  109OSM    C1211118   0.871   3.876   7.123 -1.4005 -0.2553  0.3897
  109OSM   H12A11119   0.948   3.816   7.077 -2.9001 -1.1242 -1.0858
  109OSM   H12B11120   0.931   3.953   7.168  0.3306 -0.6739 -1.0809
  109OSM    C1111121   0.793   3.943   7.007 -0.4511 -0.0084  0.0060
  109OSM   H11A11122   0.850   4.014   6.944  0.1583 -0.3572  0.1453
  109OSM   H11B11123   0.724   4.016   7.055  0.0371  0.0554  0.6353
  109OSM      P11124   0.799   3.767   6.822 -0.0285  0.5781 -0.3753
  109OSM    O1311125   0.950   3.767   6.839  0.1070 -0.6623  0.2434
  109OSM    O1411126   0.730   3.634   6.827 -0.4118 -0.5525  0.0044
  109OSM    O1111127   0.768   3.821   6.676  0.2065  0.0074 -0.5888
  109OSM    O1211128   0.723   3.855   6.928  0.7428  0.5454  0.0672
  109OSM    C1S11129   0.643   3.792   6.609  0.4342  0.2511  0.0460
  109OSM    H1S11130   0.559   3.848   6.654 -0.3854  0.7534 -1.9697
  109OSM    H1T11131   0.618   3.683   6.612 -2.1171  0.7890  1.2719
  109OSM     NF11132   0.516   3.833   6.400 -0.0406 -0.2512 -0.4414
  109OSM    HNF11133   0.484   3.758   6.342 -1.4139 -1.4454  1.7012
  109OSM    C2S11134   0.652   3.833   6.462 -0.1706 -0.8497  0.1774
  109OSM    H2S11135   0.685   3.939   6.463 -1.6020 -0.3787  1.6441
  109OSM    C3S11136   0.757   3.754   6.381  0.5100 -0.6910  0.0827
  109OSM    H3S11137   0.717   3.650   6.387 -4.2707  0.8945 -0.0950
  109OSM     O311138   0.888   3.770   6.438  0.2744 -0.3169 -0.1522
  109OSM    HO311139   0.868   3.803   6.526  0.2021 -1.3159  0.2273
  109OSM    C4S11140   0.755   3.788   6.229  0.0350  0.4081 -0.2282
  109OSM    H4S11141   0.695   3.707   6.185 -0.9318 -0.0069  1.7357
  109OSM    C5S11142   0.816   3.884   6.157  0.7369  0.3816  0.4078
  109OSM    H5S11143   0.895   3.940   6.209  0.7753  0.5692  0.1464
  109OSM    C6S11144   0.803   3.902   6.009 -0.0975 -0.1308  0.2807
  109OSM    H6S11145   0.861   3.991   5.978  1.1331  0.2303  3.2795
  109OSM    H6T11146   0.701   3.923   5.972  0.4173 -0.4765 -1.4066
  109OSM    C7S11147   0.848   3.792   5.917 -0.8059  0.3509  0.9347
  109OSM    H7S11148   0.793   3.697   5.935 -0.3294 -0.8690 -3.0841
  109OSM    H7T11149   0.955   3.772   5.938 -0.6482  2.0191  1.9696
  109OSM    C8S11150   0.824   3.821   5.767  0.3677  0.4605 -0.3149
  109OSM    H8S11151   0.866   3.918   5.732 -2.6193  1.2612 -2.0413
  109OSM    H8T11152   0.715   3.827   5.749  0.5144 -0.1679 -1.5737
  109OSM    C9S11153   0.873   3.702   5.677  0.6372 -0.0055  0.0431
  109OSM    H9S11154   0.814   3.615   5.713  0.5476  0.4789  1.1353
  109OSM    H9T11155   0.980   3.677   5.688  0.5497 -0.4168 -0.0437
  109OSM   C10S11156   0.847   3.735   5.530 -0.3712  0.2501  1.0379
  109OSM   H10S11157   0.912   3.820   5.502  1.6518 -1.9573 -1.4439
  109OSM   H10T11158   0.740   3.765   5.530 -0.4800 -0.0764  2.1504
  109OSM   C11S11159   0.871   3.615   5.432  0.2338  0.2515 -0.4559
  109OSM   H11S11160   0.960   3.554   5.460 -0.2788 -1.0506 -1.5171
  109OSM   H11T11161   0.882   3.656   5.330 -0.0415 -0.4551 -0.7781
  109OSM   C12S11162   0.756   3.518   5.413  0.3099 -0.1933 -0.9850
  109OSM   H12S11163   0.663   3.578   5.416  0.1406 -0.4373 -1.2292
  109OSM   H12T11164   0.747   3.446   5.497 -3.8434  0.6102 -0.5197
  109OSM   C13S11165   0.754   3.422   5.295 -0.4408  0.5232 -0.1342
  109OSM   H13S11166   0.682   3.343   5.328 -0.1635 -0.7745 -2.4674
  109OSM   H13T11167   0.854   3.375   5.286 -0.8336 -0.3020 -0.2925
  109OSM   C14S11168   0.735   3.494   5.162 -0.3332  0.1902  0.1733
  109OSM   H14S11169   0.833   3.540   5.139 -0.9295  1.4880  0.1477
  109OSM   H14T11170   0.653   3.569   5.167  0.0393  0.5496  1.0008
  109OSM   C15S11171   0.689   3.387   5.060  0.5943 -0.1693 -0.5330
  109OSM   H15S11172   0.597   3.329   5.083 -0.1924  0.4178 -2.0616
  109OSM   H15T11173   0.771   3.313   5.049 -0.2903 -1.8116  2.6766
  109OSM   C16S11174   0.656   3.446   4.922  0.0124  0.6128  0.0240
  109OSM   H16S11175   0.751   3.472   4.871 -0.4932  0.0416 -1.2659
  109OSM   H16T11176   0.592   3.536   4.933 -0.8745 -0.3116  3.5702
  109OSM   C17S11177   0.585   3.352   4.824  0.4330  0.6098 -0.3960
  109OSM   H17S11178   0.481   3.334   4.859  0.3931  0.1908 -0.7210
  109OSM   H17T11179   0.638   3.255   4.824  0.1600  0.4486  0.3563
  109OSM   C18S11180   0.588   3.396   4.679  0.2824  0.8201  0.5406
  109OSM   H18S11181   0.544   3.494   4.653  0.3118  0.4675 -0.9129
  109OSM   H18T11182   0.518   3.330   4.623  2.3556  0.5313 -1.8896
  109OSM   H18U11183   0.690   3.378   4.639  0.2651 -0.8633  1.1647
  109OSM    C1F11184   0.425   3.921   6.427  0.6994 -0.0680  0.0237
  109OSM     OF11185   0.448   4.016   6.498  0.1784 -0.6504 -0.1750
  109OSM    C2F11186   0.288   3.908   6.363  0.0769 -1.3740  0.4069
  109OSM    H2F11187   0.206   3.926   6.436 -0.4692 -0.6783 -0.3593
  109OSM    H2G11188   0.282   3.803   6.328 -2.9006 -0.5926 -1.8378
  109OSM    C3F11189   0.277   4.012   6.244  0.2932 -0.5275 -0.0352
  109OSM    H3F11190   0.281   4.114   6.289  1.8826 -0.7605  0.4066
  109OSM    H3G11191   0.174   4.013   6.201  0.5200 -1.9537 -0.6917
  109OSM    C4F11192   0.363   3.990   6.119 -0.4137 -0.0805  0.4682
  109OSM    H4F11193   0.334   3.890   6.079 -0.8272  0.6132 -1.0182
  109OSM    H4G11194   0.468   4.002   6.154 -0.3762  1.9407 -0.2082
  109OSM    C5F11195   0.353   4.092   6.001 -0.1695  0.1976  0.1956
  109OSM    H5F11196   0.346   4.193   6.047 -1.3163  0.6122 -0.8443
  109OSM    H5G11197   0.257   4.072   5.948  1.3399 -2.6074 -1.7748
  109OSM    C6F11198   0.467   4.076   5.901 -0.9310 -0.8757  0.4258
  109OSM    H6F11199   0.473   3.968   5.872  2.1375 -1.3647  2.4347
  109OSM    H6G11200   0.553   4.104   5.965  0.9290  0.5172 -2.4708
  109OSM    C7F11201   0.459   4.170   5.779 -0.6388 -0.0982  0.3331
  109OSM    H7F11202   0.472   4.276   5.811 -0.1058  0.4095 -1.4743
  109OSM    H7G11203   0.361   4.154   5.728 -0.5686  1.9398 -0.5133
  109OSM    C8F11204   0.565   4.139   5.664 -0.3398  0.3897 -0.2216
  109OSM    H8F11205   0.663   4.129   5.715  0.0600 -0.8212 -1.1820
  109OSM    H8G11206   0.575   4.223   5.592 -2.1272  0.0580 -0.9322
  109OSM    C9F11207   0.530   4.012   5.591  0.5130  0.7015  0.5310
  109OSM    H9F11208   0.512   3.927   5.659 -1.1348 -1.8748 -2.8586
  109OSM   C10F11209   0.501   3.998   5.461 -0.5876 -0.4018  0.0450
  109OSM   H10F11210   0.499   3.894   5.424 -0.3553 -1.0428  1.7503
  109OSM   C11F11211   0.528   4.098   5.354 -0.2227 -0.3169  0.0502
  109OSM   H11F11212   0.553   4.198   5.395 -4.3315  0.4437  1.1484
  109OSM   H11G11213   0.435   4.107   5.293  0.0004 -1.6955 -0.5162
  109OSM   C12F11214   0.631   4.039   5.252  0.6563 -0.0415  0.3423
  109OSM   H12F11215   0.717   3.997   5.308 -0.6230 -0.3585  2.1368
  109OSM   H12G11216   0.673   4.132   5.207  2.1712 -0.0868  1.5716
  109OSM   C13F11217   0.572   3.947   5.147  0.5769  0.4023 -0.2145
  109OSM   H13F11218   0.481   3.989   5.098 -0.4630 -0.2923  1.0522
  109OSM   H13G11219   0.532   3.849   5.183 -1.3071  1.3105  0.3063
  109OSM   C14F11220   0.671   3.914   5.036 -0.6716 -0.2754  0.2537
  109OSM   H14F11221   0.767   3.871   5.073 -0.3626 -0.7858 -1.1097
  109OSM   H14G11222   0.695   4.016   5.000  0.8501 -1.3827 -2.0500
  109OSM   C15F11223   0.609   3.827   4.932 -0.4522 -0.0310  0.0322
  109OSM   H15F11224   0.527   3.881   4.881 -0.5495 -1.0886 -0.9712
  109OSM   H15G11225   0.554   3.740   4.974 -0.1222 -0.1509  0.2215
  109OSM   C16F11226   0.696   3.776   4.825  0.2074 -0.0627  0.7046
  109OSM   H16F11227   0.640   3.710   4.755 -0.8730  1.1823  0.3462
  109OSM   H16G11228   0.781   3.724   4.873  1.0673 -0.5918 -1.3077
  109OSM   C17F11229   0.750   3.892   4.744 -0.3804 -0.1643  0.2101
  109OSM   H17F11230   0.855   3.862   4.726 -0.5223 -0.8605  0.4944
  109OSM   H17G11231   0.765   3.986   4.802  1.3993  0.6305 -1.4401
  109OSM   C18F11232   0.671   3.932   4.617  0.4173 -0.2355 -0.4401
  109OSM   H18F11233   0.588   4.000   4.647  0.7207 -0.9731  2.2321
  109OSM   H18G11234   0.631   3.844   4.563 -0.2543 -0.1714 -0.0491
  109OSM   H18H11235   0.742   3.996   4.559  0.2136  1.7466  1.3536
  110OSM      N11236   3.686   6.659   6.906  0.2003 -0.1976  0.4432
  110OSM    C1511237   3.785   6.769   6.929 -0.2220  0.1822  0.7291
  110OSM   H15A11238   3.850   6.786   6.845  0.9367  0.1565  1.6042
  110OSM   H15B11239   3.839   6.756   7.021  1.5674  2.0054 -0.0147
  110OSM   H15C11240   3.749   6.870   6.928  1.0182  0.6554 -0.9955
  110OSM    C1411241   3.739   6.519   6.902  0.2266  0.0732  0.1535
  110OSM   H14A11242   3.825   6.510   6.837  1.2947 -0.3253  1.5856
  110OSM   H14B11243   3.660   6.446   6.890 -0.2787  0.5707  0.3608
  110OSM   H14C11244   3.780   6.490   6.997 -2.0048  0.1105  1.2050
  110OSM    C1311245   3.592   6.647   7.022  0.6188  0.1198 -0.0444
  110OSM   H13A11246   3.523   6.731   7.017 -3.0618 -2.5220  1.4189
  110OSM   H13B11247   3.644   6.647   7.117 -0.8177 -2.8741  0.8737
  110OSM   H13C11248   3.533   6.558   7.009 -0.2556  0.3145  2.0548
  110OSM    C1211249   3.611   6.687   6.780 -0.3114 -0.3968  0.0497
  110OSM   H12A11250   3.532   6.757   6.803  2.1370  2.1055  1.4635
  110OSM   H12B11251   3.560   6.600   6.743 -0.1271  0.5104 -2.5418
  110OSM    C1111252   3.690   6.739   6.658  0.9872  0.8248  0.4393
  110OSM   H11A11253   3.634   6.710   6.566  2.1665  1.6467 -0.5573
  110OSM   H11B11254   3.785   6.681   6.652  0.4150 -0.2575  1.4871
  110OSM      P11255   3.607   6.987   6.668  0.2303  0.2351  0.4578
  110OSM    O1311256   3.492   6.956   6.754  0.6316  0.1731  0.7556
  110OSM    O1411257   3.682   7.107   6.706 -0.0658  0.6149 -0.2797
  110OSM    O1111258   3.562   7.014   6.518 -0.7532 -0.1294 -0.1451
  110OSM    O1211259   3.715   6.874   6.667 -0.4366 -0.1353  0.0433
  110OSM    C1S11260   3.648   7.052   6.413  0.4969  0.2432  0.1158
  110OSM    H1S11261   3.745   7.000   6.410  1.2507  1.4673  1.7119
  110OSM    H1T11262   3.684   7.156   6.430  0.8983 -0.1211  1.5943
  110OSM     NF11263   3.669   7.068   6.159 -0.1768  0.0486 -0.7526
  110OSM    HNF11264   3.631   7.137   6.097 -2.4661 -0.6929 -0.2905
  110OSM    C2S11265   3.583   7.034   6.276  0.2376  0.9958 -0.6962
  110OSM    H2S11266   3.567   6.924   6.269  0.8480  0.8868 -0.4895
  110OSM    C3S11267   3.432   7.087   6.267 -0.1967  0.2556 -0.3897
  110OSM    H3S11268   3.435   7.194   6.295  0.4442  0.0652  0.2820
  110OSM     O311269   3.349   7.042   6.370  0.4424  0.0956 -0.3846
  110OSM    HO311270   3.411   7.006   6.435 -0.4872 -0.5139  0.2052
  110OSM    C4S11271   3.367   7.066   6.132 -0.4799 -0.1836  0.1546
  110OSM    H4S11272   3.405   7.140   6.060  0.9523  0.3265  1.3641
  110OSM    C5S11273   3.279   6.970   6.099 -0.1524 -0.0598  0.4538
  110OSM    H5S11274   3.242   6.906   6.180 -1.9477  0.9123  0.4377
  110OSM    C6S11275   3.205   6.956   5.973  0.5013 -0.1236  0.1222
  110OSM    H6S11276   3.096   6.972   5.985  0.4074 -1.2428  0.8373
  110OSM    H6T11277   3.221   6.851   5.941 -0.4680  0.4305 -2.4156
  110OSM    C7S11278   3.260   7.031   5.848  0.1042  0.5284  0.2388
  110OSM    H7S11279   3.365   6.997   5.837 -1.0125 -2.7432 -1.4197
  110OSM    H7T11280   3.245   7.140   5.869  0.7269  0.8128 -0.7561
  110OSM    C8S11281   3.195   6.990   5.715 -0.6596 -0.0141 -0.0832
  110OSM    H8S11282   3.245   6.901   5.671  2.2067  2.5171 -2.3190
  110OSM    H8T11283   3.211   7.069   5.639 -4.0158 -0.8082 -1.8056
  110OSM    C9S11284   3.045   6.966   5.722  0.2682  0.0039 -1.1296
  110OSM    H9S11285   2.995   7.049   5.776 -0.1607 -0.2436 -1.1420
  110OSM    H9T11286   3.032   6.871   5.779 -0.7041  1.1996  0.7342
  110OSM   C10S11287   2.988   6.955   5.578  0.1516 -0.3709  0.3538
  110OSM   H10S11288   3.026   7.038   5.515  1.5305 -1.1934  0.0617
  110OSM   H10T11289   2.879   6.973   5.588  0.2336  2.2895 -2.3698
  110OSM   C11S11290   3.016   6.823   5.512 -0.2457  0.2074  0.1092
  110OSM   H11S11291   2.998   6.740   5.583 -1.0495  1.0618  0.9491
  110OSM   H11T11292   3.117   6.833   5.466 -0.8067 -0.7158 -1.3745
  110OSM   C12S11293   2.935   6.805   5.391  0.7253  0.1388 -0.3028
  110OSM   H12S11294   2.928   6.899   5.332 -1.3525 -0.3394 -0.9036
  110OSM   H12T11295   2.835   6.787   5.434  1.4256  2.3543  2.5434
  110OSM   C13S11296   2.971   6.692   5.304  0.0309  0.2479  0.3309
  110OSM   H13S11297   3.006   6.597   5.349  0.6230  0.2647 -0.0774
  110OSM   H13T11298   3.059   6.726   5.244  0.0388 -1.1041 -0.4689
  110OSM   C14S11299   2.864   6.660   5.201 -0.3906 -0.1521 -0.3388
  110OSM   H14S11300   2.834   6.757   5.158 -1.2169  0.5919  1.8047
  110OSM   H14T11301   2.770   6.628   5.251 -0.4038  0.2663 -0.0913
  110OSM   C15S11302   2.918   6.563   5.095  0.1426 -0.4132 -0.0936
  110OSM   H15S11303   2.961   6.480   5.155  0.6267  1.9637  3.0982
  110OSM   H15T11304   3.006   6.609   5.044 -1.2764 -0.5050 -2.7897
  110OSM   C16S11305   2.806   6.520   5.005 -0.1355 -0.3241 -0.8349
  110OSM   H16S11306   2.713   6.501   5.062 -0.0190 -2.2506 -1.2464
  110OSM   H16T11307   2.830   6.425   4.953 -0.2141  0.6222 -2.7190
  110OSM   C17S11308   2.778   6.617   4.894 -0.0434 -0.2485  0.0187
  110OSM   H17S11309   2.866   6.618   4.827 -1.0460  2.4624 -1.4254
  110OSM   H17T11310   2.770   6.721   4.932 -0.2282  1.0117 -3.1537
  110OSM   C18S11311   2.649   6.593   4.814  0.5269  0.0328 -0.3687
  110OSM   H18S11312   2.640   6.672   4.736  4.4485  1.2969  0.2042
  110OSM   H18T11313   2.573   6.608   4.893  0.7527  0.1403 -0.1722
  110OSM   H18U11314   2.642   6.490   4.772  1.1100  0.6621 -2.1265
  110OSM    C1F11315   3.772   6.999   6.121  0.4900 -0.1509  0.2924
  110OSM     OF11316   3.808   6.905   6.185  0.1224  0.6934 -0.3644
  110OSM    C2F11317   3.839   7.045   5.993 -0.3256  0.0575 -0.8110
  110OSM    H2F11318   3.927   7.101   6.032  0.0216  0.7468 -2.5263
  110OSM    H2G11319   3.772   7.113   5.936 -0.3203 -0.3643 -1.3318
  110OSM    C3F11320   3.882   6.927   5.905  0.5182 -0.1152  0.5163
  110OSM    H3F11321   3.957   6.871   5.964  0.8721  1.0960  1.2417
  110OSM    H3G11322   3.930   6.972   5.815 -2.1300  1.4187 -0.2238
  110OSM    C4F11323   3.766   6.825   5.865  0.0394 -0.9424 -0.3116
  110OSM    H4F11324   3.693   6.830   5.949  2.7140  0.8287  2.1273
  110OSM    H4G11325   3.803   6.720   5.862  1.2174 -0.7072  2.4156
  110OSM    C5F11326   3.699   6.870   5.727  0.4399  0.0906  0.3635
  110OSM    H5F11327   3.783   6.866   5.655  0.8460 -1.2693  0.8695
  110OSM    H5G11328   3.648   6.968   5.723  0.6807  0.1740 -1.3815
  110OSM    C6F11329   3.579   6.766   5.699 -0.1964 -0.5794  0.2133
  110OSM    H6F11330   3.509   6.782   5.784  3.2209  0.5928  3.0415
  110OSM    H6G11331   3.627   6.667   5.708 -0.6632 -0.8716 -0.4822
  110OSM    C7F11332   3.508   6.782   5.560  0.4664 -0.2085  0.7406
  110OSM    H7F11333   3.586   6.782   5.481 -1.0562 -2.8337 -0.9205
  110OSM    H7G11334   3.435   6.866   5.556  0.0580 -0.5707  0.4496
  110OSM    C8F11335   3.433   6.650   5.555 -0.1677 -0.9340  0.4066
  110OSM    H8F11336   3.353   6.644   5.631  0.6536  1.9608  1.6342
  110OSM    H8G11337   3.509   6.572   5.576  0.6356 -0.7878 -1.7050
  110OSM    C9F11338   3.358   6.618   5.429 -0.5338 -0.4622  0.2576
  110OSM    H9F11339   3.293   6.705   5.410  1.7006  0.9841 -1.2586
  110OSM   C10F11340   3.376   6.521   5.343  0.7394  0.0979  0.4261
  110OSM   H10F11341   3.320   6.522   5.249 -1.0797 -0.2494  1.4647
  110OSM   C11F11342   3.460   6.395   5.359 -0.4297 -0.6033  0.0497
  110OSM   H11F11343   3.406   6.304   5.393  2.2066 -1.9842  0.8555
  110OSM   H11G11344   3.547   6.404   5.428  0.2848  3.3066 -1.1325
  110OSM   C12F11345   3.525   6.344   5.225  0.3414 -0.5035 -0.2711
  110OSM   H12F11346   3.450   6.301   5.154 -0.6518  2.0854 -0.9003
  110OSM   H12G11347   3.590   6.257   5.247 -0.0252  0.2330  4.7706
  110OSM   C13F11348   3.606   6.456   5.151 -0.4250  0.2422 -0.6174
  110OSM   H13F11349   3.664   6.507   5.231 -0.5337 -1.6453  0.7557
  110OSM   H13G11350   3.543   6.535   5.106 -0.9898 -1.1759 -2.4593
  110OSM   C14F11351   3.718   6.395   5.061 -0.2066 -0.1145 -0.1322
  110OSM   H14F11352   3.770   6.320   5.123  1.8471  1.0040 -0.4217
  110OSM   H14G11353   3.795   6.471   5.037 -1.9189  1.3166 -1.3758
  110OSM   C15F11354   3.667   6.339   4.930  0.6474 -0.6924  0.1317
  110OSM   H15F11355   3.653   6.429   4.866 -0.4864 -0.4579  0.6804
  110OSM   H15G11356   3.576   6.281   4.954 -0.8943  1.9836  1.2071
  110OSM   C16F11357   3.774   6.257   4.854 -0.0724 -1.0888 -0.4664
  110OSM   H16F11358   3.851   6.322   4.807  0.1519 -1.1776 -0.2263
  110OSM   H16G11359   3.722   6.209   4.768 -1.7208  0.7912 -0.5957
  110OSM   C17F11360   3.855   6.156   4.933 -0.8936 -0.8557 -0.7560
  110OSM   H17F11361   3.894   6.209   5.022 -2.7404  1.8530 -1.4622
  110OSM   H17G11362   3.942   6.123   4.871 -0.3793  0.6827 -0.8948
  110OSM   C18F11363   3.766   6.041   4.975 -0.1148 -0.3636  0.3182
  110OSM   H18F11364   3.827   5.973   5.039 -1.4157 -2.1828 -0.2962
  110OSM   H18G11365   3.731   5.987   4.885 -1.3033  0.1727  0.4402
  110OSM   H18H11366   3.677   6.077   5.030  1.4529  2.7744  1.0636
  111OSM      N11367   6.244   4.055   6.522 -0.4077  0.0518  0.0620
  111OSM    C1511368   6.223   3.979   6.649  0.1488 -0.6449 -0.6673
  111OSM   H15A11369   6.306   3.974   6.717 -0.2738 -0.0851 -0.0986
  111OSM   H15B11370   6.199   3.877   6.624  0.7784 -0.7328 -0.9300
  111OSM   H15C11371   6.135   4.017   6.699 -0.2981 -0.2885 -1.7002
  111OSM    C1411372   6.261   4.195   6.559 -0.0195 -0.1098  0.2269
  111OSM   H14A11373   6.350   4.218   6.617  0.7237 -0.5962 -0.6838
  111OSM   H14B11374   6.173   4.231   6.611  0.6703  1.5674  0.3117
  111OSM   H14C11375   6.280   4.252   6.469  0.7093 -0.5454  0.0968
  111OSM    C1311376   6.381   4.001   6.475  0.3673 -0.6547 -0.9479
  111OSM   H13A11377   6.401   4.041   6.376 -1.3126  0.0489 -1.0347
  111OSM   H13B11378   6.379   3.893   6.479 -0.5296 -0.6176  0.3891
  111OSM   H13C11379   6.457   4.045   6.538  0.2321 -0.8684 -0.6348
  111OSM    C1211380   6.129   4.030   6.423  0.2016  0.2229  0.3735
  111OSM   H12A11381   6.039   4.079   6.458  0.2674  1.3959 -1.0059
  111OSM   H12B11382   6.116   3.924   6.408 -0.1354  0.4069 -0.6955
  111OSM    C1111383   6.147   4.094   6.284  0.0274  0.3390 -0.1895
  111OSM   H11A11384   6.068   4.066   6.211 -0.5549  1.6403 -0.0863
  111OSM   H11B11385   6.246   4.057   6.250 -1.1514 -0.6377 -2.8301
  111OSM      P11386   6.060   4.341   6.256 -0.4677  0.3812  0.2093
  111OSM    O1311387   5.950   4.320   6.350  0.0044  0.2465 -0.6455
  111OSM    O1411388   6.129   4.471   6.277  0.3505 -0.5430  0.0012
  111OSM    O1111389   6.008   4.321   6.110 -0.7881 -0.2578  0.1728
  111OSM    O1211390   6.162   4.235   6.281 -0.3437  0.0402 -0.0415
  111OSM    C1S11391   5.908   4.409   6.056 -0.1690  1.4620 -0.2191
  111OSM    H1S11392   5.935   4.516   6.070  0.9111  1.3520 -1.3799
  111OSM    H1T11393   5.818   4.394   6.120 -2.7494  1.8269 -3.4782
  111OSM     NF11394   5.784   4.473   5.846 -0.1512 -0.0619  0.0818
  111OSM    HNF11395   5.685   4.459   5.843 -0.2849  0.6396  0.6632
  111OSM    C2S11396   5.869   4.372   5.909 -0.0649  0.1199  0.1197
  111OSM    H2S11397   5.970   4.377   5.865  0.4114  0.0867  1.1835
  111OSM    C3S11398   5.814   4.226   5.895  0.6856 -0.0098  0.1341
  111OSM    H3S11399   5.716   4.223   5.947 -0.6494  2.3836 -2.0301
  111OSM     O311400   5.905   4.136   5.962  0.7751  0.1771  0.3617
  111OSM    HO311401   5.959   4.191   6.019  0.9592  1.1209 -0.6882
  111OSM    C4S11402   5.797   4.204   5.743 -0.0323  0.0626 -0.1620
  111OSM    H4S11403   5.710   4.249   5.694  0.0456 -0.9162 -1.2412
  111OSM    C5S11404   5.874   4.136   5.658  0.2487  0.5051 -0.1154
  111OSM    H5S11405   5.968   4.095   5.700  0.1886  0.9787  0.4997
  111OSM    C6S11406   5.855   4.127   5.507  0.7271 -0.6491 -0.0347
  111OSM    H6S11407   5.847   4.023   5.469 -0.5595 -0.3306 -0.7047
  111OSM    H6T11408   5.955   4.150   5.464 -0.5542 -0.1533 -3.0191
  111OSM    C7S11409   5.766   4.217   5.419  0.4367 -1.2073 -0.2493
  111OSM    H7S11410   5.802   4.321   5.436  0.4748 -1.6413  3.1790
  111OSM    H7T11411   5.663   4.225   5.460  0.5637  1.6435 -0.3215
  111OSM    C8S11412   5.768   4.185   5.271 -0.1678 -0.6118  0.0248
  111OSM    H8S11413   5.746   4.078   5.254  1.3320 -1.1984  1.5260
  111OSM    H8T11414   5.872   4.200   5.235 -0.3649 -0.1589 -0.3832
  111OSM    C9S11415   5.681   4.274   5.183  0.4463  0.1531  0.0045
  111OSM    H9S11416   5.718   4.379   5.185  1.9814 -0.3565 -0.7430
  111OSM    H9T11417   5.581   4.276   5.233 -1.3715  0.9631 -3.3528
  111OSM   C10S11418   5.651   4.221   5.033  0.0639  0.1788 -0.2657
  111OSM   H10S11419   5.600   4.122   5.035 -0.1636  0.3021 -0.0159
  111OSM   H10T11420   5.746   4.208   4.976 -0.1183 -0.4552 -0.4319
  111OSM   C11S11421   5.566   4.301   4.945 -0.1040  0.1690 -0.3839
  111OSM   H11S11422   5.605   4.404   4.956 -0.4005  0.3652 -1.1474
  111OSM   H11T11423   5.460   4.311   4.977  0.7865  1.9446  2.3731
  111OSM   C12S11424   5.563   4.255   4.799  0.3204  0.0894  0.3276
  111OSM   H12S11425   5.504   4.161   4.790  1.8153 -0.7333 -1.6425
  111OSM   H12T11426   5.665   4.226   4.766  1.1810  1.1778  1.8782
  111OSM   C13S11427   5.495   4.355   4.698  0.1475  0.3666 -0.7258
  111OSM   H13S11428   5.580   4.416   4.659  1.9532 -0.5936  1.4673
  111OSM   H13T11429   5.427   4.430   4.744  0.6072  0.1007  0.4034
  111OSM   C14S11430   5.410   4.294   4.582 -0.2040 -0.5480  0.1429
  111OSM   H14S11431   5.359   4.370   4.520  1.1759 -0.6180 -1.1235
  111OSM   H14T11432   5.329   4.239   4.635 -0.0437  0.8053  1.8625
  111OSM   C15S11433   5.507   4.205   4.503  0.6628  0.1009 -0.1103
  111OSM   H15S11434   5.449   4.172   4.414  1.1549  1.5517 -0.9996
  111OSM   H15T11435   5.527   4.108   4.552 -0.2134 -1.7707 -3.1532
  111OSM   C16S11436   5.643   4.272   4.464 -0.6155 -0.0207 -0.4065
  111OSM   H16S11437   5.700   4.294   4.557 -1.8050  2.4464 -0.1810
  111OSM   H16T11438   5.628   4.370   4.414 -1.1243 -0.9248 -2.0901
  111OSM   C17S11439   5.717   4.193   4.369 -1.0125  0.6518  0.1115
  111OSM   H17S11440   5.659   4.190   4.274  0.7694 -1.1646 -1.0143
  111OSM   H17T11441   5.739   4.088   4.397 -0.2730  0.9276  0.5805
  111OSM   C18S11442   5.852   4.241   4.321 -0.6526  0.2379 -0.1474
  111OSM   H18S11443   5.912   4.282   4.405  0.7660  2.6630 -2.1798
  111OSM   H18T11444   5.842   4.318   4.241 -0.2070 -0.2688 -0.6983
  111OSM   H18U11445   5.910   4.158   4.278  1.7991  1.9737 -0.3987
  111OSM    C1F11446   5.836   4.600   5.832 -0.2142  0.8541 -1.2030
  111OSM     OF11447   5.952   4.622   5.851 -0.0674  0.2436  1.1054
  111OSM    C2F11448   5.734   4.710   5.808  0.4566  0.1338  0.0686
  111OSM    H2F11449   5.688   4.733   5.907  1.5386  1.6776  0.2399
  111OSM    H2G11450   5.651   4.666   5.748 -1.1022  0.9053  1.5645
  111OSM    C3F11451   5.799   4.831   5.738  0.5914 -0.0854 -0.4388
  111OSM    H3F11452   5.909   4.817   5.730  0.6210  0.4047 -0.9012
  111OSM    H3G11453   5.765   4.922   5.791 -0.0852  0.0230 -1.0378
  111OSM    C4F11454   5.763   4.859   5.588  0.1629 -0.0186  0.4097
  111OSM    H4F11455   5.798   4.963   5.574 -0.4887  0.0099 -1.2703
  111OSM    H4G11456   5.652   4.856   5.579  0.0973  0.0730  1.1525
  111OSM    C5F11457   5.841   4.766   5.490  0.2669 -1.3416  0.0398
  111OSM    H5F11458   5.822   4.659   5.514 -0.6359 -1.4880 -1.2037
  111OSM    H5G11459   5.949   4.792   5.489  0.0983 -0.4565  1.7030
  111OSM    C6F11460   5.783   4.787   5.348 -0.1671  0.0160  0.4529
  111OSM    H6F11461   5.804   4.894   5.326  0.5728  0.2945  2.3076
  111OSM    H6G11462   5.674   4.765   5.341 -0.4542  1.7065 -1.4195
  111OSM    C7F11463   5.840   4.681   5.245 -0.0250 -0.0239  0.0004
  111OSM    H7F11464   5.820   4.579   5.284  1.3242  0.3380  1.7556
  111OSM    H7G11465   5.950   4.695   5.242  0.0264 -0.4939 -0.4171
  111OSM    C8F11466   5.767   4.700   5.109  0.7659 -0.2616 -0.0144
  111OSM    H8F11467   5.676   4.762   5.124 -0.4224 -0.6553 -4.2471
  111OSM    H8G11468   5.736   4.608   5.055 -0.1957  0.7730 -1.3095
  111OSM    C9F11469   5.851   4.797   5.021  0.1421  0.0707  1.3825
  111OSM    H9F11470   5.921   4.860   5.077 -0.4111  2.3575 -0.3390
  111OSM   C10F11471   5.852   4.792   4.888 -0.2161 -0.8781 -0.1752
  111OSM   H10F11472   5.920   4.865   4.843 -0.6321 -0.8516 -0.7723
  111OSM   C11F11473   5.772   4.699   4.794 -0.1093  0.1440 -0.4574
  111OSM   H11F11474   5.699   4.643   4.858  0.7816  0.4275  0.8406
  111OSM   H11G11475   5.836   4.622   4.746  2.3622  1.4679  0.5309
  111OSM   C12F11476   5.684   4.762   4.690 -0.1061  0.3867 -0.5480
  111OSM   H12F11477   5.620   4.842   4.735  0.9784  0.3315  1.2120
  111OSM   H12G11478   5.608   4.682   4.677  0.4818 -0.4823  1.0296
  111OSM   C13F11479   5.762   4.801   4.575 -0.3318 -0.8324  0.2438
  111OSM   H13F11480   5.816   4.712   4.536 -0.3181 -0.3186 -0.9461
  111OSM   H13G11481   5.844   4.866   4.612  0.9402 -0.4446 -2.9063
  111OSM   C14F11482   5.691   4.878   4.469 -0.3310  0.2712  0.3406
  111OSM   H14F11483   5.606   4.935   4.511 -1.6295 -0.0441 -1.7226
  111OSM   H14G11484   5.645   4.807   4.396  3.6633 -1.2462 -0.9678
  111OSM   C15F11485   5.788   4.981   4.389  1.2480 -0.6874 -0.3955
  111OSM   H15F11486   5.831   5.048   4.467 -2.4037  0.9653  0.4503
  111OSM   H15G11487   5.723   5.042   4.323 -0.0441 -1.6642 -0.0759
  111OSM   C16F11488   5.884   4.913   4.289 -0.7510  0.0874 -0.7404
  111OSM   H16F11489   5.830   4.842   4.223  0.7475 -0.3596 -1.5379
  111OSM   H16G11490   5.957   4.855   4.349 -1.2510 -0.3023 -0.5094
  111OSM   C17F11491   5.951   5.025   4.214  0.4600 -0.0353 -0.5527
  111OSM   H17F11492   5.878   5.094   4.167  1.0327  0.8659 -0.1524
  111OSM   H17G11493   6.023   4.985   4.140  2.2705 -2.7081  2.3922
  111OSM   C18F11494   6.032   5.123   4.304 -0.2898  0.4789  0.0904
  111OSM   H18F11495   6.125   5.074   4.341 -0.0534  1.4610  0.8612
  111OSM   H18G11496   5.974   5.175   4.383 -1.8581 -1.1860  0.0910
  111OSM   H18H11497   6.072   5.202   4.237 -0.1037  1.3474  1.1793
  112OSM      N11498   1.037   2.953   6.690  1.0324  0.0237 -0.0708
  112OSM    C1511499   1.109   3.053   6.763 -0.0808 -0.4449 -0.0258
  112OSM   H15A11500   1.049   3.119   6.823  0.1315  3.1427 -3.4012
  112OSM   H15B11501   1.164   3.127   6.708  0.1666  0.3614  1.2589
  112OSM   H15C11502   1.187   2.999   6.816  0.3009  0.5037  0.3862
  112OSM    C1411503   0.939   3.023   6.613  0.1878  0.7829 -0.0662
  112OSM   H14A11504   0.875   2.955   6.558  1.2395 -1.3632  1.2386
  112OSM   H14B11505   0.988   3.090   6.544  0.6216  1.5118  0.9237
  112OSM   H14C11506   0.873   3.079   6.677 -0.4590  1.1494 -1.0273
  112OSM    C1311507   1.134   2.869   6.612 -0.0984  1.2473 -1.0091
  112OSM   H13A11508   1.077   2.814   6.538 -1.6003  0.2939  0.7635
  112OSM   H13B11509   1.182   2.795   6.673 -0.6843 -0.6976 -2.7932
  112OSM   H13C11510   1.210   2.930   6.565  0.5630 -0.0684 -1.6757
  112OSM    C1211511   0.965   2.862   6.790 -0.6673  1.5993  0.0426
  112OSM   H12A11512   0.913   2.925   6.861 -0.2435  1.8475  0.1370
  112OSM   H12B11513   1.041   2.819   6.853 -1.6849 -0.1953  0.1269
  112OSM    C1111514   0.872   2.741   6.741  0.1880  0.3622  0.0127
  112OSM   H11A11515   0.838   2.685   6.831 -0.9919 -1.0537 -1.2658
  112OSM   H11B11516   0.934   2.669   6.684  2.2162  2.0272  0.0008
  112OSM      P11517   0.694   2.678   6.578  0.3885 -0.3476  0.5960
  112OSM    O1311518   0.714   2.542   6.626 -0.0091 -0.2361 -0.1715
  112OSM    O1411519   0.556   2.712   6.539  0.2788 -0.1030  0.0710
  112OSM    O1111520   0.788   2.711   6.457  1.3195 -0.4684  0.2640
  112OSM    O1211521   0.753   2.785   6.669 -0.4494  0.2055  0.5058
  112OSM    C1S11522   0.783   2.623   6.342  0.2366 -0.1908 -0.4248
  112OSM    H1S11523   0.681   2.583   6.321 -1.0913  0.6314  3.6237
  112OSM    H1T11524   0.848   2.534   6.357 -0.3404 -0.6867 -0.7549
  112OSM     NF11525   0.849   2.571   6.116 -0.5177 -0.0284  0.2314
  112OSM    HNF11526   0.937   2.550   6.074 -0.6086  1.3842 -0.7150
  112OSM    C2S11527   0.850   2.678   6.216  0.8479 -0.1814 -0.5654
  112OSM    H2S11528   0.791   2.768   6.189  2.2665  0.5632 -1.2456
  112OSM    C3S11529   0.988   2.732   6.248 -0.1929 -0.0303 -0.7637
  112OSM    H3S11530   1.047   2.650   6.293 -0.8931 -0.9149 -1.4143
  112OSM     O311531   0.973   2.838   6.344 -0.6844 -0.2315 -0.0551
  112OSM    HO311532   0.890   2.806   6.381 -0.7177 -2.1853 -1.6596
  112OSM    C4S11533   1.055   2.776   6.115 -0.2635 -0.6398 -0.8261
  112OSM    H4S11534   1.122   2.702   6.069  1.8642  2.0722 -2.3788
  112OSM    C5S11535   1.055   2.899   6.051 -0.0790 -0.0185 -0.1410
  112OSM    H5S11536   1.003   2.988   6.088  2.3763  2.0464 -1.3862
  112OSM    C6S11537   1.128   2.933   5.922  0.1132  0.4610 -0.9454
  112OSM    H6S11538   1.213   3.001   5.946  0.9781 -0.5940 -0.9213
  112OSM    H6T11539   1.053   2.971   5.849 -0.9358 -0.0468 -0.1515
  112OSM    C7S11540   1.201   2.815   5.844  0.4361  0.4552  0.0408
  112OSM    H7S11541   1.144   2.720   5.848  0.0069  0.7457  2.1845
  112OSM    H7T11542   1.292   2.799   5.905  0.5601 -0.9733 -0.4799
  112OSM    C8S11543   1.223   2.856   5.702 -0.2108  0.6132  0.0886
  112OSM    H8S11544   1.274   2.954   5.690  0.9095 -0.0443 -0.7711
  112OSM    H8T11545   1.117   2.865   5.669 -0.4611 -1.3673  0.2302
  112OSM    C9S11546   1.288   2.741   5.617  0.0720  0.3845 -0.0371
  112OSM    H9S11547   1.238   2.643   5.634  0.8615 -0.6191 -2.8765
  112OSM    H9T11548   1.391   2.730   5.658  0.6795 -0.5886 -1.6924
  112OSM   C10S11549   1.287   2.784   5.461  0.5963 -0.2096 -0.8436
  112OSM   H10S11550   1.367   2.860   5.451  2.2284 -1.7447 -0.0212
  112OSM   H10T11551   1.187   2.828   5.445 -0.2312 -0.6325  2.4971
  112OSM   C11S11552   1.314   2.666   5.371 -0.2769 -0.3677 -0.1576
  112OSM   H11S11553   1.275   2.575   5.420 -1.3916  0.4539  0.5470
  112OSM   H11T11554   1.423   2.652   5.382  0.0071 -0.5847 -2.6756
  112OSM   C12S11555   1.275   2.691   5.228 -0.2292  0.0452  0.2037
  112OSM   H12S11556   1.324   2.788   5.205 -1.9677  1.4088  1.8881
  112OSM   H12T11557   1.169   2.713   5.204 -0.1900 -0.7912 -0.8483
  112OSM   C13S11558   1.333   2.584   5.129 -0.1370 -0.0397  0.6920
  112OSM   H13S11559   1.279   2.488   5.142 -0.0840 -0.5412 -2.1915
  112OSM   H13T11560   1.437   2.577   5.167 -1.3075 -3.2706  3.8770
  112OSM   C14S11561   1.320   2.636   4.985 -0.6307  0.7816 -0.2953
  112OSM   H14S11562   1.365   2.737   4.974  0.2942  0.4624  0.3493
  112OSM   H14T11563   1.211   2.653   4.975 -0.4781  1.9073 -0.1494
  112OSM   C15S11564   1.385   2.530   4.888  0.8264 -0.0102  0.3785
  112OSM   H15S11565   1.331   2.434   4.888 -0.2666  0.5855 -0.2018
  112OSM   H15T11566   1.485   2.512   4.932  0.8710  1.2460  0.8390
  112OSM   C16S11567   1.385   2.585   4.747 -0.2823  0.9215  0.0279
  112OSM   H16S11568   1.448   2.676   4.748  1.0782  0.0089  0.2055
  112OSM   H16T11569   1.287   2.629   4.718  0.8531  3.6906  0.0621
  112OSM   C17S11570   1.434   2.480   4.640  0.5314  0.1408  0.1622
  112OSM   H17S11571   1.354   2.406   4.656  0.2013  0.5646  0.5208
  112OSM   H17T11572   1.533   2.441   4.671 -0.0544 -0.1823  1.7211
  112OSM   C18S11573   1.433   2.534   4.499  0.1882 -0.8995 -0.1486
  112OSM   H18S11574   1.494   2.627   4.499 -0.7568 -0.1898  2.5683
  112OSM   H18T11575   1.328   2.548   4.466  0.3974 -0.6121 -0.7079
  112OSM   H18U11576   1.482   2.465   4.427 -0.8081 -1.0056 -0.7463
  112OSM    C1F11577   0.747   2.547   6.033  0.7022  0.1400 -0.7556
  112OSM     OF11578   0.640   2.613   6.041 -0.3805 -0.0707 -0.4124
  112OSM    C2F11579   0.770   2.448   5.924 -0.7360  0.4528  0.3765
  112OSM    H2F11580   0.803   2.351   5.966 -0.0321  0.2928 -0.5142
  112OSM    H2G11581   0.850   2.483   5.855 -0.7702 -1.2057 -0.5631
  112OSM    C3F11582   0.639   2.434   5.845  0.3663 -0.0516  0.1104
  112OSM    H3F11583   0.585   2.525   5.812 -0.4847  0.1137  1.8517
  112OSM    H3G11584   0.560   2.388   5.908  1.5922 -1.2066  0.8569
  112OSM    C4F11585   0.669   2.338   5.722  0.3981 -0.0746 -0.0454
  112OSM    H4F11586   0.579   2.318   5.659  1.1151  0.5651 -1.3132
  112OSM    H4G11587   0.690   2.240   5.771 -0.3951  0.1999  0.8797
  112OSM    C5F11588   0.783   2.379   5.625  0.4724  0.1130 -0.0761
  112OSM    H5F11589   0.788   2.307   5.541  0.4718 -0.4253  0.3841
  112OSM    H5G11590   0.879   2.365   5.680  0.3203  0.0509  0.1727
  112OSM    C6F11591   0.767   2.527   5.567  0.4463  0.4854  0.1404
  112OSM    H6F11592   0.742   2.592   5.653 -3.8128  0.5114 -0.8854
  112OSM    H6G11593   0.675   2.519   5.504 -0.5275  0.1457  1.5656
  112OSM    C7F11594   0.893   2.574   5.491  0.7613  0.2190  0.5254
  112OSM    H7F11595   0.986   2.561   5.551  2.6018  1.8907 -1.7950
  112OSM    H7G11596   0.900   2.682   5.470  2.1535  0.3623  1.5421
  112OSM    C8F11597   0.916   2.514   5.350 -0.6988  0.2544 -0.5499
  112OSM    H8F11598   0.945   2.407   5.360  0.5988  0.6711  0.3595
  112OSM    H8G11599   1.000   2.571   5.305 -0.3062 -1.1704 -1.6834
  112OSM    C9F11600   0.797   2.516   5.256 -0.0640  0.2360  0.0011
  112OSM    H9F11601   0.703   2.482   5.301 -0.0231  1.6853  1.2469
  112OSM   C10F11602   0.803   2.541   5.123 -0.3390 -0.0206 -0.8262
  112OSM   H10F11603   0.705   2.546   5.073 -0.6518  0.0603 -0.2078
  112OSM   C11F11604   0.940   2.551   5.049 -0.6604 -0.5655  0.4760
  112OSM   H11F11605   1.025   2.492   5.091 -0.4264  0.2200  1.1280
  112OSM   H11G11606   0.982   2.654   5.044  0.3654 -1.0244 -1.6791
  112OSM   C12F11607   0.923   2.514   4.900 -0.2959 -0.0890 -0.0052
  112OSM   H12F11608   1.021   2.523   4.848 -0.7575  3.1308 -0.5279
  112OSM   H12G11609   0.850   2.589   4.862 -0.3955  0.1717  0.6843
  112OSM   C13F11610   0.874   2.373   4.862  0.1884  0.0297 -0.4536
  112OSM   H13F11611   0.773   2.351   4.905  1.0247 -1.1580  0.9998
  112OSM   H13G11612   0.924   2.293   4.919 -0.4782  0.7117  1.1378
  112OSM   C14F11613   0.873   2.350   4.713  0.3981  0.0733 -0.0279
  112OSM   H14F11614   0.975   2.346   4.668  0.7661  0.5091  0.7382
  112OSM   H14G11615   0.819   2.425   4.652 -1.0742 -2.0272 -1.4596
  112OSM   C15F11616   0.822   2.207   4.680 -0.2724 -0.8751  0.1632
  112OSM   H15F11617   0.830   2.189   4.571  0.0182  1.2163 -0.2113
  112OSM   H15G11618   0.714   2.199   4.704 -0.2133  0.7474  1.1347
  112OSM   C16F11619   0.904   2.094   4.750 -0.6074  0.6664 -0.3960
  112OSM   H16F11620   0.868   2.089   4.855 -2.0164 -2.7648 -0.9408
  112OSM   H16G11621   1.009   2.130   4.743 -0.9230  1.3446 -3.0446
  112OSM   C17F11622   0.907   1.963   4.662 -0.9640  0.2931  0.1533
  112OSM   H17F11623   0.995   1.909   4.703 -0.3214  1.0741 -0.1706
  112OSM   H17G11624   0.940   1.988   4.559  0.4750 -1.3481  0.1608
  112OSM   C18F11625   0.786   1.874   4.656  0.3739  0.2726  0.7596
  112OSM   H18F11626   0.813   1.777   4.610  1.1260  1.2710 -1.0159
  112OSM   H18G11627   0.720   1.926   4.583 -0.5797  1.1976  2.2224
  112OSM   H18H11628   0.739   1.864   4.756  0.1619  1.7157  0.8319
  113OSM      N11629   4.464   1.911   6.917 -0.3563  0.1779  0.2384
  113OSM    C1511630   4.471   1.769   6.857  0.2972  0.1974  0.7342
  113OSM   H15A11631   4.413   1.762   6.766  1.9264 -1.3540 -0.2559
  113OSM   H15B11632   4.429   1.702   6.930 -0.7170 -0.9021 -0.8077
  113OSM   H15C11633   4.570   1.728   6.839  1.6355  2.4994  2.2513
  113OSM    C1411634   4.321   1.943   6.965 -0.4830  0.7936  1.1374
  113OSM   H14A11635   4.280   1.866   7.029 -0.4354  0.7732  1.1430
  113OSM   H14B11636   4.253   1.949   6.881  1.5650  1.2669 -0.5477
  113OSM   H14C11637   4.313   2.039   7.014  0.2686  0.7324  1.3910
  113OSM    C1311638   4.551   1.913   7.042  0.2379  0.0822 -0.1253
  113OSM   H13A11639   4.530   1.998   7.106  0.1954  0.1565 -0.2368
  113OSM   H13B11640   4.657   1.915   7.020  0.3267 -2.6702 -0.3029
  113OSM   H13C11641   4.544   1.825   7.103  0.5873  1.0794  1.4137
  113OSM    C1211642   4.505   2.012   6.817 -0.0840 -0.1722  0.8879
  113OSM   H12A11643   4.611   2.000   6.804  0.4298  1.3491  3.0951
  113OSM   H12B11644   4.493   2.111   6.859  4.5276  0.2218  1.8366
  113OSM    C1111645   4.441   2.012   6.682  0.0695  0.2763  0.0533
  113OSM   H11A11646   4.460   1.909   6.646 -0.0296 -0.2511  1.4295
  113OSM   H11B11647   4.491   2.082   6.613  0.5474  0.6476  0.7681
  113OSM      P11648   4.248   2.191   6.701 -0.0337 -0.1453 -0.4477
  113OSM    O1311649   4.111   2.189   6.755 -0.1271  0.5563  0.6082
  113OSM    O1411650   4.341   2.268   6.787 -0.2716  0.3396 -0.1193
  113OSM    O1111651   4.250   2.248   6.556  0.2131  0.2754  0.7535
  113OSM    O1211652   4.301   2.039   6.687  0.3527 -0.1770  0.5197
  113OSM    C1S11653   4.223   2.154   6.449  0.4813 -0.0171  0.1411
  113OSM    H1S11654   4.127   2.099   6.460  0.5678 -0.1353  0.3165
  113OSM    H1T11655   4.301   2.075   6.439  0.1230 -0.3276 -0.2145
  113OSM     NF11656   4.225   2.134   6.197  0.2474 -0.2423 -0.6566
  113OSM    HNF11657   4.315   2.117   6.158 -0.1693 -0.0489 -1.7348
  113OSM    C2S11658   4.222   2.228   6.308 -0.0841 -0.8060  0.4330
  113OSM    H2S11659   4.126   2.282   6.301  0.6363  0.5996  1.1082
  113OSM    C3S11660   4.325   2.347   6.308 -0.0504 -0.2562 -0.4282
  113OSM    H3S11661   4.420   2.303   6.344  0.9839  2.0340 -0.1889
  113OSM     O311662   4.295   2.448   6.405  0.2310 -0.1359  0.1178
  113OSM    HO311663   4.235   2.402   6.465 -2.9930  2.8214 -0.5141
  113OSM    C4S11664   4.348   2.404   6.173  0.1951 -1.2215  0.0970
  113OSM    H4S11665   4.449   2.379   6.137 -0.3233 -4.1572  0.4469
  113OSM    C5S11666   4.262   2.473   6.100  0.3891 -1.3296  0.4098
  113OSM    H5S11667   4.170   2.502   6.153  1.5147  1.8361  0.8530
  113OSM    C6S11668   4.282   2.527   5.955  0.3500  0.1412  0.6342
  113OSM    H6S11669   4.247   2.632   5.959 -1.2539 -0.3959  2.1382
  113OSM    H6T11670   4.217   2.477   5.881 -0.2693  1.3628  0.3253
  113OSM    C7S11671   4.431   2.525   5.910 -0.5681 -0.2662 -1.0189
  113OSM    H7S11672   4.473   2.422   5.909  1.0503  0.3599 -0.6233
  113OSM    H7T11673   4.485   2.583   5.988 -0.5874  0.7846 -1.7560
  113OSM    C8S11674   4.448   2.594   5.769 -0.5059 -0.0403 -0.2879
  113OSM    H8S11675   4.359   2.587   5.702  1.2805 -1.2252 -2.7038
  113OSM    H8T11676   4.514   2.525   5.713  0.4316  1.1148 -0.6543
  113OSM    C9S11677   4.513   2.730   5.758  0.5267 -0.3589 -0.4060
  113OSM    H9S11678   4.618   2.724   5.795  0.7994 -1.5812 -1.2980
  113OSM    H9T11679   4.463   2.793   5.834  2.3918  1.0355 -0.2552
  113OSM   C10S11680   4.508   2.794   5.620  0.1723  0.3509  0.0601
  113OSM   H10S11681   4.557   2.894   5.619 -1.8198  1.4009  0.8038
  113OSM   H10T11682   4.406   2.825   5.587  0.1842 -0.4213 -0.7325
  113OSM   C11S11683   4.567   2.702   5.511  0.5869 -0.6902 -0.1864
  113OSM   H11S11684   4.501   2.614   5.495  1.0680 -1.2506  0.8273
  113OSM   H11T11685   4.670   2.670   5.538  0.6657  0.2657  0.7016
  113OSM   C12S11686   4.553   2.762   5.375  0.3981 -0.1586  0.2296
  113OSM   H12S11687   4.613   2.856   5.372  1.2106 -0.6618  0.5254
  113OSM   H12T11688   4.447   2.788   5.350  1.0439  0.8373 -1.6235
  113OSM   C13S11689   4.598   2.675   5.258 -0.5116 -0.4636 -0.0559
  113OSM   H13S11690   4.703   2.638   5.267 -0.2901 -0.2018 -1.3594
  113OSM   H13T11691   4.605   2.738   5.167  1.1050  1.0060  1.0186
  113OSM   C14S11692   4.508   2.553   5.233 -0.9479 -0.3448 -0.3730
  113OSM   H14S11693   4.399   2.576   5.237 -0.9410 -0.4072  0.3116
  113OSM   H14T11694   4.512   2.472   5.310 -1.9122 -0.2489 -0.2113
  113OSM   C15S11695   4.551   2.480   5.095 -0.2214  0.5439 -0.3921
  113OSM   H15S11696   4.541   2.552   5.011  1.0207  2.2604  0.8711
  113OSM   H15T11697   4.490   2.388   5.082  0.4602  0.3376 -2.7893
  113OSM   C16S11698   4.690   2.419   5.113 -0.4607 -0.5816  0.0189
  113OSM   H16S11699   4.716   2.418   5.221  2.2613 -0.2917 -0.5463
  113OSM   H16T11700   4.772   2.487   5.079 -2.1438  1.4523 -0.1906
  113OSM   C17S11701   4.714   2.278   5.055 -0.0890 -0.5782  0.2961
  113OSM   H17S11702   4.643   2.206   5.102  2.5758 -2.6547  1.3934
  113OSM   H17T11703   4.817   2.243   5.076  0.1985 -0.3604 -0.6894
  113OSM   C18S11704   4.707   2.267   4.899 -0.4662  0.0823  0.0933
  113OSM   H18S11705   4.726   2.164   4.861 -2.5432  0.1099 -1.1555
  113OSM   H18T11706   4.772   2.345   4.852 -0.7367 -0.2230 -0.7985
  113OSM   H18U11707   4.605   2.302   4.875 -0.6628  0.0019  0.7808
  113OSM    C1F11708   4.119   2.058   6.157  0.2441 -0.5177 -0.2102
  113OSM     OF11709   4.004   2.088   6.194 -0.2638  0.0485 -0.4328
  113OSM    C2F11710   4.141   1.949   6.051  0.2905 -0.2341 -0.1329
  113OSM    H2F11711   4.044   1.896   6.059  0.0605  0.4551  3.0842
  113OSM    H2G11712   4.228   1.884   6.075  0.1014 -0.4546 -0.0516
  113OSM    C3F11713   4.180   2.007   5.913  0.3551  0.1207 -0.4979
  113OSM    H3F11714   4.204   1.923   5.845  1.7475 -0.0314  0.1554
  113OSM    H3G11715   4.276   2.058   5.934 -0.1647 -0.0188  2.7899
  113OSM    C4F11716   4.079   2.106   5.838 -0.6314  0.7678 -0.3469
  113OSM    H4F11717   4.049   2.186   5.909  0.6395 -0.9519  2.3050
  113OSM    H4G11718   3.987   2.049   5.813 -0.2380 -0.8332  1.6118
  113OSM    C5F11719   4.162   2.163   5.721  0.5963 -0.0341  0.0191
  113OSM    H5F11720   4.215   2.076   5.677  2.1222  0.4962  0.7281
  113OSM    H5G11721   4.244   2.227   5.760 -0.3995  1.3384 -0.0731
  113OSM    C6F11722   4.091   2.247   5.611 -1.0775 -0.0074  0.0891
  113OSM    H6F11723   4.068   2.347   5.654  1.9257  0.2507  1.3886
  113OSM    H6G11724   3.994   2.200   5.586 -0.2399 -2.2424  0.8125
  113OSM    C7F11725   4.176   2.285   5.484 -0.5423 -0.5092  0.3991
  113OSM    H7F11726   4.225   2.193   5.446 -2.8205 -2.1033  1.1097
  113OSM    H7G11727   4.254   2.357   5.516  0.1567 -1.3565  0.6425
  113OSM    C8F11728   4.080   2.347   5.376 -0.5102  0.3494 -0.1102
  113OSM    H8F11729   4.026   2.435   5.418 -1.1762  0.1949 -0.6180
  113OSM    H8G11730   4.004   2.269   5.353  0.1155 -0.8378  1.6848
  113OSM    C9F11731   4.158   2.386   5.249 -0.0728  0.2904 -0.6341
  113OSM    H9F11732   4.204   2.486   5.253  1.3312 -0.2945 -1.6508
  113OSM   C10F11733   4.178   2.313   5.135  0.1907 -0.4988 -1.1235
  113OSM   H10F11734   4.240   2.349   5.051  0.1605  1.7215 -0.2561
  113OSM   C11F11735   4.125   2.173   5.115 -0.0300 -0.0434  0.7841
  113OSM   H11F11736   4.035   2.172   5.050 -0.4430  0.3704  1.3433
  113OSM   H11G11737   4.104   2.126   5.213  1.2763  0.3996  1.2931
  113OSM   C12F11738   4.234   2.079   5.053 -0.2689 -0.1438 -0.1258
  113OSM   H12F11739   4.205   1.973   5.066 -0.4684 -0.3345 -1.8353
  113OSM   H12G11740   4.330   2.087   5.109 -0.6639  1.5817  0.3762
  113OSM   C13F11741   4.251   2.110   4.902  0.1325 -0.0500 -0.9244
  113OSM   H13F11742   4.244   2.219   4.880 -2.1623  0.3784  1.3908
  113OSM   H13G11743   4.168   2.061   4.847  0.0908  0.1654 -1.0530
  113OSM   C14F11744   4.391   2.065   4.859 -0.3321 -0.0503  0.1992
  113OSM   H14F11745   4.471   2.124   4.909 -0.7016  1.1129 -0.5279
  113OSM   H14G11746   4.408   2.085   4.751  1.4538 -2.0947  0.0347
  113OSM   C15F11747   4.422   1.915   4.856  0.7169  0.3052  0.0143
  113OSM   H15F11748   4.346   1.863   4.793 -1.0946  2.2618  0.4854
  113OSM   H15G11749   4.416   1.877   4.960 -0.5336  0.8505  0.1556
  113OSM   C16F11750   4.563   1.878   4.815 -0.1394  0.1729  0.4542
  113OSM   H16F11751   4.579   1.771   4.838  3.6104  0.2095 -1.3065
  113OSM   H16G11752   4.638   1.924   4.883  0.6362 -1.5956  0.8593
  113OSM   C17F11753   4.603   1.903   4.670 -0.2017  0.5803  0.5329
  113OSM   H17F11754   4.712   1.886   4.663 -0.2924  0.6755 -2.4931
  113OSM   H17G11755   4.602   2.012   4.650  1.4596  0.4052 -0.7202
  113OSM   C18F11756   4.533   1.834   4.557  0.2997 -0.3806  0.8826
  113OSM   H18F11757   4.589   1.852   4.462  1.8362  0.6029  1.9211
  113OSM   H18G11758   4.433   1.881   4.550  1.1791  1.3892 -1.0497
  113OSM   H18H11759   4.527   1.725   4.577  1.2483 -0.6632 -0.1932
  114OSM      N11760   3.598   1.106   6.120  0.1912  0.7873  0.5253
  114OSM    C1511761   3.587   1.141   5.974  0.3163  0.2823  0.4868
  114OSM   H15A11762   3.577   1.051   5.916 -1.1117 -1.2887  2.9656
  114OSM   H15B11763   3.675   1.187   5.932 -0.5641  1.3630 -0.2065
  114OSM   H15C11764   3.508   1.214   5.963  0.8287  0.8172  0.2845
  114OSM    C1411765   3.453   1.096   6.160  0.0240 -0.3381  0.0601
  114OSM   H14A11766   3.455   1.039   6.252  0.1914 -0.3739  0.0339
  114OSM   H14B11767   3.409   1.055   6.070 -2.1598  2.6974 -0.3783
  114OSM   H14C11768   3.415   1.194   6.181 -2.4034 -1.0935 -0.4949
  114OSM    C1311769   3.656   0.967   6.122 -0.2665 -0.1454  0.0704
  114OSM   H13A11770   3.584   0.886   6.128 -0.4603  0.0690  0.6948
  114OSM   H13B11771   3.712   0.952   6.212 -0.5222 -0.1508  0.2301
  114OSM   H13C11772   3.731   0.964   6.044 -1.7734  1.6338 -1.5578
  114OSM    C1211773   3.682   1.211   6.186  0.0994 -0.1162  0.2084
  114OSM   H12A11774   3.689   1.183   6.291 -1.5917 -0.1746  0.3277
  114OSM   H12B11775   3.635   1.307   6.177 -2.3117 -1.4100 -2.2605
  114OSM    C1111776   3.835   1.232   6.133 -0.2728 -1.2180 -0.7418
  114OSM   H11A11777   3.875   1.328   6.173 -1.4938 -0.5432 -1.0546
  114OSM   H11B11778   3.820   1.266   6.028  0.1251  2.2751  0.2065
  114OSM      P11779   4.002   1.102   6.264 -0.1174  0.1993 -0.0756
  114OSM    O1311780   4.077   1.221   6.311 -0.5215 -0.6474  0.2323
  114OSM    O1411781   3.911   1.029   6.362  0.0746  0.1070  0.7760
  114OSM    O1111782   4.112   0.997   6.237  0.0927 -0.4833  0.4446
  114OSM    O1211783   3.922   1.117   6.135  0.1328  0.4210 -0.0310
  114OSM    C1S11784   4.095   0.896   6.132  0.0976 -0.3647  0.4801
  114OSM    H1S11785   4.017   0.931   6.061  2.3833  3.1714 -0.5297
  114OSM    H1T11786   4.058   0.802   6.179  1.5082  0.1006  2.6645
  114OSM     NF11787   4.197   0.785   5.943  0.3566 -0.1972 -0.1040
  114OSM    HNF11788   4.194   0.685   5.944 -0.0905 -0.2145 -1.3232
  114OSM    C2S11789   4.224   0.857   6.058  0.5086 -0.3522 -0.0386
  114OSM    H2S11790   4.281   0.949   6.031 -2.0229  0.9461 -1.2704
  114OSM    C3S11791   4.316   0.775   6.155  0.0965  0.2894  0.3415
  114OSM    H3S11792   4.260   0.687   6.196 -0.6820  0.8408  0.4836
  114OSM     O311793   4.341   0.843   6.276  0.1763  0.1178  0.1914
  114OSM    HO311794   4.271   0.908   6.285 -1.6000 -1.6280 -0.1341
  114OSM    C4S11795   4.446   0.723   6.094  0.1683 -0.0614 -0.0447
  114OSM    H4S11796   4.446   0.618   6.062 -0.7630  0.0725 -0.5313
  114OSM    C5S11797   4.552   0.794   6.053 -0.2627  0.6907  0.8743
  114OSM    H5S11798   4.551   0.901   6.079 -1.0778  0.6220  1.1750
  114OSM    C6S11799   4.676   0.721   5.993 -0.0762 -0.1993 -0.1964
  114OSM    H6S11800   4.676   0.610   6.001 -0.3099 -0.2516 -0.8746
  114OSM    H6T11801   4.765   0.775   6.033  0.2354  0.4126 -1.6465
  114OSM    C7S11802   4.678   0.744   5.837  0.7475  0.0863  0.1255
  114OSM    H7S11803   4.774   0.711   5.792  0.4898  0.2397 -0.5333
  114OSM    H7T11804   4.671   0.853   5.816  0.4879 -0.0547 -0.5471
  114OSM    C8S11805   4.564   0.688   5.763  0.6485  0.6508 -0.3920
  114OSM    H8S11806   4.479   0.760   5.770  0.6623  0.5197  1.6862
  114OSM    H8T11807   4.531   0.589   5.800 -0.3390  1.5942  1.3999
  114OSM    C9S11808   4.591   0.681   5.611  0.7797  0.4037  0.6398
  114OSM    H9S11809   4.678   0.622   5.578  1.1032  1.6636 -0.8736
  114OSM    H9T11810   4.608   0.782   5.568 -2.3861  0.5246 -0.6349
  114OSM   C10S11811   4.456   0.640   5.541 -0.1214 -0.3896  0.4434
  114OSM   H10S11812   4.388   0.726   5.559  0.8987  0.6637 -0.5419
  114OSM   H10T11813   4.408   0.547   5.579 -2.6402  0.2109 -1.0575
  114OSM   C11S11814   4.465   0.629   5.389  0.1989 -0.2999 -0.2867
  114OSM   H11S11815   4.524   0.537   5.368 -0.1735 -0.9521  1.3658
  114OSM   H11T11816   4.526   0.714   5.350  1.9187 -0.6558  1.4723
  114OSM   C12S11817   4.331   0.615   5.319 -0.3070 -0.5945  0.3707
  114OSM   H12S11818   4.271   0.703   5.350  0.8172 -0.0893  1.1695
  114OSM   H12T11819   4.275   0.527   5.356 -0.9005  0.3472  1.7803
  114OSM   C13S11820   4.342   0.613   5.166  0.1176  0.6189 -0.2736
  114OSM   H13S11821   4.383   0.713   5.138 -0.1228  0.6200 -0.6274
  114OSM   H13T11822   4.239   0.598   5.127 -0.2584 -1.9163  1.4987
  114OSM   C14S11823   4.421   0.502   5.090  0.1255  0.3217  0.0084
  114OSM   H14S11824   4.370   0.403   5.098 -0.5736  0.4904 -1.9235
  114OSM   H14T11825   4.517   0.499   5.146 -1.0860  1.4311  2.2976
  114OSM   C15S11826   4.446   0.536   4.951 -0.1989 -0.0215  0.0978
  114OSM   H15S11827   4.474   0.643   4.953 -1.7454  0.4253  2.4253
  114OSM   H15T11828   4.357   0.526   4.886 -0.6432 -1.1890  0.8406
  114OSM   C16S11829   4.552   0.444   4.891  0.2187 -0.7667 -0.2131
  114OSM   H16S11830   4.567   0.358   4.960  1.3236  0.4535  1.1211
  114OSM   H16T11831   4.649   0.489   4.863  0.6122 -2.4404 -1.7462
  114OSM   C17S11832   4.507   0.386   4.763  0.3768 -0.1476  0.2555
  114OSM   H17S11833   4.489   0.467   4.689  2.9358  0.7312  0.4835
  114OSM   H17T11834   4.413   0.330   4.783 -0.2853  0.8960  0.1390
  114OSM   C18S11835   4.611   0.298   4.692 -0.2230  0.0383  0.0493
  114OSM   H18S11836   4.694   0.359   4.652 -0.0819 -1.7584 -2.7293
  114OSM   H18T11837   4.565   0.244   4.606  0.0715  0.2242 -0.2260
  114OSM   H18U11838   4.651   0.224   4.765  1.1750 -0.4246 -1.1411
  114OSM    C1F11839   4.140   0.830   5.836  0.1087  0.1086 -0.4983
  114OSM     OF11840   4.113   0.944   5.822 -0.7853 -0.1112  0.0936
  114OSM    C2F11841   4.112   0.725   5.725  0.5915  0.5579 -0.1552
  114OSM    H2F11842   4.052   0.643   5.770  1.3304  0.1092  0.0332
  114OSM    H2G11843   4.205   0.679   5.685  0.9554  0.9582  0.2201
  114OSM    C3F11844   4.025   0.798   5.614 -0.0807 -0.6292  0.4834
  114OSM    H3F11845   4.075   0.895   5.592 -0.6993 -0.3623  0.2441
  114OSM    H3G11846   3.934   0.824   5.672  0.0887  1.7939 -0.2288
  114OSM    C4F11847   3.994   0.718   5.493 -0.4445 -0.4322  0.3264
  114OSM    H4F11848   3.957   0.620   5.528  0.0911  0.0348  2.3569
  114OSM    H4G11849   4.086   0.677   5.446 -0.9220 -1.2297  0.0690
  114OSM    C5F11850   3.907   0.789   5.387 -0.1691  0.4542 -0.3700
  114OSM    H5F11851   3.970   0.850   5.320  1.4498 -2.1362 -1.3318
  114OSM    H5G11852   3.838   0.865   5.431 -0.0063  0.8361 -0.7693
  114OSM    C6F11853   3.822   0.685   5.309 -0.1120 -0.6055  0.2559
  114OSM    H6F11854   3.754   0.737   5.238  1.1210 -0.3350 -0.7751
  114OSM    H6G11855   3.749   0.642   5.381 -2.8869 -1.2514 -2.7113
  114OSM    C7F11856   3.909   0.582   5.234 -0.2789  0.2393  0.1433
  114OSM    H7F11857   3.990   0.542   5.300  0.2048  1.1393  0.1160
  114OSM    H7G11858   3.955   0.641   5.153 -1.2105 -0.8598 -1.2319
  114OSM    C8F11859   3.823   0.470   5.181  0.0195  0.7181  0.2155
  114OSM    H8F11860   3.750   0.534   5.128  0.4882  0.3951 -0.8421
  114OSM    H8G11861   3.776   0.410   5.262  2.9622 -1.1674  0.6918
  114OSM    C9F11862   3.895   0.381   5.088 -0.6473  0.4840 -0.2061
  114OSM    H9F11863   3.946   0.300   5.141 -2.0223 -1.8201 -2.2275
  114OSM   C10F11864   3.898   0.385   4.954  0.5329  0.0045 -0.6300
  114OSM   H10F11865   3.932   0.296   4.898  0.0665 -0.7424  0.2564
  114OSM   C11F11866   3.826   0.485   4.867  0.2547 -1.3921  0.4356
  114OSM   H11F11867   3.889   0.509   4.779  1.5922  0.7536  1.8715
  114OSM   H11G11868   3.810   0.585   4.912  0.2859 -0.5810 -1.3123
  114OSM   C12F11869   3.689   0.438   4.816  0.3522 -0.1263  0.0354
  114OSM   H12F11870   3.701   0.347   4.754 -0.2057 -0.0476 -0.1998
  114OSM   H12G11871   3.652   0.520   4.750 -1.7217 -0.6618  0.4488
  114OSM   C13F11872   3.584   0.414   4.925 -0.2292 -0.1982 -0.6720
  114OSM   H13F11873   3.581   0.504   4.989  2.2955  0.4176 -1.3125
  114OSM   H13G11874   3.611   0.326   4.988  0.4525 -0.0033 -0.6924
  114OSM   C14F11875   3.440   0.382   4.872  0.6798  0.8851 -0.6905
  114OSM   H14F11876   3.377   0.333   4.950  2.8889 -0.6858  0.2106
  114OSM   H14G11877   3.448   0.310   4.788 -0.4249  1.3784 -1.2350
  114OSM   C15F11878   3.362   0.502   4.825  0.1656 -1.6986 -0.1238
  114OSM   H15F11879   3.435   0.554   4.759 -1.2852 -0.4746 -0.8368
  114OSM   H15G11880   3.338   0.565   4.913 -1.1455  1.7115 -2.6997
  114OSM   C16F11881   3.227   0.476   4.750 -0.0892 -0.3681  0.8675
  114OSM   H16F11882   3.147   0.452   4.823  0.4253 -0.8524  1.2769
  114OSM   H16G11883   3.239   0.382   4.691  0.5572  0.2631 -0.0472
  114OSM   C17F11884   3.186   0.599   4.671  0.5452 -0.6652 -0.1227
  114OSM   H17F11885   3.279   0.641   4.627  1.5659 -0.2438  2.3162
  114OSM   H17G11886   3.163   0.687   4.734  2.5010  0.4158 -0.8247
  114OSM   C18F11887   3.089   0.569   4.562 -0.8182  0.3800  0.0452
  114OSM   H18F11888   3.146   0.518   4.481 -0.1096  1.5889 -0.2301
  114OSM   H18G11889   3.058   0.659   4.506  0.7146  1.3335  0.6608
  114OSM   H18H11890   2.997   0.509   4.583 -1.2091  0.3637 -1.5531
  115OSM      N11891   4.794   4.345   6.376 -0.2497 -1.1373  0.1465
  115OSM    C1511892   4.767   4.361   6.229 -0.4945 -0.1923  0.0589
  115OSM   H15A11893   4.854   4.405   6.182 -1.4407  1.6438 -0.0563
  115OSM   H15B11894   4.675   4.417   6.224 -0.4073  0.2126  2.2294
  115OSM   H15C11895   4.760   4.265   6.179  0.8898  0.8397 -2.3206
  115OSM    C1411896   4.908   4.255   6.406  0.3083 -0.5649  0.2112
  115OSM   H14A11897   4.996   4.279   6.349  0.6482  0.3448  1.0892
  115OSM   H14B11898   4.889   4.152   6.380  0.4109 -0.2943 -1.0057
  115OSM   H14C11899   4.928   4.265   6.511  0.4489 -2.1113  0.3555
  115OSM    C1311900   4.837   4.486   6.424  0.7153 -0.0439  0.5868
  115OSM   H13A11901   4.764   4.559   6.391 -0.1907 -1.0111  0.3856
  115OSM   H13B11902   4.929   4.521   6.381  0.4698  2.2024  1.7230
  115OSM   H13C11903   4.841   4.492   6.532 -0.6405 -1.1145  0.7324
  115OSM    C1211904   4.665   4.293   6.447 -0.7272  0.4798  0.2245
  115OSM   H12A11905   4.642   4.198   6.402  1.6440  0.5367 -1.3015
  115OSM   H12B11906   4.591   4.370   6.433 -1.2278  0.1512  0.9713
  115OSM    C1111907   4.658   4.259   6.601  0.0987 -0.1254 -0.8976
  115OSM   H11A11908   4.552   4.258   6.633  0.1031 -0.9460 -0.9029
  115OSM   H11B11909   4.707   4.350   6.642 -1.8146  0.4989  0.1298
  115OSM      P11910   4.677   4.008   6.641  0.0279 -0.6583  0.3356
  115OSM    O1311911   4.777   3.914   6.693  0.2592 -0.6308 -0.0991
  115OSM    O1411912   4.541   3.994   6.693  0.4538 -0.4399 -0.8579
  115OSM    O1111913   4.667   3.999   6.484 -0.3274 -0.7257  0.4617
  115OSM    O1211914   4.736   4.156   6.656 -0.4520 -0.0907  0.0787
  115OSM    C1S11915   4.562   3.921   6.427 -0.5523 -0.1829  0.6101
  115OSM    H1S11916   4.472   3.985   6.421  0.8870  2.1642  2.5138
  115OSM    H1T11917   4.535   3.832   6.489 -0.2752  0.0044  0.9998
  115OSM     NF11918   4.505   3.778   6.238 -0.0288 -0.2173  0.0065
  115OSM    HNF11919   4.528   3.681   6.237 -1.2097 -0.5156 -0.7037
  115OSM    C2S11920   4.604   3.875   6.283  0.4032  0.2168 -0.6369
  115OSM    H2S11921   4.606   3.970   6.224 -0.7906  1.5612  1.3651
  115OSM    C3S11922   4.745   3.806   6.275 -0.6475  0.3798  0.5692
  115OSM    H3S11923   4.732   3.718   6.341 -2.6219  1.0277  1.1140
  115OSM     O311924   4.851   3.886   6.329  0.1766  0.0178 -0.4899
  115OSM    HO311925   4.801   3.945   6.386 -1.1708  0.0939 -1.6907
  115OSM    C4S11926   4.784   3.777   6.132  0.3634 -0.1601 -0.6302
  115OSM    H4S11927   4.809   3.865   6.070  2.8728  0.6261  1.3250
  115OSM    C5S11928   4.813   3.653   6.088 -0.0972  0.1060 -0.9273
  115OSM    H5S11929   4.818   3.575   6.165 -2.4703  1.0133  0.2574
  115OSM    C6S11930   4.854   3.620   5.947 -0.0928  0.8359 -0.3006
  115OSM    H6S11931   4.778   3.558   5.893 -0.7902 -0.0413  1.5984
  115OSM    H6T11932   4.941   3.552   5.958 -1.3490 -1.1827 -1.9359
  115OSM    C7S11933   4.883   3.746   5.862  0.2956 -0.0568 -0.4586
  115OSM    H7S11934   4.981   3.792   5.885 -0.2143  1.0718 -0.4380
  115OSM    H7T11935   4.802   3.822   5.865 -0.2426 -0.6557  1.8210
  115OSM    C8S11936   4.895   3.707   5.708  0.0710 -0.1230  0.1018
  115OSM    H8S11937   4.966   3.624   5.690 -1.5965 -1.5010 -0.4413
  115OSM    H8T11938   4.936   3.794   5.653 -0.1869  0.0371  0.1606
  115OSM    C9S11939   4.758   3.683   5.640 -0.1203 -0.7159 -0.6778
  115OSM    H9S11940   4.696   3.775   5.630  0.2712 -0.5787 -2.0504
  115OSM    H9T11941   4.704   3.601   5.691 -0.2169  0.0819  0.5399
  115OSM   C10S11942   4.782   3.636   5.503  0.0066  0.1734  1.0867
  115OSM   H10S11943   4.835   3.539   5.504 -0.0982  0.0983  0.2221
  115OSM   H10T11944   4.855   3.702   5.452  0.3123  0.8997  2.4004
  115OSM   C11S11945   4.664   3.655   5.402 -0.0914 -0.4949 -0.5647
  115OSM   H11S11946   4.640   3.763   5.398 -0.1101 -0.4532  0.3408
  115OSM   H11T11947   4.571   3.603   5.432 -0.7159 -0.0116 -1.6272
  115OSM   C12S11948   4.709   3.640   5.255 -0.0624  0.0807 -0.1518
  115OSM   H12S11949   4.751   3.537   5.248 -2.5072 -0.9443 -1.2178
  115OSM   H12T11950   4.788   3.704   5.211 -0.6074  0.5003 -0.5339
  115OSM   C13S11951   4.596   3.646   5.164  0.2788  0.0777 -0.2569
  115OSM   H13S11952   4.569   3.754   5.155 -0.0028 -0.0834 -1.7392
  115OSM   H13T11953   4.512   3.582   5.197  0.7085 -2.1846 -3.0660
  115OSM   C14S11954   4.640   3.588   5.026 -0.9604 -0.4837  0.2845
  115OSM   H14S11955   4.681   3.485   5.039 -1.5423 -0.4366  3.2779
  115OSM   H14T11956   4.721   3.653   4.987 -1.4396  0.3613  0.6965
  115OSM   C15S11957   4.535   3.579   4.915  0.8448 -0.2277  0.0016
  115OSM   H15S11958   4.503   3.682   4.893  0.8825 -0.1325  0.3880
  115OSM   H15T11959   4.452   3.520   4.961 -0.3512  1.6828  0.3766
  115OSM   C16S11960   4.589   3.514   4.788  0.1934  0.6109 -0.2415
  115OSM   H16S11961   4.655   3.429   4.813 -0.3486 -0.1223 -1.2447
  115OSM   H16T11962   4.653   3.593   4.742  0.6011  0.9008  0.8026
  115OSM   C17S11963   4.482   3.458   4.700  0.2105 -0.0554  0.1500
  115OSM   H17S11964   4.415   3.543   4.672  0.1059 -0.5035 -1.0244
  115OSM   H17T11965   4.413   3.397   4.762  0.3498  0.6233  0.9817
  115OSM   C18S11966   4.535   3.398   4.576 -0.3383  0.6514  0.0075
  115OSM   H18S11967   4.599   3.468   4.518  0.4596 -0.9585 -1.1341
  115OSM   H18T11968   4.461   3.355   4.504 -1.8148  0.5441  1.5286
  115OSM   H18U11969   4.609   3.320   4.604 -0.2065  0.3415 -1.1562
  115OSM    C1F11970   4.381   3.817   6.216  0.4396  0.2743  0.2454
  115OSM     OF11971   4.351   3.934   6.205 -0.1874 -0.2413  0.1598
  115OSM    C2F11972   4.275   3.702   6.210 -0.2041 -0.1637  0.2397
  115OSM    H2F11973   4.254   3.686   6.318  2.5555  2.0140  1.2059
  115OSM    H2G11974   4.328   3.614   6.167 -0.0483  0.3612 -0.6754
  115OSM    C3F11975   4.141   3.722   6.138  0.4810 -0.2757 -0.0992
  115OSM    H3F11976   4.084   3.812   6.172 -1.1999 -1.3829  0.0999
  115OSM    H3G11977   4.075   3.635   6.155 -0.0417  0.1625  0.1222
  115OSM    C4F11978   4.147   3.742   5.986  1.0989 -1.0717 -0.6908
  115OSM    H4F11979   4.204   3.835   5.966 -0.2854  0.1809  0.8580
  115OSM    H4G11980   4.044   3.739   5.945  1.6707 -2.3918 -2.0990
  115OSM    C5F11981   4.217   3.626   5.926  0.4179  0.5282 -0.3704
  115OSM    H5F11982   4.180   3.536   5.979  0.0425  0.4365 -0.7826
  115OSM    H5G11983   4.323   3.632   5.958  0.9143  0.5670 -1.9086
  115OSM    C6F11984   4.222   3.618   5.774  0.0654 -0.5382 -0.3689
  115OSM    H6F11985   4.119   3.606   5.734  0.0085 -3.4020  0.3935
  115OSM    H6G11986   4.289   3.532   5.750  2.8682  1.0785  1.1423
  115OSM    C7F11987   4.285   3.734   5.702  0.0325  0.6722 -1.1743
  115OSM    H7F11988   4.395   3.727   5.709 -0.0875 -1.3468 -0.6398
  115OSM    H7G11989   4.252   3.822   5.760 -0.1969  0.8401 -1.5572
  115OSM    C8F11990   4.246   3.751   5.555  0.7686  0.1088  0.9866
  115OSM    H8F11991   4.146   3.798   5.541  0.6122 -0.7464 -1.2085
  115OSM    H8G11992   4.245   3.648   5.513  1.4425 -0.0411  1.3247
  115OSM    C9F11993   4.342   3.828   5.470  0.1255 -0.3338 -0.1153
  115OSM    H9F11994   4.429   3.865   5.527  0.2172  1.0637 -1.1049
  115OSM   C10F11995   4.326   3.873   5.341  0.6118 -0.1165 -0.6534
  115OSM   H10F11996   4.415   3.917   5.294  1.4042 -0.6313  0.3321
  115OSM   C11F11997   4.208   3.847   5.254  0.5443  0.1906  0.1463
  115OSM   H11F11998   4.153   3.934   5.214  2.5774 -0.3268 -4.4828
  115OSM   H11G11999   4.124   3.785   5.292  1.2969 -1.8291 -1.2984
  115OSM   C12F12000   4.242   3.751   5.138 -0.6542  0.1541  0.9575
  115OSM   H12F12001   4.264   3.647   5.169 -0.7956 -0.3635 -0.5891
  115OSM   H12G12002   4.327   3.794   5.081 -0.7076 -3.0546 -1.8739
  115OSM   C13F12003   4.134   3.759   5.024  0.2233  0.9033 -0.4308
  115OSM   H13F12004   4.092   3.862   5.019 -1.0718  0.3550 -1.2127
  115OSM   H13G12005   4.053   3.694   5.065 -0.5220  2.7295  1.1759
  115OSM   C14F12006   4.168   3.714   4.883  0.1991  0.9882 -0.8452
  115OSM   H14F12007   4.196   3.608   4.862 -1.8554  0.2634 -0.1934
  115OSM   H14G12008   4.251   3.783   4.859  0.5576  0.3803 -1.3822
  115OSM   C15F12009   4.062   3.744   4.779  0.0147 -0.3387  0.0218
  115OSM   H15F12010   4.048   3.854   4.771  3.9517  0.2207 -1.2071
  115OSM   H15G12011   3.971   3.686   4.804 -0.8205  2.0867  3.3513
  115OSM   C16F12012   4.110   3.714   4.636  0.0171 -0.1970 -0.3382
  115OSM   H16F12013   4.025   3.744   4.572 -0.4588 -1.6062 -0.4010
  115OSM   H16G12014   4.113   3.603   4.631 -0.6887 -0.2182 -0.4403
  115OSM   C17F12015   4.241   3.778   4.596 -0.5397 -0.2204  0.2383
  115OSM   H17F12016   4.329   3.734   4.649  0.6422 -0.2220 -1.6440
  115OSM   H17G12017   4.230   3.886   4.618  2.3637  0.4058 -0.8701
  115OSM   C18F12018   4.267   3.748   4.444 -0.3147  0.6634 -0.0675
  115OSM   H18F12019   4.268   3.638   4.429 -0.3617  0.6918 -0.2793
  115OSM   H18G12020   4.361   3.799   4.415  0.0714 -0.2604 -0.4847
  115OSM   H18H12021   4.189   3.797   4.381 -2.0272 -3.1306 -1.2082
  116OSM      N12022   5.227   2.426   6.466 -1.3373 -0.4208  0.2915
  116OSM    C1512023   5.367   2.437   6.523 -0.1155  0.9566  0.3150
  116OSM   H15A12024   5.366   2.504   6.607  2.2296 -0.4149  1.5240
  116OSM   H15B12025   5.429   2.477   6.443  0.5036  3.7900  2.0903
  116OSM   H15C12026   5.400   2.341   6.560  0.3974  1.3098  0.7808
  116OSM    C1412027   5.137   2.377   6.577 -0.3742 -0.7299  0.0610
  116OSM   H14A12028   5.186   2.291   6.621  1.0526 -0.1775 -0.4178
  116OSM   H14B12029   5.045   2.350   6.527  0.9022 -0.5088 -2.5858
  116OSM   H14C12030   5.116   2.451   6.653 -1.2655 -0.1754 -0.6985
  116OSM    C1312031   5.176   2.566   6.437  0.2063 -0.2460 -0.3059
  116OSM   H13A12032   5.083   2.557   6.383 -0.6068  1.8740  0.6356
  116OSM   H13B12033   5.253   2.615   6.379  0.4544 -2.2803 -1.8003
  116OSM   H13C12034   5.155   2.632   6.520  4.1639  1.2743 -0.2674
  116OSM    C1212035   5.224   2.322   6.344 -0.2348 -0.3137  0.7179
  116OSM   H12A12036   5.243   2.223   6.383 -3.0486 -1.6372 -0.9070
  116OSM   H12B12037   5.300   2.351   6.273 -0.8451 -2.0874 -0.7340
  116OSM    C1112038   5.087   2.318   6.278 -0.5763 -0.7333  0.5173
  116OSM   H11A12039   5.100   2.276   6.177  1.9586  1.7477 -0.3195
  116OSM   H11B12040   5.043   2.418   6.258 -0.0572 -0.7282 -0.6752
  116OSM      P12041   5.002   2.096   6.373  0.1409  0.0320 -0.0835
  116OSM    O1312042   5.124   2.073   6.443 -0.2205 -0.2047  0.5756
  116OSM    O1412043   4.875   2.030   6.421  0.1017 -0.0714 -0.2937
  116OSM    O1112044   5.025   2.064   6.221  0.1333 -0.1502  0.3511
  116OSM    O1212045   4.988   2.254   6.353  0.2540  0.2555 -0.0684
  116OSM    C1S12046   4.914   2.075   6.128  0.4737 -1.1493  0.2427
  116OSM    H1S12047   4.880   2.180   6.142 -0.2256 -1.4233  0.6703
  116OSM    H1T12048   4.830   2.007   6.154 -0.4002  0.1961  1.0870
  116OSM     NF12049   4.835   2.079   5.900  0.6007 -0.3780  0.1541
  116OSM    HNF12050   4.810   1.997   5.849  1.3929  0.2746 -1.3455
  116OSM    C2S12051   4.956   2.062   5.982 -0.7054 -0.3014  0.0504
  116OSM    H2S12052   5.019   2.149   5.953 -1.5209 -0.2613 -1.7174
  116OSM    C3S12053   5.029   1.930   5.959 -0.3433  0.5547 -0.4874
  116OSM    H3S12054   4.956   1.853   5.992 -2.0734  2.0211 -0.7364
  116OSM     O312055   5.147   1.912   6.041  0.3055  0.0493 -0.1465
  116OSM    HO312056   5.154   1.982   6.106  1.2184 -1.3206  1.3198
  116OSM    C4S12057   5.057   1.916   5.814 -0.0073 -0.0843  0.0711
  116OSM    H4S12058   4.965   1.891   5.759 -0.9210 -0.4506  1.6864
  116OSM    C5S12059   5.174   1.938   5.750  0.5843  0.2012 -0.4441
  116OSM    H5S12060   5.262   1.971   5.807  0.4809  1.7072 -1.1329
  116OSM    C6S12061   5.194   1.926   5.602  0.1465 -0.1382 -0.8586
  116OSM    H6S12062   5.129   1.845   5.562 -1.9671  1.2225 -0.3274
  116OSM    H6T12063   5.295   1.886   5.578 -0.3515 -2.1472  0.1439
  116OSM    C7S12064   5.154   2.051   5.519 -0.4828 -0.2016  0.4595
  116OSM    H7S12065   5.216   2.132   5.563  1.3593 -0.8258 -0.8361
  116OSM    H7T12066   5.050   2.086   5.533 -0.2240  0.1353  1.7348
  116OSM    C8S12067   5.176   2.032   5.369  0.2623 -0.3096 -0.0317
  116OSM    H8S12068   5.118   1.949   5.323  1.5228 -1.3866  0.2689
  116OSM    H8T12069   5.275   1.985   5.353 -1.3448 -4.4058  0.8048
  116OSM    C9S12070   5.150   2.158   5.284  0.4789 -0.1660 -0.2484
  116OSM    H9S12071   5.231   2.230   5.307  0.0960 -0.1356  1.1029
  116OSM    H9T12072   5.064   2.203   5.338 -0.4813 -2.0777 -0.0765
  116OSM   C10S12073   5.135   2.127   5.142  0.2896 -0.1358  0.4485
  116OSM   H10S12074   5.041   2.071   5.125  0.5934  0.0134 -2.0496
  116OSM   H10T12075   5.216   2.061   5.105  0.7520  1.2446 -1.1565
  116OSM   C11S12076   5.146   2.254   5.049  1.0817  0.1915 -0.2373
  116OSM   H11S12077   5.233   2.323   5.058  0.8686  0.5967 -1.1407
  116OSM   H11T12078   5.053   2.314   5.063  1.3016  0.5209 -0.1909
  116OSM   C12S12079   5.161   2.200   4.908  0.7720 -0.2059  0.5645
  116OSM   H12S12080   5.096   2.112   4.890  0.0423  0.4207  0.0676
  116OSM   H12T12081   5.266   2.163   4.903  0.7434 -0.1510 -1.7387
  116OSM   C13S12082   5.153   2.303   4.798  0.3652  0.2259 -0.3454
  116OSM   H13S12083   5.233   2.380   4.807  0.2542  0.5545 -1.9812
  116OSM   H13T12084   5.055   2.356   4.796  0.7471  0.9899  0.2610
  116OSM   C14S12085   5.185   2.243   4.660 -0.2100 -0.4585  0.2595
  116OSM   H14S12086   5.090   2.203   4.619  0.3450 -0.8110 -0.7261
  116OSM   H14T12087   5.258   2.159   4.667 -0.2282 -0.5060 -0.1000
  116OSM   C15S12088   5.241   2.349   4.570 -0.4803 -0.0644 -0.1222
  116OSM   H15S12089   5.181   2.443   4.572  0.1812  0.3973 -1.0979
  116OSM   H15T12090   5.234   2.307   4.467  0.2455 -1.1035  0.2468
  116OSM   C16S12091   5.388   2.394   4.580 -0.1408 -0.7638  0.1583
  116OSM   H16S12092   5.400   2.431   4.684 -3.2046  1.6295 -0.2256
  116OSM   H16T12093   5.405   2.469   4.500  1.1636 -0.3672  0.7730
  116OSM   C17S12094   5.487   2.278   4.543  0.3583 -0.3041  0.2633
  116OSM   H17S12095   5.448   2.206   4.467  1.5440 -1.5608  0.8189
  116OSM   H17T12096   5.498   2.223   4.639  3.4346  1.8598  1.2907
  116OSM   C18S12097   5.634   2.305   4.509 -0.0364  0.6485  0.2210
  116OSM   H18S12098   5.687   2.208   4.517 -1.0512  0.2242  2.6896
  116OSM   H18T12099   5.679   2.378   4.580  0.0640  1.1121 -0.3084
  116OSM   H18U12100   5.642   2.348   4.407  0.6031  1.9724  0.8005
  116OSM    C1F12101   4.764   2.189   5.889  0.0092 -0.9518  0.2068
  116OSM     OF12102   4.800   2.296   5.943 -0.3188  0.5248  0.1558
  116OSM    C2F12103   4.642   2.180   5.804 -0.2097 -0.0939  0.1319
  116OSM    H2F12104   4.557   2.220   5.863 -0.8193 -1.3075  0.1122
  116OSM    H2G12105   4.618   2.073   5.789  0.6050 -0.2284 -0.2377
  116OSM    C3F12106   4.656   2.238   5.660 -0.3965  0.5375  0.4883
  116OSM    H3F12107   4.754   2.198   5.628 -0.3468  0.0024  1.2848
  116OSM    H3G12108   4.672   2.348   5.654  1.7382  0.2026 -0.8378
  116OSM    C4F12109   4.546   2.186   5.572  0.0541  0.1643  0.1221
  116OSM    H4F12110   4.483   2.270   5.534  0.1863  1.1103  1.8715
  116OSM    H4G12111   4.490   2.108   5.627 -1.4423  2.2266  1.7305
  116OSM    C5F12112   4.617   2.125   5.453 -0.0036 -0.0203  0.3930
  116OSM    H5F12113   4.686   2.053   5.501 -1.3868 -1.7327 -0.1090
  116OSM    H5G12114   4.683   2.194   5.395  1.6871 -0.9111  1.1987
  116OSM    C6F12115   4.525   2.055   5.352 -0.2602 -0.0877  1.0240
  116OSM    H6F12116   4.589   2.010   5.273 -1.5286  2.9764 -1.9810
  116OSM    H6G12117   4.474   2.130   5.289  0.0020 -0.3826  0.4516
  116OSM    C7F12118   4.425   1.956   5.408  0.5212  0.0623 -0.5817
  116OSM    H7F12119   4.347   1.932   5.333 -1.5661  0.8267  1.2221
  116OSM    H7G12120   4.365   2.000   5.491 -0.3733 -1.7310 -0.2333
  116OSM    C8F12121   4.496   1.830   5.464  0.0791  0.3611 -0.1233
  116OSM    H8F12122   4.568   1.868   5.540  1.1977  0.0079 -0.9696
  116OSM    H8G12123   4.565   1.790   5.387 -1.7800 -2.0453 -0.6674
  116OSM    C9F12124   4.402   1.727   5.521  0.0366  0.3948  0.1869
  116OSM    H9F12125   4.371   1.737   5.626 -1.8476 -1.1628 -0.1641
  116OSM   C10F12126   4.382   1.608   5.461 -0.8762 -0.2246 -0.2979
  116OSM   H10F12127   4.303   1.539   5.493 -2.9693  1.8743 -0.6471
  116OSM   C11F12128   4.438   1.570   5.319  0.0722 -0.2964  0.0585
  116OSM   H11F12129   4.459   1.461   5.324  0.4434 -0.1867  1.2105
  116OSM   H11G12130   4.541   1.610   5.305 -1.1909  2.9166 -0.9659
  116OSM   C12F12131   4.371   1.617   5.195  0.1711  1.2312 -0.1736
  116OSM   H12F12132   4.429   1.594   5.103  0.5933 -0.1796  0.4203
  116OSM   H12G12133   4.352   1.726   5.207 -0.2039  0.8942  4.0429
  116OSM   C13F12134   4.228   1.560   5.188 -0.7655  0.0351  0.0737
  116OSM   H13F12135   4.158   1.608   5.260 -1.7343 -0.0846 -0.7576
  116OSM   H13G12136   4.224   1.450   5.203 -2.6626  0.2333  1.4424
  116OSM   C14F12137   4.161   1.588   5.057  0.3021 -0.5764 -0.3108
  116OSM   H14F12138   4.224   1.558   4.971  0.4449  0.1417 -0.4689
  116OSM   H14G12139   4.141   1.697   5.047  0.7213 -0.6232 -2.2064
  116OSM   C15F12140   4.028   1.513   5.045  0.3963 -0.0860 -0.3732
  116OSM   H15F12141   3.960   1.536   5.129 -1.7221  0.9191 -2.2490
  116OSM   H15G12142   4.058   1.407   5.054  1.2805  0.0005 -1.7928
  116OSM   C16F12143   3.957   1.539   4.910  0.4158  0.0625 -0.8188
  116OSM   H16F12144   4.036   1.517   4.836 -1.5209 -1.0760 -2.6386
  116OSM   H16G12145   3.934   1.647   4.896  0.0728 -0.0679 -1.2792
  116OSM   C17F12146   3.829   1.455   4.889  0.5747 -0.0580 -0.0010
  116OSM   H17F12147   3.759   1.484   4.969  0.4162  0.8015 -0.4438
  116OSM   H17G12148   3.847   1.348   4.913 -0.6969  0.0303  1.5220
  116OSM   C18F12149   3.758   1.477   4.758  0.0224  0.1836  0.0784
  116OSM   H18F12150   3.727   1.583   4.748  0.7563  0.3010 -1.0764
  116OSM   H18G12151   3.662   1.420   4.753 -1.5077  2.5140  1.2987
  116OSM   H18H12152   3.816   1.433   4.674  1.2269  1.2674  0.3111
  117OSM      N12153   5.764   4.960   6.272  0.2126 -0.2856  0.0095
  117OSM    C1512154   5.619   4.971   6.241  0.3143  0.3694  0.0957
  117OSM   H15A12155   5.559   4.923   6.317 -0.5235 -0.1478 -0.8803
  117OSM   H15B12156   5.595   4.919   6.150 -2.4994  1.8163 -0.0766
  117OSM   H15C12157   5.589   5.074   6.224  2.0233  0.7147 -1.0848
  117OSM    C1412158   5.856   5.023   6.173  0.3314  0.3871 -0.2223
  117OSM   H14A12159   5.856   4.969   6.079  0.7100 -0.1664  0.0916
  117OSM   H14B12160   5.956   5.034   6.213  0.3862 -0.3014 -0.1540
  117OSM   H14C12161   5.814   5.119   6.147 -3.9315 -1.0629  0.4384
  117OSM    C1312162   5.778   5.035   6.401 -0.0004  0.1003  1.1577
  117OSM   H13A12163   5.767   5.142   6.385  0.3702  0.1333  1.1246
  117OSM   H13B12164   5.870   5.021   6.455  1.2099 -0.3609 -0.9267
  117OSM   H13C12165   5.705   5.014   6.478 -0.9780  0.6774  0.4157
  117OSM    C1212166   5.801   4.813   6.305 -0.0675 -0.2988  0.3247
  117OSM   H12A12167   5.749   4.783   6.395 -0.6714 -0.3798 -0.0459
  117OSM   H12B12168   5.907   4.813   6.326  0.4367 -0.9674 -1.8890
  117OSM    C1112169   5.770   4.703   6.186  0.9450  0.0225 -0.6544
  117OSM   H11A12170   5.825   4.615   6.226  0.8472  0.2381 -0.0232
  117OSM   H11B12171   5.809   4.728   6.085  1.4086 -0.1551 -0.5213
  117OSM      P12172   5.530   4.621   6.315 -0.0292  0.0506 -0.2076
  117OSM    O1312173   5.598   4.550   6.425  0.5357 -0.2366  0.1326
  117OSM    O1412174   5.442   4.732   6.353 -0.3006 -0.3782  0.4346
  117OSM    O1112175   5.445   4.517   6.231  0.4274  0.7578  0.2904
  117OSM    O1212176   5.625   4.676   6.191  0.7201 -0.7202 -0.4215
  117OSM    C1S12177   5.399   4.560   6.098 -0.3364  0.0262  0.5543
  117OSM    H1S12178   5.487   4.555   6.030 -1.1536 -1.6972 -0.4570
  117OSM    H1T12179   5.379   4.669   6.092 -0.0212  0.1571  1.6099
  117OSM     NF12180   5.287   4.497   5.889 -0.2936  0.1855 -0.3111
  117OSM    HNF12181   5.212   4.549   5.849  1.2209  2.9645  0.1377
  117OSM    C2S12182   5.292   4.474   6.030  0.0909 -0.9984 -0.1560
  117OSM    H2S12183   5.329   4.370   6.043  1.4338 -0.3765  1.1970
  117OSM    C3S12184   5.155   4.483   6.099 -0.1917 -0.3937 -0.2121
  117OSM    H3S12185   5.118   4.587   6.094 -0.9308 -0.6546 -0.4613
  117OSM     O312186   5.159   4.452   6.240  0.6261 -0.5388 -0.1198
  117OSM    HO312187   5.252   4.441   6.260  0.8125 -0.0307 -0.7027
  117OSM    C4S12188   5.059   4.382   6.029 -0.5721 -0.3330  0.0150
  117OSM    H4S12189   4.980   4.428   5.969 -1.3202 -0.8243  0.6108
  117OSM    C5S12190   5.059   4.246   6.056  1.3659 -0.6551  0.1851
  117OSM    H5S12191   5.141   4.206   6.118  2.0287  1.3120  0.6657
  117OSM    C6S12192   4.958   4.159   5.998  0.0613  0.3331 -0.1839
  117OSM    H6S12193   4.904   4.118   6.086  2.2451  1.0667  1.5961
  117OSM    H6T12194   5.001   4.067   5.953 -0.2548  0.1806 -0.1815
  117OSM    C7S12195   4.875   4.218   5.880 -1.0797  0.4457  0.2236
  117OSM    H7S12196   4.945   4.253   5.801  0.9371 -0.0723  1.6980
  117OSM    H7T12197   4.818   4.309   5.909  1.4138  1.9030  0.8028
  117OSM    C8S12198   4.777   4.113   5.837 -0.1049 -0.4994  0.0768
  117OSM    H8S12199   4.704   4.089   5.917  0.6877  0.4107  1.0962
  117OSM    H8T12200   4.827   4.018   5.807  2.8238  1.0057 -0.1724
  117OSM    C9S12201   4.687   4.146   5.709 -0.9322 -0.1234  0.1343
  117OSM    H9S12202   4.662   4.254   5.701  2.0913  0.6245 -0.2887
  117OSM    H9T12203   4.595   4.084   5.721  0.3964 -2.0580  0.8580
  117OSM   C10S12204   4.765   4.115   5.582  0.3155  0.1980  0.0272
  117OSM   H10S12205   4.782   4.005   5.585 -1.6859 -0.1936 -1.0705
  117OSM   H10T12206   4.864   4.161   5.566  0.2250  0.6478  0.7211
  117OSM   C11S12207   4.679   4.154   5.460  0.2031  0.5197  0.2157
  117OSM   H11S12208   4.656   4.262   5.444  1.7330  1.1371  1.7514
  117OSM   H11T12209   4.580   4.105   5.463 -0.5174  1.7490 -1.6394
  117OSM   C12S12210   4.738   4.100   5.324 -0.3143 -0.2062 -0.0079
  117OSM   H12S12211   4.752   3.990   5.323 -0.6398 -0.2701  0.8907
  117OSM   H12T12212   4.841   4.139   5.318 -1.0281  2.0824  1.4261
  117OSM   C13S12213   4.645   4.123   5.207  0.4640 -0.0030  1.3541
  117OSM   H13S12214   4.636   4.234   5.197 -0.8735 -0.1548  0.7444
  117OSM   H13T12215   4.542   4.088   5.224 -0.1329 -0.1606 -1.8822
  117OSM   C14S12216   4.689   4.061   5.074  0.0364 -0.2418  0.5882
  117OSM   H14S12217   4.718   3.956   5.096  1.5752  0.5784  2.8016
  117OSM   H14T12218   4.785   4.103   5.038 -1.6361  2.4093 -1.1983
  117OSM   C15S12219   4.587   4.082   4.963  0.0579  0.1046 -0.4427
  117OSM   H15S12220   4.569   4.188   4.936  1.0407  0.3912 -0.0191
  117OSM   H15T12221   4.490   4.042   5.001  0.6742 -0.3180  0.7362
  117OSM   C16S12222   4.622   3.990   4.849  0.6504  0.3291  0.1207
  117OSM   H16S12223   4.647   3.887   4.881  1.5611 -0.3326 -2.4751
  117OSM   H16T12224   4.710   4.034   4.798  0.2470  0.3709 -0.5591
  117OSM   C17S12225   4.514   3.998   4.743  0.3936  0.0490 -0.2707
  117OSM   H17S12226   4.490   4.106   4.730 -1.4424 -0.3250 -0.2661
  117OSM   H17T12227   4.419   3.959   4.784  0.6793  1.1612  1.5715
  117OSM   C18S12228   4.546   3.929   4.613 -0.4563 -0.1386 -0.8794
  117OSM   H18S12229   4.536   3.819   4.628  0.1533  0.0236  0.9749
  117OSM   H18T12230   4.646   3.955   4.571 -0.5864  0.3490 -0.8900
  117OSM   H18U12231   4.476   3.956   4.532 -0.1586 -1.1925 -1.5201
  117OSM    C1F12232   5.391   4.470   5.805  0.1046  0.1862 -0.5984
  117OSM     OF12233   5.492   4.412   5.848 -0.6119  0.4596 -0.0788
  117OSM    C2F12234   5.385   4.512   5.659 -0.1391 -0.5906  0.8632
  117OSM    H2F12235   5.355   4.619   5.656 -0.0856 -0.6038 -1.0399
  117OSM    H2G12236   5.295   4.461   5.618  0.2871 -0.8404  0.2198
  117OSM    C3F12237   5.510   4.483   5.578  0.0171  0.1778 -0.2845
  117OSM    H3F12238   5.516   4.372   5.568 -2.3451  0.0274 -0.5317
  117OSM    H3G12239   5.604   4.501   5.635 -0.5783 -0.7658  1.0335
  117OSM    C4F12240   5.522   4.531   5.435 -0.4417  0.4974 -0.5080
  117OSM    H4F12241   5.613   4.491   5.385 -0.6404 -1.8130  0.8506
  117OSM    H4G12242   5.541   4.638   5.457 -1.2350  0.2498  1.6029
  117OSM    C5F12243   5.388   4.524   5.359  0.0537  0.5576  0.4207
  117OSM    H5F12244   5.302   4.568   5.414 -1.2114 -1.3111  0.0315
  117OSM    H5G12245   5.355   4.418   5.350  1.2405  0.2044 -0.0169
  117OSM    C6F12246   5.390   4.552   5.205  0.2892  0.4111 -0.3999
  117OSM    H6F12247   5.449   4.475   5.152  0.3460 -0.2867  0.6529
  117OSM    H6G12248   5.436   4.653   5.195 -3.1766  2.2371  0.6133
  117OSM    C7F12249   5.251   4.564   5.138  0.0962 -0.6237  0.7098
  117OSM    H7F12250   5.200   4.648   5.190 -0.3524  0.2122 -0.9724
  117OSM    H7G12251   5.199   4.471   5.171 -1.1897  0.1097  0.8388
  117OSM    C8F12252   5.265   4.584   4.986  0.3239  0.4036 -0.2943
  117OSM    H8F12253   5.169   4.581   4.931 -0.6596  1.4534  1.2841
  117OSM    H8G12254   5.329   4.501   4.948  0.0743  0.6108 -1.1860
  117OSM    C9F12255   5.324   4.715   4.962 -0.2493 -0.7523  0.7638
  117OSM    H9F12256   5.354   4.773   5.051 -0.6487  0.0543  0.3854
  117OSM   C10F12257   5.328   4.781   4.844 -0.5760 -0.2520 -0.5784
  117OSM   H10F12258   5.386   4.874   4.842  0.0061 -0.4536  2.4406
  117OSM   C11F12259   5.286   4.727   4.710 -0.2676 -0.0773  0.7161
  117OSM   H11F12260   5.248   4.623   4.720  0.7341 -0.7483 -1.7121
  117OSM   H11G12261   5.369   4.725   4.637 -1.0926  1.8446 -0.3228
  117OSM   C12F12262   5.170   4.810   4.657  0.1539  0.0256 -0.3065
  117OSM   H12F12263   5.088   4.813   4.733 -0.8704 -0.6379 -1.3524
  117OSM   H12G12264   5.115   4.760   4.574  0.5310 -1.6206  0.3939
  117OSM   C13F12265   5.213   4.947   4.606  0.7836  0.0558  0.2535
  117OSM   H13F12266   5.320   4.943   4.576  0.7940  1.7467 -0.0277
  117OSM   H13G12267   5.218   5.018   4.691  0.5358  0.5174 -0.1130
  117OSM   C14F12268   5.129   5.010   4.496  0.6723 -0.8413 -0.5494
  117OSM   H14F12269   5.166   5.105   4.454  1.5692 -2.2727 -3.2545
  117OSM   H14G12270   5.028   5.026   4.540  0.1850 -0.9456 -1.6170
  117OSM   C15F12271   5.115   4.917   4.376  0.2800  0.3369 -0.3143
  117OSM   H15F12272   5.035   4.842   4.396 -0.8014  0.8773 -2.4282
  117OSM   H15G12273   5.212   4.865   4.357 -1.1045 -3.5391  2.0865
  117OSM   C16F12274   5.077   4.996   4.252 -0.6565 -0.6558  0.6972
  117OSM   H16F12275   5.131   5.090   4.229 -3.1219  0.8859  0.9111
  117OSM   H16G12276   4.977   5.042   4.266 -1.6698 -1.7770 -2.1484
  117OSM   C17F12277   5.075   4.900   4.133 -0.3424 -0.5266  0.1327
  117OSM   H17F12278   5.005   4.820   4.166 -0.8874 -0.4467 -0.7948
  117OSM   H17G12279   5.175   4.856   4.111  0.5304  0.9253  1.0004
  117OSM   C18F12280   5.028   4.974   4.008 -0.1298  0.0725  0.4119
  117OSM   H18F12281   4.923   5.006   4.025 -1.1376 -3.4330  1.7066
  117OSM   H18G12282   5.053   4.922   3.912 -1.2026  1.1850 -0.5066
  117OSM   H18H12283   5.091   5.064   3.992  0.6100 -0.3144  1.0914
  118OSM      N12284   5.693   3.414   6.545  0.3274  0.1853 -0.0617
  118OSM    C1512285   5.553   3.421   6.613 -0.6284  0.3546 -0.2906
  118OSM   H15A12286   5.563   3.452   6.716  2.3757  1.2165 -0.7446
  118OSM   H15B12287   5.516   3.319   6.606  2.1302 -0.6636 -1.1226
  118OSM   H15C12288   5.484   3.486   6.560 -1.6388 -0.7678 -0.4072
  118OSM    C1412289   5.775   3.307   6.605 -0.2496  0.6655  0.1716
  118OSM   H14A12290   5.866   3.281   6.554  0.0994  0.8838  0.6810
  118OSM   H14B12291   5.704   3.225   6.609 -2.0539  1.9068 -2.5268
  118OSM   H14C12292   5.814   3.334   6.701 -2.3145 -0.5009  1.4207
  118OSM    C1312293   5.681   3.400   6.402  0.1605  0.6043 -1.1647
  118OSM   H13A12294   5.780   3.424   6.367 -0.0186  1.6121 -1.0207
  118OSM   H13B12295   5.620   3.475   6.353 -2.1281  0.8098  1.7071
  118OSM   H13C12296   5.637   3.305   6.373 -0.2427  0.8488 -1.3605
  118OSM    C1212297   5.762   3.549   6.570 -0.7142 -0.1068 -0.5712
  118OSM   H12A12298   5.701   3.631   6.534 -0.3872  1.1137  1.5214
  118OSM   H12B12299   5.855   3.555   6.514  0.4369  0.6826  1.3482
  118OSM    C1112300   5.816   3.593   6.710  0.2749 -0.3654  0.0947
  118OSM   H11A12301   5.734   3.564   6.780 -2.6772  2.8551 -1.6830
  118OSM   H11B12302   5.828   3.703   6.718  0.2013 -0.4056  0.7987
  118OSM      P12303   6.074   3.566   6.679  0.4319  0.2040 -0.1793
  118OSM    O1312304   6.103   3.702   6.733  0.6876  0.2986  0.4548
  118OSM    O1412305   6.173   3.464   6.722 -0.4206  0.1781  0.2231
  118OSM    O1112306   6.053   3.576   6.521  0.0863  0.3860  0.1512
  118OSM    O1212307   5.938   3.519   6.733  0.1142 -0.3903 -0.0357
  118OSM    C1S12308   6.111   3.467   6.447  0.5941 -0.4016  0.0875
  118OSM    H1S12309   6.055   3.372   6.456 -1.0078  0.6683  2.3429
  118OSM    H1T12310   6.217   3.449   6.474  0.9096  1.8851  0.6126
  118OSM     NF12311   6.137   3.395   6.217 -0.1812  0.1857 -0.2352
  118OSM    HNF12312   6.226   3.396   6.173  0.7373 -1.5063  1.4734
  118OSM    C2S12313   6.112   3.515   6.301 -0.1174  0.2851 -0.0659
  118OSM    H2S12314   6.009   3.554   6.284 -2.1774 -3.4856  2.3434
  118OSM    C3S12315   6.219   3.629   6.275 -0.3308 -0.6155  0.2060
  118OSM    H3S12316   6.314   3.578   6.299 -0.7199 -0.9968  0.9753
  118OSM     O312317   6.228   3.732   6.376  0.3951  0.1591 -1.2122
  118OSM    HO312318   6.180   3.686   6.446  0.4993  0.1419 -1.1514
  118OSM    C4S12319   6.229   3.674   6.138  1.0752  0.3239  0.4705
  118OSM    H4S12320   6.310   3.622   6.086 -0.4712 -1.4912 -0.2129
  118OSM    C5S12321   6.138   3.754   6.071  0.3637  0.0089  0.2302
  118OSM    H5S12322   6.066   3.811   6.131 -1.2794  0.5680 -2.1229
  118OSM    C6S12323   6.135   3.772   5.920 -0.4438 -0.0828 -1.0544
  118OSM    H6S12324   6.125   3.881   5.902  3.3659  0.0798 -3.2682
  118OSM    H6T12325   6.046   3.714   5.888 -0.2849 -0.6601 -0.4846
  118OSM    C7S12326   6.247   3.713   5.835  0.5974 -0.5279 -0.2602
  118OSM    H7S12327   6.239   3.602   5.837 -0.4838 -0.4481  0.6720
  118OSM    H7T12328   6.345   3.736   5.883 -0.4003  2.3035  0.5745
  118OSM    C8S12329   6.270   3.779   5.695  0.0583 -0.7124  0.1380
  118OSM    H8S12330   6.365   3.730   5.662 -0.3511 -1.1463 -0.4129
  118OSM    H8T12331   6.293   3.887   5.709  0.8137 -0.3257 -3.1421
  118OSM    C9S12332   6.159   3.766   5.592  0.7109 -0.4780 -0.0419
  118OSM    H9S12333   6.067   3.823   5.617  0.2636 -1.0079 -0.4655
  118OSM    H9T12334   6.110   3.666   5.588  0.6420 -0.4429 -0.0782
  118OSM   C10S12335   6.201   3.809   5.449  0.9152 -0.3016  0.1420
  118OSM   H10S12336   6.283   3.742   5.416  0.2000 -0.9622 -0.3250
  118OSM   H10T12337   6.254   3.907   5.453  1.6136 -0.6236 -0.9463
  118OSM   C11S12338   6.087   3.799   5.348  0.4897  0.1279 -0.3205
  118OSM   H11S12339   6.001   3.852   5.395  0.5564 -0.0051 -0.0423
  118OSM   H11T12340   6.061   3.694   5.326  1.2674 -0.1709  0.1478
  118OSM   C12S12341   6.122   3.874   5.219 -0.1527  0.6380 -0.3597
  118OSM   H12S12342   6.194   3.808   5.166 -0.1864 -1.2102  1.7551
  118OSM   H12T12343   6.169   3.973   5.238  1.6175 -0.7080  2.9707
  118OSM   C13S12344   5.995   3.897   5.131 -0.4819 -0.4338  0.4440
  118OSM   H13S12345   5.918   3.953   5.187 -0.3597  2.2940 -1.9044
  118OSM   H13T12346   5.954   3.797   5.101 -1.4755 -0.5386  2.0550
  118OSM   C14S12347   6.030   3.986   5.008  0.2289 -0.3792 -0.0780
  118OSM   H14S12348   6.120   4.050   5.015  0.9540 -1.1443 -1.8974
  118OSM   H14T12349   5.934   4.042   5.003 -0.6996 -1.5061  3.0652
  118OSM   C15S12350   6.043   3.907   4.881  0.2991 -0.6090  0.5188
  118OSM   H15S12351   5.959   3.838   4.860 -0.5062  0.7313 -0.8316
  118OSM   H15T12352   6.130   3.838   4.881  0.2826 -0.6536 -0.8476
  118OSM   C16S12353   6.049   3.987   4.752 -0.3112 -0.4201  0.5857
  118OSM   H16S12354   6.137   4.052   4.768 -2.4566  2.8155  0.2021
  118OSM   H16T12355   5.956   4.047   4.742 -0.4907 -1.0050 -1.8452
  118OSM   C17S12356   6.059   3.895   4.629 -0.0844  0.4741  0.2214
  118OSM   H17S12357   5.971   3.827   4.621  1.0085 -0.7896 -2.1476
  118OSM   H17T12358   6.151   3.833   4.639 -0.9270 -0.8821 -0.1620
  118OSM   C18S12359   6.058   3.969   4.489 -0.0998 -0.2159  0.1140
  118OSM   H18S12360   5.961   4.022   4.472  0.0637 -0.1774 -0.6965
  118OSM   H18T12361   6.069   3.896   4.406 -1.6610 -0.4838  0.1113
  118OSM   H18U12362   6.144   4.040   4.487 -0.7313  0.6759  2.0744
  118OSM    C1F12363   6.033   3.312   6.193  0.1924 -0.4464  0.1194
  118OSM     OF12364   5.918   3.346   6.208  0.2548 -0.4555  0.3115
  118OSM    C2F12365   6.064   3.171   6.146  0.3341  0.2984  0.1022
  118OSM    H2F12366   6.021   3.092   6.211  1.7174 -1.1727 -0.6808
  118OSM    H2G12367   6.173   3.149   6.138  0.2474  0.3258 -1.5168
  118OSM    C3F12368   6.003   3.163   6.004  0.2787  0.1020 -0.3875
  118OSM    H3F12369   5.892   3.167   6.012  0.2004 -1.6599 -0.0054
  118OSM    H3G12370   6.026   3.060   5.968 -0.2635 -0.2815  0.3574
  118OSM    C4F12371   6.049   3.266   5.903  0.0317  0.1175 -0.3767
  118OSM    H4F12372   6.159   3.277   5.900  0.1296 -0.8479 -1.3637
  118OSM    H4G12373   6.027   3.373   5.920  0.1397  0.6038 -2.8946
  118OSM    C5F12374   5.984   3.228   5.764 -0.0135 -0.9003  0.5279
  118OSM    H5F12375   5.874   3.220   5.780 -0.3845 -0.0965 -1.3211
  118OSM    H5G12376   6.016   3.135   5.711  2.2444 -0.1804  0.5205
  118OSM    C6F12377   6.010   3.337   5.660  0.1723 -0.1336 -0.3950
  118OSM    H6F12378   5.983   3.436   5.705 -0.9858 -0.7940  0.4304
  118OSM    H6G12379   5.946   3.329   5.569  2.0559 -1.0031 -1.6960
  118OSM    C7F12380   6.146   3.341   5.602 -0.6088 -0.2176  0.2634
  118OSM    H7F12381   6.209   3.267   5.657  0.5218  0.9872  0.6406
  118OSM    H7G12382   6.201   3.437   5.616 -0.4217 -0.4378  1.0756
  118OSM    C8F12383   6.165   3.313   5.456  0.5325  0.6807 -0.9463
  118OSM    H8F12384   6.093   3.229   5.447 -0.2331  0.9328  1.7020
  118OSM    H8G12385   6.272   3.295   5.432  1.4356  1.6341  1.8746
  118OSM    C9F12386   6.117   3.427   5.369 -0.9521 -0.2030 -0.0874
  118OSM    H9F12387   6.153   3.523   5.408 -2.6806  0.8220 -0.9187
  118OSM   C10F12388   6.057   3.422   5.250 -0.2075 -0.4023 -0.1202
  118OSM   H10F12389   6.043   3.518   5.198  0.3164 -0.3499 -0.1692
  118OSM   C11F12390   6.020   3.289   5.179  0.1668 -0.7155  0.5093
  118OSM   H11F12391   5.911   3.286   5.153 -0.0968  1.6433  1.1009
  118OSM   H11G12392   6.032   3.194   5.236 -2.0998 -0.5171  1.4285
  118OSM   C12F12393   6.095   3.281   5.040  0.5186 -0.4557  0.4486
  118OSM   H12F12394   6.063   3.198   4.974  1.1119  0.1409 -0.6160
  118OSM   H12G12395   6.203   3.262   5.052  1.1120  2.7388  1.0666
  118OSM   C13F12396   6.076   3.409   4.950 -0.4256  0.1011  0.0012
  118OSM   H13F12397   6.147   3.486   4.986 -1.8031  1.3210  0.2171
  118OSM   H13G12398   5.970   3.440   4.966 -0.5686 -0.8029  0.9247
  118OSM   C14F12399   6.105   3.375   4.802 -0.1092  0.1652 -0.0911
  118OSM   H14F12400   6.031   3.295   4.779  1.7507 -1.5221 -0.5447
  118OSM   H14G12401   6.206   3.330   4.787 -0.4528 -0.8399  0.4751
  118OSM   C15F12402   6.094   3.492   4.707 -0.2617  1.2029 -0.1021
  118OSM   H15F12403   6.152   3.584   4.732  0.6141  0.3083  1.2957
  118OSM   H15G12404   5.986   3.522   4.706 -0.8357 -0.7409  0.1943
  118OSM   C16F12405   6.133   3.443   4.566  0.0126  0.4778 -0.2468
  118OSM   H16F12406   6.077   3.349   4.548  0.8462 -1.0263  3.8780
  118OSM   H16G12407   6.239   3.410   4.564 -0.3721 -0.7746 -1.8493
  118OSM   C17F12408   6.093   3.534   4.452  0.0316 -0.1195  0.7131
  118OSM   H17F12409   6.132   3.635   4.478  0.8117 -0.2465  0.0721
  118OSM   H17G12410   5.982   3.539   4.458 -0.0705 -1.5855  0.4089
  118OSM   C18F12411   6.143   3.479   4.320  0.6665  0.1389  0.4060
  118OSM   H18F12412   6.254   3.475   4.320  0.6366 -0.9503  0.7870
  118OSM   H18G12413   6.110   3.546   4.237 -2.0104 -1.1624  0.3252
  118OSM   H18H12414   6.095   3.381   4.305  1.3986 -0.4503  1.7767
  119OSM      N12415   1.332   0.208   6.705  1.1875  0.0963 -0.2865
  119OSM    C1512416   1.182   0.156   6.706 -0.3673 -0.2486 -0.1692
  119OSM   H15A12417   1.118   0.240   6.685  1.7831  1.3805 -0.6198
  119OSM   H15B12418   1.162   0.103   6.798  1.0436  0.8399  0.8077
  119OSM   H15C12419   1.169   0.091   6.621 -0.2384 -0.7196  0.1643
  119OSM    C1412420   1.328   0.308   6.824  0.4108  0.2030  0.1501
  119OSM   H14A12421   1.424   0.349   6.852  0.8438  0.0271 -1.0071
  119OSM   H14B12422   1.289   0.255   6.909  0.2120 -0.5266 -0.3864
  119OSM   H14C12423   1.254   0.386   6.813 -1.2226 -1.0742  1.5502
  119OSM    C1312424   1.424   0.102   6.737  0.3098  0.2084 -0.4540
  119OSM   H13A12425   1.522   0.149   6.737 -0.0504  0.9872 -0.6076
  119OSM   H13B12426   1.436   0.012   6.679 -0.8127 -0.8204  0.8457
  119OSM   H13C12427   1.401   0.054   6.830 -1.4341  0.2423 -0.8418
  119OSM    C1212428   1.367   0.273   6.576 -0.1829 -0.0668  0.1959
  119OSM   H12A12429   1.362   0.207   6.490 -0.7222  0.9247 -0.5582
  119OSM   H12B12430   1.470   0.303   6.587  0.6555 -2.9021  1.1101
  119OSM    C1112431   1.287   0.403   6.533  0.3462  0.6709 -0.2606
  119OSM   H11A12432   1.179   0.375   6.531 -0.4407  3.4040 -0.5937
  119OSM   H11B12433   1.317   0.437   6.432 -2.3562 -1.7613 -2.0304
  119OSM      P12434   1.416   0.603   6.630  0.1997 -0.1742 -0.3240
  119OSM    O1312435   1.394   0.699   6.743 -0.5475  0.0584 -0.1183
  119OSM    O1412436   1.543   0.517   6.634  0.7715 -0.7299  0.6278
  119OSM    O1112437   1.393   0.666   6.483 -0.6691  0.0405  0.5925
  119OSM    O1212438   1.292   0.510   6.630 -0.1125  1.0356 -0.1033
  119OSM    C1S12439   1.517   0.672   6.405  0.5832  0.1933 -0.6078
  119OSM    H1S12440   1.553   0.568   6.390 -0.5102 -0.5092  1.2172
  119OSM    H1T12441   1.593   0.741   6.448 -0.7615 -0.7156  3.8271
  119OSM     NF12442   1.593   0.734   6.179 -0.0496 -0.1120 -0.1401
  119OSM    HNF12443   1.653   0.814   6.186 -0.7187  0.3516  0.3925
  119OSM    C2S12444   1.478   0.735   6.268  0.4361  0.4555 -0.0242
  119OSM    H2S12445   1.405   0.670   6.215  0.2526  1.7284 -1.4010
  119OSM    C3S12446   1.408   0.874   6.276  0.0350  0.2224  0.4227
  119OSM    H3S12447   1.464   0.952   6.331 -2.8158  1.6444  1.5094
  119OSM     O312448   1.295   0.874   6.366  0.1563 -0.0444  0.3686
  119OSM    HO312449   1.304   0.787   6.405  0.6822 -0.3382 -0.3823
  119OSM    C4S12450   1.355   0.909   6.142  0.1212  0.5857  0.7562
  119OSM    H4S12451   1.313   0.825   6.085  2.7407  0.9811 -2.0595
  119OSM    C5S12452   1.358   1.030   6.086 -0.8142 -0.2510 -0.2698
  119OSM    H5S12453   1.401   1.112   6.144  1.2662  0.0470 -2.1142
  119OSM    C6S12454   1.315   1.061   5.946  0.5596  0.0753 -0.0991
  119OSM    H6S12455   1.253   1.153   5.952  2.5321  1.4496  0.2279
  119OSM    H6T12456   1.250   0.980   5.907 -1.0167  0.7682  0.9955
  119OSM    C7S12457   1.422   1.096   5.846 -0.4883  0.1029 -0.6617
  119OSM    H7S12458   1.503   1.021   5.849  0.4901  1.0223  4.0196
  119OSM    H7T12459   1.463   1.196   5.869 -0.3322  0.4353 -2.2764
  119OSM    C8S12460   1.380   1.102   5.699 -0.3588  0.2513  0.1592
  119OSM    H8S12461   1.356   1.001   5.661  0.6524 -0.1022  0.4495
  119OSM    H8T12462   1.462   1.126   5.628 -1.5816 -0.1030 -1.4238
  119OSM    C9S12463   1.265   1.195   5.675  1.4242  0.7235  0.6136
  119OSM    H9S12464   1.301   1.299   5.694  1.8543  0.3720  1.8303
  119OSM    H9T12465   1.173   1.180   5.737  0.1901  0.8388 -1.1210
  119OSM   C10S12466   1.205   1.177   5.533 -0.3824 -0.0783  0.0536
  119OSM   H10S12467   1.123   1.250   5.517 -0.0023  0.5604  1.0029
  119OSM   H10T12468   1.162   1.075   5.544  1.5380 -0.8222  1.1386
  119OSM   C11S12469   1.298   1.197   5.408 -0.2665  0.5335 -0.1978
  119OSM   H11S12470   1.348   1.100   5.385  2.8972  1.4371  2.2121
  119OSM   H11T12471   1.380   1.269   5.428  0.6276 -0.1993 -1.1017
  119OSM   C12S12472   1.221   1.256   5.288  0.0103  0.3837 -0.6994
  119OSM   H12S12473   1.209   1.366   5.300  3.5150  0.8298 -0.3781
  119OSM   H12T12474   1.121   1.207   5.295  0.0780  0.1942 -1.0738
  119OSM   C13S12475   1.300   1.226   5.160 -0.0149 -0.6867 -0.0330
  119OSM   H13S12476   1.234   1.226   5.071 -1.0509 -1.0696  0.7217
  119OSM   H13T12477   1.337   1.123   5.179 -3.0382 -1.2726  4.0265
  119OSM   C14S12478   1.424   1.325   5.134 -0.6145 -0.0411 -0.2778
  119OSM   H14S12479   1.509   1.307   5.203 -0.5416  1.2700 -0.0013
  119OSM   H14T12480   1.376   1.423   5.154 -2.1277 -1.1057  1.7135
  119OSM   C15S12481   1.485   1.301   4.998  0.1560 -0.4453  0.4337
  119OSM   H15S12482   1.537   1.395   4.967 -2.3899  1.2689  1.1072
  119OSM   H15T12483   1.399   1.294   4.928 -0.1839 -2.0717  0.9761
  119OSM   C16S12484   1.584   1.183   4.983  0.2429  0.3099  0.6959
  119OSM   H16S12485   1.536   1.085   5.006 -0.1140  0.4869  0.6974
  119OSM   H16T12486   1.675   1.191   5.048  1.5506  0.8394 -1.1251
  119OSM   C17S12487   1.632   1.179   4.833  0.6137  0.1966 -0.1571
  119OSM   H17S12488   1.546   1.198   4.764 -1.3442 -0.8306  1.8605
  119OSM   H17T12489   1.657   1.075   4.804 -1.5564 -0.3192 -0.4115
  119OSM   C18S12490   1.752   1.267   4.800  0.2771  0.1541  0.2133
  119OSM   H18S12491   1.777   1.246   4.693 -2.1948  0.7304 -0.5398
  119OSM   H18T12492   1.837   1.255   4.870 -0.7064  2.4977  1.9626
  119OSM   H18U12493   1.725   1.375   4.801 -2.4829 -0.4719  1.2752
  119OSM    C1F12494   1.647   0.623   6.131 -0.2276 -0.8149  0.3760
  119OSM     OF12495   1.588   0.517   6.148  0.2174  0.1147 -0.1038
  119OSM    C2F12496   1.781   0.640   6.067  0.1439 -0.1369 -0.2423
  119OSM    H2F12497   1.862   0.575   6.107  0.1102  0.8916  1.5731
  119OSM    H2G12498   1.818   0.744   6.077 -1.3867  0.2948  1.4604
  119OSM    C3F12499   1.769   0.603   5.922  0.3549 -0.5336  0.8917
  119OSM    H3F12500   1.744   0.495   5.914  2.2937 -0.9535 -0.1887
  119OSM    H3G12501   1.872   0.612   5.880  0.2328  2.8976  1.0573
  119OSM    C4F12502   1.670   0.683   5.842  0.5029 -0.1028 -0.2471
  119OSM    H4F12503   1.682   0.793   5.853 -2.1159  0.3073 -0.7964
  119OSM    H4G12504   1.571   0.670   5.892  1.9873 -0.6374  2.7858
  119OSM    C5F12505   1.656   0.642   5.705  0.0825  0.2485  0.1511
  119OSM    H5F12506   1.587   0.556   5.691  3.2546 -2.1073 -2.6178
  119OSM    H5G12507   1.757   0.602   5.680  1.0767  1.4672  1.9932
  119OSM    C6F12508   1.617   0.746   5.591  0.2226  0.2050 -0.6198
  119OSM    H6F12509   1.701   0.816   5.572 -1.1092  1.8879 -0.4603
  119OSM    H6G12510   1.523   0.801   5.611  1.1334  1.2069  1.1347
  119OSM    C7F12511   1.604   0.673   5.455  0.4159  0.4067 -0.2144
  119OSM    H7F12512   1.545   0.734   5.384  0.2750  1.8443  1.0640
  119OSM    H7G12513   1.546   0.579   5.464 -1.3027  1.5954  2.8191
  119OSM    C8F12514   1.737   0.657   5.382  0.0145 -0.2510 -0.3211
  119OSM    H8F12515   1.821   0.617   5.443  1.7691 -0.1885 -2.5386
  119OSM    H8G12516   1.768   0.760   5.353  1.6221 -0.3075  1.0596
  119OSM    C9F12517   1.723   0.567   5.261  0.1207  0.3518  1.1736
  119OSM    H9F12518   1.703   0.462   5.288 -1.3672  0.4886  0.6991
  119OSM   C10F12519   1.712   0.602   5.129 -0.4786  0.0739 -0.2477
  119OSM   H10F12520   1.712   0.521   5.054  0.1910  1.4001 -1.7287
  119OSM   C11F12521   1.718   0.740   5.074  0.1998 -1.1423 -1.2781
  119OSM   H11F12522   1.695   0.813   5.154  0.3431  0.0805 -2.3186
  119OSM   H11G12523   1.641   0.753   4.995  0.7041  0.5884 -1.5146
  119OSM   C12F12524   1.847   0.783   5.020 -0.3677 -0.5225 -0.0201
  119OSM   H12F12525   1.935   0.772   5.088 -0.5438 -0.9348  0.1468
  119OSM   H12G12526   1.843   0.891   4.996  2.7735 -0.2352  0.3748
  119OSM   C13F12527   1.891   0.713   4.892  0.4271 -0.1768  0.3443
  119OSM   H13F12528   1.848   0.611   4.884 -2.2554  0.5756  3.0451
  119OSM   H13G12529   2.000   0.708   4.874  0.9220  0.4572  2.8481
  119OSM   C14F12530   1.832   0.797   4.776 -0.2592 -0.5102 -0.3637
  119OSM   H14F12531   1.881   0.897   4.784 -1.9139  0.6994 -3.5705
  119OSM   H14G12532   1.723   0.814   4.774 -0.1238  0.3982 -2.0329
  119OSM   C15F12533   1.882   0.750   4.636 -0.3292 -0.2775  0.3344
  119OSM   H15F12534   1.867   0.640   4.637  0.1406 -0.3524  2.2868
  119OSM   H15G12535   1.992   0.768   4.633 -0.2771 -0.5715  0.5064
  119OSM   C16F12536   1.814   0.828   4.526  0.0752 -0.0883 -0.3736
  119OSM   H16F12537   1.705   0.809   4.512 -0.0334  0.7647 -0.7454
  119OSM   H16G12538   1.860   0.796   4.430 -2.8756 -0.8588 -1.6570
  119OSM   C17F12539   1.838   0.980   4.539 -0.7545 -0.4987  0.1531
  119OSM   H17F12540   1.781   1.034   4.617  0.6733  1.9493 -0.3780
  119OSM   H17G12541   1.807   1.020   4.440  2.8996 -1.6097 -1.6551
  119OSM   C18F12542   1.980   1.020   4.543 -0.3267 -0.6765  0.1118
  119OSM   H18F12543   2.038   0.958   4.470  0.4982  0.3916 -0.1617
  119OSM   H18G12544   2.022   1.001   4.644  1.2541 -1.3054 -0.6119
  119OSM   H18H12545   1.979   1.125   4.507  0.7404 -0.9808 -0.8951
  120OSM      N12546   4.897   6.647   6.355 -0.1525 -0.1695 -0.1500
  120OSM    C1512547   4.835   6.726   6.465 -0.4304 -1.1947  0.4657
  120OSM   H15A12548   4.912   6.728   6.540  0.9766 -0.2922 -0.9276
  120OSM   H15B12549   4.747   6.677   6.506 -0.7150 -0.9498  0.1585
  120OSM   H15C12550   4.819   6.827   6.428  0.5917 -1.0555  0.3803
  120OSM    C1412551   5.018   6.724   6.306 -0.7211  0.1583 -0.3229
  120OSM   H14A12552   4.989   6.824   6.279  3.1489  1.4163 -0.3007
  120OSM   H14B12553   5.063   6.678   6.219  2.3171  1.3784  0.4937
  120OSM   H14C12554   5.090   6.743   6.384  0.4429  0.3205 -1.4017
  120OSM    C1312555   4.949   6.513   6.414 -0.1379 -0.5108 -0.0713
  120OSM   H13A12556   5.014   6.523   6.500 -0.1046 -1.0034 -0.0324
  120OSM   H13B12557   4.996   6.466   6.329 -1.7600  0.3513 -1.4977
  120OSM   H13C12558   4.865   6.451   6.446 -1.4755  1.4936  0.4962
  120OSM    C1212559   4.801   6.615   6.248 -0.4085  0.6532  0.3768
  120OSM   H12A12560   4.858   6.574   6.165 -1.6813 -0.7355  0.1644
  120OSM   H12B12561   4.767   6.713   6.216  0.1142  1.4283  2.0818
  120OSM    C1112562   4.672   6.535   6.288 -0.1023 -0.2685  0.5424
  120OSM   H11A12563   4.710   6.451   6.350 -0.0055  0.6125  1.7194
  120OSM   H11B12564   4.622   6.497   6.197  1.2145 -0.6921 -0.0309
  120OSM      P12565   4.514   6.747   6.315  0.1834 -0.3084  0.1291
  120OSM    O1312566   4.396   6.782   6.395 -0.2367  0.0466  0.0854
  120OSM    O1412567   4.610   6.860   6.310 -0.7064 -0.2655 -1.0114
  120OSM    O1112568   4.469   6.717   6.169  0.3088  0.0813 -0.2211
  120OSM    O1212569   4.581   6.610   6.365  0.0427  0.1185 -0.4244
  120OSM    C1S12570   4.354   6.638   6.141  0.0269  0.3653  0.4346
  120OSM    H1S12571   4.261   6.696   6.164  0.6214  1.5638 -0.1016
  120OSM    H1T12572   4.339   6.555   6.213  0.4494  0.9224  1.1789
  120OSM     NF12573   4.241   6.508   5.952  0.8463  0.3712  0.0475
  120OSM    HNF12574   4.271   6.413   5.950 -0.2878 -0.0426 -3.2565
  120OSM    C2S12575   4.347   6.594   5.990 -0.0814 -0.2806 -0.0001
  120OSM    H2S12576   4.332   6.689   5.934  0.1507 -1.0820 -1.4758
  120OSM    C3S12577   4.482   6.540   5.938  0.0601 -0.5466  0.2979
  120OSM    H3S12578   4.517   6.445   5.985  0.7109 -1.0927 -1.2392
  120OSM     O312579   4.589   6.626   5.963  0.1019 -0.2603  0.1714
  120OSM    HO312580   4.557   6.683   6.033 -2.0129 -1.9611  0.7011
  120OSM    C4S12581   4.480   6.509   5.784  0.5402  0.4807 -0.4741
  120OSM    H4S12582   4.457   6.408   5.746 -0.0760  0.3953  0.0979
  120OSM    C5S12583   4.520   6.600   5.694  0.6516 -0.1280  0.1142
  120OSM    H5S12584   4.526   6.704   5.729 -1.2399 -0.0196  0.2027
  120OSM    C6S12585   4.544   6.591   5.546 -0.5292 -0.0253 -0.6766
  120OSM    H6S12586   4.532   6.484   5.517 -0.9564 -0.3812  0.7403
  120OSM    H6T12587   4.651   6.612   5.525 -0.1256  0.2089  1.4286
  120OSM    C7S12588   4.458   6.683   5.455  0.3678  0.6264  0.0238
  120OSM    H7S12589   4.488   6.788   5.474  1.3272  0.1782  1.1164
  120OSM    H7T12590   4.348   6.671   5.468  0.2749  2.3756  1.1537
  120OSM    C8S12591   4.482   6.641   5.308 -0.3326  0.1992 -0.1339
  120OSM    H8S12592   4.454   6.533   5.309  0.7311 -0.1114  1.8061
  120OSM    H8T12593   4.587   6.646   5.271 -1.0414  1.2698 -2.0937
  120OSM    C9S12594   4.407   6.728   5.208 -0.6043  0.0867  0.3802
  120OSM    H9S12595   4.315   6.756   5.264  1.5205  1.9952  3.2408
  120OSM    H9T12596   4.394   6.661   5.121  2.1933 -0.7108  0.4840
  120OSM   C10S12597   4.488   6.848   5.168  0.2052 -0.1709  0.1092
  120OSM   H10S12598   4.584   6.814   5.124  1.2289  1.9688  0.5543
  120OSM   H10T12599   4.493   6.926   5.247 -0.6141 -0.8268  0.8276
  120OSM   C11S12600   4.415   6.920   5.053 -0.4659  0.1079 -0.2573
  120OSM   H11S12601   4.415   6.843   4.972  1.6881  0.0408 -0.2464
  120OSM   H11T12602   4.473   7.006   5.014 -0.4235  1.7730  3.1251
  120OSM   C12S12603   4.270   6.961   5.075 -0.0819 -0.1474  0.2067
  120OSM   H12S12604   4.279   7.037   5.155  2.0816  1.0673 -1.1303
  120OSM   H12T12605   4.208   6.875   5.110  0.1593 -0.1323  0.6797
  120OSM   C13S12606   4.209   7.012   4.945 -0.2601  0.8166 -0.0000
  120OSM   H13S12607   4.272   7.101   4.922 -1.5083  1.4576 -1.0955
  120OSM   H13T12608   4.103   7.036   4.965 -0.2064  0.7889  0.3190
  120OSM   C14S12609   4.221   6.922   4.814 -0.7023  0.5117  0.0734
  120OSM   H14S12610   4.199   6.817   4.843  1.1733  0.4627  1.5078
  120OSM   H14T12611   4.325   6.935   4.777 -0.7828 -1.1833 -0.8254
  120OSM   C15S12612   4.140   6.971   4.696 -0.0679 -0.4156 -0.0451
  120OSM   H15S12613   4.156   7.081   4.693  0.6008 -0.5168 -0.4740
  120OSM   H15T12614   4.032   6.960   4.718 -0.1405 -0.9274 -0.6435
  120OSM   C16S12615   4.164   6.900   4.559  0.3337  0.1795 -0.4415
  120OSM   H16S12616   4.158   6.791   4.575  0.1368  0.2333 -0.1442
  120OSM   H16T12617   4.268   6.919   4.524  0.9561 -0.1942  1.0974
  120OSM   C17S12618   4.056   6.925   4.460  0.2511 -0.5343  0.6252
  120OSM   H17S12619   4.100   6.924   4.358 -0.6957  4.9401 -0.1186
  120OSM   H17T12620   4.025   7.030   4.479  2.8759  0.5597 -0.6490
  120OSM   C18S12621   3.938   6.833   4.471  0.0336  0.3774 -0.1587
  120OSM   H18S12622   3.880   6.839   4.377  0.9129 -0.6419 -0.7826
  120OSM   H18T12623   3.871   6.862   4.555 -0.0407 -1.2354  0.3552
  120OSM   H18U12624   3.968   6.727   4.485 -1.6891 -0.3126 -1.4390
  120OSM    C1F12625   4.115   6.534   5.965  0.6418 -0.3620 -0.8691
  120OSM     OF12626   4.076   6.647   5.956  0.5811  0.1260  0.2543
  120OSM    C2F12627   4.027   6.418   5.989 -0.4488 -0.2437  0.2792
  120OSM    H2F12628   3.984   6.424   6.092  0.8585 -0.4262  0.8540
  120OSM    H2G12629   4.096   6.332   5.986 -0.0952 -0.0374  1.5356
  120OSM    C3F12630   3.922   6.408   5.882  0.3990  0.4860 -0.2436
  120OSM    H3F12631   3.858   6.496   5.904 -0.3528 -0.1052  0.0199
  120OSM    H3G12632   3.860   6.315   5.887 -1.1291  1.4541 -0.5418
  120OSM    C4F12633   3.973   6.413   5.736 -0.1767 -0.1437 -0.3121
  120OSM    H4F12634   4.053   6.336   5.733 -0.3291 -0.5044  2.6159
  120OSM    H4G12635   4.003   6.518   5.712  2.2239 -0.7962 -0.4001
  120OSM    C5F12636   3.867   6.372   5.638  0.1187  0.8785  0.0497
  120OSM    H5F12637   3.787   6.449   5.636 -0.7148  0.0114 -0.9481
  120OSM    H5G12638   3.823   6.275   5.672  0.1139  0.7814 -0.2310
  120OSM    C6F12639   3.913   6.343   5.497 -0.4717 -0.1083  0.4865
  120OSM    H6F12640   3.831   6.302   5.434 -0.0170 -0.8145  0.3463
  120OSM    H6G12641   4.001   6.275   5.489 -1.1735 -0.9053 -0.9396
  120OSM    C7F12642   3.973   6.468   5.430 -0.1863  0.1754 -0.5578
  120OSM    H7F12643   4.049   6.512   5.498 -2.2468  1.9260  0.7624
  120OSM    H7G12644   3.892   6.544   5.433 -0.0288  0.3153  1.0422
  120OSM    C8F12645   4.016   6.443   5.286  0.0642 -0.5117  0.6691
  120OSM    H8F12646   4.018   6.543   5.238 -0.3778 -0.4534  0.7714
  120OSM    H8G12647   3.933   6.382   5.245  0.1363 -1.9093  2.4950
  120OSM    C9F12648   4.152   6.382   5.266  0.2291 -0.1920  0.1290
  120OSM    H9F12649   4.204   6.377   5.363  1.1157 -1.0815 -0.3699
  120OSM   C10F12650   4.210   6.378   5.143 -0.3161  0.5039 -0.1538
  120OSM   H10F12651   4.304   6.321   5.133  0.0705  1.0909  0.0946
  120OSM   C11F12652   4.153   6.395   5.002  0.2101 -0.6351  0.3389
  120OSM   H11F12653   4.059   6.453   5.013  0.7596  0.6031 -1.1619
  120OSM   H11G12654   4.125   6.305   4.944 -1.0057 -0.3425  0.4478
  120OSM   C12F12655   4.246   6.483   4.916 -0.0804  0.7409 -0.0711
  120OSM   H12F12656   4.350   6.445   4.907 -0.5703 -0.7354  0.2182
  120OSM   H12G12657   4.257   6.586   4.956  2.3284 -0.1087  1.6535
  120OSM   C13F12658   4.183   6.503   4.771  0.4324  0.1231 -0.6627
  120OSM   H13F12659   4.239   6.581   4.715  1.9285 -0.0568  0.4910
  120OSM   H13G12660   4.087   6.555   4.789 -0.7995 -2.3348  0.3682
  120OSM   C14F12661   4.148   6.383   4.688 -0.3293 -0.1379 -0.3358
  120OSM   H14F12662   4.081   6.322   4.751  0.7438  1.4131  2.5116
  120OSM   H14G12663   4.246   6.336   4.665  0.0833  0.9392 -0.8774
  120OSM   C15F12664   4.092   6.406   4.556 -0.1904 -0.2222  0.7780
  120OSM   H15F12665   4.172   6.448   4.492 -1.0144 -0.7318 -0.6385
  120OSM   H15G12666   4.007   6.477   4.549  1.6101  1.8938 -4.4112
  120OSM   C16F12667   4.044   6.275   4.492  0.5441 -0.4183  0.0676
  120OSM   H16F12668   3.973   6.212   4.551  0.2584 -1.3293 -1.1950
  120OSM   H16G12669   4.140   6.226   4.463  0.8434  1.4640 -2.5029
  120OSM   C17F12670   3.948   6.299   4.372 -0.5899 -0.4057 -0.0117
  120OSM   H17F12671   4.020   6.327   4.293  0.3729 -0.7280  0.7385
  120OSM   H17G12672   3.875   6.380   4.396  0.6042  0.9022 -0.6144
  120OSM   C18F12673   3.878   6.169   4.336  0.1660  0.6474  0.0778
  120OSM   H18F12674   3.809   6.178   4.249 -1.3671 -0.1210  1.1735
  120OSM   H18G12675   3.817   6.141   4.424  0.6756  1.1200  0.5850
  120OSM   H18H12676   3.953   6.092   4.308 -1.4324 -0.6976 -0.7407
  121OSM      N12677   4.417   1.286   6.369 -0.0184  0.0458  0.4748
  121OSM    C1512678   4.338   1.233   6.488  0.1318  0.1367  0.1483
  121OSM   H15A12679   4.335   1.302   6.570  2.0917 -1.9541  2.1090
  121OSM   H15B12680   4.376   1.139   6.526  1.1761  1.2843  2.0887
  121OSM   H15C12681   4.238   1.198   6.464  0.7793 -1.9605  0.2899
  121OSM    C1412682   4.556   1.309   6.401 -0.5638  0.8860  0.3401
  121OSM   H14A12683   4.604   1.214   6.419  1.1616  1.2846 -1.7479
  121OSM   H14B12684   4.565   1.360   6.496  0.2287 -0.9624  1.3125
  121OSM   H14C12685   4.606   1.349   6.314  0.1906 -0.6088  0.0573
  121OSM    C1312686   4.401   1.193   6.256  0.9329 -0.1775 -0.4039
  121OSM   H13A12687   4.412   1.093   6.294  0.5124 -0.4308 -0.9288
  121OSM   H13B12688   4.473   1.223   6.182 -0.0180  0.3082 -1.1617
  121OSM   H13C12689   4.302   1.202   6.213  0.4103  3.0633  1.1843
  121OSM    C1212690   4.353   1.418   6.345  0.4014  0.2900 -0.0264
  121OSM   H12A12691   4.336   1.480   6.433 -1.5970 -0.0102 -0.1499
  121OSM   H12B12692   4.255   1.408   6.301  0.8780  0.0819 -1.0696
  121OSM    C1112693   4.423   1.523   6.243 -0.1409  0.6005  0.5054
  121OSM   H11A12694   4.485   1.473   6.166  0.7399  1.8445  0.3752
  121OSM   H11B12695   4.500   1.580   6.298  0.6029  1.3802 -1.2522
  121OSM      P12696   4.232   1.573   6.068 -0.2001 -0.2810  0.0433
  121OSM    O1312697   4.093   1.610   6.104 -0.1389  0.3791  0.5212
  121OSM    O1412698   4.276   1.634   5.938  0.0523  0.3227  0.3728
  121OSM    O1112699   4.248   1.417   6.068  0.4570  0.2329  0.2568
  121OSM    O1212700   4.331   1.620   6.186  0.3185  0.3804  0.3961
  121OSM    C1S12701   4.158   1.345   5.978 -0.3103  1.4276 -0.7631
  121OSM    H1S12702   4.062   1.395   5.955 -0.9047  0.6429 -0.0789
  121OSM    H1T12703   4.117   1.255   6.028 -0.3261 -0.3578 -3.7622
  121OSM     NF12704   4.139   1.234   5.757 -0.3660 -0.7258 -0.0714
  121OSM    HNF12705   4.121   1.137   5.771  1.3267 -0.9231  1.0056
  121OSM    C2S12706   4.230   1.303   5.845 -0.2838 -0.4292 -0.1056
  121OSM    H2S12707   4.266   1.398   5.800  0.3434  0.0380  1.3329
  121OSM    C3S12708   4.364   1.221   5.869 -0.9965  0.2310 -0.0213
  121OSM    H3S12709   4.343   1.120   5.911  0.3794 -0.4656 -0.9062
  121OSM     O312710   4.461   1.289   5.955 -0.1514  0.2870  0.1397
  121OSM    HO312711   4.416   1.369   5.981  0.4336  0.4704  0.6210
  121OSM    C4S12712   4.424   1.206   5.728 -0.2842  1.0221 -0.2687
  121OSM    H4S12713   4.425   1.291   5.659  0.8953  1.2817  0.0446
  121OSM    C5S12714   4.471   1.088   5.688  0.4011  0.3027 -0.3619
  121OSM    H5S12715   4.451   1.005   5.758 -1.2218  0.8514 -0.1188
  121OSM    C6S12716   4.509   1.042   5.546 -0.1537 -0.1865 -0.6655
  121OSM    H6S12717   4.448   0.955   5.512  1.7051 -1.2031 -1.5397
  121OSM    H6T12718   4.618   1.024   5.541 -0.1552 -0.3782 -0.0904
  121OSM    C7S12719   4.475   1.154   5.442 -0.1549  0.5594  0.7040
  121OSM    H7S12720   4.508   1.121   5.341 -0.9055 -0.1959  0.6900
  121OSM    H7T12721   4.533   1.246   5.465  1.1974 -0.4516  1.4383
  121OSM    C8S12722   4.318   1.194   5.425  0.2293  0.0202  0.9630
  121OSM    H8S12723   4.306   1.265   5.340  0.0278 -1.2183 -0.0718
  121OSM    H8T12724   4.287   1.249   5.516 -1.6502  1.8121 -0.6433
  121OSM    C9S12725   4.222   1.080   5.399 -0.6837 -0.2565 -0.0946
  121OSM    H9S12726   4.122   1.115   5.366 -0.8755  1.0617  1.7190
  121OSM    H9T12727   4.225   1.032   5.499 -0.2930 -0.3960 -0.1707
  121OSM   C10S12728   4.273   0.968   5.298  0.0368  0.6100 -0.5290
  121OSM   H10S12729   4.195   0.889   5.296  0.5344 -0.0156  1.8387
  121OSM   H10T12730   4.360   0.911   5.338 -1.2104 -0.6962  0.3970
  121OSM   C11S12731   4.303   1.020   5.156  0.0699 -0.6359 -0.3138
  121OSM   H11S12732   4.374   0.946   5.112  1.4001 -1.1586  2.4657
  121OSM   H11T12733   4.347   1.121   5.163 -1.1323 -0.1991  1.6422
  121OSM   C12S12734   4.177   1.033   5.072 -0.4506 -0.1053 -0.4859
  121OSM   H12S12735   4.091   1.083   5.123  0.5336  0.7064  0.4294
  121OSM   H12T12736   4.140   0.929   5.061  0.5080 -0.6650  1.2369
  121OSM   C13S12737   4.194   1.107   4.937 -0.3926 -0.0220 -0.2223
  121OSM   H13S12738   4.264   1.188   4.964 -0.2913 -0.2940  0.3383
  121OSM   H13T12739   4.101   1.152   4.896  0.3345  1.0519 -0.7565
  121OSM   C14S12740   4.267   1.025   4.825  0.1301 -0.0676  0.3556
  121OSM   H14S12741   4.353   0.976   4.875 -0.1135  0.1465  0.9922
  121OSM   H14T12742   4.308   1.092   4.746  1.0469 -1.9023 -0.8069
  121OSM   C15S12743   4.173   0.916   4.771  0.0487 -0.0205 -1.0167
  121OSM   H15S12744   4.093   0.979   4.727  1.0236  1.9424 -0.1135
  121OSM   H15T12745   4.130   0.848   4.848  0.6986  0.1556 -0.4821
  121OSM   C16S12746   4.230   0.838   4.649  0.2045  0.0745  0.0305
  121OSM   H16S12747   4.303   0.757   4.670 -1.4351 -1.5585 -0.3218
  121OSM   H16T12748   4.262   0.908   4.569 -0.5765  0.6731  0.2374
  121OSM   C17S12749   4.109   0.756   4.595 -0.5760 -0.2562  0.4098
  121OSM   H17S12750   4.037   0.827   4.549 -1.1370 -2.7045 -2.8889
  121OSM   H17T12751   4.062   0.691   4.672 -1.4397  0.2244  0.3017
  121OSM   C18S12752   4.155   0.674   4.483 -0.0076  0.1080 -0.1123
  121OSM   H18S12753   4.203   0.739   4.407  1.6799  1.0629  1.6949
  121OSM   H18T12754   4.068   0.626   4.432 -0.4770 -0.3257  1.0622
  121OSM   H18U12755   4.224   0.591   4.508 -0.6004 -0.5901 -0.7288
  121OSM    C1F12756   4.050   1.304   5.684  0.9726 -0.4973 -0.0836
  121OSM     OF12757   4.036   1.427   5.698 -0.4992 -0.2393  0.3983
  121OSM    C2F12758   3.976   1.225   5.575 -0.3950 -0.8751  0.3253
  121OSM    H2F12759   4.002   1.117   5.578  0.5420 -0.6345  1.6111
  121OSM    H2G12760   4.024   1.262   5.482  0.1463 -1.4869  0.3506
  121OSM    C3F12761   3.818   1.250   5.577 -0.4018 -0.1862  0.4366
  121OSM    H3F12762   3.795   1.358   5.565  0.0563 -0.0810  0.4783
  121OSM    H3G12763   3.786   1.218   5.679 -1.7516  0.2882  0.1789
  121OSM    C4F12764   3.736   1.169   5.480 -0.2529  0.2318  0.8272
  121OSM    H4F12765   3.630   1.198   5.489 -0.1853  0.9562 -0.5547
  121OSM    H4G12766   3.729   1.066   5.522  1.1130 -1.1499 -2.0713
  121OSM    C5F12767   3.782   1.175   5.331 -0.2626  0.4024  0.0718
  121OSM    H5F12768   3.890   1.152   5.321 -0.2446 -0.3835  1.7017
  121OSM    H5G12769   3.772   1.281   5.298  1.0976 -0.6226 -4.2181
  121OSM    C6F12770   3.699   1.097   5.227  0.6959 -0.2135 -0.2536
  121OSM    H6F12771   3.601   1.149   5.236  1.8229  1.9915 -0.0590
  121OSM    H6G12772   3.696   0.988   5.248 -0.2412 -0.0311  0.6185
  121OSM    C7F12773   3.748   1.121   5.078 -0.1312  0.4127 -0.0643
  121OSM    H7F12774   3.821   1.204   5.090 -1.0531  0.9550  2.2567
  121OSM    H7G12775   3.661   1.153   5.016 -0.0142  0.3655 -0.2544
  121OSM    C8F12776   3.826   0.995   5.022  0.4058 -0.3671  0.4990
  121OSM    H8F12777   3.881   0.945   5.105  0.4280 -0.4482  0.4350
  121OSM    H8G12778   3.888   1.037   4.939 -3.1574 -1.5871 -3.1290
  121OSM    C9F12779   3.741   0.892   4.962  0.4843  0.0832 -0.1749
  121OSM    H9F12780   3.681   0.836   5.036 -2.2296  0.7106 -1.7987
  121OSM   C10F12781   3.725   0.854   4.833  0.2737  0.1533  0.1183
  121OSM   H10F12782   3.644   0.785   4.806 -1.3669  2.1546 -0.3946
  121OSM   C11F12783   3.790   0.904   4.712 -0.4154 -0.3735  0.1039
  121OSM   H11F12784   3.851   0.822   4.669  0.5204  0.7193 -0.6863
  121OSM   H11G12785   3.864   0.985   4.725 -2.1508  1.6032 -1.5715
  121OSM   C12F12786   3.698   0.950   4.599 -0.0491  0.4013  0.0302
  121OSM   H12F12787   3.630   1.032   4.630  1.0187  1.1387  0.4951
  121OSM   H12G12788   3.638   0.868   4.555  0.3694  0.0366  0.1290
  121OSM   C13F12789   3.790   1.001   4.483 -0.4029 -0.4746 -0.4017
  121OSM   H13F12790   3.838   0.916   4.430  1.5378 -1.2188  2.3550
  121OSM   H13G12791   3.864   1.075   4.519 -1.0630  1.1417 -2.1887
  121OSM   C14F12792   3.713   1.080   4.374 -0.3178 -0.5115  0.0441
  121OSM   H14F12793   3.612   1.040   4.355  0.4004 -1.0389 -3.3506
  121OSM   H14G12794   3.758   1.077   4.273 -1.6798 -1.5251 -0.5617
  121OSM   C15F12795   3.691   1.229   4.418  0.0797 -0.5509 -0.3302
  121OSM   H15F12796   3.786   1.273   4.454  0.2468  0.2770 -1.6803
  121OSM   H15G12797   3.615   1.225   4.499  0.5847  3.2415  0.5157
  121OSM   C16F12798   3.636   1.323   4.306  0.0606 -0.3490  0.0069
  121OSM   H16F12799   3.548   1.290   4.246  0.5993  2.3827 -2.5008
  121OSM   H16G12800   3.719   1.325   4.232  0.6859  0.8360  0.7102
  121OSM   C17F12801   3.594   1.459   4.361  0.3851  0.1770  0.1335
  121OSM   H17F12802   3.558   1.523   4.277  0.8075 -0.9017 -0.9024
  121OSM   H17G12803   3.678   1.514   4.409  0.3369  1.1155 -0.8055
  121OSM   C18F12804   3.465   1.457   4.449 -0.3846  0.0136 -0.1878
  121OSM   H18F12805   3.457   1.560   4.490  0.2389  0.3838 -0.9536
  121OSM   H18G12806   3.460   1.386   4.534 -0.2275 -0.3900 -0.5104
  121OSM   H18H12807   3.385   1.430   4.377 -1.1490  1.3833  0.1292
  122OSM      N12808   4.045   5.624   6.423  0.0578 -0.0924 -0.1578
  122OSM    C1512809   3.996   5.520   6.329  0.3913  0.5995  0.1895
  122OSM   H15A12810   4.070   5.503   6.253  0.6671 -1.5627  0.8606
  122OSM   H15B12811   3.911   5.553   6.272  0.3230  1.0498  0.5459
  122OSM   H15C12812   3.974   5.423   6.372 -1.3386  0.3326 -1.1886
  122OSM    C1412813   4.053   5.751   6.348 -0.1541 -0.7744 -0.3630
  122OSM   H14A12814   4.127   5.743   6.270  0.5988 -0.3606  0.2960
  122OSM   H14B12815   4.094   5.821   6.419 -1.4469 -2.0570  1.7575
  122OSM   H14C12816   3.961   5.783   6.301 -0.2411 -1.1491 -0.4488
  122OSM    C1312817   3.941   5.632   6.529  0.8115  1.0514 -0.2081
  122OSM   H13A12818   3.842   5.666   6.503  0.8096  0.0334 -1.5899
  122OSM   H13B12819   3.959   5.699   6.612  1.6793  0.6137 -0.0255
  122OSM   H13C12820   3.926   5.532   6.567 -1.2609  1.7598  1.0278
  122OSM    C1212821   4.181   5.587   6.470  0.9207 -0.3423 -0.3828
  122OSM   H12A12822   4.170   5.493   6.523  0.2775 -0.1898 -0.2411
  122OSM   H12B12823   4.218   5.662   6.538  1.4519  1.4076 -2.5036
  122OSM    C1112824   4.292   5.574   6.359 -0.4165 -0.1289 -0.1983
  122OSM   H11A12825   4.257   5.514   6.272  2.5788 -0.0115 -1.6196
  122OSM   H11B12826   4.378   5.518   6.403  0.3511  2.8974  2.5553
  122OSM      P12827   4.416   5.793   6.417 -0.4152 -0.2125 -0.1022
  122OSM    O1312828   4.329   5.883   6.489  0.7368 -1.0083 -0.0964
  122OSM    O1412829   4.510   5.713   6.500 -0.1481  0.0615  0.1786
  122OSM    O1112830   4.520   5.867   6.324  0.2109 -0.0889  0.0939
  122OSM    O1212831   4.335   5.710   6.318  0.3846 -0.0162 -0.2888
  122OSM    C1S12832   4.602   5.798   6.235  0.2752 -0.1426 -0.3867
  122OSM    H1S12833   4.537   5.737   6.169  2.5796 -2.3948 -0.7273
  122OSM    H1T12834   4.683   5.737   6.281  1.5072  0.7550 -1.2838
  122OSM     NF12835   4.743   5.841   6.034 -0.3309 -0.3786 -0.2281
  122OSM    HNF12836   4.838   5.869   6.027 -0.1037 -0.9797  0.3776
  122OSM    C2S12837   4.670   5.906   6.144  0.0964 -0.5099 -0.1324
  122OSM    H2S12838   4.586   5.966   6.101 -0.6930 -2.0629 -0.8513
  122OSM    C3S12839   4.759   6.006   6.221  0.3939  0.5384 -0.0591
  122OSM    H3S12840   4.845   5.939   6.243 -0.4506 -0.6513 -0.3202
  122OSM     O312841   4.716   6.050   6.353 -0.7273 -0.7624 -0.0622
  122OSM    HO312842   4.630   6.006   6.356 -1.6419  0.5582 -3.0620
  122OSM    C4S12843   4.812   6.113   6.132 -0.7219 -0.7875 -0.5842
  122OSM    H4S12844   4.908   6.092   6.082 -0.3234  1.8487 -1.0461
  122OSM    C5S12845   4.739   6.221   6.094 -0.1489  0.4296  0.1291
  122OSM    H5S12846   4.636   6.240   6.129  0.1800  0.6574  0.9782
  122OSM    C6S12847   4.793   6.320   5.992  0.1022  0.0213  0.4891
  122OSM    H6S12848   4.826   6.410   6.048 -0.4836  1.1345 -0.8604
  122OSM    H6T12849   4.714   6.355   5.921  0.2546  1.1507  0.8469
  122OSM    C7S12850   4.923   6.277   5.904 -0.2339 -0.2203 -0.2782
  122OSM    H7S12851   5.010   6.262   5.971 -0.9348 -0.8930  0.5047
  122OSM    H7T12852   4.960   6.367   5.849  1.3960 -0.8923 -0.3164
  122OSM    C8S12853   4.888   6.160   5.806  0.4215 -0.3664  0.2676
  122OSM    H8S12854   4.864   6.063   5.854  2.4007 -0.8587  0.3771
  122OSM    H8T12855   4.983   6.141   5.751 -0.3127 -0.2464 -1.1131
  122OSM    C9S12856   4.794   6.195   5.693 -0.0559  0.2485 -0.5642
  122OSM    H9S12857   4.820   6.291   5.643  1.1813  1.4679  2.1957
  122OSM    H9T12858   4.688   6.207   5.726 -0.2407  0.7691 -1.3086
  122OSM   C10S12859   4.777   6.082   5.588 -0.6304 -0.2815  0.0719
  122OSM   H10S12860   4.735   5.999   5.648 -1.0138 -1.5713 -1.8879
  122OSM   H10T12861   4.874   6.049   5.546 -1.0568 -0.3113 -0.9298
  122OSM   C11S12862   4.675   6.124   5.477 -0.6665 -0.4246 -0.1380
  122OSM   H11S12863   4.583   6.166   5.524 -0.2809 -0.3841  0.5853
  122OSM   H11T12864   4.650   6.029   5.425  1.8041 -0.5714 -1.1811
  122OSM   C12S12865   4.734   6.216   5.372 -0.1870 -0.2143  0.9211
  122OSM   H12S12866   4.840   6.189   5.354 -0.0748  0.2883  0.8111
  122OSM   H12T12867   4.729   6.321   5.408 -1.0081 -0.0491  0.3536
  122OSM   C13S12868   4.668   6.214   5.233 -0.3603 -0.1173  0.4477
  122OSM   H13S12869   4.558   6.200   5.242 -0.6134  1.2423 -0.3231
  122OSM   H13T12870   4.709   6.125   5.179  0.8944  2.7043 -3.7525
  122OSM   C14S12871   4.698   6.337   5.150 -0.7524 -0.0833 -0.3072
  122OSM   H14S12872   4.807   6.336   5.130 -0.7826  1.1646 -0.6626
  122OSM   H14T12873   4.685   6.432   5.207  0.0778 -0.0436 -0.1730
  122OSM   C15S12874   4.608   6.350   5.022  0.6171  0.6908 -0.5451
  122OSM   H15S12875   4.579   6.455   5.002  1.1951  0.8169 -0.7578
  122OSM   H15T12876   4.514   6.294   5.040 -0.1657  2.2387  0.4220
  122OSM   C16S12877   4.679   6.302   4.894 -0.0779  0.1967 -0.2042
  122OSM   H16S12878   4.727   6.203   4.913 -0.2335 -0.1257 -1.4336
  122OSM   H16T12879   4.769   6.366   4.882  0.7617 -0.2955  2.6351
  122OSM   C17S12880   4.589   6.299   4.775 -0.0998  0.1580 -0.1774
  122OSM   H17S12881   4.529   6.392   4.763 -0.7693  0.0160  1.7785
  122OSM   H17T12882   4.517   6.217   4.795  1.4273 -1.3085 -0.4676
  122OSM   C18S12883   4.657   6.257   4.650  0.2618  0.0931  0.1044
  122OSM   H18S12884   4.718   6.165   4.658  0.8571 -0.0513 -3.7967
  122OSM   H18T12885   4.731   6.338   4.628 -1.3134  1.0615 -1.9718
  122OSM   H18U12886   4.587   6.242   4.565 -0.3974 -2.9625  1.0756
  122OSM    C1F12887   4.688   5.772   5.929 -0.0125 -0.6510  0.5123
  122OSM     OF12888   4.571   5.744   5.916  0.0697 -0.1915  0.3664
  122OSM    C2F12889   4.787   5.756   5.808 -0.4870  0.5439 -0.3967
  122OSM    H2F12890   4.872   5.696   5.847 -0.3206  0.1256 -1.3636
  122OSM    H2G12891   4.818   5.861   5.792  2.1400 -0.2833 -1.2813
  122OSM    C3F12892   4.726   5.692   5.679  0.0637  0.7990 -0.0023
  122OSM    H3F12893   4.643   5.758   5.647  0.7355  0.8101 -1.8992
  122OSM    H3G12894   4.681   5.591   5.686 -1.7975  1.6058  0.0096
  122OSM    C4F12895   4.816   5.692   5.560 -0.0443  0.1158  0.0573
  122OSM    H4F12896   4.897   5.619   5.580  0.0458 -0.1517 -1.1744
  122OSM    H4G12897   4.867   5.789   5.542 -0.5885  0.7238  1.6802
  122OSM    C5F12898   4.739   5.649   5.438  0.4157 -0.0728 -0.0809
  122OSM    H5F12899   4.647   5.709   5.419  1.3675  1.4080 -0.1852
  122OSM    H5G12900   4.699   5.549   5.466  0.6739  0.6812  3.5274
  122OSM    C6F12901   4.816   5.643   5.310 -0.2304 -0.8427 -0.3787
  122OSM    H6F12902   4.776   5.562   5.246  0.3935  0.1314 -2.0589
  122OSM    H6G12903   4.919   5.614   5.341 -0.1826  1.4177  1.9917
  122OSM    C7F12904   4.815   5.777   5.238 -0.3232 -0.0803  0.5344
  122OSM    H7F12905   4.871   5.859   5.288  0.9385  0.3297 -1.4559
  122OSM    H7G12906   4.712   5.820   5.242  0.0159  0.8083 -0.2508
  122OSM    C8F12907   4.868   5.762   5.091  0.1581 -0.3058  0.2245
  122OSM    H8F12908   4.815   5.678   5.040  2.7537 -1.4486 -0.7691
  122OSM    H8G12909   4.971   5.720   5.087 -0.5503 -2.0904 -0.7104
  122OSM    C9F12910   4.857   5.900   5.018 -0.2270  0.3726 -0.7928
  122OSM    H9F12911   4.916   5.979   5.066 -2.4638  1.2129  0.7943
  122OSM   C10F12912   4.792   5.916   4.902 -0.7023 -0.3998  0.2761
  122OSM   H10F12913   4.799   6.018   4.862  0.2454 -0.2826  0.7054
  122OSM   C11F12914   4.724   5.811   4.814 -0.2250 -0.8244  0.3216
  122OSM   H11F12915   4.750   5.708   4.847 -0.4647 -0.5462  1.4102
  122OSM   H11G12916   4.765   5.819   4.711 -0.4048 -1.9443  0.1470
  122OSM   C12F12917   4.572   5.836   4.791  0.1528 -0.3537 -0.5809
  122OSM   H12F12918   4.548   5.944   4.781  3.2000  0.3615 -1.0999
  122OSM   H12G12919   4.512   5.793   4.874 -3.1686  3.3735 -0.7036
  122OSM   C13F12920   4.522   5.761   4.662 -0.2125  0.5306 -0.7439
  122OSM   H13F12921   4.412   5.775   4.656 -0.4504  0.0608  1.4316
  122OSM   H13G12922   4.557   5.656   4.660  2.5943  1.2982  1.5097
  122OSM   C14F12923   4.567   5.815   4.525 -0.8736 -0.4628  0.3703
  122OSM   H14F12924   4.561   5.738   4.445 -0.4080  0.6304 -0.7547
  122OSM   H14G12925   4.674   5.844   4.517 -1.2796  0.5288 -3.0460
  122OSM   C15F12926   4.478   5.924   4.469 -0.4260 -0.0607  0.5565
  122OSM   H15F12927   4.505   6.006   4.540 -1.9045  0.4040  0.6244
  122OSM   H15G12928   4.370   5.899   4.475 -0.1569 -0.9595  2.1856
  122OSM   C16F12929   4.518   5.968   4.321  0.6426 -0.2579 -0.2667
  122OSM   H16F12930   4.506   5.876   4.259 -0.7784 -0.7821  0.7120
  122OSM   H16G12931   4.622   6.006   4.316 -0.0946  1.6512 -2.6775
  122OSM   C17F12932   4.429   6.077   4.257  0.7421  0.4512 -0.1705
  122OSM   H17F12933   4.427   6.173   4.311  0.4996 -0.4501  1.4869
  122OSM   H17G12934   4.325   6.037   4.248  0.7287  0.8040 -2.1676
  122OSM   C18F12935   4.479   6.098   4.115 -0.1455  0.5178 -0.6824
  122OSM   H18F12936   4.585   6.124   4.097  0.0210 -0.1420 -0.6687
  122OSM   H18G12937   4.419   6.178   4.065 -0.2504  1.2719  0.5943
  122OSM   H18H12938   4.456   5.996   4.079  0.2756 -1.2698  3.5494
  123OSM      N12939   4.972   3.497   1.664 -1.1766  0.2390  0.3347
  123OSM    C1512940   5.073   3.447   1.567 -0.2379  0.4764  0.0871
  123OSM   H15A12941   5.106   3.346   1.590  1.1724  0.6326 -1.1241
  123OSM   H15B12942   5.158   3.513   1.556 -1.2831  1.8878  0.1747
  123OSM   H15C12943   5.031   3.428   1.470  0.9367 -1.9225 -0.0137
  123OSM    C1412944   4.853   3.409   1.640 -0.7228 -0.3510  0.2092
  123OSM   H14A12945   4.800   3.426   1.547  0.7023 -0.8868 -0.7396
  123OSM   H14B12946   4.782   3.437   1.716 -0.5940  1.0127 -0.1399
  123OSM   H14C12947   4.876   3.304   1.643  1.3027 -0.0241 -1.5530
  123OSM    C1312948   5.030   3.472   1.805  0.0772  0.1259  0.2367
  123OSM   H13A12949   4.955   3.497   1.879 -1.2102 -4.3400  0.7225
  123OSM   H13B12950   5.118   3.533   1.820 -0.0842  0.1673  1.0491
  123OSM   H13C12951   5.051   3.370   1.831  2.5630  0.4099 -0.4126
  123OSM    C1212952   4.940   3.646   1.636  0.1954  0.2220 -0.0984
  123OSM   H12A12953   4.905   3.648   1.534  0.2365  0.3384 -0.1100
  123OSM   H12B12954   5.037   3.694   1.644  0.2505 -0.0722  1.2341
  123OSM    C1112955   4.845   3.716   1.739 -0.8517  0.2708  0.1106
  123OSM   H11A12956   4.754   3.655   1.720 -1.5311  1.8570 -2.1206
  123OSM   H11B12957   4.824   3.820   1.705  1.0818 -0.0253 -2.3368
  123OSM      P12958   4.945   3.850   1.941 -0.0005  0.0713  0.4877
  123OSM    O1312959   5.038   3.820   2.049  0.3443  0.3653 -0.2327
  123OSM    O1412960   4.993   3.944   1.836 -0.2886 -0.2834  0.3535
  123OSM    O1112961   4.822   3.923   2.012 -0.0316  0.0313 -0.2117
  123OSM    O1212962   4.884   3.719   1.880 -0.2917 -0.5670 -0.0927
  123OSM    C1S12963   4.693   3.883   2.036 -0.2670  0.9705  0.0415
  123OSM    H1S12964   4.660   3.788   1.990 -0.9662  0.2361  1.9398
  123OSM    H1T12965   4.621   3.957   1.996 -0.9726  0.0434 -0.4524
  123OSM     NF12966   4.544   3.808   2.228 -0.8074 -0.4847 -0.0878
  123OSM    HNF12967   4.464   3.867   2.223 -1.5433 -1.5852 -3.5609
  123OSM    C2S12968   4.671   3.867   2.191  0.0659  0.0274 -0.2367
  123OSM    H2S12969   4.746   3.800   2.238 -2.5930 -1.2442  2.4442
  123OSM    C3S12970   4.678   4.014   2.252  0.2393 -0.6674  0.2834
  123OSM    H3S12971   4.587   4.069   2.217 -0.6483 -0.1091  3.2206
  123OSM     O312972   4.787   4.096   2.205  0.3814  0.7497  0.1560
  123OSM    HO312973   4.804   4.051   2.121 -0.2657 -2.2028  1.5021
  123OSM    C4S12974   4.680   4.019   2.400  0.7467 -0.0071 -0.3980
  123OSM    H4S12975   4.576   4.027   2.435  0.8225  2.9849 -0.5933
  123OSM    C5S12976   4.782   4.038   2.491 -0.2360 -0.1666  0.5124
  123OSM    H5S12977   4.882   4.056   2.448 -0.0267 -3.9697 -1.0092
  123OSM    C6S12978   4.771   4.044   2.642  0.4993  0.3104 -0.4548
  123OSM    H6S12979   4.813   4.141   2.676  0.3011  0.7249 -1.3609
  123OSM    H6T12980   4.834   3.966   2.690 -0.1579  0.3353  0.4919
  123OSM    C7S12981   4.633   4.028   2.713 -0.1364  0.3577  0.6176
  123OSM    H7S12982   4.595   3.925   2.698 -0.3768  0.8363 -2.8612
  123OSM    H7T12983   4.562   4.096   2.662  0.6216 -0.4071 -1.5380
  123OSM    C8S12984   4.637   4.081   2.856 -0.1529  0.1178  0.4440
  123OSM    H8S12985   4.697   4.174   2.864  0.8270 -0.1924 -2.0734
  123OSM    H8T12986   4.685   4.001   2.917 -0.2407 -0.2998 -0.0249
  123OSM    C9S12987   4.494   4.105   2.908 -0.1891 -0.0994 -0.0568
  123OSM    H9S12988   4.442   4.007   2.905  2.3146 -1.6114  1.7103
  123OSM    H9T12989   4.437   4.176   2.844  2.2118  2.8424  0.8082
  123OSM   C10S12990   4.499   4.174   3.045  0.1259 -0.4517  0.0013
  123OSM   H10S12991   4.424   4.256   3.047  2.2094  1.5503 -0.0257
  123OSM   H10T12992   4.603   4.210   3.062  0.3057 -1.1834  0.4794
  123OSM   C11S12993   4.488   4.062   3.155  0.6499  0.2076  0.6292
  123OSM   H11S12994   4.569   3.988   3.144  1.9676  1.7156 -0.2150
  123OSM   H11T12995   4.385   4.022   3.141  0.3363  1.1334  0.1965
  123OSM   C12S12996   4.504   4.124   3.295 -0.8142 -0.2161  0.8776
  123OSM   H12S12997   4.419   4.188   3.327 -0.8523  0.6063 -0.7644
  123OSM   H12T12998   4.599   4.180   3.297 -0.5094 -0.7053  0.4988
  123OSM   C13S12999   4.504   4.012   3.402  0.5128 -0.2323  0.2732
  123OSM   H13S13000   4.602   3.960   3.396  0.8918  0.2753  1.6407
  123OSM   H13T13001   4.426   3.936   3.378  1.5075 -2.0249  2.2782
  123OSM   C14S13002   4.472   4.056   3.553  0.4268 -0.8043 -0.0515
  123OSM   H14S13003   4.468   3.958   3.605  1.6111  0.3442  2.3711
  123OSM   H14T13004   4.369   4.097   3.549  0.8933  0.3821 -0.2567
  123OSM   C15S13005   4.585   4.140   3.612  0.1092  0.6524 -0.3613
  123OSM   H15S13006   4.586   4.236   3.556  0.0402  0.6386 -0.3858
  123OSM   H15T13007   4.679   4.081   3.603 -0.3043 -0.0070 -0.4103
  123OSM   C16S13008   4.551   4.170   3.763  0.5074  0.7944  0.0949
  123OSM   H16S13009   4.542   4.081   3.829 -2.5463 -0.4746 -1.8050
  123OSM   H16T13010   4.455   4.226   3.766  2.2637  4.0518  2.6120
  123OSM   C17S13011   4.654   4.261   3.835 -0.1079  0.0235 -0.4280
  123OSM   H17S13012   4.635   4.265   3.944 -3.9179  2.5775 -0.9740
  123OSM   H17T13013   4.645   4.367   3.801 -1.4059  0.2657  0.5702
  123OSM   C18S13014   4.801   4.227   3.805  0.9925  0.0667 -0.4178
  123OSM   H18S13015   4.865   4.295   3.865  0.7378  1.0343 -1.2236
  123OSM   H18T13016   4.828   4.231   3.697 -0.6255  0.8586 -0.8164
  123OSM   H18U13017   4.817   4.122   3.839 -1.9890  0.6387  3.3935
  123OSM    C1F13018   4.522   3.678   2.218  0.5447  0.5621  0.7708
  123OSM     OF13019   4.606   3.604   2.164 -0.1150  0.0593  0.4210
  123OSM    C2F13020   4.382   3.620   2.248  0.3648  0.1586 -1.2460
  123OSM    H2F13021   4.382   3.510   2.261 -1.8184  0.2420 -0.1103
  123OSM    H2G13022   4.317   3.640   2.160  0.0132 -1.7875 -1.4779
  123OSM    C3F13023   4.325   3.669   2.379 -0.4430 -0.5457  0.4143
  123OSM    H3F13024   4.230   3.614   2.391 -0.8168  0.2601  1.3223
  123OSM    H3G13025   4.298   3.776   2.367 -0.2448 -0.7504 -2.7179
  123OSM    C4F13026   4.411   3.645   2.500  0.2411 -0.2737 -0.7588
  123OSM    H4F13027   4.501   3.707   2.482  0.9370 -1.0238  0.0834
  123OSM    H4G13028   4.439   3.538   2.505  0.0366 -0.3400 -0.9922
  123OSM    C5F13029   4.326   3.682   2.629  0.3916  0.8578 -0.0504
  123OSM    H5F13030   4.240   3.611   2.640 -0.9711  2.7298  2.2357
  123OSM    H5G13031   4.269   3.774   2.603  1.9255  1.7241 -0.4741
  123OSM    C6F13032   4.401   3.674   2.760 -0.0377  0.0981  0.0176
  123OSM    H6F13033   4.440   3.776   2.783 -0.6778 -0.1343  2.4137
  123OSM    H6G13034   4.492   3.611   2.752  1.0849  1.8885 -2.7311
  123OSM    C7F13035   4.313   3.645   2.881  0.0148 -1.0327 -0.0301
  123OSM    H7F13036   4.272   3.544   2.903 -0.8740 -0.8811 -0.9203
  123OSM    H7G13037   4.235   3.724   2.881  0.4088 -0.6345  0.6605
  123OSM    C8F13038   4.405   3.678   2.998 -0.8165 -0.2369  0.2476
  123OSM    H8F13039   4.476   3.762   2.982 -1.8059  0.3281 -1.3854
  123OSM    H8G13040   4.471   3.590   3.008  1.2518  1.2655  0.3929
  123OSM    C9F13041   4.329   3.708   3.126 -0.9811  0.1139 -0.0563
  123OSM    H9F13042   4.291   3.811   3.134  1.4757  1.0493  0.5778
  123OSM   C10F13043   4.328   3.628   3.229  0.5319 -0.1721  0.1239
  123OSM   H10F13044   4.295   3.674   3.323  0.0474  0.4333 -0.3337
  123OSM   C11F13045   4.383   3.484   3.245  1.3916  0.5575 -0.7687
  123OSM   H11F13046   4.431   3.449   3.151  0.6271 -2.9846  0.0176
  123OSM   H11G13047   4.286   3.430   3.258  1.5937  0.3303 -0.1717
  123OSM   C12F13048   4.477   3.465   3.364 -0.1686  0.4675 -0.2039
  123OSM   H12F13049   4.450   3.524   3.454  1.2826 -1.1878  1.4161
  123OSM   H12G13050   4.580   3.496   3.338  0.2119  0.1475  0.8494
  123OSM   C13F13051   4.497   3.311   3.391  0.3429  0.0272 -1.2642
  123OSM   H13F13052   4.604   3.292   3.417  0.6255  0.0497 -2.3750
  123OSM   H13G13053   4.469   3.237   3.313 -0.1246 -0.2031 -0.8839
  123OSM   C14F13054   4.413   3.278   3.515 -0.3588  0.7568  0.0169
  123OSM   H14F13055   4.308   3.260   3.484 -0.2184  0.4592 -0.3010
  123OSM   H14G13056   4.411   3.361   3.588 -1.1641  1.8439 -1.1979
  123OSM   C15F13057   4.480   3.151   3.582  0.4806  0.4042  0.1597
  123OSM   H15F13058   4.581   3.169   3.624  0.3504 -4.8614  3.6805
  123OSM   H15G13059   4.493   3.083   3.496 -0.6037  1.7273 -1.1119
  123OSM   C16F13060   4.399   3.082   3.697  0.6543 -0.1237 -0.2199
  123OSM   H16F13061   4.300   3.063   3.650  0.1367 -0.9607  1.1684
  123OSM   H16G13062   4.379   3.152   3.781 -1.9792 -1.5122  0.3911
  123OSM   C17F13063   4.473   2.952   3.750 -0.4368 -0.4119  0.0618
  123OSM   H17F13064   4.578   2.973   3.778 -0.7275  0.9504  0.1719
  123OSM   H17G13065   4.479   2.883   3.664 -1.4363 -0.2954 -0.1203
  123OSM   C18F13066   4.404   2.893   3.872 -0.8832 -0.2448 -0.1350
  123OSM   H18F13067   4.305   2.852   3.846 -0.8011  0.1273 -1.0582
  123OSM   H18G13068   4.382   2.973   3.947  1.3215  0.9810 -0.6840
  123OSM   H18H13069   4.458   2.806   3.914 -0.9554  0.1173  0.7423
  124OSM      N13070   4.399   4.307   1.575  0.4103 -0.0331 -1.0926
  124OSM    C1513071   4.420   4.387   1.703 -0.8453  0.0710  0.6092
  124OSM   H15A13072   4.325   4.412   1.748 -1.0580 -1.0789  0.8330
  124OSM   H15B13073   4.463   4.481   1.672 -2.6663  0.5407 -0.6361
  124OSM   H15C13074   4.481   4.330   1.771 -0.4204  0.5155  0.6046
  124OSM    C1413075   4.306   4.385   1.489 -0.5991 -0.2064 -0.2341
  124OSM   H14A13076   4.309   4.360   1.384  2.0253  1.3257 -0.6218
  124OSM   H14B13077   4.329   4.490   1.490  2.1061 -0.7265  0.5590
  124OSM   H14C13078   4.211   4.389   1.540  0.0969 -0.0343  1.0903
  124OSM    C1313079   4.528   4.303   1.511  0.0911  0.3908 -0.0048
  124OSM   H13A13080   4.532   4.243   1.421  0.5754 -2.1927  1.6530
  124OSM   H13B13081   4.604   4.267   1.579  0.2522  1.2023  0.2503
  124OSM   H13C13082   4.567   4.400   1.483  1.7141 -1.2354 -4.2737
  124OSM    C1213083   4.339   4.169   1.607  0.3196  0.7754  0.4457
  124OSM   H12A13084   4.401   4.115   1.677  0.2572 -0.1185 -0.1693
  124OSM   H12B13085   4.338   4.111   1.516  1.7923  2.6858 -0.8773
  124OSM    C1113086   4.187   4.159   1.651 -0.6803 -0.4287 -0.7255
  124OSM   H11A13087   4.170   4.054   1.684  0.0001 -0.1589  0.5696
  124OSM   H11B13088   4.125   4.180   1.562  0.9138  0.6163 -1.6485
  124OSM      P13089   4.019   4.325   1.755  0.1407  0.1404  0.2884
  124OSM    O1313090   4.051   4.423   1.645 -0.5764 -0.0225 -0.0564
  124OSM    O1413091   3.899   4.240   1.726 -0.7308  0.3185 -0.0100
  124OSM    O1113092   4.008   4.396   1.898  0.2405  0.1640 -0.1899
  124OSM    O1213093   4.149   4.238   1.765  0.0686  0.0176  0.1204
  124OSM    C1S13094   4.085   4.349   2.009  0.1743 -0.3478  0.2108
  124OSM    H1S13095   4.192   4.377   1.994 -0.1236  1.1244  0.6301
  124OSM    H1T13096   4.084   4.240   2.030  2.2676 -0.1890  1.4152
  124OSM     NF13097   4.114   4.390   2.253 -0.0055 -0.4310  0.5343
  124OSM    HNF13098   4.116   4.301   2.296 -0.4677  0.8921  3.5493
  124OSM    C2S13099   4.029   4.419   2.141 -0.3240 -0.4582 -0.1443
  124OSM    H2S13100   4.028   4.528   2.120  1.3304 -0.6118 -1.1800
  124OSM    C3S13101   3.891   4.371   2.171  1.0283 -0.4020  0.3802
  124OSM    H3S13102   3.894   4.260   2.179  1.8816 -0.3654  0.6873
  124OSM     O313103   3.804   4.388   2.053  0.3943  0.1423 -0.3035
  124OSM    HO313104   3.876   4.406   1.992  2.0742 -2.8423  0.6005
  124OSM    C4S13105   3.824   4.413   2.297  0.6151 -0.0006  0.1160
  124OSM    H4S13106   3.847   4.340   2.377  0.0021  1.2671  1.5040
  124OSM    C5S13107   3.760   4.529   2.318 -0.0834 -0.1984  0.7731
  124OSM    H5S13108   3.739   4.595   2.233 -0.3360 -0.8848  0.2992
  124OSM    C6S13109   3.692   4.581   2.438 -0.2841  0.5586 -0.1489
  124OSM    H6S13110   3.581   4.587   2.430 -0.5280 -0.5719  1.8991
  124OSM    H6T13111   3.721   4.687   2.455 -0.3267  0.7594 -1.2449
  124OSM    C7S13112   3.729   4.499   2.563  0.4122 -0.8922 -0.7004
  124OSM    H7S13113   3.838   4.519   2.574  0.6623 -0.6758 -3.1959
  124OSM    H7T13114   3.689   4.395   2.553 -2.7017 -0.0031  1.0749
  124OSM    C8S13115   3.666   4.551   2.696 -0.4344  0.2291  0.0680
  124OSM    H8S13116   3.557   4.533   2.686 -0.3057  0.0181 -1.0187
  124OSM    H8T13117   3.697   4.656   2.715  0.8516 -0.5142  2.7417
  124OSM    C9S13118   3.717   4.470   2.814 -0.6290  0.0093 -0.0091
  124OSM    H9S13119   3.828   4.479   2.815 -0.4506 -1.6375  1.9062
  124OSM    H9T13120   3.690   4.363   2.796  1.0695 -0.3571 -0.5433
  124OSM   C10S13121   3.654   4.516   2.944 -0.5100  0.1816  0.0605
  124OSM   H10S13122   3.556   4.467   2.964 -0.1853 -0.3480  0.3911
  124OSM   H10T13123   3.639   4.626   2.941  0.7360  0.4133  1.3847
  124OSM   C11S13124   3.745   4.491   3.065  0.3851  0.2332 -0.6102
  124OSM   H11S13125   3.830   4.562   3.064 -0.3254  1.0967 -0.9110
  124OSM   H11T13126   3.782   4.388   3.048 -0.7452 -0.1326 -0.9315
  124OSM   C12S13127   3.680   4.501   3.203 -0.1290 -0.0311 -0.5157
  124OSM   H12S13128   3.582   4.449   3.196 -0.5490  0.3142  1.8003
  124OSM   H12T13129   3.649   4.605   3.229  1.9519  0.4363  0.2707
  124OSM   C13S13130   3.768   4.448   3.308 -0.5906 -0.0445 -0.2778
  124OSM   H13S13131   3.860   4.506   3.331  0.3588 -1.2218 -0.9376
  124OSM   H13T13132   3.820   4.360   3.264 -0.6615 -0.4653  0.4659
  124OSM   C14S13133   3.693   4.417   3.442 -0.3497  0.2552 -0.0692
  124OSM   H14S13134   3.601   4.359   3.418  0.9245 -1.2966 -1.4227
  124OSM   H14T13135   3.666   4.520   3.474 -0.7976  0.3905 -0.8711
  124OSM   C15S13136   3.764   4.340   3.554 -0.1615  0.0192  0.1853
  124OSM   H15S13137   3.797   4.245   3.507 -0.2383  1.1795 -2.3551
  124OSM   H15T13138   3.706   4.320   3.647 -1.2522  0.8108 -0.2914
  124OSM   C16S13139   3.901   4.399   3.585  0.5781  0.4501 -0.3706
  124OSM   H16S13140   3.893   4.504   3.619  2.0233  0.1922  0.9052
  124OSM   H16T13141   3.957   4.394   3.489  0.2793  2.1297 -0.6492
  124OSM   C17S13142   3.980   4.310   3.692 -1.0074 -1.1898  0.5317
  124OSM   H17S13143   4.082   4.352   3.711 -1.3727  0.0718 -0.2060
  124OSM   H17T13144   4.006   4.214   3.642  1.4355 -0.4803  0.3015
  124OSM   C18S13145   3.904   4.290   3.819  0.5266  0.3143  0.1557
  124OSM   H18S13146   3.965   4.216   3.875 -0.4898 -0.3536  0.4222
  124OSM   H18T13147   3.812   4.230   3.800  0.4625  0.8927 -1.5044
  124OSM   H18U13148   3.886   4.385   3.875  0.9695  0.7696 -0.4587
  124OSM    C1F13149   4.228   4.456   2.263 -0.5760 -0.7218  0.3024
  124OSM     OF13150   4.259   4.554   2.194 -0.5261  0.1084 -0.3947
  124OSM    C2F13151   4.319   4.400   2.364 -0.9561  0.4923 -0.1719
  124OSM    H2F13152   4.366   4.302   2.343 -0.2296 -0.0031  3.1678
  124OSM    H2G13153   4.250   4.383   2.449 -0.3105 -1.1442  0.0505
  124OSM    C3F13154   4.421   4.499   2.425  0.5016  0.1346 -0.2841
  124OSM    H3F13155   4.375   4.598   2.448  0.2307 -0.1174  0.2801
  124OSM    H3G13156   4.512   4.509   2.363  1.7166 -1.8770  1.0722
  124OSM    C4F13157   4.466   4.447   2.563 -0.0578 -0.5058 -0.4370
  124OSM    H4F13158   4.499   4.341   2.557  1.9271 -0.0089  0.6480
  124OSM    H4G13159   4.387   4.467   2.638 -0.1864  1.1362 -0.9644
  124OSM    C5F13160   4.584   4.528   2.616  0.4617  0.1105  0.6521
  124OSM    H5F13161   4.560   4.631   2.649  2.3032  1.5414 -2.0569
  124OSM    H5G13162   4.660   4.553   2.538 -0.8120 -1.3946 -1.1552
  124OSM    C6F13163   4.658   4.460   2.727  0.6727  0.1411 -0.1805
  124OSM    H6F13164   4.727   4.380   2.692  2.4067  1.0496  1.0261
  124OSM    H6G13165   4.591   4.404   2.796  0.9975 -0.4673 -0.3533
  124OSM    C7F13166   4.743   4.567   2.811 -0.0754  0.2899  0.6070
  124OSM    H7F13167   4.786   4.641   2.740  0.7442 -0.2570  0.5222
  124OSM    H7G13168   4.837   4.523   2.852  0.6449  0.4710 -0.7954
  124OSM    C8F13169   4.674   4.645   2.924 -0.6561  0.3336 -0.3253
  124OSM    H8F13170   4.574   4.658   2.878 -0.2012  0.0063 -1.4449
  124OSM    H8G13171   4.701   4.753   2.931 -0.7420  0.2622  1.5472
  124OSM    C9F13172   4.673   4.579   3.059 -0.3289  0.2434 -0.2038
  124OSM    H9F13173   4.631   4.478   3.047  0.0498  0.0049  0.4395
  124OSM   C10F13174   4.723   4.614   3.181 -0.0603  0.3177 -0.1395
  124OSM   H10F13175   4.705   4.546   3.265 -1.0131 -1.2670 -1.5606
  124OSM   C11F13176   4.797   4.743   3.210 -0.1901 -0.9187  0.1365
  124OSM   H11F13177   4.846   4.770   3.114 -1.0310 -2.3271 -0.7272
  124OSM   H11G13178   4.875   4.733   3.289 -1.6252 -0.3735  1.6785
  124OSM   C12F13179   4.705   4.861   3.258  0.1593  0.3104 -0.0216
  124OSM   H12F13180   4.629   4.869   3.178  0.5579 -0.7857 -0.5347
  124OSM   H12G13181   4.760   4.958   3.251  1.9337 -0.7200 -1.5621
  124OSM   C13F13182   4.638   4.842   3.391  0.4686  0.2166  0.2722
  124OSM   H13F13183   4.724   4.808   3.452  1.6232  0.0996 -1.3678
  124OSM   H13G13184   4.565   4.761   3.370 -0.2457  1.2559 -1.4980
  124OSM   C14F13185   4.560   4.958   3.446 -0.2324  0.7190  0.7051
  124OSM   H14F13186   4.472   4.965   3.378 -0.2533 -1.7935  0.3735
  124OSM   H14G13187   4.618   5.052   3.439  0.6905  0.0543 -1.1733
  124OSM   C15F13188   4.516   4.937   3.587  0.1403  0.5715 -0.6133
  124OSM   H15F13189   4.482   4.834   3.611 -0.7456  0.3619 -2.5339
  124OSM   H15G13190   4.423   4.998   3.602 -0.6054 -0.9837  1.4616
  124OSM   C16F13191   4.632   5.002   3.679 -0.1069  0.7250  0.3021
  124OSM   H16F13192   4.669   5.094   3.629  0.5517  1.1784  1.5934
  124OSM   H16G13193   4.711   4.924   3.683 -0.2204  0.5954  0.0698
  124OSM   C17F13194   4.591   5.025   3.820 -0.1502 -0.5109  0.0216
  124OSM   H17F13195   4.686   5.052   3.871 -0.4885 -1.3919  1.1606
  124OSM   H17G13196   4.554   4.937   3.877 -0.0159  0.3026  1.4212
  124OSM   C18F13197   4.492   5.145   3.844  0.1543 -0.0340 -0.0980
  124OSM   H18F13198   4.401   5.127   3.784 -0.9320 -1.5965  1.8826
  124OSM   H18G13199   4.532   5.245   3.814 -0.1309  0.6831  1.7665
  124OSM   H18H13200   4.464   5.154   3.951  0.2961 -0.2907 -0.0392
  125OSM      N13201   0.177   1.048   2.052  0.1744  0.3671  1.1917
  125OSM    C1513202   0.321   1.101   2.056  0.3233 -0.6106  0.2459
  125OSM   H15A13203   0.318   1.209   2.057  1.6532 -0.5306 -1.0424
  125OSM   H15B13204   0.381   1.074   1.971 -0.5879  1.1657 -1.0295
  125OSM   H15C13205   0.373   1.063   2.143 -0.8570 -1.5876  0.5439
  125OSM    C1413206   0.110   1.092   2.175 -0.3648 -0.7851 -0.0125
  125OSM   H14A13207   0.097   1.199   2.180 -3.1080 -1.0828  0.8998
  125OSM   H14B13208   0.169   1.064   2.261  1.1780  2.7557  0.2342
  125OSM   H14C13209   0.009   1.057   2.190 -1.1538  1.6343  0.7953
  125OSM    C1313210   0.109   1.108   1.932 -0.8182 -0.1989 -0.2617
  125OSM   H13A13211   0.100   1.214   1.952  0.6707 -0.1450  0.2876
  125OSM   H13B13212   0.004   1.086   1.931 -0.7584 -0.4609 -1.2920
  125OSM   H13C13213   0.154   1.085   1.837 -1.9692 -0.0235 -0.8535
  125OSM    C1213214   0.179   0.894   2.041  0.0432 -0.7004  0.3607
  125OSM   H12A13215   0.237   0.877   1.952  1.0518 -1.1468  1.0892
  125OSM   H12B13216   0.080   0.852   2.029 -0.1211 -0.1652 -0.1996
  125OSM    C1113217   0.239   0.821   2.154  0.2277 -0.0738 -0.7291
  125OSM   H11A13218   0.174   0.821   2.244 -0.7612 -1.6585 -1.3886
  125OSM   H11B13219   0.340   0.853   2.188  0.4117 -0.2357 -1.1094
  125OSM      P13220   0.327   0.578   2.199  0.3797  0.4151 -0.6352
  125OSM    O1313221   0.317   0.443   2.145  0.1881  0.2623  0.5400
  125OSM    O1413222   0.463   0.624   2.217 -0.3198  0.0985 -0.0912
  125OSM    O1113223   0.260   0.586   2.342 -0.2611 -0.0158 -0.0856
  125OSM    O1213224   0.260   0.691   2.109 -0.3951  0.5064 -1.0263
  125OSM    C1S13225   0.146   0.516   2.378  0.1078 -0.3918 -0.1519
  125OSM    H1S13226   0.165   0.410   2.350 -0.1784 -0.2922 -0.7439
  125OSM    H1T13227   0.057   0.553   2.322  1.3342 -1.4345 -2.9675
  125OSM     NF13228   0.012   0.432   2.571  0.6340 -0.4366 -0.7920
  125OSM    HNF13229  -0.084   0.456   2.582  0.0635 -2.9639  0.5526
  125OSM    C2S13230   0.109   0.529   2.527 -0.3876 -0.3682 -0.2073
  125OSM    H2S13231   0.202   0.510   2.585  0.1500 -1.3149 -1.3435
  125OSM    C3S13232   0.074   0.677   2.545 -0.1935 -0.5178  0.2331
  125OSM    H3S13233  -0.015   0.701   2.484  0.8560  1.1811 -0.6913
  125OSM     O313234   0.175   0.772   2.495  0.4558  0.3317 -0.0922
  125OSM    HO313235   0.219   0.716   2.431  2.2086 -0.9908  2.1114
  125OSM    C4S13236   0.047   0.703   2.694  0.9344  0.0213  0.1064
  125OSM    H4S13237   0.127   0.675   2.763  1.5851 -0.6179 -0.8749
  125OSM    C5S13238  -0.081   0.729   2.748  0.1395 -0.1076  0.0077
  125OSM    H5S13239  -0.170   0.721   2.683  0.7642 -2.8083 -0.6671
  125OSM    C6S13240  -0.130   0.753   2.888 -1.0577 -0.5153 -0.3568
  125OSM    H6S13241  -0.181   0.667   2.937 -0.5999 -0.9072 -0.5612
  125OSM    H6T13242  -0.209   0.831   2.877 -0.3234  0.4896  1.2125
  125OSM    C7S13243  -0.014   0.805   2.983  0.3130  0.1340  0.4256
  125OSM    H7S13244   0.033   0.895   2.937  2.2403 -0.5726  0.9341
  125OSM    H7T13245   0.059   0.728   3.016 -0.1664 -0.8632 -0.7842
  125OSM    C8S13246  -0.079   0.845   3.120 -0.2419  0.3066  0.2432
  125OSM    H8S13247  -0.146   0.764   3.154  1.3990 -1.0392  0.4142
  125OSM    H8T13248  -0.139   0.936   3.097  1.4998  1.1792 -1.1390
  125OSM    C9S13249   0.023   0.870   3.230 -0.0058  0.1312  0.3614
  125OSM    H9S13250   0.089   0.949   3.190 -0.6915  0.7445  0.4208
  125OSM    H9T13251   0.080   0.776   3.242  0.1255 -0.0550 -1.5357
  125OSM   C10S13252  -0.022   0.902   3.371  0.6465  0.0610  0.1928
  125OSM   H10S13253  -0.101   0.827   3.391  0.4624 -0.6798 -2.7604
  125OSM   H10T13254  -0.073   1.000   3.365  0.5106 -0.0591 -0.8480
  125OSM   C11S13255   0.097   0.903   3.471  0.3190 -0.0324 -0.4197
  125OSM   H11S13256   0.185   0.953   3.424  0.1637  0.4823 -0.1678
  125OSM   H11T13257   0.134   0.806   3.512 -4.6751 -1.5308  1.2249
  125OSM   C12S13258   0.061   0.983   3.598  0.8002  0.1667 -0.2532
  125OSM   H12S13259   0.004   1.075   3.570  2.6772  1.6021  0.4511
  125OSM   H12T13260   0.151   1.007   3.659  1.2021 -3.4369  0.7853
  125OSM   C13S13261  -0.016   0.902   3.696  0.4029 -0.5349 -0.6347
  125OSM   H13S13262   0.033   0.803   3.714  1.1387 -0.1267 -0.3358
  125OSM   H13T13263  -0.117   0.889   3.652  0.1257  0.1005 -0.2024
  125OSM   C14S13264  -0.045   0.977   3.828 -0.6385  0.3550  0.1519
  125OSM   H14S13265  -0.131   0.928   3.879  0.2388  0.1895  1.5149
  125OSM   H14T13266  -0.081   1.077   3.797 -1.0364 -0.6737 -3.1100
  125OSM   C15S13267   0.071   0.995   3.929  0.4813 -0.1838 -0.3628
  125OSM   H15S13268   0.167   1.008   3.876  2.5249  0.4979  3.1762
  125OSM   H15T13269   0.090   0.917   4.005  1.5619  2.7089  2.5764
  125OSM   C16S13270   0.053   1.124   4.013  0.2414 -0.4784 -0.0751
  125OSM   H16S13271   0.037   1.213   3.950 -1.2752 -0.7771 -0.1382
  125OSM   H16T13272   0.143   1.134   4.078  0.4707 -0.3354 -0.4085
  125OSM   C17S13273  -0.079   1.110   4.097  0.9398  1.0308 -0.5294
  125OSM   H17S13274  -0.090   1.005   4.132  1.6196  0.5924 -1.5493
  125OSM   H17T13275  -0.162   1.129   4.026 -1.9739 -2.3216  1.6666
  125OSM   C18S13276  -0.102   1.215   4.211 -0.1368  0.6110  0.1127
  125OSM   H18S13277  -0.112   1.317   4.167  0.4485  0.9497  0.7371
  125OSM   H18T13278  -0.026   1.230   4.290 -0.8825  0.3081  0.8986
  125OSM   H18U13279  -0.194   1.189   4.268 -0.0949 -0.7898 -0.4324
  125OSM    C1F13280   0.034   0.301   2.567  0.0038  0.0797  0.1237
  125OSM     OF13281   0.146   0.259   2.540  0.0110  0.1783  0.5352
  125OSM    C2F13282  -0.087   0.214   2.600 -0.1825 -0.1124 -0.5792
  125OSM    H2F13283  -0.067   0.112   2.562 -2.6211  0.0573 -2.5930
  125OSM    H2G13284  -0.180   0.258   2.557 -1.4462 -0.8049  1.3495
  125OSM    C3F13285  -0.116   0.210   2.756  0.1881  0.4853  0.4982
  125OSM    H3F13286  -0.017   0.201   2.804  0.2077 -1.7064  0.1612
  125OSM    H3G13287  -0.179   0.120   2.771  2.4289 -1.4952 -1.1336
  125OSM    C4F13288  -0.175   0.344   2.818  0.0060 -0.2498 -0.2304
  125OSM    H4F13289  -0.261   0.390   2.765  0.6090  0.6946 -0.4268
  125OSM    H4G13290  -0.102   0.428   2.805  0.8240 -1.0951 -1.2559
  125OSM    C5F13291  -0.221   0.329   2.964  0.0318 -0.0909  0.0888
  125OSM    H5F13292  -0.296   0.248   2.980  0.5389 -0.7479 -0.7507
  125OSM    H5G13293  -0.281   0.419   2.988  0.5168  0.9482 -2.2992
  125OSM    C6F13294  -0.113   0.307   3.067  0.0584  0.8591  0.1623
  125OSM    H6F13295  -0.058   0.219   3.029  0.2264  1.1915 -0.3845
  125OSM    H6G13296  -0.155   0.286   3.167 -0.7993 -3.8157 -0.9672
  125OSM    C7F13297  -0.023   0.427   3.079 -0.3412  0.5556  0.2401
  125OSM    H7F13298  -0.080   0.522   3.074  0.0016  0.7111 -2.7950
  125OSM    H7G13299   0.043   0.434   2.990  1.2085  2.0149  1.4472
  125OSM    C8F13300   0.060   0.446   3.206  0.0777  0.3038 -0.2001
  125OSM    H8F13301  -0.005   0.426   3.294  1.9992  0.0089  1.2020
  125OSM    H8G13302   0.109   0.546   3.209  2.5085 -0.7687 -1.3978
  125OSM    C9F13303   0.165   0.336   3.203 -0.9145 -0.2274 -0.3859
  125OSM    H9F13304   0.235   0.341   3.118 -0.4652 -0.3002 -0.0283
  125OSM   C10F13305   0.170   0.234   3.291  0.2531  0.0072  0.4823
  125OSM   H10F13306   0.257   0.167   3.281 -0.7249 -1.4860  1.4960
  125OSM   C11F13307   0.091   0.202   3.420 -0.4521 -0.0485  0.6225
  125OSM   H11F13308   0.065   0.096   3.403  1.7949 -0.0586 -4.6176
  125OSM   H11G13309  -0.005   0.259   3.419 -0.1310  0.7873  4.2121
  125OSM   C12F13310   0.162   0.226   3.556  0.1758  0.5636 -1.0152
  125OSM   H12F13311   0.165   0.336   3.574 -0.0268  0.3923  0.1099
  125OSM   H12G13312   0.268   0.196   3.541  0.5835  1.9052 -0.9557
  125OSM   C13F13313   0.090   0.151   3.670  0.1338  0.3730  0.1354
  125OSM   H13F13314   0.113   0.045   3.648  0.8256  0.5211  0.1174
  125OSM   H13G13315  -0.020   0.163   3.665 -0.0370 -0.5520  1.3391
  125OSM   C14F13316   0.142   0.178   3.812  0.5086  0.5616 -0.2269
  125OSM   H14F13317   0.131   0.286   3.834  1.0288  0.4915  0.4042
  125OSM   H14G13318   0.250   0.150   3.810 -0.2340 -3.3115  2.3248
  125OSM   C15F13319   0.082   0.086   3.920  0.6238 -0.2838 -0.1713
  125OSM   H15F13320   0.096  -0.021   3.892  0.1623 -0.3720 -0.0767
  125OSM   H15G13321  -0.024   0.111   3.945  1.1671  1.4514  0.5127
  125OSM   C16F13322   0.164   0.118   4.047  0.0119 -0.2050  0.2695
  125OSM   H16F13323   0.116   0.167   4.134 -0.5929 -0.1475 -0.0927
  125OSM   H16G13324   0.244   0.188   4.015 -0.3767 -0.4406 -1.3276
  125OSM   C17F13325   0.238  -0.009   4.104 -0.0472  0.5630  0.8003
  125OSM   H17F13326   0.308  -0.033   4.020  1.1851 -0.0352  1.9491
  125OSM   H17G13327   0.162  -0.089   4.115  0.6559 -0.2794 -0.1812
  125OSM   C18F13328   0.322   0.013   4.232  0.1958  0.1701  0.8830
  125OSM   H18F13329   0.355  -0.079   4.285  1.1308 -1.2385 -1.9550
  125OSM   H18G13330   0.273   0.074   4.311 -1.6651  1.0251 -0.8353
  125OSM   H18H13331   0.420   0.057   4.206  0.6570 -1.3579 -0.1214
  126OSM      N13332   5.148   1.675   2.181  0.3509 -0.4474 -0.0638
  126OSM    C1513333   5.108   1.659   2.039  0.0473  0.3116 -0.3750
  126OSM   H15A13334   5.045   1.573   2.020  0.2496  0.2056 -0.5775
  126OSM   H15B13335   5.189   1.669   1.968  0.4076  0.5869  0.0693
  126OSM   H15C13336   5.042   1.738   2.009 -0.9147 -0.7097 -1.0481
  126OSM    C1413337   5.017   1.670   2.254  0.1361  0.9080 -0.0747
  126OSM   H14A13338   4.967   1.765   2.255 -2.0931 -0.1933 -0.1019
  126OSM   H14B13339   5.026   1.637   2.357 -1.1097  0.9179  0.0446
  126OSM   H14C13340   4.951   1.597   2.209  2.9514 -0.8288 -1.7309
  126OSM    C1313341   5.245   1.561   2.217  0.4169 -0.1490  0.2110
  126OSM   H13A13342   5.337   1.567   2.160  1.1620  0.8409  1.4601
  126OSM   H13B13343   5.198   1.472   2.178 -2.6021  1.7208 -0.7551
  126OSM   H13C13344   5.271   1.567   2.322  1.5144  0.8743 -0.1033
  126OSM    C1213345   5.214   1.814   2.190  0.5378 -0.4100 -0.1993
  126OSM   H12A13346   5.277   1.830   2.104  0.8852  1.1660  0.3088
  126OSM   H12B13347   5.277   1.821   2.278  0.5058  0.8757 -0.2504
  126OSM    C1113348   5.121   1.940   2.181 -1.0233  0.0322 -0.6233
  126OSM   H11A13349   5.174   2.038   2.170 -1.4680  0.7622  2.7022
  126OSM   H11B13350   5.079   1.956   2.282  1.1028  0.6329  0.2319
  126OSM      P13351   4.898   2.032   2.069 -0.1295  0.2051  0.1514
  126OSM    O1313352   4.936   2.152   1.986  0.0602 -0.3875  0.1916
  126OSM    O1413353   4.775   1.958   2.021  0.5607  0.1648 -0.1029
  126OSM    O1113354   4.869   2.061   2.215  0.4184 -0.0423  0.1327
  126OSM    O1213355   5.019   1.929   2.087  0.0925 -0.4931  1.1085
  126OSM    C1S13356   4.793   1.972   2.300 -0.3896  0.4586  0.3196
  126OSM    H1S13357   4.851   1.878   2.295 -1.7314 -0.4133  0.6416
  126OSM    H1T13358   4.686   1.963   2.272 -0.1561  3.3332 -2.1479
  126OSM     NF13359   4.750   1.927   2.532 -0.3448  0.1793  0.1724
  126OSM    HNF13360   4.656   1.931   2.563 -0.2866 -1.9547  0.7723
  126OSM    C2S13361   4.796   2.035   2.440  0.0807 -0.0369 -0.2254
  126OSM    H2S13362   4.904   2.052   2.456 -0.2480  1.8353  0.2100
  126OSM    C3S13363   4.715   2.169   2.436  0.3850 -0.1394  0.8436
  126OSM    H3S13364   4.622   2.132   2.389  0.3479 -1.7178  2.0833
  126OSM     O313365   4.763   2.271   2.346 -0.0439  0.1202 -0.4456
  126OSM    HO313366   4.813   2.213   2.289  0.0958 -1.0437  0.7979
  126OSM    C4S13367   4.703   2.221   2.580  1.2592 -0.4565  0.5015
  126OSM    H4S13368   4.614   2.191   2.636  0.6118 -2.1314 -1.2988
  126OSM    C5S13369   4.781   2.299   2.644 -0.4417 -0.1978 -0.2772
  126OSM    H5S13370   4.863   2.343   2.584  1.5718 -1.5972  1.3201
  126OSM    C6S13371   4.759   2.349   2.785  0.3126  0.2223 -0.1281
  126OSM    H6S13372   4.794   2.453   2.799 -0.9086  0.5372  0.7826
  126OSM    H6T13373   4.831   2.304   2.857  0.1983 -0.5150 -0.4697
  126OSM    C7S13374   4.613   2.372   2.833  0.0316 -0.4905  0.3249
  126OSM    H7S13375   4.559   2.275   2.837 -0.5792 -0.1693 -0.0235
  126OSM    H7T13376   4.554   2.442   2.771  2.0714 -0.1612 -1.3570
  126OSM    C8S13377   4.611   2.419   2.983 -0.0826 -0.1719  0.0694
  126OSM    H8S13378   4.660   2.518   2.991 -1.4640  0.6547 -1.0790
  126OSM    H8T13379   4.673   2.348   3.042  0.7188  1.2654  0.9908
  126OSM    C9S13380   4.464   2.421   3.037  0.3591  0.4828  0.1679
  126OSM    H9S13381   4.409   2.333   2.998  0.7878  0.4585 -0.4005
  126OSM    H9T13382   4.414   2.506   2.986  1.4334  0.8661 -0.2801
  126OSM   C10S13383   4.452   2.443   3.190  0.2971 -0.2373  0.2785
  126OSM   H10S13384   4.537   2.498   3.237  0.8226 -1.9335  1.4104
  126OSM   H10T13385   4.456   2.346   3.244 -4.2242  0.4866  2.3168
  126OSM   C11S13386   4.322   2.520   3.226  0.3935  0.0928  0.7634
  126OSM   H11S13387   4.238   2.496   3.158  1.4662 -1.3740 -0.0899
  126OSM   H11T13388   4.333   2.631   3.219 -1.0062  0.1351 -1.7145
  126OSM   C12S13389   4.266   2.501   3.370  0.2566 -0.0066 -0.4236
  126OSM   H12S13390   4.233   2.397   3.393 -3.3091  1.0296 -0.2055
  126OSM   H12T13391   4.170   2.558   3.378 -0.5176 -1.3068 -0.0927
  126OSM   C13S13392   4.354   2.543   3.487 -0.7351  0.2944 -0.2005
  126OSM   H13S13393   4.405   2.639   3.465  1.2593 -0.0901  2.2585
  126OSM   H13T13394   4.435   2.470   3.507  0.3719  1.4859 -0.2142
  126OSM   C14S13395   4.282   2.553   3.630  0.0953 -0.0380  0.2391
  126OSM   H14S13396   4.178   2.588   3.611 -0.1795 -0.5658  0.7147
  126OSM   H14T13397   4.340   2.619   3.698 -2.6327  0.5204  2.2344
  126OSM   C15S13398   4.270   2.418   3.710 -0.1241 -0.1417 -0.0532
  126OSM   H15S13399   4.377   2.396   3.728 -0.3116 -0.5673  0.5971
  126OSM   H15T13400   4.224   2.338   3.648  1.3609 -0.6488 -0.5344
  126OSM   C16S13401   4.177   2.427   3.840  0.2516  0.9423 -0.5618
  126OSM   H16S13402   4.168   2.324   3.881  3.9812  0.5881 -0.3267
  126OSM   H16T13403   4.075   2.455   3.805 -0.2065 -0.5340 -0.4679
  126OSM   C17S13404   4.222   2.529   3.939 -0.0525  0.1537  0.2998
  126OSM   H17S13405   4.240   2.624   3.884 -0.9382  0.3006  0.2496
  126OSM   H17T13406   4.317   2.499   3.987  0.4846  0.6668 -0.4266
  126OSM   C18S13407   4.117   2.557   4.052 -0.2362  0.3290  0.8842
  126OSM   H18S13408   4.131   2.656   4.099  0.4451  1.1844 -1.0153
  126OSM   H18T13409   4.127   2.482   4.134 -0.1399 -0.6003  0.0414
  126OSM   H18U13410   4.018   2.555   4.002  0.4919  0.3749 -0.6181
  126OSM    C1F13411   4.828   1.823   2.547  0.3968  0.6602 -0.6195
  126OSM     OF13412   4.945   1.825   2.517  0.5220 -0.2152  0.1508
  126OSM    C2F13413   4.754   1.702   2.598 -0.0289 -0.3380 -0.2253
  126OSM    H2F13414   4.698   1.661   2.511 -0.9469  0.8870 -0.2352
  126OSM    H2G13415   4.678   1.738   2.670  0.2349 -2.4926  1.2073
  126OSM    C3F13416   4.849   1.597   2.656 -0.9492 -0.2379  0.6070
  126OSM    H3F13417   4.929   1.572   2.582 -2.2947 -0.3652 -0.8690
  126OSM    H3G13418   4.805   1.495   2.657  1.5516 -1.4302 -0.4585
  126OSM    C4F13419   4.914   1.642   2.787 -0.1690  0.2643 -0.0948
  126OSM    H4F13420   4.968   1.737   2.764  0.5152 -0.5477 -2.0608
  126OSM    H4G13421   4.993   1.566   2.806  0.2333  1.0970  1.8028
  126OSM    C5F13422   4.813   1.665   2.909  0.6357  1.1032 -0.0903
  126OSM    H5F13423   4.766   1.566   2.929 -1.3123  0.8562 -4.6624
  126OSM    H5G13424   4.738   1.736   2.867 -0.2082 -0.5509 -1.4869
  126OSM    C6F13425   4.880   1.729   3.025 -0.0435 -0.0884 -0.1151
  126OSM    H6F13426   4.931   1.821   2.990 -1.1903  0.2151 -1.0303
  126OSM    H6G13427   4.962   1.661   3.059  0.8826  1.1418  0.1993
  126OSM    C7F13428   4.788   1.744   3.148  0.8112  0.2414 -0.1447
  126OSM    H7F13429   4.719   1.657   3.152 -1.9319  2.2727 -0.7389
  126OSM    H7G13430   4.718   1.826   3.119  0.2398  0.3028  1.3559
  126OSM    C8F13431   4.852   1.774   3.284 -0.4995  0.1928 -0.0111
  126OSM    H8F13432   4.769   1.806   3.352 -0.7063  0.9413 -0.6069
  126OSM    H8G13433   4.931   1.851   3.273  2.9195 -3.0007  0.3775
  126OSM    C9F13434   4.924   1.649   3.344  0.9671 -0.1973  0.7127
  126OSM    H9F13435   5.013   1.617   3.288  0.4196 -2.0669  0.8447
  126OSM   C10F13436   4.895   1.569   3.454 -0.0959 -0.6263 -0.8410
  126OSM   H10F13437   4.956   1.481   3.477 -3.1208 -1.9728  3.1264
  126OSM   C11F13438   4.779   1.599   3.549 -0.1699  0.0207 -0.1759
  126OSM   H11F13439   4.748   1.502   3.593  1.8756 -0.3710  0.4788
  126OSM   H11G13440   4.696   1.632   3.483  1.7845 -0.1752 -2.9199
  126OSM   C12F13441   4.798   1.711   3.659 -0.2242  0.2601 -0.2193
  126OSM   H12F13442   4.703   1.736   3.713  1.0284  1.2979  1.6207
  126OSM   H12G13443   4.843   1.802   3.614 -1.1316  0.5490 -0.5657
  126OSM   C13F13444   4.898   1.668   3.773  0.7052 -0.0827 -0.1967
  126OSM   H13F13445   4.996   1.654   3.722 -0.2194  1.0616 -2.3854
  126OSM   H13G13446   4.867   1.571   3.817 -1.3910 -0.1558 -1.7213
  126OSM   C14F13447   4.908   1.766   3.896 -0.3793  0.2512  0.6707
  126OSM   H14F13448   4.944   1.866   3.864  0.3582  0.6260  2.5267
  126OSM   H14G13449   4.989   1.725   3.960 -0.3493  2.9239  2.5095
  126OSM   C15F13450   4.777   1.774   3.980  0.3933  0.1933  0.3373
  126OSM   H15F13451   4.737   1.670   3.986  1.9458 -0.5237 -0.9096
  126OSM   H15G13452   4.702   1.834   3.926  0.8412  0.5034  0.0548
  126OSM   C16F13453   4.799   1.838   4.117  0.0401 -0.0243  0.2852
  126OSM   H16F13454   4.885   1.791   4.168  1.5294  0.1595 -1.9366
  126OSM   H16G13455   4.709   1.820   4.181  1.2775  0.4596  2.2388
  126OSM   C17F13456   4.836   1.990   4.111 -0.7035 -0.1675  0.0893
  126OSM   H17F13457   4.761   2.048   4.054  0.1020  0.6817 -0.1450
  126OSM   H17G13458   4.938   1.990   4.066  1.1428  1.2798  3.7955
  126OSM   C18F13459   4.842   2.051   4.252  0.1248 -0.1258  0.7579
  126OSM   H18F13460   4.913   2.135   4.267 -0.2316  0.4678 -0.6413
  126OSM   H18G13461   4.877   1.970   4.319  1.1681  1.6321  2.4375
  126OSM   H18H13462   4.733   2.067   4.265 -0.0671 -1.0731  0.4063
  127OSM      N13463   3.216   3.291   1.435 -0.0127  0.2177  0.4610
  127OSM    C1513464   3.078   3.355   1.460  0.3413 -0.1641  1.1618
  127OSM   H15A13465   2.999   3.309   1.403  1.3229  0.7551 -1.0822
  127OSM   H15B13466   3.079   3.462   1.448 -1.0301  0.3380  4.6072
  127OSM   H15C13467   3.049   3.336   1.562 -1.2822 -1.1111  0.5563
  127OSM    C1413468   3.230   3.287   1.284 -0.4396 -0.6562 -0.0155
  127OSM   H14A13469   3.148   3.241   1.230  2.0642 -1.9751 -2.9642
  127OSM   H14B13470   3.308   3.219   1.254 -0.0786 -0.5857  0.7311
  127OSM   H14C13471   3.245   3.387   1.245 -1.5487 -0.9548 -1.2951
  127OSM    C1313472   3.328   3.369   1.503 -0.2000  0.4924  0.3096
  127OSM   H13A13473   3.426   3.322   1.500 -0.7062 -0.6635  1.1292
  127OSM   H13B13474   3.301   3.369   1.607 -1.9096 -1.8433 -0.0483
  127OSM   H13C13475   3.330   3.473   1.472 -0.8427  0.1188 -1.0597
  127OSM    C1213476   3.211   3.152   1.489 -0.2689 -0.2087  0.2359
  127OSM   H12A13477   3.287   3.096   1.437  0.1396  0.9387 -0.4253
  127OSM   H12B13478   3.127   3.098   1.446 -0.0087  0.3845 -1.0757
  127OSM    C1113479   3.217   3.129   1.645 -0.0831  0.0416 -0.5827
  127OSM   H11A13480   3.317   3.158   1.684  0.0892  0.8921 -1.6176
  127OSM   H11B13481   3.198   3.022   1.668  1.9278  0.2023  2.3096
  127OSM      P13482   3.071   3.192   1.858  0.3664 -0.2343 -0.0757
  127OSM    O1313483   2.923   3.165   1.871 -0.0515 -0.0449  0.5938
  127OSM    O1413484   3.146   3.078   1.912  0.2349  0.1539  0.5101
  127OSM    O1113485   3.106   3.330   1.932 -0.2904  0.1257  0.3949
  127OSM    O1213486   3.118   3.213   1.710  0.1535 -0.2808 -0.0202
  127OSM    C1S13487   3.238   3.363   1.977 -0.7094 -0.0538 -0.7222
  127OSM    H1S13488   3.281   3.437   1.906  0.2447 -0.0754 -0.1734
  127OSM    H1T13489   3.307   3.276   1.978 -0.4025  0.1910 -0.3864
  127OSM     NF13490   3.371   3.481   2.167  0.0473  0.3926 -0.0285
  127OSM    HNF13491   3.424   3.428   2.233 -0.9621 -1.0090 -0.2987
  127OSM    C2S13492   3.242   3.423   2.127 -0.0645 -0.8833 -0.7723
  127OSM    H2S13493   3.167   3.505   2.138  1.1712  0.1172  0.4327
  127OSM    C3S13494   3.183   3.322   2.220 -0.4132 -0.3002 -1.0343
  127OSM    H3S13495   3.229   3.225   2.191 -0.0207  0.0680 -1.6566
  127OSM     O313496   3.052   3.293   2.184  0.8986  0.1443  0.3511
  127OSM    HO313497   3.035   3.338   2.101 -0.6127  2.7156  1.9252
  127OSM    C4S13498   3.184   3.338   2.368 -0.1161 -0.0189 -0.2268
  127OSM    H4S13499   3.087   3.379   2.402  0.3455  2.3445 -1.5675
  127OSM    C5S13500   3.268   3.280   2.456 -0.0757  0.0486 -0.4212
  127OSM    H5S13501   3.336   3.199   2.424 -0.5588 -0.3105 -0.5505
  127OSM    C6S13502   3.258   3.264   2.606 -0.1465  0.0051 -0.3010
  127OSM    H6S13503   3.173   3.324   2.645 -0.4139 -0.8279  0.4116
  127OSM    H6T13504   3.348   3.305   2.656  0.3737 -0.9952 -0.4007
  127OSM    C7S13505   3.231   3.114   2.636 -0.5088 -0.4341  0.5199
  127OSM    H7S13506   3.323   3.061   2.603  1.2792  2.7707 -0.0391
  127OSM    H7T13507   3.143   3.076   2.579 -0.5551 -1.6584  1.3681
  127OSM    C8S13508   3.230   3.086   2.785  0.1709  0.6495  0.0027
  127OSM    H8S13509   3.169   3.168   2.830 -3.9844 -2.0547 -0.1130
  127OSM    H8T13510   3.337   3.095   2.812  0.0234 -2.0419  1.9318
  127OSM    C9S13511   3.185   2.947   2.826  0.2368  0.8362 -0.1520
  127OSM    H9S13512   3.217   2.880   2.744 -0.3365 -0.8586  0.9457
  127OSM    H9T13513   3.074   2.953   2.835  0.4197  3.7169  1.4058
  127OSM   C10S13514   3.241   2.905   2.961 -0.4977 -0.4322 -0.6860
  127OSM   H10S13515   3.350   2.911   2.942 -0.4216  0.1635 -0.0947
  127OSM   H10T13516   3.210   2.806   2.999 -0.2347  0.3918  1.8875
  127OSM   C11S13517   3.205   3.005   3.069 -0.6028 -0.0957  0.2034
  127OSM   H11S13518   3.101   3.039   3.051 -0.1703  1.8684  1.1571
  127OSM   H11T13519   3.276   3.090   3.068 -0.3511 -0.2853  1.0353
  127OSM   C12S13520   3.210   2.953   3.212 -0.0155 -0.3996  0.9633
  127OSM   H12S13521   3.314   2.918   3.232  0.7988  1.0115 -0.6126
  127OSM   H12T13522   3.135   2.873   3.232 -0.0045 -0.1432  2.1015
  127OSM   C13S13523   3.193   3.066   3.322 -0.3992  0.1402 -0.1931
  127OSM   H13S13524   3.114   3.141   3.301 -0.1565  0.2134 -0.8593
  127OSM   H13T13525   3.293   3.113   3.328 -0.5725  0.3956  0.9834
  127OSM   C14S13526   3.161   3.011   3.464 -0.7837  0.1224  0.4068
  127OSM   H14S13527   3.231   2.925   3.476  0.6038  1.0932 -0.4802
  127OSM   H14T13528   3.057   2.970   3.467 -0.3202 -1.1092  0.1507
  127OSM   C15S13529   3.191   3.111   3.571 -0.4688  0.4076 -0.3729
  127OSM   H15S13530   3.148   3.213   3.559  1.1827  1.1084 -0.6838
  127OSM   H15T13531   3.300   3.133   3.577 -0.1406 -0.5563 -2.0753
  127OSM   C16S13532   3.132   3.071   3.706  0.6619 -0.1307 -0.5747
  127OSM   H16S13533   3.143   2.961   3.698 -0.5309 -0.4264  1.2293
  127OSM   H16T13534   3.026   3.096   3.727  0.2555 -3.9974  3.4298
  127OSM   C17S13535   3.211   3.139   3.822  0.3694 -0.2440  0.3468
  127OSM   H17S13536   3.299   3.199   3.790  1.6155 -2.3918 -0.4778
  127OSM   H17T13537   3.255   3.052   3.876 -1.4134 -1.0176  0.6307
  127OSM   C18S13538   3.119   3.220   3.912 -0.7963 -0.1751 -0.0281
  127OSM   H18S13539   3.040   3.159   3.959 -0.3121 -0.5107  0.3620
  127OSM   H18T13540   3.072   3.297   3.847  1.7713  1.1573 -0.4533
  127OSM   H18U13541   3.185   3.259   3.993  0.3169 -1.0670 -0.4839
  127OSM    C1F13542   3.435   3.583   2.101 -0.1394  0.2489  0.6682
  127OSM     OF13543   3.388   3.649   2.008  0.6388  0.1708 -0.2340
  127OSM    C2F13544   3.571   3.625   2.158 -0.2122  0.1020 -0.5801
  127OSM    H2F13545   3.652   3.579   2.096 -1.3147 -0.5396 -1.5958
  127OSM    H2G13546   3.571   3.594   2.265 -2.7760 -1.1428 -0.8530
  127OSM    C3F13547   3.584   3.784   2.141 -0.2573  0.0336  0.1387
  127OSM    H3F13548   3.554   3.817   2.039  0.3714  1.0281  0.2597
  127OSM    H3G13549   3.692   3.802   2.157  0.1724 -2.2053  0.0458
  127OSM    C4F13550   3.509   3.877   2.236  0.3441  0.5215 -0.0815
  127OSM    H4F13551   3.403   3.847   2.225  0.3516  1.1764 -2.3763
  127OSM    H4G13552   3.524   3.979   2.196  0.7218  0.4520 -0.1215
  127OSM    C5F13553   3.557   3.881   2.380 -0.5602 -0.0554 -0.1543
  127OSM    H5F13554   3.546   3.987   2.411 -1.3779 -0.2749  0.3268
  127OSM    H5G13555   3.666   3.859   2.388 -0.9609 -2.0558  0.3431
  127OSM    C6F13556   3.475   3.785   2.475 -0.8438 -0.0447  0.4017
  127OSM    H6F13557   3.478   3.681   2.435  0.9697  0.1423 -0.0222
  127OSM    H6G13558   3.374   3.831   2.472 -0.5164  0.7024 -3.4487
  127OSM    C7F13559   3.538   3.773   2.616  0.0588 -0.4786 -0.3298
  127OSM    H7F13560   3.560   3.877   2.649 -1.9314 -0.8673  2.6013
  127OSM    H7G13561   3.635   3.720   2.616  0.0146 -0.5678  0.4768
  127OSM    C8F13562   3.451   3.689   2.711  0.0094  0.9046  0.4184
  127OSM    H8F13563   3.422   3.588   2.675 -1.8888  1.9309 -1.1399
  127OSM    H8G13564   3.352   3.738   2.721 -1.1374 -1.0531 -0.8129
  127OSM    C9F13565   3.504   3.687   2.849 -0.2492  0.1374 -0.8257
  127OSM    H9F13566   3.550   3.781   2.884 -1.1250  0.3783 -0.2879
  127OSM   C10F13567   3.508   3.588   2.946  0.8939  0.3984  0.3133
  127OSM   H10F13568   3.549   3.608   3.046 -0.0383 -0.8019  0.9539
  127OSM   C11F13569   3.458   3.449   2.918  0.2091  0.6902 -0.0534
  127OSM   H11F13570   3.535   3.371   2.930 -1.4104 -0.8214  1.0234
  127OSM   H11G13571   3.424   3.425   2.815 -2.8914  0.0314  1.0116
  127OSM   C12F13572   3.342   3.409   3.011 -0.3631  0.1016 -0.1975
  127OSM   H12F13573   3.310   3.307   2.981 -0.5333 -0.2659  1.1797
  127OSM   H12G13574   3.265   3.482   2.977  1.0156  1.4828 -0.5183
  127OSM   C13F13575   3.365   3.412   3.167 -0.1593  0.1807 -0.1865
  127OSM   H13F13576   3.297   3.340   3.217  0.3027 -0.8232 -0.9586
  127OSM   H13G13577   3.330   3.511   3.201  1.7697  1.1697 -0.9238
  127OSM   C14F13578   3.508   3.388   3.221 -0.0408  0.2420  0.4656
  127OSM   H14F13579   3.591   3.449   3.182  0.6758 -0.8481  0.2476
  127OSM   H14G13580   3.526   3.286   3.181 -1.2182  0.5731 -1.0005
  127OSM   C15F13581   3.520   3.380   3.366  0.1611 -0.1532  0.3186
  127OSM   H15F13582   3.609   3.320   3.394  0.6419 -0.5963 -1.9427
  127OSM   H15G13583   3.433   3.325   3.408 -0.4898  1.2364  0.8561
  127OSM   C16F13584   3.536   3.515   3.433  0.5081 -0.8173  0.8105
  127OSM   H16F13585   3.462   3.581   3.383  0.9529  1.0521  2.5070
  127OSM   H16G13586   3.638   3.555   3.416  0.2801  0.4020  2.1534
  127OSM   C17F13587   3.498   3.533   3.584  0.6748 -0.2056  0.4954
  127OSM   H17F13588   3.512   3.642   3.595  4.7504 -0.5005 -0.3957
  127OSM   H17G13589   3.557   3.485   3.665  1.9525 -0.5016 -0.5750
  127OSM   C18F13590   3.353   3.496   3.614 -0.2871  0.3165  0.7918
  127OSM   H18F13591   3.331   3.524   3.719  1.9080  0.6347  1.2135
  127OSM   H18G13592   3.339   3.387   3.602 -0.4961  0.3164  1.0359
  127OSM   H18H13593   3.279   3.540   3.542  0.3391  0.5892  0.3037
  128OSM      N13594   4.478   2.254   2.035  0.1048  0.3819 -0.0042
  128OSM    C1513595   4.553   2.294   2.156 -0.1981 -0.0113 -0.1991
  128OSM   H15A13596   4.493   2.371   2.203  1.2055 -0.0216  1.7385
  128OSM   H15B13597   4.650   2.336   2.134 -0.1288 -0.8293 -1.5112
  128OSM   H15C13598   4.585   2.212   2.219 -1.0533 -1.2180 -1.2849
  128OSM    C1413599   4.413   2.371   1.959 -0.4247 -0.6658 -0.4964
  128OSM   H14A13600   4.395   2.347   1.856  0.0488  0.2007 -0.7895
  128OSM   H14B13601   4.468   2.464   1.961 -2.0704  0.3740 -1.6127
  128OSM   H14C13602   4.314   2.389   1.999  0.0939  2.2949 -0.3030
  128OSM    C1313603   4.576   2.202   1.938 -0.5349  0.5890 -1.1928
  128OSM   H13A13604   4.523   2.160   1.854 -0.5148 -0.5146 -0.6584
  128OSM   H13B13605   4.636   2.127   1.986 -0.8623  0.4321 -1.0293
  128OSM   H13C13606   4.648   2.280   1.915  0.0177  1.0751  1.7977
  128OSM    C1213607   4.373   2.144   2.064 -0.0704 -0.1175 -0.9029
  128OSM   H12A13608   4.333   2.098   1.975 -0.7588 -1.6808  0.1571
  128OSM   H12B13609   4.287   2.197   2.101 -0.8350 -0.6208 -1.9049
  128OSM    C1113610   4.409   2.035   2.162  0.0243 -0.1758 -1.0294
  128OSM   H11A13611   4.439   2.083   2.258 -4.8309  0.1357  0.6313
  128OSM   H11B13612   4.486   1.963   2.126 -1.1196 -0.8966 -2.1050
  128OSM      P13613   4.272   1.826   2.246 -0.0576  0.0960  0.2530
  128OSM    O1313614   4.136   1.778   2.221  0.1363  0.1998  0.7115
  128OSM    O1413615   4.388   1.748   2.193 -0.2485  0.3760 -0.0375
  128OSM    O1113616   4.286   1.847   2.403 -0.4419 -0.2147  0.2921
  128OSM    O1213617   4.284   1.966   2.176 -0.2127 -0.4831  0.1096
  128OSM    C1S13618   4.196   1.929   2.468 -0.0328  0.4121  0.5903
  128OSM    H1S13619   4.098   1.881   2.447  1.1493 -1.1025 -1.8869
  128OSM    H1T13620   4.204   2.035   2.434  2.2326  0.6476  1.6755
  128OSM     NF13621   4.100   1.997   2.682 -0.1393  0.1194  0.0979
  128OSM    HNF13622   4.102   2.096   2.678 -1.4308  0.1577 -0.1209
  128OSM    C2S13623   4.214   1.942   2.622 -0.0458 -0.1849  0.2000
  128OSM    H2S13624   4.220   1.836   2.656 -2.8810 -0.8619 -1.0249
  128OSM    C3S13625   4.343   2.023   2.650  0.8013  0.6938  0.0967
  128OSM    H3S13626   4.342   2.124   2.602  0.6637 -0.2385 -1.9672
  128OSM     O313627   4.455   1.957   2.588  0.3040 -0.3747 -0.0190
  128OSM    HO313628   4.419   1.905   2.515  0.0703 -1.7555  1.0291
  128OSM    C4S13629   4.353   2.040   2.803 -0.5586 -0.4919 -0.4517
  128OSM    H4S13630   4.293   2.112   2.859  1.3970 -1.0289  2.5793
  128OSM    C5S13631   4.437   1.968   2.882  0.0055  0.4643 -0.1558
  128OSM    H5S13632   4.493   1.883   2.841 -0.1737  0.6039 -0.7016
  128OSM    C6S13633   4.457   1.982   3.033 -0.1324  0.6001  0.2774
  128OSM    H6S13634   4.514   2.072   3.065  0.7564  0.8162 -1.7619
  128OSM    H6T13635   4.525   1.899   3.062 -1.7252  0.0100  2.6751
  128OSM    C7S13636   4.319   1.985   3.106  0.1041 -0.0777 -0.3565
  128OSM    H7S13637   4.261   1.899   3.065 -0.5032  0.1364  0.0320
  128OSM    H7T13638   4.262   2.077   3.078 -0.2262 -0.5987 -1.4928
  128OSM    C8S13639   4.327   1.970   3.257 -0.2416  0.3297 -0.0286
  128OSM    H8S13640   4.386   2.056   3.296 -1.0067  0.9876 -0.2954
  128OSM    H8T13641   4.380   1.875   3.276 -0.8803 -0.2274 -0.9946
  128OSM    C9S13642   4.195   1.976   3.331  0.3535 -0.2257 -0.4261
  128OSM    H9S13643   4.149   1.876   3.324 -0.8443  0.3962 -1.9272
  128OSM    H9T13644   4.136   2.062   3.292  3.2019  1.2336 -1.8222
  128OSM   C10S13645   4.204   2.006   3.481 -0.2061 -0.1413  0.1290
  128OSM   H10S13646   4.232   2.112   3.494  1.2849 -0.5687  0.6346
  128OSM   H10T13647   4.284   1.945   3.530  0.9778  0.1788 -1.3235
  128OSM   C11S13648   4.074   1.967   3.555  0.3806  0.3086  0.1425
  128OSM   H11S13649   4.028   1.878   3.507  0.9770  1.0476 -1.8912
  128OSM   H11T13650   4.014   2.056   3.524  1.1442  0.5842 -0.5824
  128OSM   C12S13651   4.083   1.970   3.704  0.0054 -0.2193 -0.0503
  128OSM   H12S13652   4.132   2.067   3.727  1.0510  0.0438 -2.8991
  128OSM   H12T13653   4.148   1.885   3.732  3.1940  1.2718 -2.2331
  128OSM   C13S13654   3.951   1.949   3.769  0.5826 -0.2778 -0.3723
  128OSM   H13S13655   3.918   1.843   3.757  1.5119 -0.4919 -1.1497
  128OSM   H13T13656   3.882   2.014   3.710  1.1631  0.4969 -0.2072
  128OSM   C14S13657   3.956   1.985   3.916 -0.9325 -0.2323 -0.1326
  128OSM   H14S13658   4.020   2.076   3.922  0.9501 -1.5124  0.3393
  128OSM   H14T13659   3.993   1.904   3.983 -0.2130  0.3148  0.1386
  128OSM   C15S13660   3.823   2.037   3.976  0.1295  0.4243 -0.8375
  128OSM   H15S13661   3.739   1.977   3.936 -0.0797  0.6990 -0.8105
  128OSM   H15T13662   3.806   2.143   3.948 -0.1498  1.8789  4.0026
  128OSM   C16S13663   3.837   2.028   4.129 -0.7637  0.5433  0.2076
  128OSM   H16S13664   3.872   1.925   4.151 -1.4897  0.5720  1.5494
  128OSM   H16T13665   3.739   2.046   4.177 -0.1792 -0.4639  1.8565
  128OSM   C17S13666   3.941   2.128   4.193 -0.5581  0.0083  0.1448
  128OSM   H17S13667   4.032   2.137   4.130  0.5480 -0.0413  1.7091
  128OSM   H17T13668   3.970   2.067   4.281  1.3151  1.1450  0.3644
  128OSM   C18S13669   3.879   2.261   4.236  0.5783 -0.6461  0.1192
  128OSM   H18S13670   3.799   2.237   4.308 -0.2796  2.3016  0.2770
  128OSM   H18T13671   3.836   2.312   4.147  1.0075 -1.3814 -0.5276
  128OSM   H18U13672   3.956   2.326   4.282  0.2369  0.1050 -0.3528
  128OSM    C1F13673   3.987   1.926   2.686  0.0170  0.0542  0.2919
  128OSM     OF13674   3.974   1.814   2.635 -0.0420 -0.0071 -0.0116
  128OSM    C2F13675   3.870   1.989   2.763  0.0274 -0.2013  0.7185
  128OSM    H2F13676   3.782   1.930   2.732  0.5566 -0.3738 -0.5114
  128OSM    H2G13677   3.856   2.096   2.734 -2.7055 -0.6631  0.1236
  128OSM    C3F13678   3.895   1.981   2.910 -0.5787 -0.6648 -0.3580
  128OSM    H3F13679   3.973   2.055   2.938 -1.3536  0.0894 -0.1771
  128OSM    H3G13680   3.929   1.879   2.940  0.2638 -0.6593 -1.2355
  128OSM    C4F13681   3.779   2.032   2.988  0.0984  0.1810 -0.6545
  128OSM    H4F13682   3.688   1.968   2.977 -0.3848  1.0318 -1.7922
  128OSM    H4G13683   3.756   2.134   2.952 -1.0845  0.5745  1.0853
  128OSM    C5F13684   3.810   2.049   3.142  0.6074 -0.0666 -0.5912
  128OSM    H5F13685   3.897   2.110   3.174  0.4301 -1.4004  2.8944
  128OSM    H5G13686   3.831   1.950   3.188  1.5971  0.7583  0.8133
  128OSM    C6F13687   3.686   2.100   3.208  0.0519 -0.0810  0.5293
  128OSM    H6F13688   3.599   2.031   3.201 -1.9712  2.1058  2.1878
  128OSM    H6G13689   3.672   2.194   3.150 -0.2063  0.6307  1.7022
  128OSM    C7F13690   3.707   2.160   3.350 -0.2274 -0.3046 -0.0164
  128OSM    H7F13691   3.611   2.204   3.384 -0.0959 -1.2424  1.7232
  128OSM    H7G13692   3.793   2.230   3.342  0.5896 -1.4272 -1.5882
  128OSM    C8F13693   3.735   2.043   3.453 -0.1966 -0.2850  0.2366
  128OSM    H8F13694   3.769   2.096   3.545  0.8635  2.9705 -1.8374
  128OSM    H8G13695   3.824   1.986   3.419  0.9422 -0.6081  3.4603
  128OSM    C9F13696   3.618   1.956   3.492  0.2868 -0.4081  0.6994
  128OSM    H9F13697   3.610   1.872   3.420  1.6144  1.9236 -2.3805
  128OSM   C10F13698   3.526   1.989   3.581  0.4839 -0.2377  0.1900
  128OSM   H10F13699   3.433   1.930   3.588  0.3762  0.1340  2.9195
  128OSM   C11F13700   3.520   2.111   3.673 -0.0710 -0.0365 -0.2597
  128OSM   H11F13701   3.463   2.188   3.617 -1.3547 -1.1760 -0.5802
  128OSM   H11G13702   3.619   2.155   3.694 -0.4402  0.2551  0.9752
  128OSM   C12F13703   3.459   2.092   3.806  0.8640 -0.4790 -0.6658
  128OSM   H12F13704   3.464   2.189   3.859 -1.7488 -0.8126  0.3563
  128OSM   H12G13705   3.512   2.016   3.868  0.3141  0.2555  0.7577
  128OSM   C13F13706   3.320   2.037   3.809  0.2075 -0.8974  0.0982
  128OSM   H13F13707   3.323   1.928   3.785  1.1665 -1.0003  0.6580
  128OSM   H13G13708   3.271   2.080   3.719  0.0202 -1.8557 -0.2702
  128OSM   C14F13709   3.238   2.078   3.932 -0.7564  0.8301 -0.4458
  128OSM   H14F13710   3.227   2.189   3.930 -1.1923  0.8281  0.9317
  128OSM   H14G13711   3.300   2.052   4.020  0.5798  1.4290 -1.1922
  128OSM   C15F13712   3.092   2.018   3.945  0.0944  1.2799 -0.3258
  128OSM   H15F13713   3.042   2.042   3.849  0.6686 -0.7712 -1.1961
  128OSM   H15G13714   3.039   2.055   4.036  2.6283 -1.7326  2.6396
  128OSM   C16F13715   3.095   1.863   3.955 -0.0685  0.3116 -0.0250
  128OSM   H16F13716   3.134   1.830   4.054 -2.3390 -0.4198  0.7038
  128OSM   H16G13717   3.156   1.812   3.877  0.2428 -0.7010  0.8513
  128OSM   C17F13718   2.959   1.795   3.950  0.5657  0.2923  0.4994
  128OSM   H17F13719   2.910   1.819   4.046  0.5875 -0.1306  0.6188
  128OSM   H17G13720   2.977   1.686   3.947 -1.8734 -0.1866  1.3084
  128OSM   C18F13721   2.871   1.829   3.824 -0.1134 -0.1006  0.4667
  128OSM   H18F13722   2.930   1.810   3.732 -1.8973  3.4595 -1.6353
  128OSM   H18G13723   2.854   1.939   3.830 -0.6164 -0.0165 -1.6991
  128OSM   H18H13724   2.776   1.771   3.826  1.6391 -3.1613  0.5822
  129OSM      N13725   6.808   0.057   2.113 -0.2443  0.3630  0.3383
  129OSM    C1513726   6.738   0.029   2.243 -0.3284  0.2561 -0.4134
  129OSM   H15A13727   6.702  -0.073   2.248  0.1455  0.1267  0.6761
  129OSM   H15B13728   6.648   0.086   2.260 -0.3969  0.9714 -2.8298
  129OSM   H15C13729   6.800   0.050   2.328  1.6536  1.5973 -2.0965
  129OSM    C1413730   6.929  -0.024   2.091 -0.3733  0.2594 -0.2052
  129OSM   H14A13731   6.984   0.003   2.002  0.4840  1.0694  0.5340
  129OSM   H14B13732   6.914  -0.131   2.089 -2.0572  0.3628  2.1499
  129OSM   H14C13733   6.999  -0.007   2.172 -0.7001  0.7224 -0.0197
  129OSM    C1313734   6.705   0.018   2.007  0.0972  0.5792  0.2713
  129OSM   H13A13735   6.734   0.017   1.903 -1.8791 -1.0628 -0.3333
  129OSM   H13B13736   6.629   0.094   2.005 -0.7218 -0.2057 -2.2353
  129OSM   H13C13737   6.653  -0.077   2.016  0.1766 -0.2042 -4.6755
  129OSM    C1213738   6.854   0.206   2.096  0.4528  0.4330 -0.3533
  129OSM   H12A13739   6.887   0.220   1.994  0.1375  0.2864 -0.4762
  129OSM   H12B13740   6.942   0.232   2.153  1.2238 -2.0444 -0.3292
  129OSM    C1113741   6.749   0.312   2.135  0.6094 -0.1393  0.8614
  129OSM   H11A13742   6.809   0.404   2.119  1.5205 -1.0042 -0.9390
  129OSM   H11B13743   6.727   0.310   2.244 -0.0407  2.4798  0.8266
  129OSM      P13744   6.592   0.432   1.970 -0.0669  0.1830 -0.0355
  129OSM    O1313745   6.691   0.442   1.856  0.1349  0.3727 -0.1196
  129OSM    O1413746   6.446   0.419   1.933  0.5464  0.6402 -0.4981
  129OSM    O1113747   6.609   0.562   2.054  0.3196 -0.3157  0.0359
  129OSM    O1213748   6.629   0.310   2.063 -0.5700 -0.2550 -0.0347
  129OSM    C1S13749   6.513   0.601   2.152 -0.6466  0.0973 -0.5260
  129OSM    H1S13750   6.491   0.507   2.207  1.8180 -0.5174 -0.4787
  129OSM    H1T13751   6.421   0.628   2.095 -0.5798  0.1829 -0.5944
  129OSM     NF13752   6.490   0.718   2.359  0.5764  1.1507 -0.5571
  129OSM    HNF13753   6.420   0.787   2.341  0.4494  0.7717 -1.5473
  129OSM    C2S13754   6.574   0.706   2.241  0.0624  0.1416 -0.6608
  129OSM    H2S13755   6.673   0.671   2.276  0.0148  0.5547 -0.1110
  129OSM    C3S13756   6.603   0.842   2.165 -0.2303  0.1922  0.5255
  129OSM    H3S13757   6.511   0.874   2.111 -0.1070  0.5790  0.5430
  129OSM     O313758   6.704   0.829   2.069 -0.1148  0.4009  0.2971
  129OSM    HO313759   6.715   0.736   2.052  1.2139  0.8835 -1.7749
  129OSM    C4S13760   6.648   0.951   2.259 -0.0667  0.2270  0.8752
  129OSM    H4S13761   6.704   0.913   2.346  0.6618  0.3084  0.4473
  129OSM    C5S13762   6.597   1.077   2.260 -0.1902  0.5680  0.8124
  129OSM    H5S13763   6.519   1.099   2.185 -0.7609 -0.2875  1.1383
  129OSM    C6S13764   6.619   1.195   2.352 -0.7630 -0.2645  0.0035
  129OSM    H6S13765   6.523   1.242   2.383 -1.4048 -2.3432  1.3978
  129OSM    H6T13766   6.699   1.261   2.312 -1.0955  0.0827 -0.0881
  129OSM    C7S13767   6.678   1.139   2.483  0.5988 -0.3097 -0.2501
  129OSM    H7S13768   6.782   1.101   2.473  2.0551  3.2338  0.0139
  129OSM    H7T13769   6.605   1.065   2.523 -0.2579  1.0277  0.7607
  129OSM    C8S13770   6.691   1.248   2.590  0.2349  0.1969 -1.0713
  129OSM    H8S13771   6.605   1.317   2.600 -0.5502 -1.1357  3.5331
  129OSM    H8T13772   6.780   1.309   2.563  0.3051  0.9818  0.8108
  129OSM    C9S13773   6.698   1.191   2.737 -0.3072 -0.2941  0.2607
  129OSM    H9S13774   6.787   1.126   2.752  0.2217  0.0612 -1.1544
  129OSM    H9T13775   6.606   1.131   2.755 -0.4221 -0.1713  0.0842
  129OSM   C10S13776   6.695   1.301   2.837  0.4285  0.0896 -0.2656
  129OSM   H10S13777   6.598   1.355   2.829  1.3343  2.0023  0.8995
  129OSM   H10T13778   6.773   1.377   2.816 -1.3488  2.4576  1.1487
  129OSM   C11S13779   6.711   1.251   2.986  0.0908 -0.3256 -1.1494
  129OSM   H11S13780   6.819   1.225   2.992  0.3319  0.1051 -2.9794
  129OSM   H11T13781   6.656   1.156   3.005 -1.9390  1.1817  1.3178
  129OSM   C12S13782   6.681   1.355   3.093 -0.2670  0.1063 -0.5328
  129OSM   H12S13783   6.575   1.387   3.087 -0.7781 -1.2516  0.6628
  129OSM   H12T13784   6.748   1.443   3.086 -1.3411  0.9640 -0.2957
  129OSM   C13S13785   6.720   1.307   3.230 -0.0890 -0.7121 -0.3096
  129OSM   H13S13786   6.827   1.275   3.228  0.8625  1.9482  1.6033
  129OSM   H13T13787   6.643   1.231   3.254  0.0183 -0.8779 -0.4807
  129OSM   C14S13788   6.704   1.419   3.339  0.4997  0.5365  0.5529
  129OSM   H14S13789   6.594   1.432   3.340  0.5437  1.5125 -1.7457
  129OSM   H14T13790   6.751   1.517   3.316  1.6490  1.1333  4.5366
  129OSM   C15S13791   6.747   1.360   3.470  0.5171  0.0366  0.2159
  129OSM   H15S13792   6.856   1.345   3.485  0.2620 -0.7560  1.3857
  129OSM   H15T13793   6.701   1.259   3.473 -2.4652  1.2496 -0.7338
  129OSM   C16S13794   6.684   1.428   3.597 -0.0484 -0.4768  0.0676
  129OSM   H16S13795   6.587   1.473   3.566 -0.4231 -0.3701  1.3462
  129OSM   H16T13796   6.751   1.516   3.603  0.5705 -0.9696  0.3977
  129OSM   C17S13797   6.668   1.346   3.723 -0.7264 -0.0324 -0.4775
  129OSM   H17S13798   6.749   1.274   3.748  1.0803  2.2561  0.6702
  129OSM   H17T13799   6.579   1.283   3.704 -0.4593 -0.2577 -0.9825
  129OSM   C18S13800   6.653   1.434   3.854  0.3214  0.1617  0.0060
  129OSM   H18S13801   6.748   1.485   3.879  0.6596  0.4196 -1.7301
  129OSM   H18T13802   6.626   1.376   3.945 -0.5203  0.7590  0.1497
  129OSM   H18U13803   6.573   1.510   3.840 -1.3532 -1.2729  1.2793
  129OSM    C1F13804   6.484   0.633   2.467  0.6447 -0.3933 -0.0809
  129OSM     OF13805   6.575   0.551   2.483  0.0973  0.7537 -0.9419
  129OSM    C2F13806   6.369   0.653   2.562 -0.1600  0.1849  0.2646
  129OSM    H2F13807   6.295   0.726   2.524 -0.4871  0.3671  1.2271
  129OSM    H2G13808   6.408   0.684   2.661 -0.6243 -2.3227  1.3270
  129OSM    C3F13809   6.289   0.516   2.576  0.5519  0.1796 -0.2334
  129OSM    H3F13810   6.365   0.450   2.623 -0.5724 -0.1853  1.1349
  129OSM    H3G13811   6.259   0.471   2.478  1.7522  0.8236 -0.9219
  129OSM    C4F13812   6.162   0.535   2.656  0.2303  0.2443  0.4262
  129OSM    H4F13813   6.113   0.435   2.662 -0.8766  0.6278 -1.3233
  129OSM    H4G13814   6.089   0.601   2.603 -0.6732 -2.1138 -1.4869
  129OSM    C5F13815   6.187   0.589   2.792 -0.3957 -0.4000 -0.8138
  129OSM    H5F13816   6.096   0.565   2.851 -0.6414 -2.5938 -1.9820
  129OSM    H5G13817   6.205   0.699   2.796 -3.7863  0.2902 -1.4205
  129OSM    C6F13818   6.308   0.530   2.874 -0.7728  0.2888  0.1592
  129OSM    H6F13819   6.403   0.549   2.820 -0.4076 -2.2443 -0.1880
  129OSM    H6G13820   6.295   0.420   2.874 -0.7100  0.2567  1.8076
  129OSM    C7F13821   6.314   0.606   3.012  0.0388  0.1680 -0.5278
  129OSM    H7F13822   6.342   0.712   2.996  0.9306  0.1878  0.9666
  129OSM    H7G13823   6.408   0.575   3.062 -0.5661 -1.8599 -0.5681
  129OSM    C8F13824   6.190   0.593   3.095  0.2686  0.9813 -0.8416
  129OSM    H8F13825   6.152   0.488   3.097 -0.7013  1.3252 -1.0154
  129OSM    H8G13826   6.114   0.665   3.059  0.3674  0.8031 -1.4297
  129OSM    C9F13827   6.211   0.624   3.243 -0.3539  0.5151  0.1527
  129OSM    H9F13828   6.159   0.716   3.272  0.8395  0.9519  0.9953
  129OSM   C10F13829   6.289   0.559   3.333  0.1243 -0.0976 -0.0882
  129OSM   H10F13830   6.283   0.611   3.430  2.5017  2.1746 -1.0286
  129OSM   C11F13831   6.376   0.437   3.315 -0.2824 -0.2546  0.6124
  129OSM   H11F13832   6.377   0.392   3.214  0.6201 -2.5330  1.5864
  129OSM   H11G13833   6.337   0.354   3.378  1.0498 -2.2771 -1.1225
  129OSM   C12F13834   6.519   0.469   3.364  0.5529 -0.3195 -0.9343
  129OSM   H12F13835   6.569   0.550   3.307  0.9531  0.0615 -0.0555
  129OSM   H12G13836   6.581   0.377   3.371 -0.1325 -0.6520  2.0329
  129OSM   C13F13837   6.528   0.513   3.514  0.5810 -0.5160 -0.1170
  129OSM   H13F13838   6.486   0.429   3.574 -2.0406  0.4021 -0.5391
  129OSM   H13G13839   6.455   0.595   3.534  1.7259  0.5524 -0.2647
  129OSM   C14F13840   6.669   0.523   3.563 -1.1119 -0.2840  0.1994
  129OSM   H14F13841   6.719   0.596   3.496 -0.4422  0.7084  1.7198
  129OSM   H14G13842   6.729   0.431   3.549  0.2376  0.6991 -0.6584
  129OSM   C15F13843   6.685   0.553   3.711 -0.2283 -0.1526  0.6958
  129OSM   H15F13844   6.625   0.646   3.726 -0.2337 -0.1109  0.4071
  129OSM   H15G13845   6.788   0.593   3.723 -0.1872 -0.1815  0.4325
  129OSM   C16F13846   6.665   0.426   3.796 -0.1583  0.2975  0.1686
  129OSM   H16F13847   6.768   0.386   3.790  0.6898  2.4864 -0.5899
  129OSM   H16G13848   6.591   0.350   3.762  0.2858  0.0389 -0.2360
  129OSM   C17F13849   6.627   0.471   3.936  0.6947  0.0781 -0.0691
  129OSM   H17F13850   6.631   0.373   3.988 -0.6051 -1.4589 -2.6491
  129OSM   H17G13851   6.522   0.502   3.917  1.0849  1.9121  0.5334
  129OSM   C18F13852   6.705   0.591   3.994 -0.1551  0.2280  0.0449
  129OSM   H18F13853   6.675   0.611   4.099  1.4626  2.8636  0.0915
  129OSM   H18G13854   6.691   0.691   3.948 -0.6314  0.0281 -0.2579
  129OSM   H18H13855   6.812   0.565   4.001  0.3307  1.8966 -0.6386
  130OSM      N13856   6.561   5.388   2.271 -0.4054 -0.2458 -0.4938
  130OSM    C1513857   6.526   5.339   2.412  0.4868  0.2781  0.2364
  130OSM   H15A13858   6.584   5.379   2.494  0.1939 -0.4355  0.7942
  130OSM   H15B13859   6.545   5.234   2.424  0.6271  0.1406 -0.9937
  130OSM   H15C13860   6.425   5.369   2.433  0.8112  3.5078 -1.9148
  130OSM    C1413861   6.490   5.304   2.170  0.5216 -0.1224 -0.4721
  130OSM   H14A13862   6.518   5.327   2.068  0.0840  1.1166 -0.3268
  130OSM   H14B13863   6.385   5.317   2.189  1.1525  1.0219  2.8748
  130OSM   H14C13864   6.518   5.200   2.172 -1.7021 -0.7635 -0.8277
  130OSM    C1313865   6.510   5.528   2.256 -1.3743 -0.3933  0.3345
  130OSM   H13A13866   6.417   5.542   2.309 -0.8745  1.6426  0.7413
  130OSM   H13B13867   6.502   5.551   2.150 -1.4048 -0.2060  0.3766
  130OSM   H13C13868   6.582   5.603   2.284 -3.2137  1.7982 -0.4333
  130OSM    C1213869   6.710   5.374   2.253  0.4697  1.1200 -0.1231
  130OSM   H12A13870   6.729   5.268   2.256  1.0292  1.2038 -0.5595
  130OSM   H12B13871   6.760   5.410   2.341  2.0673 -3.5000  1.1655
  130OSM    C1113872   6.781   5.444   2.137 -0.3711 -0.7652  0.5978
  130OSM   H11A13873   6.729   5.411   2.045 -2.2675  2.9753  0.1596
  130OSM   H11B13874   6.882   5.403   2.115 -0.2910 -0.3280  0.1354
  130OSM      P13875   6.876   5.651   2.260 -0.0278 -0.0655 -0.1102
  130OSM    O1313876   6.974   5.714   2.177  0.9558 -0.2794  0.0629
  130OSM    O1413877   6.791   5.733   2.349  0.0114  0.2608 -0.4137
  130OSM    O1113878   6.946   5.525   2.333  0.1633 -0.2964  0.6981
  130OSM    O1213879   6.783   5.585   2.154  0.4340 -0.2193 -0.2649
  130OSM    C1S13880   7.050   5.530   2.435  0.4230  0.0001 -0.4295
  130OSM    H1S13881   7.047   5.622   2.499  1.7848  0.2767 -0.7220
  130OSM    H1T13882   7.151   5.519   2.391  0.7259  0.6815  0.0689
  130OSM     NF13883   7.103   5.433   2.664 -0.5836  0.9077 -0.6517
  130OSM    HNF13884   7.182   5.377   2.687 -2.3542 -0.9911  1.3932
  130OSM    C2S13885   7.036   5.409   2.541  0.7156 -0.9357  0.6777
  130OSM    H2S13886   6.930   5.399   2.570  0.7557  0.2825  1.3180
  130OSM    C3S13887   7.078   5.281   2.476 -0.1626  0.2782  0.4918
  130OSM    H3S13888   7.188   5.275   2.458 -0.3985 -2.9638 -0.5034
  130OSM     O313889   7.031   5.271   2.342 -0.3087 -0.0105 -0.4292
  130OSM    HO313890   6.992   5.356   2.320 -2.0853 -0.7734 -0.3258
  130OSM    C4S13891   7.046   5.161   2.560 -0.1563  1.2752  0.7040
  130OSM    H4S13892   7.133   5.119   2.612  1.4593  0.5235 -2.3733
  130OSM    C5S13893   6.938   5.097   2.547 -0.1432  1.0507  0.0678
  130OSM    H5S13894   6.862   5.127   2.474 -1.0102  1.5039  1.1308
  130OSM    C6S13895   6.910   4.977   2.630  0.6257 -0.1641 -0.1613
  130OSM    H6S13896   6.978   4.954   2.714 -0.6449 -0.1195  0.9201
  130OSM    H6T13897   6.898   4.882   2.574 -3.3887 -0.8309  1.4101
  130OSM    C7S13898   6.776   4.996   2.692  0.3210 -0.2757  0.2855
  130OSM    H7S13899   6.753   4.906   2.753 -3.5497 -0.0685 -0.6501
  130OSM    H7T13900   6.696   5.017   2.619  0.0089  0.6367  0.8746
  130OSM    C8S13901   6.769   5.116   2.789  0.0606  0.6299  0.1780
  130OSM    H8S13902   6.666   5.116   2.831  0.1152  4.3472  0.6505
  130OSM    H8T13903   6.769   5.207   2.725 -0.8484  0.2313 -0.4004
  130OSM    C9S13904   6.879   5.121   2.889 -0.0727 -0.1574 -0.1907
  130OSM    H9S13905   6.977   5.153   2.848 -0.9589  1.2889 -1.2538
  130OSM    H9T13906   6.896   5.020   2.933 -2.1928 -0.3067  0.4067
  130OSM   C10S13907   6.855   5.200   3.011 -0.6819 -0.5628  0.4920
  130OSM   H10S13908   6.763   5.166   3.064 -0.4356  0.2130  1.4311
  130OSM   H10T13909   6.831   5.305   2.983 -1.9472  0.3135  4.3014
  130OSM   C11S13910   6.967   5.203   3.116 -0.8540  0.0382  0.0305
  130OSM   H11S13911   7.046   5.266   3.071  0.4249 -2.3012 -1.1724
  130OSM   H11T13912   7.009   5.101   3.128  0.6023  0.6068 -0.0312
  130OSM   C12S13913   6.942   5.265   3.255  0.4763  0.4432 -0.4451
  130OSM   H12S13914   6.852   5.220   3.301  0.1668  0.5449 -0.9398
  130OSM   H12T13915   6.927   5.374   3.238  0.4011  0.2768 -1.5512
  130OSM   C13S13916   7.055   5.252   3.353 -0.4338 -0.0914  0.1607
  130OSM   H13S13917   7.139   5.310   3.310  0.8349 -1.3360  0.8934
  130OSM   H13T13918   7.084   5.145   3.361 -1.4759 -0.3305  1.1643
  130OSM   C14S13919   7.013   5.307   3.497  0.4116  0.6836  1.0103
  130OSM   H14S13920   6.918   5.257   3.525  0.9759 -1.0592 -0.0345
  130OSM   H14T13921   6.994   5.416   3.502  1.0330  0.7601  1.8162
  130OSM   C15S13922   7.132   5.268   3.587  0.3164  0.0290  0.4383
  130OSM   H15S13923   7.230   5.313   3.561  1.0263 -0.9233  1.3796
  130OSM   H15T13924   7.144   5.158   3.593 -1.2475 -0.1774  0.1090
  130OSM   C16S13925   7.101   5.305   3.729  0.3591 -0.8205  0.1578
  130OSM   H16S13926   7.082   5.414   3.735  2.8155 -0.1185 -2.7435
  130OSM   H16T13927   7.198   5.293   3.782  1.5951  0.2783 -1.7553
  130OSM   C17S13928   6.991   5.220   3.788  0.3140 -0.1793 -0.0422
  130OSM   H17S13929   7.003   5.115   3.752 -3.8770 -0.8850  0.1232
  130OSM   H17T13930   6.894   5.253   3.745 -2.2286 -1.6887  4.0031
  130OSM   C18S13931   6.979   5.238   3.940 -0.6468  0.8567  0.6709
  130OSM   H18S13932   6.961   5.343   3.972 -2.2771 -0.0394  2.9954
  130OSM   H18T13933   7.073   5.202   3.987 -0.5348 -2.1332 -1.5649
  130OSM   H18U13934   6.895   5.178   3.981  0.4564  0.7851  3.0207
  130OSM    C1F13935   7.068   5.521   2.756  0.3658 -0.6004  0.1448
  130OSM     OF13936   6.978   5.605   2.735 -0.0092  0.0595  0.0533
  130OSM    C2F13937   7.149   5.530   2.877  0.0902 -0.0330 -0.1421
  130OSM    H2F13938   7.237   5.594   2.858  2.5531 -3.4767 -1.4992
  130OSM    H2G13939   7.179   5.428   2.911 -0.2861  0.0044  0.3126
  130OSM    C3F13940   7.084   5.597   3.009  0.6960 -0.1393  0.4781
  130OSM    H3F13941   6.995   5.536   3.036 -0.8380  1.7546 -0.0420
  130OSM    H3G13942   7.049   5.697   2.976  1.9415  0.2413  0.2450
  130OSM    C4F13943   7.189   5.614   3.126  0.5234  0.2528 -0.0389
  130OSM    H4F13944   7.268   5.680   3.085  2.3446 -1.3698  0.7311
  130OSM    H4G13945   7.236   5.521   3.163 -1.1054  0.1733  2.0103
  130OSM    C5F13946   7.144   5.684   3.250  0.6810  0.2619 -0.5068
  130OSM    H5F13947   7.039   5.652   3.269  0.8050 -0.4816 -1.0210
  130OSM    H5G13948   7.157   5.793   3.236  1.4633  0.1574 -0.6123
  130OSM    C6F13949   7.224   5.645   3.376 -0.0734 -0.7077  0.1144
  130OSM    H6F13950   7.333   5.663   3.362 -0.0743  0.1554  1.1149
  130OSM    H6G13951   7.213   5.538   3.406 -0.8179 -0.2475  1.6254
  130OSM    C7F13952   7.180   5.733   3.501 -0.2846  0.9592  0.4857
  130OSM    H7F13953   7.069   5.732   3.500 -0.3854  0.6650 -3.8888
  130OSM    H7G13954   7.215   5.835   3.476 -0.5811  0.9141 -0.1268
  130OSM    C8F13955   7.237   5.692   3.644  0.0545  0.4569  0.1818
  130OSM    H8F13956   7.346   5.673   3.647  0.4284  2.4767  1.6477
  130OSM    H8G13957   7.187   5.603   3.686  0.6681  0.2220  0.4213
  130OSM    C9F13958   7.206   5.810   3.733 -0.1879 -0.4031  0.1141
  130OSM    H9F13959   7.281   5.890   3.720 -2.1132  1.4436 -0.2511
  130OSM   C10F13960   7.112   5.829   3.825  0.1527  0.3453  0.2027
  130OSM   H10F13961   7.119   5.922   3.884 -1.6593 -0.9453  2.5884
  130OSM   C11F13962   6.993   5.745   3.862  0.0878 -0.6472  0.4781
  130OSM   H11F13963   6.973   5.657   3.796 -0.3537  0.0676 -0.3687
  130OSM   H11G13964   6.902   5.809   3.861  0.2612 -0.3543 -1.5685
  130OSM   C12F13965   7.008   5.703   4.006  0.2141 -0.1621 -0.2157
  130OSM   H12F13966   6.911   5.661   4.039 -0.5721  1.5264 -0.2948
  130OSM   H12G13967   7.028   5.789   4.073  0.8068  0.1436 -0.7768
  130OSM   C13F13968   7.118   5.599   4.035 -0.1059  0.3971  0.2877
  130OSM   H13F13969   7.217   5.645   4.017 -0.5044  1.1381 -0.0660
  130OSM   H13G13970   7.113   5.512   3.965 -2.8311  0.6915 -0.0011
  130OSM   C14F13971   7.116   5.553   4.185  0.6342  0.4045  0.3785
  130OSM   H14F13972   7.012   5.518   4.204  0.9016 -0.4277  0.3661
  130OSM   H14G13973   7.130   5.642   4.250  1.3685 -0.1166  0.9590
  130OSM   C15F13974   7.227   5.449   4.210  0.2272 -0.2329 -0.0496
  130OSM   H15F13975   7.322   5.478   4.161 -1.1100 -0.2406 -2.7951
  130OSM   H15G13976   7.195   5.363   4.148 -0.6004  0.6821 -0.9218
  130OSM   C16F13977   7.261   5.410   4.354  0.0972  0.2621 -0.6573
  130OSM   H16F13978   7.272   5.506   4.409  2.5811  1.0984 -2.4808
  130OSM   H16G13979   7.357   5.356   4.369  0.1664  0.8421  1.2528
  130OSM   C17F13980   7.151   5.331   4.426 -0.0164 -0.3080 -0.0143
  130OSM   H17F13981   7.141   5.232   4.376  1.6740 -0.5915  0.1479
  130OSM   H17G13982   7.056   5.386   4.410 -0.3113  0.3027  3.1534
  130OSM   C18F13983   7.177   5.326   4.579 -0.1028  0.1269  0.2098
  130OSM   H18F13984   7.095   5.268   4.627 -0.2196  0.8780  0.9333
  130OSM   H18G13985   7.188   5.427   4.623  1.6422 -0.3197  0.8755
  130OSM   H18H13986   7.273   5.274   4.597  0.3837  0.8503 -0.2381
  131OSM      N13987   3.298   0.709   1.905 -1.0410  0.6188 -0.4614
  131OSM    C1513988   3.216   0.636   2.002  0.6185  0.3182 -0.4817
  131OSM   H15A13989   3.119   0.612   1.960  0.4597 -1.6521  0.8981
  131OSM   H15B13990   3.196   0.681   2.098 -1.1981 -1.0005 -0.1844
  131OSM   H15C13991   3.255   0.536   2.009  0.3288  0.2173 -0.2729
  131OSM    C1413992   3.267   0.656   1.772  0.3540 -0.3476  0.4130
  131OSM   H14A13993   3.160   0.641   1.763  0.1389  0.6613  1.1018
  131OSM   H14B13994   3.314   0.562   1.749 -0.3514 -0.8758  1.0733
  131OSM   H14C13995   3.300   0.726   1.697  2.6507  1.1989  2.6977
  131OSM    C1313996   3.257   0.853   1.911  0.5059 -0.6550 -0.5527
  131OSM   H13A13997   3.153   0.862   1.881 -0.3410 -1.5151  1.8689
  131OSM   H13B13998   3.317   0.926   1.859 -1.1889  2.8071  1.9075
  131OSM   H13C13999   3.245   0.893   2.011 -0.4147  1.7607 -1.5618
  131OSM    C1214000   3.444   0.687   1.934 -0.6480  0.1450  0.1523
  131OSM   H12A14001   3.490   0.762   1.871 -4.1066  1.8969 -0.5819
  131OSM   H12B14002   3.473   0.591   1.894  0.1558  0.3629  0.1966
  131OSM    C1114003   3.491   0.725   2.087  0.6124  0.6721  0.2538
  131OSM   H11A14004   3.596   0.689   2.092 -0.2246 -2.3723 -1.1545
  131OSM   H11B14005   3.426   0.667   2.156 -0.1556  0.2923 -0.7542
  131OSM      P14006   3.589   0.965   2.078 -0.2115  0.1306  0.1425
  131OSM    O1314007   3.688   0.897   1.990 -0.3011  0.0125  0.2746
  131OSM    O1414008   3.527   1.090   2.034  0.3077  0.0440  0.6428
  131OSM    O1114009   3.658   0.986   2.220  0.0872  0.0336  0.5129
  131OSM    O1214010   3.475   0.864   2.117 -0.2396  0.3698 -0.0670
  131OSM    C1S14011   3.592   1.046   2.329  0.1884  0.8908 -0.9200
  131OSM    H1S14012   3.483   1.050   2.309  0.3156 -0.9772 -2.2833
  131OSM    H1T14013   3.634   1.149   2.332  1.2677  0.4691 -1.0443
  131OSM     NF14014   3.530   1.030   2.560 -0.1592  0.1642  0.5502
  131OSM    HNF14015   3.562   1.104   2.618  1.3179 -0.1824  0.2238
  131OSM    C2S14016   3.622   0.980   2.468 -0.1474  0.4866 -0.9988
  131OSM    H2S14017   3.616   0.870   2.465  1.6410  0.3850 -2.3410
  131OSM    C3S14018   3.771   1.009   2.517  0.2872 -0.1115 -0.0464
  131OSM    H3S14019   3.782   1.119   2.531 -2.6279  0.3382 -0.5779
  131OSM     O314020   3.880   0.962   2.425  0.0574 -0.2538 -0.5145
  131OSM    HO314021   3.831   0.925   2.351 -2.3290 -1.5081  1.5229
  131OSM    C4S14022   3.782   0.938   2.652  0.4720  0.3414 -0.4769
  131OSM    H4S14023   3.736   1.001   2.730  1.1065  0.7423 -0.4199
  131OSM    C5S14024   3.844   0.820   2.684  0.1762 -0.2572  0.6540
  131OSM    H5S14025   3.889   0.763   2.600  0.7925  1.7375 -0.4343
  131OSM    C6S14026   3.851   0.758   2.819 -0.2459 -0.1331 -0.5142
  131OSM    H6S14027   3.944   0.703   2.843 -0.3951 -1.4128 -2.5970
  131OSM    H6T14028   3.779   0.674   2.810 -0.0564 -0.2080 -1.5690
  131OSM    C7S14029   3.820   0.846   2.939 -0.1081 -1.0226 -0.2284
  131OSM    H7S14030   3.712   0.868   2.935  0.2062  0.8500  0.7339
  131OSM    H7T14031   3.876   0.941   2.932 -1.9738  0.0769 -0.8699
  131OSM    C8S14032   3.859   0.774   3.068 -0.2163  0.2373  0.1565
  131OSM    H8S14033   3.965   0.740   3.071 -0.0088  0.9314  2.4760
  131OSM    H8T14034   3.793   0.685   3.065  0.0185 -0.2083  3.8703
  131OSM    C9S14035   3.822   0.848   3.193 -0.5247  0.8522 -0.6787
  131OSM    H9S14036   3.718   0.886   3.191 -1.6117 -1.9291 -1.4549
  131OSM    H9T14037   3.883   0.940   3.205 -0.2078  0.6935 -1.0480
  131OSM   C10S14038   3.827   0.764   3.317  0.1066  1.1411 -0.5566
  131OSM   H10S14039   3.907   0.687   3.319  0.9188  1.9722  0.3898
  131OSM   H10T14040   3.742   0.692   3.314  1.5200 -0.9189  2.4224
  131OSM   C11S14041   3.821   0.850   3.447 -0.1753 -0.1059 -0.8708
  131OSM   H11S14042   3.731   0.914   3.455 -0.3757 -0.5799  1.2577
  131OSM   H11T14043   3.915   0.909   3.456 -1.8657  2.4312  1.6818
  131OSM   C12S14044   3.816   0.756   3.568 -0.1911  0.4759 -0.2190
  131OSM   H12S14045   3.909   0.696   3.561  0.7224  1.6893  1.0922
  131OSM   H12T14046   3.727   0.694   3.543  1.2708 -0.8375 -2.6137
  131OSM   C13S14047   3.806   0.823   3.702  0.6348  0.6335  0.2246
  131OSM   H13S14048   3.705   0.865   3.718 -0.2724 -1.3928  0.2036
  131OSM   H13T14049   3.881   0.902   3.723  0.1361  1.2882 -0.4256
  131OSM   C14S14050   3.826   0.715   3.813  0.2417  0.2180 -0.3399
  131OSM   H14S14051   3.928   0.672   3.820  0.1155 -0.1327 -0.5921
  131OSM   H14T14052   3.758   0.634   3.777 -3.2810  2.2694  1.1403
  131OSM   C15S14053   3.771   0.764   3.953 -1.1222  0.4968  0.1205
  131OSM   H15S14054   3.663   0.739   3.943 -0.7078 -1.6079  0.4147
  131OSM   H15T14055   3.789   0.873   3.954 -0.4677  0.4004 -0.2756
  131OSM   C16S14056   3.819   0.697   4.081  0.2848 -0.5988 -0.2997
  131OSM   H16S14057   3.898   0.755   4.134  1.7421 -3.0903  0.4348
  131OSM   H16T14058   3.863   0.595   4.075  2.1455  0.2403 -2.1145
  131OSM   C17S14059   3.709   0.693   4.186  0.1207  0.1193  0.2266
  131OSM   H17S14060   3.628   0.626   4.151 -0.1329  0.5028  0.0880
  131OSM   H17T14061   3.663   0.793   4.171 -0.2129  0.2149  1.7130
  131OSM   C18S14062   3.759   0.638   4.319  0.2593  0.5820 -0.1948
  131OSM   H18S14063   3.778   0.529   4.312 -0.6747  0.3027  1.1811
  131OSM   H18T14064   3.671   0.649   4.386  1.2934 -0.9691  1.4958
  131OSM   H18U14065   3.846   0.693   4.360 -1.0429  0.9723  2.2409
  131OSM    C1F14066   3.400   1.004   2.543 -0.4427  0.5130  0.3350
  131OSM     OF14067   3.357   0.902   2.493 -0.1915 -0.4203  0.6124
  131OSM    C2F14068   3.310   1.109   2.581 -0.7118 -0.1731  0.8620
  131OSM    H2F14069   3.219   1.095   2.518  0.6727  1.2192 -1.5937
  131OSM    H2G14070   3.344   1.210   2.549 -1.6312 -0.0286  0.2843
  131OSM    C3F14071   3.268   1.105   2.731  0.0596 -0.1437 -0.5175
  131OSM    H3F14072   3.228   1.005   2.758  1.2031 -0.0912  1.6654
  131OSM    H3G14073   3.198   1.188   2.753 -0.1924 -0.4066 -0.3207
  131OSM    C4F14074   3.387   1.143   2.822 -0.5555 -0.0541 -0.1101
  131OSM    H4F14075   3.438   1.230   2.776  0.8665 -1.5402 -1.4878
  131OSM    H4G14076   3.470   1.072   2.842 -0.6056  0.0069  0.3277
  131OSM    C5F14077   3.344   1.205   2.954  0.0208 -0.0103 -0.5285
  131OSM    H5F14078   3.285   1.127   3.007 -1.7918  0.6195 -1.5426
  131OSM    H5G14079   3.283   1.296   2.938 -0.0907 -0.0751 -0.4687
  131OSM    C6F14080   3.461   1.245   3.039  0.3368 -0.1667  0.5410
  131OSM    H6F14081   3.515   1.333   2.998  2.8205 -1.4316  0.8895
  131OSM    H6G14082   3.539   1.172   3.069  0.2283 -0.3369  0.4092
  131OSM    C7F14083   3.414   1.291   3.177 -0.2678  0.2881 -0.2658
  131OSM    H7F14084   3.351   1.381   3.159 -0.4382  0.0769 -0.7447
  131OSM    H7G14085   3.502   1.322   3.238 -0.9004 -0.3144  0.9871
  131OSM    C8F14086   3.321   1.198   3.263 -0.4712  1.0136  0.4869
  131OSM    H8F14087   3.234   1.164   3.202 -0.5569  3.0056 -0.6001
  131OSM    H8G14088   3.273   1.244   3.352 -0.7832 -1.9992  2.0040
  131OSM    C9F14089   3.392   1.073   3.320  0.0459  0.0558 -0.0845
  131OSM    H9F14090   3.455   1.016   3.251 -0.8996 -1.0296 -0.0705
  131OSM   C10F14091   3.376   1.029   3.444  1.1931  0.6598  0.5894
  131OSM   H10F14092   3.436   0.940   3.468 -0.4447 -0.4294  0.7315
  131OSM   C11F14093   3.292   1.068   3.564  0.0518 -0.0287  0.2489
  131OSM   H11F14094   3.254   1.172   3.557 -0.3332 -0.2260 -0.7001
  131OSM   H11G14095   3.360   1.088   3.650 -0.1689  1.7837  0.0333
  131OSM   C12F14096   3.175   0.971   3.597 -0.3550  0.0037 -0.0435
  131OSM   H12F14097   3.218   0.869   3.609 -0.4762 -0.1585 -0.9037
  131OSM   H12G14098   3.098   0.973   3.516 -1.1127  1.0539  0.6655
  131OSM   C13F14099   3.108   0.996   3.728  0.0317  0.0361  1.0481
  131OSM   H13F14100   3.066   1.099   3.721 -1.4350 -0.6087 -0.3359
  131OSM   H13G14101   3.184   0.992   3.808  0.4294 -0.2166  0.6629
  131OSM   C14F14102   2.992   0.900   3.760 -0.0225 -0.3596  0.8023
  131OSM   H14F14103   3.035   0.798   3.771 -0.3324 -0.7840 -1.4773
  131OSM   H14G14104   2.924   0.900   3.672 -0.1426  1.0594  0.8637
  131OSM   C15F14105   2.904   0.939   3.882  0.1003 -0.5122  0.3860
  131OSM   H15F14106   2.830   0.859   3.903 -0.4006 -0.0120  0.5503
  131OSM   H15G14107   2.846   1.028   3.847  1.0771 -0.0976 -0.2012
  131OSM   C16F14108   2.977   0.973   4.010  0.7400 -0.5047 -0.2135
  131OSM   H16F14109   3.043   1.060   3.990  0.5968 -1.0065 -3.2395
  131OSM   H16G14110   3.030   0.881   4.040 -2.1956 -2.3026 -0.1874
  131OSM   C17F14111   2.889   1.015   4.127 -0.1239 -0.2611 -0.6411
  131OSM   H17F14112   2.956   1.049   4.209 -3.1120 -0.0966  1.9752
  131OSM   H17G14113   2.833   0.929   4.171 -3.2308  0.9436 -1.9034
  131OSM   C18F14114   2.800   1.134   4.102  0.0278 -0.0771  0.4926
  131OSM   H18F14115   2.750   1.121   4.004 -0.6499  0.4643  0.7541
  131OSM   H18G14116   2.859   1.228   4.095 -1.4535  0.9133  0.6496
  131OSM   H18H14117   2.714   1.146   4.171 -0.7235  0.5940 -0.5254
  132OSM      N14118   4.421   0.074   1.567 -0.4049  0.2995 -0.4506
  132OSM    C1514119   4.379   0.218   1.582  0.5917  0.5348 -0.3107
  132OSM   H15A14120   4.434   0.265   1.663  0.8936  0.0370 -0.2263
  132OSM   H15B14121   4.275   0.239   1.603 -0.0982 -2.5034 -0.2363
  132OSM   H15C14122   4.398   0.281   1.496  0.9772  0.1246 -0.5259
  132OSM    C1414123   4.339   0.007   1.463  0.3824 -0.3357  0.0966
  132OSM   H14A14124   4.355   0.056   1.368 -0.1062  2.2555  1.2668
  132OSM   H14B14125   4.238   0.028   1.496  1.4822  2.8954  1.8167
  132OSM   H14C14126   4.360  -0.098   1.447 -1.2547 -0.5913 -0.5962
  132OSM    C1314127   4.559   0.077   1.512 -0.2669 -0.1743 -0.0753
  132OSM   H13A14128   4.593  -0.022   1.487 -1.8986 -0.1464 -2.7515
  132OSM   H13B14129   4.631   0.119   1.582 -0.8734  0.1105  0.3856
  132OSM   H13C14130   4.573   0.130   1.419  1.4279 -1.6343 -0.7059
  132OSM    C1214131   4.424   0.003   1.700 -0.0851 -0.0980 -0.6230
  132OSM   H12A14132   4.327   0.017   1.747  0.3640 -0.5433  0.4721
  132OSM   H12B14133   4.492   0.050   1.770 -1.1567 -3.0046  2.6451
  132OSM    C1114134   4.456  -0.152   1.701 -0.9299 -0.3779  1.0370
  132OSM   H11A14135   4.504  -0.180   1.797  0.7776  0.9008  0.6135
  132OSM   H11B14136   4.535  -0.165   1.624 -0.4846  1.4235  1.1472
  132OSM      P14137   4.246  -0.278   1.782 -0.1878 -0.2177  0.5045
  132OSM    O1314138   4.107  -0.274   1.728 -0.0854 -0.7409 -0.0001
  132OSM    O1414139   4.301  -0.403   1.848  0.2644 -0.0981  0.3778
  132OSM    O1114140   4.249  -0.156   1.881  0.5031  0.2430  0.5428
  132OSM    O1214141   4.345  -0.232   1.667 -0.2677  0.1665  0.2084
  132OSM    C1S14142   4.147  -0.136   1.985 -0.1197 -0.4065 -0.2122
  132OSM    H1S14143   4.043  -0.133   1.944  0.4736  1.3571 -1.7272
  132OSM    H1T14144   4.162  -0.032   2.023 -0.6243 -0.4072  0.0059
  132OSM     NF14145   4.055  -0.198   2.194 -0.1614 -0.7460  0.8952
  132OSM    HNF14146   4.082  -0.124   2.256 -1.1181  0.4347 -0.0528
  132OSM    C2S14147   4.155  -0.232   2.106 -0.4949  0.5552  0.3552
  132OSM    H2S14148   4.138  -0.332   2.062 -1.4054 -0.2770  2.4649
  132OSM    C3S14149   4.302  -0.220   2.166 -0.2180 -0.0538 -0.3703
  132OSM    H3S14150   4.322  -0.119   2.207  0.2519 -0.1997 -0.2406
  132OSM     O314151   4.405  -0.252   2.072  0.0167 -0.1333  0.1491
  132OSM    HO314152   4.385  -0.194   1.998  0.2528 -0.0914  0.1199
  132OSM    C4S14153   4.301  -0.319   2.278  0.2635  0.7862  0.6852
  132OSM    H4S14154   4.260  -0.414   2.241 -0.1072  1.3108 -0.2898
  132OSM    C5S14155   4.372  -0.304   2.391  0.5192  0.0868  0.5470
  132OSM    H5S14156   4.438  -0.216   2.400  0.2158  0.4224 -0.3592
  132OSM    C6S14157   4.418  -0.406   2.503 -0.0224 -0.4704 -0.0120
  132OSM    H6S14158   4.523  -0.435   2.481  0.7217  2.4031 -0.7555
  132OSM    H6T14159   4.350  -0.493   2.501 -2.9535  1.6606 -0.3329
  132OSM    C7S14160   4.417  -0.336   2.639 -0.5452  0.1710 -0.6663
  132OSM    H7S14161   4.322  -0.286   2.666 -1.0855  0.8790 -3.5496
  132OSM    H7T14162   4.483  -0.247   2.635 -0.8337  0.3677 -1.1302
  132OSM    C8S14163   4.463  -0.429   2.750  0.6757 -0.4965  0.3885
  132OSM    H8S14164   4.571  -0.441   2.731  0.3894  0.4377 -2.2056
  132OSM    H8T14165   4.417  -0.528   2.729  1.3539 -0.9312  0.9411
  132OSM    C9S14166   4.443  -0.366   2.889  0.3320 -0.1263  0.2763
  132OSM    H9S14167   4.333  -0.352   2.901  0.1091  0.0056 -1.6195
  132OSM    H9T14168   4.498  -0.271   2.904  1.5035 -0.4406 -1.7231
  132OSM   C10S14169   4.496  -0.456   3.001  0.6009 -0.4512 -0.3103
  132OSM   H10S14170   4.604  -0.465   2.976  0.7842  0.9576 -0.1189
  132OSM   H10T14171   4.441  -0.553   3.000 -0.7912  0.3145 -0.6130
  132OSM   C11S14172   4.485  -0.386   3.138  0.6588 -0.2617 -0.1526
  132OSM   H11S14173   4.380  -0.408   3.164 -0.7043  2.2574 -2.9561
  132OSM   H11T14174   4.499  -0.276   3.124 -3.0228  0.4414  0.7783
  132OSM   C12S14175   4.580  -0.443   3.243 -0.6816 -0.3104  0.5544
  132OSM   H12S14176   4.680  -0.399   3.224 -1.2102  0.6537 -0.0599
  132OSM   H12T14177   4.580  -0.554   3.231  3.8963 -0.6585  1.6232
  132OSM   C13S14178   4.521  -0.413   3.381  0.0061  0.2047 -0.0562
  132OSM   H13S14179   4.436  -0.476   3.415 -1.1364  1.1325 -1.0521
  132OSM   H13T14180   4.480  -0.310   3.369  2.6526  1.4794  1.1545
  132OSM   C14S14181   4.627  -0.404   3.489  0.4936  0.3317  0.2224
  132OSM   H14S14182   4.657  -0.297   3.493  0.0216  0.5496 -1.4970
  132OSM   H14T14183   4.716  -0.470   3.479 -0.1655 -0.3540 -1.5716
  132OSM   C15S14184   4.570  -0.448   3.628 -0.0632 -0.6673 -0.0400
  132OSM   H15S14185   4.551  -0.557   3.625  0.0604 -0.6913  0.0418
  132OSM   H15T14186   4.483  -0.382   3.648  1.4157  0.9098  1.6042
  132OSM   C16S14187   4.667  -0.426   3.745 -0.8082  0.4585 -0.6085
  132OSM   H16S14188   4.709  -0.324   3.735  0.3445  0.0244 -0.4199
  132OSM   H16T14189   4.751  -0.496   3.720 -0.8082  0.1690  0.1669
  132OSM   C17S14190   4.601  -0.443   3.881 -0.1658  0.5190  0.2400
  132OSM   H17S14191   4.560  -0.546   3.886  1.2179 -0.0554  0.0852
  132OSM   H17T14192   4.518  -0.370   3.889  2.1058  3.2624  0.5951
  132OSM   C18S14193   4.695  -0.431   4.008 -0.0079  0.0982  0.0156
  132OSM   H18S14194   4.792  -0.479   3.986  0.4038  0.8757  0.1162
  132OSM   H18T14195   4.636  -0.471   4.093 -2.2076  1.0964 -0.9285
  132OSM   H18U14196   4.715  -0.323   4.021  0.6626  0.2041 -1.5919
  132OSM    C1F14197   3.933  -0.254   2.192 -0.1978  0.7210 -0.0194
  132OSM     OF14198   3.912  -0.339   2.103 -0.2974  0.5841 -0.7920
  132OSM    C2F14199   3.828  -0.202   2.293 -0.9534 -0.6303 -0.2680
  132OSM    H2F14200   3.732  -0.208   2.237 -0.2219 -1.1736 -1.4942
  132OSM    H2G14201   3.845  -0.095   2.314 -1.2807 -0.8058  1.0089
  132OSM    C3F14202   3.839  -0.285   2.418 -0.2278 -0.2942  0.2332
  132OSM    H3F14203   3.944  -0.281   2.455  0.5898 -1.3748 -1.7997
  132OSM    H3G14204   3.799  -0.384   2.390 -3.2147  0.1316  2.4345
  132OSM    C4F14205   3.754  -0.245   2.544 -0.4760 -0.3070  0.8443
  132OSM    H4F14206   3.740  -0.327   2.617 -2.0086 -0.3824  0.5133
  132OSM    H4G14207   3.648  -0.221   2.520 -0.1661 -1.8516 -2.6532
  132OSM    C5F14208   3.835  -0.128   2.612 -0.4166 -0.0350 -1.3038
  132OSM    H5F14209   3.859  -0.063   2.525  2.1806  2.0345  0.7899
  132OSM    H5G14210   3.929  -0.159   2.662 -1.3852 -1.9410 -0.5428
  132OSM    C6F14211   3.752  -0.058   2.717  0.4552 -0.6270  0.7639
  132OSM    H6F14212   3.650  -0.040   2.676  1.3761 -1.7330 -2.3061
  132OSM    H6G14213   3.800   0.041   2.734 -0.9589  0.4061 -0.9567
  132OSM    C7F14214   3.737  -0.140   2.846 -0.1253  0.3706 -0.0880
  132OSM    H7F14215   3.844  -0.156   2.871  0.1007 -0.8699 -1.6746
  132OSM    H7G14216   3.693  -0.237   2.817  0.9927 -1.1395  2.9050
  132OSM    C8F14217   3.656  -0.069   2.959 -0.0945  0.4936  0.4180
  132OSM    H8F14218   3.715   0.022   2.986  1.9486 -0.5828 -0.2299
  132OSM    H8G14219   3.655  -0.141   3.043 -1.9204 -0.3132 -0.2507
  132OSM    C9F14220   3.520  -0.014   2.914  0.6834 -0.2520  0.3732
  132OSM    H9F14221   3.484  -0.043   2.813 -0.3633 -0.0485  0.6774
  132OSM   C10F14222   3.441   0.061   2.994  0.2543 -0.1866  1.2546
  132OSM   H10F14223   3.345   0.096   2.956  0.5649 -0.9959 -0.3674
  132OSM   C11F14224   3.469   0.105   3.135  1.3528  0.2385  0.7713
  132OSM   H11F14225   3.449   0.214   3.146  3.8489  1.0342 -1.6114
  132OSM   H11G14226   3.574   0.086   3.163  0.9955 -1.0939  1.2636
  132OSM   C12F14227   3.382   0.037   3.236  0.5634  0.5014  0.1357
  132OSM   H12F14228   3.401  -0.072   3.224  3.0199  1.0829 -2.3826
  132OSM   H12G14229   3.274   0.052   3.216  0.9165 -0.7672 -3.6500
  132OSM   C13F14230   3.424   0.083   3.383  0.6939  0.0411  0.2655
  132OSM   H13F14231   3.439   0.193   3.384 -2.4293  0.6077 -1.5433
  132OSM   H13G14232   3.523   0.047   3.417  0.3619 -1.2361 -0.0477
  132OSM   C14F14233   3.320   0.049   3.495  0.5535  0.1350 -0.3722
  132OSM   H14F14234   3.287  -0.056   3.480  1.7950  0.0975 -3.7800
  132OSM   H14G14235   3.227   0.105   3.470 -0.1910 -0.5021  0.8896
  132OSM   C15F14236   3.372   0.088   3.634 -0.2319 -0.6085 -0.7371
  132OSM   H15F14237   3.414   0.190   3.619  0.4005 -0.6865  0.3820
  132OSM   H15G14238   3.457   0.021   3.657 -0.3424 -1.0850 -1.6691
  132OSM   C16F14239   3.266   0.090   3.750 -0.1924  0.9241  0.1639
  132OSM   H16F14240   3.170   0.124   3.706 -1.7776 -1.0733  1.8280
  132OSM   H16G14241   3.305   0.165   3.821  0.5183 -0.9699  1.8879
  132OSM   C17F14242   3.256  -0.052   3.822 -0.0555 -0.3546 -0.0332
  132OSM   H17F14243   3.360  -0.074   3.854  0.4810  0.5823 -1.0507
  132OSM   H17G14244   3.228  -0.127   3.745  0.8713 -1.2101  0.4325
  132OSM   C18F14245   3.154  -0.052   3.929 -1.0044  1.1879 -0.1625
  132OSM   H18F14246   3.056  -0.018   3.890 -0.9388  1.0038 -0.4954
  132OSM   H18G14247   3.174   0.022   4.009  0.1925  0.4314  0.2707
  132OSM   H18H14248   3.153  -0.152   3.978  1.0185  0.5451 -1.3102
  133OSM      N14249   0.825   3.968   1.691  0.3664 -0.2153  0.1626
  133OSM    C1514250   0.937   4.053   1.641 -0.8747 -1.1628  0.5160
  133OSM   H15A14251   1.032   4.028   1.686  1.1755 -0.6902 -3.1889
  133OSM   H15B14252   0.916   4.159   1.650 -3.4834 -1.4831 -0.9027
  133OSM   H15C14253   0.964   4.032   1.539  1.7650  1.5797  0.4744
  133OSM    C1414254   0.700   4.019   1.634 -0.2204 -0.1094  0.7134
  133OSM   H14A14255   0.688   4.122   1.662  1.3207 -0.1351  1.5724
  133OSM   H14B14256   0.615   3.968   1.677 -0.9814 -0.7621 -1.3945
  133OSM   H14C14257   0.692   4.008   1.526 -2.8666  0.2423  0.8163
  133OSM    C1314258   0.833   3.823   1.655 -0.8775 -0.0444  0.1591
  133OSM   H13A14259   0.743   3.776   1.692 -1.0981 -2.5980 -3.0998
  133OSM   H13B14260   0.915   3.777   1.708 -1.0011 -1.8915 -1.1535
  133OSM   H13C14261   0.835   3.819   1.547  0.7296 -0.5802  0.1766
  133OSM    C1214262   0.821   3.993   1.840  0.0194 -0.3476 -0.2295
  133OSM   H12A14263   0.728   3.952   1.876  1.2489 -2.1481  1.0676
  133OSM   H12B14264   0.816   4.095   1.877 -2.3098 -0.1458 -0.9331
  133OSM    C1114265   0.930   3.933   1.924 -0.2860  0.2588  0.0539
  133OSM   H11A14266   0.938   3.989   2.020 -0.9109  0.9130 -0.2704
  133OSM   H11B14267   1.024   3.948   1.867 -0.5326 -1.3686 -0.8574
  133OSM      P14268   0.989   3.696   2.038  0.3632  0.1409 -0.1879
  133OSM    O1314269   0.907   3.586   2.090  0.2982  0.0210  0.2023
  133OSM    O1414270   1.113   3.654   1.976 -0.2554 -0.4221  0.1639
  133OSM    O1114271   1.024   3.800   2.155 -0.5519 -0.0408  0.2898
  133OSM    O1214272   0.906   3.791   1.934  0.5199  0.0121 -0.1723
  133OSM    C1S14273   0.941   3.816   2.272  0.1368  0.2251  0.0484
  133OSM    H1S14274   0.838   3.788   2.244  0.8372  0.0632 -2.7168
  133OSM    H1T14275   0.950   3.924   2.299  0.8068  0.3473 -0.6296
  133OSM     NF14276   0.929   3.801   2.518  0.2105 -0.3281  1.0586
  133OSM    HNF14277   0.977   3.870   2.571  2.4434  0.2234 -1.4723
  133OSM    C2S14278   1.002   3.749   2.405  0.6530 -0.0368 -0.0477
  133OSM    H2S14279   0.976   3.641   2.396 -2.2342  0.4374  1.3682
  133OSM    C3S14280   1.147   3.775   2.428  0.4277  0.1779  0.0208
  133OSM    H3S14281   1.152   3.883   2.450  0.0443  0.1290  0.3541
  133OSM     O314282   1.239   3.760   2.319  0.3995  0.6919  0.3180
  133OSM    HO314283   1.177   3.762   2.245  0.8784 -0.6750 -0.1442
  133OSM    C4S14284   1.196   3.715   2.553 -1.1988  0.0052  0.0057
  133OSM    H4S14285   1.183   3.786   2.637  1.1229 -1.0198  1.3176
  133OSM    C5S14286   1.265   3.602   2.588 -0.0346  0.5459 -0.2107
  133OSM    H5S14287   1.296   3.535   2.507 -0.2624  2.5769 -2.0863
  133OSM    C6S14288   1.297   3.558   2.730  0.3423  0.4918 -0.0930
  133OSM    H6S14289   1.406   3.565   2.753  1.0514  1.1024 -3.1665
  133OSM    H6T14290   1.277   3.450   2.749  0.4170  0.4055 -0.4931
  133OSM    C7S14291   1.214   3.641   2.841 -0.3837  0.5477  0.3998
  133OSM    H7S14292   1.106   3.645   2.812 -0.1947 -1.8499 -0.9682
  133OSM    H7T14293   1.256   3.743   2.855  0.5355  0.1375  0.7048
  133OSM    C8S14294   1.220   3.575   2.978  0.1799  0.3258 -0.1638
  133OSM    H8S14295   1.326   3.541   2.984  0.6312  1.8792  3.1394
  133OSM    H8T14296   1.144   3.495   2.996  0.6856 -0.8349 -2.7022
  133OSM    C9S14297   1.222   3.672   3.097 -0.1773  0.8925  0.8687
  133OSM    H9S14298   1.131   3.736   3.097 -1.2684 -0.3889 -2.8856
  133OSM    H9T14299   1.316   3.729   3.089  0.9473 -0.9164  0.6693
  133OSM   C10S14300   1.229   3.606   3.237  0.1382  0.0734  0.1251
  133OSM   H10S14301   1.302   3.523   3.243 -0.8490 -0.9135 -0.8541
  133OSM   H10T14302   1.129   3.564   3.262  0.6961 -0.2206  2.0004
  133OSM   C11S14303   1.268   3.692   3.352 -0.0426 -0.2434  0.2089
  133OSM   H11S14304   1.197   3.775   3.374 -0.0557  0.0322 -0.8023
  133OSM   H11T14305   1.361   3.748   3.329 -0.4676  0.4976  0.2518
  133OSM   C12S14306   1.283   3.611   3.481 -0.5032  0.3541 -0.4067
  133OSM   H12S14307   1.344   3.522   3.455  2.5495  2.3071 -0.4981
  133OSM   H12T14308   1.180   3.592   3.516  0.0256 -1.8006  0.1207
  133OSM   C13S14309   1.359   3.683   3.591 -0.6973 -0.3221  0.3963
  133OSM   H13S14310   1.319   3.786   3.591  2.0098  0.8162  1.8358
  133OSM   H13T14311   1.461   3.687   3.547 -0.3951  1.4003  1.1872
  133OSM   C14S14312   1.360   3.623   3.729  0.0653  0.8141 -0.0185
  133OSM   H14S14313   1.428   3.537   3.746  0.6831  1.0239 -1.3198
  133OSM   H14T14314   1.254   3.597   3.752 -0.4805  1.5958 -1.5328
  133OSM   C15S14315   1.418   3.727   3.826 -0.6049  0.4626 -0.4743
  133OSM   H15S14316   1.490   3.794   3.773 -1.5891  0.2626 -2.1271
  133OSM   H15T14317   1.469   3.673   3.908  0.5387  0.9451 -0.8394
  133OSM   C16S14318   1.306   3.810   3.886  0.7263  0.6159  0.6087
  133OSM   H16S14319   1.281   3.779   3.990 -3.2202  0.0678 -0.3205
  133OSM   H16T14320   1.212   3.799   3.828  1.0921  3.4282 -0.6692
  133OSM   C17S14321   1.327   3.963   3.899  0.3740  0.3545  0.2491
  133OSM   H17S14322   1.433   3.980   3.927  0.7984 -0.1285 -0.9890
  133OSM   H17T14323   1.270   4.000   3.987 -1.2374  3.9867 -2.0769
  133OSM   C18S14324   1.297   4.047   3.777 -0.2283 -0.2877 -0.2551
  133OSM   H18S14325   1.354   4.015   3.688  1.4456  1.3527  0.1592
  133OSM   H18T14326   1.315   4.156   3.790  2.2815 -0.5487 -1.0415
  133OSM   H18U14327   1.189   4.039   3.755 -0.4407 -1.0870  0.9644
  133OSM    C1F14328   0.808   3.749   2.567 -0.1291  0.3457 -0.1405
  133OSM     OF14329   0.759   3.656   2.502  0.2496  0.0367 -0.5662
  133OSM    C2F14330   0.749   3.808   2.693 -0.3923  0.7089 -0.2449
  133OSM    H2F14331   0.649   3.851   2.670 -1.6005 -1.9619 -0.3769
  133OSM    H2G14332   0.812   3.893   2.727 -0.1711 -0.1203  1.5419
  133OSM    C3F14333   0.732   3.699   2.809 -0.0955 -0.5830 -0.6842
  133OSM    H3F14334   0.831   3.651   2.824 -1.0317 -1.7979  2.4850
  133OSM    H3G14335   0.659   3.622   2.775  1.3271 -2.1991 -0.2323
  133OSM    C4F14336   0.678   3.762   2.933 -0.2634 -0.0658 -0.0513
  133OSM    H4F14337   0.653   3.676   2.998 -0.6326 -0.0806 -0.2083
  133OSM    H4G14338   0.585   3.819   2.912 -1.0071 -0.9044  0.8791
  133OSM    C5F14339   0.779   3.852   3.006  0.4247  0.1145  0.0047
  133OSM    H5F14340   0.786   3.952   2.957 -2.1412 -0.2644 -1.3365
  133OSM    H5G14341   0.877   3.800   3.017  0.1325 -0.2341  1.0290
  133OSM    C6F14342   0.721   3.868   3.152  0.3008  0.2522 -0.1735
  133OSM    H6F14343   0.754   3.780   3.211 -0.0320  1.8015  2.4807
  133OSM    H6G14344   0.611   3.869   3.142  0.3051  0.4857 -0.2218
  133OSM    C7F14345   0.757   4.007   3.202  0.0242 -0.7438 -0.2812
  133OSM    H7F14346   0.711   4.080   3.132  1.3597 -0.3171 -0.7280
  133OSM    H7G14347   0.864   4.026   3.180 -0.2399  1.5538  0.0857
  133OSM    C8F14348   0.728   4.032   3.354  0.3695 -0.4011 -0.0319
  133OSM    H8F14349   0.623   3.997   3.368  1.1765 -2.6504  0.8561
  133OSM    H8G14350   0.740   4.140   3.372  2.4972 -0.4819 -0.7002
  133OSM    C9F14351   0.805   3.940   3.443 -1.0406 -1.0173 -0.4102
  133OSM    H9F14352   0.913   3.940   3.421 -0.7018 -0.9000  1.1319
  133OSM   C10F14353   0.768   3.882   3.557 -0.1071  0.1174 -0.0298
  133OSM   H10F14354   0.845   3.828   3.614  0.4723  0.6786 -0.2739
  133OSM   C11F14355   0.630   3.879   3.609 -0.3028 -0.4520 -0.0010
  133OSM   H11F14356   0.602   3.772   3.621 -0.5971 -0.2930  0.7747
  133OSM   H11G14357   0.552   3.926   3.545 -1.4199  0.2718  1.8173
  133OSM   C12F14358   0.624   3.948   3.747 -0.0503  0.3170 -0.1355
  133OSM   H12F14359   0.679   4.043   3.761  0.3611  0.0337  0.2401
  133OSM   H12G14360   0.667   3.876   3.820  1.1589  0.1175 -1.0073
  133OSM   C13F14361   0.474   3.977   3.786 -0.4274  0.1829  0.3917
  133OSM   H13F14362   0.422   4.030   3.704  2.5410  1.0268 -1.0831
  133OSM   H13G14363   0.475   4.032   3.883 -0.8839 -1.9214  1.6433
  133OSM   C14F14364   0.402   3.847   3.826 -0.1128 -0.1799 -0.3650
  133OSM   H14F14365   0.397   3.775   3.741 -0.5472  1.5023 -1.8141
  133OSM   H14G14366   0.295   3.863   3.851  0.4834  1.2186  1.4822
  133OSM   C15F14367   0.452   3.761   3.947  0.2859 -0.6048  0.0389
  133OSM   H15F14368   0.560   3.745   3.931  0.4927  2.3764 -2.4943
  133OSM   H15G14369   0.378   3.677   3.950  1.7292 -2.0582 -2.0428
  133OSM   C16F14370   0.457   3.839   4.080  0.0517  0.0321  0.4174
  133OSM   H16F14371   0.354   3.882   4.082  0.1300  0.3882 -1.3272
  133OSM   H16G14372   0.526   3.924   4.065 -0.5980  0.7172  1.2359
  133OSM   C17F14373   0.482   3.754   4.205 -0.5513 -0.3542 -0.3212
  133OSM   H17F14374   0.384   3.708   4.231 -0.8966  0.9315  0.7612
  133OSM   H17G14375   0.506   3.827   4.285 -0.7251 -0.9939  0.3217
  133OSM   C18F14376   0.588   3.656   4.183 -1.2398  0.6190  0.0948
  133OSM   H18F14377   0.620   3.601   4.275 -1.8022 -1.4272 -0.8735
  133OSM   H18G14378   0.682   3.709   4.156 -0.8992 -0.1134 -0.1758
  133OSM   H18H14379   0.562   3.584   4.103 -2.2711 -1.0846  1.8486
  134OSM      N14380   0.979   0.199   1.692 -0.2706 -0.2787 -0.0725
  134OSM    C1514381   0.901   0.197   1.557 -0.1750  0.3493  0.3531
  134OSM   H15A14382   0.893   0.098   1.515  1.3906  0.0968  0.5762
  134OSM   H15B14383   0.952   0.264   1.488 -0.7586  0.0224 -0.4081
  134OSM   H15C14384   0.802   0.238   1.565 -1.4085 -2.1628 -0.8104
  134OSM    C1414385   0.919   0.095   1.782 -0.2452  0.5633 -0.5409
  134OSM   H14A14386   0.824   0.131   1.818  0.7298  0.4307  2.4437
  134OSM   H14B14387   0.981   0.086   1.870 -0.4467  2.8970 -0.1142
  134OSM   H14C14388   0.884   0.007   1.730 -0.2490  0.2028  0.0560
  134OSM    C1314389   1.124   0.153   1.661 -0.4417 -0.0914 -0.6795
  134OSM   H13A14390   1.178   0.221   1.596  3.2105 -2.5797 -0.5625
  134OSM   H13B14391   1.131   0.053   1.621 -0.6910  0.1399 -1.3129
  134OSM   H13C14392   1.183   0.147   1.751 -1.4701  0.0782  0.0212
  134OSM    C1214393   0.981   0.333   1.763 -0.0763  0.8188 -0.0995
  134OSM   H12A14394   1.025   0.404   1.694 -1.5178  1.2059 -0.6530
  134OSM   H12B14395   1.053   0.317   1.841  0.5478 -0.1914 -0.8594
  134OSM    C1114396   0.848   0.388   1.822 -0.7773 -0.1263 -0.0298
  134OSM   H11A14397   0.823   0.328   1.913  2.4411  0.6286  1.4844
  134OSM   H11B14398   0.772   0.397   1.742 -1.6440  2.5332  0.9990
  134OSM      P14399   0.743   0.611   1.913 -0.2981  0.2757  0.2998
  134OSM    O1314400   0.778   0.758   1.919  0.3381 -0.3431  0.0725
  134OSM    O1414401   0.629   0.574   1.837 -0.8721 -0.3423 -0.0277
  134OSM    O1114402   0.727   0.557   2.063 -0.4270 -0.3436  0.2044
  134OSM    O1214403   0.871   0.520   1.871 -0.3423  0.1148  0.1357
  134OSM    C1S14404   0.838   0.579   2.152 -0.4122  0.1338  0.4494
  134OSM    H1S14405   0.853   0.689   2.161 -4.5715  1.1744 -2.3406
  134OSM    H1T14406   0.925   0.539   2.097 -1.2296 -0.9769 -0.0727
  134OSM     NF14407   0.934   0.553   2.384 -0.4154 -0.2719  0.5717
  134OSM    HNF14408   0.984   0.484   2.436 -1.6887 -1.1354  0.7197
  134OSM    C2S14409   0.824   0.505   2.291 -0.5301 -0.1996  0.5416
  134OSM    H2S14410   0.724   0.533   2.330 -0.8854 -0.1565 -0.3725
  134OSM    C3S14411   0.811   0.348   2.278 -0.2732 -0.0594 -0.6950
  134OSM    H3S14412   0.907   0.312   2.235 -1.0094 -0.3616 -2.1485
  134OSM     O314413   0.721   0.312   2.178 -0.1367 -0.4793  0.3964
  134OSM    HO314414   0.707   0.396   2.134 -1.9620 -1.6740 -1.5803
  134OSM    C4S14415   0.779   0.289   2.416  0.0751 -0.4604 -0.0926
  134OSM    H4S14416   0.693   0.336   2.466 -0.1440 -1.8284  0.8777
  134OSM    C5S14417   0.820   0.174   2.466 -0.1388 -0.5901  0.2688
  134OSM    H5S14418   0.890   0.112   2.408  1.9289  0.2364  1.7624
  134OSM    C6S14419   0.771   0.111   2.594 -0.1798 -0.1835 -0.1067
  134OSM    H6S14420   0.797   0.003   2.599  2.1615  0.3774  1.9307
  134OSM    H6T14421   0.663   0.126   2.619 -0.0792  1.3532 -0.4948
  134OSM    C7S14422   0.845   0.190   2.695  0.0226  0.4142 -0.8513
  134OSM    H7S14423   0.815   0.297   2.705 -1.6802 -0.1964  1.1802
  134OSM    H7T14424   0.954   0.194   2.674  0.1060 -0.8588 -0.7284
  134OSM    C8S14425   0.822   0.126   2.837 -0.3266 -0.0887  0.5659
  134OSM    H8S14426   0.831   0.016   2.838  0.8559 -0.0720 -1.8580
  134OSM    H8T14427   0.717   0.145   2.870 -0.5696 -0.7464  0.1741
  134OSM    C9S14428   0.917   0.184   2.940  0.1708  0.2730 -0.2209
  134OSM    H9S14429   0.925   0.295   2.939  0.7293  0.3748  3.1976
  134OSM    H9T14430   1.023   0.164   2.912  1.0278  1.7422  1.6799
  134OSM   C10S14431   0.888   0.125   3.084 -0.3259  0.1502 -0.3774
  134OSM   H10S14432   0.921   0.019   3.080 -1.1961 -0.1066 -0.8378
  134OSM   H10T14433   0.781   0.117   3.111 -0.3704 -3.9049 -1.0724
  134OSM   C11S14434   0.956   0.198   3.198 -0.7478 -0.7950  0.5510
  134OSM   H11S14435   0.905   0.294   3.220 -0.2547 -0.6378  1.0404
  134OSM   H11T14436   1.053   0.227   3.154 -1.6129  1.0877 -0.2396
  134OSM   C12S14437   0.975   0.128   3.329 -0.6247 -0.4970  0.1680
  134OSM   H12S14438   1.008   0.023   3.311 -1.2616 -0.4887 -1.1994
  134OSM   H12T14439   0.878   0.107   3.379 -0.5924 -2.7904 -0.5814
  134OSM   C13S14440   1.060   0.197   3.423  0.6143  0.0909 -0.1986
  134OSM   H13S14441   1.018   0.297   3.446 -1.0477 -0.9780  1.8260
  134OSM   H13T14442   1.166   0.208   3.394  0.5895  0.3712 -0.1798
  134OSM   C14S14443   1.053   0.115   3.558  0.1672  0.3716  0.7048
  134OSM   H14S14444   1.124   0.029   3.552  0.7697  0.5926  3.2312
  134OSM   H14T14445   0.949   0.080   3.576  0.6447 -0.4661  1.9977
  134OSM   C15S14446   1.089   0.200   3.678  0.2685  0.6968 -0.1046
  134OSM   H15S14447   1.014   0.281   3.676 -2.7283 -1.8607  0.3764
  134OSM   H15T14448   1.193   0.238   3.672  0.4591  0.4333  1.1005
  134OSM   C16S14449   1.088   0.119   3.811 -0.3616 -0.8964 -0.2077
  134OSM   H16S14450   0.986   0.080   3.829 -1.0650  0.5369 -0.9542
  134OSM   H16T14451   1.106   0.194   3.891 -0.8350 -0.2608 -0.6896
  134OSM   C17S14452   1.189   0.003   3.819  0.6291  0.1791 -0.4301
  134OSM   H17S14453   1.289   0.038   3.785  0.8957  1.0257  1.1282
  134OSM   H17T14454   1.145  -0.074   3.752 -0.3893  0.1772  0.2265
  134OSM   C18S14455   1.203  -0.068   3.958  0.3047 -0.4915  0.2700
  134OSM   H18S14456   1.273  -0.153   3.945  1.9424  1.1973 -3.4273
  134OSM   H18T14457   1.108  -0.111   3.996  0.5823  1.6962  3.9379
  134OSM   H18U14458   1.234   0.005   4.036  0.7368  0.5932 -0.8763
  134OSM    C1F14459   0.939   0.675   2.430  0.5287 -0.1214  0.2735
  134OSM     OF14460   0.883   0.771   2.376 -0.1241 -0.1372  0.0949
  134OSM    C2F14461   1.017   0.696   2.555 -0.3195 -0.7283  0.0242
  134OSM    H2F14462   1.096   0.773   2.546 -0.2626 -0.4208  2.4233
  134OSM    H2G14463   1.063   0.598   2.581 -1.3250 -1.1404  0.2876
  134OSM    C3F14464   0.926   0.732   2.677 -0.8550  1.1277 -0.0265
  134OSM    H3F14465   0.839   0.664   2.686  0.5226 -0.5719  1.2532
  134OSM    H3G14466   0.907   0.841   2.673  2.1507  1.8153  1.3048
  134OSM    C4F14467   1.008   0.717   2.809  0.2404  0.2855  0.1520
  134OSM    H4F14468   0.947   0.765   2.888 -0.6723 -1.7099  0.7274
  134OSM    H4G14469   1.107   0.766   2.798  0.6825 -0.9381 -2.2574
  134OSM    C5F14470   1.036   0.571   2.843 -0.7099 -0.3194  0.3793
  134OSM    H5F14471   1.139   0.562   2.802 -0.9344  2.3620 -1.0103
  134OSM    H5G14472   0.965   0.507   2.786 -0.6854  1.1888 -1.4337
  134OSM    C6F14473   1.029   0.548   2.990 -0.2705 -0.4021 -1.1312
  134OSM    H6F14474   1.059   0.441   3.000 -0.2760 -0.4387 -1.4746
  134OSM    H6G14475   0.928   0.554   3.034 -0.0564 -1.1917 -0.4983
  134OSM    C7F14476   1.120   0.632   3.091 -0.1824 -0.2207 -0.0348
  134OSM    H7F14477   1.123   0.736   3.054  1.1139  0.2928  1.4266
  134OSM    H7G14478   1.229   0.610   3.087  0.4460  2.2397  1.2997
  134OSM    C8F14479   1.066   0.629   3.237  0.2046  0.8966 -0.3803
  134OSM    H8F14480   1.048   0.526   3.274 -0.0788  1.4034  0.9442
  134OSM    H8G14481   0.960   0.662   3.233 -0.4847 -0.8512  1.8345
  134OSM    C9F14482   1.154   0.704   3.339 -0.5826  0.0638  0.1218
  134OSM    H9F14483   1.215   0.787   3.300  1.2488 -1.9106 -1.5639
  134OSM   C10F14484   1.173   0.669   3.467  0.3113  0.1858 -0.1300
  134OSM   H10F14485   1.258   0.720   3.515  0.3957 -0.7865  0.7953
  134OSM   C11F14486   1.107   0.552   3.536 -0.4002  0.9250 -0.0565
  134OSM   H11F14487   1.179   0.468   3.546 -1.4882 -0.0023  0.3197
  134OSM   H11G14488   1.032   0.504   3.470 -0.2018  1.7369 -0.8852
  134OSM   C12F14489   1.050   0.589   3.672  0.7138  0.2432 -0.0149
  134OSM   H12F14490   1.000   0.497   3.707  1.0096 -0.3998 -1.2331
  134OSM   H12G14491   0.970   0.666   3.664 -0.0725 -0.6101 -0.5611
  134OSM   C13F14492   1.164   0.624   3.769 -0.2885  0.8428  0.3052
  134OSM   H13F14493   1.207   0.725   3.747 -0.5908  0.5776 -1.7308
  134OSM   H13G14494   1.237   0.541   3.756 -2.0813 -0.7350 -0.1127
  134OSM   C14F14495   1.100   0.634   3.910  0.1810  0.0058  0.5442
  134OSM   H14F14496   1.079   0.532   3.948  0.5254  0.3659  1.7128
  134OSM   H14G14497   0.998   0.677   3.894 -0.3979 -1.4560  0.1112
  134OSM   C15F14498   1.181   0.707   4.011 -0.1976 -0.1994  0.7557
  134OSM   H15F14499   1.199   0.808   3.967  0.0222 -0.6706 -0.2559
  134OSM   H15G14500   1.276   0.655   4.031 -0.0770  0.9777  3.6411
  134OSM   C16F14501   1.109   0.732   4.141  0.0235  0.2425 -0.3696
  134OSM   H16F14502   1.083   0.632   4.183  0.6365  0.5264  0.7033
  134OSM   H16G14503   1.022   0.795   4.111  3.0262  3.7358 -2.6486
  134OSM   C17F14504   1.204   0.814   4.238  0.3235  0.2558  0.3777
  134OSM   H17F14505   1.306   0.769   4.239 -0.0942 -0.6922  0.6929
  134OSM   H17G14506   1.161   0.807   4.339  1.0304  1.9150  0.8419
  134OSM   C18F14507   1.235   0.959   4.197 -0.2600  0.2547  0.3347
  134OSM   H18F14508   1.318   0.997   4.261  1.8611 -1.2339 -1.4232
  134OSM   H18G14509   1.145   1.022   4.215  0.3645  1.8813 -1.8521
  134OSM   H18H14510   1.270   0.969   4.092 -0.2501  1.5756  0.4482
  135OSM      N14511   3.138   1.867   1.760  0.1117 -0.4472  0.0539
  135OSM    C1514512   3.230   1.823   1.858 -0.4633  0.8075  0.4364
  135OSM   H15A14513   3.179   1.785   1.946 -0.4886 -0.3835 -0.0729
  135OSM   H15B14514   3.301   1.897   1.892 -0.1174  0.7522 -0.1581
  135OSM   H15C14515   3.278   1.735   1.817 -1.8949  1.1402 -2.1714
  135OSM    C1414516   3.212   1.903   1.633  0.2714 -0.1633 -0.5784
  135OSM   H14A14517   3.263   1.815   1.599  0.2304 -0.5766  0.3961
  135OSM   H14B14518   3.275   1.990   1.645 -0.3864  0.2264  0.2143
  135OSM   H14C14519   3.143   1.941   1.559 -0.2390  0.1201  0.0218
  135OSM    C1314520   3.043   1.755   1.733  0.0254  0.3686  0.0153
  135OSM   H13A14521   2.965   1.783   1.664  0.0746 -1.8739 -1.0276
  135OSM   H13B14522   2.993   1.721   1.822  1.6616 -0.1553  0.7726
  135OSM   H13C14523   3.099   1.674   1.688  0.6904  0.8387 -0.0221
  135OSM    C1214524   3.076   1.998   1.814 -0.2805 -0.3256  0.5240
  135OSM   H12A14525   2.997   2.033   1.749 -1.5705 -1.2182  1.5488
  135OSM   H12B14526   3.144   2.082   1.809  0.8342 -1.2487 -0.3370
  135OSM    C1114527   3.008   2.006   1.955  0.4976 -0.0746  0.3278
  135OSM   H11A14528   2.979   2.112   1.973 -3.6288 -1.0499  0.5386
  135OSM   H11B14529   3.079   1.965   2.029  0.7156  0.3098  0.3326
  135OSM      P14530   2.758   1.951   1.881  0.4708  0.2794 -0.1627
  135OSM    O1314531   2.786   1.998   1.742 -0.3488  0.5503 -0.1799
  135OSM    O1414532   2.657   1.842   1.900 -0.1699 -0.1864 -0.9297
  135OSM    O1114533   2.704   2.072   1.961 -0.3123 -0.5469 -0.1873
  135OSM    O1214534   2.893   1.917   1.960  0.8094  0.4033  0.3713
  135OSM    C1S14535   2.646   2.057   2.091  0.4666 -0.6575  0.1667
  135OSM    H1S14536   2.629   1.955   2.132  1.0616 -1.5184 -1.6313
  135OSM    H1T14537   2.545   2.103   2.089  0.4457 -0.7089  0.0434
  135OSM     NF14538   2.672   2.094   2.336 -0.4319  0.5011 -0.7545
  135OSM    HNF14539   2.617   2.154   2.393  2.5501  2.8070 -0.0593
  135OSM    C2S14540   2.716   2.143   2.203 -0.2454  0.6616  0.3078
  135OSM    H2S14541   2.826   2.125   2.211 -0.2496  0.4187 -0.1359
  135OSM    C3S14542   2.697   2.296   2.172  0.1501  0.4874  0.1103
  135OSM    H3S14543   2.593   2.325   2.198 -0.6673 -0.2542 -2.0730
  135OSM     O314544   2.704   2.329   2.037 -0.0771  0.1202  0.0440
  135OSM    HO314545   2.727   2.251   1.988 -0.5024  0.0683 -0.0762
  135OSM    C4S14546   2.788   2.383   2.248 -0.3982 -0.1021 -0.8691
  135OSM    H4S14547   2.894   2.352   2.254  0.4373  2.5576 -0.6642
  135OSM    C5S14548   2.758   2.490   2.324  0.0442 -0.1717  0.2156
  135OSM    H5S14549   2.654   2.523   2.334  0.9802  3.1644  0.2947
  135OSM    C6S14550   2.849   2.564   2.415 -0.1396  0.8179  0.3077
  135OSM    H6S14551   2.824   2.672   2.408 -1.7903  0.3663 -1.3324
  135OSM    H6T14552   2.957   2.542   2.398 -0.3213 -1.0380  1.2668
  135OSM    C7S14553   2.827   2.531   2.565 -0.9290 -0.5039  1.1591
  135OSM    H7S14554   2.853   2.423   2.569 -0.9301 -0.6492 -1.2304
  135OSM    H7T14555   2.725   2.555   2.603 -1.3000 -1.3656  0.7210
  135OSM    C8S14556   2.923   2.597   2.661 -0.3365 -0.0342  0.1026
  135OSM    H8S14557   2.916   2.708   2.659 -0.5678 -0.0569 -2.0873
  135OSM    H8T14558   3.030   2.581   2.633 -0.6245 -1.6911 -0.1904
  135OSM    C9S14559   2.905   2.555   2.806  0.0607  0.5795  0.1901
  135OSM    H9S14560   2.893   2.444   2.806 -0.4121  0.6205  1.1002
  135OSM    H9T14561   2.808   2.596   2.838 -0.9689 -0.7118 -1.1247
  135OSM   C10S14562   3.021   2.611   2.887 -0.0290  0.1325 -0.3264
  135OSM   H10S14563   3.022   2.721   2.871  0.4325  0.2775  0.6070
  135OSM   H10T14564   3.123   2.579   2.858 -0.3748  0.2381 -1.6911
  135OSM   C11S14565   3.012   2.590   3.036 -0.2261 -0.4731 -0.1442
  135OSM   H11S14566   3.109   2.620   3.081 -0.7599 -1.1726  1.5322
  135OSM   H11T14567   2.990   2.483   3.054  0.7317 -0.5290  0.7578
  135OSM   C12S14568   2.910   2.661   3.109  0.4210  0.0827 -1.0531
  135OSM   H12S14569   2.810   2.638   3.066  0.8102  1.5827 -2.8690
  135OSM   H12T14570   2.923   2.770   3.091 -0.1035  0.4523  0.6314
  135OSM   C13S14571   2.913   2.640   3.260 -0.1843  0.4115  0.1993
  135OSM   H13S14572   3.010   2.673   3.304 -0.0679  0.7169 -0.2823
  135OSM   H13T14573   2.906   2.533   3.288 -0.6095  0.5398  0.6044
  135OSM   C14S14574   2.804   2.715   3.335 -0.2950  0.6861 -0.2938
  135OSM   H14S14575   2.708   2.677   3.295  0.2345  0.1870 -1.1289
  135OSM   H14T14576   2.817   2.821   3.307  0.9413  0.5676 -0.2356
  135OSM   C15S14577   2.821   2.695   3.486  0.1872  0.4865 -0.4566
  135OSM   H15S14578   2.926   2.695   3.524  0.6280  0.1850 -1.6351
  135OSM   H15T14579   2.771   2.600   3.515  0.6512  0.4187  0.1387
  135OSM   C16S14580   2.758   2.800   3.578 -0.1660  0.1546 -0.2174
  135OSM   H16S14581   2.650   2.783   3.598  0.7208 -1.1575  5.0876
  135OSM   H16T14582   2.773   2.905   3.545  2.0420  0.6747  2.1485
  135OSM   C17S14583   2.815   2.791   3.723  0.4584 -0.5954  0.6895
  135OSM   H17S14584   2.925   2.772   3.721  0.6144  0.3360 -0.4000
  135OSM   H17T14585   2.759   2.709   3.772  0.0333 -1.5737 -1.3302
  135OSM   C18S14586   2.787   2.918   3.811  0.3415  0.2916 -0.1872
  135OSM   H18S14587   2.684   2.957   3.798  0.7240  1.6768  0.7137
  135OSM   H18T14588   2.859   3.001   3.796  2.6039 -1.4233  0.6722
  135OSM   H18U14589   2.805   2.893   3.918  2.1983  0.8795 -0.3361
  135OSM    C1F14590   2.690   1.970   2.396  0.1972 -0.0887  0.4771
  135OSM     OF14591   2.765   1.883   2.355 -0.0963  0.5003  0.0541
  135OSM    C2F14592   2.610   1.947   2.518 -0.4319 -0.5542 -0.8178
  135OSM    H2F14593   2.504   1.974   2.498  0.0319  2.9024  0.6054
  135OSM    H2G14594   2.662   2.019   2.586 -1.2289  0.9421 -1.7351
  135OSM    C3F14595   2.627   1.807   2.556  0.4338  0.2045 -0.7102
  135OSM    H3F14596   2.734   1.782   2.568  0.3909 -0.0901 -0.9063
  135OSM    H3G14597   2.584   1.731   2.486 -0.4851 -0.9263  0.9859
  135OSM    C4F14598   2.552   1.784   2.693 -0.2455 -0.5800 -0.2175
  135OSM    H4F14599   2.444   1.791   2.671  0.1831  0.6210 -2.2026
  135OSM    H4G14600   2.585   1.857   2.770  0.9790 -3.4815  2.2703
  135OSM    C5F14601   2.583   1.641   2.739  0.6354 -0.2748 -0.7926
  135OSM    H5F14602   2.693   1.624   2.743  0.7249 -1.2231 -4.0911
  135OSM    H5G14603   2.538   1.564   2.672  0.0851 -0.0348 -0.7048
  135OSM    C6F14604   2.512   1.621   2.875  0.2434  0.6527  0.1304
  135OSM    H6F14605   2.404   1.631   2.853 -0.6543 -2.3127  2.5548
  135OSM    H6G14606   2.544   1.697   2.949 -0.5054  2.2333 -1.1094
  135OSM    C7F14607   2.537   1.479   2.930  0.7174 -1.1306  0.2307
  135OSM    H7F14608   2.648   1.467   2.932  0.8152 -0.5981 -0.8802
  135OSM    H7G14609   2.492   1.404   2.861 -0.5297 -0.1754 -0.0312
  135OSM    C8F14610   2.472   1.467   3.068  0.4513  0.3265  0.1714
  135OSM    H8F14611   2.364   1.486   3.051  0.3427 -1.4198 -1.3850
  135OSM    H8G14612   2.525   1.539   3.134  0.2305  1.1228 -0.5128
  135OSM    C9F14613   2.485   1.328   3.133 -0.3771 -0.7388  0.4028
  135OSM    H9F14614   2.454   1.244   3.070  1.5183 -0.0803 -1.5281
  135OSM   C10F14615   2.510   1.310   3.266 -0.0633  0.4764 -0.5167
  135OSM   H10F14616   2.519   1.205   3.298  0.0784  0.2198 -1.3755
  135OSM   C11F14617   2.531   1.406   3.374  0.0332 -0.6680 -0.3318
  135OSM   H11F14618   2.602   1.483   3.337  1.4502 -1.5522  0.4353
  135OSM   H11G14619   2.567   1.358   3.468 -0.7502  0.6828  0.7009
  135OSM   C12F14620   2.395   1.472   3.405  0.2003  0.3997 -0.0517
  135OSM   H12F14621   2.319   1.401   3.444 -0.5096  1.6896  0.9974
  135OSM   H12G14622   2.343   1.515   3.317 -2.5420  1.8847  2.1245
  135OSM   C13F14623   2.412   1.585   3.504 -0.0662  0.1839  0.8263
  135OSM   H13F14624   2.504   1.641   3.478  0.2077 -0.5195  0.2543
  135OSM   H13G14625   2.428   1.544   3.606  2.1196 -0.5122  0.2465
  135OSM   C14F14626   2.291   1.680   3.505  0.1852  0.1576 -0.3113
  135OSM   H14F14627   2.251   1.712   3.406 -2.6557  1.3446  1.0871
  135OSM   H14G14628   2.335   1.769   3.555  0.7880  0.3330 -1.1325
  135OSM   C15F14629   2.180   1.631   3.596  0.1051  0.3488  0.1335
  135OSM   H15F14630   2.225   1.579   3.683  0.3266 -0.5160 -0.4793
  135OSM   H15G14631   2.109   1.562   3.546 -2.1079  1.6606  1.3083
  135OSM   C16F14632   2.096   1.743   3.654  0.0630 -0.5502 -1.2564
  135OSM   H16F14633   2.157   1.816   3.711 -1.1083 -0.3667 -0.2115
  135OSM   H16G14634   2.022   1.697   3.723  1.2793  0.0824  0.5413
  135OSM   C17F14635   2.008   1.810   3.548 -0.2096 -0.3758  0.2090
  135OSM   H17F14636   2.019   1.770   3.445  0.1127 -0.2089  0.1798
  135OSM   H17G14637   2.033   1.917   3.534 -3.1580  0.2894 -0.8693
  135OSM   C18F14638   1.855   1.813   3.576  0.4805  0.1540  0.0912
  135OSM   H18F14639   1.837   1.836   3.684 -0.1039  0.1728 -0.0073
  135OSM   H18G14640   1.819   1.710   3.556 -0.6479  0.9551 -2.2523
  135OSM   H18H14641   1.818   1.891   3.506  0.2926  1.1152  1.2259
  136OSM      N14642   5.511   5.526   1.449 -0.0172  0.0948 -0.2807
  136OSM    C1514643   5.527   5.414   1.351  0.3225  0.7262 -0.0018
  136OSM   H15A14644   5.532   5.453   1.250 -0.0531  1.4556  0.2559
  136OSM   H15B14645   5.444   5.347   1.369 -0.5158  1.7052 -0.0965
  136OSM   H15C14646   5.612   5.352   1.375 -1.1462 -0.4608  2.6282
  136OSM    C1414647   5.637   5.611   1.430  0.4337  0.0773 -0.0472
  136OSM   H14A14648   5.632   5.647   1.328 -0.8453 -1.1752 -0.4608
  136OSM   H14B14649   5.729   5.555   1.432 -0.7966 -2.0108  1.6151
  136OSM   H14C14650   5.642   5.681   1.511 -1.2894 -0.5844  0.6731
  136OSM    C1314651   5.390   5.603   1.411  0.0103  0.0287 -0.0243
  136OSM   H13A14652   5.388   5.693   1.469  1.9049  0.0984  0.0124
  136OSM   H13B14653   5.299   5.550   1.432 -0.1082 -0.4727 -1.6328
  136OSM   H13C14654   5.397   5.626   1.305  1.8931 -2.5717 -0.5704
  136OSM    C1214655   5.499   5.473   1.589 -0.1688 -0.0185 -0.0959
  136OSM   H12A14656   5.567   5.390   1.597 -1.2068 -0.7840  1.2528
  136OSM   H12B14657   5.404   5.426   1.609 -0.7895  0.7683 -1.0951
  136OSM    C1114658   5.519   5.573   1.706  0.1493  0.6840  0.1645
  136OSM   H11A14659   5.621   5.616   1.714  0.3713  1.0781 -3.2061
  136OSM   H11B14660   5.505   5.525   1.805 -1.4910  1.6168  0.4160
  136OSM      P14661   5.277   5.648   1.727  0.2228  0.0440 -0.0969
  136OSM    O1314662   5.206   5.767   1.681 -0.0891  0.4828 -0.0028
  136OSM    O1414663   5.234   5.518   1.674  0.0548  0.1691 -0.1301
  136OSM    O1114664   5.266   5.638   1.884 -0.6523  0.6189  0.5541
  136OSM    O1214665   5.425   5.681   1.692 -0.5983 -0.0980  0.8608
  136OSM    C1S14666   5.351   5.730   1.958 -0.5863  0.4147 -0.4598
  136OSM    H1S14667   5.323   5.835   1.936  0.3622  0.7539 -0.1257
  136OSM    H1T14668   5.455   5.721   1.919 -1.0425 -1.1089 -1.3911
  136OSM     NF14669   5.364   5.820   2.196  0.0725  0.1352 -0.0864
  136OSM    HNF14670   5.431   5.803   2.268 -0.3988 -2.0632 -0.0924
  136OSM    C2S14671   5.326   5.702   2.117 -0.5569  0.7981  0.4872
  136OSM    H2S14672   5.216   5.687   2.115 -0.6326  1.1028 -2.2673
  136OSM    C3S14673   5.389   5.567   2.151  0.2286  0.1576 -0.2116
  136OSM    H3S14674   5.499   5.586   2.146  0.1248  0.6353 -0.8606
  136OSM     O314675   5.361   5.457   2.062  0.4662  0.3813 -0.6442
  136OSM    HO314676   5.306   5.495   1.994 -0.1946  0.2021 -0.2177
  136OSM    C4S14677   5.344   5.535   2.295  0.0421  0.0003  0.0348
  136OSM    H4S14678   5.421   5.555   2.370  0.9846  0.6878 -1.0953
  136OSM    C5S14679   5.227   5.482   2.344 -0.1729  0.3329  0.5067
  136OSM    H5S14680   5.145   5.456   2.276 -1.1587 -0.1885  1.8540
  136OSM    C6S14681   5.203   5.468   2.488 -0.5506  0.2016  0.1308
  136OSM    H6S14682   5.112   5.518   2.526 -1.2795 -1.8973  1.3075
  136OSM    H6T14683   5.295   5.495   2.544 -1.7081  2.8004  0.9024
  136OSM    C7S14684   5.189   5.312   2.509 -0.5501  0.6262  0.1200
  136OSM    H7S14685   5.279   5.257   2.475 -0.8728 -1.2853  2.1111
  136OSM    H7T14686   5.094   5.290   2.457 -0.7578  1.5352  0.0945
  136OSM    C8S14687   5.159   5.294   2.657 -0.2372 -0.2594 -0.0754
  136OSM    H8S14688   5.133   5.186   2.658 -0.6681 -0.1650  1.7447
  136OSM    H8T14689   5.076   5.352   2.703  1.0896  1.5414  0.1531
  136OSM    C9S14690   5.285   5.303   2.744  0.2554  0.2553 -0.1447
  136OSM    H9S14691   5.320   5.409   2.746 -0.7246  0.6085 -1.1149
  136OSM    H9T14692   5.360   5.234   2.700 -0.9344 -1.4631  0.4019
  136OSM   C10S14693   5.247   5.255   2.891 -0.9121 -0.5053 -0.7764
  136OSM   H10S14694   5.191   5.159   2.889 -0.6826 -0.8245  2.5171
  136OSM   H10T14695   5.176   5.330   2.932 -1.4705 -0.5775 -1.5860
  136OSM   C11S14696   5.377   5.232   2.972  0.3123  0.0068 -0.2529
  136OSM   H11S14697   5.459   5.297   2.935 -1.0740  0.2890 -3.1188
  136OSM   H11T14698   5.413   5.134   2.935 -0.6721  0.0261 -1.3087
  136OSM   C12S14699   5.355   5.241   3.127 -0.1629 -0.1896 -0.5344
  136OSM   H12S14700   5.275   5.169   3.152 -0.7577  0.1982 -1.2624
  136OSM   H12T14701   5.309   5.340   3.150 -0.1467  0.1850 -2.0025
  136OSM   C13S14702   5.484   5.219   3.207  0.3282  0.1939 -0.5853
  136OSM   H13S14703   5.553   5.304   3.185 -1.3658  1.5134 -1.0201
  136OSM   H13T14704   5.533   5.123   3.183 -1.1109 -0.8467  0.4955
  136OSM   C14S14705   5.458   5.234   3.361 -0.2782 -0.0465  0.0874
  136OSM   H14S14706   5.376   5.168   3.397 -0.8297  1.3363  1.5039
  136OSM   H14T14707   5.438   5.341   3.384  0.3627 -0.0094  0.5013
  136OSM   C15S14708   5.594   5.189   3.432  0.8935 -0.0919  0.2483
  136OSM   H15S14709   5.671   5.239   3.369  0.9778 -0.7555 -0.1862
  136OSM   H15T14710   5.606   5.080   3.419 -3.0544 -0.5953 -0.3252
  136OSM   C16S14711   5.619   5.245   3.574  0.0119  0.6020  0.1606
  136OSM   H16S14712   5.570   5.345   3.578 -2.6879 -0.6146 -0.1691
  136OSM   H16T14713   5.729   5.254   3.566  0.2314 -2.4718 -2.2842
  136OSM   C17S14714   5.582   5.161   3.699 -0.2508  0.5190  0.1707
  136OSM   H17S14715   5.630   5.220   3.780 -1.0362 -0.6067  1.5016
  136OSM   H17T14716   5.637   5.065   3.688 -0.2247  0.4808  0.5876
  136OSM   C18S14717   5.433   5.140   3.722 -0.2099 -0.3353  0.0284
  136OSM   H18S14718   5.376   5.093   3.639 -2.1708  1.8670 -0.0114
  136OSM   H18T14719   5.397   5.246   3.727  0.8362  0.0570 -0.4500
  136OSM   H18U14720   5.415   5.103   3.825 -0.4354  1.0682  0.5244
  136OSM    C1F14721   5.303   5.941   2.185  0.2057  0.3679 -0.3765
  136OSM     OF14722   5.227   5.959   2.098  0.8284  0.1374  0.2565
  136OSM    C2F14723   5.333   6.047   2.293 -0.2159  0.9213  0.1930
  136OSM    H2F14724   5.443   6.059   2.278 -0.4246  1.5981 -0.9359
  136OSM    H2G14725   5.308   5.998   2.389 -0.2768 -0.3072 -0.4384
  136OSM    C3F14726   5.257   6.173   2.266  0.4011 -0.1016  0.5594
  136OSM    H3F14727   5.148   6.154   2.276  0.5139 -1.3126 -0.2508
  136OSM    H3G14728   5.275   6.204   2.161 -1.8205 -3.5131 -1.0003
  136OSM    C4F14729   5.298   6.281   2.368 -0.4516 -0.1727  1.3698
  136OSM    H4F14730   5.268   6.382   2.334  1.5869  0.3955  1.0921
  136OSM    H4G14731   5.409   6.293   2.367 -0.6375  1.8972  1.1938
  136OSM    C5F14732   5.234   6.265   2.508  0.3571 -0.0292  0.2893
  136OSM    H5F14733   5.268   6.167   2.548 -0.6714 -1.2464 -1.6233
  136OSM    H5G14734   5.123   6.264   2.501  0.3761  1.9985 -1.3509
  136OSM    C6F14735   5.288   6.378   2.601 -0.7990 -0.1638 -0.1570
  136OSM    H6F14736   5.249   6.478   2.572  0.1945  0.8930  1.9116
  136OSM    H6G14737   5.395   6.400   2.583 -0.4817 -1.2404  0.3480
  136OSM    C7F14738   5.254   6.366   2.750 -0.5105  0.3978 -0.4775
  136OSM    H7F14739   5.274   6.264   2.790 -0.2560  1.6318  2.8844
  136OSM    H7G14740   5.143   6.368   2.761 -0.6734 -1.8238 -1.2177
  136OSM    C8F14741   5.325   6.471   2.837 -0.2675  1.1224  0.1183
  136OSM    H8F14742   5.286   6.566   2.795 -1.8805 -0.1403 -1.4046
  136OSM    H8G14743   5.436   6.476   2.834 -0.1000 -0.1626  2.2254
  136OSM    C9F14744   5.286   6.444   2.977  0.4507 -0.3787 -0.0957
  136OSM    H9F14745   5.195   6.496   3.011  1.8338  0.9145  1.8173
  136OSM   C10F14746   5.344   6.348   3.062  0.0485  0.0475  0.0199
  136OSM   H10F14747   5.313   6.332   3.166 -2.0881 -0.5553 -0.6585
  136OSM   C11F14748   5.472   6.274   3.037 -0.2141  0.4950 -0.0005
  136OSM   H11F14749   5.546   6.347   2.999 -1.6230  1.7315 -0.4427
  136OSM   H11G14750   5.458   6.211   2.947  2.3097  1.2391 -1.0100
  136OSM   C12F14751   5.539   6.192   3.154  0.9398  0.3129  0.8509
  136OSM   H12F14752   5.633   6.140   3.127  1.0757  1.3219 -0.7974
  136OSM   H12G14753   5.471   6.108   3.180  1.1605 -0.0852  0.1571
  136OSM   C13F14754   5.578   6.290   3.271 -0.3640  0.2117  1.0644
  136OSM   H13F14755   5.507   6.375   3.282  0.8135  1.0139  2.7305
  136OSM   H13G14756   5.674   6.337   3.241  0.0876 -1.8922 -1.1375
  136OSM   C14F14757   5.593   6.232   3.410  0.4283  0.1669  0.2846
  136OSM   H14F14758   5.496   6.192   3.447 -0.2548  1.4640 -0.0625
  136OSM   H14G14759   5.604   6.317   3.480 -0.2568  0.5469 -0.0604
  136OSM   C15F14760   5.715   6.141   3.429  0.2776 -0.6679 -0.2560
  136OSM   H15F14761   5.806   6.193   3.392 -0.7394  1.0376 -0.4701
  136OSM   H15G14762   5.702   6.044   3.376  0.1642 -1.6499  1.5064
  136OSM   C16F14763   5.735   6.087   3.573 -1.2634 -0.5627  0.1080
  136OSM   H16F14764   5.807   6.003   3.574 -1.4192 -0.7180  1.9127
  136OSM   H16G14765   5.639   6.039   3.603 -1.6748 -0.3328 -0.8090
  136OSM   C17F14766   5.782   6.193   3.672 -0.1061  0.0825  0.1034
  136OSM   H17F14767   5.718   6.284   3.675 -1.3685 -0.6515 -2.2993
  136OSM   H17G14768   5.884   6.219   3.636  0.2824  0.2630  1.2775
  136OSM   C18F14769   5.797   6.135   3.814  0.4205 -0.0150  0.3021
  136OSM   H18F14770   5.694   6.108   3.844  0.1349  0.8860  0.1555
  136OSM   H18G14771   5.818   6.220   3.881 -0.6434  2.1339 -1.9283
  136OSM   H18H14772   5.860   6.044   3.820 -1.5400 -1.4177  0.6584
  137OSM      N14773   3.696   2.537   1.842  0.4001  0.4302 -0.8226
  137OSM    C1514774   3.795   2.523   1.952  0.5004  0.5450 -0.5389
  137OSM   H15A14775   3.785   2.609   2.017 -1.8855 -0.0650 -0.0028
  137OSM   H15B14776   3.894   2.499   1.917  0.8692  0.8598  0.2686
  137OSM   H15C14777   3.773   2.434   2.010 -0.1876  1.5819  0.8351
  137OSM    C1414778   3.736   2.660   1.772  0.1193 -0.3191 -0.0521
  137OSM   H14A14779   3.703   2.746   1.828  0.5987  0.3159 -0.7169
  137OSM   H14B14780   3.691   2.656   1.674  0.0127  1.1241 -0.0797
  137OSM   H14C14781   3.843   2.658   1.752  0.2091  1.4848  0.0658
  137OSM    C1314782   3.694   2.419   1.753  0.1601  0.0842  0.8245
  137OSM   H13A14783   3.792   2.389   1.720 -0.6869 -0.5969 -1.2154
  137OSM   H13B14784   3.632   2.427   1.665 -1.9596  1.3208  2.3007
  137OSM   H13C14785   3.651   2.333   1.803  3.2171 -1.9554  0.2250
  137OSM    C1214786   3.544   2.550   1.887 -0.4962 -0.3065 -0.3959
  137OSM   H12A14787   3.493   2.552   1.792  0.7378  0.7869 -1.0677
  137OSM   H12B14788   3.527   2.646   1.933  0.1071  0.8606 -2.4861
  137OSM    C1114789   3.487   2.431   1.971 -0.3538  0.1174  0.5802
  137OSM   H11A14790   3.380   2.453   1.993 -0.4394  0.2437  0.0584
  137OSM   H11B14791   3.528   2.428   2.074 -0.1228 -3.0283  0.4953
  137OSM      P14792   3.390   2.189   1.908  0.2437 -0.2890  0.0488
  137OSM    O1314793   3.276   2.240   1.832  0.4868  0.5304 -0.4435
  137OSM    O1414794   3.444   2.052   1.883  0.2557 -1.2143 -0.2953
  137OSM    O1114795   3.345   2.187   2.058  0.2669  0.0247  0.7954
  137OSM    O1214796   3.504   2.300   1.915 -0.1306  0.4996 -0.2130
  137OSM    C1S14797   3.432   2.138   2.159  0.3513  0.0104 -0.1075
  137OSM    H1S14798   3.529   2.191   2.153  2.2964 -3.3282 -0.4196
  137OSM    H1T14799   3.454   2.029   2.151  0.3062  0.1090 -2.0747
  137OSM     NF14800   3.413   2.017   2.373 -0.6294  0.0108 -0.2202
  137OSM    HNF14801   3.342   1.948   2.385 -0.6348 -0.1423 -1.0981
  137OSM    C2S14802   3.368   2.133   2.300 -0.7038  0.4699 -0.9834
  137OSM    H2S14803   3.412   2.217   2.358  1.2530 -0.5692 -0.8981
  137OSM    C3S14804   3.208   2.140   2.292 -0.6882 -0.2261 -0.4432
  137OSM    H3S14805   3.168   2.056   2.230 -2.0391  1.0180 -1.3098
  137OSM     O314806   3.158   2.252   2.231  0.0064 -0.3262  0.7035
  137OSM    HO314807   3.229   2.260   2.167  1.7077 -0.2974  2.4939
  137OSM    C4S14808   3.146   2.126   2.428  0.0198  0.0929  0.0120
  137OSM    H4S14809   3.175   2.210   2.493  0.9835  0.3175 -0.6866
  137OSM    C5S14810   3.040   2.047   2.464  0.6509  0.2787  0.7092
  137OSM    H5S14811   2.995   1.981   2.388  0.2412  0.8302  0.4657
  137OSM    C6S14812   2.971   2.043   2.596  0.0612 -0.2688  0.0106
  137OSM    H6S14813   2.915   1.948   2.614  0.5271 -0.0994  2.7502
  137OSM    H6T14814   2.887   2.116   2.603 -0.8890 -1.2088 -1.0005
  137OSM    C7S14815   3.066   2.053   2.710  0.6251  0.0289  0.4144
  137OSM    H7S14816   3.125   2.146   2.696  1.5555 -0.1376  2.8477
  137OSM    H7T14817   3.139   1.970   2.707 -0.3767 -0.8942  0.8838
  137OSM    C8S14818   2.999   2.067   2.844 -0.1255  0.2599 -0.2652
  137OSM    H8S14819   2.945   2.163   2.861  1.2376  0.8578  0.8032
  137OSM    H8T14820   3.077   2.060   2.922  0.1293  1.1942 -0.4317
  137OSM    C9S14821   2.883   1.961   2.879 -0.5833  0.5378  0.2383
  137OSM    H9S14822   2.917   1.857   2.860 -1.5469 -0.2096  2.3144
  137OSM    H9T14823   2.791   1.980   2.820 -0.5718  0.2759  0.1342
  137OSM   C10S14824   2.845   1.975   3.021  0.7456  0.7328 -0.1237
  137OSM   H10S14825   2.820   2.078   3.052 -1.8879 -0.5566  2.5422
  137OSM   H10T14826   2.927   1.938   3.086 -0.6647 -0.7532  0.8780
  137OSM   C11S14827   2.710   1.905   3.056 -0.6703 -0.1651  0.1968
  137OSM   H11S14828   2.740   1.800   3.036  2.2385  0.8360 -1.3339
  137OSM   H11T14829   2.642   1.942   2.976 -0.3635 -1.5036 -0.7148
  137OSM   C12S14830   2.671   1.929   3.206 -0.6897 -0.7840  0.8654
  137OSM   H12S14831   2.623   2.029   3.208  1.2649  0.1892  1.5881
  137OSM   H12T14832   2.764   1.932   3.267 -0.6440  2.0122  0.7810
  137OSM   C13S14833   2.573   1.820   3.244 -0.5523 -0.5723  0.3235
  137OSM   H13S14834   2.573   1.824   3.355  0.1279 -4.1922  0.5931
  137OSM   H13T14835   2.624   1.727   3.210 -0.8790 -0.1833 -1.3169
  137OSM   C14S14836   2.442   1.842   3.172  0.5957  0.0134 -0.1034
  137OSM   H14S14837   2.377   1.752   3.172  0.3871  0.1533 -0.6499
  137OSM   H14T14838   2.458   1.856   3.062  0.7538 -0.7171 -0.1764
  137OSM   C15S14839   2.356   1.955   3.237  0.1083 -0.2903  0.1029
  137OSM   H15S14840   2.409   2.051   3.216  0.3398 -0.2867  0.6838
  137OSM   H15T14841   2.358   1.950   3.348  1.6556  0.4573  0.1349
  137OSM   C16S14842   2.216   1.948   3.184  0.0085  0.3020 -0.1710
  137OSM   H16S14843   2.165   1.851   3.197 -0.3045  0.4065 -0.6120
  137OSM   H16T14844   2.225   1.971   3.076  1.3152  1.7814  0.2005
  137OSM   C17S14845   2.132   2.061   3.249  0.5802  0.1667 -0.0860
  137OSM   H17S14846   2.176   2.153   3.203 -2.8640  2.3663  0.5788
  137OSM   H17T14847   2.148   2.066   3.359  0.1265  2.8503 -0.0625
  137OSM   C18S14848   1.987   2.046   3.210  0.0968 -0.0056  0.2409
  137OSM   H18S14849   1.947   2.146   3.237 -0.8313 -0.3669  0.2410
  137OSM   H18T14850   1.936   1.970   3.274  0.1634  1.0440  1.6030
  137OSM   H18U14851   1.973   2.013   3.105  0.4790 -1.1967  0.5448
  137OSM    C1F14852   3.535   1.994   2.431 -0.5389  0.1877  0.6494
  137OSM     OF14853   3.633   2.071   2.410  0.4287  0.4219  0.7658
  137OSM    C2F14854   3.542   1.874   2.523  0.2155  0.2755  0.2639
  137OSM    H2F14855   3.638   1.858   2.577  0.3075  0.6647  0.2192
  137OSM    H2G14856   3.525   1.780   2.466  1.8270 -1.6571  2.7512
  137OSM    C3F14857   3.421   1.872   2.624 -0.3787  0.2435 -0.2294
  137OSM    H3F14858   3.329   1.855   2.563 -0.8953  1.7203  0.1109
  137OSM    H3G14859   3.407   1.975   2.663 -0.5066  0.5817 -1.1434
  137OSM    C4F14860   3.436   1.765   2.732 -0.3523  0.2199 -0.2743
  137OSM    H4F14861   3.519   1.796   2.799  0.7534 -0.4820 -1.2824
  137OSM    H4G14862   3.461   1.660   2.704 -1.2294 -0.7573  2.2812
  137OSM    C5F14863   3.308   1.770   2.817  0.5298 -0.6178  0.4732
  137OSM    H5F14864   3.213   1.738   2.770  1.1215 -1.5993 -0.0863
  137OSM    H5G14865   3.283   1.876   2.837 -0.0921 -0.1926 -2.1924
  137OSM    C6F14866   3.321   1.684   2.944  0.0431  0.0558 -0.5415
  137OSM    H6F14867   3.353   1.583   2.911 -0.8516  0.2202 -2.0204
  137OSM    H6G14868   3.217   1.665   2.976  0.1126 -1.0256 -0.9100
  137OSM    C7F14869   3.402   1.746   3.062  0.4155  0.3037 -0.5457
  137OSM    H7F14870   3.511   1.752   3.040  0.2588  2.7506 -0.9733
  137OSM    H7G14871   3.387   1.668   3.140 -1.1429  0.8861 -0.2280
  137OSM    C8F14872   3.338   1.876   3.127 -0.4905  0.0955  0.7669
  137OSM    H8F14873   3.332   1.956   3.049 -1.8360 -2.5400 -2.0501
  137OSM    H8G14874   3.399   1.904   3.215 -0.9849  0.1604  1.0890
  137OSM    C9F14875   3.203   1.846   3.186  0.1964 -0.1596 -0.8123
  137OSM    H9F14876   3.171   1.742   3.170  1.4696 -0.9974  1.5063
  137OSM   C10F14877   3.124   1.941   3.241 -0.8551  0.2078  0.0814
  137OSM   H10F14878   3.029   1.910   3.286 -0.8019 -0.9867 -0.6090
  137OSM   C11F14879   3.153   2.091   3.256 -0.3551 -0.0229 -0.5687
  137OSM   H11F14880   3.077   2.145   3.195 -1.9550 -1.6554 -0.1318
  137OSM   H11G14881   3.252   2.123   3.218 -1.0382  2.5954 -0.3474
  137OSM   C12F14882   3.131   2.132   3.404  0.4146 -0.3170  0.2235
  137OSM   H12F14883   3.183   2.229   3.420 -1.5980  1.1559 -1.5470
  137OSM   H12G14884   3.178   2.054   3.468 -2.1329 -1.7765  0.4490
  137OSM   C13F14885   2.988   2.146   3.442 -0.4082  0.1332 -0.7448
  137OSM   H13F14886   2.923   2.059   3.420 -1.3532  0.9127 -1.1093
  137OSM   H13G14887   2.941   2.227   3.382 -1.3813 -1.9862 -3.0101
  137OSM   C14F14888   2.986   2.202   3.587  0.0190  0.3571  0.8547
  137OSM   H14F14889   3.074   2.157   3.637  2.2157  1.2725 -1.8983
  137OSM   H14G14890   2.892   2.178   3.642  0.7531 -0.2688  1.8522
  137OSM   C15F14891   3.005   2.362   3.586 -0.1984  0.3877 -0.9452
  137OSM   H15F14892   2.954   2.406   3.498  0.5296 -0.5599 -1.8761
  137OSM   H15G14893   3.112   2.389   3.575  0.0705  0.8677  2.0359
  137OSM   C16F14894   2.941   2.420   3.716 -0.0335  0.1779  0.1110
  137OSM   H16F14895   2.837   2.385   3.734  0.4010 -2.5179 -1.9957
  137OSM   H16G14896   2.944   2.530   3.701 -0.7397  0.0307 -1.2246
  137OSM   C17F14897   3.013   2.400   3.858  0.4871 -0.2151  0.6225
  137OSM   H17F14898   3.123   2.409   3.853  0.4682 -0.2257  0.1403
  137OSM   H17G14899   3.003   2.293   3.887 -0.0873  0.4435  3.0808
  137OSM   C18F14900   2.956   2.491   3.966  0.2490  0.4316  0.1744
  137OSM   H18F14901   2.994   2.591   3.937  2.7737 -0.6609 -0.5621
  137OSM   H18G14902   2.996   2.463   4.066 -2.3319 -1.9757  0.6662
  137OSM   H18H14903   2.847   2.471   3.978  0.0953  2.3912  3.1856
  138OSM      N14904   1.968   1.026   1.984  0.4180  0.3223 -0.0624
  138OSM    C1514905   1.850   0.948   1.924 -0.6435 -0.8233 -0.1772
  138OSM   H15A14906   1.794   0.898   2.001 -0.9442  0.3327  0.3878
  138OSM   H15B14907   1.884   0.884   1.844 -0.4922 -1.5294  0.4419
  138OSM   H15C14908   1.776   1.017   1.884  2.7849  2.9976 -0.6034
  138OSM    C1414909   2.009   1.126   1.877  0.4320  0.6498 -0.3429
  138OSM   H14A14910   1.927   1.192   1.854 -3.2573 -2.6777  2.0581
  138OSM   H14B14911   2.048   1.079   1.787  0.9933  1.3609 -0.4810
  138OSM   H14C14912   2.088   1.188   1.916 -0.0512  2.4444 -2.0247
  138OSM    C1314913   1.914   1.106   2.101  0.5031  0.3502 -0.1283
  138OSM   H13A14914   1.996   1.154   2.152  1.1168  0.6441 -1.3467
  138OSM   H13B14915   1.876   1.037   2.174  1.5263 -0.4992 -0.3775
  138OSM   H13C14916   1.836   1.173   2.066  1.0203  0.7806 -0.4834
  138OSM    C1214917   2.089   0.936   2.026 -0.1524 -0.7799  0.3291
  138OSM   H12A14918   2.163   1.001   2.070 -1.6224  2.0161 -1.0344
  138OSM   H12B14919   2.137   0.912   1.932  0.2543  1.5645 -0.1311
  138OSM    C1114920   2.067   0.813   2.113 -0.3542  0.0346  0.0458
  138OSM   H11A14921   2.168   0.773   2.140 -1.1647 -2.3723 -0.2379
  138OSM   H11B14922   2.004   0.733   2.067  0.8399 -0.4097 -0.8869
  138OSM      P14923   1.893   0.780   2.305  0.1113  0.4063  0.0816
  138OSM    O1314924   1.781   0.773   2.206 -0.7056  0.5893 -0.0232
  138OSM    O1414925   1.946   0.652   2.358 -0.0528  0.1334  0.0623
  138OSM    O1114926   1.838   0.871   2.423 -0.6687  0.1354 -0.7007
  138OSM    O1214927   2.009   0.865   2.240  0.6315 -1.1079 -0.0378
  138OSM    C1S14928   1.936   0.940   2.497  1.0394 -0.0708  0.5307
  138OSM    H1S14929   1.943   1.037   2.442  1.7756 -0.6559 -0.4348
  138OSM    H1T14930   2.035   0.891   2.507  0.3806 -1.4676  0.4205
  138OSM     NF14931   1.985   1.055   2.697 -0.3713  0.5346 -0.1018
  138OSM    HNF14932   2.057   0.999   2.737 -3.2116 -3.4089  0.1145
  138OSM    C2S14933   1.884   0.967   2.641 -0.0480 -0.2498 -0.1661
  138OSM    H2S14934   1.786   1.019   2.646  0.0679 -0.1510  1.9954
  138OSM    C3S14935   1.870   0.833   2.721  0.2717  0.4969 -0.9421
  138OSM    H3S14936   1.968   0.781   2.716  0.2396  0.3671 -0.2356
  138OSM     O314937   1.787   0.737   2.655  0.2146 -0.0022  0.5126
  138OSM    HO314938   1.792   0.769   2.565 -0.7777  0.5951  0.6579
  138OSM    C4S14939   1.830   0.857   2.867  0.4186  0.6422  0.3135
  138OSM    H4S14940   1.720   0.860   2.874  0.4523 -0.6370  2.6662
  138OSM    C5S14941   1.906   0.857   2.981  0.6700  0.3148  0.1020
  138OSM    H5S14942   2.014   0.838   2.976  0.8825 -0.0030  3.3282
  138OSM    C6S14943   1.855   0.877   3.123  0.6743 -0.5989 -0.4314
  138OSM    H6S14944   1.879   0.786   3.182  1.1049  0.4581  1.0808
  138OSM    H6T14945   1.744   0.878   3.126  0.6938 -0.8827  0.5434
  138OSM    C7S14946   1.942   0.987   3.191 -0.1819 -0.2716  0.1924
  138OSM    H7S14947   1.935   1.076   3.125  0.6082 -0.9461 -0.8316
  138OSM    H7T14948   2.043   0.941   3.196  0.0158  0.3086  2.6581
  138OSM    C8S14949   1.887   1.030   3.325 -0.4265  0.2440 -0.3810
  138OSM    H8S14950   1.781   1.064   3.325 -1.5133 -2.7582  1.9290
  138OSM    H8T14951   1.946   1.112   3.372 -2.0246  1.7743 -0.9255
  138OSM    C9S14952   1.914   0.939   3.441 -0.0835 -0.4880 -0.2719
  138OSM    H9S14953   2.024   0.923   3.434 -0.0626 -0.1994 -0.6076
  138OSM    H9T14954   1.871   0.840   3.416 -0.4172 -0.4908  0.2917
  138OSM   C10S14955   1.857   0.997   3.574  0.7696 -0.3556  0.1715
  138OSM   H10S14956   1.747   0.986   3.576  0.8585 -1.6061 -0.5959
  138OSM   H10T14957   1.877   1.106   3.573  1.6936 -0.4763 -2.3572
  138OSM   C11S14958   1.923   0.922   3.693 -0.5610  0.6967 -0.1549
  138OSM   H11S14959   2.004   0.976   3.746 -3.3906  1.9929  3.2379
  138OSM   H11T14960   1.965   0.823   3.669 -3.8934 -1.8710  3.3583
  138OSM   C12S14961   1.814   0.897   3.799  0.6356  0.5020  0.0578
  138OSM   H12S14962   1.856   0.834   3.880  0.7374  1.7354  0.9948
  138OSM   H12T14963   1.726   0.852   3.747  2.5469 -1.9221 -1.2685
  138OSM   C13S14964   1.771   1.031   3.861 -0.2577  0.1358  1.0671
  138OSM   H13S14965   1.710   1.090   3.789 -0.7302 -0.7541  0.7212
  138OSM   H13T14966   1.857   1.101   3.870 -0.1824  0.1291  0.4075
  138OSM   C14S14967   1.709   1.014   4.002  0.6469  0.9532  0.4340
  138OSM   H14S14968   1.784   0.961   4.063  0.2851 -1.5398 -1.1353
  138OSM   H14T14969   1.621   0.946   3.995  0.1532  0.8875  4.7909
  138OSM   C15S14970   1.643   1.138   4.066 -0.2372 -0.0423  0.2968
  138OSM   H15S14971   1.549   1.179   4.023  0.4008  1.1797  0.0216
  138OSM   H15T14972   1.708   1.228   4.056  0.5556 -0.6625 -0.2489
  138OSM   C16S14973   1.633   1.121   4.213 -0.3382 -0.6949  0.0150
  138OSM   H16S14974   1.729   1.112   4.268  0.2548 -1.1031 -1.0559
  138OSM   H16T14975   1.576   1.031   4.243 -0.9300 -0.8793 -1.5821
  138OSM   C17S14976   1.569   1.244   4.279  0.8753  0.3040  0.6874
  138OSM   H17S14977   1.487   1.276   4.211  0.1900 -3.1936 -0.3345
  138OSM   H17T14978   1.637   1.331   4.295 -1.9786  2.9122 -0.3493
  138OSM   C18S14979   1.516   1.215   4.422  0.2120  0.6179  0.8021
  138OSM   H18S14980   1.582   1.144   4.476 -2.0484 -1.5827  0.8823
  138OSM   H18T14981   1.419   1.161   4.418  0.1018  0.8741 -0.3222
  138OSM   H18U14982   1.504   1.306   4.485 -2.7901 -0.1554  1.5036
  138OSM    C1F14983   1.997   1.178   2.658  0.2515  0.0121  0.4186
  138OSM     OF14984   1.915   1.236   2.594 -0.6888 -0.1737  0.0459
  138OSM    C2F14985   2.136   1.230   2.681  0.5949 -0.2208  0.0178
  138OSM    H2F14986   2.165   1.271   2.582 -0.7107 -0.2445 -0.3936
  138OSM    H2G14987   2.209   1.149   2.701  2.3088  1.2892  0.0627
  138OSM    C3F14988   2.139   1.344   2.788 -0.0975 -0.2283  0.2607
  138OSM    H3F14989   2.082   1.438   2.773  1.4074  1.0903  2.1460
  138OSM    H3G14990   2.242   1.386   2.787 -0.8940  1.8907 -1.6016
  138OSM    C4F14991   2.107   1.304   2.931  0.8464 -0.4059  0.4217
  138OSM    H4F14992   2.198   1.253   2.971  1.2942  0.5733  0.6943
  138OSM    H4G14993   2.033   1.222   2.919  1.2963 -0.6342 -1.0197
  138OSM    C5F14994   2.067   1.423   3.024  0.3748  0.5550  0.0806
  138OSM    H5F14995   1.996   1.487   2.968  2.1511  1.1547 -1.6056
  138OSM    H5G14996   2.165   1.474   3.037  0.5820 -0.1122  1.2832
  138OSM    C6F14997   2.000   1.374   3.151  0.3591 -0.6320 -0.0701
  138OSM    H6F14998   2.068   1.318   3.219 -1.2433 -0.5373  1.7031
  138OSM    H6G14999   1.915   1.308   3.125 -1.2953  0.6321  1.8267
  138OSM    C7F15000   1.936   1.494   3.233  0.2875  0.1461 -1.5644
  138OSM    H7F15001   1.868   1.557   3.173  0.1351  0.4442 -1.0792
  138OSM    H7G15002   2.011   1.571   3.261 -1.6080  2.1578 -1.7910
  138OSM    C8F15003   1.875   1.435   3.369 -0.8917 -0.6748 -0.7995
  138OSM    H8F15004   1.873   1.534   3.421  1.7361 -0.0549 -1.6960
  138OSM    H8G15005   1.950   1.366   3.414  0.3245  0.9356 -0.2360
  138OSM    C9F15006   1.733   1.376   3.347 -0.0346 -0.0420 -0.1112
  138OSM    H9F15007   1.726   1.298   3.269 -2.2036  0.0994 -0.0979
  138OSM   C10F15008   1.624   1.396   3.418 -0.0414  0.4724  0.3129
  138OSM   H10F15009   1.533   1.340   3.392  1.7485 -2.4020 -0.1672
  138OSM   C11F15010   1.624   1.475   3.544  0.6532  0.0989 -0.2587
  138OSM   H11F15011   1.531   1.533   3.562  1.4674  1.4233 -0.2064
  138OSM   H11G15012   1.706   1.549   3.537  2.0274 -1.5265 -2.8428
  138OSM   C12F15013   1.651   1.374   3.651  0.0734  0.5517 -0.1513
  138OSM   H12F15014   1.750   1.326   3.637  0.4482  1.2425  0.1093
  138OSM   H12G15015   1.575   1.293   3.641  1.1862 -0.3593 -1.5979
  138OSM   C13F15016   1.640   1.436   3.793  0.4119  0.4919  0.2573
  138OSM   H13F15017   1.669   1.353   3.861 -0.8435 -1.4357 -1.4130
  138OSM   H13G15018   1.535   1.466   3.812 -0.2914 -0.4791 -1.7324
  138OSM   C14F15019   1.726   1.551   3.821 -0.2447 -0.0833 -0.5933
  138OSM   H14F15020   1.720   1.625   3.738  0.1667  1.8246  0.9921
  138OSM   H14G15021   1.831   1.517   3.816 -0.3492 -0.6766  0.7063
  138OSM   C15F15022   1.697   1.619   3.966  0.4222 -0.1437 -0.0111
  138OSM   H15F15023   1.691   1.535   4.038 -2.1751 -0.6425 -0.7174
  138OSM   H15G15024   1.597   1.666   3.952  0.3503 -0.3864 -0.3100
  138OSM   C16F15025   1.811   1.714   4.003  0.2560 -0.2958 -0.6009
  138OSM   H16F15026   1.795   1.746   4.108  0.6843 -2.4225  0.1509
  138OSM   H16G15027   1.819   1.798   3.930 -0.1486 -0.7499 -1.1751
  138OSM   C17F15028   1.948   1.646   4.009  0.7019 -0.8161  0.6945
  138OSM   H17F15029   1.968   1.601   3.909 -1.8978 -3.4447  1.2055
  138OSM   H17G15030   1.936   1.565   4.084 -2.7015 -1.8172 -0.7139
  138OSM   C18F15031   2.065   1.740   4.040  0.0937  0.0714  0.5638
  138OSM   H18F15032   2.083   1.799   3.948  0.4365  0.0055  0.5891
  138OSM   H18G15033   2.156   1.689   4.079  0.9974  0.7924 -0.5366
  138OSM   H18H15034   2.035   1.813   4.118  1.6874  2.2520 -0.7549
  139OSM      N15035   3.847   2.045   2.011  0.3290 -0.2962 -0.7959
  139OSM    C1515036   3.816   2.179   1.954 -0.5149 -0.5048  0.6686
  139OSM   H15A15037   3.721   2.192   1.905 -0.7152  1.2244  1.4107
  139OSM   H15B15038   3.890   2.210   1.882 -0.7181  0.8326  0.9923
  139OSM   H15C15039   3.805   2.235   2.046  0.4278 -2.2357  1.8814
  139OSM    C1415040   3.724   2.012   2.093  0.0152  0.2608 -0.1387
  139OSM   H14A15041   3.632   2.003   2.037  0.2293 -0.3489 -0.3987
  139OSM   H14B15042   3.703   2.096   2.158 -1.0507 -1.4488  1.8564
  139OSM   H14C15043   3.732   1.917   2.143 -0.2765 -0.2516 -1.0523
  139OSM    C1315044   3.860   1.943   1.904 -0.0762  0.6661 -0.1490
  139OSM   H13A15045   3.941   1.967   1.837  0.8099  1.1816  1.0653
  139OSM   H13B15046   3.769   1.926   1.849  0.3754 -0.7597 -0.5019
  139OSM   H13C15047   3.889   1.847   1.943  2.6022  1.6521  0.4830
  139OSM    C1215048   3.978   2.048   2.099  0.2505 -0.0529  0.1083
  139OSM   H12A15049   4.056   2.098   2.042 -0.5333  1.2864  0.1761
  139OSM   H12B15050   4.006   1.945   2.113 -0.4247  0.0468  2.5023
  139OSM    C1115051   3.981   2.111   2.239 -0.1428 -0.1523  0.2166
  139OSM   H11A15052   4.085   2.095   2.274 -0.6880 -1.8540  1.1584
  139OSM   H11B15053   3.913   2.056   2.308  0.1786 -0.8066  0.0129
  139OSM      P15054   4.043   2.361   2.203 -0.2333  0.1984  0.1834
  139OSM    O1315055   4.103   2.322   2.072  0.9295 -0.2611  0.3573
  139OSM    O1415056   3.971   2.493   2.199  0.1964  1.2575 -0.2235
  139OSM    O1115057   4.155   2.352   2.309 -0.5197 -0.0847 -0.1659
  139OSM    O1215058   3.939   2.249   2.241  0.5897 -0.4424  0.1730
  139OSM    C1S15059   4.118   2.382   2.445  0.0821  0.3246  0.1303
  139OSM    H1S15060   4.071   2.292   2.490 -1.4963  1.2735  0.4598
  139OSM    H1T15061   4.056   2.473   2.459 -0.1550 -0.0566  1.8508
  139OSM     NF15062   4.185   2.475   2.665  0.3691 -0.0614  0.2777
  139OSM    HNF15063   4.150   2.568   2.672  0.2006 -0.1895  1.1878
  139OSM    C2S15064   4.240   2.426   2.536 -0.1701 -0.3778  0.9142
  139OSM    H2S15065   4.301   2.338   2.567 -0.0927 -0.8069 -0.3779
  139OSM    C3S15066   4.323   2.533   2.460 -0.1500 -0.4362 -0.0968
  139OSM    H3S15067   4.253   2.614   2.429  0.1011  0.5746  1.7941
  139OSM     O315068   4.384   2.472   2.345  0.3375  0.1536  0.4894
  139OSM    HO315069   4.314   2.407   2.333 -1.0875  1.4612  1.3346
  139OSM    C4S15070   4.416   2.612   2.549 -0.3598 -0.3780  0.3283
  139OSM    H4S15071   4.367   2.668   2.630  0.7403  0.6362  0.3066
  139OSM    C5S15072   4.540   2.619   2.554 -0.6230 -0.1136  0.5194
  139OSM    H5S15073   4.596   2.549   2.490 -0.4626 -1.5369  2.1439
  139OSM    C6S15074   4.632   2.700   2.649  0.6889  0.1015 -0.0221
  139OSM    H6S15075   4.714   2.747   2.592  0.2466  0.0195 -0.7339
  139OSM    H6T15076   4.685   2.631   2.717  0.9557 -0.6962 -1.0272
  139OSM    C7S15077   4.562   2.813   2.730  0.9406 -0.0471 -0.0398
  139OSM    H7S15078   4.477   2.766   2.784 -2.0575  5.2135  0.5202
  139OSM    H7T15079   4.533   2.888   2.654  2.7493  0.4197 -0.3255
  139OSM    C8S15080   4.659   2.885   2.820  0.5250 -0.6570  0.7395
  139OSM    H8S15081   4.611   2.984   2.835  0.2018 -0.7290  0.2026
  139OSM    H8T15082   4.757   2.911   2.776  0.5029  0.3039  1.2311
  139OSM    C9S15083   4.692   2.830   2.960  0.3358  0.4389 -0.2724
  139OSM    H9S15084   4.751   2.736   2.954  1.2012  0.7257  2.3982
  139OSM    H9T15085   4.601   2.812   3.021  1.6857  0.3349  1.8335
  139OSM   C10S15086   4.770   2.929   3.042 -0.6427  0.0329  0.5552
  139OSM   H10S15087   4.765   3.027   2.990  0.3156 -1.1851 -2.0007
  139OSM   H10T15088   4.877   2.902   3.036 -0.8363 -0.5372 -2.9720
  139OSM   C11S15089   4.725   2.946   3.182 -0.1124 -0.0372  0.2194
  139OSM   H11S15090   4.621   2.983   3.192 -0.3770  0.3545 -2.8014
  139OSM   H11T15091   4.783   3.028   3.230 -1.3832  1.9391 -1.4267
  139OSM   C12S15092   4.747   2.825   3.286  0.9547 -0.1007  0.1328
  139OSM   H12S15093   4.852   2.795   3.266  1.2313  1.5864 -1.1962
  139OSM   H12T15094   4.681   2.744   3.248 -1.5661  2.0989 -0.4773
  139OSM   C13S15095   4.718   2.858   3.430  0.7727  0.1874 -0.1194
  139OSM   H13S15096   4.609   2.867   3.446  0.4646 -2.8712  0.0855
  139OSM   H13T15097   4.759   2.957   3.457  0.2955 -0.3904  3.2061
  139OSM   C14S15098   4.773   2.754   3.531  0.0078  0.6251  0.0902
  139OSM   H14S15099   4.808   2.810   3.620  0.8483  2.3198 -1.2409
  139OSM   H14T15100   4.863   2.707   3.486 -0.3441 -1.5495  1.5010
  139OSM   C15S15101   4.671   2.639   3.563  0.5155 -0.4416  0.5064
  139OSM   H15S15102   4.635   2.592   3.469 -0.0820  2.7590 -1.0023
  139OSM   H15T15103   4.583   2.673   3.622 -0.5485  1.5335 -1.9869
  139OSM   C16S15104   4.739   2.532   3.644 -0.0382 -0.1154  0.4884
  139OSM   H16S15105   4.805   2.465   3.586 -0.9520 -1.2881  0.7597
  139OSM   H16T15106   4.655   2.477   3.693 -1.4186  1.4917 -0.0012
  139OSM   C17S15107   4.810   2.588   3.762  0.2929 -0.0780  0.3607
  139OSM   H17S15108   4.732   2.641   3.822 -0.6515  0.7897 -1.5399
  139OSM   H17T15109   4.884   2.665   3.735 -0.2104  0.0547 -0.6754
  139OSM   C18S15110   4.881   2.477   3.841  0.0824 -0.3726  0.3700
  139OSM   H18S15111   4.821   2.391   3.878  0.6665 -0.0976  2.0372
  139OSM   H18T15112   4.946   2.511   3.925  0.9134  0.9944 -0.7839
  139OSM   H18U15113   4.959   2.435   3.774  1.7482  1.4148  1.1029
  139OSM    C1F15114   4.128   2.395   2.752 -0.1463  0.6459  0.7302
  139OSM     OF15115   4.125   2.269   2.724  0.1178 -0.8003  0.2681
  139OSM    C2F15116   4.063   2.446   2.879  0.6251 -0.0357  0.0253
  139OSM    H2F15117   4.091   2.553   2.876  1.6578 -0.3086 -0.2294
  139OSM    H2G15118   4.116   2.408   2.969 -1.6953 -1.3948  0.9251
  139OSM    C3F15119   3.910   2.428   2.899 -0.2206 -0.3221 -0.0146
  139OSM    H3F15120   3.885   2.320   2.912 -0.6512 -0.0378  1.7183
  139OSM    H3G15121   3.856   2.474   2.814  0.5453  0.5722 -0.0217
  139OSM    C4F15122   3.853   2.510   3.021 -0.1687 -0.1373 -1.0303
  139OSM    H4F15123   3.744   2.527   3.014 -0.1748  1.5974  1.8024
  139OSM    H4G15124   3.903   2.609   3.018  1.2482 -0.5831  2.4557
  139OSM    C5F15125   3.877   2.453   3.162 -0.2419 -0.0447 -0.9100
  139OSM    H5F15126   3.984   2.427   3.179  0.1722  1.0628 -1.6947
  139OSM    H5G15127   3.831   2.354   3.182  1.6183 -0.8461 -0.3250
  139OSM    C6F15128   3.830   2.558   3.258  0.2075  0.3823  0.7225
  139OSM    H6F15129   3.730   2.596   3.229 -0.5763 -0.3737  2.3256
  139OSM    H6G15130   3.891   2.651   3.247 -0.7003  1.0017  0.7984
  139OSM    C7F15131   3.822   2.504   3.401 -0.1629  0.0980 -0.6086
  139OSM    H7F15132   3.911   2.444   3.429  1.7095  3.7576  2.0592
  139OSM    H7G15133   3.734   2.436   3.409 -1.7231  2.0013 -0.7581
  139OSM    C8F15134   3.808   2.629   3.501  0.1116 -0.2733  0.0344
  139OSM    H8F15135   3.726   2.685   3.452  0.7373 -0.8698 -1.8119
  139OSM    H8G15136   3.907   2.679   3.494  1.0618 -1.3452  3.6884
  139OSM    C9F15137   3.769   2.596   3.638 -0.8509  1.0973  0.1495
  139OSM    H9F15138   3.698   2.512   3.640  1.0578 -0.7020 -1.8712
  139OSM   C10F15139   3.810   2.647   3.757  0.7203 -0.0041 -0.4090
  139OSM   H10F15140   3.774   2.595   3.847 -1.3771  0.8849 -0.6938
  139OSM   C11F15141   3.904   2.762   3.778 -0.3002  0.5075  0.4883
  139OSM   H11F15142   3.903   2.835   3.694 -1.0841 -2.8204 -2.6489
  139OSM   H11G15143   4.008   2.725   3.794  0.3861  3.0392  2.6603
  139OSM   C12F15144   3.878   2.840   3.904 -0.3982  0.2770  0.0956
  139OSM   H12F15145   3.887   2.774   3.993  4.4871  1.4007  0.6994
  139OSM   H12G15146   3.774   2.880   3.904  0.2466  2.0121  0.6058
  139OSM   C13F15147   3.981   2.949   3.921 -0.0259  0.2538 -0.4667
  139OSM   H13F15148   3.961   3.035   3.854 -1.8240 -0.4812 -0.9097
  139OSM   H13G15149   4.084   2.913   3.899  2.4888  4.5359  2.6793
  139OSM   C14F15150   3.969   3.014   4.064 -0.0038 -0.6055 -0.4079
  139OSM   H14F15151   4.027   2.949   4.133  0.0981 -0.4607 -0.3560
  139OSM   H14G15152   3.868   3.006   4.108  0.9685 -0.1189  2.0931
  139OSM   C15F15153   4.012   3.163   4.077 -0.0285  0.1763 -0.0306
  139OSM   H15F15154   3.948   3.228   4.014 -0.8048  0.7417  1.3052
  139OSM   H15G15155   4.118   3.175   4.045 -0.0098 -0.8418 -0.3740
  139OSM   C16F15156   4.002   3.201   4.221 -0.0894  0.0489 -0.5157
  139OSM   H16F15157   4.070   3.135   4.279  0.1956 -0.9653 -1.9475
  139OSM   H16G15158   3.898   3.177   4.252 -0.2939 -2.6099 -2.8176
  139OSM   C17F15159   4.034   3.348   4.261  0.8835 -0.0372  0.1830
  139OSM   H17F15160   4.144   3.367   4.260  0.9671 -0.4943  0.4627
  139OSM   H17G15161   4.003   3.356   4.367  1.9030  0.2966  0.4739
  139OSM   C18F15162   3.957   3.453   4.175 -0.4351  0.2095 -0.6735
  139OSM   H18F15163   4.005   3.552   4.190 -1.0292  0.3957  0.0503
  139OSM   H18G15164   3.851   3.473   4.202 -0.4685 -2.3926  1.4978
  139OSM   H18H15165   3.949   3.429   4.067 -0.0299 -0.4230 -0.5682
  140OSM      N15166   0.171   2.853   1.995  0.3058  0.6114 -0.2094
  140OSM    C1515167   0.056   2.925   1.925 -0.1158  0.0108 -0.9546
  140OSM   H15A15168  -0.025   2.860   1.898 -1.1876  0.7984  0.2218
  140OSM   H15B15169   0.084   2.986   1.840  0.0526  3.4678  1.3558
  140OSM   H15C15170   0.012   2.993   1.997 -1.1009 -1.1871 -0.3914
  140OSM    C1415171   0.226   2.751   1.900  0.3123  0.5944  0.1505
  140OSM   H14A15172   0.152   2.676   1.877 -0.7272  1.6277 -0.0054
  140OSM   H14B15173   0.294   2.686   1.954 -0.6425  0.3166  1.0650
  140OSM   H14C15174   0.263   2.794   1.809 -2.3654  0.8267 -0.9329
  140OSM    C1315175   0.283   2.939   2.039 -0.8783  0.8785 -0.0669
  140OSM   H13A15176   0.356   2.874   2.084 -1.9057  0.9326  1.7732
  140OSM   H13B15177   0.261   3.002   2.124 -0.5394 -0.1938  0.8422
  140OSM   H13C15178   0.336   2.988   1.958 -1.5306 -1.1891 -1.8389
  140OSM    C1215179   0.119   2.786   2.114  0.6477  0.0498 -0.4226
  140OSM   H12A15180   0.070   2.858   2.178  1.0147  1.0534 -1.2543
  140OSM   H12B15181   0.196   2.731   2.167  0.0595 -0.5680 -0.1801
  140OSM    C1115182   0.006   2.680   2.101  0.4005  0.2133  0.9785
  140OSM   H11A15183  -0.070   2.721   2.030  2.6083  0.8081 -1.1833
  140OSM   H11B15184  -0.037   2.667   2.203 -0.6715  1.0012  0.6462
  140OSM      P15185   0.156   2.465   2.123  0.5656 -0.4285  0.1781
  140OSM    O1315186   0.118   2.323   2.084  0.1417 -0.4214  0.2875
  140OSM    O1415187   0.294   2.515   2.092  0.2546  0.1136  0.0182
  140OSM    O1115188   0.118   2.487   2.277 -0.0445 -0.2096 -0.1447
  140OSM    O1215189   0.052   2.555   2.047 -0.0259  0.0256  0.3229
  140OSM    C1S15190   0.022   2.400   2.339  0.0675 -0.6274 -0.3922
  140OSM    H1S15191   0.038   2.297   2.301 -0.1958 -0.4335 -1.0550
  140OSM    H1T15192  -0.082   2.430   2.314 -0.4292 -2.8445 -1.2029
  140OSM     NF15193  -0.011   2.292   2.561  0.1940 -0.0612  0.0667
  140OSM    HNF15194  -0.100   2.291   2.606  0.4178 -2.8226  0.6469
  140OSM    C2S15195   0.047   2.405   2.492 -0.2005 -0.4852  0.3075
  140OSM    H2S15196   0.155   2.403   2.519 -1.2363 -1.2152  5.5077
  140OSM    C3S15197   0.011   2.545   2.544  0.5636  0.0503 -0.6973
  140OSM    H3S15198  -0.098   2.550   2.523  0.5479 -1.2070 -1.0151
  140OSM     O315199   0.069   2.654   2.466 -1.0306 -0.1964 -0.2838
  140OSM    HO315200   0.106   2.605   2.393 -0.2044 -1.3457  0.8612
  140OSM    C4S15201   0.029   2.548   2.696  0.1037  0.5878 -0.3238
  140OSM    H4S15202  -0.047   2.487   2.747  0.6003  1.3784  1.4385
  140OSM    C5S15203   0.132   2.600   2.763 -0.0956  0.2771  0.5514
  140OSM    H5S15204   0.210   2.648   2.702 -1.0641  0.4130 -0.6108
  140OSM    C6S15205   0.164   2.590   2.914  1.3383 -0.2617  0.3899
  140OSM    H6S15206   0.233   2.673   2.940 -0.0972  0.9762  0.3873
  140OSM    H6T15207   0.219   2.494   2.929  2.2440 -0.1971 -2.0269
  140OSM    C7S15208   0.047   2.593   3.007 -0.2945  1.0928  0.0676
  140OSM    H7S15209  -0.023   2.515   2.969  0.9892  0.3938 -0.9549
  140OSM    H7T15210  -0.013   2.687   3.003 -1.1319  0.5481 -0.4720
  140OSM    C8S15211   0.084   2.553   3.153 -0.9270 -0.2145  0.4010
  140OSM    H8S15212   0.168   2.622   3.173  1.3277 -2.6857 -0.0328
  140OSM    H8T15213   0.114   2.446   3.161 -3.8538 -1.2393 -0.6015
  140OSM    C9S15214  -0.027   2.572   3.264 -0.1902 -1.0948  0.5359
  140OSM    H9S15215  -0.120   2.515   3.245 -1.6555  1.5157 -0.5738
  140OSM    H9T15216  -0.056   2.679   3.262  0.8118 -0.8238 -0.8630
  140OSM   C10S15217   0.037   2.541   3.400  0.6023 -0.2060 -0.1460
  140OSM   H10S15218   0.135   2.592   3.408  1.3198 -0.5207 -4.5472
  140OSM   H10T15219   0.050   2.431   3.406 -1.9407 -0.5447  0.2781
  140OSM   C11S15220  -0.068   2.580   3.507 -0.4168 -0.1977 -0.5880
  140OSM   H11S15221  -0.176   2.564   3.487 -0.9417  1.9896  0.1934
  140OSM   H11T15222  -0.058   2.690   3.516  1.2259 -0.3827  0.3945
  140OSM   C12S15223  -0.033   2.525   3.645  0.2266  0.5047 -0.2749
  140OSM   H12S15224   0.063   2.575   3.668  0.3620  0.7740 -1.3595
  140OSM   H12T15225  -0.022   2.415   3.636 -0.7575  0.4026 -0.3888
  140OSM   C13S15226  -0.127   2.550   3.764  0.0257  0.0034  0.6631
  140OSM   H13S15227  -0.223   2.502   3.736  0.5846 -0.4362 -0.5640
  140OSM   H13T15228  -0.144   2.659   3.763 -0.8605 -0.1195 -1.0239
  140OSM   C14S15229  -0.064   2.500   3.902 -0.3550  0.0447  0.9807
  140OSM   H14S15230  -0.141   2.493   3.982 -0.1962 -2.8217  1.0041
  140OSM   H14T15231   0.004   2.577   3.945 -2.3624  0.7182  3.1845
  140OSM   C15S15232   0.001   2.364   3.895 -0.6794  0.4636 -0.5715
  140OSM   H15S15233   0.080   2.363   3.816  0.1305  0.5478  0.2192
  140OSM   H15T15234  -0.075   2.288   3.865  0.7927 -1.4448  0.2823
  140OSM   C16S15235   0.041   2.315   4.033 -0.2347  0.5938  0.6703
  140OSM   H16S15236  -0.048   2.278   4.088 -0.0172 -0.2899  0.4366
  140OSM   H16T15237   0.092   2.398   4.087 -0.4161  1.1568  0.0036
  140OSM   C17S15238   0.144   2.202   4.016 -0.3070 -0.0347 -0.4009
  140OSM   H17S15239   0.227   2.241   3.953  0.2658 -0.2420  0.2126
  140OSM   H17T15240   0.087   2.118   3.970  0.0044  0.1562 -1.1650
  140OSM   C18S15241   0.198   2.141   4.150 -0.0472  0.6400  0.0125
  140OSM   H18S15242   0.103   2.141   4.208  0.4948  1.2435  0.9257
  140OSM   H18T15243   0.283   2.199   4.191  0.6418 -0.0654 -0.3945
  140OSM   H18U15244   0.228   2.035   4.134  3.2690  1.4142  0.3401
  140OSM    C1F15245   0.050   2.175   2.559 -0.6007 -0.3053 -0.1219
  140OSM     OF15246   0.153   2.163   2.505 -0.6865  0.4556 -0.2877
  140OSM    C2F15247  -0.008   2.057   2.631  0.1943  0.3534 -0.2143
  140OSM    H2F15248  -0.114   2.046   2.602 -0.0950 -0.3939  1.0685
  140OSM    H2G15249  -0.001   2.059   2.742  0.7403  1.8412 -0.2547
  140OSM    C3F15250   0.067   1.930   2.594 -0.4654 -0.4454  0.0553
  140OSM    H3F15251   0.165   1.936   2.647 -2.4474  3.0595  3.8972
  140OSM    H3G15252   0.088   1.908   2.487  1.9579  0.8379  0.1833
  140OSM    C4F15253  -0.014   1.808   2.644 -0.4433 -0.0092 -0.0790
  140OSM    H4F15254  -0.110   1.802   2.589 -1.5750 -1.3536  1.9290
  140OSM    H4G15255  -0.036   1.818   2.752  0.8134 -1.4741  0.3505
  140OSM    C5F15256   0.045   1.671   2.618  0.2091  0.8196 -0.1676
  140OSM    H5F15257   0.092   1.666   2.518  2.2022  0.1839  0.7442
  140OSM    H5G15258  -0.045   1.606   2.604 -0.3839  2.0123 -2.3009
  140OSM    C6F15259   0.154   1.611   2.714  0.1618  0.1962  0.1924
  140OSM    H6F15260   0.102   1.611   2.813 -0.9390 -0.1426 -0.3662
  140OSM    H6G15261   0.239   1.682   2.716  1.0294 -0.8503  1.3274
  140OSM    C7F15262   0.210   1.477   2.671 -0.3435  0.5635 -0.3704
  140OSM    H7F15263   0.252   1.488   2.569 -0.0573 -0.0894 -0.3263
  140OSM    H7G15264   0.127   1.403   2.665  0.5042 -0.7274  2.1804
  140OSM    C8F15265   0.325   1.432   2.768  0.4277 -0.3791  0.2543
  140OSM    H8F15266   0.281   1.407   2.867  2.7093  0.9759  1.7282
  140OSM    H8G15267   0.388   1.522   2.786 -2.4343  2.2775 -1.9894
  140OSM    C9F15268   0.413   1.316   2.730  0.3587  0.1177  0.2234
  140OSM    H9F15269   0.493   1.337   2.657 -1.6816 -1.7239 -2.7960
  140OSM   C10F15270   0.402   1.186   2.770 -0.8109 -0.1722 -0.1483
  140OSM   H10F15271   0.466   1.115   2.717 -0.7167  1.1309 -1.8661
  140OSM   C11F15272   0.294   1.132   2.859 -0.2876  0.8085 -0.2543
  140OSM   H11F15273   0.284   1.027   2.824  1.8878  0.6068 -0.4010
  140OSM   H11G15274   0.197   1.176   2.828 -1.9083 -1.4487  1.3367
  140OSM   C12F15275   0.313   1.151   3.012 -0.5778 -0.7911 -0.2996
  140OSM   H12F15276   0.226   1.101   3.060  0.2237 -0.8045  1.1751
  140OSM   H12G15277   0.316   1.260   3.035 -1.8863 -1.0429  1.2679
  140OSM   C13F15278   0.435   1.086   3.063 -0.0293  0.2684  0.1287
  140OSM   H13F15279   0.530   1.135   3.032  0.4978  0.3374  1.7272
  140OSM   H13G15280   0.443   0.979   3.037  2.9442  0.2150  0.8787
  140OSM   C14F15281   0.453   1.084   3.221  0.4885 -0.2518  0.7960
  140OSM   H14F15282   0.559   1.052   3.231  1.0666  1.6275  1.0654
  140OSM   H14G15283   0.375   1.020   3.270 -3.6973  1.3358 -3.0488
  140OSM   C15F15284   0.430   1.212   3.297  0.3490  0.0410  0.1139
  140OSM   H15F15285   0.322   1.236   3.301 -0.0649 -1.4427 -1.2195
  140OSM   H15G15286   0.484   1.288   3.237 -1.7466 -0.4573 -2.6053
  140OSM   C16F15287   0.484   1.215   3.442  0.3808 -0.6395 -0.4382
  140OSM   H16F15288   0.483   1.324   3.464  2.7838 -0.8365  1.0245
  140OSM   H16G15289   0.591   1.186   3.456  0.3502 -0.4257  0.2493
  140OSM   C17F15290   0.382   1.141   3.534  0.2323 -0.1817 -0.0376
  140OSM   H17F15291   0.413   1.035   3.540  0.3028 -0.4218 -3.1713
  140OSM   H17G15292   0.279   1.150   3.494  0.6533  1.7705 -0.8034
  140OSM   C18F15293   0.366   1.209   3.668 -0.4672  0.3872 -0.3308
  140OSM   H18F15294   0.470   1.217   3.707 -1.0161  2.5962  0.8571
  140OSM   H18G15295   0.304   1.151   3.739 -1.3582  2.4116  0.6215
  140OSM   H18H15296   0.337   1.316   3.673  1.0910  0.7748  1.4886
  141OSM      N15297   3.456   5.304   2.004  0.4930  0.6999  0.6108
  141OSM    C1515298   3.581   5.381   1.971  0.0976 -1.0725  0.4657
  141OSM   H15A15299   3.627   5.339   1.883 -2.4520  1.5807 -2.3991
  141OSM   H15B15300   3.649   5.386   2.055  0.5833  1.7685 -0.0019
  141OSM   H15C15301   3.569   5.483   1.937 -1.1240 -1.4873 -0.3995
  141OSM    C1415302   3.382   5.284   1.877 -0.5000 -0.6317 -0.4972
  141OSM   H14A15303   3.371   5.377   1.824 -0.1182  0.9540  2.0150
  141OSM   H14B15304   3.278   5.261   1.899 -1.2117  1.2432 -1.6395
  141OSM   H14C15305   3.422   5.211   1.808 -1.1352 -0.1749 -1.3654
  141OSM    C1315306   3.498   5.170   2.063 -0.4261  0.4396  0.7221
  141OSM   H13A15307   3.540   5.186   2.161 -0.0963  1.2210  0.4540
  141OSM   H13B15308   3.573   5.123   2.002  2.2753  2.9701  1.8867
  141OSM   H13C15309   3.409   5.109   2.074 -0.1878 -0.0446  0.0463
  141OSM    C1215310   3.370   5.377   2.111 -0.6684 -0.1219 -0.4913
  141OSM   H12A15311   3.327   5.457   2.052  0.5672  0.5030 -0.5796
  141OSM   H12B15312   3.439   5.436   2.169 -0.0257 -0.3219 -1.0375
  141OSM    C1115313   3.267   5.302   2.200  0.5051  0.1949  0.2507
  141OSM   H11A15314   3.218   5.376   2.267  1.3250  1.0392 -0.0492
  141OSM   H11B15315   3.326   5.240   2.271  0.3197 -0.5458 -0.2448
  141OSM      P15316   3.060   5.314   2.032  0.2427 -0.0534 -0.3880
  141OSM    O1315317   3.123   5.419   1.949 -0.7733  0.3498 -0.4961
  141OSM    O1415318   2.959   5.233   1.962  0.0976  0.6228 -0.7290
  141OSM    O1115319   2.991   5.395   2.151  0.1460  0.4859  0.0576
  141OSM    O1215320   3.174   5.225   2.110  0.4171  0.2659 -0.7427
  141OSM    C1S15321   2.932   5.326   2.262 -0.1844  0.3062 -0.0770
  141OSM    H1S15322   2.991   5.238   2.295 -0.4810  0.1212 -0.0348
  141OSM    H1T15323   2.832   5.290   2.228 -0.8066  1.6671  0.2497
  141OSM     NF15324   2.874   5.352   2.505 -0.5598 -0.2037 -0.3233
  141OSM    HNF15325   2.775   5.353   2.522 -1.0897 -1.0689 -2.8173
  141OSM    C2S15326   2.916   5.424   2.386 -0.1366  0.0071 -0.9646
  141OSM    H2S15327   3.017   5.467   2.404 -0.0186 -1.0704  1.2984
  141OSM    C3S15328   2.828   5.544   2.352 -0.3861 -0.3426 -0.3390
  141OSM    H3S15329   2.723   5.509   2.338 -0.5231 -0.2583  0.4002
  141OSM     O315330   2.860   5.616   2.235  0.2209 -0.0530  0.1106
  141OSM    HO315331   2.917   5.560   2.183 -0.3700  1.1166 -1.9339
  141OSM    C4S15332   2.832   5.642   2.464 -0.5239 -0.6151 -0.0607
  141OSM    H4S15333   2.935   5.665   2.494 -0.5763  0.7678 -0.8710
  141OSM    C5S15334   2.726   5.684   2.524 -0.2395 -0.5114 -0.3649
  141OSM    H5S15335   2.625   5.660   2.489 -0.6756  0.7152 -0.0204
  141OSM    C6S15336   2.728   5.770   2.649  0.1630 -0.2282  0.5288
  141OSM    H6S15337   2.623   5.769   2.686  0.0016 -1.9151  0.1018
  141OSM    H6T15338   2.768   5.868   2.616  0.8625 -1.2605 -1.9003
  141OSM    C7S15339   2.818   5.712   2.761 -0.2024 -0.2867  0.1893
  141OSM    H7S15340   2.818   5.793   2.836  1.4601  0.9015 -1.0257
  141OSM    H7T15341   2.915   5.678   2.719 -0.4565 -0.9788  0.1420
  141OSM    C8S15342   2.749   5.590   2.824 -0.1482 -0.1177  0.2959
  141OSM    H8S15343   2.743   5.511   2.746  0.7679 -2.0558  2.1137
  141OSM    H8T15344   2.644   5.613   2.854 -0.2016  2.2972 -1.4518
  141OSM    C9S15345   2.828   5.540   2.941 -0.2747 -0.0058  0.3446
  141OSM    H9S15346   2.848   5.616   3.020 -0.4772  1.8939 -1.3643
  141OSM    H9T15347   2.923   5.503   2.896  0.4064  1.1869  0.7762
  141OSM   C10S15348   2.762   5.423   3.011  0.5407  0.3239 -0.0988
  141OSM   H10S15349   2.742   5.340   2.941  0.2679 -1.9124  2.4541
  141OSM   H10T15350   2.661   5.457   3.044 -0.4504 -2.0300 -0.5622
  141OSM   C11S15351   2.836   5.372   3.143  0.1586  0.1075  0.1925
  141OSM   H11S15352   2.816   5.447   3.222  1.8769 -0.9061  1.6681
  141OSM   H11T15353   2.945   5.364   3.124  0.9738  3.0390  2.7592
  141OSM   C12S15354   2.777   5.240   3.192 -0.4532 -0.4228  0.6884
  141OSM   H12S15355   2.770   5.168   3.108  0.9449 -2.0387  1.8736
  141OSM   H12T15356   2.672   5.265   3.218 -0.6286 -0.9143  0.4750
  141OSM   C13S15357   2.844   5.159   3.306  0.5268 -0.9201 -0.9064
  141OSM   H13S15358   2.944   5.119   3.281  0.8618  0.1980 -1.4026
  141OSM   H13T15359   2.770   5.081   3.334 -1.0248 -0.0375 -2.3511
  141OSM   C14S15360   2.855   5.242   3.437  1.0300  0.2257 -0.2631
  141OSM   H14S15361   2.916   5.331   3.410 -1.0336  0.7468 -3.8140
  141OSM   H14T15362   2.912   5.174   3.505  1.1156 -1.8765 -2.3139
  141OSM   C15S15363   2.722   5.280   3.509 -0.1630  0.0237 -0.3482
  141OSM   H15S15364   2.686   5.193   3.567 -0.4417  1.2503  1.4239
  141OSM   H15T15365   2.643   5.306   3.436 -0.7418  1.5093  0.7427
  141OSM   C16S15366   2.751   5.406   3.587 -0.1315  0.3709 -0.2936
  141OSM   H16S15367   2.775   5.480   3.508 -1.7428  0.4303 -0.7628
  141OSM   H16T15368   2.847   5.391   3.641 -0.0380 -0.2049 -0.6050
  141OSM   C17S15369   2.634   5.457   3.669 -0.1805 -0.5940 -0.3413
  141OSM   H17S15370   2.603   5.377   3.739  1.8037 -0.9199  0.2330
  141OSM   H17T15371   2.553   5.486   3.599  1.5208 -0.7758 -2.5153
  141OSM   C18S15372   2.656   5.579   3.753  0.0664  0.0937  0.3620
  141OSM   H18S15373   2.743   5.555   3.818  1.2038  1.7097 -0.5005
  141OSM   H18T15374   2.567   5.605   3.814  0.8388  2.2018  0.6706
  141OSM   H18U15375   2.692   5.666   3.694  0.8124 -0.1464  0.4605
  141OSM    C1F15376   2.954   5.271   2.567 -0.2962  0.0757 -0.0922
  141OSM     OF15377   3.069   5.247   2.532 -0.3436  0.2274 -0.3803
  141OSM    C2F15378   2.891   5.208   2.684 -0.5297  0.4139 -0.5114
  141OSM    H2F15379   2.781   5.206   2.670 -0.9936  3.5056  1.6260
  141OSM    H2G15380   2.915   5.273   2.771 -1.7152 -1.2352  1.1129
  141OSM    C3F15381   2.942   5.066   2.715 -0.1397  0.5004 -0.1422
  141OSM    H3F15382   3.050   5.043   2.722  0.0038  1.4006  0.6111
  141OSM    H3G15383   2.898   4.996   2.639  1.6755  0.1002 -0.8873
  141OSM    C4F15384   2.878   5.013   2.849 -0.3495  0.6827  0.0787
  141OSM    H4F15385   2.771   5.045   2.853 -1.6140 -2.5953 -2.2029
  141OSM    H4G15386   2.935   5.066   2.927 -0.4625 -2.0898  2.2082
  141OSM    C5F15387   2.872   4.865   2.865  0.5055 -0.1912  0.2581
  141OSM    H5F15388   2.967   4.812   2.842 -1.0384 -3.2316  0.4335
  141OSM    H5G15389   2.798   4.840   2.786 -1.3504  4.7912  0.0182
  141OSM    C6F15390   2.824   4.804   3.001  0.4519  0.0597  0.0962
  141OSM    H6F15391   2.785   4.702   2.983 -0.7420  0.9309 -2.7783
  141OSM    H6G15392   2.739   4.864   3.041  0.9699  0.1250  1.1507
  141OSM    C7F15393   2.928   4.789   3.118 -0.0077  0.0783  0.4279
  141OSM    H7F15394   2.959   4.893   3.143  1.2785 -1.0080  4.0406
  141OSM    H7G15395   3.015   4.747   3.064  0.5685  1.8167 -0.0488
  141OSM    C8F15396   2.877   4.708   3.238  0.9213  0.0905 -0.1692
  141OSM    H8F15397   2.824   4.614   3.211 -1.5893  0.9598  1.4289
  141OSM    H8G15398   2.795   4.770   3.279  0.0647 -1.2973  0.3021
  141OSM    C9F15399   2.980   4.687   3.342  0.4505 -0.2267 -0.4902
  141OSM    H9F15400   3.070   4.640   3.302  0.4697 -0.3490 -0.3054
  141OSM   C10F15401   2.980   4.724   3.470 -0.2260 -0.3260  0.6759
  141OSM   H10F15402   3.081   4.732   3.512  0.6947  3.9203 -1.7386
  141OSM   C11F15403   2.872   4.793   3.548  0.0444  0.4041 -0.1601
  141OSM   H11F15404   2.798   4.713   3.565  1.6729 -1.0280  0.4244
  141OSM   H11G15405   2.836   4.877   3.485  0.8632  1.1095  0.2880
  141OSM   C12F15406   2.932   4.844   3.680 -0.1721  0.0651 -0.5396
  141OSM   H12F15407   2.864   4.923   3.716 -0.5564  1.0963 -3.3498
  141OSM   H12G15408   3.025   4.900   3.659 -0.0542 -0.7065 -2.1899
  141OSM   C13F15409   2.962   4.734   3.794  0.3586 -0.5878 -0.0501
  141OSM   H13F15410   3.008   4.654   3.732  0.4062  0.3133 -1.1926
  141OSM   H13G15411   2.868   4.693   3.837  0.3044  0.0209  0.4184
  141OSM   C14F15412   3.036   4.789   3.917 -0.0049  0.2086 -0.0607
  141OSM   H14F15413   2.965   4.859   3.966  1.6133  1.0713  1.1218
  141OSM   H14G15414   3.124   4.843   3.877  0.8201 -0.7107  0.4524
  141OSM   C15F15415   3.069   4.679   4.018 -0.0285  0.4616 -0.2650
  141OSM   H15F15416   3.161   4.629   3.983 -0.3091 -0.0950 -0.2310
  141OSM   H15G15417   2.979   4.614   4.028 -0.7004  1.6062  2.1895
  141OSM   C16F15418   3.107   4.736   4.155  0.1326  0.1162 -0.1876
  141OSM   H16F15419   3.201   4.794   4.140 -0.8695  1.6525 -0.8391
  141OSM   H16G15420   3.126   4.649   4.221 -1.5386  0.0727  0.2627
  141OSM   C17F15421   2.999   4.816   4.225 -0.1005  0.2112 -0.2409
  141OSM   H17F15422   2.904   4.760   4.214  0.6604 -1.0983 -0.3253
  141OSM   H17G15423   2.992   4.921   4.189 -0.2134  0.3767  0.2584
  141OSM   C18F15424   3.020   4.829   4.375 -0.4542 -0.1648 -0.9034
  141OSM   H18F15425   3.045   4.733   4.424  1.3832  0.6256 -0.1672
  141OSM   H18G15426   2.936   4.874   4.431 -0.3999  0.8440 -1.6000
  141OSM   H18H15427   3.107   4.897   4.387 -0.2824 -0.5050 -0.1942
  142OSM      N15428   4.757   0.329   1.907  0.4263  0.3261  0.0425
  142OSM    C1515429   4.834   0.432   1.978  0.1540  0.4412  0.3240
  142OSM   H15A15430   4.938   0.403   1.978  0.1356  0.3757  0.4390
  142OSM   H15B15431   4.800   0.435   2.080 -3.1649 -3.8750 -0.3695
  142OSM   H15C15432   4.814   0.528   1.933 -0.0334  0.7127  0.9902
  142OSM    C1415433   4.611   0.368   1.920 -0.6030  0.0515 -0.4733
  142OSM   H14A15434   4.549   0.282   1.901 -0.1097 -0.9713  2.1493
  142OSM   H14B15435   4.574   0.448   1.857 -1.7961 -1.9872 -2.5409
  142OSM   H14C15436   4.594   0.387   2.025  3.0282 -1.4619  0.5248
  142OSM    C1315437   4.783   0.318   1.764  0.0587  0.1915 -0.5225
  142OSM   H13A15438   4.773   0.409   1.706  2.3424 -1.2468 -3.4770
  142OSM   H13B15439   4.710   0.251   1.719 -0.6966  0.9448 -0.4383
  142OSM   H13C15440   4.881   0.274   1.746  0.9951  1.5341  1.0795
  142OSM    C1215441   4.785   0.192   1.969  0.7111 -0.4218 -0.0562
  142OSM   H12A15442   4.791   0.204   2.076  2.3213  0.3754 -0.2101
  142OSM   H12B15443   4.873   0.155   1.920  2.4602  1.8676  1.1676
  142OSM    C1115444   4.680   0.081   1.935  0.0143 -0.1592 -0.0702
  142OSM   H11A15445   4.575   0.116   1.941  0.6052  1.8023 -0.5263
  142OSM   H11B15446   4.684  -0.006   2.005  1.2609  0.5119  0.7171
  142OSM      P15447   4.816  -0.057   1.756  0.3452  0.3648 -0.0644
  142OSM    O1315448   4.775  -0.150   1.645  0.3001  0.1422  0.6890
  142OSM    O1415449   4.931   0.025   1.712 -0.1413  0.1935  0.3701
  142OSM    O1115450   4.858  -0.129   1.886  0.4116  0.3581 -0.3784
  142OSM    O1215451   4.695   0.034   1.803 -0.4137  0.3734  0.4316
  142OSM    C1S15452   4.982  -0.109   1.958 -0.4229 -0.2442 -0.2405
  142OSM    H1S15453   5.014  -0.003   1.950 -2.0378  0.1751 -2.1548
  142OSM    H1T15454   5.058  -0.182   1.925 -0.7306 -0.5171 -0.3575
  142OSM     NF15455   5.066  -0.070   2.193 -0.3889 -0.5590 -0.2772
  142OSM    HNF15456   5.156  -0.113   2.188  0.8276  1.6565  1.0867
  142OSM    C2S15457   4.951  -0.121   2.112  0.3460  0.1333  0.5710
  142OSM    H2S15458   4.864  -0.056   2.138 -0.0786 -0.7101  1.2985
  142OSM    C3S15459   4.900  -0.268   2.139  0.0802  1.1089  0.1394
  142OSM    H3S15460   4.989  -0.333   2.125  1.1869  2.1112  2.0205
  142OSM     O315461   4.809  -0.327   2.047  0.5373 -0.2329 -0.2301
  142OSM    HO315462   4.825  -0.277   1.967 -2.2457  1.4172  0.0918
  142OSM    C4S15463   4.850  -0.288   2.279 -0.2385  0.2410  0.2172
  142OSM    H4S15464   4.757  -0.231   2.289 -1.0134 -0.4287 -2.4424
  142OSM    C5S15465   4.890  -0.358   2.389  0.1685  0.2272  0.2551
  142OSM    H5S15466   4.970  -0.434   2.392  0.5217  0.6331  2.7336
  142OSM    C6S15467   4.804  -0.365   2.519  0.2274 -0.2701 -0.1904
  142OSM    H6S15468   4.790  -0.475   2.521 -1.3072 -0.1251 -1.3259
  142OSM    H6T15469   4.707  -0.311   2.519 -0.5352 -1.6102  0.7892
  142OSM    C7S15470   4.887  -0.305   2.640 -0.0071  0.8002  0.1142
  142OSM    H7S15471   4.901  -0.199   2.610 -2.8990  0.9301 -1.1265
  142OSM    H7T15472   4.982  -0.362   2.641 -0.9195 -0.9087 -1.7821
  142OSM    C8S15473   4.813  -0.302   2.779 -0.1269 -0.3161  1.0572
  142OSM    H8S15474   4.792  -0.406   2.813  2.3833 -1.5684 -0.8895
  142OSM    H8T15475   4.723  -0.238   2.785 -0.4032 -0.5077 -0.5615
  142OSM    C9S15476   4.906  -0.238   2.887  0.1069  0.0964  0.8599
  142OSM    H9S15477   4.906  -0.129   2.863 -0.3591 -0.1877 -0.5309
  142OSM    H9T15478   5.005  -0.286   2.873 -0.8013 -1.9882  1.2353
  142OSM   C10S15479   4.845  -0.259   3.023 -0.0369 -0.1329  0.1911
  142OSM   H10S15480   4.812  -0.364   3.034 -1.6406  0.4484  1.3019
  142OSM   H10T15481   4.750  -0.202   3.029  1.2730  2.5746 -2.3073
  142OSM   C11S15482   4.947  -0.213   3.131  1.1274  0.3226  0.3193
  142OSM   H11S15483   4.998  -0.121   3.096  1.0022  0.0250 -0.6824
  142OSM   H11T15484   5.027  -0.289   3.138  0.5253 -0.1837  2.3178
  142OSM   C12S15485   4.895  -0.201   3.276  0.2382  0.0965 -0.1389
  142OSM   H12S15486   4.870  -0.301   3.318 -1.6458  0.0262 -1.3123
  142OSM   H12T15487   4.804  -0.137   3.284  0.6372  0.8804 -1.6516
  142OSM   C13S15488   4.998  -0.136   3.374 -0.0624  0.3280 -0.0033
  142OSM   H13S15489   4.999  -0.026   3.359 -0.5160 -0.0859 -4.0141
  142OSM   H13T15490   5.099  -0.172   3.347 -0.4116  1.8468 -3.9665
  142OSM   C14S15491   4.984  -0.163   3.526  0.3681 -0.1864  0.3610
  142OSM   H14S15492   4.979  -0.274   3.535  1.1295 -0.4319 -1.5928
  142OSM   H14T15493   4.882  -0.133   3.557  0.4426  1.0595 -0.5183
  142OSM   C15S15494   5.100  -0.106   3.607  0.8758 -0.4153  0.0815
  142OSM   H15S15495   5.104   0.005   3.601 -0.0164 -0.3483  0.5161
  142OSM   H15T15496   5.189  -0.154   3.562  1.0994 -0.1550  0.2405
  142OSM   C16S15497   5.078  -0.136   3.755 -0.1570  0.5719  0.7107
  142OSM   H16S15498   5.002  -0.073   3.806 -2.3929 -1.7221  0.4118
  142OSM   H16T15499   5.177  -0.120   3.802  0.4126  0.5112 -0.4440
  142OSM   C17S15500   5.042  -0.288   3.796  0.6692  0.6766 -0.2519
  142OSM   H17S15501   5.105  -0.356   3.735  0.3032  0.3795 -0.3005
  142OSM   H17T15502   4.936  -0.314   3.776 -0.3972  4.2966  0.0816
  142OSM   C18S15503   5.069  -0.307   3.944 -0.2246 -0.1429  0.3757
  142OSM   H18S15504   5.086  -0.413   3.970  0.9126 -0.2509 -0.6748
  142OSM   H18T15505   4.983  -0.278   4.009 -0.3207 -0.8073  0.5451
  142OSM   H18U15506   5.158  -0.247   3.973 -0.6126 -0.3081  1.9755
  142OSM    C1F15507   5.086   0.061   2.213  0.3983  0.2643  0.0981
  142OSM     OF15508   5.012   0.143   2.164 -0.8232 -0.1652 -0.2551
  142OSM    C2F15509   5.215   0.105   2.272 -0.6446  0.0824 -0.7998
  142OSM    H2F15510   5.246   0.205   2.236  0.7169  0.6539  1.7551
  142OSM    H2G15511   5.297   0.035   2.245 -0.5404 -0.5997  1.1421
  142OSM    C3F15512   5.210   0.094   2.427 -0.8660 -0.3860  0.5658
  142OSM    H3F15513   5.218  -0.012   2.460  1.3188 -0.4754 -0.0850
  142OSM    H3G15514   5.110   0.130   2.459 -0.0759  0.8353  1.8096
  142OSM    C4F15515   5.318   0.175   2.493 -0.0565  0.6805  0.5898
  142OSM    H4F15516   5.327   0.271   2.437 -2.2328  0.9508  0.6286
  142OSM    H4G15517   5.422   0.136   2.483 -1.3409 -2.7230 -1.5573
  142OSM    C5F15518   5.294   0.207   2.640  0.6344 -0.2450 -0.6136
  142OSM    H5F15519   5.207   0.277   2.630  1.1522  0.4014 -0.6323
  142OSM    H5G15520   5.385   0.258   2.678  0.8188 -3.1909  3.4971
  142OSM    C6F15521   5.262   0.078   2.723  0.4312 -0.5646 -0.5519
  142OSM    H6F15522   5.343   0.003   2.707  0.0453 -1.6120  1.8636
  142OSM    H6G15523   5.173   0.025   2.684  0.5356  0.4458 -2.2191
  142OSM    C7F15524   5.246   0.101   2.873 -0.2193 -0.4514  0.4201
  142OSM    H7F15525   5.153   0.161   2.880  0.0543  0.0974 -0.4425
  142OSM    H7G15526   5.327   0.171   2.904 -0.5656 -0.3261  1.0584
  142OSM    C8F15527   5.249  -0.030   2.957 -0.1482  0.1614 -0.2000
  142OSM    H8F15528   5.342  -0.076   2.918 -1.1469 -1.2649 -1.0033
  142OSM    H8G15529   5.166  -0.098   2.927 -0.0751  0.6741 -1.6757
  142OSM    C9F15530   5.247  -0.012   3.109  0.4303  0.0643  0.1616
  142OSM    H9F15531   5.150   0.028   3.142  0.9326  0.4094  1.2824
  142OSM   C10F15532   5.342  -0.035   3.199 -0.5279  0.4039  0.4728
  142OSM   H10F15533   5.318  -0.011   3.303 -1.5312  2.3085 -0.1358
  142OSM   C11F15534   5.476  -0.089   3.168  0.8322  0.2135 -0.8303
  142OSM   H11F15535   5.538   0.002   3.157 -1.2313  1.9280  0.9164
  142OSM   H11G15536   5.481  -0.153   3.077 -1.3747  1.6926 -2.0645
  142OSM   C12F15537   5.533  -0.159   3.285  0.2547  0.3582  0.7480
  142OSM   H12F15538   5.628  -0.202   3.247  0.2974  2.2245 -1.4844
  142OSM   H12G15539   5.465  -0.245   3.299  0.0330 -0.4400 -3.7479
  142OSM   C13F15540   5.576  -0.084   3.408 -0.1688 -0.0665  0.9018
  142OSM   H13F15541   5.496  -0.020   3.450  1.4201  0.8829  2.6719
  142OSM   H13G15542   5.651  -0.004   3.390 -0.9087  0.6402  0.9538
  142OSM   C14F15543   5.622  -0.183   3.515  0.0280 -0.3588 -0.8812
  142OSM   H14F15544   5.713  -0.235   3.476  0.4296 -0.6742  0.4431
  142OSM   H14G15545   5.541  -0.255   3.538 -0.9389  0.9900  0.1362
  142OSM   C15F15546   5.653  -0.110   3.650 -0.5207 -0.0936 -0.5894
  142OSM   H15F15547   5.567  -0.043   3.671  1.3637  1.7177  2.0642
  142OSM   H15G15548   5.742  -0.043   3.643 -0.2091 -0.5366 -0.9946
  142OSM   C16F15549   5.709  -0.206   3.768  0.0770 -0.3202  0.2048
  142OSM   H16F15550   5.734  -0.142   3.854 -2.9409 -1.7149  2.2838
  142OSM   H16G15551   5.798  -0.260   3.727 -0.1863 -1.5560  1.1993
  142OSM   C17F15552   5.607  -0.318   3.803  0.6655 -0.3534  0.0978
  142OSM   H17F15553   5.656  -0.400   3.860  0.2009  0.0825  1.1547
  142OSM   H17G15554   5.563  -0.366   3.713 -0.6329 -1.1162  1.1085
  142OSM   C18F15555   5.478  -0.257   3.870 -1.3096  0.4318  0.2069
  142OSM   H18F15556   5.427  -0.181   3.807 -1.3182  1.1486  1.0435
  142OSM   H18G15557   5.520  -0.212   3.963  3.0403 -0.5562 -1.0699
  142OSM   H18H15558   5.409  -0.334   3.912 -1.0290  1.1127  1.9978
  143OSM      N15559   3.679   4.640   1.610 -0.5641 -0.0729  0.1113
  143OSM    C1515560   3.647   4.496   1.636  0.0454 -0.0424  0.4004
  143OSM   H15A15561   3.714   4.431   1.583 -0.5194  0.8500 -1.5118
  143OSM   H15B15562   3.552   4.470   1.592  0.8607  1.0787 -2.2047
  143OSM   H15C15563   3.631   4.476   1.741 -1.0127  1.7961  0.6510
  143OSM    C1415564   3.679   4.663   1.461  0.2549  0.1349 -0.2003
  143OSM   H14A15565   3.583   4.651   1.413 -0.0804  3.6518 -0.6507
  143OSM   H14B15566   3.748   4.589   1.423  0.4062  0.0191  0.2924
  143OSM   H14C15567   3.711   4.762   1.434  0.4689 -0.1160 -0.8978
  143OSM    C1315568   3.577   4.725   1.675  0.4733  0.0105  0.5538
  143OSM   H13A15569   3.594   4.831   1.665 -1.2294  0.3419  0.9804
  143OSM   H13B15570   3.576   4.707   1.781  0.6067  0.3335  0.6102
  143OSM   H13C15571   3.479   4.714   1.632  0.5905  3.7072 -0.9444
  143OSM    C1215572   3.822   4.669   1.666  0.4389  0.6899 -0.1127
  143OSM   H12A15573   3.842   4.771   1.639 -2.8459  1.6429  0.5664
  143OSM   H12B15574   3.891   4.605   1.613 -0.9542  0.9157 -2.3547
  143OSM    C1115575   3.850   4.674   1.813  0.0164 -0.4350  0.4534
  143OSM   H11A15576   3.960   4.687   1.822  0.2475 -2.4678  1.2615
  143OSM   H11B15577   3.829   4.580   1.869 -0.4223  0.3613  1.6502
  143OSM      P15578   3.820   4.927   1.881  0.3338  0.3758 -0.1813
  143OSM    O1315579   3.900   4.959   1.757  0.1862 -0.7417 -0.0308
  143OSM    O1415580   3.690   4.990   1.881 -0.2757  0.4290 -0.3210
  143OSM    O1115581   3.905   4.950   2.011  0.0339 -0.0504 -0.2728
  143OSM    O1215582   3.789   4.776   1.883  0.2337 -0.0520  0.6613
  143OSM    C1S15583   4.032   4.882   2.034 -0.5265 -0.1293  0.5240
  143OSM    H1S15584   4.109   4.909   1.959 -3.5980  1.4508 -2.3160
  143OSM    H1T15585   4.031   4.771   2.023 -0.7943  0.0541 -1.5995
  143OSM     NF15586   4.216   4.844   2.179 -0.4425  0.6603 -0.2489
  143OSM    HNF15587   4.219   4.747   2.202  1.3217  0.8058  0.2628
  143OSM    C2S15588   4.090   4.900   2.178  0.6823  0.1587 -0.4333
  143OSM    H2S15589   4.099   5.007   2.205 -1.9932 -0.1582  2.2381
  143OSM    C3S15590   3.989   4.824   2.280  0.3935 -0.8788  0.2027
  143OSM    H3S15591   3.992   4.716   2.254  3.1653 -1.1302  1.2066
  143OSM     O315592   3.848   4.874   2.279  0.1781 -0.3319  0.0332
  143OSM    HO315593   3.842   4.923   2.196 -1.8138 -0.3720  0.1124
  143OSM    C4S15594   4.036   4.835   2.420 -0.6304  0.4870 -0.7025
  143OSM    H4S15595   4.014   4.929   2.472  1.2592  1.1704 -1.0484
  143OSM    C5S15596   4.109   4.739   2.488  0.7045 -0.5990 -0.5782
  143OSM    H5S15597   4.108   4.641   2.439  0.1910 -0.4211 -0.9254
  143OSM    C6S15598   4.158   4.739   2.631  0.2362  0.8339 -0.3781
  143OSM    H6S15599   4.134   4.824   2.698 -0.5843 -2.5308  4.0835
  143OSM    H6T15600   4.269   4.748   2.636  0.3284  1.1791 -2.2534
  143OSM    C7S15601   4.131   4.615   2.714  0.3780  0.6427 -0.2326
  143OSM    H7S15602   4.171   4.522   2.668  2.6154  0.0720  2.5892
  143OSM    H7T15603   4.021   4.606   2.726  0.3287 -1.3109 -1.7419
  143OSM    C8S15604   4.195   4.630   2.853  0.4277 -0.0650  0.0144
  143OSM    H8S15605   4.185   4.735   2.888  0.2600 -0.6242  1.7858
  143OSM    H8T15606   4.299   4.609   2.822  1.5836  2.4360  1.8209
  143OSM    C9S15607   4.151   4.536   2.963  0.1987 -0.1018 -0.0917
  143OSM    H9S15608   4.138   4.434   2.921  0.2323 -0.7276  1.3598
  143OSM    H9T15609   4.058   4.580   3.007  1.5562  2.2733  0.5815
  143OSM   C10S15610   4.250   4.534   3.084  0.2215  0.0085 -0.1308
  143OSM   H10S15611   4.235   4.639   3.118 -0.2818  0.2213 -0.9738
  143OSM   H10T15612   4.351   4.506   3.047 -0.0251 -1.1236  0.0055
  143OSM   C11S15613   4.199   4.435   3.189 -0.1881 -0.1934  0.1099
  143OSM   H11S15614   4.245   4.336   3.168 -1.2206 -1.2175  2.3856
  143OSM   H11T15615   4.089   4.428   3.178 -0.4435  2.3913  0.2897
  143OSM   C12S15616   4.229   4.481   3.329  0.3292 -0.6119  0.2982
  143OSM   H12S15617   4.196   4.403   3.401 -1.8901 -0.2047 -0.2240
  143OSM   H12T15618   4.177   4.576   3.350  2.5649  0.7592 -0.0850
  143OSM   C13S15619   4.385   4.501   3.353 -0.6735 -0.0109  0.0834
  143OSM   H13S15620   4.417   4.602   3.319 -0.7832  0.6394  1.8087
  143OSM   H13T15621   4.436   4.419   3.298 -0.8052 -0.1003  0.0936
  143OSM   C14S15622   4.406   4.477   3.502  0.0232 -1.3355  0.5259
  143OSM   H14S15623   4.514   4.494   3.517 -0.1034 -0.6428  0.7148
  143OSM   H14T15624   4.399   4.368   3.519 -0.1481 -1.1812  1.4599
  143OSM   C15S15625   4.325   4.559   3.596 -0.3568 -0.5871 -0.4499
  143OSM   H15S15626   4.216   4.537   3.584 -0.8136 -1.1488  3.4828
  143OSM   H15T15627   4.338   4.666   3.569 -0.8562 -0.3530  0.2314
  143OSM   C16S15628   4.386   4.537   3.738 -0.2268  0.5828 -0.2893
  143OSM   H16S15629   4.487   4.583   3.738 -0.3396  0.8419 -0.9243
  143OSM   H16T15630   4.408   4.429   3.747 -0.9017  0.3199 -1.4905
  143OSM   C17S15631   4.295   4.598   3.840 -0.7540 -0.0749 -0.0428
  143OSM   H17S15632   4.343   4.588   3.940 -1.0109  1.3219  0.2538
  143OSM   H17T15633   4.200   4.542   3.851 -0.8787  0.2141  0.3831
  143OSM   C18S15634   4.270   4.744   3.823  0.4401  0.5517  0.7085
  143OSM   H18S15635   4.360   4.805   3.803 -1.7024  3.1689 -2.0046
  143OSM   H18T15636   4.229   4.792   3.915  0.3251  0.5009  0.6848
  143OSM   H18U15637   4.204   4.777   3.739  0.1668 -0.6724  0.4218
  143OSM    C1F15638   4.337   4.906   2.165  0.1629  0.4025 -0.2731
  143OSM     OF15639   4.339   5.024   2.130 -0.1272 -0.8347  0.4281
  143OSM    C2F15640   4.464   4.825   2.173 -0.3414 -0.0292  0.5082
  143OSM    H2F15641   4.484   4.792   2.069  0.4129  0.1675  0.5856
  143OSM    H2G15642   4.439   4.730   2.224 -3.1525 -1.5818 -3.2590
  143OSM    C3F15643   4.588   4.895   2.235  0.7559  0.0414  0.2329
  143OSM    H3F15644   4.633   4.972   2.169  1.6895  1.2849  2.2296
  143OSM    H3G15645   4.666   4.817   2.237  1.3732  0.6275 -0.5240
  143OSM    C4F15646   4.560   4.976   2.368 -0.6746  0.5300 -0.0880
  143OSM    H4F15647   4.471   5.042   2.358 -0.3063  0.9901 -0.4267
  143OSM    H4G15648   4.648   5.038   2.395 -0.2016 -0.2610  0.2199
  143OSM    C5F15649   4.528   4.892   2.492 -0.2616  0.3952 -0.2111
  143OSM    H5F15650   4.614   4.823   2.505 -0.5259  0.4809  2.4851
  143OSM    H5G15651   4.430   4.841   2.478  0.8111 -1.1073 -3.1056
  143OSM    C6F15652   4.535   4.971   2.615 -0.6985 -0.2931  0.2910
  143OSM    H6F15653   4.634   5.020   2.629 -1.2847  0.8559  0.5359
  143OSM    H6G15654   4.538   4.902   2.701  0.5668 -1.0544 -0.3331
  143OSM    C7F15655   4.423   5.076   2.649 -0.0891 -0.1595  0.1349
  143OSM    H7F15656   4.325   5.032   2.677  0.4973 -0.7387  1.3235
  143OSM    H7G15657   4.406   5.136   2.556 -3.4384 -0.4688  0.4406
  143OSM    C8F15658   4.465   5.173   2.763  0.3696 -0.6238  0.1025
  143OSM    H8F15659   4.399   5.262   2.774  2.3388  1.3664 -2.6771
  143OSM    H8G15660   4.557   5.220   2.719 -0.0418  2.6664  2.3675
  143OSM    C9F15661   4.480   5.109   2.903 -0.4506  0.1319  0.1503
  143OSM    H9F15662   4.391   5.065   2.949  0.2191 -0.9010  0.4998
  143OSM   C10F15663   4.604   5.091   2.961  0.7092  0.3733  0.0785
  143OSM   H10F15664   4.600   5.049   3.062  0.7309 -2.1482 -0.9061
  143OSM   C11F15665   4.744   5.123   2.908  0.9401  1.3916  0.7785
  143OSM   H11F15666   4.747   5.148   2.800  1.8156 -2.2105 -0.1492
  143OSM   H11G15667   4.809   5.036   2.929  0.1417  0.7219  0.4993
  143OSM   C12F15668   4.808   5.248   2.981  0.0481 -0.5710 -0.3204
  143OSM   H12F15669   4.732   5.329   2.978 -0.6790 -1.1439  1.5749
  143OSM   H12G15670   4.902   5.271   2.926  0.0985 -3.9941 -1.9228
  143OSM   C13F15671   4.835   5.231   3.132 -1.0388  0.0320  0.4944
  143OSM   H13F15672   4.752   5.189   3.193 -0.2970 -1.1784  0.7067
  143OSM   H13G15673   4.847   5.338   3.156  1.6696  0.3245 -1.7074
  143OSM   C14F15674   4.961   5.155   3.168 -0.0579  0.1135 -0.5517
  143OSM   H14F15675   5.043   5.176   3.097 -0.2851  0.9640 -0.5738
  143OSM   H14G15676   4.926   5.050   3.160  0.6157 -0.2029  0.5000
  143OSM   C15F15677   5.015   5.203   3.311  0.2500 -0.1374 -0.2934
  143OSM   H15F15678   5.015   5.314   3.319  0.3499 -0.2596  2.0890
  143OSM   H15G15679   5.124   5.179   3.312  0.4175  0.3204 -2.3758
  143OSM   C16F15680   4.970   5.122   3.429 -0.3096  0.5584 -0.4153
  143OSM   H16F15681   4.955   5.014   3.412 -2.6284  0.5707  1.1321
  143OSM   H16G15682   4.872   5.168   3.453  0.7370  2.9707 -0.3879
  143OSM   C17F15683   5.072   5.128   3.547  0.0733  0.1973  0.9374
  143OSM   H17F15684   5.161   5.068   3.518 -0.5585 -1.1591  1.6890
  143OSM   H17G15685   5.011   5.067   3.617 -3.0268  1.9898 -0.0202
  143OSM   C18F15686   5.117   5.268   3.594  0.8937 -0.6814  0.1992
  143OSM   H18F15687   5.180   5.311   3.513  0.8291  1.2866  1.1202
  143OSM   H18G15688   5.173   5.256   3.689 -0.3810  1.2959  1.2644
  143OSM   H18H15689   5.031   5.336   3.614 -0.2358 -1.7834 -0.7605
  144OSM      N15690   4.094   6.170   1.551 -0.0121 -0.4514  0.0676
  144OSM    C1515691   4.213   6.229   1.481 -0.4758  0.2764 -0.1014
  144OSM   H15A15692   4.305   6.181   1.510  0.3493 -0.1027 -3.0263
  144OSM   H15B15693   4.230   6.335   1.495  0.3575  0.2624 -0.8930
  144OSM   H15C15694   4.197   6.196   1.379 -0.5493  1.2186 -0.4020
  144OSM    C1415695   4.094   6.021   1.528 -0.5062 -0.0425  0.2407
  144OSM   H14A15696   4.151   5.981   1.611  1.3725 -0.5097 -1.2029
  144OSM   H14B15697   4.135   6.004   1.430 -0.2179 -1.1087  0.5396
  144OSM   H14C15698   3.992   5.988   1.541 -1.1483  1.8997  0.5119
  144OSM    C1315699   4.092   6.208   1.698  0.2162  0.3091  0.8398
  144OSM   H13A15700   4.183   6.172   1.742 -0.3946 -1.3742  0.8099
  144OSM   H13B15701   4.006   6.162   1.744 -0.6529  1.0056 -0.0368
  144OSM   H13C15702   4.073   6.314   1.705 -1.0837  0.1160  0.5185
  144OSM    C1215703   3.971   6.225   1.480  0.5971 -0.1983 -0.6761
  144OSM   H12A15704   3.963   6.192   1.377  3.2507 -1.6051 -0.5272
  144OSM   H12B15705   3.984   6.332   1.477 -0.3265 -0.0515  0.2427
  144OSM    C1115706   3.829   6.190   1.546 -0.2658  0.0375 -0.9759
  144OSM   H11A15707   3.767   6.251   1.477 -3.2393 -1.0582  0.5360
  144OSM   H11B15708   3.819   6.233   1.648  0.8817 -1.4240 -0.2063
  144OSM      P15709   3.773   5.960   1.664  0.0269  0.3612  0.1460
  144OSM    O1315710   3.642   6.008   1.714  0.3743  1.0019  0.0565
  144OSM    O1415711   3.781   5.819   1.619 -0.0113  0.4263 -0.1650
  144OSM    O1115712   3.881   5.988   1.778 -0.2708  0.0486  0.2038
  144OSM    O1215713   3.797   6.049   1.538 -0.0714 -0.1036  0.4515
  144OSM    C1S15714   3.889   5.895   1.888 -0.1038  0.1162  0.3169
  144OSM    H1S15715   3.967   5.825   1.852 -0.0250  0.1237  0.4715
  144OSM    H1T15716   3.795   5.847   1.922  0.1932 -1.1506 -0.5764
  144OSM     NF15717   3.984   5.837   2.114  0.2643  0.1451 -0.0124
  144OSM    HNF15718   3.921   5.829   2.191 -0.7960 -0.2242 -0.8916
  144OSM    C2S15719   3.961   5.949   2.019 -0.2024 -0.2159  0.7888
  144OSM    H2S15720   4.056   5.986   1.974 -0.0838 -0.6353  0.6953
  144OSM    C3S15721   3.873   6.069   2.069  0.0569  0.2042  0.9922
  144OSM    H3S15722   3.771   6.026   2.084 -0.9533  2.2795  0.4580
  144OSM     O315723   3.850   6.173   1.974 -0.2008  0.1132  0.2269
  144OSM    HO315724   3.881   6.146   1.887 -0.0248 -0.7515  0.5403
  144OSM    C4S15725   3.921   6.121   2.198 -0.5367  0.3222 -1.0884
  144OSM    H4S15726   3.855   6.100   2.284  1.7280  1.7068  1.1210
  144OSM    C5S15727   4.030   6.192   2.222 -0.8529 -0.0011  0.3364
  144OSM    H5S15728   4.084   6.223   2.131  0.4337 -4.2191 -0.6016
  144OSM    C6S15729   4.075   6.259   2.349 -0.1490 -0.2544 -0.2752
  144OSM    H6S15730   4.068   6.370   2.346  1.3791 -0.0810  0.9989
  144OSM    H6T15731   4.180   6.234   2.376 -0.4108 -1.6785 -0.5202
  144OSM    C7S15732   3.999   6.221   2.477  0.9825  0.1996  0.4855
  144OSM    H7S15733   4.010   6.113   2.503  0.2458 -0.3807 -1.4420
  144OSM    H7T15734   3.890   6.237   2.466  0.3102 -1.8004  3.0467
  144OSM    C8S15735   4.051   6.286   2.608  0.0973 -0.3949  0.1852
  144OSM    H8S15736   4.042   6.396   2.598 -2.2385 -0.1851  3.1975
  144OSM    H8T15737   4.157   6.259   2.624  0.5561  0.4991 -1.1541
  144OSM    C9S15738   3.973   6.253   2.732 -0.1572  0.2000 -0.7436
  144OSM    H9S15739   4.003   6.151   2.764  0.1000 -0.1890 -2.1499
  144OSM    H9T15740   3.865   6.247   2.705 -0.7615 -0.0249  1.5441
  144OSM   C10S15741   3.991   6.358   2.844  0.2429  0.0107  0.1541
  144OSM   H10S15742   3.906   6.429   2.835 -0.8338 -1.3159 -0.5633
  144OSM   H10T15743   4.089   6.409   2.831 -0.7649  2.4997  1.6516
  144OSM   C11S15744   3.976   6.283   2.976 -0.5444 -0.3392 -0.1903
  144OSM   H11S15745   4.061   6.212   2.988  1.1590  1.3280 -1.7944
  144OSM   H11T15746   3.885   6.218   2.976 -1.8959  1.4810  0.4667
  144OSM   C12S15747   3.979   6.373   3.099  0.0354  0.0835  0.1528
  144OSM   H12S15748   3.885   6.432   3.099 -0.8805 -1.1889  3.0443
  144OSM   H12T15749   4.072   6.434   3.098  0.4690 -0.5219  1.3312
  144OSM   C13S15750   3.986   6.290   3.225  0.1757 -0.6248 -0.8407
  144OSM   H13S15751   4.026   6.192   3.192 -1.2834 -1.2534 -0.8242
  144OSM   H13T15752   3.890   6.253   3.268  0.5222 -1.1985 -0.5422
  144OSM   C14S15753   4.067   6.367   3.338 -0.0816  0.1743 -0.6107
  144OSM   H14S15754   4.012   6.458   3.371  0.5797  0.4154 -0.1401
  144OSM   H14T15755   4.174   6.382   3.311 -0.4634 -0.4258 -2.5770
  144OSM   C15S15756   4.068   6.290   3.471 -0.2409  0.2868  0.8819
  144OSM   H15S15757   4.125   6.195   3.459  2.1003  1.8505 -1.3983
  144OSM   H15T15758   3.964   6.268   3.504 -0.1746 -1.1416  0.1922
  144OSM   C16S15759   4.134   6.371   3.589  0.2077 -0.0056 -0.0364
  144OSM   H16S15760   4.080   6.466   3.607  0.9448 -0.0458  2.8576
  144OSM   H16T15761   4.240   6.396   3.566  0.7687 -0.3325  1.9905
  144OSM   C17S15762   4.141   6.295   3.724  0.0112 -0.1278  0.2583
  144OSM   H17S15763   4.214   6.212   3.718 -1.6727 -1.6694  0.4694
  144OSM   H17T15764   4.043   6.255   3.756  0.5183 -0.8289  0.9700
  144OSM   C18S15765   4.187   6.384   3.846  0.2254 -0.4880 -0.4420
  144OSM   H18S15766   4.216   6.326   3.937 -2.2236 -1.1539 -0.0285
  144OSM   H18T15767   4.115   6.464   3.870 -1.3213 -1.6441 -1.0772
  144OSM   H18U15768   4.277   6.439   3.811 -0.2710  0.0685 -0.8529
  144OSM    C1F15769   4.087   5.752   2.101 -0.5386 -0.2288 -0.5356
  144OSM     OF15770   4.164   5.755   2.007 -0.4432 -0.4002  0.4756
  144OSM    C2F15771   4.095   5.641   2.201 -0.2339 -0.5218 -0.3928
  144OSM    H2F15772   4.157   5.555   2.169  0.3267  0.6604 -2.7480
  144OSM    H2G15773   3.996   5.598   2.228  0.9468 -2.8797  0.3972
  144OSM    C3F15774   4.147   5.692   2.330  0.9386  0.0899 -0.0020
  144OSM    H3F15775   4.062   5.753   2.368 -2.2458 -3.9508 -0.0024
  144OSM    H3G15776   4.238   5.754   2.311  0.9535  0.0963  0.0864
  144OSM    C4F15777   4.174   5.580   2.435 -0.1631 -0.5643  0.0828
  144OSM    H4F15778   4.231   5.501   2.382 -2.8664 -1.5059 -1.6116
  144OSM    H4G15779   4.085   5.531   2.480 -0.4843 -0.3029 -0.2624
  144OSM    C5F15780   4.242   5.622   2.564  0.3033 -0.8223  0.3957
  144OSM    H5F15781   4.203   5.720   2.598 -1.0010 -1.5048  0.9311
  144OSM    H5G15782   4.351   5.639   2.551  0.1945  1.3403  1.7111
  144OSM    C6F15783   4.222   5.530   2.678  0.4448  0.2481 -0.6312
  144OSM    H6F15784   4.257   5.429   2.650 -2.3910 -1.4167  1.3917
  144OSM    H6G15785   4.112   5.535   2.688  0.1926 -0.9055 -2.4644
  144OSM    C7F15786   4.277   5.588   2.803  0.0325 -0.8443 -0.2955
  144OSM    H7F15787   4.237   5.691   2.810  1.4619 -0.3954  2.2861
  144OSM    H7G15788   4.386   5.594   2.787  0.1886  1.5795  1.1580
  144OSM    C8F15789   4.232   5.517   2.937  0.0712  0.4371 -0.7032
  144OSM    H8F15790   4.303   5.555   3.013 -0.3684 -0.2417  0.0673
  144OSM    H8G15791   4.246   5.411   2.908 -4.0025 -0.2427 -0.8299
  144OSM    C9F15792   4.083   5.540   2.972 -0.5862  0.6168 -0.0402
  144OSM    H9F15793   4.010   5.573   2.897  0.1522  2.4380 -0.0194
  144OSM   C10F15794   4.050   5.548   3.103  0.0064  0.4151  0.1565
  144OSM   H10F15795   3.946   5.569   3.132  0.7829  1.4691  2.4115
  144OSM   C11F15796   4.139   5.492   3.215 -0.2342  0.2055 -0.0116
  144OSM   H11F15797   4.195   5.576   3.262  1.3317 -1.2719  0.8499
  144OSM   H11G15798   4.217   5.422   3.178  2.7051  1.8649  2.5396
  144OSM   C12F15799   4.070   5.415   3.329 -0.5579 -0.3582  0.4585
  144OSM   H12F15800   4.133   5.345   3.388 -1.2669 -0.7184  0.7974
  144OSM   H12G15801   3.993   5.348   3.284 -1.1363  0.6060 -0.0304
  144OSM   C13F15802   3.996   5.489   3.438  0.5791  0.0499  0.2744
  144OSM   H13F15803   3.925   5.424   3.494  0.5492  1.0449  1.4391
  144OSM   H13G15804   3.923   5.561   3.395  0.2337 -0.7180 -0.4483
  144OSM   C14F15805   4.089   5.559   3.541 -0.0491  0.2364 -0.7480
  144OSM   H14F15806   4.165   5.626   3.494 -0.5701  1.0041 -0.5260
  144OSM   H14G15807   4.147   5.486   3.601 -0.0758 -0.0178 -1.0290
  144OSM   C15F15808   4.013   5.655   3.641  0.1494  0.2367 -0.6405
  144OSM   H15F15809   3.930   5.602   3.691 -0.3955  1.7955  0.1597
  144OSM   H15G15810   3.962   5.733   3.581  3.0956  2.6961 -0.1834
  144OSM   C16F15811   4.109   5.735   3.724  0.3814  0.7091  0.0364
  144OSM   H16F15812   4.143   5.830   3.677  2.8035  0.2545  0.7251
  144OSM   H16G15813   4.205   5.682   3.741 -0.1289 -0.3099 -0.1892
  144OSM   C17F15814   4.056   5.778   3.868 -0.1823 -0.6450  0.6236
  144OSM   H17F15815   4.144   5.831   3.910  0.2218 -0.9001  0.1159
  144OSM   H17G15816   4.025   5.683   3.917 -1.2780 -0.1221  0.9655
  144OSM   C18F15817   3.939   5.874   3.859  0.2672  0.8476  0.1405
  144OSM   H18F15818   3.901   5.883   3.963  0.1077 -1.4600  0.3311
  144OSM   H18G15819   3.862   5.824   3.797  0.0343  0.5664  0.6532
  144OSM   H18H15820   3.989   5.959   3.808  2.5208 -0.8285 -0.6163
  145SAPE     N15821   6.285   1.538   6.785  0.0041 -0.6359  0.0531
  145SAPE   HN115822   6.339   1.464   6.735  1.7386  0.8606 -0.3837
  145SAPE   HN215823   6.331   1.558   6.876 -1.4389  0.6497  0.5373
  145SAPE   HN315824   6.186   1.506   6.793  0.5797 -3.4064 -2.1711
  145SAPE   C1215825   6.288   1.661   6.695  0.4592 -0.5819 -0.1565
  145SAPE  H12A15826   6.383   1.662   6.636 -0.4562 -0.0414 -1.6721
  145SAPE  H12B15827   6.302   1.749   6.761 -1.1459  1.2339 -2.1159
  145SAPE   C1115828   6.164   1.671   6.602  0.0247  0.8300 -0.2092
  145SAPE  H11A15829   6.180   1.601   6.517 -3.0827  0.0490 -0.2822
  145SAPE  H11B15830   6.154   1.776   6.567 -2.6531  1.1819  1.3320
  145SAPE     P15831   5.909   1.706   6.616 -0.3774  0.3606 -0.2955
  145SAPE   O1315832   5.800   1.621   6.657  0.8325  0.2022  0.2444
  145SAPE   O1415833   5.919   1.845   6.659 -0.2982  0.5102  0.3859
  145SAPE   O1215834   6.039   1.634   6.666 -0.2886  0.2351  0.5745
  145SAPE   O1115835   5.936   1.704   6.460 -0.4085 -0.2490 -0.0117
  145SAPE    C115836   5.925   1.587   6.389 -0.9768 -0.1788  0.0152
  145SAPE    HA15837   5.981   1.508   6.444  2.9876  0.4106 -2.7429
  145SAPE    HB15838   5.818   1.559   6.378 -1.2834  0.3581  1.3839
  145SAPE    C215839   5.998   1.589   6.247  0.2661  0.0828 -0.3199
  145SAPE    HS15840   6.106   1.577   6.268  0.9584 -0.8349 -3.7502
  145SAPE   O2115841   5.973   1.709   6.170  0.1181  0.2145 -0.0284
  145SAPE   C2115842   6.041   1.815   6.189  0.0785 -0.5267  0.4918
  145SAPE   O2215843   6.136   1.831   6.268 -0.3140  0.0952  0.0432
  145SAPE   C2215844   5.991   1.927   6.097 -0.7268 -0.9217 -0.1782
  145SAPE   H2R15845   5.936   1.876   6.015 -1.0739 -1.6819  0.5029
  145SAPE   H2S15846   5.923   2.000   6.146  1.2224  0.7730  0.1228
  145SAPE    C315847   5.954   1.465   6.169 -0.1548 -0.6677  0.1726
  145SAPE    HX15848   5.847   1.468   6.138 -0.1387 -0.6200  0.1198
  145SAPE    HY15849   5.946   1.375   6.234 -3.0689 -0.6045  0.0424
  145SAPE   O3115850   6.046   1.426   6.065 -0.2210 -0.1008 -0.3591
  145SAPE   C3115851   6.027   1.485   5.944 -0.4986 -0.0172 -0.1218
  145SAPE   O3215852   5.953   1.581   5.925  0.1351 -0.3459  0.5956
  145SAPE   C3215853   6.105   1.411   5.837 -0.2872  0.3547  0.3173
  145SAPE   H2X15854   6.043   1.334   5.787 -0.6645  1.2646 -0.6784
  145SAPE   H2Y15855   6.197   1.375   5.887  0.8672  1.5376 -0.8636
  145SAPE   C2315856   6.106   2.001   6.015  0.0552  0.3052 -0.0868
  145SAPE   H3R15857   6.186   2.022   6.089  0.1613 -0.6459  0.0767
  145SAPE   H3S15858   6.075   2.100   5.976  3.3504  0.2827 -3.3108
  145SAPE   C2415859   6.181   1.916   5.909 -0.6573  0.2670 -0.4452
  145SAPE   H4R15860   6.227   1.832   5.965 -1.4838 -1.1848 -1.8572
  145SAPE   H4S15861   6.275   1.971   5.885 -0.1680 -0.8329 -1.1201
  145SAPE   C2515862   6.114   1.863   5.783  0.0524  0.0553 -0.2390
  145SAPE   H5R15863   6.027   1.800   5.806  0.6924 -0.5019  0.7013
  145SAPE   C2615864   6.146   1.879   5.656 -0.4994  0.0249  0.0385
  145SAPE   H6R15865   6.082   1.827   5.583 -0.3048 -0.5374  0.2628
  145SAPE   C2715866   6.260   1.962   5.599  0.1372  0.2195 -0.0152
  145SAPE   H7R15867   6.308   1.892   5.527 -0.8293 -0.3657 -0.1114
  145SAPE   H7S15868   6.333   1.988   5.678 -2.2547  0.2742  2.3305
  145SAPE   C2815869   6.208   2.093   5.542  0.5890  0.2705 -0.9810
  145SAPE   H8R15870   6.232   2.182   5.601 -1.0803  0.2469 -0.2135
  145SAPE   C2915871   6.137   2.125   5.430  0.9651 -0.2863 -0.3750
  145SAPE   H9R15872   6.118   2.229   5.400  0.5729 -0.7603 -1.8768
  145SAPE  C21015873   6.083   2.024   5.326  0.1928 -0.1813  0.2651
  145SAPE  H10R15874   5.986   2.060   5.286 -0.7353 -3.5084 -0.8635
  145SAPE  H10S15875   6.067   1.919   5.361  0.0577 -0.4402 -0.5478
  145SAPE  C21115876   6.180   2.016   5.212  0.6465  0.2701 -0.1026
  145SAPE  H11R15877   6.284   2.034   5.241  0.7774 -0.5651 -0.0148
  145SAPE  C21215878   6.146   1.981   5.083  0.8385  0.0953 -0.1262
  145SAPE  H12R15879   6.222   1.977   5.005  0.6397 -0.5444 -0.2980
  145SAPE  C21315880   6.005   1.941   5.037 -0.6035  0.2755 -0.8259
  145SAPE  H13R15881   5.949   1.899   5.123  2.3022  1.8280  2.0515
  145SAPE  H13S15882   6.005   1.862   4.958  2.7795 -1.4710  0.7160
  145SAPE  C21415883   5.949   2.075   4.998  0.4725  0.7468  0.5066
  145SAPE  H14R15884   5.952   2.151   5.077  0.3872  1.3672 -0.0770
  145SAPE  C21515885   5.903   2.107   4.874  0.4820 -0.3836  0.3288
  145SAPE  H15R15886   5.859   2.207   4.856 -2.0365 -1.0963  2.0587
  145SAPE  C21615887   5.894   2.024   4.743 -0.2681 -0.2512 -0.1588
  145SAPE  H16R15888   5.799   2.035   4.686 -0.2543  0.5803 -0.0297
  145SAPE  H16S15889   5.907   1.916   4.763  0.8780 -0.0197  0.4241
  145SAPE  C21715890   6.009   2.056   4.655  0.3038 -0.2354  0.2318
  145SAPE  H17R15891   6.031   2.162   4.629 -1.1778  0.0919  0.2386
  145SAPE  H17S15892   5.988   2.002   4.560 -0.3094 -1.1921  0.9000
  145SAPE  C21815893   6.140   2.011   4.710 -0.2696 -0.0281 -0.2131
  145SAPE  H18R15894   6.118   1.922   4.772 -0.5738 -0.1930 -0.5546
  145SAPE  H18S15895   6.181   2.083   4.785  0.5152  1.0533 -1.6197
  145SAPE  C21915896   6.244   1.990   4.603 -0.6468  0.1512 -0.1979
  145SAPE  H19R15897   6.273   2.086   4.555  0.5263  0.1930  0.5550
  145SAPE  H19S15898   6.201   1.930   4.519 -0.1825 -1.8120  0.8945
  145SAPE  C22015899   6.369   1.917   4.649 -0.2623  0.4126  0.0200
  145SAPE  H20R15900   6.411   1.859   4.564 -0.6337 -0.8019  0.6433
  145SAPE  H20S15901   6.355   1.845   4.732  0.9976  0.0423 -0.0637
  145SAPE  H20T15902   6.436   1.994   4.692 -2.5594  1.4266  2.0419
  145SAPE   C3315903   6.157   1.499   5.715 -0.1789 -0.6760  0.5017
  145SAPE   H3X15904   6.238   1.571   5.740 -0.7353  0.4079 -0.6854
  145SAPE   H3Y15905   6.076   1.570   5.686  0.3735 -0.1721  0.1665
  145SAPE   C3415906   6.201   1.411   5.594  0.0689 -0.3640 -0.2032
  145SAPE   H4X15907   6.122   1.344   5.555  1.4408 -1.6918 -0.8379
  145SAPE   H4Y15908   6.268   1.332   5.635 -0.5644 -1.2176 -0.7673
  145SAPE   C3515909   6.263   1.486   5.478  0.4998 -0.5941 -0.1361
  145SAPE   H5X15910   6.331   1.413   5.430  0.9141 -0.8254  0.7795
  145SAPE   H5Y15911   6.324   1.573   5.512 -0.3699 -0.0093 -0.0558
  145SAPE   C3615912   6.148   1.520   5.385  0.3988  0.7746  0.6277
  145SAPE   H6X15913   6.080   1.584   5.444  1.0401  1.4418  0.6576
  145SAPE   H6Y15914   6.092   1.428   5.359 -1.9403  2.4203 -0.5171
  145SAPE   C3715915   6.205   1.582   5.257 -0.0276 -0.5260  0.1377
  145SAPE   H7X15916   6.288   1.520   5.217  0.6408 -0.2202  1.0209
  145SAPE   H7Y15917   6.238   1.680   5.298 -1.3954 -0.6145  1.5491
  145SAPE   C3815918   6.096   1.609   5.152  0.6784  0.0678 -0.1848
  145SAPE   H8X15919   6.149   1.650   5.063 -0.4131  2.0315  0.0145
  145SAPE   H8Y15920   6.024   1.684   5.190 -0.1320 -1.8681  2.3893
  145SAPE   C3915921   6.005   1.497   5.112  0.6583 -0.3042 -0.3278
  145SAPE   H9X15922   5.929   1.544   5.046 -0.5914  1.5913  2.2405
  145SAPE   H9Y15923   5.943   1.449   5.191  0.6699  1.7750  1.0178
  145SAPE  C31015924   6.076   1.393   5.022 -0.1429 -0.5734 -0.5728
  145SAPE  H10X15925   6.006   1.309   4.999 -2.4091  1.3345 -1.0081
  145SAPE  H10Y15926   6.144   1.342   5.094 -2.7741 -0.6997  2.0204
  145SAPE  C31115927   6.145   1.435   4.891 -0.2293  0.8369  0.1098
  145SAPE  H11X15928   6.168   1.352   4.821 -1.0923  1.3101 -0.7566
  145SAPE  H11Y15929   6.245   1.480   4.912  0.0749 -0.3525  1.3105
  145SAPE  C31215930   6.058   1.531   4.814  0.7331  0.5279  0.6276
  145SAPE  H12X15931   6.019   1.617   4.873 -1.2196 -0.9867  1.6922
  145SAPE  H12Y15932   5.963   1.480   4.789  0.9736  0.7728 -0.8361
  145SAPE  C31315933   6.128   1.590   4.694  0.5704  0.0058 -0.9331
  145SAPE  H13X15934   6.155   1.503   4.631  0.9440 -0.3747 -0.2575
  145SAPE  H13Y15935   6.218   1.646   4.726  1.0070 -1.0511 -0.2607
  145SAPE  C31415936   6.029   1.679   4.619  0.3225 -0.3616 -0.3731
  145SAPE  H14X15937   6.077   1.731   4.533 -0.3889  1.2648  0.1727
  145SAPE  H14Y15938   5.993   1.756   4.690 -0.5701  0.8193 -2.0156
  145SAPE  C31515939   5.904   1.611   4.565  0.2527 -0.6972 -0.0848
  145SAPE  H15X15940   5.838   1.580   4.648 -0.0620 -1.9987 -0.7942
  145SAPE  H15Y15941   5.950   1.516   4.532 -2.7036 -1.6092 -1.9242
  145SAPE  C31615942   5.838   1.681   4.448 -0.4135 -0.1182  0.2626
  145SAPE  H16X15943   5.902   1.664   4.359 -1.3429 -0.0646 -0.4399
  145SAPE  H16Y15944   5.814   1.787   4.470 -0.4077  0.0206 -0.3673
  145SAPE  C31715945   5.706   1.606   4.419 -0.5422  0.2546 -0.0697
  145SAPE  H17X15946   5.627   1.627   4.494 -2.1700 -0.9066 -1.3845
  145SAPE  H17Y15947   5.731   1.499   4.427  0.8181  0.5284 -0.4768
  145SAPE  C31815948   5.634   1.638   4.286  0.4062  0.1773 -0.4785
  145SAPE  H18X15949   5.553   1.564   4.265  0.3866  0.4640 -1.4541
  145SAPE  H18Y15950   5.704   1.663   4.204  0.5208  1.9854  0.1212
  145SAPE  H18Z15951   5.583   1.735   4.306 -1.9154 -0.8056 -1.2292
  146SAPE     N15952   2.579   0.918   6.624  0.0156 -0.2219  0.0802
  146SAPE   HN115953   2.492   0.920   6.681  1.7112  1.8927  2.8753
  146SAPE   HN215954   2.600   0.818   6.602 -2.8545 -0.6377 -1.2027
  146SAPE   HN315955   2.651   0.951   6.692  1.4237 -3.4366  0.3544
  146SAPE   C1215956   2.580   0.970   6.485 -0.0540 -0.1616  0.4647
  146SAPE  H12A15957   2.533   1.071   6.482 -0.8425 -0.4781  1.5006
  146SAPE  H12B15958   2.517   0.906   6.421 -1.5541  1.6382  0.0269
  146SAPE   C1115959   2.721   0.985   6.425  0.1173 -0.5993 -0.0093
  146SAPE  H11A15960   2.711   1.053   6.338  0.4360 -0.9926 -0.3577
  146SAPE  H11B15961   2.758   0.889   6.384 -0.4577 -0.4291 -0.9754
  146SAPE     P15962   2.808   1.191   6.570  0.1803 -0.0717  0.3202
  146SAPE   O1315963   2.671   1.224   6.597 -0.2364 -0.1080  0.4355
  146SAPE   O1415964   2.901   1.204   6.682 -0.7445  0.7337  0.1734
  146SAPE   O1215965   2.815   1.035   6.526 -0.4030 -1.0518  0.0909
  146SAPE   O1115966   2.855   1.276   6.440 -0.1677 -0.5244  0.0036
  146SAPE    C115967   2.942   1.228   6.335  0.7748 -0.0120 -0.3118
  146SAPE    HA15968   3.037   1.192   6.379  0.4699 -0.7968 -0.2800
  146SAPE    HB15969   2.897   1.143   6.280 -0.3606  0.4823 -0.1754
  146SAPE    C215970   2.977   1.343   6.231  0.0430 -0.4409 -0.5476
  146SAPE    HS15971   3.031   1.413   6.297 -0.0893 -1.8712  1.1398
  146SAPE   O2115972   2.857   1.407   6.190  0.1387  0.1986 -0.3604
  146SAPE   C2115973   2.864   1.513   6.113 -0.3606 -0.1947 -0.3228
  146SAPE   O2215974   2.967   1.570   6.083  0.3634 -0.3096  0.0941
  146SAPE   C2215975   2.729   1.554   6.057  0.1718  0.0501 -0.0557
  146SAPE   H2R15976   2.651   1.557   6.137 -0.8539  3.9551 -1.0140
  146SAPE   H2S15977   2.744   1.652   6.009  3.6805 -1.6988 -2.9960
  146SAPE    C315978   3.074   1.305   6.115  0.5444  0.4995  0.6246
  146SAPE    HX15979   3.158   1.255   6.167  0.7547  1.5377  1.3142
  146SAPE    HY15980   3.122   1.390   6.062 -1.1830  0.0156 -1.8728
  146SAPE   O3115981   3.014   1.216   6.011 -0.0098  0.0926 -0.8146
  146SAPE   C3115982   3.099   1.130   5.959 -0.3065  0.0391  0.0371
  146SAPE   O3215983   3.221   1.139   5.969 -0.6201  0.3599 -0.0349
  146SAPE   C3215984   3.022   1.009   5.905  0.0369 -0.3227  0.3951
  146SAPE   H2X15985   2.918   1.014   5.943  0.0228  0.0862  0.3095
  146SAPE   H2Y15986   3.069   0.925   5.961 -0.7383  0.0401  1.6251
  146SAPE   C2315987   2.685   1.469   5.934 -0.1872 -0.0596 -0.5866
  146SAPE   H3R15988   2.613   1.542   5.893  0.8380  1.4442  0.1990
  146SAPE   H3S15989   2.631   1.378   5.969 -0.0331  0.0297 -0.1087
  146SAPE   C2415990   2.787   1.442   5.819 -0.7988  0.2622  0.1688
  146SAPE   H4R15991   2.866   1.374   5.856  0.8351  1.0170 -1.7685
  146SAPE   H4S15992   2.831   1.540   5.789 -2.5977  1.2662  0.6442
  146SAPE   C2515993   2.706   1.371   5.708 -0.2381  0.4417 -0.2734
  146SAPE   H5R15994   2.690   1.267   5.740 -0.2765  0.9324  1.3570
  146SAPE   C2615995   2.653   1.415   5.592 -0.2073 -0.0435 -0.2081
  146SAPE   H6R15996   2.602   1.349   5.521 -0.0009 -0.7667  0.2971
  146SAPE   C2715997   2.666   1.557   5.547 -0.4809  0.4894  0.2821
  146SAPE   H7R15998   2.727   1.617   5.618 -0.4283  0.4487  0.2712
  146SAPE   H7S15999   2.567   1.606   5.559  0.4833  3.1324 -1.5946
  146SAPE   C2816000   2.713   1.568   5.409 -0.7901 -0.3793  0.4360
  146SAPE   H8R16001   2.808   1.517   5.386 -0.7656  0.7185 -2.3418
  146SAPE   C2916002   2.668   1.643   5.311 -0.8291  0.1645  0.1210
  146SAPE   H9R16003   2.719   1.641   5.213 -1.0834 -2.1602 -0.0192
  146SAPE  C21016004   2.544   1.731   5.323 -0.3637 -0.2452  0.4708
  146SAPE  H10R16005   2.488   1.711   5.417 -2.4328 -1.2098 -0.8893
  146SAPE  H10S16006   2.468   1.706   5.246  1.2886  2.1853 -2.1024
  146SAPE  C21116007   2.572   1.883   5.315  0.8710  0.2915 -0.4962
  146SAPE  H11R16008   2.563   1.923   5.417 -0.6265 -3.0293  0.8302
  146SAPE  C21216009   2.616   1.958   5.209 -0.1960 -0.4840  0.4650
  146SAPE  H12R16010   2.633   2.066   5.223  0.9278  0.0227 -3.4392
  146SAPE  C21316011   2.641   1.913   5.065 -0.7203 -0.1684 -0.2120
  146SAPE  H13R16012   2.584   1.977   4.995  0.0346  1.0699  0.2695
  146SAPE  H13S16013   2.597   1.813   5.041  0.3524 -0.3155 -1.6687
  146SAPE  C21416014   2.791   1.916   5.030  0.0395  0.2795  0.4765
  146SAPE  H14R16015   2.848   1.879   5.117  2.4982  0.0437 -1.1306
  146SAPE  C21516016   2.851   1.932   4.910 -0.1899  0.0398  0.1048
  146SAPE  H15R16017   2.960   1.944   4.906  0.0942 -2.1788 -0.1678
  146SAPE  C21616018   2.768   1.955   4.780 -0.3548  0.0872  0.1506
  146SAPE  H16R16019   2.728   2.059   4.787  1.1964  0.7140  0.0412
  146SAPE  H16S16020   2.678   1.890   4.771  1.4296 -2.9085  2.1674
  146SAPE  C21716021   2.839   1.929   4.648  0.4257 -0.9323  0.0737
  146SAPE  H17R16022   2.868   1.822   4.640  0.5857 -0.7843 -1.8270
  146SAPE  H17S16023   2.938   1.979   4.646 -0.0744  0.2147  1.5851
  146SAPE  C21816024   2.742   1.955   4.533  0.3623  0.5336  0.5716
  146SAPE  H18R16025   2.699   2.057   4.542 -0.4924  0.3637 -1.1953
  146SAPE  H18S16026   2.653   1.890   4.545 -0.0757  0.2501 -3.0946
  146SAPE  C21916027   2.785   1.940   4.389  0.1066 -0.2693  0.0497
  146SAPE  H19R16028   2.875   2.004   4.378  0.9236 -0.4469  4.0356
  146SAPE  H19S16029   2.708   1.987   4.325  0.0416 -0.1565  0.2080
  146SAPE  C22016030   2.809   1.799   4.339  0.3264  0.7884  0.1522
  146SAPE  H20R16031   2.716   1.741   4.362  1.1785  0.0344  1.8466
  146SAPE  H20S16032   2.891   1.751   4.395 -0.1108 -1.7082 -1.1949
  146SAPE  H20T16033   2.836   1.803   4.231 -3.1159  1.1495 -0.8219
  146SAPE   C3316034   3.046   0.991   5.757  0.3327  0.0947 -0.5454
  146SAPE   H3X16035   2.988   0.897   5.740  0.9504 -0.4936  0.4715
  146SAPE   H3Y16036   3.154   0.974   5.739  0.9694  1.4642  1.6200
  146SAPE   C3416037   2.982   1.098   5.677  0.2813  0.1210 -0.1629
  146SAPE   H4X16038   3.038   1.190   5.706 -0.5226  0.2322  1.1298
  146SAPE   H4Y16039   2.875   1.120   5.696  0.3135  1.3223 -1.2304
  146SAPE   C3516040   3.005   1.066   5.523  0.1787  0.1734 -0.0448
  146SAPE   H5X16041   2.960   0.966   5.505 -2.2259  1.7721 -4.3614
  146SAPE   H5Y16042   3.112   1.068   5.494 -0.2078  0.1703 -1.5348
  146SAPE   C3616043   2.937   1.171   5.434 -0.3558 -0.7636  0.2013
  146SAPE   H6X16044   2.980   1.268   5.466 -3.3677  0.4197  1.0659
  146SAPE   H6Y16045   2.830   1.177   5.464 -0.0186 -0.0008  1.3036
  146SAPE   C3716046   2.946   1.150   5.282 -0.2417 -0.9580 -0.0772
  146SAPE   H7X16047   2.903   1.049   5.261 -0.4461 -0.2702 -3.4966
  146SAPE   H7Y16048   3.049   1.145   5.243 -0.1105 -2.0944  0.3549
  146SAPE   C3816049   2.857   1.248   5.194 -0.0897  0.0797 -0.0802
  146SAPE   H8X16050   2.888   1.354   5.210 -0.2075  0.1963 -0.5924
  146SAPE   H8Y16051   2.754   1.233   5.235  0.0969 -2.3283 -0.3483
  146SAPE   C3916052   2.862   1.224   5.041  0.8787  0.5557 -0.1104
  146SAPE   H9X16053   2.829   1.119   5.025 -1.0226  1.0245  0.4506
  146SAPE   H9Y16054   2.966   1.235   5.005  0.8578 -1.9295 -1.1489
  146SAPE  C31016055   2.783   1.317   4.953  0.1213 -0.1694 -0.9424
  146SAPE  H10X16056   2.837   1.414   4.946  0.3087 -0.3642 -2.3578
  146SAPE  H10Y16057   2.685   1.319   5.006  1.2813  1.0277  1.3347
  146SAPE  C31116058   2.753   1.273   4.806 -0.9787  0.0964  0.1211
  146SAPE  H11X16059   2.712   1.170   4.810  1.8993 -1.2765 -1.9762
  146SAPE  H11Y16060   2.846   1.253   4.747 -1.3495 -1.6914  0.0845
  146SAPE  C31216061   2.664   1.360   4.722  0.4157  0.2874  0.3623
  146SAPE  H12X16062   2.577   1.381   4.788  0.7370  0.4203  0.7513
  146SAPE  H12Y16063   2.621   1.303   4.637  0.3208  0.9393 -0.0277
  146SAPE  C31316064   2.724   1.491   4.687 -0.9299 -0.0827 -0.0915
  146SAPE  H13X16065   2.720   1.556   4.777 -3.3159 -0.3024  0.0072
  146SAPE  H13Y16066   2.663   1.539   4.608 -0.5765  0.5389  0.0041
  146SAPE  C31416067   2.868   1.491   4.633 -0.2113 -0.5287 -0.2132
  146SAPE  H14X16068   2.941   1.447   4.704  1.2324 -0.9731 -1.9068
  146SAPE  H14Y16069   2.891   1.598   4.616 -0.7145 -0.3803  0.0289
  146SAPE  C31516070   2.881   1.425   4.501  0.2282  0.4302  0.4324
  146SAPE  H15X16071   2.821   1.485   4.429 -1.0777 -0.3365  0.8445
  146SAPE  H15Y16072   2.852   1.318   4.505  0.2048  0.4115 -0.1958
  146SAPE  C31616073   3.023   1.430   4.450  0.4981 -0.3262 -0.0967
  146SAPE  H16X16074   3.089   1.392   4.531  0.0604 -0.4278  0.2139
  146SAPE  H16Y16075   3.051   1.537   4.438 -2.8446  0.5864 -0.7276
  146SAPE  C31716076   3.060   1.365   4.318  0.2855  0.2149 -0.0224
  146SAPE  H17X16077   3.023   1.260   4.324 -0.6549  0.5754  0.6084
  146SAPE  H17Y16078   3.171   1.365   4.316  0.4417 -2.4326  2.5314
  146SAPE  C31816079   3.014   1.444   4.195  0.3549 -0.2072  0.0308
  146SAPE  H18X16080   3.099   1.511   4.168  0.8309 -1.2159 -1.0898
  146SAPE  H18Y16081   2.923   1.507   4.203  0.9139  0.4977  1.0588
  146SAPE  H18Z16082   2.998   1.374   4.110 -1.1740  0.6773 -0.4448
  147SAPE     N16083   2.306   5.546   6.395  0.0391  0.1320  0.0041
  147SAPE   HN116084   2.310   5.482   6.312 -0.6248  2.2279 -1.7604
  147SAPE   HN216085   2.298   5.480   6.474  0.9179 -1.3254 -1.0630
  147SAPE   HN316086   2.220   5.603   6.380  0.9179  1.6760  0.6581
  147SAPE   C1216087   2.423   5.636   6.388  0.3946 -0.0569  0.1500
  147SAPE  H12A16088   2.518   5.579   6.392 -0.0611 -0.9757 -1.4635
  147SAPE  H12B16089   2.413   5.706   6.474 -0.0854  0.0508  0.0123
  147SAPE   C1116090   2.415   5.724   6.264 -0.4656  0.0445  0.5153
  147SAPE  H11A16091   2.412   5.670   6.167  1.8012  0.3841  0.2067
  147SAPE  H11B16092   2.513   5.776   6.260  0.3883 -1.4759  0.6327
  147SAPE     P16093   2.284   5.949   6.203  0.3295  0.3739  0.1578
  147SAPE   O1316094   2.148   6.000   6.219  0.6396  0.2333 -0.9038
  147SAPE   O1416095   2.391   6.036   6.253 -0.6919  0.3425 -0.1522
  147SAPE   O1216096   2.301   5.802   6.272  0.4512 -0.5600  0.4305
  147SAPE   O1116097   2.324   5.922   6.050  0.2826 -0.8379  0.1204
  147SAPE    C116098   2.235   5.915   5.947 -0.4786 -0.5997 -0.7843
  147SAPE    HA16099   2.149   5.849   5.970  1.6105 -3.6233 -1.0553
  147SAPE    HB16100   2.205   6.018   5.918  0.0070  0.1656  1.2378
  147SAPE    C216101   2.309   5.855   5.825 -0.3418 -1.1356 -0.2554
  147SAPE    HS16102   2.393   5.926   5.809  0.2589 -1.5349  0.9771
  147SAPE   O2116103   2.214   5.858   5.721 -0.0235  0.1332 -0.8579
  147SAPE   C2116104   2.272   5.860   5.602 -0.8077 -0.0143  0.1265
  147SAPE   O2216105   2.383   5.908   5.580  0.1920 -0.1021  0.0902
  147SAPE   C2216106   2.194   5.795   5.488 -0.3732 -0.6915 -0.5127
  147SAPE   H2R16107   2.225   5.690   5.472  0.2175 -0.2869 -2.1480
  147SAPE   H2S16108   2.085   5.791   5.513 -0.2990 -1.8373 -0.3015
  147SAPE    C316109   2.372   5.716   5.855  0.4433 -0.3871  0.3578
  147SAPE    HX16110   2.291   5.667   5.914 -0.9389 -0.5257 -1.5497
  147SAPE    HY16111   2.454   5.744   5.925 -2.3307  4.4622  2.2010
  147SAPE   O3116112   2.404   5.653   5.734 -0.2182  0.1134  0.6940
  147SAPE   C3116113   2.480   5.549   5.740  0.5821  0.0321  0.1197
  147SAPE   O3216114   2.513   5.483   5.841 -0.2863  0.0933 -0.1838
  147SAPE   C3216115   2.520   5.518   5.597 -0.4006  0.6350  0.0110
  147SAPE   H2X16116   2.606   5.585   5.581  0.6929 -1.2271 -2.6027
  147SAPE   H2Y16117   2.441   5.535   5.521 -1.7904 -0.2284  1.1805
  147SAPE   C2316118   2.226   5.863   5.351 -0.1046 -0.5852  0.3896
  147SAPE   H3R16119   2.337   5.871   5.350  0.0465 -2.3390  0.5600
  147SAPE   H3S16120   2.193   5.969   5.349 -0.0505 -0.5535  0.9038
  147SAPE   C2416121   2.175   5.789   5.229  0.2551  0.3427 -0.4342
  147SAPE   H4R16122   2.172   5.868   5.151 -2.0800 -0.0364 -0.8157
  147SAPE   H4S16123   2.069   5.756   5.240  0.2153  0.2894 -0.9343
  147SAPE   C2516124   2.240   5.658   5.190 -0.5513  0.0891 -0.0562
  147SAPE   H5R16125   2.271   5.591   5.271 -1.0272 -0.7490 -0.5528
  147SAPE   C2616126   2.279   5.612   5.066  0.0679  0.0563  0.3137
  147SAPE   H6R16127   2.337   5.520   5.048 -0.0951  0.0576 -0.2540
  147SAPE   C2716128   2.229   5.669   4.940  0.6468 -0.0680  0.0945
  147SAPE   H7R16129   2.160   5.755   4.949 -0.1986 -0.3850 -2.4258
  147SAPE   H7S16130   2.175   5.581   4.898 -3.3260  0.1561  4.0113
  147SAPE   C2816131   2.346   5.728   4.865 -0.3140 -0.6351 -0.1051
  147SAPE   H8R16132   2.375   5.832   4.887  0.7135 -0.4032 -2.3104
  147SAPE   C2916133   2.407   5.684   4.761  0.6843  0.3444  1.2502
  147SAPE   H9R16134   2.481   5.751   4.715 -0.1852 -0.3574 -1.3351
  147SAPE  C21016135   2.391   5.549   4.702  0.7654  0.3719  0.3169
  147SAPE  H10R16136   2.400   5.479   4.788 -0.8924  0.4847  0.6211
  147SAPE  H10S16137   2.480   5.525   4.639 -0.0298  0.4181 -0.8507
  147SAPE  C21116138   2.260   5.529   4.627 -0.0305 -0.6046 -0.8626
  147SAPE  H11R16139   2.177   5.502   4.694 -0.6643  2.6303 -0.1350
  147SAPE  C21216140   2.240   5.553   4.499  0.3125  0.8024  0.1836
  147SAPE  H12R16141   2.139   5.538   4.459  0.2425 -0.0584  0.6624
  147SAPE  C21316142   2.351   5.591   4.407  0.0383 -0.6314 -0.0792
  147SAPE  H13R16143   2.402   5.675   4.458 -0.3129 -0.7806  0.5306
  147SAPE  H13S16144   2.318   5.642   4.315  1.1925 -0.9593 -0.6893
  147SAPE  C21416145   2.455   5.479   4.375  0.0738 -0.1708  0.5038
  147SAPE  H14R16146   2.472   5.405   4.454 -0.3736  0.0250  0.7941
  147SAPE  C21516147   2.541   5.463   4.267  0.6429 -0.7609 -0.4281
  147SAPE  H15R16148   2.600   5.370   4.271  2.0857 -0.2544 -4.9125
  147SAPE  C21616149   2.557   5.553   4.144  0.4642  0.3096  0.1918
  147SAPE  H16R16150   2.451   5.579   4.123 -0.4815  0.2291  4.0369
  147SAPE  H16S16151   2.604   5.508   4.054  0.7789  0.4341  0.2933
  147SAPE  C21716152   2.639   5.684   4.166 -0.1207  0.4817  0.2476
  147SAPE  H17R16153   2.748   5.664   4.171 -0.3741 -0.9614  0.2747
  147SAPE  H17S16154   2.610   5.729   4.264 -0.9389 -2.0899  1.2633
  147SAPE  C21816155   2.625   5.791   4.061 -0.1336  0.0375  0.4291
  147SAPE  H18R16156   2.521   5.826   4.046 -0.3878 -1.0481 -0.4105
  147SAPE  H18S16157   2.658   5.754   3.962 -0.3832 -1.2460  0.8139
  147SAPE  C21916158   2.706   5.923   4.089 -0.0008  0.2680  0.7737
  147SAPE  H19R16159   2.812   5.893   4.102 -0.2453 -1.2817 -0.4189
  147SAPE  H19S16160   2.683   5.957   4.192  0.1333  0.6612  0.6735
  147SAPE  C22016161   2.683   6.026   3.982  0.5935 -0.5665  0.1625
  147SAPE  H20R16162   2.749   6.115   3.988 -1.9413  1.5138 -0.8439
  147SAPE  H20S16163   2.577   6.058   3.991  1.0719  1.6192 -1.2943
  147SAPE  H20T16164   2.708   5.982   3.883  2.7938 -0.1324  0.4736
  147SAPE   C3316165   2.565   5.371   5.582  0.1537 -0.2324 -0.0806
  147SAPE   H3X16166   2.491   5.298   5.620 -0.2480 -0.4183 -1.1724
  147SAPE   H3Y16167   2.656   5.367   5.645 -0.6737  1.4593  1.3302
  147SAPE   C3416168   2.598   5.324   5.440 -0.9778  0.1137  0.6403
  147SAPE   H4X16169   2.669   5.399   5.398  1.0797 -2.3622 -0.5199
  147SAPE   H4Y16170   2.509   5.312   5.375 -0.1194  0.4556 -0.6391
  147SAPE   C3516171   2.688   5.199   5.443  0.3840  0.8726 -0.1380
  147SAPE   H5X16172   2.635   5.156   5.531 -2.0780 -2.2076 -2.8950
  147SAPE   H5Y16173   2.795   5.224   5.459  1.2067  0.1583 -3.7868
  147SAPE   C3616174   2.677   5.115   5.327 -0.4856 -0.2802 -0.3280
  147SAPE   H6X16175   2.596   5.041   5.346 -2.4410  1.3512 -1.7912
  147SAPE   H6Y16176   2.774   5.061   5.329 -0.8515 -0.9307  0.2039
  147SAPE   C3716177   2.671   5.186   5.190  0.2554 -0.3047 -0.5320
  147SAPE   H7X16178   2.757   5.254   5.166  1.6410 -1.5169  0.8372
  147SAPE   H7Y16179   2.574   5.239   5.195  0.6175  0.2888  0.4654
  147SAPE   C3816180   2.668   5.083   5.077  0.4518 -0.0058  0.3372
  147SAPE   H8X16181   2.612   4.999   5.123  0.6680  0.6197  1.8040
  147SAPE   H8Y16182   2.770   5.039   5.069  0.5962  0.3608  0.1681
  147SAPE   C3916183   2.606   5.123   4.946 -0.0730  0.0179 -0.1641
  147SAPE   H9X16184   2.514   5.178   4.976 -2.1868 -2.9413 -0.7438
  147SAPE   H9Y16185   2.595   5.031   4.883  2.5109  0.0499 -0.7448
  147SAPE  C31016186   2.689   5.238   4.875  0.0015  0.3991  0.0905
  147SAPE  H10X16187   2.728   5.313   4.947  2.7656  0.9560 -1.8485
  147SAPE  H10Y16188   2.622   5.306   4.819  1.3491  1.6875 -0.0186
  147SAPE  C31116189   2.811   5.189   4.792 -0.2425  0.3575 -0.2686
  147SAPE  H11X16190   2.879   5.133   4.860 -0.7975 -0.4665 -0.3735
  147SAPE  H11Y16191   2.876   5.270   4.753 -0.7492  1.0260  0.2404
  147SAPE  C31216192   2.783   5.097   4.670  0.0997 -0.2172  0.0478
  147SAPE  H12X16193   2.735   5.000   4.694 -0.5345 -0.9742 -3.6889
  147SAPE  H12Y16194   2.874   5.077   4.610 -0.6852 -1.2757 -0.8306
  147SAPE  C31316195   2.701   5.160   4.554  0.6779  0.6727  0.2436
  147SAPE  H13X16196   2.729   5.266   4.537  2.8966  0.2324  0.7900
  147SAPE  H13Y16197   2.593   5.147   4.576  0.7765 -2.1461 -0.5628
  147SAPE  C31416198   2.712   5.076   4.428  0.2169  0.0274  0.0549
  147SAPE  H14X16199   2.666   4.979   4.456  0.1313  0.3486  1.0501
  147SAPE  H14Y16200   2.815   5.043   4.402 -0.1790 -0.4590 -0.9567
  147SAPE  C31516201   2.651   5.125   4.295  0.6565  0.2317  0.6043
  147SAPE  H15X16202   2.711   5.214   4.268  1.3640  0.0294  1.4474
  147SAPE  H15Y16203   2.547   5.163   4.299 -0.2210 -1.3668 -2.8792
  147SAPE  C31616204   2.664   5.016   4.187 -0.6415 -0.5543  0.8263
  147SAPE  H16X16205   2.613   4.922   4.218  1.1616 -1.2964  1.7128
  147SAPE  H16Y16206   2.774   5.001   4.186 -0.4270  0.8609 -0.6492
  147SAPE  C31716207   2.613   5.059   4.049  0.3305  0.2171 -0.6447
  147SAPE  H17X16208   2.639   5.167   4.046 -2.1846  0.8680 -1.1672
  147SAPE  H17Y16209   2.504   5.045   4.059  0.7103 -1.5737  2.0581
  147SAPE  C31816210   2.685   4.992   3.927 -0.1304 -0.7961  0.1024
  147SAPE  H18X16211   2.648   5.043   3.835  0.1106  0.5165  0.7109
  147SAPE  H18Y16212   2.648   4.888   3.912 -4.1728  0.5653 -0.6633
  147SAPE  H18Z16213   2.795   4.997   3.939 -0.1719 -0.8999  0.5376
  148SAPE     N16214   6.768   6.464   6.574  0.2915  0.4156 -0.0671
  148SAPE   HN116215   6.703   6.389   6.606  0.6805 -0.9968 -2.2820
  148SAPE   HN216216   6.836   6.468   6.653 -2.1148  0.0809  2.1387
  148SAPE   HN316217   6.719   6.556   6.575  0.4609  0.5090 -0.1876
  148SAPE   C1216218   6.818   6.432   6.431 -0.2225  0.3431 -0.6827
  148SAPE  H12A16219   6.741   6.380   6.370 -1.2326 -0.1908  0.9684
  148SAPE  H12B16220   6.907   6.370   6.454 -1.3073 -1.2680 -0.6428
  148SAPE   C1116221   6.857   6.563   6.356 -0.0714 -0.1041 -0.7258
  148SAPE  H11A16222   6.764   6.623   6.352  0.3261  0.9744  2.5033
  148SAPE  H11B16223   6.896   6.522   6.261 -1.0723  0.0937 -1.2347
  148SAPE     P16224   6.982   6.782   6.421 -0.1158  0.2490 -0.2338
  148SAPE   O1316225   6.893   6.858   6.511 -0.3456  0.4822  0.1127
  148SAPE   O1416226   7.124   6.808   6.439  0.3171 -0.7635 -0.1507
  148SAPE   O1216227   6.964   6.625   6.437  0.4325 -0.1089 -0.7720
  148SAPE   O1116228   6.934   6.804   6.274 -0.0725 -0.4607  0.2135
  148SAPE    C116229   6.917   6.937   6.218 -0.7008  0.4106 -0.8700
  148SAPE    HA16230   6.875   7.008   6.293 -1.9110  1.4764 -2.4885
  148SAPE    HB16231   7.023   6.961   6.195  0.2222 -3.7779 -1.8563
  148SAPE    C216232   6.843   6.937   6.086  0.0416  0.2840  0.2242
  148SAPE    HS16233   6.862   7.034   6.037  0.4874 -0.5853 -1.4100
  148SAPE   O2116234   6.699   6.906   6.114 -0.5593  0.2029  1.0056
  148SAPE   C2116235   6.611   6.985   6.044 -0.0709  0.1732  0.5781
  148SAPE   O2216236   6.648   7.084   5.983 -0.2287 -0.3165  0.7647
  148SAPE   C2216237   6.468   6.950   6.069 -0.5732 -0.4352  0.2952
  148SAPE   H2R16238   6.469   6.839   6.071  1.2802 -0.4459  0.9596
  148SAPE   H2S16239   6.459   6.971   6.177 -0.3505  0.2931  0.1754
  148SAPE    C316240   6.903   6.817   5.998  0.3366  0.5975 -1.0885
  148SAPE    HX16241   6.868   6.731   6.059 -0.3060  1.1725 -0.6311
  148SAPE    HY16242   7.014   6.813   5.996  0.3783  0.0215  0.7168
  148SAPE   O3116243   6.828   6.804   5.875  0.4269 -0.0660 -0.2437
  148SAPE   C3116244   6.876   6.885   5.783 -0.5891  0.1996  0.1097
  148SAPE   O3216245   6.975   6.959   5.797 -0.2524  1.0416  0.3545
  148SAPE   C3216246   6.787   6.883   5.655 -1.0416 -0.0756  0.4732
  148SAPE   H2X16247   6.704   6.952   5.681 -1.1452  0.5506 -1.3481
  148SAPE   H2Y16248   6.763   6.781   5.619  1.4469 -0.5029 -0.1245
  148SAPE   C2316249   6.372   7.011   5.974  0.2219 -0.2419  0.6162
  148SAPE   H3R16250   6.409   7.111   5.943  0.3120 -0.2003  0.8545
  148SAPE   H3S16251   6.279   7.013   6.035  0.6519  0.1619  1.2704
  148SAPE   C2416252   6.359   6.923   5.843 -0.2732  0.5882  0.0384
  148SAPE   H4R16253   6.331   6.823   5.883  1.2421 -0.5654 -1.5830
  148SAPE   H4S16254   6.460   6.905   5.799 -1.1275 -0.2838 -1.6987
  148SAPE   C2516255   6.262   6.959   5.736  0.1311 -0.0688 -0.3946
  148SAPE   H5R16256   6.164   6.910   5.735 -0.8495  1.7796 -1.4916
  148SAPE   C2616257   6.268   7.052   5.641 -0.4520  0.5007  0.0284
  148SAPE   H6R16258   6.182   7.056   5.572  2.0350  0.7105 -3.2469
  148SAPE   C2716259   6.386   7.132   5.614 -0.2761 -0.1566 -0.0409
  148SAPE   H7R16260   6.437   7.149   5.712 -1.3271 -2.3083  0.9309
  148SAPE   H7S16261   6.339   7.228   5.583  0.2127 -0.5145 -2.0584
  148SAPE   C2816262   6.477   7.082   5.502  0.5103  0.5757 -0.2674
  148SAPE   H8R16263   6.547   6.999   5.523  0.3131  0.6348  0.6635
  148SAPE   C2916264   6.493   7.129   5.374  0.1607 -0.9989  0.7969
  148SAPE   H9R16265   6.558   7.077   5.302  1.4524  1.8347 -0.2162
  148SAPE  C21016266   6.419   7.250   5.316  0.3300  0.2399 -0.1761
  148SAPE  H10R16267   6.438   7.337   5.381 -0.4618  0.9711 -0.8911
  148SAPE  H10S16268   6.310   7.231   5.321  0.7165 -1.8816  1.3821
  148SAPE  C21116269   6.468   7.291   5.178  0.6194  0.3049 -1.1667
  148SAPE  H11R16270   6.551   7.363   5.175  0.8252  0.0408 -2.3762
  148SAPE  C21216271   6.404   7.254   5.064  0.5610 -0.3506 -0.0893
  148SAPE  H12R16272   6.456   7.266   4.968  0.0212  1.8645 -0.1459
  148SAPE  C21316273   6.280   7.158   5.062 -0.3004  0.3608 -0.4691
  148SAPE  H13R16274   6.195   7.227   5.045 -0.1926  0.4151 -0.8019
  148SAPE  H13S16275   6.257   7.122   5.165 -2.0163  0.5625 -0.7485
  148SAPE  C21416276   6.281   7.042   4.965 -0.5020  1.2312  0.3651
  148SAPE  H14R16277   6.284   7.072   4.859  1.5999  1.0892  0.3485
  148SAPE  C21516278   6.258   6.909   4.993 -0.2551  0.4570  0.5892
  148SAPE  H15R16279   6.270   6.833   4.915 -2.7223  0.0361  0.5484
  148SAPE  C21616280   6.229   6.846   5.123  0.2985 -0.1393 -0.2425
  148SAPE  H16R16281   6.160   6.910   5.181  0.2487 -1.6255  1.4211
  148SAPE  H16S16282   6.322   6.835   5.181  0.8049  1.8233 -0.6136
  148SAPE  C21716283   6.152   6.721   5.109 -1.0077 -0.0166  0.5434
  148SAPE  H17R16284   6.189   6.660   5.024  0.6182 -1.2150  2.0342
  148SAPE  H17S16285   6.045   6.738   5.081 -0.2585 -0.7297 -3.3264
  148SAPE  C21816286   6.157   6.634   5.235  0.6110  0.5453  0.7077
  148SAPE  H18R16287   6.248   6.572   5.251 -0.6511 -1.8622 -0.8790
  148SAPE  H18S16288   6.085   6.553   5.210 -1.9498  2.6621  0.7557
  148SAPE  C21916289   6.092   6.719   5.350 -0.6105  0.2822  0.8130
  148SAPE  H19R16290   6.005   6.769   5.301 -2.1960 -0.7712  2.4510
  148SAPE  H19S16291   6.170   6.792   5.381 -0.7910 -0.1309  2.2876
  148SAPE  C22016292   6.063   6.622   5.467 -0.1925  0.0030  0.5372
  148SAPE  H20R16293   6.047   6.691   5.552  0.1466  0.0858  0.5348
  148SAPE  H20S16294   6.146   6.551   5.488  0.0357 -0.3768 -1.4743
  148SAPE  H20T16295   5.971   6.561   5.450  0.4007 -0.7298 -0.1296
  148SAPE   C3316296   6.865   6.962   5.542  0.6226  0.6572 -1.1035
  148SAPE   H3X16297   6.827   6.937   5.441 -0.2782 -0.2991 -0.5445
  148SAPE   H3Y16298   6.973   6.933   5.540  1.0173  2.0963 -1.8090
  148SAPE   C3416299   6.848   7.115   5.546  1.1220  0.0988 -0.0402
  148SAPE   H4X16300   6.885   7.146   5.646  2.0071  0.5464 -0.4922
  148SAPE   H4Y16301   6.740   7.134   5.532  0.4715 -2.3665  1.0722
  148SAPE   C3516302   6.927   7.182   5.437  0.2152  0.4536  0.0519
  148SAPE   H5X16303   6.921   7.138   5.335  0.8682 -0.7020  0.4938
  148SAPE   H5Y16304   7.034   7.181   5.466 -0.0739  1.1420  1.2405
  148SAPE   C3616305   6.900   7.332   5.439 -0.1175  0.3032  0.4629
  148SAPE   H6X16306   6.906   7.372   5.542 -2.1569 -0.5508  0.9672
  148SAPE   H6Y16307   6.792   7.338   5.412  0.0203  0.1208 -0.1434
  148SAPE   C3716308   6.982   7.408   5.334  0.1297 -0.5433 -0.0430
  148SAPE   H7X16309   7.084   7.367   5.319  0.2026 -0.4358  0.1507
  148SAPE   H7Y16310   6.987   7.516   5.363  0.9760 -0.6698  0.2999
  148SAPE   C3816311   6.912   7.398   5.193  0.1532  0.3822 -0.7492
  148SAPE   H8X16312   6.805   7.429   5.198  0.7434  2.3013  1.4243
  148SAPE   H8Y16313   6.910   7.290   5.166 -2.0499  0.0547  0.4754
  148SAPE   C3916314   6.992   7.479   5.087 -0.5328 -0.1430 -0.0891
  148SAPE   H9X16315   7.095   7.439   5.075 -1.2761 -2.0282 -0.6238
  148SAPE   H9Y16316   6.999   7.583   5.124  1.3796 -0.1536 -0.3008
  148SAPE  C31016317   6.923   7.472   4.954 -0.8713 -0.4878 -0.3787
  148SAPE  H10X16318   6.816   7.500   4.953 -0.1372  2.7024 -1.1803
  148SAPE  H10Y16319   6.920   7.372   4.906  0.9448  0.3062 -2.3068
  148SAPE  C31116320   6.994   7.553   4.844  0.7606  1.1065  0.0880
  148SAPE  H11X16321   7.089   7.500   4.819  1.1852  1.2920  1.2782
  148SAPE  H11Y16322   7.017   7.654   4.884 -0.7446  1.1511  0.9034
  148SAPE  C31216323   6.907   7.564   4.718 -0.9040 -0.2786  0.4419
  148SAPE  H12X16324   6.817   7.615   4.760  0.6559  2.0615  1.1908
  148SAPE  H12Y16325   6.884   7.462   4.682  0.7402 -0.6500  0.3843
  148SAPE  C31316326   6.982   7.647   4.609  0.2777 -0.4439  0.2138
  148SAPE  H13X16327   7.087   7.618   4.584 -0.2303 -0.6524 -1.8890
  148SAPE  H13Y16328   6.994   7.749   4.650 -0.6249 -1.1034  2.2691
  148SAPE  C31416329   6.900   7.652   4.477 -0.4344  0.4538 -0.2211
  148SAPE  H14X16330   6.838   7.745   4.483 -0.4508  0.3498  3.0321
  148SAPE  H14Y16331   6.827   7.569   4.466  1.9737 -1.6650 -1.1879
  148SAPE  C31516332   6.983   7.646   4.353 -0.1660 -0.2464  0.4022
  148SAPE  H15X16333   6.914   7.624   4.270 -2.5393  1.0231  1.8942
  148SAPE  H15Y16334   7.057   7.563   4.356 -0.3572 -0.4685 -0.7857
  148SAPE  C31616335   7.065   7.775   4.327 -0.0609 -0.1084 -0.0130
  148SAPE  H16X16336   7.110   7.803   4.425  0.0948  0.0430 -0.1257
  148SAPE  H16Y16337   7.000   7.862   4.304  1.1755  0.2746 -2.2666
  148SAPE  C31716338   7.167   7.744   4.222  0.7000 -0.4617  0.0683
  148SAPE  H17X16339   7.125   7.703   4.128  0.6647  1.3735 -0.7589
  148SAPE  H17Y16340   7.224   7.660   4.267 -1.1253 -2.2101 -0.7445
  148SAPE  C31816341   7.258   7.859   4.191 -0.4543 -0.5633 -0.4911
  148SAPE  H18X16342   7.334   7.832   4.115  0.8337  0.6697  0.3139
  148SAPE  H18Y16343   7.311   7.912   4.273 -0.1943  3.0911 -2.7705
  148SAPE  H18Z16344   7.200   7.940   4.140  1.1276  1.2097  0.3937
  149SAPE     N16345   6.610   0.889   6.675  0.2270 -0.3265  0.3091
  149SAPE   HN116346   6.709   0.877   6.702  0.4958  0.1770 -0.4302
  149SAPE   HN216347   6.579   0.971   6.731 -1.0259 -1.3401  1.1855
  149SAPE   HN316348   6.565   0.801   6.708  1.0637 -1.0739 -0.5031
  149SAPE   C1216349   6.606   0.913   6.530 -0.2804  0.0572  0.0340
  149SAPE  H12A16350   6.508   0.873   6.495  1.1289 -2.3119 -1.4046
  149SAPE  H12B16351   6.690   0.858   6.485 -0.8143  1.4864 -2.9741
  149SAPE   C1116352   6.611   1.063   6.494  0.1442  0.0269 -0.7683
  149SAPE  H11A16353   6.595   1.081   6.385 -1.2718 -0.9208 -0.7419
  149SAPE  H11B16354   6.715   1.091   6.519  0.7657 -2.4183 -0.3767
  149SAPE     P16355   6.551   1.275   6.642  0.2001 -0.0805  0.2247
  149SAPE   O1316356   6.433   1.333   6.703 -0.2001  0.6738 -0.0328
  149SAPE   O1416357   6.672   1.246   6.720 -0.0933  0.7556 -0.2741
  149SAPE   O1216358   6.505   1.140   6.561 -0.3921  0.0217 -0.6064
  149SAPE   O1116359   6.609   1.364   6.523 -0.0147  0.7303 -0.5653
  149SAPE    C116360   6.528   1.439   6.432  0.0905  0.1736 -0.2079
  149SAPE    HA16361   6.447   1.494   6.485 -0.3068  0.0530 -0.6846
  149SAPE    HB16362   6.589   1.525   6.397  0.4669  1.0538  2.3366
  149SAPE    C216363   6.476   1.356   6.308  0.5631  0.6143 -0.4192
  149SAPE    HS16364   6.446   1.253   6.338 -0.2210  0.9195 -0.1310
  149SAPE   O2116365   6.571   1.367   6.201 -0.1498 -0.0223  0.0360
  149SAPE   C2116366   6.563   1.282   6.103 -0.4986  0.1620  0.0098
  149SAPE   O2216367   6.505   1.175   6.101  0.0403  0.1808 -0.1540
  149SAPE   C2216368   6.638   1.351   5.981  0.3235 -0.2662  0.2666
  149SAPE   H2R16369   6.635   1.459   6.005  1.0632 -0.1551 -0.0923
  149SAPE   H2S16370   6.744   1.318   5.988  0.1432 -1.1007 -0.5698
  149SAPE    C316371   6.344   1.419   6.269  0.3513  0.3890  0.1542
  149SAPE    HX16372   6.271   1.410   6.352 -0.1231  2.9433  0.0931
  149SAPE    HY16373   6.295   1.364   6.186  0.3489 -1.1235  1.0996
  149SAPE   O3116374   6.363   1.552   6.241  0.1346 -0.1581 -0.2287
  149SAPE   C3116375   6.388   1.589   6.118  0.2489  0.1669 -0.0357
  149SAPE   O3216376   6.368   1.527   6.017  0.9417 -0.4437  0.2821
  149SAPE   C3216377   6.470   1.717   6.124 -0.0301 -0.3381 -0.2285
  149SAPE   H2X16378   6.554   1.708   6.196 -0.5058  1.0923  0.5609
  149SAPE   H2Y16379   6.407   1.799   6.167 -0.1306 -1.0664  1.0724
  149SAPE   C2316380   6.581   1.320   5.843  0.4490  0.2162  1.1276
  149SAPE   H3R16381   6.471   1.329   5.852  0.3432 -1.4798  1.8385
  149SAPE   H3S16382   6.609   1.217   5.812 -1.2276  0.0452  0.0215
  149SAPE   C2416383   6.640   1.422   5.741 -0.3768  0.0789  0.3197
  149SAPE   H4R16384   6.751   1.421   5.747 -0.4172  0.5100  1.3530
  149SAPE   H4S16385   6.602   1.524   5.762  1.1029  0.3589  1.8975
  149SAPE   C2516386   6.601   1.376   5.601  0.1229  0.7531  1.0037
  149SAPE   H5R16387   6.561   1.274   5.600 -1.2159  1.2348 -0.7674
  149SAPE   C2616388   6.619   1.442   5.480 -0.6160 -0.0433 -0.3617
  149SAPE   H6R16389   6.593   1.386   5.388 -1.9600  0.2855 -0.1959
  149SAPE   C2716390   6.658   1.587   5.466 -0.1460 -0.1397  0.1420
  149SAPE   H7R16391   6.731   1.580   5.382 -0.5679 -0.2371 -0.2200
  149SAPE   H7S16392   6.718   1.607   5.557  0.8900  1.6686 -0.8718
  149SAPE   C2816393   6.551   1.693   5.440  0.2199  0.8699 -0.0756
  149SAPE   H8R16394   6.518   1.745   5.531 -1.2291  0.3886 -0.3002
  149SAPE   C2916395   6.515   1.731   5.316  0.1416  0.2208  0.4134
  149SAPE   H9R16396   6.434   1.805   5.304 -1.6099 -1.6586 -0.0373
  149SAPE  C21016397   6.550   1.653   5.191  0.4593 -0.0318 -0.0663
  149SAPE  H10R16398   6.509   1.550   5.184 -0.8019  0.4385  0.1851
  149SAPE  H10S16399   6.659   1.633   5.187  0.1748 -1.8923  0.4738
  149SAPE  C21116400   6.523   1.730   5.063  0.0280 -0.7307  0.2875
  149SAPE  H11R16401   6.470   1.826   5.066  0.3804 -0.5631  2.0231
  149SAPE  C21216402   6.523   1.678   4.941 -1.4856  0.3037 -0.0227
  149SAPE  H12R16403   6.519   1.752   4.860  1.0580  0.5875  0.0434
  149SAPE  C21316404   6.574   1.539   4.913 -0.0999  0.2001 -0.6081
  149SAPE  H13R16405   6.487   1.473   4.894 -0.4377  1.0800 -2.3554
  149SAPE  H13S16406   6.631   1.495   4.997  0.4352 -0.0698 -1.1041
  149SAPE  C21416407   6.660   1.543   4.792 -0.7111  0.5675 -0.4658
  149SAPE  H14R16408   6.763   1.578   4.810 -0.3102 -0.1464 -1.3539
  149SAPE  C21516409   6.638   1.513   4.666 -0.0078 -0.9364 -0.0242
  149SAPE  H15R16410   6.719   1.536   4.596  2.0006 -0.0950  2.4405
  149SAPE  C21616411   6.502   1.469   4.611 -0.6118  0.0227 -0.5286
  149SAPE  H16R16412   6.426   1.549   4.598 -0.1298  0.5204 -0.3742
  149SAPE  H16S16413   6.469   1.396   4.688  0.7111 -0.1036 -0.0512
  149SAPE  C21716414   6.507   1.390   4.478 -0.4173  0.0070 -0.5963
  149SAPE  H17R16415   6.568   1.299   4.495  0.5617  0.7618  0.0869
  149SAPE  H17S16416   6.569   1.444   4.403  0.8276 -1.1529 -0.4274
  149SAPE  C21816417   6.377   1.346   4.419  0.0456  0.0421 -0.1819
  149SAPE  H18R16418   6.390   1.298   4.320  0.2248 -2.2959  0.9124
  149SAPE  H18S16419   6.315   1.436   4.400 -0.8091 -0.4082  0.4059
  149SAPE  C21916420   6.316   1.244   4.512  0.1406 -0.5062  0.4337
  149SAPE  H19R16421   6.286   1.297   4.605  1.9718  2.3680 -0.5062
  149SAPE  H19S16422   6.399   1.174   4.539  1.8351  0.6614 -1.5126
  149SAPE  C22016423   6.196   1.162   4.453 -0.4959 -0.4210 -0.0836
  149SAPE  H20R16424   6.161   1.078   4.517  1.0949 -1.8985 -1.0608
  149SAPE  H20S16425   6.223   1.114   4.356 -0.1214 -1.0721  0.3372
  149SAPE  H20T16426   6.102   1.223   4.453 -0.0647  0.3322  1.8750
  149SAPE   C3316427   6.518   1.766   5.993  0.1923  0.2268  0.1812
  149SAPE   H3X16428   6.436   1.758   5.918  0.3408  0.2395  0.0161
  149SAPE   H3Y16429   6.598   1.694   5.968 -0.9495 -1.4773  1.2735
  149SAPE   C3416430   6.562   1.912   5.989 -1.0845 -0.5567 -0.0123
  149SAPE   H4X16431   6.634   1.943   6.067  0.8387  2.0493 -2.6324
  149SAPE   H4Y16432   6.470   1.972   6.006  0.5348  2.3036 -0.6436
  149SAPE   C3516433   6.617   1.947   5.848 -0.1973 -0.4722 -0.4072
  149SAPE   H5X16434   6.539   1.913   5.778  0.4382 -2.5938 -0.1581
  149SAPE   H5Y16435   6.708   1.888   5.824 -1.0067 -1.8643 -0.1596
  149SAPE   C3616436   6.636   2.097   5.834  0.3145 -0.0789  0.1139
  149SAPE   H6X16437   6.730   2.129   5.884 -0.3360  0.2648  1.1253
  149SAPE   H6Y16438   6.555   2.151   5.887  0.7223  1.0965 -0.4222
  149SAPE   C3716439   6.639   2.145   5.681 -0.0985  0.5921  0.2088
  149SAPE   H7X16440   6.658   2.255   5.681  1.6038  0.3655 -2.0487
  149SAPE   H7Y16441   6.542   2.127   5.630  0.7903  1.3501 -1.8446
  149SAPE   C3816442   6.738   2.075   5.585 -0.6745 -0.4728 -0.0367
  149SAPE   H8X16443   6.723   1.965   5.588  3.4171 -1.2489 -1.4504
  149SAPE   H8Y16444   6.833   2.090   5.641 -0.8587  0.5891  0.0165
  149SAPE   C3916445   6.729   2.134   5.442  0.5933 -0.0076  0.1208
  149SAPE   H9X16446   6.757   2.240   5.428  1.5338 -0.3137 -0.3820
  149SAPE   H9Y16447   6.622   2.127   5.410  0.9959 -0.1779 -1.2387
  149SAPE  C31016448   6.803   2.042   5.344  0.2211  0.1034  0.2559
  149SAPE  H10X16449   6.761   1.939   5.344 -0.1623  0.2241 -1.4018
  149SAPE  H10Y16450   6.907   2.041   5.383 -0.2069  0.3993  1.4444
  149SAPE  C31116451   6.812   2.085   5.191 -0.4859 -0.0405  0.5601
  149SAPE  H11X16452   6.872   2.005   5.140 -1.2991  0.1995 -0.8285
  149SAPE  H11Y16453   6.854   2.188   5.188  0.2547 -0.3283  0.8185
  149SAPE  C31216454   6.673   2.082   5.128  0.1581 -0.6819 -0.7604
  149SAPE  H12X16455   6.610   2.136   5.201  1.0639 -0.9035  0.2016
  149SAPE  H12Y16456   6.641   1.975   5.122  0.2056 -0.9159  1.9504
  149SAPE  C31316457   6.668   2.159   4.995 -0.0294 -0.1137 -0.1001
  149SAPE  H13X16458   6.744   2.240   4.997  0.7047 -0.7591 -0.7379
  149SAPE  H13Y16459   6.570   2.209   4.989  0.1035 -0.0058 -2.3634
  149SAPE  C31416460   6.717   2.080   4.872 -0.3543  0.1254  0.2926
  149SAPE  H14X16461   6.652   1.991   4.857 -1.1526  0.9169 -1.1849
  149SAPE  H14Y16462   6.823   2.049   4.887 -0.5417 -0.0882  1.1991
  149SAPE  C31516463   6.702   2.168   4.744 -0.4789  0.4072  0.2488
  149SAPE  H15X16464   6.761   2.261   4.761 -1.2571  0.8080  0.8455
  149SAPE  H15Y16465   6.593   2.189   4.732 -0.3782 -0.1888 -2.5323
  149SAPE  C31616466   6.746   2.093   4.615  0.1673 -0.4510  0.1894
  149SAPE  H16X16467   6.682   2.005   4.594  2.1137 -1.5894 -1.4243
  149SAPE  H16Y16468   6.851   2.056   4.623  0.0399 -1.1133 -0.9425
  149SAPE  C31716469   6.732   2.160   4.477  0.3796  0.2148 -0.2654
  149SAPE  H17X16470   6.772   2.083   4.407  0.4446 -0.8800  0.9513
  149SAPE  H17Y16471   6.793   2.252   4.488  0.1826  0.6456 -2.3658
  149SAPE  C31816472   6.588   2.195   4.459 -0.2673 -0.4372 -0.7279
  149SAPE  H18X16473   6.581   2.215   4.350 -2.3778 -0.8139 -0.6874
  149SAPE  H18Y16474   6.544   2.280   4.515  2.6972  1.2581 -0.7377
  149SAPE  H18Z16475   6.524   2.109   4.487 -2.4696  0.4830 -2.6089
  150SAPE     N16476   4.063   3.725   6.712  0.1873  0.9177 -0.2415
  150SAPE   HN116477   4.106   3.721   6.807 -0.2964  0.1284 -0.0468
  150SAPE   HN216478   4.021   3.634   6.687  0.4022  0.4549  0.9949
  150SAPE   HN316479   4.146   3.744   6.652  0.2276 -0.2480 -0.5817
  150SAPE   C1216480   3.971   3.844   6.694  0.2916  0.2703  0.1469
  150SAPE  H12A16481   4.037   3.928   6.726  1.2394 -0.5689  0.4377
  150SAPE  H12B16482   3.891   3.840   6.771  2.1685 -0.9003  2.1658
  150SAPE   C1116483   3.911   3.849   6.549 -0.1963  0.6840 -0.1300
  150SAPE  H11A16484   3.863   3.750   6.529  3.8229 -1.3404 -0.8848
  150SAPE  H11B16485   3.992   3.842   6.474 -0.7162  1.3109 -0.7689
  150SAPE     P16486   3.683   3.972   6.559 -0.5900  0.2200 -0.0147
  150SAPE   O1316487   3.657   3.853   6.642  0.3592 -0.4006  0.2650
  150SAPE   O1416488   3.658   4.105   6.613 -0.0134  0.3413  0.3117
  150SAPE   O1216489   3.829   3.959   6.510 -0.3723 -0.6522 -0.5610
  150SAPE   O1116490   3.605   3.966   6.426 -0.3197  0.5754 -0.4607
  150SAPE    C116491   3.589   3.839   6.362 -0.4142  0.6274 -0.2985
  150SAPE    HA16492   3.682   3.809   6.309 -0.3793  1.2251 -0.5839
  150SAPE    HB16493   3.564   3.753   6.428 -3.2366  0.4352 -1.4602
  150SAPE    C216494   3.481   3.841   6.253  0.4955 -0.1705 -1.1510
  150SAPE    HS16495   3.496   3.938   6.200 -0.0258 -0.0719 -1.1200
  150SAPE   O2116496   3.353   3.838   6.322  0.0646  0.7234  0.0732
  150SAPE   C2116497   3.252   3.871   6.248 -0.1190  0.9393 -1.0844
  150SAPE   O2216498   3.259   3.941   6.147  0.3560 -0.3987 -0.3933
  150SAPE   C2216499   3.127   3.797   6.299 -0.3112  0.2799 -0.1097
  150SAPE   H2R16500   3.083   3.735   6.219  0.1227 -0.7670  0.4444
  150SAPE   H2S16501   3.155   3.729   6.382 -2.2949  1.2832  1.4658
  150SAPE    C316502   3.482   3.721   6.151 -0.2329 -0.0243  0.5786
  150SAPE    HX16503   3.413   3.748   6.068  0.1140 -1.7499 -0.3118
  150SAPE    HY16504   3.437   3.634   6.204 -0.7049 -0.5651 -0.6831
  150SAPE   O3116505   3.611   3.717   6.104 -0.7189  0.0993 -0.0640
  150SAPE   C3116506   3.638   3.599   6.038  0.0691  0.1601 -0.2650
  150SAPE   O3216507   3.557   3.518   6.008  0.4720  0.5300 -1.1654
  150SAPE   C3216508   3.785   3.590   6.013  0.4224 -0.7398 -0.6620
  150SAPE   H2X16509   3.845   3.586   6.106 -0.3556 -2.0403 -0.1860
  150SAPE   H2Y16510   3.815   3.685   5.963 -0.3565 -0.6612 -1.0088
  150SAPE   C2316511   3.007   3.891   6.340 -0.8538 -0.1430  0.2957
  150SAPE   H3R16512   3.031   3.954   6.428 -0.5433 -0.0183  0.1254
  150SAPE   H3S16513   2.933   3.825   6.390 -1.1195 -0.3457 -0.3529
  150SAPE   C2416514   2.941   3.970   6.226  0.0828  0.6403 -0.4388
  150SAPE   H4R16515   2.889   3.902   6.155  2.3641 -1.1838 -0.5000
  150SAPE   H4S16516   3.023   4.004   6.159  0.3887 -0.6947 -0.7696
  150SAPE   C2516517   2.845   4.078   6.274 -0.4474  0.8502  0.0541
  150SAPE   H5R16518   2.849   4.091   6.383  2.4224  0.2537  0.1190
  150SAPE   C2616519   2.760   4.138   6.198  0.4766 -0.1636  0.5211
  150SAPE   H6R16520   2.685   4.204   6.242 -0.3374 -0.6047 -0.1743
  150SAPE   C2716521   2.743   4.129   6.050  0.2898 -0.3623  0.4273
  150SAPE   H7R16522   2.810   4.056   6.001  0.2779  0.4305 -0.8306
  150SAPE   H7S16523   2.776   4.228   6.011  0.7350 -0.1010  1.4377
  150SAPE   C2816524   2.598   4.094   6.022  0.0666 -0.0433 -0.1173
  150SAPE   H8R16525   2.524   4.077   6.103 -2.3088  0.5258 -2.0545
  150SAPE   C2916526   2.553   4.077   5.895 -0.6587 -0.7219  0.3055
  150SAPE   H9R16527   2.458   4.024   5.879 -0.3543 -1.1756 -0.0181
  150SAPE  C21016528   2.636   4.067   5.771  0.1158 -0.7388  0.0172
  150SAPE  H10R16529   2.654   3.961   5.745  2.0432 -0.8275  1.4787
  150SAPE  H10S16530   2.739   4.098   5.798 -0.2800 -0.4044  1.2305
  150SAPE  C21116531   2.592   4.150   5.652  0.3609 -0.5499  0.2191
  150SAPE  H11R16532   2.623   4.255   5.665  2.0585 -1.1442  1.2502
  150SAPE  C21216533   2.524   4.111   5.538 -0.7318  0.3888 -0.1872
  150SAPE  H12R16534   2.473   4.180   5.469  0.1154 -0.1019 -1.3299
  150SAPE  C21316535   2.472   3.970   5.538  0.2115 -0.3722 -0.0191
  150SAPE  H13R16536   2.369   3.959   5.498 -0.2093  0.6037  0.7587
  150SAPE  H13S16537   2.458   3.931   5.641  0.0691 -1.4618 -0.4359
  150SAPE  C21416538   2.566   3.876   5.470  0.2203 -0.0404 -0.1204
  150SAPE  H14R16539   2.639   3.828   5.537  0.9803  1.6930  0.3680
  150SAPE  C21516540   2.570   3.840   5.341 -0.3298 -0.2950 -0.7413
  150SAPE  H15R16541   2.643   3.763   5.310  0.3601 -0.5602  1.3748
  150SAPE  C21616542   2.473   3.892   5.237 -0.4846 -0.0922 -0.1367
  150SAPE  H16R16543   2.500   3.999   5.225 -0.3704 -0.1308 -0.2188
  150SAPE  H16S16544   2.368   3.911   5.271 -1.2794  0.6900 -2.8265
  150SAPE  C21716545   2.472   3.817   5.104  0.5811 -0.4428 -0.0187
  150SAPE  H17R16546   2.444   3.710   5.115  0.4532 -0.2706  1.5613
  150SAPE  H17S16547   2.574   3.807   5.062  0.9381  1.3753  0.3511
  150SAPE  C21816548   2.397   3.897   4.998  0.5098 -0.0128  0.4023
  150SAPE  H18R16549   2.440   4.000   4.989 -1.7485  0.8375 -1.7318
  150SAPE  H18S16550   2.289   3.905   5.022  0.5077 -1.0362  0.7682
  150SAPE  C21916551   2.421   3.840   4.854 -0.4475 -0.1751  0.4991
  150SAPE  H19R16552   2.379   3.737   4.850 -1.8390  0.3619  0.8536
  150SAPE  H19S16553   2.529   3.839   4.830 -0.3425  2.8046  0.6008
  150SAPE  C22016554   2.355   3.907   4.731  0.5000 -0.4181 -0.1115
  150SAPE  H20R16555   2.395   4.008   4.709 -0.7657  0.0062 -0.5631
  150SAPE  H20S16556   2.245   3.917   4.743  0.9229  2.3152  2.8971
  150SAPE  H20T16557   2.371   3.847   4.639 -0.5869 -1.1926  0.1726
  150SAPE   C3316558   3.835   3.468   5.932 -0.2858 -0.3247 -0.9188
  150SAPE   H3X16559   3.812   3.372   5.983  0.7634  0.1163  0.4360
  150SAPE   H3Y16560   3.946   3.470   5.925 -0.0681  0.2768  1.5929
  150SAPE   C3416561   3.772   3.454   5.791  0.1153  0.3534  0.1959
  150SAPE   H4X16562   3.663   3.433   5.794  0.0354  0.3068 -1.8435
  150SAPE   H4Y16563   3.825   3.365   5.750  0.6659  0.7279  0.0757
  150SAPE   C3516564   3.781   3.571   5.689 -0.3454 -0.2565 -0.7577
  150SAPE   H5X16565   3.885   3.610   5.697  0.4113 -2.2306 -0.4126
  150SAPE   H5Y16566   3.717   3.655   5.725  1.7555  1.0720  0.1203
  150SAPE   C3616567   3.727   3.542   5.551 -0.2827  0.6569 -0.2438
  150SAPE   H6X16568   3.629   3.491   5.558 -0.2942  0.6016 -0.7835
  150SAPE   H6Y16569   3.799   3.486   5.487  0.2725  2.4479 -1.2642
  150SAPE   C3716570   3.689   3.673   5.484  0.1592 -0.6303  0.5254
  150SAPE   H7X16571   3.779   3.734   5.460  0.0549 -0.5404  0.3629
  150SAPE   H7Y16572   3.642   3.750   5.549  0.0349  1.6630 -2.0885
  150SAPE   C3816573   3.619   3.645   5.354  0.3103 -0.0940 -0.4873
  150SAPE   H8X16574   3.600   3.740   5.298 -2.0061 -0.4614 -0.4517
  150SAPE   H8Y16575   3.521   3.600   5.381  1.1480 -0.8590  1.3452
  150SAPE   C3916576   3.682   3.553   5.256 -0.4190  0.9532 -0.2044
  150SAPE   H9X16577   3.674   3.443   5.274 -0.0672  1.1072  0.9835
  150SAPE   H9Y16578   3.790   3.576   5.248 -0.2573 -0.3896 -3.1055
  150SAPE  C31016579   3.634   3.572   5.107  0.8691 -0.9197 -0.7359
  150SAPE  H10X16580   3.629   3.682   5.106 -0.4792 -0.8385  2.2885
  150SAPE  H10Y16581   3.526   3.550   5.113  0.4905  1.1405  2.0466
  150SAPE  C31116582   3.714   3.492   5.006  0.0327  0.1397  0.3402
  150SAPE  H11X16583   3.712   3.388   5.046 -2.0949 -0.2337 -0.5942
  150SAPE  H11Y16584   3.821   3.522   5.002  0.0694 -0.1160 -2.6122
  150SAPE  C31216585   3.661   3.506   4.862 -0.3965  0.6830 -0.6277
  150SAPE  H12X16586   3.564   3.454   4.875 -0.2731  0.7436  0.6383
  150SAPE  H12Y16587   3.737   3.459   4.795 -1.6792  0.5588 -2.0539
  150SAPE  C31316588   3.621   3.647   4.820 -0.7886 -0.4962 -0.1131
  150SAPE  H13X16589   3.716   3.698   4.792 -1.2519  0.9796  0.8915
  150SAPE  H13Y16590   3.572   3.704   4.901  0.4728  1.4673 -0.6486
  150SAPE  C31416591   3.505   3.645   4.708 -0.5883 -0.1192 -0.0421
  150SAPE  H14X16592   3.413   3.596   4.746  0.1114 -1.0141  0.5864
  150SAPE  H14Y16593   3.531   3.581   4.621 -0.0010  1.1355 -0.8021
  150SAPE  C31516594   3.490   3.786   4.644 -0.1725 -0.0471 -0.2725
  150SAPE  H15X16595   3.469   3.856   4.728 -3.9164 -1.3868  0.0964
  150SAPE  H15Y16596   3.399   3.790   4.581 -1.1407  0.0430  1.0779
  150SAPE  C31616597   3.592   3.809   4.534  0.7046 -0.0877 -0.4843
  150SAPE  H16X16598   3.577   3.728   4.460  0.6562 -0.3197 -0.2234
  150SAPE  H16Y16599   3.696   3.798   4.571 -0.2528  1.1268  2.9612
  150SAPE  C31716600   3.570   3.943   4.454  0.1205  0.7088  0.2700
  150SAPE  H17X16601   3.668   3.989   4.429  0.1483  0.5810  0.1441
  150SAPE  H17Y16602   3.523   4.013   4.525  0.4316  0.1913  0.9977
  150SAPE  C31816603   3.487   3.914   4.325  0.4531  0.1151 -1.1540
  150SAPE  H18X16604   3.413   3.837   4.359  0.6602  0.4828  0.1805
  150SAPE  H18Y16605   3.551   3.861   4.252  0.8361 -0.7778 -0.1863
  150SAPE  H18Z16606   3.437   4.001   4.277  1.8643  1.2649 -0.5984
  151SAPE     N16607   2.954   2.125   6.362  0.5844 -0.0958  0.4643
  151SAPE   HN116608   2.851   2.133   6.354  0.5209  2.2093  2.4443
  151SAPE   HN216609   2.986   2.116   6.263  1.6984  1.1517  0.6855
  151SAPE   HN316610   2.981   2.039   6.414  0.3291  0.6000  1.7888
  151SAPE   C1216611   3.020   2.247   6.431 -0.1386 -0.5616  0.7451
  151SAPE  H12A16612   3.128   2.247   6.407 -0.1944  0.5962  0.4301
  151SAPE  H12B16613   3.005   2.241   6.541 -0.1362  0.4858  0.8098
  151SAPE   C1116614   2.952   2.382   6.396 -0.2604  0.5595  0.7201
  151SAPE  H11A16615   2.939   2.398   6.287 -2.1258  0.3444  0.8834
  151SAPE  H11B16616   3.019   2.461   6.438  0.5057 -0.9262  2.4239
  151SAPE     P16617   2.692   2.346   6.402 -0.1599 -0.0274  0.6134
  151SAPE   O1316618   2.707   2.200   6.374  0.3504  0.0255  0.2033
  151SAPE   O1416619   2.588   2.391   6.492  0.3293  0.2047 -0.4532
  151SAPE   O1216620   2.826   2.402   6.468 -0.7637 -0.3161  0.6207
  151SAPE   O1116621   2.684   2.418   6.265 -0.4684  0.0699 -0.1232
  151SAPE    C116622   2.609   2.542   6.245 -0.3985 -0.8832 -0.3345
  151SAPE    HA16623   2.510   2.531   6.296  0.4347  0.6051  1.7860
  151SAPE    HB16624   2.668   2.627   6.286  3.1337 -2.9115 -0.8260
  151SAPE    C216625   2.582   2.568   6.091 -0.7669 -0.2885 -0.5641
  151SAPE    HS16626   2.567   2.467   6.046 -0.6323 -0.4886 -0.1676
  151SAPE   O2116627   2.694   2.652   6.038  0.5414  0.2917  0.2013
  151SAPE   C2116628   2.792   2.573   5.987 -0.2629  0.0072  1.3271
  151SAPE   O2216629   2.797   2.451   5.996 -0.4581 -0.1782  0.0108
  151SAPE   C2216630   2.881   2.668   5.911  0.2015  0.2472  0.2930
  151SAPE   H2R16631   2.855   2.775   5.921 -1.9785 -0.3230  1.3358
  151SAPE   H2S16632   2.983   2.643   5.948  0.6601 -0.0476 -1.0671
  151SAPE    C316633   2.445   2.637   6.078  0.6231  0.1524  0.0672
  151SAPE    HX16634   2.455   2.742   6.114  0.8268  0.8056 -1.7896
  151SAPE    HY16635   2.370   2.585   6.141  0.4818  0.5406  0.2183
  151SAPE   O3116636   2.407   2.668   5.947 -0.0860 -0.1541  0.2715
  151SAPE   C3116637   2.342   2.569   5.885 -0.0463 -0.1769  0.0607
  151SAPE   O3216638   2.304   2.467   5.938  0.1161  0.4796  0.3864
  151SAPE   C3216639   2.317   2.609   5.735 -0.0751 -0.6455  0.4175
  151SAPE   H2X16640   2.397   2.563   5.674  0.0083  2.0863 -1.6907
  151SAPE   H2Y16641   2.346   2.715   5.724 -0.9864 -0.3961  0.3169
  151SAPE   C2316642   2.886   2.637   5.751 -0.4269  0.2252  0.3802
  151SAPE   H3R16643   2.798   2.680   5.699  0.5138  0.4449 -1.0816
  151SAPE   H3S16644   2.880   2.529   5.727  2.4356  0.0980 -0.0809
  151SAPE   C2416645   3.019   2.681   5.685 -0.0989  0.5421 -0.0090
  151SAPE   H4R16646   3.013   2.658   5.577  1.1517 -0.5313  0.1205
  151SAPE   H4S16647   3.098   2.618   5.733 -0.4993 -0.4222 -0.5907
  151SAPE   C2516648   3.038   2.829   5.719  0.2311 -0.9557  0.6697
  151SAPE   H5R16649   3.058   2.856   5.824  1.6639  3.0776 -0.4697
  151SAPE   C2616650   3.032   2.928   5.629  0.1265 -0.6310  0.8707
  151SAPE   H6R16651   3.037   3.031   5.666  0.9490 -0.6406  0.8085
  151SAPE   C2716652   3.010   2.911   5.483  0.4137 -0.3255 -0.2149
  151SAPE   H7R16653   2.939   2.987   5.446  0.4115  1.0084  2.3171
  151SAPE   H7S16654   2.966   2.809   5.476  3.2093 -1.6257 -0.1378
  151SAPE   C2816655   3.130   2.921   5.391 -0.5620  0.1973 -0.1717
  151SAPE   H8R16656   3.223   2.965   5.430  2.1867 -2.2645 -3.3720
  151SAPE   C2916657   3.126   2.888   5.265 -0.9809  0.5770 -0.1067
  151SAPE   H9R16658   3.223   2.884   5.213 -0.4709 -0.1894  0.8664
  151SAPE  C21016659   3.013   2.831   5.191 -0.3758  0.3532 -0.0898
  151SAPE  H10R16660   2.934   2.796   5.260 -2.4446  0.4719 -2.2773
  151SAPE  H10S16661   3.049   2.736   5.146 -2.2552  0.1173 -1.1660
  151SAPE  C21116662   2.965   2.923   5.085 -0.0087 -0.2395 -0.7370
  151SAPE  H11R16663   2.954   3.031   5.106 -3.0940 -0.2408 -1.9100
  151SAPE  C21216664   2.932   2.886   4.964 -0.2126 -0.1068  0.3014
  151SAPE  H12R16665   2.909   2.966   4.893  2.6995  0.1616 -0.4871
  151SAPE  C21316666   2.920   2.749   4.905 -0.5102 -0.3560 -0.3012
  151SAPE  H13R16667   2.920   2.670   4.982  0.5908  1.3163  1.4934
  151SAPE  H13S16668   3.016   2.746   4.849  0.5325  0.2554  1.4116
  151SAPE  C21416669   2.804   2.710   4.820  0.4711  0.6913  0.9387
  151SAPE  H14R16670   2.723   2.651   4.865  0.2407 -0.5656 -1.0264
  151SAPE  C21516671   2.790   2.740   4.688 -0.8337  0.3979  0.3425
  151SAPE  H15R16672   2.700   2.698   4.642 -0.7672 -1.3901  1.7276
  151SAPE  C21616673   2.898   2.807   4.600  0.1440 -0.0492 -0.8354
  151SAPE  H16R16674   2.919   2.756   4.504  2.3089 -0.3950 -0.2221
  151SAPE  H16S16675   2.987   2.812   4.666 -0.0524  1.4357 -0.6316
  151SAPE  C21716676   2.864   2.951   4.550  0.3117 -0.4588  0.4089
  151SAPE  H17R16677   2.919   3.012   4.625  1.2517 -2.7418  1.6617
  151SAPE  H17S16678   2.756   2.978   4.557  0.0536 -1.3048 -0.2055
  151SAPE  C21816679   2.912   2.992   4.407 -0.9885 -0.1576 -0.7798
  151SAPE  H18R16680   2.878   3.097   4.393  1.8235  0.8662 -0.5918
  151SAPE  H18S16681   2.865   2.934   4.325 -1.9625 -3.0697  1.6791
  151SAPE  C21916682   3.063   2.984   4.396  0.0505 -0.2939  0.7214
  151SAPE  H19R16683   3.104   2.882   4.412 -1.1892 -0.5431  2.5938
  151SAPE  H19S16684   3.110   3.053   4.470  0.7390 -2.0472  1.9893
  151SAPE  C22016685   3.115   3.029   4.258  0.2047 -0.1633  0.3403
  151SAPE  H20R16686   3.065   2.971   4.178  1.6185 -0.7496 -0.1425
  151SAPE  H20S16687   3.222   3.006   4.243 -0.0302 -0.4438 -0.9757
  151SAPE  H20T16688   3.097   3.139   4.249  0.2680 -0.0785  1.1290
  151SAPE   C3316689   2.172   2.562   5.697  0.9222  0.5129 -0.4622
  151SAPE   H3X16690   2.106   2.602   5.777  2.4977 -0.9287  1.6688
  151SAPE   H3Y16691   2.186   2.452   5.699  0.0667  0.3949 -0.6432
  151SAPE   C3416692   2.130   2.608   5.559  0.2291 -0.9356 -0.1958
  151SAPE   H4X16693   2.180   2.706   5.569  0.3396 -0.8855 -1.2165
  151SAPE   H4Y16694   2.020   2.617   5.549  0.1734 -1.3697 -0.0055
  151SAPE   C3516695   2.197   2.525   5.454  0.5138  0.5057 -0.2321
  151SAPE   H5X16696   2.139   2.430   5.453  0.7453  0.3654 -1.3679
  151SAPE   H5Y16697   2.305   2.509   5.476  0.3721  0.4720  0.4702
  151SAPE   C3616698   2.190   2.594   5.319  0.2309  0.8199  0.1877
  151SAPE   H6X16699   2.269   2.671   5.306  0.7186  0.4233  0.7711
  151SAPE   H6Y16700   2.094   2.645   5.294  1.5498  2.8465 -1.0283
  151SAPE   C3716701   2.203   2.499   5.198  0.0488  1.0408 -0.4894
  151SAPE   H7X16702   2.108   2.443   5.198  1.0123 -0.8566  2.6264
  151SAPE   H7Y16703   2.285   2.426   5.215 -0.4517  0.5566 -0.1223
  151SAPE   C3816704   2.248   2.579   5.078  0.8403  0.0805 -0.2667
  151SAPE   H8X16705   2.354   2.611   5.068  1.1056 -0.6794  0.0257
  151SAPE   H8Y16706   2.196   2.677   5.085  1.0637  0.1528  0.5775
  151SAPE   C3916707   2.209   2.507   4.953  0.5914  0.2973  0.5793
  151SAPE   H9X16708   2.100   2.487   4.943  0.9446 -1.4959 -0.1955
  151SAPE   H9Y16709   2.256   2.407   4.939  2.6138  1.2940 -0.0204
  151SAPE  C31016710   2.256   2.581   4.826  0.5971  0.4797  0.3706
  151SAPE  H10X16711   2.364   2.606   4.835  1.0631 -1.5069  0.7685
  151SAPE  H10Y16712   2.212   2.683   4.837  0.9451  0.5262  1.4370
  151SAPE  C31116713   2.231   2.516   4.690 -0.1506 -0.7585  0.4381
  151SAPE  H11X16714   2.246   2.598   4.617 -0.6586  0.6789  1.8774
  151SAPE  H11Y16715   2.122   2.496   4.676 -0.3786  0.9344 -0.4849
  151SAPE  C31216716   2.329   2.410   4.635 -0.0168  0.1153  0.2347
  151SAPE  H12X16717   2.309   2.390   4.527 -2.0490 -1.3338  0.8041
  151SAPE  H12Y16718   2.309   2.314   4.686 -0.6875 -0.9611 -1.8970
  151SAPE  C31316719   2.475   2.444   4.644  0.4176  0.3082 -0.0125
  151SAPE  H13X16720   2.513   2.431   4.747 -0.7120  1.2740  0.5496
  151SAPE  H13Y16721   2.499   2.550   4.621  0.7083  0.3663  0.5464
  151SAPE  C31416722   2.560   2.355   4.556 -0.1108  0.2311  0.0830
  151SAPE  H14X16723   2.554   2.251   4.597  2.2485  0.7226  1.9564
  151SAPE  H14Y16724   2.666   2.386   4.565  0.8857 -2.9083  0.4181
  151SAPE  C31516725   2.533   2.358   4.400  0.0792 -0.1032 -0.0895
  151SAPE  H15X16726   2.549   2.463   4.366  2.0257 -0.8244 -1.6052
  151SAPE  H15Y16727   2.425   2.348   4.375  0.1103  4.7158 -3.7583
  151SAPE  C31616728   2.616   2.247   4.333  1.0016 -0.3221  0.2699
  151SAPE  H16X16729   2.558   2.154   4.352 -0.8622  0.3626 -1.5626
  151SAPE  H16Y16730   2.716   2.256   4.380  0.8571  0.5228  0.4317
  151SAPE  C31716731   2.623   2.277   4.183  0.2455 -1.0570 -0.2265
  151SAPE  H17X16732   2.708   2.219   4.142  0.4721  0.0046 -1.3449
  151SAPE  H17Y16733   2.645   2.384   4.160 -1.8754  0.0484  2.3051
  151SAPE  C31816734   2.489   2.249   4.116  0.4065 -0.0953 -0.3768
  151SAPE  H18X16735   2.464   2.141   4.119  0.8342 -0.2118 -0.7768
  151SAPE  H18Y16736   2.489   2.262   4.005 -0.6947  0.4821 -0.3229
  151SAPE  H18Z16737   2.410   2.312   4.162  1.1212 -0.6928  1.7944
  152SAPE     N16738   4.297   2.753   6.452 -0.3630  0.0729  0.4473
  152SAPE   HN116739   4.297   2.718   6.550  0.4427  0.5659  0.6336
  152SAPE   HN216740   4.205   2.731   6.410  0.6401 -3.2169 -0.3668
  152SAPE   HN316741   4.379   2.709   6.405  0.4892 -1.0046  2.7815
  152SAPE   C1216742   4.321   2.899   6.474 -0.6531 -0.4338  0.0710
  152SAPE  H12A16743   4.227   2.958   6.471 -0.2313  0.4249  1.8706
  152SAPE  H12B16744   4.385   2.926   6.387  1.1666 -1.4159  1.0365
  152SAPE   C1116745   4.406   2.927   6.602 -0.7896 -0.6298 -0.2717
  152SAPE  H11A16746   4.347   2.894   6.691 -0.4645  0.4136  0.3513
  152SAPE  H11B16747   4.419   3.036   6.624  1.6171 -0.8945 -0.1338
  152SAPE     P16748   4.679   2.911   6.638 -0.5692  0.0429  0.1395
  152SAPE   O1316749   4.688   2.951   6.781 -0.3696  0.0004 -0.3031
  152SAPE   O1416750   4.772   2.803   6.598 -0.9202 -0.8136 -0.5517
  152SAPE   O1216751   4.531   2.865   6.593  0.0992 -0.1583  0.0251
  152SAPE   O1116752   4.708   3.041   6.547 -0.4247 -0.3621 -0.6294
  152SAPE    C116753   4.678   3.043   6.401 -0.0271 -0.5986 -0.5642
  152SAPE    HA16754   4.593   2.975   6.376 -2.0045  0.6088  2.2725
  152SAPE    HB16755   4.655   3.145   6.363  1.7136 -0.8560 -2.4231
  152SAPE    C216756   4.792   2.997   6.313 -0.8387 -0.0167  0.2373
  152SAPE    HS16757   4.831   2.898   6.345  1.7485  1.0841  0.7905
  152SAPE   O2116758   4.898   3.101   6.324  0.2229 -0.1017 -0.7338
  152SAPE   C2116759   5.018   3.069   6.270 -0.0295  0.1691 -0.4057
  152SAPE   O2216760   5.051   2.959   6.225  0.4657  0.0557 -0.4474
  152SAPE   C2216761   5.108   3.190   6.261 -0.1749  0.0412 -0.1167
  152SAPE   H2R16762   5.055   3.282   6.294  0.9203  0.9865 -0.8936
  152SAPE   H2S16763   5.200   3.175   6.322 -0.5786  2.3053  1.1893
  152SAPE    C316764   4.741   2.986   6.167  0.3289  0.0966  0.0744
  152SAPE    HX16765   4.650   2.923   6.155  0.2421  0.6332 -2.6390
  152SAPE    HY16766   4.815   2.933   6.102  1.2569  2.6921 -1.1045
  152SAPE   O3116767   4.725   3.118   6.107 -0.1211 -0.5706  0.2663
  152SAPE   C3116768   4.648   3.126   5.997  0.2557  0.4687  0.6157
  152SAPE   O3216769   4.606   3.031   5.928 -0.1788 -0.2449  0.0666
  152SAPE   C3216770   4.627   3.274   5.967 -0.2471  0.1783  0.3438
  152SAPE   H2X16771   4.708   3.334   6.014  2.0938 -2.9604  0.6752
  152SAPE   H2Y16772   4.530   3.316   6.001 -0.1784  2.6840 -2.1995
  152SAPE   C2316773   5.165   3.204   6.122 -0.4369 -0.4195 -0.8094
  152SAPE   H3R16774   5.225   3.115   6.095  0.4601  0.3751 -1.4894
  152SAPE   H3S16775   5.244   3.282   6.129  0.5003 -1.3326 -0.9726
  152SAPE   C2416776   5.062   3.224   6.005  0.0067 -0.3467  0.0916
  152SAPE   H4R16777   4.976   3.273   6.058  0.0601 -1.4398  1.2316
  152SAPE   H4S16778   5.021   3.127   5.970 -1.2205  0.3581 -0.5095
  152SAPE   C2516779   5.103   3.318   5.894 -0.0238  0.3486  0.3058
  152SAPE   H5R16780   5.139   3.416   5.929  0.6293  0.1854  0.1078
  152SAPE   C2616781   5.094   3.287   5.766 -0.2285 -0.0191 -0.5853
  152SAPE   H6R16782   5.119   3.369   5.697  1.2028  1.2727  1.3437
  152SAPE   C2716783   5.040   3.165   5.697 -0.5366 -0.4468  0.1023
  152SAPE   H7R16784   5.012   3.097   5.780 -2.1275 -0.3633 -0.3394
  152SAPE   H7S16785   5.133   3.127   5.649 -0.5201 -1.8525  1.1714
  152SAPE   C2816786   4.940   3.190   5.590 -0.4750 -0.0230 -0.4569
  152SAPE   H8R16787   4.840   3.156   5.619 -0.8155  0.4806 -1.0214
  152SAPE   C2916788   4.968   3.245   5.466  0.4303  0.5039  0.3705
  152SAPE   H9R16789   4.880   3.238   5.400  1.2157 -1.0586 -0.5617
  152SAPE  C21016790   5.095   3.303   5.416 -0.8608 -0.3928 -0.5867
  152SAPE  H10R16791   5.155   3.232   5.355  1.4103  0.9084  0.0159
  152SAPE  H10S16792   5.162   3.330   5.500  0.3392 -0.1105 -1.6010
  152SAPE  C21116793   5.069   3.425   5.334 -0.1355  0.3552  0.1081
  152SAPE  H11R16794   5.097   3.521   5.379  2.9330  0.1852 -1.1807
  152SAPE  C21216795   5.072   3.424   5.201  0.1956 -0.0907  0.2048
  152SAPE  H12R16796   5.061   3.521   5.151 -1.4720 -0.8588 -1.0221
  152SAPE  C21316797   5.071   3.307   5.110 -0.5006  0.2320  0.7055
  152SAPE  H13R16798   5.067   3.207   5.157 -0.4453  0.0382  0.3072
  152SAPE  H13S16799   5.170   3.302   5.061 -1.4135  2.0079 -1.5198
  152SAPE  C21416800   4.966   3.308   5.010  0.2223  0.1496 -0.1943
  152SAPE  H14R16801   4.871   3.295   5.064 -0.1551 -0.1990 -0.9202
  152SAPE  C21516802   4.977   3.314   4.877  0.0944 -1.3743  0.2817
  152SAPE  H15R16803   4.887   3.312   4.813  0.7432 -4.1015 -0.6683
  152SAPE  C21616804   5.106   3.320   4.791  0.2140 -0.6340 -0.4899
  152SAPE  H16R16805   5.100   3.245   4.710  2.1510 -0.2754 -1.0130
  152SAPE  H16S16806   5.191   3.300   4.859  1.3242  2.7325 -0.6748
  152SAPE  C21716807   5.122   3.462   4.744  0.3215 -0.3294  0.3501
  152SAPE  H17R16808   5.227   3.482   4.717  0.1836  0.2077  0.1888
  152SAPE  H17S16809   5.104   3.531   4.830 -0.9220  0.5056 -0.5383
  152SAPE  C21816810   5.032   3.497   4.626 -0.0272 -0.2949  0.0014
  152SAPE  H18R16811   4.927   3.471   4.653  0.1510 -0.3561  0.6567
  152SAPE  H18S16812   5.057   3.445   4.531 -1.9011 -0.4411 -0.4465
  152SAPE  C21916813   5.041   3.645   4.586 -1.0399  0.1108  0.2003
  152SAPE  H19R16814   5.148   3.673   4.572 -0.6622 -0.8258  1.1166
  152SAPE  H19S16815   4.993   3.710   4.662 -1.8122 -1.2218  0.8724
  152SAPE  C22016816   4.975   3.670   4.443 -0.0459 -0.9381 -0.0455
  152SAPE  H20R16817   4.989   3.774   4.407  1.1747 -0.1484  2.4697
  152SAPE  H20S16818   4.865   3.660   4.446 -0.1958  0.0396 -1.4697
  152SAPE  H20T16819   5.017   3.604   4.364 -0.2052  1.4784 -2.2628
  152SAPE   C3316820   4.642   3.301   5.815  0.1755 -0.5875  0.4012
  152SAPE   H3X16821   4.735   3.254   5.775  0.8540  2.4601 -1.9804
  152SAPE   H3Y16822   4.643   3.410   5.795 -3.2724 -0.0254  2.5746
  152SAPE   C3416823   4.516   3.253   5.732 -0.2191 -0.0506 -0.3388
  152SAPE   H4X16824   4.428   3.289   5.788 -0.1616  0.8824 -0.8321
  152SAPE   H4Y16825   4.520   3.142   5.732 -0.1592 -0.0507  0.1430
  152SAPE   C3516826   4.503   3.292   5.581  0.5765 -0.9240  0.2445
  152SAPE   H5X16827   4.554   3.387   5.553  1.7742 -2.4877 -3.4422
  152SAPE   H5Y16828   4.395   3.305   5.561  0.3545 -0.1615  1.7830
  152SAPE   C3616829   4.544   3.180   5.489 -0.1454  0.5657  0.3231
  152SAPE   H6X16830   4.467   3.101   5.495  0.0268  0.4646  1.3187
  152SAPE   H6Y16831   4.646   3.138   5.503 -1.1961 -2.5190 -0.2742
  152SAPE   C3716832   4.558   3.237   5.350  0.5014  0.4153 -0.8170
  152SAPE   H7X16833   4.634   3.317   5.347 -0.0817  1.1133  1.1444
  152SAPE   H7Y16834   4.459   3.283   5.328 -0.0277  0.4964  1.4501
  152SAPE   C3816835   4.574   3.134   5.241  0.4141  0.3107 -0.4484
  152SAPE   H8X16836   4.499   3.053   5.252  1.3817 -0.4413  0.9469
  152SAPE   H8Y16837   4.676   3.091   5.251  0.3144 -0.0527 -0.9463
  152SAPE   C3916838   4.570   3.188   5.106 -0.0419  0.0047 -0.2864
  152SAPE   H9X16839   4.649   3.264   5.088  0.8441 -0.9823 -0.6673
  152SAPE   H9Y16840   4.473   3.238   5.084 -0.3686 -0.3865  0.2399
  152SAPE  C31016841   4.601   3.069   5.017  0.3095 -0.2109 -0.7902
  152SAPE  H10X16842   4.541   2.976   5.034 -1.3327  1.0916  1.0131
  152SAPE  H10Y16843   4.706   3.041   5.036  0.7972 -0.4683 -3.4371
  152SAPE  C31116844   4.592   3.110   4.865 -0.0112 -0.0359 -0.4468
  152SAPE  H11X16845   4.613   3.219   4.863 -4.3675  1.0229  0.3822
  152SAPE  H11Y16846   4.492   3.100   4.816  0.3076  3.5842 -2.1906
  152SAPE  C31216847   4.691   3.040   4.774 -0.0903  0.0222  0.3485
  152SAPE  H12X16848   4.794   3.068   4.805 -0.2864  1.2768 -0.0926
  152SAPE  H12Y16849   4.683   3.086   4.673 -0.1531  1.5459  1.0354
  152SAPE  C31316850   4.678   2.887   4.761 -0.7547 -0.6359 -0.4847
  152SAPE  H13X16851   4.579   2.869   4.714 -0.5866 -4.0122  0.2287
  152SAPE  H13Y16852   4.685   2.838   4.860  1.7682 -1.0061 -0.7755
  152SAPE  C31416853   4.785   2.817   4.674 -0.5227 -0.5880 -0.1257
  152SAPE  H14X16854   4.881   2.822   4.730 -0.2174  1.0164 -0.7295
  152SAPE  H14Y16855   4.795   2.879   4.582  1.7269  1.3845  1.3150
  152SAPE  C31516856   4.749   2.668   4.656  0.6511 -0.5734  0.2017
  152SAPE  H15X16857   4.668   2.664   4.580 -0.7757  3.0321  1.3374
  152SAPE  H15Y16858   4.694   2.630   4.744 -1.3391 -1.8354 -1.4917
  152SAPE  C31616859   4.870   2.579   4.623  0.2041 -0.4056 -0.1529
  152SAPE  H16X16860   4.934   2.590   4.713  1.1304 -0.2858 -0.8151
  152SAPE  H16Y16861   4.914   2.634   4.537  1.1879  0.3818  0.8275
  152SAPE  C31716862   4.841   2.429   4.585 -0.5909  0.2954  0.4456
  152SAPE  H17X16863   4.762   2.391   4.652  0.1976  0.1509  1.3226
  152SAPE  H17Y16864   4.932   2.367   4.601 -1.7010 -1.8863 -1.0527
  152SAPE  C31816865   4.796   2.418   4.441  0.9694  0.0852  0.2605
  152SAPE  H18X16866   4.856   2.493   4.384 -1.1522  0.9837 -0.8994
  152SAPE  H18Y16867   4.690   2.442   4.420  1.7095  5.3951  1.1775
  152SAPE  H18Z16868   4.800   2.317   4.395 -4.0508 -0.5316  0.6488
  153SAPE     N16869   3.791   1.631   6.160 -0.3075  0.1022 -0.3765
  153SAPE   HN116870   3.795   1.582   6.251  0.1185 -2.8361 -1.8468
  153SAPE   HN216871   3.722   1.578   6.102 -0.8933 -0.4977  0.8387
  153SAPE   HN316872   3.881   1.607   6.114 -0.7613 -3.8053  0.4656
  153SAPE   C1216873   3.773   1.780   6.168 -0.8672  0.1188 -0.2968
  153SAPE  H12A16874   3.857   1.810   6.235 -0.2765 -0.9512 -0.5320
  153SAPE  H12B16875   3.680   1.794   6.227 -0.8574  1.4229 -0.5513
  153SAPE   C1116876   3.761   1.845   6.031  0.5542  0.0772 -0.1019
  153SAPE  H11A16877   3.682   1.786   5.982  1.7338 -1.8443  0.1890
  153SAPE  H11B16878   3.849   1.844   5.963 -0.9361 -3.0152 -2.1787
  153SAPE     P16879   3.589   2.058   6.015 -0.0943  0.5160 -0.1842
  153SAPE   O1316880   3.470   2.027   6.101  0.0554  0.1808 -0.2577
  153SAPE   O1416881   3.617   2.205   6.005  0.7338  0.0573  0.0348
  153SAPE   O1216882   3.717   1.980   6.053  0.3424 -1.2244  0.3307
  153SAPE   O1116883   3.548   1.997   5.880  0.1022  0.3858 -0.5150
  153SAPE    C116884   3.622   2.040   5.768  0.1981 -0.0579  0.0370
  153SAPE    HA16885   3.716   2.098   5.787  0.4757 -0.5025  0.0328
  153SAPE    HB16886   3.654   1.956   5.703 -0.9265 -0.1293 -0.4298
  153SAPE    C216887   3.528   2.124   5.685  0.7604 -0.7965  0.1442
  153SAPE    HS16888   3.477   2.193   5.756  1.0147 -0.6075  0.1466
  153SAPE   O2116889   3.425   2.041   5.623 -0.9130  0.4825  0.6742
  153SAPE   C2116890   3.328   2.016   5.702 -0.1940 -0.0095 -0.0949
  153SAPE   O2216891   3.296   2.085   5.794 -0.1223 -0.7192  0.1526
  153SAPE   C2216892   3.264   1.885   5.659 -0.0518  0.5147 -0.4145
  153SAPE   H2R16893   3.233   1.886   5.552  3.2695  1.1485 -1.4804
  153SAPE   H2S16894   3.344   1.810   5.673  1.9275  2.7560  0.8945
  153SAPE    C316895   3.612   2.209   5.587 -0.1207 -0.3109 -0.1862
  153SAPE    HX16896   3.540   2.259   5.519 -2.2990 -2.1160  0.6456
  153SAPE    HY16897   3.659   2.136   5.517  0.9398  2.1492 -2.1879
  153SAPE   O3116898   3.710   2.298   5.645 -0.1122  0.1453  0.6222
  153SAPE   C3116899   3.673   2.399   5.717  0.2488  0.1018 -0.3250
  153SAPE   O3216900   3.559   2.442   5.731  0.2167  0.3379 -0.2415
  153SAPE   C3216901   3.793   2.467   5.783  0.1794  0.0446 -0.5730
  153SAPE   H2X16902   3.858   2.386   5.821  0.3198  1.4887  2.6263
  153SAPE   H2Y16903   3.754   2.516   5.876  1.8237  1.6785 -0.6992
  153SAPE   C2316904   3.137   1.861   5.746 -0.7839  0.3954 -0.9182
  153SAPE   H3R16905   3.141   1.873   5.856 -2.3951 -1.9833 -0.5294
  153SAPE   H3S16906   3.107   1.756   5.725  1.0763 -0.0087 -1.7196
  153SAPE   C2416907   3.016   1.937   5.689  0.2628  0.4672  0.9779
  153SAPE   H4R16908   3.053   2.040   5.668  0.9597  0.0090 -0.1861
  153SAPE   H4S16909   2.938   1.947   5.767 -1.9711 -1.0429 -0.9196
  153SAPE   C2516910   2.946   1.889   5.563 -0.0906  0.0536  0.2586
  153SAPE   H5R16911   2.912   1.785   5.573 -0.1090  0.2367  2.5657
  153SAPE   C2616912   2.925   1.956   5.448  0.6703 -0.1755 -0.2850
  153SAPE   H6R16913   2.852   1.921   5.373 -1.5759  1.3102  1.0908
  153SAPE   C2716914   2.977   2.089   5.413  0.1422  0.2006 -0.3582
  153SAPE   H7R16915   2.970   2.159   5.499  0.3092  0.3397 -0.4573
  153SAPE   H7S16916   2.902   2.133   5.344  0.1015  0.6028 -0.0552
  153SAPE   C2816917   3.110   2.091   5.337  0.2060  0.3798 -0.3173
  153SAPE   H8R16918   3.138   2.000   5.281  0.9430  0.9379 -0.8723
  153SAPE   C2916919   3.184   2.201   5.337  1.0149 -0.2201 -0.2929
  153SAPE   H9R16920   3.273   2.202   5.273  1.0901  0.7758 -0.1823
  153SAPE  C21016921   3.140   2.321   5.419 -0.4250 -0.2691  0.5222
  153SAPE  H10R16922   3.032   2.341   5.434 -1.2596 -2.5688 -1.7114
  153SAPE  H10S16923   3.174   2.406   5.357  1.6572 -1.4991 -0.1590
  153SAPE  C21116924   3.209   2.336   5.551 -0.4364 -0.6051  0.0131
  153SAPE  H11R16925   3.181   2.257   5.623 -2.3098  0.6482  0.7143
  153SAPE  C21216926   3.265   2.447   5.592  0.5343 -0.3401 -0.7475
  153SAPE  H12R16927   3.314   2.455   5.690 -0.9543  2.2378 -0.1218
  153SAPE  C21316928   3.300   2.572   5.517  0.9161  0.8134 -0.1985
  153SAPE  H13R16929   3.319   2.662   5.580  1.6669 -0.3587  1.3002
  153SAPE  H13S16930   3.215   2.602   5.451  1.4385  1.7263 -0.4648
  153SAPE  C21416931   3.425   2.552   5.438  0.6504 -0.7524  0.4603
  153SAPE  H14R16932   3.518   2.538   5.496  0.6363  0.4644  0.7942
  153SAPE  C21516933   3.456   2.556   5.302 -0.2034 -0.3578 -0.4991
  153SAPE  H15R16934   3.563   2.552   5.277 -0.3483  1.4550 -1.5434
  153SAPE  C21616935   3.355   2.553   5.195  0.4372  0.3800 -0.4394
  153SAPE  H16R16936   3.259   2.606   5.217  0.6208  0.4727  0.1698
  153SAPE  H16S16937   3.331   2.446   5.182  0.2015  0.2788  0.6757
  153SAPE  C21716938   3.415   2.627   5.072 -1.1316 -0.6758 -0.0908
  153SAPE  H17R16939   3.510   2.583   5.034 -1.4200 -0.8768 -0.5885
  153SAPE  H17S16940   3.436   2.733   5.100  1.1816 -1.0899 -0.0239
  153SAPE  C21816941   3.329   2.610   4.954 -0.1288  0.4809  0.3598
  153SAPE  H18R16942   3.241   2.677   4.960  1.4501  2.5255  1.8267
  153SAPE  H18S16943   3.302   2.502   4.944 -0.0851  0.5074 -0.0662
  153SAPE  C21916944   3.412   2.632   4.821 -0.4709 -0.3684  0.2733
  153SAPE  H19R16945   3.474   2.541   4.807 -3.0708 -2.3499  0.8616
  153SAPE  H19S16946   3.470   2.726   4.833 -2.7720  1.1357  0.2289
  153SAPE  C22016947   3.312   2.648   4.705 -0.0769  0.1912 -0.1062
  153SAPE  H20R16948   3.364   2.667   4.609 -0.3587 -2.0571 -0.7716
  153SAPE  H20S16949   3.267   2.746   4.731  1.3016  0.9650 -0.5855
  153SAPE  H20T16950   3.237   2.566   4.706 -0.3571  0.4481  0.2649
  153SAPE   C3316951   3.853   2.573   5.694 -0.2948 -0.6397  0.4147
  153SAPE   H3X16952   3.780   2.637   5.640  0.3598  0.3451  0.6575
  153SAPE   H3Y16953   3.922   2.519   5.627  1.5556  0.1172  1.5985
  153SAPE   C3416954   3.961   2.663   5.767  0.9295  0.3418 -0.5799
  153SAPE   H4X16955   4.039   2.590   5.799  0.8646 -1.1202 -3.3888
  153SAPE   H4Y16956   3.907   2.709   5.852  0.0055 -1.4837 -0.1291
  153SAPE   C3516957   4.009   2.786   5.681  0.0742  0.2843 -0.2770
  153SAPE   H5X16958   4.071   2.858   5.737 -0.1783  0.6929 -0.5157
  153SAPE   H5Y16959   3.917   2.843   5.653 -1.8552 -3.1845 -1.6476
  153SAPE   C3616960   4.085   2.739   5.563  0.4358 -0.2806  0.2253
  153SAPE   H6X16961   4.009   2.682   5.504 -0.5473  1.3018 -0.1060
  153SAPE   H6Y16962   4.168   2.671   5.589 -0.3179 -1.5488 -0.5706
  153SAPE   C3716963   4.129   2.853   5.468 -0.2061  0.0548 -0.4220
  153SAPE   H7X16964   4.216   2.909   5.508  0.9856 -1.6217 -0.5945
  153SAPE   H7Y16965   4.055   2.936   5.460 -0.3875  0.0385  0.9189
  153SAPE   C3816966   4.171   2.805   5.326  0.3093 -0.6093 -0.0860
  153SAPE   H8X16967   4.098   2.739   5.276  2.6890 -1.9694 -1.9870
  153SAPE   H8Y16968   4.263   2.744   5.338  0.7288  0.3531  2.2657
  153SAPE   C3916969   4.216   2.915   5.231  0.1271 -0.9891 -0.3603
  153SAPE   H9X16970   4.287   2.972   5.295  0.2872 -1.2825 -0.2751
  153SAPE   H9Y16971   4.128   2.975   5.199  1.0423  1.4245  1.3456
  153SAPE  C31016972   4.289   2.887   5.100  0.2131  0.0830 -0.8094
  153SAPE  H10X16973   4.379   2.827   5.125 -0.6255 -1.2984 -1.0044
  153SAPE  H10Y16974   4.326   2.977   5.047  1.5359  0.8955  1.3749
  153SAPE  C31116975   4.194   2.810   5.007  0.7746 -0.3887  0.3078
  153SAPE  H11X16976   4.136   2.882   4.945 -1.3006 -2.1723  0.0524
  153SAPE  H11Y16977   4.112   2.768   5.069  0.9732  0.3366  1.0916
  153SAPE  C31216978   4.243   2.689   4.923 -0.0413 -0.5678 -0.5748
  153SAPE  H12X16979   4.159   2.637   4.872 -0.3493  0.6617 -1.3492
  153SAPE  H12Y16980   4.279   2.620   5.003 -0.4124 -1.7034 -1.3619
  153SAPE  C31316981   4.349   2.729   4.823 -0.1307  0.0275  0.1998
  153SAPE  H13X16982   4.451   2.742   4.866  0.9111 -2.6694 -1.1964
  153SAPE  H13Y16983   4.325   2.831   4.786  0.1179 -0.2154 -0.6604
  153SAPE  C31416984   4.367   2.636   4.701  0.0593  0.5999 -0.3547
  153SAPE  H14X16985   4.442   2.676   4.629 -2.1525  0.8210 -2.6731
  153SAPE  H14Y16986   4.266   2.632   4.654 -0.2616  2.0709  0.1717
  153SAPE  C31516987   4.409   2.498   4.740  0.3522  0.1588 -0.3555
  153SAPE  H15X16988   4.329   2.462   4.808 -0.0036  2.9203  0.8329
  153SAPE  H15Y16989   4.501   2.511   4.800  1.4833 -1.0741 -1.7600
  153SAPE  C31616990   4.420   2.392   4.625 -0.5401 -0.3195  0.3066
  153SAPE  H16X16991   4.431   2.296   4.680  0.5385  0.5822  1.7528
  153SAPE  H16Y16992   4.514   2.405   4.566 -1.6909 -2.6933 -2.2465
  153SAPE  C31716993   4.290   2.397   4.537  0.1084  0.1054  0.6610
  153SAPE  H17X16994   4.304   2.488   4.474 -3.0261 -0.2063 -0.6644
  153SAPE  H17Y16995   4.205   2.403   4.608  0.3276 -0.0207  0.9367
  153SAPE  C31816996   4.280   2.271   4.444 -0.0791 -0.4643  0.4605
  153SAPE  H18X16997   4.207   2.307   4.369  2.1871  1.4399 -0.9957
  153SAPE  H18Y16998   4.254   2.177   4.496  0.7437 -0.9066  0.0966
  153SAPE  H18Z16999   4.376   2.243   4.394 -0.2538 -0.4959  0.1381
  154SAPE     N17000   0.914   1.282   6.297  0.1708 -0.1861 -0.9942
  154SAPE   HN117001   0.925   1.348   6.376  0.2363  0.8434 -1.8463
  154SAPE   HN217002   0.819   1.302   6.261 -0.2108  1.1732  0.6700
  154SAPE   HN317003   0.920   1.182   6.326 -0.9592 -0.4240 -1.5056
  154SAPE   C1217004   1.028   1.304   6.201  0.8461 -0.2803  0.2290
  154SAPE  H12A17005   1.048   1.210   6.145  1.2272  1.1678 -2.2390
  154SAPE  H12B17006   1.117   1.339   6.259  1.6800  0.3452 -1.3640
  154SAPE   C1117007   1.002   1.413   6.095 -0.0630  0.5310  0.4014
  154SAPE  H11A17008   0.909   1.386   6.041 -0.3987 -1.3713  1.8282
  154SAPE  H11B17009   1.084   1.408   6.020  0.9538  2.1151  1.3600
  154SAPE     P17010   0.976   1.666   6.082  0.3614 -0.2883 -0.5120
  154SAPE   O1317011   0.838   1.706   6.130  0.2368  0.2832  0.4943
  154SAPE   O1417012   1.084   1.768   6.104 -0.2569 -0.4575  0.4024
  154SAPE   O1217013   1.017   1.538   6.160 -0.8944  0.1480  0.3293
  154SAPE   O1117014   0.959   1.615   5.932 -0.0475  0.0417 -0.4686
  154SAPE    C117015   1.068   1.626   5.841  0.5306 -0.3449  0.9874
  154SAPE    HA17016   1.167   1.594   5.879  0.9609 -1.1640 -0.7127
  154SAPE    HB17017   1.043   1.555   5.759 -0.3280  0.7025  0.3047
  154SAPE    C217018   1.087   1.767   5.774 -0.5411  0.2212  0.7807
  154SAPE    HS17019   1.066   1.849   5.847 -1.0647  2.0230 -1.3041
  154SAPE   O2117020   0.992   1.778   5.664 -0.3425 -0.0178 -0.2843
  154SAPE   C2117021   0.875   1.813   5.703  0.2332 -0.2718 -0.1351
  154SAPE   O2217022   0.852   1.864   5.818  0.4432 -0.2710 -0.2812
  154SAPE   C2217023   0.786   1.823   5.580 -0.4749 -0.5407  0.2157
  154SAPE   H2R17024   0.839   1.849   5.485  1.8101 -1.8871  1.0396
  154SAPE   H2S17025   0.739   1.724   5.568 -0.0513 -0.4617 -3.0674
  154SAPE    C317026   1.236   1.784   5.724  0.0665 -0.3857  0.8238
  154SAPE    HX17027   1.298   1.796   5.816  2.6110 -0.0876 -0.8455
  154SAPE    HY17028   1.238   1.875   5.661  0.8281 -1.1233 -0.2578
  154SAPE   O3117029   1.289   1.679   5.638 -0.0462 -0.1843  0.4664
  154SAPE   C3117030   1.370   1.595   5.677 -0.6615 -0.7813 -0.2227
  154SAPE   O3217031   1.407   1.573   5.790  0.3136  0.1114 -0.5411
  154SAPE   C3217032   1.425   1.519   5.549 -0.1865 -0.0775 -0.3242
  154SAPE   H2X17033   1.341   1.470   5.497  0.7145 -0.4274 -1.4931
  154SAPE   H2Y17034   1.492   1.438   5.584  0.2328  0.4028  0.0159
  154SAPE   C2317035   0.663   1.924   5.593 -0.5695 -0.0649  0.1008
  154SAPE   H3R17036   0.703   2.019   5.635  1.4438 -0.1088 -1.5693
  154SAPE   H3S17037   0.588   1.883   5.664  1.4972 -1.8817  1.3335
  154SAPE   C2417038   0.597   1.972   5.457 -0.1181  0.1147 -0.5379
  154SAPE   H4R17039   0.511   2.036   5.489 -1.4718 -1.1400 -1.5543
  154SAPE   H4S17040   0.553   1.883   5.407 -0.6535  0.2487 -0.3135
  154SAPE   C2517041   0.690   2.049   5.367 -0.0495  0.0093  0.0722
  154SAPE   H5R17042   0.761   2.123   5.404  2.0198 -0.8691 -1.8919
  154SAPE   C2617043   0.718   2.033   5.240  0.5400  0.1060  0.1148
  154SAPE   H6R17044   0.779   2.104   5.182 -0.0879 -0.0535 -0.7662
  154SAPE   C2717045   0.646   1.933   5.154  0.0191  0.6327 -0.0505
  154SAPE   H7R17046   0.608   1.846   5.212  0.4269  0.9655  0.7438
  154SAPE   H7S17047   0.724   1.875   5.101  0.0358 -2.0789  2.6952
  154SAPE   C2817048   0.540   1.990   5.053 -0.3946 -0.1294 -0.1640
  154SAPE   H8R17049   0.539   2.099   5.072  1.1223 -0.2744  1.0315
  154SAPE   C2917050   0.455   1.926   4.970 -0.7221 -0.2203 -0.0508
  154SAPE   H9R17051   0.374   1.980   4.919  0.0451  2.5438  1.4515
  154SAPE  C21017052   0.463   1.780   4.960  0.3976  0.1217 -0.2739
  154SAPE  H10R17053   0.446   1.733   5.059  0.2216  2.2139  0.7521
  154SAPE  H10S17054   0.566   1.747   4.939  0.5172  0.3202 -0.0136
  154SAPE  C21117055   0.366   1.724   4.859  0.6548  0.2565  0.2162
  154SAPE  H11R17056   0.398   1.714   4.754 -0.5713  0.1215 -0.1726
  154SAPE  C21217057   0.238   1.692   4.883  0.5945  0.2565  0.4845
  154SAPE  H12R17058   0.179   1.635   4.810  1.1972  1.9261 -1.3915
  154SAPE  C21317059   0.167   1.705   5.021  0.0944  0.5571 -0.1390
  154SAPE  H13R17060   0.066   1.751   5.014 -0.1876  0.1892  1.1864
  154SAPE  H13S17061   0.225   1.778   5.081  1.3204  0.7445 -1.4856
  154SAPE  C21417062   0.161   1.568   5.085 -0.2256 -0.2027 -0.8476
  154SAPE  H14R17063   0.120   1.489   5.020 -0.2069 -0.0178 -1.0845
  154SAPE  C21517064   0.204   1.532   5.212  0.1154  0.1535  1.4925
  154SAPE  H15R17065   0.188   1.440   5.269 -0.1049  0.2006  1.5058
  154SAPE  C21617066   0.283   1.616   5.306 -0.4365  0.3732  0.6706
  154SAPE  H16R17067   0.341   1.694   5.251  0.0072  0.7047  1.5994
  154SAPE  H16S17068   0.354   1.549   5.359  0.6562  0.9999  0.0486
  154SAPE  C21717069   0.188   1.683   5.403 -0.4942 -0.2762  0.0477
  154SAPE  H17R17070   0.120   1.611   5.454 -0.8863  0.0622  0.0151
  154SAPE  H17S17071   0.124   1.766   5.365  1.1169  0.9333 -0.1407
  154SAPE  C21817072   0.270   1.752   5.519  0.2776  0.2261  0.0295
  154SAPE  H18R17073   0.329   1.836   5.476  0.6507  0.2001  0.4933
  154SAPE  H18S17074   0.339   1.675   5.559  0.7923 -1.1432 -3.1497
  154SAPE  C21917075   0.176   1.799   5.628  0.1726  0.5469  0.1677
  154SAPE  H19R17076   0.098   1.722   5.644  1.1496 -0.9305 -1.8373
  154SAPE  H19S17077   0.110   1.876   5.582 -0.0289 -0.3903 -1.1617
  154SAPE  C22017078   0.246   1.844   5.752  0.7128 -0.0410  0.1760
  154SAPE  H20R17079   0.188   1.927   5.798  2.8187  0.7034  1.6270
  154SAPE  H20S17080   0.339   1.897   5.722  0.5281 -0.2224 -0.7606
  154SAPE  H20T17081   0.262   1.758   5.819 -1.5451 -0.5717  0.0883
  154SAPE   C3317082   1.488   1.614   5.437  0.0454  0.0679  0.6751
  154SAPE   H3X17083   1.534   1.708   5.472 -1.6068  0.8984  0.7167
  154SAPE   H3Y17084   1.419   1.650   5.358  0.7525 -1.7068 -0.8191
  154SAPE   C3417085   1.615   1.537   5.379 -0.4181  0.2841 -0.3542
  154SAPE   H4X17086   1.579   1.436   5.348  0.9546  0.3058 -2.2424
  154SAPE   H4Y17087   1.689   1.518   5.459 -0.1819 -1.0945 -0.8809
  154SAPE   C3517088   1.657   1.600   5.241  0.2356  0.4294 -0.1328
  154SAPE   H5X17089   1.682   1.703   5.273  1.0236  0.1559  0.1504
  154SAPE   H5Y17090   1.568   1.597   5.175  0.3440 -1.0274 -0.2301
  154SAPE   C3617091   1.768   1.526   5.172 -0.7962 -0.8587 -0.3889
  154SAPE   H6X17092   1.732   1.424   5.148 -0.5565 -1.1061  0.2831
  154SAPE   H6Y17093   1.841   1.517   5.255  0.6644  0.7528 -1.4374
  154SAPE   C3717094   1.838   1.603   5.065 -0.3560 -0.7868 -0.4163
  154SAPE   H7X17095   1.929   1.547   5.038  0.5211 -0.0484  0.8866
  154SAPE   H7Y17096   1.877   1.703   5.095  1.1706 -1.3613 -0.3945
  154SAPE   C3817097   1.746   1.629   4.948 -0.1222  0.5755 -0.1363
  154SAPE   H8X17098   1.654   1.681   4.981 -0.5661  0.1856 -0.7285
  154SAPE   H8Y17099   1.708   1.532   4.909 -0.4237  0.3065  0.7956
  154SAPE   C3917100   1.808   1.709   4.836  1.3990 -0.5199  0.2117
  154SAPE   H9X17101   1.894   1.653   4.793 -0.1223 -1.4406 -1.8320
  154SAPE   H9Y17102   1.837   1.811   4.868 -0.5298 -0.0882  0.7067
  154SAPE  C31017103   1.701   1.724   4.721  0.3676 -0.5360 -0.6110
  154SAPE  H10X17104   1.616   1.791   4.746  1.3960  2.6301 -4.5265
  154SAPE  H10Y17105   1.660   1.622   4.702 -0.8870 -0.4241  1.2179
  154SAPE  C31117106   1.773   1.772   4.593 -0.5511 -0.3103 -0.3675
  154SAPE  H11X17107   1.860   1.705   4.576  1.4903  2.4992 -1.8262
  154SAPE  H11Y17108   1.823   1.868   4.617  1.1115 -1.3603  0.5314
  154SAPE  C31217109   1.703   1.776   4.462  0.1104  0.3864 -0.0324
  154SAPE  H12X17110   1.765   1.757   4.372 -2.2512  0.0628 -1.6911
  154SAPE  H12Y17111   1.669   1.882   4.459 -1.1116  0.0561  1.0776
  154SAPE  C31317112   1.581   1.675   4.446 -0.4381 -0.2756 -0.4860
  154SAPE  H13X17113   1.492   1.713   4.501  0.2904  0.3294  0.3164
  154SAPE  H13Y17114   1.619   1.580   4.489  2.8140  1.4952  0.9603
  154SAPE  C31417115   1.547   1.663   4.297 -0.2973  0.2252  0.2103
  154SAPE  H14X17116   1.637   1.611   4.257 -0.8071 -1.7335  1.4256
  154SAPE  H14Y17117   1.534   1.760   4.245 -1.1380  0.1806  0.3110
  154SAPE  C31517118   1.417   1.584   4.268  0.5752  0.0624  0.4501
  154SAPE  H15X17119   1.416   1.490   4.327 -2.4980 -1.2083 -1.3679
  154SAPE  H15Y17120   1.411   1.562   4.159 -1.9867  3.7882 -0.3647
  154SAPE  C31617121   1.292   1.663   4.322 -0.2911 -0.1156  0.5927
  154SAPE  H16X17122   1.274   1.748   4.252  0.5819 -2.0466 -2.1123
  154SAPE  H16Y17123   1.314   1.708   4.421  2.1681  0.2193 -0.0494
  154SAPE  C31717124   1.165   1.579   4.318  0.2069 -0.0328 -0.6338
  154SAPE  H17X17125   1.076   1.645   4.324  0.8585  1.0911 -2.4828
  154SAPE  H17Y17126   1.171   1.530   4.418 -1.9823  1.0289  0.0909
  154SAPE  C31817127   1.141   1.480   4.204  0.4914  0.1367 -0.1794
  154SAPE  H18X17128   1.213   1.396   4.212 -1.3352 -1.3686  1.6683
  154SAPE  H18Y17129   1.164   1.534   4.110  0.1405  0.3536 -0.1428
  154SAPE  H18Z17130   1.037   1.443   4.190 -0.0953  1.5843  0.1916
  155SAPE     N17131   4.135   6.758   6.458  0.3186 -0.5557  0.2161
  155SAPE   HN117132   4.114   6.744   6.357  2.0294 -2.3206  0.0531
  155SAPE   HN217133   4.232   6.795   6.459  0.6278 -1.3443 -0.3047
  155SAPE   HN317134   4.119   6.670   6.510 -2.6907  0.2855  0.9202
  155SAPE   C1217135   4.034   6.860   6.515 -0.3934 -0.6537  0.7909
  155SAPE  H12A17136   4.067   6.892   6.616  2.0371 -0.6538  0.0769
  155SAPE  H12B17137   3.933   6.815   6.526 -0.7449  0.6092  3.3846
  155SAPE   C1117138   4.031   6.999   6.438 -0.4148  0.0784 -0.4427
  155SAPE  H11A17139   3.972   7.074   6.494 -0.1091  1.0042 -1.3295
  155SAPE  H11B17140   3.989   6.987   6.336  1.2847  2.0825 -1.4660
  155SAPE     P17141   4.180   7.176   6.340 -0.2506 -0.1235 -0.6075
  155SAPE   O1317142   4.082   7.287   6.362 -0.1085  0.2140  0.0118
  155SAPE   O1417143   4.324   7.209   6.348 -0.1600  0.1109 -0.5157
  155SAPE   O1217144   4.164   7.050   6.436 -0.3797 -0.0178  0.1928
  155SAPE   O1117145   4.152   7.104   6.202  0.2446 -0.0140  0.3170
  155SAPE    C117146   4.257   7.014   6.144  0.8559 -0.3948  0.1324
  155SAPE    HA17147   4.331   6.968   6.214  2.1379 -1.1178 -1.5996
  155SAPE    HB17148   4.200   6.931   6.097 -2.2248  1.7530 -0.1597
  155SAPE    C217149   4.328   7.078   6.027 -0.0601 -0.1624  0.1800
  155SAPE    HS17150   4.368   7.175   6.063  1.1047 -0.1703 -1.0286
  155SAPE   O2117151   4.236   7.095   5.915 -0.3603 -0.4687 -0.3979
  155SAPE   C2117152   4.260   7.192   5.830  0.2008  0.4417 -0.2918
  155SAPE   O2217153   4.350   7.276   5.839  0.7484 -0.4174 -0.3115
  155SAPE   C2217154   4.163   7.178   5.711  0.1269  0.0628 -0.0327
  155SAPE   H2R17155   4.077   7.120   5.751 -1.1664  0.8061 -1.6509
  155SAPE   H2S17156   4.127   7.279   5.684 -4.0003 -1.2403 -0.0159
  155SAPE    C317157   4.442   6.988   5.976 -0.0971  0.7907 -0.7775
  155SAPE    HX17158   4.391   6.905   5.921 -0.3082 -0.2086  0.8597
  155SAPE    HY17159   4.499   6.942   6.059  0.1644  0.2327 -1.2621
  155SAPE   O3117160   4.542   7.042   5.895 -0.1203 -0.6919 -0.2260
  155SAPE   C3117161   4.621   7.140   5.948  0.5438  0.1198 -0.4692
  155SAPE   O3217162   4.607   7.183   6.058  0.1945  0.4454  0.0429
  155SAPE   C3217163   4.713   7.188   5.840 -0.5022  0.0795 -0.0875
  155SAPE   H2X17164   4.806   7.129   5.854  0.3744  1.5487  0.4832
  155SAPE   H2Y17165   4.743   7.295   5.851  3.0421 -0.5772 -1.8117
  155SAPE   C2317166   4.244   7.106   5.595 -0.3160  0.5449 -0.2075
  155SAPE   H3R17167   4.344   7.154   5.583 -0.3770  0.4528 -1.1686
  155SAPE   H3S17168   4.187   7.114   5.501 -0.7604  2.0953  0.1593
  155SAPE   C2417169   4.264   6.955   5.615  0.5058  0.2960  0.3242
  155SAPE   H4R17170   4.328   6.936   5.704  0.7585  1.5480  0.4338
  155SAPE   H4S17171   4.319   6.916   5.526 -1.3742 -1.0118 -0.3329
  155SAPE   C2517172   4.139   6.868   5.641 -0.3013  0.6571 -0.0508
  155SAPE   H5R17173   4.129   6.833   5.745  1.9424  0.4799  0.1481
  155SAPE   C2617174   4.043   6.830   5.554 -0.4797  0.2531  0.8697
  155SAPE   H6R17175   3.966   6.760   5.589 -0.6282 -0.3542 -0.6106
  155SAPE   C2717176   4.031   6.867   5.410  0.1244  0.3666 -0.0151
  155SAPE   H7R17177   4.019   6.779   5.344 -0.2771  0.7838 -0.5033
  155SAPE   H7S17178   4.121   6.916   5.368  0.1505 -0.8481 -1.4584
  155SAPE   C2817179   3.909   6.955   5.392  0.1505 -0.5342 -0.1489
  155SAPE   H8R17180   3.911   7.053   5.442  1.1322 -0.3304 -0.5718
  155SAPE   C2917181   3.801   6.931   5.314  0.0968 -0.5068 -0.2202
  155SAPE   H9R17182   3.725   7.011   5.310 -0.1621 -0.3403  3.8271
  155SAPE  C21017183   3.780   6.809   5.227 -0.4724  0.0357  0.1658
  155SAPE  H10R17184   3.676   6.770   5.225  0.7190 -3.6278  1.6696
  155SAPE  H10S17185   3.844   6.725   5.260 -1.1199 -0.7618 -0.5452
  155SAPE  C21117186   3.836   6.854   5.092 -0.1605 -0.0674  0.4164
  155SAPE  H11R17187   3.936   6.899   5.091  0.9123 -2.2866 -0.0698
  155SAPE  C21217188   3.788   6.831   4.969  0.6952  0.4139  0.0310
  155SAPE  H12R17189   3.834   6.877   4.881  0.6593 -0.2217 -0.3243
  155SAPE  C21317190   3.653   6.764   4.950 -0.7544 -0.1171  0.7329
  155SAPE  H13R17191   3.598   6.750   5.045  0.9440  1.5191  2.0328
  155SAPE  H13S17192   3.674   6.664   4.905  2.4151  1.4932 -1.8114
  155SAPE  C21417193   3.560   6.833   4.856  0.6618  0.1811  0.4475
  155SAPE  H14R17194   3.569   6.942   4.847  1.8837  0.0545  0.0563
  155SAPE  C21517195   3.459   6.775   4.787  0.1142  0.2310 -0.0865
  155SAPE  H15R17196   3.398   6.838   4.720 -0.5944 -1.1486 -0.7731
  155SAPE  C21617197   3.422   6.627   4.780  0.4128 -1.0181 -0.1848
  155SAPE  H16R17198   3.322   6.621   4.829  0.7896  1.3355  0.9779
  155SAPE  H16S17199   3.490   6.578   4.853  2.4771  1.0824 -0.5807
  155SAPE  C21717200   3.428   6.561   4.642 -0.1939 -0.1318  0.6146
  155SAPE  H17R17201   3.364   6.624   4.576 -0.9517 -0.7936  0.7060
  155SAPE  H17S17202   3.382   6.461   4.627 -0.9518  0.1635  0.9255
  155SAPE  C21817203   3.573   6.561   4.589  0.5156  0.0111 -0.0729
  155SAPE  H18R17204   3.636   6.505   4.661  0.8436  1.9079  1.1850
  155SAPE  H18S17205   3.601   6.668   4.597  0.0979  0.0160  2.0098
  155SAPE  C21917206   3.589   6.498   4.450 -0.7118  0.4455 -0.5525
  155SAPE  H19R17207   3.485   6.473   4.420 -1.3235  2.7208 -0.5010
  155SAPE  H19S17208   3.658   6.410   4.454  0.8619  1.6317 -0.6325
  155SAPE  C22017209   3.643   6.600   4.346 -0.3963  0.3346  0.0154
  155SAPE  H20R17210   3.737   6.648   4.381 -0.4112  0.5666 -0.2552
  155SAPE  H20S17211   3.571   6.678   4.315 -0.7042  0.2278  0.4557
  155SAPE  H20T17212   3.667   6.555   4.247 -1.6814 -1.6299  0.5458
  155SAPE   C3317213   4.667   7.167   5.696 -0.5696  0.2662  0.2026
  155SAPE   H3X17214   4.592   7.246   5.675  0.4971  0.8589 -1.6519
  155SAPE   H3Y17215   4.602   7.077   5.693  1.2680 -1.1496  0.3796
  155SAPE   C3417216   4.787   7.172   5.597 -0.1958  0.1112  0.2354
  155SAPE   H4X17217   4.858   7.089   5.619  0.7715  0.3360 -1.8109
  155SAPE   H4Y17218   4.848   7.265   5.603  0.8229 -0.6087  1.6779
  155SAPE   C3517219   4.733   7.152   5.452  0.0167  0.0659  0.0702
  155SAPE   H5X17220   4.694   7.243   5.403  0.5789  1.2553  1.7449
  155SAPE   H5Y17221   4.640   7.091   5.456 -0.1035  0.1998 -0.6038
  155SAPE   C3617222   4.831   7.076   5.366  0.5809 -0.0275  0.3427
  155SAPE   H6X17223   4.878   6.998   5.430 -0.0561  1.0128  2.1346
  155SAPE   H6Y17224   4.912   7.146   5.337  1.8237 -0.4913  2.4587
  155SAPE   C3717225   4.762   7.018   5.240 -0.3427  0.2485 -0.0285
  155SAPE   H7X17226   4.681   7.092   5.222  0.6405  1.7291  1.2405
  155SAPE   H7Y17227   4.722   6.919   5.268  0.8366  0.4288  2.6542
  155SAPE   C3817228   4.854   7.013   5.114 -0.6518 -0.2874 -0.8794
  155SAPE   H8X17229   4.956   6.975   5.139  0.8012  2.3162 -2.3518
  155SAPE   H8Y17230   4.865   7.117   5.075  1.1008 -1.0986 -2.7392
  155SAPE   C3917231   4.801   6.913   5.003 -0.4417 -0.4973 -0.2649
  155SAPE   H9X17232   4.696   6.947   4.989 -1.2543 -2.1496  1.2853
  155SAPE   H9Y17233   4.786   6.811   5.045 -0.8882  0.1654  1.2511
  155SAPE  C31017234   4.881   6.911   4.872  0.0994 -0.7127 -0.9065
  155SAPE  H10X17235   4.985   6.904   4.909  0.0633  0.2582 -0.5843
  155SAPE  H10Y17236   4.868   7.012   4.827 -1.8291 -1.3376 -1.8893
  155SAPE  C31117237   4.847   6.798   4.768 -0.0674 -0.0208  0.1729
  155SAPE  H11X17238   4.858   6.701   4.821 -0.6613  0.4212  1.1327
  155SAPE  H11Y17239   4.920   6.785   4.685  3.0062  0.7628  2.5934
  155SAPE  C31217240   4.700   6.790   4.722  0.0874  0.8893  0.6522
  155SAPE  H12X17241   4.688   6.855   4.632  2.9478  1.8998  0.9077
  155SAPE  H12Y17242   4.633   6.823   4.803 -0.6480  1.2383 -0.0790
  155SAPE  C31317243   4.654   6.650   4.690 -0.4421 -0.3400  0.0151
  155SAPE  H13X17244   4.641   6.596   4.786  0.3222 -0.7020 -0.0819
  155SAPE  H13Y17245   4.741   6.598   4.645 -0.1546 -0.6647  0.9242
  155SAPE  C31417246   4.518   6.640   4.614  0.2584  0.5303  0.5836
  155SAPE  H14X17247   4.435   6.693   4.666 -0.1816  1.6900 -1.2151
  155SAPE  H14Y17248   4.495   6.531   4.610  2.1099  0.1083  0.5245
  155SAPE  C31517249   4.529   6.682   4.475  0.5294 -0.5824 -0.3300
  155SAPE  H15X17250   4.636   6.677   4.443 -0.2440 -0.9064 -3.1241
  155SAPE  H15Y17251   4.479   6.779   4.456 -1.0680 -1.4471 -0.7535
  155SAPE  C31617252   4.444   6.585   4.386  0.2351  0.3136  0.6125
  155SAPE  H16X17253   4.340   6.608   4.417  0.1865 -1.5948  2.0791
  155SAPE  H16Y17254   4.465   6.479   4.414  1.5980  1.5021  4.8830
  155SAPE  C31717255   4.469   6.610   4.236  0.1028  0.3824  0.0464
  155SAPE  H17X17256   4.568   6.572   4.201  1.7026  2.7110  1.6722
  155SAPE  H17Y17257   4.483   6.720   4.226  0.9921  0.3704  0.9177
  155SAPE  C31817258   4.354   6.557   4.142  0.0166  0.1412 -0.6041
  155SAPE  H18X17259   4.371   6.594   4.039 -0.6192  1.1039 -0.3778
  155SAPE  H18Y17260   4.256   6.592   4.182  0.0842 -2.7149  2.5430
  155SAPE  H18Z17261   4.357   6.446   4.149  1.6850  0.2560  1.7142
  156SAPE     N17262   5.003   1.091   6.602 -0.2820  0.0391 -0.3354
  156SAPE   HN117263   5.092   1.143   6.616 -0.3937  0.0754  0.2747
  156SAPE   HN217264   4.957   1.097   6.695  1.0853 -0.5365  0.4176
  156SAPE   HN317265   5.032   0.993   6.581 -2.1917 -1.0478  1.6385
  156SAPE   C1217266   4.911   1.158   6.502 -0.5586 -0.1098 -0.1719
  156SAPE  H12A17267   4.810   1.116   6.521 -0.7259  1.4500  3.2534
  156SAPE  H12B17268   4.945   1.134   6.399 -3.8355  1.2008 -1.6848
  156SAPE   C1117269   4.904   1.305   6.534 -0.1731  0.8956  0.1257
  156SAPE  H11A17270   4.864   1.319   6.636 -2.2781  0.1330 -0.5289
  156SAPE  H11B17271   4.821   1.350   6.474 -1.9071 -1.2884  0.7391
  156SAPE     P17272   5.092   1.407   6.381  0.1215  0.1724 -0.4204
  156SAPE   O1317273   4.984   1.455   6.296  0.5981 -0.0097 -0.1162
  156SAPE   O1417274   5.207   1.492   6.406 -0.3625 -0.0195  0.8028
  156SAPE   O1217275   5.026   1.377   6.523 -0.2251  0.6419 -0.4950
  156SAPE   O1117276   5.142   1.267   6.333  0.0581 -0.3844  0.1066
  156SAPE    C117277   5.251   1.262   6.244  0.2281  0.4805 -0.2860
  156SAPE    HA17278   5.313   1.353   6.249 -0.1747  0.6857  2.0940
  156SAPE    HB17279   5.315   1.173   6.263  0.9016  0.7779 -1.1083
  156SAPE    C217280   5.205   1.234   6.096 -0.4011 -0.0168 -0.4597
  156SAPE    HS17281   5.289   1.190   6.038 -1.6399 -0.7654 -1.7749
  156SAPE   O2117282   5.136   1.350   6.052 -0.8066 -0.0700  0.3434
  156SAPE   C2117283   5.229   1.436   5.998  0.3154  0.0432 -0.1113
  156SAPE   O2217284   5.349   1.422   6.002 -0.8092 -0.2613 -0.0814
  156SAPE   C2217285   5.160   1.559   5.926 -1.0771 -0.0682  1.1125
  156SAPE   H2R17286   5.084   1.604   5.994  0.1476  1.1691  1.7117
  156SAPE   H2S17287   5.235   1.638   5.904 -0.7766 -0.6563 -0.0325
  156SAPE    C317288   5.109   1.109   6.092 -0.2015  0.5940  0.3877
  156SAPE    HX17289   5.014   1.133   6.144  0.8418  3.5731  1.0810
  156SAPE    HY17290   5.161   1.023   6.140  1.3134  0.2981 -1.6513
  156SAPE   O3117291   5.095   1.080   5.956 -0.4083 -0.0475  0.0435
  156SAPE   C3117292   4.964   1.101   5.906  0.7702 -0.0106 -0.0496
  156SAPE   O3217293   4.879   1.158   5.971 -0.2974  0.4717 -0.3383
  156SAPE   C3217294   4.946   1.021   5.777 -0.8282 -0.0073 -0.1298
  156SAPE   H2X17295   4.857   0.960   5.804 -0.7860 -0.0232 -0.0280
  156SAPE   H2Y17296   5.029   0.951   5.752 -0.5196 -0.3386  1.7398
  156SAPE   C2317297   5.090   1.495   5.798  0.0434  0.5448  0.3648
  156SAPE   H3R17298   5.020   1.418   5.837  2.1595 -0.9999  1.3416
  156SAPE   H3S17299   5.171   1.449   5.737  0.1888  1.0510  0.1731
  156SAPE   C2417300   5.020   1.594   5.713 -0.4001 -0.3799 -0.8140
  156SAPE   H4R17301   5.098   1.666   5.680 -0.1110 -0.5557 -0.5127
  156SAPE   H4S17302   4.947   1.659   5.766  0.2447  0.2613 -0.7127
  156SAPE   C2517303   4.956   1.525   5.599  0.2344 -0.4953  0.4480
  156SAPE   H5R17304   4.870   1.468   5.637 -2.1686  0.3625 -3.1857
  156SAPE   C2617305   4.990   1.525   5.469  0.1727  0.5493 -0.2563
  156SAPE   H6R17306   4.941   1.448   5.409 -2.8963 -0.0517  2.7610
  156SAPE   C2717307   5.100   1.610   5.415 -0.2085 -0.0135  0.8267
  156SAPE   H7R17308   5.186   1.612   5.485  0.0152 -1.5922  0.6351
  156SAPE   H7S17309   5.053   1.711   5.410 -0.9215 -0.3313  0.9773
  156SAPE   C2817310   5.143   1.562   5.277 -0.9912 -0.5975 -0.8962
  156SAPE   H8R17311   5.226   1.489   5.277 -0.1545  0.3128  0.4657
  156SAPE   C2917312   5.102   1.603   5.153  0.2815 -0.3455 -0.1979
  156SAPE   H9R17313   5.141   1.546   5.067  0.5603 -1.5056  0.6874
  156SAPE  C21017314   5.001   1.701   5.112  0.4062  0.1757  0.5676
  156SAPE  H10R17315   5.017   1.750   5.013 -1.0395  0.9692  0.7030
  156SAPE  H10S17316   5.001   1.787   5.183  0.3092 -0.6202  1.5486
  156SAPE  C21117317   4.865   1.639   5.125  0.6530 -0.3657  0.1063
  156SAPE  H11R17318   4.804   1.667   5.212 -1.1351 -2.9218 -0.2202
  156SAPE  C21217319   4.812   1.550   5.035  0.5353 -0.4344 -0.5896
  156SAPE  H12R17320   4.709   1.513   5.046  0.2414  0.1093 -1.4480
  156SAPE  C21317321   4.883   1.498   4.919 -0.5184  0.1174 -0.4513
  156SAPE  H13R17322   4.843   1.397   4.895  0.9870 -0.5309 -0.3218
  156SAPE  H13S17323   4.993   1.499   4.933 -0.6368  1.4094  0.5582
  156SAPE  C21417324   4.867   1.595   4.802 -0.1487  0.1436 -0.1011
  156SAPE  H14R17325   4.927   1.688   4.805  0.1952  0.0581 -2.4448
  156SAPE  C21517326   4.778   1.572   4.703 -0.5628  0.1276 -0.1747
  156SAPE  H15R17327   4.771   1.645   4.621 -0.5063  1.3862  0.9222
  156SAPE  C21617328   4.680   1.450   4.689 -0.4706 -0.6353  0.2903
  156SAPE  H16R17329   4.716   1.350   4.723 -0.4462 -1.7165 -2.6955
  156SAPE  H16S17330   4.655   1.436   4.582 -0.3293 -1.2930  0.3389
  156SAPE  C21717331   4.547   1.487   4.770  0.1359 -0.9184 -0.2764
  156SAPE  H17R17332   4.523   1.594   4.754  1.5580 -0.8376 -2.2356
  156SAPE  H17S17333   4.571   1.478   4.878  1.3915 -0.7867 -0.5273
  156SAPE  C21817334   4.429   1.406   4.733  0.6553 -0.6149 -0.0075
  156SAPE  H18R17335   4.390   1.347   4.819 -1.7380  1.6825  0.6187
  156SAPE  H18S17336   4.457   1.336   4.652 -1.6413 -0.3491 -1.1189
  156SAPE  C21917337   4.309   1.499   4.680 -0.7006 -0.4628  0.0476
  156SAPE  H19R17338   4.357   1.568   4.608  0.8850 -1.5204  0.0560
  156SAPE  H19S17339   4.259   1.559   4.759 -0.1798  1.2452 -0.8784
  156SAPE  C22017340   4.206   1.412   4.616 -0.0480 -0.2075  0.3081
  156SAPE  H20R17341   4.237   1.313   4.575 -1.4455 -1.2006  1.5500
  156SAPE  H20S17342   4.157   1.467   4.533 -0.1296 -2.2216 -1.0628
  156SAPE  H20T17343   4.135   1.373   4.692 -3.3104  1.7158 -1.5399
  156SAPE   C3317344   4.926   1.111   5.651 -0.3428 -0.0114 -0.3316
  156SAPE   H3X17345   5.006   1.188   5.650 -2.3115  2.1202 -0.8831
  156SAPE   H3Y17346   4.834   1.171   5.661  0.6190  1.4846 -0.2350
  156SAPE   C3417347   4.917   1.033   5.519 -0.2793  1.3955 -0.3375
  156SAPE   H4X17348   4.847   0.949   5.539  0.4765  0.9387  0.4600
  156SAPE   H4Y17349   5.015   0.992   5.487 -0.0713  0.2032  1.6435
  156SAPE   C3517350   4.864   1.127   5.410 -0.4939  0.0714  0.7318
  156SAPE   H5X17351   4.941   1.205   5.396 -0.8767  0.4949  0.9610
  156SAPE   H5Y17352   4.770   1.177   5.442 -2.0672 -0.0149 -3.1837
  156SAPE   C3617353   4.831   1.063   5.274 -0.1457  0.4187 -1.2112
  156SAPE   H6X17354   4.774   0.971   5.298  0.6774  0.0821 -0.5099
  156SAPE   H6Y17355   4.927   1.039   5.223  1.8208  1.8445  1.6009
  156SAPE   C3717356   4.751   1.163   5.184  0.3185  0.0052  0.0229
  156SAPE   H7X17357   4.822   1.239   5.144  0.4461 -0.3454 -0.4248
  156SAPE   H7Y17358   4.672   1.211   5.246  0.0712  1.6682 -1.4900
  156SAPE   C3817359   4.663   1.082   5.079  0.2450 -0.6660  0.2232
  156SAPE   H8X17360   4.602   1.157   5.023 -2.1160 -1.1551  1.9970
  156SAPE   H8Y17361   4.585   1.021   5.128 -0.7979  0.9661  0.6825
  156SAPE   C3917362   4.749   1.002   4.984 -0.3633  0.3790  0.1628
  156SAPE   H9X17363   4.737   0.891   4.979  2.1201  0.1034 -2.8962
  156SAPE   H9Y17364   4.853   1.017   5.020 -0.2801 -1.3229  0.7435
  156SAPE  C31017365   4.745   1.049   4.842 -0.0022  0.3481 -0.4366
  156SAPE  H10X17366   4.837   1.016   4.788 -1.9324 -0.4232 -3.4892
  156SAPE  H10Y17367   4.748   1.160   4.845 -0.8691  0.3497  0.9261
  156SAPE  C31117368   4.631   0.997   4.756 -0.3982 -0.0471  0.0985
  156SAPE  H11X17369   4.536   1.052   4.776 -0.2665  0.0775  0.3946
  156SAPE  H11Y17370   4.598   0.894   4.780 -0.2685 -0.1416 -0.1233
  156SAPE  C31217371   4.653   0.997   4.601  0.0561  0.0108  0.3152
  156SAPE  H12X17372   4.746   0.938   4.584 -0.6954 -1.8026  2.0792
  156SAPE  H12Y17373   4.675   1.103   4.576  0.7160  0.4436  2.4407
  156SAPE  C31317374   4.534   0.934   4.518  0.1497 -0.5135 -0.1109
  156SAPE  H13X17375   4.451   1.005   4.499  0.7480  0.0134 -0.8107
  156SAPE  H13Y17376   4.490   0.857   4.585  0.3794 -0.6992 -0.1703
  156SAPE  C31417377   4.565   0.866   4.390 -0.1686 -0.1559 -0.2347
  156SAPE  H14X17378   4.624   0.935   4.326 -1.8826 -0.6529 -2.4359
  156SAPE  H14Y17379   4.473   0.845   4.332 -0.7387  0.9641  0.2297
  156SAPE  C31517380   4.657   0.741   4.397 -1.7525 -0.2557  0.1805
  156SAPE  H15X17381   4.717   0.736   4.491  0.7287 -1.3442 -1.3391
  156SAPE  H15Y17382   4.727   0.746   4.310 -0.0106 -1.8061  1.4048
  156SAPE  C31617383   4.580   0.607   4.405  0.8844 -0.1366 -0.1011
  156SAPE  H16X17384   4.503   0.601   4.325  0.6366 -1.3377  0.1938
  156SAPE  H16Y17385   4.529   0.606   4.504  3.0290  1.1425  1.0900
  156SAPE  C31717386   4.677   0.484   4.397 -0.1824  0.6591 -0.4654
  156SAPE  H17X17387   4.625   0.388   4.412  0.0410  0.5871 -0.1657
  156SAPE  H17Y17388   4.748   0.495   4.481 -0.0250  1.7543 -0.7243
  156SAPE  C31817389   4.745   0.459   4.259  0.1925 -0.1743 -0.3047
  156SAPE  H18X17390   4.814   0.538   4.221 -0.5218  0.9824  0.7397
  156SAPE  H18Y17391   4.677   0.447   4.172 -0.3540  0.5069  0.0171
  156SAPE  H18Z17392   4.790   0.358   4.248 -2.2998 -1.2739 -0.9044
  157SAPE     N17393   4.586   0.363   6.337  0.1827 -0.3014  0.2073
  157SAPE   HN117394   4.620   0.293   6.406 -1.1180 -0.5660  0.5941
  157SAPE   HN217395   4.484   0.374   6.348  0.0910 -1.1590  0.2738
  157SAPE   HN317396   4.604   0.333   6.239  0.3584 -1.6262  0.6205
  157SAPE   C1217397   4.645   0.494   6.359 -0.6864 -0.2266 -0.1140
  157SAPE  H12A17398   4.660   0.504   6.469  0.8956 -4.0438  0.1778
  157SAPE  H12B17399   4.582   0.582   6.334 -0.5004  0.0585  0.4088
  157SAPE   C1117400   4.792   0.506   6.294 -0.5925  0.3039 -0.4693
  157SAPE  H11A17401   4.793   0.554   6.193 -0.6109 -0.6741 -0.9453
  157SAPE  H11B17402   4.832   0.403   6.284 -1.2263 -0.0744  0.6688
  157SAPE     P17403   4.944   0.535   6.514 -0.0362 -0.3083  0.2167
  157SAPE   O1317404   5.021   0.647   6.578  0.3359  0.4068 -0.5911
  157SAPE   O1417405   4.855   0.447   6.602 -0.3541  0.3261 -0.1296
  157SAPE   O1217406   4.865   0.587   6.386 -1.2606  0.0030 -0.1405
  157SAPE   O1117407   5.049   0.437   6.447  0.2615 -0.4686 -0.3017
  157SAPE    C117408   5.163   0.484   6.385  0.0905  0.1625 -0.0851
  157SAPE    HA17409   5.190   0.585   6.422  0.0800  0.0301  0.2915
  157SAPE    HB17410   5.257   0.427   6.403 -0.2667 -0.2751  0.4491
  157SAPE    C217411   5.146   0.475   6.236  0.1260 -0.1439  0.0274
  157SAPE    HS17412   5.044   0.513   6.210  0.7559  0.9538 -0.9470
  157SAPE   O2117413   5.177   0.341   6.199 -0.1186 -0.4779 -0.1819
  157SAPE   C2117414   5.097   0.291   6.099 -0.0678  0.7339  0.0347
  157SAPE   O2217415   5.003   0.343   6.051 -0.1131 -0.1610  0.3698
  157SAPE   C2217416   5.140   0.151   6.053 -0.0760 -0.9114  0.1103
  157SAPE   H2R17417   5.165   0.089   6.142  0.1528  1.1005  1.5105
  157SAPE   H2S17418   5.054   0.108   5.999  0.5135  0.5091 -2.0898
  157SAPE    C317419   5.250   0.575   6.167 -0.0918  0.8717 -0.0320
  157SAPE    HX17420   5.353   0.536   6.173  0.5410  2.1629 -1.6211
  157SAPE    HY17421   5.260   0.672   6.221  0.7962  1.5090 -1.3062
  157SAPE   O3117422   5.221   0.599   6.028 -0.2235 -0.1811 -0.3726
  157SAPE   C3117423   5.117   0.670   6.003  0.1293 -0.3178 -0.0301
  157SAPE   O3217424   5.050   0.745   6.075  0.4051  0.0057  0.1077
  157SAPE   C3217425   5.083   0.655   5.854 -0.5610  0.3694 -0.8087
  157SAPE   H2X17426   5.039   0.751   5.822 -0.9167  1.4707  2.5246
  157SAPE   H2Y17427   5.008   0.576   5.834 -1.1123  0.8047 -0.4766
  157SAPE   C2317428   5.275   0.155   5.965 -0.2407  0.5656  0.6810
  157SAPE   H3R17429   5.302   0.052   5.935 -1.2312  0.6924 -0.7580
  157SAPE   H3S17430   5.362   0.185   6.029  3.3144 -0.2494 -3.3017
  157SAPE   C2417431   5.269   0.248   5.840  0.3648 -0.2958  0.0457
  157SAPE   H4R17432   5.372   0.257   5.800  0.7946  0.0582  1.1934
  157SAPE   H4S17433   5.247   0.352   5.872  2.5444  0.4189 -0.6024
  157SAPE   C2517434   5.176   0.188   5.736  0.6666 -0.8834 -0.6488
  157SAPE   H5R17435   5.091   0.126   5.768  0.2700 -0.1211 -0.1930
  157SAPE   C2617436   5.189   0.220   5.606  0.2847 -0.1786 -0.4844
  157SAPE   H6R17437   5.103   0.190   5.544 -1.5575  2.5228  0.5304
  157SAPE   C2717438   5.286   0.309   5.534  0.0566 -0.2540  0.2708
  157SAPE   H7R17439   5.329   0.390   5.597  1.4125  0.3811 -1.3621
  157SAPE   H7S17440   5.223   0.377   5.472 -1.0592 -1.6547 -0.1945
  157SAPE   C2817441   5.402   0.230   5.471  0.4916  0.4689 -0.4019
  157SAPE   H8R17442   5.459   0.169   5.543 -0.5193  0.1398  0.1423
  157SAPE   C2917443   5.421   0.216   5.342 -0.6470 -0.1843 -0.3124
  157SAPE   H9R17444   5.508   0.150   5.328 -0.8312 -2.3357  5.6946
  157SAPE  C21017445   5.358   0.287   5.227 -0.5221 -0.2985 -0.3572
  157SAPE  H10R17446   5.334   0.395   5.233 -0.3381 -0.2490 -0.4812
  157SAPE  H10S17447   5.258   0.240   5.223 -0.6036 -0.2991  1.2305
  157SAPE  C21117448   5.439   0.271   5.097  0.4639 -0.0379  0.2362
  157SAPE  H11R17449   5.518   0.346   5.078  0.5319 -0.2295 -0.2492
  157SAPE  C21217450   5.403   0.194   4.997  0.8289  0.0968 -0.1649
  157SAPE  H12R17451   5.451   0.212   4.899  2.4339  0.6096  0.6891
  157SAPE  C21317452   5.298   0.089   4.996  0.5875 -0.0467 -0.5077
  157SAPE  H13R17453   5.207   0.112   4.936 -0.0363 -1.3904 -0.1258
  157SAPE  H13S17454   5.249   0.072   5.095 -0.0654 -1.3736 -1.0299
  157SAPE  C21417455   5.359  -0.037   4.944 -0.4961 -0.4444  0.0495
  157SAPE  H14R17456   5.391  -0.106   5.024  0.6020  1.2786  1.1634
  157SAPE  C21517457   5.379  -0.067   4.814 -1.1620 -0.1382  0.1336
  157SAPE  H15R17458   5.420  -0.166   4.787 -0.1058  0.3887 -0.2512
  157SAPE  C21617459   5.345   0.015   4.693  1.2227 -0.2263 -0.1107
  157SAPE  H16R17460   5.307   0.113   4.729  1.3806 -0.2534  0.1341
  157SAPE  H16S17461   5.265  -0.045   4.646  0.5155 -0.8240  1.7657
  157SAPE  C21717462   5.475   0.038   4.617 -0.9076  0.4396  0.0845
  157SAPE  H17R17463   5.552   0.076   4.688 -0.9428 -0.4043  0.5861
  157SAPE  H17S17464   5.452   0.125   4.551  1.2189  0.8855 -0.1277
  157SAPE  C21817465   5.521  -0.089   4.536  0.3814  0.4983 -0.7427
  157SAPE  H18R17466   5.442  -0.142   4.478 -0.4065  0.7955  0.0304
  157SAPE  H18S17467   5.548  -0.164   4.614 -2.0913 -0.2754 -0.5187
  157SAPE  C21917468   5.641  -0.064   4.449 -0.1362 -0.0008  0.8417
  157SAPE  H19R17469   5.672  -0.162   4.406  0.4406 -0.2139  1.7138
  157SAPE  H19S17470   5.720  -0.027   4.517 -0.8384  2.3192  0.4729
  157SAPE  C22017471   5.621   0.033   4.329  0.2185  0.6428 -0.0628
  157SAPE  H20R17472   5.720   0.044   4.281  1.2422  0.2598  1.8412
  157SAPE  H20S17473   5.573   0.127   4.363 -0.0739  0.0930  1.1268
  157SAPE  H20T17474   5.549  -0.017   4.261  2.4450 -1.0539 -1.3201
  157SAPE   C3317475   5.194   0.635   5.756 -0.6876  0.4265  0.2529
  157SAPE   H3X17476   5.224   0.529   5.743  0.7105  0.9890 -1.4563
  157SAPE   H3Y17477   5.288   0.691   5.776 -0.6135 -0.2697  2.0174
  157SAPE   C3417478   5.156   0.693   5.606 -0.5582 -0.2924 -0.7997
  157SAPE   H4X17479   5.242   0.673   5.538  0.3576 -3.0843  0.9715
  157SAPE   H4Y17480   5.149   0.801   5.630 -1.9661 -0.9821  2.3321
  157SAPE   C3517481   5.024   0.647   5.535 -0.3848 -0.2877 -0.9797
  157SAPE   H5X17482   4.942   0.693   5.595  1.3480 -0.4574  1.7105
  157SAPE   H5Y17483   5.018   0.536   5.533  4.2864 -0.7991  0.8078
  157SAPE   C3617484   5.017   0.701   5.397 -0.3301 -0.1334 -0.1582
  157SAPE   H6X17485   5.091   0.646   5.336  0.1594  2.7090 -2.3058
  157SAPE   H6Y17486   5.048   0.807   5.388  3.7365 -0.9742  1.5532
  157SAPE   C3717487   4.876   0.676   5.341  0.3483 -0.1822 -0.2622
  157SAPE   H7X17488   4.809   0.739   5.402  1.4201  2.1397 -1.3356
  157SAPE   H7Y17489   4.837   0.572   5.341 -0.1415 -0.0019 -0.8295
  157SAPE   C3817490   4.871   0.717   5.195  0.0948 -0.3101 -0.1616
  157SAPE   H8X17491   4.923   0.811   5.169  0.0263  0.2931  1.6894
  157SAPE   H8Y17492   4.763   0.732   5.179 -0.5271 -0.4987  3.0259
  157SAPE   C3917493   4.915   0.601   5.103  0.6116 -0.4276 -0.1388
  157SAPE   H9X17494   4.857   0.509   5.124  3.5079 -2.5082 -0.5831
  157SAPE   H9Y17495   5.021   0.578   5.126  0.4495 -2.2447 -1.0541
  157SAPE  C31017496   4.902   0.635   4.955  0.0472 -0.5415 -0.7968
  157SAPE  H10X17497   4.965   0.724   4.933 -1.3228  0.5365 -0.5241
  157SAPE  H10Y17498   4.802   0.681   4.937  1.0854  2.7699  0.9224
  157SAPE  C31117499   4.917   0.516   4.862  0.0599 -0.4127 -0.1363
  157SAPE  H11X17500   4.859   0.519   4.767  0.3074  2.5285 -0.2949
  157SAPE  H11Y17501   4.880   0.429   4.920  0.6698 -0.3405  0.3659
  157SAPE  C31217502   5.070   0.509   4.819  0.9009  0.3292 -0.5114
  157SAPE  H12X17503   5.129   0.517   4.913  0.2820  0.1517 -0.1008
  157SAPE  H12Y17504   5.101   0.597   4.759  0.9873  0.8224  0.2437
  157SAPE  C31317505   5.109   0.380   4.754  0.2713  0.1431  0.5738
  157SAPE  H13X17506   5.088   0.296   4.823 -0.8665  0.8889  1.1656
  157SAPE  H13Y17507   5.218   0.363   4.741 -0.0679 -0.4554 -1.8675
  157SAPE  C31417508   5.042   0.354   4.610 -0.3661  0.0324  0.4851
  157SAPE  H14X17509   5.085   0.429   4.540 -0.5395 -0.7954 -0.5450
  157SAPE  H14Y17510   4.931   0.361   4.608 -0.3287  0.8832  1.0215
  157SAPE  C31517511   5.085   0.215   4.549  0.1360  1.1632  0.1242
  157SAPE  H15X17512   5.067   0.134   4.623 -0.4663  1.1881  0.0097
  157SAPE  H15Y17513   5.191   0.222   4.517  0.4193  1.8055  1.1417
  157SAPE  C31617514   4.997   0.170   4.430  0.2887 -0.4516 -0.6960
  157SAPE  H16X17515   5.012   0.235   4.341 -0.8728 -1.9176 -2.0323
  157SAPE  H16Y17516   4.892   0.175   4.464  0.8792  1.2602  1.0714
  157SAPE  C31717517   5.031   0.028   4.391  0.3070  0.1555 -0.4968
  157SAPE  H17X17518   4.993  -0.045   4.465 -2.3416 -0.2994 -2.1785
  157SAPE  H17Y17519   5.142   0.021   4.398  0.1695 -0.4900  2.4319
  157SAPE  C31817520   4.976  -0.024   4.260  0.0530  0.2801  0.3689
  157SAPE  H18X17521   5.025   0.027   4.174 -2.1985 -1.3247 -2.0231
  157SAPE  H18Y17522   4.865  -0.023   4.253  0.1408  0.4779 -1.4147
  157SAPE  H18Z17523   5.000  -0.130   4.240 -1.4907  0.5163 -3.6694
  158SAPE     N17524   2.551   0.180   6.385 -0.1356 -0.4310 -0.0113
  158SAPE   HN117525   2.519   0.083   6.362 -0.6211 -0.3913  0.4675
  158SAPE   HN217526   2.528   0.248   6.311  0.7893 -0.2785 -0.1675
  158SAPE   HN317527   2.655   0.175   6.387 -0.0624  0.5256 -0.8587
  158SAPE   C1217528   2.502   0.245   6.513 -0.3056 -0.4439 -0.3938
  158SAPE  H12A17529   2.509   0.166   6.591  0.8431 -0.9335 -0.9748
  158SAPE  H12B17530   2.395   0.272   6.497 -0.1206  0.3218 -0.3909
  158SAPE   C1117531   2.582   0.375   6.548  0.9692  0.2923 -0.2806
  158SAPE  H11A17532   2.691   0.359   6.565  0.8767 -0.9120 -0.7239
  158SAPE  H11B17533   2.543   0.417   6.643  2.8199 -0.7009  0.9871
  158SAPE     P17534   2.636   0.594   6.422 -0.0534 -0.2867 -0.0814
  158SAPE   O1317535   2.637   0.667   6.550 -0.2235 -0.4167  0.4935
  158SAPE   O1417536   2.766   0.572   6.364  0.4879  0.1575  0.1599
  158SAPE   O1217537   2.551   0.467   6.445  0.3649  0.2350 -0.2562
  158SAPE   O1117538   2.543   0.674   6.321  0.2691 -0.6960  0.4409
  158SAPE    C117539   2.400   0.675   6.350  0.2148  0.5233  0.0621
  158SAPE    HA17540   2.378   0.659   6.458 -0.5203 -0.5691 -0.2316
  158SAPE    HB17541   2.364   0.779   6.329 -1.6015  0.0446  0.6331
  158SAPE    C217542   2.315   0.579   6.266  0.3712  0.2002  0.4512
  158SAPE    HS17543   2.322   0.475   6.305 -0.1531  0.3709  1.0153
  158SAPE   O2117544   2.373   0.585   6.134 -0.2922  0.5866  0.6065
  158SAPE   C2117545   2.454   0.488   6.091  0.3027  0.1051  0.2427
  158SAPE   O2217546   2.489   0.390   6.157  0.2486  0.0049 -0.3806
  158SAPE   C2217547   2.488   0.519   5.948 -0.0675  0.3771  0.6802
  158SAPE   H2R17548   2.387   0.535   5.904  0.7706  0.2122 -1.4558
  158SAPE   H2S17549   2.520   0.625   5.943  0.5521  0.1470 -1.1893
  158SAPE    C317550   2.159   0.611   6.285 -0.2465 -0.0086 -0.4178
  158SAPE    HX17551   2.135   0.688   6.208 -1.9471 -1.7234 -1.6860
  158SAPE    HY17552   2.123   0.657   6.380 -0.7544 -0.9101 -0.1657
  158SAPE   O3117553   2.079   0.499   6.246  0.1480 -0.4188 -0.6267
  158SAPE   C3117554   2.069   0.390   6.333 -0.2787 -0.4513  0.3414
  158SAPE   O3217555   2.127   0.377   6.437 -0.1205 -0.0733  0.2788
  158SAPE   C3217556   1.965   0.288   6.283  0.3813 -0.8246 -0.4285
  158SAPE   H2X17557   1.897   0.329   6.205 -0.3188 -2.3923 -0.6769
  158SAPE   H2Y17558   1.902   0.259   6.369  2.0907 -0.0347  1.1792
  158SAPE   C2317559   2.576   0.423   5.867 -0.0979  0.5291  0.1482
  158SAPE   H3R17560   2.588   0.325   5.917  1.6227  0.1594 -0.8866
  158SAPE   H3S17561   2.681   0.455   5.850 -0.4176  2.3048  1.3142
  158SAPE   C2417562   2.525   0.389   5.721 -0.0166  0.5327 -0.3929
  158SAPE   H4R17563   2.429   0.335   5.738  0.5491 -0.0412  1.1658
  158SAPE   H4S17564   2.593   0.316   5.672  1.2398  0.5413  1.2586
  158SAPE   C2517565   2.501   0.519   5.642 -0.1677  0.4414 -0.0426
  158SAPE   H5R17566   2.508   0.613   5.700 -0.7395  0.1828  0.4490
  158SAPE   C2617567   2.492   0.518   5.512 -0.2010 -0.2333  0.6616
  158SAPE   H6R17568   2.469   0.610   5.458 -1.3530 -2.0135 -2.0694
  158SAPE   C2717569   2.489   0.396   5.431  0.0813  0.4732 -0.3667
  158SAPE   H7R17570   2.400   0.397   5.365  0.5883 -0.5681 -1.1057
  158SAPE   H7S17571   2.466   0.311   5.499 -1.4202  1.4576  0.4117
  158SAPE   C2817572   2.622   0.368   5.365  0.6088  0.7252 -0.2927
  158SAPE   H8R17573   2.711   0.386   5.427 -0.4262  0.5911  1.2711
  158SAPE   C2917574   2.643   0.324   5.238  0.2207 -0.5208 -0.2363
  158SAPE   H9R17575   2.744   0.321   5.194 -0.1412 -0.3496 -1.0831
  158SAPE  C21017576   2.546   0.281   5.128  0.5706  0.0567 -0.5098
  158SAPE  H10R17577   2.537   0.359   5.049  0.0856  1.2209  0.6674
  158SAPE  H10S17578   2.445   0.284   5.174  1.1099  0.5963  0.6789
  158SAPE  C21117579   2.567   0.141   5.070  0.2610  0.4755 -0.0083
  158SAPE  H11R17580   2.601   0.064   5.141  1.1878  1.4525  0.6385
  158SAPE  C21217581   2.566   0.106   4.936  0.2893  0.2415  0.0916
  158SAPE  H12R17582   2.584   0.002   4.905  0.8143  0.8070 -1.6461
  158SAPE  C21317583   2.543   0.204   4.819 -0.5497 -0.8330  0.1033
  158SAPE  H13R17584   2.631   0.198   4.751  0.5640 -0.4389  1.4714
  158SAPE  H13S17585   2.538   0.309   4.856  1.6299 -1.3211  2.0428
  158SAPE  C21417586   2.427   0.176   4.729 -0.0605 -0.6180 -0.0467
  158SAPE  H14R17587   2.337   0.234   4.752  0.2957 -0.4037  0.8017
  158SAPE  C21517588   2.421   0.099   4.620  0.9071  0.3951 -0.2429
  158SAPE  H15R17589   2.332   0.093   4.556  0.4743 -1.2196  0.4433
  158SAPE  C21617590   2.531   0.009   4.571 -0.5615  0.2596  0.2100
  158SAPE  H16R17591   2.505  -0.093   4.607 -1.2743  0.4831  0.3491
  158SAPE  H16S17592   2.635   0.026   4.606 -1.0088  0.3927  1.5042
  158SAPE  C21717593   2.519   0.008   4.416 -0.0116 -0.3196 -0.4739
  158SAPE  H17R17594   2.522   0.113   4.379 -0.6579 -0.6077 -1.3531
  158SAPE  H17S17595   2.418  -0.035   4.395 -1.0969  1.7898  0.0777
  158SAPE  C21817596   2.618  -0.078   4.341  0.3160  0.0055  0.1339
  158SAPE  H18R17597   2.614  -0.186   4.369 -0.0645 -0.8111 -2.7919
  158SAPE  H18S17598   2.719  -0.033   4.350 -0.6368  2.6685 -1.2392
  158SAPE  C21917599   2.590  -0.091   4.193  0.2901 -0.9990 -0.1189
  158SAPE  H19R17600   2.490  -0.135   4.172 -0.6682  1.6998 -1.7834
  158SAPE  H19S17601   2.660  -0.162   4.146 -0.8404 -2.6591  0.6214
  158SAPE  C22017602   2.593   0.041   4.117  0.4323  0.0186  0.0444
  158SAPE  H20R17603   2.513   0.117   4.129 -0.3286 -0.8351  0.4843
  158SAPE  H20S17604   2.592   0.014   4.009  0.0771 -0.6347  0.2035
  158SAPE  H20T17605   2.691   0.091   4.131  0.3807 -0.1340  0.9936
  158SAPE   C3317606   2.029   0.166   6.226 -0.1037  0.5723  0.0522
  158SAPE   H3X17607   1.949   0.092   6.207  2.4258 -1.7176 -2.7283
  158SAPE   H3Y17608   2.098   0.117   6.298 -2.1908 -0.0709  1.7414
  158SAPE   C3417609   2.103   0.192   6.095 -0.0009 -0.9531 -0.2200
  158SAPE   H4X17610   2.162   0.099   6.079  0.9589 -0.4654  0.3804
  158SAPE   H4Y17611   2.183   0.267   6.114 -0.4736 -0.1045 -1.4808
  158SAPE   C3517612   2.006   0.240   5.991 -0.3431  0.0432  0.3208
  158SAPE   H5X17613   1.961   0.338   6.019 -0.2466 -0.1029  1.0045
  158SAPE   H5Y17614   1.929   0.161   5.980 -1.8706  1.4986  0.0805
  158SAPE   C3617615   2.071   0.250   5.849 -0.6419 -0.3957  0.5723
  158SAPE   H6X17616   2.108   0.147   5.833 -1.7616 -0.9042  1.1454
  158SAPE   H6Y17617   2.164   0.310   5.850 -1.3309  0.8787 -2.1918
  158SAPE   C3717618   1.967   0.279   5.735  0.5284  0.1397 -0.0031
  158SAPE   H7X17619   1.922   0.379   5.750 -0.8449 -0.5216  0.4537
  158SAPE   H7Y17620   1.886   0.205   5.750  0.5930  0.1131  0.2130
  158SAPE   C3817621   2.014   0.259   5.589  0.0806 -0.4200 -0.6598
  158SAPE   H8X17622   2.080   0.171   5.579  0.2470 -0.1580 -2.1628
  158SAPE   H8Y17623   2.071   0.350   5.557  0.1831  0.2838  1.3676
  158SAPE   C3917624   1.905   0.232   5.492  0.3332 -0.3388 -0.4710
  158SAPE   H9X17625   1.824   0.305   5.517  0.5309  0.0834 -1.0464
  158SAPE   H9Y17626   1.859   0.133   5.513 -0.3842 -0.3287 -1.8810
  158SAPE  C31017627   1.942   0.245   5.343  0.2631 -0.4699 -0.0861
  158SAPE  H10X17628   1.961   0.352   5.320  2.6890 -0.4929  1.4262
  158SAPE  H10Y17629   1.857   0.213   5.279  0.4149  2.6293 -2.0684
  158SAPE  C31117630   2.065   0.162   5.294 -0.0332  0.7841 -0.3459
  158SAPE  H11X17631   2.036   0.056   5.307  0.5250  0.7847  1.1387
  158SAPE  H11Y17632   2.153   0.188   5.358  2.0954 -2.1600 -1.8447
  158SAPE  C31217633   2.085   0.196   5.150 -0.5764  0.0190  0.2904
  158SAPE  H12X17634   2.192   0.184   5.126 -0.5713 -1.0395  0.7836
  158SAPE  H12Y17635   2.069   0.305   5.141  0.1425 -0.0455 -3.1518
  158SAPE  C31317636   2.001   0.125   5.045  0.2485  0.1769 -0.6504
  158SAPE  H13X17637   1.895   0.115   5.078  0.1331 -0.3922 -1.1822
  158SAPE  H13Y17638   2.033   0.019   5.038 -0.6642 -0.0867 -0.9949
  158SAPE  C31417639   2.005   0.183   4.906 -0.3652  0.4480 -0.1812
  158SAPE  H14X17640   2.106   0.227   4.893  0.2237 -0.1918  1.8601
  158SAPE  H14Y17641   1.928   0.262   4.891 -0.4399  0.4729  0.3390
  158SAPE  C31517642   1.989   0.070   4.805 -0.2328  0.0908 -0.0510
  158SAPE  H15X17643   1.895   0.022   4.838 -0.4696 -0.1071 -0.9803
  158SAPE  H15Y17644   2.070  -0.006   4.815 -0.9733 -1.0353 -2.0610
  158SAPE  C31617645   1.983   0.114   4.659  0.2292  0.2368  0.0515
  158SAPE  H16X17646   2.080   0.090   4.611  1.3388  3.7933  0.2188
  158SAPE  H16Y17647   1.972   0.224   4.657 -0.9447  0.1189 -0.5478
  158SAPE  C31717648   1.870   0.054   4.569 -0.7016 -0.2403 -0.2359
  158SAPE  H17X17649   1.874   0.108   4.471  1.8517 -1.5601 -0.9415
  158SAPE  H17Y17650   1.775   0.057   4.627  0.3923 -0.0689  1.5887
  158SAPE  C31817651   1.898  -0.096   4.549 -0.0299 -0.0709  0.0387
  158SAPE  H18X17652   1.819  -0.133   4.480 -1.5300 -1.5982  2.4390
  158SAPE  H18Y17653   1.898  -0.161   4.639 -0.4411 -0.0149  0.0779
  158SAPE  H18Z17654   1.994  -0.097   4.492  0.8877  3.4140  1.2666
  159SAPE     N17655   2.112   3.587   1.761 -0.1764  0.1165 -0.7141
  159SAPE   HN117656   2.025   3.637   1.788  1.0432  1.2430  1.3991
  159SAPE   HN217657   2.146   3.544   1.849 -1.4060  1.7794  0.6505
  159SAPE   HN317658   2.180   3.662   1.739  2.1389 -1.6078  0.1352
  159SAPE   C1217659   2.104   3.488   1.652  0.2595 -0.7636  0.5404
  159SAPE  H12A17660   2.206   3.458   1.621  1.1257  1.4388  1.0422
  159SAPE  H12B17661   2.051   3.532   1.565  0.6323  0.0588  0.7235
  159SAPE   C1117662   2.027   3.354   1.700  0.2077 -0.0832  0.8793
  159SAPE  H11A17663   2.059   3.269   1.636 -0.1292  0.3725  0.0904
  159SAPE  H11B17664   1.921   3.379   1.677  0.7366  1.8463  0.3087
  159SAPE     P17665   2.012   3.179   1.884  0.0151 -0.1781  0.2420
  159SAPE   O1317666   1.915   3.109   1.800 -1.2741 -0.1242  0.7051
  159SAPE   O1417667   2.144   3.109   1.904  0.1956 -0.7389 -0.5253
  159SAPE   O1217668   2.037   3.319   1.839 -0.7293  0.1797  0.3298
  159SAPE   O1117669   1.941   3.193   2.029 -0.5015  0.2815  0.2017
  159SAPE    C117670   1.877   3.310   2.070 -0.5286  0.3401  0.1281
  159SAPE    HA17671   1.870   3.388   1.991  1.9959 -1.0982 -1.6521
  159SAPE    HB17672   1.777   3.300   2.117 -1.3884  0.3206 -1.6109
  159SAPE    C217673   1.947   3.380   2.192 -0.8848 -0.0694  0.0921
  159SAPE    HS17674   2.045   3.419   2.157 -1.6897  1.9138 -0.0276
  159SAPE   O2117675   1.954   3.286   2.302 -0.2763 -0.6655  0.4802
  159SAPE   C2117676   2.068   3.223   2.312  0.0111  1.1632  0.1889
  159SAPE   O2217677   2.169   3.235   2.246  0.0368 -0.3696 -0.1134
  159SAPE   C2217678   2.056   3.121   2.418 -0.2442  0.1079 -0.2947
  159SAPE   H2R17679   1.952   3.091   2.441  0.2061 -1.3259  0.0266
  159SAPE   H2S17680   2.114   3.028   2.398  2.0949  0.9491  1.9227
  159SAPE    C317681   1.876   3.512   2.238  0.1781 -0.5792 -0.6099
  159SAPE    HX17682   1.772   3.474   2.252  0.1744  0.0100  1.2017
  159SAPE    HY17683   1.866   3.576   2.148 -1.9461  0.8123  0.5241
  159SAPE   O3117684   1.920   3.589   2.350  0.0337 -0.0409  0.2663
  159SAPE   C3117685   2.040   3.642   2.348  0.2906  0.3792  0.1610
  159SAPE   O3217686   2.126   3.629   2.264 -0.1929 -0.0401 -0.2612
  159SAPE   C3217687   2.048   3.725   2.476  0.3076 -0.8140 -0.2248
  159SAPE   H2X17688   1.948   3.758   2.511  0.9969  1.3015 -0.1142
  159SAPE   H2Y17689   2.101   3.820   2.453  1.2015 -1.7018 -2.1433
  159SAPE   C2317690   2.102   3.167   2.567 -0.3182  0.0200 -0.5870
  159SAPE   H3R17691   2.024   3.232   2.613  0.8521 -0.2109  1.8450
  159SAPE   H3S17692   2.199   3.216   2.546 -0.1738  0.9040  1.8494
  159SAPE   C2417693   2.131   3.053   2.664 -0.8441 -0.2732 -0.1184
  159SAPE   H4R17694   2.198   3.093   2.743  0.2300  1.4950 -1.8611
  159SAPE   H4S17695   2.181   2.964   2.619  0.5532  0.8247 -0.7961
  159SAPE   C2517696   2.005   3.011   2.724  0.5232  0.7497  0.2034
  159SAPE   H5R17697   1.938   2.949   2.663  1.2708 -0.2191  0.3426
  159SAPE   C2617698   1.968   3.031   2.849  0.2279  0.4018 -0.1471
  159SAPE   H6R17699   1.860   3.021   2.872  0.6625 -0.2089  1.8858
  159SAPE   C2717700   2.053   3.078   2.964 -0.0117 -0.0211 -0.4413
  159SAPE   H7R17701   1.997   3.145   3.033  0.1643  0.4982 -0.7943
  159SAPE   H7S17702   2.149   3.130   2.940 -1.9491  3.6745 -0.9982
  159SAPE   C2817703   2.088   2.960   3.044 -0.1467  0.5034 -0.3851
  159SAPE   H8R17704   2.167   2.899   2.997 -0.2600  0.2980 -0.3097
  159SAPE   C2917705   2.042   2.910   3.163  0.3183  0.1061  0.3711
  159SAPE   H9R17706   2.087   2.819   3.204  2.0823  0.9930  0.5139
  159SAPE  C21017707   1.932   2.967   3.243  0.0229 -0.3553  0.1443
  159SAPE  H10R17708   1.879   3.051   3.193 -1.3387 -2.3547 -2.0181
  159SAPE  H10S17709   1.968   3.007   3.340 -0.2805  3.5617 -1.1915
  159SAPE  C21117710   1.845   2.849   3.268  0.2295  0.7330 -0.1090
  159SAPE  H11R17711   1.805   2.825   3.169  0.6098  0.5414 -0.2203
  159SAPE  C21217712   1.806   2.796   3.384  0.0984 -0.2345  0.0390
  159SAPE  H12R17713   1.743   2.706   3.379 -2.1000  1.2759 -2.8711
  159SAPE  C21317714   1.853   2.834   3.518  0.1642 -0.2772 -0.3975
  159SAPE  H13R17715   1.777   2.896   3.571  1.1618 -0.2143  1.0137
  159SAPE  H13S17716   1.932   2.912   3.523  0.5360 -0.7253  2.1646
  159SAPE  C21417717   1.901   2.721   3.607 -0.2502 -0.2032  1.0846
  159SAPE  H14R17718   1.997   2.671   3.586 -0.0598  0.4057  0.4637
  159SAPE  C21517719   1.834   2.672   3.709  0.3420  0.7305  0.6378
  159SAPE  H15R17720   1.886   2.592   3.765 -0.3426 -0.4214 -0.3336
  159SAPE  C21617721   1.703   2.725   3.768 -0.9843  0.0472  1.0804
  159SAPE  H16R17722   1.650   2.635   3.804  1.3107 -2.4110 -1.2480
  159SAPE  H16S17723   1.641   2.766   3.685  1.5689  1.0029 -0.4550
  159SAPE  C21717724   1.705   2.835   3.885 -0.3792 -0.8153 -0.3730
  159SAPE  H17R17725   1.598   2.857   3.903 -0.2875  0.8620 -1.6095
  159SAPE  H17S17726   1.754   2.926   3.843 -0.6841 -0.8717 -0.8610
  159SAPE  C21817727   1.783   2.778   4.008 -0.3972  1.0144  2.3033
  159SAPE  H18R17728   1.888   2.757   3.979 -1.2592  0.2192 -0.6430
  159SAPE  H18S17729   1.740   2.678   4.032  1.3003 -0.6816 -0.9519
  159SAPE  C21917730   1.781   2.863   4.130 -0.2716 -0.4694  0.1937
  159SAPE  H19R17731   1.834   2.958   4.108 -2.6462  0.9159  0.0727
  159SAPE  H19S17732   1.833   2.806   4.210 -0.7351  2.6439  2.9138
  159SAPE  C22017733   1.646   2.899   4.190  0.2777 -0.0747 -0.5021
  159SAPE  H20R17734   1.578   2.956   4.122  0.4829  0.9388  0.1132
  159SAPE  H20S17735   1.661   2.961   4.281  2.1862  0.1157 -0.9028
  159SAPE  H20T17736   1.590   2.808   4.219  0.2183  0.3539  0.7657
  159SAPE   C3317737   2.120   3.643   2.586 -0.1509 -0.3928  0.4675
  159SAPE   H3X17738   2.135   3.721   2.663 -0.2463  2.0298 -1.8087
  159SAPE   H3Y17739   2.212   3.598   2.544  0.2875 -0.0955  1.0981
  159SAPE   C3417740   2.031   3.534   2.643 -0.8491 -0.2685 -0.4645
  159SAPE   H4X17741   2.013   3.458   2.564 -1.3940 -0.4259 -0.1884
  159SAPE   H4Y17742   1.934   3.581   2.669 -0.6322 -0.9395  1.7636
  159SAPE   C3517743   2.088   3.457   2.764 -0.1753  0.0187 -0.1656
  159SAPE   H5X17744   2.180   3.411   2.721 -0.8799  1.6604 -3.7751
  159SAPE   H5Y17745   2.008   3.384   2.789  0.8803 -1.3810 -0.7452
  159SAPE   C3617746   2.110   3.548   2.880 -0.4574  0.7824 -0.2952
  159SAPE   H6X17747   2.023   3.617   2.887  0.4739  1.8381  2.7241
  159SAPE   H6Y17748   2.199   3.611   2.860  2.2427 -2.6232  0.0891
  159SAPE   C3717749   2.132   3.482   3.026  0.0901  0.1990 -0.2578
  159SAPE   H7X17750   2.220   3.414   3.023 -2.4442 -3.4291  0.9410
  159SAPE   H7Y17751   2.048   3.412   3.046 -0.3111  0.8624  0.4490
  159SAPE   C3817752   2.138   3.585   3.142 -0.6857  0.3946  0.8103
  159SAPE   H8X17753   2.041   3.639   3.145 -1.0720 -0.0595 -1.5967
  159SAPE   H8Y17754   2.222   3.654   3.117  0.0476  0.2403  2.7014
  159SAPE   C3917755   2.151   3.504   3.271 -0.0683 -0.3756 -0.3151
  159SAPE   H9X17756   2.256   3.468   3.266  1.0043  2.7315 -2.7454
  159SAPE   H9Y17757   2.082   3.418   3.288  0.4381 -0.6270  0.4856
  159SAPE  C31017758   2.143   3.600   3.392  0.6006 -0.2772 -0.1110
  159SAPE  H10X17759   2.036   3.629   3.394  0.8743  0.7692  1.9463
  159SAPE  H10Y17760   2.214   3.684   3.378  0.7432 -0.2698  0.6529
  159SAPE  C31117761   2.174   3.548   3.533 -1.2289  0.2641 -0.5056
  159SAPE  H11X17762   2.272   3.495   3.524 -0.5580  1.5734 -1.1315
  159SAPE  H11Y17763   2.093   3.477   3.561 -0.9418  0.2092  0.2153
  159SAPE  C31217764   2.190   3.654   3.640  0.0445 -0.3041 -0.4461
  159SAPE  H12X17765   2.099   3.713   3.665  0.5779 -0.1126  1.1380
  159SAPE  H12Y17766   2.264   3.732   3.611 -0.4890  0.8158  1.0800
  159SAPE  C31317767   2.226   3.607   3.780 -0.4768  0.1157  0.3706
  159SAPE  H13X17768   2.332   3.571   3.778  0.3950  2.3986  1.6985
  159SAPE  H13Y17769   2.162   3.523   3.815  0.2249 -0.1003  1.1779
  159SAPE  C31417770   2.231   3.729   3.880  0.2140 -0.3068  0.1432
  159SAPE  H14X17771   2.135   3.783   3.882 -0.4778 -1.4975  2.0863
  159SAPE  H14Y17772   2.302   3.802   3.837 -1.8856  1.9083  0.2816
  159SAPE  C31517773   2.281   3.697   4.025 -0.5629 -0.6645  0.4369
  159SAPE  H15X17774   2.299   3.801   4.061 -1.1429  0.5998 -2.5679
  159SAPE  H15Y17775   2.385   3.662   4.005 -0.7166 -0.1780 -1.4743
  159SAPE  C31617776   2.204   3.613   4.121 -0.0622 -0.3949 -0.3479
  159SAPE  H16X17777   2.179   3.522   4.063  1.7973 -1.4014  0.3264
  159SAPE  H16Y17778   2.099   3.643   4.142 -1.2704 -3.5898 -1.1147
  159SAPE  C31717779   2.276   3.591   4.259 -0.1971  0.6863  0.4130
  159SAPE  H17X17780   2.382   3.573   4.233 -0.4534  1.2480 -1.1603
  159SAPE  H17Y17781   2.226   3.505   4.308 -0.3507  0.5846  0.0814
  159SAPE  C31817782   2.280   3.707   4.358  0.5250 -0.5755 -0.9849
  159SAPE  H18X17783   2.183   3.721   4.408  0.7612 -2.5617  0.1026
  159SAPE  H18Y17784   2.301   3.810   4.321 -1.3217  0.4942  0.7325
  159SAPE  H18Z17785   2.349   3.682   4.441 -0.0802 -0.3509 -0.4083
  160SAPE     N17786   0.752   3.506   2.278 -0.5049  0.4333 -0.0395
  160SAPE   HN117787   0.760   3.565   2.364  0.0092 -0.3049  0.4286
  160SAPE   HN217788   0.786   3.411   2.302 -1.6042  0.1551  0.4960
  160SAPE   HN317789   0.809   3.537   2.197  0.2985 -2.2120 -0.5686
  160SAPE   C1217790   0.606   3.492   2.238  0.7686  0.2510  0.0947
  160SAPE  H12A17791   0.606   3.478   2.128 -1.1361  1.8933 -0.1684
  160SAPE  H12B17792   0.557   3.591   2.243  0.0710 -0.1069  0.5729
  160SAPE   C1117793   0.548   3.378   2.326 -0.1327 -0.2292  0.4925
  160SAPE  H11A17794   0.442   3.372   2.294 -0.0588 -0.0680  0.2185
  160SAPE  H11B17795   0.553   3.416   2.430 -1.1630  0.5372  0.2745
  160SAPE     P17796   0.602   3.163   2.193  0.0090  0.0173 -0.2973
  160SAPE   O1317797   0.463   3.118   2.221  0.4693 -0.0190  0.8148
  160SAPE   O1417798   0.626   3.214   2.058  0.0653 -0.0402  0.2542
  160SAPE   O1217799   0.629   3.265   2.306  0.1346  0.4830  0.2284
  160SAPE   O1117800   0.705   3.044   2.225  0.7185 -0.5708  0.6195
  160SAPE    C117801   0.791   3.046   2.338  0.4438 -0.2172  0.1993
  160SAPE    HA17802   0.866   3.128   2.328 -1.0148  1.1262 -0.0874
  160SAPE    HB17803   0.732   3.066   2.430 -1.2368  0.6227 -0.9987
  160SAPE    C217804   0.854   2.913   2.352 -0.2473  0.5276  0.1097
  160SAPE    HS17805   0.900   2.887   2.254 -1.0448  2.6424 -0.8646
  160SAPE   O2117806   0.755   2.817   2.396  0.0149  0.7971 -0.1292
  160SAPE   C2117807   0.801   2.688   2.401  0.0310 -0.6598  0.2478
  160SAPE   O2217808   0.913   2.652   2.373  0.1588 -0.6345 -0.1251
  160SAPE   C2217809   0.682   2.601   2.452 -0.0887 -0.1673  0.7646
  160SAPE   H2R17810   0.610   2.608   2.367  0.3478  0.6733  0.4548
  160SAPE   H2S17811   0.712   2.494   2.459  0.1645 -0.1563  0.0029
  160SAPE    C317812   0.977   2.928   2.453 -0.4588  0.2549 -0.0683
  160SAPE    HX17813   1.023   3.023   2.419 -1.0573  0.4936 -0.2322
  160SAPE    HY17814   1.046   2.844   2.432 -0.1212 -0.7508  4.1135
  160SAPE   O3117815   0.933   2.935   2.595 -0.2550  0.0477 -0.0907
  160SAPE   C3117816   0.990   2.836   2.671 -0.3636  0.3226  0.6157
  160SAPE   O3217817   1.061   2.742   2.639  0.9917 -0.0912 -0.0969
  160SAPE   C3217818   0.948   2.851   2.818  1.0302 -0.2934  0.5079
  160SAPE   H2X17819   0.955   2.955   2.858 -0.3225  0.8551 -1.9835
  160SAPE   H2Y17820   1.026   2.788   2.867  0.7958 -1.0890 -0.1292
  160SAPE   C2317821   0.615   2.645   2.583  0.1168  0.0910 -0.3652
  160SAPE   H3R17822   0.619   2.756   2.595 -3.0892  0.4901 -1.7718
  160SAPE   H3S17823   0.678   2.605   2.665  2.7912  1.2097 -1.7644
  160SAPE   C2417824   0.467   2.597   2.607 -0.6035 -0.1080  0.5433
  160SAPE   H4R17825   0.396   2.653   2.544 -0.9836  0.0337  1.0863
  160SAPE   H4S17826   0.442   2.633   2.709  2.9803  0.5554  1.3254
  160SAPE   C2517827   0.438   2.450   2.608 -0.1049  0.4374  0.4364
  160SAPE   H5R17828   0.375   2.411   2.526  1.5476  1.0094 -1.1721
  160SAPE   C2617829   0.477   2.357   2.700 -0.9407  0.1814  0.0995
  160SAPE   H6R17830   0.442   2.253   2.693  0.4832 -0.4155  1.2001
  160SAPE   C2717831   0.578   2.381   2.817  0.1161  0.1364 -0.1813
  160SAPE   H7R17832   0.526   2.353   2.912  0.8225 -0.6633 -0.0204
  160SAPE   H7S17833   0.608   2.488   2.824  0.6569 -0.0974  1.6468
  160SAPE   C2817834   0.688   2.275   2.811  0.5972 -0.8740  0.4837
  160SAPE   H8R17835   0.647   2.173   2.817  0.0306 -0.6756  0.1097
  160SAPE   C2917836   0.821   2.294   2.803  0.6031  0.5446  0.3031
  160SAPE   H9R17837   0.889   2.208   2.804 -0.5475 -0.3943  0.7466
  160SAPE  C21017838   0.878   2.426   2.775  0.4241 -0.7383  0.1900
  160SAPE  H10R17839   0.829   2.492   2.850  0.6381 -1.4501  0.9640
  160SAPE  H10S17840   0.842   2.456   2.674  3.5625 -1.5881 -1.2918
  160SAPE  C21117841   1.026   2.442   2.796 -0.0117 -0.2655  0.5173
  160SAPE  H11R17842   1.083   2.425   2.704 -0.8241  0.3606 -0.1094
  160SAPE  C21217843   1.092   2.454   2.914 -0.0917  0.0375  0.6871
  160SAPE  H12R17844   1.201   2.467   2.920 -0.0924  0.2580  0.3038
  160SAPE  C21317845   1.038   2.453   3.055 -0.7689 -0.5164 -0.3815
  160SAPE  H13R17846   1.051   2.351   3.096 -2.6228  0.1288  1.9979
  160SAPE  H13S17847   0.930   2.478   3.058 -0.5427  0.5060 -0.4308
  160SAPE  C21417848   1.121   2.551   3.128  0.2594 -0.0820 -1.0624
  160SAPE  H14R17849   1.220   2.577   3.090 -0.1410 -0.3867 -2.3635
  160SAPE  C21517850   1.087   2.606   3.247  0.3153 -1.2020  0.9726
  160SAPE  H15R17851   1.156   2.654   3.317  0.3412  1.1250 -0.5391
  160SAPE  C21617852   0.952   2.590   3.303  0.0856  0.6744  0.5342
  160SAPE  H16R17853   0.899   2.496   3.276  1.6406 -0.0309 -0.1502
  160SAPE  H16S17854   0.883   2.672   3.275  0.1866  0.3651 -0.6834
  160SAPE  C21717855   0.970   2.584   3.460  0.7581 -0.0179  0.1662
  160SAPE  H17R17856   0.869   2.600   3.503  0.9184  1.6334  0.0172
  160SAPE  H17S17857   1.027   2.675   3.489 -0.6995  1.0202 -0.0975
  160SAPE  C21817858   1.036   2.461   3.507  0.3650  0.7429 -0.5422
  160SAPE  H18R17859   1.136   2.490   3.546  0.4257  1.3011 -1.0921
  160SAPE  H18S17860   1.054   2.389   3.424  1.5145  2.0062 -1.4400
  160SAPE  C21917861   0.960   2.383   3.614  0.2152  0.0374 -0.6586
  160SAPE  H19R17862   0.853   2.368   3.591 -0.4406  1.9279  0.9087
  160SAPE  H19S17863   0.960   2.450   3.703  1.4926 -0.5347 -0.1942
  160SAPE  C22017864   1.032   2.256   3.664  0.4694 -0.3926  0.3267
  160SAPE  H20R17865   0.956   2.220   3.738  0.0385  1.2412  0.7248
  160SAPE  H20S17866   1.120   2.278   3.728  0.5208  2.1725 -0.4859
  160SAPE  H20T17867   1.045   2.175   3.590  2.1498 -0.0348  0.1977
  160SAPE   C3317868   0.803   2.794   2.845 -0.2583 -0.3486  1.0182
  160SAPE   H3X17869   0.807   2.692   2.800 -1.6191 -0.3864  0.9300
  160SAPE   H3Y17870   0.725   2.847   2.786 -0.0378  1.1375  2.0103
  160SAPE   C3417871   0.762   2.779   2.993 -0.2018 -0.0553  0.1745
  160SAPE   H4X17872   0.766   2.871   3.056  2.1300  0.6808 -0.8864
  160SAPE   H4Y17873   0.843   2.712   3.028 -0.2755 -0.9366 -1.2573
  160SAPE   C3517874   0.620   2.725   3.005 -0.6582 -0.1595 -0.1322
  160SAPE   H5X17875   0.603   2.670   2.910 -2.5614  2.3062 -1.3413
  160SAPE   H5Y17876   0.540   2.801   3.018 -2.1700 -1.6990 -0.1142
  160SAPE   C3617877   0.622   2.626   3.124 -0.3284 -0.0332 -0.6940
  160SAPE   H6X17878   0.663   2.682   3.210 -1.1513  0.5736 -0.6811
  160SAPE   H6Y17879   0.691   2.540   3.115 -0.1594 -0.0097  0.3556
  160SAPE   C3717880   0.475   2.571   3.149 -0.5685 -0.4370  0.4557
  160SAPE   H7X17881   0.455   2.488   3.077 -0.7023  0.5580 -0.6883
  160SAPE   H7Y17882   0.397   2.648   3.129 -0.7562 -1.1331 -1.7130
  160SAPE   C3817883   0.475   2.526   3.291  0.9911 -0.2587 -0.2038
  160SAPE   H8X17884   0.568   2.469   3.311  0.7409 -0.0486  1.7381
  160SAPE   H8Y17885   0.391   2.457   3.317  1.1827 -1.2794 -2.1227
  160SAPE   C3917886   0.471   2.634   3.405 -0.1017 -0.2865  0.0520
  160SAPE   H9X17887   0.375   2.689   3.410 -0.1317 -0.2366 -0.8498
  160SAPE   H9Y17888   0.554   2.698   3.367 -0.1684 -1.0724 -1.5312
  160SAPE  C31017889   0.483   2.579   3.549 -0.1325  0.1186 -0.4414
  160SAPE  H10X17890   0.561   2.500   3.541 -0.9895 -0.7127 -0.7044
  160SAPE  H10Y17891   0.393   2.522   3.580  0.5608 -1.6048 -1.4129
  160SAPE  C31117892   0.510   2.687   3.656 -0.3154 -0.9023 -0.3044
  160SAPE  H11X17893   0.438   2.768   3.632 -1.5583 -1.5504  1.0967
  160SAPE  H11Y17894   0.618   2.712   3.642 -0.3963  0.1901  0.8833
  160SAPE  C31217895   0.483   2.645   3.800 -0.1945 -0.4631 -0.0817
  160SAPE  H12X17896   0.565   2.572   3.811  1.3928  1.4426  1.5066
  160SAPE  H12Y17897   0.384   2.594   3.806 -0.9410  0.8370 -0.9585
  160SAPE  C31317898   0.492   2.754   3.907 -0.6772  0.5170 -0.7965
  160SAPE  H13X17899   0.395   2.809   3.907 -0.8372  0.2569  0.5278
  160SAPE  H13Y17900   0.571   2.827   3.881 -1.8966  1.7389 -1.2294
  160SAPE  C31417901   0.507   2.709   4.052  0.9213  0.6343 -1.0453
  160SAPE  H14X17902   0.576   2.772   4.112  2.4984 -2.5300  0.7272
  160SAPE  H14Y17903   0.572   2.620   4.046 -0.2134 -0.1788 -1.7589
  160SAPE  C31517904   0.382   2.682   4.132  0.3691 -0.1888 -0.0250
  160SAPE  H15X17905   0.316   2.601   4.097 -0.8324  0.0076  1.6865
  160SAPE  H15Y17906   0.317   2.772   4.143 -0.1038 -0.4211 -0.8146
  160SAPE  C31617907   0.420   2.648   4.280  0.2992 -0.0291 -0.1499
  160SAPE  H16X17908   0.503   2.711   4.317 -0.8293  1.0198  0.6782
  160SAPE  H16Y17909   0.465   2.546   4.282 -0.3476 -0.3074  0.9451
  160SAPE  C31717910   0.299   2.644   4.372 -0.8125 -0.5640 -0.1668
  160SAPE  H17X17911   0.230   2.563   4.341 -1.2200 -0.0257 -0.6841
  160SAPE  H17Y17912   0.239   2.736   4.358 -0.0734 -0.0372  0.0833
  160SAPE  C31817913   0.347   2.621   4.515  0.2266 -0.6317 -0.1119
  160SAPE  H18X17914   0.441   2.562   4.519 -0.4703 -1.7615 -0.0406
  160SAPE  H18Y17915   0.279   2.566   4.585  0.6777  0.0056  0.8593
  160SAPE  H18Z17916   0.370   2.720   4.559  0.9944  0.0628 -1.9980
  161SAPE     N17917   6.180   6.061   1.722  0.0881 -0.1085  0.3179
  161SAPE   HN117918   6.163   6.127   1.643 -0.1921 -1.5174 -0.8436
  161SAPE   HN217919   6.191   6.117   1.809  1.1256 -1.3005  0.9784
  161SAPE   HN317920   6.271   6.013   1.706 -0.3004 -1.9608  3.0720
  161SAPE   C1217921   6.065   5.964   1.722  0.7858  0.0579 -0.0215
  161SAPE  H12A17922   6.085   5.882   1.650 -1.4043 -0.5482  0.0107
  161SAPE  H12B17923   5.976   6.025   1.695  1.6635  0.4348 -2.3168
  161SAPE   C1117924   6.053   5.892   1.859 -0.1686  0.2813  0.0781
  161SAPE  H11A17925   6.149   5.845   1.890  0.4910  0.6978 -1.2392
  161SAPE  H11B17926   5.974   5.818   1.840  0.5835 -0.1138 -1.7033
  161SAPE     P17927   5.976   5.947   2.103  0.1240  0.1451 -0.0060
  161SAPE   O1317928   6.031   6.062   2.178 -0.0623  0.0110 -0.1912
  161SAPE   O1417929   5.841   5.892   2.134 -0.0046 -0.1358 -0.6628
  161SAPE   O1217930   6.003   5.983   1.953 -0.1892 -0.1316  0.0378
  161SAPE   O1117931   6.069   5.831   2.128 -0.1215 -0.3266  0.0338
  161SAPE    C117932   6.157   5.824   2.242 -0.5665 -0.4628  1.2398
  161SAPE    HA17933   6.234   5.751   2.209 -0.1801  0.6192 -0.3437
  161SAPE    HB17934   6.213   5.919   2.253 -0.8154 -0.2626  0.7812
  161SAPE    C217935   6.099   5.763   2.375 -0.1513  0.2670 -0.3332
  161SAPE    HS17936   6.186   5.724   2.432  0.4531  1.7480 -0.2013
  161SAPE   O2117937   5.998   5.661   2.352  0.0617 -0.1934  0.0153
  161SAPE   C2117938   6.036   5.557   2.291 -0.2243  0.0717  0.3409
  161SAPE   O2217939   6.155   5.531   2.268 -0.7632  0.0209 -0.0100
  161SAPE   C2217940   5.919   5.480   2.232  0.4676 -0.0010 -0.4253
  161SAPE   H2R17941   5.841   5.550   2.196  0.5954 -0.5144 -1.7644
  161SAPE   H2S17942   5.955   5.428   2.141  0.0666  0.8979 -1.1079
  161SAPE    C317943   6.040   5.871   2.467  0.4510 -0.1398 -0.2888
  161SAPE    HX17944   5.951   5.919   2.419  0.8585  1.9567  0.9025
  161SAPE    HY17945   6.114   5.952   2.482  1.2609 -0.5302 -1.9275
  161SAPE   O3117946   5.976   5.820   2.586  0.0604  0.0178 -0.5910
  161SAPE   C3117947   6.051   5.799   2.692 -0.1792 -0.9824 -0.0907
  161SAPE   O3217948   6.168   5.836   2.704 -0.2030  0.7246  0.3720
  161SAPE   C3217949   5.966   5.739   2.810 -0.0564 -0.2543  0.1489
  161SAPE   H2X17950   6.001   5.636   2.829 -0.3639 -0.3933 -0.0292
  161SAPE   H2Y17951   5.863   5.733   2.768  0.2149 -1.1265 -0.4162
  161SAPE   C2317952   5.851   5.389   2.326  0.3322 -0.2029  0.2988
  161SAPE   H3R17953   5.922   5.327   2.385  2.0932 -0.9150 -2.3743
  161SAPE   H3S17954   5.790   5.314   2.272  0.2046 -0.6642  1.0730
  161SAPE   C2417955   5.751   5.459   2.424  0.0278 -0.5386  0.1886
  161SAPE   H4R17956   5.686   5.525   2.362 -0.2242 -2.1235 -1.3150
  161SAPE   H4S17957   5.809   5.530   2.487 -1.0733  1.2652 -0.7152
  161SAPE   C2517958   5.669   5.368   2.509 -0.1511  0.2040 -0.7464
  161SAPE   H5R17959   5.578   5.328   2.462 -0.2269  1.4620 -1.7050
  161SAPE   C2617960   5.692   5.328   2.640  0.3161 -0.4383 -0.2282
  161SAPE   H6R17961   5.610   5.269   2.684 -0.3771 -0.0355 -0.9385
  161SAPE   C2717962   5.816   5.356   2.728 -0.4329 -0.3740 -0.3057
  161SAPE   H7R17963   5.873   5.449   2.706  2.4570 -2.0792 -0.5346
  161SAPE   H7S17964   5.897   5.282   2.716  0.8365  1.1204 -1.3385
  161SAPE   C2817965   5.771   5.380   2.869 -0.4512  0.1388  0.5699
  161SAPE   H8R17966   5.684   5.445   2.880  0.1212  0.8639  0.9638
  161SAPE   C2917967   5.826   5.325   2.981 -0.4072  0.0915  0.7016
  161SAPE   H9R17968   5.794   5.348   3.083 -0.5543  0.1806  0.6351
  161SAPE  C21017969   5.951   5.237   2.967  0.0717  0.2133  0.2391
  161SAPE  H10R17970   5.934   5.166   2.883  0.5886 -1.8531  1.7936
  161SAPE  H10S17971   5.945   5.165   3.052 -0.8125 -0.7473 -0.6011
  161SAPE  C21117972   6.083   5.307   2.970  0.5105 -0.2928 -0.3539
  161SAPE  H11R17973   6.107   5.359   2.876 -1.0426  0.5353 -0.3279
  161SAPE  C21217974   6.169   5.317   3.073 -0.9357 -0.2734  0.5062
  161SAPE  H12R17975   6.262   5.367   3.044 -0.3072 -1.4593  0.3952
  161SAPE  C21317976   6.155   5.245   3.202 -0.0606 -0.4015 -0.4860
  161SAPE  H13R17977   6.150   5.137   3.179 -3.0123 -0.7280  1.1266
  161SAPE  H13S17978   6.056   5.264   3.250  0.6420  3.3223 -0.2033
  161SAPE  C21417979   6.265   5.278   3.301  0.1551 -1.3153  0.6769
  161SAPE  H14R17980   6.359   5.301   3.248 -1.5962  3.1740 -1.0145
  161SAPE  C21517981   6.246   5.294   3.436 -0.4616 -0.3425  0.3609
  161SAPE  H15R17982   6.330   5.328   3.497  0.1049  0.1014 -0.6491
  161SAPE  C21617983   6.120   5.274   3.520  0.1136 -0.6077  0.8306
  161SAPE  H16R17984   6.034   5.316   3.464 -1.2865 -3.3287  0.7967
  161SAPE  H16S17985   6.122   5.341   3.608 -1.6411  0.7962 -0.1466
  161SAPE  C21717986   6.107   5.126   3.545  0.1413  0.1806  0.2034
  161SAPE  H17R17987   6.198   5.088   3.596  0.2335 -1.2389 -0.9749
  161SAPE  H17S17988   6.097   5.070   3.450  1.7691 -1.3314  0.8683
  161SAPE  C21817989   5.986   5.087   3.633 -0.1838  1.0006 -0.3921
  161SAPE  H18R17990   5.966   4.978   3.637 -1.1220  1.2164  1.2101
  161SAPE  H18S17991   5.897   5.121   3.576 -0.3141 -0.4728 -1.1035
  161SAPE  C21917992   5.982   5.142   3.780 -0.2189 -0.8394  0.3122
  161SAPE  H19R17993   5.882   5.131   3.826 -1.0264  2.0038 -0.5167
  161SAPE  H19S17994   6.007   5.251   3.783  1.7333 -1.1338 -1.8444
  161SAPE  C22017995   6.086   5.079   3.862 -0.6316  0.4438  0.2099
  161SAPE  H20R17996   6.190   5.102   3.831 -0.3000 -0.3832  0.6530
  161SAPE  H20S17997   6.081   4.968   3.859 -0.5411  0.3651  1.9978
  161SAPE  H20T17998   6.085   5.114   3.967 -1.6261 -0.4353  0.5128
  161SAPE   C3317999   5.950   5.816   2.949 -0.0945 -0.1611 -0.4497
  161SAPE   H3X18000   5.863   5.885   2.952  0.5341  0.6078  0.2963
  161SAPE   H3Y18001   6.043   5.873   2.968 -0.2869 -0.1959  0.6821
  161SAPE   C3418002   5.940   5.710   3.063 -0.3168  0.4801 -0.1828
  161SAPE   H4X18003   6.025   5.639   3.053 -1.8694 -1.3217 -1.1439
  161SAPE   H4Y18004   5.848   5.651   3.043 -0.3284  0.2281  0.5582
  161SAPE   C3518005   5.944   5.778   3.205 -0.5174  0.1318 -0.0483
  161SAPE   H5X18006   5.858   5.847   3.219 -0.6144 -0.1474  0.8352
  161SAPE   H5Y18007   6.038   5.837   3.206  0.7926 -1.8459 -0.2989
  161SAPE   C3618008   5.944   5.666   3.316  0.1437 -0.4285  0.1371
  161SAPE   H6X18009   6.042   5.617   3.299  0.6235  0.8492 -0.9561
  161SAPE   H6Y18010   5.863   5.590   3.307  1.1134 -1.3205 -1.5294
  161SAPE   C3718011   5.953   5.709   3.461  0.0346  0.1950 -0.1611
  161SAPE   H7X18012   5.869   5.766   3.507  1.5808  1.1003  1.6888
  161SAPE   H7Y18013   6.030   5.789   3.459  0.9407 -0.5580  1.7772
  161SAPE   C3818014   5.998   5.603   3.566 -0.2348 -0.2033  0.2530
  161SAPE   H8X18015   6.082   5.546   3.522 -0.0977 -0.0824  0.3575
  161SAPE   H8Y18016   5.914   5.532   3.582 -0.3309 -0.4154 -1.1068
  161SAPE   C3918017   6.040   5.656   3.702  0.1255  0.0354  0.4611
  161SAPE   H9X18018   6.101   5.749   3.691 -1.8918  1.4048  0.1524
  161SAPE   H9Y18019   6.102   5.581   3.755  2.3277  0.5293 -1.2943
  161SAPE  C31018020   5.913   5.694   3.782  0.3911 -0.2536  0.4949
  161SAPE  H10X18021   5.847   5.747   3.710  1.8834  0.7668 -0.1845
  161SAPE  H10Y18022   5.940   5.761   3.866 -1.5130  0.5855  0.4872
  161SAPE  C31118023   5.831   5.584   3.855 -0.3840 -0.1406  0.1592
  161SAPE  H11X18024   5.802   5.491   3.802  0.6478 -0.9355  0.9312
  161SAPE  H11Y18025   5.736   5.633   3.886 -0.4921  0.0339 -0.4411
  161SAPE  C31218026   5.903   5.540   3.984 -0.5384  0.3374  0.1624
  161SAPE  H12X18027   5.921   5.620   4.059  0.7525  1.3894 -1.1998
  161SAPE  H12Y18028   6.013   5.530   3.968 -0.2847 -0.1790  2.0168
  161SAPE  C31318029   5.855   5.412   4.052  0.4138  0.1961 -0.2318
  161SAPE  H13X18030   5.929   5.383   4.129 -0.4989  1.8043  1.3260
  161SAPE  H13Y18031   5.860   5.333   3.974  1.3990  0.0999 -0.0822
  161SAPE  C31418032   5.712   5.418   4.103  0.0947  1.5118  0.0898
  161SAPE  H14X18033   5.641   5.443   4.021  2.3008  1.7644 -1.8574
  161SAPE  H14Y18034   5.704   5.486   4.190  1.0441 -0.6558  1.9748
  161SAPE  C31518035   5.672   5.273   4.158  0.0253  1.1561  0.1821
  161SAPE  H15X18036   5.748   5.244   4.234  1.6392  0.3011 -1.6576
  161SAPE  H15Y18037   5.685   5.197   4.078  1.1356  1.2734  0.2332
  161SAPE  C31618038   5.521   5.268   4.182 -0.3476 -0.3663 -0.1305
  161SAPE  H16X18039   5.479   5.301   4.085 -1.3056 -1.0187  0.0378
  161SAPE  H16Y18040   5.496   5.345   4.259  2.0716  0.0033  0.3623
  161SAPE  C31718041   5.474   5.125   4.208 -0.1527  0.4038  0.0092
  161SAPE  H17X18042   5.540   5.049   4.160  1.2682  1.5159  0.1194
  161SAPE  H17Y18043   5.375   5.107   4.161  0.0192  1.2073 -0.6750
  161SAPE  C31818044   5.454   5.093   4.355  0.5236  0.0561  0.0133
  161SAPE  H18X18045   5.538   5.137   4.413  0.9300 -0.0722 -0.4673
  161SAPE  H18Y18046   5.449   4.982   4.367  0.7808  0.1101  0.6267
  161SAPE  H18Z18047   5.365   5.132   4.408  0.2807  0.8601 -0.9520
  162SAPE     N18048   5.626   2.055   1.996 -0.1863 -0.4604 -0.7635
  162SAPE   HN118049   5.700   1.982   1.994  0.5059  0.1734  0.5239
  162SAPE   HN218050   5.563   2.052   1.912 -1.5604 -1.4062  0.2398
  162SAPE   HN318051   5.665   2.151   2.005 -1.6519 -0.0053  1.3171
  162SAPE   C1218052   5.555   2.027   2.123 -0.0877 -0.5664  0.3353
  162SAPE  H12A18053   5.460   2.085   2.119  0.4452  0.2301 -1.4429
  162SAPE  H12B18054   5.620   2.062   2.206 -0.9039  2.0903 -0.0575
  162SAPE   C1118055   5.525   1.879   2.130 -0.4100  0.5044 -0.4659
  162SAPE  H11A18056   5.474   1.853   2.225  1.0547  0.1523  0.2526
  162SAPE  H11B18057   5.622   1.826   2.141 -0.5499  0.4278  0.5861
  162SAPE     P18058   5.481   1.707   1.935  0.2915 -0.0928 -0.0764
  162SAPE   O1318059   5.368   1.677   1.849 -0.5110 -0.0989 -0.6269
  162SAPE   O1418060   5.615   1.729   1.883  0.3612 -0.1442 -0.1796
  162SAPE   O1218061   5.443   1.830   2.023 -0.3095  0.2002  0.1098
  162SAPE   O1118062   5.492   1.593   2.041  0.1778 -0.1316 -0.6242
  162SAPE    C118063   5.601   1.547   2.118 -0.3432 -0.5775  0.3130
  162SAPE    HA18064   5.686   1.617   2.101 -1.0527  0.5534  1.3297
  162SAPE    HB18065   5.559   1.543   2.220 -0.8737  2.9624  0.3497
  162SAPE    C218066   5.641   1.404   2.073 -0.2051 -0.7035  0.3033
  162SAPE    HS18067   5.674   1.401   1.967  0.1607 -0.5216  0.4108
  162SAPE   O2118068   5.521   1.324   2.103  0.0099 -0.4139 -0.5476
  162SAPE   C2118069   5.521   1.198   2.058 -0.7894  0.4802  0.7545
  162SAPE   O2218070   5.612   1.153   1.982 -0.2609  0.7086 -0.2541
  162SAPE   C2218071   5.398   1.117   2.092  0.3747  0.1832  0.1553
  162SAPE   H2R18072   5.314   1.143   2.024 -0.8860 -0.0995  1.5527
  162SAPE   H2S18073   5.416   1.009   2.076  0.1962  0.3907 -1.7116
  162SAPE    C318074   5.770   1.360   2.151  0.0773  0.0934  0.5857
  162SAPE    HX18075   5.846   1.425   2.103  1.1963 -0.3777  1.6691
  162SAPE    HY18076   5.799   1.256   2.124 -0.9564 -0.1018  0.1495
  162SAPE   O3118077   5.754   1.384   2.294  0.0403 -0.4290 -0.2528
  162SAPE   C3118078   5.863   1.435   2.354  1.4288  0.1098  0.1201
  162SAPE   O3218079   5.972   1.468   2.310 -0.0692 -0.4657 -0.1268
  162SAPE   C3218080   5.823   1.441   2.502 -0.3986  0.4175 -0.9345
  162SAPE   H2X18081   5.805   1.337   2.536 -3.1007  2.0495  3.3231
  162SAPE   H2Y18082   5.727   1.496   2.507 -1.1829 -0.7715 -2.2094
  162SAPE   C2318083   5.335   1.122   2.233 -0.7321  0.3560 -0.0041
  162SAPE   H3R18084   5.228   1.102   2.211 -0.9217  1.4124 -0.0708
  162SAPE   H3S18085   5.339   1.223   2.278 -1.6249 -0.2282  1.4777
  162SAPE   C2418086   5.377   1.013   2.329  0.2089 -0.2301  0.4784
  162SAPE   H4R18087   5.352   0.918   2.278 -1.2314  1.1316 -1.4845
  162SAPE   H4S18088   5.319   1.016   2.424 -0.3287  2.2233  0.1428
  162SAPE   C2518089   5.526   1.015   2.358  0.1616  0.4970  1.0646
  162SAPE   H5R18090   5.592   1.002   2.271 -1.0891 -0.4416  0.2289
  162SAPE   C2618091   5.580   1.012   2.476 -0.1968 -0.2498  0.2738
  162SAPE   H6R18092   5.690   1.016   2.473 -0.2393  2.0976 -0.0625
  162SAPE   C2718093   5.514   1.020   2.616  0.6703  0.5316  0.4238
  162SAPE   H7R18094   5.555   0.943   2.685  0.0096  1.0470  1.4107
  162SAPE   H7S18095   5.408   0.988   2.614  1.7984 -3.7708 -0.5960
  162SAPE   C2818096   5.532   1.161   2.672 -0.5107  0.5885  0.6472
  162SAPE   H8R18097   5.517   1.245   2.603  1.0043 -1.4392 -2.3951
  162SAPE   C2918098   5.561   1.187   2.802 -0.6278  0.3631 -0.4797
  162SAPE   H9R18099   5.567   1.290   2.838  0.8203  0.2716 -0.3830
  162SAPE  C21018100   5.573   1.084   2.910  0.0803  0.2751 -0.6803
  162SAPE  H10R18101   5.682   1.068   2.924  0.0917  0.8343 -0.1080
  162SAPE  H10S18102   5.521   0.988   2.888 -0.9053 -0.2345  3.1850
  162SAPE  C21118103   5.532   1.141   3.046  0.0280  0.1436 -0.5440
  162SAPE  H11R18104   5.551   1.249   3.053 -0.6427  0.2205  0.1812
  162SAPE  C21218105   5.487   1.070   3.150  0.0317  0.8315 -0.0470
  162SAPE  H12R18106   5.462   1.127   3.240 -1.0771  1.8001 -0.9449
  162SAPE  C21318107   5.440   0.923   3.150  0.3224 -0.7275 -0.1021
  162SAPE  H13R18108   5.504   0.865   3.220 -0.3876 -1.9049 -0.3915
  162SAPE  H13S18109   5.469   0.878   3.052  3.2230 -0.6010  0.5933
  162SAPE  C21418110   5.287   0.899   3.173  0.6583  0.6259 -0.3722
  162SAPE  H14R18111   5.219   0.925   3.090  1.1702  1.5862 -0.5035
  162SAPE  C21518112   5.234   0.858   3.288 -0.2301  0.3161  0.0290
  162SAPE  H15R18113   5.129   0.827   3.292 -0.0830 -0.1258  0.5593
  162SAPE  C21618114   5.298   0.866   3.423  0.7662  0.1352  0.3550
  162SAPE  H16R18115   5.263   0.960   3.471  0.7957  0.3879 -0.1110
  162SAPE  H16S18116   5.409   0.869   3.428  0.7947  0.8471 -0.5047
  162SAPE  C21718117   5.260   0.747   3.517  0.4115  0.0183  0.8514
  162SAPE  H17R18118   5.311   0.655   3.482  0.9625 -0.6273  3.1761
  162SAPE  H17S18119   5.149   0.741   3.506  0.5430 -0.0105 -0.6269
  162SAPE  C21818120   5.283   0.774   3.668 -0.0928 -0.3721  0.8964
  162SAPE  H18R18121   5.391   0.788   3.686 -0.3017  2.9137  0.1275
  162SAPE  H18S18122   5.262   0.682   3.727  0.9992  0.1472  2.1368
  162SAPE  C21918123   5.225   0.890   3.742  0.0034  0.2663  0.3134
  162SAPE  H19R18124   5.248   0.984   3.688 -3.0784  2.0181  1.7907
  162SAPE  H19S18125   5.264   0.898   3.846  0.4004 -0.6906  0.2502
  162SAPE  C22018126   5.073   0.882   3.760 -0.5210  0.1078 -0.1491
  162SAPE  H20R18127   5.023   0.921   3.668  2.4850  1.5617 -1.3108
  162SAPE  H20S18128   5.035   0.921   3.857  0.5802 -1.5143  0.9883
  162SAPE  H20T18129   5.051   0.774   3.773 -2.2350  0.4951  0.4155
  162SAPE   C3318130   5.930   1.500   2.593  0.4068 -0.2333  0.6591
  162SAPE   H3X18131   5.962   1.596   2.548  0.0386 -0.9015 -1.1046
  162SAPE   H3Y18132   6.020   1.435   2.598  0.6469  0.1960  4.6385
  162SAPE   C3418133   5.889   1.501   2.742 -0.2465  0.0804 -0.2029
  162SAPE   H4X18134   5.863   1.397   2.772  0.5533  0.0510  0.4028
  162SAPE   H4Y18135   5.796   1.561   2.748 -1.1240 -0.9917 -2.0632
  162SAPE   C3518136   5.999   1.546   2.845  0.9583  0.1656  0.0526
  162SAPE   H5X18137   6.057   1.628   2.796  1.5335 -1.7001 -2.6342
  162SAPE   H5Y18138   6.067   1.459   2.860  0.0451 -0.1930  2.6086
  162SAPE   C3618139   5.952   1.589   2.985  0.3830 -0.3539  0.1795
  162SAPE   H6X18140   5.883   1.675   2.977  2.8795  1.9186  1.5152
  162SAPE   H6Y18141   6.036   1.622   3.050  0.5299 -0.0756 -0.1473
  162SAPE   C3718142   5.873   1.477   3.062 -0.0566  0.0324  0.0673
  162SAPE   H7X18143   5.929   1.383   3.079 -0.6457 -0.0610  1.6839
  162SAPE   H7Y18144   5.785   1.447   3.001  0.5901  0.1700 -0.9626
  162SAPE   C3818145   5.819   1.512   3.206  0.0714  0.8308 -0.1888
  162SAPE   H8X18146   5.783   1.617   3.204  0.3576  0.9546  0.8368
  162SAPE   H8Y18147   5.916   1.523   3.260 -0.0135 -1.2225  0.4738
  162SAPE   C3918148   5.730   1.397   3.268 -0.1912 -0.5240 -0.6270
  162SAPE   H9X18149   5.788   1.304   3.252  2.8027  1.3308 -1.4372
  162SAPE   H9Y18150   5.634   1.396   3.214 -1.2213  1.8225  0.9572
  162SAPE  C31018151   5.698   1.419   3.418 -0.0046 -0.4843  0.0074
  162SAPE  H10X18152   5.620   1.342   3.439 -1.6348  0.4369 -2.1728
  162SAPE  H10Y18153   5.644   1.514   3.436 -0.2085 -0.5651 -0.1727
  162SAPE  C31118154   5.808   1.394   3.516 -0.6099  0.7173 -0.5563
  162SAPE  H11X18155   5.900   1.446   3.481 -0.7134  0.2280 -1.5746
  162SAPE  H11Y18156   5.832   1.286   3.512  0.0080  0.7880  0.6459
  162SAPE  C31218157   5.772   1.416   3.667 -0.2649 -0.8377 -0.5933
  162SAPE  H12X18158   5.854   1.385   3.736 -0.1011 -0.6048 -0.6834
  162SAPE  H12Y18159   5.689   1.348   3.694  0.0680 -1.0667 -0.1342
  162SAPE  C31318160   5.736   1.566   3.697 -0.1178  0.7093  0.8329
  162SAPE  H13X18161   5.644   1.599   3.644  1.2212  1.9526 -0.8471
  162SAPE  H13Y18162   5.826   1.622   3.663 -0.0346 -0.8415 -1.7740
  162SAPE  C31418163   5.713   1.577   3.849 -0.0478  0.1491 -0.6578
  162SAPE  H14X18164   5.810   1.547   3.895  0.3393  2.2975  0.0293
  162SAPE  H14Y18165   5.640   1.506   3.894 -0.2529  0.5677 -0.3167
  162SAPE  C31518166   5.684   1.724   3.887 -0.7938  0.4193  0.3430
  162SAPE  H15X18167   5.757   1.777   3.822  1.0894 -1.2612  1.0069
  162SAPE  H15Y18168   5.725   1.722   3.990  2.3219 -1.6502 -0.7942
  162SAPE  C31618169   5.533   1.768   3.883  0.1561 -0.8461 -0.0530
  162SAPE  H16X18170   5.472   1.697   3.943  1.0090 -2.6074 -1.2017
  162SAPE  H16Y18171   5.511   1.763   3.774  0.6320 -1.8040 -0.1138
  162SAPE  C31718172   5.500   1.912   3.938 -0.2616 -0.2362 -0.1184
  162SAPE  H17X18173   5.471   1.909   4.045  0.5597  0.0566  0.1222
  162SAPE  H17Y18174   5.404   1.935   3.888 -0.5724 -0.9051  0.1706
  162SAPE  C31818175   5.601   2.016   3.901  0.5392 -0.0025  0.5164
  162SAPE  H18X18176   5.575   2.121   3.926  3.9729  1.0474  0.1730
  162SAPE  H18Y18177   5.624   2.008   3.793 -1.2472  2.6285 -0.1682
  162SAPE  H18Z18178   5.692   1.989   3.959 -0.2891 -1.4125  1.2238
  163SAPE     N18179   2.777   5.025   1.983  0.2765  0.3518  0.7588
  163SAPE   HN118180   2.850   5.095   2.008  1.5782 -0.3255 -0.9396
  163SAPE   HN218181   2.727   5.056   1.897  2.4660 -1.5887 -1.3774
  163SAPE   HN318182   2.703   5.040   2.054 -1.8038  1.9776 -1.5468
  163SAPE   C1218183   2.827   4.882   1.967  0.4467  0.1812  0.0832
  163SAPE  H12A18184   2.739   4.815   1.971 -0.7750  1.6532 -0.8382
  163SAPE  H12B18185   2.885   4.856   2.058  0.3040 -3.4200 -0.6983
  163SAPE   C1118186   2.920   4.853   1.848 -0.2391  0.0120  0.1720
  163SAPE  H11A18187   3.016   4.908   1.861  0.5784 -1.4271  0.4963
  163SAPE  H11B18188   2.864   4.877   1.755 -1.9613  0.7160  1.3499
  163SAPE     P18189   3.067   4.638   1.877  0.4234 -0.2858 -0.4438
  163SAPE   O1318190   3.051   4.499   1.832 -0.0908  0.1282 -0.2981
  163SAPE   O1418191   3.178   4.718   1.821 -0.1847  0.7240  0.1360
  163SAPE   O1218192   2.935   4.719   1.845  0.6723  1.1286 -0.5158
  163SAPE   O1118193   3.071   4.640   2.032  0.0305  0.0444 -0.4241
  163SAPE    C118194   3.190   4.617   2.113 -0.0754 -0.1658 -0.2158
  163SAPE    HA18195   3.282   4.636   2.053  0.8548  0.4522  1.3464
  163SAPE    HB18196   3.203   4.699   2.187 -0.6974  1.5237 -1.8674
  163SAPE    C218197   3.197   4.483   2.182  1.0767  0.2714 -0.5122
  163SAPE    HS18198   3.223   4.398   2.116 -0.1707  0.1770 -0.9020
  163SAPE   O2118199   3.063   4.462   2.251  0.2652  0.1496  0.3696
  163SAPE   C2118200   3.019   4.344   2.279  0.2595  0.0136 -0.6530
  163SAPE   O2218201   3.074   4.235   2.251 -0.1859 -0.8114 -0.0936
  163SAPE   C2218202   2.891   4.350   2.361  0.8450  0.8353  0.6038
  163SAPE   H2R18203   2.811   4.386   2.294 -1.9994 -0.5728  3.0064
  163SAPE   H2S18204   2.857   4.250   2.394 -1.1046  2.0658  2.5599
  163SAPE    C318205   3.312   4.494   2.292  0.2946 -0.0060 -0.5560
  163SAPE    HX18206   3.292   4.579   2.361  0.9001 -1.5799  1.6675
  163SAPE    HY18207   3.403   4.512   2.231 -1.8716  2.9683 -3.2389
  163SAPE   O3118208   3.321   4.365   2.358  0.2391  0.1644  0.0078
  163SAPE   C3118209   3.286   4.356   2.480  0.0544 -0.0123  0.2515
  163SAPE   O3218210   3.234   4.449   2.541  0.1696 -0.1561  0.3642
  163SAPE   C3218211   3.309   4.214   2.535  0.7280 -0.0140 -0.3966
  163SAPE   H2X18212   3.415   4.189   2.509  1.1882 -0.1030  1.4732
  163SAPE   H2Y18213   3.243   4.142   2.483  0.0833  1.0490 -1.0997
  163SAPE   C2318214   2.904   4.455   2.477  0.0220 -0.3167  0.4459
  163SAPE   H3R18215   2.944   4.548   2.432 -0.7537 -0.7118 -1.1036
  163SAPE   H3S18216   2.993   4.429   2.538  2.2339  0.7435 -2.1266
  163SAPE   C2418217   2.776   4.484   2.549  0.2066  0.0011 -0.6765
  163SAPE   H4R18218   2.695   4.506   2.476  0.2890 -0.4224 -0.8970
  163SAPE   H4S18219   2.787   4.582   2.600 -0.8523 -0.3063  0.1940
  163SAPE   C2518220   2.735   4.379   2.652 -0.1364  1.0893  0.3059
  163SAPE   H5R18221   2.648   4.320   2.620  1.2792 -0.6749 -0.4491
  163SAPE   C2618222   2.776   4.371   2.780  0.5984  0.0784  0.3316
  163SAPE   H6R18223   2.745   4.275   2.825  0.2526 -0.8061 -1.7058
  163SAPE   C2718224   2.885   4.448   2.848  0.4777  0.3541 -0.0816
  163SAPE   H7R18225   2.844   4.488   2.943 -0.4079  1.9385 -1.0750
  163SAPE   H7S18226   2.906   4.546   2.800  1.7436  0.8059  1.2941
  163SAPE   C2818227   3.018   4.385   2.850  0.1969 -0.1320 -0.2842
  163SAPE   H8R18228   3.046   4.350   2.750 -0.4989  0.2725 -0.6317
  163SAPE   C2918229   3.102   4.374   2.957  0.0534  1.1502 -0.6721
  163SAPE   H9R18230   3.194   4.316   2.940 -2.0622 -2.5578 -0.6361
  163SAPE  C21018231   3.077   4.426   3.097  0.2705  0.7093  0.2401
  163SAPE  H10R18232   2.978   4.476   3.104 -0.4007 -0.4887 -0.2183
  163SAPE  H10S18233   3.157   4.492   3.135 -0.1789  0.8939  0.8651
  163SAPE  C21118234   3.053   4.317   3.198  0.1430  0.2255  0.6821
  163SAPE  H11R18235   2.981   4.239   3.168 -0.0691 -0.0516  1.8841
  163SAPE  C21218236   3.094   4.318   3.323  0.4450  1.1467 -0.8938
  163SAPE  H12R18237   3.061   4.233   3.385 -1.6419  1.9632 -0.7896
  163SAPE  C21318238   3.192   4.414   3.400  0.2099 -0.1035 -0.1755
  163SAPE  H13R18239   3.144   4.486   3.470  0.0603 -1.4752  1.2017
  163SAPE  H13S18240   3.232   4.491   3.331  1.1527 -2.3366 -2.2990
  163SAPE  C21418241   3.318   4.373   3.469  0.1809 -0.1590  0.2940
  163SAPE  H14R18242   3.400   4.343   3.401  0.3366  1.2014 -0.1529
  163SAPE  C21518243   3.350   4.368   3.606  0.3821 -0.4056 -0.0850
  163SAPE  H15R18244   3.453   4.345   3.636  0.3972  0.4505  0.5716
  163SAPE  C21618245   3.266   4.410   3.721 -0.3211  0.2742  0.5043
  163SAPE  H16R18246   3.163   4.415   3.680  0.8994 -0.2441 -2.9457
  163SAPE  H16S18247   3.284   4.513   3.759  2.3509  0.2792 -0.5440
  163SAPE  C21718248   3.277   4.310   3.845  0.0696 -0.8181 -0.4477
  163SAPE  H17R18249   3.264   4.205   3.814  1.6770 -0.6488 -1.7998
  163SAPE  H17S18250   3.193   4.342   3.912  1.4761  2.9037 -0.1980
  163SAPE  C21818251   3.412   4.333   3.919  0.1443  0.0079 -0.1878
  163SAPE  H18R18252   3.423   4.438   3.953  0.6079 -0.7263  2.1302
  163SAPE  H18S18253   3.499   4.322   3.850 -1.4543 -1.2061 -2.1239
  163SAPE  C21918254   3.439   4.240   4.029 -0.7022 -0.0128 -0.4572
  163SAPE  H19R18255   3.414   4.135   4.007  0.7073 -0.6306  0.7198
  163SAPE  H19S18256   3.371   4.268   4.113  0.7232 -2.0199  1.4858
  163SAPE  C22018257   3.578   4.227   4.091 -0.7110  0.4492 -0.1778
  163SAPE  H20R18258   3.568   4.144   4.164  0.7314  0.5995  0.2060
  163SAPE  H20S18259   3.611   4.317   4.147  1.7590 -0.3110 -0.3136
  163SAPE  H20T18260   3.652   4.202   4.012 -2.6690  0.3991 -2.1163
  163SAPE   C3318261   3.304   4.207   2.691 -0.1950 -0.1859  0.2785
  163SAPE   H3X18262   3.207   4.242   2.733 -0.0611  1.9054 -0.9969
  163SAPE   H3Y18263   3.389   4.274   2.718 -1.0271  0.8604  0.3464
  163SAPE   C3418264   3.347   4.070   2.734 -0.3343  0.4980  0.4521
  163SAPE   H4X18265   3.443   4.047   2.682 -0.9740  0.0255 -0.5342
  163SAPE   H4Y18266   3.274   3.999   2.690  1.6465 -0.7324 -1.0706
  163SAPE   C3518267   3.368   4.046   2.885 -0.1482 -0.2804 -0.5167
  163SAPE   H5X18268   3.403   3.943   2.904  0.6856  0.4651  2.6479
  163SAPE   H5Y18269   3.264   4.055   2.923  0.6039  1.3209  1.3543
  163SAPE   C3618270   3.449   4.148   2.962  0.5481 -0.0344  0.2584
  163SAPE   H6X18271   3.391   4.240   2.984  2.5156  1.0460  1.1911
  163SAPE   H6Y18272   3.525   4.183   2.890  0.0124 -0.6880 -0.6420
  163SAPE   C3718273   3.509   4.096   3.090  0.3973 -0.0089  0.1421
  163SAPE   H7X18274   3.580   4.176   3.123  0.0416  0.8581 -1.0917
  163SAPE   H7Y18275   3.554   3.998   3.063 -0.3802 -0.1797 -0.5677
  163SAPE   C3818276   3.405   4.080   3.203  0.0094  0.2491  0.1214
  163SAPE   H8X18277   3.339   4.000   3.164 -2.5870  0.9272  2.7574
  163SAPE   H8Y18278   3.345   4.170   3.231  0.6925  0.1135  2.2191
  163SAPE   C3918279   3.456   4.033   3.335  0.3043  0.0281  0.1555
  163SAPE   H9X18280   3.522   4.108   3.383  2.5274  0.3435 -3.0365
  163SAPE   H9Y18281   3.512   3.937   3.342 -0.5200 -0.3263  3.8778
  163SAPE  C31018282   3.337   3.992   3.428  0.9832 -0.4470  0.0315
  163SAPE  H10X18283   3.276   3.913   3.380 -0.4221 -0.7461  2.1613
  163SAPE  H10Y18284   3.272   4.082   3.438  1.3908 -0.1929  0.4281
  163SAPE  C31118285   3.375   3.940   3.562  0.2836 -0.6730 -0.1557
  163SAPE  H11X18286   3.469   3.993   3.590  0.9538 -1.9924  0.1375
  163SAPE  H11Y18287   3.406   3.834   3.558  2.1789 -0.1329 -1.7973
  163SAPE  C31218288   3.262   3.940   3.668  0.0382 -0.1633 -0.2113
  163SAPE  H12X18289   3.172   3.896   3.621 -0.8327  1.1767  0.1535
  163SAPE  H12Y18290   3.215   4.032   3.707 -1.4097 -1.4442  1.2157
  163SAPE  C31318291   3.298   3.871   3.808  0.3125 -0.0209 -0.0297
  163SAPE  H13X18292   3.380   3.933   3.851 -0.4755  2.1214 -1.4673
  163SAPE  H13Y18293   3.334   3.768   3.786 -2.5279 -0.9723 -0.5781
  163SAPE  C31418294   3.181   3.854   3.907  0.5700  0.1595  0.4598
  163SAPE  H14X18295   3.102   3.786   3.869  1.6753  0.2261 -2.1996
  163SAPE  H14Y18296   3.142   3.954   3.934 -1.2350  0.4531 -2.7140
  163SAPE  C31518297   3.218   3.786   4.034 -0.7104 -0.6000  0.0629
  163SAPE  H15X18298   3.319   3.819   4.068 -0.7841  0.6224 -0.8550
  163SAPE  H15Y18299   3.215   3.677   4.014  1.0151 -1.3379  3.1455
  163SAPE  C31618300   3.115   3.817   4.153  0.2591 -0.0280  0.4272
  163SAPE  H16X18301   3.140   3.919   4.191  0.1486 -0.5013  1.8126
  163SAPE  H16Y18302   3.143   3.745   4.232 -1.9081  1.3567  2.6257
  163SAPE  C31718303   2.962   3.795   4.135 -0.2066 -0.4052  0.2802
  163SAPE  H17X18304   2.927   3.866   4.057  1.2134 -0.2376 -0.2427
  163SAPE  H17Y18305   2.925   3.828   4.235  0.6420  0.0217  0.4671
  163SAPE  C31818306   2.907   3.657   4.111 -1.3192  0.1075 -0.6601
  163SAPE  H18X18307   2.815   3.660   4.049 -1.1951  1.4304 -0.8063
  163SAPE  H18Y18308   2.871   3.617   4.208  0.5525  1.5032  0.6910
  163SAPE  H18Z18309   2.981   3.589   4.063 -3.0506 -0.3694 -2.8222
  164SAPE     N18310   3.580   6.186   1.897 -0.8218  0.2787 -0.5689
  164SAPE   HN118311   3.586   6.115   1.821 -1.9582 -0.0313 -0.3831
  164SAPE   HN218312   3.615   6.272   1.851  0.5966 -0.5837 -1.1648
  164SAPE   HN318313   3.641   6.172   1.981 -1.2437  1.9617  0.0635
  164SAPE   C1218314   3.443   6.190   1.950  0.1828  0.3513  0.1239
  164SAPE  H12A18315   3.373   6.234   1.875 -0.9452 -1.1168  0.2651
  164SAPE  H12B18316   3.440   6.263   2.034  0.4762  1.4733 -0.8060
  164SAPE   C1118317   3.395   6.057   1.980 -0.0224 -0.3597  0.2302
  164SAPE  H11A18318   3.362   6.009   1.885 -0.7662  2.3764 -0.9985
  164SAPE  H11B18319   3.312   6.066   2.053  0.5631 -0.6403  0.9452
  164SAPE     P18320   3.458   5.825   2.094  0.2095 -0.2389 -0.4890
  164SAPE   O1318321   3.423   5.740   1.981  0.1892 -0.2816  0.0587
  164SAPE   O1418322   3.559   5.767   2.192 -0.5050 -0.0570  0.2154
  164SAPE   O1218323   3.493   5.975   2.047 -0.4857 -0.0498  0.3710
  164SAPE   O1118324   3.321   5.855   2.174 -0.1897  0.7920  0.2098
  164SAPE    C118325   3.323   5.902   2.300  0.1487  0.6783 -0.9279
  164SAPE    HA18326   3.422   5.910   2.349 -0.0817  0.2275 -0.3798
  164SAPE    HB18327   3.265   5.997   2.292 -1.8227 -0.4883 -1.2445
  164SAPE    C218328   3.242   5.808   2.394  0.0013  0.1692 -0.6245
  164SAPE    HS18329   3.150   5.774   2.342 -1.9780  1.8556  1.5311
  164SAPE   O2118330   3.210   5.864   2.523 -0.2603 -0.4793  1.0017
  164SAPE   C2118331   3.106   5.940   2.529 -0.5502 -0.8596 -0.4035
  164SAPE   O2218332   3.031   5.964   2.435  0.3336  0.0788 -0.0035
  164SAPE   C2218333   3.086   5.993   2.672  0.4054 -0.1264  0.0562
  164SAPE   H2R18334   3.054   6.099   2.676 -0.5865 -0.3719 -0.9792
  164SAPE   H2S18335   2.995   5.939   2.706 -1.6024  3.3427  0.7355
  164SAPE    C318336   3.327   5.679   2.420  0.1753 -0.5355  0.2773
  164SAPE    HX18337   3.436   5.698   2.429  0.3708 -2.0527  1.4962
  164SAPE    HY18338   3.311   5.607   2.337 -0.5587  0.1973 -0.2251
  164SAPE   O3118339   3.281   5.605   2.535 -0.7450  0.3625 -0.1786
  164SAPE   C3118340   3.374   5.517   2.580  0.1090 -0.1747 -0.0028
  164SAPE   O3218341   3.486   5.506   2.530  0.1295  0.0471 -0.0085
  164SAPE   C3218342   3.328   5.432   2.696 -0.4039 -0.3357 -0.2567
  164SAPE   H2X18343   3.295   5.330   2.670 -0.9193 -0.0943 -0.5721
  164SAPE   H2Y18344   3.239   5.480   2.743  0.1900  1.6654 -1.0730
  164SAPE   C2318345   3.201   5.962   2.774  0.6647 -0.4123  0.2285
  164SAPE   H3R18346   3.282   6.026   2.735  0.7963  0.0470  1.2334
  164SAPE   H3S18347   3.227   5.854   2.774  2.3820 -0.0199  0.7802
  164SAPE   C2418348   3.184   5.997   2.922  0.2123 -0.0841  0.1661
  164SAPE   H4R18349   3.178   6.108   2.921  2.2960  0.0702 -1.2248
  164SAPE   H4S18350   3.275   5.977   2.984  0.6493 -0.5991 -0.6269
  164SAPE   C2518351   3.067   5.935   2.988  0.4562  0.1088 -0.9022
  164SAPE   H5R18352   2.970   5.988   2.994  0.7388  0.8160 -2.1757
  164SAPE   C2618353   3.066   5.814   3.050  0.1985 -0.0292  0.2793
  164SAPE   H6R18354   2.973   5.784   3.101  1.9768 -1.5852  2.8585
  164SAPE   C2718355   3.185   5.727   3.060 -0.1513 -0.0831  0.0242
  164SAPE   H7R18356   3.247   5.766   3.143 -1.0158  0.3436  0.4888
  164SAPE   H7S18357   3.244   5.737   2.966  0.7679  0.4580  0.6449
  164SAPE   C2818358   3.143   5.587   3.079 -0.2987  0.4253 -0.0835
  164SAPE   H8R18359   3.106   5.532   2.991  0.2781 -0.7323  0.3860
  164SAPE   C2918360   3.152   5.519   3.194 -0.4564 -0.7434  0.8645
  164SAPE   H9R18361   3.126   5.413   3.200 -0.0619 -0.8737  0.2582
  164SAPE  C21018362   3.190   5.577   3.327 -0.0868  0.1685 -0.0654
  164SAPE  H10R18363   3.169   5.685   3.342 -0.6072  0.3536 -1.8605
  164SAPE  H10S18364   3.298   5.559   3.347 -0.8488 -0.5762  4.4601
  164SAPE  C21118365   3.129   5.520   3.450  0.1801 -0.3110 -0.0214
  164SAPE  H11R18366   3.144   5.411   3.449  1.8716 -0.1379 -3.1470
  164SAPE  C21218367   3.061   5.578   3.550 -0.7543  0.3853 -0.1631
  164SAPE  H12R18368   3.042   5.512   3.636 -1.4587  1.0506  0.2019
  164SAPE  C21318369   3.031   5.722   3.577 -0.1310  0.1046 -0.0813
  164SAPE  H13R18370   2.956   5.759   3.504 -1.8262 -0.3618  1.3402
  164SAPE  H13S18371   3.119   5.788   3.561 -0.4099  0.5374  0.1465
  164SAPE  C21418372   2.982   5.744   3.716 -0.0693 -0.0292  0.3627
  164SAPE  H14R18373   2.892   5.686   3.740 -1.9057  1.0023 -3.3055
  164SAPE  C21518374   3.014   5.847   3.799  0.4540  0.4038  0.7383
  164SAPE  H15R18375   2.968   5.857   3.899 -0.3899 -1.1798  0.5460
  164SAPE  C21618376   3.120   5.953   3.770  0.0980  0.4072 -0.4452
  164SAPE  H16R18377   3.168   5.933   3.671  0.4430 -1.1954  0.0308
  164SAPE  H16S18378   3.197   5.954   3.850 -0.9600  0.3809  0.5960
  164SAPE  C21718379   3.064   6.088   3.760 -0.2955 -0.8506 -0.0700
  164SAPE  H17R18380   3.039   6.132   3.859 -2.5027  0.4403 -1.1028
  164SAPE  H17S18381   2.975   6.097   3.693 -0.6263 -1.6100  0.2647
  164SAPE  C21818382   3.174   6.179   3.699  0.1107 -0.2961 -0.2135
  164SAPE  H18R18383   3.206   6.138   3.600 -0.2453 -2.2459  0.4417
  164SAPE  H18S18384   3.258   6.173   3.771 -0.3926 -1.1197  0.3176
  164SAPE  C21918385   3.117   6.324   3.698 -0.1364 -0.4783  0.0463
  164SAPE  H19R18386   3.111   6.369   3.800  0.1541 -0.8104  0.2142
  164SAPE  H19S18387   3.011   6.308   3.671 -0.7899 -0.9307  2.5606
  164SAPE  C22018388   3.180   6.413   3.596 -0.7058  0.2509  0.0103
  164SAPE  H20R18389   3.265   6.464   3.646  1.2736 -3.0721  0.3906
  164SAPE  H20S18390   3.109   6.492   3.565  2.4728  2.9984 -0.8913
  164SAPE  H20T18391   3.224   6.350   3.515 -0.4861 -1.4443  1.3823
  164SAPE   C3318392   3.438   5.417   2.811 -0.7367  0.2601 -0.7654
  164SAPE   H3X18393   3.446   5.514   2.865 -0.9752  0.2709 -0.7442
  164SAPE   H3Y18394   3.539   5.397   2.771 -0.1670  0.6732  0.4357
  164SAPE   C3418395   3.402   5.316   2.915  0.2025  0.4049 -0.2381
  164SAPE   H4X18396   3.378   5.220   2.864  1.2933  0.9246 -1.8299
  164SAPE   H4Y18397   3.332   5.357   2.991  0.0393 -0.0174 -0.1605
  164SAPE   C3518398   3.526   5.273   3.003 -0.4672  0.1025 -0.0489
  164SAPE   H5X18399   3.612   5.234   2.944  0.5678 -1.5908  2.3949
  164SAPE   H5Y18400   3.490   5.184   3.059  0.1578 -1.0514 -1.3953
  164SAPE   C3618401   3.574   5.365   3.108  0.1843  0.9301  0.2094
  164SAPE   H6X18402   3.507   5.445   3.145  1.5485  1.5043  1.5417
  164SAPE   H6Y18403   3.662   5.416   3.064  1.8454 -0.5422  1.6596
  164SAPE   C3718404   3.629   5.290   3.239  0.3819 -0.6134  0.4037
  164SAPE   H7X18405   3.719   5.347   3.270 -0.1514  0.4413  0.0851
  164SAPE   H7Y18406   3.662   5.191   3.201  1.4017 -0.5013  0.9603
  164SAPE   C3818407   3.534   5.282   3.353 -0.1921 -0.2814 -0.0176
  164SAPE   H8X18408   3.573   5.208   3.427 -1.1945 -1.6793 -0.8524
  164SAPE   H8Y18409   3.437   5.246   3.313 -0.3310 -0.6672  0.6375
  164SAPE   C3918410   3.514   5.407   3.432  0.8938 -0.2984  0.0327
  164SAPE   H9X18411   3.417   5.394   3.485  0.8362  1.3320  0.3686
  164SAPE   H9Y18412   3.501   5.493   3.363 -0.5842 -1.8397 -1.6844
  164SAPE  C31018413   3.628   5.443   3.530 -0.8122  0.9657  1.0724
  164SAPE  H10X18414   3.725   5.442   3.476 -1.1116 -1.5088  0.4508
  164SAPE  H10Y18415   3.641   5.355   3.596 -2.5404  0.6308  1.0185
  164SAPE  C31118416   3.612   5.570   3.599  0.2680 -0.5507  0.0922
  164SAPE  H11X18417   3.604   5.642   3.515 -1.4243 -1.9597 -1.0371
  164SAPE  H11Y18418   3.701   5.587   3.663  1.3892 -1.6406 -1.1345
  164SAPE  C31218419   3.486   5.599   3.691 -0.4743  0.0275  0.4505
  164SAPE  H12X18420   3.462   5.506   3.748 -0.7700 -1.4176 -1.9078
  164SAPE  H12Y18421   3.396   5.621   3.630 -0.5291 -1.9289 -0.2679
  164SAPE  C31318422   3.498   5.718   3.789 -0.2274  0.1169  0.0587
  164SAPE  H13X18423   3.395   5.747   3.820  0.2258  1.5809  0.2957
  164SAPE  H13Y18424   3.547   5.809   3.747  2.0475 -0.2563  1.7044
  164SAPE  C31418425   3.578   5.687   3.917 -0.0742 -0.3210 -0.4351
  164SAPE  H14X18426   3.686   5.696   3.892  0.0214 -0.3313 -0.0402
  164SAPE  H14Y18427   3.561   5.580   3.944  1.2373 -0.1624  1.1595
  164SAPE  C31518428   3.558   5.781   4.034  0.2888  0.3381  0.4779
  164SAPE  H15X18429   3.557   5.885   3.997  0.6826 -0.0613 -0.6784
  164SAPE  H15Y18430   3.647   5.765   4.099  3.7683  3.1006 -3.1806
  164SAPE  C31618431   3.427   5.756   4.110  0.5249 -0.1033 -0.0241
  164SAPE  H16X18432   3.340   5.747   4.042  1.0106 -3.1666 -0.3496
  164SAPE  H16Y18433   3.410   5.838   4.183  0.7556 -0.0537 -0.0240
  164SAPE  C31718434   3.418   5.618   4.179 -0.0022 -0.5617  0.1683
  164SAPE  H17X18435   3.514   5.613   4.236  0.8025  0.0651 -1.0954
  164SAPE  H17Y18436   3.408   5.528   4.115  0.3809 -1.7916  1.7626
  164SAPE  C31818437   3.299   5.612   4.276  0.1650  0.3700 -0.1005
  164SAPE  H18X18438   3.202   5.611   4.222  0.8996  1.1422 -1.5029
  164SAPE  H18Y18439   3.306   5.699   4.345 -0.2272 -0.6510  1.2753
  164SAPE  H18Z18440   3.298   5.523   4.342 -0.7206 -2.3504 -3.4733
  165SAPE     N18441   1.912   1.775   1.909 -0.6947  0.1756  0.7198
  165SAPE   HN118442   1.843   1.763   1.986 -0.1389  1.7174  1.5228
  165SAPE   HN218443   1.989   1.825   1.959 -0.2074  0.7748 -0.5868
  165SAPE   HN318444   1.876   1.823   1.824 -0.0722 -2.3565 -1.0898
  165SAPE   C1218445   1.975   1.644   1.867 -0.1374  0.2073  0.0396
  165SAPE  H12A18446   2.070   1.681   1.823 -0.6912  0.0581 -1.3406
  165SAPE  H12B18447   1.918   1.591   1.788  0.5002  3.1486 -2.6084
  165SAPE   C1118448   2.014   1.553   1.990  0.0173 -0.3938 -0.0376
  165SAPE  H11A18449   2.075   1.473   1.943  2.3329  2.3241 -1.9886
  165SAPE  H11B18450   1.911   1.525   2.021 -0.8605  0.4611 -2.0261
  165SAPE     P18451   2.086   1.579   2.239 -0.0981 -0.3951 -0.1936
  165SAPE   O1318452   2.154   1.449   2.229 -0.1401  0.8389 -0.0910
  165SAPE   O1418453   2.139   1.682   2.338  0.4203  0.0141  0.4217
  165SAPE   O1218454   2.074   1.639   2.093 -0.2573  0.2421  0.2102
  165SAPE   O1118455   1.929   1.556   2.271 -0.2144  0.0451  1.0332
  165SAPE    C118456   1.842   1.665   2.297 -0.5184  0.2183  0.3584
  165SAPE    HA18457   1.870   1.757   2.241  2.5219 -0.8482 -0.0042
  165SAPE    HB18458   1.740   1.638   2.261  0.4614  0.1948 -2.7075
  165SAPE    C218459   1.854   1.711   2.446  0.9733  0.5996 -0.0006
  165SAPE    HS18460   1.959   1.730   2.476  0.4339  0.0859  2.4050
  165SAPE   O2118461   1.792   1.609   2.525 -0.2833  0.1310  0.5959
  165SAPE   C2118462   1.844   1.579   2.646 -0.9597  0.0356 -0.1513
  165SAPE   O2218463   1.954   1.614   2.686  0.3235  0.7833  0.2832
  165SAPE   C2218464   1.759   1.470   2.705 -0.6937 -0.4173  0.0166
  165SAPE   H2R18465   1.729   1.401   2.623  0.4539  0.1130 -0.8817
  165SAPE   H2S18466   1.836   1.418   2.765  1.0348 -0.7155 -2.3054
  165SAPE    C318467   1.777   1.839   2.472  0.6785 -0.1846 -0.2952
  165SAPE    HX18468   1.668   1.817   2.463  0.7121  0.2544 -2.0883
  165SAPE    HY18469   1.812   1.916   2.401  0.4449 -0.3732 -0.6156
  165SAPE   O3118470   1.799   1.889   2.610  0.0097  0.0623  0.2349
  165SAPE   C3118471   1.920   1.949   2.635 -0.0132 -0.3937  0.1439
  165SAPE   O3218472   2.003   1.974   2.548 -0.2957  0.1282 -0.2185
  165SAPE   C3218473   1.935   1.984   2.788 -0.8743 -0.0884  0.0825
  165SAPE   H2X18474   1.992   2.079   2.799  1.4869 -1.6254  2.1939
  165SAPE   H2Y18475   1.997   1.897   2.817  0.4294  0.4933 -0.8596
  165SAPE   C2318476   1.643   1.522   2.792  0.1627 -0.1421 -0.1024
  165SAPE   H3R18477   1.585   1.594   2.731 -0.2734  0.3184  0.8453
  165SAPE   H3S18478   1.689   1.572   2.880 -1.6005  3.0239 -0.8249
  165SAPE   C2418479   1.544   1.406   2.833  0.1598 -0.6382 -0.5194
  165SAPE   H4R18480   1.536   1.334   2.749 -3.0341 -1.5567  0.4439
  165SAPE   H4S18481   1.440   1.444   2.834  0.2139 -0.4850  0.6133
  165SAPE   C2518482   1.585   1.343   2.959  0.0685  0.5346  0.0254
  165SAPE   H5R18483   1.673   1.277   2.950  0.7398  1.2741  0.9053
  165SAPE   C2618484   1.519   1.331   3.069  0.1408 -0.0873 -0.4636
  165SAPE   H6R18485   1.559   1.269   3.151 -1.1287  0.0728  0.2937
  165SAPE   C2718486   1.385   1.389   3.116 -0.6347  0.5094  0.5091
  165SAPE   H7R18487   1.390   1.500   3.122  1.9622  0.3912  1.9762
  165SAPE   H7S18488   1.382   1.353   3.221  1.9476  1.3169  0.9324
  165SAPE   C2818489   1.260   1.339   3.045  0.0534  0.2204  0.2324
  165SAPE   H8R18490   1.274   1.250   2.982  2.8947  0.8691 -0.1709
  165SAPE   C2918491   1.134   1.397   3.048 -0.1464 -0.3261 -0.0870
  165SAPE   H9R18492   1.057   1.337   2.997  1.7976 -1.7752 -1.4794
  165SAPE  C21018493   1.087   1.520   3.125 -0.2573  0.3902 -0.5415
  165SAPE  H10R18494   0.998   1.573   3.086 -2.4673 -2.1868  0.6836
  165SAPE  H10S18495   1.172   1.592   3.133  0.4206 -0.6127  3.0192
  165SAPE  C21118496   1.064   1.494   3.275  0.2384 -0.9194 -0.0562
  165SAPE  H11R18497   1.150   1.473   3.340 -0.0509  1.3744  1.1317
  165SAPE  C21218498   0.942   1.495   3.332 -0.0106 -0.7835 -0.9751
  165SAPE  H12R18499   0.929   1.477   3.440 -1.4307  2.7148 -0.4351
  165SAPE  C21318500   0.801   1.520   3.275  0.3160  0.4457 -0.3320
  165SAPE  H13R18501   0.733   1.447   3.323  0.3970 -0.3536 -1.3900
  165SAPE  H13S18502   0.811   1.495   3.167  3.4790  0.1068 -0.0445
  165SAPE  C21418503   0.757   1.660   3.303 -0.2716  0.3940  0.0581
  165SAPE  H14R18504   0.839   1.727   3.333 -2.0215  1.3179  3.2523
  165SAPE  C21518505   0.632   1.707   3.308  0.2773  0.3748 -0.3078
  165SAPE  H15R18506   0.613   1.811   3.337 -0.1945  0.6130 -1.4062
  165SAPE  C21618507   0.506   1.624   3.289  0.3905 -0.0500 -0.8286
  165SAPE  H16R18508   0.465   1.610   3.391  3.2474  2.0885  0.7558
  165SAPE  H16S18509   0.536   1.528   3.242 -0.1238 -1.7232  2.0569
  165SAPE  C21718510   0.393   1.678   3.196 -0.2281 -0.2722  0.8239
  165SAPE  H17R18511   0.450   1.686   3.101  2.3007 -0.0485  2.2518
  165SAPE  H17S18512   0.348   1.778   3.215  2.0827  1.3015 -1.3163
  165SAPE  C21818513   0.279   1.581   3.173  0.2015 -0.5073 -0.0080
  165SAPE  H18R18514   0.224   1.580   3.269  0.2136  0.2108  0.0123
  165SAPE  H18S18515   0.324   1.483   3.145 -1.3606 -1.1980 -0.2353
  165SAPE  C21918516   0.187   1.617   3.056  0.6495 -0.1932 -0.4875
  165SAPE  H19R18517   0.136   1.529   3.011  2.5530 -0.6146 -1.9483
  165SAPE  H19S18518   0.257   1.652   2.977  1.5852 -0.4278  0.2141
  165SAPE  C22018519   0.075   1.729   3.072  0.1802  1.1509 -0.2222
  165SAPE  H20R18520   0.131   1.814   3.116 -0.2688  2.0703 -1.3864
  165SAPE  H20S18521   0.000   1.718   3.154  1.1528 -1.7709  0.3706
  165SAPE  H20T18522   0.020   1.747   2.978  0.1960 -0.3232 -0.5314
  165SAPE   C3318523   1.811   1.992   2.881  0.8154  0.1057  0.1812
  165SAPE   H3X18524   1.727   2.044   2.831 -0.0267 -1.6471 -0.3355
  165SAPE   H3Y18525   1.836   2.057   2.967  0.6320  0.4662 -0.0358
  165SAPE   C3418526   1.756   1.857   2.938  0.7130 -0.2256 -0.1661
  165SAPE   H4X18527   1.844   1.808   2.986 -0.0355 -1.6576 -0.1796
  165SAPE   H4Y18528   1.714   1.796   2.855  0.7488 -1.2005  0.5126
  165SAPE   C3518529   1.641   1.892   3.042 -0.0698  0.2538  0.8970
  165SAPE   H5X18530   1.544   1.929   3.002 -0.8209  0.5158  2.8765
  165SAPE   H5Y18531   1.681   1.980   3.096 -1.1786  1.2704  0.1365
  165SAPE   C3618532   1.603   1.770   3.132  0.8969  0.2468  0.3062
  165SAPE   H6X18533   1.699   1.720   3.158  1.5230  1.6477  0.8253
  165SAPE   H6Y18534   1.534   1.704   3.076  0.7319 -0.4992  1.3458
  165SAPE   C3718535   1.539   1.820   3.263 -0.0803 -0.2168  0.2733
  165SAPE   H7X18536   1.598   1.910   3.290 -0.8704  0.7433 -1.0924
  165SAPE   H7Y18537   1.563   1.741   3.337  1.8008 -0.5377 -0.6221
  165SAPE   C3818538   1.388   1.837   3.259 -0.2267  0.2560 -0.1369
  165SAPE   H8X18539   1.337   1.744   3.228  1.0364 -0.4997 -0.0332
  165SAPE   H8Y18540   1.384   1.924   3.190  1.6828  0.4964 -0.0194
  165SAPE   C3918541   1.331   1.879   3.395 -0.3289 -0.9843 -0.4038
  165SAPE   H9X18542   1.225   1.911   3.387  0.4757  1.7112 -1.3736
  165SAPE   H9Y18543   1.382   1.972   3.429 -0.1524 -1.3735  0.4154
  165SAPE  C31018544   1.332   1.772   3.498  0.0150  0.0483 -0.7634
  165SAPE  H10X18545   1.435   1.761   3.537  0.5667  0.5640 -1.9959
  165SAPE  H10Y18546   1.297   1.678   3.451 -1.0433  0.3686 -0.6348
  165SAPE  C31118547   1.228   1.784   3.611  0.4273 -0.1649 -0.0911
  165SAPE  H11X18548   1.222   1.693   3.674 -1.1658  1.0536  1.6075
  165SAPE  H11Y18549   1.126   1.786   3.568 -0.6257  0.7026  2.2922
  165SAPE  C31218550   1.252   1.907   3.703  0.8009 -0.5731 -0.5846
  165SAPE  H12X18551   1.224   1.998   3.645  2.2796 -0.9160 -1.8888
  165SAPE  H12Y18552   1.360   1.906   3.731  0.3541 -1.7613  1.3132
  165SAPE  C31318553   1.167   1.901   3.829 -0.0481 -0.2153 -0.3043
  165SAPE  H13X18554   1.193   1.990   3.889  0.8734 -1.2831  0.9435
  165SAPE  H13Y18555   1.197   1.814   3.891 -0.0018  0.8047  1.1300
  165SAPE  C31418556   1.016   1.893   3.802  0.6970  0.0810  0.3047
  165SAPE  H14X18557   0.991   1.792   3.763  2.8217 -0.5101  0.3502
  165SAPE  H14Y18558   1.000   1.968   3.722  2.4466 -1.5322 -1.6577
  165SAPE  C31518559   0.934   1.927   3.926 -0.1240  0.2504  0.0355
  165SAPE  H15X18560   0.827   1.944   3.901 -0.1371  2.0509  1.0637
  165SAPE  H15Y18561   0.974   2.025   3.960  0.8365 -0.2476  0.3754
  165SAPE  C31618562   0.952   1.830   4.047 -1.0925 -0.1827  0.2088
  165SAPE  H16X18563   1.057   1.836   4.085 -0.9218  2.6630 -0.5053
  165SAPE  H16Y18564   0.926   1.732   4.002 -1.3987 -0.1612  0.3404
  165SAPE  C31718565   0.847   1.861   4.152  0.0703  0.3071  0.2672
  165SAPE  H17X18566   0.751   1.868   4.096  0.1089 -0.7221  0.0494
  165SAPE  H17Y18567   0.885   1.955   4.196  0.7258  0.5193 -0.7187
  165SAPE  C31818568   0.834   1.759   4.268 -0.2726 -0.4461 -0.0013
  165SAPE  H18X18569   0.838   1.655   4.228 -1.4453 -0.9189  1.0394
  165SAPE  H18Y18570   0.731   1.776   4.306 -0.7645 -2.3605 -0.3324
  165SAPE  H18Z18571   0.912   1.765   4.346  0.0744 -2.6244 -0.1082
  166SAPE     N18572   3.142   6.504   1.485  0.9017 -0.2405 -0.5288
  166SAPE   HN118573   3.236   6.462   1.480  0.4173 -1.2135 -3.2602
  166SAPE   HN218574   3.135   6.590   1.426 -0.0297 -1.0948 -1.7099
  166SAPE   HN318575   3.130   6.541   1.581  2.4110  1.9834 -1.1151
  166SAPE   C1218576   3.036   6.398   1.454  0.7580  0.2762  0.3695
  166SAPE  H12A18577   3.079   6.326   1.382 -1.0735 -0.5148  0.0340
  166SAPE  H12B18578   2.956   6.449   1.396  1.0379 -0.0830 -0.3344
  166SAPE   C1118579   2.978   6.338   1.579 -0.2757 -0.2772  0.7788
  166SAPE  H11A18580   3.048   6.270   1.633 -0.2311  0.8655  2.2134
  166SAPE  H11B18581   2.890   6.275   1.553  1.5245 -2.5002 -0.3079
  166SAPE     P18582   2.807   6.436   1.761 -0.7520 -0.3533  0.1275
  166SAPE   O1318583   2.748   6.569   1.740  0.0313  0.4678  0.2380
  166SAPE   O1418584   2.730   6.309   1.739  0.1773 -0.1664 -0.1326
  166SAPE   O1218585   2.945   6.438   1.672  0.2312 -0.8378 -0.0723
  166SAPE   O1118586   2.862   6.438   1.911  0.3772 -0.2074  0.5128
  166SAPE    C118587   2.882   6.305   1.978 -0.4765 -0.0012  0.6407
  166SAPE    HA18588   2.790   6.257   2.019 -1.5946  1.5784  0.1071
  166SAPE    HB18589   2.926   6.230   1.909 -1.6010  0.0394 -0.1353
  166SAPE    C218590   2.983   6.305   2.104 -0.1645  1.0460  0.5352
  166SAPE    HS18591   2.996   6.201   2.139 -1.2764  0.1998 -1.4272
  166SAPE   O2118592   2.931   6.392   2.211 -0.6863 -0.1720  0.2372
  166SAPE   C2118593   2.845   6.343   2.288  0.5029  0.5675 -0.1108
  166SAPE   O2218594   2.791   6.233   2.277 -0.3696 -0.4299  0.3454
  166SAPE   C2218595   2.805   6.440   2.396  0.3023  0.0685  0.1952
  166SAPE   H2R18596   2.785   6.542   2.356  0.2472 -0.6714 -1.7663
  166SAPE   H2S18597   2.719   6.401   2.454  0.2442 -1.2191 -0.7226
  166SAPE    C318598   3.110   6.353   2.046 -0.8041  0.5738 -0.8702
  166SAPE    HX18599   3.113   6.453   1.998  1.4325  0.0247 -2.0372
  166SAPE    HY18600   3.137   6.279   1.967  0.2815 -1.9920  1.7063
  166SAPE   O3118601   3.220   6.336   2.141 -0.2243 -0.3233  0.2878
  166SAPE   C3118602   3.252   6.440   2.203 -0.3173  0.3187  0.0939
  166SAPE   O3218603   3.204   6.557   2.195  0.2808  0.4777  0.5914
  166SAPE   C3218604   3.360   6.419   2.303 -0.5526 -0.7854 -0.2665
  166SAPE   H2X18605   3.341   6.504   2.371 -0.6969  0.6402 -2.0051
  166SAPE   H2Y18606   3.455   6.434   2.247  0.0101 -0.3706  0.7668
  166SAPE   C2318607   2.911   6.465   2.505 -0.1249  0.9206 -0.0501
  166SAPE   H3R18608   2.876   6.544   2.576 -0.6972  0.8164 -0.2118
  166SAPE   H3S18609   3.004   6.498   2.455 -0.3435  0.6414 -0.6492
  166SAPE   C2418610   2.963   6.336   2.590  0.2452 -0.1688  0.7480
  166SAPE   H4R18611   3.023   6.284   2.512 -0.8532 -1.5104  0.7521
  166SAPE   H4S18612   2.888   6.256   2.608  0.6209 -1.5312 -2.8034
  166SAPE   C2518613   3.031   6.394   2.714 -0.4292  0.3049  0.7587
  166SAPE   H5R18614   3.132   6.437   2.701 -0.1400 -1.1201 -3.3677
  166SAPE   C2618615   2.983   6.387   2.838 -0.2301 -0.6995 -0.3178
  166SAPE   H6R18616   3.042   6.425   2.923 -0.8208 -0.1396 -0.1524
  166SAPE   C2718617   2.858   6.324   2.885 -0.0608 -0.2999 -0.9445
  166SAPE   H7R18618   2.888   6.297   2.989 -0.7329  2.0502 -0.0824
  166SAPE   H7S18619   2.840   6.227   2.835 -0.7347 -0.4196 -0.4745
  166SAPE   C2818620   2.724   6.394   2.888  0.8362  0.5766  0.0040
  166SAPE   H8R18621   2.706   6.470   2.811  2.4517  0.4521 -0.5526
  166SAPE   C2918622   2.623   6.374   2.981 -0.4138  0.7619 -0.3326
  166SAPE   H9R18623   2.527   6.427   2.984 -1.6388 -1.3640 -0.0681
  166SAPE  C21018624   2.620   6.274   3.087  0.4815 -0.1100  0.3544
  166SAPE  H10R18625   2.674   6.182   3.054  0.6512  0.4006 -0.8492
  166SAPE  H10S18626   2.513   6.246   3.104  0.3635  0.0400 -0.1420
  166SAPE  C21118627   2.682   6.317   3.218 -0.4452  0.8136 -0.0081
  166SAPE  H11R18628   2.787   6.347   3.206 -0.1384 -0.4370 -0.6109
  166SAPE  C21218629   2.619   6.347   3.337  0.6978  0.5354 -0.8463
  166SAPE  H12R18630   2.671   6.363   3.432 -1.9224  2.0560  0.4352
  166SAPE  C21318631   2.474   6.328   3.363  0.5071 -0.1021  0.4105
  166SAPE  H13R18632   2.449   6.220   3.367 -1.6411  0.2972 -0.7109
  166SAPE  H13S18633   2.415   6.370   3.278 -1.6632 -4.8319 -0.7293
  166SAPE  C21418634   2.422   6.394   3.489 -0.3769  0.7298 -0.1569
  166SAPE  H14R18635   2.352   6.477   3.473  0.5045  1.7006  0.8838
  166SAPE  C21518636   2.440   6.349   3.612  0.0046  0.0233  0.2556
  166SAPE  H15R18637   2.408   6.411   3.697 -0.8483  0.5926 -0.4640
  166SAPE  C21618638   2.526   6.227   3.648  0.4410  0.0466 -0.1371
  166SAPE  H16R18639   2.614   6.265   3.705  2.0739  1.5583 -3.4032
  166SAPE  H16S18640   2.574   6.182   3.559  0.6908 -0.5053  0.2710
  166SAPE  C21718641   2.446   6.124   3.725 -0.3460 -0.7454  0.3487
  166SAPE  H17R18642   2.397   6.164   3.816  1.8558 -0.4679  1.4727
  166SAPE  H17S18643   2.518   6.051   3.768  2.2333  2.1724  1.3641
  166SAPE  C21818644   2.346   6.054   3.642 -0.0782  0.1503  0.7526
  166SAPE  H18R18645   2.399   6.004   3.559 -1.0882 -2.9274  1.8210
  166SAPE  H18S18646   2.266   6.120   3.603  0.6971  0.5826 -0.1649
  166SAPE  C21918647   2.268   5.930   3.697 -1.0305 -0.3307  1.1313
  166SAPE  H19R18648   2.195   5.886   3.626 -1.9245  2.4798  0.2040
  166SAPE  H19S18649   2.214   5.955   3.791 -3.7078 -1.2842 -0.0580
  166SAPE  C22018650   2.360   5.823   3.740 -1.1966 -0.5360 -0.4939
  166SAPE  H20R18651   2.415   5.862   3.828 -0.2056 -0.5232 -1.1026
  166SAPE  H20S18652   2.433   5.783   3.667 -0.1138 -2.1574  1.3922
  166SAPE  H20T18653   2.304   5.735   3.777 -1.4856  0.4170  1.4512
  166SAPE   C3318654   3.362   6.285   2.377  0.6032 -0.6306 -0.5059
  166SAPE   H3X18655   3.395   6.216   2.297 -1.3838 -0.9404 -1.0886
  166SAPE   H3Y18656   3.262   6.256   2.414  1.1882 -0.8945  0.9340
  166SAPE   C3418657   3.455   6.279   2.499  0.1493  0.0658 -0.2477
  166SAPE   H4X18658   3.554   6.321   2.470  1.0230 -0.1527  2.2287
  166SAPE   H4Y18659   3.462   6.170   2.519 -2.9819  0.1396  1.8217
  166SAPE   C3518660   3.408   6.337   2.631 -0.2478 -0.4527  0.4765
  166SAPE   H5X18661   3.301   6.314   2.653 -0.8303  0.5258 -1.1237
  166SAPE   H5Y18662   3.407   6.446   2.609  0.7068 -0.6334 -0.5811
  166SAPE   C3618663   3.504   6.312   2.750  0.5208  0.2352 -0.0655
  166SAPE   H6X18664   3.604   6.352   2.722  1.0429 -0.2836  0.9927
  166SAPE   H6Y18665   3.512   6.203   2.771 -0.1719  0.3892  1.0963
  166SAPE   C3718666   3.448   6.362   2.885  0.7600 -0.2243  0.0694
  166SAPE   H7X18667   3.371   6.289   2.919 -0.4989  0.4501 -1.2273
  166SAPE   H7Y18668   3.402   6.462   2.873  2.1569  0.6333  1.5523
  166SAPE   C3818669   3.558   6.368   2.990  0.1218 -0.3089  0.5327
  166SAPE   H8X18670   3.632   6.445   2.960  0.3808 -0.3581  1.0334
  166SAPE   H8Y18671   3.608   6.269   2.986  0.4004 -0.1223 -1.3514
  166SAPE   C3918672   3.501   6.403   3.130  0.0066  0.2269  0.8650
  166SAPE   H9X18673   3.435   6.320   3.162 -0.1187  0.3666  0.9681
  166SAPE   H9Y18674   3.434   6.491   3.123 -1.4195 -0.7981  1.2250
  166SAPE  C31018675   3.618   6.431   3.228 -0.1682 -0.1468 -0.1756
  166SAPE  H10X18676   3.678   6.511   3.177 -0.2145  0.2762  0.4278
  166SAPE  H10Y18677   3.688   6.345   3.233  0.2305  0.0912 -1.2890
  166SAPE  C31118678   3.574   6.488   3.368  0.8341 -0.6119 -0.0869
  166SAPE  H11X18679   3.539   6.408   3.437  1.0007 -0.0280  0.6824
  166SAPE  H11Y18680   3.491   6.561   3.366 -0.7140 -2.3104 -0.3515
  166SAPE  C31218681   3.694   6.561   3.433 -0.8472  0.7626 -0.3241
  166SAPE  H12X18682   3.712   6.657   3.380 -0.4576  1.7291  1.4900
  166SAPE  H12Y18683   3.781   6.496   3.414 -1.4477  0.0987 -0.8763
  166SAPE  C31318684   3.671   6.583   3.584  0.6877  0.3043  0.4419
  166SAPE  H13X18685   3.646   6.479   3.616  0.2530 -0.6220 -2.5622
  166SAPE  H13Y18686   3.579   6.645   3.593  0.0302 -0.2053 -1.9562
  166SAPE  C31418687   3.793   6.639   3.659 -0.4066  0.2980  0.3563
  166SAPE  H14X18688   3.852   6.717   3.607 -1.7938  0.0986 -1.6469
  166SAPE  H14Y18689   3.854   6.552   3.690  0.0437  0.3772 -0.3082
  166SAPE  C31518690   3.736   6.691   3.795 -0.2436 -0.5561  0.5534
  166SAPE  H15X18691   3.671   6.611   3.836 -0.1832 -0.7118  0.3511
  166SAPE  H15Y18692   3.670   6.777   3.774 -0.5153 -0.4636  1.7185
  166SAPE  C31618693   3.851   6.726   3.889 -0.0718  0.2526  0.5267
  166SAPE  H16X18694   3.879   6.831   3.864  0.0124 -0.5193 -3.2985
  166SAPE  H16Y18695   3.936   6.657   3.869 -0.8943 -0.7388  0.3779
  166SAPE  C31718696   3.826   6.713   4.035  0.8397 -0.3217  0.0109
  166SAPE  H17X18697   3.763   6.628   4.068  0.3686  0.4424  1.1183
  166SAPE  H17Y18698   3.776   6.809   4.062  2.2433  1.1675 -2.2566
  166SAPE  C31818699   3.951   6.692   4.110 -0.3953 -0.2630 -0.1792
  166SAPE  H18X18700   4.035   6.643   4.055  0.6388  1.5147 -0.2440
  166SAPE  H18Y18701   3.934   6.610   4.184  2.5987 -1.4378 -0.6145
  166SAPE  H18Z18702   3.988   6.784   4.159 -0.7011 -0.9532  1.4018
  167SAPE     N18703   2.164   5.351   2.002  0.2855  0.3551 -0.3756
  167SAPE   HN118704   2.060   5.350   1.994  0.2817 -1.8182 -0.6698
  167SAPE   HN218705   2.191   5.378   2.098 -1.3365 -0.6850  0.4227
  167SAPE   HN318706   2.201   5.421   1.935  0.9494 -0.8402 -1.3180
  167SAPE   C1218707   2.201   5.216   1.970  0.4817  0.4207 -0.5471
  167SAPE  H12A18708   2.166   5.191   1.867 -0.0548  0.2756 -0.3351
  167SAPE  H12B18709   2.151   5.142   2.036  0.8714  1.7794  1.3381
  167SAPE   C1118710   2.358   5.210   1.966  0.7989  0.0308 -0.0411
  167SAPE  H11A18711   2.390   5.263   1.874 -0.0720  1.1137  0.2592
  167SAPE  H11B18712   2.384   5.106   1.937  0.5718  0.4805 -1.9524
  167SAPE     P18713   2.471   5.176   2.194  0.1277  0.0965  0.3517
  167SAPE   O1318714   2.585   5.094   2.138  0.0578 -0.1031 -0.0193
  167SAPE   O1418715   2.505   5.256   2.315  0.3808 -0.2023  0.3138
  167SAPE   O1218716   2.427   5.276   2.076 -0.0131 -0.3531 -0.4282
  167SAPE   O1118717   2.347   5.079   2.212 -0.0716 -0.7657 -0.1071
  167SAPE    C118718   2.270   5.084   2.329 -0.3176  0.5266 -0.1701
  167SAPE    HA18719   2.265   5.189   2.364 -0.3893  0.5075 -0.1223
  167SAPE    HB18720   2.167   5.049   2.305 -0.1724  0.2958 -0.4724
  167SAPE    C218721   2.320   4.997   2.452 -0.1209 -0.0560  0.2126
  167SAPE    HS18722   2.422   5.029   2.480  0.5633 -1.5859 -0.3865
  167SAPE   O2118723   2.323   4.859   2.406  0.2913 -0.1069  0.2854
  167SAPE   C2118724   2.404   4.782   2.482  0.2443 -0.8312  0.2343
  167SAPE   O2218725   2.488   4.823   2.566  0.1351  0.5815 -0.5477
  167SAPE   C2218726   2.390   4.639   2.433 -0.1649  0.0967  0.4374
  167SAPE   H2R18727   2.288   4.617   2.395 -1.7484  3.0482  2.5959
  167SAPE   H2S18728   2.448   4.617   2.341 -1.7940 -2.4518 -0.0727
  167SAPE    C318729   2.223   5.015   2.574 -0.0693  0.1344  0.4773
  167SAPE    HX18730   2.129   4.970   2.533 -0.4940  1.5325 -0.1490
  167SAPE    HY18731   2.216   5.123   2.600  0.1538 -0.3840  2.9118
  167SAPE   O3118732   2.267   4.931   2.686  0.0413 -0.1164 -0.5093
  167SAPE   C3118733   2.358   4.997   2.767  0.1522 -0.3880  0.4155
  167SAPE   O3218734   2.412   5.104   2.748 -0.0975 -0.1209 -0.5055
  167SAPE   C3218735   2.365   4.912   2.892 -0.2976 -0.0436 -0.0696
  167SAPE   H2X18736   2.416   4.821   2.854  0.5131  0.5216 -0.3730
  167SAPE   H2Y18737   2.262   4.888   2.925 -0.3277  0.4291  0.1922
  167SAPE   C2318738   2.418   4.536   2.537  0.1585  0.1763 -0.4227
  167SAPE   H3R18739   2.486   4.562   2.621  2.2870 -3.8489 -0.6086
  167SAPE   H3S18740   2.476   4.461   2.478  0.0110  1.2498 -1.9823
  167SAPE   C2418741   2.290   4.466   2.600 -0.6457 -0.1806 -0.1051
  167SAPE   H4R18742   2.334   4.374   2.644 -1.3460 -0.1344  0.7226
  167SAPE   H4S18743   2.218   4.437   2.520 -1.2331  1.8886 -0.3798
  167SAPE   C2518744   2.222   4.562   2.690  0.3855  0.4508  0.3421
  167SAPE   H5R18745   2.152   4.629   2.639  0.3652  1.4929  1.7025
  167SAPE   C2618746   2.219   4.574   2.823  0.3558  0.0732  0.2627
  167SAPE   H6R18747   2.153   4.654   2.860  0.6462 -0.1983  1.4345
  167SAPE   C2718748   2.288   4.478   2.917  0.6160  0.0824  0.0329
  167SAPE   H7R18749   2.283   4.378   2.869 -1.6335 -0.3785  1.0673
  167SAPE   H7S18750   2.225   4.457   3.007 -1.3407 -1.1537 -1.5426
  167SAPE   C2818751   2.430   4.515   2.948 -0.7181 -0.4667  0.0550
  167SAPE   H8R18752   2.479   4.571   2.867 -1.4417  1.5149  0.9242
  167SAPE   C2918753   2.496   4.476   3.061 -0.0717  0.0639 -0.3969
  167SAPE   H9R18754   2.601   4.502   3.078  0.0189 -1.4681  1.7092
  167SAPE  C21018755   2.439   4.388   3.173  0.5023 -0.6973 -0.6052
  167SAPE  H10R18756   2.493   4.291   3.172 -0.2475 -1.1377  0.2362
  167SAPE  H10S18757   2.335   4.352   3.163  0.2913 -0.4019  0.3959
  167SAPE  C21118758   2.450   4.465   3.297 -0.0837  0.0735  0.2376
  167SAPE  H11R18759   2.370   4.539   3.311 -1.2783 -0.3644 -3.3813
  167SAPE  C21218760   2.544   4.444   3.393 -0.2035 -0.2322  0.3369
  167SAPE  H12R18761   2.552   4.519   3.473  1.7443  1.8282 -1.6375
  167SAPE  C21318762   2.662   4.352   3.386  0.4872  0.6756 -0.7958
  167SAPE  H13R18763   2.701   4.351   3.282  0.8365  0.1188 -0.6663
  167SAPE  H13S18764   2.629   4.246   3.388  0.3673  0.6434  3.2043
  167SAPE  C21418765   2.767   4.385   3.485  0.5387  0.5874  0.4275
  167SAPE  H14R18766   2.818   4.481   3.469  0.7356  0.5939  1.0794
  167SAPE  C21518767   2.809   4.313   3.591 -0.1387 -0.1782  0.2934
  167SAPE  H15R18768   2.902   4.342   3.644  0.3169  0.0277 -0.6086
  167SAPE  C21618769   2.758   4.185   3.655 -0.0028 -0.5180 -0.1549
  167SAPE  H16R18770   2.840   4.110   3.660  1.4042  0.9390 -0.7376
  167SAPE  H16S18771   2.674   4.144   3.595  0.0688 -0.8344 -0.0402
  167SAPE  C21718772   2.719   4.201   3.807 -0.2634  0.6245  0.7801
  167SAPE  H17R18773   2.681   4.109   3.857  1.9982 -0.3630  0.8138
  167SAPE  H17S18774   2.642   4.281   3.813  0.9512  2.1787 -2.2753
  167SAPE  C21818775   2.842   4.232   3.894 -1.0717 -0.0457  0.8005
  167SAPE  H18R18776   2.899   4.321   3.861  0.1937 -1.1633 -0.1390
  167SAPE  H18S18777   2.911   4.145   3.886 -0.4769  0.5543 -0.9356
  167SAPE  C21918778   2.806   4.240   4.047 -0.4747 -0.2683 -0.3213
  167SAPE  H19R18779   2.754   4.143   4.061 -1.1822 -0.2426 -2.4116
  167SAPE  H19S18780   2.734   4.322   4.068  1.0746  0.9290  0.5434
  167SAPE  C22018781   2.936   4.248   4.129 -0.4319 -0.3584  0.0525
  167SAPE  H20R18782   3.024   4.197   4.085  0.9637  0.1352  2.1198
  167SAPE  H20S18783   2.936   4.226   4.238  0.7834 -0.2504  0.0891
  167SAPE  H20T18784   2.977   4.351   4.136 -0.0104 -0.6051  2.0730
  167SAPE   C3318785   2.444   4.972   3.010  0.3540 -0.2142 -0.3994
  167SAPE   H3X18786   2.405   5.074   3.026  1.2099  0.1969 -0.9016
  167SAPE   H3Y18787   2.550   4.990   2.985  0.8378 -1.0281  0.9863
  167SAPE   C3418788   2.440   4.881   3.138  0.3308 -0.8983  0.6704
  167SAPE   H4X18789   2.502   4.792   3.113  1.3820  0.1085 -0.4370
  167SAPE   H4Y18790   2.335   4.853   3.161 -0.3716 -0.4394 -1.7201
  167SAPE   C3518791   2.502   4.958   3.253 -0.0994  0.5093 -0.3930
  167SAPE   H5X18792   2.438   5.049   3.257 -1.9618 -0.7747  0.0489
  167SAPE   H5Y18793   2.609   4.988   3.251  0.7200 -1.9670  1.4635
  167SAPE   C3618794   2.497   4.884   3.381  0.1120 -0.7264 -0.8832
  167SAPE   H6X18795   2.581   4.812   3.383  1.4478  0.7374 -1.6070
  167SAPE   H6Y18796   2.402   4.826   3.387 -0.0098 -0.4450  0.0361
  167SAPE   C3718797   2.527   4.963   3.507 -0.7662  0.0632 -0.6954
  167SAPE   H7X18798   2.497   5.068   3.490 -0.9652  0.0535 -0.4161
  167SAPE   H7Y18799   2.636   4.953   3.527 -1.0050 -1.8714 -0.0746
  167SAPE   C3818800   2.444   4.905   3.625  0.4011 -0.0171 -0.2037
  167SAPE   H8X18801   2.336   4.905   3.600  0.9402 -1.7924 -2.9266
  167SAPE   H8Y18802   2.466   4.955   3.722 -2.1424 -1.6967  1.3577
  167SAPE   C3918803   2.483   4.765   3.671 -0.2856  0.2323  0.0350
  167SAPE   H9X18804   2.593   4.766   3.681 -0.0495 -1.9949 -1.4879
  167SAPE   H9Y18805   2.462   4.698   3.585 -0.1380  1.6950 -1.2006
  167SAPE  C31018806   2.412   4.714   3.796 -0.3749  0.1321  0.1642
  167SAPE  H10X18807   2.303   4.706   3.778 -0.8050  1.3601  1.9553
  167SAPE  H10Y18808   2.424   4.784   3.882 -0.9264 -0.0672  0.4048
  167SAPE  C31118809   2.470   4.587   3.839  0.0549 -0.0582 -0.8565
  167SAPE  H11X18810   2.581   4.595   3.837  0.0971 -0.7704 -2.2403
  167SAPE  H11Y18811   2.428   4.512   3.768 -1.9851  1.4436 -1.3184
  167SAPE  C31218812   2.436   4.550   3.988  0.0184 -0.0251 -0.0580
  167SAPE  H12X18813   2.500   4.617   4.048 -0.2234 -1.8955  2.4939
  167SAPE  H12Y18814   2.459   4.443   4.008 -2.7994 -0.6507  0.3489
  167SAPE  C31318815   2.289   4.557   4.024  0.4446 -0.4762 -0.3161
  167SAPE  H13X18816   2.230   4.474   3.981 -3.6284  1.9517  0.0769
  167SAPE  H13Y18817   2.247   4.647   3.974  0.9798  0.4583  0.8659
  167SAPE  C31418818   2.250   4.565   4.171 -0.0952  0.4358 -0.1149
  167SAPE  H14X18819   2.314   4.648   4.207 -0.2727  0.5004  0.0513
  167SAPE  H14Y18820   2.291   4.467   4.204 -1.8580 -0.4564 -0.5061
  167SAPE  C31518821   2.111   4.591   4.215 -0.1872 -0.9158 -0.0738
  167SAPE  H15X18822   2.090   4.681   4.153 -1.3236 -0.8728  0.3459
  167SAPE  H15Y18823   2.111   4.624   4.320 -2.8389  3.0228 -1.0843
  167SAPE  C31618824   2.009   4.488   4.190 -1.3877 -0.4701 -0.5018
  167SAPE  H16X18825   2.034   4.388   4.232 -2.4505 -1.1921 -1.4983
  167SAPE  H16Y18826   1.998   4.473   4.080 -0.5928  3.4706 -1.2504
  167SAPE  C31718827   1.886   4.518   4.268 -0.0229 -0.5754 -0.8255
  167SAPE  H17X18828   1.903   4.501   4.376 -2.4605 -1.2545 -0.5050
  167SAPE  H17Y18829   1.810   4.440   4.245 -1.1101  0.1348  0.2695
  167SAPE  C31818830   1.819   4.654   4.238  0.5639 -0.0938  0.2481
  167SAPE  H18X18831   1.795   4.663   4.130  3.5200 -1.1712 -0.5820
  167SAPE  H18Y18832   1.894   4.734   4.258  0.5164 -0.4806  2.2512
  167SAPE  H18Z18833   1.726   4.669   4.297 -1.2817 -0.1462 -2.4988
  168SAPE     N18834   5.519   0.759   1.685 -0.6672  0.6669  0.4627
  168SAPE   HN118835   5.616   0.788   1.709 -0.8016  1.4285  0.1126
  168SAPE   HN218836   5.516   0.666   1.640  0.3646  0.9073 -0.1436
  168SAPE   HN318837   5.465   0.822   1.623 -0.6419 -0.1456 -0.4010
  168SAPE   C1218838   5.453   0.729   1.821  0.1908 -0.0159 -0.4260
  168SAPE  H12A18839   5.348   0.694   1.805  0.1272  0.2770 -0.6547
  168SAPE  H12B18840   5.438   0.831   1.862 -0.4518 -0.6552  1.0007
  168SAPE   C1118841   5.550   0.651   1.916  0.6168 -0.7058  0.4983
  168SAPE  H11A18842   5.585   0.552   1.880  4.5267  1.5138 -2.4974
  168SAPE  H11B18843   5.487   0.633   2.006 -0.7771 -1.3473 -0.5655
  168SAPE     P18844   5.765   0.741   2.047  0.1664  0.0027 -0.5559
  168SAPE   O1318845   5.857   0.626   2.055  0.4754  0.1697 -0.7209
  168SAPE   O1418846   5.817   0.880   2.030 -1.1084  0.1200 -0.1641
  168SAPE   O1218847   5.660   0.724   1.927 -0.6002  0.3435 -0.2286
  168SAPE   O1118848   5.666   0.745   2.168  0.6000 -0.6031 -0.1806
  168SAPE    C118849   5.650   0.626   2.256  0.0849 -0.6064  1.0284
  168SAPE    HA18850   5.614   0.538   2.198 -1.6161  1.5184 -1.3290
  168SAPE    HB18851   5.747   0.604   2.306 -0.3815 -1.0227  1.7777
  168SAPE    C218852   5.560   0.655   2.386  0.0333  0.1919  0.2932
  168SAPE    HS18853   5.587   0.757   2.421  0.3022  0.4408 -0.6070
  168SAPE   O2118854   5.579   0.563   2.497 -0.4468  0.6892 -0.2321
  168SAPE   C2118855   5.693   0.544   2.550 -0.6175 -0.8683 -0.5467
  168SAPE   O2218856   5.803   0.591   2.523  0.3923 -0.6675  0.0930
  168SAPE   C2218857   5.667   0.455   2.667  0.1847 -0.5425 -0.9732
  168SAPE   H2R18858   5.631   0.359   2.623 -1.0916  0.6210 -2.6182
  168SAPE   H2S18859   5.762   0.442   2.723 -1.0088  0.1760  1.3306
  168SAPE    C318860   5.409   0.638   2.352  0.2345 -0.5308 -0.3441
  168SAPE    HX18861   5.403   0.528   2.333  0.9281 -0.9789  1.8006
  168SAPE    HY18862   5.384   0.698   2.262  3.0480 -0.8618 -1.4747
  168SAPE   O3118863   5.334   0.684   2.467 -0.8110 -0.3298 -0.0131
  168SAPE   C3118864   5.220   0.610   2.499 -0.4805 -0.4990 -0.4009
  168SAPE   O3218865   5.185   0.511   2.444 -0.3728 -0.0742  0.5477
  168SAPE   C3218866   5.131   0.680   2.603  0.1753  0.1213  0.5507
  168SAPE   H2X18867   5.037   0.622   2.601  0.1820  0.1184  0.0889
  168SAPE   H2Y18868   5.115   0.783   2.563 -0.7693  1.2966  3.6718
  168SAPE   C2318869   5.566   0.513   2.770  0.1510  0.5058 -0.0513
  168SAPE   H3R18870   5.577   0.459   2.866 -2.3369 -0.2015 -0.0712
  168SAPE   H3S18871   5.464   0.500   2.726  0.1668 -0.3330  0.1461
  168SAPE   C2418872   5.592   0.659   2.813  0.0084  0.2711  0.2149
  168SAPE   H4R18873   5.540   0.676   2.909  1.5123  0.8325  0.9645
  168SAPE   H4S18874   5.537   0.711   2.732 -1.1013 -0.8696  0.2114
  168SAPE   C2518875   5.740   0.696   2.821 -0.5085 -1.1859 -0.0111
  168SAPE   H5R18876   5.810   0.692   2.736  1.7667 -1.1439  1.7664
  168SAPE   C2618877   5.804   0.712   2.938 -0.4666  0.0327  0.0915
  168SAPE   H6R18878   5.912   0.734   2.942 -0.0187 -2.0529  0.5785
  168SAPE   C2718879   5.755   0.690   3.081 -0.1349 -0.3246  0.8292
  168SAPE   H7R18880   5.644   0.695   3.083 -0.1383  1.1445 -0.8694
  168SAPE   H7S18881   5.789   0.776   3.143  0.5792  0.0878 -0.0938
  168SAPE   C2818882   5.793   0.550   3.135 -0.0211 -0.6101 -0.0172
  168SAPE   H8R18883   5.774   0.471   3.061  2.0847  0.1260 -1.4545
  168SAPE   C2918884   5.836   0.520   3.259 -0.7719  0.1927 -0.2989
  168SAPE   H9R18885   5.865   0.420   3.293 -2.1108 -0.5894 -1.3469
  168SAPE  C21018886   5.863   0.613   3.372  0.2394  0.0809 -0.3020
  168SAPE  H10R18887   5.926   0.703   3.358 -1.0152  1.0288 -0.0888
  168SAPE  H10S18888   5.915   0.557   3.453 -0.2949  0.4645  0.3171
  168SAPE  C21118889   5.732   0.638   3.437 -0.1341 -0.0959  0.0049
  168SAPE  H11R18890   5.656   0.559   3.428  0.5864 -1.0846  1.9850
  168SAPE  C21218891   5.680   0.744   3.508  0.3025  0.5895 -0.5368
  168SAPE  H12R18892   5.586   0.725   3.560  0.2522 -1.5128 -1.2990
  168SAPE  C21318893   5.770   0.858   3.549 -0.6791 -0.0426 -0.5339
  168SAPE  H13R18894   5.847   0.876   3.470 -0.4727  0.0702 -0.3079
  168SAPE  H13S18895   5.827   0.825   3.638  1.0990 -0.6558 -1.8315
  168SAPE  C21418896   5.695   0.976   3.600  0.0923 -0.2014 -0.0881
  168SAPE  H14R18897   5.651   1.037   3.519 -0.2255 -2.7491 -1.9569
  168SAPE  C21518898   5.677   1.028   3.730 -0.4207 -0.0760  0.3511
  168SAPE  H15R18899   5.605   1.110   3.745  0.6937  1.0167 -0.0742
  168SAPE  C21618900   5.735   0.982   3.858  0.8924 -0.9446  0.1446
  168SAPE  H16R18901   5.799   0.893   3.839  2.8402  0.2734  0.6313
  168SAPE  H16S18902   5.661   0.947   3.933  0.7904  0.4133  0.7052
  168SAPE  C21718903   5.826   1.089   3.928 -0.0182 -1.1475  0.0062
  168SAPE  H17R18904   5.883   1.147   3.852  0.4000 -1.6814 -0.0934
  168SAPE  H17S18905   5.887   1.029   3.999 -3.1471 -1.4140  2.6622
  168SAPE  C21818906   5.747   1.186   4.014  0.0465 -0.6548  0.0567
  168SAPE  H18R18907   5.681   1.118   4.073 -0.0583 -1.5639 -1.0886
  168SAPE  H18S18908   5.676   1.257   3.967  0.4140  2.9940  4.3565
  168SAPE  C21918909   5.831   1.271   4.111 -0.9315  0.0106  0.1087
  168SAPE  H19R18910   5.763   1.351   4.145 -0.0973  0.9906 -0.4822
  168SAPE  H19S18911   5.919   1.312   4.057 -0.9601 -0.1637 -0.0723
  168SAPE  C22018912   5.883   1.197   4.231 -0.3077  0.6653 -0.2296
  168SAPE  H20R18913   5.900   1.274   4.310 -1.2037  2.4182 -1.6590
  168SAPE  H20S18914   5.980   1.149   4.205 -0.4761  0.5417 -0.6437
  168SAPE  H20T18915   5.821   1.123   4.286  0.4731 -0.7638 -1.2083
  168SAPE   C3318916   5.181   0.682   2.750 -0.0805 -0.0475 -0.1667
  168SAPE   H3X18917   5.114   0.742   2.814  0.6115  0.5584  0.0007
  168SAPE   H3Y18918   5.284   0.724   2.754 -0.0565 -0.2071  1.4907
  168SAPE   C3418919   5.182   0.544   2.811 -0.6309 -0.6850  0.3034
  168SAPE   H4X18920   5.256   0.477   2.762  0.0931 -0.6780  1.3505
  168SAPE   H4Y18921   5.081   0.498   2.805 -1.6906  1.4483  0.6875
  168SAPE   C3518922   5.247   0.568   2.943  0.6760  0.4684  0.1568
  168SAPE   H5X18923   5.168   0.611   3.008 -0.7468 -0.1033 -1.1374
  168SAPE   H5Y18924   5.324   0.647   2.947  0.9443  0.2107  0.1122
  168SAPE   C3618925   5.301   0.438   3.004  1.0310 -0.3749  0.7933
  168SAPE   H6X18926   5.355   0.387   2.921 -0.0734 -1.6960  0.8445
  168SAPE   H6Y18927   5.211   0.375   3.019  0.9778 -0.8152 -1.1194
  168SAPE   C3718928   5.364   0.460   3.142  0.2887  0.4079 -0.2584
  168SAPE   H7X18929   5.307   0.542   3.190 -0.1106  1.2146 -2.0553
  168SAPE   H7Y18930   5.467   0.499   3.128  0.0003  1.0559 -0.6280
  168SAPE   C3818931   5.367   0.335   3.227 -0.2453 -0.1734  0.0372
  168SAPE   H8X18932   5.437   0.260   3.184  0.2245  0.9328 -1.2193
  168SAPE   H8Y18933   5.266   0.289   3.225  0.4788 -1.9134  1.1846
  168SAPE   C3918934   5.389   0.381   3.379 -0.1785 -0.1192  0.8559
  168SAPE   H9X18935   5.295   0.438   3.391 -1.7308 -1.8073 -2.0613
  168SAPE   H9Y18936   5.479   0.446   3.391  0.2649 -0.4565 -0.4762
  168SAPE  C31018937   5.371   0.271   3.485 -0.0396 -0.3230 -0.5226
  168SAPE  H10X18938   5.444   0.193   3.456 -0.0010 -0.2226 -0.6978
  168SAPE  H10Y18939   5.272   0.231   3.454  0.2719  0.9075 -3.4056
  168SAPE  C31118940   5.393   0.316   3.629  0.0007  0.6565 -0.0068
  168SAPE  H11X18941   5.352   0.235   3.692  0.4125  0.4924  0.0579
  168SAPE  H11Y18942   5.339   0.407   3.661  1.7711  1.7720 -0.0284
  168SAPE  C31218943   5.545   0.336   3.656  0.1330 -0.0916  0.1392
  168SAPE  H12X18944   5.588   0.397   3.575 -1.2666 -0.1130 -0.6464
  168SAPE  H12Y18945   5.587   0.233   3.649 -0.0902 -0.3280  1.7842
  168SAPE  C31318946   5.581   0.399   3.794  0.4856 -0.3579 -0.5230
  168SAPE  H13X18947   5.522   0.342   3.869 -0.5190  0.6716 -0.4988
  168SAPE  H13Y18948   5.556   0.508   3.794  1.7866 -0.0227 -2.4307
  168SAPE  C31418949   5.730   0.379   3.829  0.2931 -0.7712 -0.2278
  168SAPE  H14X18950   5.782   0.450   3.762  0.9978 -0.1565  0.9489
  168SAPE  H14Y18951   5.768   0.275   3.815  0.8334 -0.1808 -4.3497
  168SAPE  C31518952   5.759   0.432   3.968  0.3701  0.4257  0.0716
  168SAPE  H15X18953   5.714   0.534   3.973  0.7534  0.5843  0.4329
  168SAPE  H15Y18954   5.870   0.440   3.958  0.4894 -0.9291  0.1282
  168SAPE  C31618955   5.716   0.342   4.088  0.3791 -0.2489  0.7001
  168SAPE  H16X18956   5.768   0.244   4.095  2.1801  0.6791  0.9544
  168SAPE  H16Y18957   5.606   0.327   4.085  0.1915  0.9799  1.0022
  168SAPE  C31718958   5.754   0.403   4.230 -0.1875  0.1756  0.9433
  168SAPE  H17X18959   5.716   0.343   4.315 -1.6478 -2.5113 -1.4047
  168SAPE  H17Y18960   5.711   0.505   4.236  1.1931  0.9666 -1.4335
  168SAPE  C31818961   5.905   0.430   4.243  0.2231  0.4542 -0.1983
  168SAPE  H18X18962   5.958   0.336   4.218 -0.4674  0.4358 -1.6836
  168SAPE  H18Y18963   5.925   0.473   4.344 -2.2795  1.3699 -0.0185
  168SAPE  H18Z18964   5.941   0.506   4.171  0.8711  0.8561  0.5361
  169SAPE     N18965   1.053   5.095   1.856  0.6666  0.1392  0.2728
  169SAPE   HN118966   0.994   5.176   1.882  0.3405 -0.0996  0.2845
  169SAPE   HN218967   1.144   5.132   1.821 -0.3807  1.2018 -1.4604
  169SAPE   HN318968   1.003   5.054   1.775  0.5873  2.0282 -0.6795
  169SAPE   C1218969   1.056   4.995   1.973 -0.5259 -0.0117 -0.2112
  169SAPE  H12A18970   1.109   4.906   1.934 -0.7799 -0.2023 -0.1171
  169SAPE  H12B18971   0.950   4.966   1.993 -0.4995  0.1926  0.2459
  169SAPE   C1118972   1.129   5.047   2.102  0.4789  0.1821 -0.0515
  169SAPE  H11A18973   1.122   4.973   2.184 -0.2182 -0.1567 -0.4065
  169SAPE  H11B18974   1.066   5.130   2.140  0.3426 -0.1884  0.5409
  169SAPE     P18975   1.350   5.179   2.174  0.2165 -0.3336  0.3110
  169SAPE   O1318976   1.490   5.190   2.131 -0.2306 -0.0230  0.5158
  169SAPE   O1418977   1.268   5.304   2.191  0.0160 -0.1168 -0.1288
  169SAPE   O1218978   1.267   5.088   2.074  0.4210  0.4037 -0.5992
  169SAPE   O1118979   1.342   5.105   2.307 -0.0105  0.2849 -0.4788
  169SAPE    C118980   1.336   5.173   2.437 -0.3204  0.4081  0.2261
  169SAPE    HA18981   1.262   5.255   2.430  1.4474  1.9639 -1.5371
  169SAPE    HB18982   1.301   5.094   2.505  0.2584 -0.8271 -0.8522
  169SAPE    C218983   1.471   5.241   2.481 -0.3641 -0.4823 -0.1642
  169SAPE    HS18984   1.536   5.268   2.394  2.3457 -0.2201  1.8108
  169SAPE   O2118985   1.547   5.159   2.562 -0.0906  0.4679  0.0207
  169SAPE   C2118986   1.580   5.036   2.525  0.1667 -0.3896  0.5321
  169SAPE   O2218987   1.563   4.993   2.412  0.5605 -0.2535 -0.6099
  169SAPE   C2218988   1.650   4.957   2.631 -0.0331  0.8780 -0.2181
  169SAPE   H2R18989   1.653   5.013   2.727  1.0505 -0.5523  0.6261
  169SAPE   H2S18990   1.608   4.854   2.637  0.7233  0.5984  0.4501
  169SAPE    C318991   1.447   5.377   2.564 -1.1234  0.7351  0.1720
  169SAPE    HX18992   1.367   5.430   2.507 -1.0060 -0.9329 -1.6672
  169SAPE    HY18993   1.539   5.438   2.561 -1.1405  0.7147 -1.5021
  169SAPE   O3118994   1.395   5.349   2.696 -0.4474 -0.3171  0.0990
  169SAPE   C3118995   1.382   5.465   2.765 -0.3438 -0.1596 -0.4687
  169SAPE   O3218996   1.414   5.576   2.731 -0.5284 -0.2700  0.1467
  169SAPE   C3218997   1.315   5.432   2.893 -0.0373  0.4991 -0.0995
  169SAPE   H2X18998   1.396   5.386   2.954  0.2507 -0.0107 -0.8635
  169SAPE   H2Y18999   1.240   5.350   2.886 -0.0294  0.5289 -0.5379
  169SAPE   C2319000   1.797   4.935   2.591 -0.3366 -0.2938  0.6134
  169SAPE   H3R19001   1.836   5.033   2.555 -1.0195 -0.2959 -0.1402
  169SAPE   H3S19002   1.811   4.861   2.510  3.7363 -0.2322  1.0112
  169SAPE   C2419003   1.889   4.887   2.708  0.2474  1.1080  0.0872
  169SAPE   H4R19004   1.963   4.810   2.675  0.1092  0.7368  0.6325
  169SAPE   H4S19005   1.816   4.828   2.767  0.6978  2.2205  1.8281
  169SAPE   C2519006   1.950   5.004   2.778  0.1036  0.1970  0.1164
  169SAPE   H5R19007   1.945   5.098   2.721  0.0199 -1.0543 -2.0062
  169SAPE   C2619008   1.991   4.989   2.908 -0.3795  0.0347 -0.3083
  169SAPE   H6R19009   2.033   5.081   2.952  0.4706 -0.0802 -0.8460
  169SAPE   C2719010   1.985   4.865   2.999  0.7310  0.0879 -0.2825
  169SAPE   H7R19011   2.086   4.828   3.024 -0.3121 -2.0480  1.0434
  169SAPE   H7S19012   1.942   4.775   2.950  1.4896 -0.4906  0.0951
  169SAPE   C2819013   1.895   4.886   3.121 -0.7503  0.7901 -0.4110
  169SAPE   H8R19014   1.847   4.983   3.139  2.1153  1.9202  2.0455
  169SAPE   C2919015   1.890   4.802   3.225  0.4651  0.3553 -0.8430
  169SAPE   H9R19016   1.823   4.827   3.309 -0.6956  0.8288 -1.8650
  169SAPE  C21019017   1.973   4.673   3.246  0.1839 -0.7984 -1.2909
  169SAPE  H10R19018   2.010   4.631   3.151 -1.5914 -1.6114 -1.6502
  169SAPE  H10S19019   1.908   4.603   3.303  2.0768  0.4583  2.8420
  169SAPE  C21119020   2.094   4.698   3.331 -0.3900  0.0725  0.2780
  169SAPE  H11R19021   2.145   4.795   3.328  1.8063 -0.9095  2.3008
  169SAPE  C21219022   2.140   4.616   3.430  0.5237 -0.1242  0.1894
  169SAPE  H12R19023   2.219   4.655   3.496  2.6410 -0.1079 -2.2310
  169SAPE  C21319024   2.076   4.480   3.462  0.3571 -0.5337 -0.1069
  169SAPE  H13R19025   2.149   4.404   3.426  3.1149  0.9031  2.1357
  169SAPE  H13S19026   1.985   4.462   3.400  0.2006  0.8365 -0.3088
  169SAPE  C21419027   2.059   4.455   3.608 -0.6625 -0.1312  0.5540
  169SAPE  H14R19028   2.118   4.371   3.647 -2.0997 -2.0778 -1.2620
  169SAPE  C21519029   1.989   4.519   3.698  0.2555 -1.0163  0.0610
  169SAPE  H15R19030   2.000   4.495   3.804  1.3264  0.9267  0.4485
  169SAPE  C21619031   1.905   4.645   3.672 -0.1106  0.0741 -0.0309
  169SAPE  H16R19032   1.796   4.636   3.693 -0.3486 -1.3477 -1.6533
  169SAPE  H16S19033   1.906   4.669   3.564  0.5182 -1.5917 -0.4274
  169SAPE  C21719034   1.953   4.781   3.737  0.3788  0.3063  0.2436
  169SAPE  H17R19035   1.893   4.869   3.705  0.9492  0.0417 -1.6999
  169SAPE  H17S19036   2.055   4.809   3.701  0.2089 -1.7542 -2.1194
  169SAPE  C21819037   1.957   4.771   3.896 -1.0672 -0.1720  0.1264
  169SAPE  H18R19038   2.018   4.681   3.920  1.4045  1.1714 -0.8578
  169SAPE  H18S19039   1.853   4.757   3.934 -1.0803  1.1832  0.6528
  169SAPE  C21919040   2.015   4.896   3.969  0.2774  0.4010 -0.1127
  169SAPE  H19R19041   1.994   4.881   4.077  0.0345  0.0149 -0.2102
  169SAPE  H19S19042   1.948   4.984   3.955  1.7088  1.5992  0.2939
  169SAPE  C22019043   2.157   4.932   3.966 -1.0951  0.1078 -0.3948
  169SAPE  H20R19044   2.184   5.006   4.044 -2.7312  2.0257 -1.5615
  169SAPE  H20S19045   2.187   4.978   3.870  0.5634  0.1159  0.0974
  169SAPE  H20T19046   2.230   4.850   3.987  0.2828  1.2437 -0.5951
  169SAPE   C3319047   1.264   5.564   2.966  0.5642 -0.0316  0.1569
  169SAPE   H3X19048   1.198   5.615   2.892  1.2083  1.0730  0.3194
  169SAPE   H3Y19049   1.341   5.636   3.002 -0.6806  0.4733  2.0122
  169SAPE   C3419050   1.181   5.520   3.084 -0.3773 -0.0709 -0.4877
  169SAPE   H4X19051   1.097   5.456   3.050  0.0500  0.1711 -2.0913
  169SAPE   H4Y19052   1.127   5.608   3.126  1.0619  0.9904 -0.7800
  169SAPE   C3519053   1.261   5.456   3.199 -0.4569  0.3209  0.0392
  169SAPE   H5X19054   1.345   5.526   3.224 -0.4316  0.5488 -0.6855
  169SAPE   H5Y19055   1.304   5.358   3.169  1.4441  1.2750 -0.5014
  169SAPE   C3619056   1.181   5.443   3.328 -0.8964 -0.7776 -0.5128
  169SAPE   H6X19057   1.090   5.381   3.313 -0.9782 -1.6558  2.8708
  169SAPE   H6Y19058   1.164   5.549   3.353 -1.7080 -0.3630 -2.6458
  169SAPE   C3719059   1.250   5.385   3.451 -0.2860  0.6133 -0.3396
  169SAPE   H7X19060   1.342   5.443   3.471  1.4970 -1.8648 -0.8173
  169SAPE   H7Y19061   1.291   5.284   3.430  0.9832  0.7821  1.1266
  169SAPE   C3819062   1.160   5.365   3.578 -0.1319 -0.2056 -0.4275
  169SAPE   H8X19063   1.116   5.264   3.570  1.4729 -1.0452  0.6930
  169SAPE   H8Y19064   1.085   5.447   3.579  1.7516  1.6306  1.1150
  169SAPE   C3919065   1.244   5.372   3.704 -0.4270 -0.0210 -0.7329
  169SAPE   H9X19066   1.301   5.468   3.706 -2.0356  0.9680 -0.3713
  169SAPE   H9Y19067   1.322   5.294   3.696  2.3029  1.9097  3.2754
  169SAPE  C31019068   1.165   5.359   3.837  0.5859  0.0458 -0.0739
  169SAPE  H10X19069   1.065   5.401   3.813  0.6374  1.3816  1.8892
  169SAPE  H10Y19070   1.213   5.416   3.919  0.4364  0.2940 -0.1558
  169SAPE  C31119071   1.145   5.207   3.877 -0.1974  0.2169 -0.1149
  169SAPE  H11X19072   1.242   5.154   3.864 -0.1535  0.3552 -0.3735
  169SAPE  H11Y19073   1.074   5.160   3.806  2.8092  0.4008 -3.5456
  169SAPE  C31219074   1.098   5.184   4.017  0.9256 -0.7668  0.1701
  169SAPE  H12X19075   0.996   5.227   4.029  0.3464 -2.0685  0.0119
  169SAPE  H12Y19076   1.158   5.247   4.086  1.5968 -0.5453 -0.5957
  169SAPE  C31319077   1.088   5.041   4.060 -0.4525  0.0682  0.0829
  169SAPE  H13X19078   1.080   5.031   4.170 -4.2987 -0.2855 -0.0827
  169SAPE  H13Y19079   1.183   4.994   4.025  0.2956 -0.1269  2.2181
  169SAPE  C31419080   0.964   4.974   3.994 -0.1571 -0.2926  0.2796
  169SAPE  H14X19081   0.972   4.974   3.883 -2.1753 -0.8405  0.0924
  169SAPE  H14Y19082   0.870   5.026   4.023 -0.4022  0.6198 -1.9475
  169SAPE  C31519083   0.941   4.828   4.042  0.1186  0.6378 -0.6447
  169SAPE  H15X19084   0.857   4.784   3.983  0.6127  0.3869 -1.1613
  169SAPE  H15Y19085   0.922   4.834   4.151 -0.2324  2.4682 -0.7825
  169SAPE  C31619086   1.066   4.738   4.021  0.5530 -0.1125 -0.8417
  169SAPE  H16X19087   1.137   4.760   4.103  0.1451  0.5101 -0.6441
  169SAPE  H16Y19088   1.113   4.769   3.926  1.1315  1.7179  0.0067
  169SAPE  C31719089   1.028   4.594   4.014 -0.0624  0.4600  0.1852
  169SAPE  H17X19090   0.969   4.573   3.923  0.0390 -0.6595  0.3634
  169SAPE  H17Y19091   0.966   4.565   4.101  1.3344  2.2458  1.8622
  169SAPE  C31819092   1.163   4.521   3.995 -0.0992 -0.2830 -0.0302
  169SAPE  H18X19093   1.225   4.572   3.920  1.1533 -0.5720  0.7802
  169SAPE  H18Y19094   1.148   4.413   3.970  1.5694 -0.7053  0.6307
  169SAPE  H18Z19095   1.226   4.509   4.086  0.9136 -0.6294 -0.7617
  170SAPE     N19096   1.365   3.794   2.063  0.6657  0.1925  0.7646
  170SAPE   HN119097   1.285   3.735   2.093  1.7070 -1.0187  1.2799
  170SAPE   HN219098   1.454   3.757   2.104 -0.2560 -3.5578 -0.1963
  170SAPE   HN319099   1.354   3.893   2.092  0.4910 -0.1161  1.8044
  170SAPE   C1219100   1.386   3.788   1.910  0.3763  0.7350 -0.1123
  170SAPE  H12A19101   1.321   3.863   1.861  2.0986  1.5218 -1.2947
  170SAPE  H12B19102   1.370   3.682   1.878  0.6618  1.1403 -1.6751
  170SAPE   C1119103   1.531   3.822   1.871  0.1129 -0.2394  0.1662
  170SAPE  H11A19104   1.553   3.791   1.767 -0.1921 -1.8224  0.5472
  170SAPE  H11B19105   1.604   3.771   1.938  0.9664 -0.8494 -1.1949
  170SAPE     P19106   1.695   4.020   1.840  0.0396  0.4484 -0.0412
  170SAPE   O1319107   1.767   3.911   1.771  0.1010 -0.3383  0.0509
  170SAPE   O1419108   1.667   4.137   1.757  0.6329 -0.4303  0.5406
  170SAPE   O1219109   1.555   3.959   1.890 -0.9205 -0.3585  0.2631
  170SAPE   O1119110   1.762   4.062   1.968 -0.1243 -0.0725  0.0869
  170SAPE    C119111   1.708   4.144   2.066  0.2609  0.1008  0.0555
  170SAPE    HA19112   1.783   4.222   2.091 -0.3731  1.0878 -1.0109
  170SAPE    HB19113   1.612   4.198   2.047 -0.7262 -1.1259  1.3188
  170SAPE    C219114   1.682   4.062   2.194 -0.2338 -0.1430  0.5965
  170SAPE    HS19115   1.581   4.016   2.190 -1.1492  1.8635 -0.9242
  170SAPE   O2119116   1.689   4.149   2.306 -0.1744 -0.2021 -0.1958
  170SAPE   C2119117   1.581   4.233   2.321 -0.4573  0.1927 -0.6051
  170SAPE   O2219118   1.469   4.198   2.293  0.1167  0.0605  0.0508
  170SAPE   C2219119   1.606   4.351   2.425 -0.5926 -0.0076  0.4999
  170SAPE   H2R19120   1.702   4.403   2.406  0.1600 -1.4394  0.2070
  170SAPE   H2S19121   1.527   4.424   2.396  0.6913  1.0021 -0.5756
  170SAPE    C319122   1.789   3.953   2.209  0.4560  0.4422  0.1749
  170SAPE    HX19123   1.890   3.998   2.216  0.7549  0.0134 -1.2187
  170SAPE    HY19124   1.785   3.881   2.125 -2.5577 -1.0082  1.3803
  170SAPE   O3119125   1.762   3.881   2.329 -0.2713 -0.0969 -0.5971
  170SAPE   C3119126   1.662   3.791   2.317 -0.7672  0.3486 -0.2970
  170SAPE   O3219127   1.603   3.774   2.212 -0.1422  0.1238  0.1639
  170SAPE   C3219128   1.624   3.728   2.444 -0.2786  0.0731  0.3234
  170SAPE   H2X19129   1.708   3.659   2.465  0.4295 -0.2313 -2.9441
  170SAPE   H2Y19130   1.540   3.661   2.417  0.4351 -1.9648  2.8034
  170SAPE   C2319131   1.597   4.314   2.573 -0.3412  0.3420 -0.1684
  170SAPE   H3R19132   1.683   4.255   2.613 -1.1518 -0.6328  0.1752
  170SAPE   H3S19133   1.504   4.262   2.603 -1.0745  2.0472  0.6585
  170SAPE   C2419134   1.604   4.449   2.651 -0.1874  0.7740  0.5116
  170SAPE   H4R19135   1.541   4.434   2.741 -1.9721  0.3241 -0.7553
  170SAPE   H4S19136   1.543   4.523   2.595  0.9319  0.8450 -0.6611
  170SAPE   C2519137   1.739   4.495   2.656 -0.8201 -0.1629 -0.9187
  170SAPE   H5R19138   1.780   4.534   2.561 -0.0944  1.8489  0.1532
  170SAPE   C2619139   1.827   4.484   2.759  0.4395  0.8420 -0.0502
  170SAPE   H6R19140   1.926   4.531   2.747  0.5950  0.3461 -0.7143
  170SAPE   C2719141   1.802   4.431   2.899 -0.3089 -0.0036  0.0845
  170SAPE   H7R19142   1.903   4.417   2.943 -0.9189  2.0426  2.4036
  170SAPE   H7S19143   1.751   4.333   2.902  1.5845 -1.0419 -0.0511
  170SAPE   C2819144   1.723   4.526   2.991  0.7920  0.7796 -0.4234
  170SAPE   H8R19145   1.732   4.634   2.973 -0.5233  0.7236 -1.5769
  170SAPE   C2919146   1.666   4.483   3.112 -0.7498 -0.0965 -0.0864
  170SAPE   H9R19147   1.594   4.545   3.167 -0.9106  0.1806 -0.6013
  170SAPE  C21019148   1.669   4.343   3.171  0.0402 -0.0419  0.5941
  170SAPE  H10R19149   1.742   4.288   3.108  2.1029  1.9420  1.0887
  170SAPE  H10S19150   1.568   4.299   3.157 -0.4218  1.3475 -0.6420
  170SAPE  C21119151   1.721   4.334   3.314 -0.1239  0.0977 -1.1085
  170SAPE  H11R19152   1.822   4.373   3.334 -0.5112  0.6249 -0.0610
  170SAPE  C21219153   1.667   4.263   3.415  0.2895 -0.3076  0.5553
  170SAPE  H12R19154   1.720   4.256   3.510 -0.4529  1.4421  1.1523
  170SAPE  C21319155   1.540   4.190   3.400  0.8190 -0.2677  0.4120
  170SAPE  H13R19156   1.544   4.104   3.470  2.2525 -0.3652  0.2413
  170SAPE  H13S19157   1.536   4.147   3.298  1.9994 -1.9412  1.0277
  170SAPE  C21419158   1.427   4.286   3.435  0.8859 -0.1407 -0.3864
  170SAPE  H14R19159   1.442   4.395   3.445 -0.8688  0.2009 -0.9343
  170SAPE  C21519160   1.300   4.244   3.453 -0.4887  0.4002  0.5209
  170SAPE  H15R19161   1.214   4.306   3.480 -0.6800 -0.0548  0.9558
  170SAPE  C21619162   1.254   4.104   3.419 -0.3344  0.0578 -0.2578
  170SAPE  H16R19163   1.205   4.077   3.514  0.9368 -0.3179  0.3070
  170SAPE  H16S19164   1.336   4.033   3.395 -0.6194 -0.3380 -0.0509
  170SAPE  C21719165   1.165   4.103   3.287  0.3789 -0.1174  0.1869
  170SAPE  H17R19166   1.084   4.177   3.270  0.6091  0.4413  1.4248
  170SAPE  H17S19167   1.119   4.002   3.284  2.7970 -1.3146 -2.7306
  170SAPE  C21819168   1.259   4.107   3.164  0.5227 -0.1627 -0.2672
  170SAPE  H18R19169   1.347   4.040   3.179  0.3726 -0.1584  0.6816
  170SAPE  H18S19170   1.304   4.208   3.155  0.6416 -0.1879  0.0184
  170SAPE  C21919171   1.180   4.073   3.034 -0.3583  0.7990  0.5245
  170SAPE  H19R19172   1.113   4.158   3.010 -1.0947  1.3121  3.8703
  170SAPE  H19S19173   1.142   3.969   3.048  1.6327 -0.3357 -1.7874
  170SAPE  C22019174   1.275   4.065   2.910  0.6980  0.3015 -0.5288
  170SAPE  H20R19175   1.223   4.007   2.830  0.3068 -3.3020  2.1005
  170SAPE  H20S19176   1.367   4.003   2.922  0.1779 -0.9467 -2.4691
  170SAPE  H20T19177   1.300   4.165   2.868  1.6010  0.6246  0.7227
  170SAPE   C3319178   1.590   3.823   2.560  0.4143  0.4183  0.9433
  170SAPE   H3X19179   1.482   3.835   2.539  0.8777  1.1104 -1.2915
  170SAPE   H3Y19180   1.651   3.916   2.561 -0.0322  0.7115  1.0235
  170SAPE   C3419181   1.618   3.770   2.707  0.8140  0.2866 -0.2271
  170SAPE   H4X19182   1.728   3.759   2.715  0.8567  0.1688 -0.9299
  170SAPE   H4Y19183   1.575   3.668   2.713 -0.0718  0.7000  0.8336
  170SAPE   C3519184   1.551   3.859   2.817 -0.5649 -0.2521  0.4823
  170SAPE   H5X19185   1.443   3.865   2.788 -0.3232  0.0855 -0.3792
  170SAPE   H5Y19186   1.584   3.964   2.806  1.4747 -0.9601 -0.6374
  170SAPE   C3619187   1.545   3.798   2.957  0.0191  0.2907 -0.8957
  170SAPE   H6X19188   1.506   3.694   2.951 -2.7113  1.2704 -1.2527
  170SAPE   H6Y19189   1.460   3.847   3.009  0.2649 -1.2062  1.0479
  170SAPE   C3719190   1.662   3.827   3.045 -0.2623 -0.0252  0.3893
  170SAPE   H7X19191   1.702   3.931   3.036 -1.1067  0.2322 -0.5841
  170SAPE   H7Y19192   1.743   3.759   3.012 -0.2170  0.7020 -1.0721
  170SAPE   C3819193   1.631   3.792   3.197  0.2745  0.9009  0.0526
  170SAPE   H8X19194   1.612   3.685   3.219 -1.2822  1.2831  0.7190
  170SAPE   H8Y19195   1.545   3.848   3.240  1.2637  1.2219  1.6980
  170SAPE   C3919196   1.740   3.846   3.292 -0.1277 -0.2266  0.1716
  170SAPE   H9X19197   1.748   3.953   3.263 -0.8046 -0.9232 -2.9320
  170SAPE   H9Y19198   1.837   3.794   3.275  1.0356  1.8437  0.1358
  170SAPE  C31019199   1.706   3.827   3.436  0.7715 -0.2249  0.4334
  170SAPE  H10X19200   1.706   3.717   3.454 -0.2176 -0.3657 -0.2885
  170SAPE  H10Y19201   1.600   3.850   3.463  1.1391 -0.1772  1.9142
  170SAPE  C31119202   1.804   3.901   3.519 -0.4032  0.3350 -0.0420
  170SAPE  H11X19203   1.804   4.008   3.490  1.3218  0.3378 -0.1433
  170SAPE  H11Y19204   1.908   3.864   3.514  0.0873  1.6434  0.0404
  170SAPE  C31219205   1.782   3.890   3.671 -0.1319 -0.3972 -0.4942
  170SAPE  H12X19206   1.798   3.782   3.692  0.4034 -0.3225 -0.4842
  170SAPE  H12Y19207   1.674   3.897   3.696  0.1578 -1.3543  1.1739
  170SAPE  C31319208   1.868   3.972   3.767 -0.4101 -0.6605 -0.1699
  170SAPE  H13X19209   1.974   3.939   3.758  0.7568  2.6040  0.2999
  170SAPE  H13Y19210   1.844   3.936   3.869  0.1552 -1.6958 -0.3906
  170SAPE  C31419211   1.857   4.123   3.753  0.3704  0.0572  0.4793
  170SAPE  H14X19212   1.871   4.150   3.646 -1.8852 -1.3819 -0.2386
  170SAPE  H14Y19213   1.929   4.185   3.811 -0.7367  1.6472  0.2170
  170SAPE  C31519214   1.718   4.166   3.798 -0.1146  1.1841  0.2437
  170SAPE  H15X19215   1.723   4.139   3.906 -2.5912  1.9419  0.6262
  170SAPE  H15Y19216   1.646   4.107   3.738  1.1244 -0.9212  0.7220
  170SAPE  C31619217   1.699   4.319   3.799  0.2966 -0.0980 -0.0281
  170SAPE  H16X19218   1.653   4.346   3.702 -1.4625  1.3308  1.1521
  170SAPE  H16Y19219   1.803   4.359   3.804  0.8016 -1.4937  1.5791
  170SAPE  C31719220   1.608   4.364   3.910  0.0064 -0.2501  0.3835
  170SAPE  H17X19221   1.644   4.333   4.011 -0.8690  0.4837  0.9334
  170SAPE  H17Y19222   1.513   4.308   3.895 -0.1699 -0.6023  2.4480
  170SAPE  C31819223   1.571   4.510   3.934  0.0099  0.2611 -0.1122
  170SAPE  H18X19224   1.660   4.570   3.904 -0.8421  1.0596 -1.1427
  170SAPE  H18Y19225   1.527   4.543   4.030  0.1309  0.2891 -0.0667
  170SAPE  H18Z19226   1.488   4.528   3.861 -0.8236  0.3122  0.8237
  171SAPE     N19227   2.792   4.428   1.765 -0.1766  0.8819  0.3524
  171SAPE   HN119228   2.722   4.503   1.746 -0.4103  0.5113 -0.2769
  171SAPE   HN219229   2.884   4.462   1.799 -0.2125  0.9009  0.4301
  171SAPE   HN319230   2.812   4.374   1.679  1.6867 -0.2702  1.4616
  171SAPE   C1219231   2.737   4.338   1.870 -0.4783  0.3316  0.5568
  171SAPE  H12A19232   2.744   4.401   1.962 -0.5974  1.6274 -0.2901
  171SAPE  H12B19233   2.810   4.256   1.887  1.1863  1.3718 -1.1673
  171SAPE   C1119234   2.601   4.295   1.823 -0.3786 -0.2139 -0.1340
  171SAPE  H11A19235   2.554   4.244   1.910  1.9546 -3.1328 -0.4458
  171SAPE  H11B19236   2.609   4.224   1.738 -1.0674  1.1576 -1.4065
  171SAPE     P19237   2.379   4.385   1.743 -0.1865  0.9456  0.0693
  171SAPE   O1319238   2.331   4.506   1.672 -0.2977  0.0958  0.1063
  171SAPE   O1419239   2.365   4.262   1.662 -0.1813  0.1539  0.1305
  171SAPE   O1219240   2.530   4.408   1.780  0.8079  0.0629 -0.2507
  171SAPE   O1119241   2.316   4.366   1.890  0.1600 -0.6055 -0.5056
  171SAPE    C119242   2.308   4.483   1.965  0.3870  0.1293 -0.3872
  171SAPE    HA19243   2.412   4.520   1.973  0.4212 -0.0537  0.0609
  171SAPE    HB19244   2.240   4.558   1.920 -0.2668  0.3791  0.9641
  171SAPE    C219245   2.260   4.455   2.108  0.1615 -0.2445 -0.1500
  171SAPE    HS19246   2.299   4.540   2.169  0.2085 -0.0893 -0.3929
  171SAPE   O2119247   2.302   4.327   2.161 -0.7643  0.8842  0.0532
  171SAPE   C2119248   2.436   4.316   2.169 -0.0193  0.5295 -0.0734
  171SAPE   O2219249   2.514   4.403   2.156 -0.8888 -0.0866 -0.4623
  171SAPE   C2219250   2.472   4.171   2.206 -0.5149  0.5088 -0.7768
  171SAPE   H2R19251   2.386   4.104   2.223  0.7086 -0.7372  0.8980
  171SAPE   H2S19252   2.533   4.134   2.121  1.4121  1.1895  0.2381
  171SAPE    C319253   2.100   4.460   2.126  0.1945 -0.6737  0.7187
  171SAPE    HX19254   2.059   4.399   2.043  1.4435 -0.1396 -0.3408
  171SAPE    HY19255   2.078   4.566   2.103  1.7934 -0.2586  0.9593
  171SAPE   O3119256   2.058   4.424   2.262  0.3420  0.2740  0.2705
  171SAPE   C3119257   2.034   4.294   2.265  0.2137  0.2310  0.4698
  171SAPE   O3219258   2.048   4.217   2.168  0.5894 -0.5491 -0.4769
  171SAPE   C3219259   2.010   4.250   2.410 -0.4602  0.1918 -0.3488
  171SAPE   H2X19260   1.912   4.199   2.395 -0.5270  0.8532 -2.5132
  171SAPE   H2Y19261   1.988   4.340   2.472 -3.5377 -0.2357 -0.6348
  171SAPE   C2319262   2.563   4.155   2.327 -0.3535 -0.2016 -0.0816
  171SAPE   H3R19263   2.524   4.210   2.416 -0.1766 -1.0966  0.5607
  171SAPE   H3S19264   2.652   4.211   2.290 -0.1944  0.5964  1.4180
  171SAPE   C2419265   2.595   4.006   2.355 -0.8998  0.2056  0.5101
  171SAPE   H4R19266   2.696   4.010   2.402 -0.8750  0.7405  0.4156
  171SAPE   H4S19267   2.605   3.949   2.260 -0.7744  1.4823 -0.2624
  171SAPE   C2519268   2.482   3.955   2.440 -0.5058  1.1403  0.8043
  171SAPE   H5R19269   2.414   3.894   2.380  1.1027  1.1554 -1.1561
  171SAPE   C2619270   2.471   3.962   2.572 -0.2705 -0.7274 -0.0681
  171SAPE   H6R19271   2.379   3.922   2.618 -0.8681 -0.0413 -0.6335
  171SAPE   C2719272   2.568   4.020   2.676  0.6789  0.5017 -0.5263
  171SAPE   H7R19273   2.648   4.071   2.618 -0.7193  1.3961 -1.7374
  171SAPE   H7S19274   2.614   3.932   2.727 -2.8627 -2.4718 -1.9808
  171SAPE   C2819275   2.495   4.127   2.759 -0.4895  0.6822 -0.0978
  171SAPE   H8R19276   2.420   4.186   2.705 -1.9013  0.5312  1.6337
  171SAPE   C2919277   2.500   4.151   2.888  0.3296  0.6136 -0.1683
  171SAPE   H9R19278   2.435   4.234   2.919 -1.0896  0.4663 -2.5424
  171SAPE  C21019279   2.600   4.087   2.985  0.3971 -0.8017 -0.2243
  171SAPE  H10R19280   2.649   4.164   3.049  1.1075 -2.8116  1.7689
  171SAPE  H10S19281   2.680   4.031   2.933  0.9987  1.0931 -1.4583
  171SAPE  C21119282   2.504   4.003   3.065  0.2535  0.8356  0.0542
  171SAPE  H11R19283   2.443   4.068   3.130  1.1243  1.2227  0.5145
  171SAPE  C21219284   2.498   3.873   3.096  0.1664 -0.1714 -0.4807
  171SAPE  H12R19285   2.420   3.839   3.167  0.0424  2.2443  0.6533
  171SAPE  C21319286   2.580   3.778   3.016  0.3879  0.5363  0.2611
  171SAPE  H13R19287   2.680   3.753   3.057  0.8559 -1.9395 -2.0813
  171SAPE  H13S19288   2.586   3.816   2.912 -2.1334 -0.3737 -0.2977
  171SAPE  C21419289   2.501   3.641   2.999 -1.1180 -0.3438  0.0842
  171SAPE  H14R19290   2.454   3.602   3.090 -1.2077  0.3735  0.3590
  171SAPE  C21519291   2.492   3.570   2.891  0.4543  0.7529  0.3136
  171SAPE  H15R19292   2.435   3.476   2.900 -0.8197  1.3217 -1.2962
  171SAPE  C21619293   2.571   3.576   2.761 -0.1205 -0.6287 -0.3807
  171SAPE  H16R19294   2.657   3.507   2.774 -0.8716 -1.2879  1.3246
  171SAPE  H16S19295   2.610   3.678   2.740 -0.7559 -0.0199  1.2560
  171SAPE  C21719296   2.477   3.540   2.649  0.1964  0.1024 -1.2269
  171SAPE  H17R19297   2.380   3.595   2.657  0.4185  0.2946  0.2915
  171SAPE  H17S19298   2.460   3.430   2.655  1.6083 -0.0578  0.5063
  171SAPE  C21819299   2.540   3.559   2.513 -0.9974 -0.1065  0.5764
  171SAPE  H18R19300   2.626   3.490   2.499 -2.4253 -1.4493 -2.6738
  171SAPE  H18S19301   2.573   3.665   2.510  0.7990 -0.6517 -0.1687
  171SAPE  C21919302   2.437   3.529   2.403  0.0166 -0.0537 -0.1796
  171SAPE  H19R19303   2.342   3.586   2.414 -1.5403 -2.5295 -0.1777
  171SAPE  H19S19304   2.400   3.425   2.408 -1.0862  0.1573 -2.5181
  171SAPE  C22019305   2.495   3.546   2.257  0.1568  0.0047  0.3048
  171SAPE  H20R19306   2.541   3.647   2.250  3.0843 -1.1843  0.8002
  171SAPE  H20S19307   2.420   3.535   2.177 -0.2470 -1.3721  0.8380
  171SAPE  H20T19308   2.579   3.475   2.238 -1.1390 -1.0671 -1.7215
  171SAPE   C3319309   2.116   4.153   2.456 -0.1314  0.0772  0.1719
  171SAPE   H3X19310   2.220   4.189   2.436 -0.5035 -0.0450 -2.3844
  171SAPE   H3Y19311   2.110   4.055   2.403  0.6980 -0.3361  0.8150
  171SAPE   C3419312   2.098   4.121   2.602 -0.4270  0.6926 -0.2199
  171SAPE   H4X19313   2.142   4.206   2.658 -0.5027  0.1278  0.7258
  171SAPE   H4Y19314   2.149   4.028   2.635 -1.1323  0.1732 -0.5589
  171SAPE   C3519315   1.950   4.098   2.647  0.2076 -0.6531 -0.6743
  171SAPE   H5X19316   1.888   4.035   2.580 -0.0313 -1.9087  0.6771
  171SAPE   H5Y19317   1.895   4.194   2.637 -3.6583 -2.6253 -0.2095
  171SAPE   C3619318   1.929   4.050   2.793  0.2501 -0.0369 -0.1967
  171SAPE   H6X19319   1.951   3.942   2.788  4.4646  0.4388  2.7482
  171SAPE   H6Y19320   1.820   4.056   2.812  0.1719 -0.3403 -0.5460
  171SAPE   C3719321   2.023   4.113   2.893  0.0559 -0.1074  0.1049
  171SAPE   H7X19322   2.019   4.224   2.886  1.0537 -0.0531  0.2993
  171SAPE   H7Y19323   2.128   4.084   2.870 -0.4450 -1.1706 -0.9688
  171SAPE   C3819324   1.997   4.060   3.036  0.0696 -0.4732 -0.1605
  171SAPE   H8X19325   1.996   3.949   3.046  2.7000 -0.4172  1.9744
  171SAPE   H8Y19326   1.899   4.098   3.072  1.2969  0.9600  1.8805
  171SAPE   C3919327   2.109   4.110   3.139 -0.3233 -0.4354 -0.1876
  171SAPE   H9X19328   2.095   4.220   3.151 -1.1438 -0.6979  1.3922
  171SAPE   H9Y19329   2.211   4.095   3.097 -0.2019  0.1522 -0.1216
  171SAPE  C31019330   2.100   4.047   3.282 -0.4458 -0.1389  1.4016
  171SAPE  H10X19331   2.096   3.936   3.278 -0.6145 -0.1502  1.8455
  171SAPE  H10Y19332   2.005   4.082   3.327 -0.2526 -0.0161  1.7185
  171SAPE  C31119333   2.208   4.096   3.375 -0.6857 -0.1224 -0.7606
  171SAPE  H11X19334   2.190   4.205   3.367 -0.1122  0.0954  0.6025
  171SAPE  H11Y19335   2.312   4.066   3.349  0.4130  1.8270  1.0943
  171SAPE  C31219336   2.189   4.053   3.523  0.0255 -0.7188 -0.3008
  171SAPE  H12X19337   2.182   3.945   3.548 -0.3190 -0.5264  0.4609
  171SAPE  H12Y19338   2.094   4.104   3.550  0.1968  0.0759 -1.1499
  171SAPE  C31319339   2.287   4.121   3.619 -0.3790 -0.1695 -0.4630
  171SAPE  H13X19340   2.314   4.227   3.601  3.0548 -0.5285  1.5301
  171SAPE  H13Y19341   2.382   4.062   3.617 -0.5249 -0.4391  0.2141
  171SAPE  C31419342   2.226   4.107   3.763  0.5094 -0.3290 -0.2938
  171SAPE  H14X19343   2.198   4.000   3.765  0.2050 -0.2418  0.4864
  171SAPE  H14Y19344   2.134   4.169   3.770  0.9689  0.4254 -0.7836
  171SAPE  C31519345   2.323   4.125   3.877  0.4032 -0.4979  0.0998
  171SAPE  H15X19346   2.363   4.227   3.856 -1.9721  0.3035 -0.8960
  171SAPE  H15Y19347   2.404   4.049   3.874 -0.1393 -1.0833  0.2215
  171SAPE  C31619348   2.253   4.124   4.018 -0.8483 -0.3356 -0.3747
  171SAPE  H16X19349   2.203   4.025   4.026  0.7172 -1.2470 -1.2404
  171SAPE  H16Y19350   2.177   4.205   4.023 -1.1429 -0.5984 -0.5829
  171SAPE  C31719351   2.349   4.121   4.132  0.5287 -0.6567  0.3735
  171SAPE  H17X19352   2.419   4.207   4.122 -1.8146  1.2299 -1.1228
  171SAPE  H17Y19353   2.413   4.031   4.136  0.9254 -0.3885  0.1546
  171SAPE  C31819354   2.279   4.131   4.274  0.1140  0.1920  0.7840
  171SAPE  H18X19355   2.215   4.042   4.292 -0.7877  0.5848 -0.3452
  171SAPE  H18Y19356   2.207   4.216   4.272  0.9986  0.9558  0.6314
  171SAPE  H18Z19357   2.350   4.142   4.359  0.5886  2.5725  0.1391
  172SAPE     N19358   4.556   6.384   1.966 -0.4081  0.2509 -1.2829
  172SAPE   HN119359   4.498   6.435   2.036 -0.6415 -1.3720 -0.2549
  172SAPE   HN219360   4.643   6.434   1.938  1.8672 -0.2521  3.8937
  172SAPE   HN319361   4.490   6.371   1.887 -0.8338  0.6115 -0.9913
  172SAPE   C1219362   4.596   6.245   2.010 -0.7957 -0.1330 -0.5095
  172SAPE  H12A19363   4.518   6.211   2.082  0.9477 -0.1543  1.4742
  172SAPE  H12B19364   4.689   6.255   2.070 -0.4168 -1.3255 -0.8905
  172SAPE   C1119365   4.620   6.157   1.888 -0.0845 -0.3184  0.4759
  172SAPE  H11A19366   4.662   6.061   1.925  0.6251  0.0367  0.6071
  172SAPE  H11B19367   4.699   6.198   1.823  1.2783 -2.1617  0.9069
  172SAPE     P19368   4.494   6.030   1.697  0.1006  0.2069  0.0956
  172SAPE   O1319369   4.379   5.954   1.742  0.2974  0.1011 -0.1080
  172SAPE   O1419370   4.471   6.091   1.562  0.0269  0.3943 -0.1575
  172SAPE   O1219371   4.512   6.144   1.803 -0.1901  1.0108 -0.2217
  172SAPE   O1119372   4.636   5.958   1.699 -0.5109  0.9971 -0.2971
  172SAPE    C119373   4.646   5.807   1.715  0.2079 -0.9526 -0.1946
  172SAPE    HA19374   4.554   5.746   1.704 -1.8623  2.0410 -0.8290
  172SAPE    HB19375   4.716   5.772   1.637  1.0612 -0.3173  0.2673
  172SAPE    C219376   4.708   5.770   1.848  0.0398  0.2029  0.1229
  172SAPE    HS19377   4.729   5.662   1.860 -0.0450  0.3338  1.6792
  172SAPE   O2119378   4.625   5.812   1.956  0.6078 -0.3154  0.0381
  172SAPE   C2119379   4.514   5.753   1.969  0.2622 -1.4673  0.2880
  172SAPE   O2219380   4.485   5.648   1.914  0.3547  0.6942 -0.3905
  172SAPE   C2219381   4.434   5.833   2.080 -0.2545 -0.9575  0.1848
  172SAPE   H2R19382   4.357   5.895   2.030  1.4723  2.4134  1.3893
  172SAPE   H2S19383   4.370   5.753   2.122 -0.0694 -1.1935  0.0235
  172SAPE    C319384   4.842   5.840   1.862  0.2407  0.1503  0.5317
  172SAPE    HX19385   4.839   5.946   1.828 -0.4916 -0.0634 -0.0761
  172SAPE    HY19386   4.910   5.789   1.791  0.0161 -1.4069  1.4035
  172SAPE   O3119387   4.903   5.824   1.990 -0.2580  0.1700 -0.0260
  172SAPE   C3119388   4.877   5.917   2.087 -0.6304 -0.9481 -0.3134
  172SAPE   O3219389   4.829   6.026   2.067 -0.2145  0.0117  0.1509
  172SAPE   C3219390   4.923   5.856   2.219  0.1753 -0.3191  0.1007
  172SAPE   H2X19391   5.031   5.834   2.210  0.8829  3.1820 -1.6423
  172SAPE   H2Y19392   4.875   5.756   2.224  0.3496 -0.3892  0.3933
  172SAPE   C2319393   4.508   5.914   2.188 -0.5991 -0.0056  0.1044
  172SAPE   H3R19394   4.602   5.956   2.145 -0.3982 -0.6010 -0.0423
  172SAPE   H3S19395   4.541   5.836   2.259 -0.2480 -1.4381 -1.5510
  172SAPE   C2419396   4.420   6.008   2.259  0.2376  0.0114  0.3060
  172SAPE   H4R19397   4.326   5.962   2.298  1.0113  0.0503  2.3538
  172SAPE   H4S19398   4.386   6.092   2.195  1.8012  1.8055  1.7388
  172SAPE   C2519399   4.498   6.070   2.372  0.0024  0.2290 -0.2279
  172SAPE   H5R19400   4.577   6.145   2.357 -2.2760  2.5415 -1.4665
  172SAPE   C2619401   4.477   6.048   2.504 -0.0974 -0.1496 -0.4219
  172SAPE   H6R19402   4.549   6.095   2.573  0.7441  1.2981 -2.1877
  172SAPE   C2719403   4.390   5.950   2.568 -0.2154  0.4228  0.2082
  172SAPE   H7R19404   4.451   5.877   2.627 -1.3695  0.2595  1.2479
  172SAPE   H7S19405   4.345   5.884   2.491 -0.1061  0.0058  0.4971
  172SAPE   C2819406   4.292   6.016   2.657 -0.0240  0.1295 -0.3001
  172SAPE   H8R19407   4.207   6.052   2.598  1.5529 -0.6514 -3.2174
  172SAPE   C2919408   4.289   6.022   2.793  0.1181 -0.7538  0.1155
  172SAPE   H9R19409   4.213   6.085   2.842  1.2300  0.3457  0.4804
  172SAPE  C21019410   4.390   5.968   2.896 -0.5032  0.7176 -0.0489
  172SAPE  H10R19411   4.444   6.056   2.936  0.4443  0.5082 -0.8391
  172SAPE  H10S19412   4.463   5.898   2.850 -1.2117  0.8316 -1.4008
  172SAPE  C21119413   4.320   5.896   3.007  0.5876  0.1604 -0.0913
  172SAPE  H11R19414   4.265   5.805   2.981  0.3058 -0.2496  1.8342
  172SAPE  C21219415   4.344   5.909   3.138  0.2149 -0.5997  0.1968
  172SAPE  H12R19416   4.280   5.846   3.201 -0.7366  0.1776  0.0213
  172SAPE  C21319417   4.437   6.008   3.216  0.6740  0.4295  0.3474
  172SAPE  H13R19418   4.457   6.100   3.157  0.7357  0.3644  0.2677
  172SAPE  H13S19419   4.529   5.950   3.236  0.8033 -0.2695 -1.9486
  172SAPE  C21419420   4.357   6.044   3.342 -0.2771 -0.3074 -0.3291
  172SAPE  H14R19421   4.282   6.121   3.316 -0.2270  0.2055  0.9707
  172SAPE  C21519422   4.365   6.004   3.470 -0.4834 -0.7668 -1.0543
  172SAPE  H15R19423   4.302   6.048   3.549  0.5200  0.4643 -0.9015
  172SAPE  C21619424   4.464   5.899   3.515 -0.4471  0.2512  0.7525
  172SAPE  H16R19425   4.486   5.825   3.435  0.9732  1.2247  0.1985
  172SAPE  H16S19426   4.417   5.829   3.588  3.4423 -0.0799  3.2376
  172SAPE  C21719427   4.598   5.951   3.573 -0.3847  0.5702 -0.3963
  172SAPE  H17R19428   4.622   6.048   3.524 -1.8168 -0.7795 -4.1777
  172SAPE  H17S19429   4.686   5.888   3.548  0.6350  1.9844 -0.5299
  172SAPE  C21819430   4.598   5.984   3.722  0.9947  0.3560 -0.6981
  172SAPE  H18R19431   4.553   5.903   3.784 -0.4241  1.2992 -0.4539
  172SAPE  H18S19432   4.536   6.074   3.740  1.0341  0.3760 -0.6641
  172SAPE  C21919433   4.730   6.024   3.782 -0.5097 -0.4757 -0.4894
  172SAPE  H19R19434   4.719   6.053   3.888  0.4867 -0.4569 -0.3806
  172SAPE  H19S19435   4.775   6.112   3.732  2.2685 -2.0405 -0.9664
  172SAPE  C22019436   4.844   5.915   3.781 -0.2218 -0.1597 -0.2342
  172SAPE  H20R19437   4.879   5.896   3.678 -3.1520 -1.1415 -1.1342
  172SAPE  H20S19438   4.801   5.817   3.811 -0.5798 -0.0172 -0.2734
  172SAPE  H20T19439   4.927   5.931   3.853 -0.8891 -4.1048  1.6982
  172SAPE   C3319440   4.890   5.957   2.337  0.3816  0.7719 -0.3021
  172SAPE   H3X19441   4.781   5.973   2.351  0.1149 -0.5297 -0.8330
  172SAPE   H3Y19442   4.942   6.054   2.317  3.1868 -0.1011  2.0387
  172SAPE   C3419443   4.950   5.919   2.471 -0.1233 -0.6455  0.5552
  172SAPE   H4X19444   5.041   5.983   2.479  0.1783 -1.2134  2.0390
  172SAPE   H4Y19445   4.989   5.817   2.487 -0.9612 -1.0160  0.2981
  172SAPE   C3519446   4.843   5.949   2.578 -0.3260 -0.2206 -0.1315
  172SAPE   H5X19447   4.762   5.873   2.577 -0.7100  0.1917 -0.4433
  172SAPE   H5Y19448   4.801   6.050   2.556  1.4861  0.4582 -0.6943
  172SAPE   C3619449   4.905   5.966   2.708 -0.3796  0.2082 -0.0170
  172SAPE   H6X19450   4.981   6.046   2.723  1.1238 -1.4282  1.5551
  172SAPE   H6Y19451   4.968   5.877   2.726  0.1438  0.5445 -0.1415
  172SAPE   C3719452   4.802   6.000   2.815 -0.4278  0.0629  0.1236
  172SAPE   H7X19453   4.717   5.929   2.821 -0.2358 -0.0704  1.7444
  172SAPE   H7Y19454   4.750   6.096   2.794 -0.1924 -0.1124 -1.3431
  172SAPE   C3819455   4.868   5.999   2.951 -0.1407  0.0208 -0.4492
  172SAPE   H8X19456   4.943   6.081   2.959 -0.6727  0.4435  0.3833
  172SAPE   H8Y19457   4.909   5.897   2.962 -1.4711 -0.7176 -1.9148
  172SAPE   C3919458   4.778   6.028   3.069  0.0950  0.4209  0.1211
  172SAPE   H9X19459   4.698   5.952   3.078  0.8973 -0.3563  0.8484
  172SAPE   H9Y19460   4.730   6.128   3.067 -1.4089 -0.2768  0.0986
  172SAPE  C31019461   4.841   6.030   3.212 -0.7200 -0.1056 -0.1865
  172SAPE  H10X19462   4.902   5.939   3.233  1.8258  0.5659 -3.6464
  172SAPE  H10Y19463   4.766   6.029   3.293 -0.5218 -2.6411  0.0594
  172SAPE  C31119464   4.929   6.156   3.223 -0.5354 -0.3607  0.4304
  172SAPE  H11X19465   4.874   6.253   3.215  1.2170  0.6208 -0.4811
  172SAPE  H11Y19466   5.006   6.152   3.144 -1.6233  0.4542 -0.7152
  172SAPE  C31219467   5.005   6.157   3.353  0.2448 -0.2649 -0.4364
  172SAPE  H12X19468   5.066   6.064   3.363  0.7194 -0.0249 -1.0362
  172SAPE  H12Y19469   4.926   6.152   3.430  1.5247 -0.6491  0.8903
  172SAPE  C31319470   5.085   6.291   3.385  0.2329  0.7632  0.5524
  172SAPE  H13X19471   5.004   6.364   3.409  0.2669  0.7809  0.6140
  172SAPE  H13Y19472   5.127   6.329   3.290 -2.8135  0.3708 -1.0729
  172SAPE  C31419473   5.196   6.286   3.482 -0.5309 -0.1017  0.1671
  172SAPE  H14X19474   5.233   6.387   3.509 -1.5352 -0.0004  1.2314
  172SAPE  H14Y19475   5.279   6.233   3.431  0.1461 -0.2607  1.4055
  172SAPE  C31519476   5.152   6.212   3.608  0.3915 -0.3598  0.8770
  172SAPE  H15X19477   5.129   6.105   3.588 -1.8046  0.1739  0.2236
  172SAPE  H15Y19478   5.059   6.261   3.644 -0.0795  1.7081 -2.7004
  172SAPE  C31619479   5.267   6.201   3.709  0.7872 -0.1182 -0.4348
  172SAPE  H16X19480   5.310   6.304   3.707 -0.3286  0.3542 -1.8527
  172SAPE  H16Y19481   5.347   6.134   3.670  0.8172 -1.8749  2.3434
  172SAPE  C31719482   5.215   6.150   3.835 -0.0248 -0.4680 -0.4742
  172SAPE  H17X19483   5.169   6.050   3.819  1.0308 -1.1661  0.6168
  172SAPE  H17Y19484   5.135   6.217   3.873  0.2578  0.2666 -1.1471
  172SAPE  C31819485   5.320   6.132   3.946  0.4440 -0.6179  0.4499
  172SAPE  H18X19486   5.273   6.102   4.042  0.2822 -1.2692  0.1669
  172SAPE  H18Y19487   5.386   6.220   3.962  0.5237 -0.7795  1.0111
  172SAPE  H18Z19488   5.383   6.043   3.927 -1.0366 -1.7604  0.6752
  173SLPC     N19489   3.457   0.613   6.759 -0.0463  0.6835  0.1436
  173SLPC   C1319490   3.509   0.636   6.898 -0.1070 -0.7320  0.4046
  173SLPC  H13A19491   3.563   0.729   6.897 -0.0759 -0.6595 -2.6129
  173SLPC  H13B19492   3.429   0.637   6.971 -0.6270  2.8665 -0.0611
  173SLPC  H13C19493   3.576   0.556   6.927  2.1848  0.8601 -0.2230
  173SLPC   C1419494   3.340   0.705   6.746  0.4094 -0.5138 -0.3911
  173SLPC  H14A19495   3.249   0.674   6.794  1.1128 -1.1035  0.6074
  173SLPC  H14B19496   3.368   0.802   6.785  1.3006 -0.6823 -0.5914
  173SLPC  H14C19497   3.310   0.717   6.643 -2.1530  2.3819  0.5417
  173SLPC   C1519498   3.410   0.471   6.743 -0.5078 -0.1496 -0.0830
  173SLPC  H15A19499   3.352   0.460   6.652 -2.6789  0.5396  1.1455
  173SLPC  H15B19500   3.489   0.398   6.728 -0.1869 -0.0803  1.2209
  173SLPC  H15C19501   3.344   0.432   6.819  2.9346  0.1263  3.3164
  173SLPC   C1219502   3.573   0.641   6.661 -0.4315 -0.5123  0.0756
  173SLPC  H12A19503   3.661   0.585   6.687  1.1657  1.4367 -0.8204
  173SLPC  H12B19504   3.613   0.741   6.669 -0.5107 -0.4528 -0.2603
  173SLPC   C1119505   3.552   0.611   6.515 -1.0896 -0.2822 -0.2332
  173SLPC  H11A19506   3.543   0.500   6.507  0.1893 -0.4231  0.1187
  173SLPC  H11B19507   3.645   0.639   6.462  0.5224 -2.5703  1.1973
  173SLPC     P19508   3.421   0.802   6.388  0.0962  0.2616 -0.6434
  173SLPC   O1319509   3.292   0.870   6.391  0.3418 -0.1222 -0.1459
  173SLPC   O1419510   3.531   0.886   6.434 -0.0489  0.0177 -0.2303
  173SLPC   O1219511   3.423   0.664   6.468 -0.1591 -0.0965 -0.0138
  173SLPC   O1119512   3.456   0.760   6.243  0.1570 -0.3578 -0.4272
  173SLPC    C119513   3.417   0.639   6.178  0.2816  0.2069 -0.0793
  173SLPC    HA19514   3.486   0.562   6.218  1.3143  0.7853 -0.6962
  173SLPC    HB19515   3.321   0.601   6.219  0.0910  0.6614 -0.0973
  173SLPC    C219516   3.404   0.650   6.023  0.7947  0.1888 -0.3158
  173SLPC    HS19517   3.346   0.564   5.985 -1.0722  1.8775 -1.5329
  173SLPC   O2119518   3.534   0.663   5.956  0.6432 -0.0095 -0.2592
  173SLPC   C2119519   3.599   0.550   5.939  0.7066  0.4277 -0.2871
  173SLPC   O2219520   3.567   0.440   5.985 -0.3696  1.1395 -0.3133
  173SLPC   C2219521   3.697   0.578   5.822  0.4603 -0.1180 -0.2605
  173SLPC   H2R19522   3.678   0.678   5.778 -0.2820  0.3091  0.9706
  173SLPC   H2S19523   3.802   0.573   5.859  0.2441  1.2394  0.6124
  173SLPC    C319524   3.318   0.767   5.987 -0.4124  0.0468  0.2174
  173SLPC    HX19525   3.375   0.855   6.024 -1.2433  0.0617  1.4852
  173SLPC    HY19526   3.220   0.758   6.038  0.2227  1.1599  1.7000
  173SLPC   O3119527   3.293   0.772   5.844  0.0102  0.2976 -0.1108
  173SLPC   C3119528   3.374   0.857   5.762 -0.3820  0.4109 -0.7318
  173SLPC   O3219529   3.442   0.950   5.804  0.0856  0.0073 -0.0534
  173SLPC   C3219530   3.376   0.803   5.626  0.6937 -0.2941 -0.0858
  173SLPC   H2X19531   3.286   0.838   5.572 -0.6308 -0.7671  1.7268
  173SLPC   H2Y19532   3.378   0.692   5.628 -0.6132 -0.3278  1.8256
  173SLPC   C2319533   3.696   0.471   5.711 -0.1390  0.1938  0.9987
  173SLPC   H3R19534   3.731   0.368   5.735  1.4598  0.0580 -1.5568
  173SLPC   H3S19535   3.774   0.509   5.642  0.8173  0.6403  2.2875
  173SLPC   C2419536   3.565   0.470   5.639  0.2175 -0.0044  0.5387
  173SLPC   H4R19537   3.543   0.576   5.615  0.2078 -0.3030 -0.9231
  173SLPC   H4S19538   3.480   0.437   5.703  2.1101 -1.3530  2.5037
  173SLPC   C2519539   3.568   0.389   5.510 -0.0803 -0.4378 -0.3078
  173SLPC   H5R19540   3.618   0.294   5.540  0.2704  0.6345  2.8594
  173SLPC   H5S19541   3.647   0.431   5.444  0.9969 -2.1957 -0.2127
  173SLPC   C2619542   3.432   0.389   5.442  0.2548  0.3745 -0.6576
  173SLPC   H6R19543   3.390   0.492   5.445  0.8284  0.6012 -0.1376
  173SLPC   H6S19544   3.366   0.337   5.515  0.9381 -0.7629 -0.8342
  173SLPC   C2719545   3.420   0.330   5.296  0.2554 -0.6635  0.4192
  173SLPC   H7R19546   3.503   0.377   5.239 -1.3852 -0.6855 -2.1360
  173SLPC   H7S19547   3.333   0.373   5.243 -0.4105 -1.5200  0.8061
  173SLPC   C2819548   3.425   0.174   5.289 -0.4393 -0.3096 -0.1481
  173SLPC   H8R19549   3.353   0.124   5.357 -1.5621 -0.3650 -1.3495
  173SLPC   H8S19550   3.528   0.142   5.318 -0.1766  1.2200  0.7196
  173SLPC   C2919551   3.413   0.130   5.147 -0.0330 -0.2937  0.2691
  173SLPC   H9R19552   3.514   0.120   5.103 -0.1200  1.6722 -0.5206
  173SLPC  C21019553   3.310   0.118   5.066 -0.4057  0.2462  0.2531
  173SLPC  H10R19554   3.326   0.079   4.965  3.2210 -0.3448  0.9094
  173SLPC  C21119555   3.169   0.142   5.117 -0.6100  1.0434 -0.1344
  173SLPC  H11R19556   3.175   0.152   5.228  2.9604 -1.4078  0.0839
  173SLPC  H11S19557   3.117   0.045   5.105  0.5566  0.0161  2.2191
  173SLPC  C21219558   3.084   0.253   5.054  0.6393  0.1060 -0.6960
  173SLPC  H12R19559   3.084   0.355   5.095  2.8728  0.4549 -1.4299
  173SLPC  C21319560   2.987   0.230   4.967  0.0927 -0.3479  0.2347
  173SLPC  H13R19561   2.932   0.308   4.913 -1.2999 -2.7759 -2.1133
  173SLPC  C21419562   2.949   0.100   4.895  0.1939 -0.7456 -1.0427
  173SLPC  H14R19563   2.839   0.088   4.889 -0.0073  0.2236  0.3323
  173SLPC  H14S19564   2.975   0.014   4.961 -0.3247 -1.0081 -1.1755
  173SLPC  C21519565   3.023   0.071   4.762  0.0630 -0.6008 -0.7110
  173SLPC  H15R19566   2.994  -0.025   4.715 -0.6668 -1.0631  0.6493
  173SLPC  H15S19567   3.132   0.073   4.786 -0.0908  2.0369  0.1507
  173SLPC  C21619568   2.989   0.178   4.658  0.1829 -0.1097  0.0676
  173SLPC  H16R19569   3.044   0.272   4.680 -0.7478  0.5863 -0.4897
  173SLPC  H16S19570   2.882   0.203   4.673  0.1726 -0.4924  0.6662
  173SLPC  C21719571   3.005   0.129   4.505  0.6865 -0.4265  0.4943
  173SLPC  H17R19572   2.967   0.216   4.448 -0.2138 -0.1069  1.5364
  173SLPC  H17S19573   2.938   0.045   4.477 -0.8229  0.6731  0.6839
  173SLPC  C21819574   3.143   0.096   4.461 -0.3773  1.0015 -0.1779
  173SLPC  H18R19575   3.194   0.014   4.517 -0.4482  0.4671 -0.8898
  173SLPC  H18S19576   3.219   0.176   4.476 -0.2513  0.9055 -0.2914
  173SLPC  H18T19577   3.148   0.062   4.356  1.0603 -1.1041  0.4998
  173SLPC   C3319578   3.488   0.852   5.531 -0.5555  0.3095 -1.3372
  173SLPC   H3X19579   3.579   0.803   5.572 -1.7848  0.5083  1.9393
  173SLPC   H3Y19580   3.495   0.962   5.537 -0.0283  0.2094  0.0768
  173SLPC   C3419581   3.480   0.799   5.390  0.3295  0.0633 -0.0363
  173SLPC   H4X19582   3.476   0.688   5.398  1.5224  0.0843  1.0497
  173SLPC   H4Y19583   3.566   0.833   5.329  0.5929  0.8063  0.7460
  173SLPC   C3519584   3.363   0.866   5.319  0.5020 -0.0390 -0.2851
  173SLPC   H5X19585   3.373   0.975   5.340  1.9345 -0.4983  1.7175
  173SLPC   H5Y19586   3.270   0.824   5.363  1.9553 -1.1056  1.9315
  173SLPC   C3619587   3.375   0.843   5.168 -0.0035 -0.0080  0.2493
  173SLPC   H6X19588   3.334   0.744   5.138 -0.6589  1.0198 -2.5845
  173SLPC   H6Y19589   3.481   0.851   5.136 -0.2798 -1.2914 -1.0789
  173SLPC   C3719590   3.281   0.944   5.097  0.0557 -0.6785 -0.2282
  173SLPC   H7X19591   3.308   1.049   5.124  0.9251 -0.6817 -1.0400
  173SLPC   H7Y19592   3.175   0.933   5.129 -0.1143 -0.2269 -0.6282
  173SLPC   C3819593   3.284   0.945   4.944 -0.6148  0.0479 -0.5361
  173SLPC   H8X19594   3.247   0.847   4.906 -0.4880 -0.1262 -0.2127
  173SLPC   H8Y19595   3.386   0.969   4.907 -1.2587 -1.0105 -3.2739
  173SLPC   C3919596   3.184   1.049   4.884  0.0677 -0.0571 -0.4351
  173SLPC   H9X19597   3.206   1.151   4.921  2.8412 -1.0049  0.8747
  173SLPC   H9Y19598   3.092   1.019   4.939  1.6467  0.2578  2.6070
  173SLPC  C31019599   3.172   1.046   4.735 -0.5663 -0.2610  0.5522
  173SLPC  H10X19600   3.090   1.116   4.707 -0.7084  0.2709  2.1915
  173SLPC  H10Y19601   3.140   0.947   4.695 -1.9189  0.3513  0.0746
  173SLPC  C31119602   3.296   1.085   4.652  0.0766 -0.4319  0.1979
  173SLPC  H11X19603   3.379   1.015   4.676  0.8801  1.1703  2.4090
  173SLPC  H11Y19604   3.321   1.187   4.688  1.8773 -1.1640  1.1832
  173SLPC  C31219605   3.290   1.088   4.498  0.3681  0.8733 -0.2416
  173SLPC  H12X19606   3.379   1.134   4.452 -0.9065  2.8947 -0.8347
  173SLPC  H12Y19607   3.207   1.162   4.487  0.6789  1.5609  1.7003
  173SLPC  C31319608   3.239   0.950   4.440 -0.7860 -0.2451 -0.7211
  173SLPC  H13X19609   3.143   0.919   4.487 -0.1178  1.8660  2.3461
  173SLPC  H13Y19610   3.317   0.879   4.476  1.9169  1.9279 -1.9304
  173SLPC  C31419611   3.229   0.963   4.289  0.0555  0.0719 -0.9222
  173SLPC  H14X19612   3.159   1.047   4.268 -1.3832 -1.2049 -1.4655
  173SLPC  H14Y19613   3.192   0.871   4.239 -1.1265 -0.1882  0.3540
  173SLPC  C31519614   3.364   0.982   4.213  0.2564 -0.2570  0.5154
  173SLPC  H15X19615   3.438   0.903   4.236  1.7062  0.3705 -1.7122
  173SLPC  H15Y19616   3.406   1.077   4.251  1.3082 -0.6607  0.3954
  173SLPC  C31619617   3.344   0.973   4.057  0.1156  0.2235  0.1025
  173SLPC  H16X19618   3.287   1.063   4.025  0.9989  0.1161 -1.8851
  173SLPC  H16Y19619   3.282   0.882   4.040  0.4057 -0.1828  1.1232
  173SLPC  C31719620   3.470   0.950   3.978  0.6104 -0.2648  0.1475
  173SLPC  H17X19621   3.446   0.899   3.882  0.0469 -0.2452  0.2736
  173SLPC  H17Y19622   3.536   0.878   4.031  1.3041  1.3270  1.5317
  173SLPC  C31819623   3.542   1.081   3.959  0.0725  0.0164 -0.1793
  173SLPC  H18X19624   3.492   1.136   3.877  0.3529  0.6352  0.0603
  173SLPC  H18Y19625   3.650   1.065   3.937  0.1220  0.8515 -0.5535
  173SLPC  H18Z19626   3.524   1.140   4.052 -0.3272  1.8005 -1.3501
  174SLPC     N19627   0.451   2.829   6.940 -0.2276 -0.2013 -0.1137
  174SLPC   C1319628   0.457   2.921   7.059 -0.0455 -0.5352  0.1362
  174SLPC  H13A19629   0.518   3.007   7.036 -2.8810  2.1191  1.6274
  174SLPC  H13B19630   0.358   2.958   7.085  0.1074 -0.3696  0.4890
  174SLPC  H13C19631   0.501   2.879   7.148  0.8704  1.9733  0.9705
  174SLPC   C1419632   0.352   2.726   6.972  0.0178  0.0656  0.7671
  174SLPC  H14A19633   0.306   2.677   6.887 -1.0841  3.2756 -0.6265
  174SLPC  H14B19634   0.400   2.646   7.026 -1.9491 -2.2655 -0.7268
  174SLPC  H14C19635   0.267   2.774   7.017  0.8801  1.7275  0.6837
  174SLPC   C1519636   0.588   2.769   6.916  1.3610 -0.1768 -0.1257
  174SLPC  H15A19637   0.569   2.696   6.839  0.4906  0.9015 -0.9722
  174SLPC  H15B19638   0.659   2.845   6.886 -0.4228  2.1034  1.0694
  174SLPC  H15C19639   0.625   2.716   7.002  0.9782 -0.4210 -0.1068
  174SLPC   C1219640   0.399   2.911   6.822  0.1987 -0.0399 -0.3124
  174SLPC  H12A19641   0.307   2.960   6.850 -0.2615 -0.5847 -0.8614
  174SLPC  H12B19642   0.368   2.851   6.738  1.2181  0.1144 -0.8102
  174SLPC   C1119643   0.490   3.022   6.765  0.7591  0.2262  1.2114
  174SLPC  H11A19644   0.436   3.070   6.680 -0.0804 -1.7321  0.5519
  174SLPC  H11B19645   0.582   2.977   6.723  0.2931 -0.2093  0.6324
  174SLPC     P19646   0.669   3.162   6.890 -0.4368 -0.0369  0.4209
  174SLPC   O1319647   0.669   3.256   7.002 -0.0495  0.2282  0.0585
  174SLPC   O1419648   0.755   3.042   6.913  0.0371 -0.1511 -0.2822
  174SLPC   O1219649   0.516   3.126   6.850  0.1020 -0.0516  0.2151
  174SLPC   O1119650   0.715   3.242   6.766  0.2517  0.1085 -0.4598
  174SLPC    C119651   0.630   3.330   6.691 -0.5526  0.1409  0.4214
  174SLPC    HA19652   0.526   3.293   6.683  0.1567 -1.9487  0.1767
  174SLPC    HB19653   0.619   3.426   6.747  1.8760 -0.4197  2.0433
  174SLPC    C219654   0.689   3.367   6.552 -0.6244  0.0762  0.3266
  174SLPC    HS19655   0.628   3.438   6.492 -0.6587 -0.2003  0.0294
  174SLPC   O2119656   0.715   3.246   6.469  0.2480  0.0496 -0.1873
  174SLPC   C2119657   0.602   3.190   6.426  0.0260  0.0326  0.0342
  174SLPC   O2219658   0.493   3.245   6.420 -0.4767 -0.9467 -0.8086
  174SLPC   C2219659   0.631   3.048   6.384 -0.1298  0.2364 -0.3242
  174SLPC   H2R19660   0.713   3.065   6.311  0.0585  2.2155  0.3131
  174SLPC   H2S19661   0.663   2.978   6.464 -0.2498  0.4785 -0.0639
  174SLPC    C319662   0.823   3.449   6.561 -0.8953 -0.4277  0.3084
  174SLPC    HX19663   0.889   3.390   6.629 -0.8135 -0.8776 -0.1514
  174SLPC    HY19664   0.801   3.543   6.615 -0.1756  1.0828 -1.9031
  174SLPC   O3119665   0.889   3.471   6.431  0.4401  0.1426  0.2700
  174SLPC   C3119666   0.991   3.383   6.395  0.4385  0.2468 -0.1793
  174SLPC   O3219667   1.037   3.299   6.468 -0.1772  0.2474  0.1062
  174SLPC   C3219668   1.029   3.399   6.253 -1.0498  0.0617  0.3017
  174SLPC   H2X19669   1.140   3.404   6.251 -0.8297 -2.8506  1.0537
  174SLPC   H2Y19670   0.986   3.495   6.216  2.2405  1.7002  0.3810
  174SLPC   C2319671   0.519   2.995   6.291 -0.1662 -1.1791 -0.3094
  174SLPC   H3R19672   0.417   3.030   6.319 -0.2862  0.9789 -3.0036
  174SLPC   H3S19673   0.516   2.885   6.302 -1.0751 -1.2073 -0.6905
  174SLPC   C2419674   0.530   3.034   6.146 -0.0183 -0.2828  0.6948
  174SLPC   H4R19675   0.628   3.000   6.106 -0.1348 -0.5732  0.6521
  174SLPC   H4S19676   0.532   3.144   6.136  1.8346 -0.2905  0.7019
  174SLPC   C2519677   0.413   2.975   6.062  0.3936 -0.3096  0.4946
  174SLPC   H5R19678   0.321   2.984   6.124  0.1963  3.0641 -0.1086
  174SLPC   H5S19679   0.433   2.868   6.039  0.7601 -0.3741  1.0884
  174SLPC   C2619680   0.387   3.039   5.923  0.0714  0.7842  0.0282
  174SLPC   H6R19681   0.332   3.131   5.953 -0.8647  0.1731  0.2310
  174SLPC   H6S19682   0.310   2.991   5.859 -2.3266  3.0925  0.9912
  174SLPC   C2719683   0.508   3.058   5.835 -0.8411  0.3332  0.3046
  174SLPC   H7R19684   0.598   3.095   5.888 -0.9795 -1.0352  1.5427
  174SLPC   H7S19685   0.484   3.110   5.740  0.1991  0.2136 -0.0359
  174SLPC   C2819686   0.562   2.927   5.772 -0.1485 -0.1859 -0.2985
  174SLPC   H8R19687   0.485   2.894   5.699 -0.4890 -0.0075 -0.0211
  174SLPC   H8S19688   0.564   2.854   5.855  1.9954 -0.1809 -0.3045
  174SLPC   C2919689   0.693   2.946   5.704  0.2609  0.5622 -0.5834
  174SLPC   H9R19690   0.782   2.971   5.764 -0.7553 -0.0300  1.2477
  174SLPC  C21019691   0.723   2.919   5.582  0.2811  0.3756 -0.0026
  174SLPC  H10R19692   0.826   2.935   5.546  0.0689 -2.0901 -2.0428
  174SLPC  C21119693   0.635   2.851   5.481  0.0045 -0.1344 -0.1325
  174SLPC  H11R19694   0.564   2.782   5.531  0.7913 -1.2245 -0.4846
  174SLPC  H11S19695   0.690   2.786   5.410  0.8045  0.2268  0.1513
  174SLPC  C21219696   0.553   2.960   5.413 -0.2288 -0.1128 -0.0561
  174SLPC  H12R19697   0.484   3.013   5.481 -1.0515 -1.2139 -0.0115
  174SLPC  C21319698   0.539   2.990   5.283 -0.7000  0.2409  0.6096
  174SLPC  H13R19699   0.461   3.055   5.239 -0.5704 -1.3169 -2.1780
  174SLPC  C21419700   0.611   2.923   5.171  0.0201 -0.0619  0.5099
  174SLPC  H14R19701   0.613   2.814   5.193  1.1052 -0.0700  0.4283
  174SLPC  H14S19702   0.720   2.941   5.169 -0.1451  0.9384 -1.3180
  174SLPC  C21519703   0.556   2.958   5.028 -0.8391  0.5047 -0.5429
  174SLPC  H15R19704   0.585   3.062   5.001 -0.9765  0.9909  1.0408
  174SLPC  H15S19705   0.445   2.952   5.039 -0.6131 -1.7822  1.1617
  174SLPC  C21619706   0.602   2.859   4.922 -0.3969  0.2921 -0.0960
  174SLPC  H16R19707   0.554   2.760   4.938 -0.1865  0.0773 -0.7606
  174SLPC  H16S19708   0.711   2.857   4.942 -0.0363  2.0440 -1.5795
  174SLPC  C21719709   0.579   2.911   4.778 -0.2130 -0.1257  0.5201
  174SLPC  H17R19710   0.586   3.022   4.773 -1.7466 -0.0457 -2.5510
  174SLPC  H17S19711   0.471   2.891   4.760  0.3737 -2.2164 -0.9967
  174SLPC  C21819712   0.649   2.839   4.665  0.3741  1.1111  0.8471
  174SLPC  H18R19713   0.758   2.832   4.684  0.5398 -1.0070 -0.5175
  174SLPC  H18S19714   0.634   2.881   4.563 -0.5713  0.7693  0.8386
  174SLPC  H18T19715   0.617   2.732   4.661 -0.2757  1.3340 -0.2337
  174SLPC   C3319716   0.997   3.280   6.162 -0.2577  0.5292  0.4861
  174SLPC   H3X19717   0.970   3.189   6.220 -1.6190  1.1107  0.8011
  174SLPC   H3Y19718   1.090   3.254   6.107 -1.9923 -1.7590 -1.6044
  174SLPC   C3419719   0.886   3.301   6.063  0.5048 -0.3885  0.0854
  174SLPC   H4X19720   0.812   3.378   6.095  0.3219  0.0238 -1.2434
  174SLPC   H4Y19721   0.824   3.211   6.046 -1.5077  0.8886  0.3314
  174SLPC   C3519722   0.932   3.352   5.927 -0.6558  0.7971 -0.1804
  174SLPC   H5X19723   0.998   3.442   5.929  0.4816  0.0556 -1.7642
  174SLPC   H5Y19724   0.842   3.382   5.870  0.2172  1.0705 -1.4746
  174SLPC   C3619725   1.003   3.240   5.842 -0.1782  0.7757  0.3537
  174SLPC   H6X19726   0.937   3.152   5.830  1.6817 -0.4044 -1.8770
  174SLPC   H6Y19727   1.089   3.194   5.895 -0.1083 -1.7245 -1.7522
  174SLPC   C3719728   1.036   3.283   5.700  0.2488 -0.6453 -0.0019
  174SLPC   H7X19729   1.113   3.363   5.701 -1.4668  1.3673 -4.1572
  174SLPC   H7Y19730   0.943   3.331   5.663  0.9138  0.1817 -0.6400
  174SLPC   C3819731   1.073   3.168   5.605 -0.1500 -0.2397  0.1898
  174SLPC   H8X19732   1.015   3.081   5.641  1.7566 -0.4070  3.2753
  174SLPC   H8Y19733   1.179   3.139   5.622 -0.6167 -1.0306  1.8930
  174SLPC   C3919734   1.043   3.203   5.457  0.0824  0.0155 -0.3385
  174SLPC   H9X19735   1.113   3.278   5.414  2.4516 -2.0456 -0.3278
  174SLPC   H9Y19736   0.942   3.244   5.440  0.4925  0.5281 -1.6620
  174SLPC  C31019737   1.048   3.077   5.355 -0.3809  0.0216 -0.2440
  174SLPC  H10X19738   0.964   3.008   5.377 -0.4363  0.2209  0.1726
  174SLPC  H10Y19739   1.139   3.016   5.371  0.4281  0.8933 -1.2965
  174SLPC  C31119740   1.030   3.112   5.204 -0.3028  0.2241 -1.0942
  174SLPC  H11X19741   1.092   3.201   5.181 -0.2567  0.4079 -0.2954
  174SLPC  H11Y19742   0.923   3.143   5.206 -0.4654 -0.3363  0.3193
  174SLPC  C31219743   1.039   3.008   5.096 -0.6060  0.2656 -0.5975
  174SLPC  H12X19744   0.959   2.934   5.119 -1.1595  0.7091 -1.0726
  174SLPC  H12Y19745   1.136   2.954   5.098 -1.7174 -1.9110 -1.1429
  174SLPC  C31319746   1.026   3.059   4.960  0.9237 -0.7694  0.8599
  174SLPC  H13X19747   1.107   3.133   4.942  0.2961  0.2485  2.1366
  174SLPC  H13Y19748   0.930   3.113   4.945  1.1951 -0.8723 -1.7522
  174SLPC  C31419749   1.034   2.950   4.859 -0.6053  0.1821 -0.1008
  174SLPC  H14X19750   0.976   2.873   4.914  0.8979  0.9741  2.8314
  174SLPC  H14Y19751   1.138   2.911   4.849 -0.0515  1.1694  1.4844
  174SLPC  C31519752   0.994   2.980   4.714 -0.3444 -0.4638  0.5914
  174SLPC  H15X19753   0.922   3.064   4.714  0.8475  0.5811  0.7250
  174SLPC  H15Y19754   0.942   2.894   4.666 -0.4549  0.5405 -1.1811
  174SLPC  C31619755   1.103   3.031   4.618  0.4179  0.0825  0.2396
  174SLPC  H16X19756   1.171   3.102   4.670  0.7170 -1.6818  2.3894
  174SLPC  H16Y19757   1.050   3.090   4.540 -1.3308 -0.8693  0.6510
  174SLPC  C31719758   1.180   2.907   4.553  0.4643  0.3623 -0.1497
  174SLPC  H17X19759   1.116   2.816   4.558 -0.2658  0.7914 -1.1682
  174SLPC  H17Y19760   1.260   2.905   4.630 -0.0013  2.5212  0.4561
  174SLPC  C31819761   1.254   2.934   4.423  0.3779 -0.0515  0.0451
  174SLPC  H18X19762   1.363   2.952   4.432  0.2712  2.0772 -1.9464
  174SLPC  H18Y19763   1.217   3.026   4.372 -0.4829  0.5227  1.6163
  174SLPC  H18Z19764   1.242   2.847   4.355 -1.5691 -0.4255  0.8085
  175SLPC     N19765   3.961   4.760   6.570  0.6098 -0.8603  0.1863
  175SLPC   C1319766   4.085   4.703   6.504 -0.2329  0.1306 -0.0466
  175SLPC  H13A19767   4.084   4.599   6.477  2.7610  0.1720 -0.6869
  175SLPC  H13B19768   4.098   4.740   6.404  2.1442  1.0599  0.5386
  175SLPC  H13C19769   4.177   4.726   6.556 -0.5177  0.7041  0.2208
  175SLPC   C1419770   3.997   4.904   6.608  0.1425  0.2879  0.1101
  175SLPC  H14A19771   4.088   4.900   6.665  0.5645  1.3040 -0.4575
  175SLPC  H14B19772   4.011   4.963   6.518  0.3925  0.5220  0.3006
  175SLPC  H14C19773   3.917   4.947   6.667 -0.8692 -0.0845 -0.9620
  175SLPC   C1519774   3.936   4.685   6.696 -0.1225  0.4591  0.3376
  175SLPC  H15A19775   3.873   4.739   6.765  0.0140  0.3980  0.5113
  175SLPC  H15B19776   3.888   4.590   6.678  0.6593  0.1795 -0.3732
  175SLPC  H15C19777   4.027   4.654   6.745 -0.7470 -0.5504  0.8904
  175SLPC   C1219778   3.840   4.747   6.483 -0.9770  0.1085 -0.1131
  175SLPC  H12A19779   3.752   4.764   6.542 -0.2359  3.1926  0.2525
  175SLPC  H12B19780   3.842   4.642   6.456  0.2218 -0.0331  0.4571
  175SLPC   C1119781   3.827   4.829   6.352 -0.4081  0.0050  0.3372
  175SLPC  H11A19782   3.737   4.786   6.304  0.1319 -0.1064 -0.5832
  175SLPC  H11B19783   3.913   4.802   6.287 -0.7295 -1.7354  0.5836
  175SLPC     P19784   3.681   5.037   6.363  0.2753 -0.4136 -0.3013
  175SLPC   O1319785   3.577   4.964   6.438  0.4363 -0.2392  0.4327
  175SLPC   O1419786   3.695   5.180   6.398 -0.2609 -0.4661 -0.3031
  175SLPC   O1219787   3.821   4.974   6.376 -0.3018  0.2189 -0.0827
  175SLPC   O1119788   3.651   5.030   6.209  0.4632 -0.3751  0.2749
  175SLPC    C119789   3.716   5.136   6.134  0.6171  0.0857  0.0982
  175SLPC    HA19790   3.631   5.205   6.116  1.2516  0.7834 -0.2760
  175SLPC    HB19791   3.799   5.189   6.185  2.6518 -1.4342 -1.4196
  175SLPC    C219792   3.760   5.076   6.007  0.4125  0.1839  0.4753
  175SLPC    HS19793   3.826   5.149   5.955  1.8554 -2.3783 -1.4862
  175SLPC   O2119794   3.643   5.038   5.923  0.1594 -0.1759  0.0844
  175SLPC   C2119795   3.581   5.144   5.872  0.1362 -0.8315 -0.1841
  175SLPC   O2219796   3.618   5.259   5.875  0.0824 -0.2443  0.0540
  175SLPC   C2219797   3.440   5.111   5.821  0.1196  0.6461 -0.1286
  175SLPC   H2R19798   3.410   5.013   5.864  1.4099  0.3572  0.1422
  175SLPC   H2S19799   3.378   5.188   5.872 -0.1496  0.7759 -0.6542
  175SLPC    C319800   3.847   4.948   6.028 -0.5518 -0.8264  0.0395
  175SLPC    HX19801   3.784   4.872   6.080 -1.3823  0.2918  0.7039
  175SLPC    HY19802   3.929   4.978   6.097 -2.7987 -0.1348  2.5783
  175SLPC   O3119803   3.900   4.890   5.903  0.1480  0.0499 -0.1061
  175SLPC   C3119804   4.015   4.926   5.858  0.6855 -0.9537 -0.0417
  175SLPC   O3219805   4.098   4.990   5.914  0.0311 -0.0365  0.0737
  175SLPC   C3219806   4.019   4.868   5.710 -0.1021  0.3234 -0.6450
  175SLPC   H2X19807   3.915   4.864   5.670  0.0288 -0.0550 -0.9574
  175SLPC   H2Y19808   4.063   4.766   5.714 -1.0053 -0.1897 -2.5268
  175SLPC   C2319809   3.437   5.110   5.668  0.4727  0.1555  0.4627
  175SLPC   H3R19810   3.464   5.210   5.630  0.9864 -0.6833 -1.5018
  175SLPC   H3S19811   3.334   5.078   5.640  0.9640 -1.9729  0.9015
  175SLPC   C2419812   3.530   5.017   5.591  0.0565  0.1770  0.0492
  175SLPC   H4R19813   3.517   4.912   5.627 -2.0306  0.0699 -0.8775
  175SLPC   H4S19814   3.637   5.045   5.601  1.3576 -3.8908 -0.6750
  175SLPC   C2519815   3.495   5.030   5.448  0.0415 -0.2313 -0.2346
  175SLPC   H5R19816   3.498   5.134   5.411  2.5054 -0.0235  0.4335
  175SLPC   H5S19817   3.392   4.987   5.437 -0.0174 -0.0248 -0.4920
  175SLPC   C2619818   3.582   4.943   5.350 -0.1682 -0.2509  0.0111
  175SLPC   H6R19819   3.604   4.848   5.403  0.7988 -0.7686 -1.2465
  175SLPC   H6S19820   3.684   4.984   5.337  0.0043 -0.8505 -0.5855
  175SLPC   C2719821   3.521   4.889   5.219 -0.1813  0.1619  0.3450
  175SLPC   H7R19822   3.414   4.865   5.239 -0.0919  0.4399  1.1717
  175SLPC   H7S19823   3.571   4.797   5.183 -1.1924  0.3588 -1.7504
  175SLPC   C2819824   3.534   4.990   5.104  0.5193 -0.1506 -0.7156
  175SLPC   H8R19825   3.644   5.006   5.097  0.8914 -1.5864  0.9784
  175SLPC   H8S19826   3.497   5.085   5.149 -1.1872 -0.5006 -1.3061
  175SLPC   C2919827   3.465   4.958   4.978  0.4239  0.6051  0.0125
  175SLPC   H9R19828   3.355   4.961   4.974  0.3329 -0.2567  1.1930
  175SLPC  C21019829   3.523   4.911   4.867  0.2471 -0.6587  0.4863
  175SLPC  H10R19830   3.459   4.876   4.785  0.0914 -0.6518  0.6055
  175SLPC  C21119831   3.672   4.899   4.840 -0.3480 -0.0125 -0.2792
  175SLPC  H11R19832   3.713   4.985   4.898 -4.0572  1.4817  0.4133
  175SLPC  H11S19833   3.707   4.920   4.737  0.1097 -1.4847 -0.4467
  175SLPC  C21219834   3.732   4.771   4.894  0.2196  0.7146  0.3652
  175SLPC  H12R19835   3.752   4.769   5.002  4.1470 -0.0608 -0.2465
  175SLPC  C21319836   3.739   4.658   4.826 -0.4832  0.3830 -0.0388
  175SLPC  H13R19837   3.804   4.575   4.858 -0.3166  0.1209 -1.0092
  175SLPC  C21419838   3.714   4.631   4.679 -0.4819 -0.0379 -0.1055
  175SLPC  H14R19839   3.685   4.724   4.626 -1.1787  0.5635  1.2855
  175SLPC  H14S19840   3.630   4.558   4.671 -0.5031 -0.1413  0.9519
  175SLPC  C21519841   3.843   4.567   4.610  0.2462 -0.0004 -0.0744
  175SLPC  H15R19842   3.926   4.632   4.647  0.3602 -0.1546 -0.0592
  175SLPC  H15S19843   3.840   4.587   4.501 -2.5641  0.3018 -0.0196
  175SLPC  C21619844   3.865   4.410   4.630  0.0608  0.2374 -0.3082
  175SLPC  H16R19845   3.870   4.386   4.738  0.2194  1.1484 -0.1133
  175SLPC  H16S19846   3.965   4.394   4.584  0.0216  1.3106 -0.7855
  175SLPC  C21719847   3.765   4.313   4.567  0.5303 -0.0933  0.0349
  175SLPC  H17R19848   3.670   4.324   4.625 -0.0890 -1.7098 -0.6217
  175SLPC  H17S19849   3.796   4.207   4.563 -0.5314 -0.4314  0.4397
  175SLPC  C21819850   3.733   4.341   4.421  0.5022  0.7230 -0.6694
  175SLPC  H18R19851   3.654   4.270   4.388  2.8697 -2.2206 -0.4265
  175SLPC  H18S19852   3.825   4.326   4.360  1.1335  0.7588  0.2504
  175SLPC  H18T19853   3.696   4.446   4.416  1.7539  1.1529 -1.3217
  175SLPC   C3319854   4.094   4.971   5.616 -0.5269 -0.4118 -0.1954
  175SLPC   H3X19855   4.202   4.944   5.617 -0.6869 -1.0909 -0.5141
  175SLPC   H3Y19856   4.101   5.066   5.673  0.5176 -0.7126  0.1994
  175SLPC   C3419857   4.032   4.995   5.480 -0.0619  0.3194 -0.2511
  175SLPC   H4X19858   4.107   5.053   5.423  1.5935 -3.7511 -2.7224
  175SLPC   H4Y19859   3.935   5.047   5.494  0.4010  0.6688  1.8823
  175SLPC   C3519860   4.008   4.874   5.398 -0.6042 -0.0801 -0.0286
  175SLPC   H5X19861   3.924   4.815   5.442 -0.0474 -1.1322 -0.3429
  175SLPC   H5Y19862   4.090   4.799   5.393  0.5199  1.0984  0.2711
  175SLPC   C3619863   3.966   4.913   5.252 -0.0117  0.0913  0.6112
  175SLPC   H6X19864   3.894   4.998   5.255 -2.4244 -1.8650  1.7925
  175SLPC   H6Y19865   3.903   4.834   5.205  1.3753 -0.7368  0.1043
  175SLPC   C3719866   4.075   4.950   5.156 -0.3587 -0.3701 -0.1082
  175SLPC   H7X19867   4.150   4.873   5.127 -0.2771  0.1876 -1.4727
  175SLPC   H7Y19868   4.138   5.031   5.198  1.8516 -1.2291 -1.5819
  175SLPC   C3819869   4.019   5.002   5.022 -0.5246 -0.0428  1.0134
  175SLPC   H8X19870   3.963   5.095   5.044 -0.1126  0.0102  1.8616
  175SLPC   H8Y19871   3.947   4.927   4.982 -0.4066  0.0985  0.5284
  175SLPC   C3919872   4.118   5.046   4.919  0.0855  0.8135 -0.1741
  175SLPC   H9X19873   4.185   5.122   4.965  1.1362 -1.6923  2.7139
  175SLPC   H9Y19874   4.057   5.102   4.844 -0.5461  1.5908  0.8961
  175SLPC  C31019875   4.207   4.938   4.855  0.5035  0.1237 -0.0328
  175SLPC  H10X19876   4.250   4.859   4.920 -2.5935 -0.8293  1.0718
  175SLPC  H10Y19877   4.295   4.978   4.801  0.3395 -0.2236 -0.5694
  175SLPC  C31119878   4.129   4.856   4.755  0.4238 -0.1727  0.0091
  175SLPC  H11X19879   4.056   4.920   4.701 -0.8476 -0.1997  1.6367
  175SLPC  H11Y19880   4.073   4.772   4.802 -0.6645  0.8669  0.6208
  175SLPC  C31219881   4.229   4.795   4.650  0.3793  0.0472  0.0038
  175SLPC  H12X19882   4.308   4.734   4.698  0.8305  0.3687 -0.3291
  175SLPC  H12Y19883   4.278   4.880   4.598 -1.3093  0.1650 -1.5010
  175SLPC  C31319884   4.153   4.729   4.531 -0.3290 -0.1138 -0.4097
  175SLPC  H13X19885   4.075   4.795   4.488 -0.1015  0.0998 -0.4922
  175SLPC  H13Y19886   4.110   4.634   4.571  0.8013 -0.1700  0.7522
  175SLPC  C31419887   4.249   4.693   4.425  0.2938 -0.3207 -0.3484
  175SLPC  H14X19888   4.340   4.640   4.460  1.5352  1.0680 -1.3663
  175SLPC  H14Y19889   4.294   4.779   4.373  1.0981  0.1318  1.0601
  175SLPC  C31519890   4.171   4.607   4.315 -0.0086  0.1105  0.0166
  175SLPC  H15X19891   4.113   4.527   4.366  1.4534 -0.4060  0.9312
  175SLPC  H15Y19892   4.241   4.550   4.249  0.4161  1.3897 -0.6746
  175SLPC  C31619893   4.074   4.694   4.235  0.7414  1.1677 -0.2626
  175SLPC  H16X19894   4.118   4.784   4.187  2.7390  1.1780  1.4261
  175SLPC  H16Y19895   3.989   4.720   4.301  0.6563  1.3396 -0.4392
  175SLPC  C31719896   4.006   4.616   4.128 -0.0372 -0.3119  0.4936
  175SLPC  H17X19897   3.957   4.530   4.179  2.7775 -0.0219  4.0769
  175SLPC  H17Y19898   4.079   4.583   4.051 -0.3421  0.0225  0.0536
  175SLPC  C31819899   3.915   4.706   4.045  0.4049 -0.3286 -0.3418
  175SLPC  H18X19900   3.954   4.809   4.029  0.0601 -0.4202 -1.8891
  175SLPC  H18Y19901   3.819   4.729   4.094  0.1374  2.5525 -2.0069
  175SLPC  H18Z19902   3.896   4.669   3.942 -2.3455  3.3371 -1.3409
  176SLPC     N19903   3.533   2.359   6.363  0.0735  1.0993 -0.4004
  176SLPC   C1319904   3.536   2.204   6.352  0.0722 -0.4181 -0.3146
  176SLPC  H13A19905   3.477   2.150   6.280 -1.0854 -0.2919  0.5106
  176SLPC  H13B19906   3.639   2.172   6.341  0.0110 -1.2298  1.1625
  176SLPC  H13C19907   3.515   2.176   6.454  0.6141  0.8997  0.1807
  176SLPC   C1419908   3.602   2.388   6.495  0.2217 -0.1408  0.6371
  176SLPC  H14A19909   3.570   2.322   6.575  1.6069 -0.7019  0.7455
  176SLPC  H14B19910   3.709   2.394   6.483  0.2282  1.3579  1.1963
  176SLPC  H14C19911   3.571   2.485   6.532 -2.5706 -1.6477  2.7157
  176SLPC   C1519912   3.389   2.393   6.374 -0.0468  0.5655  0.0868
  176SLPC  H15A19913   3.350   2.350   6.464  0.1530  2.3931  1.0959
  176SLPC  H15B19914   3.373   2.499   6.384 -1.8361  0.4307 -0.9774
  176SLPC  H15C19915   3.330   2.352   6.293  0.0490 -2.3288  1.3525
  176SLPC   C1219916   3.605   2.421   6.240  0.6019 -1.4507  0.4332
  176SLPC  H12A19917   3.564   2.381   6.149  3.0414 -2.3241 -0.3662
  176SLPC  H12B19918   3.706   2.384   6.231  2.1740  2.4969  0.0419
  176SLPC   C1119919   3.609   2.579   6.216  0.1222  0.2076  0.9998
  176SLPC  H11A19920   3.507   2.620   6.204 -0.0735 -0.7423 -0.9987
  176SLPC  H11B19921   3.650   2.591   6.114 -0.4272 -1.2069  0.5880
  176SLPC     P19922   3.690   2.788   6.346  0.7719  0.0433  0.2104
  176SLPC   O1319923   3.553   2.849   6.387 -0.5860  0.3193 -0.2089
  176SLPC   O1419924   3.803   2.818   6.432 -0.3922  0.2478 -0.3557
  176SLPC   O1219925   3.693   2.635   6.321  0.7391 -0.7143  0.1498
  176SLPC   O1119926   3.730   2.838   6.199 -0.1671  0.1882 -0.1889
  176SLPC    C119927   3.835   2.934   6.182 -0.5698 -0.4266 -1.0602
  176SLPC    HA19928   3.919   2.906   6.249  0.1936  2.0560 -0.8906
  176SLPC    HB19929   3.871   2.924   6.077 -2.7475 -0.6109 -1.8514
  176SLPC    C219930   3.804   3.086   6.209  0.0907  0.3299 -0.2208
  176SLPC    HS19931   3.733   3.096   6.294 -0.2450 -2.0594 -0.1636
  176SLPC   O2119932   3.744   3.153   6.093 -0.7325  0.0363  0.4151
  176SLPC   C2119933   3.627   3.103   6.065 -0.2816 -0.4812  0.2952
  176SLPC   O2219934   3.543   3.055   6.141  0.7375  0.4982 -0.2383
  176SLPC   C2219935   3.603   3.121   5.915 -0.6597 -0.0908 -0.0281
  176SLPC   H2R19936   3.496   3.096   5.900 -0.8544  1.1731 -0.9408
  176SLPC   H2S19937   3.606   3.231   5.899 -1.2231  0.0241  0.5887
  176SLPC    C319938   3.935   3.162   6.247 -0.0182 -0.0173 -0.7088
  176SLPC    HX19939   3.979   3.126   6.342 -0.4639 -1.8700 -1.1527
  176SLPC    HY19940   3.904   3.268   6.255 -0.0986  0.0550 -1.7582
  176SLPC   O3119941   4.037   3.153   6.153 -0.8012  0.0217  0.5697
  176SLPC   C3119942   4.090   3.259   6.106  0.5788  0.6243  0.5162
  176SLPC   O3219943   4.060   3.375   6.141  0.0483  0.2910  0.3173
  176SLPC   C3219944   4.209   3.224   6.019 -0.4997 -0.4813 -0.4561
  176SLPC   H2X19945   4.281   3.167   6.081 -2.2611 -1.0975  1.1370
  176SLPC   H2Y19946   4.264   3.316   5.990  0.9398 -0.5950  1.7392
  176SLPC   C2319947   3.704   3.050   5.821  0.0764  0.6724 -0.3987
  176SLPC   H3R19948   3.724   2.941   5.832  3.7525  1.1639 -1.0185
  176SLPC   H3S19949   3.808   3.083   5.841 -0.7646  2.9229  0.5590
  176SLPC   C2419950   3.682   3.083   5.672  0.6406  0.3005  0.6323
  176SLPC   H4R19951   3.777   3.073   5.617  1.2024  1.9972  1.2185
  176SLPC   H4S19952   3.658   3.191   5.667 -2.0748 -0.2102  0.6317
  176SLPC   C2519953   3.566   2.995   5.620 -0.0197 -0.0413  0.6222
  176SLPC   H5R19954   3.475   3.038   5.668 -1.2050  1.2002 -2.4337
  176SLPC   H5S19955   3.590   2.891   5.651  1.3202  0.1070  0.1346
  176SLPC   C2619956   3.547   3.002   5.470  1.2437 -0.7034 -0.0663
  176SLPC   H6R19957   3.538   3.112   5.451 -0.0250 -0.7765  0.0064
  176SLPC   H6S19958   3.450   2.964   5.433  1.6363 -1.4188 -0.3577
  176SLPC   C2719959   3.659   2.944   5.388  0.4096 -0.3371 -0.7650
  176SLPC   H7R19960   3.676   2.841   5.424 -2.7484 -0.0722  1.9482
  176SLPC   H7S19961   3.746   2.998   5.430  1.0579 -1.6587 -0.3662
  176SLPC   C2819962   3.639   2.961   5.237 -0.1019 -0.6421 -0.5439
  176SLPC   H8R19963   3.591   3.060   5.224 -1.8599 -0.9529  2.5615
  176SLPC   H8S19964   3.564   2.886   5.202 -1.0291  0.1332 -0.2489
  176SLPC   C2919965   3.769   2.957   5.163 -0.6216  0.5656 -0.2602
  176SLPC   H9R19966   3.827   3.050   5.155 -3.0842  2.4607  1.9226
  176SLPC  C21019967   3.821   2.843   5.104  0.4641 -0.1984  0.4538
  176SLPC  H10R19968   3.907   2.860   5.037 -0.5077  3.1509 -0.1372
  176SLPC  C21119969   3.753   2.710   5.117 -0.5154  0.2260 -0.0611
  176SLPC  H11R19970   3.674   2.713   5.039 -1.5852 -0.1377  0.9948
  176SLPC  H11S19971   3.698   2.703   5.213 -1.7278  0.2059 -0.7434
  176SLPC  C21219972   3.844   2.591   5.103 -0.1273 -0.0107 -0.4127
  176SLPC  H12R19973   3.897   2.544   5.187  3.5852  0.6313 -2.2116
  176SLPC  C21319974   3.852   2.525   4.986 -0.0500  0.1668  0.2998
  176SLPC  H13R19975   3.911   2.433   4.977 -0.6199 -0.5296  2.8153
  176SLPC  C21419976   3.783   2.573   4.857  0.0234  0.0013  0.6255
  176SLPC  H14R19977   3.752   2.679   4.849 -2.8294 -0.8196 -0.3012
  176SLPC  H14S19978   3.703   2.501   4.831  0.2198  0.4193 -1.2775
  176SLPC  C21519979   3.881   2.574   4.734 -0.4596  0.5926 -0.2855
  176SLPC  H15R19980   3.899   2.471   4.699  0.3548  1.2825 -2.0109
  176SLPC  H15S19981   3.972   2.629   4.767 -0.6873  0.4423  0.6137
  176SLPC  C21619982   3.824   2.634   4.610  0.0502 -0.0894 -0.2681
  176SLPC  H16R19983   3.787   2.733   4.643  3.2807  0.5682  1.8222
  176SLPC  H16S19984   3.731   2.580   4.581  0.1868 -0.8841  0.7259
  176SLPC  C21719985   3.924   2.642   4.493  0.0926 -0.2771 -0.5376
  176SLPC  H17R19986   3.968   2.544   4.463  0.6337  0.2259 -1.4237
  176SLPC  H17S19987   4.009   2.703   4.528  0.1647 -0.5016 -0.3187
  176SLPC  C21819988   3.869   2.713   4.371  0.5169 -0.5397  0.2607
  176SLPC  H18R19989   3.829   2.814   4.392  0.7152  0.1409 -2.3748
  176SLPC  H18S19990   3.788   2.646   4.335  0.5736 -0.9914  0.9425
  176SLPC  H18T19991   3.953   2.725   4.300 -1.3936  1.5689 -1.7930
  176SLPC   C3319992   4.167   3.145   5.896  0.4769 -0.3500  0.0682
  176SLPC   H3X19993   4.093   3.068   5.928 -1.0395  1.4331  1.1456
  176SLPC   H3Y19994   4.257   3.092   5.858  1.5142  0.7906  0.8456
  176SLPC   C3419995   4.115   3.240   5.787  0.2979  0.2567  0.3983
  176SLPC   H4X19996   4.194   3.318   5.780  0.7883 -0.3756 -1.6872
  176SLPC   H4Y19997   4.032   3.302   5.827  0.6440 -0.8220  2.9594
  176SLPC   C3519998   4.088   3.181   5.645  0.1364  0.6238 -0.4199
  176SLPC   H5X19999   3.998   3.118   5.634  1.1834 -1.2270  0.9397
  176SLPC   H5Y20000   4.163   3.103   5.618 -4.5414 -4.4767 -0.4977
  176SLPC   C3620001   4.075   3.299   5.540 -0.0518  0.3439  0.0053
  176SLPC   H6X20002   4.147   3.381   5.558  2.1670 -1.2419 -1.2846
  176SLPC   H6Y20003   3.969   3.333   5.552 -0.1568  0.3781 -0.9448
  176SLPC   C3720004   4.094   3.246   5.399  0.8253  0.4231  0.1773
  176SLPC   H7X20005   4.015   3.168   5.391  1.5020 -0.4670  1.7057
  176SLPC   H7Y20006   4.190   3.192   5.383  1.1025  1.2940 -1.2910
  176SLPC   C3820007   4.079   3.360   5.295  0.3285  0.4224  0.2294
  176SLPC   H8X20008   4.169   3.425   5.301  0.0502  1.0332 -1.5880
  176SLPC   H8Y20009   3.981   3.409   5.311 -0.3407 -0.6134 -0.5603
  176SLPC   C3920010   4.058   3.301   5.157  0.2267  0.2060 -0.2893
  176SLPC   H9X20011   3.991   3.369   5.100 -0.0211  0.2351  0.0347
  176SLPC   H9Y20012   4.023   3.196   5.140  1.2065  0.0326 -1.3802
  176SLPC  C31020013   4.199   3.314   5.081  0.8492  0.2575 -0.1221
  176SLPC  H10X20014   4.273   3.267   5.149 -0.8442  3.5922  4.5604
  176SLPC  H10Y20015   4.223   3.422   5.086 -2.1694  0.9811  1.8021
  176SLPC  C31120016   4.194   3.247   4.944 -0.1196  0.1906  0.1370
  176SLPC  H11X20017   4.176   3.137   4.947 -3.1634  0.6125  0.6515
  176SLPC  H11Y20018   4.298   3.259   4.907 -0.2621  1.1925  0.0391
  176SLPC  C31220019   4.089   3.297   4.841  0.5898 -0.7397 -0.9145
  176SLPC  H12X20020   4.061   3.402   4.864  2.1753 -0.2187 -1.2110
  176SLPC  H12Y20021   3.999   3.238   4.866  0.8869 -0.2369  1.6452
  176SLPC  C31320022   4.121   3.263   4.693 -0.3516 -0.7538 -0.6747
  176SLPC  H13X20023   4.210   3.321   4.659  0.7244 -1.5297  0.6912
  176SLPC  H13Y20024   4.035   3.290   4.628 -0.1711  0.7007 -0.3444
  176SLPC  C31420025   4.166   3.114   4.686 -0.1425  0.2958  1.0050
  176SLPC  H14X20026   4.092   3.058   4.747 -2.1533  0.5080 -1.1054
  176SLPC  H14Y20027   4.262   3.105   4.741  0.6956  3.6006  0.3015
  176SLPC  C31520028   4.165   3.060   4.539  0.0237 -0.5337  0.3133
  176SLPC  H15X20029   4.225   3.135   4.482  0.3241 -2.1854 -1.6593
  176SLPC  H15Y20030   4.063   3.055   4.494 -0.2635  0.6391  0.8012
  176SLPC  C31620031   4.233   2.925   4.518  0.5069  0.5881  0.3740
  176SLPC  H16X20032   4.180   2.860   4.591 -1.0629  2.3538  0.8921
  176SLPC  H16Y20033   4.339   2.919   4.551  0.1271  1.2197  1.7982
  176SLPC  C31720034   4.202   2.881   4.372 -0.3186  0.0773 -0.2808
  176SLPC  H17X20035   4.095   2.899   4.345 -0.5141 -1.3227 -0.5084
  176SLPC  H17Y20036   4.216   2.771   4.371 -1.5716 -0.1308 -3.0744
  176SLPC  C31820037   4.297   2.945   4.272 -0.1618 -0.5126 -0.0402
  176SLPC  H18X20038   4.296   2.898   4.171  0.7335 -0.8202  0.0886
  176SLPC  H18Y20039   4.398   2.942   4.317 -0.7548  1.0530  1.5251
  176SLPC  H18Z20040   4.270   3.051   4.251 -1.2707 -0.5498  1.1361
  177SLPC     N20041   2.829   3.021   6.723 -0.5337  0.1541 -0.0588
  177SLPC   C1320042   2.964   2.956   6.720 -0.1245 -0.1347  0.1844
  177SLPC  H13A20043   2.958   2.867   6.781  0.2542 -0.7651 -0.6746
  177SLPC  H13B20044   2.991   2.918   6.623 -3.2566  0.6339 -1.0920
  177SLPC  H13C20045   3.041   3.018   6.764  0.7393 -0.8392 -0.2888
  177SLPC   C1420046   2.787   3.053   6.866 -0.9600 -0.1251  0.0927
  177SLPC  H14A20047   2.845   3.133   6.912 -1.7279  0.8819 -0.6338
  177SLPC  H14B20048   2.683   3.083   6.860 -1.3773 -1.7912 -1.9765
  177SLPC  H14C20049   2.789   2.973   6.939  0.1379  0.7300  1.0481
  177SLPC   C1520050   2.730   2.920   6.666 -0.7969 -0.0884  0.1299
  177SLPC  H15A20051   2.745   2.907   6.560  0.1370  1.0200  0.1127
  177SLPC  H15B20052   2.733   2.827   6.721 -0.8734  1.1313  2.3204
  177SLPC  H15C20053   2.633   2.963   6.687 -1.2312 -0.1760 -1.5643
  177SLPC   C1220054   2.838   3.145   6.643  0.2017 -0.5298 -0.2319
  177SLPC  H12A20055   2.740   3.189   6.638  0.2660 -0.4542 -0.9157
  177SLPC  H12B20056   2.861   3.115   6.542  0.0397 -1.3700 -0.0298
  177SLPC   C1120057   2.938   3.258   6.689 -0.1289 -0.1255  0.3797
  177SLPC  H11A20058   2.925   3.292   6.794  1.3072 -0.3011  0.6390
  177SLPC  H11B20059   2.918   3.345   6.623  1.2371  1.3630  1.8393
  177SLPC     P20060   3.141   3.215   6.534  0.0540 -0.0821  0.5106
  177SLPC   O1320061   3.190   3.354   6.514  0.0841  0.2119 -0.8408
  177SLPC   O1420062   3.241   3.105   6.529 -0.3205 -0.0425 -0.1756
  177SLPC   O1220063   3.075   3.212   6.683  0.6870  0.9462 -0.0457
  177SLPC   O1120064   3.019   3.194   6.441  0.3070  0.1830  0.0884
  177SLPC    C120065   3.011   3.069   6.366 -0.6260  0.5447  0.4825
  177SLPC    HA20066   3.048   2.984   6.427  0.9398  1.7527  1.2886
  177SLPC    HB20067   2.904   3.051   6.340 -0.5037  1.5748 -0.8849
  177SLPC    C220068   3.085   3.083   6.224 -0.5842 -0.6344  0.1696
  177SLPC    HS20069   3.193   3.074   6.249 -1.0760 -1.5716  2.0920
  177SLPC   O2120070   3.066   3.216   6.167  0.3133 -0.7388 -0.0482
  177SLPC   C2120071   3.156   3.259   6.076 -0.3140  0.8630  0.6892
  177SLPC   O2220072   3.252   3.186   6.046  0.7667  0.0989  0.3343
  177SLPC   C2220073   3.118   3.393   6.012  0.5052 -0.7618 -0.2766
  177SLPC   H2R20074   3.010   3.389   5.987  0.2372  0.8304  0.5140
  177SLPC   H2S20075   3.122   3.477   6.084 -0.0984 -1.0305  0.0751
  177SLPC    C320076   3.042   2.966   6.128  0.3923 -0.0400  0.7835
  177SLPC    HX20077   3.077   2.878   6.185 -0.6695 -0.6038  0.5835
  177SLPC    HY20078   3.112   2.972   6.041  0.2646 -3.4335  0.3156
  177SLPC   O3120079   2.898   2.964   6.103  0.1470 -0.1372 -0.6873
  177SLPC   C3120080   2.840   3.041   6.015  0.1344  0.7746  0.1642
  177SLPC   O3220081   2.905   3.110   5.938  0.0365  0.4154 -0.4307
  177SLPC   C3220082   2.689   3.017   6.020 -0.5176 -0.5239 -0.2327
  177SLPC   H2X20083   2.641   3.074   6.103  2.1239  2.3364 -0.5237
  177SLPC   H2Y20084   2.669   2.911   6.047 -1.9614 -0.2698 -0.2276
  177SLPC   C2320085   3.197   3.429   5.880  0.6916 -0.6018  0.3727
  177SLPC   H3R20086   3.304   3.442   5.905  0.8474 -1.7056  0.3224
  177SLPC   H3S20087   3.173   3.531   5.843  1.6465  0.0855  1.5599
  177SLPC   C2420088   3.178   3.341   5.761 -0.9334  0.3377  0.5533
  177SLPC   H4R20089   3.074   3.330   5.723 -1.0130  3.4201 -0.3792
  177SLPC   H4S20090   3.208   3.236   5.784 -0.7741  0.5752  1.4697
  177SLPC   C2520091   3.271   3.368   5.637  0.3850 -0.4329  0.2302
  177SLPC   H5R20092   3.379   3.355   5.661  0.9155  1.6921 -0.8208
  177SLPC   H5S20093   3.259   3.473   5.604  0.0140 -0.8136 -0.8771
  177SLPC   C2620094   3.231   3.286   5.509 -0.2343  0.2156  0.0100
  177SLPC   H6R20095   3.127   3.309   5.479 -0.7138 -2.1249 -0.3218
  177SLPC   H6S20096   3.226   3.180   5.544 -0.7261  0.3162  0.2507
  177SLPC   C2720097   3.322   3.319   5.397  0.5697  0.0548 -0.3199
  177SLPC   H7R20098   3.425   3.291   5.428  0.1665 -0.3753  0.6497
  177SLPC   H7S20099   3.312   3.430   5.393  3.6989  0.4973  1.5128
  177SLPC   C2820100   3.280   3.252   5.262 -0.3576  0.4276  0.1369
  177SLPC   H8R20101   3.177   3.286   5.238 -0.2264  0.5126 -0.3231
  177SLPC   H8S20102   3.283   3.143   5.284 -1.1794  0.4209  0.2374
  177SLPC   C2920103   3.379   3.276   5.144  0.6233  1.0481  0.0564
  177SLPC   H9R20104   3.468   3.337   5.167 -0.9650  3.6658 -0.2482
  177SLPC  C21020105   3.361   3.238   5.019  0.4261  0.2990 -0.2737
  177SLPC  H10R20106   3.447   3.260   4.953 -0.0172 -0.0104 -0.9716
  177SLPC  C21120107   3.248   3.148   4.973 -0.2723 -0.1015  0.3251
  177SLPC  H11R20108   3.155   3.143   5.034 -1.2051 -2.4521 -1.1303
  177SLPC  H11S20109   3.277   3.042   4.989 -1.5976 -0.4154  0.8150
  177SLPC  C21220110   3.190   3.167   4.834  0.4512  0.1371 -0.3605
  177SLPC  H12R20111   3.098   3.228   4.828  0.4027  0.0629 -0.3859
  177SLPC  C21320112   3.239   3.119   4.714  0.3555 -0.2664  0.5916
  177SLPC  H13R20113   3.181   3.143   4.624 -0.5271  0.0306  1.2289
  177SLPC  C21420114   3.372   3.039   4.709  0.3591 -0.1623  0.3653
  177SLPC  H14R20115   3.339   2.939   4.674  1.0649 -0.4921  0.6436
  177SLPC  H14S20116   3.419   3.021   4.808 -0.4753 -0.6887  0.6799
  177SLPC  C21520117   3.476   3.082   4.607  0.2313  0.0388 -0.1261
  177SLPC  H15R20118   3.504   3.190   4.614 -3.5202  1.0437  1.8064
  177SLPC  H15S20119   3.433   3.056   4.508  0.0286 -0.2328  0.0326
  177SLPC  C21620120   3.606   3.000   4.616  0.2944  0.7641 -0.3790
  177SLPC  H16R20121   3.652   2.978   4.518  1.8425 -1.2624  0.7267
  177SLPC  H16S20122   3.571   2.902   4.656 -2.3113  2.1425  0.9964
  177SLPC  C21720123   3.713   3.071   4.699  0.2351  0.3951 -0.3190
  177SLPC  H17R20124   3.762   3.142   4.629  1.6872  0.3850  0.6552
  177SLPC  H17S20125   3.792   2.997   4.723  1.5252  1.6517 -0.5746
  177SLPC  C21820126   3.672   3.149   4.829 -0.5777 -0.3303 -0.1823
  177SLPC  H18R20127   3.629   3.075   4.900 -2.5750  0.8923 -0.0327
  177SLPC  H18S20128   3.590   3.224   4.820 -0.3514 -0.1738 -0.9903
  177SLPC  H18T20129   3.760   3.183   4.887 -0.7437 -0.4280  0.1330
  177SLPC   C3320130   2.620   3.043   5.890 -0.5903 -0.8249 -0.1506
  177SLPC   H3X20131   2.646   3.142   5.847 -0.1719 -1.1955 -0.7744
  177SLPC   H3Y20132   2.511   3.044   5.911 -0.6495 -1.2135 -0.4214
  177SLPC   C3420133   2.647   2.932   5.788  0.3436 -0.1400  0.6752
  177SLPC   H4X20134   2.611   2.831   5.819 -1.2642 -0.4257 -1.8063
  177SLPC   H4Y20135   2.757   2.926   5.772  0.1716  0.2908 -0.8895
  177SLPC   C3520136   2.593   2.970   5.649  0.2100  0.1296 -0.8566
  177SLPC   H5X20137   2.629   3.070   5.618 -0.0447  0.2989 -0.6086
  177SLPC   H5Y20138   2.482   2.961   5.639 -0.5342  2.7494  2.9217
  177SLPC   C3620139   2.651   2.883   5.534 -1.2744 -0.3203  0.2083
  177SLPC   H6X20140   2.614   2.780   5.550  0.9631 -1.5162 -1.6553
  177SLPC   H6Y20141   2.762   2.882   5.531 -1.2834 -1.2958  0.0755
  177SLPC   C3720142   2.612   2.930   5.394  0.1699 -0.2622 -0.0100
  177SLPC   H7X20143   2.692   2.909   5.320 -1.3838  1.8846 -2.4731
  177SLPC   H7Y20144   2.603   3.040   5.386  1.4785 -0.2677 -2.7751
  177SLPC   C3820145   2.475   2.882   5.333 -0.6046  0.2425 -0.5313
  177SLPC   H8X20146   2.412   2.899   5.422 -0.3232  1.8672 -0.6064
  177SLPC   H8Y20147   2.485   2.776   5.301  0.7145  0.0811  0.3380
  177SLPC   C3920148   2.421   2.970   5.222 -0.4750  0.2279  0.0102
  177SLPC   H9X20149   2.419   3.076   5.257 -2.1590 -0.6162  2.9053
  177SLPC   H9Y20150   2.314   2.944   5.208 -0.6975  1.3546 -0.4884
  177SLPC  C31020151   2.501   2.938   5.092 -0.3103  0.1253 -0.1070
  177SLPC  H10X20152   2.517   2.830   5.073 -2.6567 -0.5269  1.2522
  177SLPC  H10Y20153   2.607   2.973   5.094 -0.3400  0.2033  0.0890
  177SLPC  C31120154   2.431   3.006   4.972  0.4170 -0.1454 -0.0607
  177SLPC  H11X20155   2.467   3.111   4.979 -0.7704  0.2261  0.8988
  177SLPC  H11Y20156   2.320   3.008   4.983  0.3246  0.4736 -0.9765
  177SLPC  C31220157   2.470   2.940   4.838 -0.8860 -0.2491  0.4316
  177SLPC  H12X20158   2.469   2.830   4.858  0.4322  0.0426  2.3723
  177SLPC  H12Y20159   2.577   2.964   4.828 -0.7617  0.8352  3.3736
  177SLPC  C31320160   2.388   2.981   4.713  0.7745  0.2109  0.5249
  177SLPC  H13X20161   2.428   3.079   4.678  1.0300 -0.3624 -0.8766
  177SLPC  H13Y20162   2.279   2.990   4.731 -0.2152 -1.9824 -3.2926
  177SLPC  C31420163   2.413   2.889   4.587 -0.2383 -0.0378  0.0857
  177SLPC  H14X20164   2.385   2.785   4.612  1.3283 -0.3875  0.5111
  177SLPC  H14Y20165   2.523   2.894   4.571 -0.1173  0.0295  0.9160
  177SLPC  C31520166   2.346   2.928   4.454 -0.8802  0.5526 -0.2163
  177SLPC  H15X20167   2.236   2.924   4.465 -0.8227  1.8370  1.1338
  177SLPC  H15Y20168   2.366   2.849   4.379 -1.1761  0.2481  0.0211
  177SLPC  C31620169   2.381   3.073   4.411 -0.3029  0.5668  0.1474
  177SLPC  H16X20170   2.363   3.144   4.494 -0.5843  0.3253  0.2890
  177SLPC  H16Y20171   2.313   3.110   4.331 -3.0174 -1.2815  1.4798
  177SLPC  C31720172   2.527   3.086   4.352 -0.2287 -0.1708  0.2562
  177SLPC  H17X20173   2.520   3.054   4.246  0.8340  0.5080 -0.0311
  177SLPC  H17Y20174   2.594   3.025   4.416  0.9696 -1.1711 -1.8457
  177SLPC  C31820175   2.570   3.233   4.347  0.4011 -0.2841  0.1420
  177SLPC  H18X20176   2.631   3.253   4.256  0.2969  0.0578  0.1432
  177SLPC  H18Y20177   2.625   3.266   4.439 -1.2539  1.9045  0.4368
  177SLPC  H18Z20178   2.479   3.296   4.339  0.2037 -0.5481  0.2920
  178SLPC     N20179   1.217   1.918   6.820 -0.9140  0.0227 -0.1330
  178SLPC   C1320180   1.196   1.918   6.669 -0.2492  0.0813 -0.4167
  178SLPC  H13A20181   1.218   2.015   6.628  3.3679 -0.4029  0.0742
  178SLPC  H13B20182   1.272   1.857   6.623  0.7875 -0.1603  1.5089
  178SLPC  H13C20183   1.091   1.897   6.654 -0.8967  2.5563  0.2351
  178SLPC   C1420184   1.144   1.805   6.870 -0.1707  0.4256 -0.0774
  178SLPC  H14A20185   1.169   1.783   6.973  0.8079  0.2512 -0.3376
  178SLPC  H14B20186   1.037   1.819   6.873 -0.0082  2.7063 -2.1235
  178SLPC  H14C20187   1.161   1.709   6.824  0.5044  0.3638  0.2871
  178SLPC   C1520188   1.161   2.049   6.872  0.1434  1.0944 -0.4566
  178SLPC  H15A20189   1.232   2.130   6.862  1.7568 -0.2045  0.0325
  178SLPC  H15B20190   1.077   2.089   6.818  0.8310  2.4609 -0.5677
  178SLPC  H15C20191   1.134   2.033   6.976  1.9244 -0.7325 -0.2123
  178SLPC   C1220192   1.370   1.910   6.840  0.1102 -0.4813 -0.3201
  178SLPC  H12A20193   1.402   1.892   6.942  2.5885 -5.2542 -1.6074
  178SLPC  H12B20194   1.412   2.005   6.811  0.7726 -1.3831 -2.5167
  178SLPC   C1120195   1.454   1.795   6.790 -0.3648 -0.5784  0.4904
  178SLPC  H11A20196   1.402   1.708   6.835 -3.2079  1.0389  0.5846
  178SLPC  H11B20197   1.557   1.802   6.830 -0.3757 -0.9157  0.5861
  178SLPC     P20198   1.548   1.871   6.548 -0.3078 -0.4030 -0.2021
  178SLPC   O1320199   1.461   1.924   6.444  0.1060  0.0328  0.6353
  178SLPC   O1420200   1.618   1.969   6.635  0.0233  0.4190 -0.2764
  178SLPC   O1220201   1.468   1.781   6.646 -0.4723 -0.0471 -0.1960
  178SLPC   O1120202   1.655   1.773   6.479 -0.2106 -0.1660 -0.2008
  178SLPC    C120203   1.606   1.646   6.437 -0.4348  0.3259 -0.0160
  178SLPC    HA20204   1.583   1.574   6.518  0.8241 -1.8271 -1.4435
  178SLPC    HB20205   1.517   1.646   6.371 -0.4195 -3.4572 -0.2726
  178SLPC    C220206   1.716   1.569   6.358 -0.0844 -0.1205 -0.3491
  178SLPC    HS20207   1.810   1.583   6.415 -0.1900 -0.1520 -0.1639
  178SLPC   O2120208   1.725   1.601   6.221  0.3076  0.0094 -0.4403
  178SLPC   C2120209   1.789   1.709   6.185 -0.0944  0.5818 -0.0318
  178SLPC   O2220210   1.876   1.773   6.246  0.8583  0.2925 -0.1820
  178SLPC   C2220211   1.718   1.762   6.048 -1.0012  0.1244 -0.2260
  178SLPC   H2R20212   1.643   1.686   6.017 -0.7947 -0.3386  0.3961
  178SLPC   H2S20213   1.653   1.850   6.068 -2.4129 -0.2401 -2.7415
  178SLPC    C320214   1.695   1.414   6.368 -0.1756 -0.2695  0.1056
  178SLPC    HX20215   1.588   1.385   6.357 -0.0180 -0.5190 -0.8107
  178SLPC    HY20216   1.705   1.374   6.471 -0.9210 -3.8364 -1.0412
  178SLPC   O3120217   1.783   1.345   6.280  0.3177 -0.4891 -0.0910
  178SLPC   C3120218   1.721   1.308   6.164  0.2469  0.1507  0.3086
  178SLPC   O3220219   1.600   1.313   6.143 -0.1985 -0.1570  0.1710
  178SLPC   C3220220   1.827   1.296   6.059 -0.4100 -0.7602  0.1797
  178SLPC   H2X20221   1.913   1.234   6.091 -0.5587  0.4067  3.1714
  178SLPC   H2Y20222   1.864   1.395   6.026  0.7252  0.2155  3.8961
  178SLPC   C2320223   1.817   1.805   5.937 -0.1926  0.3364  0.0180
  178SLPC   H3R20224   1.874   1.890   5.981 -1.5827  1.6884 -0.6755
  178SLPC   H3S20225   1.762   1.842   5.848  2.7534  0.0450 -2.0543
  178SLPC   C2420226   1.891   1.690   5.874  0.3334  0.4779 -0.4696
  178SLPC   H4R20227   1.811   1.613   5.867  0.1138  0.4506  1.6852
  178SLPC   H4S20228   1.972   1.648   5.937  1.6370  1.0223 -1.7304
  178SLPC   C2520229   1.937   1.727   5.737 -0.3551 -0.0722  0.0025
  178SLPC   H5R20230   2.011   1.809   5.731 -1.6514  1.1310 -0.2021
  178SLPC   H5S20231   1.854   1.766   5.674  0.1905  0.6969 -0.2494
  178SLPC   C2620232   1.995   1.604   5.658 -0.0224 -0.2962 -0.0499
  178SLPC   H6R20233   1.928   1.515   5.660  0.1240 -0.4165 -0.5475
  178SLPC   H6S20234   2.085   1.573   5.715  0.7484  0.0275 -1.0748
  178SLPC   C2720235   2.031   1.644   5.514 -0.6554 -0.3311  0.4776
  178SLPC   H7R20236   2.117   1.713   5.506  0.5354 -1.5091  2.4387
  178SLPC   H7S20237   1.938   1.698   5.484 -0.3679  0.8318  1.5691
  178SLPC   C2820238   2.055   1.534   5.411  0.8864 -0.0231  0.3022
  178SLPC   H8R20239   2.038   1.578   5.310 -2.0845  1.2780  1.2839
  178SLPC   H8S20240   1.986   1.447   5.417  2.5545 -1.5917 -1.5422
  178SLPC   C2920241   2.192   1.469   5.408  1.2046 -0.7327 -0.4298
  178SLPC   H9R20242   2.223   1.435   5.508 -0.0330  0.2395  0.3154
  178SLPC  C21020243   2.280   1.453   5.306 -0.3339 -0.0279 -0.3499
  178SLPC  H10R20244   2.379   1.407   5.321 -0.7472 -1.7630 -2.4048
  178SLPC  C21120245   2.265   1.485   5.160 -0.2780 -0.6677  0.1550
  178SLPC  H11R20246   2.219   1.585   5.143  0.4693 -0.4318 -0.6011
  178SLPC  H11S20247   2.188   1.417   5.119  0.3876 -0.2526 -1.8948
  178SLPC  C21220248   2.383   1.487   5.068  0.2003 -0.0788 -0.9087
  178SLPC  H12R20249   2.455   1.414   5.110 -1.0592  0.6802  3.0058
  178SLPC  C21320250   2.382   1.563   4.961  0.5250  0.2108 -0.7353
  178SLPC  H13R20251   2.473   1.580   4.900  0.3921 -1.3390 -1.3965
  178SLPC  C21420252   2.268   1.648   4.914 -0.3521 -0.0487 -0.3265
  178SLPC  H14R20253   2.260   1.736   4.982 -0.5363  0.8538 -1.4877
  178SLPC  H14S20254   2.176   1.585   4.916 -1.6868  1.8011 -0.0840
  178SLPC  C21520255   2.274   1.725   4.781 -0.0404 -0.4790  0.0920
  178SLPC  H15R20256   2.348   1.806   4.800 -0.9679 -0.2469  3.3014
  178SLPC  H15S20257   2.170   1.760   4.764 -1.0929 -0.6927  4.6212
  178SLPC  C21620258   2.309   1.639   4.656 -0.2046  0.4676  0.1825
  178SLPC  H16R20259   2.217   1.581   4.632  1.2176 -3.0212  2.3377
  178SLPC  H16S20260   2.390   1.570   4.688  1.5813  1.0961 -2.6313
  178SLPC  C21720261   2.356   1.715   4.532 -0.3520  0.3122  0.5452
  178SLPC  H17R20262   2.408   1.634   4.476 -1.7504  0.3477 -0.8603
  178SLPC  H17S20263   2.422   1.797   4.567 -0.6665  1.2689 -1.0076
  178SLPC  C21820264   2.261   1.792   4.437 -0.4410  0.0477 -0.1365
  178SLPC  H18R20265   2.207   1.868   4.498  1.6068  0.5749  1.1126
  178SLPC  H18S20266   2.195   1.720   4.383  0.0136 -0.5197  0.0558
  178SLPC  H18T20267   2.323   1.844   4.361  0.9386 -0.2581  0.7400
  178SLPC   C3320268   1.763   1.222   5.936  0.6060  0.1730 -0.1426
  178SLPC   H3X20269   1.667   1.268   5.907 -1.4695 -1.2641  3.6808
  178SLPC   H3Y20270   1.742   1.115   5.960  0.8365 -0.7448 -3.5436
  178SLPC   C3420271   1.854   1.207   5.814 -0.2479  0.0359 -0.0798
  178SLPC   H4X20272   1.957   1.178   5.842 -0.3022  0.8351  1.0174
  178SLPC   H4Y20273   1.863   1.308   5.768  0.9236 -0.3734 -0.7776
  178SLPC   C3520274   1.803   1.119   5.702 -0.0514 -0.2809  0.3944
  178SLPC   H5X20275   1.696   1.107   5.731 -0.1683  2.4942  1.4043
  178SLPC   H5Y20276   1.850   1.018   5.699  0.6013  0.0069  0.6811
  178SLPC   C3620277   1.805   1.184   5.557  0.1036  0.0905  0.2148
  178SLPC   H6X20278   1.910   1.193   5.520  0.5702 -0.1639  1.4470
  178SLPC   H6Y20279   1.771   1.290   5.556  1.2911  0.5108  1.2950
  178SLPC   C3720280   1.738   1.101   5.451  0.3132 -0.2736 -0.2879
  178SLPC   H7X20281   1.628   1.106   5.467  0.2686 -2.4971  0.4677
  178SLPC   H7Y20282   1.763   0.993   5.456 -2.5193 -1.0916 -1.8474
  178SLPC   C3820283   1.777   1.148   5.309 -0.7796  0.3159  0.5302
  178SLPC   H8X20284   1.745   1.253   5.292  1.5718  1.0807  0.4820
  178SLPC   H8Y20285   1.717   1.090   5.235  0.3196 -1.0190  0.6332
  178SLPC   C3920286   1.924   1.122   5.265  0.6308 -0.0713  0.3282
  178SLPC   H9X20287   1.940   1.013   5.275 -1.5280 -0.5339 -0.7461
  178SLPC   H9Y20288   1.992   1.178   5.333 -0.7580  1.3783  0.5662
  178SLPC  C31020289   1.953   1.173   5.120 -0.7302  0.8087  0.2516
  178SLPC  H10X20290   1.960   1.284   5.108  1.9797  0.6999  0.1462
  178SLPC  H10Y20291   1.884   1.129   5.045  0.4001 -0.7156  0.0598
  178SLPC  C31120292   2.090   1.112   5.089 -0.1693  0.0407  0.5595
  178SLPC  H11X20293   2.084   1.002   5.101 -0.7203  0.2215  2.1744
  178SLPC  H11Y20294   2.166   1.163   5.151 -1.1006  3.1380 -0.6137
  178SLPC  C31220295   2.140   1.143   4.945 -0.4164  0.4891 -0.7163
  178SLPC  H12X20296   2.132   1.253   4.929 -0.9847  0.9443  2.1533
  178SLPC  H12Y20297   2.065   1.094   4.880  0.3956 -0.4531 -0.9663
  178SLPC  C31320298   2.274   1.081   4.904 -0.6004 -0.0185  0.3392
  178SLPC  H13X20299   2.282   0.987   4.962 -0.5294 -0.9238 -1.0885
  178SLPC  H13Y20300   2.363   1.138   4.939  0.1473 -1.9542  1.7538
  178SLPC  C31420301   2.287   1.063   4.750 -0.3189 -0.1596 -0.0572
  178SLPC  H14X20302   2.250   1.161   4.712 -2.1884 -0.3170  1.2306
  178SLPC  H14Y20303   2.228   0.977   4.712 -0.1464 -0.9328  1.3705
  178SLPC  C31520304   2.429   1.041   4.694 -0.3651 -0.3077  0.4868
  178SLPC  H15X20305   2.455   0.942   4.736 -1.0703 -0.1114  1.4272
  178SLPC  H15Y20306   2.511   1.110   4.724 -0.3238 -0.1936  0.1192
  178SLPC  C31620307   2.436   1.014   4.541 -0.6721 -0.3769 -0.2755
  178SLPC  H16X20308   2.382   0.921   4.513  0.5937 -1.5325  0.9629
  178SLPC  H16Y20309   2.542   0.992   4.513 -1.0139 -1.0607 -1.0915
  178SLPC  C31720310   2.378   1.133   4.455 -0.2033 -0.6740  0.5003
  178SLPC  H17X20311   2.422   1.235   4.470 -2.0958  0.2254  0.1864
  178SLPC  H17Y20312   2.270   1.134   4.479 -0.2892 -4.0783  0.7225
  178SLPC  C31820313   2.395   1.113   4.303 -0.1081  0.0579 -1.0348
  178SLPC  H18X20314   2.501   1.094   4.274 -0.5456 -0.0825 -2.5678
  178SLPC  H18Y20315   2.359   1.199   4.243 -0.5157  0.1089 -0.7213
  178SLPC  H18Z20316   2.342   1.023   4.268 -0.2488 -0.2219 -0.1420
  179SLPC     N20317   5.635   2.564   1.770 -0.1214  0.3201 -0.6175
  179SLPC   C1320318   5.729   2.465   1.828 -0.3785 -0.0303  0.6652
  179SLPC  H13A20319   5.815   2.527   1.846 -1.5697  1.5283  1.2155
  179SLPC  H13B20320   5.686   2.427   1.920 -1.0536  0.6243  0.6346
  179SLPC  H13C20321   5.751   2.384   1.760 -0.7636 -0.7087  1.3229
  179SLPC   C1420322   5.511   2.502   1.717 -1.0017 -1.0758 -0.5084
  179SLPC  H14A20323   5.536   2.422   1.648  1.9300 -0.5277 -0.2034
  179SLPC  H14B20324   5.459   2.458   1.801  2.0991 -2.7155  0.7404
  179SLPC  H14C20325   5.445   2.577   1.676  0.0017 -0.0248 -0.2245
  179SLPC   C1520326   5.709   2.622   1.653 -0.0778  0.1198 -0.1493
  179SLPC  H15A20327   5.646   2.691   1.598 -1.1420  0.1812  1.0946
  179SLPC  H15B20328   5.800   2.667   1.688 -1.0084  1.5137  0.6042
  179SLPC  H15C20329   5.736   2.542   1.586 -2.5391 -0.8013 -0.1553
  179SLPC   C1220330   5.603   2.664   1.883 -0.6322  0.1043  0.6004
  179SLPC  H12A20331   5.524   2.731   1.850 -1.6747 -0.5030  1.7848
  179SLPC  H12B20332   5.694   2.721   1.893 -0.3118 -0.1769 -0.5456
  179SLPC   C1120333   5.551   2.606   2.011 -0.4280  0.3498  0.3184
  179SLPC  H11A20334   5.531   2.685   2.086 -0.3962 -0.2648  0.9860
  179SLPC  H11B20335   5.629   2.540   2.055 -2.0023 -1.2697  0.7821
  179SLPC     P20336   5.290   2.615   1.995  0.0425 -0.0348  0.0568
  179SLPC   O1320337   5.310   2.757   1.980 -0.2327 -0.2200 -0.1603
  179SLPC   O1420338   5.184   2.543   1.914  0.4816  0.6710  0.2944
  179SLPC   O1220339   5.428   2.539   1.980  0.1048 -0.3406  0.2689
  179SLPC   O1120340   5.267   2.596   2.147  0.2445 -0.5276 -0.2350
  179SLPC    C120341   5.247   2.477   2.218 -0.6459  0.6026 -0.2910
  179SLPC    HA20342   5.139   2.454   2.218 -0.8400  1.2571 -2.5446
  179SLPC    HB20343   5.282   2.385   2.166 -0.6573 -0.4353  1.4606
  179SLPC    C220344   5.318   2.492   2.355 -0.3326  0.2635  0.3304
  179SLPC    HS20345   5.305   2.396   2.409 -0.7409  0.6551  0.9270
  179SLPC   O2120346   5.256   2.597   2.429  0.3843  0.4262 -0.0111
  179SLPC   C2120347   5.141   2.566   2.480  0.2878  0.7470  0.2845
  179SLPC   O2220348   5.086   2.453   2.481  0.7382  0.1249 -0.2355
  179SLPC   C2220349   5.068   2.697   2.524 -0.1007 -0.6992  0.5061
  179SLPC   H2R20350   5.145   2.777   2.528 -0.8193  0.2471 -2.6628
  179SLPC   H2S20351   4.979   2.722   2.464 -0.0436  1.7156  1.3008
  179SLPC    C320352   5.471   2.524   2.342 -0.4594 -0.1696 -0.1730
  179SLPC    HX20353   5.484   2.634   2.327  0.1079 -0.1903  0.1258
  179SLPC    HY20354   5.517   2.469   2.257 -0.3646 -1.5645  0.7604
  179SLPC   O3120355   5.552   2.492   2.457 -0.6764  0.4975 -0.4282
  179SLPC   C3120356   5.564   2.369   2.496 -0.1577  0.8182  0.9869
  179SLPC   O3220357   5.504   2.273   2.444  0.5840 -0.1411  0.3496
  179SLPC   C3220358   5.675   2.362   2.603  0.5285 -0.6047  0.8077
  179SLPC   H2X20359   5.763   2.415   2.563 -0.5996 -0.5246 -1.7100
  179SLPC   H2Y20360   5.706   2.255   2.612  1.6205 -0.2970  0.7351
  179SLPC   C2320361   5.001   2.672   2.667  0.1950  0.1352  0.2040
  179SLPC   H3R20362   4.921   2.596   2.660  0.9216 -0.7096  0.7336
  179SLPC   H3S20363   4.958   2.767   2.705 -0.1431 -0.4685  1.3982
  179SLPC   C2420364   5.098   2.622   2.780 -0.2041  0.0421 -0.4543
  179SLPC   H4R20365   5.181   2.696   2.771  0.5776 -0.7716 -0.2012
  179SLPC   H4S20366   5.142   2.521   2.763 -1.4796 -0.7464  0.7522
  179SLPC   C2520367   5.025   2.616   2.919  0.1224  0.3175 -0.0107
  179SLPC   H5R20368   4.931   2.555   2.916 -0.4551  1.2041 -0.3091
  179SLPC   H5S20369   5.003   2.724   2.932 -0.2782  0.4400 -1.5088
  179SLPC   C2620370   5.111   2.552   3.027  0.2386  0.2658 -0.2288
  179SLPC   H6R20371   5.206   2.607   3.014  0.1410 -0.2326 -4.3515
  179SLPC   H6S20372   5.135   2.445   3.010  2.3984  0.3508  1.7753
  179SLPC   C2720373   5.055   2.581   3.172 -0.8195  0.1738 -0.2778
  179SLPC   H7R20374   4.962   2.524   3.191 -1.5413  1.0578 -1.0870
  179SLPC   H7S20375   5.029   2.689   3.181 -0.9450  0.0632  0.9005
  179SLPC   C2820376   5.150   2.543   3.287 -0.4231  0.7479 -0.5708
  179SLPC   H8R20377   5.240   2.607   3.285  0.0486  0.0874 -0.9835
  179SLPC   H8S20378   5.200   2.448   3.259  0.0681  0.3173  1.5759
  179SLPC   C2920379   5.076   2.521   3.423  0.0327  0.3301 -0.1845
  179SLPC   H9R20380   5.047   2.416   3.436 -1.0960  0.4897 -1.2970
  179SLPC  C21020381   5.082   2.599   3.531 -0.4415 -0.3120  0.0619
  179SLPC  H10R20382   5.048   2.564   3.629 -0.2999  2.5559  1.2274
  179SLPC  C21120383   5.145   2.738   3.530 -0.2077 -0.6969 -0.8172
  179SLPC  H11R20384   5.059   2.806   3.550 -0.0624 -1.2783  2.3576
  179SLPC  H11S20385   5.194   2.764   3.434  0.7303  2.1210  0.3160
  179SLPC  C21220386   5.242   2.762   3.648  0.5298  0.0505  0.9460
  179SLPC  H12R20387   5.344   2.732   3.617  1.0494  0.0579  2.5323
  179SLPC  C21320388   5.217   2.806   3.771  0.3877 -0.6059 -0.2830
  179SLPC  H13R20389   5.306   2.827   3.832  0.3125 -1.8989  0.3154
  179SLPC  C21420390   5.092   2.864   3.826 -0.2670  0.4854  0.4689
  179SLPC  H14R20391   5.004   2.839   3.764 -0.1010  0.3110  0.3000
  179SLPC  H14S20392   5.104   2.974   3.828  3.1242  0.2603 -0.9286
  179SLPC  C21520393   5.064   2.811   3.965  0.6301 -0.6117 -0.4607
  179SLPC  H15R20394   5.147   2.836   4.034 -0.1951 -2.2504  1.2271
  179SLPC  H15S20395   5.056   2.700   3.965  1.9158 -0.7289 -2.1560
  179SLPC  C21620396   4.938   2.876   4.034 -0.6271  0.6422  0.1750
  179SLPC  H16R20397   4.853   2.854   3.966  0.6669 -2.2024 -0.6929
  179SLPC  H16S20398   4.934   2.987   4.032  1.9257  0.8053 -2.3203
  179SLPC  C21720399   4.898   2.797   4.157 -0.2813  0.0300 -0.5828
  179SLPC  H17R20400   4.981   2.784   4.229  0.7583 -2.5319 -2.1151
  179SLPC  H17S20401   4.868   2.692   4.135 -0.0844 -0.0858 -0.3081
  179SLPC  C21820402   4.772   2.846   4.223  0.0062  0.6115  0.0235
  179SLPC  H18R20403   4.750   2.775   4.305  0.4982 -2.4712 -2.3483
  179SLPC  H18S20404   4.682   2.847   4.158  0.0604  0.9181 -0.0514
  179SLPC  H18T20405   4.791   2.946   4.269  0.1300  0.1685  0.9366
  179SLPC   C3320406   5.641   2.419   2.743  0.4931 -0.3430  0.5848
  179SLPC   H3X20407   5.630   2.526   2.716  0.5062 -0.7771 -1.2152
  179SLPC   H3Y20408   5.730   2.401   2.808  1.1433  0.2829 -0.1203
  179SLPC   C3420409   5.516   2.358   2.808 -0.0394 -0.2523  0.1508
  179SLPC   H4X20410   5.536   2.258   2.853  2.9309  1.4939  3.1068
  179SLPC   H4Y20411   5.431   2.343   2.738  0.3556  0.4046 -0.4851
  179SLPC   C3520412   5.463   2.448   2.927  0.6941  0.0617  0.3005
  179SLPC   H5X20413   5.424   2.547   2.894  2.4697  0.7563  0.1830
  179SLPC   H5Y20414   5.372   2.403   2.971  0.2783 -0.8618 -1.4240
  179SLPC   C3620415   5.555   2.462   3.043 -0.0890  0.0657  0.0351
  179SLPC   H6X20416   5.653   2.504   3.014  0.7372 -0.9512  1.2234
  179SLPC   H6Y20417   5.577   2.368   3.099  1.3582  0.7077  0.5859
  179SLPC   C3720418   5.501   2.560   3.149  0.2502  0.4260  0.5873
  179SLPC   H7X20419   5.408   2.511   3.183  0.4614 -0.7855 -0.4959
  179SLPC   H7Y20420   5.463   2.647   3.091 -2.0704 -0.0020  1.3629
  179SLPC   C3820421   5.594   2.601   3.261 -0.0224 -0.0271  0.1915
  179SLPC   H8X20422   5.610   2.711   3.258 -0.1415 -0.0231 -0.6612
  179SLPC   H8Y20423   5.690   2.551   3.239 -0.1485 -1.4795  2.6077
  179SLPC   C3920424   5.553   2.546   3.394  0.0518  0.7410 -0.2987
  179SLPC   H9X20425   5.556   2.439   3.367  1.3041  1.1033 -1.7352
  179SLPC   H9Y20426   5.448   2.578   3.416 -0.3047  0.0686 -0.9711
  179SLPC  C31020427   5.643   2.584   3.516  0.0707 -0.3492 -0.3621
  179SLPC  H10X20428   5.641   2.693   3.540  0.5297  0.0605 -2.0448
  179SLPC  H10Y20429   5.749   2.563   3.492 -0.5605 -1.0690 -2.8940
  179SLPC  C31120430   5.603   2.494   3.632 -0.4802 -0.1292 -0.4928
  179SLPC  H11X20431   5.590   2.392   3.591  1.4983 -2.1759  3.4053
  179SLPC  H11Y20432   5.508   2.531   3.675  0.2842  0.7333  0.5025
  179SLPC  C31220433   5.705   2.489   3.754  0.0970  0.0489 -0.3320
  179SLPC  H12X20434   5.720   2.589   3.798 -3.8895  0.3117  0.8053
  179SLPC  H12Y20435   5.796   2.442   3.710 -0.0772  0.4945 -1.2070
  179SLPC  C31320436   5.663   2.390   3.867  0.6528  0.2113  0.4946
  179SLPC  H13X20437   5.661   2.287   3.824  1.5398  0.8259 -1.1467
  179SLPC  H13Y20438   5.563   2.426   3.899  0.6237  2.0266 -1.4209
  179SLPC  C31420439   5.771   2.378   3.977 -0.0231 -0.2108  0.3311
  179SLPC  H14X20440   5.874   2.397   3.938  0.3550 -1.8989  0.4190
  179SLPC  H14Y20441   5.780   2.273   4.010 -1.9704 -0.0653  1.4176
  179SLPC  C31520442   5.752   2.459   4.104  0.4616  0.3011  0.1615
  179SLPC  H15X20443   5.837   2.434   4.171  1.6722 -0.4307 -1.5748
  179SLPC  H15Y20444   5.657   2.418   4.143  0.6522 -0.5161 -0.2178
  179SLPC  C31620445   5.735   2.611   4.084 -0.6014 -0.1512 -0.1239
  179SLPC  H16X20446   5.646   2.628   4.019  0.1483  1.1445 -0.8590
  179SLPC  H16Y20447   5.825   2.660   4.041 -0.5530 -2.8467 -3.4894
  179SLPC  C31720448   5.719   2.690   4.213  0.1611  0.3068 -0.6078
  179SLPC  H17X20449   5.817   2.720   4.256 -1.1559  1.4152  1.8386
  179SLPC  H17Y20450   5.668   2.617   4.280  2.1027 -0.4295  0.1390
  179SLPC  C31820451   5.636   2.820   4.190  0.2550  0.4498  1.1920
  179SLPC  H18X20452   5.629   2.877   4.285 -1.3750 -0.6423  1.7757
  179SLPC  H18Y20453   5.539   2.791   4.144  0.4356  1.2593  0.2744
  179SLPC  H18Z20454   5.684   2.891   4.120  1.2763  0.2948  1.7179
  180SLPC     N20455   5.903   3.340   1.823 -0.1362  0.3495 -0.2179
  180SLPC   C1320456   5.904   3.205   1.756  0.0479  0.1284 -0.5508
  180SLPC  H13A20457   5.996   3.152   1.776 -0.0528  0.9617  2.6947
  180SLPC  H13B20458   5.836   3.145   1.815 -1.9520  2.0506 -0.7667
  180SLPC  H13C20459   5.872   3.204   1.653 -0.2481 -0.8893 -0.4574
  180SLPC   C1420460   5.762   3.382   1.835 -0.0231 -0.2482  1.0734
  180SLPC  H14A20461   5.722   3.397   1.736  0.3154 -1.7391  0.6845
  180SLPC  H14B20462   5.698   3.317   1.894 -0.6392  0.1976  0.9081
  180SLPC  H14C20463   5.768   3.478   1.883  4.0048  1.0688 -1.5507
  180SLPC   C1520464   5.978   3.434   1.732 -0.5956  0.5876  0.0836
  180SLPC  H15A20465   6.083   3.413   1.745 -0.4551  0.7515 -0.7124
  180SLPC  H15B20466   5.957   3.414   1.628  0.4353  0.1668 -0.0527
  180SLPC  H15C20467   5.958   3.539   1.750  0.2267  0.5838  1.0708
  180SLPC   C1220468   5.974   3.336   1.956 -0.6123 -0.3291 -1.1676
  180SLPC  H12A20469   5.992   3.432   2.004 -0.9650 -0.4384 -0.8155
  180SLPC  H12B20470   6.073   3.300   1.931 -0.9963 -0.7869 -2.0575
  180SLPC   C1120471   5.914   3.251   2.074 -0.0983 -0.4250 -0.5534
  180SLPC  H11A20472   5.813   3.295   2.088  0.2300  0.6034 -1.3914
  180SLPC  H11B20473   5.974   3.273   2.165 -1.9810 -1.1553  0.9441
  180SLPC     P20474   5.784   3.025   2.050  0.1821 -0.1316 -0.3057
  180SLPC   O1320475   5.683   3.065   1.946  0.1470  0.1269  0.0205
  180SLPC   O1420476   5.830   2.884   2.033  0.2889 -0.1314 -0.6088
  180SLPC   O1220477   5.914   3.112   2.044 -0.0273  0.3886  1.0445
  180SLPC   O1120478   5.726   3.043   2.197  0.3960 -0.0740  0.2126
  180SLPC    C120479   5.609   2.967   2.235  0.0745  0.3185  0.3262
  180SLPC    HA20480   5.595   2.887   2.160  1.3146  1.2584 -0.9646
  180SLPC    HB20481   5.637   2.924   2.334  2.8064 -0.8617 -0.8516
  180SLPC    C220482   5.475   3.043   2.253 -0.0959 -0.1836 -0.1057
  180SLPC    HS20483   5.448   3.083   2.153  2.3743  3.6487  0.5826
  180SLPC   O2120484   5.504   3.147   2.343 -0.1732  0.3399 -0.0858
  180SLPC   C2120485   5.422   3.242   2.376  0.3278 -0.3714 -0.3560
  180SLPC   O2220486   5.311   3.263   2.331  0.2245  0.5684 -0.8452
  180SLPC   C2220487   5.490   3.347   2.467 -0.4405  0.1876 -0.1936
  180SLPC   H2R20488   5.576   3.385   2.408 -0.5929  0.8942  0.0309
  180SLPC   H2S20489   5.412   3.424   2.483 -0.6009 -0.0501  0.1747
  180SLPC    C320490   5.366   2.945   2.319  0.7395 -0.3807 -0.4071
  180SLPC    HX20491   5.332   2.875   2.240  0.7022 -0.4023 -0.3717
  180SLPC    HY20492   5.279   3.009   2.346  0.6423 -0.4483 -0.5581
  180SLPC   O3120493   5.420   2.869   2.429  0.6534  0.1510 -0.1501
  180SLPC   C3120494   5.402   2.910   2.557  0.2776  0.4486 -0.1026
  180SLPC   O3220495   5.332   3.011   2.587 -0.2775 -0.2478 -0.9963
  180SLPC   C3220496   5.455   2.806   2.660  0.2565 -0.4672  0.3796
  180SLPC   H2X20497   5.534   2.740   2.616  1.8462  1.2299  0.5629
  180SLPC   H2Y20498   5.372   2.732   2.670 -0.6161  0.2817 -1.0744
  180SLPC   C2320499   5.544   3.284   2.602 -0.4213 -0.0155 -0.2024
  180SLPC   H3R20500   5.645   3.237   2.605 -1.1266 -1.6045 -0.4140
  180SLPC   H3S20501   5.481   3.195   2.620  0.3965 -0.4145  0.7669
  180SLPC   C2420502   5.532   3.392   2.711 -0.3025 -0.1113 -0.0006
  180SLPC   H4R20503   5.431   3.437   2.698 -0.4228 -0.9970 -2.5769
  180SLPC   H4S20504   5.604   3.474   2.690  1.4949 -0.8662  2.6507
  180SLPC   C2520505   5.556   3.329   2.846 -0.1432  0.3380 -0.0461
  180SLPC   H5R20506   5.653   3.277   2.838  0.9877  2.1644  1.1041
  180SLPC   H5S20507   5.473   3.265   2.883  0.6280 -0.3260  0.5672
  180SLPC   C2620508   5.582   3.438   2.955 -0.2215 -0.1113  0.2256
  180SLPC   H6R20509   5.488   3.495   2.965 -0.6314 -0.7078 -0.1497
  180SLPC   H6S20510   5.669   3.503   2.929 -1.9032  2.3389  0.3430
  180SLPC   C2720511   5.608   3.371   3.089 -0.0987  0.3915 -1.0761
  180SLPC   H7R20512   5.691   3.301   3.066 -0.4598  0.3704 -2.4321
  180SLPC   H7S20513   5.517   3.322   3.131  2.8565 -4.7938  0.0980
  180SLPC   C2820514   5.649   3.477   3.201 -0.4997 -0.2524 -0.2000
  180SLPC   H8R20515   5.578   3.552   3.241  0.1710  0.0644  0.4081
  180SLPC   H8S20516   5.734   3.535   3.160 -0.4561 -0.1277  0.0689
  180SLPC   C2920517   5.703   3.408   3.328 -0.0513  0.5052  0.6704
  180SLPC   H9R20518   5.813   3.405   3.334 -0.0336  0.1705  0.1947
  180SLPC  C21020519   5.629   3.347   3.420  0.7141  0.2871 -0.0787
  180SLPC  H10R20520   5.682   3.306   3.507  0.6799 -2.3514 -1.2144
  180SLPC  C21120521   5.476   3.347   3.433 -0.7024  0.2056 -0.7064
  180SLPC  H11R20522   5.428   3.352   3.333  0.1337 -1.4084 -1.2283
  180SLPC  H11S20523   5.454   3.444   3.481 -1.8182  0.3472 -1.4609
  180SLPC  C21220524   5.429   3.224   3.515 -0.0493  0.0141 -0.1860
  180SLPC  H12R20525   5.440   3.130   3.459  0.5499  1.0987 -1.9691
  180SLPC  C21320526   5.385   3.210   3.637 -0.0560  0.2544  0.0580
  180SLPC  H13R20527   5.368   3.112   3.684 -1.4613  0.8458  0.8344
  180SLPC  C21420528   5.366   3.320   3.737  0.2657 -0.2349  0.3834
  180SLPC  H14R20529   5.259   3.332   3.767  0.1104  2.3396 -0.9016
  180SLPC  H14S20530   5.373   3.421   3.690 -0.6662  0.1505  1.0225
  180SLPC  C21520531   5.472   3.327   3.857  0.8294  0.1656  0.1373
  180SLPC  H15R20532   5.455   3.428   3.900  3.7515  0.9447 -0.2951
  180SLPC  H15S20533   5.577   3.324   3.818  0.1800 -1.2054 -1.6559
  180SLPC  C21620534   5.457   3.197   3.948  0.3388 -0.6995  0.2389
  180SLPC  H16R20535   5.522   3.205   4.037  0.2898 -1.2767  0.3258
  180SLPC  H16S20536   5.491   3.112   3.885 -1.6789 -0.6697 -0.9936
  180SLPC  C21720537   5.306   3.169   3.980  0.0129 -0.3854 -0.2396
  180SLPC  H17R20538   5.311   3.070   4.031 -0.0717 -0.2849 -0.0360
  180SLPC  H17S20539   5.238   3.149   3.894  0.0505  1.5223 -0.7443
  180SLPC  C21820540   5.240   3.276   4.070 -0.5292 -0.0731  0.6537
  180SLPC  H18R20541   5.307   3.305   4.154  1.0148 -3.1676  0.6755
  180SLPC  H18S20542   5.148   3.234   4.116 -0.5919 -2.0845 -1.1409
  180SLPC  H18T20543   5.208   3.357   4.001  0.4121 -2.7681 -3.3206
  180SLPC   C3320544   5.500   2.871   2.786 -0.1249 -0.5409  0.1418
  180SLPC   H3X20545   5.556   2.967   2.771  0.0070 -0.5751  0.4170
  180SLPC   H3Y20546   5.574   2.798   2.825 -0.4211 -0.5296  0.7252
  180SLPC   C3420547   5.401   2.887   2.901 -0.3936  0.1993  0.7886
  180SLPC   H4X20548   5.366   2.782   2.915 -1.5924  0.0842 -2.3778
  180SLPC   H4Y20549   5.321   2.950   2.858 -0.1347 -0.5790 -0.8988
  180SLPC   C3520550   5.459   2.958   3.023  0.3862  0.0426  0.0995
  180SLPC   H5X20551   5.524   3.044   2.994 -0.2384 -0.0815 -1.8628
  180SLPC   H5Y20552   5.522   2.894   3.088  1.3351  1.1417  0.3060
  180SLPC   C3620553   5.350   3.013   3.119  0.1469 -0.3423  0.2165
  180SLPC   H6X20554   5.281   3.072   3.054 -0.3362 -0.7260  0.3699
  180SLPC   H6Y20555   5.393   3.077   3.198 -2.4016  0.3778  1.1288
  180SLPC   C3720556   5.250   2.904   3.177 -0.1919 -0.6877 -0.9418
  180SLPC   H7X20557   5.313   2.850   3.250 -0.7371 -0.5504 -0.3645
  180SLPC   H7Y20558   5.218   2.837   3.094  2.5220  0.5890 -3.1730
  180SLPC   C3820559   5.121   2.971   3.231  0.1947 -0.3973 -0.4919
  180SLPC   H8X20560   5.056   2.892   3.273  2.4356 -1.5929  0.9172
  180SLPC   H8Y20561   5.071   3.026   3.148 -1.1247  1.2225  1.2914
  180SLPC   C3920562   5.145   3.071   3.346 -1.1574 -0.4683 -0.7577
  180SLPC   H9X20563   5.204   3.157   3.309 -0.0875 -1.1974 -0.7996
  180SLPC   H9Y20564   5.206   3.026   3.427 -1.1234  1.2060  0.1958
  180SLPC  C31020565   5.022   3.128   3.415 -0.5390  0.6921 -0.3017
  180SLPC  H10X20566   4.961   3.044   3.455 -0.1601  0.9005  0.7600
  180SLPC  H10Y20567   4.950   3.166   3.340 -2.2183  0.8464  1.3170
  180SLPC  C31120568   5.041   3.236   3.530 -0.1665 -0.3400 -0.0991
  180SLPC  H11X20569   5.099   3.327   3.503  2.2562 -0.6764  3.3118
  180SLPC  H11Y20570   5.098   3.186   3.611  0.0326 -0.2669 -0.1949
  180SLPC  C31220571   4.902   3.262   3.600 -0.0335  0.2726 -0.4461
  180SLPC  H12X20572   4.867   3.162   3.635 -0.6943  0.3906 -0.7544
  180SLPC  H12Y20573   4.822   3.297   3.531 -1.5106 -1.9259  0.0489
  180SLPC  C31320574   4.902   3.367   3.712 -0.5926  0.1611 -0.0718
  180SLPC  H13X20575   4.939   3.466   3.676 -0.1902  0.6894  1.7141
  180SLPC  H13Y20576   4.965   3.333   3.796  0.6911  1.4436 -0.4714
  180SLPC  C31420577   4.753   3.377   3.760 -0.8650 -0.9276 -0.0076
  180SLPC  H14X20578   4.690   3.382   3.669  0.1597  0.9528 -0.6884
  180SLPC  H14Y20579   4.763   3.475   3.813  2.3486 -0.8587 -0.4954
  180SLPC  C31520580   4.713   3.268   3.859 -0.2410 -0.2425  0.0340
  180SLPC  H15X20581   4.715   3.170   3.806 -4.1510  0.6376 -2.2035
  180SLPC  H15Y20582   4.607   3.296   3.877 -0.3159  1.8431 -2.8852
  180SLPC  C31620583   4.790   3.275   3.998 -1.0872  0.0497  0.4013
  180SLPC  H16X20584   4.899   3.291   3.984 -0.7793 -1.7738  0.4282
  180SLPC  H16Y20585   4.771   3.182   4.056 -1.3871  0.5790  1.1651
  180SLPC  C31720586   4.738   3.393   4.079 -0.1073  0.3379  0.0683
  180SLPC  H17X20587   4.630   3.391   4.104  0.0827  0.7543  0.9408
  180SLPC  H17Y20588   4.775   3.487   4.033  1.6150 -0.3550 -0.0498
  180SLPC  C31820589   4.802   3.413   4.220  0.3005  0.6352  0.7968
  180SLPC  H18X20590   4.750   3.497   4.270 -2.1065 -0.6381  0.5854
  180SLPC  H18Y20591   4.910   3.441   4.216  0.4404  0.0390 -1.4470
  180SLPC  H18Z20592   4.783   3.325   4.285 -0.5510  0.8185  0.8019
  181SLPC     N20593   4.037   1.093   1.721  0.0302  0.4132 -0.0777
  181SLPC   C1320594   3.973   1.025   1.602  0.3360  0.0803 -0.4446
  181SLPC  H13A20595   3.876   1.068   1.586 -0.0436 -0.3837  0.4929
  181SLPC  H13B20596   4.031   1.016   1.512  2.3653 -2.3324  0.9488
  181SLPC  H13C20597   3.963   0.920   1.627  0.6938 -0.1658 -1.2871
  181SLPC   C1420598   4.041   1.243   1.683  0.2248  0.3007  0.0100
  181SLPC  H14A20599   4.070   1.307   1.764 -0.6995  2.9139 -1.6095
  181SLPC  H14B20600   4.098   1.254   1.592  2.5780  1.8554  1.5708
  181SLPC  H14C20601   3.946   1.288   1.658  1.0693  1.8667 -0.5301
  181SLPC   C1520602   4.179   1.051   1.745  0.0305  0.5866 -0.3042
  181SLPC  H15A20603   4.253   1.085   1.674  0.1533 -0.8256 -0.8831
  181SLPC  H15B20604   4.207   1.087   1.843  1.3053 -0.8991 -0.0770
  181SLPC  H15C20605   4.190   0.945   1.758  2.3353  0.9679  1.5141
  181SLPC   C1220606   3.953   1.076   1.851 -0.6780  0.1172 -0.0808
  181SLPC  H12A20607   3.887   0.994   1.824  0.1749 -0.0972 -1.6627
  181SLPC  H12B20608   3.882   1.156   1.860 -0.3802  0.3137  0.5357
  181SLPC   C1120609   4.018   1.083   1.993  0.2949 -0.1005  0.0254
  181SLPC  H11A20610   4.079   0.990   1.999 -0.3003 -0.4763  0.3808
  181SLPC  H11B20611   3.935   1.071   2.066 -1.0571  0.1003 -1.4379
  181SLPC     P20612   4.019   1.341   2.028 -0.0501  0.1785  0.5059
  181SLPC   O1320613   4.073   1.437   1.930 -0.4572 -0.5253  0.0608
  181SLPC   O1420614   3.876   1.314   2.039 -0.3542  0.5358 -0.0129
  181SLPC   O1220615   4.097   1.202   2.010 -0.0274  0.4656  0.1625
  181SLPC   O1120616   4.080   1.382   2.163  0.1804 -0.3466 -0.3811
  181SLPC    C120617   4.059   1.305   2.284 -0.2903 -0.5269 -0.8671
  181SLPC    HA20618   3.963   1.340   2.327 -0.0401  0.7807 -1.3167
  181SLPC    HB20619   4.059   1.196   2.261 -1.3000 -0.0093 -3.7708
  181SLPC    C220620   4.166   1.345   2.386 -0.0664  0.1503 -0.2638
  181SLPC    HS20621   4.263   1.326   2.336  0.0593  1.3112 -0.4825
  181SLPC   O2120622   4.150   1.273   2.511  0.2017  0.0370 -0.0678
  181SLPC   C2120623   4.189   1.150   2.510  0.6847 -0.6893 -0.2385
  181SLPC   O2220624   4.239   1.087   2.416 -0.1737  0.1217  0.3883
  181SLPC   C2220625   4.179   1.107   2.648 -0.4319  0.0580 -0.1436
  181SLPC   H2R20626   4.199   1.194   2.714  1.1147 -0.9797  0.8265
  181SLPC   H2S20627   4.076   1.074   2.671 -1.1231  1.3049 -1.3252
  181SLPC    C320628   4.176   1.500   2.416  0.7036 -0.1280 -0.6830
  181SLPC    HX20629   4.078   1.528   2.460  1.2231 -0.2681  0.5914
  181SLPC    HY20630   4.190   1.553   2.319 -1.5748  1.6378 -0.1338
  181SLPC   O3120631   4.287   1.538   2.501  0.1278  0.0910  0.6450
  181SLPC   C3120632   4.248   1.556   2.629  0.5480 -0.4458 -0.4471
  181SLPC   O3220633   4.143   1.528   2.677  0.3915 -0.2502  0.1600
  181SLPC   C3220634   4.350   1.618   2.712 -0.6394 -0.3490  0.3484
  181SLPC   H2X20635   4.302   1.683   2.788  1.3692 -1.3128  2.5744
  181SLPC   H2Y20636   4.405   1.686   2.644 -2.2464  1.1774  0.5297
  181SLPC   C2320637   4.274   1.000   2.687  0.4233 -0.1799  0.3054
  181SLPC   H3R20638   4.377   1.036   2.667  0.1016  0.6532  0.0946
  181SLPC   H3S20639   4.257   0.918   2.614 -0.3384  0.7971 -0.6566
  181SLPC   C2420640   4.258   0.943   2.826 -0.0063  0.1004 -0.3679
  181SLPC   H4R20641   4.347   0.879   2.844  0.9666  2.1012  2.8474
  181SLPC   H4S20642   4.166   0.881   2.828 -0.3719  0.6453  1.4991
  181SLPC   C2520643   4.248   1.057   2.928 -1.1978  0.0289 -0.2172
  181SLPC   H5R20644   4.152   1.106   2.904 -0.7958  0.8394 -0.2202
  181SLPC   H5S20645   4.329   1.133   2.929 -3.0834  2.1610  1.2263
  181SLPC   C2620646   4.236   0.991   3.065  0.1558  0.3008  0.0239
  181SLPC   H6R20647   4.322   0.924   3.086  0.4705  0.7604  0.2015
  181SLPC   H6S20648   4.143   0.929   3.069  0.4473 -0.2863 -1.6609
  181SLPC   C2720649   4.230   1.090   3.175  0.5793 -0.2157  1.0053
  181SLPC   H7R20650   4.171   1.181   3.152 -0.7292 -1.5834 -1.4247
  181SLPC   H7S20651   4.332   1.133   3.183  0.4113  0.6800 -1.0740
  181SLPC   C2820652   4.189   1.040   3.311 -0.6861 -0.2302 -0.8266
  181SLPC   H8R20653   4.255   0.951   3.321 -1.5715 -0.6398  2.0791
  181SLPC   H8S20654   4.085   1.005   3.296 -0.0482 -0.9904 -4.2863
  181SLPC   C2920655   4.218   1.139   3.420 -0.0854  0.7874  0.0556
  181SLPC   H9R20656   4.168   1.237   3.408 -1.3918  0.1981  0.4260
  181SLPC  C21020657   4.266   1.101   3.538 -0.4753  0.2351 -0.2734
  181SLPC  H10R20658   4.274   1.178   3.616 -1.1919  2.2334 -2.0781
  181SLPC  C21120659   4.325   0.967   3.589 -0.1539  0.2842  0.5252
  181SLPC  H11R20660   4.435   0.974   3.601 -0.0975  0.6021 -0.1257
  181SLPC  H11S20661   4.323   0.888   3.511 -0.1471  0.5655  0.2364
  181SLPC  C21220662   4.261   0.936   3.722 -0.6908  0.3393 -0.1911
  181SLPC  H12R20663   4.156   0.907   3.705 -0.0506 -0.6040 -3.1469
  181SLPC  C21320664   4.323   0.925   3.846  0.6963  0.2476  0.0974
  181SLPC  H13R20665   4.253   0.897   3.926 -0.0464  0.8213 -0.3356
  181SLPC  C21420666   4.464   0.963   3.886  0.1725 -0.7204  0.1899
  181SLPC  H14R20667   4.455   1.015   3.983  1.1956  0.1724 -0.1768
  181SLPC  H14S20668   4.509   1.040   3.819 -0.4171 -1.4087 -1.0438
  181SLPC  C21520669   4.560   0.843   3.894 -0.4773 -0.1438 -0.7374
  181SLPC  H15R20670   4.505   0.771   3.959  1.1390 -0.0981  0.7556
  181SLPC  H15S20671   4.656   0.880   3.935  0.4697 -1.1382 -1.9860
  181SLPC  C21620672   4.585   0.768   3.757 -0.4918 -0.0002  0.4935
  181SLPC  H16R20673   4.490   0.747   3.704  0.4958 -2.6562 -0.4039
  181SLPC  H16S20674   4.630   0.670   3.784  0.9127  0.5425  0.2115
  181SLPC  C21720675   4.686   0.846   3.670 -0.1103  0.0505 -0.1517
  181SLPC  H17R20676   4.778   0.873   3.726 -1.3211  0.6013  1.6615
  181SLPC  H17S20677   4.633   0.939   3.640 -0.6451 -0.1126  0.2844
  181SLPC  C21820678   4.709   0.771   3.539 -0.1676  0.3605  0.6772
  181SLPC  H18R20679   4.620   0.736   3.483 -0.5249  1.4696  0.5228
  181SLPC  H18S20680   4.761   0.677   3.566  1.2026  1.0796  0.6602
  181SLPC  H18T20681   4.766   0.835   3.469 -2.0657  1.4649  0.0631
  181SLPC   C3320682   4.461   1.522   2.770  0.4821  0.0676 -0.5293
  181SLPC   H3X20683   4.546   1.591   2.793  1.1522 -1.0087  0.2911
  181SLPC   H3Y20684   4.489   1.449   2.691  0.8731 -1.4022  0.9226
  181SLPC   C3420685   4.410   1.466   2.903 -0.0507 -0.3991 -0.0489
  181SLPC   H4X20686   4.459   1.368   2.919 -1.6745 -1.4862 -1.3668
  181SLPC   H4Y20687   4.303   1.437   2.894 -0.0683 -1.0870  1.8915
  181SLPC   C3520688   4.423   1.561   3.024  0.8390  0.1577  0.0186
  181SLPC   H5X20689   4.344   1.638   3.017  1.3253  0.6380 -0.2165
  181SLPC   H5Y20690   4.520   1.614   3.015  1.1914 -0.6937 -1.7867
  181SLPC   C3620691   4.405   1.502   3.166  0.5478 -0.7797 -0.3894
  181SLPC   H6X20692   4.487   1.436   3.201  0.5984 -0.0604  0.9026
  181SLPC   H6Y20693   4.315   1.438   3.175  0.4448 -0.8506 -1.6891
  181SLPC   C3720694   4.386   1.607   3.280  0.0405  0.4365 -0.4569
  181SLPC   H7X20695   4.290   1.656   3.252 -0.2699 -0.6599 -1.3859
  181SLPC   H7Y20696   4.467   1.683   3.281 -1.0021  1.6138  1.8323
  181SLPC   C3820697   4.390   1.534   3.420  0.5539 -0.7156  0.1458
  181SLPC   H8X20698   4.482   1.472   3.427  1.5364  0.6744 -0.0385
  181SLPC   H8Y20699   4.306   1.464   3.436  0.7832 -0.9380  0.3943
  181SLPC   C3920700   4.376   1.641   3.535 -0.5072  0.5803 -0.7310
  181SLPC   H9X20701   4.276   1.687   3.521 -0.6807  0.6964  0.7545
  181SLPC   H9Y20702   4.446   1.724   3.515 -0.2605  0.1119 -1.9308
  181SLPC  C31020703   4.401   1.577   3.666  0.2203 -0.7892 -0.0011
  181SLPC  H10X20704   4.505   1.545   3.688  0.7929  1.2145  0.3845
  181SLPC  H10Y20705   4.347   1.480   3.673 -1.2254 -0.0807 -0.8664
  181SLPC  C31120706   4.356   1.662   3.786 -0.0111 -0.1831  0.5001
  181SLPC  H11X20707   4.253   1.696   3.764  0.2576  0.0523 -0.4473
  181SLPC  H11Y20708   4.423   1.749   3.805 -0.5658  0.3399  0.0817
  181SLPC  C31220709   4.365   1.580   3.921 -0.4370  0.0016  0.0387
  181SLPC  H12X20710   4.471   1.553   3.940 -0.8854 -0.7465  1.6679
  181SLPC  H12Y20711   4.309   1.485   3.903 -0.4642  0.3848 -2.1907
  181SLPC  C31320712   4.320   1.662   4.042  0.1107 -0.3690  0.4745
  181SLPC  H13X20713   4.217   1.703   4.032  0.2887 -0.0525 -0.1186
  181SLPC  H13Y20714   4.384   1.752   4.051 -3.1971  2.1120  1.2382
  181SLPC  C31420715   4.318   1.586   4.172 -0.4073  0.4292  0.0353
  181SLPC  H14X20716   4.423   1.569   4.204 -1.1766 -0.7210  2.1422
  181SLPC  H14Y20717   4.259   1.493   4.160 -2.0520  1.3236  0.9574
  181SLPC  C31520718   4.256   1.666   4.283  0.4889  0.6267  0.0979
  181SLPC  H15X20719   4.284   1.772   4.269  1.4899  0.4458  0.6572
  181SLPC  H15Y20720   4.294   1.622   4.378 -0.0047 -0.1776 -0.0611
  181SLPC  C31620721   4.102   1.655   4.286  1.0749  0.5814 -0.2056
  181SLPC  H16X20722   4.080   1.546   4.286 -0.5996  0.8862 -1.1303
  181SLPC  H16Y20723   4.057   1.679   4.187  0.2473 -0.9707 -0.2367
  181SLPC  C31720724   4.037   1.720   4.403  0.7049 -0.1427 -0.3507
  181SLPC  H17X20725   4.043   1.827   4.376 -0.9876  0.4278  1.2565
  181SLPC  H17Y20726   4.096   1.713   4.497  0.1430  1.1712  0.1250
  181SLPC  C31820727   3.892   1.678   4.424  0.7854 -0.1422 -0.6929
  181SLPC  H18X20728   3.848   1.670   4.323  1.7172 -1.9072 -1.0015
  181SLPC  H18Y20729   3.841   1.749   4.492  1.4891  1.0791 -1.4085
  181SLPC  H18Z20730   3.902   1.576   4.468  2.9614  0.2124 -0.2526
  182SLPC     N20731   4.451   1.446   1.954  0.3810 -0.2418  0.1735
  182SLPC   C1320732   4.424   1.553   1.861 -0.6956 -0.2617  1.0168
  182SLPC  H13A20733   4.322   1.552   1.823  0.5731 -1.1625 -2.8099
  182SLPC  H13B20734   4.439   1.650   1.906 -0.2138  0.2494 -0.2033
  182SLPC  H13C20735   4.487   1.544   1.774 -2.1595 -1.3492  0.0089
  182SLPC   C1420736   4.400   1.315   1.906  0.2706  0.0289 -0.2357
  182SLPC  H14A20737   4.293   1.305   1.912  0.1407 -0.4771 -2.3461
  182SLPC  H14B20738   4.435   1.298   1.805  2.0056  0.5145  0.2490
  182SLPC  H14C20739   4.450   1.239   1.965 -0.8625 -2.0916 -1.8648
  182SLPC   C1520740   4.381   1.473   2.085  0.2025  0.6437  0.2511
  182SLPC  H15A20741   4.408   1.403   2.162  0.9616 -0.1957 -0.7503
  182SLPC  H15B20742   4.401   1.574   2.118 -1.8995  0.7098  1.4689
  182SLPC  H15C20743   4.275   1.482   2.067 -0.0425  1.1334  1.7534
  182SLPC   C1220744   4.604   1.445   1.962  0.0847 -0.0503 -0.7491
  182SLPC  H12A20745   4.634   1.542   1.998 -0.2524 -0.6817  1.3776
  182SLPC  H12B20746   4.639   1.428   1.861 -1.6909 -1.8663 -1.1350
  182SLPC   C1120747   4.672   1.335   2.060  0.2366 -0.3891  0.1257
  182SLPC  H11A20748   4.634   1.351   2.163 -0.1619  0.8844 -0.2018
  182SLPC  H11B20749   4.779   1.365   2.063 -0.0096  0.4275  1.5255
  182SLPC     P20750   4.720   1.084   2.105  0.1372  0.0200 -0.0934
  182SLPC   O1320751   4.705   0.958   2.027 -0.2519  0.0598 -0.3328
  182SLPC   O1420752   4.860   1.120   2.140 -0.2342  0.0166  0.4484
  182SLPC   O1220753   4.653   1.204   2.024  0.0788  0.1561  0.0058
  182SLPC   O1120754   4.636   1.066   2.238 -0.3209  0.1052 -0.0002
  182SLPC    C120755   4.672   1.145   2.350 -0.2410  0.1257  0.1596
  182SLPC    HA20756   4.721   1.242   2.327 -2.8875  1.6272  0.3606
  182SLPC    HB20757   4.580   1.178   2.405 -0.9552 -1.3181 -0.1172
  182SLPC    C220758   4.751   1.059   2.450 -0.2783 -0.4958 -0.3659
  182SLPC    HS20759   4.841   1.025   2.393  0.9854 -1.8510  2.2272
  182SLPC   O2120760   4.681   0.942   2.497 -0.2091  0.2445  0.0838
  182SLPC   C2120761   4.751   0.826   2.502  0.1906 -0.3189 -0.5606
  182SLPC   O2220762   4.859   0.804   2.451  0.9280  0.1228 -0.6517
  182SLPC   C2220763   4.674   0.717   2.583  0.0901 -0.0876 -0.2344
  182SLPC   H2R20764   4.586   0.691   2.520  0.1769  0.7307 -0.7002
  182SLPC   H2S20765   4.737   0.625   2.587 -3.0072 -2.3099  1.0601
  182SLPC    C320766   4.789   1.146   2.570  0.3928  0.5287 -0.4925
  182SLPC    HX20767   4.700   1.163   2.634 -0.5213  1.0821 -1.8619
  182SLPC    HY20768   4.817   1.251   2.545  0.1847  0.7458  0.1583
  182SLPC   O3120769   4.904   1.093   2.646  0.4830  0.0705 -0.4079
  182SLPC   C3120770   5.029   1.133   2.616 -0.0428 -0.0540  0.2091
  182SLPC   O3220771   5.059   1.197   2.518 -0.5269  0.1406  0.0611
  182SLPC   C3220772   5.124   1.077   2.722 -0.2265 -0.7039  0.2875
  182SLPC   H2X20773   5.228   1.097   2.687 -1.0481 -0.0388 -1.9578
  182SLPC   H2Y20774   5.109   0.968   2.731  1.1885 -0.8351  1.4242
  182SLPC   C2320775   4.617   0.756   2.727  0.5166 -0.2546  0.8132
  182SLPC   H3R20776   4.549   0.676   2.762 -1.3663  0.0984 -1.7393
  182SLPC   H3S20777   4.539   0.834   2.714  0.9208 -0.0028 -0.2281
  182SLPC   C2420778   4.717   0.788   2.835  0.3296  0.7511  0.0125
  182SLPC   H4R20779   4.776   0.879   2.809 -0.9452  0.9760 -2.2572
  182SLPC   H4S20780   4.791   0.706   2.842 -0.5440 -0.0922 -0.4655
  182SLPC   C2520781   4.652   0.798   2.975 -0.2726 -0.1499  0.4365
  182SLPC   H5R20782   4.591   0.707   2.989  0.1502 -0.8672 -1.9593
  182SLPC   H5S20783   4.577   0.878   2.960 -0.6401 -0.7480 -1.0666
  182SLPC   C2620784   4.759   0.823   3.082 -0.3317  1.1755  0.2469
  182SLPC   H6R20785   4.856   0.771   3.069 -0.0016  1.2471  2.1439
  182SLPC   H6S20786   4.720   0.792   3.181  1.4793  0.5984  0.8118
  182SLPC   C2720787   4.805   0.966   3.095 -0.2501  0.0023  0.3813
  182SLPC   H7R20788   4.849   0.993   2.997 -1.7634  1.6612  0.1001
  182SLPC   H7S20789   4.889   0.980   3.167 -2.8863  2.6220  3.2249
  182SLPC   C2820790   4.688   1.060   3.138 -0.1986 -0.7899 -1.0408
  182SLPC   H8R20791   4.641   1.020   3.230  0.1658 -0.5229 -0.7395
  182SLPC   H8S20792   4.613   1.062   3.056 -1.3648 -0.2507  0.0262
  182SLPC   C2920793   4.755   1.191   3.169  0.6735 -0.9629 -0.3865
  182SLPC   H9R20794   4.782   1.242   3.076  1.6110 -1.6581 -0.5126
  182SLPC  C21020795   4.778   1.249   3.290 -0.3490  0.4569  0.1413
  182SLPC  H10R20796   4.814   1.352   3.303 -1.1207  1.0008 -1.6876
  182SLPC  C21120797   4.750   1.180   3.422 -0.4336 -0.4639 -0.1524
  182SLPC  H11R20798   4.694   1.086   3.404 -1.1230  0.0915 -0.9856
  182SLPC  H11S20799   4.682   1.254   3.470 -1.6835 -1.0981 -0.9075
  182SLPC  C21220800   4.880   1.172   3.504 -0.0124  0.2904 -0.3474
  182SLPC  H12R20801   4.970   1.134   3.453  1.7171  2.8467  0.5844
  182SLPC  C21320802   4.912   1.209   3.628  0.2958 -0.1441  0.1752
  182SLPC  H13R20803   5.015   1.192   3.661  0.3268 -2.4912 -0.9428
  182SLPC  C21420804   4.812   1.264   3.726 -0.0286 -0.1631 -0.7294
  182SLPC  H14R20805   4.709   1.231   3.701 -0.0187 -0.2565 -0.6480
  182SLPC  H14S20806   4.826   1.374   3.725  1.1660 -0.2894 -0.0095
  182SLPC  C21520807   4.822   1.224   3.871 -0.1298 -0.3706 -0.7413
  182SLPC  H15R20808   4.925   1.244   3.909 -0.5963 -0.3643  0.5849
  182SLPC  H15S20809   4.804   1.114   3.878 -1.4438 -0.1888 -1.0660
  182SLPC  C21620810   4.719   1.299   3.961 -0.7057  0.1266  0.0091
  182SLPC  H16R20811   4.618   1.269   3.924  0.3693 -1.6173 -1.7436
  182SLPC  H16S20812   4.727   1.407   3.937 -1.7634  0.2511  0.1767
  182SLPC  C21720813   4.736   1.278   4.107  0.0850  0.3728 -0.0042
  182SLPC  H17R20814   4.843   1.291   4.134  0.2767 -0.1155 -0.5200
  182SLPC  H17S20815   4.718   1.172   4.136  2.9310 -0.8162 -2.2089
  182SLPC  C21820816   4.644   1.357   4.196  0.3098 -0.7264 -0.8501
  182SLPC  H18R20817   4.670   1.465   4.192 -1.1494 -0.2331  1.1101
  182SLPC  H18S20818   4.657   1.336   4.304  1.6095  3.6139  0.0337
  182SLPC  H18T20819   4.540   1.336   4.163 -0.8273 -0.4419  2.2068
  182SLPC   C3320820   5.093   1.132   2.864 -0.9501 -0.5638 -0.0553
  182SLPC   H3X20821   5.138   1.061   2.937  0.8063 -1.1368 -1.6078
  182SLPC   H3Y20822   4.983   1.124   2.876 -0.7162 -0.6544  2.8103
  182SLPC   C3420823   5.130   1.274   2.880  0.3758  0.5698 -0.5321
  182SLPC   H4X20824   5.068   1.338   2.815 -2.5575 -0.5323  1.0008
  182SLPC   H4Y20825   5.239   1.290   2.866  0.3071  0.7801 -0.8362
  182SLPC   C3520826   5.093   1.319   3.023 -0.3018 -0.5135 -0.3506
  182SLPC   H5X20827   4.992   1.279   3.045 -0.2138  0.0181  1.1993
  182SLPC   H5Y20828   5.087   1.430   3.027  0.0952 -0.5034  0.0743
  182SLPC   C3620829   5.191   1.277   3.133 -0.4943 -0.2211 -0.0060
  182SLPC   H6X20830   5.290   1.312   3.097 -0.2418 -0.3022  0.6047
  182SLPC   H6Y20831   5.193   1.167   3.141 -0.1618 -0.3048 -1.1637
  182SLPC   C3720832   5.150   1.340   3.268  0.6700  0.2910  0.4206
  182SLPC   H7X20833   5.066   1.280   3.310  1.1722 -0.5153  0.3086
  182SLPC   H7Y20834   5.123   1.446   3.251  0.4143 -0.1159 -2.1855
  182SLPC   C3820835   5.269   1.324   3.359 -0.0266 -0.0299  0.1516
  182SLPC   H8X20836   5.364   1.348   3.305 -0.3742 -1.5540 -1.2145
  182SLPC   H8Y20837   5.271   1.214   3.373 -1.9961 -0.3920 -1.7712
  182SLPC   C3920838   5.260   1.405   3.489 -0.4374  0.2341  0.3703
  182SLPC   H9X20839   5.172   1.384   3.554  1.5984 -1.2629  2.8561
  182SLPC   H9Y20840   5.256   1.510   3.454 -3.2819  0.0930 -0.0088
  182SLPC  C31020841   5.379   1.399   3.581  0.1400 -0.5114 -0.3383
  182SLPC  H10X20842   5.467   1.440   3.526 -1.5750  2.7580 -0.8907
  182SLPC  H10Y20843   5.406   1.294   3.605  4.6480  0.2547 -1.1490
  182SLPC  C31120844   5.353   1.481   3.704 -0.8669  0.0237 -0.4969
  182SLPC  H11X20845   5.316   1.580   3.669  1.9532  1.1070 -0.6749
  182SLPC  H11Y20846   5.454   1.508   3.743 -1.7907  2.3799  0.4731
  182SLPC  C31220847   5.278   1.419   3.820 -0.0701 -0.2367 -0.7908
  182SLPC  H12X20848   5.174   1.396   3.788  0.2410  0.2148 -2.2018
  182SLPC  H12Y20849   5.270   1.503   3.892  1.2321 -2.2133  1.8174
  182SLPC  C31320850   5.329   1.296   3.904 -0.1135 -0.8711 -0.5877
  182SLPC  H13X20851   5.426   1.334   3.946 -0.1895 -2.7446  1.4509
  182SLPC  H13Y20852   5.358   1.204   3.850 -1.0251 -0.4535 -1.8257
  182SLPC  C31420853   5.234   1.263   4.027 -0.0551 -0.7017  0.6136
  182SLPC  H14X20854   5.140   1.218   3.990 -0.6732 -0.3670  1.7466
  182SLPC  H14Y20855   5.207   1.357   4.080  1.4501  2.6295 -3.8878
  182SLPC  C31520856   5.322   1.183   4.130 -0.2339 -0.1379 -0.4275
  182SLPC  H15X20857   5.270   1.184   4.229  1.1274  2.2186  0.3349
  182SLPC  H15Y20858   5.410   1.244   4.157 -0.6542 -0.0152  0.7526
  182SLPC  C31620859   5.349   1.035   4.088  0.0642 -0.4630  0.8972
  182SLPC  H16X20860   5.410   1.028   3.996 -0.4319  0.3185  0.5060
  182SLPC  H16Y20861   5.259   0.971   4.072 -0.2474  0.2948 -0.5214
  182SLPC  C31720862   5.425   0.960   4.200 -0.6974 -0.2184 -0.0442
  182SLPC  H17X20863   5.389   1.001   4.297 -2.9574  2.4655 -1.8564
  182SLPC  H17Y20864   5.535   0.979   4.201 -0.6343 -0.5716  1.5371
  182SLPC  C31820865   5.408   0.803   4.209 -0.2898 -0.0137  0.4925
  182SLPC  H18X20866   5.305   0.786   4.248  0.2569  0.9469  2.4689
  182SLPC  H18Y20867   5.477   0.771   4.289  0.0920  0.4138  0.3410
  182SLPC  H18Z20868   5.425   0.748   4.114 -1.5701 -0.9805  0.7886
  183SLPC     N20869   0.865   3.271   1.789  0.5592  0.0721 -0.1437
  183SLPC   C1320870   0.753   3.224   1.695 -0.3050 -0.2140  0.0736
  183SLPC  H13A20871   0.660   3.228   1.750 -1.2504  0.2930 -1.5042
  183SLPC  H13B20872   0.734   3.294   1.615 -1.0028 -0.5895 -0.0977
  183SLPC  H13C20873   0.790   3.129   1.660 -2.1449  0.0099 -2.7011
  183SLPC   C1420874   0.816   3.408   1.826  0.2382 -0.1110  0.0276
  183SLPC  H14A20875   0.727   3.400   1.886 -0.4178 -0.2407 -0.9586
  183SLPC  H14B20876   0.892   3.447   1.892 -0.1492 -1.2049  1.1687
  183SLPC  H14C20877   0.818   3.481   1.747  0.4264 -0.4147 -0.2496
  183SLPC   C1520878   0.995   3.276   1.723 -0.1279 -0.3488  0.2970
  183SLPC  H15A20879   0.990   3.357   1.651  1.0176 -1.4334 -1.0510
  183SLPC  H15B20880   1.075   3.299   1.791  0.0754  0.3067 -0.1520
  183SLPC  H15C20881   1.017   3.183   1.673  0.3201 -0.0513 -0.0693
  183SLPC   C1220882   0.868   3.178   1.911  0.4694 -0.2790  0.2811
  183SLPC  H12A20883   0.906   3.087   1.867 -0.9865 -0.3102 -1.0175
  183SLPC  H12B20884   0.768   3.162   1.949 -0.3813  0.8263 -1.3390
  183SLPC   C1120885   0.964   3.213   2.029  1.3745 -0.0807 -0.2649
  183SLPC  H11A20886   0.930   3.160   2.121 -1.7334  2.0035 -0.0602
  183SLPC  H11B20887   0.961   3.318   2.065  0.6142 -0.5516  1.1115
  183SLPC     P20888   1.171   3.053   2.039 -0.6167 -0.3825  0.5754
  183SLPC   O1320889   1.104   2.930   1.993 -1.1601  0.1839 -0.0881
  183SLPC   O1420890   1.313   3.068   2.003  0.3352 -0.4319 -0.4787
  183SLPC   O1220891   1.092   3.176   1.989 -0.4899 -0.3581  0.6144
  183SLPC   O1120892   1.155   3.065   2.193 -0.4897 -0.1126 -0.7111
  183SLPC    C120893   1.266   3.082   2.285 -0.4229  0.4602  0.1120
  183SLPC    HA20894   1.233   3.065   2.389 -0.8895  2.2236  0.3002
  183SLPC    HB20895   1.339   2.999   2.279 -1.4041 -0.7637  3.3590
  183SLPC    C220896   1.331   3.218   2.289 -0.0705 -0.5870 -0.0526
  183SLPC    HS20897   1.373   3.230   2.186 -1.0764  0.2329 -0.3892
  183SLPC   O2120898   1.440   3.219   2.384  0.2984 -0.4995 -0.4514
  183SLPC   C2120899   1.537   3.307   2.375  0.3102 -0.1530  0.1015
  183SLPC   O2220900   1.544   3.399   2.302  0.0347 -0.1541  0.4379
  183SLPC   C2220901   1.638   3.272   2.484  0.5527 -0.0137  0.7440
  183SLPC   H2R20902   1.642   3.163   2.505 -1.1580 -0.3429 -0.4586
  183SLPC   H2S20903   1.738   3.295   2.441  0.4680  0.3237  0.7224
  183SLPC    C320904   1.235   3.335   2.319  0.3207  0.2921 -0.7192
  183SLPC    HX20905   1.163   3.337   2.235 -0.9869 -3.4048  0.1396
  183SLPC    HY20906   1.296   3.428   2.313  1.7607 -0.6344 -0.8280
  183SLPC   O3120907   1.175   3.313   2.442 -0.4789 -0.1624 -0.0137
  183SLPC   C3120908   1.051   3.342   2.456  0.6219  0.3473 -0.0492
  183SLPC   O3220909   0.974   3.376   2.368 -0.5684  0.0175  0.2124
  183SLPC   C3220910   1.018   3.330   2.600  0.3128 -0.0739 -0.3360
  183SLPC   H2X20911   1.085   3.397   2.659  0.4600  0.1668 -0.7751
  183SLPC   H2Y20912   1.037   3.225   2.631 -2.1384 -0.5629 -0.3130
  183SLPC   C2320913   1.602   3.342   2.612  0.5128 -0.2981 -0.8505
  183SLPC   H3R20914   1.518   3.283   2.656  0.0543  0.4699 -0.6712
  183SLPC   H3S20915   1.563   3.446   2.610  1.0669 -0.0842 -0.6497
  183SLPC   C2420916   1.718   3.360   2.713 -0.0736 -0.3523  0.4387
  183SLPC   H4R20917   1.798   3.433   2.687  0.8521 -0.9331  1.5618
  183SLPC   H4S20918   1.777   3.266   2.722  2.0604  0.9193  0.3498
  183SLPC   C2520919   1.668   3.397   2.854  0.0622  0.6234 -0.1262
  183SLPC   H5R20920   1.584   3.330   2.884 -0.6522  0.8946 -1.4336
  183SLPC   H5S20921   1.629   3.501   2.855 -0.1582  0.5556  1.8020
  183SLPC   C2620922   1.778   3.383   2.963 -0.5638  0.1737  0.1974
  183SLPC   H6R20923   1.861   3.455   2.947 -0.6056  0.5661  1.5714
  183SLPC   H6S20924   1.814   3.278   2.957  2.1723  1.1113 -1.4882
  183SLPC   C2720925   1.704   3.410   3.098 -0.0248 -0.2454  0.7695
  183SLPC   H7R20926   1.602   3.367   3.091  0.3093 -0.9894  0.3273
  183SLPC   H7S20927   1.696   3.520   3.084  1.3296 -0.1171  0.8393
  183SLPC   C2820928   1.778   3.378   3.227  0.6914 -0.7401  0.4565
  183SLPC   H8R20929   1.879   3.425   3.224 -1.0247  3.4122  1.2432
  183SLPC   H8S20930   1.787   3.268   3.243  0.0524 -0.8984 -0.2584
  183SLPC   C2920931   1.699   3.440   3.340  0.4926 -0.0651 -0.2059
  183SLPC   H9R20932   1.606   3.494   3.315  0.0507 -1.2523 -1.2368
  183SLPC  C21020933   1.739   3.449   3.469  0.0991 -0.7678 -0.1053
  183SLPC  H10R20934   1.673   3.497   3.543 -0.3003 -0.1746 -0.8348
  183SLPC  C21120935   1.856   3.379   3.526 -0.1738 -0.5387 -0.0262
  183SLPC  H11R20936   1.886   3.438   3.615 -1.4909 -1.0594  0.7885
  183SLPC  H11S20937   1.942   3.384   3.455  0.4749 -0.4602  0.7539
  183SLPC  C21220938   1.811   3.234   3.559 -0.5232 -0.1258 -0.4438
  183SLPC  H12R20939   1.803   3.160   3.478 -1.5469 -0.5616  0.0336
  183SLPC  C21320940   1.763   3.200   3.685 -0.7341  0.0646  0.6506
  183SLPC  H13R20941   1.709   3.105   3.699 -2.5542  0.8919 -0.3094
  183SLPC  C21420942   1.765   3.300   3.805  1.0143 -0.2651  0.6143
  183SLPC  H14R20943   1.706   3.393   3.793  0.2285 -0.1572  4.1490
  183SLPC  H14S20944   1.871   3.329   3.819  0.7526  1.4994 -0.7394
  183SLPC  C21520945   1.715   3.227   3.931  0.5595  0.0616 -0.7417
  183SLPC  H15R20946   1.796   3.159   3.964  0.4591  1.6391  3.4617
  183SLPC  H15S20947   1.619   3.171   3.925  0.1341  0.9067 -2.6074
  183SLPC  C21620948   1.687   3.316   4.047 -0.0952 -0.3401  0.1704
  183SLPC  H16R20949   1.597   3.374   4.017 -0.2580 -0.4216  0.5026
  183SLPC  H16S20950   1.773   3.385   4.058 -0.5065 -0.0333  1.5954
  183SLPC  C21720951   1.660   3.258   4.191  0.1006 -0.5234 -0.2496
  183SLPC  H17R20952   1.755   3.208   4.221 -0.2008 -1.9833 -1.6201
  183SLPC  H17S20953   1.584   3.177   4.198  0.6018 -0.9991 -0.2698
  183SLPC  C21820954   1.625   3.376   4.286 -0.7729 -0.1486 -0.1043
  183SLPC  H18R20955   1.541   3.438   4.247  1.3452  3.2183  0.2982
  183SLPC  H18S20956   1.709   3.448   4.282 -1.6596  0.8678 -1.3082
  183SLPC  H18T20957   1.615   3.349   4.394 -3.4770 -1.6147 -0.6443
  183SLPC   C3320958   0.873   3.355   2.629  0.5185 -0.4041 -0.1477
  183SLPC   H3X20959   0.809   3.285   2.572 -1.7056  1.3530  0.0314
  183SLPC   H3Y20960   0.843   3.452   2.583 -1.8275 -0.5113  1.0441
  183SLPC   C3420961   0.838   3.359   2.782  0.1332 -0.0680 -0.0167
  183SLPC   H4X20962   0.728   3.377   2.781  0.1597  0.1277  0.4817
  183SLPC   H4Y20963   0.891   3.449   2.821 -1.3771  1.2111 -0.7689
  183SLPC   C3520964   0.865   3.236   2.862  0.6468 -0.0184 -0.1624
  183SLPC   H5X20965   0.971   3.208   2.844  0.3085  0.5550 -3.8710
  183SLPC   H5Y20966   0.794   3.168   2.810 -0.4182 -0.2889  1.5689
  183SLPC   C3620967   0.844   3.250   3.011 -0.4212  0.2937  0.3835
  183SLPC   H6X20968   0.750   3.293   3.051  0.2846  0.3877  2.0154
  183SLPC   H6Y20969   0.929   3.313   3.046 -1.0702  1.0034  0.7145
  183SLPC   C3720970   0.873   3.124   3.085 -0.3675  0.0723 -0.1855
  183SLPC   H7X20971   0.971   3.080   3.059 -1.1364 -2.1149  0.3761
  183SLPC   H7Y20972   0.793   3.050   3.064  0.5872 -0.8498 -0.6810
  183SLPC   C3820973   0.883   3.146   3.233 -0.2112 -0.4958  0.0004
  183SLPC   H8X20974   0.796   3.202   3.273 -0.2395  1.3005 -2.3740
  183SLPC   H8Y20975   0.980   3.197   3.249  0.0162 -0.7057 -0.6941
  183SLPC   C3920976   0.890   3.005   3.300 -0.4861 -0.2772  0.7637
  183SLPC   H9X20977   0.989   2.960   3.276 -0.0694 -0.2581  2.3263
  183SLPC   H9Y20978   0.815   2.932   3.262 -0.1659  0.9882 -2.5125
  183SLPC  C31020979   0.882   3.025   3.453 -0.0105  0.5752 -0.0192
  183SLPC  H10X20980   0.784   3.074   3.473  0.2373  0.6319  1.1339
  183SLPC  H10Y20981   0.952   3.104   3.488  1.0174 -0.4635  0.3194
  183SLPC  C31120982   0.896   2.901   3.538 -0.0423  0.0496 -0.1795
  183SLPC  H11X20983   0.996   2.865   3.508 -0.2661 -0.4663 -0.3156
  183SLPC  H11Y20984   0.827   2.818   3.513  1.0996 -0.8247 -0.4682
  183SLPC  C31220985   0.880   2.940   3.686 -0.0468  0.4060  0.0190
  183SLPC  H12X20986   0.771   2.956   3.700 -0.1209  1.5968 -1.6852
  183SLPC  H12Y20987   0.940   3.030   3.709  0.9856 -0.1124 -0.5575
  183SLPC  C31320988   0.904   2.824   3.786  0.0080  0.1044  0.2425
  183SLPC  H13X20989   0.862   2.727   3.753  0.8772 -0.2214  0.0613
  183SLPC  H13Y20990   0.845   2.847   3.877  2.1291  0.5854  1.5774
  183SLPC  C31420991   1.050   2.801   3.833  0.8858  0.4441  0.4355
  183SLPC  H14X20992   1.069   2.893   3.891  0.0895  2.5568 -2.3859
  183SLPC  H14Y20993   1.103   2.815   3.736 -0.9398  2.4561 -0.3564
  183SLPC  C31520994   1.079   2.673   3.914 -0.0966 -0.1686  0.9311
  183SLPC  H15X20995   1.028   2.581   3.877  0.5123 -0.3444  0.5176
  183SLPC  H15Y20996   1.043   2.697   4.017 -2.4293 -0.1067  0.1536
  183SLPC  C31620997   1.231   2.636   3.912  0.6235  0.8052  0.2270
  183SLPC  H16X20998   1.264   2.599   3.813 -1.2688 -0.7238  0.1194
  183SLPC  H16Y20999   1.257   2.555   3.985 -0.6152  0.9020  0.7941
  183SLPC  C31721000   1.317   2.760   3.951  0.1317 -0.2365  0.0848
  183SLPC  H17X21001   1.289   2.848   3.890 -1.3760 -0.4009  0.4972
  183SLPC  H17Y21002   1.420   2.723   3.931  0.3145  1.2072 -1.8369
  183SLPC  C31821003   1.309   2.794   4.098 -0.3217  0.3119 -0.0786
  183SLPC  H18X21004   1.332   2.707   4.164 -4.5539  0.0381  1.3580
  183SLPC  H18Y21005   1.208   2.830   4.127 -0.2877 -0.9269  1.7453
  183SLPC  H18Z21006   1.381   2.877   4.117 -0.0894  0.0388  0.2507
  184SLPC     N21007   2.428   2.193   1.574  0.1709 -0.4026  0.0152
  184SLPC   C1321008   2.503   2.315   1.534 -0.0539  0.6479  0.6337
  184SLPC  H13A21009   2.498   2.342   1.430  0.3567  2.5796  1.0750
  184SLPC  H13B21010   2.476   2.400   1.595 -0.2244  2.5543 -1.9339
  184SLPC  H13C21011   2.604   2.289   1.562 -1.0910 -2.4306  1.9557
  184SLPC   C1421012   2.477   2.076   1.487 -0.3240 -0.0696 -0.0865
  184SLPC  H14A21013   2.495   2.110   1.387  0.6936  2.5229  0.8871
  184SLPC  H14B21014   2.572   2.047   1.529 -0.1167 -0.1082 -0.5808
  184SLPC  H14C21015   2.410   1.991   1.487 -0.3309 -0.0625 -0.4614
  184SLPC   C1521016   2.282   2.216   1.543 -0.7912  0.1133  0.6803
  184SLPC  H15A21017   2.255   2.315   1.574 -0.1359  1.1355 -1.7768
  184SLPC  H15B21018   2.277   2.227   1.436 -1.8496  0.5680  0.7638
  184SLPC  H15C21019   2.218   2.130   1.560  1.6914 -1.9832  0.1914
  184SLPC   C1221020   2.451   2.159   1.718  0.1283  0.1791 -0.3063
  184SLPC  H12A21021   2.548   2.116   1.741  0.7233  1.8785  0.6095
  184SLPC  H12B21022   2.382   2.082   1.749  1.8170 -1.2175  0.1451
  184SLPC   C1121023   2.442   2.262   1.838 -0.2069  0.4828  0.1039
  184SLPC  H11A21024   2.530   2.328   1.830  0.8746 -0.8481  0.7570
  184SLPC  H11B21025   2.455   2.209   1.934  0.7239  0.9641  0.2460
  184SLPC     P21026   2.183   2.280   1.896 -0.1157 -0.4190  0.1771
  184SLPC   O1321027   2.078   2.347   1.828 -0.3183 -0.1533  0.6772
  184SLPC   O1421028   2.189   2.132   1.896  1.1152  0.2031  0.4528
  184SLPC   O1221029   2.321   2.341   1.838  0.3871  0.2641  0.3461
  184SLPC   O1121030   2.180   2.319   2.048  0.2932 -0.0181  0.5839
  184SLPC    C121031   2.240   2.442   2.103  0.2539  0.8986  0.6169
  184SLPC    HA21032   2.346   2.455   2.070  0.4695 -1.7681  0.0780
  184SLPC    HB21033   2.182   2.537   2.096 -1.5099  0.0892  2.9507
  184SLPC    C221034   2.241   2.423   2.258  0.6431  0.3968 -0.1739
  184SLPC    HS21035   2.136   2.432   2.293  0.8967  0.3286  0.6096
  184SLPC   O2121036   2.323   2.523   2.329 -0.0786 -0.2017 -0.9244
  184SLPC   C2121037   2.276   2.644   2.351  0.0960  0.2744 -0.2161
  184SLPC   O2221038   2.160   2.692   2.339 -0.2543 -0.2698 -0.8579
  184SLPC   C2221039   2.395   2.703   2.433  0.4318 -0.1985  0.2121
  184SLPC   H2R21040   2.490   2.697   2.376  0.2046  2.5560 -0.5691
  184SLPC   H2S21041   2.355   2.806   2.440  1.9656  0.5101 -0.9450
  184SLPC    C321042   2.294   2.280   2.297 -0.1304  0.1153 -0.6909
  184SLPC    HX21043   2.405   2.280   2.285 -0.0138  2.2223 -0.0390
  184SLPC    HY21044   2.254   2.208   2.223  0.2969 -0.2264 -0.5923
  184SLPC   O3121045   2.247   2.235   2.424 -0.1865 -0.3832 -0.2134
  184SLPC   C3121046   2.337   2.238   2.520  0.2699 -0.1529  1.3041
  184SLPC   O3221047   2.454   2.270   2.503  0.3218 -0.2126 -0.6221
  184SLPC   C3221048   2.275   2.217   2.660 -1.3661 -0.4407 -0.5047
  184SLPC   H2X21049   2.262   2.109   2.682 -0.7218 -0.0509  2.0790
  184SLPC   H2Y21050   2.171   2.257   2.658 -0.6718  1.4383 -0.9964
  184SLPC   C2321051   2.395   2.635   2.577 -0.2182  0.5110  0.0535
  184SLPC   H3R21052   2.447   2.537   2.571 -2.4961 -0.8067  0.5882
  184SLPC   H3S21053   2.296   2.614   2.623 -1.3734 -0.7035 -2.7621
  184SLPC   C2421054   2.487   2.717   2.686 -0.2053  0.1021  0.5297
  184SLPC   H4R21055   2.458   2.824   2.676  1.9790  0.6550 -0.2783
  184SLPC   H4S21056   2.591   2.699   2.654  0.3015  0.4466  1.9050
  184SLPC   C2521057   2.456   2.674   2.832 -0.1289  0.7150  0.2457
  184SLPC   H5R21058   2.486   2.567   2.837  0.0268  0.7830  0.7806
  184SLPC   H5S21059   2.347   2.670   2.856  0.1565 -1.9067  1.5118
  184SLPC   C2621060   2.528   2.773   2.930  1.1490 -0.4847 -0.7417
  184SLPC   H6R21061   2.477   2.871   2.934  1.5565 -0.3244  1.1680
  184SLPC   H6S21062   2.637   2.788   2.911  0.9634  1.5563 -0.4466
  184SLPC   C2721063   2.526   2.725   3.081  0.4496  0.0078 -0.4321
  184SLPC   H7R21064   2.602   2.784   3.137  1.5780 -1.2356 -0.6029
  184SLPC   H7S21065   2.566   2.621   3.079  0.1160 -0.1218 -0.5170
  184SLPC   C2821066   2.385   2.736   3.152  0.8757  0.0059  0.6286
  184SLPC   H8R21067   2.307   2.696   3.084  0.7820  0.2902  0.5644
  184SLPC   H8S21068   2.372   2.846   3.161  1.5030  0.0404  1.2134
  184SLPC   C2921069   2.370   2.665   3.283 -0.0167 -0.0874 -0.4836
  184SLPC   H9R21070   2.356   2.556   3.278  0.6158 -0.4435  3.0915
  184SLPC  C21021071   2.374   2.721   3.411 -0.0880  0.9277 -0.3231
  184SLPC  H10R21072   2.345   2.659   3.497  0.9166 -0.6015 -1.0454
  184SLPC  C21121073   2.387   2.871   3.436 -0.1806  0.1753 -0.2430
  184SLPC  H11R21074   2.446   2.912   3.351 -0.9404 -0.2159 -0.9679
  184SLPC  H11S21075   2.455   2.890   3.522 -1.0722  2.3297  0.0614
  184SLPC  C21221076   2.265   2.944   3.439 -0.5320 -0.7057  0.7975
  184SLPC  H12R21077   2.207   2.909   3.352 -0.9222 -1.3091  1.2923
  184SLPC  C21321078   2.223   3.031   3.529 -0.1645 -0.7060  0.1420
  184SLPC  H13R21079   2.126   3.081   3.517 -0.0018 -0.1291  1.1074
  184SLPC  C21421080   2.299   3.069   3.658 -0.2923  0.2916 -0.1186
  184SLPC  H14R21081   2.281   3.172   3.696 -0.7567  0.0023  0.4664
  184SLPC  H14S21082   2.409   3.056   3.656 -0.3623 -0.4513  0.3917
  184SLPC  C21521083   2.250   2.991   3.782  0.0654  0.2658  0.2858
  184SLPC  H15R21084   2.261   2.881   3.771 -2.3781  0.1159 -1.6224
  184SLPC  H15S21085   2.144   3.015   3.807  0.6965  3.2865  0.4093
  184SLPC  C21621086   2.341   3.032   3.903 -0.6228 -0.1627  1.2951
  184SLPC  H16R21087   2.347   3.143   3.905  0.0888 -0.2066  1.7779
  184SLPC  H16S21088   2.442   2.993   3.878 -0.7575 -1.1856  2.2795
  184SLPC  C21721089   2.295   2.972   4.033 -0.3457 -0.2255  0.3459
  184SLPC  H17R21090   2.380   2.991   4.102 -0.8080  2.5774  0.2591
  184SLPC  H17S21091   2.286   2.862   4.018 -1.0143 -0.4556  2.1854
  184SLPC  C21821092   2.165   3.027   4.085 -0.3349 -0.4890 -0.2368
  184SLPC  H18R21093   2.184   3.136   4.100  2.3774 -0.4568 -2.7589
  184SLPC  H18S21094   2.148   2.977   4.182  2.7264 -0.3736  0.4618
  184SLPC  H18T21095   2.085   3.004   4.012  0.6047  0.4152 -1.5978
  184SLPC   C3321096   2.356   2.277   2.772 -0.2396 -0.2492 -0.8634
  184SLPC   H3X21097   2.355   2.388   2.780  2.3765 -0.2778  0.7107
  184SLPC   H3Y21098   2.465   2.261   2.758 -0.2348 -0.7278 -0.2842
  184SLPC   C3421099   2.307   2.228   2.907 -0.3466 -0.0723 -0.0172
  184SLPC   H4X21100   2.315   2.118   2.910  0.6234 -0.0653 -1.3433
  184SLPC   H4Y21101   2.198   2.246   2.911 -0.6344 -1.1941 -1.6685
  184SLPC   C3521102   2.380   2.294   3.027 -0.2184 -0.0728  0.6152
  184SLPC   H5X21103   2.315   2.272   3.115  0.1635  2.4290  1.6115
  184SLPC   H5Y21104   2.380   2.405   3.026  1.5797 -0.0270  1.6899
  184SLPC   C3621105   2.522   2.248   3.052  0.3584  0.3217  0.2500
  184SLPC   H6X21106   2.583   2.260   2.960  0.6933  1.8755  0.6471
  184SLPC   H6Y21107   2.512   2.137   3.060  0.8001  0.2846  0.3417
  184SLPC   C3721108   2.583   2.316   3.175  0.0083  0.0168 -0.0042
  184SLPC   H7X21109   2.581   2.425   3.155 -1.8588 -0.2071 -1.2821
  184SLPC   H7Y21110   2.690   2.286   3.182  0.5593  2.0511  1.1011
  184SLPC   C3821111   2.517   2.287   3.311  1.0374 -0.0596  0.4457
  184SLPC   H8X21112   2.531   2.179   3.332 -0.8038 -0.7002 -1.4067
  184SLPC   H8Y21113   2.406   2.292   3.307  0.9361  0.3378  2.4127
  184SLPC   C3921114   2.577   2.369   3.425 -0.1387  0.4222 -0.3058
  184SLPC   H9X21115   2.600   2.476   3.404  4.3781  0.3505  2.7771
  184SLPC   H9Y21116   2.675   2.326   3.454 -1.2415 -0.7284  1.9797
  184SLPC  C31021117   2.492   2.355   3.554 -0.2485 -0.4343  0.1856
  184SLPC  H10X21118   2.467   2.252   3.586  1.5090 -0.8990  0.1933
  184SLPC  H10Y21119   2.400   2.414   3.538  0.3405  0.4571  0.0326
  184SLPC  C31121120   2.544   2.441   3.672  0.0128 -0.4628  0.3891
  184SLPC  H11X21121   2.605   2.525   3.632 -0.0408 -0.4195  0.3978
  184SLPC  H11Y21122   2.618   2.369   3.714 -0.3332 -0.1476  1.5724
  184SLPC  C31221123   2.439   2.472   3.778  0.0888 -0.3538 -0.0859
  184SLPC  H12X21124   2.390   2.374   3.795 -0.0794 -0.2346  0.1265
  184SLPC  H12Y21125   2.364   2.535   3.726  1.7470 -0.3653 -2.6705
  184SLPC  C31321126   2.498   2.526   3.905 -0.0751  0.6847 -0.3288
  184SLPC  H13X21127   2.606   2.501   3.920 -0.5875 -1.0860  0.6721
  184SLPC  H13Y21128   2.439   2.487   3.990  0.4961  1.2202  0.3359
  184SLPC  C31421129   2.499   2.678   3.919 -0.0503 -0.4215  0.6014
  184SLPC  H14X21130   2.390   2.698   3.933 -0.2514  0.8897 -2.2189
  184SLPC  H14Y21131   2.540   2.727   3.828 -0.5218 -1.9864 -0.4971
  184SLPC  C31521132   2.577   2.727   4.038 -0.5389  0.2113 -0.2854
  184SLPC  H15X21133   2.576   2.838   4.040 -1.1444  0.2289  2.2870
  184SLPC  H15Y21134   2.679   2.688   4.018 -0.0773  0.6858  1.0218
  184SLPC  C31621135   2.537   2.675   4.176 -0.2507 -0.5912 -0.0719
  184SLPC  H16X21136   2.545   2.564   4.170  0.7145 -0.5591  0.4884
  184SLPC  H16Y21137   2.440   2.701   4.224  0.5168  1.2272  0.5663
  184SLPC  C31721138   2.650   2.712   4.273  0.2806  0.5898 -0.1882
  184SLPC  H17X21139   2.593   2.705   4.368 -1.2026 -4.8376 -1.1573
  184SLPC  H17Y21140   2.667   2.821   4.259 -1.0825  0.9614  0.8662
  184SLPC  C31821141   2.781   2.636   4.264 -0.1981 -0.3658  0.0278
  184SLPC  H18X21142   2.840   2.651   4.171  0.0924 -1.1170  0.0837
  184SLPC  H18Y21143   2.753   2.530   4.282  0.6959 -1.0142 -2.0302
  184SLPC  H18Z21144   2.843   2.666   4.351 -0.3239 -1.3540  0.4728
  185POPC     N21145   5.702   6.175   6.445  0.1857  0.6207 -0.8154
  185POPC   C1221146   5.786   6.115   6.328 -0.1158  0.1106 -0.5555
  185POPC  H12A21147   5.884   6.091   6.367 -1.0654 -2.7121  0.3810
  185POPC  H12B21148   5.805   6.194   6.257 -1.6017  0.9405 -0.0648
  185POPC   C1321149   5.578   6.243   6.391 -0.1017 -0.2709 -0.2376
  185POPC  H13A21150   5.513   6.292   6.462 -0.2864  0.7315 -1.0640
  185POPC  H13B21151   5.594   6.314   6.311  0.5406 -1.3852 -1.1199
  185POPC  H13C21152   5.508   6.177   6.342 -2.4819  2.3240 -0.6403
  185POPC   C1421153   5.657   6.056   6.526  0.3950  0.2891  0.0557
  185POPC  H14A21154   5.573   6.011   6.474  0.2251  1.0314 -0.3290
  185POPC  H14B21155   5.736   5.983   6.540  0.3334  0.0192 -0.8955
  185POPC  H14C21156   5.618   6.085   6.622  3.4513 -1.5668  2.0136
  185POPC   C1521157   5.784   6.261   6.540 -0.7309  0.6121 -0.6831
  185POPC  H15A21158   5.871   6.208   6.574 -1.9311 -1.1870 -0.2324
  185POPC  H15B21159   5.725   6.310   6.616  1.0766  0.8381  0.6346
  185POPC  H15C21160   5.824   6.346   6.486 -0.7951  1.1464  0.0970
  185POPC   C1121161   5.736   5.989   6.260 -0.3393 -0.1116  0.1258
  185POPC  H11A21162   5.777   5.993   6.157  0.7763 -1.0280  0.5159
  185POPC  H11B21163   5.627   6.007   6.244 -0.2801  3.7718  2.7853
  185POPC     P21164   5.869   5.762   6.308  0.0795 -0.3674  0.4628
  185POPC   O1321165   5.794   5.640   6.291  0.5099  0.1995 -0.4291
  185POPC   O1421166   5.970   5.756   6.414 -0.1225  0.1730 -0.1349
  185POPC   O1221167   5.770   5.880   6.343  0.3843  0.2991  0.6385
  185POPC   O1121168   5.927   5.808   6.172  0.0834  0.4141  0.7284
  185POPC    C121169   6.003   5.723   6.079  0.2983  0.3813 -0.3512
  185POPC    HA21170   6.025   5.621   6.118  1.3515  1.4808  2.1049
  185POPC    HB21171   6.106   5.764   6.068 -0.0962  1.4466 -0.1653
  185POPC    C221172   5.939   5.713   5.937 -0.2067  0.7475  0.6451
  185POPC    HS21173   5.888   5.614   5.939  1.4748 -0.1467  1.7382
  185POPC   O2121174   6.047   5.720   5.840  0.1057  0.0490 -0.5044
  185POPC   C2121175   6.081   5.602   5.790  0.0289 -0.3329  0.2914
  185POPC   O2221176   6.029   5.496   5.809  0.0832  0.6697 -0.0503
  185POPC   C2221177   6.208   5.627   5.719 -0.5842  0.2878  0.0411
  185POPC   H2R21178   6.260   5.528   5.718 -0.2419  0.4635  0.2175
  185POPC   H2S21179   6.270   5.695   5.781  1.4842 -0.8331 -0.6967
  185POPC    C321180   5.847   5.832   5.906  0.1140  0.8131  0.2064
  185POPC    HX21181   5.905   5.922   5.937  1.4712  0.5556 -1.4182
  185POPC    HY21182   5.759   5.817   5.971  0.5094 -0.2571  0.5090
  185POPC   O3121183   5.813   5.840   5.765 -0.5192  0.0448 -0.3498
  185POPC   C3121184   5.762   5.956   5.731  0.6594 -0.1309  0.8220
  185POPC   O3221185   5.731   6.045   5.813 -0.6635  0.3225  0.4115
  185POPC   C3221186   5.738   5.971   5.582 -0.3070 -0.9527  0.3072
  185POPC   H2X21187   5.635   5.935   5.562 -0.7627  0.5581 -0.1770
  185POPC   H2Y21188   5.807   5.910   5.521 -0.1091 -0.5846  0.1589
  185POPC   C2321189   6.200   5.696   5.574  1.1509  0.3791 -0.5570
  185POPC   H3R21190   6.306   5.716   5.549  0.9916 -0.5719 -2.1025
  185POPC   H3S21191   6.157   5.798   5.585  1.2385  0.2468  1.2692
  185POPC   C2421192   6.119   5.604   5.476 -0.2793  0.2065 -0.0935
  185POPC   H4R21193   6.011   5.611   5.501 -0.4304  0.6561 -0.8295
  185POPC   H4S21194   6.153   5.498   5.477 -0.8614  0.0104  1.5781
  185POPC   C2521195   6.138   5.642   5.326 -0.0336 -0.3247  0.2288
  185POPC   H5R21196   6.246   5.639   5.299 -0.2436  0.9465 -0.9009
  185POPC   H5S21197   6.101   5.745   5.304  1.1557 -0.0895 -0.8331
  185POPC   C2621198   6.067   5.547   5.232  0.2407 -0.9124  0.1158
  185POPC   H6R21199   5.958   5.568   5.237  0.3064 -0.8872  2.0625
  185POPC   H6S21200   6.087   5.447   5.276  1.7294 -0.9180 -0.5051
  185POPC   C2721201   6.122   5.564   5.089 -0.7536  0.5172 -0.3221
  185POPC   H7R21202   6.090   5.477   5.028  1.0899 -1.3792  1.2738
  185POPC   H7S21203   6.233   5.556   5.089 -0.8079 -0.3700  0.5444
  185POPC   C2821204   6.077   5.698   5.016  0.1359  0.2397  0.3074
  185POPC   H8R21205   6.128   5.710   4.918  0.2842  2.1694  0.5922
  185POPC   H8S21206   6.119   5.788   5.065 -0.2905 -0.3172  1.7233
  185POPC   C2921207   5.925   5.702   4.994 -0.4464  0.1061 -0.1710
  185POPC   H9121208   5.893   5.609   4.944  2.7186  0.2558 -2.8565
  185POPC  C21021209   5.839   5.795   5.033 -0.8018  0.4812 -0.2555
  185POPC  H10121210   5.731   5.781   5.014 -0.6734  0.5862 -1.1362
  185POPC  C21121211   5.888   5.926   5.086 -0.1435  0.1530 -0.0054
  185POPC  H11R21212   5.980   5.964   5.036  0.3179  0.6276  1.1563
  185POPC  H11S21213   5.917   5.922   5.194 -2.8220 -0.2118  0.7722
  185POPC  C21221214   5.767   6.018   5.071  0.1689 -0.3011 -0.2053
  185POPC  H12R21215   5.818   6.109   5.108  2.3708 -1.4328 -0.2910
  185POPC  H12S21216   5.678   5.976   5.122  0.2422 -2.7649 -1.9115
  185POPC  C21321217   5.737   6.042   4.927  0.2752  0.4014 -0.2242
  185POPC  H13R21218   5.695   5.951   4.879  1.4399  0.8011 -2.1358
  185POPC  H13S21219   5.828   6.071   4.871  0.7713  0.1779  0.4591
  185POPC  C21421220   5.638   6.153   4.899  0.4833  0.6318  0.4181
  185POPC  H14R21221   5.653   6.242   4.963  0.5673 -0.0506  1.3593
  185POPC  H14S21222   5.536   6.116   4.923  0.8212 -1.0970 -0.6523
  185POPC  C21521223   5.644   6.183   4.751 -0.4285  0.4284 -0.1621
  185POPC  H15R21224   5.647   6.088   4.694 -1.2540 -0.7951  1.7120
  185POPC  H15S21225   5.743   6.229   4.730 -0.1042  0.1867  0.7841
  185POPC  C21621226   5.531   6.274   4.692  0.3691 -0.3988  0.1333
  185POPC  H16R21227   5.518   6.363   4.757  1.3199  0.1685 -0.4454
  185POPC  H16S21228   5.437   6.214   4.694  0.1653 -0.2028 -1.6556
  185POPC  C21721229   5.568   6.300   4.550 -0.2023  0.2652  0.9078
  185POPC  H17R21230   5.583   6.199   4.505 -1.1285  0.2623  0.5878
  185POPC  H17S21231   5.661   6.361   4.544  0.8208 -1.3198 -0.3481
  185POPC  C21821232   5.452   6.362   4.477  0.6196 -0.3537 -0.0154
  185POPC  H18R21233   5.471   6.406   4.376  0.1181 -0.5204 -0.1896
  185POPC  H18S21234   5.403   6.435   4.544 -1.7058 -2.1634  0.4058
  185POPC  H18T21235   5.369   6.291   4.454  1.9572 -1.4264 -1.8347
  185POPC   C3321236   5.742   6.119   5.537  0.1500  0.0042 -0.2771
  185POPC   H3X21237   5.843   6.164   5.546 -1.1347  3.5364 -1.6440
  185POPC   H3Y21238   5.674   6.175   5.604  0.7319  0.2848  0.0908
  185POPC   C3421239   5.687   6.125   5.396  0.7904 -0.1307 -0.1514
  185POPC   H4X21240   5.606   6.049   5.393 -0.2308  0.8892  0.5817
  185POPC   H4Y21241   5.759   6.081   5.324 -1.4172 -0.2888 -2.4259
  185POPC   C3521242   5.618   6.262   5.359 -0.1873  0.0586  0.3584
  185POPC   H5X21243   5.552   6.284   5.446  0.1739 -0.0323  0.6593
  185POPC   H5Y21244   5.554   6.270   5.269  0.1869  3.2109  0.2731
  185POPC   C3621245   5.720   6.375   5.341 -0.3619  0.7178 -0.0247
  185POPC   H6X21246   5.786   6.357   5.254  0.6208  2.9394  0.1687
  185POPC   H6Y21247   5.772   6.388   5.439  0.2109  0.9352 -0.3508
  185POPC   C3721248   5.656   6.511   5.312 -0.5594 -0.6337  0.3061
  185POPC   H7X21249   5.730   6.589   5.339  0.8663 -1.5902 -0.6836
  185POPC   H7Y21250   5.576   6.522   5.388  0.6979 -2.5247  2.0065
  185POPC   C3821251   5.613   6.529   5.163 -0.2625  0.0300  0.3577
  185POPC   H8X21252   5.547   6.617   5.153  0.1147  0.2673 -0.1205
  185POPC   H8Y21253   5.553   6.438   5.140 -1.7196  1.1482 -0.3510
  185POPC   C3921254   5.734   6.548   5.072  0.3796 -0.1657 -0.3594
  185POPC   H9X21255   5.783   6.450   5.056  0.9093  0.2541 -1.3995
  185POPC   H9Y21256   5.801   6.627   5.110  0.3221  0.5658 -1.7080
  185POPC  C31021257   5.674   6.613   4.949  0.0400 -0.1886  1.1917
  185POPC  H10X21258   5.624   6.708   4.979 -0.9945 -0.4987  0.5218
  185POPC  H10Y21259   5.592   6.553   4.905 -1.1031  2.0734  0.0773
  185POPC  C31121260   5.776   6.646   4.842  0.6409  0.2273  0.2693
  185POPC  H11X21261   5.849   6.719   4.882  0.9960 -0.3692  0.7268
  185POPC  H11Y21262   5.733   6.701   4.755  2.3176 -1.2358 -1.5840
  185POPC  C31221263   5.847   6.531   4.772 -0.3932  0.9088 -0.1190
  185POPC  H12X21264   5.771   6.470   4.719  0.1585 -0.1116  0.2500
  185POPC  H12Y21265   5.895   6.463   4.846  0.4789  0.5707 -0.9840
  185POPC  C31321266   5.953   6.583   4.674  0.1409  0.3002 -0.0742
  185POPC  H13X21267   6.036   6.631   4.731  0.1077 -2.0420  2.1201
  185POPC  H13Y21268   5.887   6.645   4.609 -0.0888 -1.5350 -1.6776
  185POPC  C31421269   5.993   6.466   4.581 -0.2152  0.1680  0.4331
  185POPC  H14X21270   5.910   6.393   4.565 -1.6616  1.4478  1.7258
  185POPC  H14Y21271   6.072   6.407   4.631  1.1260 -0.0065 -1.7643
  185POPC  C31521272   6.043   6.504   4.440  0.1357 -1.0359 -0.0595
  185POPC  H15X21273   5.958   6.555   4.391  0.8973  1.1568  0.8094
  185POPC  H15Y21274   6.077   6.422   4.373  1.7268  0.4354 -1.1371
  185POPC  C31621275   6.164   6.602   4.450 -0.2212  0.4602 -0.1558
  185POPC  H16X21276   6.229   6.598   4.359 -0.3632 -0.3525 -0.2263
  185POPC  H16Y21277   6.224   6.561   4.534 -0.4440  3.0002  1.3465
  185POPC  H16Z21278   6.127   6.702   4.481  1.2899  0.6477  1.1869
  186POPC     N21279   2.687   6.481   6.478 -0.5687 -0.7301 -0.3384
  186POPC   C1221280   2.571   6.578   6.473 -0.3340  0.3077  0.2169
  186POPC  H12A21281   2.509   6.550   6.389 -0.3591 -1.4159  0.7870
  186POPC  H12B21282   2.602   6.682   6.465 -1.1271  0.4537 -1.5248
  186POPC   C1321283   2.776   6.508   6.598  0.4099  0.4098  0.3362
  186POPC  H13A21284   2.718   6.495   6.688 -0.5043  1.5498 -0.0594
  186POPC  H13B21285   2.856   6.437   6.608  0.3099  0.4964  1.9474
  186POPC  H13C21286   2.827   6.603   6.594  2.5196 -0.6705  0.5207
  186POPC   C1421287   2.642   6.340   6.488 -0.3762  0.2152 -0.2671
  186POPC  H14A21288   2.729   6.279   6.507 -0.3000 -0.2258 -1.8462
  186POPC  H14B21289   2.566   6.331   6.564 -0.5485  0.8696 -0.3578
  186POPC  H14C21290   2.588   6.303   6.402  1.2077  1.0758 -1.6806
  186POPC   C1521291   2.769   6.506   6.353 -0.5393  0.2667  0.2056
  186POPC  H15A21292   2.846   6.430   6.350 -0.2579  0.5651 -2.1303
  186POPC  H15B21293   2.801   6.608   6.340 -1.0557  0.4050 -0.0191
  186POPC  H15C21294   2.706   6.491   6.266 -0.9717  1.1820  0.3510
  186POPC   C1121295   2.471   6.575   6.586 -0.4621  0.5458 -0.4252
  186POPC  H11A21296   2.402   6.659   6.563  0.1592  0.7125 -1.7404
  186POPC  H11B21297   2.521   6.591   6.684  1.1454 -2.6978 -0.5951
  186POPC     P21298   2.266   6.418   6.519 -0.1521 -0.1181 -0.2685
  186POPC   O1321299   2.165   6.511   6.568  0.4294  0.2396 -0.4017
  186POPC   O1421300   2.231   6.274   6.525  0.0852 -0.3296 -0.4182
  186POPC   O1221301   2.401   6.448   6.600  0.2341 -0.5738 -0.0532
  186POPC   O1121302   2.321   6.463   6.381  0.2052 -0.4790 -0.3815
  186POPC    C121303   2.332   6.353   6.288 -0.0538  0.0063 -0.1882
  186POPC    HA21304   2.241   6.288   6.281 -0.3170  0.4060 -0.5329
  186POPC    HB21305   2.425   6.300   6.316  1.0085  1.7937 -0.2055
  186POPC    C221306   2.330   6.397   6.141  0.8301  1.1370  0.2802
  186POPC    HS21307   2.419   6.461   6.121 -0.1898  2.9126  1.1956
  186POPC   O2121308   2.210   6.474   6.117 -0.2715 -0.1913 -0.3478
  186POPC   C2121309   2.224   6.595   6.067  0.6413  0.0294 -0.6058
  186POPC   O2221310   2.322   6.657   6.049  0.1205  1.3366 -0.0751
  186POPC   C2221311   2.084   6.645   6.031 -0.2125 -0.0518 -0.0944
  186POPC   H2R21312   2.058   6.722   6.107 -1.2461 -0.0360 -0.4566
  186POPC   H2S21313   2.020   6.555   6.030  0.8548 -0.9389  2.5384
  186POPC    C321314   2.335   6.275   6.037 -0.2515 -0.1450  0.6375
  186POPC    HX21315   2.241   6.221   6.059 -0.8407  0.1463 -1.0396
  186POPC    HY21316   2.427   6.215   6.055  1.7005  2.8523  1.4193
  186POPC   O3121317   2.316   6.321   5.901 -0.1787  0.2679 -0.0608
  186POPC   C3121318   2.437   6.351   5.845  0.1504  0.8062 -0.2416
  186POPC   O3221319   2.545   6.352   5.901 -0.0904 -0.1406 -0.6624
  186POPC   C3221320   2.425   6.364   5.690  0.2472 -0.0626  0.4765
  186POPC   H2X21321   2.477   6.459   5.666 -1.0124  0.3661 -0.7613
  186POPC   H2Y21322   2.316   6.375   5.670 -0.4118 -1.5339  2.8767
  186POPC   C2321323   2.076   6.706   5.881 -0.0852 -0.2556 -0.1963
  186POPC   H3R21324   2.171   6.744   5.837 -0.4396 -0.6550 -1.3354
  186POPC   H3S21325   2.006   6.789   5.906 -0.3512 -0.9652  1.5133
  186POPC   C2421326   2.016   6.617   5.778 -0.0642  0.0039  0.7304
  186POPC   H4R21327   1.926   6.567   5.818  0.4219 -1.4649  0.0336
  186POPC   H4S21328   2.075   6.529   5.747  1.3643  0.1576  2.8761
  186POPC   C2521329   1.974   6.688   5.647  0.5394 -0.3321 -0.1147
  186POPC   H5R21330   2.070   6.723   5.603  0.1793 -0.2462 -0.8330
  186POPC   H5S21331   1.920   6.780   5.679  0.1588 -0.2528 -0.9758
  186POPC   C2621332   1.897   6.600   5.547  0.0305  0.3797 -0.5478
  186POPC   H6R21333   1.813   6.564   5.611  0.3163 -0.0127 -0.3843
  186POPC   H6S21334   1.964   6.516   5.521 -0.8504 -0.1157 -1.2704
  186POPC   C2721335   1.836   6.665   5.425 -0.5062 -0.2253  0.4144
  186POPC   H7R21336   1.919   6.685   5.355 -0.1196 -2.1808  0.2696
  186POPC   H7S21337   1.785   6.759   5.457  0.0119 -0.3464  1.6667
  186POPC   C2821338   1.749   6.571   5.344 -0.0132  0.2892  0.2994
  186POPC   H8R21339   1.703   6.510   5.425  0.3751  0.5104  0.6905
  186POPC   H8S21340   1.809   6.501   5.282  2.5369  0.2643  2.6121
  186POPC   C2921341   1.643   6.643   5.261 -0.0253  0.1105 -0.7672
  186POPC   H9121342   1.546   6.651   5.311  1.1096 -0.9524  1.7656
  186POPC  C21021343   1.658   6.671   5.127  0.6673 -0.7716 -0.5979
  186POPC  H10121344   1.576   6.732   5.087  1.8277  1.8095  0.7610
  186POPC  C21121345   1.771   6.649   5.037  0.5324 -1.0606 -0.8489
  186POPC  H11R21346   1.838   6.571   5.081 -2.5126 -2.1615  2.3122
  186POPC  H11S21347   1.837   6.738   5.043  0.7276 -1.2827  1.8376
  186POPC  C21221348   1.742   6.608   4.894  0.2960 -0.2261 -0.8415
  186POPC  H12R21349   1.836   6.631   4.840 -1.1158  0.1594 -3.2777
  186POPC  H12S21350   1.660   6.671   4.853 -1.0854 -2.2317 -1.3353
  186POPC  C21321351   1.707   6.457   4.879  0.6081 -0.6639  0.3213
  186POPC  H13R21352   1.606   6.462   4.926 -0.6483  1.5661 -2.3321
  186POPC  H13S21353   1.779   6.393   4.935  1.0840  1.6005  2.4400
  186POPC  C21421354   1.704   6.413   4.729  0.3850 -0.8546  0.1592
  186POPC  H14R21355   1.690   6.302   4.722 -0.0969 -0.7751 -0.2048
  186POPC  H14S21356   1.797   6.447   4.680  0.3210  0.9160  1.1971
  186POPC  C21521357   1.601   6.494   4.648  0.3641 -0.3025 -0.3180
  186POPC  H15R21358   1.636   6.594   4.614 -3.5217  1.2819 -0.1660
  186POPC  H15S21359   1.508   6.507   4.708  1.4636  0.5633  1.2873
  186POPC  C21621360   1.536   6.415   4.520 -0.5787 -0.6192  0.1689
  186POPC  H16R21361   1.503   6.315   4.553  1.2240 -0.3043  3.3631
  186POPC  H16S21362   1.622   6.403   4.450 -0.8189 -0.2134 -0.2038
  186POPC  C21721363   1.431   6.501   4.442 -0.1174 -0.7566 -0.3047
  186POPC  H17R21364   1.491   6.567   4.376 -1.6402  1.1829  0.1599
  186POPC  H17S21365   1.365   6.553   4.514  0.5797 -1.3323  0.7785
  186POPC  C21821366   1.342   6.419   4.346 -0.5428 -0.1386 -0.2670
  186POPC  H18R21367   1.255   6.479   4.313 -1.4385 -1.0158  0.4268
  186POPC  H18S21368   1.291   6.344   4.410  1.4833 -1.8734 -0.5510
  186POPC  H18T21369   1.409   6.375   4.269 -0.0321  1.5508 -0.8455
  186POPC   C3321370   2.491   6.243   5.605 -0.9034  0.4492 -0.6879
  186POPC   H3X21371   2.436   6.150   5.630  0.6731 -0.3827 -0.2262
  186POPC   H3Y21372   2.595   6.236   5.643 -0.2618 -4.5213 -2.6418
  186POPC   C3421373   2.497   6.272   5.461 -0.2945  0.3086  0.4689
  186POPC   H4X21374   2.571   6.348   5.428  0.5837 -1.0957 -0.9144
  186POPC   H4Y21375   2.399   6.306   5.424 -0.5788  0.3419  1.2306
  186POPC   C3521376   2.528   6.142   5.389  0.0226  0.7478  0.0639
  186POPC   H5X21377   2.451   6.062   5.399  0.3210  0.4151 -0.2909
  186POPC   H5Y21378   2.624   6.098   5.423 -0.4323  1.4671  2.4911
  186POPC   C3621379   2.546   6.163   5.239 -0.4493  0.0937 -0.1027
  186POPC   H6X21380   2.643   6.217   5.226 -0.4307 -0.3377 -2.0252
  186POPC   H6Y21381   2.464   6.225   5.198 -0.0986  1.6421  1.4175
  186POPC   C3721382   2.547   6.027   5.164 -0.1740  0.1772 -1.0520
  186POPC   H7X21383   2.444   5.985   5.177 -0.3059  0.6025 -0.6921
  186POPC   H7Y21384   2.621   5.965   5.218 -0.4812  0.7165  0.0319
  186POPC   C3821385   2.567   6.040   5.014  0.3946 -0.5409  0.3144
  186POPC   H8X21386   2.468   6.073   4.976  1.8773  1.8233 -1.8030
  186POPC   H8Y21387   2.579   5.935   4.979 -0.9679  0.1265 -2.4582
  186POPC   C3921388   2.677   6.128   4.964  0.4163 -0.2126 -0.2580
  186POPC   H9X21389   2.758   6.122   5.040  3.2111  1.7258 -2.8567
  186POPC   H9Y21390   2.646   6.235   4.961  0.5842 -0.1769 -0.7537
  186POPC  C31021391   2.744   6.083   4.833 -0.4903 -0.4400  1.6751
  186POPC  H10X21392   2.765   5.974   4.842  0.0881 -0.9521 -2.9961
  186POPC  H10Y21393   2.842   6.133   4.820 -1.0370  0.4763  0.8432
  186POPC  C31121394   2.644   6.111   4.716 -0.7965  0.1741 -0.0307
  186POPC  H11X21395   2.605   6.214   4.703  1.9001  1.5215  1.8656
  186POPC  H11Y21396   2.563   6.034   4.723 -0.0992 -0.6016 -0.2640
  186POPC  C31221397   2.712   6.061   4.584 -0.1906  0.4920  0.3270
  186POPC  H12X21398   2.744   5.956   4.605 -1.1919  0.5355  2.2981
  186POPC  H12Y21399   2.797   6.132   4.581 -0.4861  1.1567  3.6246
  186POPC  C31321400   2.622   6.085   4.461 -0.4345 -0.4046 -0.0487
  186POPC  H13X21401   2.690   6.059   4.378 -0.7458 -0.6754 -0.2252
  186POPC  H13Y21402   2.589   6.191   4.457  0.6248  0.1216  2.6957
  186POPC  C31421403   2.490   5.998   4.460  0.0380  0.2928 -0.5230
  186POPC  H14X21404   2.435   5.998   4.556 -0.7147 -0.5085 -0.9410
  186POPC  H14Y21405   2.529   5.895   4.449  3.0570  1.4072 -1.0701
  186POPC  C31521406   2.388   6.051   4.358  0.0003  0.1423 -0.0021
  186POPC  H15X21407   2.443   6.111   4.282  0.7106 -1.0477 -0.4595
  186POPC  H15Y21408   2.320   6.128   4.402 -1.2814 -0.4843 -0.8189
  186POPC  C31621409   2.310   5.940   4.292 -0.3769 -0.0312 -0.5605
  186POPC  H16X21410   2.275   5.867   4.368  3.5057 -0.4987  1.0051
  186POPC  H16Y21411   2.381   5.892   4.221 -0.1991 -0.5181 -0.0637
  186POPC  H16Z21412   2.218   5.977   4.241 -1.7355 -0.3134  1.5680
  187POPC     N21413   2.123   6.104   2.121 -0.4824  0.5307  0.4338
  187POPC   C1221414   2.047   6.076   2.253  0.7058 -0.3857  0.4614
  187POPC  H12A21415   1.965   6.010   2.229 -0.9231  1.8804 -0.5075
  187POPC  H12B21416   2.004   6.170   2.283 -0.4556 -1.6257  2.9409
  187POPC   C1321417   2.020   6.161   2.033 -0.4204 -0.5276  0.2164
  187POPC  H13A21418   2.054   6.164   1.930 -0.0700 -3.1434  0.1892
  187POPC  H13B21419   1.944   6.086   2.019 -0.7382 -0.0367 -0.8139
  187POPC  H13C21420   1.975   6.253   2.066  1.8004 -0.1647  2.5998
  187POPC   C1421421   2.225   6.212   2.138 -0.2331  0.2665 -0.0882
  187POPC  H14A21422   2.177   6.309   2.149 -2.3814 -0.7987  0.5281
  187POPC  H14B21423   2.275   6.186   2.229  0.7766  2.1390 -0.0461
  187POPC  H14C21424   2.291   6.219   2.052 -2.8174 -0.6099 -2.3201
  187POPC   C1521425   2.195   5.983   2.068 -0.1364  0.3956 -0.0263
  187POPC  H15A21426   2.232   5.918   2.147 -2.6375  0.7131  1.5033
  187POPC  H15B21427   2.272   5.994   1.993 -0.5057  0.0723 -0.4541
  187POPC  H15C21428   2.132   5.919   2.008 -0.6872 -1.4897  2.3796
  187POPC   C1121429   2.124   6.013   2.370 -0.3638  0.3652 -0.6298
  187POPC  H11A21430   2.067   6.017   2.465  0.7072  0.7718  0.0158
  187POPC  H11B21431   2.225   6.058   2.383  0.3110 -1.3133  0.2515
  187POPC     P21432   2.020   5.773   2.352  0.0258 -0.2329 -0.0938
  187POPC   O1321433   2.059   5.650   2.279  0.0185 -0.0192 -0.7929
  187POPC   O1421434   1.904   5.852   2.306  0.2984  0.0665  0.6256
  187POPC   O1221435   2.141   5.874   2.359  0.6139  0.3814 -0.0906
  187POPC   O1121436   2.006   5.741   2.509  0.1116  0.3849 -0.2026
  187POPC    C121437   2.083   5.648   2.582 -0.0906 -1.0887  0.2237
  187POPC    HA21438   2.104   5.691   2.682 -2.0089 -0.5738  0.4294
  187POPC    HB21439   2.183   5.642   2.533 -0.0327  1.3425 -0.0896
  187POPC    C221440   2.018   5.507   2.595  0.1575 -1.3860  1.1084
  187POPC    HS21441   1.956   5.502   2.503  0.5730  0.2946  0.7004
  187POPC   O2121442   1.923   5.513   2.702 -0.2706 -0.1408 -0.1998
  187POPC   C2121443   1.855   5.402   2.713 -0.4429  0.1705 -0.0040
  187POPC   O2221444   1.849   5.310   2.633 -0.4286 -0.3182  0.4556
  187POPC   C2221445   1.770   5.416   2.843 -0.6513  1.1059 -0.1732
  187POPC   H2R21446   1.678   5.470   2.811 -2.4268 -1.1148  0.9108
  187POPC   H2S21447   1.823   5.481   2.915 -0.5876 -0.3195  1.1235
  187POPC    C321448   2.131   5.399   2.598 -0.6878  0.0094 -0.0048
  187POPC    HX21449   2.181   5.424   2.502  0.4998  0.7849  0.7857
  187POPC    HY21450   2.093   5.295   2.586  1.4451 -0.6855 -1.1541
  187POPC   O3121451   2.227   5.414   2.709 -0.0686 -0.3037 -0.4404
  187POPC   C3121452   2.201   5.358   2.824  0.2848 -0.1370  0.0432
  187POPC   O3221453   2.102   5.299   2.860  0.1164  0.0681 -0.3601
  187POPC   C3221454   2.308   5.413   2.917  0.5382  0.3219  0.0774
  187POPC   H2X21455   2.311   5.523   2.907  0.2239  0.4515  1.2840
  187POPC   H2Y21456   2.398   5.365   2.873  0.1860  0.3971 -0.7311
  187POPC   C2321457   1.733   5.287   2.925 -0.3777 -0.5002  0.3896
  187POPC   H3R21458   1.822   5.227   2.952 -0.9617 -1.6967 -0.2848
  187POPC   H3S21459   1.660   5.222   2.873  0.8923  0.1967 -2.4112
  187POPC   C2421460   1.671   5.313   3.064  0.4493 -0.0294  0.0886
  187POPC   H4R21461   1.611   5.221   3.080 -1.5307  0.9937 -1.1393
  187POPC   H4S21462   1.597   5.395   3.062  2.5663  1.9924  0.3126
  187POPC   C2521463   1.780   5.329   3.172  0.2839  0.2065  0.3451
  187POPC   H5R21464   1.807   5.437   3.182  2.0455 -0.2701  1.1291
  187POPC   H5S21465   1.874   5.280   3.141  1.5175  1.8765  1.2635
  187POPC   C2621466   1.726   5.300   3.315  0.4687 -0.6964  0.4548
  187POPC   H6R21467   1.675   5.202   3.320 -2.0460  0.5776  1.7154
  187POPC   H6S21468   1.646   5.376   3.328  3.8817  3.8508 -1.9566
  187POPC   C2721469   1.828   5.336   3.427 -0.4292 -0.2983  0.7950
  187POPC   H7R21470   1.880   5.435   3.424 -0.3068 -0.3960 -1.1728
  187POPC   H7S21471   1.920   5.273   3.423  0.7951  1.4025  0.9172
  187POPC   C2821472   1.777   5.317   3.574 -0.0562 -0.4903 -0.7151
  187POPC   H8R21473   1.868   5.331   3.635 -0.2496  0.3609 -0.6141
  187POPC   H8S21474   1.742   5.211   3.578 -0.6660 -0.3941 -2.4714
  187POPC   C2921475   1.656   5.401   3.602  0.8392  0.1904 -0.0917
  187POPC   H9121476   1.608   5.453   3.518 -0.1787  0.9676  0.9468
  187POPC  C21021477   1.610   5.447   3.717  0.1476  0.1359  0.3298
  187POPC  H10121478   1.517   5.505   3.718 -0.2178 -0.4426  0.4332
  187POPC  C21121479   1.652   5.421   3.858 -0.1666  0.3076  0.3787
  187POPC  H11R21480   1.679   5.517   3.908 -0.3439 -0.2280  1.5277
  187POPC  H11S21481   1.743   5.358   3.869  0.4621  0.9208 -1.0723
  187POPC  C21221482   1.528   5.359   3.927 -0.4297  0.0395 -0.3206
  187POPC  H12R21483   1.496   5.258   3.893 -0.9323  0.1865 -0.3008
  187POPC  H12S21484   1.440   5.426   3.915  0.8171  1.7437 -0.3951
  187POPC  C21321485   1.560   5.348   4.076  0.2157  0.3294 -0.6143
  187POPC  H13R21486   1.611   5.432   4.128 -0.0823  0.4232 -0.4695
  187POPC  H13S21487   1.627   5.262   4.092  0.2960  0.1368 -1.8459
  187POPC  C21421488   1.429   5.323   4.160 -0.7105 -0.4057  0.1399
  187POPC  H14R21489   1.398   5.219   4.139 -2.7745 -0.3792  2.4678
  187POPC  H14S21490   1.345   5.388   4.128  0.1748  1.0303  0.6273
  187POPC  C21521491   1.427   5.342   4.311  0.4127  0.5541  0.0976
  187POPC  H15R21492   1.434   5.449   4.339 -0.0045  0.9084 -1.0953
  187POPC  H15S21493   1.518   5.295   4.355  0.5314  2.8471  2.5433
  187POPC  C21621494   1.288   5.299   4.363  0.0290 -0.5957 -0.2248
  187POPC  H16R21495   1.208   5.336   4.295  0.7158  0.7137 -0.3658
  187POPC  H16S21496   1.283   5.347   4.463 -0.2903  1.4908 -1.1846
  187POPC  C21721497   1.282   5.154   4.382 -0.3881  0.4250  0.3548
  187POPC  H17R21498   1.296   5.107   4.283  2.2962 -0.1133  0.9072
  187POPC  H17S21499   1.178   5.134   4.414 -0.1775  1.5880  1.8804
  187POPC  C21821500   1.382   5.097   4.485 -0.1218  0.0657  0.2161
  187POPC  H18R21501   1.369   5.155   4.579 -0.2524  0.6226 -0.1409
  187POPC  H18S21502   1.490   5.096   4.463 -0.4509  0.3988 -1.5624
  187POPC  H18T21503   1.357   4.990   4.499  0.6616 -0.0126  1.1166
  187POPC   C3321504   2.288   5.369   3.064  0.3889  0.2768  0.4778
  187POPC   H3X21505   2.388   5.376   3.113  0.1989  0.6470  0.8237
  187POPC   H3Y21506   2.249   5.266   3.063 -1.6986  0.9413 -3.5079
  187POPC   C3421507   2.190   5.458   3.145 -0.2760  0.1535 -0.2423
  187POPC   H4X21508   2.088   5.457   3.101 -1.6510 -0.9428  2.7141
  187POPC   H4Y21509   2.241   5.556   3.155 -0.8431  0.5453 -1.0971
  187POPC   C3521510   2.179   5.404   3.297 -0.1283  1.0887 -0.2131
  187POPC   H5X21511   2.113   5.315   3.284 -0.5405  1.3633 -0.0201
  187POPC   H5Y21512   2.114   5.479   3.346 -0.4730  1.6533 -1.5102
  187POPC   C3621513   2.312   5.378   3.369  0.1131  0.0862  0.1592
  187POPC   H6X21514   2.380   5.459   3.333  0.2202 -0.2689 -0.4413
  187POPC   H6Y21515   2.353   5.277   3.350 -0.5353 -0.3634  1.0948
  187POPC   C3721516   2.309   5.380   3.518  0.0693  0.9439 -0.2187
  187POPC   H7X21517   2.284   5.485   3.546 -2.2812  0.3924 -0.0889
  187POPC   H7Y21518   2.409   5.348   3.556 -0.3885  0.6669  0.8012
  187POPC   C3821519   2.209   5.287   3.582 -0.2579 -0.7356 -0.6951
  187POPC   H8X21520   2.242   5.189   3.540  0.0551 -1.8379  1.9448
  187POPC   H8Y21521   2.105   5.306   3.549  0.1710 -0.0793 -1.7499
  187POPC   C3921522   2.208   5.274   3.736 -0.1068 -0.3154 -0.5314
  187POPC   H9X21523   2.285   5.205   3.776 -0.3088  0.6786  1.7332
  187POPC   H9Y21524   2.111   5.227   3.762 -0.1476 -0.3531 -0.7513
  187POPC  C31021525   2.236   5.405   3.805  0.1820 -0.2111 -0.1083
  187POPC  H10X21526   2.184   5.492   3.760  0.6976  1.4140  2.2674
  187POPC  H10Y21527   2.344   5.419   3.784  0.7288  0.0116  2.5493
  187POPC  C31121528   2.222   5.406   3.960 -0.3258  0.9694  0.2603
  187POPC  H11X21529   2.232   5.514   3.982  1.0563  0.4674  2.3358
  187POPC  H11Y21530   2.312   5.354   3.999 -0.9535  1.3061  2.2456
  187POPC  C31221531   2.093   5.346   4.025 -0.2276  0.0345 -0.0288
  187POPC  H12X21532   2.088   5.241   3.990 -3.2745 -0.0010  0.2067
  187POPC  H12Y21533   1.995   5.396   4.008 -0.2656 -0.4356 -1.2148
  187POPC  C31321534   2.122   5.335   4.176  0.3494 -0.4865  0.6505
  187POPC  H13X21535   2.116   5.438   4.219 -1.3280 -0.2335 -0.1104
  187POPC  H13Y21536   2.222   5.291   4.200  1.6864  2.1103  0.2454
  187POPC  C31421537   2.016   5.243   4.240 -0.4515  0.3331 -0.7011
  187POPC  H14X21538   2.064   5.181   4.319 -3.3047  1.3242  2.0174
  187POPC  H14Y21539   1.980   5.177   4.159  1.3646 -2.4374  0.5919
  187POPC  C31521540   1.910   5.328   4.320 -0.4729  0.2389  0.2977
  187POPC  H15X21541   1.867   5.408   4.256  0.4231  0.3211 -0.2100
  187POPC  H15Y21542   1.956   5.387   4.402  0.7144  1.5452 -1.2507
  187POPC  C31621543   1.802   5.238   4.370  0.6824 -0.0445 -0.3597
  187POPC  H16X21544   1.753   5.198   4.279  1.7713  1.6098 -1.7301
  187POPC  H16Y21545   1.725   5.295   4.428 -0.3973 -0.8604 -0.9477
  187POPC  H16Z21546   1.847   5.154   4.428  3.3391  0.4636 -1.5622
  188POPC     N21547   0.682   5.671   1.757 -0.1982  0.1745  0.5259
  188POPC   C1221548   0.754   5.687   1.898  0.8150  0.3877  0.3832
  188POPC  H12A21549   0.726   5.782   1.940  4.4627  1.1539  1.4285
  188POPC  H12B21550   0.860   5.700   1.881  0.1821  2.9460 -2.3531
  188POPC   C1321551   0.747   5.751   1.653 -0.0958 -0.1324  1.1141
  188POPC  H13A21552   0.737   5.857   1.671 -1.0089 -0.5515  3.4530
  188POPC  H13B21553   0.855   5.743   1.647  0.1251  2.7018 -0.2917
  188POPC  H13C21554   0.700   5.738   1.557 -1.1674 -0.3227  1.6482
  188POPC   C1421555   0.690   5.530   1.710  0.0379  0.8366 -0.0438
  188POPC  H14A21556   0.656   5.508   1.610 -0.5539 -1.2878  0.5663
  188POPC  H14B21557   0.790   5.490   1.717 -0.3739 -0.4707 -1.2757
  188POPC  H14C21558   0.622   5.470   1.769 -2.2248  1.6970 -1.5976
  188POPC   C1521559   0.542   5.713   1.770 -0.2248  0.3460 -0.3723
  188POPC  H15A21560   0.538   5.818   1.793  1.2005  0.2246  0.5813
  188POPC  H15B21561   0.499   5.661   1.855  0.8949  1.0602  0.6649
  188POPC  H15C21562   0.490   5.696   1.677 -0.7392  2.4761 -0.5258
  188POPC   C1121563   0.712   5.579   1.995  0.3423  0.0115 -0.8771
  188POPC  H11A21564   0.765   5.483   1.980 -0.3665 -0.6087  0.3657
  188POPC  H11B21565   0.604   5.561   1.972 -0.1735 -0.9289  1.8531
  188POPC     P21566   0.645   5.576   2.257  0.0206 -0.0943 -0.3936
  188POPC   O1321567   0.663   5.430   2.258  0.0763 -0.0025 -0.8012
  188POPC   O1421568   0.509   5.627   2.256 -0.2715  0.2980  0.4779
  188POPC   O1221569   0.726   5.629   2.132 -0.2238  0.2631 -0.0974
  188POPC   O1121570   0.733   5.639   2.367  0.0539  0.1570  0.5086
  188POPC    C121571   0.874   5.616   2.387  0.3314 -0.2405  0.7306
  188POPC    HA21572   0.945   5.695   2.354  1.2188 -1.8161 -1.3829
  188POPC    HB21573   0.902   5.529   2.324 -2.5685 -0.1394 -0.9073
  188POPC    C221574   0.908   5.588   2.534 -0.4261  0.1659 -0.0688
  188POPC    HS21575   1.018   5.607   2.529  0.1910 -2.4711  1.3011
  188POPC   O2121576   0.885   5.447   2.554 -0.4490 -0.6313  0.2768
  188POPC   C2121577   0.994   5.381   2.596  0.1384 -0.1431 -0.1309
  188POPC   O2221578   1.101   5.429   2.623 -0.6451 -0.8734 -0.1498
  188POPC   C2221579   0.968   5.234   2.611  0.4521 -0.1846  0.2514
  188POPC   H2R21580   1.000   5.184   2.517  0.1146  1.3745 -0.7310
  188POPC   H2S21581   0.858   5.220   2.611  0.3031  0.6801  2.3310
  188POPC    C321582   0.818   5.673   2.627 -0.2877 -0.1341 -0.9116
  188POPC    HX21583   0.709   5.658   2.609 -0.3622 -0.4389 -0.2679
  188POPC    HY21584   0.832   5.781   2.609 -0.1139 -0.4939 -3.2710
  188POPC   O3121585   0.849   5.647   2.767  0.2005 -0.3095  0.3110
  188POPC   C3121586   0.768   5.578   2.848 -0.6725  1.0042 -0.0988
  188POPC   O3221587   0.668   5.517   2.809  0.0386  0.3116 -0.0947
  188POPC   C3221588   0.817   5.576   2.986  0.2703 -0.1271 -0.4603
  188POPC   H2X21589   0.822   5.680   3.025  2.3868 -0.6318  0.7439
  188POPC   H2Y21590   0.919   5.533   2.973 -0.4496 -1.6941 -1.2142
  188POPC   C2321591   1.019   5.164   2.736  0.2599  0.0591 -0.3819
  188POPC   H3R21592   1.129   5.180   2.736  0.4502 -0.9843  1.2603
  188POPC   H3S21593   1.003   5.055   2.725  0.6052  0.0113 -0.4220
  188POPC   C2421594   0.954   5.207   2.869  0.0566  0.2059 -0.0947
  188POPC   H4R21595   0.848   5.235   2.850  0.3845  2.3117  0.8764
  188POPC   H4S21596   1.002   5.306   2.887  5.1224 -1.9604 -0.1340
  188POPC   C2521597   0.973   5.106   2.975 -0.1966  0.1042 -0.7082
  188POPC   H5R21598   1.075   5.064   2.969  1.0503  2.7137  0.6113
  188POPC   H5S21599   0.907   5.023   2.941  1.3736 -1.4101 -0.1820
  188POPC   C2621600   0.936   5.147   3.118  0.2850 -0.1729  0.1775
  188POPC   H6R21601   0.841   5.201   3.101 -0.4217 -0.8283  1.8005
  188POPC   H6S21602   1.014   5.221   3.147  0.3680  0.5770 -1.8137
  188POPC   C2721603   0.945   5.020   3.209 -0.0786 -0.5361 -0.2227
  188POPC   H7R21604   1.051   4.987   3.200 -0.5525 -2.4700  0.6955
  188POPC   H7S21605   0.878   4.943   3.165 -1.6385 -0.1594  1.3675
  188POPC   C2821606   0.900   5.043   3.355 -0.6048 -0.4763  0.3006
  188POPC   H8R21607   0.789   5.044   3.352 -0.5866  0.2039 -0.5129
  188POPC   H8S21608   0.931   5.144   3.390 -2.5027  0.7885 -1.3725
  188POPC   C2921609   0.960   4.953   3.463 -0.1853  0.5199  0.3896
  188POPC   H9121610   1.070   4.948   3.461 -0.2356 -1.8585  0.4775
  188POPC  C21021611   0.897   4.881   3.560 -0.3442 -0.3457  0.1564
  188POPC  H10121612   0.963   4.820   3.624 -0.6740 -0.0506  0.7874
  188POPC  C21121613   0.748   4.858   3.572 -0.9155  0.2143 -0.3353
  188POPC  H11R21614   0.721   4.751   3.581 -0.3375  0.2329  3.0012
  188POPC  H11S21615   0.686   4.905   3.493 -1.0216 -1.4281 -1.2594
  188POPC  C21221616   0.696   4.913   3.703 -0.4207 -0.4448  0.2453
  188POPC  H12R21617   0.739   5.013   3.725 -0.5361 -0.2634 -0.3348
  188POPC  H12S21618   0.735   4.852   3.787  0.4442  0.5078  0.5527
  188POPC  C21321619   0.544   4.906   3.720 -0.1203  0.0455  0.5570
  188POPC  H13R21620   0.516   4.800   3.734  0.9480 -0.4427 -0.7386
  188POPC  H13S21621   0.488   4.942   3.631 -0.4516  1.3799  1.2825
  188POPC  C21421622   0.507   4.985   3.844  0.2276 -0.4344  0.9962
  188POPC  H14R21623   0.398   4.999   3.833  0.6075  1.1712 -1.6556
  188POPC  H14S21624   0.554   5.086   3.835  1.6555 -1.2691 -2.7318
  188POPC  C21521625   0.548   4.916   3.970 -0.1209  0.4874 -0.2944
  188POPC  H15R21626   0.658   4.912   3.988 -0.0630 -0.4781 -0.7641
  188POPC  H15S21627   0.513   4.810   3.973  2.4590 -0.4453  2.5456
  188POPC  C21621628   0.483   4.983   4.091 -0.1883  0.1252  0.6282
  188POPC  H16R21629   0.374   5.001   4.080  0.0081  0.6514 -0.6802
  188POPC  H16S21630   0.527   5.084   4.105 -0.2460  0.4814 -1.4315
  188POPC  C21721631   0.505   4.915   4.228  0.5240 -0.6930  0.2890
  188POPC  H17R21632   0.480   4.991   4.305  0.1367 -0.6530  0.1270
  188POPC  H17S21633   0.612   4.888   4.233  0.5243 -1.6379 -2.6827
  188POPC  C21821634   0.413   4.788   4.231 -0.3755  0.5159  0.4923
  188POPC  H18R21635   0.313   4.810   4.188  0.4179 -1.3542 -2.6514
  188POPC  H18S21636   0.404   4.751   4.335  4.0492 -0.6128  0.6758
  188POPC  H18T21637   0.467   4.713   4.168  2.5169  2.4235  0.5098
  188POPC   C3321638   0.734   5.491   3.081 -0.1585 -0.4895  0.4915
  188POPC   H3X21639   0.738   5.384   3.054 -1.1305 -1.1775  2.8776
  188POPC   H3Y21640   0.631   5.534   3.087 -0.2127 -0.4950 -0.3065
  188POPC   C3421641   0.794   5.509   3.221 -0.7196 -0.1059 -0.2518
  188POPC   H4X21642   0.775   5.611   3.260 -2.6243 -0.2423 -0.6946
  188POPC   H4Y21643   0.904   5.496   3.212 -0.7186 -1.7363  1.3546
  188POPC   C3521644   0.731   5.418   3.329 -0.5209  0.0785 -0.0597
  188POPC   H5X21645   0.751   5.314   3.294  1.2482  0.3301  0.0726
  188POPC   H5Y21646   0.622   5.436   3.334 -0.4919  0.2380  5.3149
  188POPC   C3621647   0.775   5.437   3.478 -1.0818  0.4160 -0.0198
  188POPC   H6X21648   0.761   5.543   3.508  2.4128  0.6235  1.2926
  188POPC   H6Y21649   0.883   5.413   3.480 -0.2583  3.6787  1.3915
  188POPC   C3721650   0.703   5.335   3.562  0.5409 -0.6927 -0.6753
  188POPC   H7X21651   0.701   5.243   3.501 -0.8454 -0.3419 -1.2074
  188POPC   H7Y21652   0.594   5.359   3.561  0.4648 -0.5824 -4.7466
  188POPC   C3821653   0.760   5.305   3.706  0.1269  0.2140  0.3498
  188POPC   H8X21654   0.869   5.281   3.705  0.1398  0.2154 -1.4975
  188POPC   H8Y21655   0.714   5.209   3.740 -0.7508 -0.3758 -2.2590
  188POPC   C3921656   0.735   5.406   3.817  0.3247 -0.0758 -0.2252
  188POPC   H9X21657   0.804   5.386   3.902  1.6019 -2.9067 -1.7781
  188POPC   H9Y21658   0.630   5.411   3.852  1.0342 -1.8425  2.4887
  188POPC  C31021659   0.754   5.550   3.780 -0.6007 -0.5022  0.2594
  188POPC  H10X21660   0.680   5.580   3.703  0.7738 -0.1942 -1.0052
  188POPC  H10Y21661   0.856   5.572   3.741  0.6490 -3.5365  1.5314
  188POPC  C31121662   0.744   5.641   3.902  0.0233 -1.1131 -0.1480
  188POPC  H11X21663   0.823   5.605   3.970 -2.1515 -2.1201  1.9935
  188POPC  H11Y21664   0.648   5.617   3.953 -0.4023 -0.5407 -0.6591
  188POPC  C31221665   0.760   5.791   3.862 -0.4153 -0.0832  0.0090
  188POPC  H12X21666   0.669   5.817   3.803 -0.0736  1.8390  0.2651
  188POPC  H12Y21667   0.852   5.804   3.802 -0.2090  1.8620  0.6956
  188POPC  C31321668   0.761   5.894   3.970 -0.1979  0.0648  0.8511
  188POPC  H13X21669   0.768   5.990   3.915 -0.7359 -0.2282  0.2486
  188POPC  H13Y21670   0.863   5.882   4.013 -0.2570  1.9125  1.6072
  188POPC  C31421671   0.661   5.890   4.089  0.8970  0.0072 -0.4251
  188POPC  H14X21672   0.683   5.794   4.140 -0.9801 -2.3060 -3.5945
  188POPC  H14Y21673   0.560   5.872   4.047  0.8440 -1.2741  0.1935
  188POPC  C31521674   0.660   6.020   4.171 -0.1902  0.6293  0.5371
  188POPC  H15X21675   0.643   6.100   4.096 -0.1991 -1.0367 -1.3466
  188POPC  H15Y21676   0.763   6.038   4.210  0.2419  1.2542 -0.8291
  188POPC  C31621677   0.567   6.027   4.294  0.1284 -0.0226 -0.0026
  188POPC  H16X21678   0.602   6.101   4.369 -0.3902  1.2491 -0.9734
  188POPC  H16Y21679   0.554   5.926   4.339 -2.1003 -0.4459 -1.3918
  188POPC  H16Z21680   0.463   6.051   4.263 -0.3350 -2.2021 -0.3351
  189SAPI   C1221681   1.150   6.442   6.911 -0.4427  0.1834 -0.2075
  189SAPI    H221682   1.083   6.363   6.952 -1.0971  1.0678  0.4686
  189SAPI    O221683   1.124   6.570   6.975  0.1623 -0.1348 -0.3916
  189SAPI   HO221684   1.034   6.567   7.009  1.0633 -1.6754  2.0876
  189SAPI   C1321685   1.298   6.407   6.952  0.3777  0.9241  0.1489
  189SAPI    H321686   1.314   6.303   6.916 -2.5682  1.0704 -1.9689
  189SAPI    O321687   1.308   6.400   7.093 -0.0132  0.6386  0.4527
  189SAPI   HO321688   1.272   6.482   7.128  0.2811  1.3051 -0.7519
  189SAPI   C1421689   1.407   6.483   6.876 -0.1675  0.3604 -0.7863
  189SAPI    H421690   1.411   6.578   6.934  2.3317 -0.9799  1.4323
  189SAPI    O421691   1.541   6.434   6.891  0.3484 -0.7134  0.6238
  189SAPI   HO421692   1.590   6.516   6.881 -1.6468  0.2418 -2.8567
  189SAPI   C1521693   1.378   6.510   6.725  0.2754 -0.4178 -0.9965
  189SAPI    H521694   1.417   6.421   6.669  3.5000  1.1244 -1.4142
  189SAPI    O521695   1.450   6.620   6.672 -0.3889  0.2842  0.7833
  189SAPI   HO521696   1.503   6.581   6.602  0.3665 -0.0686  1.5379
  189SAPI   C1621697   1.232   6.523   6.683  0.5213  0.1055  0.0525
  189SAPI    H621698   1.195   6.624   6.710 -0.2587 -0.6448  2.0323
  189SAPI    O621699   1.207   6.500   6.545  0.2183 -0.1925  0.1966
  189SAPI   HO621700   1.245   6.416   6.515 -0.7119 -1.1007  1.4770
  189SAPI   C1121701   1.133   6.441   6.759  0.1316  0.2569 -0.4154
  189SAPI    H121702   1.145   6.334   6.733 -5.7678 -1.3402  1.7671
  189SAPI     P21703   0.884   6.361   6.696  0.2133 -0.0698  0.4701
  189SAPI   O1321704   0.758   6.415   6.737 -0.1905 -0.0850  0.0008
  189SAPI   O1421705   0.921   6.235   6.763 -0.4841 -0.8527 -0.4371
  189SAPI   O1221706   1.000   6.477   6.717 -0.1125  0.1101  0.3877
  189SAPI   O1121707   0.888   6.342   6.536  0.4812  0.0007 -0.1025
  189SAPI    C121708   0.776   6.335   6.451  0.0843  0.5463  0.4991
  189SAPI    HA21709   0.801   6.259   6.374  0.1318  0.2656  0.7889
  189SAPI    HB21710   0.690   6.296   6.508 -0.6019  0.6266 -0.4556
  189SAPI    C221711   0.746   6.457   6.364  0.4952  0.3122 -0.3982
  189SAPI    HS21712   0.702   6.538   6.426 -1.4726 -1.0471  0.0952
  189SAPI   O2121713   0.660   6.422   6.249  0.1858  0.3520 -0.9136
  189SAPI   C2121714   0.536   6.437   6.267  0.5435  0.0743 -0.3238
  189SAPI   O2221715   0.477   6.493   6.357 -0.1943  0.3021  0.1622
  189SAPI   C2221716   0.467   6.395   6.135  0.0303  0.2715 -0.5862
  189SAPI   H2R21717   0.514   6.302   6.097  0.3722 -0.2142  0.9290
  189SAPI   H2S21718   0.370   6.358   6.175  1.4966  1.4385  4.9236
  189SAPI    C321719   0.871   6.521   6.312 -0.2516  0.0303 -0.3096
  189SAPI    HX21720   0.898   6.443   6.238 -1.1762  0.0742 -0.7097
  189SAPI    HY21721   0.946   6.533   6.393  1.4562 -2.4294 -1.4020
  189SAPI   O3121722   0.849   6.644   6.240 -0.7677  0.6519 -0.1253
  189SAPI   C3121723   0.965   6.698   6.193 -0.2257 -0.3448 -0.3757
  189SAPI   O3221724   1.075   6.649   6.211 -0.6642 -1.1170  0.0759
  189SAPI   C3221725   0.928   6.824   6.117 -0.4319 -0.5721 -0.7200
  189SAPI   H2X21726   1.013   6.894   6.132 -1.5276  0.3472  1.7192
  189SAPI   H2Y21727   0.837   6.868   6.163 -1.5269 -0.1550 -3.1376
  189SAPI   C2321728   0.467   6.515   6.037  0.2668  0.3039  0.6158
  189SAPI   H3R21729   0.478   6.469   5.936 -0.4008 -0.3904  0.8485
  189SAPI   H3S21730   0.554   6.583   6.050  0.5764 -0.0281  0.3308
  189SAPI   C2421731   0.334   6.591   6.038  0.2051 -0.4788  0.8546
  189SAPI   H4R21732   0.351   6.675   5.968 -1.9342  1.2783  2.3229
  189SAPI   H4S21733   0.314   6.637   6.137 -0.4298  0.1383  0.4473
  189SAPI   C2521734   0.214   6.517   5.994 -0.4995 -0.3182  0.5317
  189SAPI   H5R21735   0.165   6.460   6.074 -1.4560 -1.2459 -0.6747
  189SAPI   C2621736   0.158   6.513   5.871 -0.2643  0.0514  0.3781
  189SAPI   H6R21737   0.066   6.459   5.842  0.2674  0.2759 -1.9069
  189SAPI   C2721738   0.223   6.590   5.757  0.6476 -0.6205 -0.5666
  189SAPI   H7R21739   0.320   6.542   5.733 -0.8386 -3.6317 -0.9756
  189SAPI   H7S21740   0.248   6.697   5.776 -1.6124  0.1249 -1.3620
  189SAPI   C2821741   0.135   6.580   5.638  0.2575 -0.4340  0.1912
  189SAPI   H8R21742   0.031   6.612   5.653  1.2427  3.0948  0.4420
  189SAPI   C2921743   0.158   6.535   5.512 -0.0162 -0.2058  0.9869
  189SAPI   H9R21744   0.072   6.548   5.445 -0.1859  3.5945  1.6862
  189SAPI  C21021745   0.296   6.509   5.458 -0.2277  0.5713 -0.4358
  189SAPI  H10R21746   0.310   6.402   5.431  1.3965 -0.3632  3.4338
  189SAPI  H10S21747   0.380   6.536   5.525 -0.5440 -0.8558  0.5776
  189SAPI  C21121748   0.319   6.607   5.340  0.0083  0.2174  0.2390
  189SAPI  H11R21749   0.347   6.708   5.373 -2.9708  0.4690  2.4402
  189SAPI  C21221750   0.283   6.598   5.210  0.5832  0.8460 -0.1478
  189SAPI  H12R21751   0.318   6.673   5.137  1.1109  2.0501  1.3033
  189SAPI  C21321752   0.231   6.476   5.139  0.2231 -0.3385 -0.6952
  189SAPI  H13R21753   0.121   6.493   5.143  0.5238  1.5634  1.4324
  189SAPI  H13S21754   0.217   6.381   5.196 -1.6915  0.7762  0.8054
  189SAPI  C21421755   0.288   6.449   5.005  0.4041 -0.1385 -0.0351
  189SAPI  H14R21756   0.396   6.428   5.000  0.3345 -0.5015 -0.0644
  189SAPI  C21521757   0.218   6.468   4.885 -0.5914  0.2895 -0.7257
  189SAPI  H15R21758   0.274   6.439   4.795 -1.4943 -3.5806 -0.2250
  189SAPI  C21621759   0.073   6.504   4.876 -0.5956  0.0688  0.6463
  189SAPI  H16R21760   0.021   6.514   4.973 -0.4675  0.5952  0.6639
  189SAPI  H16S21761   0.020   6.433   4.810 -0.1924 -0.4321  0.8531
  189SAPI  C21721762   0.051   6.645   4.825  0.9425  1.1289  0.5340
  189SAPI  H17R21763   0.131   6.707   4.869  2.4031 -0.5371  0.3232
  189SAPI  H17S21764  -0.054   6.669   4.851  0.4954  0.9766 -0.9935
  189SAPI  C21821765   0.055   6.668   4.669 -0.7549 -0.5225 -0.1931
  189SAPI  H18R21766  -0.003   6.596   4.607 -0.0424  1.2917 -3.1923
  189SAPI  H18S21767   0.155   6.645   4.627 -0.9303 -0.6674 -0.5393
  189SAPI  C21921768   0.005   6.809   4.634  0.3039  0.0141  0.6784
  189SAPI  H19R21769   0.081   6.887   4.657 -0.5141  1.0787 -0.1172
  189SAPI  H19S21770  -0.085   6.832   4.694  0.8125  2.1279  0.7048
  189SAPI  C22021771  -0.038   6.823   4.487 -0.2009  0.5145  0.8616
  189SAPI  H20R21772  -0.106   6.910   4.478 -1.7201 -0.5544  1.5854
  189SAPI  H20S21773  -0.106   6.739   4.458 -2.6706  2.5526  0.3797
  189SAPI  H20T21774   0.048   6.821   4.417  0.0212  0.7293  1.1289
  189SAPI   C3321775   0.879   6.790   5.969 -0.0900  1.1259  0.2931
  189SAPI   H3X21776   0.780   6.833   5.943 -0.2874 -0.7130 -2.3547
  189SAPI   H3Y21777   0.867   6.680   5.960  0.9766  0.3945  4.9168
  189SAPI   C3421778   0.965   6.862   5.869 -0.3069 -0.0488 -0.0957
  189SAPI   H4X21779   1.073   6.852   5.891 -0.4114 -0.9217  0.0650
  189SAPI   H4Y21780   0.954   6.972   5.876  0.0310 -0.0472  0.4179
  189SAPI   C3521781   0.938   6.807   5.727 -0.6264 -0.3077 -0.3198
  189SAPI   H5X21782   0.843   6.855   5.697 -0.3906  0.3058 -0.1139
  189SAPI   H5Y21783   0.918   6.698   5.722 -1.0642 -0.2661  0.4591
  189SAPI   C3621784   1.057   6.841   5.637  0.4258 -0.1503 -0.3453
  189SAPI   H6X21785   1.152   6.799   5.677 -0.0099 -0.0577  0.8120
  189SAPI   H6Y21786   1.070   6.951   5.638  1.3673 -0.2463  0.4652
  189SAPI   C3721787   1.034   6.781   5.497 -0.2442 -0.0742  0.3136
  189SAPI   H7X21788   0.937   6.824   5.463 -0.8211  0.7333  2.7300
  189SAPI   H7Y21789   1.036   6.670   5.502  1.6946 -0.0302  1.5876
  189SAPI   C3821790   1.143   6.809   5.398  0.3110  0.0673 -0.0530
  189SAPI   H8X21791   1.240   6.766   5.431 -0.6108 -0.8744  1.5864
  189SAPI   H8Y21792   1.164   6.918   5.395 -0.4012  0.4834  3.9304
  189SAPI   C3921793   1.111   6.753   5.264 -0.2896  0.6635  0.4499
  189SAPI   H9X21794   1.032   6.814   5.216 -0.5326 -0.8257 -1.1242
  189SAPI   H9Y21795   1.080   6.646   5.271 -0.1706  0.6649  1.0552
  189SAPI  C31021796   1.230   6.766   5.169  0.0595  0.3689  0.2406
  189SAPI  H10X21797   1.311   6.702   5.210  0.5185  1.3017  0.8232
  189SAPI  H10Y21798   1.255   6.874   5.165 -0.7675  0.5405 -1.2095
  189SAPI  C31121799   1.196   6.728   5.022 -0.8686 -0.2572 -0.3353
  189SAPI  H11X21800   1.116   6.789   4.977 -3.2509 -1.5608  1.8282
  189SAPI  H11Y21801   1.161   6.623   5.013  0.6459 -0.9033  0.7845
  189SAPI  C31221802   1.322   6.729   4.928  0.3322  0.5682  0.1104
  189SAPI  H12X21803   1.397   6.666   4.981 -0.7412 -2.3144 -1.6001
  189SAPI  H12Y21804   1.350   6.836   4.927  1.4817  0.2886 -1.0949
  189SAPI  C31321805   1.291   6.666   4.787  0.0106 -0.6649 -0.2609
  189SAPI  H13X21806   1.252   6.563   4.794 -3.1847  0.5418  3.7305
  189SAPI  H13Y21807   1.390   6.679   4.737  0.9382 -0.5391  1.5333
  189SAPI  C31421808   1.189   6.750   4.705  0.3259  0.5347  0.3598
  189SAPI  H14X21809   1.198   6.857   4.731 -0.7218  0.7887 -0.2698
  189SAPI  H14Y21810   1.090   6.716   4.742  0.7609 -1.5352 -0.2495
  189SAPI  C31521811   1.195   6.728   4.555 -0.3339  0.6002  0.4925
  189SAPI  H15X21812   1.188   6.618   4.537 -0.9121  0.8462 -0.8718
  189SAPI  H15Y21813   1.293   6.763   4.517 -0.2466 -1.1527 -1.0636
  189SAPI  C31621814   1.083   6.797   4.474  0.2864  0.0560  0.3879
  189SAPI  H16X21815   0.989   6.755   4.516 -0.0873  0.5110  0.0114
  189SAPI  H16Y21816   1.088   6.765   4.368 -0.7730 -1.9995  0.9052
  189SAPI  C31721817   1.090   6.950   4.488  0.2011 -0.0514 -0.8653
  189SAPI  H17X21818   1.198   6.971   4.473  0.5875  0.7919  2.3640
  189SAPI  H17Y21819   1.071   6.977   4.594  0.8864  0.1025 -0.7751
  189SAPI  C31821820   0.999   7.013   4.379  1.0456  0.2111  0.0485
  189SAPI  H18X21821   1.041   7.108   4.340  1.9127  0.2591  1.0177
  189SAPI  H18Y21822   0.894   7.026   4.414  0.5855 -2.2500 -0.2428
  189SAPI  H18Z21823   0.973   6.943   4.297 -0.8229 -2.5038  2.6880
  190SAPI   C1221824   6.498   2.484   6.670  0.3237 -0.2527  0.2876
  190SAPI    H221825   6.478   2.593   6.664  1.1113 -0.1506 -0.7699
  190SAPI    O221826   6.406   2.413   6.587  0.4527  0.1415 -0.4794
  190SAPI   HO221827   6.320   2.436   6.621  0.8513  3.1781 -1.2216
  190SAPI   C1321828   6.641   2.462   6.632 -0.5632 -0.2592  0.0325
  190SAPI    H321829   6.704   2.512   6.709 -1.7466 -2.1785  2.3804
  190SAPI    O321830   6.680   2.530   6.507  0.4335  0.7932 -0.5529
  190SAPI   HO321831   6.626   2.494   6.437 -0.2548  0.4338  0.1446
  190SAPI   C1421832   6.665   2.309   6.634 -0.2203 -0.3077 -0.2051
  190SAPI    H421833   6.604   2.260   6.555 -0.7648 -0.8801  0.5581
  190SAPI    O421834   6.803   2.282   6.597  0.5941  0.0367 -0.7481
  190SAPI   HO421835   6.808   2.298   6.502  0.1043  1.4530 -0.5551
  190SAPI   C1521836   6.611   2.233   6.756 -0.6625  0.4309  0.7209
  190SAPI    H521837   6.693   2.247   6.830  1.7057 -2.3374 -1.1433
  190SAPI    O521838   6.596   2.093   6.729 -0.3193 -0.5330  0.3322
  190SAPI   HO521839   6.668   2.051   6.777 -1.0667 -0.8737  1.1639
  190SAPI   C1621840   6.487   2.291   6.824 -0.2690 -0.6084 -1.0125
  190SAPI    H621841   6.396   2.240   6.786 -0.2250 -1.3150 -0.1893
  190SAPI    O621842   6.490   2.257   6.962 -0.2221  0.6822  0.5707
  190SAPI   HO621843   6.490   2.162   6.973  1.0347  0.8365  2.2549
  190SAPI   C1121844   6.476   2.441   6.812  0.0372 -0.7664  0.4685
  190SAPI    H121845   6.554   2.491   6.874 -0.1880 -0.3436  0.4177
  190SAPI     P21846   6.268   2.620   6.856  0.1404  0.1719 -0.2495
  190SAPI   O1321847   6.363   2.731   6.852  0.1618 -0.3094 -0.2020
  190SAPI   O1421848   6.144   2.622   6.939  0.2476 -0.0428  0.3986
  190SAPI   O1221849   6.359   2.488   6.877 -0.3097  0.2884 -0.3124
  190SAPI   O1121850   6.220   2.600   6.711 -0.0240 -0.4263  0.3428
  190SAPI    C121851   6.173   2.722   6.647  0.2248 -0.6649 -0.5026
  190SAPI    HA21852   6.108   2.781   6.715 -0.1089 -0.1402 -1.2750
  190SAPI    HB21853   6.262   2.778   6.613 -1.5277  2.0646 -0.8534
  190SAPI    C221854   6.102   2.690   6.514  0.0389  0.5828 -0.5726
  190SAPI    HS21855   6.006   2.645   6.547  1.3420 -1.4610  0.5920
  190SAPI   O2121856   6.179   2.586   6.431  0.4392 -0.9634  0.1761
  190SAPI   C2121857   6.117   2.511   6.344 -0.1688 -0.4899  0.4296
  190SAPI   O2221858   5.996   2.502   6.339  0.1965 -0.2788  0.5264
  190SAPI   C2221859   6.224   2.429   6.261 -0.3051  0.1682 -0.1174
  190SAPI   H2R21860   6.290   2.514   6.234 -0.7512  0.7373  0.5602
  190SAPI   H2S21861   6.286   2.377   6.337 -0.1012 -0.1793 -0.5173
  190SAPI    C321862   6.084   2.817   6.432 -0.5317  0.2691  0.1588
  190SAPI    HX21863   6.183   2.865   6.420 -0.0881 -0.8895 -1.1188
  190SAPI    HY21864   6.031   2.889   6.498 -1.2274 -0.0904 -0.0062
  190SAPI   O3121865   6.027   2.800   6.300  0.6894  0.2723 -0.0625
  190SAPI   C3121866   5.899   2.777   6.296  0.5381  0.0764 -0.6825
  190SAPI   O3221867   5.823   2.786   6.391  0.6486 -0.3011 -0.1634
  190SAPI   C3221868   5.862   2.722   6.153  0.0666 -0.3841 -0.1439
  190SAPI   H2X21869   5.757   2.685   6.150  0.7926 -2.4813 -1.6676
  190SAPI   H2Y21870   5.923   2.631   6.137  1.4510  0.8678 -2.4588
  190SAPI   C2321871   6.161   2.342   6.141 -0.0562 -0.2047  0.1958
  190SAPI   H3R21872   6.084   2.277   6.188 -1.5562  1.7618  0.6243
  190SAPI   H3S21873   6.238   2.279   6.093  0.4291  1.6635 -1.6635
  190SAPI   C2421874   6.089   2.413   6.027 -0.0182 -0.1524 -0.0142
  190SAPI   H4R21875   5.993   2.455   6.065 -0.2419 -2.4722  2.2016
  190SAPI   H4S21876   6.057   2.342   5.947 -1.6357  0.5308 -0.0274
  190SAPI   C2521877   6.158   2.536   5.983 -0.2477  0.2214 -0.2943
  190SAPI   H5R21878   6.116   2.625   6.032 -1.5015 -0.2714 -0.4350
  190SAPI   C2621879   6.261   2.547   5.893 -0.4257 -0.1635 -0.0125
  190SAPI   H6R21880   6.309   2.644   5.877  0.5202 -0.3465  1.4796
  190SAPI   C2721881   6.327   2.432   5.819 -0.1076 -0.4238  0.8084
  190SAPI   H7R21882   6.246   2.379   5.765 -1.1034  0.1597  1.7027
  190SAPI   H7S21883   6.385   2.368   5.889  0.7243  0.0204  0.5430
  190SAPI   C2821884   6.420   2.475   5.707  0.1677  0.1543 -0.3972
  190SAPI   H8R21885   6.518   2.507   5.747  0.3538 -0.9015  0.0048
  190SAPI   C2921886   6.402   2.512   5.583  0.7304  0.0419  1.0245
  190SAPI   H9R21887   6.484   2.555   5.524 -0.8371  0.9285 -0.6364
  190SAPI  C21021888   6.273   2.505   5.509 -0.2464 -0.3073 -0.4876
  190SAPI  H10R21889   6.193   2.536   5.579 -0.3984  1.5442 -1.4080
  190SAPI  H10S21890   6.258   2.399   5.482  1.5546 -1.2464  1.8356
  190SAPI  C21121891   6.251   2.590   5.393 -0.1714  0.0366 -0.5230
  190SAPI  H11R21892   6.206   2.688   5.417  1.5000  0.7085  0.0105
  190SAPI  C21221893   6.265   2.555   5.267  0.3687  0.5851  0.0506
  190SAPI  H12R21894   6.228   2.620   5.186  0.2766 -0.6428 -0.9176
  190SAPI  C21321895   6.338   2.430   5.219 -0.1789  0.0196  0.0408
  190SAPI  H13R21896   6.257   2.356   5.205  0.0422 -0.3763  0.7774
  190SAPI  H13S21897   6.396   2.383   5.301 -1.6113 -1.1702  0.4205
  190SAPI  C21421898   6.408   2.442   5.090 -0.1320  0.5085 -0.4415
  190SAPI  H14R21899   6.505   2.492   5.102 -0.4729  0.9857  0.4090
  190SAPI  C21521900   6.358   2.396   4.974 -0.6882 -0.0940 -0.5857
  190SAPI  H15R21901   6.425   2.409   4.887  1.1610  2.6188  1.0916
  190SAPI  C21621902   6.222   2.344   4.940  0.4623  0.5937 -0.1938
  190SAPI  H16R21903   6.158   2.359   5.029 -1.2502  3.9042 -1.7918
  190SAPI  H16S21904   6.213   2.235   4.920 -1.8879  0.3885  1.5522
  190SAPI  C21721905   6.146   2.419   4.828  0.3264 -0.6131  0.3252
  190SAPI  H17R21906   6.117   2.517   4.871 -2.9021 -1.3815  0.1443
  190SAPI  H17S21907   6.055   2.362   4.798  1.4987 -2.2058 -0.3208
  190SAPI  C21821908   6.222   2.447   4.695  0.2273 -0.5516 -0.2181
  190SAPI  H18R21909   6.260   2.354   4.648  1.8157 -0.0246 -0.0259
  190SAPI  H18S21910   6.314   2.500   4.728  0.7876 -0.6730 -1.5223
  190SAPI  C21921911   6.148   2.530   4.595 -0.3214  0.1077 -0.4524
  190SAPI  H19R21912   6.144   2.635   4.630  0.0598 -0.0307  0.0157
  190SAPI  H19S21913   6.043   2.493   4.590 -0.2900 -0.1454  0.6418
  190SAPI  C22021914   6.202   2.535   4.451 -0.5677 -0.9618 -0.2417
  190SAPI  H20R21915   6.153   2.613   4.390  2.7102  1.6402  0.1772
  190SAPI  H20S21916   6.196   2.434   4.403 -1.8142 -0.7211 -0.6221
  190SAPI  H20T21917   6.309   2.565   4.456 -0.8748  0.0495  0.3560
  190SAPI   C3321918   5.880   2.821   6.042  0.0294  0.7059 -0.6809
  190SAPI   H3X21919   5.987   2.851   6.029 -0.0708  1.4734  0.1579
  190SAPI   H3Y21920   5.825   2.917   6.053 -0.2984  0.2998  1.6493
  190SAPI   C3421921   5.839   2.760   5.907  0.5740  0.1498 -0.3920
  190SAPI   H4X21922   5.730   2.739   5.903  0.9031 -1.6907 -0.2211
  190SAPI   H4Y21923   5.895   2.664   5.911 -1.5618 -1.1008  1.9002
  190SAPI   C3521924   5.891   2.832   5.779  0.0428 -0.0910  0.1118
  190SAPI   H5X21925   5.981   2.890   5.809 -0.0655 -0.2723  0.7926
  190SAPI   H5Y21926   5.821   2.911   5.743  1.6756  0.6457 -1.6405
  190SAPI   C3621927   5.907   2.721   5.673 -1.0515  0.4483 -0.0906
  190SAPI   H6X21928   5.806   2.683   5.645 -1.2005 -2.2090  3.4432
  190SAPI   H6Y21929   5.952   2.634   5.724 -1.6249  1.0760  1.5426
  190SAPI   C3721930   5.985   2.767   5.545 -0.9649  0.3834 -0.0365
  190SAPI   H7X21931   5.996   2.679   5.477 -1.7614  0.6163 -0.4789
  190SAPI   H7Y21932   6.079   2.810   5.584 -0.5944 -1.3214  1.0759
  190SAPI   C3821933   5.908   2.875   5.471 -0.2563 -0.5691 -0.8447
  190SAPI   H8X21934   5.890   2.959   5.541  1.1589 -0.7753 -0.2028
  190SAPI   H8Y21935   5.809   2.833   5.442 -1.4823  1.1975  0.5168
  190SAPI   C3921936   5.973   2.935   5.343  0.7569 -1.0591 -0.0218
  190SAPI   H9X21937   6.080   2.942   5.373  1.5950 -4.7044 -1.5382
  190SAPI   H9Y21938   5.920   3.027   5.311  1.5216  0.2812  2.3210
  190SAPI  C31021939   5.956   2.831   5.228  0.0467  0.0274  0.2639
  190SAPI  H10X21940   5.851   2.827   5.191  0.6687  0.5512 -1.6945
  190SAPI  H10Y21941   5.999   2.734   5.260  1.3486  0.8882  1.1787
  190SAPI  C31121942   6.034   2.874   5.106 -0.3048  0.8322  0.4425
  190SAPI  H11X21943   6.142   2.880   5.134 -0.6435  3.0488  1.4767
  190SAPI  H11Y21944   5.998   2.971   5.066  0.7492  0.0368 -2.7253
  190SAPI  C31221945   6.012   2.772   4.992 -0.3916  0.3042  0.9188
  190SAPI  H12X21946   5.907   2.786   4.956  0.4897  1.3873 -1.4391
  190SAPI  H12Y21947   6.006   2.666   5.025 -0.6753 -0.0649 -0.2557
  190SAPI  C31321948   6.103   2.787   4.874 -0.9120 -0.1532  0.4163
  190SAPI  H13X21949   6.075   2.720   4.790  1.0214 -0.3702 -0.1053
  190SAPI  H13Y21950   6.201   2.753   4.916 -1.0697 -0.6361  0.4024
  190SAPI  C31421951   6.108   2.931   4.826  0.3011 -0.0767  0.9759
  190SAPI  H14X21952   6.146   3.002   4.902  2.7099  0.4338 -0.5864
  190SAPI  H14Y21953   6.003   2.959   4.804  1.2299  3.0257 -0.0661
  190SAPI  C31521954   6.194   2.952   4.695  0.1563  0.4773  0.1649
  190SAPI  H15X21955   6.160   3.030   4.623  1.2941  0.6764 -0.1843
  190SAPI  H15Y21956   6.197   2.861   4.631  0.2024  1.5638 -1.4352
  190SAPI  C31621957   6.341   2.974   4.720 -0.4961  0.6817 -0.0830
  190SAPI  H16X21958   6.370   2.899   4.797 -1.9909 -0.4231 -0.5445
  190SAPI  H16Y21959   6.355   3.080   4.750  1.0958  0.3359  0.5020
  190SAPI  C31721960   6.416   2.970   4.589  0.3563  0.0419  0.3155
  190SAPI  H17X21961   6.353   3.022   4.514  0.0683  2.6070  2.2170
  190SAPI  H17Y21962   6.442   2.862   4.576  1.5275  0.3622 -0.1861
  190SAPI  C31821963   6.553   3.047   4.593  0.3982  0.3190  0.3959
  190SAPI  H18X21964   6.615   3.033   4.502 -1.0868 -1.2677 -0.4328
  190SAPI  H18Y21965   6.623   3.008   4.671  0.1380  0.4661  0.7017
  190SAPI  H18Z21966   6.549   3.157   4.604  1.8515  0.5061 -0.6532
  191SAPI   C1221967   1.209   4.517   1.832 -0.5748  0.9756 -0.0195
  191SAPI    H221968   1.148   4.590   1.890 -0.6074  0.3314  0.7848
  191SAPI    O221969   1.212   4.558   1.701 -0.0061 -0.3810  0.1722
  191SAPI   HO221970   1.122   4.533   1.679 -0.1301  0.3543 -0.1882
  191SAPI   C1321971   1.351   4.498   1.887 -0.1903 -0.2366  0.2775
  191SAPI    H321972   1.339   4.449   1.986  1.3418 -1.5188 -0.1232
  191SAPI    O321973   1.399   4.630   1.902 -0.1423  0.0978  0.6054
  191SAPI   HO321974   1.366   4.656   1.988 -1.9361 -1.0293  0.3171
  191SAPI   C1421975   1.438   4.413   1.802 -0.1896  0.5417 -0.1788
  191SAPI    H421976   1.439   4.461   1.702 -3.5699 -0.9612 -1.0979
  191SAPI    O421977   1.571   4.391   1.853  0.4940 -0.1274 -0.3178
  191SAPI   HO421978   1.598   4.309   1.810  0.5381  0.5754 -1.7003
  191SAPI   C1521979   1.371   4.276   1.785  0.1265 -0.0129 -0.3317
  191SAPI    H521980   1.393   4.222   1.879  0.3756  2.9312  1.4523
  191SAPI    O521981   1.430   4.211   1.678 -0.6310  0.3599  0.0772
  191SAPI   HO521982   1.497   4.148   1.704 -1.6556 -0.6211  0.3931
  191SAPI   C1621983   1.218   4.266   1.779  0.3370  0.3497  1.2749
  191SAPI    H621984   1.191   4.278   1.671 -0.4468  1.9929  1.6102
  191SAPI    O621985   1.173   4.138   1.817 -0.2259  0.1470 -0.3477
  191SAPI   HO621986   1.156   4.132   1.912  2.8093 -2.1731  0.2125
  191SAPI   C1121987   1.137   4.379   1.847 -0.2054  0.5122  0.0150
  191SAPI    H121988   1.139   4.357   1.956  0.1387  0.4199 -0.0098
  191SAPI     P21989   0.877   4.352   1.901  0.1841 -0.5569  0.0803
  191SAPI   O1321990   0.914   4.242   1.992  0.4367  0.6196  0.1091
  191SAPI   O1421991   0.761   4.327   1.814  0.4637 -0.2525 -0.3816
  191SAPI   O1221992   1.006   4.390   1.800 -0.2893  0.2409 -0.1644
  191SAPI   O1121993   0.855   4.486   1.976 -0.0044  0.5677 -0.0733
  191SAPI    C121994   0.713   4.527   1.999 -0.0468 -0.1257  0.0566
  191SAPI    HA21995   0.710   4.638   1.999 -1.9751 -0.1421  0.4284
  191SAPI    HB21996   0.644   4.489   1.920  0.7582 -1.4706 -0.0204
  191SAPI    C221997   0.659   4.484   2.138 -0.2159 -0.9052  0.2567
  191SAPI    HS21998   0.737   4.518   2.210  1.0335 -2.6325 -0.2007
  191SAPI   O2121999   0.649   4.340   2.149 -0.0034 -0.6563  0.2505
  191SAPI   C2122000   0.702   4.283   2.252  0.1572 -0.2632 -0.2331
  191SAPI   O2222001   0.762   4.332   2.345  0.4037 -0.6312 -0.4565
  191SAPI   C2222002   0.650   4.137   2.247 -0.4277 -0.8138  0.1965
  191SAPI   H2R22003   0.548   4.129   2.205  1.2042 -3.7147 -3.8441
  191SAPI   H2S22004   0.711   4.088   2.168 -0.2742 -2.0632  1.0665
  191SAPI    C322005   0.525   4.546   2.176 -0.5674  0.3551  0.2705
  191SAPI    HX22006   0.439   4.510   2.115 -1.0932 -1.3351  1.8998
  191SAPI    HY22007   0.524   4.654   2.152 -0.6218  0.5511  1.1247
  191SAPI   O3122008   0.495   4.529   2.316 -0.6221 -0.1485  0.5287
  191SAPI   C3122009   0.388   4.455   2.340  0.1500  0.3060  0.0772
  191SAPI   O3222010   0.312   4.405   2.258  0.2948 -0.5879 -0.3266
  191SAPI   C3222011   0.360   4.445   2.485 -0.2172 -0.2654 -0.3393
  191SAPI   H2X22012   0.445   4.411   2.548 -1.0866 -0.8456  0.5356
  191SAPI   H2Y22013   0.283   4.365   2.483  0.9540 -1.4537 -2.7051
  191SAPI   C2322014   0.662   4.068   2.384 -0.7118 -0.1973 -0.2856
  191SAPI   H3R22015   0.769   4.081   2.413 -0.3943 -2.4909 -0.2908
  191SAPI   H3S22016   0.661   3.957   2.388 -1.8091 -0.1547  2.9734
  191SAPI   C2422017   0.569   4.128   2.492 -0.8177 -0.3413 -0.5177
  191SAPI   H4R22018   0.570   4.238   2.481  0.0302 -0.2193  0.5312
  191SAPI   H4S22019   0.609   4.114   2.595  0.0519  3.5643 -0.1704
  191SAPI   C2522020   0.428   4.075   2.494 -0.2674  0.0974  0.2698
  191SAPI   H5R22021   0.384   4.048   2.397  3.6288 -3.5216 -0.8060
  191SAPI   C2622022   0.363   4.039   2.603 -0.4285  0.6114  0.0607
  191SAPI   H6R22023   0.266   3.988   2.590  0.9067 -1.7488 -1.3850
  191SAPI   C2722024   0.415   4.052   2.746  0.5475  0.4788  0.3680
  191SAPI   H7R22025   0.454   4.154   2.766  0.1260  1.0259 -1.3804
  191SAPI   H7S22026   0.505   3.987   2.743  1.2186  1.4295 -0.9428
  191SAPI   C2822027   0.322   4.014   2.848 -0.2661 -0.2935 -0.9939
  191SAPI   H8R22028   0.246   3.942   2.815 -0.8992  0.7353 -1.8333
  191SAPI   C2922029   0.313   4.060   2.978 -0.3712  0.1211  0.1871
  191SAPI   H9R22030   0.238   4.010   3.040 -2.3870 -0.8182 -2.8407
  191SAPI  C21022031   0.408   4.147   3.051 -0.3019 -0.1587 -0.4225
  191SAPI  H10R22032   0.493   4.191   2.994  1.0850 -0.3797  1.3689
  191SAPI  H10S22033   0.454   4.087   3.132 -0.4766  2.1885  1.5437
  191SAPI  C21122034   0.328   4.253   3.119 -0.0135  0.8938 -0.1325
  191SAPI  H11R22035   0.248   4.285   3.052 -1.0084  2.5685  1.7492
  191SAPI  C21222036   0.356   4.324   3.231 -0.2045 -0.1538 -0.1273
  191SAPI  H12R22037   0.278   4.389   3.274 -0.7109 -1.9634  1.8612
  191SAPI  C21322038   0.477   4.297   3.322 -0.3408 -0.3941  0.0678
  191SAPI  H13R22039   0.555   4.262   3.252 -1.0733 -1.1533 -0.3864
  191SAPI  H13S22040   0.454   4.227   3.405 -2.5024  0.1535 -0.0088
  191SAPI  C21422041   0.507   4.430   3.389 -0.3810  0.0052 -0.6716
  191SAPI  H14R22042   0.530   4.510   3.317  2.2126 -0.8875 -0.9261
  191SAPI  C21522043   0.512   4.448   3.523  0.5680 -0.1345  0.4599
  191SAPI  H15R22044   0.536   4.550   3.557 -1.4103  1.0643 -1.5438
  191SAPI  C21622045   0.507   4.346   3.636 -0.1923  0.0517  0.5759
  191SAPI  H16R22046   0.592   4.274   3.642 -2.3748 -2.6127  1.7657
  191SAPI  H16S22047   0.425   4.273   3.618 -0.1208  0.0208  0.3733
  191SAPI  C21722048   0.499   4.392   3.779  0.1050 -0.6892  0.1389
  191SAPI  H17R22049   0.475   4.306   3.845 -1.3873  1.1806  2.2136
  191SAPI  H17S22050   0.422   4.471   3.765  1.1337 -0.1658 -3.2804
  191SAPI  C21822051   0.629   4.459   3.840  0.0850  0.7425 -0.5107
  191SAPI  H18R22052   0.671   4.529   3.765  1.0991  1.7696  0.9522
  191SAPI  H18S22053   0.716   4.396   3.869  1.8950  2.5675 -1.6766
  191SAPI  C21922054   0.600   4.541   3.970  0.0884 -0.3936  0.5543
  191SAPI  H19R22055   0.493   4.571   3.960  0.7000  1.6705 -0.3841
  191SAPI  H19S22056   0.667   4.630   3.963 -0.4670  0.0170  0.3367
  191SAPI  C22022057   0.630   4.467   4.096 -0.4134  0.7231 -0.5427
  191SAPI  H20R22058   0.602   4.534   4.180 -1.8767 -0.0169 -0.4016
  191SAPI  H20S22059   0.734   4.429   4.105  0.0631  2.2180  0.5209
  191SAPI  H20T22060   0.569   4.376   4.115  1.5215  0.0531  3.9364
  191SAPI   C3322061   0.299   4.569   2.559 -0.2015  1.3344  0.2533
  191SAPI   H3X22062   0.227   4.623   2.493 -1.2231  0.0446  0.2700
  191SAPI   H3Y22063   0.384   4.632   2.591  0.3589 -0.2466  2.0219
  191SAPI   C3422064   0.218   4.531   2.687 -0.2901  0.6671 -0.7563
  191SAPI   H4X22065   0.271   4.456   2.749 -1.7533  0.5968  0.4710
  191SAPI   H4Y22066   0.129   4.472   2.658 -0.1370 -0.5805  1.1778
  191SAPI   C3522067   0.180   4.659   2.767  0.1476  0.4703 -0.4948
  191SAPI   H5X22068   0.091   4.709   2.723 -0.2520 -0.3812 -0.6716
  191SAPI   H5Y22069   0.265   4.729   2.760 -0.3969  1.2707  0.5785
  191SAPI   C3622070   0.145   4.635   2.912 -0.1237  0.2321  0.0712
  191SAPI   H6X22071   0.121   4.725   2.973  1.3918  0.6549  0.0801
  191SAPI   H6Y22072   0.236   4.591   2.958 -1.5808 -0.2586  2.7280
  191SAPI   C3722073   0.031   4.525   2.937 -0.1757 -0.1857  0.4680
  191SAPI   H7X22074   0.078   4.426   2.919 -2.4994 -1.6369  1.8224
  191SAPI   H7Y22075  -0.061   4.540   2.876 -1.3214  0.6666  2.3026
  191SAPI   C3822076  -0.009   4.521   3.085  0.2015  0.5679 -0.3774
  191SAPI   H8X22077  -0.063   4.613   3.116 -0.5912 -0.1057  0.2910
  191SAPI   H8Y22078   0.072   4.518   3.162 -0.0378  0.7532 -0.1189
  191SAPI   C3922079  -0.098   4.399   3.119 -0.4934  0.2018  0.2120
  191SAPI   H9X22080  -0.036   4.310   3.093  2.1167  0.8267  3.5709
  191SAPI   H9Y22081  -0.186   4.396   3.051 -1.5744 -0.3969  1.5983
  191SAPI  C31022082  -0.143   4.386   3.266 -0.2322  0.3660  0.0711
  191SAPI  H10X22083  -0.050   4.381   3.326  0.2949 -0.8847 -0.8158
  191SAPI  H10Y22084  -0.214   4.301   3.274 -0.6811  0.7675  0.4067
  191SAPI  C31122085  -0.230   4.509   3.316 -0.3007 -0.6105 -0.1817
  191SAPI  H11X22086  -0.312   4.537   3.247  0.3192  0.7835 -0.3857
  191SAPI  H11Y22087  -0.163   4.597   3.318  2.1276 -2.3226  2.4551
  191SAPI  C31222088  -0.283   4.492   3.458 -0.3325  0.1459  0.6588
  191SAPI  H12X22089  -0.356   4.408   3.457  0.6937 -0.8568  2.7197
  191SAPI  H12Y22090  -0.336   4.580   3.500 -2.4640 -0.5838 -0.3690
  191SAPI  C31322091  -0.177   4.449   3.566 -0.0700  0.0752 -0.0289
  191SAPI  H13X22092  -0.087   4.513   3.557 -0.1768  0.4051  1.0515
  191SAPI  H13Y22093  -0.146   4.345   3.541 -1.3243 -0.2314 -0.3805
  191SAPI  C31422094  -0.223   4.449   3.715  0.0494 -0.5046 -0.0785
  191SAPI  H14X22095  -0.257   4.554   3.725 -0.6806 -0.5238 -1.9681
  191SAPI  H14Y22096  -0.131   4.433   3.775  0.5803  1.7120 -0.2011
  191SAPI  C31522097  -0.332   4.341   3.740 -0.9367  0.0010 -0.2652
  191SAPI  H15X22098  -0.318   4.248   3.681 -1.4617 -0.5908  0.5143
  191SAPI  H15Y22099  -0.420   4.380   3.684 -0.2638 -0.8818 -2.0105
  191SAPI  C31622100  -0.374   4.331   3.886 -0.1689 -0.2696  0.1911
  191SAPI  H16X22101  -0.475   4.286   3.892  0.1792 -1.2409 -0.7843
  191SAPI  H16Y22102  -0.383   4.428   3.938  0.4990 -1.0614  1.8455
  191SAPI  C31722103  -0.277   4.246   3.972  0.3188 -0.6552 -0.8503
  191SAPI  H17X22104  -0.189   4.220   3.910  0.5087  2.0776 -1.8735
  191SAPI  H17Y22105  -0.312   4.145   4.004  1.3330 -0.5548  0.6785
  191SAPI  C31822106  -0.238   4.324   4.105 -0.4282  0.3375 -0.1179
  191SAPI  H18X22107  -0.325   4.365   4.161  0.4684  1.3772  0.5600
  191SAPI  H18Y22108  -0.178   4.412   4.073 -0.1423 -0.0258 -0.5968
  191SAPI  H18Z22109  -0.162   4.264   4.161  0.0167  0.3714 -0.6823
  192SAPI   C1222110   3.131   0.097   1.987  0.3526 -0.5397  0.2044
  192SAPI    H222111   3.228   0.045   1.968 -0.6214 -2.2974 -0.1444
  192SAPI    O222112   3.071   0.117   1.858 -0.8709 -0.2559  0.1318
  192SAPI   HO222113   3.048   0.033   1.818 -0.9851 -0.1505 -0.0237
  192SAPI   C1322114   3.049   0.003   2.069  0.0333 -0.3779 -0.8932
  192SAPI    H322115   3.100  -0.011   2.167 -0.6419 -3.8404 -0.8994
  192SAPI    O322116   3.056  -0.130   2.011 -0.3654 -0.1305  0.0432
  192SAPI   HO322117   3.103  -0.181   2.077 -1.1336  0.7962  1.3573
  192SAPI   C1422118   2.913   0.062   2.090  0.4862  0.3700  0.1825
  192SAPI    H422119   2.857   0.044   1.996 -0.0409 -1.9991  0.8719
  192SAPI    O422120   2.851  -0.007   2.192  0.7202 -0.4764  0.1282
  192SAPI   HO422121   2.802  -0.083   2.159 -0.0243  0.3609 -0.7714
  192SAPI   C1522122   2.905   0.212   2.118  0.4277 -0.7790  1.1973
  192SAPI    H522123   2.875   0.224   2.224  0.4553  1.0264  1.0263
  192SAPI    O522124   2.787   0.265   2.053  0.4935 -0.4775  0.0677
  192SAPI   HO522125   2.721   0.286   2.120  1.1601 -0.3634  0.7127
  192SAPI   C1622126   3.024   0.301   2.090 -0.4786 -0.5948 -0.7984
  192SAPI    H622127   3.005   0.372   2.007  0.4817  1.3848  0.5867
  192SAPI    O622128   3.047   0.404   2.192 -0.1319 -0.1287  0.5953
  192SAPI   HO622129   3.117   0.382   2.254  2.2579  1.1471 -1.4872
  192SAPI   C1122130   3.153   0.228   2.057 -0.3623  0.0722 -0.0769
  192SAPI    H122131   3.189   0.200   2.158  0.5417  1.5890  0.0475
  192SAPI     P22132   3.409   0.286   1.994  0.0136 -0.5912 -0.3841
  192SAPI   O1322133   3.476   0.390   1.921  0.1261 -0.1577 -0.2367
  192SAPI   O1422134   3.452   0.149   1.977 -0.0454  0.6691 -0.0161
  192SAPI   O1222135   3.244   0.312   1.985  1.0326  0.4550 -0.6511
  192SAPI   O1122136   3.427   0.318   2.152 -0.7270  0.5840 -0.4610
  192SAPI    C122137   3.542   0.281   2.225 -0.5287 -0.1142  0.1608
  192SAPI    HA22138   3.630   0.277   2.157 -0.0416  0.8370  0.7047
  192SAPI    HB22139   3.572   0.355   2.302 -0.0216 -0.8811  0.7099
  192SAPI    C222140   3.524   0.145   2.305  0.0816  0.1993  0.5877
  192SAPI    HS22141   3.547   0.072   2.225  0.8401  3.1589 -2.1408
  192SAPI   O2122142   3.389   0.142   2.362 -0.2298  0.7957  0.3786
  192SAPI   C2122143   3.362   0.025   2.426  0.3214  0.7990 -0.1190
  192SAPI   O2222144   3.417  -0.080   2.405 -0.1978  0.8752  0.3500
  192SAPI   C2222145   3.263   0.048   2.535 -0.1168 -0.5264 -0.0452
  192SAPI   H2R22146   3.323   0.101   2.612 -1.0629  1.3462 -0.5196
  192SAPI   H2S22147   3.192   0.123   2.494  1.0342 -0.4456 -2.0144
  192SAPI    C322148   3.632   0.123   2.418  0.0346  0.3994  0.0439
  192SAPI    HX22149   3.723   0.113   2.356 -1.3795  0.5341 -2.1501
  192SAPI    HY22150   3.628   0.031   2.480  3.5280  0.4500  0.5820
  192SAPI   O3122151   3.650   0.231   2.506 -0.1084 -0.0405  0.8892
  192SAPI   C3122152   3.773   0.251   2.548 -0.3483 -0.9772 -0.6685
  192SAPI   O3222153   3.868   0.174   2.534 -0.1348 -0.2867 -0.2074
  192SAPI   C3222154   3.785   0.396   2.595 -0.7507 -0.0191  0.0393
  192SAPI   H2X22155   3.686   0.436   2.626 -0.3621  0.2595  0.9763
  192SAPI   H2Y22156   3.833   0.459   2.517 -2.2144  1.2002  0.0816
  192SAPI   C2322157   3.187  -0.084   2.579 -0.2424  0.0925  0.4871
  192SAPI   H3R22158   3.255  -0.171   2.569 -1.4089 -0.9069  1.0280
  192SAPI   H3S22159   3.100  -0.103   2.512 -0.4840  2.4878  0.0225
  192SAPI   C2422160   3.147  -0.082   2.726  0.1951 -0.2597 -0.3015
  192SAPI   H4R22161   3.244  -0.083   2.780  0.2177 -0.6512 -0.3462
  192SAPI   H4S22162   3.092  -0.175   2.749  0.4747 -0.0997  1.0988
  192SAPI   C2522163   3.068   0.033   2.765  0.8056  0.0453 -0.0631
  192SAPI   H5R22164   3.058   0.108   2.685 -0.1996 -0.5006 -0.4655
  192SAPI   C2622165   3.028   0.058   2.891 -0.7452 -0.5392 -0.0929
  192SAPI   H6R22166   2.971   0.151   2.905  1.6636  1.0426 -0.1914
  192SAPI   C2722167   3.047  -0.029   3.015 -0.0148  0.2325 -0.1908
  192SAPI   H7R22168   3.092   0.037   3.093  1.8013  0.7453 -1.5944
  192SAPI   H7S22169   3.129  -0.102   2.998 -1.2246 -1.2999  0.3585
  192SAPI   C2822170   2.925  -0.112   3.052  0.1815 -0.1293  0.2276
  192SAPI   H8R22171   2.883  -0.183   2.980 -0.5238 -0.0873  0.5845
  192SAPI   C2922172   2.868  -0.111   3.176  0.0728 -0.8746  0.0995
  192SAPI   H9R22173   2.790  -0.183   3.204 -2.3824  2.1013  1.5644
  192SAPI  C21022174   2.901  -0.023   3.292 -0.3096  0.2406 -0.1141
  192SAPI  H10R22175   2.961   0.064   3.257 -0.5323  0.8489  0.9603
  192SAPI  H10S22176   2.943  -0.088   3.371  0.7413  0.4844 -0.4655
  192SAPI  C21122177   2.769   0.029   3.340  0.0302  0.2460 -0.3695
  192SAPI  H11R22178   2.713  -0.040   3.406  1.9346 -1.8479 -0.8255
  192SAPI  C21222179   2.713   0.142   3.308  0.2148 -0.5265  0.8378
  192SAPI  H12R22180   2.604   0.156   3.321  0.3288  0.4962  0.7647
  192SAPI  C21322181   2.768   0.252   3.217 -0.5565 -0.4661  0.9509
  192SAPI  H13R22182   2.878   0.256   3.230 -0.4760  2.9264  0.1795
  192SAPI  H13S22183   2.729   0.346   3.261 -1.2982 -1.8959  3.5458
  192SAPI  C21422184   2.757   0.228   3.067  0.3581  0.1759 -0.1344
  192SAPI  H14R22185   2.754   0.126   3.026  0.3140 -0.0658  0.4638
  192SAPI  C21522186   2.742   0.331   2.985  0.5158  0.3017  0.5296
  192SAPI  H15R22187   2.740   0.317   2.876 -0.0557  1.7047  0.3406
  192SAPI  C21622188   2.748   0.475   3.033  0.9045 -0.3701 -0.0527
  192SAPI  H16R22189   2.835   0.489   3.101  0.1893  1.7612  0.4829
  192SAPI  H16S22190   2.665   0.498   3.104  2.2999  3.3368  0.6139
  192SAPI  C21722191   2.724   0.581   2.925 -0.4548  0.1089  0.5979
  192SAPI  H17R22192   2.727   0.684   2.965 -1.5861  1.0808 -1.6155
  192SAPI  H17S22193   2.639   0.569   2.854 -0.5496  0.8439  0.5837
  192SAPI  C21822194   2.846   0.602   2.825 -0.0876  0.4063 -0.1685
  192SAPI  H18R22195   2.864   0.516   2.758  1.0439 -0.6672  1.4348
  192SAPI  H18S22196   2.933   0.621   2.891 -2.4515  1.7125  2.8714
  192SAPI  C21922197   2.818   0.733   2.751 -0.2401 -0.0365  0.5277
  192SAPI  H19R22198   2.842   0.813   2.824  0.0816  0.5958 -0.2559
  192SAPI  H19S22199   2.712   0.746   2.719 -0.2676 -4.2758 -1.8203
  192SAPI  C22022200   2.910   0.761   2.629 -0.3296  0.1101 -0.1243
  192SAPI  H20R22201   2.946   0.865   2.617 -1.3793  0.3851 -0.9938
  192SAPI  H20S22202   2.871   0.715   2.536  2.1281  0.8329 -1.5859
  192SAPI  H20T22203   3.002   0.700   2.642 -1.4492 -1.3929  1.2342
  192SAPI   C3322204   3.884   0.397   2.721 -0.3077 -0.8932 -0.5879
  192SAPI   H3X22205   3.910   0.504   2.741 -1.0303 -1.0239  1.2186
  192SAPI   H3Y22206   3.983   0.354   2.695  0.1595 -0.7186  0.8323
  192SAPI   C3422207   3.814   0.338   2.837  0.2765 -0.4599 -0.2852
  192SAPI   H4X22208   3.803   0.227   2.828  0.4060 -0.5349  0.4101
  192SAPI   H4Y22209   3.717   0.390   2.845 -0.0311 -1.2102  1.2679
  192SAPI   C3522210   3.889   0.356   2.975  0.0832 -0.0845  0.1163
  192SAPI   H5X22211   3.925   0.461   2.972 -2.1658  0.7641 -3.3767
  192SAPI   H5Y22212   3.975   0.285   2.970  0.6312  0.5985 -0.2969
  192SAPI   C3622213   3.800   0.325   3.096  0.3823  0.4148 -0.3357
  192SAPI   H6X22214   3.773   0.218   3.097 -0.0540  0.5233 -0.3461
  192SAPI   H6Y22215   3.708   0.386   3.086  1.0818  1.2541 -2.1868
  192SAPI   C3722216   3.857   0.352   3.237  0.1385  0.6845 -0.1277
  192SAPI   H7X22217   3.875   0.460   3.260  0.2132  0.5343  0.5139
  192SAPI   H7Y22218   3.956   0.305   3.256  0.3168  0.0030 -2.4473
  192SAPI   C3822219   3.765   0.290   3.338  0.3789  0.1929 -0.1304
  192SAPI   H8X22220   3.758   0.181   3.314  1.3134  0.0159  0.3465
  192SAPI   H8Y22221   3.663   0.333   3.335 -0.1304 -0.7102  1.9128
  192SAPI   C3922222   3.804   0.321   3.483  1.1348  0.6005 -0.8988
  192SAPI   H9X22223   3.823   0.429   3.501 -1.7227  0.7236  2.5121
  192SAPI   H9Y22224   3.901   0.270   3.504  0.6053 -0.6276 -1.3461
  192SAPI  C31022225   3.703   0.270   3.590 -0.3417  0.3802  1.2235
  192SAPI  H10X22226   3.658   0.178   3.547 -1.5101  0.7872  1.5351
  192SAPI  H10Y22227   3.627   0.351   3.578  1.1529  1.8095  1.0178
  192SAPI  C31122228   3.749   0.252   3.734 -0.0390  0.7990  0.3588
  192SAPI  H11X22229   3.857   0.238   3.751 -0.1677 -1.0866 -0.0856
  192SAPI  H11Y22230   3.708   0.155   3.772 -1.8441  0.9549 -1.0128
  192SAPI  C31222231   3.714   0.371   3.833  0.1656  0.0440  0.2038
  192SAPI  H12X22232   3.626   0.430   3.800 -0.0954  0.9766  2.3948
  192SAPI  H12Y22233   3.802   0.439   3.839 -1.0245  1.5463  5.0117
  192SAPI  C31322234   3.693   0.327   3.986 -0.2415 -1.1350  0.2574
  192SAPI  H13X22235   3.669   0.416   4.046  0.2289 -0.4530 -0.5413
  192SAPI  H13Y22236   3.795   0.295   4.019 -0.4672 -2.3738 -0.1787
  192SAPI  C31422237   3.591   0.227   4.017  0.0087 -0.2515 -0.4742
  192SAPI  H14X22238   3.623   0.133   3.967 -3.0169 -1.1961 -0.8417
  192SAPI  H14Y22239   3.491   0.253   3.977  0.7130  2.9193 -0.3788
  192SAPI  C31522240   3.578   0.186   4.165  0.1484  0.1956  0.7702
  192SAPI  H15X22241   3.682   0.184   4.205  0.7607  2.9644 -0.5020
  192SAPI  H15Y22242   3.524   0.089   4.176 -1.2542  0.9640  0.8801
  192SAPI  C31622243   3.522   0.294   4.254 -0.4988 -0.0682 -0.5551
  192SAPI  H16X22244   3.424   0.327   4.214  0.3163 -0.6310 -3.2390
  192SAPI  H16Y22245   3.590   0.383   4.259 -2.4939  1.4650  0.7935
  192SAPI  C31722246   3.497   0.251   4.400 -0.5200 -0.0742 -0.4999
  192SAPI  H17X22247   3.416   0.175   4.398  0.4011 -1.0801 -0.7213
  192SAPI  H17Y22248   3.469   0.345   4.452 -0.9652  0.7308 -2.1285
  192SAPI  C31822249   3.622   0.194   4.478 -0.5068  0.9146  0.1739
  192SAPI  H18X22250   3.598   0.141   4.572  0.7684  0.4820  0.2743
  192SAPI  H18Y22251   3.696   0.273   4.504 -2.6192  2.8359  0.7068
  192SAPI  H18Z22252   3.690   0.133   4.414  0.6840  1.0493  1.2843
  193SOD    SOD22253   2.724   3.769   6.849 -0.0892  0.3846  0.3593
  194SOD    SOD22254   0.030   4.888   1.074  0.1160  0.0754 -0.6340
  195SOD    SOD22255   3.595   1.885   1.425 -0.0087  0.2140  0.3193
  196SOD    SOD22256   5.074   2.727   8.746  0.2076 -0.0150  0.4862
  197SOD    SOD22257   1.807   0.175   0.938  0.1484 -0.0344 -0.4781
  198SOD    SOD22258   3.883   6.024   0.871  0.1181 -0.0188  0.1952
  199SOD    SOD22259   4.119   4.465   0.971 -0.0907 -0.6815  0.1311
  200SOD    SOD22260   0.036   3.304   2.172  0.2768 -0.3647  0.0747
  201SOD    SOD22261   1.298   4.740   1.211 -0.2075  0.1693 -0.1842
  202SOD    SOD22262   0.535   0.747   8.183 -0.3468  0.3253  0.4941
  203SOD    SOD22263   2.354   4.234   0.691  0.8596  0.2314  0.3450
  204SOD    SOD22264   5.121   5.027   1.763 -0.0136  0.0390 -0.5453
  205SOD    SOD22265   1.342   2.000   6.270 -0.1538  0.2098 -0.2892
  206SOD    SOD22266   6.821   5.613   6.443  0.0650 -0.0158 -0.1808
  207SOD    SOD22267   3.151   6.399   8.403  0.7101  0.2037 -0.0128
  208SOD    SOD22268   2.428   6.790   7.507 -0.2091 -0.4179  0.1827
  209SOD    SOD22269   4.334   5.264   1.713  0.1603  0.2736  0.7396
  210SOD    SOD22270   1.476   5.796   8.496 -0.2446  0.8337 -0.4055
  211SOD    SOD22271   6.329   0.323   1.762 -0.5056 -0.4381 -0.0439
  212SOD    SOD22272   3.222   3.651   7.944 -0.2439  0.0053 -0.0989
  213SOD    SOD22273   5.855   5.910   7.541 -0.2122 -0.0773  0.3852
  214SOD    SOD22274   1.852   2.797   6.849  0.0447  0.4303  0.0631
  215SOD    SOD22275   5.286   4.314   6.672 -0.2327 -0.3793  0.3013
  216SOD    SOD22276   0.345   0.290   7.012 -0.2553  0.1502 -0.1147
  217SOD    SOD22277   0.177   0.812   7.403 -0.4719 -0.2349 -0.1963
  218SOD    SOD22278   0.439   6.270   1.505  0.2928  0.0714 -0.3110
  219SOD    SOD22279   1.624   5.776   7.108 -0.0159  0.2379  0.2872
  220SOD    SOD22280   0.982   1.803   7.422 -0.1634  0.2244  0.0011
  221SOD    SOD22281   1.006   3.684   0.397  0.4605 -0.1038  0.0732
  222SOD    SOD22282   3.646   6.684   8.697  0.0756  0.1271  0.0686
  223SOD    SOD22283   4.845   1.846   8.633  0.0871  0.5284  0.0425
  224SOD    SOD22284   5.517   1.564   6.108  0.1602 -0.0605  0.3843
  225SOD    SOD22285   1.872   0.842   7.209 -0.0216  0.0355  0.3988
  226SOD    SOD22286   6.655   1.791   2.230  0.0840  0.0323 -0.0843
  227SOD    SOD22287   4.186   5.214   8.392  0.4088 -0.4284 -0.0424
  228SOD    SOD22288   5.285   0.060   0.874 -0.2871 -0.0937 -0.1782
  229SOD    SOD22289   5.238   2.079   0.261  0.2703 -0.8129  0.1890
  230SOD    SOD22290   6.550   3.642   6.794 -0.4418  0.4157 -0.0521
  231SOD    SOD22291   0.364   5.770   2.140  0.0291 -0.2291 -0.1990
  232SOD    SOD22292   2.842   5.805   2.105 -0.0040 -0.1443 -0.0309
  233SOD    SOD22293   3.386   3.884   0.513  0.0928 -0.2743 -0.0681
  234CLA    CLA22294   5.102   0.952   8.626 -0.2999 -0.0918 -0.1452
  235CLA    CLA22295   6.406   5.885   1.494  0.3336  0.4054  0.0049
  236CLA    CLA22296   5.970   0.295   6.787 -0.2621  0.2613  0.0204
  237CLA    CLA22297   2.783   4.353   1.011  0.3055  0.0949  0.0791
  238CLA    CLA22298   1.334   5.904   8.281 -0.0318 -0.2508  0.0247
  239CLA    CLA22299   0.278   2.155   7.510  0.0117  0.2295 -0.4408
  240CLA    CLA22300   2.599   5.830   0.529  0.2198  0.3731 -0.0367
  241CLA    CLA22301   1.300   6.814   0.008 -0.3680  1.0799 -0.1207
  242CLA    CLA22302   5.090   5.364   7.515  0.2447  0.2122  0.4101
  243CLA    CLA22303   1.011   1.758   0.286  0.2186 -0.1020 -0.3873
  244CLA    CLA22304   6.738   3.581   0.645 -0.0524  0.4841  0.1727
  245CLA    CLA22305   4.359   4.790   8.424  0.0003 -0.2051 -0.6487
  246CLA    CLA22306   5.020   5.685   7.857 -0.4343 -0.0663 -0.1965
  247CLA    CLA22307   4.850   2.654   8.256 -0.1901 -0.1448  0.2121
  248CLA    CLA22308   1.407   4.078   0.791  0.0047  0.1162 -0.0644
  249CLA    CLA22309   4.371   2.240   0.586 -0.2247 -0.6124  0.0965
  250CLA    CLA22310   3.662   2.183   8.613 -0.2756 -0.0417  0.2536
  251TIP3   OH222311   0.254   0.300   1.188 -0.3971 -0.2215 -0.1182
  251TIP3    H122312   0.199   0.231   1.151 -0.1267  0.5291 -2.0381
  251TIP3    H222313   0.192   0.359   1.231 -1.0197  0.1777 -1.5284
  252TIP3   OH222314   2.728   6.286   0.338 -0.2481  0.3707 -0.1320
  252TIP3    H122315   2.750   6.362   0.393  3.2821  0.0701 -0.8565
  252TIP3    H222316   2.718   6.214   0.401  0.9210  0.5960  0.3551
  253TIP3   OH222317   5.277   6.187   6.940 -0.1402  0.0509 -0.0819
  253TIP3    H122318   5.325   6.168   7.021  0.0889  1.5211  0.1575
  253TIP3    H222319   5.345   6.195   6.873 -0.3468 -1.3917 -0.4870
  254TIP3   OH222320   5.010   0.891   0.790 -0.0168  0.3055  0.3297
  254TIP3    H122321   5.088   0.940   0.815  0.1774 -0.4045  1.1661
  254TIP3    H222322   4.936   0.943   0.821  0.2030 -0.2279  1.8198
  255TIP3   OH222323   6.726   4.990   7.217 -0.3091  0.0585  0.0634
  255TIP3    H122324   6.768   5.057   7.270 -0.9980  0.4662  0.1144
  255TIP3    H222325   6.733   4.910   7.268 -1.1206  0.4809  0.8639
  256TIP3   OH222326   3.171   0.236   0.662  0.0598 -0.3352 -0.0060
  256TIP3    H122327   3.111   0.265   0.594 -2.1444 -4.1377  0.0162
  256TIP3    H222328   3.223   0.167   0.621  1.9510  0.4535  0.9763
  257TIP3   OH222329   3.933   3.457   1.688  0.1790  0.1954  0.2400
  257TIP3    H122330   4.020   3.431   1.718  0.3134  1.9999  1.5879
  257TIP3    H222331   3.875   3.387   1.719  0.8561  0.0985  1.3457
  258TIP3   OH222332   3.707   2.183   7.962  0.4962  0.2783  0.1368
  258TIP3    H122333   3.640   2.172   8.029  0.3872  1.3849  0.2224
  258TIP3    H222334   3.668   2.146   7.883  0.5401 -0.8377  0.6082
  259TIP3   OH222335   3.839   1.616   7.609  0.2257 -0.5744  0.1093
  259TIP3    H122336   3.785   1.648   7.682  0.8290  0.0010  0.3154
  259TIP3    H222337   3.895   1.550   7.649  1.9160  1.0936  0.6325
  260TIP3   OH222338   5.011   4.336   0.963  0.1640 -0.1658  0.0484
  260TIP3    H122339   4.995   4.430   0.971 -0.7545 -0.3601  0.6702
  260TIP3    H222340   5.035   4.324   0.872 -1.1941  0.4743 -0.4215
  261TIP3   OH222341   2.506   5.405   0.250 -0.2722  0.6445  0.6355
  261TIP3    H122342   2.597   5.428   0.231 -0.0798 -0.7413 -0.2945
  261TIP3    H222343   2.455   5.456   0.187 -0.0359  0.4551  0.2860
  262TIP3   OH222344   2.810   2.701   8.287 -0.0153  0.3786  0.2146
  262TIP3    H122345   2.839   2.703   8.196  2.4734 -0.5690  0.9263
  262TIP3    H222346   2.716   2.682   8.281 -0.5854  3.1819 -2.2031
  263TIP3   OH222347   1.847   1.712   8.163  0.2586  0.4430  0.4882
  263TIP3    H122348   1.777   1.758   8.115  0.9195  0.7418 -0.2143
  263TIP3    H222349   1.916   1.778   8.173  0.5944  0.0385  0.8441
  264TIP3   OH222350   4.904   5.679   7.157  0.0175 -0.2234  0.3648
  264TIP3    H122351   4.867   5.653   7.241  0.7027 -1.8230  0.2162
  264TIP3    H222352   4.840   5.650   7.092  1.0097 -2.1331  0.1671
  265TIP3   OH222353   4.411   4.415   7.666 -0.3484  0.5000 -0.6189
  265TIP3    H122354   4.350   4.487   7.682  0.4551  1.4831 -1.8420
  265TIP3    H222355   4.460   4.407   7.748  0.8733  2.6664 -1.0807
  266TIP3   OH222356   5.960   3.225   7.562 -0.2732  0.1939 -0.1298
  266TIP3    H122357   5.865   3.235   7.569 -0.1462  0.9373  0.8443
  266TIP3    H222358   5.975   3.131   7.567 -0.9713  0.0606 -0.4522
  267TIP3   OH222359   4.735   0.509   2.290 -0.2004  0.1537 -0.4597
  267TIP3    H122360   4.828   0.484   2.285 -0.4969 -1.3566  0.7620
  267TIP3    H222361   4.732   0.596   2.250  2.1861  1.4311  1.8071
  268TIP3   OH222362   3.823   6.225   6.139  0.0463  0.0352 -0.4440
  268TIP3    H122363   3.837   6.138   6.177  1.2421  0.9650  1.3855
  268TIP3    H222364   3.829   6.211   6.044 -2.6746 -2.3369 -0.4112
  269TIP3   OH222365   1.909   0.644   1.216  0.2972 -0.0522  0.0437
  269TIP3    H122366   1.873   0.561   1.246 -0.0433 -0.4148 -1.2993
  269TIP3    H222367   1.997   0.647   1.254  0.4346 -1.1771 -0.1571
  270TIP3   OH222368   1.000   0.379   0.799 -0.0746 -0.2275 -0.0803
  270TIP3    H122369   1.081   0.389   0.849 -1.2046  2.0334  1.4921
  270TIP3    H222370   1.010   0.440   0.726 -0.2709 -0.0787  0.0152
  271TIP3   OH222371   4.199   3.987   0.572 -0.1039 -0.4298 -0.0562
  271TIP3    H122372   4.202   3.904   0.524  0.2286 -1.0773  1.0625
  271TIP3    H222373   4.198   3.961   0.664 -0.8027  0.7917  0.2925
  272TIP3   OH222374   6.505   2.729   2.237 -0.1348 -0.6499 -0.4958
  272TIP3    H122375   6.523   2.784   2.313 -0.0151  0.4886 -1.3300
  272TIP3    H222376   6.410   2.736   2.225 -0.1496 -0.8065 -0.4728
  273TIP3   OH222377   4.609   3.506   7.505  0.0335 -0.2630  0.1014
  273TIP3    H122378   4.698   3.535   7.482 -0.1247  1.0935  1.0458
  273TIP3    H222379   4.591   3.434   7.445  1.1404  0.5257 -1.2478
  274TIP3   OH222380   5.271   4.956   7.486  0.2008 -0.0216  0.3566
  274TIP3    H122381   5.279   4.958   7.582  0.6977 -2.5194  0.4335
  274TIP3    H222382   5.361   4.958   7.454  0.1655 -1.8183  0.0829
  275TIP3   OH222383   1.796   3.465   1.236  0.2027 -0.8853  0.0837
  275TIP3    H122384   1.815   3.403   1.306 -0.2367  0.2672  1.2794
  275TIP3    H222385   1.773   3.546   1.282 -1.9938 -0.6047 -1.3291
  276TIP3   OH222386   0.123   3.715   1.728 -0.3752 -0.2269 -0.3117
  276TIP3    H122387   0.156   3.803   1.715 -0.4898 -0.3983 -1.9663
  276TIP3    H222388   0.200   3.663   1.750 -0.3196  0.2768  0.7475
  277TIP3   OH222389   4.047   4.388   8.546 -0.0292 -0.0189  0.2689
  277TIP3    H122390   4.065   4.296   8.525  0.6509  0.3392 -0.8309
  277TIP3    H222391   3.961   4.386   8.588 -0.5623 -1.0528 -0.7741
  278TIP3   OH222392   3.131   5.689   6.804 -0.1693 -0.0168  0.2916
  278TIP3    H122393   3.184   5.762   6.771 -1.1740  1.2493  1.3648
  278TIP3    H222394   3.133   5.625   6.733  2.3307  0.1922  0.0719
  279TIP3   OH222395   4.513   3.147   0.450  0.1166  0.0936  0.0926
  279TIP3    H122396   4.467   3.081   0.502  0.4128 -0.8071 -0.7407
  279TIP3    H222397   4.554   3.097   0.379  1.3480  1.0256  0.1066
  280TIP3   OH222398   1.952   6.150   0.156 -0.5285  0.7162 -0.1821
  280TIP3    H122399   1.860   6.127   0.147 -0.7877  1.3360  0.7775
  280TIP3    H222400   1.977   6.119   0.243  0.5983 -0.8060 -0.9933
  281TIP3   OH222401   0.921   1.002   6.066  0.1908  0.0515 -0.2845
  281TIP3    H122402   0.865   0.983   6.141 -1.5003 -1.0148 -1.7096
  281TIP3    H222403   0.871   1.065   6.014  1.2000  0.5570 -0.6699
  282TIP3   OH222404   0.349   0.241   7.895  0.1571 -0.5076 -0.5891
  282TIP3    H122405   0.304   0.263   7.814 -1.2031 -1.8566 -0.2431
  282TIP3    H222406   0.316   0.303   7.959  0.7594  0.1578 -0.9145
  283TIP3   OH222407   0.762   0.964   8.441  0.0225 -0.6108 -0.4295
  283TIP3    H122408   0.854   0.970   8.468  0.3112  0.3757 -1.5252
  283TIP3    H222409   0.764   0.980   8.346 -1.2780 -0.5912 -0.4731
  284TIP3   OH222410   0.980   6.452   7.597  0.1527  0.1604 -0.3627
  284TIP3    H122411   1.008   6.444   7.688 -1.2099 -0.0881  0.0582
  284TIP3    H222412   1.018   6.375   7.554 -0.2938 -0.4550  0.3092
  285TIP3   OH222413   4.081   0.717   6.873  0.0569 -0.0609 -0.3448
  285TIP3    H122414   4.019   0.781   6.909 -0.2966  0.8262 -2.3933
  285TIP3    H222415   4.149   0.710   6.940 -2.5614 -1.7384  2.4057
  286TIP3   OH222416   1.684   6.683   6.933  0.4259  0.3228 -0.1332
  286TIP3    H122417   1.627   6.758   6.918  2.2416  1.7752 -0.0920
  286TIP3    H222418   1.729   6.703   7.015  0.6655 -0.9936  0.0755
  287TIP3   OH222419   3.156   4.824   1.332  0.0145  0.3728  1.1219
  287TIP3    H122420   3.160   4.781   1.417 -0.3996 -0.1755  0.8682
  287TIP3    H222421   3.089   4.892   1.343  0.4681  0.7776  1.4375
  288TIP3   OH222422   2.242   3.354   8.402 -1.1350  0.2836 -0.5370
  288TIP3    H122423   2.208   3.267   8.380  0.2432 -0.4185 -0.0001
  288TIP3    H222424   2.270   3.391   8.318  1.3662 -1.1818 -0.4494
  289TIP3   OH222425   2.517   3.711   7.291  0.3870 -1.1318  0.0205
  289TIP3    H122426   2.512   3.621   7.323  0.9769 -1.0907  0.2288
  289TIP3    H222427   2.590   3.750   7.339 -0.5508 -0.2126  0.7511
  290TIP3   OH222428   6.160   2.633   7.733  0.2318 -0.2086  0.1946
  290TIP3    H122429   6.071   2.613   7.705  1.7358 -2.6595 -3.5392
  290TIP3    H222430   6.173   2.724   7.708 -0.5396 -0.5008 -1.4040
  291TIP3   OH222431   2.698   3.892   6.641 -0.0680 -0.8945  0.4476
  291TIP3    H122432   2.712   3.986   6.644 -0.4148 -0.8136 -0.2387
  291TIP3    H222433   2.736   3.864   6.557 -0.1047 -1.3387  0.5735
  292TIP3   OH222434   3.992   3.505   6.359 -0.0542 -0.1808  0.3649
  292TIP3    H122435   4.027   3.453   6.286 -0.0297  2.0998 -1.3338
  292TIP3    H222436   3.897   3.494   6.353 -0.0757  0.3038 -0.2688
  293TIP3   OH222437   1.005   2.734   1.631 -0.2792 -0.4654  0.0828
  293TIP3    H122438   0.977   2.812   1.582 -2.0855 -1.4926 -0.6360
  293TIP3    H222439   1.054   2.768   1.706  0.1487  1.2805 -0.9334
  294TIP3   OH222440   6.476   4.198   7.260 -0.4264 -0.0696  0.9405
  294TIP3    H122441   6.491   4.172   7.351 -1.2770 -1.1653  0.7923
  294TIP3    H222442   6.521   4.282   7.251  1.1560 -0.7610  1.8977
  295TIP3   OH222443   5.839   0.719   1.461  0.0174 -0.0794 -0.5017
  295TIP3    H122444   5.892   0.669   1.399  0.3818  0.2427 -0.4511
  295TIP3    H222445   5.845   0.669   1.543  0.2690 -0.0262 -0.4873
  296TIP3   OH222446   3.315   2.146   0.470  0.4778  0.4029 -0.3326
  296TIP3    H122447   3.408   2.161   0.455  0.7569 -2.2654 -1.8479
  296TIP3    H222448   3.276   2.147   0.383 -0.8417  0.9253  0.2364
  297TIP3   OH222449   0.541   1.382   1.276 -0.6521 -0.7193 -0.1083
  297TIP3    H122450   0.466   1.325   1.295 -1.3445 -0.2616 -1.3320
  297TIP3    H222451   0.552   1.375   1.181  0.6153 -0.4692  0.0098
  298TIP3   OH222452   3.336   6.536   0.487  0.1764 -0.0058 -0.0958
  298TIP3    H122453   3.246   6.570   0.495 -0.3842 -1.5121  0.4638
  298TIP3    H222454   3.342   6.506   0.397 -0.0870 -0.3826  0.0057
  299TIP3   OH222455   0.445   6.258   0.716 -0.3729  0.7135  0.2272
  299TIP3    H122456   0.375   6.200   0.686 -0.5273  0.5232  0.9399
  299TIP3    H222457   0.513   6.200   0.748  0.1932  0.8959 -0.6129
  300TIP3   OH222458   0.295   2.475   1.092  0.1514  0.2382 -0.1758
  300TIP3    H122459   0.281   2.437   1.178  1.2809 -0.2830 -0.2052
  300TIP3    H222460   0.340   2.558   1.109  1.7495 -0.5529 -0.2868
  301TIP3   OH222461   6.123   6.069   7.015 -0.1480  0.0874  0.1235
  301TIP3    H122462   6.131   5.978   6.986  0.3092  0.1667 -0.0117
  301TIP3    H222463   6.048   6.103   6.966  0.8724  0.3389 -1.3491
  302TIP3   OH222464   6.340   0.961   8.326 -0.1267  0.6625 -0.5442
  302TIP3    H122465   6.305   0.942   8.413  1.4308 -1.8493 -0.3581
  302TIP3    H222466   6.270   1.008   8.282 -1.3311  1.1612  1.7190
  303TIP3   OH222467   2.028   0.454   0.130 -0.1187 -0.2550  0.3630
  303TIP3    H122468   2.052   0.401   0.205 -1.5842 -2.7624 -0.8268
  303TIP3    H222469   1.940   0.426   0.107 -0.8548  2.4717 -0.6251
  304TIP3   OH222470   2.806   5.988   8.271 -0.3420 -0.3407  0.5267
  304TIP3    H122471   2.765   5.902   8.263 -1.1796  0.2179 -1.7374
  304TIP3    H222472   2.798   6.027   8.184  0.7894  1.7019  1.2771
  305TIP3   OH222473   5.402   4.578   0.508  0.1809  0.2397 -0.0876
  305TIP3    H122474   5.360   4.587   0.594  0.0423 -2.4567  0.2196
  305TIP3    H222475   5.346   4.628   0.449 -1.2586 -0.0450  0.9751
  306TIP3   OH222476   3.085   5.884   0.883 -0.1554  0.0271  0.1260
  306TIP3    H122477   3.136   5.807   0.908 -0.0660  0.2643  0.6916
  306TIP3    H222478   3.058   5.923   0.966 -1.0693  0.0339 -0.1730
  307TIP3   OH222479   1.564   3.672   6.671 -0.3118  0.0992 -0.1352
  307TIP3    H122480   1.554   3.577   6.677 -0.8086  0.0935 -0.8852
  307TIP3    H222481   1.498   3.706   6.731  0.3294 -0.0266  0.6605
  308TIP3   OH222482   3.808   1.509   1.665  0.3607 -0.0925  0.3368
  308TIP3    H122483   3.754   1.450   1.718  1.2697 -1.2117  0.0738
  308TIP3    H222484   3.747   1.546   1.601  0.0396 -2.0428 -0.5563
  309TIP3   OH222485   0.104   6.576   6.770  1.0677  1.1518  0.2329
  309TIP3    H122486   0.047   6.635   6.819 -0.5134  2.0371 -2.4693
  309TIP3    H222487   0.178   6.630   6.744  1.5592  0.8660  1.0023
  310TIP3   OH222488   4.890   2.020   6.912  0.7042  0.6953  0.5687
  310TIP3    H122489   4.842   2.038   6.831 -1.8957 -3.9088  0.7655
  310TIP3    H222490   4.956   1.955   6.886 -0.1854 -0.8585  2.0206
  311TIP3   OH222491   6.156   6.564   8.259  0.2801 -0.0595  0.3193
  311TIP3    H122492   6.203   6.496   8.211 -0.1262 -0.3188  0.2743
  311TIP3    H222493   6.223   6.625   8.289  0.6485 -0.4768  0.3445
  312TIP3   OH222494   4.525   3.076   0.845 -0.4997 -0.0350  0.1338
  312TIP3    H122495   4.533   3.040   0.757 -1.7460  0.1393 -0.0698
  312TIP3    H222496   4.431   3.071   0.865 -0.2846  0.2433  1.3164
  313TIP3   OH222497   1.522   1.436   7.399  0.0794  0.4952 -0.3940
  313TIP3    H122498   1.600   1.425   7.346 -0.6650 -0.4186 -1.3384
  313TIP3    H222499   1.486   1.521   7.373 -0.8058 -0.3520 -2.1277
  314TIP3   OH222500   3.102   5.533   6.568 -0.1105  0.1579  0.4725
  314TIP3    H122501   3.051   5.522   6.488  0.0532 -1.0074  0.5053
  314TIP3    H222502   3.056   5.479   6.632  0.7726 -0.3560  0.6859
  315TIP3   OH222503   3.173   6.219   8.562  0.3459 -0.0602 -0.3926
  315TIP3    H122504   3.154   6.149   8.500  2.2397 -1.0673  0.0849
  315TIP3    H222505   3.095   6.222   8.619 -0.0873 -1.2617 -0.8889
  316TIP3   OH222506   4.298   2.591   7.327 -0.2581 -0.3257  0.6668
  316TIP3    H122507   4.241   2.515   7.313  0.9409 -1.1321 -0.0946
  316TIP3    H222508   4.361   2.587   7.255 -1.2461  2.4638 -0.4834
  317TIP3   OH222509   0.795   1.750   6.664  0.0315 -0.2278  0.9798
  317TIP3    H122510   0.726   1.813   6.685 -0.8590 -0.9401  0.2953
  317TIP3    H222511   0.778   1.725   6.573  0.4461 -1.3406  1.1880
  318TIP3   OH222512   5.972   4.109   0.415 -0.8114 -0.4656  0.0986
  318TIP3    H122513   5.956   4.197   0.449 -1.3359  0.4309 -2.2506
  318TIP3    H222514   5.884   4.070   0.408 -0.5496 -1.4407  1.6142
  319TIP3   OH222515   3.936   2.675   0.272  0.1376 -0.0944  0.6529
  319TIP3    H122516   3.964   2.708   0.357 -0.1581  0.1232  0.6676
  319TIP3    H222517   3.841   2.665   0.280  0.3600 -2.6059  1.2463
  320TIP3   OH222518   6.822   6.452   2.533  0.0259  0.0458 -0.3012
  320TIP3    H122519   6.878   6.527   2.514 -1.0012  1.1229  0.7300
  320TIP3    H222520   6.796   6.419   2.447 -0.6943  1.8152 -0.8006
  321TIP3   OH222521   1.545   4.133   8.545  0.1162 -0.5931  0.1760
  321TIP3    H122522   1.479   4.198   8.522  2.9125  2.6332  0.5063
  321TIP3    H222523   1.580   4.103   8.461 -0.4482 -0.8800  0.0380
  322TIP3   OH222524   5.534   6.149   0.640 -0.0740 -0.2519 -0.1852
  322TIP3    H122525   5.446   6.128   0.673  0.1162 -1.0215 -0.1356
  322TIP3    H222526   5.562   6.225   0.691  0.5319 -1.8758  2.0540
  323TIP3   OH222527   4.771   6.030   8.353  0.1984  0.3925  0.1156
  323TIP3    H122528   4.790   6.012   8.261  0.3304  0.9330  0.0286
  323TIP3    H222529   4.814   6.114   8.369 -0.8707  0.9190  0.3222
  324TIP3   OH222530   4.555   2.214   7.104  0.4443 -0.5975 -0.0636
  324TIP3    H122531   4.462   2.221   7.082  0.5079  0.7227  0.0402
  324TIP3    H222532   4.599   2.273   7.042  1.1948 -1.0553  0.0165
  325TIP3   OH222533   5.966   3.092   0.053  0.1571  0.2721 -0.5155
  325TIP3    H122534   6.027   3.150   0.098  0.4699  0.4332 -1.1495
  325TIP3    H222535   5.996   3.090  -0.037 -0.0966 -0.5580 -0.5850
  326TIP3   OH222536   6.668   5.581   1.537 -0.1239  0.6117 -0.1810
  326TIP3    H122537   6.750   5.630   1.535 -0.2877  0.8677 -0.6518
  326TIP3    H222538   6.630   5.593   1.450 -0.6544  0.4810  0.0256
  327TIP3   OH222539   3.292   2.064   7.831 -0.0299  0.1823  0.1532
  327TIP3    H122540   3.218   2.012   7.865  0.4892 -0.2026  0.7123
  327TIP3    H222541   3.275   2.070   7.737 -1.5717  1.3792  0.4517
  328TIP3   OH222542   4.370   1.235   8.078  0.2740 -0.3502 -0.4425
  328TIP3    H122543   4.364   1.246   7.983  1.6845 -0.6982 -0.5971
  328TIP3    H222544   4.387   1.324   8.111  1.4139 -0.4479 -0.7012
  329TIP3   OH222545   2.575   5.388   7.304  0.0093 -0.5239 -0.0415
  329TIP3    H122546   2.629   5.420   7.232  0.6574 -0.5421  0.4318
  329TIP3    H222547   2.599   5.296   7.314 -1.5452 -1.0966 -1.1235
  330TIP3   OH222548   6.474   3.929   1.274  0.3295 -0.0634 -0.7198
  330TIP3    H122549   6.499   3.898   1.361  0.5144  0.7642 -0.4734
  330TIP3    H222550   6.510   3.863   1.214  2.7649  0.8490 -0.3496
  331TIP3   OH222551   4.530   1.306   1.247  0.6347 -0.4837  0.6988
  331TIP3    H122552   4.512   1.295   1.154 -0.5328  0.7123  0.7397
  331TIP3    H222553   4.526   1.401   1.260  0.0689 -0.6703  2.0820
  332TIP3   OH222554   2.834   2.548   1.673  0.2657  0.4364  0.0386
  332TIP3    H122555   2.801   2.462   1.698 -0.5751 -0.0292 -2.4098
  332TIP3    H222556   2.757   2.595   1.642  1.1405  1.0200 -1.3433
  333TIP3   OH222557   3.841   6.517   7.287 -0.0024 -0.3911 -0.3789
  333TIP3    H122558   3.911   6.557   7.236 -1.2534  1.4176 -0.7851
  333TIP3    H222559   3.823   6.580   7.356 -0.8206 -1.1121  0.0865
  334TIP3   OH222560   4.121   6.425   7.464 -0.1322  0.4069 -0.1810
  334TIP3    H122561   4.141   6.429   7.558  0.2430 -3.4022  0.0620
  334TIP3    H222562   4.203   6.450   7.422  0.7683 -0.9905  0.6342
  335TIP3   OH222563   6.766   5.139   0.447  0.0605 -0.3276  0.2103
  335TIP3    H122564   6.759   5.192   0.526 -0.2741 -0.1812  0.0833
  335TIP3    H222565   6.795   5.053   0.478 -0.2237 -0.3170  0.5136
  336TIP3   OH222566   4.828   6.121   0.906  0.2042  0.3542 -0.1090
  336TIP3    H122567   4.868   6.154   0.987  1.6339  1.6801 -1.2726
  336TIP3    H222568   4.740   6.157   0.906 -1.2677 -2.7520  2.6073
  337TIP3   OH222569   3.625   4.673   6.810  0.0230  0.5695 -0.0753
  337TIP3    H122570   3.581   4.655   6.727  0.8714  1.1686 -0.6766
  337TIP3    H222571   3.633   4.768   6.813 -1.4389  0.6906  1.4756
  338TIP3   OH222572   5.452   2.840   1.316 -0.0585  0.3132  0.1376
  338TIP3    H122573   5.415   2.928   1.320 -1.5684 -0.2492 -0.4263
  338TIP3    H222574   5.448   2.817   1.223  0.4504 -0.2946  0.2624
  339TIP3   OH222575   0.840   4.716   6.829 -0.1273  0.4097  0.3224
  339TIP3    H122576   0.888   4.640   6.796 -3.5733 -1.8794  0.1013
  339TIP3    H222577   0.811   4.690   6.916 -2.3915  0.8998 -0.2248
  340TIP3   OH222578   1.229   0.521   2.158 -0.4558  0.3964  0.2144
  340TIP3    H122579   1.202   0.457   2.224  1.4466 -3.0190 -2.0230
  340TIP3    H222580   1.199   0.484   2.075 -2.7241  4.4790 -1.0735
  341TIP3   OH222581   2.908   4.493   1.284 -0.0629 -0.5065  0.2638
  341TIP3    H122582   2.926   4.409   1.241 -0.3105 -0.8898  0.8839
  341TIP3    H222583   2.868   4.547   1.216  0.4849 -0.7502 -0.2560
  342TIP3   OH222584   0.918   2.603   2.080 -0.1585 -0.5435  0.3206
  342TIP3    H122585   0.932   2.555   1.998  0.0705 -0.4977  0.3332
  342TIP3    H222586   0.861   2.545   2.131  1.0094 -1.3225  0.7883
  343TIP3   OH222587   6.122   1.955   0.471  0.0032  0.5764  0.7673
  343TIP3    H122588   6.190   1.992   0.527  0.7139 -0.5762  0.7152
  343TIP3    H222589   6.168   1.888   0.419 -1.2797 -0.6486  1.1388
  344TIP3   OH222590   6.344   3.461   7.544 -0.3216  0.5213 -0.2943
  344TIP3    H122591   6.367   3.543   7.588  1.8524 -0.6934  1.0311
  344TIP3    H222592   6.294   3.413   7.610 -1.3909  0.6399 -0.9894
  345TIP3   OH222593   2.286   4.804   8.565  0.0216  0.3557 -0.4467
  345TIP3    H122594   2.197   4.817   8.533  0.1204 -1.6259 -1.7389
  345TIP3    H222595   2.278   4.732   8.628  0.6968  0.1103 -0.6336
  346TIP3   OH222596   0.289   3.553   7.663  0.3620  0.5411 -0.3973
  346TIP3    H122597   0.372   3.594   7.686  0.8741 -0.6348 -0.1201
  346TIP3    H222598   0.288   3.471   7.710 -0.4748  0.0292 -1.2618
  347TIP3   OH222599   2.516   4.563   0.992 -0.4837  0.7756  0.2048
  347TIP3    H122600   2.588   4.500   0.990 -0.4669  0.8052 -0.2290
  347TIP3    H222601   2.532   4.615   1.071 -0.5719  0.1535  0.6371
  348TIP3   OH222602   1.917   6.342   0.896  0.5837  0.0511 -0.5673
  348TIP3    H122603   1.910   6.353   0.991 -1.5209  0.2709 -0.7012
  348TIP3    H222604   1.930   6.431   0.862  1.1546 -0.0071 -0.5144
  349TIP3   OH222605   2.577   3.571   8.516 -0.1135  0.0699  0.1298
  349TIP3    H122606   2.523   3.506   8.561 -0.3844 -0.3852 -0.8365
  349TIP3    H222607   2.520   3.647   8.506 -0.4449 -0.2690 -0.5382
  350TIP3   OH222608   6.021   0.999   1.914  0.1468 -0.0245  0.0678
  350TIP3    H122609   5.946   0.959   1.959 -2.1746  2.2717 -1.4749
  350TIP3    H222610   6.016   1.092   1.936  0.7089  0.6704 -2.4291
  351TIP3   OH222611   2.944   3.288   7.533  0.2408  0.2658  0.4395
  351TIP3    H122612   3.001   3.250   7.467 -0.8146 -0.3859 -0.1351
  351TIP3    H222613   2.961   3.236   7.612  2.5469  1.9558  1.1538
  352TIP3   OH222614   5.939   4.354   1.356  0.1151 -0.1850  0.1368
  352TIP3    H122615   5.857   4.347   1.404 -0.8474 -1.0491 -1.5609
  352TIP3    H222616   5.978   4.267   1.360 -1.0230 -0.9108 -2.3197
  353TIP3   OH222617   1.326   5.817   1.316  0.5050 -0.3722 -0.7819
  353TIP3    H122618   1.255   5.846   1.258  0.3630  0.5690 -0.1623
  353TIP3    H222619   1.290   5.743   1.364  0.1913 -0.3585 -0.9980
  354TIP3   OH222620   0.708   6.164   0.179 -0.2437  0.2008  0.1335
  354TIP3    H122621   0.679   6.199   0.263 -1.3840 -0.8225  0.1806
  354TIP3    H222622   0.627   6.150   0.129  0.0602 -2.9379  0.3536
  355TIP3   OH222623   2.356   1.689   7.950 -0.1098 -0.0484  0.8178
  355TIP3    H122624   2.318   1.777   7.954 -0.1950 -0.0460  0.0491
  355TIP3    H222625   2.417   1.686   8.024 -1.4636  0.0093  1.9662
  356TIP3   OH222626   5.356   5.918   0.362  0.2202 -0.0988  0.5003
  356TIP3    H122627   5.417   5.864   0.411  1.1323 -0.8732 -1.3749
  356TIP3    H222628   5.392   6.007   0.366  1.3689 -0.5068 -0.3860
  357TIP3   OH222629   1.960   0.277   0.804  0.2505 -0.0929  0.1405
  357TIP3    H122630   1.968   0.299   0.711  1.7150 -0.7192  0.0833
  357TIP3    H222631   1.968   0.361   0.849 -0.8092  0.2568 -0.2994
  358TIP3   OH222632   1.302   4.969   0.670  0.2868 -0.3958 -0.3427
  358TIP3    H122633   1.267   4.995   0.755 -0.1176  0.1283 -0.6621
  358TIP3    H222634   1.344   5.048   0.636  0.0219 -0.4656 -0.8390
  359TIP3   OH222635   1.364   2.374   6.958 -0.2860 -0.0067 -0.4458
  359TIP3    H122636   1.388   2.409   6.872  0.0791  0.0705 -0.3130
  359TIP3    H222637   1.280   2.331   6.943  0.6354 -1.6198 -1.2837
  360TIP3   OH222638   2.870   4.063   0.933 -0.2614 -0.0399 -0.4902
  360TIP3    H122639   2.877   4.025   1.021 -1.4460  0.9309  0.0648
  360TIP3    H222640   2.847   4.155   0.949 -0.5151  0.1431 -1.8129
  361TIP3   OH222641   1.208   3.659   1.397  0.1384 -0.1201 -0.4160
  361TIP3    H122642   1.115   3.681   1.390  0.3220  1.4142  1.2134
  361TIP3    H222643   1.251   3.717   1.334  0.0977  0.1483 -0.2013
  362TIP3   OH222644   3.009   5.815   8.655 -0.2083 -0.0106  0.5543
  362TIP3    H122645   2.988   5.760   8.579 -0.2216 -1.8667  1.8241
  362TIP3    H222646   3.084   5.770   8.696 -2.2291 -0.9904  3.4594
  363TIP3   OH222647   3.866   1.629   8.251  0.1404  0.1583  0.3023
  363TIP3    H122648   3.939   1.614   8.190 -0.7427  1.3593 -1.1162
  363TIP3    H222649   3.845   1.722   8.241 -1.0586  0.0173  1.2827
  364TIP3   OH222650   6.812   1.317   0.628  0.1176 -0.0249 -0.1630
  364TIP3    H122651   6.890   1.277   0.666  0.0550  1.8961  2.2691
  364TIP3    H222652   6.743   1.252   0.639  1.2585 -1.7326 -2.2956
  365TIP3   OH222653   2.730   2.300   6.830 -0.3301  0.1346 -0.3891
  365TIP3    H122654   2.786   2.225   6.849  0.4292  0.9025  0.5539
  365TIP3    H222655   2.699   2.328   6.916 -2.6889 -0.6222 -0.9130
  366TIP3   OH222656   3.219   1.723   1.365 -0.0537 -0.3397 -0.1232
  366TIP3    H122657   3.221   1.652   1.429  0.3456 -1.1934 -1.0350
  366TIP3    H222658   3.132   1.718   1.326 -0.2686  0.1247  0.3037
  367TIP3   OH222659   3.899   5.278   6.556 -0.0439  0.0815 -0.6770
  367TIP3    H122660   3.816   5.257   6.514 -0.3507 -2.8569  1.1109
  367TIP3    H222661   3.876   5.298   6.646  0.9548  2.4744 -0.8864
  368TIP3   OH222662   2.602   0.948   7.766  0.3228 -0.2271  0.1429
  368TIP3    H122663   2.653   0.969   7.843  0.4750  0.9009 -0.2359
  368TIP3    H222664   2.603   1.029   7.714  0.4553 -1.0295 -1.1657
  369TIP3   OH222665   6.795   0.562   1.079 -0.2708  0.0329  0.2837
  369TIP3    H122666   6.845   0.541   1.158  0.9950 -0.9245 -0.7294
  369TIP3    H222667   6.860   0.599   1.019 -0.8262 -0.9144 -0.9431
  370TIP3   OH222668   2.771   0.807   1.407 -0.2972 -0.2633 -0.5960
  370TIP3    H122669   2.836   0.797   1.477 -0.3119 -1.7855 -0.7703
  370TIP3    H222670   2.695   0.847   1.450 -0.2115 -0.9461  0.2117
  371TIP3   OH222671   6.615   0.527   8.167  0.2489  0.1781  0.4226
  371TIP3    H122672   6.636   0.442   8.128  1.3865  0.5664  0.1688
  371TIP3    H222673   6.603   0.508   8.260 -2.3415 -0.7294  0.0003
  372TIP3   OH222674   4.448   3.826   7.045 -1.0072  0.3289  0.5629
  372TIP3    H122675   4.448   3.905   7.098  0.2592  0.1488  0.8544
  372TIP3    H222676   4.476   3.756   7.104  0.0509  0.0554 -0.2195
  373TIP3   OH222677   0.929   6.049   8.295  0.1111  0.1084 -0.0208
  373TIP3    H122678   0.864   6.118   8.310  1.0467  1.1980 -0.7920
  373TIP3    H222679   0.987   6.054   8.371 -1.5665 -1.9817  1.5319
  374TIP3   OH222680   2.894   0.884   7.972 -0.0091  0.4155 -0.1544
  374TIP3    H122681   2.876   0.799   7.930  0.5805  0.0713  0.2799
  374TIP3    H222682   2.987   0.898   7.959 -0.0532  0.8739  0.0159
  375TIP3   OH222683   2.545   6.405   2.084  0.2217 -0.2065 -0.1330
  375TIP3    H122684   2.561   6.324   2.036  0.7751 -0.0747 -0.1720
  375TIP3    H222685   2.453   6.425   2.066  0.4769 -0.0320 -1.3471
  376TIP3   OH222686   3.693   1.520   1.135 -0.2836  0.0220 -0.1481
  376TIP3    H122687   3.782   1.550   1.120 -0.0661 -0.2086  0.6354
  376TIP3    H222688   3.699   1.424   1.133 -0.9717 -0.0443 -2.6466
  377TIP3   OH222689   2.066   6.140   8.534 -0.2350  0.0380  0.0451
  377TIP3    H122690   2.009   6.127   8.457 -0.5923  0.6436  0.2005
  377TIP3    H222691   2.078   6.052   8.569 -1.0984 -0.1029  0.0150
  378TIP3   OH222692   0.948   1.891   8.315 -0.4790 -0.0375  0.3868
  378TIP3    H122693   1.036   1.921   8.339 -1.2579  0.4946  2.9586
  378TIP3    H222694   0.898   1.971   8.306 -0.2784 -0.1850 -3.5331
  379TIP3   OH222695   3.785   2.950   1.831 -0.2740  0.3297 -0.0221
  379TIP3    H122696   3.840   2.876   1.808 -0.4346 -0.4685  1.9286
  379TIP3    H222697   3.762   2.935   1.923 -0.1806  2.8669  0.5093
  380TIP3   OH222698   6.399   4.905   1.422  0.8134 -0.4289 -0.1087
  380TIP3    H122699   6.355   4.915   1.506  1.0333  1.2783 -0.1804
  380TIP3    H222700   6.406   4.810   1.410 -3.1323 -0.8559 -0.2598
  381TIP3   OH222701   3.207   6.250   8.212  0.1666 -0.2996 -0.3862
  381TIP3    H122702   3.277   6.242   8.147  0.2185  2.3583 -0.7804
  381TIP3    H222703   3.127   6.230   8.163  0.5128 -2.3972 -0.1716
  382TIP3   OH222704   5.839   6.588   0.871  0.5998 -0.2248  0.4103
  382TIP3    H122705   5.821   6.610   0.962 -0.4469 -1.3048  0.4877
  382TIP3    H222706   5.817   6.667   0.822  0.7121  0.2039  1.0471
  383TIP3   OH222707   5.194   6.429   7.103 -0.0361 -0.8836  0.3779
  383TIP3    H122708   5.138   6.395   7.034 -0.3855 -1.4122  0.9120
  383TIP3    H222709   5.225   6.514   7.070 -0.2911 -1.0764 -0.3672
  384TIP3   OH222710   2.381   6.157   1.185 -0.4744 -0.7066  0.0416
  384TIP3    H122711   2.340   6.156   1.272 -1.6044 -0.7047 -0.4746
  384TIP3    H222712   2.337   6.229   1.139 -0.3178 -1.0968 -0.7296
  385TIP3   OH222713   2.573   3.313   1.936  0.0287  0.0627 -0.3230
  385TIP3    H122714   2.648   3.356   1.976  0.4638  0.4720 -1.5321
  385TIP3    H222715   2.503   3.322   2.001  0.7957  0.3829  0.4813
  386TIP3   OH222716   6.379   5.269   8.613 -0.4272 -0.2832 -0.4051
  386TIP3    H122717   6.286   5.276   8.590 -0.5583  0.8692  0.4178
  386TIP3    H222718   6.388   5.319   8.694  0.7578 -1.0880 -0.0234
  387TIP3   OH222719   6.691   3.363   0.866 -0.2523 -0.3834  0.5610
  387TIP3    H122720   6.625   3.423   0.900 -0.6097  0.1984 -1.0823
  387TIP3    H222721   6.710   3.395   0.778  0.4184 -1.9913  0.0851
  388TIP3   OH222722   0.322   3.015   0.725  0.0893  0.4322  0.0188
  388TIP3    H122723   0.296   2.933   0.768  0.8907 -0.0954 -0.4583
  388TIP3    H222724   0.402   2.992   0.678 -0.8017  0.9606 -1.8270
  389TIP3   OH222725   4.820   2.182   1.321  0.0343 -0.3129  0.4294
  389TIP3    H122726   4.809   2.104   1.376 -0.1630 -0.6478 -0.0816
  389TIP3    H222727   4.903   2.221   1.351 -0.0578 -0.5066  0.9446
  390TIP3   OH222728   3.332   6.036   6.955  0.4779  0.3297 -0.1219
  390TIP3    H122729   3.281   6.111   6.989 -0.7031 -1.2957  1.9345
  390TIP3    H222730   3.291   6.016   6.871 -0.9452  0.4103  0.5123
  391TIP3   OH222731   5.662   1.584   7.243 -0.1546  0.2328 -0.2426
  391TIP3    H122732   5.682   1.668   7.203 -0.1150  0.0884 -0.5299
  391TIP3    H222733   5.571   1.566   7.218  0.0208 -0.0817 -0.6750
  392TIP3   OH222734   1.420   1.633   0.015 -0.1703 -0.5612 -0.3784
  392TIP3    H122735   1.390   1.720   0.042  2.9148  0.7863 -0.8615
  392TIP3    H222736   1.443   1.590   0.098  2.4436  0.8544 -0.2479
  393TIP3   OH222737   0.994   6.286   1.014 -0.1242  0.8599  0.5315
  393TIP3    H122738   1.090   6.277   1.017  0.0390  2.1926  0.2437
  393TIP3    H222739   0.961   6.198   1.030  1.1035  0.7554  2.9832
  394TIP3   OH222740   1.138   1.136   6.679 -0.0557  0.3494  0.0209
  394TIP3    H122741   1.046   1.112   6.678  0.3329 -1.5868  2.0080
  394TIP3    H222742   1.139   1.230   6.695 -1.6854  0.3254  0.4173
  395TIP3   OH222743   3.419   2.401   8.239  0.4043  0.3377  0.8497
  395TIP3    H122744   3.354   2.334   8.257  0.0109  0.5576  0.2853
  395TIP3    H222745   3.369   2.483   8.238  0.4814  0.3955 -0.6458
  396TIP3   OH222746   5.019   2.130   0.335 -0.2322 -0.7417 -0.1852
  396TIP3    H122747   4.992   2.216   0.303  2.8570  0.5723  0.3903
  396TIP3    H222748   5.009   2.137   0.430  0.1034 -0.9819 -0.1321
  397TIP3   OH222749   4.383   5.926   1.354  0.1465  0.4320  0.0653
  397TIP3    H122750   4.470   5.891   1.339  0.4740  1.9861 -2.0772
  397TIP3    H222751   4.397   6.005   1.407  0.0567  0.6773 -0.2716
  398TIP3   OH222752   2.895   2.250   7.472  0.4269 -0.6070 -0.4400
  398TIP3    H122753   2.835   2.198   7.525  0.4138 -1.3637 -1.1739
  398TIP3    H222754   2.887   2.213   7.384  0.3980  0.6524 -0.9919
  399TIP3   OH222755   5.429   5.175   7.952 -0.2842  0.2735 -0.9221
  399TIP3    H122756   5.495   5.170   7.883 -0.1340  0.4398 -0.7952
  399TIP3    H222757   5.361   5.231   7.917 -0.1340  0.4859 -0.8775
  400TIP3   OH222758   1.132   1.267   7.041 -0.1524 -0.5894  0.1201
  400TIP3    H122759   1.198   1.237   7.103  0.7906  0.3070 -0.4061
  400TIP3    H222760   1.182   1.302   6.968 -1.1563  1.1794  0.1974
  401TIP3   OH222761   2.589   0.651   8.616 -0.4602  0.4232  0.3019
  401TIP3    H122762   2.653   0.581   8.630 -0.3784  0.7005  1.4034
  401TIP3    H222763   2.609   0.715   8.684  0.8395  2.5587 -1.9466
  402TIP3   OH222764   3.196   4.341   8.150  0.8310  0.0202 -0.5346
  402TIP3    H122765   3.143   4.420   8.154  0.1190 -0.4769  0.1140
  402TIP3    H222766   3.156   4.289   8.080  2.2532  0.8798 -2.0626
  403TIP3   OH222767   1.636   0.262   0.692  0.4169  0.5766 -0.2581
  403TIP3    H122768   1.640   0.174   0.654  0.6427  0.5211 -0.1086
  403TIP3    H222769   1.681   0.318   0.629  0.6610  0.5095 -0.1459
  404TIP3   OH222770   5.668   2.445   0.173 -0.3235 -0.8029 -0.5099
  404TIP3    H122771   5.670   2.539   0.154  0.6235 -0.7683 -0.2443
  404TIP3    H222772   5.603   2.436   0.243 -0.3419 -0.3354 -0.4638
  405TIP3   OH222773   0.514   5.007   1.764  0.3050 -0.2222  0.4421
  405TIP3    H122774   0.420   4.991   1.755  0.3925  0.2150 -1.7149
  405TIP3    H222775   0.520   5.097   1.795  0.0309 -0.2803  0.6760
  406TIP3   OH222776   5.350   4.077   1.303  0.2414 -0.4221  0.3577
  406TIP3    H122777   5.411   4.081   1.376  1.1142  0.9260 -0.4011
  406TIP3    H222778   5.264   4.086   1.343  0.6586 -0.4222  1.2793
  407TIP3   OH222779   4.879   4.604   6.736 -0.2288 -0.1612  0.2456
  407TIP3    H122780   4.938   4.679   6.736 -1.2576  0.6624  0.4408
  407TIP3    H222781   4.930   4.535   6.779  1.5298 -0.2828 -1.8362
  408TIP3   OH222782   4.941   0.614   1.068  0.0280 -0.4654  0.0438
  408TIP3    H122783   4.929   0.626   1.163  0.9606  0.7437  0.0348
  408TIP3    H222784   5.013   0.673   1.046  0.8542 -1.8793 -1.1699
  409TIP3   OH222785   3.362   2.122   6.641 -0.1737 -0.2079  0.4552
  409TIP3    H122786   3.456   2.111   6.656 -0.2610 -0.9399  0.5102
  409TIP3    H222787   3.346   2.216   6.655  0.5478 -0.0770  0.4307
  410TIP3   OH222788   6.181   2.372   8.699  0.4701 -0.0434 -0.2906
  410TIP3    H122789   6.249   2.324   8.652  0.6963 -0.8898  0.8687
  410TIP3    H222790   6.207   2.368   8.791 -2.2494 -2.4106  0.5301
  411TIP3   OH222791   5.677   5.277   6.065 -0.3050 -0.3061  0.0602
  411TIP3    H122792   5.733   5.310   6.134 -0.7817  4.2145 -1.3506
  411TIP3    H222793   5.731   5.282   5.986 -0.7139 -2.3854 -0.4031
  412TIP3   OH222794   3.797   4.941   8.056 -0.2437 -0.2020 -0.4619
  412TIP3    H122795   3.709   4.974   8.075 -0.2822  0.2037 -1.2850
  412TIP3    H222796   3.848   5.019   8.035  0.8363 -0.2137  1.8215
  413TIP3   OH222797   0.004   3.146   8.573  0.1705  0.3341  0.1574
  413TIP3    H122798  -0.088   3.157   8.551 -0.0053 -1.6529 -0.2943
  413TIP3    H222799   0.035   3.077   8.515  1.3219 -0.6872  1.8731
  414TIP3   OH222800   5.659   5.078   8.434  0.0524 -0.1624 -0.1663
  414TIP3    H122801   5.701   5.097   8.350 -0.2545  0.6865 -0.1338
  414TIP3    H222802   5.577   5.126   8.432  1.2338  2.1308  1.6875
  415TIP3   OH222803   6.346   5.313   1.060  0.0941 -0.1760 -0.1306
  415TIP3    H122804   6.429   5.344   1.095 -0.4630 -0.1893  1.2476
  415TIP3    H222805   6.340   5.222   1.089  0.3163 -0.6801 -1.5839
  416TIP3   OH222806   3.270   1.456   7.674  0.0490  0.0120  0.2361
  416TIP3    H122807   3.287   1.367   7.705  0.1859  0.2752  0.9349
  416TIP3    H222808   3.342   1.508   7.711 -1.3330  0.8481  1.8946
  417TIP3   OH222809   2.530   1.260   7.282  0.0984 -0.0635  0.0988
  417TIP3    H122810   2.444   1.223   7.299 -0.6638  1.3862 -0.3966
  417TIP3    H222811   2.528   1.283   7.189  0.6265  0.9168  0.3115
  418TIP3   OH222812   5.236   4.886   6.265 -0.6146  0.2340 -0.6670
  418TIP3    H122813   5.320   4.847   6.289 -0.8294  1.1510  1.8471
  418TIP3    H222814   5.253   4.930   6.182  1.7724  1.4672  0.3734
  419TIP3   OH222815   4.066   0.157   8.116 -0.3231  0.2539 -0.5973
  419TIP3    H122816   4.041   0.215   8.044 -2.9102  1.0824  0.8546
  419TIP3    H222817   4.121   0.211   8.172 -1.6261  0.9247  0.0663
  420TIP3   OH222818   4.622   1.056   7.226 -0.0115 -0.3087  0.7874
  420TIP3    H122819   4.557   1.093   7.166 -1.3009 -1.3680  1.4603
  420TIP3    H222820   4.667   1.131   7.263  0.5234  0.3810 -1.1666
  421TIP3   OH222821   2.435   3.716   1.424  0.4842 -0.0295  0.1070
  421TIP3    H122822   2.485   3.746   1.500 -0.4694  0.3845  0.5918
  421TIP3    H222823   2.419   3.795   1.373 -1.4187  0.2385  1.0209
  422TIP3   OH222824   4.941   6.617   8.410  0.3691  0.3053  0.2957
  422TIP3    H122825   4.903   6.596   8.325  0.6559  1.8766 -0.2465
  422TIP3    H222826   5.035   6.621   8.394  0.3352  1.9591  0.3433
  423TIP3   OH222827   4.305   3.090   7.115 -0.4264 -0.4144 -0.2384
  423TIP3    H122828   4.333   3.036   7.189  1.3009  0.4087 -0.2217
  423TIP3    H222829   4.327   3.038   7.038  0.2843 -0.1909 -0.1996
  424TIP3   OH222830   3.374   5.520   0.158  0.2294  0.4417 -0.3512
  424TIP3    H122831   3.348   5.589   0.220 -2.1887  0.7206 -1.5593
  424TIP3    H222832   3.376   5.564   0.073  0.3922 -0.6164 -0.9100
  425TIP3   OH222833   3.246   0.420   1.561 -0.0717  1.0484 -0.1255
  425TIP3    H122834   3.278   0.350   1.618  1.9074  0.8711 -1.3540
  425TIP3    H222835   3.181   0.378   1.505 -0.7906  0.8293  0.8603
  426TIP3   OH222836   0.142   2.732   6.187 -0.0342 -0.5098  0.0895
  426TIP3    H122837   0.215   2.708   6.129 -0.7955 -0.1652 -1.0571
  426TIP3    H222838   0.069   2.677   6.157 -0.7362  0.4530 -0.0158
  427TIP3   OH222839   4.466   1.398   0.305  0.4414  0.2953  0.3448
  427TIP3    H122840   4.543   1.422   0.254  0.2995  1.9075  0.8529
  427TIP3    H222841   4.413   1.345   0.244 -0.3888  3.2654 -1.7555
  428TIP3   OH222842   3.527   5.951   7.224 -0.7825 -0.0584 -0.2901
  428TIP3    H122843   3.583   6.028   7.216 -1.7926  0.5558 -1.7106
  428TIP3    H222844   3.582   5.887   7.270  0.4603  1.1136 -0.0786
  429TIP3   OH222845   3.026   3.194   7.783 -0.1580 -0.7016 -0.5433
  429TIP3    H122846   3.028   3.200   7.878 -1.3355 -1.3747 -0.4606
  429TIP3    H222847   3.095   3.131   7.762  0.3392 -0.2920 -0.1759
  430TIP3   OH222848   0.062   4.926   8.138  0.5742 -0.0772 -0.2533
  430TIP3    H122849  -0.026   4.956   8.157  0.8626  0.1921  0.7256
  430TIP3    H222850   0.072   4.937   8.044 -0.9598 -1.5374 -0.6351
  431TIP3   OH222851   1.857   1.295   7.668  0.2193  0.1115  0.4526
  431TIP3    H122852   1.862   1.239   7.746 -1.1475 -1.4043 -0.4725
  431TIP3    H222853   1.763   1.302   7.650  0.5044  0.4962 -0.9917
  432TIP3   OH222854   5.974   2.229   6.430 -0.2342 -0.1941  1.3179
  432TIP3    H122855   6.043   2.168   6.406  0.2678  1.1565 -0.9770
  432TIP3    H222856   5.895   2.176   6.436  0.3781 -1.2289  0.4613
  433TIP3   OH222857   0.254   4.573   0.848  0.5633  0.2828 -0.0041
  433TIP3    H122858   0.163   4.555   0.824  1.3595 -0.1997 -3.1244
  433TIP3    H222859   0.289   4.488   0.876 -0.2314  0.7522  2.7713
  434TIP3   OH222860   1.379   1.236   6.883 -0.1751  0.4674  0.2507
  434TIP3    H122861   1.422   1.298   6.941 -1.3434  1.7843 -0.2290
  434TIP3    H222862   1.320   1.290   6.830 -0.7592 -0.9796 -0.6273
  435TIP3   OH222863   1.059   5.132   7.513 -0.3441 -0.4121  0.3168
  435TIP3    H122864   0.987   5.077   7.543 -0.2550 -0.4512  0.4572
  435TIP3    H222865   1.107   5.077   7.451 -0.9623 -0.0784 -0.4734
  436TIP3   OH222866   5.534   3.708   1.403  0.0596 -0.3010 -0.0118
  436TIP3    H122867   5.473   3.674   1.469  1.0350 -1.9641  0.1003
  436TIP3    H222868   5.503   3.672   1.320  1.0091 -1.4241  0.0857
  437TIP3   OH222869   5.218   1.967   0.473 -0.6641 -0.4881 -0.5191
  437TIP3    H122870   5.275   1.944   0.547 -0.0545  2.0043 -0.1426
  437TIP3    H222871   5.155   1.895   0.469  0.7234 -1.8584  0.9216
  438TIP3   OH222872   6.443   5.588   1.027  0.4967 -0.9265  0.1029
  438TIP3    H122873   6.364   5.621   0.985  1.7146  1.2511 -0.6532
  438TIP3    H222874   6.470   5.657   1.087  2.4187 -1.0639 -0.5116
  439TIP3   OH222875   5.133   4.407   8.422  0.0679 -0.8247 -0.5190
  439TIP3    H122876   5.194   4.414   8.496 -0.3963  0.1810 -0.2247
  439TIP3    H222877   5.182   4.442   8.348  0.1681 -0.8731 -0.4770
  440TIP3   OH222878   0.329   5.834   0.698 -0.3912  0.6364 -0.5708
  440TIP3    H122879   0.257   5.784   0.738 -2.0980  2.3146 -1.3781
  440TIP3    H222880   0.373   5.772   0.641  0.1721 -0.9935  1.4864
  441TIP3   OH222881   5.984   4.363   8.346  0.2639  0.1023  0.4383
  441TIP3    H122882   6.045   4.413   8.399  1.4263 -1.8321  1.0432
  441TIP3    H222883   5.961   4.287   8.400 -2.3520  0.5107  0.0520
  442TIP3   OH222884   3.115   5.414   1.648  0.1944  0.0961 -0.4689
  442TIP3    H122885   3.130   5.321   1.628 -0.6064  0.1648 -1.4541
  442TIP3    H222886   3.119   5.418   1.744  2.2808 -0.5803 -0.4626
  443TIP3   OH222887   1.607   4.811   8.436  0.4530  0.5301 -0.2323
  443TIP3    H122888   1.610   4.722   8.471 -1.1212  0.7575  0.5891
  443TIP3    H222889   1.520   4.819   8.397  0.3712  1.8692  0.1707
  444TIP3   OH222890   0.544   4.078   1.943 -0.1042  0.1145  0.1211
  444TIP3    H122891   0.463   4.028   1.930 -0.6895  0.6433  1.5473
  444TIP3    H222892   0.531   4.158   1.891 -1.4837  1.2090  2.0178
  445TIP3   OH222893   3.259   3.582   0.146  1.1219  0.1697  0.6584
  445TIP3    H122894   3.229   3.519   0.080  1.8122  2.5939 -2.2224
  445TIP3    H222895   3.181   3.600   0.199  0.5920 -2.0393  0.7266
  446TIP3   OH222896   4.389   2.460   0.192 -0.5605  0.5808  0.1499
  446TIP3    H122897   4.340   2.448   0.111  2.1600  0.4843 -1.6249
  446TIP3    H222898   4.422   2.373   0.214  0.3430  0.9323  0.2323
  447TIP3   OH222899   5.422   3.626   6.762 -0.0451  0.0934  0.2979
  447TIP3    H122900   5.376   3.685   6.822 -0.7944 -0.2279  0.0547
  447TIP3    H222901   5.437   3.679   6.683 -0.6941 -0.0323  0.0888
  448TIP3   OH222902   4.681   2.315   8.747 -0.0274 -0.0103 -0.5150
  448TIP3    H122903   4.695   2.399   8.704 -0.5293  0.4432  0.1882
  448TIP3    H222904   4.608   2.275   8.698 -0.8535  0.6701  0.1318
  449TIP3   OH222905   6.211   0.259   7.939  0.0365  0.7342 -0.2906
  449TIP3    H122906   6.158   0.252   7.859 -1.1197 -2.7063  0.5878
  449TIP3    H222907   6.149   0.280   8.008  0.2978 -0.2741  0.2781
  450TIP3   OH222908   5.890   5.675   0.817 -0.0380 -0.1482  0.1857
  450TIP3    H122909   5.801   5.706   0.802  0.5309  0.7854 -1.4691
  450TIP3    H222910   5.906   5.693   0.910 -1.3463  0.2412  0.3528
  451TIP3   OH222911   3.504   4.235   8.610  0.3778  0.3590  0.1153
  451TIP3    H122912   3.496   4.176   8.535 -1.3082 -0.2692  0.7357
  451TIP3    H222913   3.462   4.316   8.583 -0.3509  0.0861  0.4108
  452TIP3   OH222914   4.356   2.286   1.663  0.1479  0.1941  0.2344
  452TIP3    H122915   4.364   2.364   1.608 -1.5732 -0.6981 -1.3932
  452TIP3    H222916   4.442   2.245   1.658  0.6050  1.1619 -0.1774
  453TIP3   OH222917   0.596   4.452   0.780  0.5524  0.7609  0.1675
  453TIP3    H122918   0.592   4.463   0.685 -0.9019  2.2856  0.3656
  453TIP3    H222919   0.521   4.396   0.800  0.7993  0.5259  0.4390
  454TIP3   OH222920   4.810   4.076   0.618 -0.0616  0.4828  0.0462
  454TIP3    H122921   4.860   3.994   0.610 -0.1375  0.4604 -0.2091
  454TIP3    H222922   4.876   4.145   0.615 -0.0224  0.4427 -0.0251
  455TIP3   OH222923   2.076   1.765   1.108 -0.3292  0.5222 -0.0288
  455TIP3    H122924   2.056   1.839   1.165  0.3986 -0.1937  1.2282
  455TIP3    H222925   2.065   1.688   1.165 -1.7240 -0.4093 -1.4590
  456TIP3   OH222926   6.177   6.003   1.297 -0.0312  0.2113 -0.2898
  456TIP3    H122927   6.246   5.981   1.360  0.8895  1.3075 -0.8786
  456TIP3    H222928   6.191   5.943   1.224  0.0545  0.1730 -0.2423
  457TIP3   OH222929   6.443   5.751   0.548 -0.5123 -0.5658  0.3426
  457TIP3    H122930   6.395   5.732   0.467  0.6173  0.5865 -0.6411
  457TIP3    H222931   6.462   5.664   0.585 -2.7605 -1.0667  0.4669
  458TIP3   OH222932   6.530   2.010   0.433  0.5338 -0.3303 -0.3878
  458TIP3    H122933   6.549   2.006   0.526 -0.2657 -0.7440 -0.2309
  458TIP3    H222934   6.524   2.103   0.413 -1.2793 -0.2332  0.4141
  459TIP3   OH222935   6.753   6.358   0.903  0.5678 -0.5513 -0.1835
  459TIP3    H122936   6.718   6.295   0.965 -1.1068 -0.3203 -0.8450
  459TIP3    H222937   6.688   6.428   0.900 -0.2715 -1.3326 -3.4110
  460TIP3   OH222938   3.189   5.095   0.960  0.2453  0.2251 -0.4661
  460TIP3    H122939   3.118   5.140   1.006  0.2888 -0.4908  0.3437
  460TIP3    H222940   3.171   5.002   0.975 -0.6871 -0.1651 -3.3040
  461TIP3   OH222941   3.540   3.121   7.593 -0.1024 -0.3299 -0.9091
  461TIP3    H122942   3.579   3.188   7.537  2.5258 -0.1624  0.9161
  461TIP3    H222943   3.599   3.046   7.586 -1.2736 -1.3294 -0.5058
  462TIP3   OH222944   2.786   5.627   8.672  0.2625 -0.2774  0.2033
  462TIP3    H122945   2.842   5.614   8.749 -0.2292  0.2157  0.6508
  462TIP3    H222946   2.833   5.691   8.618  0.3873 -0.2767  0.3134
  463TIP3   OH222947   6.494   4.646   7.534 -0.3679 -0.5715 -0.1462
  463TIP3    H122948   6.510   4.740   7.547 -1.5109 -0.6088  1.9933
  463TIP3    H222949   6.419   4.643   7.475 -0.4098 -0.1190 -0.1212
  464TIP3   OH222950   3.966   2.576   1.036 -0.3445  0.0935  0.4203
  464TIP3    H122951   3.992   2.662   1.071  0.1869 -0.5109  1.5511
  464TIP3    H222952   4.019   2.513   1.085 -0.8392 -0.8995 -0.2927
  465TIP3   OH222953   3.261   5.481   7.017  0.3329 -0.2244  0.4696
  465TIP3    H122954   3.221   5.477   6.930  1.9091 -1.7183 -0.2444
  465TIP3    H222955   3.321   5.556   7.012 -0.0855  0.1155  0.5112
  466TIP3   OH222956   1.283   2.253   6.675  0.2153  0.4054  0.0628
  466TIP3    H122957   1.196   2.215   6.660  0.6514 -0.9994  0.9171
  466TIP3    H222958   1.274   2.345   6.649 -1.7158  0.4683  0.7927
  467TIP3   OH222959   6.429   2.708   6.357  0.0753 -0.6116  0.3475
  467TIP3    H122960   6.363   2.676   6.418 -0.2536  0.8750  0.8100
  467TIP3    H222961   6.460   2.790   6.396  0.4967 -0.0815 -1.0513
  468TIP3   OH222962   1.051   3.108   0.039 -0.2043 -0.0131 -0.0810
  468TIP3    H122963   1.119   3.051   0.075  0.2664 -0.1384 -1.1252
  468TIP3    H222964   1.099   3.175  -0.011 -0.6832  2.0340  2.0460
  469TIP3   OH222965   3.474   4.057   1.795  0.0330 -0.5051  0.4608
  469TIP3    H122966   3.442   4.142   1.825 -0.0935  0.0062 -1.0458
  469TIP3    H222967   3.422   3.993   1.845  0.1747  0.2825  1.6570
  470TIP3   OH222968   1.663   1.577   8.563 -0.2627 -0.3808 -0.1694
  470TIP3    H122969   1.569   1.591   8.558 -0.1220  0.0216 -2.8426
  470TIP3    H222970   1.701   1.648   8.511  1.6291  0.1310  1.7461
  471TIP3   OH222971   1.152   0.331   7.271  0.4052  0.2507 -0.3740
  471TIP3    H122972   1.095   0.380   7.211  0.4864 -0.3797 -0.9865
  471TIP3    H222973   1.207   0.278   7.213  1.0397  0.2320  0.2433
  472TIP3   OH222974   4.057   2.320   1.822  0.1036 -0.0996 -0.3908
  472TIP3    H122975   4.105   2.247   1.783  0.2637 -0.5440  0.6224
  472TIP3    H222976   4.061   2.305   1.916  0.3340  1.3414 -0.1433
  473TIP3   OH222977   6.773   4.543   7.599  0.5669 -0.0176  0.2522
  473TIP3    H122978   6.685   4.583   7.596  0.6399  0.1126 -0.2392
  473TIP3    H222979   6.758   4.455   7.634  0.1771 -0.1544 -0.2444
  474TIP3   OH222980   4.704   6.053   0.640 -0.1788 -0.3500 -0.2035
  474TIP3    H122981   4.642   6.084   0.706  0.9501  1.4019  0.0840
  474TIP3    H222982   4.749   6.132   0.610  1.3532 -1.4680 -0.9819
  475TIP3   OH222983   6.520   5.722   6.752  1.2274 -0.1343 -0.2298
  475TIP3    H122984   6.495   5.722   6.659  1.2358  0.6825 -0.2452
  475TIP3    H222985   6.549   5.633   6.770  2.9920  0.1337 -1.4919
  476TIP3   OH222986   4.143   4.934   1.654  0.1230 -0.3048  0.2016
  476TIP3    H122987   4.159   4.853   1.605 -0.6518 -0.0578 -0.4820
  476TIP3    H222988   4.059   4.919   1.697  0.4433 -0.2285  0.8789
  477TIP3   OH222989   0.334   6.731   0.079  0.0363  0.2881  0.5415
  477TIP3    H122990   0.247   6.711   0.044  0.1539  1.7286 -0.6706
  477TIP3    H222991   0.317   6.762   0.168 -0.6260  0.0275  0.5155
  478TIP3   OH222992   1.357   0.223   7.107 -0.3282 -0.4547  0.1653
  478TIP3    H122993   1.387   0.222   7.198 -0.3607 -1.7567  0.1913
  478TIP3    H222994   1.378   0.135   7.074  0.0804  0.1308 -1.2276
  479TIP3   OH222995   1.677   2.840   8.005  0.0331  0.0881  0.3876
  479TIP3    H122996   1.685   2.921   7.955  1.4862  0.4214  1.0938
  479TIP3    H222997   1.704   2.772   7.944 -0.9407  0.1533 -0.1293
  480TIP3   OH222998   2.856   3.100   0.320  0.2441 -0.1084 -0.1600
  480TIP3    H122999   2.799   3.170   0.289 -0.2721 -1.4566 -2.4655
  480TIP3    H223000   2.797   3.037   0.363  0.3231 -0.3439 -0.3904
  481TIP3   OH223001   1.586   5.268   1.870 -0.4665 -0.6653  0.2667
  481TIP3    H123002   1.552   5.226   1.949  0.5208 -1.0318  0.5196
  481TIP3    H223003   1.510   5.311   1.830 -0.8965 -0.0457  1.6852
  482TIP3   OH223004   3.809   0.861   1.056  0.2012  0.0284  0.2706
  482TIP3    H123005   3.776   0.884   1.143  1.0219  0.1214  0.5692
  482TIP3    H223006   3.903   0.851   1.069  0.3408  0.1571 -0.6404
  483TIP3   OH223007   4.521   1.026   0.369  0.2084  0.2544 -0.2639
  483TIP3    H123008   4.494   1.019   0.277  0.3934 -1.0727 -0.2390
  483TIP3    H223009   4.581   0.953   0.382  2.1099  1.8317  0.2825
  484TIP3   OH223010   6.364   6.807   0.040  0.4295 -0.2480 -0.4613
  484TIP3    H123011   6.420   6.816  -0.037  0.6011  0.6402 -0.2412
  484TIP3    H223012   6.340   6.896   0.063 -0.5588 -0.5793 -0.1639
  485TIP3   OH223013   1.524   2.315   0.954  0.1000  1.1921  0.4771
  485TIP3    H123014   1.547   2.382   0.891 -0.4076 -1.1250 -2.3809
  485TIP3    H223015   1.503   2.238   0.901  0.6936 -1.2734  3.5179
  486TIP3   OH223016   4.162   4.545   7.060  0.2943 -0.1105  0.0614
  486TIP3    H123017   4.162   4.616   7.124 -0.5072  0.7475 -0.8683
  486TIP3    H223018   4.254   4.524   7.048  0.5974  1.2808 -0.2047
  487TIP3   OH223019   2.819   4.739   8.207  0.0680 -0.2566 -0.3210
  487TIP3    H123020   2.789   4.715   8.294  2.6360 -2.8799  0.0151
  487TIP3    H223021   2.860   4.825   8.217 -0.8173  0.0563  0.7280
  488TIP3   OH223022   5.244   6.534   1.260 -0.0613  1.1018  0.1755
  488TIP3    H123023   5.272   6.621   1.286  0.4128  1.3381 -1.0599
  488TIP3    H223024   5.320   6.496   1.215 -0.9285  0.8857 -1.1880
  489TIP3   OH223025   1.108   1.326   1.185 -0.1880  0.1106 -0.2884
  489TIP3    H123026   1.155   1.270   1.248  2.1585  0.9596 -1.1582
  489TIP3    H223027   1.087   1.405   1.234  2.0018  0.9449 -0.5875
  490TIP3   OH223028   0.841   2.079   6.900 -0.0010 -0.5093  0.2047
  490TIP3    H123029   0.818   1.994   6.939  2.4550 -1.1193  0.4476
  490TIP3    H223030   0.763   2.104   6.851 -0.6572 -3.1186 -0.2313
  491TIP3   OH223031   3.250   3.466   7.801 -0.4832  0.2956 -0.4135
  491TIP3    H123032   3.324   3.445   7.744 -0.1558 -0.1883  0.1798
  491TIP3    H223033   3.173   3.442   7.750 -0.2240  0.5385 -0.9283
  492TIP3   OH223034   6.139   3.614   7.092  0.6473 -0.0368  0.0383
  492TIP3    H123035   6.234   3.599   7.100  0.5097 -1.3868 -0.7350
  492TIP3    H223036   6.107   3.541   7.041 -0.9137  0.1532  0.6966
  493TIP3   OH223037   0.914   1.448   6.520 -0.0779  0.1845  0.0758
  493TIP3    H123038   0.877   1.524   6.477 -3.0627 -1.6165 -0.8712
  493TIP3    H223039   0.893   1.460   6.613 -2.6417 -0.4339 -0.3482
  494TIP3   OH223040   3.459   0.069   7.810  0.2746  0.6051 -0.3837
  494TIP3    H123041   3.431  -0.005   7.755 -1.9637  0.8083  0.3943
  494TIP3    H223042   3.555   0.062   7.812  0.2672 -0.8571 -2.2653
  495TIP3   OH223043   3.297   0.095   0.050  0.1152  0.2202 -0.4640
  495TIP3    H123044   3.365   0.142   0.097 -2.2355  0.9431  2.5798
  495TIP3    H223045   3.230   0.161   0.032 -1.5343 -1.1319  0.3389
  496TIP3   OH223046   4.523   6.553   8.599 -0.4283 -0.4236  0.6551
  496TIP3    H123047   4.539   6.554   8.504 -0.7404  0.1856  0.6035
  496TIP3    H223048   4.544   6.642   8.627  1.6213 -1.1079  1.5040
  497TIP3   OH223049   2.644   6.168   0.929 -0.6025  0.3778 -0.0597
  497TIP3    H123050   2.586   6.103   0.968  0.4786 -1.1890 -0.9638
  497TIP3    H223051   2.631   6.159   0.835  2.7416 -1.7757 -0.4853
  498TIP3   OH223052   3.952   1.693   7.364 -0.4437 -0.3192 -0.3242
  498TIP3    H123053   3.910   1.631   7.304  0.2524  0.4912 -1.7108
  498TIP3    H223054   3.931   1.660   7.451 -1.8245 -1.3317 -0.9937
  499TIP3   OH223055   6.253   6.413   6.797  0.9449  0.2442  0.0708
  499TIP3    H123056   6.338   6.371   6.807  1.6963  1.5724 -0.6175
  499TIP3    H223057   6.212   6.367   6.724  0.5833 -1.1388  1.1050
  500TIP3   OH223058   6.809   6.300   7.211 -0.1874  0.6995  0.0824
  500TIP3    H123059   6.726   6.347   7.199  0.3436  1.3906 -1.0318
  500TIP3    H223060   6.861   6.325   7.135  1.8025  1.8658  1.7428
  501TIP3   OH223061   3.516   4.231   7.493  0.2408 -0.3748 -0.6260
  501TIP3    H123062   3.541   4.322   7.482  1.2853 -0.4712  0.6404
  501TIP3    H223063   3.576   4.182   7.437  2.3689 -0.5236  1.6139
  502TIP3   OH223064   6.631   2.404   8.615 -1.0734 -0.4248  0.6007
  502TIP3    H123065   6.621   2.339   8.685  1.1815  0.3783  1.7836
  502TIP3    H223066   6.688   2.362   8.552 -1.1604 -0.2799  0.4253
  503TIP3   OH223067   0.127   1.738   6.861 -0.0538 -0.4872 -0.0043
  503TIP3    H123068   0.046   1.763   6.816 -0.5102 -1.9137 -0.0219
  503TIP3    H223069   0.195   1.792   6.820 -0.9011  0.3307 -0.3751
  504TIP3   OH223070   5.020   5.491   0.563 -0.2555  0.2010 -0.4445
  504TIP3    H123071   4.990   5.441   0.487 -1.5437  2.1276 -1.2691
  504TIP3    H223072   5.061   5.425   0.619  0.3391 -1.3644 -2.5703
  505TIP3   OH223073   2.370   3.747   8.411  0.2434  0.1895  0.2538
  505TIP3    H123074   2.286   3.714   8.443 -0.9955  1.0387 -1.9187
  505TIP3    H223075   2.386   3.826   8.462  0.7268 -0.9706  1.9888
  506TIP3   OH223076   6.168   1.396   8.297 -0.2776  0.0482  0.7025
  506TIP3    H123077   6.233   1.382   8.228 -0.2733 -0.5758  0.8282
  506TIP3    H223078   6.089   1.423   8.250 -0.6529 -1.5694  0.3144
  507TIP3   OH223079   1.382   6.458   1.271  0.3701 -0.3109  0.8486
  507TIP3    H123080   1.432   6.498   1.201 -1.0158 -0.7486 -0.4341
  507TIP3    H223081   1.447   6.438   1.338  1.5385  1.2952  0.2684
  508TIP3   OH223082   0.129   1.292   1.554 -0.3944  0.3452  0.5852
  508TIP3    H123083   0.221   1.314   1.539  0.2301 -1.5619  1.3099
  508TIP3    H223084   0.103   1.244   1.475 -0.2615 -0.4970  1.0384
  509TIP3   OH223085   1.835   5.845   6.580  0.1823  0.1286 -0.6930
  509TIP3    H123086   1.812   5.922   6.528  0.4828  0.1888 -0.7397
  509TIP3    H223087   1.799   5.772   6.531 -0.0765  0.2365 -0.6659
  510TIP3   OH223088   0.244   5.054   8.303  0.2559  0.0862 -0.1684
  510TIP3    H123089   0.301   5.081   8.231 -0.3741  1.8464 -0.0458
  510TIP3    H223090   0.182   4.992   8.263 -0.5609  1.6093 -1.3646
  511TIP3   OH223091   4.239   0.125   7.782 -0.1482 -0.2980 -0.4893
  511TIP3    H123092   4.231   0.217   7.757  2.0512  0.1748  0.3652
  511TIP3    H223093   4.317   0.122   7.838  1.2227 -3.0581 -2.3455
  512TIP3   OH223094   6.525   5.721   2.490  0.4034 -0.2818 -0.2531
  512TIP3    H123095   6.598   5.735   2.430  0.0404 -0.4542 -0.7462
  512TIP3    H223096   6.500   5.808   2.519 -2.1300  0.3548 -3.6478
  513TIP3   OH223097   0.728   1.856   7.356  0.4486  0.4027 -0.2329
  513TIP3    H123098   0.645   1.895   7.383  1.0129 -0.4512  3.1780
  513TIP3    H223099   0.708   1.764   7.339  0.5597  0.3654 -0.1638
  514TIP3   OH223100   5.147   0.074   7.913 -0.2902  0.1947 -0.5418
  514TIP3    H123101   5.065   0.025   7.910 -0.7803  1.0482 -1.8673
  514TIP3    H223102   5.200   0.037   7.842 -0.3553  1.0376 -1.0357
  515TIP3   OH223103   2.118   2.788   8.366 -0.1020  0.8638 -0.3592
  515TIP3    H123104   2.191   2.741   8.407 -1.7832 -1.3411  0.2618
  515TIP3    H223105   2.049   2.788   8.432 -1.1517  1.7343 -1.4124
  516TIP3   OH223106   0.383   4.556   1.880  0.0936  0.4773  0.5351
  516TIP3    H123107   0.300   4.514   1.858  0.4871 -1.1105  1.9151
  516TIP3    H223108   0.358   4.644   1.909 -0.8289  0.9603 -1.5126
  517TIP3   OH223109   0.408   4.720   0.670 -0.2895  0.0099 -0.2371
  517TIP3    H123110   0.458   4.788   0.714 -1.6292  1.6247 -1.0943
  517TIP3    H223111   0.353   4.682   0.739 -1.1248  1.3415 -0.1255
  518TIP3   OH223112   1.068   4.066   2.658  0.7315 -0.2499  0.3578
  518TIP3    H123113   1.140   4.081   2.597 -0.6646 -1.4672 -1.7478
  518TIP3    H223114   1.018   4.147   2.657 -1.2352 -1.2749 -3.0916
  519TIP3   OH223115   5.434   6.368   1.159 -0.0255 -0.3128 -0.1017
  519TIP3    H123116   5.521   6.390   1.192 -0.8995  0.2121  2.0065
  519TIP3    H223117   5.444   6.280   1.122  1.7126  0.3443 -1.3357
  520TIP3   OH223118   1.990   0.408   7.121 -0.1679  1.1522 -0.2839
  520TIP3    H123119   1.986   0.357   7.202  3.3286  2.2314  0.7591
  520TIP3    H223120   1.988   0.343   7.051  2.4764 -0.3969  0.9426
  521TIP3   OH223121   1.206   1.960   1.390 -0.1626 -0.1049  0.3889
  521TIP3    H123122   1.252   2.042   1.373 -1.5434  0.5289 -0.5171
  521TIP3    H223123   1.273   1.900   1.422  1.4593  0.4981 -1.6810
  522TIP3   OH223124   6.220   4.309   0.155 -0.1799 -0.4445  0.3811
  522TIP3    H123125   6.252   4.317   0.065  0.2644 -3.3323  0.1864
  522TIP3    H223126   6.124   4.312   0.147 -0.1318  0.4111 -0.0109
  523TIP3   OH223127   4.306   3.169   2.058  0.5831 -0.1037  0.0342
  523TIP3    H123128   4.375   3.219   2.102  0.1748 -1.7476  2.8066
  523TIP3    H223129   4.225   3.213   2.084  0.3720 -0.7268  0.4612
  524TIP3   OH223130   5.292   5.729   0.780  0.3000  0.1812  0.0231
  524TIP3    H123131   5.331   5.702   0.863  2.0544 -0.7958 -1.0517
  524TIP3    H223132   5.198   5.714   0.792  0.3169  1.4190  2.2809
  525TIP3   OH223133   4.739   3.237   1.910  0.1192  0.0653  0.0333
  525TIP3    H123134   4.710   3.196   1.991 -0.6320  1.2515  0.3955
  525TIP3    H223135   4.726   3.331   1.925  3.3130  0.6526 -0.1100
  526TIP3   OH223136   6.720   6.022   7.742  0.2714 -0.5417  0.2545
  526TIP3    H123137   6.687   5.934   7.760 -0.4778 -0.1275  0.9309
  526TIP3    H223138   6.710   6.033   7.647  1.1140 -1.4704  0.0360
  527TIP3   OH223139   0.815   6.192   8.553 -0.2146 -0.1499 -0.4929
  527TIP3    H123140   0.779   6.105   8.538 -1.3739  0.3486 -0.7459
  527TIP3    H223141   0.788   6.243   8.477  1.2530  0.2117 -0.8138
  528TIP3   OH223142   4.974   6.468   7.993  0.0636  0.3971 -0.2363
  528TIP3    H123143   5.056   6.487   8.039 -0.0777 -0.0428  0.2114
  528TIP3    H223144   5.001   6.420   7.915  0.2451  0.3421 -0.1416
  529TIP3   OH223145   0.750   0.578   1.232  0.0457 -0.1209  0.3975
  529TIP3    H123146   0.684   0.515   1.201 -0.3680  0.0740  0.8549
  529TIP3    H223147   0.738   0.578   1.327  1.1201 -0.5324  0.5395
  530TIP3   OH223148   6.440   4.954   0.819  0.0864  0.2814  0.0111
  530TIP3    H123149   6.479   4.874   0.785 -1.2018 -0.9716  1.3468
  530TIP3    H223150   6.349   4.931   0.836 -0.0137  1.6693  1.5860
  531TIP3   OH223151   2.140   4.330   1.005 -0.0785 -0.1313  0.4272
  531TIP3    H123152   2.069   4.388   1.034  0.7295  0.3343  1.5429
  531TIP3    H223153   2.102   4.242   1.010 -0.8967  0.1837  0.0001
  532TIP3   OH223154   0.968   2.188   7.102  0.2335 -0.3869  0.3959
  532TIP3    H123155   0.907   2.186   7.175  0.8874 -0.8778  0.9465
  532TIP3    H223156   0.917   2.160   7.026 -0.3623 -0.2224  0.7333
  533TIP3   OH223157   0.446   5.641   8.516 -0.2321  0.5828  0.1779
  533TIP3    H123158   0.489   5.560   8.542 -1.3367 -0.1536 -0.2343
  533TIP3    H223159   0.353   5.618   8.507 -0.3128  1.4518 -1.6946
  534TIP3   OH223160   2.948   3.663   0.591 -0.6930  0.3237 -0.5139
  534TIP3    H123161   2.906   3.721   0.527 -0.6902  1.2859  0.3386
  534TIP3    H223162   2.905   3.579   0.578 -0.4327  0.3997 -2.0378
  535TIP3   OH223163   0.068   6.360   0.653 -0.2653  0.3224  0.4720
  535TIP3    H123164   0.002   6.292   0.641 -0.7187  0.8392 -0.0326
  535TIP3    H223165   0.042   6.403   0.735 -0.4895  0.4371  0.3449
  536TIP3   OH223166   1.392   2.254   8.555 -0.2508 -0.6002  0.0824
  536TIP3    H123167   1.335   2.204   8.614 -0.7044 -0.7197 -0.4536
  536TIP3    H223168   1.481   2.231   8.582 -0.4520 -0.4496  0.8980
  537TIP3   OH223169   3.988   4.107   8.535 -0.5518  0.1575 -0.0761
  537TIP3    H123170   3.976   4.090   8.628  0.1695 -1.9022 -0.3115
  537TIP3    H223171   3.918   4.058   8.492 -1.2502  1.5772 -0.6277
  538TIP3   OH223172   2.335   4.258   0.274  0.1952 -0.5490 -0.2035
  538TIP3    H123173   2.268   4.301   0.328  0.3266 -0.8011  0.1574
  538TIP3    H223174   2.361   4.181   0.324  1.7633  0.2752  0.3354
  539TIP3   OH223175   5.832   3.771   7.478 -0.1916 -0.4453  0.3324
  539TIP3    H123176   5.890   3.770   7.555 -0.5208  0.3417  0.6099
  539TIP3    H223177   5.876   3.716   7.414  0.8047  0.0232  0.5836
  540TIP3   OH223178   1.975   4.841   2.135  0.2668 -0.0833 -0.5686
  540TIP3    H123179   1.969   4.810   2.045  0.0644  1.3398 -1.0700
  540TIP3    H223180   1.885   4.844   2.166  0.3834 -1.1542 -0.0992
  541TIP3   OH223181   6.420   6.105   7.048 -0.1819 -0.2765  0.0153
  541TIP3    H123182   6.364   6.148   7.112 -0.2253  0.7729 -0.6948
  541TIP3    H223183   6.405   6.153   6.967 -0.4824 -1.8588 -0.9173
  542TIP3   OH223184   0.717   0.997   2.294 -0.0386 -0.2473  0.1881
  542TIP3    H123185   0.702   0.962   2.207 -0.7160  1.6803 -0.5110
  542TIP3    H223186   0.645   0.962   2.347 -2.1173  1.8359 -1.0589
  543TIP3   OH223187   1.059   0.121   7.130  0.1250 -0.5005  0.0821
  543TIP3    H123188   1.138   0.127   7.075  0.1983  2.5775  0.3324
  543TIP3    H223189   1.050   0.028   7.149  2.2466 -1.2468 -2.0379
  544TIP3   OH223190   3.427   2.783   0.171  0.1107 -0.2300  0.0839
  544TIP3    H123191   3.340   2.762   0.136 -0.8988  1.4366  1.4348
  544TIP3    H223192   3.413   2.797   0.264  1.9863 -0.6063  0.4634
  545TIP3   OH223193   4.935   1.299   8.696 -0.8836 -0.1845  0.3990
  545TIP3    H123194   4.960   1.278   8.786  0.0696 -0.9163 -0.0100
  545TIP3    H223195   5.019   1.313   8.651 -1.3871  1.5031 -0.0848
  546TIP3   OH223196   2.994   3.588   6.635 -0.4987 -0.4201  0.2811
  546TIP3    H123197   3.077   3.620   6.668 -0.4264  1.3622 -1.4294
  546TIP3    H223198   3.017   3.526   6.566 -0.6479 -2.6214  2.1140
  547TIP3   OH223199   3.606   2.481   0.477 -0.1042  0.1640 -0.1217
  547TIP3    H123200   3.601   2.562   0.528  1.8650  0.1160  0.2180
  547TIP3    H223201   3.627   2.509   0.388 -0.1820  0.0585 -0.1745
  548TIP3   OH223202   0.926   5.806   0.376 -0.1105  0.1904 -0.2030
  548TIP3    H123203   0.851   5.857   0.408  1.2661  2.1426  0.0630
  548TIP3    H223204   0.950   5.848   0.293  0.8148 -0.2914 -0.1878
  549TIP3   OH223205   6.307   6.433   8.098  0.4000  0.0587  0.1706
  549TIP3    H123206   6.317   6.340   8.077 -0.9764  0.1992 -1.2563
  549TIP3    H223207   6.275   6.472   8.017  0.5990  1.7214  0.8693
  550TIP3   OH223208   5.042   4.307   7.779  0.0420 -0.8007 -0.0836
  550TIP3    H123209   4.958   4.263   7.792 -0.0333 -0.2827  1.3785
  550TIP3    H223210   5.030   4.394   7.819  1.6133 -1.1475  1.2410
  551TIP3   OH223211   3.699   0.657   2.337  0.0062  0.3934  0.5595
  551TIP3    H123212   3.730   0.570   2.313 -1.4255 -0.2882  1.0726
  551TIP3    H223213   3.606   0.656   2.317  0.0700  2.0266  0.0054
  552TIP3   OH223214   2.937   0.699   0.004 -0.0456  0.0316  0.0511
  552TIP3    H123215   2.847   0.712   0.034  0.1593  0.8541  0.3472
  552TIP3    H223216   2.929   0.641  -0.072 -1.1077  2.0060 -1.4505
  553TIP3   OH223217   2.936   0.268   0.194 -0.1680 -0.0948 -0.3692
  553TIP3    H123218   2.857   0.274   0.141 -1.0380  2.6906  1.0497
  553TIP3    H223219   3.007   0.291   0.135 -0.3213 -2.4875 -1.6251
  554TIP3   OH223220   4.800   2.259   1.773 -0.5325  0.5231 -0.1027
  554TIP3    H123221   4.830   2.225   1.857 -1.3482  0.0488  0.0092
  554TIP3    H223222   4.819   2.353   1.777 -0.5305  0.4968  0.5992
  555TIP3   OH223223   5.321   3.100   1.376  0.0850  0.6018  0.0222
  555TIP3    H123224   5.257   3.143   1.433 -0.9564 -0.5919 -0.2027
  555TIP3    H223225   5.378   3.052   1.436  1.3931  2.3707  0.2951
  556TIP3   OH223226   6.383   6.499   1.135 -0.2355  0.2454 -0.2818
  556TIP3    H123227   6.421   6.415   1.106  0.4106  0.1165  0.8505
  556TIP3    H223228   6.413   6.508   1.226 -1.4796  1.0250  0.0721
  557TIP3   OH223229   3.815   2.083   6.394  0.0569  0.1409 -0.0475
  557TIP3    H123230   3.878   2.097   6.323 -0.0642  0.7409 -0.0487
  557TIP3    H223231   3.836   2.151   6.458 -0.3805  0.1509  0.0931
  558TIP3   OH223232   5.290   3.567   8.458 -0.0730 -0.2804  0.6349
  558TIP3    H123233   5.331   3.515   8.527  2.2984  0.5100 -0.0687
  558TIP3    H223234   5.335   3.651   8.461 -2.0593  0.8574  0.0859
  559TIP3   OH223235   1.834   5.490   7.075  0.1847  0.0895  0.1281
  559TIP3    H123236   1.919   5.532   7.088 -0.0263  0.8268 -0.7407
  559TIP3    H223237   1.844   5.442   6.992  0.6734 -2.3025  1.4556
  560TIP3   OH223238   3.580   4.127   0.725 -0.2936 -0.5190 -0.0904
  560TIP3    H123239   3.583   4.222   0.723  1.2524 -0.5416 -1.5770
  560TIP3    H223240   3.546   4.102   0.639  2.5252 -1.2613 -1.1342
  561TIP3   OH223241   5.711   3.534   0.508 -0.5122  0.6319 -0.2733
  561TIP3    H123242   5.726   3.493   0.593  1.5851  0.5048 -0.6531
  561TIP3    H223243   5.669   3.466   0.456 -0.2518  0.1319  0.1557
  562TIP3   OH223244   4.306   2.372   8.003  0.1098 -0.0917 -0.3268
  562TIP3    H123245   4.258   2.292   7.985  0.7205 -0.5483  0.0232
  562TIP3    H223246   4.384   2.343   8.051  1.1653  0.5322 -1.5994
  563TIP3   OH223247   4.206   1.871   8.212 -0.2673  0.1272 -0.1275
  563TIP3    H123248   4.179   1.867   8.303  0.1000 -1.7656 -0.0611
  563TIP3    H223249   4.191   1.962   8.186 -2.1434  0.2618  1.2534
  564TIP3   OH223250   4.363   0.249   0.924  0.2389 -0.4378 -0.3470
  564TIP3    H123251   4.300   0.249   0.852  0.0372  1.6018 -0.2461
  564TIP3    H223252   4.448   0.256   0.881  0.0749  1.7584 -0.4723
  565TIP3   OH223253   1.697   4.401   0.930  0.2122 -1.3582  0.1945
  565TIP3    H123254   1.638   4.375   1.000 -2.8802  0.7467 -1.3756
  565TIP3    H223255   1.753   4.468   0.969 -1.1131 -0.5902  0.8475
  566TIP3   OH223256   1.173   4.681   6.663 -0.6282 -0.3697 -0.4124
  566TIP3    H123257   1.154   4.665   6.756  0.9134  1.0366  0.1849
  566TIP3    H223258   1.133   4.606   6.618 -1.6235 -0.9649  1.3420
  567TIP3   OH223259   6.591   3.443   1.205 -0.0929 -0.3323 -0.1261
  567TIP3    H123260   6.517   3.396   1.243  0.5936 -0.4502  1.0965
  567TIP3    H223261   6.565   3.458   1.114 -2.4578  1.3219  0.7178
  568TIP3   OH223262   6.007   1.335   7.734 -0.1894 -0.2794 -0.3069
  568TIP3    H123263   5.967   1.316   7.819  1.4508 -0.4313  0.4633
  568TIP3    H223264   6.035   1.426   7.741 -0.9531  0.0432 -1.0991
  569TIP3   OH223265   0.346   1.066   8.471  0.3660 -0.2804 -0.0698
  569TIP3    H123266   0.302   0.981   8.483 -0.9330  0.2486 -0.8455
  569TIP3    H223267   0.428   1.058   8.520  0.8861 -2.4398 -1.1764
  570TIP3   OH223268   4.484   3.308   1.144 -0.3816  0.3527 -0.8619
  570TIP3    H123269   4.545   3.318   1.072 -2.0701  0.1359 -2.3917
  570TIP3    H223270   4.485   3.215   1.165  0.6101  0.5194 -0.1231
  571TIP3   OH223271   1.830   1.057   8.117 -0.0304  0.7651  0.1687
  571TIP3    H123272   1.910   1.107   8.107 -0.8017  1.9115 -0.4948
  571TIP3    H223273   1.782   1.070   8.035 -0.0439 -1.5059 -0.2666
  572TIP3   OH223274   0.726   0.334   8.523 -0.6049 -0.3974  0.3671
  572TIP3    H123275   0.682   0.288   8.594 -1.6106 -1.0184 -0.6286
  572TIP3    H223276   0.775   0.404   8.566 -2.4320  0.2061  1.5445
  573TIP3   OH223277   5.526   2.635   0.677  0.1632 -0.1793  0.0417
  573TIP3    H123278   5.598   2.655   0.737 -0.6806  1.3758  0.6090
  573TIP3    H223279   5.463   2.586   0.730 -0.3791  0.8057  0.3442
  574TIP3   OH223280   2.758   5.817   7.046  0.6947 -0.1516  0.1950
  574TIP3    H123281   2.748   5.842   6.954  0.1636  0.9493  0.5341
  574TIP3    H223282   2.820   5.745   7.045  0.8370 -0.0271 -1.0128
  575TIP3   OH223283   4.686   0.484   7.512 -0.8415 -0.9093 -0.1145
  575TIP3    H123284   4.766   0.478   7.460 -1.5354 -1.0205 -1.1808
  575TIP3    H223285   4.705   0.554   7.575 -0.2045 -0.3495 -0.8994
  576TIP3   OH223286   5.029   2.906   0.929 -0.4050  1.0836 -0.3628
  576TIP3    H123287   4.980   2.908   1.012 -1.6261  1.0652 -1.0518
  576TIP3    H223288   4.969   2.945   0.866  0.0296 -0.0127 -1.4907
  577TIP3   OH223289   3.367   1.158   7.437  0.2654  0.0582 -0.4285
  577TIP3    H123290   3.311   1.178   7.512  2.0914 -0.9455  1.2940
  577TIP3    H223291   3.446   1.210   7.453  1.1804 -1.1331 -0.9711
  578TIP3   OH223292   3.734   3.394   6.882  0.2688 -0.3945 -0.5533
  578TIP3    H123293   3.823   3.418   6.907 -0.2381 -0.1965  1.2321
  578TIP3    H223294   3.713   3.452   6.809  1.5468 -0.3579 -0.9146
  579TIP3   OH223295   2.358   2.623   7.579 -0.6755  0.3651 -0.0600
  579TIP3    H123296   2.351   2.713   7.545 -0.3036  0.3323 -0.2316
  579TIP3    H223297   2.343   2.568   7.502 -0.2851  0.2870 -0.0837
  580TIP3   OH223298   4.024   1.884   8.632  0.0012 -0.2287 -0.0446
  580TIP3    H123299   3.971   1.806   8.615  0.0948 -0.4621  0.6975
  580TIP3    H223300   4.113   1.850   8.641  0.4419  0.2515 -2.1174
  581TIP3   OH223301   4.857   4.730   5.892 -0.4159 -0.3038 -0.1933
  581TIP3    H123302   4.933   4.772   5.932  0.0752  3.2233 -4.1504
  581TIP3    H223303   4.783   4.760   5.944  0.4300  1.1588  0.2335
  582TIP3   OH223304   5.345   4.700   7.665  0.3692  0.1003  0.4107
  582TIP3    H123305   5.379   4.673   7.580 -0.0646  1.5611 -0.2552
  582TIP3    H223306   5.421   4.734   7.712  0.2030  1.6441 -0.3797
  583TIP3   OH223307   3.311   3.921   6.566 -0.3091 -0.1087  0.3245
  583TIP3    H123308   3.267   4.002   6.542  0.3502  0.3587  0.6486
  583TIP3    H223309   3.336   3.881   6.483 -0.2843  0.2219  0.1725
  584TIP3   OH223310   0.824   1.093   1.411 -0.1802  0.4227 -0.2963
  584TIP3    H123311   0.920   1.091   1.401 -0.1593 -0.2988 -0.0044
  584TIP3    H223312   0.810   1.101   1.505 -0.4111  0.5113 -0.3387
  585TIP3   OH223313   1.116   3.490   7.559 -0.1096  0.5974  0.5596
  585TIP3    H123314   1.040   3.433   7.565 -0.6750  1.1002 -1.1513
  585TIP3    H223315   1.097   3.562   7.619 -0.2496 -0.0660  1.3159
  586TIP3   OH223316   6.117   5.023   8.703 -0.0997 -0.1949  0.9619
  586TIP3    H123317   6.045   5.082   8.727  1.1143  0.2256  3.9806
  586TIP3    H223318   6.096   4.941   8.748 -0.2935 -1.1806 -0.8383
  587TIP3   OH223319   5.791   3.547   1.454  0.1387 -0.2030  0.6528
  587TIP3    H123320   5.726   3.616   1.442  1.3312  0.9842  0.7895
  587TIP3    H223321   5.784   3.493   1.375 -1.1930 -0.2826  0.7982
  588TIP3   OH223322   6.339   2.176   1.022  0.2380  0.1813  0.1798
  588TIP3    H123323   6.371   2.140   1.105  0.8350 -0.8387 -0.4756
  588TIP3    H223324   6.398   2.140   0.956 -0.7724  0.2581 -0.7909
  589TIP3   OH223325   6.772   6.073   0.095 -0.0694 -0.6699  0.0580
  589TIP3    H123326   6.773   6.012   0.022  0.8184 -2.5054  1.5267
  589TIP3    H223327   6.807   6.023   0.169 -0.0558  1.3844  1.5303
  590TIP3   OH223328   2.766   4.976   1.283 -0.2061  0.3346 -0.0009
  590TIP3    H123329   2.763   5.053   1.340  2.1186 -0.6310  1.5987
  590TIP3    H223330   2.790   4.904   1.341 -3.8602 -2.0463 -1.1223
  591TIP3   OH223331   6.671   3.624   0.075  0.2198 -0.2598  0.3431
  591TIP3    H123332   6.714   3.627   0.161  0.5836  1.6958  0.1412
  591TIP3    H223333   6.731   3.573   0.020  1.0112  0.2148  0.7398
  592TIP3   OH223334   5.198   4.153   2.246  0.0701  0.2341 -0.7856
  592TIP3    H123335   5.156   4.072   2.276  0.3515  0.3297 -0.1363
  592TIP3    H223336   5.236   4.129   2.161  0.5595 -0.4464 -0.3788
  593TIP3   OH223337   0.351   6.522   6.597 -0.0642  0.3619 -0.2236
  593TIP3    H123338   0.275   6.581   6.590 -0.9425 -0.7452 -0.3455
  593TIP3    H223339   0.369   6.497   6.506 -1.4648 -1.6818 -0.0131
  594TIP3   OH223340   2.033   0.051   8.167 -0.2272 -0.2108 -0.2324
  594TIP3    H123341   2.023  -0.031   8.118  2.2620 -0.7831  0.0886
  594TIP3    H223342   2.087   0.106   8.110  1.3517 -0.2801  1.1561
  595TIP3   OH223343   3.687   3.345   7.503  0.3732 -0.4481 -0.2335
  595TIP3    H123344   3.747   3.383   7.568 -0.9927 -0.3437  1.0076
  595TIP3    H223345   3.744   3.320   7.430  1.5254  2.8857 -0.6652
  596TIP3   OH223346   1.393   6.206   0.585 -0.2239  0.4468 -0.6050
  596TIP3    H123347   1.384   6.261   0.663  0.4214  0.0437 -0.2386
  596TIP3    H223348   1.310   6.218   0.538 -1.0237 -0.0499  0.6293
  597TIP3   OH223349   4.980   2.509   0.048 -0.0485  0.2572 -0.2028
  597TIP3    H123350   4.896   2.543   0.017  1.1618  0.7839 -3.2803
  597TIP3    H223351   4.978   2.416   0.023  0.1708  0.2024 -0.0135
  598TIP3   OH223352   3.995   1.907   8.011 -0.8246 -0.0890  0.0902
  598TIP3    H123353   3.920   1.916   8.069 -1.1530 -1.4451 -0.0736
  598TIP3    H223354   4.049   1.839   8.052 -0.0995  0.2839 -0.2211
  599TIP3   OH223355   3.606   5.685   0.369  0.5861 -0.0220 -0.3306
  599TIP3    H123356   3.591   5.729   0.285 -2.3160  0.1522  0.1961
  599TIP3    H223357   3.696   5.709   0.393  0.8598  1.3750 -2.5070
  600TIP3   OH223358   3.572   2.723   8.235 -0.0929 -0.2016  0.3222
  600TIP3    H123359   3.514   2.659   8.194 -1.5675  2.2141 -1.5962
  600TIP3    H223360   3.655   2.675   8.247 -0.2833 -1.8097 -3.3627
  601TIP3   OH223361   0.779   3.387   0.895  0.2192 -0.4100  0.2771
  601TIP3    H123362   0.782   3.335   0.814  0.8442 -1.6462  1.0653
  601TIP3    H223363   0.786   3.477   0.865  1.4780 -0.8915 -1.0199
  602TIP3   OH223364   1.281   3.207   6.531  0.3348 -0.3002 -0.2982
  602TIP3    H123365   1.270   3.130   6.474 -0.2571 -0.6148  0.2278
  602TIP3    H223366   1.196   3.252   6.527  0.0955 -0.6338  0.7647
  603TIP3   OH223367   0.923   6.249   7.242 -0.1633  0.5427 -0.1972
  603TIP3    H123368   0.918   6.342   7.220 -1.1718  0.6410  0.4045
  603TIP3    H223369   0.924   6.204   7.158  2.4442  1.1485 -0.5908
  604TIP3   OH223370   5.214   3.581   1.293  0.1345 -0.1799 -0.3156
  604TIP3    H123371   5.132   3.622   1.268  0.2079 -0.2170 -0.6262
  604TIP3    H223372   5.199   3.487   1.279  0.2902 -0.1704 -0.5571
  605TIP3   OH223373   1.547   4.276   0.422 -0.0083 -0.1353 -0.0513
  605TIP3    H123374   1.617   4.225   0.461 -0.7397  0.4907  2.2536
  605TIP3    H223375   1.497   4.310   0.497 -0.9496  1.9702 -1.5195
  606TIP3   OH223376   4.878   0.234   0.690 -0.2144  0.0639  0.5428
  606TIP3    H123377   4.800   0.277   0.726  0.0144  0.8678  0.0820
  606TIP3    H223378   4.845   0.153   0.652 -0.7231  0.0576  0.9879
  607TIP3   OH223379   2.630   1.362   6.919  0.6985  0.1774  0.3635
  607TIP3    H123380   2.559   1.327   6.973  0.5686  1.8781  1.3817
  607TIP3    H223381   2.656   1.289   6.863 -2.6275 -0.2058 -0.8990
  608TIP3   OH223382   5.343   4.007   7.605 -0.5105 -0.6009  0.6283
  608TIP3    H123383   5.366   3.927   7.652  4.7208  0.7701  1.1002
  608TIP3    H223384   5.315   4.068   7.673 -2.3835 -1.3160  0.5446
  609TIP3   OH223385   0.160   5.271   1.319 -0.5696 -0.4154  0.5857
  609TIP3    H123386   0.141   5.290   1.227  0.6466 -0.8375  0.2302
  609TIP3    H223387   0.153   5.356   1.363  0.7535  0.1544 -0.2552
  610TIP3   OH223388   3.426   4.866   2.441 -0.0148 -0.0004 -0.0057
  610TIP3    H123389   3.369   4.941   2.422  2.0578  2.0172  1.1892
  610TIP3    H223390   3.409   4.845   2.532  0.2129 -0.2708 -0.0262
  611TIP3   OH223391   3.801   4.190   1.183  0.0871 -0.2989  0.3550
  611TIP3    H123392   3.733   4.130   1.213 -0.3491 -0.7947 -1.4664
  611TIP3    H223393   3.882   4.156   1.221 -0.2845 -1.5373  0.1014
  612TIP3   OH223394   0.455   1.393   7.099 -0.3117 -0.2621  0.2257
  612TIP3    H123395   0.399   1.317   7.111 -0.9273  0.1157 -0.2039
  612TIP3    H223396   0.395   1.468   7.099 -0.0342  0.0212 -1.9634
  613TIP3   OH223397   3.931   2.167   7.192 -0.0487  0.0344  0.5848
  613TIP3    H123398   3.952   2.076   7.212  0.3048  0.0416  0.2492
  613TIP3    H223399   3.909   2.205   7.277 -1.7901 -0.7618  0.5263
  614TIP3   OH223400   1.731   4.475   6.724  0.1471  0.5579  0.1563
  614TIP3    H123401   1.792   4.462   6.651 -0.7069  1.4912 -0.7404
  614TIP3    H223402   1.679   4.394   6.726  0.6085  0.2552  0.1672
  615TIP3   OH223403   4.801   4.746   2.033  0.4685  0.0105 -0.2018
  615TIP3    H123404   4.763   4.684   1.970  0.1121 -0.1457  0.1601
  615TIP3    H223405   4.839   4.691   2.101 -0.2253  0.1782  0.3407
  616TIP3   OH223406   4.036   4.786   0.901 -0.7254  0.4639 -0.2315
  616TIP3    H123407   4.044   4.877   0.929  0.1626  0.4964 -0.5660
  616TIP3    H223408   3.955   4.755   0.942 -0.7328  1.2302  0.3425
  617TIP3   OH223409   0.877   0.975   7.577  0.7191  0.1538 -0.4476
  617TIP3    H123410   0.906   1.047   7.633 -1.5204  0.8082 -0.0499
  617TIP3    H223411   0.837   0.912   7.637  1.1817 -0.6684 -0.9794
  618TIP3   OH223412   5.953   3.865   6.889 -0.3822  0.2754 -0.2457
  618TIP3    H123413   6.013   3.937   6.909  0.2260  0.0510 -1.2348
  618TIP3    H223414   5.998   3.813   6.823 -1.3956 -0.2601 -0.5392
  619TIP3   OH223415   2.147   4.614   0.496  0.1121  0.3753  0.0557
  619TIP3    H123416   2.180   4.704   0.500 -1.8753  1.1383  0.2963
  619TIP3    H223417   2.062   4.621   0.452 -0.9372 -1.1138  1.7080
  620TIP3   OH223418   5.355   2.449   6.994 -0.1692 -0.0761  0.2894
  620TIP3    H123419   5.356   2.376   6.932  0.3500  0.9594 -0.9617
  620TIP3    H223420   5.338   2.526   6.940  0.0062  0.8227  1.4829
  621TIP3   OH223421   0.428   0.289   2.515  0.3533  0.1559 -0.0785
  621TIP3    H123422   0.354   0.277   2.574  0.6670 -0.7682  0.1360
  621TIP3    H223423   0.390   0.328   2.436 -0.1078  1.1443  0.6197
  622TIP3   OH223424   3.007   0.585   6.479  0.6711  0.1807 -0.2799
  622TIP3    H123425   2.924   0.557   6.439  1.0998 -0.1901 -0.9307
  622TIP3    H223426   3.021   0.673   6.445  0.1421  0.5723  0.4798
  623TIP3   OH223427   2.837   6.792   0.505  0.4019 -0.8809  0.0932
  623TIP3    H123428   2.770   6.726   0.490 -1.5789  0.5698  1.8199
  623TIP3    H223429   2.889   6.793   0.425 -0.9996 -2.8077 -0.9147
  624TIP3   OH223430   6.330   5.779   0.825 -0.0470 -0.0885  0.1305
  624TIP3    H123431   6.354   5.725   0.750 -2.0067 -0.6527 -0.1484
  624TIP3    H223432   6.310   5.865   0.788 -1.4284 -0.4804 -0.1136
  625TIP3   OH223433   5.965   0.157   7.236 -0.6450  0.3615  0.0942
  625TIP3    H123434   5.938   0.228   7.293  0.6389 -1.0791  2.6755
  625TIP3    H223435   5.884   0.127   7.194 -1.3877  2.4041 -0.0071
  626TIP3   OH223436   6.669   4.219   6.411  0.5076  0.1002 -0.3422
  626TIP3    H123437   6.714   4.293   6.371 -0.0938  1.7445  1.8133
  626TIP3    H223438   6.587   4.212   6.364  0.9246  0.2662 -1.1073
  627TIP3   OH223439   2.773   0.646   7.382  0.1224  0.5674 -0.3467
  627TIP3    H123440   2.798   0.708   7.451 -2.2310 -1.1413  2.2039
  627TIP3    H223441   2.685   0.673   7.356 -1.7213 -2.5036  2.0670
  628TIP3   OH223442   0.777   5.471   8.511  0.1762 -0.2251 -0.5621
  628TIP3    H123443   0.860   5.428   8.532  0.4773 -0.0873 -1.4588
  628TIP3    H223444   0.801   5.561   8.490 -0.3041  0.0478  0.0268
  629TIP3   OH223445   3.131   5.906   7.542  0.4415 -0.2607  0.3910
  629TIP3    H123446   3.087   5.990   7.554  2.8476  0.8667  2.3259
  629TIP3    H223447   3.089   5.847   7.605  0.2682  0.1549  0.6662
  630TIP3   OH223448   2.328   0.893   7.738  0.0771 -0.6732  0.6576
  630TIP3    H123449   2.301   0.899   7.829 -0.6398  0.4240  0.3993
  630TIP3    H223450   2.420   0.918   7.738 -0.1037 -0.0001  0.9965
  631TIP3   OH223451   6.189   6.221   0.106  0.3412  0.3970  0.4181
  631TIP3    H123452   6.252   6.278   0.150  0.3667  0.8261 -0.1706
  631TIP3    H223453   6.133   6.281   0.057  0.6476 -0.1123 -0.5734
  632TIP3   OH223454   0.572   2.432   0.491  0.5545 -0.1507 -0.5953
  632TIP3    H123455   0.522   2.463   0.415 -1.2230 -1.5312 -0.0415
  632TIP3    H223456   0.529   2.351   0.517  1.7781 -0.2570  1.2714
  633TIP3   OH223457   1.367   1.049   8.691  0.0634  0.4309  0.3218
  633TIP3    H123458   1.405   1.119   8.637 -0.0651  0.1147 -0.1841
  633TIP3    H223459   1.360   1.087   8.779  1.9872  0.3485  0.5428
  634TIP3   OH223460   6.475   4.635   1.202 -0.0141  0.3756  0.4657
  634TIP3    H123461   6.419   4.596   1.269 -0.4904 -0.2923 -0.3053
  634TIP3    H223462   6.422   4.706   1.166  0.7619  1.6390  1.7072
  635TIP3   OH223463   6.283   4.390   0.561 -0.0637 -0.0179  0.3989
  635TIP3    H123464   6.285   4.301   0.597 -0.0875  0.1340  0.7767
  635TIP3    H223465   6.320   4.445   0.630 -0.3978  0.3169  0.3143
  636TIP3   OH223466   1.732   1.316   0.417 -0.1919  0.1908  0.3240
  636TIP3    H123467   1.780   1.256   0.474 -1.3016 -0.2939  0.7605
  636TIP3    H223468   1.772   1.304   0.331 -0.0887 -0.8402  0.5014
  637TIP3   OH223469   0.653   6.704   1.033 -0.5772 -0.2059  0.1639
  637TIP3    H123470   0.738   6.659   1.026 -1.7208 -2.4563 -0.3488
  637TIP3    H223471   0.659   6.777   0.971  0.9902 -0.2909  0.1689
  638TIP3   OH223472   4.915   1.440   6.986 -0.2749 -0.5327  0.3550
  638TIP3    H123473   4.979   1.483   6.929 -0.1274 -1.8170 -0.5038
  638TIP3    H223474   4.961   1.362   7.019 -1.2091 -1.1900  0.1405
  639TIP3   OH223475   4.291   5.170   7.506  0.0941  0.0498  0.0656
  639TIP3    H123476   4.228   5.236   7.475  0.3897 -0.0843 -0.8547
  639TIP3    H223477   4.298   5.186   7.600 -1.7578 -0.3066  0.3110
  640TIP3   OH223478   5.448   6.756   0.946  0.4123 -0.2828  0.2176
  640TIP3    H123479   5.530   6.708   0.940  1.5832  1.4777  1.2648
  640TIP3    H223480   5.382   6.689   0.964  1.9471 -1.5370  1.4863
  641TIP3   OH223481   2.907   5.400   7.372  0.0144  0.2471  0.0758
  641TIP3    H123482   2.851   5.422   7.298  0.7308  2.0606  0.0228
  641TIP3    H223483   2.992   5.381   7.333  0.1773  0.3757  0.3617
  642TIP3   OH223484   6.250   1.688   0.403  0.1041 -0.2745 -0.0811
  642TIP3    H123485   6.255   1.647   0.490 -0.5553 -1.7670 -0.7235
  642TIP3    H223486   6.340   1.686   0.371  0.3852  0.4458  0.6192
  643TIP3   OH223487   1.863   2.725   1.987 -0.1476 -0.1989 -0.6142
  643TIP3    H123488   1.948   2.759   1.958 -0.0819 -0.8469 -1.2192
  643TIP3    H223489   1.856   2.639   1.944 -0.6279 -0.6328  0.2969
  644TIP3   OH223490   3.782   2.910   8.157 -0.1147  0.2195  0.1048
  644TIP3    H123491   3.744   2.872   8.077 -0.6856  2.2119 -0.6392
  644TIP3    H223492   3.715   2.972   8.188  0.4024  0.0160  1.7358
  645TIP3   OH223493   6.106   3.910   8.602  0.5233  0.9475  0.1276
  645TIP3    H123494   6.106   3.903   8.697  2.2040  0.5179  0.1164
  645TIP3    H223495   6.192   3.878   8.575 -0.4268 -0.2769 -1.6406
  646TIP3   OH223496   1.260   6.258   1.018  0.1252  0.3790  0.5530
  646TIP3    H123497   1.330   6.280   1.079 -0.2808 -0.9177  1.5366
  646TIP3    H223498   1.258   6.162   1.018 -0.8455  0.3841 -0.3961
  647TIP3   OH223499   0.510   3.114   8.284 -0.0910 -0.5012  0.2036
  647TIP3    H123500   0.584   3.095   8.342  0.1921  0.0075  0.0073
  647TIP3    H223501   0.495   3.031   8.237  1.3266 -0.1923 -0.8592
  648TIP3   OH223502   1.076   4.941   6.708  0.1488 -0.1823  0.3455
  648TIP3    H123503   1.093   4.849   6.684  0.0343  0.2079 -1.3660
  648TIP3    H223504   1.089   4.989   6.627 -0.5151  1.2412  1.0567
  649TIP3   OH223505   0.982   1.818   0.588  0.0914 -0.1557  0.4874
  649TIP3    H123506   0.985   1.813   0.492 -4.0163 -0.4375  0.2229
  649TIP3    H223507   0.964   1.910   0.607  0.9466 -0.0891  1.0584
  650TIP3   OH223508   3.446   5.131   0.097 -0.0571  0.2091  0.5674
  650TIP3    H123509   3.532   5.169   0.113  0.7386 -0.1400 -2.3171
  650TIP3    H223510   3.385   5.199   0.128  1.2700  1.4573  0.5821
  651TIP3   OH223511   4.372   0.817   6.942  0.3413  0.2553 -0.2187
  651TIP3    H123512   4.331   0.811   7.028 -2.6724  2.1750 -1.3843
  651TIP3    H223513   4.372   0.910   6.921 -0.4016 -0.2500 -2.8588
  652TIP3   OH223514   3.186   5.021   2.419  0.0680 -0.1133 -0.1133
  652TIP3    H123515   3.181   5.097   2.477  1.2701  0.6524 -0.9656
  652TIP3    H223516   3.184   5.057   2.331  1.2164 -1.0110 -0.5385
  653TIP3   OH223517   3.127   1.719   6.420  0.3885 -0.3342  0.3175
  653TIP3    H123518   3.057   1.665   6.456  0.4892 -1.2817 -0.8424
  653TIP3    H223519   3.146   1.783   6.489 -2.3075  0.6385  0.2716
  654TIP3   OH223520   5.156   1.109   8.058  0.3949  0.1491 -0.1835
  654TIP3    H123521   5.144   1.021   8.023  2.6277 -0.2768 -0.0575
  654TIP3    H223522   5.083   1.122   8.118  1.6216 -2.8934  2.2600
  655TIP3   OH223523   0.956   3.092   7.318  0.2968 -0.5889  0.3178
  655TIP3    H123524   0.873   3.108   7.363  0.5987 -1.1715  1.1043
  655TIP3    H223525   1.021   3.093   7.388  1.2313  1.8144 -0.5152
  656TIP3   OH223526   2.589   1.453   1.493  0.1593  0.1254  0.7250
  656TIP3    H123527   2.513   1.477   1.545  0.6949 -0.6503  1.9073
  656TIP3    H223528   2.651   1.525   1.506 -0.5783  1.0859 -0.7702
  657TIP3   OH223529   1.798   4.744   6.738  0.2654 -0.0623 -0.2118
  657TIP3    H123530   1.764   4.655   6.728 -1.0902  0.6122 -2.1529
  657TIP3    H223531   1.721   4.798   6.754  0.9584  0.9051 -0.0575
  658TIP3   OH223532   3.075   2.973   1.072 -0.0097 -0.1450 -0.6337
  658TIP3    H123533   3.144   2.940   1.015  0.8323  2.4540 -1.2431
  658TIP3    H223534   3.008   3.007   1.012 -0.4457  0.0541 -0.0439
  659TIP3   OH223535   0.047   3.578   8.207  0.2347  0.2503 -0.4430
  659TIP3    H123536   0.126   3.574   8.154 -0.3045  1.0668 -1.3483
  659TIP3    H223537   0.015   3.488   8.210 -0.0004  0.2601 -1.9649
  660TIP3   OH223538   6.234   3.742   7.402  0.5750 -0.0716 -0.0428
  660TIP3    H123539   6.279   3.670   7.358  1.7838  1.5133 -1.5237
  660TIP3    H223540   6.283   3.754   7.484  3.1224  1.7020 -1.6802
  661TIP3   OH223541   1.187   3.567   0.986  0.2015 -0.0929 -0.4856
  661TIP3    H123542   1.202   3.531   0.899  0.8720 -0.1657 -0.3473
  661TIP3    H223543   1.211   3.659   0.978  0.4669 -0.1466 -0.3314
  662TIP3   OH223544   4.431   2.755   0.795 -0.5315  0.1871 -0.0466
  662TIP3    H123545   4.413   2.693   0.866  0.1726  0.0005 -0.0269
  662TIP3    H223546   4.351   2.808   0.789 -0.1216  1.0767  1.7635
  663TIP3   OH223547   2.695   5.611   0.256 -0.1426 -0.2441  0.1165
  663TIP3    H123548   2.671   5.677   0.321  0.5463 -1.0290  1.2091
  663TIP3    H223549   2.787   5.627   0.237 -0.0761 -0.6398  0.0915
  664TIP3   OH223550   3.154   5.223   7.836 -0.3581  0.1763  0.7784
  664TIP3    H123551   3.089   5.257   7.774  1.5545 -0.0365 -1.5028
  664TIP3    H223552   3.134   5.129   7.843 -1.0026  0.3288  1.0558
  665TIP3   OH223553   1.258   0.435   1.673  0.1149  0.5858  0.0253
  665TIP3    H123554   1.323   0.497   1.640  3.2126 -1.2290  2.2252
  665TIP3    H223555   1.238   0.467   1.761 -2.7399  1.5162 -0.8405
  666TIP3   OH223556   3.592   0.313   1.036 -0.6674 -0.3159  0.3262
  666TIP3    H123557   3.679   0.306   1.075 -0.0887  0.2753 -0.8035
  666TIP3    H223558   3.561   0.400   1.062 -1.4731 -1.0011  1.7687
  667TIP3   OH223559   5.972   3.939   1.651  0.8402  1.0375 -0.3860
  667TIP3    H123560   6.025   3.987   1.715  0.0867  1.0737  0.2301
  667TIP3    H223561   5.911   3.888   1.704 -0.1308  1.4476 -1.0782
  668TIP3   OH223562   4.413   1.778   8.059  0.2438 -0.3179  0.1616
  668TIP3    H123563   4.336   1.806   8.109  0.6961 -0.6842  1.0784
  668TIP3    H223564   4.479   1.845   8.078  0.4959 -0.5937  0.2603
  669TIP3   OH223565   4.984   5.909   7.650  0.5399  0.2502 -0.5722
  669TIP3    H123566   4.900   5.944   7.679 -0.2513 -1.7112 -0.3801
  669TIP3    H223567   4.997   5.830   7.703  2.2157  0.1781 -1.0286
  670TIP3   OH223568   0.120   6.167   0.939 -0.4491 -0.5718  0.2370
  670TIP3    H123569   0.072   6.142   1.017 -2.3440  1.5130 -0.1606
  670TIP3    H223570   0.078   6.248   0.909  1.9035  0.1605 -1.4434
  671TIP3   OH223571   5.563   6.514   0.884 -0.3106  0.0561  0.0862
  671TIP3    H123572   5.652   6.481   0.874 -0.6510 -0.9324  0.2017
  671TIP3    H223573   5.515   6.442   0.924 -1.2240  0.4822 -0.2051
  672TIP3   OH223574   1.721   5.676   0.279 -0.3069 -0.5004  0.6358
  672TIP3    H123575   1.698   5.591   0.240 -0.9212  0.2459 -0.7036
  672TIP3    H223576   1.816   5.675   0.284 -0.3535 -2.0330  2.4930
  673TIP3   OH223577   3.503   4.249   1.017  0.3208  0.0488 -1.2508
  673TIP3    H123578   3.529   4.288   0.933 -0.3361  0.6828 -1.1685
  673TIP3    H223579   3.573   4.273   1.077  1.0517 -0.8347 -1.7232
  674TIP3   OH223580   3.829   1.766   1.290 -0.3354  0.3043  0.0228
  674TIP3    H123581   3.877   1.685   1.276  0.8546  1.0717 -0.5862
  674TIP3    H223582   3.794   1.788   1.203 -1.0348  0.2282  0.2757
  675TIP3   OH223583   0.690   0.207   0.394  0.1223 -0.5270 -0.0773
  675TIP3    H123584   0.667   0.177   0.482 -0.3413 -1.7071 -0.5798
  675TIP3    H223585   0.727   0.130   0.352 -1.6896 -0.6279 -1.6291
  676TIP3   OH223586   3.798   2.419   1.360  0.0716 -0.6308  0.2128
  676TIP3    H123587   3.812   2.371   1.279  1.5446 -0.5300  0.3895
  676TIP3    H223588   3.724   2.477   1.341 -0.8154 -1.9267 -0.4492
  677TIP3   OH223589   6.681   4.423   6.645  0.4131 -0.3099 -0.0139
  677TIP3    H123590   6.687   4.358   6.715  2.0302 -0.3928 -0.1880
  677TIP3    H223591   6.772   4.445   6.625 -0.0359  0.1474 -1.6951
  678TIP3   OH223592   2.546   4.347   0.554  0.2888 -0.3918 -0.0156
  678TIP3    H123593   2.633   4.331   0.592 -0.0132 -0.1596  0.7885
  678TIP3    H223594   2.565   4.380   0.466  1.1096  1.5993  0.8420
  679TIP3   OH223595   2.072   2.832   1.870  0.1593 -0.8686  0.0373
  679TIP3    H123596   2.073   2.805   1.778 -1.0576 -0.9571  0.0267
  679TIP3    H223597   2.076   2.927   1.867 -2.5591 -0.6839 -0.2757
  680TIP3   OH223598   6.026   1.841   7.780  0.1802 -0.3937 -0.2627
  680TIP3    H123599   5.946   1.839   7.833  0.9090  1.0963  0.9931
  680TIP3    H223600   6.012   1.914   7.719  0.7688  0.2468  0.3437
  681TIP3   OH223601   4.035   1.588   7.016 -0.5047  0.0652 -0.2708
  681TIP3    H123602   4.024   1.499   6.983  1.7523  0.8425 -3.7856
  681TIP3    H223603   4.130   1.603   7.012 -0.8417  2.6864 -0.1306
  682TIP3   OH223604   5.985   2.792   7.951 -0.4958 -0.0654  0.0145
  682TIP3    H123605   6.057   2.819   7.893 -1.3453  1.2128 -0.4876
  682TIP3    H223606   5.999   2.843   8.031 -0.5999 -0.1511  0.0874
  683TIP3   OH223607   0.665   3.754   8.150  0.1832 -0.4640  0.1004
  683TIP3    H123608   0.618   3.837   8.145 -1.9168 -1.6135 -0.0631
  683TIP3    H223609   0.724   3.765   8.225 -0.0860  1.1384  0.1258
  684TIP3   OH223610   1.982   6.414   8.232  0.3355 -0.2402 -0.0901
  684TIP3    H123611   2.075   6.417   8.255  0.5319 -0.9294 -0.7406
  684TIP3    H223612   1.956   6.323   8.249 -0.3095  0.0378  0.4247
  685TIP3   OH223613   0.586   5.267   6.899 -0.4529 -0.1849 -0.1273
  685TIP3    H123614   0.539   5.296   6.820 -0.0710 -0.8329 -0.6077
  685TIP3    H223615   0.678   5.267   6.873 -0.3901 -1.2332  0.0274
  686TIP3   OH223616   0.616   6.618   0.344  0.1924  0.5841  1.1049
  686TIP3    H123617   0.542   6.664   0.386 -0.1315  2.5453 -1.3593
  686TIP3    H223618   0.655   6.684   0.287  0.9626 -1.6992 -1.1852
  687TIP3   OH223619   4.653   3.782   0.750 -0.1886 -0.9830 -0.5638
  687TIP3    H123620   4.659   3.857   0.810 -1.7483 -1.7252  0.6047
  687TIP3    H223621   4.572   3.796   0.702 -1.0479 -2.3605  0.3837
  688TIP3   OH223622   5.167   1.921   0.100  0.1849  0.3419 -0.1143
  688TIP3    H123623   5.135   1.832   0.088  0.0558  0.5465 -1.4984
  688TIP3    H223624   5.167   1.958   0.011 -0.2457  1.8755  0.4915
  689TIP3   OH223625   3.719   1.428   7.827  0.0793  0.0093  0.5828
  689TIP3    H123626   3.764   1.509   7.849 -0.3881  0.1402  1.0934
  689TIP3    H223627   3.643   1.426   7.885 -0.2077 -0.5328  0.2046
  690TIP3   OH223628   0.975   5.915   1.886 -0.8095 -0.1029 -0.5645
  690TIP3    H123629   1.041   5.926   1.818 -0.4424 -0.8472 -0.3351
  690TIP3    H223630   1.021   5.871   1.957 -1.2848  0.3314  0.0216
  691TIP3   OH223631   2.488   3.725   6.828 -0.0067  0.0193 -0.5657
  691TIP3    H123632   2.422   3.769   6.775  0.2654  1.1212 -0.0324
  691TIP3    H223633   2.451   3.724   6.916  0.3627 -0.0418 -0.4107
  692TIP3   OH223634   6.536   6.235   0.127 -0.8506 -0.1457  0.2899
  692TIP3    H123635   6.571   6.302   0.186 -1.2987 -0.0627  0.4645
  692TIP3    H223636   6.611   6.178   0.109 -0.7902 -0.3598  1.1961
  693TIP3   OH223637   6.520   5.275   7.204  0.4426 -0.1258 -0.0839
  693TIP3    H123638   6.513   5.285   7.298  1.3628 -0.3650  0.0235
  693TIP3    H223639   6.476   5.192   7.184 -0.9490  0.5854 -0.0536
  694TIP3   OH223640   2.908   3.010   8.032 -0.3065  0.6052  0.5437
  694TIP3    H123641   2.872   3.028   8.118  0.0989  1.1533  0.6069
  694TIP3    H223642   2.993   2.970   8.049 -0.4637  0.2084  0.3980
  695TIP3   OH223643   0.169   4.461   1.739  0.3640  0.3647 -0.3913
  695TIP3    H123644   0.090   4.407   1.735 -0.3845  1.3268  0.7904
  695TIP3    H223645   0.204   4.457   1.650 -0.5182 -0.7928 -0.7240
  696TIP3   OH223646   0.210   5.530   1.496  0.1100  0.1194  0.2403
  696TIP3    H123647   0.227   5.613   1.540 -1.8607  0.5388  0.3118
  696TIP3    H223648   0.204   5.466   1.568  1.8022 -0.1661  0.1736
  697TIP3   OH223649   3.160   0.839   1.374  0.0888 -0.0242 -0.1215
  697TIP3    H123650   3.145   0.926   1.409 -1.3052 -0.0116 -0.6719
  697TIP3    H223651   3.094   0.784   1.416 -0.3694 -0.3839 -1.2677
  698TIP3   OH223652   1.259   2.922   8.604 -0.2997 -0.2707 -0.2057
  698TIP3    H123653   1.259   2.842   8.552 -1.1105 -2.2069  2.5666
  698TIP3    H223654   1.220   2.897   8.688  0.1901  2.8385  1.0986
  699TIP3   OH223655   2.727   5.379   1.871 -0.0789 -0.0824 -0.5765
  699TIP3    H123656   2.798   5.342   1.923  0.2728 -0.0327 -1.0124
  699TIP3    H223657   2.671   5.424   1.934 -0.1355 -0.7734 -0.1305
  700TIP3   OH223658   0.455   6.221   8.212 -0.2850  0.5833  0.7259
  700TIP3    H123659   0.478   6.142   8.163  0.6289  0.3694  1.4745
  700TIP3    H223660   0.394   6.267   8.155  0.7700  0.3605 -0.6379
  701TIP3   OH223661   2.387   2.199   6.277  0.4523  0.3066 -0.1049
  701TIP3    H123662   2.367   2.106   6.264  1.1096  0.0561  0.5868
  701TIP3    H223663   2.475   2.210   6.240  1.7677 -0.1136  2.6313
  702TIP3   OH223664   5.778   4.552   7.268 -0.8015 -0.8524  0.2046
  702TIP3    H123665   5.730   4.496   7.329  0.0039 -1.7175  0.0685
  702TIP3    H223666   5.807   4.493   7.198 -2.5925  0.2905 -1.6083
  703TIP3   OH223667   0.305   2.420   7.101 -0.4841  0.4204  0.7933
  703TIP3    H123668   0.315   2.417   7.005 -1.3942  0.9002  0.6735
  703TIP3    H223669   0.320   2.329   7.129 -3.2069 -0.4163 -0.1483
  704TIP3   OH223670   1.700   3.805   8.655  0.1665  0.2052  0.4041
  704TIP3    H123671   1.750   3.752   8.717  3.9725  3.1122  0.1300
  704TIP3    H223672   1.636   3.850   8.710  0.7600 -0.3026  1.5587
  705TIP3   OH223673   1.558   6.240   7.403  0.4678 -0.5038 -0.6223
  705TIP3    H123674   1.478   6.290   7.422  0.1983 -1.0167 -0.3845
  705TIP3    H223675   1.535   6.150   7.423  1.1242 -0.6548 -0.5281
  706TIP3   OH223676   4.127   2.772   7.210 -0.0043  0.1748  0.0492
  706TIP3    H123677   4.037   2.784   7.240 -0.4427 -1.9193 -0.2788
  706TIP3    H223678   4.163   2.705   7.267  0.4936 -0.8534 -1.4211
  707TIP3   OH223679   5.960   5.557   8.439  0.3601 -0.5866 -0.7444
  707TIP3    H123680   5.975   5.650   8.457  0.0430 -1.0105  2.0506
  707TIP3    H223681   5.868   5.552   8.414  0.5986 -0.0651 -1.7735
  708TIP3   OH223682   0.433   6.801   0.420  0.3274  0.1148  0.8524
  708TIP3    H123683   0.370   6.783   0.489  0.0070 -0.0323  0.5205
  708TIP3    H223684   0.384   6.849   0.354  0.2002 -1.2291 -0.0553
  709TIP3   OH223685   3.752   1.338   7.320 -0.3184  0.1737  0.5282
  709TIP3    H123686   3.760   1.431   7.299 -0.0980 -0.0670 -0.5010
  709TIP3    H223687   3.829   1.297   7.280 -1.1341 -0.6455 -0.2446
  710TIP3   OH223688   0.387   3.899   0.889 -0.0693 -0.0062 -0.6161
  710TIP3    H123689   0.427   3.979   0.924  0.0591 -0.0100 -0.7547
  710TIP3    H223690   0.414   3.896   0.798 -0.8604  0.2962 -0.8746
  711TIP3   OH223691   3.123   6.212   7.033  0.0228  0.1201 -0.4181
  711TIP3    H123692   3.036   6.178   7.053  0.0817 -1.0853 -2.0490
  711TIP3    H223693   3.107   6.296   6.992 -0.5716 -1.1197 -2.8872
  712TIP3   OH223694   6.135   1.653   0.013  0.4161 -0.6427 -0.2430
  712TIP3    H123695   6.054   1.610  -0.013  0.4474 -0.9737  0.1941
  712TIP3    H223696   6.200   1.583   0.015  0.9829 -0.1982 -1.6928
  713TIP3   OH223697   6.713   1.385   8.074  0.1521  0.3091  0.5054
  713TIP3    H123698   6.774   1.443   8.030 -0.1087 -0.3815 -0.8034
  713TIP3    H223699   6.724   1.404   8.167  1.1905  1.3217  0.1866
  714TIP3   OH223700   5.123   4.248   0.548  0.0960 -0.4113 -0.2147
  714TIP3    H123701   5.165   4.192   0.613  2.6834  1.9073  0.2832
  714TIP3    H223702   5.095   4.325   0.596 -1.3798 -0.2502 -1.2622
  715TIP3   OH223703   0.304   6.442   1.563  0.0364 -0.0800  0.5623
  715TIP3    H123704   0.338   6.490   1.639 -0.5586  0.5950  0.4152
  715TIP3    H223705   0.215   6.418   1.587  1.0767 -3.4085  1.6541
  716TIP3   OH223706   3.212   3.164   0.580  0.3219 -0.1909 -0.0310
  716TIP3    H123707   3.222   3.235   0.643 -0.1992 -1.2236  1.2495
  716TIP3    H223708   3.299   3.122   0.577  0.1197 -0.6850  0.6961
  717TIP3   OH223709   5.571   3.907   0.625  0.0436  0.0645  0.2975
  717TIP3    H123710   5.480   3.883   0.605 -0.1588  1.3692 -0.4598
  717TIP3    H223711   5.605   3.942   0.543  0.9662  0.3812  0.8014
  718TIP3   OH223712   1.142   4.711   1.055 -0.0847  0.0370  0.1786
  718TIP3    H123713   1.164   4.706   0.962 -0.2187 -0.8640  0.1917
  718TIP3    H223714   1.072   4.648   1.067  0.8361 -0.8555  1.1499
  719TIP3   OH223715   6.090   3.559   8.350  0.1726  0.0358 -0.2584
  719TIP3    H123716   6.023   3.492   8.337  0.2966  0.2355 -2.0813
  719TIP3    H223717   6.044   3.642   8.337  0.6741  0.1858 -1.1588
  720TIP3   OH223718   3.729   5.760   7.278  0.6246 -0.4633  0.0787
  720TIP3    H123719   3.773   5.818   7.341  0.1448 -0.1665  0.1451
  720TIP3    H223720   3.753   5.671   7.307  1.7318 -0.2976 -0.2942
  721TIP3   OH223721   1.526   1.445   1.382 -0.2918  0.5756 -0.0545
  721TIP3    H123722   1.620   1.445   1.401  0.3181  0.9832 -2.6882
  721TIP3    H223723   1.484   1.445   1.468  2.0916 -0.7078  1.2051
  722TIP3   OH223724   5.395   1.168   1.719  0.1712  0.1715  0.1060
  722TIP3    H123725   5.457   1.143   1.788 -0.6702 -0.0871  0.7810
  722TIP3    H223726   5.358   1.251   1.748 -0.1900  0.0615 -0.0361
  723TIP3   OH223727   2.617   5.037   1.768 -0.1348 -0.1845 -0.1867
  723TIP3    H123728   2.575   5.088   1.699 -0.8802  0.2249  0.5499
  723TIP3    H223729   2.545   4.987   1.807  0.1739  0.0538  0.6930
  724TIP3   OH223730   0.318   6.799   0.948  0.4184 -0.0467 -0.4562
  724TIP3    H123731   0.354   6.745   0.878 -0.0802 -0.6305 -0.2755
  724TIP3    H223732   0.291   6.880   0.906  1.0423  0.0028 -0.7602
  725TIP3   OH223733   1.337   2.195   8.304  0.7774 -0.7401 -0.4430
  725TIP3    H123734   1.289   2.113   8.306  0.6261 -0.6440  0.3636
  725TIP3    H223735   1.345   2.220   8.396  1.8407 -0.4484 -0.5958
  726TIP3   OH223736   6.552   3.031   7.957  0.2434 -0.0950  0.1394
  726TIP3    H123737   6.463   3.067   7.954 -0.2594 -0.8257  3.1396
  726TIP3    H223738   6.599   3.090   8.016  0.8523 -1.4545  1.0478
  727TIP3   OH223739   6.242   5.545   8.422  0.2247  0.0679 -0.2842
  727TIP3    H123740   6.216   5.605   8.352  0.2429 -1.5401 -1.7494
  727TIP3    H223741   6.160   5.506   8.453  0.3282 -0.3040 -0.4626
  728TIP3   OH223742   5.762   1.325   5.934  0.1616 -0.5849 -0.9028
  728TIP3    H123743   5.696   1.313   6.002  1.3511  0.1066  0.4227
  728TIP3    H223744   5.767   1.420   5.923  1.4849 -0.5838 -0.4090
  729TIP3   OH223745   4.536   2.011   0.698  0.7050  0.3441 -0.1010
  729TIP3    H123746   4.514   2.085   0.641  2.2806  0.1990 -0.9687
  729TIP3    H223747   4.463   1.950   0.689  0.2779  0.9532 -0.8730
  730TIP3   OH223748   4.892   0.347   1.001 -0.1134  0.0603  0.3365
  730TIP3    H123749   4.891   0.306   1.087 -0.0830 -1.4848 -0.3610
  730TIP3    H223750   4.946   0.426   1.012 -1.5964  0.9035  2.1314
  731TIP3   OH223751   0.847   2.394   0.798  0.1814 -0.1957 -0.3361
  731TIP3    H123752   0.776   2.335   0.823 -0.0976  0.5375  0.7157
  731TIP3    H223753   0.837   2.405   0.704 -2.2871  1.3028 -0.0113
  732TIP3   OH223754   3.672   6.048   8.727 -0.2713  0.3217 -0.3445
  732TIP3    H123755   3.731   6.090   8.665 -0.2854  1.3660  0.3088
  732TIP3    H223756   3.728   6.019   8.799 -0.4066  0.2715 -0.2573
  733TIP3   OH223757   3.311   6.062   1.418 -0.7819  0.0814  0.3459
  733TIP3    H123758   3.374   6.022   1.359 -1.0888  0.0023  0.0732
  733TIP3    H223759   3.226   6.053   1.374 -1.3576 -1.9305  1.7611
  734TIP3   OH223760   5.323   6.775   8.158  0.2739  0.5125  0.0075
  734TIP3    H123761   5.417   6.786   8.148  0.0675  1.5241 -1.0083
  734TIP3    H223762   5.285   6.830   8.089 -1.0280 -0.8788 -0.4299
  735TIP3   OH223763   4.594   0.272   7.635  0.0563  0.1803  0.2507
  735TIP3    H123764   4.602   0.352   7.584 -1.6149 -0.1368 -0.5795
  735TIP3    H223765   4.660   0.213   7.597  0.5453  0.7937  0.1396
  736TIP3   OH223766   4.145   3.331   8.431  0.3568 -0.7031 -0.5461
  736TIP3    H123767   4.062   3.300   8.466  1.2605 -2.8362 -0.1293
  736TIP3    H223768   4.158   3.280   8.351  0.6603  0.5402 -1.3082
  737TIP3   OH223769   5.569   1.409   0.972 -0.0778  0.6363 -0.1072
  737TIP3    H123770   5.489   1.424   1.023 -0.0028  0.4427  0.0669
  737TIP3    H223771   5.619   1.347   1.024  0.9224  1.9640  0.5636
  738TIP3   OH223772   4.926   2.660   0.795 -1.0279 -0.2676 -0.3199
  738TIP3    H123773   4.893   2.682   0.882 -2.5951 -0.4273 -0.8337
  738TIP3    H223774   4.985   2.732   0.772  0.8616 -1.1242  1.5778
  739TIP3   OH223775   4.002   4.142   6.468 -0.3327  0.3038  0.5005
  739TIP3    H123776   4.022   4.180   6.553  1.2722 -1.2144  0.8583
  739TIP3    H223777   3.934   4.076   6.486 -0.9501  0.8852  0.3603
  740TIP3   OH223778   0.695   1.066   0.114  0.0752  0.2142  0.4979
  740TIP3    H123779   0.737   0.989   0.075 -1.7798  0.2773 -1.9358
  740TIP3    H223780   0.665   1.036   0.200 -1.0987 -2.0573 -0.5872
  741TIP3   OH223781   4.281   4.455   8.035  0.5631 -0.4584  0.1482
  741TIP3    H123782   4.336   4.528   8.007 -1.1237  0.8705  0.1645
  741TIP3    H223783   4.264   4.473   8.128 -2.7299  1.1693 -0.6286
  742TIP3   OH223784   1.701   4.776   0.087 -0.1953 -0.3413  0.0719
  742TIP3    H123785   1.757   4.820   0.022  1.8387  0.7857  2.3994
  742TIP3    H223786   1.614   4.814   0.073  0.3887  0.5724 -1.3600
  743TIP3   OH223787   5.163   6.534   6.673 -0.2730 -0.3102 -0.2297
  743TIP3    H123788   5.233   6.471   6.652  0.8403  0.0289  2.1179
  743TIP3    H223789   5.091   6.480   6.705  0.5556 -0.4836  1.4584
  744TIP3   OH223790   1.557   5.764   1.609  0.1841 -0.0513 -0.7113
  744TIP3    H123791   1.504   5.697   1.566  1.5447 -0.7997 -1.2971
  744TIP3    H223792   1.494   5.816   1.658 -1.0963 -0.8391 -1.4447
  745TIP3   OH223793   4.357   0.808   1.494  0.2063  0.2154 -0.3160
  745TIP3    H123794   4.381   0.778   1.581  1.1175  0.2417 -0.5482
  745TIP3    H223795   4.283   0.754   1.468  0.2071 -0.0774  0.3015
  746TIP3   OH223796   1.778   3.875   0.830 -0.2006 -0.5468 -0.0275
  746TIP3    H123797   1.759   3.958   0.874  0.2173  0.1068 -1.0333
  746TIP3    H223798   1.696   3.826   0.835 -0.7992  0.3909 -0.3973
  747TIP3   OH223799   3.164   6.555   1.782  0.4288 -0.3649  0.7270
  747TIP3    H123800   3.156   6.592   1.870 -0.3341 -1.1512  1.0038
  747TIP3    H223801   3.075   6.533   1.758  0.4727  0.8850 -0.7322
  748TIP3   OH223802   5.888   0.688   8.738  0.2044  0.5093  0.8832
  748TIP3    H123803   5.813   0.726   8.783 -0.8916 -0.8297  0.3044
  748TIP3    H223804   5.885   0.727   8.650 -1.2936 -1.2107  0.0819
  749TIP3   OH223805   5.054   3.431   0.721  0.2295 -0.0165  0.0470
  749TIP3    H123806   4.972   3.481   0.722  0.5393  0.5295 -0.9930
  749TIP3    H223807   5.121   3.495   0.698  0.7484 -0.7582 -0.5453
  750TIP3   OH223808   3.819   3.140   6.993  0.3414 -0.0391  0.5594
  750TIP3    H123809   3.780   3.057   6.965  0.1317  0.0923  0.4574
  750TIP3    H223810   3.771   3.207   6.944  1.5172  0.0538 -0.5277
  751TIP3   OH223811   1.021   1.980   2.150  0.1559 -0.3612 -0.3463
  751TIP3    H123812   1.082   1.936   2.208 -1.1796 -0.0682  1.3459
  751TIP3    H223813   1.064   2.063   2.128  1.3434 -1.1418 -1.0853
  752TIP3   OH223814   6.336   0.239   8.182 -0.1945  0.2180  0.2308
  752TIP3    H123815   6.307   0.216   8.094 -0.3283  0.8374  0.1070
  752TIP3    H223816   6.427   0.210   8.186  0.0602  0.9017 -0.3924
  753TIP3   OH223817   6.828   0.876   1.584  0.4851 -0.6321 -0.2346
  753TIP3    H123818   6.912   0.900   1.621 -0.1614 -0.3722  1.1057
  753TIP3    H223819   6.786   0.822   1.651 -0.2448 -1.1087 -1.0528
  754TIP3   OH223820   5.138   1.336   1.001 -0.5746  0.1185 -0.0994
  754TIP3    H123821   5.107   1.325   1.091 -0.3710  2.7174  0.3527
  754TIP3    H223822   5.213   1.394   1.008  0.4030 -0.8485 -1.8431
  755TIP3   OH223823   0.914   0.375   0.313  0.2455 -0.1213 -0.0995
  755TIP3    H123824   0.986   0.345   0.369  1.0771  0.6715 -0.7186
  755TIP3    H223825   0.836   0.335   0.351  0.7096  0.7626  1.9220
  756TIP3   OH223826   2.353   2.434   6.791 -0.2115 -0.4864 -0.5691
  756TIP3    H123827   2.258   2.427   6.789 -0.3391  0.5934  0.5000
  756TIP3    H223828   2.377   2.466   6.704 -0.9349  0.2539 -0.5117
  757TIP3   OH223829   4.260   2.573   1.343 -0.6343  0.2932  0.0904
  757TIP3    H123830   4.218   2.516   1.408  1.0816  0.3654  1.3356
  757TIP3    H223831   4.236   2.662   1.369  0.6289  0.3669  1.1305
  758TIP3   OH223832   1.572   5.751   0.970  0.7757  0.0527 -0.2916
  758TIP3    H123833   1.481   5.737   0.947  1.2963 -0.4307 -2.2143
  758TIP3    H223834   1.610   5.663   0.973  1.1985  0.2451  0.5256
  759TIP3   OH223835   6.545   1.383   0.749 -0.8824  0.1295 -1.3601
  759TIP3    H123836   6.602   1.359   0.821  0.6702  0.3295 -2.4841
  759TIP3    H223837   6.524   1.300   0.705 -1.1879  0.0963 -1.1574
  760TIP3   OH223838   2.127   1.122   7.000 -1.2936  0.0752 -0.0668
  760TIP3    H123839   2.147   1.062   6.929 -2.6443  1.3958 -1.6512
  760TIP3    H223840   2.193   1.103   7.067  0.3717 -0.8762 -1.8662
  761TIP3   OH223841   4.391   0.180   6.556 -0.7853 -0.7067  0.2649
  761TIP3    H123842   4.315   0.221   6.515  0.7552  2.0700 -0.0373
  761TIP3    H223843   4.427   0.122   6.489 -1.6066 -0.6681 -0.2187
  762TIP3   OH223844   4.993   1.703   7.091 -0.3359 -0.4939  0.1034
  762TIP3    H123845   4.950   1.624   7.058  0.6220 -1.4017  0.9296
  762TIP3    H223846   5.035   1.742   7.015 -0.1921 -1.2053 -0.1877
  763TIP3   OH223847   0.145   1.500   0.855  0.6137 -0.2835  0.1429
  763TIP3    H123848   0.184   1.578   0.815 -0.5287  0.6165  0.7189
  763TIP3    H223849   0.052   1.506   0.832  0.0008 -0.0067  2.4743
  764TIP3   OH223850   0.504   4.631   1.620  0.1128 -0.0374  0.2637
  764TIP3    H123851   0.442   4.587   1.679  0.2536 -0.5344  0.0495
  764TIP3    H223852   0.569   4.563   1.599  0.6439  0.4341  0.3626
  765TIP3   OH223853   0.188   2.876   0.195  0.1704 -0.2253 -0.2518
  765TIP3    H123854   0.242   2.903   0.121  0.4672 -1.1960 -0.4065
  765TIP3    H223855   0.102   2.858   0.155  0.1613 -0.1687 -0.2582
  766TIP3   OH223856   0.163   0.664   0.332  0.2737  0.5609  0.9025
  766TIP3    H123857   0.103   0.687   0.260  0.4113 -0.9501  0.2786
  766TIP3    H223858   0.141   0.727   0.401 -1.6847  0.3935  0.5042
  767TIP3   OH223859   2.981   5.830   7.273  0.3236  0.4105  0.2311
  767TIP3    H123860   2.993   5.767   7.202 -1.9074  2.2269 -1.9256
  767TIP3    H223861   3.056   5.814   7.332  3.4296  0.0378 -3.4334
  768TIP3   OH223862   5.538   4.665   0.238 -0.3433  0.5327 -0.4978
  768TIP3    H123863   5.490   4.684   0.157  0.4190 -0.0701 -1.1119
  768TIP3    H223864   5.547   4.570   0.239  0.8204  0.6246 -0.3991
  769TIP3   OH223865   5.137   0.770   1.625  0.4420 -0.3101  0.2981
  769TIP3    H123866   5.110   0.715   1.551  1.2895  0.3762 -0.5427
  769TIP3    H223867   5.176   0.847   1.584 -0.1456  0.6316  1.4647
  770TIP3   OH223868   6.712   0.812   7.059  0.6480  0.1512  0.1979
  770TIP3    H123869   6.630   0.779   7.021  1.6896 -0.4788 -1.6493
  770TIP3    H223870   6.699   0.906   7.067 -0.0414  0.1464 -0.7038
  771TIP3   OH223871   0.145   5.717   1.713  0.5264 -0.6344 -0.4811
  771TIP3    H123872   0.077   5.682   1.770  0.4340 -0.2498 -0.3521
  771TIP3    H223873   0.213   5.749   1.772  1.0529 -1.4603 -0.6176
  772TIP3   OH223874   2.011   3.749   1.197  0.1448  0.1767  0.2745
  772TIP3    H123875   1.936   3.775   1.251 -0.1183 -0.9638  0.4851
  772TIP3    H223876   2.079   3.726   1.260 -0.0260 -0.7738  0.1171
  773TIP3   OH223877   0.996   4.029   8.565  0.4810 -0.0090  0.2236
  773TIP3    H123878   1.002   4.115   8.525 -0.5068  0.9433  1.9819
  773TIP3    H223879   1.058   4.032   8.638 -0.9449 -0.0257  1.4912
  774TIP3   OH223880   1.140   4.226   7.044 -0.3951  0.0652  0.2747
  774TIP3    H123881   1.176   4.147   7.005 -0.0495  0.9050 -1.2211
  774TIP3    H223882   1.080   4.195   7.112 -0.1378 -1.4588 -0.1617
  775TIP3   OH223883   6.462   0.748   0.821  0.3068 -0.4939 -0.0523
  775TIP3    H123884   6.413   0.813   0.871 -0.4783 -0.8564 -0.3211
  775TIP3    H223885   6.481   0.678   0.884  1.1371 -0.0204  0.2322
  776TIP3   OH223886   6.831   1.875   0.437  1.1128  0.4963 -0.5350
  776TIP3    H123887   6.796   1.895   0.524  1.0754  1.6857 -0.8037
  776TIP3    H223888   6.758   1.836   0.390  1.7232 -2.2882  0.6240
  777TIP3   OH223889   1.889   5.154   1.996 -0.4193 -0.1594 -0.3326
  777TIP3    H123890   1.900   5.075   2.049 -2.5021 -0.1992  0.1077
  777TIP3    H223891   1.906   5.125   1.906 -0.5120 -0.9586 -0.0992
  778TIP3   OH223892   5.137   6.136   1.009 -0.1148 -0.1487 -0.3242
  778TIP3    H123893   5.075   6.210   1.008 -0.4386 -0.3460 -3.1979
  778TIP3    H223894   5.174   6.137   1.097 -0.6412  3.0001 -0.0237
  779TIP3   OH223895   6.260   0.186   0.242  0.2842  0.0521 -0.0957
  779TIP3    H123896   6.355   0.185   0.233  0.1677  1.0782 -2.1496
  779TIP3    H223897   6.243   0.254   0.307  0.9578 -0.1396  0.2853
  780TIP3   OH223898   3.008   2.859   8.706  0.0311 -0.2288 -0.2117
  780TIP3    H123899   2.926   2.871   8.753  1.1163  1.5386  1.3381
  780TIP3    H223900   3.076   2.877   8.771  1.6171  2.5459 -2.4330
  781TIP3   OH223901   0.502   0.470   7.735 -0.2974 -0.2840  0.3041
  781TIP3    H123902   0.420   0.513   7.760  0.1764  1.0855 -0.4218
  781TIP3    H223903   0.552   0.538   7.691 -0.0704 -1.9154 -2.1400
  782TIP3   OH223904   4.471   0.936   7.843 -0.2403 -0.2139 -0.0413
  782TIP3    H123905   4.442   0.884   7.768 -0.0354  0.0717 -0.3256
  782TIP3    H223906   4.391   0.959   7.889 -0.4373  0.2372 -0.5983
  783TIP3   OH223907   4.022   1.058   8.557  0.7479  0.6893 -0.0014
  783TIP3    H123908   4.026   0.998   8.632 -0.3518 -1.3211 -1.4408
  783TIP3    H223909   3.982   1.006   8.488  0.2876  2.9652 -1.5385
  784TIP3   OH223910   6.243   4.794   1.087  0.5511  0.5141  0.0348
  784TIP3    H123911   6.197   4.810   1.005  0.6948  0.1842 -0.1103
  784TIP3    H223912   6.188   4.731   1.134  1.2733 -0.5551 -0.5113
  785TIP3   OH223913   5.505   0.300   8.668  0.4602  0.5092  0.2387
  785TIP3    H123914   5.594   0.267   8.682  0.5368 -0.1933 -1.5465
  785TIP3    H223915   5.459   0.227   8.625 -0.8194  1.0478  0.6639
  786TIP3   OH223916   1.493   5.309   7.218 -0.4288 -0.4622  0.0985
  786TIP3    H123917   1.580   5.277   7.195 -0.4401  0.4750 -1.3781
  786TIP3    H223918   1.501   5.404   7.218 -1.3287 -0.3732  0.5004
  787TIP3   OH223919   3.204   3.313   6.876 -0.8105 -0.0989  0.1377
  787TIP3    H123920   3.147   3.283   6.806 -0.1284 -2.0274  0.3436
  787TIP3    H223921   3.291   3.282   6.852 -0.1835  1.0537  0.8140
  788TIP3   OH223922   1.419   0.235   1.511 -0.1378 -0.3169 -0.3466
  788TIP3    H123923   1.449   0.144   1.510  2.8867  0.5647  0.2039
  788TIP3    H223924   1.456   0.272   1.591 -0.3322  1.6960 -1.1204
  789TIP3   OH223925   6.385   6.639   7.088  0.2834  0.4653  0.0273
  789TIP3    H123926   6.362   6.623   6.996 -1.7405  2.3354  0.1349
  789TIP3    H223927   6.333   6.716   7.113  1.5887  0.6504  2.4444
  790TIP3   OH223928   1.544   2.748   8.748 -0.4076  0.0930  0.0946
  790TIP3    H123929   1.488   2.738   8.825  0.3902  0.5770  0.7573
  790TIP3    H223930   1.605   2.819   8.771  0.5487 -0.4851 -0.5474
  791TIP3   OH223931   4.946   0.878   6.280  0.0901  0.4342 -0.2950
  791TIP3    H123932   5.022   0.866   6.336 -1.7814  1.3013  2.6319
  791TIP3    H223933   4.959   0.816   6.208  3.0029 -0.1650  0.6206
  792TIP3   OH223934   2.884   4.899   0.901  0.3826  0.0347 -0.2846
  792TIP3    H123935   2.857   4.810   0.926 -1.0766  1.1930  2.7366
  792TIP3    H223936   2.979   4.897   0.908  0.3505 -1.1875  0.1363
  793TIP3   OH223937   4.598   2.821   0.369  0.1995  0.3432  0.1933
  793TIP3    H123938   4.611   2.860   0.283  2.3790 -0.2397  0.2109
  793TIP3    H223939   4.593   2.727   0.353 -0.0846  0.2744  0.6506
  794TIP3   OH223940   1.784   1.198   0.729 -0.0725  0.0876  0.1714
  794TIP3    H123941   1.796   1.277   0.783  0.5973  1.1927 -1.5151
  794TIP3    H223942   1.872   1.173   0.702 -0.2697 -1.3542  0.7883
  795TIP3   OH223943   4.836   2.427   7.149 -0.4888  0.7945  0.5356
  795TIP3    H123944   4.806   2.455   7.235 -1.3872 -1.0526  0.8739
  795TIP3    H223945   4.823   2.332   7.149 -0.0733  0.6954 -1.4734
  796TIP3   OH223946   5.109   6.031   0.462 -0.1883  0.1344 -0.5583
  796TIP3    H123947   5.053   5.957   0.439 -0.2481  0.1569 -0.4868
  796TIP3    H223948   5.119   6.024   0.557  0.4097 -0.2125 -0.6365
  797TIP3   OH223949   4.963   3.647   2.376 -0.1239  0.6394  0.1478
  797TIP3    H123950   5.049   3.609   2.359  0.8930  2.7144  0.4217
  797TIP3    H223951   4.902   3.573   2.368  1.4332 -0.5071 -1.9355
  798TIP3   OH223952   0.871   6.088   1.574 -0.2958  0.4949 -0.2321
  798TIP3    H123953   0.941   6.148   1.600  0.1788  0.5671 -1.6005
  798TIP3    H223954   0.850   6.040   1.654  0.2314  1.5671  0.5698
  799TIP3   OH223955   3.990   5.113   7.985 -0.1251  0.3088 -0.0821
  799TIP3    H123956   4.041   5.181   8.027 -1.5690 -0.3803  3.0489
  799TIP3    H223957   4.049   5.038   7.980 -0.0089  0.3024  1.1234
  800TIP3   OH223958   5.876   6.322   7.655  0.3154 -0.0450  0.2267
  800TIP3    H123959   5.836   6.389   7.710  0.6041  0.5272 -0.2562
  800TIP3    H223960   5.806   6.258   7.641 -0.3038  0.6981 -0.1980
  801TIP3   OH223961   3.749   1.398   8.539 -0.7321  0.5140 -0.0695
  801TIP3    H123962   3.768   1.492   8.541  0.5968  0.2622  0.2182
  801TIP3    H223963   3.819   1.361   8.486 -0.4963 -0.4630  0.8947
  802TIP3   OH223964   4.703   4.607   7.502 -0.0091  0.1692  0.0901
  802TIP3    H123965   4.636   4.550   7.466  1.5587 -0.9404 -1.2016
  802TIP3    H223966   4.777   4.549   7.519  0.4012  1.2104  2.2497
  803TIP3   OH223967   0.374   1.631   1.277  0.3028  0.0260 -0.8802
  803TIP3    H123968   0.391   1.655   1.369 -0.6461  0.4566 -0.8114
  803TIP3    H223969   0.428   1.552   1.263  1.0517  0.3991 -0.1871
  804TIP3   OH223970   2.677   0.160   7.204 -0.3864  0.3091 -0.2153
  804TIP3    H123971   2.723   0.103   7.142 -1.0270 -0.1691 -0.2658
  804TIP3    H223972   2.714   0.247   7.189 -0.9210  0.3060 -1.6619
  805TIP3   OH223973   0.581   6.728   8.741 -1.1177  0.8449 -0.0365
  805TIP3    H123974   0.492   6.714   8.773 -0.8411 -1.6753 -0.1507
  805TIP3    H223975   0.573   6.724   8.646 -1.0474  1.8686 -0.0887
  806TIP3   OH223976   2.974   2.805   7.141 -0.3838 -0.0057 -0.3161
  806TIP3    H123977   3.038   2.848   7.084 -0.8562 -1.8861 -2.4265
  806TIP3    H223978   3.027   2.761   7.208  0.1825  2.2275  0.8113
  807TIP3   OH223979   2.679   1.610   7.250 -0.4399 -0.5870  0.2450
  807TIP3    H123980   2.628   1.649   7.179  0.5097  0.3584  0.0585
  807TIP3    H223981   2.614   1.565   7.304 -1.1746 -1.4411 -1.2740
  808TIP3   OH223982   6.691   1.332   7.529  0.1189  0.4271 -0.1758
  808TIP3    H123983   6.764   1.361   7.584  0.8976  0.8317 -1.3691
  808TIP3    H223984   6.733   1.288   7.456 -0.9663 -2.0019  0.5715
  809TIP3   OH223985   1.738   2.564   7.885  0.2939 -0.1448 -0.6039
  809TIP3    H123986   1.831   2.571   7.903  0.5117  1.4368 -2.0647
  809TIP3    H223987   1.711   2.484   7.929  2.2799 -0.5240  0.0321
  810TIP3   OH223988   4.331   5.277   8.187 -0.3432  0.4491  0.2991
  810TIP3    H123989   4.407   5.229   8.220  0.1841 -1.0856 -2.8138
  810TIP3    H223990   4.364   5.365   8.168 -0.1824  0.7475  1.8450
  811TIP3   OH223991   0.365   1.401   0.033  0.0461  0.0695 -0.1645
  811TIP3    H123992   0.394   1.340   0.101 -0.3530 -1.6461 -1.4815
  811TIP3    H223993   0.318   1.469   0.081 -0.1302 -1.0306  1.3033
  812TIP3   OH223994   0.438   0.758   7.962 -0.4228 -0.0248  0.2066
  812TIP3    H123995   0.359   0.763   7.907 -1.2584  0.6119  1.4246
  812TIP3    H223996   0.490   0.833   7.936 -0.8267  0.2900  0.2996
  813TIP3   OH223997   1.977   5.761   8.210  0.4589 -0.0440 -0.1099
  813TIP3    H123998   2.035   5.812   8.266 -0.9397  0.2507  1.1372
  813TIP3    H223999   1.990   5.670   8.238  0.2865  0.0237  0.1858
  814TIP3   OH224000   3.503   3.511   8.743  0.0550  0.4473  0.4459
  814TIP3    H124001   3.469   3.423   8.726  0.5681 -0.0865  2.0045
  814TIP3    H224002   3.441   3.548   8.806  0.1603  0.9841  0.2339
  815TIP3   OH224003   3.359   4.013   1.541  0.5600  0.0029  0.1398
  815TIP3    H124004   3.434   3.954   1.528  0.2314 -0.6956  1.2681
  815TIP3    H224005   3.380   4.062   1.620 -0.0006  0.0878  0.2398
  816TIP3   OH224006   2.001   6.522   2.106 -0.4351 -0.2143 -0.0404
  816TIP3    H124007   1.973   6.447   2.158 -1.2954 -0.8936 -1.4210
  816TIP3    H224008   1.930   6.586   2.115  0.0754  0.2545  0.7484
  817TIP3   OH224009   2.936   5.062   8.668 -0.3933 -0.0045 -0.3461
  817TIP3    H124010   2.901   5.149   8.648  0.5225  0.7669  1.2234
  817TIP3    H224011   2.956   5.025   8.582 -0.5440  1.4358 -1.0502
  818TIP3   OH224012   5.123   1.893   8.072 -0.0669 -0.9843  0.1317
  818TIP3    H124013   5.090   1.916   7.986 -0.6412 -1.7464  0.1390
  818TIP3    H224014   5.218   1.902   8.064 -0.2238  2.9604  0.6131
  819TIP3   OH224015   5.327   6.155   8.237 -0.5196  0.0294  0.2948
  819TIP3    H124016   5.280   6.077   8.207  1.0700 -1.1045  0.5972
  819TIP3    H224017   5.408   6.155   8.186  0.4320  0.3196  1.7337
  820TIP3   OH224018   6.763   3.424   8.662 -0.2542 -0.4270 -0.3923
  820TIP3    H124019   6.716   3.455   8.585 -0.8083 -1.2283 -0.3931
  820TIP3    H224020   6.846   3.392   8.628 -0.3861 -0.5314 -0.6203
  821TIP3   OH224021   4.877   6.211   1.176 -0.0261  0.3444 -0.0621
  821TIP3    H124022   4.787   6.178   1.181 -0.0504  0.4538  0.2253
  821TIP3    H224023   4.927   6.157   1.237  0.1136  0.2591 -0.2495
  822TIP3   OH224024   0.616   0.855   1.587  0.4394 -0.1901 -0.2186
  822TIP3    H124025   0.532   0.889   1.557 -1.6117 -3.5916  1.1462
  822TIP3    H224026   0.622   0.883   1.678 -0.7424 -2.2391  0.5753
  823TIP3   OH224027   2.118   6.091   7.366  0.7483  0.3092  0.1326
  823TIP3    H124028   2.201   6.063   7.404  0.4210  0.7848  1.2311
  823TIP3    H224029   2.118   6.186   7.376 -0.2157  0.2562  0.7739
  824TIP3   OH224030   6.423   4.194   1.254  0.0514 -0.1082  0.1738
  824TIP3    H124031   6.445   4.101   1.261  0.9581  0.0946  0.1637
  824TIP3    H224032   6.406   4.221   1.344  0.8334 -0.0473  0.3108
  825TIP3   OH224033   1.431   2.635   0.576 -1.0793 -0.0163 -0.6333
  825TIP3    H124034   1.443   2.728   0.558  0.2286  0.2052  1.0790
  825TIP3    H224035   1.406   2.631   0.668  2.9939 -1.4313  0.6684
  826TIP3   OH224036   3.160   0.937   0.975 -0.3029  0.4556  0.1660
  826TIP3    H124037   3.075   0.958   0.937 -1.5742 -3.8232  0.1154
  826TIP3    H224038   3.222   0.954   0.905 -1.7209 -0.6333 -1.4388
  827TIP3   OH224039   4.409   1.349   7.819 -0.1375 -0.0143  0.4557
  827TIP3    H124040   4.420   1.330   7.726  1.6718 -2.0484  1.0101
  827TIP3    H224041   4.489   1.395   7.844  0.6196 -1.7745  1.4870
  828TIP3   OH224042   3.893   3.050   0.305  0.1431 -0.2418 -0.0935
  828TIP3    H124043   3.809   3.047   0.260  0.8081  0.3036 -1.4263
  828TIP3    H224044   3.942   2.975   0.271  0.7564  0.3363 -0.5020
  829TIP3   OH224045   1.814   5.147   6.694  0.3168  0.1994 -0.2016
  829TIP3    H124046   1.837   5.222   6.749 -0.5977  0.3757 -0.0385
  829TIP3    H224047   1.720   5.157   6.679  0.6855  0.7024 -2.6245
  830TIP3   OH224048   3.078   0.752   1.136  0.0581  0.0555 -0.5261
  830TIP3    H124049   3.059   0.823   1.075 -1.3713 -0.8081 -1.1320
  830TIP3    H224050   3.136   0.792   1.202  0.4735  1.3757 -1.6385
  831TIP3   OH224051   1.613   1.322   1.648 -0.1404  0.1733  0.8692
  831TIP3    H124052   1.534   1.376   1.656  1.0677  2.1159  0.3761
  831TIP3    H224053   1.586   1.248   1.595 -1.7799  0.4560  1.2447
  832TIP3   OH224054   3.508   4.835   6.089 -0.1764 -0.5006  0.7605
  832TIP3    H124055   3.552   4.914   6.118  0.3182 -0.5305  0.1132
  832TIP3    H224056   3.418   4.864   6.069 -0.0695 -0.1554  0.7708
  833TIP3   OH224057   1.961   1.239   8.388  0.1602  0.7971 -0.0925
  833TIP3    H124058   1.866   1.232   8.376  0.1202 -0.3861  0.7238
  833TIP3    H224059   1.976   1.332   8.401 -0.8862  1.0135 -0.3149
  834TIP3   OH224060   1.889   2.584   0.358  0.1079  0.1633 -0.0755
  834TIP3    H124061   1.937   2.578   0.276 -0.3895 -1.5425 -0.2900
  834TIP3    H224062   1.801   2.614   0.333  0.7235  2.3729  0.2076
  835TIP3   OH224063   3.030   4.804   2.421 -0.5113  0.3148  0.2796
  835TIP3    H124064   3.072   4.888   2.440 -0.2861  0.1474  0.5491
  835TIP3    H224065   3.008   4.769   2.508  0.3392 -0.3708  0.2313
  836TIP3   OH224066   4.176   3.618   8.256  0.1695 -0.1138  0.0207
  836TIP3    H124067   4.091   3.574   8.263 -0.8046  1.6349 -0.3667
  836TIP3    H224068   4.185   3.668   8.337  1.2674 -0.9718  0.4585
  837TIP3   OH224069   2.467   5.965   8.639 -0.0774  0.2325  0.1638
  837TIP3    H124070   2.541   5.990   8.694 -1.2611  0.2107  1.8416
  837TIP3    H224071   2.419   5.901   8.692 -1.8253  0.9769 -0.4545
  838TIP3   OH224072   3.765   0.497   7.325 -0.0781 -0.6056 -0.5310
  838TIP3    H124073   3.688   0.547   7.299  1.3573  1.5735 -0.8912
  838TIP3    H224074   3.753   0.480   7.419 -0.5102  0.6625 -0.3421
  839TIP3   OH224075   2.846   2.414   8.481  0.1723 -0.2707  0.4391
  839TIP3    H124076   2.837   2.390   8.573  1.7427  0.4305  0.8129
  839TIP3    H224077   2.849   2.331   8.434  1.2197 -0.7052  1.2376
  840TIP3   OH224078   1.459   2.630   0.842 -0.2993  0.1255  0.3787
  840TIP3    H124079   1.548   2.661   0.823  0.1965  0.2241  2.5346
  840TIP3    H224080   1.448   2.648   0.936 -1.8245 -1.7477  0.6096
  841TIP3   OH224081   4.826   3.235   2.199  0.3727 -0.0174  0.0483
  841TIP3    H124082   4.903   3.281   2.166 -0.2092 -0.6710 -2.5039
  841TIP3    H224083   4.860   3.151   2.229  0.7488 -0.1453 -0.6968
  842TIP3   OH224084   5.991   5.467   0.647  0.4248 -0.8698  0.2652
  842TIP3    H124085   5.974   5.530   0.718 -1.3265  0.3278 -1.1505
  842TIP3    H224086   6.076   5.495   0.612  0.4397 -0.3169  0.7129
  843TIP3   OH224087   1.478   6.315   1.767 -0.4646 -0.5064 -0.1505
  843TIP3    H124088   1.414   6.324   1.838 -0.8451  1.3160 -0.6701
  843TIP3    H224089   1.521   6.231   1.783 -1.6668 -0.8756  1.2989
  844TIP3   OH224090   0.103   3.484   6.286  0.1836  0.4037 -0.1750
  844TIP3    H124091   0.042   3.540   6.334  1.4160  1.1169  0.6043
  844TIP3    H224092   0.139   3.426   6.353 -1.1448 -1.4371 -0.9844
  845TIP3   OH224093   4.644   4.801   0.197  0.7614 -0.3415  0.1372
  845TIP3    H124094   4.551   4.784   0.213  0.7649 -1.8882 -1.1622
  845TIP3    H224095   4.647   4.888   0.157 -0.0482  0.0148  0.8475
  846TIP3   OH224096   3.588   6.692   0.426  0.3571 -0.2697  0.3202
  846TIP3    H124097   3.500   6.660   0.444  0.3748 -0.7375 -0.3752
  846TIP3    H224098   3.643   6.614   0.431  0.1914 -0.6979 -2.8495
  847TIP3   OH224099   5.167   1.706   7.311 -0.3310  0.6772 -0.1550
  847TIP3    H124100   5.110   1.705   7.234 -1.2692  1.9146  0.4821
  847TIP3    H224101   5.175   1.798   7.334 -0.9741  0.2918  1.8569
  848TIP3   OH224102   1.031   3.370   1.123 -0.4512 -0.2513 -0.1547
  848TIP3    H124103   1.069   3.437   1.068  0.6049  0.3482  1.2323
  848TIP3    H224104   1.037   3.289   1.071 -1.5447  0.6467 -1.7474
  849TIP3   OH224105   5.143   0.344   7.615  0.1150  0.0429 -0.4489
  849TIP3    H124106   5.192   0.280   7.666  0.3398  0.6207  0.0736
  849TIP3    H224107   5.174   0.332   7.525 -2.0179 -2.6447 -0.9721
  850TIP3   OH224108   5.061   6.672   0.577  0.4553  0.6694 -0.4396
  850TIP3    H124109   5.148   6.709   0.566  0.6727  0.0838 -0.7186
  850TIP3    H224110   5.076   6.577   0.585 -0.1921  0.5140 -1.0081
  851TIP3   OH224111   0.533   4.449   7.894 -0.0277  0.3462 -0.1309
  851TIP3    H124112   0.449   4.495   7.887 -0.4125 -0.5098 -2.0014
  851TIP3    H224113   0.517   4.380   7.958 -0.1531  1.3426  0.9397
  852TIP3   OH224114   2.289   1.521   6.689 -0.2348 -0.1778  0.3805
  852TIP3    H124115   2.250   1.456   6.630 -1.1773 -1.3445  2.2008
  852TIP3    H224116   2.288   1.602   6.639 -0.0085 -1.3300 -1.5818
  853TIP3   OH224117   3.137   1.521   8.306  0.0438  0.0654  0.2138
  853TIP3    H124118   3.119   1.589   8.371 -0.2412  3.2221 -2.8936
  853TIP3    H224119   3.228   1.534   8.281  0.6250 -2.1273  0.9626
  854TIP3   OH224120   3.094   4.344   7.387  0.5883  0.5551  0.0888
  854TIP3    H124121   3.098   4.317   7.479 -0.3342 -1.4348 -0.4143
  854TIP3    H224122   3.159   4.289   7.343  0.1380  0.6158 -0.6601
  855TIP3   OH224123   0.455   3.492   0.562 -0.6696  0.2450  0.5494
  855TIP3    H124124   0.468   3.446   0.645 -0.4135 -2.1527 -0.7386
  855TIP3    H224125   0.366   3.529   0.569 -1.3236 -1.3563  1.2648
  856TIP3   OH224126   5.253   1.601   0.748  0.3208 -0.3946  0.0930
  856TIP3    H124127   5.256   1.640   0.836  2.9122 -0.6422  0.1813
  856TIP3    H224128   5.217   1.514   0.762 -1.9084  0.5146  0.4515
  857TIP3   OH224129   6.357   3.089   8.595 -0.3289 -0.5641 -0.1222
  857TIP3    H124130   6.263   3.107   8.595 -0.0865  0.9177  0.8023
  857TIP3    H224131   6.370   3.027   8.667 -0.6633 -1.2328 -0.6321
  858TIP3   OH224132   0.413   1.899   1.382 -0.0684 -0.3835 -0.2594
  858TIP3    H124133   0.485   1.956   1.408  0.1973 -0.6724 -0.3536
  858TIP3    H224134   0.444   1.857   1.302 -0.8196  0.4035 -0.9874
  859TIP3   OH224135   2.242   3.605   2.003 -0.1630  0.6256 -0.2534
  859TIP3    H124136   2.337   3.593   2.016 -0.6942 -3.1764  1.5119
  859TIP3    H224137   2.211   3.637   2.088 -0.8948 -2.3267  0.6773
  860TIP3   OH224138   6.393   4.871   6.875 -0.0087  0.0811  0.3579
  860TIP3    H124139   6.450   4.800   6.844 -1.2020 -0.7252 -0.0857
  860TIP3    H224140   6.420   4.947   6.824  0.8455 -0.2126  0.3563
  861TIP3   OH224141   2.075   2.075   0.240  0.0322 -0.8267 -0.1128
  861TIP3    H124142   2.073   2.164   0.274  0.8839 -0.7527 -0.2174
  861TIP3    H224143   2.034   2.022   0.308  0.9534 -0.5628  0.6748
  862TIP3   OH224144   0.731   2.435   8.054 -0.1025  0.0356 -0.3675
  862TIP3    H124145   0.781   2.402   7.979 -0.6622  0.9658 -1.1793
  862TIP3    H224146   0.658   2.483   8.015  0.9223  2.6660  0.6906
  863TIP3   OH224147   3.305   2.279   7.059  0.0770  0.2833 -0.2594
  863TIP3    H124148   3.283   2.335   7.133  0.3534  0.8770 -0.6219
  863TIP3    H224149   3.309   2.338   6.984  2.0498  0.0734 -0.3689
  864TIP3   OH224150   6.283   5.830   8.536  0.1785 -0.2092  0.1945
  864TIP3    H124151   6.327   5.746   8.551 -0.1953 -0.2710  1.0031
  864TIP3    H224152   6.349   5.885   8.494  0.7140 -0.6231  0.4851
  865TIP3   OH224153   3.006   0.190   7.450 -0.0112  0.0190  0.0716
  865TIP3    H124154   3.087   0.157   7.410  0.1291  0.5068 -0.0492
  865TIP3    H224155   2.941   0.122   7.431  0.5291 -0.7267  0.7902
  866TIP3   OH224156   3.645   5.810   1.069 -0.5502 -0.4576  0.0643
  866TIP3    H124157   3.725   5.862   1.081 -1.1363 -0.0245  2.7687
  866TIP3    H224158   3.676   5.721   1.054  0.4567 -0.2410  0.7941
  867TIP3   OH224159   0.372   6.236   7.471 -0.9142 -0.1408  0.3807
  867TIP3    H124160   0.414   6.170   7.526  0.6349  0.6657  0.2398
  867TIP3    H224161   0.442   6.299   7.453 -1.9195  0.6699 -0.8325
  868TIP3   OH224162   2.841   3.267   8.747  0.6472 -0.4421  0.3024
  868TIP3    H124163   2.793   3.194   8.710 -0.2351  0.4279 -0.3148
  868TIP3    H224164   2.928   3.232   8.766  1.1689 -0.9483 -2.6425
  869TIP3   OH224165   3.444   2.949   6.995  0.3697 -0.4347 -0.1199
  869TIP3    H124166   3.450   3.040   7.025  0.2622 -0.7667  0.9624
  869TIP3    H224167   3.515   2.940   6.932  1.5675 -0.1123  1.1450
  870TIP3   OH224168   1.451   3.072   7.824 -0.0366 -0.0337  0.0221
  870TIP3    H124169   1.544   3.086   7.811 -0.1227  0.2765 -0.2758
  870TIP3    H224170   1.441   3.065   7.919  0.5748 -2.1673 -0.0354
  871TIP3   OH224171   3.243   2.520   7.529 -0.4542  0.2255  0.3947
  871TIP3    H124172   3.284   2.545   7.612 -1.4222 -2.3417  1.7672
  871TIP3    H224173   3.149   2.526   7.546 -0.6729 -1.0351 -0.2717
  872TIP3   OH224174   1.967   0.128   1.554  0.7565  0.4054  0.3887
  872TIP3    H124175   1.873   0.122   1.540  0.6089 -1.2911  1.7690
  872TIP3    H224176   1.977   0.198   1.619  0.2100 -0.7581  1.7884
  873TIP3   OH224177   6.157   4.229   1.150  0.9232  0.1638  0.1662
  873TIP3    H124178   6.236   4.206   1.199  0.8643  1.0411  0.6967
  873TIP3    H224179   6.089   4.238   1.217  1.1735  2.8929  0.1831
  874TIP3   OH224180   6.163   0.606   0.612  0.6821  0.2510  0.1764
  874TIP3    H124181   6.117   0.570   0.537 -0.5929 -1.6301  1.7552
  874TIP3    H224182   6.256   0.589   0.595  0.3467 -0.8012 -0.6317
  875TIP3   OH224183   2.575   6.461   7.858 -0.3310  0.8058  0.0961
  875TIP3    H124184   2.635   6.416   7.799 -1.2994 -0.4977  0.0592
  875TIP3    H224185   2.629   6.489   7.932  0.6631  1.3967 -0.8275
  876TIP3   OH224186   4.711   0.705   2.032 -0.4974 -0.0311  0.0402
  876TIP3    H124187   4.710   0.800   2.022 -1.5280  0.2633  2.3438
  876TIP3    H224188   4.619   0.680   2.036 -0.2493 -0.7878  1.7868
  877TIP3   OH224189   4.932   5.827   8.163 -0.4898 -0.0954  0.0982
  877TIP3    H124190   4.926   5.748   8.108 -1.4602 -0.0256  0.0847
  877TIP3    H224191   4.928   5.899   8.101  1.5430 -0.0046  0.0032
  878TIP3   OH224192   6.161   3.588   7.773 -0.6089 -0.9780 -0.0191
  878TIP3    H124193   6.106   3.662   7.747 -1.4283 -1.4017  0.4638
  878TIP3    H224194   6.189   3.610   7.863 -0.3766 -0.9881 -0.0872
  879TIP3   OH224195   5.590   5.509   0.656  0.0092  0.3488 -0.0289
  879TIP3    H124196   5.671   5.472   0.621  0.4167  0.0437  1.1886
  879TIP3    H224197   5.521   5.452   0.621  0.5065 -0.6538  0.5725
  880TIP3   OH224198   4.259   4.641   0.984 -0.2550  0.2085  0.0395
  880TIP3    H124199   4.336   4.676   1.028  0.0194 -2.0058  1.5184
  880TIP3    H224200   4.203   4.717   0.969  1.7511  1.7241 -0.1402
  881TIP3   OH224201   2.549   5.471   6.969 -0.0429  0.0760 -0.1694
  881TIP3    H124202   2.642   5.491   6.960 -0.2682  0.2449 -3.2618
  881TIP3    H224203   2.505   5.548   6.933 -1.2326 -1.2474 -1.6749
  882TIP3   OH224204   3.539   2.464   7.985  0.3059  0.2756  0.0643
  882TIP3    H124205   3.484   2.456   8.063 -0.0465  0.1895 -0.1951
  882TIP3    H224206   3.558   2.374   7.960  1.0132  0.2973  0.4636
  883TIP3   OH224207   5.777   4.476   6.623  0.4485 -0.2587 -0.3145
  883TIP3    H124208   5.865   4.511   6.636  0.0010  1.1778 -0.8756
  883TIP3    H224209   5.734   4.540   6.566 -1.2610 -0.4226  0.7029
  884TIP3   OH224210   1.855   1.690   6.697 -0.7773 -0.0543  0.2999
  884TIP3    H124211   1.775   1.716   6.652 -0.9353 -0.6775  0.2064
  884TIP3    H224212   1.870   1.600   6.668  0.3451  0.2825 -0.2383
  885TIP3   OH224213   6.570   0.026   7.239  0.3735 -0.7456 -0.1247
  885TIP3    H124214   6.502   0.091   7.224  0.8805  0.1144  1.0963
  885TIP3    H224215   6.592  -0.006   7.152 -0.0317  0.5908 -0.7463
  886TIP3   OH224216   5.347   1.397   6.608 -0.0813  0.3928 -0.5745
  886TIP3    H124217   5.302   1.433   6.531  0.4678  2.7915  0.1390
  886TIP3    H224218   5.440   1.407   6.588  0.0688  0.5548  0.1782
  887TIP3   OH224219   1.339   4.846   8.301 -0.0913  0.3628  0.0143
  887TIP3    H124220   1.320   4.810   8.215  1.9162 -1.9502  0.3957
  887TIP3    H224221   1.260   4.829   8.352 -1.1624  1.4257 -1.2405
  888TIP3   OH224222   3.021   6.455   6.924  0.2613  0.0701  0.2975
  888TIP3    H124223   3.029   6.461   6.829  0.0417  1.0513  0.3276
  888TIP3    H224224   2.928   6.438   6.939  0.2520  0.1612  0.3446
  889TIP3   OH224225   1.717   5.329   2.217  0.2968  0.0517 -0.0355
  889TIP3    H124226   1.690   5.418   2.196  1.4778  0.2705 -0.6713
  889TIP3    H224227   1.646   5.274   2.184 -0.1929  0.7143 -0.0995
  890TIP3   OH224228   0.178   5.057   7.125  0.2119  0.0628  0.0418
  890TIP3    H124229   0.256   5.102   7.091 -0.6380 -0.0731 -2.2562
  890TIP3    H224230   0.127   5.125   7.168  0.8482  0.4646  0.1684
  891TIP3   OH224231   3.800   0.762   7.776 -0.5348  0.0125 -0.0907
  891TIP3    H124232   3.843   0.765   7.690 -0.4747  0.8418 -0.0402
  891TIP3    H224233   3.713   0.799   7.761 -0.1268  1.2257  0.4170
  892TIP3   OH224234   6.160   4.055   1.805 -0.3491  0.0029  1.0967
  892TIP3    H124235   6.247   4.019   1.822  0.8164  2.0085 -0.1043
  892TIP3    H224236   6.145   4.116   1.877 -1.1301 -0.8812  1.7036
  893TIP3   OH224237   4.014   3.062   8.060 -0.4123  0.3979  0.1087
  893TIP3    H124238   4.083   2.996   8.053  0.0589  0.8139  0.7102
  893TIP3    H224239   3.939   3.015   8.095  0.0351  0.2543  0.8927
  894TIP3   OH224240   4.110   1.713   5.741 -0.7634  0.1420  0.0323
  894TIP3    H124241   4.104   1.628   5.697  0.5886 -0.0587  0.1957
  894TIP3    H224242   4.169   1.698   5.815 -0.0754  1.3285 -0.2427
  895TIP3   OH224243   5.335   4.701   0.050 -1.0458 -0.2595  0.1042
  895TIP3    H124244   5.303   4.774  -0.002  0.4863 -0.3999 -1.0838
  895TIP3    H224245   5.269   4.632   0.037 -0.7388 -0.2763 -1.6553
  896TIP3   OH224246   2.377   1.316   0.456 -0.4253 -0.1500 -0.2330
  896TIP3    H124247   2.424   1.307   0.539 -1.3611 -0.7612  0.2429
  896TIP3    H224248   2.329   1.398   0.463  2.0006  1.5065 -1.4860
  897TIP3   OH224249   2.426   3.416   1.738 -0.0444  0.0494 -0.0555
  897TIP3    H124250   2.465   3.447   1.820  1.8723 -0.0029 -0.8972
  897TIP3    H224251   2.426   3.320   1.747 -0.5100  0.0647  0.1570
  898TIP3   OH224252   3.559   5.362   1.121  0.3868  0.3621 -0.1101
  898TIP3    H124253   3.493   5.325   1.179 -0.0712  0.8361 -0.3259
  898TIP3    H224254   3.584   5.289   1.064  0.7656 -0.0800  0.5999
  899TIP3   OH224255   3.896   0.172   0.770 -0.5118  0.1659 -0.1108
  899TIP3    H124256   3.854   0.117   0.704  0.9141 -1.2043  0.0554
  899TIP3    H224257   3.902   0.116   0.848  1.5764  0.2636 -0.1356
  900TIP3   OH224258   3.334   2.259   8.529 -0.1841 -0.3384  0.4044
  900TIP3    H124259   3.339   2.267   8.625 -0.3011  0.6482  0.3432
  900TIP3    H224260   3.422   2.235   8.502  0.7654  2.6404  0.5098
  901TIP3   OH224261   4.882   6.521   0.244  0.1438  0.8224  0.8197
  901TIP3    H124262   4.959   6.489   0.197 -0.9415 -2.4556  0.9839
  901TIP3    H224263   4.912   6.531   0.335  0.6295  0.5929  0.6865
  902TIP3   OH224264   2.693   5.034   1.031 -0.5349  0.3680 -0.1906
  902TIP3    H124265   2.736   5.018   1.115 -0.5957 -0.8958 -0.3816
  902TIP3    H224266   2.755   5.002   0.966 -1.2160 -0.3203 -0.5257
  903TIP3   OH224267   0.233   1.773   0.687  0.1223  0.5364 -0.4270
  903TIP3    H124268   0.230   1.820   0.604 -0.1416 -0.2433 -0.8679
  903TIP3    H224269   0.148   1.790   0.727 -0.9191 -1.3895 -1.6381
  904TIP3   OH224270   1.918   1.392   1.250 -0.5115  0.3442 -0.5331
  904TIP3    H124271   1.871   1.455   1.304  2.2006  0.6621  1.7204
  904TIP3    H224272   2.010   1.401   1.277  0.1693 -4.0194 -0.5933
  905TIP3   OH224273   2.445   6.517   1.337  0.1592 -0.7539 -0.4599
  905TIP3    H124274   2.489   6.477   1.412 -1.5170 -0.9719  0.4692
  905TIP3    H224275   2.352   6.518   1.361 -0.1866  1.2578 -1.5894
  906TIP3   OH224276   1.985   1.226   7.423  0.0746  0.3585 -0.0094
  906TIP3    H124277   2.016   1.315   7.408  0.6554  0.3061  0.8064
  906TIP3    H224278   1.934   1.231   7.504 -0.3369  0.0439 -0.2420
  907TIP3   OH224279   5.223   4.273   7.593  0.1965  0.4001  0.2566
  907TIP3    H124280   5.157   4.228   7.540  2.5536 -2.3173 -0.6755
  907TIP3    H224281   5.182   4.283   7.679 -1.7723 -0.1961 -0.5576
  908TIP3   OH224282   4.977   5.801   1.559 -0.1795  0.4409  0.7773
  908TIP3    H124283   5.067   5.778   1.584  0.1842 -1.0408 -1.6278
  908TIP3    H224284   4.981   5.893   1.536  0.5092  0.6206  1.5948
  909TIP3   OH224285   2.693   2.355   7.111 -0.3205 -0.4291 -0.0770
  909TIP3    H124286   2.670   2.379   7.201 -2.2670 -1.5368 -0.2258
  909TIP3    H224287   2.722   2.264   7.117  0.0929 -0.3288 -0.5036
  910TIP3   OH224288   1.591   0.450   0.482  0.3419 -0.0609 -0.0040
  910TIP3    H124289   1.551   0.367   0.508 -0.1227  0.9034  2.6877
  910TIP3    H224290   1.684   0.430   0.470  0.1014 -1.1154 -0.1879
  911TIP3   OH224291   6.471   4.121   0.070 -0.3798  0.1794 -0.1684
  911TIP3    H124292   6.406   4.068   0.115  0.7315 -0.1494  1.1024
  911TIP3    H224293   6.528   4.058   0.026  2.5243 -0.0545  3.4451
  912TIP3   OH224294   1.970   5.908   1.077 -0.1977 -0.6558  0.4096
  912TIP3    H124295   1.881   5.938   1.094 -1.0634 -2.1651 -1.1828
  912TIP3    H224296   1.963   5.854   0.998  2.5597  1.3552 -1.4146
  913TIP3   OH224297   1.753   5.603   6.429  0.1395 -0.6884  0.2681
  913TIP3    H124298   1.788   5.518   6.455  1.9288 -0.3593 -0.8756
  913TIP3    H224299   1.669   5.582   6.387  0.7969 -1.9698 -0.4834
  914TIP3   OH224300   2.039   0.525   0.633  0.0594  0.6795 -0.2507
  914TIP3    H124301   2.036   0.611   0.591  0.0769  1.0228  0.4425
  914TIP3    H224302   2.131   0.514   0.659 -0.1315  0.8945  0.5518
  915TIP3   OH224303   1.777   4.692   7.809 -0.1245  0.2948 -0.1889
  915TIP3    H124304   1.828   4.738   7.742 -0.4541  0.6920 -0.1767
  915TIP3    H224305   1.705   4.753   7.829 -0.1660  0.0706  0.3434
  916TIP3   OH224306   1.362   4.628   6.404 -0.5769  0.7621  0.3490
  916TIP3    H124307   1.393   4.718   6.417  0.5075  0.2633  1.4669
  916TIP3    H224308   1.371   4.587   6.490 -0.7910 -0.4882 -0.2053
  917TIP3   OH224309   0.867   3.111   8.231  0.1184  0.2064 -0.1033
  917TIP3    H124310   0.885   3.086   8.141 -1.5181 -0.1384 -0.3751
  917TIP3    H224311   0.835   3.031   8.273 -1.2654  0.8418  0.1397
  918TIP3   OH224312   3.654   4.904   6.935  0.2729 -0.1744  0.2816
  918TIP3    H124313   3.596   4.980   6.933  0.7198  0.1682 -0.8432
  918TIP3    H224314   3.740   4.939   6.910  0.4477 -1.0593 -0.4258
  919TIP3   OH224315   2.425   6.027   8.320 -0.3072  0.1360  0.4438
  919TIP3    H124316   2.371   6.081   8.262  0.3502  1.2114  0.8073
  919TIP3    H224317   2.447   6.085   8.393  0.0116 -0.7828  1.0925
  920TIP3   OH224318   3.470   0.150   1.244 -0.3685  0.5426  0.1672
  920TIP3    H124319   3.413   0.116   1.176  1.3474  0.5289 -1.3304
  920TIP3    H224320   3.486   0.241   1.219 -0.5697  0.8718  1.1651
  921TIP3   OH224321   5.128   3.532   7.088 -0.0720 -0.3460  0.2643
  921TIP3    H124322   5.111   3.557   6.997  0.4331 -1.8747 -0.2807
  921TIP3    H224323   5.061   3.578   7.138 -0.0934  0.8645 -0.8220
  922TIP3   OH224324   2.272   5.393   7.004 -0.1012  0.8334 -0.3322
  922TIP3    H124325   2.357   5.427   7.033  0.2096  0.6650 -1.0205
  922TIP3    H224326   2.293   5.327   6.938 -0.7716  0.9159 -0.6439
  923TIP3   OH224327   2.948   5.711   8.418 -0.2207  0.3806 -0.0811
  923TIP3    H124328   2.898   5.707   8.337  2.2503 -1.1633 -1.6446
  923TIP3    H224329   3.034   5.675   8.396  1.1031  1.3977  2.8363
  924TIP3   OH224330   1.776   1.427   7.220 -0.4855  0.3411  0.2671
  924TIP3    H124331   1.835   1.464   7.286  0.1787  0.6216 -0.4696
  924TIP3    H224332   1.834   1.379   7.161 -0.8086  1.7598 -1.2563
  925TIP3   OH224333   4.037   1.840   7.085 -0.3768 -0.0590 -0.4668
  925TIP3    H124334   4.042   1.871   6.995  0.2787 -0.0014 -0.4133
  925TIP3    H224335   4.021   1.746   7.077  1.5973 -0.4142 -0.6833
  926TIP3   OH224336   2.056   1.856   0.487  0.8445 -0.4388  0.2386
  926TIP3    H124337   2.012   1.779   0.523 -0.0149  0.9686  2.4122
  926TIP3    H224338   2.139   1.822   0.453  1.2042 -2.1370  2.5463
  927TIP3   OH224339   5.525   3.692   7.028  0.7021 -0.4908 -0.5320
  927TIP3    H124340   5.621   3.700   7.020  0.6056  0.5845 -0.8119
  927TIP3    H224341   5.493   3.781   7.015 -0.2331 -0.5107  1.3167
  928TIP3   OH224342   4.535   6.068   0.143  0.0874 -0.1093  0.3318
  928TIP3    H124343   4.544   6.094   0.052 -0.6690 -0.0971  0.2585
  928TIP3    H224344   4.592   5.991   0.152  0.2704 -0.0278 -0.1077
  929TIP3   OH224345   5.131   4.328   7.149 -0.5478 -0.0629 -0.3325
  929TIP3    H124346   5.163   4.240   7.127 -0.5077  0.2749 -1.7156
  929TIP3    H224347   5.162   4.383   7.078 -0.1302  1.1925  0.7766
  930TIP3   OH224348   2.741   1.781   0.121  0.6577  0.2494  0.1549
  930TIP3    H124349   2.671   1.717   0.110  1.6010 -0.9706  0.9744
  930TIP3    H224350   2.709   1.841   0.189 -0.3468  0.8451 -0.8163
  931TIP3   OH224351   6.083   5.420   8.643 -0.0457  0.3375  0.2187
  931TIP3    H124352   6.014   5.463   8.592 -0.0088 -1.3979 -1.4258
  931TIP3    H224353   6.035   5.367   8.707 -0.1571  0.9210  0.6241
  932TIP3   OH224354   1.088   3.629   7.049 -0.4791  0.3709 -0.1994
  932TIP3    H124355   1.059   3.539   7.061  0.6584  0.0478  0.1559
  932TIP3    H224356   1.037   3.660   6.973 -0.8762 -0.5540 -0.3214
  933TIP3   OH224357   2.590   3.128   8.398  0.1916 -0.1149 -0.3828
  933TIP3    H124358   2.675   3.095   8.366  0.8750  1.2937 -0.0992
  933TIP3    H224359   2.597   3.123   8.493 -0.4007 -0.8106 -0.3693
  934TIP3   OH224360   6.558   3.223   8.480  0.6880  0.3599  0.7704
  934TIP3    H124361   6.535   3.314   8.501  0.9518  0.8914 -1.0742
  934TIP3    H224362   6.499   3.170   8.533 -1.0826  1.6389  0.1795
  935TIP3   OH224363   3.900   4.063   0.050 -0.7167 -0.3459  0.7277
  935TIP3    H124364   3.963   4.119   0.096 -2.0222 -0.4147  2.7391
  935TIP3    H224365   3.933   3.974   0.064  1.2800 -0.2498 -2.3493
  936TIP3   OH224366   6.729   0.824   1.255 -0.7277  0.2529  0.5077
  936TIP3    H124367   6.708   0.737   1.221 -0.3501 -0.1597  1.2972
  936TIP3    H224368   6.718   0.816   1.350 -2.3489  1.5308  0.4793
  937TIP3   OH224369   3.385   2.979   8.525 -0.0923 -0.5277 -0.2204
  937TIP3    H124370   3.323   2.908   8.542 -0.2048 -0.3343  0.1928
  937TIP3    H224371   3.383   2.990   8.430 -0.6570 -0.5598 -0.2187
  938TIP3   OH224372   2.668   3.485   0.046 -0.6414 -0.0517  0.4553
  938TIP3    H124373   2.626   3.489  -0.040 -1.2557  0.4570  0.7783
  938TIP3    H224374   2.751   3.439   0.029 -1.3598 -1.1594 -0.1668
  939TIP3   OH224375   6.369   5.284   1.866  0.0734  0.2346 -0.1333
  939TIP3    H124376   6.390   5.377   1.870 -2.9028  1.0641 -0.8263
  939TIP3    H224377   6.310   5.271   1.941  1.4785 -1.4596  0.7404
  940TIP3   OH224378   3.622   1.790   7.598  0.0069  0.7161  0.1542
  940TIP3    H124379   3.670   1.728   7.544  1.6434  2.7667 -0.8858
  940TIP3    H224380   3.658   1.876   7.575 -2.0921  2.0868  1.5598
  941TIP3   OH224381   6.507   1.464   8.616  0.1711 -0.3819 -0.1525
  941TIP3    H124382   6.477   1.516   8.691 -1.2089  0.5670 -1.2961
  941TIP3    H224383   6.569   1.521   8.571  1.2187 -1.0628  0.4052
  942TIP3   OH224384   3.433   4.784   0.822 -0.0416 -0.3810 -0.5649
  942TIP3    H124385   3.454   4.724   0.894 -1.5019 -0.3813 -0.1237
  942TIP3    H224386   3.344   4.761   0.797 -0.5208  1.3850 -0.6126
  943TIP3   OH224387   5.206   0.796   2.110  0.1894 -0.5500  0.7914
  943TIP3    H124388   5.116   0.785   2.141 -0.2401  1.4151  0.3920
  943TIP3    H224389   5.235   0.707   2.088 -1.7686 -1.1961  0.6053
  944TIP3   OH224390   4.712   6.338   7.918 -0.0387  0.0042 -0.2036
  944TIP3    H124391   4.781   6.404   7.918 -0.6812  0.6896  0.0775
  944TIP3    H224392   4.711   6.304   7.829 -0.0696  0.7833 -0.5131
  945TIP3   OH224393   3.948   4.804   8.287 -0.5711  0.2715  1.0292
  945TIP3    H124394   3.919   4.871   8.225  1.3511  1.0517  0.8918
  945TIP3    H224395   3.958   4.725   8.233 -2.9686 -0.2502  1.2159
  946TIP3   OH224396   1.451   3.526   1.153 -0.2070 -0.2441 -0.6403
  946TIP3    H124397   1.402   3.593   1.200 -1.3822 -0.2539 -1.8158
  946TIP3    H224398   1.503   3.575   1.088  1.8388 -0.1771  0.9403
  947TIP3   OH224399   0.887   1.709   1.506  0.3602 -0.0308 -0.3817
  947TIP3    H124400   0.878   1.630   1.453  1.4088  0.3306 -1.1389
  947TIP3    H224401   0.846   1.687   1.589  0.1067 -1.1615 -0.7854
  948TIP3   OH224402   4.907   2.955   6.911  0.1389  0.0636 -0.6175
  948TIP3    H124403   4.823   2.962   6.865 -0.2711 -3.0037 -0.5354
  948TIP3    H224404   4.971   2.936   6.843  0.1754 -0.8671 -0.3300
  949TIP3   OH224405   0.284   2.169   8.557 -0.3939  0.0123 -0.6594
  949TIP3    H124406   0.340   2.217   8.617  0.6425  0.7205 -2.1288
  949TIP3    H224407   0.310   2.198   8.470 -1.9121 -0.8846 -1.4819
  950TIP3   OH224408   0.303   5.946   1.813 -0.1969  0.0078 -0.0042
  950TIP3    H124409   0.223   5.956   1.865 -1.6442 -3.8221 -1.1628
  950TIP3    H224410   0.374   5.952   1.877 -1.7828 -2.3930  2.1952
  951TIP3   OH224411   0.656   0.171   6.686  0.1056 -0.3304 -0.0474
  951TIP3    H124412   0.623   0.255   6.653  1.2698  0.3837  0.5592
  951TIP3    H224413   0.719   0.143   6.620 -0.2749 -0.7377 -0.2440
  952TIP3   OH224414   4.215   0.705   0.596  0.7400 -0.0022 -0.1293
  952TIP3    H124415   4.292   0.694   0.652  0.9898 -0.0269 -0.4747
  952TIP3    H224416   4.249   0.750   0.518  0.3373  0.3164 -0.1239
  953TIP3   OH224417   1.349   5.619   1.522 -0.5851  0.2452  0.2905
  953TIP3    H124418   1.420   5.605   1.460 -0.7565 -0.5396  0.2565
  953TIP3    H224419   1.300   5.537   1.521 -0.2962  0.0191  1.8394
  954TIP3   OH224420   3.374   0.861   7.114 -0.2297  0.3373 -0.2804
  954TIP3    H124421   3.379   0.951   7.147  0.1513  1.2194 -2.5585
  954TIP3    H224422   3.287   0.831   7.140  0.9241 -0.0836  3.7617
  955TIP3   OH224423   5.054   2.214   0.605  0.0773  0.3201  0.0229
  955TIP3    H124424   5.036   2.277   0.674 -1.5442 -0.2833  0.2068
  955TIP3    H224425   5.023   2.130   0.640 -0.5475 -0.0425 -1.3212
  956TIP3   OH224426   1.869   2.981   6.705  0.2072  0.2002 -0.0448
  956TIP3    H124427   1.896   3.059   6.656 -0.7748  0.2399 -0.5310
  956TIP3    H224428   1.778   2.967   6.681  0.0233 -0.4193  0.9453
  957TIP3   OH224429   0.687   1.898   8.454 -0.0396  0.3811 -0.4871
  957TIP3    H124430   0.638   1.825   8.493 -2.2266  2.3907  0.8044
  957TIP3    H224431   0.665   1.894   8.361  0.6824 -1.1496 -0.6232
  958TIP3   OH224432   2.226   1.171   1.100 -0.4131  0.1421 -0.7207
  958TIP3    H124433   2.221   1.205   1.190 -0.6724 -1.3385 -0.1402
  958TIP3    H224434   2.319   1.171   1.079 -0.3464  0.4480 -0.4312
  959TIP3   OH224435   2.678   3.307   1.054 -0.1807 -0.7625 -0.1744
  959TIP3    H124436   2.702   3.246   1.124 -0.9276  1.3700  2.0985
  959TIP3    H224437   2.643   3.383   1.100  0.7852  1.4531 -2.8435
  960TIP3   OH224438   3.792   2.809   2.099 -0.3638 -0.1139 -0.1410
  960TIP3    H124439   3.886   2.790   2.099  0.1835  2.2262 -1.6478
  960TIP3    H224440   3.754   2.741   2.154  1.9675 -2.3113 -1.0474
  961TIP3   OH224441   2.124   1.488   0.810  0.0781  0.6359 -0.0728
  961TIP3    H124442   2.188   1.557   0.826  0.9212 -0.3017  0.7315
  961TIP3    H224443   2.049   1.511   0.864  0.2008  1.1142 -0.1037
  962TIP3   OH224444   0.422   5.194   0.938  0.5188 -0.2686  0.1933
  962TIP3    H124445   0.488   5.229   0.997  0.5063  1.3412 -0.6999
  962TIP3    H224446   0.364   5.267   0.920 -1.2281 -1.5209  0.5392
  963TIP3   OH224447   5.303   6.096   0.793 -0.2678 -0.4189 -0.1134
  963TIP3    H124448   5.226   6.080   0.739 -0.5124  0.4540 -0.0317
  963TIP3    H224449   5.268   6.113   0.881 -0.0193  0.3995 -0.1635
  964TIP3   OH224450   2.512   0.244   6.886  0.5225 -0.4628 -0.3577
  964TIP3    H124451   2.520   0.149   6.874  0.0130 -0.5518 -0.0168
  964TIP3    H224452   2.601   0.277   6.874  0.7961 -1.0420  0.0328
  965TIP3   OH224453   2.421   2.072   7.737  0.2337  0.0932  0.1424
  965TIP3    H124454   2.363   2.147   7.750  0.4234  0.3549 -0.4296
  965TIP3    H224455   2.455   2.085   7.648  2.2070  0.6881  0.9376
  966TIP3   OH224456   1.525   4.350   0.704 -0.1296 -0.7281  0.1128
  966TIP3    H124457   1.504   4.258   0.720  3.9618 -1.6350  1.2746
  966TIP3    H224458   1.581   4.375   0.778  0.7407  2.0172 -1.3364
  967TIP3   OH224459   3.194   5.148   6.846  0.0034  0.2586 -0.2288
  967TIP3    H124460   3.108   5.169   6.809  0.4422 -0.1926 -1.5892
  967TIP3    H224461   3.253   5.214   6.808  0.3106  0.4251  0.5130
  968TIP3   OH224462   3.846   5.456   0.269 -0.2207  0.4075 -0.1115
  968TIP3    H124463   3.764   5.455   0.220 -1.1873  1.9838  1.3711
  968TIP3    H224464   3.823   5.490   0.355  1.8861  0.3245  0.5553
  969TIP3   OH224465   0.138   3.019   7.076  0.0993 -0.4431 -0.2613
  969TIP3    H124466   0.048   3.032   7.046  0.2203  3.5556  0.5952
  969TIP3    H224467   0.188   3.089   7.035  1.4490  1.5390  4.1156
  970TIP3   OH224468   4.299   1.016   7.324 -0.3840  0.5048  0.6885
  970TIP3    H124469   4.218   1.011   7.273 -0.0742  1.8186  0.0237
  970TIP3    H224470   4.312   1.110   7.338  2.0801  0.4905 -0.9733
  971TIP3   OH224471   3.328   4.965   8.479  0.2958 -0.4360 -0.5445
  971TIP3    H124472   3.386   4.926   8.544  1.4696  1.5171 -0.3440
  971TIP3    H224473   3.366   4.940   8.395 -0.5846 -2.0210 -0.5122
  972TIP3   OH224474   6.327   3.332   1.051 -0.1317 -0.6678  0.2798
  972TIP3    H124475   6.381   3.253   1.046 -1.7589 -1.7928 -0.7095
  972TIP3    H224476   6.263   3.321   0.980  0.0475  1.9274 -0.3924
  973TIP3   OH224477   0.151   2.987   7.350 -0.4676 -0.2433 -0.0149
  973TIP3    H124478   0.081   2.923   7.360  0.6519 -1.4968  0.2054
  973TIP3    H224479   0.148   3.013   7.258 -1.6329  0.2289  0.1507
  974TIP3   OH224480   1.625   0.480   8.454  0.8186  0.0968 -0.1619
  974TIP3    H124481   1.594   0.454   8.540  1.0953  1.1135  0.2549
  974TIP3    H224482   1.689   0.548   8.471  0.1575  1.0166 -1.2074
  975TIP3   OH224483   3.961   4.307   7.135 -0.4442 -0.0151 -0.0601
  975TIP3    H124484   3.944   4.334   7.225 -2.7611  1.3249 -0.8122
  975TIP3    H224485   3.973   4.388   7.086  0.3809 -0.7007 -1.0568
  976TIP3   OH224486   2.676   3.111   1.797 -0.4680 -0.5614  0.7133
  976TIP3    H124487   2.769   3.113   1.819 -0.7792 -0.7972  2.1401
  976TIP3    H224488   2.637   3.177   1.853 -0.9080  0.9585 -1.2983
  977TIP3   OH224489   0.712   1.029   0.927 -0.2003  0.5493  0.1586
  977TIP3    H124490   0.689   1.105   0.980  0.0268  0.7154  0.0190
  977TIP3    H224491   0.730   0.960   0.991  0.5793  0.8930  0.3120
  978TIP3   OH224492   3.124   6.704   7.640  1.1114 -0.0206  0.5696
  978TIP3    H124493   3.076   6.676   7.562 -0.6037 -1.2402  1.9884
  978TIP3    H224494   3.132   6.799   7.630 -0.4804  0.0533 -0.3411
  979TIP3   OH224495   0.816   1.310   8.670  0.0224 -0.4860 -0.3134
  979TIP3    H124496   0.860   1.233   8.633  0.9013  0.0358 -0.3766
  979TIP3    H224497   0.883   1.378   8.671 -0.1553 -0.2799  1.6108
  980TIP3   OH224498   0.700   1.786   1.338 -0.5703 -0.0127  0.1827
  980TIP3    H124499   0.714   1.731   1.262 -2.4210  0.7117 -0.7428
  980TIP3    H224500   0.759   1.751   1.405  0.2367 -1.3920 -1.2041
  981TIP3   OH224501   2.586   2.609   1.996  0.0891  0.1481 -0.1907
  981TIP3    H124502   2.591   2.520   2.031 -1.6969  0.2056  0.2998
  981TIP3    H224503   2.540   2.600   1.913  0.5108  0.5448 -0.4754
  982TIP3   OH224504   3.409   4.458   0.616 -0.0162  0.2449  0.0727
  982TIP3    H124505   3.435   4.542   0.578  0.0449  0.5004  0.6594
  982TIP3    H224506   3.351   4.419   0.551  1.5246 -0.1723 -1.1053
  983TIP3   OH224507   3.453   1.567   7.429  0.0127 -0.5668 -0.2062
  983TIP3    H124508   3.475   1.527   7.514  0.9183  0.0199 -0.1553
  983TIP3    H224509   3.373   1.523   7.403 -1.5572  0.7692  1.9921
  984TIP3   OH224510   2.983   6.354   6.180  0.4482 -1.3981 -0.3627
  984TIP3    H124511   2.925   6.310   6.118 -1.1507 -0.6272  0.5225
  984TIP3    H224512   3.024   6.424   6.128 -3.6819  1.6862  0.0639
  985TIP3   OH224513   2.602   0.872   0.030  0.1646  0.4534  0.1119
  985TIP3    H124514   2.595   0.888   0.124  0.0617  0.2182  0.1443
  985TIP3    H224515   2.528   0.918  -0.008  0.8182  1.4666  0.0343
  986TIP3   OH224516   5.769   1.540   7.696 -0.2554  0.3395 -0.0740
  986TIP3    H124517   5.859   1.532   7.665  0.7333 -0.1860  2.6676
  986TIP3    H224518   5.726   1.461   7.666 -0.0168  0.8400 -1.8750
  987TIP3   OH224519   5.316   1.293   7.334  0.1753 -0.4345 -0.0128
  987TIP3    H124520   5.274   1.315   7.417 -2.9683 -0.2662 -1.4601
  987TIP3    H224521   5.256   1.228   7.294  0.6360  0.7118 -2.8041
  988TIP3   OH224522   0.440   5.901   8.396 -0.4602  0.1424 -0.1313
  988TIP3    H124523   0.478   5.813   8.389  0.0452  0.3974 -0.6949
  988TIP3    H224524   0.364   5.898   8.337  0.4979  0.5601 -1.4322
  989TIP3   OH224525   6.479   4.032   7.486  0.5675 -0.1959  0.1470
  989TIP3    H124526   6.519   4.024   7.572  2.0382 -0.1576 -0.4967
  989TIP3    H224527   6.506   3.953   7.440 -1.0697 -0.7247  0.0300
  990TIP3   OH224528   5.948   3.931   7.974  0.2686 -0.1717 -0.2756
  990TIP3    H124529   5.934   3.836   7.971  0.6285 -0.2565  0.4902
  990TIP3    H224530   5.929   3.955   8.064 -0.9240  0.6709 -0.7355
  991TIP3   OH224531   3.006   0.378   7.669 -0.3573 -0.3954  0.1470
  991TIP3    H124532   3.041   0.455   7.625 -2.5900  0.1850 -0.7117
  991TIP3    H224533   2.949   0.336   7.604 -0.6493 -1.7367  1.2089
  992TIP3   OH224534   6.541   6.536   6.837  0.4781  0.8878  0.7105
  992TIP3    H124535   6.518   6.458   6.786  1.1042  1.3140 -0.2464
  992TIP3    H224536   6.591   6.590   6.776  1.2609  1.4070  1.7952
  993TIP3   OH224537   1.014   3.239   8.417 -0.5629  0.0437  0.1669
  993TIP3    H124538   0.971   3.208   8.338 -0.3377  1.1836 -0.4139
  993TIP3    H224539   0.970   3.321   8.439  0.2046  0.3806  0.5065
  994TIP3   OH224540   4.214   3.307   1.678  0.4680  0.2669  0.4927
  994TIP3    H124541   4.240   3.357   1.600  0.9079  1.9973  1.7133
  994TIP3    H224542   4.251   3.355   1.751  0.6948 -1.7329  1.7684
  995TIP3   OH224543   3.230   1.196   7.005 -0.1810  0.4575  0.0340
  995TIP3    H124544   3.210   1.128   6.940 -0.8743  1.5795 -0.9777
  995TIP3    H224545   3.147   1.211   7.050  0.1335  0.1658  0.7194
  996TIP3   OH224546   5.490   0.420   0.677 -0.1773 -0.0339 -0.0561
  996TIP3    H124547   5.579   0.436   0.707 -0.3979  0.6421  0.2442
  996TIP3    H224548   5.476   0.485   0.607 -0.4130 -0.1801 -0.1463
  997TIP3   OH224549   3.423   3.175   6.762  0.2301 -0.2521 -0.2241
  997TIP3    H124550   3.428   3.158   6.668 -0.6862 -0.8284 -0.1764
  997TIP3    H224551   3.395   3.092   6.801 -1.3532  0.5041  0.3326
  998TIP3   OH224552   4.722   4.540   1.126  0.0793  0.2329  0.7549
  998TIP3    H124553   4.721   4.446   1.144 -0.3910  0.2626  0.8968
  998TIP3    H224554   4.795   4.552   1.066 -0.8708 -0.4633 -0.6080
  999TIP3   OH224555   5.147   3.451   8.243 -0.5143  0.3390  0.3485
  999TIP3    H124556   5.187   3.365   8.229  0.8900  1.2492 -1.6435
  999TIP3    H224557   5.205   3.493   8.307  1.6389  1.4573 -2.1432
 1000TIP3   OH224558   5.985   2.815   1.605 -0.5859  0.0951 -0.3393
 1000TIP3    H124559   5.944   2.811   1.691 -0.6355 -0.4649 -0.3858
 1000TIP3    H224560   6.053   2.881   1.614  0.3897 -0.9906  0.5602
 1001TIP3   OH224561   0.218   1.205   7.706  0.1133  0.5908 -0.3154
 1001TIP3    H124562   0.251   1.167   7.788  1.4506  0.0010 -1.0985
 1001TIP3    H224563   0.131   1.238   7.729  0.7202  1.0583  1.5142
 1002TIP3   OH224564   1.569   2.117   0.357 -0.5383 -0.1401 -0.3923
 1002TIP3    H124565   1.548   2.111   0.264  0.0480  0.3094 -0.5579
 1002TIP3    H224566   1.623   2.196   0.365 -1.9918  0.7935  0.5977
 1003TIP3   OH224567   5.988   2.338   2.514  0.5239 -0.1824  0.1281
 1003TIP3    H124568   6.073   2.298   2.496 -0.7634 -2.0295 -2.5865
 1003TIP3    H224569   5.946   2.278   2.575  0.5165 -0.2077  0.0981
 1004TIP3   OH224570   5.833   6.540   8.373  0.1403  0.1083  0.4054
 1004TIP3    H124571   5.926   6.551   8.350  0.3456  1.7744  1.8712
 1004TIP3    H224572   5.823   6.586   8.456 -1.8553 -0.7118  0.6704
 1005TIP3   OH224573   0.242   0.903   1.691  0.2604 -0.2069  0.7283
 1005TIP3    H124574   0.314   0.892   1.753  0.8284 -0.5934  0.0156
 1005TIP3    H224575   0.285   0.925   1.608 -0.3692 -1.5616  0.0147
 1006TIP3   OH224576   6.519   4.955   6.647 -0.5666 -0.2006  0.1534
 1006TIP3    H124577   6.439   5.007   6.645  0.0915  0.8518  0.0259
 1006TIP3    H224578   6.509   4.893   6.575 -0.8045  0.6670 -0.5913
 1007TIP3   OH224579   3.368   5.398   7.592 -0.2558  0.3362 -0.1738
 1007TIP3    H124580   3.277   5.424   7.575 -0.3231 -0.2146 -0.7085
 1007TIP3    H224581   3.420   5.471   7.560 -0.4929  0.4282 -0.3569
 1008TIP3   OH224582   6.248   0.020   7.439  0.7644  0.0705  0.0736
 1008TIP3    H124583   6.305  -0.027   7.501  2.1229 -0.1251 -1.2714
 1008TIP3    H224584   6.283   0.109   7.437  0.2655  0.2705  0.1286
 1009TIP3   OH224585   6.819   2.031   6.288  1.1500  0.0417 -0.3106
 1009TIP3    H124586   6.869   2.068   6.361  1.1847 -0.6556  0.0241
 1009TIP3    H224587   6.728   2.035   6.317  1.3186 -2.1576  0.6716
 1010TIP3   OH224588   6.173   1.905   8.297  0.4594  0.3284  0.2509
 1010TIP3    H124589   6.133   1.889   8.212  2.5889  1.3310 -1.0299
 1010TIP3    H224590   6.173   1.820   8.340 -1.2099 -0.0738 -0.4470
 1011TIP3   OH224591   5.816   2.866   7.314 -0.1287  0.2133  0.1646
 1011TIP3    H124592   5.808   2.943   7.258 -0.4442  0.2459  0.2502
 1011TIP3    H224593   5.807   2.792   7.254  0.1988  0.2438  0.0792
 1012TIP3   OH224594   0.534   1.013   7.768 -0.2674  0.3630  0.0085
 1012TIP3    H124595   0.588   1.088   7.795  0.5160 -0.5576  1.0714
 1012TIP3    H224596   0.498   1.040   7.683  1.1490  1.3685 -0.3206
 1013TIP3   OH224597   1.762   4.937   8.115 -0.3208  0.6537 -0.0716
 1013TIP3    H124598   1.857   4.935   8.099  0.0203 -0.4822  1.6997
 1013TIP3    H224599   1.723   4.917   8.030  1.0102  1.5098 -0.9196
 1014TIP3   OH224600   1.765   0.444   2.297 -0.0900 -0.4716  0.0641
 1014TIP3    H124601   1.684   0.492   2.313  0.6996  0.7762  0.4510
 1014TIP3    H224602   1.826   0.477   2.364  1.2568 -0.0989 -1.2892
 1015TIP3   OH224603   4.461   1.992   0.038 -0.2087 -0.2183  0.1024
 1015TIP3    H124604   4.370   1.985   0.065 -0.1847  0.5065  0.3966
 1015TIP3    H224605   4.502   2.046   0.105  0.5198 -0.8296  0.1590
 1016TIP3   OH224606   6.789   4.882   0.171  0.6632 -0.7244  0.1699
 1016TIP3    H124607   6.696   4.888   0.148  0.5179  1.6416  1.0948
 1016TIP3    H224608   6.820   4.973   0.169  2.6873 -1.3499  0.9785
 1017TIP3   OH224609   5.209   0.686   6.850  0.3557  0.2137  0.0639
 1017TIP3    H124610   5.189   0.628   6.776 -0.4559 -0.3831  0.7320
 1017TIP3    H224611   5.175   0.771   6.823 -1.3265 -0.3260  0.3300
 1018TIP3   OH224612   5.766   0.355   8.337  0.3680 -0.1720 -0.2060
 1018TIP3    H124613   5.859   0.373   8.321  0.8596 -0.5428  2.0205
 1018TIP3    H224614   5.763   0.265   8.369 -1.0262 -0.8793 -2.1224
 1019TIP3   OH224615   2.713   4.321   0.114  0.5685  0.5671 -0.7212
 1019TIP3    H124616   2.673   4.390   0.168 -0.2647 -0.5344  0.1116
 1019TIP3    H224617   2.807   4.330   0.129  0.5306  1.9783 -1.1978
 1020TIP3   OH224618   5.265   4.497   0.760  0.0112  0.7343  0.1924
 1020TIP3    H124619   5.170   4.504   0.750  0.2001  0.0236 -2.9047
 1020TIP3    H224620   5.278   4.414   0.806 -0.8455  0.5964  0.2029
 1021TIP3   OH224621   0.722   5.979   0.496  0.3096 -0.5535  0.2067
 1021TIP3    H124622   0.670   6.003   0.573  0.4553  1.4730 -0.2653
 1021TIP3    H224623   0.663   5.925   0.444  0.2106 -1.9703  1.7089
 1022TIP3   OH224624   2.950   3.813   1.413 -0.8189 -0.1885  0.3815
 1022TIP3    H124625   2.914   3.726   1.394 -0.4512  0.2752 -3.0055
 1022TIP3    H224626   3.045   3.802   1.402 -0.7699  0.6171 -0.0290
 1023TIP3   OH224627   3.610   0.587   1.076 -0.0688 -0.6315  0.4414
 1023TIP3    H124628   3.592   0.681   1.081 -1.9822 -0.9241 -0.5295
 1023TIP3    H224629   3.703   0.581   1.099  0.4602  1.6229 -0.7804
 1024TIP3   OH224630   5.904   0.832   8.461 -0.7265  0.1935  0.3141
 1024TIP3    H124631   5.959   0.754   8.453 -0.6853  0.0016  2.1479
 1024TIP3    H224632   5.831   0.816   8.401  0.7738  0.1027 -1.5744
 1025TIP3   OH224633   4.204   0.605   7.965  0.0237  0.1625 -0.1841
 1025TIP3    H124634   4.271   0.538   7.980  2.0531  2.1580  0.3364
 1025TIP3    H224635   4.239   0.657   7.893 -0.8615  1.4041  0.2583
 1026TIP3   OH224636   1.898   6.127   0.437  0.3057  0.4807  0.5833
 1026TIP3    H124637   1.804   6.144   0.441  0.1138 -0.6449  3.9859
 1026TIP3    H224638   1.938   6.202   0.479  0.9019  0.5566 -0.0934
 1027TIP3   OH224639   2.767   2.149   8.390  0.3338 -0.1767 -0.9279
 1027TIP3    H124640   2.677   2.171   8.414  0.2990 -0.3417 -0.9045
 1027TIP3    H224641   2.759   2.105   8.305  0.2595 -1.3283 -0.3532
 1028TIP3   OH224642   4.239   5.462   1.634 -0.8335 -0.3391  0.2199
 1028TIP3    H124643   4.251   5.550   1.670  0.1905 -0.1050 -0.6510
 1028TIP3    H224644   4.159   5.469   1.582  0.0190  0.5130 -1.0492
 1029TIP3   OH224645   2.845   1.684   1.000  0.8366  0.7786  0.1550
 1029TIP3    H124646   2.883   1.673   0.913  0.0194 -0.5786 -0.0646
 1029TIP3    H224647   2.914   1.657   1.060  0.3142 -1.6614 -0.2349
 1030TIP3   OH224648   3.884   6.481   1.832 -0.2494 -0.4608 -0.1828
 1030TIP3    H124649   3.895   6.497   1.926  0.7764  0.3064 -0.4122
 1030TIP3    H224650   3.970   6.499   1.795  0.2606 -3.7265 -0.9107
 1031TIP3   OH224651   3.438   1.706   0.691  0.1571 -0.0611 -0.0763
 1031TIP3    H124652   3.430   1.611   0.697  1.1233 -0.1336  0.3093
 1031TIP3    H224653   3.413   1.726   0.600 -2.9082 -0.3197  0.5975
 1032TIP3   OH224654   0.291   6.459   0.863  0.3402 -0.2136  0.2974
 1032TIP3    H124655   0.344   6.458   0.943  1.8678  0.3046 -0.6804
 1032TIP3    H224656   0.329   6.391   0.808 -0.1873 -0.0160 -0.3251
 1033TIP3   OH224657   0.432   5.253   1.237 -0.1016 -0.2041 -0.5891
 1033TIP3    H124658   0.445   5.158   1.226  0.4844 -0.3186  0.8473
 1033TIP3    H224659   0.366   5.260   1.306 -0.6170  0.4481 -1.1372
 1034TIP3   OH224660   2.984   2.712   0.816  0.3078 -0.1342 -0.2423
 1034TIP3    H124661   2.922   2.734   0.886  1.1833  2.5048 -0.1815
 1034TIP3    H224662   3.032   2.636   0.849 -1.4670 -0.9378  0.5844
 1035TIP3   OH224663   6.013   4.345   6.852  0.0360  0.0306  0.9200
 1035TIP3    H124664   6.075   4.415   6.831  0.1928  0.4920  2.8166
 1035TIP3    H224665   5.994   4.305   6.767 -0.0649  2.3448 -0.2173
 1036TIP3   OH224666   5.294   4.930   0.892  0.4491 -0.0488  0.1041
 1036TIP3    H124667   5.320   4.927   0.984 -0.0452 -2.5185  0.2474
 1036TIP3    H224668   5.334   4.851   0.854 -1.9906 -0.8473 -1.0095
 1037TIP3   OH224669   3.521   2.261   0.305 -0.2026  0.1961 -0.7562
 1037TIP3    H124670   3.570   2.320   0.361  0.7090  0.2980 -1.6417
 1037TIP3    H224671   3.580   2.187   0.290 -1.6593 -1.4942  1.1320
 1038TIP3   OH224672   3.188   1.855   0.534  0.3513  0.0601 -0.3381
 1038TIP3    H124673   3.255   1.807   0.484  0.6674  1.0702 -0.9245
 1038TIP3    H224674   3.107   1.839   0.485 -0.0265 -1.7903  0.7959
 1039TIP3   OH224675   6.276   3.378   6.938  0.4718  0.6084  0.1954
 1039TIP3    H124676   6.227   3.305   6.975  0.2828  0.0452 -1.1243
 1039TIP3    H224677   6.219   3.412   6.869  0.0976  2.6736  1.4289
 1040TIP3   OH224678   6.782   5.768   6.604 -0.0989 -0.2808  0.8202
 1040TIP3    H124679   6.839   5.840   6.630 -0.7785  0.8105 -0.5664
 1040TIP3    H224680   6.708   5.771   6.665 -0.9459  1.3065 -0.2029
 1041TIP3   OH224681   5.599   2.842   8.284 -0.1955 -0.2115  0.0103
 1041TIP3    H124682   5.667   2.775   8.291 -0.6145 -0.5569  0.8109
 1041TIP3    H224683   5.555   2.842   8.368  0.2044  1.5364  0.2725
 1042TIP3   OH224684   0.233   2.651   0.637 -0.2061 -0.4238  0.4027
 1042TIP3    H124685   0.277   2.685   0.715  0.3910 -1.7282  0.6485
 1042TIP3    H224686   0.292   2.672   0.565  0.0249 -0.6759  0.5169
 1043TIP3   OH224687   5.457   6.335   7.163 -0.1420 -0.1048  0.0435
 1043TIP3    H124688   5.380   6.369   7.118  0.7640  0.0400 -1.4711
 1043TIP3    H224689   5.432   6.247   7.191 -0.7974 -0.1240 -0.5978
 1044TIP3   OH224690   4.344   4.817   1.821  0.1852 -0.5661  0.0318
 1044TIP3    H124691   4.298   4.870   1.756  2.0673  0.1466 -0.7929
 1044TIP3    H224692   4.434   4.813   1.789  1.6747  1.3288  3.4519
 1045TIP3   OH224693   6.632   5.452   0.455  0.1797 -0.2394  0.4971
 1045TIP3    H124694   6.554   5.437   0.509  0.3658 -0.1401  0.7966
 1045TIP3    H224695   6.703   5.409   0.502  0.4252  0.2225  0.5609
 1046TIP3   OH224696   0.266   4.513   6.420  0.0055  0.2657  0.2003
 1046TIP3    H124697   0.300   4.576   6.357  0.1859 -0.3710 -0.3548
 1046TIP3    H224698   0.312   4.432   6.399 -1.1351 -0.3708  0.0903
 1047TIP3   OH224699   6.150   4.858   0.833  0.2544 -0.1943 -0.1075
 1047TIP3    H124700   6.083   4.793   0.809 -0.5855 -0.3919  2.4623
 1047TIP3    H224701   6.101   4.938   0.848  1.0792  0.6192 -1.5603
 1048TIP3   OH224702   1.415   3.686   8.680  0.5370 -0.3110 -0.4248
 1048TIP3    H124703   1.382   3.767   8.642 -3.2053 -2.3031 -1.9155
 1048TIP3    H224704   1.430   3.708   8.772  1.1185  2.3682 -1.0507
 1049TIP3   OH224705   4.578   0.513   8.726 -0.0693  0.0637  0.2171
 1049TIP3    H124706   4.664   0.545   8.698 -0.1498  0.8496  0.8616
 1049TIP3    H224707   4.570   0.540   8.817 -0.8841 -0.2576  0.2510
 1050TIP3   OH224708   1.556   3.588   1.603 -0.0720 -0.0732  0.1447
 1050TIP3    H124709   1.533   3.543   1.521  1.7052  0.9407 -0.9851
 1050TIP3    H224710   1.590   3.519   1.660 -0.6420 -0.6864 -0.2543
 1051TIP3   OH224711   4.767   1.218   1.786  0.5747  0.1988  0.4743
 1051TIP3    H124712   4.713   1.219   1.865  2.1940  0.3140  1.6332
 1051TIP3    H224713   4.803   1.306   1.780  1.6857 -0.2389  0.5006
 1052TIP3   OH224714   5.532   6.612   7.095  0.6178 -0.9317  0.0110
 1052TIP3    H124715   5.455   6.609   7.039  0.4771 -1.4932  0.2220
 1052TIP3    H224716   5.523   6.535   7.152 -0.6064  0.9924  2.5920
 1053TIP3   OH224717   4.158   4.244   7.913  0.2535  0.0062  0.3824
 1053TIP3    H124718   4.234   4.207   7.870  0.7664  1.4461 -0.0135
 1053TIP3    H224719   4.187   4.330   7.943 -1.8488  1.6650 -1.9311
 1054TIP3   OH224720   1.160   0.074   2.336 -0.1357 -0.7318 -0.8334
 1054TIP3    H124721   1.078   0.025   2.330  0.0698 -0.9757 -1.8031
 1054TIP3    H224722   1.219   0.031   2.273  1.3528 -1.7212  1.1098
 1055TIP3   OH224723   4.472   2.869   7.965  0.5515  0.0396 -0.4641
 1055TIP3    H124724   4.426   2.910   7.892  0.9463  1.7982  0.2159
 1055TIP3    H224725   4.529   2.938   7.999 -0.5003 -0.3270  2.2770
 1056TIP3   OH224726   2.561   1.367   6.372 -0.3434  0.1642 -0.1095
 1056TIP3    H124727   2.601   1.338   6.454 -0.0386 -0.5022 -0.4834
 1056TIP3    H224728   2.514   1.447   6.395 -0.8326 -0.3775  0.8627
 1057TIP3   OH224729   5.837   6.194   6.030  0.1565 -0.3330 -0.2949
 1057TIP3    H124730   5.766   6.250   6.062  0.6198  0.5257 -0.7157
 1057TIP3    H224731   5.798   6.144   5.958 -0.1599 -0.2371 -0.1920
 1058TIP3   OH224732   5.596   4.345   8.439  0.1577 -0.0976 -0.0802
 1058TIP3    H124733   5.583   4.257   8.476 -0.4432 -0.2075 -0.5389
 1058TIP3    H224734   5.629   4.397   8.511 -0.0068 -0.5695  0.3394
 1059TIP3   OH224735   0.866   0.880   6.883  0.0119 -0.2479  0.3675
 1059TIP3    H124736   0.878   0.957   6.828  0.4943  1.1065  2.2484
 1059TIP3    H224737   0.923   0.813   6.845  0.2137  0.5876 -0.8307
 1060TIP3   OH224738   2.740   6.372   1.068 -0.1923  0.4874 -0.1359
 1060TIP3    H124739   2.710   6.306   1.005  1.1496  0.4321 -0.7331
 1060TIP3    H224740   2.707   6.455   1.034 -0.0895  0.3710 -0.5208
 1061TIP3   OH224741   6.374   4.528   0.773  0.2981 -0.3791  0.0320
 1061TIP3    H124742   6.292   4.521   0.822 -0.3217 -1.5211 -1.1072
 1061TIP3    H224743   6.438   4.482   0.827  0.2298  0.5805  0.9634
 1062TIP3   OH224744   2.052   6.148   1.198  0.3599 -0.5017 -0.4309
 1062TIP3    H124745   2.033   6.058   1.169 -2.2206  0.0901 -0.7776
 1062TIP3    H224746   1.966   6.185   1.220  1.3730  1.8584 -0.1690
 1063TIP3   OH224747   1.919   2.452   0.630 -0.0662  0.1619 -0.3724
 1063TIP3    H124748   1.828   2.428   0.650 -0.0193 -2.1591 -2.3472
 1063TIP3    H224749   1.915   2.486   0.540  0.9374  0.7261 -0.2139
 1064TIP3   OH224750   5.954   1.899   8.140 -0.2592 -0.1743  0.0441
 1064TIP3    H124751   5.995   1.980   8.109  1.8306 -1.0873  0.2960
 1064TIP3    H224752   5.897   1.928   8.212  0.0102  1.1389 -0.2406
 1065TIP3   OH224753   5.083   4.773   6.713 -0.4831  0.2399  0.3955
 1065TIP3    H124754   5.167   4.800   6.749 -0.5923  0.6742  0.3269
 1065TIP3    H224755   5.097   4.768   6.619 -1.0195  2.1241  0.1867
 1066TIP3   OH224756   6.110   6.677   0.066  0.1400  0.0462  0.4056
 1066TIP3    H124757   6.101   6.645   0.155 -0.8060  3.0129  1.4705
 1066TIP3    H224758   6.193   6.726   0.066 -0.4352  1.0416  0.0009
 1067TIP3   OH224759   0.436   4.767   0.395  0.6043 -0.1744  0.1635
 1067TIP3    H124760   0.446   4.760   0.490 -2.3864 -0.3362  0.5811
 1067TIP3    H224761   0.439   4.861   0.377 -0.7840  0.0162  0.7667
 1068TIP3   OH224762   4.574   6.638   7.161  0.0035  0.2164 -0.6273
 1068TIP3    H124763   4.652   6.589   7.134  1.4591  2.2767 -0.4344
 1068TIP3    H224764   4.515   6.572   7.196  1.4211 -1.5038 -1.3152
 1069TIP3   OH224765   1.038   0.448   6.874 -0.0708  1.0947 -0.2967
 1069TIP3    H124766   1.007   0.505   6.804 -0.5940  1.5559  0.2988
 1069TIP3    H224767   0.981   0.371   6.869  0.8465  0.4547 -1.3105
 1070TIP3   OH224768   3.176   1.510   0.609  0.5566  0.7531  0.3925
 1070TIP3    H124769   3.137   1.431   0.645 -0.6535  1.3318  0.3879
 1070TIP3    H224770   3.209   1.484   0.523  0.5678  0.1583  0.5723
 1071TIP3   OH224771   0.460   6.018   7.655 -1.1382  0.0561 -0.0066
 1071TIP3    H124772   0.444   5.946   7.594 -1.5480  0.1021  0.0409
 1071TIP3    H224773   0.447   5.979   7.742  1.4541 -0.5338  0.1780
 1072TIP3   OH224774   3.681   3.273   8.627  0.0947  0.6811  0.2258
 1072TIP3    H124775   3.722   3.268   8.713  2.2015 -2.1237 -0.7831
 1072TIP3    H224776   3.590   3.250   8.642  0.6040 -0.5210  1.6192
 1073TIP3   OH224777   6.149   2.843   0.392  0.1428  0.2736 -0.6979
 1073TIP3    H124778   6.156   2.794   0.310  2.2916  0.3359 -0.6107
 1073TIP3    H224779   6.201   2.922   0.377 -0.6056  0.9815  0.2642
 1074TIP3   OH224780   1.119   4.696   6.947  0.5803  0.1029  0.0429
 1074TIP3    H124781   1.124   4.790   6.964 -1.0341  0.7349 -2.4807
 1074TIP3    H224782   1.051   4.664   7.006  0.8478  0.5878  0.6168
 1075TIP3   OH224783   0.989   4.743   8.420  0.0200 -0.4065  0.2498
 1075TIP3    H124784   1.053   4.782   8.480  0.5314  1.1332 -1.2135
 1075TIP3    H224785   0.966   4.814   8.360 -1.4739 -1.5195 -0.5710
 1076TIP3   OH224786   4.222   3.532   6.536 -0.1362 -0.0578 -0.0930
 1076TIP3    H124787   4.236   3.441   6.563  3.1281 -0.1302 -1.5329
 1076TIP3    H224788   4.159   3.526   6.464 -0.9709 -0.9805  0.6794
 1077TIP3   OH224789   3.878   1.196   7.127  0.4129  0.1404  0.3627
 1077TIP3    H124790   3.790   1.224   7.104 -0.0342 -0.7590  0.9126
 1077TIP3    H224791   3.934   1.233   7.059 -0.5469 -0.3730 -0.7375
 1078TIP3   OH224792   5.456   3.828   8.431  0.1363  0.0015 -0.1251
 1078TIP3    H124793   5.417   3.786   8.509 -0.9479  0.1810 -0.5482
 1078TIP3    H224794   5.381   3.843   8.373  0.8513  0.4302 -0.9481
 1079TIP3   OH224795   3.640   3.752   0.214  0.1148 -0.5202 -0.2019
 1079TIP3    H124796   3.578   3.733   0.284  0.5520  0.5889  0.5125
 1079TIP3    H224797   3.706   3.808   0.255  0.8037 -0.4839 -1.3123
 1080TIP3   OH224798   1.450   3.690   7.850  0.5325 -0.2186  0.0484
 1080TIP3    H124799   1.523   3.736   7.890 -2.2521  1.0837  4.3191
 1080TIP3    H224800   1.393   3.759   7.816 -1.5095 -0.5675  2.4275
 1081TIP3   OH224801   5.862   1.205   7.973  0.3427 -0.3546  0.1387
 1081TIP3    H124802   5.867   1.220   8.068 -0.0897 -0.5689  0.1965
 1081TIP3    H224803   5.769   1.189   7.956  0.1337  1.4554 -0.6011
 1082TIP3   OH224804   1.414   3.005   8.115  0.1174  0.0498  0.1037
 1082TIP3    H124805   1.493   2.957   8.139 -0.8704 -1.1321  1.1578
 1082TIP3    H224806   1.366   3.016   8.197 -0.7873  0.8044 -0.4991
 1083TIP3   OH224807   4.216   4.747   7.222  0.0560 -0.3407  0.4697
 1083TIP3    H124808   4.176   4.772   7.306  1.5367 -1.1921  1.4768
 1083TIP3    H224809   4.298   4.796   7.219 -0.3419  0.3103 -0.9115
 1084TIP3   OH224810   0.306   3.967   0.373  0.1325 -0.2750 -0.5208
 1084TIP3    H124811   0.258   4.050   0.373 -0.4788 -0.6217 -0.5490
 1084TIP3    H224812   0.259   3.912   0.310 -0.3171 -1.1195  0.5160
 1085TIP3   OH224813   5.802   3.862   7.126 -0.1734  0.5797 -0.8202
 1085TIP3    H124814   5.833   3.914   7.052  0.5757  0.0231 -0.9184
 1085TIP3    H224815   5.830   3.772   7.105  1.2680  0.6113  0.7466
 1086TIP3   OH224816   5.955   4.399   7.115  0.5955  0.3870 -0.4623
 1086TIP3    H124817   5.947   4.409   7.020  0.2244  2.3819 -0.2698
 1086TIP3    H224818   6.029   4.455   7.138  1.3546 -0.9115  0.3241
 1087TIP3   OH224819   0.535   1.935   7.040  0.3971  0.0111  0.1017
 1087TIP3    H124820   0.473   2.007   7.028 -1.2853 -1.6613 -2.4132
 1087TIP3    H224821   0.508   1.894   7.122 -0.1456  0.8702  0.3620
 1088TIP3   OH224822   4.012   6.445   7.941 -0.5624 -0.4491  0.3691
 1088TIP3    H124823   4.105   6.455   7.920 -0.9783  0.4448 -1.1458
 1088TIP3    H224824   3.999   6.500   8.019  0.7886 -3.0400  2.5946
 1089TIP3   OH224825   2.455   5.253   7.860  0.4726 -0.8060  0.2995
 1089TIP3    H124826   2.515   5.261   7.786  0.9215  0.6067  0.8030
 1089TIP3    H224827   2.419   5.341   7.872  0.8393 -0.8677  2.1135
 1090TIP3   OH224828   1.817   5.313   0.948 -0.7509 -0.4814 -0.0781
 1090TIP3    H124829   1.753   5.276   0.887  1.0730 -1.2845 -1.5990
 1090TIP3    H224830   1.895   5.329   0.894  0.4470  0.1883  1.7598
 1091TIP3   OH224831   4.067   1.628   8.036  0.1586  0.2765 -0.2345
 1091TIP3    H124832   4.149   1.618   8.085  1.6356  0.4097 -2.5134
 1091TIP3    H224833   4.052   1.543   7.995 -0.9339  0.2187  0.2558
 1092TIP3   OH224834   3.519   2.560   1.073 -0.1875  0.7851  0.4574
 1092TIP3    H124835   3.472   2.603   1.144  1.3622  1.1021  1.3429
 1092TIP3    H224836   3.610   2.556   1.103  0.0102 -1.8274 -0.1955
 1093TIP3   OH224837   4.948   6.226   8.664  0.0421 -0.8068  0.1682
 1093TIP3    H124838   4.921   6.254   8.577 -0.0853 -2.0862 -0.2213
 1093TIP3    H224839   5.002   6.298   8.697 -3.4583  1.7729  0.8550
 1094TIP3   OH224840   0.772   6.563   7.831  0.0558  0.1284 -0.0220
 1094TIP3    H124841   0.779   6.510   7.752  1.3291  1.3981 -0.8107
 1094TIP3    H224842   0.687   6.540   7.869  0.6396 -2.5879 -0.2000
 1095TIP3   OH224843   5.405   4.526   6.790 -0.1644 -0.5101  0.1381
 1095TIP3    H124844   5.497   4.535   6.816 -0.5543  2.7349  0.8571
 1095TIP3    H224845   5.400   4.572   6.706 -1.4122  1.2075  1.0814
 1096TIP3   OH224846   4.045   1.260   7.406 -0.1061  0.0555  0.6113
 1096TIP3    H124847   4.135   1.282   7.381 -0.2703  1.6191  1.2639
 1096TIP3    H224848   4.023   1.324   7.473 -1.7716 -0.2022  0.3520
 1097TIP3   OH224849   4.831   6.291   0.609  0.2750  0.1622  0.1669
 1097TIP3    H124850   4.918   6.325   0.587  0.2645 -0.7662 -1.3985
 1097TIP3    H224851   4.771   6.351   0.565  0.1854 -0.3772 -0.4487
 1098TIP3   OH224852   3.500   6.004   1.218  0.1607  0.9793  0.0546
 1098TIP3    H124853   3.470   6.044   1.137  0.7576  0.7779 -0.2711
 1098TIP3    H224854   3.552   5.929   1.190 -0.2860  0.4339  0.6395
 1099TIP3   OH224855   4.894   1.549   7.471  0.1642  0.4257 -0.3585
 1099TIP3    H124856   4.977   1.515   7.505  0.2905  0.0672 -1.0038
 1099TIP3    H224857   4.904   1.644   7.475 -0.0165  0.4017  1.0386
 1100TIP3   OH224858   5.387   2.139   7.622 -0.0270 -0.7264  0.4809
 1100TIP3    H124859   5.439   2.178   7.552  0.4472 -2.5223 -0.2335
 1100TIP3    H224860   5.437   2.062   7.650 -1.5800 -1.6773  0.7943
 1101TIP3   OH224861   1.061   5.442   7.396  0.0497 -0.5537 -0.2500
 1101TIP3    H124862   1.062   5.466   7.304 -0.5420  0.7669  0.0553
 1101TIP3    H224863   1.082   5.349   7.398  0.9145 -0.3998 -1.6427
 1102TIP3   OH224864   4.552   6.721   0.815  0.9244  0.0996  0.6413
 1102TIP3    H124865   4.564   6.690   0.725  0.0891  0.9476  0.2106
 1102TIP3    H224866   4.639   6.717   0.854  1.7075  1.4876 -0.7984
 1103TIP3   OH224867   2.736   3.440   7.451 -0.5453 -0.2582 -0.3650
 1103TIP3    H124868   2.702   3.493   7.523 -3.1290 -1.0073 -0.9151
 1103TIP3    H224869   2.799   3.381   7.493 -0.6866  0.4905  0.9629
 1104TIP3   OH224870   2.071   3.371   6.869 -0.0659 -0.2744 -0.0933
 1104TIP3    H124871   2.153   3.413   6.894  1.3624 -2.5492 -0.7165
 1104TIP3    H224872   2.048   3.411   6.785  1.4957 -0.9702 -0.8910
 1105TIP3   OH224873   1.760   6.298   7.575  0.4739 -0.1554  0.5498
 1105TIP3    H124874   1.687   6.280   7.517  0.1311  0.8365  0.6462
 1105TIP3    H224875   1.721   6.302   7.663  0.8085 -0.5992  0.7233
 1106TIP3   OH224876   6.480   1.395   1.428 -0.3923  0.0560 -0.0727
 1106TIP3    H124877   6.551   1.336   1.401 -0.1863  0.2895 -0.0475
 1106TIP3    H224878   6.412   1.336   1.461 -0.1523 -0.1642  0.0396
 1107TIP3   OH224879   1.530   3.047   7.042  0.1032 -0.1299 -0.5919
 1107TIP3    H124880   1.532   3.139   7.014 -0.8728 -0.7894 -3.1165
 1107TIP3    H224881   1.446   3.037   7.086  0.1847  0.1452 -0.3668
 1108TIP3   OH224882   2.659   5.046   8.265 -0.2018  0.7957 -0.0465
 1108TIP3    H124883   2.657   4.995   8.346  1.1696  3.0339  1.5345
 1108TIP3    H224884   2.751   5.065   8.250 -0.5100  1.2817 -1.5942
 1109TIP3   OH224885   0.504   2.228   8.733 -0.3778  0.5206 -0.1224
 1109TIP3    H124886   0.484   2.137   8.755 -0.7823  0.6517  0.0497
 1109TIP3    H224887   0.589   2.244   8.773  1.9172 -1.1449 -3.7929
 1110TIP3   OH224888   6.829   3.325   8.270  0.2847 -0.0597 -0.3242
 1110TIP3    H124889   6.804   3.343   8.361 -0.6230  2.1018 -0.9304
 1110TIP3    H224890   6.767   3.259   8.241  0.4731 -0.6449  0.5555
 1111TIP3   OH224891   1.345   1.781   1.743 -0.0035  0.7262  0.1005
 1111TIP3    H124892   1.263   1.770   1.792 -0.6920  2.3382 -0.6144
 1111TIP3    H224893   1.377   1.866   1.770  1.5910  0.0205  0.5215
 1112TIP3   OH224894   1.373   1.321   6.299  0.0045  0.1132 -0.0790
 1112TIP3    H124895   1.377   1.257   6.371  1.0889  1.4320  1.0800
 1112TIP3    H224896   1.461   1.321   6.262  0.5245  2.0557  1.0027
 1113TIP3   OH224897   1.289   0.050   7.559  0.4704  1.1959  0.3538
 1113TIP3    H124898   1.198   0.060   7.529  0.4870  1.8633  0.5173
 1113TIP3    H224899   1.301  -0.045   7.565 -0.2407  1.0970  0.3973
 1114TIP3   OH224900   3.894   1.084   0.840 -0.3967  0.0041  0.2558
 1114TIP3    H124901   3.937   1.011   0.886  0.8029 -0.2448 -1.2040
 1114TIP3    H224902   3.862   1.045   0.759  1.2219  1.2705 -1.0637
 1115TIP3   OH224903   6.129   0.141   8.575 -0.4340  0.0859  0.0647
 1115TIP3    H124904   6.095   0.052   8.575  0.7964 -0.4079  0.3852
 1115TIP3    H224905   6.127   0.168   8.666 -1.5343  0.6852 -0.1318
 1116TIP3   OH224906   4.410   3.784   6.774 -0.0268 -0.7349  0.2046
 1116TIP3    H124907   4.454   3.855   6.727 -0.0024 -0.1640  1.0671
 1116TIP3    H224908   4.440   3.793   6.864  1.2141 -2.8185  0.0661
 1117TIP3   OH224909   0.168   2.609   6.430 -0.1152 -0.9846 -0.0878
 1117TIP3    H124910   0.176   2.649   6.343  1.8818  0.4389  0.6750
 1117TIP3    H224911   0.082   2.567   6.429 -0.3414 -0.6236 -2.5849
 1118TIP3   OH224912   0.224   3.238   1.186  0.5464  0.0289  0.3919
 1118TIP3    H124913   0.130   3.251   1.195  0.0450 -2.7364 -0.0481
 1118TIP3    H224914   0.236   3.143   1.191  2.9376 -0.0072 -2.8220
 1119TIP3   OH224915   2.276   4.618   7.739 -0.1363 -0.1870 -0.0567
 1119TIP3    H124916   2.215   4.660   7.800 -0.9653 -1.2511 -0.1243
 1119TIP3    H224917   2.338   4.571   7.795 -1.0303 -1.3487  0.0015
 1120TIP3   OH224918   4.911   2.413   2.071 -0.1739 -0.0690  0.0508
 1120TIP3    H124919   4.896   2.318   2.068  1.4832 -0.3991  0.8146
 1120TIP3    H224920   4.931   2.436   1.980 -1.5402 -0.2467 -0.3192
 1121TIP3   OH224921   6.355   3.611   0.338  0.0853  0.0412  0.2120
 1121TIP3    H124922   6.418   3.683   0.338  0.0733  0.0627  0.9536
 1121TIP3    H224923   6.395   3.544   0.394  0.1246 -0.5636 -0.5146
 1122TIP3   OH224924   0.384   2.519   0.253  0.2484 -0.0002 -0.1705
 1122TIP3    H124925   0.350   2.601   0.288 -0.1112 -0.1889 -0.0717
 1122TIP3    H224926   0.309   2.460   0.251  0.9005 -1.0089  1.8025
 1123TIP3   OH224927   5.871   1.640   1.904 -0.0022  0.4880 -0.0632
 1123TIP3    H124928   5.915   1.638   1.989 -1.6076  1.2901  0.8582
 1123TIP3    H224929   5.786   1.680   1.923 -0.7295 -0.0711 -1.9168
 1124TIP3   OH224930   3.687   2.702   7.911 -0.0975  0.4795  0.4637
 1124TIP3    H124931   3.777   2.687   7.884  0.2025  1.3838  0.9184
 1124TIP3    H224932   3.652   2.615   7.930  0.7323  0.1410  0.4486
 1125TIP3   OH224933   1.529   6.168   6.794  0.0814  0.1072  0.0383
 1125TIP3    H124934   1.541   6.238   6.857 -0.9138  0.6760 -0.3983
 1125TIP3    H224935   1.516   6.212   6.710  1.4504 -0.6337 -0.6141
 1126TIP3   OH224936   5.633   4.675   6.901 -0.1995 -0.6468 -0.7469
 1126TIP3    H124937   5.728   4.682   6.893 -0.0982 -0.1169  0.6502
 1126TIP3    H224938   5.614   4.708   6.989 -1.7232 -0.3282 -1.1702
 1127TIP3   OH224939   0.763   4.838   1.847  0.3495  0.6308  0.4128
 1127TIP3    H124940   0.683   4.873   1.808 -1.0063 -2.8480 -0.2441
 1127TIP3    H224941   0.749   4.846   1.942 -1.3872 -0.9838  0.3515
 1128TIP3   OH224942   2.996   6.149   7.599  0.6495  0.2250  0.7473
 1128TIP3    H124943   3.042   6.134   7.681  2.2824  2.0398  0.2491
 1128TIP3    H224944   3.027   6.235   7.570 -0.2269 -0.1558 -1.5215
 1129TIP3   OH224945   1.000   3.093   7.041 -0.0457  0.0524 -0.3717
 1129TIP3    H124946   0.983   3.074   7.133 -1.5545 -0.2289 -0.6728
 1129TIP3    H224947   0.912   3.106   7.003  0.5105 -0.4159 -1.8859
 1130TIP3   OH224948   3.689   3.450   6.354  0.1372 -0.4796  0.1913
 1130TIP3    H124949   3.601   3.426   6.325 -0.0373 -0.3932  0.6412
 1130TIP3    H224950   3.701   3.400   6.435 -0.2047  0.8701  1.1066
 1131TIP3   OH224951   4.670   3.785   1.159 -0.7226 -0.4416 -0.3073
 1131TIP3    H124952   4.575   3.794   1.148 -0.8577 -2.5214 -1.4604
 1131TIP3    H224953   4.685   3.801   1.252 -1.6370  3.5322 -0.6719
 1132TIP3   OH224954   4.014   3.697   7.852 -0.1816 -0.5167 -0.3478
 1132TIP3    H124955   4.005   3.791   7.869 -2.4506 -0.2341 -2.4630
 1132TIP3    H224956   4.078   3.692   7.781  1.4317 -0.8056  1.0626
 1133TIP3   OH224957   2.074   1.113   1.386  0.2803  0.2110 -0.0807
 1133TIP3    H124958   2.062   1.058   1.464 -0.0611 -0.4479 -0.5932
 1133TIP3    H224959   2.004   1.178   1.392 -2.6675 -2.5296 -2.1206
 1134TIP3   OH224960   1.929   0.519   0.968  0.1058  0.2724 -0.1483
 1134TIP3    H124961   1.945   0.565   1.050 -0.6697  1.6156 -0.7134
 1134TIP3    H224962   1.838   0.490   0.975  0.4745 -0.8669  0.0437
 1135TIP3   OH224963   4.085   6.161   7.933 -0.1871 -0.4589  0.6125
 1135TIP3    H124964   4.043   6.247   7.946 -0.4144 -0.4276 -0.2890
 1135TIP3    H224965   4.015   6.098   7.949 -0.4861 -0.4183 -0.4897
 1136TIP3   OH224966   0.019   1.036   0.854  0.5619 -0.2360  0.3781
 1136TIP3    H124967   0.014   0.940   0.859 -0.3453 -0.2738 -0.8130
 1136TIP3    H224968  -0.070   1.066   0.871  1.0222  0.4880  1.7208
 1137TIP3   OH224969   6.546   1.146   8.335 -0.2925  0.1961 -0.0648
 1137TIP3    H124970   6.507   1.058   8.336 -3.0036  1.2771  2.1932
 1137TIP3    H224971   6.497   1.193   8.268 -0.6159  0.6759  0.5031
 1138TIP3   OH224972   0.536   4.980   6.901  0.0020 -0.2158 -0.3344
 1138TIP3    H124973   0.484   5.060   6.911 -0.6657 -0.5861 -0.7686
 1138TIP3    H224974   0.475   4.909   6.917  0.8117 -0.6518  1.0157
 1139TIP3   OH224975   3.465   5.894   0.860  0.6754 -0.0250 -0.2147
 1139TIP3    H124976   3.475   5.849   0.776  1.5186 -0.6106  0.1827
 1139TIP3    H224977   3.509   5.837   0.923  0.3667  0.5827  0.5693
 1140TIP3   OH224978   1.512   1.438   8.338  0.2714  0.2280  0.2873
 1140TIP3    H124979   1.510   1.530   8.365  2.3485 -0.1440  2.0189
 1140TIP3    H224980   1.440   1.397   8.386 -0.3677  0.8411 -0.1279
 1141TIP3   OH224981   6.617   5.868   8.618  0.3452  0.4454 -0.5482
 1141TIP3    H124982   6.629   5.857   8.524  2.7698  1.1098 -0.3870
 1141TIP3    H224983   6.574   5.953   8.627  1.4816  1.0978 -1.0431
 1142TIP3   OH224984   5.727   4.011   1.118 -0.0822 -0.2310  0.1820
 1142TIP3    H124985   5.788   4.037   1.049  1.7065  1.1881  2.1788
 1142TIP3    H224986   5.661   3.959   1.073  0.2176  1.7566 -2.8304
 1143TIP3   OH224987   3.770   5.339   7.893  0.4430  0.0236  0.2975
 1143TIP3    H124988   3.740   5.249   7.893  0.2329  0.0936 -0.3992
 1143TIP3    H224989   3.807   5.351   7.981 -1.2977 -0.1331  1.0924
 1144TIP3   OH224990   5.730   1.294   1.644 -0.4599 -0.3206 -0.0112
 1144TIP3    H124991   5.712   1.290   1.550  0.2856  1.8029 -0.3029
 1144TIP3    H224992   5.652   1.335   1.681 -0.6131 -0.8481  0.2536
 1145TIP3   OH224993   5.989   0.559   8.380  0.1549  0.2503  0.7966
 1145TIP3    H124994   6.001   0.499   8.454 -0.9766  1.2800  1.8535
 1145TIP3    H224995   6.078   0.573   8.346  0.6507 -0.5205  1.7236
 1146TIP3   OH224996   5.168   4.860   7.095  0.1529  0.8769 -0.3153
 1146TIP3    H124997   5.225   4.798   7.140 -0.8986 -1.0244 -1.4725
 1146TIP3    H224998   5.194   4.853   7.003 -1.6931  0.1833 -0.8260
 1147TIP3   OH224999   1.942   4.519   1.090 -0.3756  0.1234 -0.4597
 1147TIP3    H125000   1.998   4.556   1.158 -1.2278 -1.1544  1.0135
 1147TIP3    H225001   1.941   4.585   1.021  0.6117  1.4316  0.7091
 1148TIP3   OH225002   6.734   1.821   6.630  0.3207  0.4930 -0.0440
 1148TIP3    H125003   6.719   1.727   6.617  0.3641  0.3145  1.1576
 1148TIP3    H225004   6.656   1.850   6.678  0.4540  1.0138 -0.1471
 1149TIP3   OH225005   3.057   4.147   7.922  0.1695 -0.1457  0.0966
 1149TIP3    H125006   3.002   4.199   7.864  1.7719  0.9098 -0.5708
 1149TIP3    H225007   3.092   4.077   7.866  0.6390  0.0617  0.1250
 1150TIP3   OH225008   2.375   0.767   8.025  0.0441 -0.1360 -0.0104
 1150TIP3    H125009   2.393   0.693   8.082 -1.4059  0.4167  1.2219
 1150TIP3    H225010   2.289   0.749   7.987  0.8204 -0.3194 -1.8119
 1151TIP3   OH225011   4.910   6.034   7.151 -0.3073  0.1044 -0.0706
 1151TIP3    H125012   4.999   6.051   7.181  0.7993 -4.7263  0.2125
 1151TIP3    H225013   4.867   5.994   7.227 -1.9031  0.0651 -0.9611
 1152TIP3   OH225014   0.499   2.616   0.848 -0.5633  0.1554 -0.0566
 1152TIP3    H125015   0.578   2.635   0.797  0.2054  1.2755  1.4521
 1152TIP3    H225016   0.519   2.536   0.896 -1.5702 -1.3333 -1.9693
 1153TIP3   OH225017   1.636   6.042   0.153  0.5827  0.1015  1.1426
 1153TIP3    H125018   1.617   6.074   0.241 -3.7757  0.4360  0.3285
 1153TIP3    H225019   1.650   6.121   0.101  0.2681  0.1101  1.0631
 1154TIP3   OH225020   0.495   4.925   0.008 -0.0373  0.0789  0.4270
 1154TIP3    H125021   0.469   4.962  -0.077  0.6292  1.1966  0.6832
 1154TIP3    H225022   0.572   4.977   0.033 -0.2709 -0.1956  1.7485
 1155TIP3   OH225023   2.590   4.118   0.274 -0.4416  0.0113 -0.3763
 1155TIP3    H125024   2.564   4.037   0.231  0.0293  0.3726 -1.3619
 1155TIP3    H225025   2.615   4.176   0.203  0.2782  0.6543  0.3847
 1156TIP3   OH225026   6.726   2.018   1.212 -0.6034 -0.0606  0.7245
 1156TIP3    H125027   6.755   2.099   1.170 -0.9927  0.0392  0.6383
 1156TIP3    H225028   6.780   1.950   1.172 -1.7296 -0.1232 -0.8301
 1157TIP3   OH225029   0.616   0.110   7.438  0.0155 -0.4673  0.5611
 1157TIP3    H125030   0.563   0.181   7.475  2.0408  1.7284 -0.5037
 1157TIP3    H225031   0.619   0.044   7.507 -1.8098  0.5084  1.6542
 1158TIP3   OH225032   5.388   4.099   1.042 -0.3583  0.0495  0.0581
 1158TIP3    H125033   5.388   4.088   1.137 -2.1987 -2.5020 -0.1227
 1158TIP3    H225034   5.428   4.018   1.009  3.3662  2.2408 -1.3947
 1159TIP3   OH225035   2.392   2.480   8.678  0.0169  0.3246  0.3156
 1159TIP3    H125036   2.339   2.463   8.600 -0.4870  0.2052  0.6855
 1159TIP3    H225037   2.458   2.543   8.648  0.9255 -1.0399 -0.6585
 1160TIP3   OH225038   5.926   6.217   7.244 -0.1874  0.4160  0.0906
 1160TIP3    H125039   5.871   6.173   7.309  0.6558 -0.6128  0.1434
 1160TIP3    H225040   5.921   6.310   7.266 -0.5169  0.1554  1.1580
 1161TIP3   OH225041   4.787   3.628   0.061  0.0421  0.2910  0.3615
 1161TIP3    H125042   4.731   3.551   0.070 -0.3324  0.4531 -0.4571
 1161TIP3    H225043   4.755   3.689   0.128 -0.3381  0.1313  0.3280
 1162TIP3   OH225044   6.559   0.967   7.297 -0.3409  0.4099  0.8075
 1162TIP3    H125045   6.528   0.877   7.284 -1.6742  0.8750  0.6241
 1162TIP3    H225046   6.483   1.013   7.334  0.2994  1.4772  0.8199
 1163TIP3   OH225047   2.889   2.908   1.310 -0.3291 -0.0420  0.3331
 1163TIP3    H125048   2.955   2.919   1.242  1.0272  0.6108  1.6955
 1163TIP3    H225049   2.937   2.878   1.387 -1.8726 -1.1492  0.9392
 1164TIP3   OH225050   1.910   1.655   0.900  0.5589  0.8179  0.0429
 1164TIP3    H125051   1.910   1.719   0.829  1.9930 -0.0176 -0.7450
 1164TIP3    H225052   1.979   1.685   0.959  1.8312 -0.4013 -0.7561
 1165TIP3   OH225053   5.852   2.672   2.237 -0.4142  0.3252  0.2213
 1165TIP3    H125054   5.899   2.607   2.186 -2.4910  0.0368 -1.4801
 1165TIP3    H225055   5.850   2.750   2.181 -1.4101  0.5173  0.5069
 1166TIP3   OH225056   6.416   0.664   8.680  0.3254  0.3780  0.0481
 1166TIP3    H125057   6.458   0.582   8.705  0.9577  0.2772 -1.2626
 1166TIP3    H225058   6.420   0.719   8.759  0.9831 -0.4054  0.5700
 1167TIP3   OH225059   4.718   3.244   8.271 -0.3495 -0.1288 -0.1493
 1167TIP3    H125060   4.719   3.246   8.176 -0.0690 -0.2990 -0.1514
 1167TIP3    H225061   4.809   3.230   8.296 -0.6185 -1.7136  0.1008
 1168TIP3   OH225062   4.712   2.403   1.163 -0.3330  0.3064 -0.0862
 1168TIP3    H125063   4.763   2.324   1.184  0.5508  1.0432  0.5924
 1168TIP3    H225064   4.721   2.459   1.240  1.6259  2.3794 -1.6611
 1169TIP3   OH225065   3.670   2.083   1.296  0.4670  0.1308  0.3299
 1169TIP3    H125066   3.760   2.051   1.295 -0.3817 -2.7200 -2.6877
 1169TIP3    H225067   3.662   2.137   1.218 -0.9833 -1.7890 -0.9458
 1170TIP3   OH225068   5.328   1.908   6.324  0.3567 -0.8247 -0.0665
 1170TIP3    H125069   5.273   1.977   6.359  1.8703  0.4679 -0.1212
 1170TIP3    H225070   5.268   1.835   6.308 -0.8953 -0.3572  2.1662
 1171TIP3   OH225071   2.792   1.042   8.700 -0.1322 -0.2668 -0.3362
 1171TIP3    H125072   2.764   0.959   8.738 -1.2032  1.0938  2.1142
 1171TIP3    H225073   2.861   1.019   8.638 -0.3955 -2.9608  0.2690
 1172TIP3   OH225074   1.748   4.592   1.922 -0.2113  0.2651 -0.6727
 1172TIP3    H125075   1.711   4.504   1.909 -0.5510 -0.1602  2.3038
 1172TIP3    H225076   1.671   4.648   1.937  0.0809  0.5545 -0.2212
 1173TIP3   OH225077   6.503   2.223   1.710 -0.2952 -0.9711  0.3219
 1173TIP3    H125078   6.518   2.271   1.629  1.1067 -2.2352 -0.2012
 1173TIP3    H225079   6.565   2.262   1.772 -1.6789  0.3039  0.9650
 1174TIP3   OH225080   3.332   5.240   6.098 -0.4146  0.3158  0.0916
 1174TIP3    H125081   3.260   5.276   6.151 -1.5585  2.2990 -2.5708
 1174TIP3    H225082   3.385   5.317   6.077  0.2750 -0.4912 -1.1906
 1175TIP3   OH225083   3.074   0.660   7.274  0.1861 -0.1689 -0.8648
 1175TIP3    H125084   3.093   0.753   7.282  2.9667 -0.6467 -1.0281
 1175TIP3    H225085   3.124   0.632   7.197 -0.9435 -1.7445 -1.0717
 1176TIP3   OH225086   6.058   5.049   6.985 -0.0587 -0.2169 -0.2355
 1176TIP3    H125087   5.972   5.048   7.027  0.0428 -0.0210 -0.0212
 1176TIP3    H225088   6.039   5.052   6.892 -0.3050 -1.9385 -0.2840
 1177TIP3   OH225089   2.487   3.877   1.163  0.0083  0.5703 -0.2610
 1177TIP3    H125090   2.429   3.813   1.121 -0.6626 -0.7155  2.3825
 1177TIP3    H225091   2.428   3.939   1.205  0.6451  1.5997 -0.8507
 1178TIP3   OH225092   5.599   2.354   1.078 -0.6411  0.0751 -0.0801
 1178TIP3    H125093   5.685   2.373   1.041 -0.0672 -0.4239  0.9678
 1178TIP3    H225094   5.546   2.432   1.057  0.5621  1.1551  0.7587
 1179TIP3   OH225095   1.537   4.202   7.249  0.1913  0.1305 -0.4699
 1179TIP3    H125096   1.574   4.213   7.161  1.3139 -0.7833 -0.1312
 1179TIP3    H225097   1.451   4.162   7.234 -0.9547  2.6817 -1.2928
 1180TIP3   OH225098   5.639   0.067   0.518  0.3066 -0.5507  0.2314
 1180TIP3    H125099   5.619  -0.002   0.455 -0.7327 -0.5749  0.5691
 1180TIP3    H225100   5.681   0.022   0.591 -0.4700 -0.8617  0.4987
 1181TIP3   OH225101   0.249   2.205   1.888  0.5999 -0.2171 -0.4915
 1181TIP3    H125102   0.195   2.238   1.961  1.7123 -0.9922  0.7274
 1181TIP3    H225103   0.196   2.136   1.849  0.4732 -0.6458  0.3944
 1182TIP3   OH225104   0.899   1.720   2.136 -0.2386 -0.5915  1.0827
 1182TIP3    H125105   0.918   1.813   2.122 -1.3847 -0.7542 -2.3440
 1182TIP3    H225106   0.945   1.699   2.218 -0.1103  2.9827  2.1199
 1183TIP3   OH225107   4.252   0.229   0.059  0.4721 -0.5326 -0.6644
 1183TIP3    H125108   4.171   0.280   0.060  0.7830 -0.0222 -1.0806
 1183TIP3    H225109   4.252   0.186  -0.027  1.6821  1.1816 -1.5653
 1184TIP3   OH225110   3.210   0.030   7.083 -0.0608 -0.0037  0.4305
 1184TIP3    H125111   3.218  -0.033   7.011 -0.1221  0.4209  0.0464
 1184TIP3    H225112   3.176   0.110   7.042  1.4802  0.7984  0.6195
 1185TIP3   OH225113   2.467   2.267   7.521 -0.0405 -0.2013 -0.5786
 1185TIP3    H125114   2.526   2.195   7.543 -2.0954 -1.4304  1.4912
 1185TIP3    H225115   2.426   2.240   7.439 -0.6917 -1.3956  0.1104
 1186TIP3   OH225116   1.847   2.307   6.711  0.6350  0.7838 -0.3114
 1186TIP3    H125117   1.798   2.375   6.757  1.5385 -0.0445  2.0279
 1186TIP3    H225118   1.821   2.226   6.754  2.7244  0.1544 -0.1200
 1187TIP3   OH225119   5.840   3.113   0.785  0.1552 -0.5055  0.0441
 1187TIP3    H125120   5.928   3.109   0.822  0.5508  0.4642 -0.7202
 1187TIP3    H225121   5.808   3.023   0.786  1.4242 -0.9717 -0.2704
 1188TIP3   OH225122   0.647   0.561   1.544  0.0175  0.7095 -0.2198
 1188TIP3    H125123   0.651   0.548   1.638 -0.9034  0.6748 -0.1786
 1188TIP3    H225124   0.589   0.636   1.531  0.7900  1.2312 -0.7249
 1189TIP3   OH225125   1.187   2.504   6.518 -0.3974  0.1891 -0.2001
 1189TIP3    H125126   1.142   2.442   6.461  0.8135 -0.2151 -0.7588
 1189TIP3    H225127   1.280   2.489   6.500 -0.0595  1.5003  0.3801
 1190TIP3   OH225128   5.851   0.292   2.413 -0.9128  0.2401  0.0821
 1190TIP3    H125129   5.759   0.272   2.395 -1.1294  0.2827  1.1088
 1190TIP3    H225130   5.875   0.235   2.485 -1.0494  2.3634  1.9274
 1191TIP3   OH225131   5.176   6.669   0.863  0.5843  0.6951 -0.7036
 1191TIP3    H125132   5.084   6.689   0.845  0.8906  2.4332 -0.4590
 1191TIP3    H225133   5.186   6.578   0.833 -1.2496  0.3876 -0.5322
 1192TIP3   OH225134   4.503   2.976   1.509 -0.3815  0.1122  0.1254
 1192TIP3    H125135   4.444   2.960   1.582  0.4427 -0.8934  0.6113
 1192TIP3    H225136   4.587   2.996   1.550 -0.3302  1.3743 -0.5495
 1193TIP3   OH225137   4.318   4.771   7.728 -0.0128  0.3685  0.0381
 1193TIP3    H125138   4.385   4.838   7.712 -0.7235  1.1638  0.3230
 1193TIP3    H225139   4.345   4.728   7.809  0.2028  0.6173  0.0986
 1194TIP3   OH225140   5.875   3.124   8.068  0.1453  0.3719  0.5846
 1194TIP3    H125141   5.894   3.062   8.139 -0.2105  1.0780  1.3177
 1194TIP3    H225142   5.957   3.173   8.057 -0.0496  0.8315  1.1061
 1195TIP3   OH225143   4.008   5.928   7.179 -0.3562  0.1254 -0.0465
 1195TIP3    H125144   4.010   5.832   7.185 -1.1143  0.2083  2.8261
 1195TIP3    H225145   3.949   5.946   7.105 -1.0335 -1.6187  0.0259
 1196TIP3   OH225146   3.305   6.413   7.182 -0.1439 -0.3321  0.3485
 1196TIP3    H125147   3.241   6.349   7.150  0.1733 -1.2263  1.4382
 1196TIP3    H225148   3.389   6.369   7.175  0.0064 -0.3401  1.7737
 1197TIP3   OH225149   4.923   1.477   8.247 -0.2496  0.1322 -0.2838
 1197TIP3    H125150   4.913   1.451   8.155 -2.0158 -0.4662  0.0477
 1197TIP3    H225151   4.998   1.537   8.246 -0.8705  0.9767 -2.2838
 1198TIP3   OH225152   2.148   3.228   1.248  0.5916 -0.7204 -0.2520
 1198TIP3    H125153   2.157   3.201   1.157  0.7907  0.1570 -0.4946
 1198TIP3    H225154   2.234   3.210   1.287  0.3181 -1.6906 -0.0653
 1199TIP3   OH225155   3.386   1.746   6.673 -0.3249 -0.2966 -0.1204
 1199TIP3    H125156   3.412   1.664   6.715  1.0631  0.0875 -0.1809
 1199TIP3    H225157   3.443   1.753   6.596 -1.1594  0.2089 -0.7127
 1200TIP3   OH225158   5.016   6.408   1.372  0.1550 -0.1852  0.1142
 1200TIP3    H125159   5.106   6.438   1.358  0.1411  0.2146  0.8065
 1200TIP3    H225160   5.022   6.313   1.372  0.2816 -0.2070 -1.6345
 1201TIP3   OH225161   1.431   1.550   6.069 -0.0803 -0.5517  0.4634
 1201TIP3    H125162   1.427   1.553   5.974  0.2808 -0.9380  0.4358
 1201TIP3    H225163   1.445   1.458   6.090  1.2077 -0.2966  0.8328
 1202TIP3   OH225164   2.573   0.834   0.690 -0.2747  0.2333  0.1495
 1202TIP3    H125165   2.591   0.897   0.620 -0.3576 -0.9359 -0.9858
 1202TIP3    H225166   2.560   0.751   0.643  1.3944 -0.9690  1.6731
 1203TIP3   OH225167   5.232   6.785   6.959 -0.2070  0.5152 -0.1221
 1203TIP3    H125168   5.151   6.746   6.992  0.5571  1.7177  3.6322
 1203TIP3    H225169   5.288   6.710   6.937 -1.1914 -0.3857  0.3475
 1204TIP3   OH225170   3.062   3.585   8.541  0.2811  0.2700 -0.6048
 1204TIP3    H125171   2.975   3.627   8.539 -0.4230 -1.1461 -1.7963
 1204TIP3    H225172   3.059   3.529   8.618  0.9649  1.8101  0.5866
 1205TIP3   OH225173   2.215   5.858   7.597 -0.2120  0.3554  0.1808
 1205TIP3    H125174   2.246   5.775   7.562 -1.5623 -0.4527  0.8148
 1205TIP3    H225175   2.133   5.836   7.642  0.1262  1.7677  1.5969
 1206TIP3   OH225176   6.453   4.171   8.439 -0.2358 -0.0116 -0.1182
 1206TIP3    H125177   6.435   4.173   8.345 -0.1240 -1.0411 -0.1654
 1206TIP3    H225178   6.546   4.194   8.446 -0.7836  2.5476 -0.0599
 1207TIP3   OH225179   6.191   4.852   8.238  0.1430  0.2520  0.7802
 1207TIP3    H125180   6.260   4.907   8.275  1.6409 -0.7678 -0.3906
 1207TIP3    H225181   6.237   4.775   8.205 -1.8076 -1.3681  1.6804
 1208TIP3   OH225182   3.401   5.958   8.558 -0.0408 -0.3590 -0.1226
 1208TIP3    H125183   3.374   6.050   8.562  1.2789  0.0906 -0.9647
 1208TIP3    H225184   3.370   5.920   8.640  0.7080  1.2084  0.9195
 1209TIP3   OH225185   0.954   6.505   1.249 -0.3174 -0.0619  0.4885
 1209TIP3    H125186   1.020   6.535   1.311  1.9119 -3.5526  0.0804
 1209TIP3    H225187   0.931   6.416   1.278 -1.9646 -0.4221 -1.6099
 1210TIP3   OH225188   5.342   1.220   8.690  0.0766  0.3318  0.6604
 1210TIP3    H125189   5.284   1.198   8.763  1.3180 -2.1636  1.0024
 1210TIP3    H225190   5.292   1.196   8.612  0.6541 -2.1917  0.9642
 1211TIP3   OH225191   3.490   6.730   8.538  0.7003 -0.2907  0.0992
 1211TIP3    H125192   3.429   6.783   8.589  0.0759 -0.2443 -0.6817
 1211TIP3    H225193   3.486   6.766   8.449  1.8260 -0.3192  0.0199
 1212TIP3   OH225194   2.115   2.789   7.118 -0.1712  0.9256 -0.2764
 1212TIP3    H125195   2.108   2.864   7.059 -1.6909  0.2967 -0.9526
 1212TIP3    H225196   2.132   2.714   7.061 -0.8179  0.4428  0.1401
 1213TIP3   OH225197   0.657   2.824   1.783  0.0703 -0.0467 -0.8381
 1213TIP3    H125198   0.620   2.751   1.832 -0.5234 -0.1389 -1.4112
 1213TIP3    H225199   0.738   2.846   1.830 -0.2230 -0.4603 -0.1256
 1214TIP3   OH225200   1.695   4.082   7.747  0.8178 -0.0469 -0.2024
 1214TIP3    H125201   1.706   4.111   7.657  0.6513 -0.5602 -0.3922
 1214TIP3    H225202   1.729   3.992   7.748  0.6606 -0.1065  0.2056
 1215TIP3   OH225203   5.791   0.416   0.975 -0.0070  0.6226 -0.2246
 1215TIP3    H125204   5.809   0.411   1.069  1.4900  0.0681 -0.5082
 1215TIP3    H225205   5.757   0.504   0.962 -0.1424  0.7433  0.8218
 1216TIP3   OH225206   6.400   5.813   7.108  0.2550  0.6139  1.0410
 1216TIP3    H125207   6.358   5.749   7.050  1.1609 -1.1855  2.2713
 1216TIP3    H225208   6.398   5.895   7.058 -2.2253  0.0015 -0.0246
 1217TIP3   OH225209   5.541   1.994   0.881 -0.1517  0.1787  0.7089
 1217TIP3    H125210   5.549   2.043   0.799  0.1866 -0.6336  0.2386
 1217TIP3    H225211   5.631   1.968   0.902 -0.2190  0.5014  1.4163
 1218TIP3   OH225212   0.505   4.322   1.763 -0.7105  0.8274 -0.4386
 1218TIP3    H125213   0.462   4.400   1.799  0.4882  1.6562 -0.7492
 1218TIP3    H225214   0.598   4.335   1.782 -0.5113 -0.6511 -0.2814
 1219TIP3   OH225215   4.453   3.055   1.250 -0.5122 -0.1656 -0.1972
 1219TIP3    H125216   4.506   2.986   1.208 -0.4178 -0.7223  0.7998
 1219TIP3    H225217   4.489   3.062   1.338 -0.7738  0.9115 -0.1653
 1220TIP3   OH225218   1.010   5.759   7.397 -0.3980  0.2038 -0.0890
 1220TIP3    H125219   0.976   5.701   7.465 -0.8188  0.0020 -0.4575
 1220TIP3    H225220   0.945   5.753   7.327 -0.8154  1.6704  0.1389
 1221TIP3   OH225221   5.930   1.873   0.663  0.4203 -0.4749  0.3360
 1221TIP3    H125222   5.977   1.939   0.612 -1.0682 -0.0869 -0.6338
 1221TIP3    H225223   5.943   1.791   0.615 -0.8357 -0.1413 -0.6345
 1222TIP3   OH225224   1.463   4.934   1.928  0.8645 -0.3729 -0.0432
 1222TIP3    H125225   1.428   4.895   1.848  0.7219  2.3878 -1.4309
 1222TIP3    H225226   1.386   4.968   1.974  1.1614  0.2981 -0.0285
 1223TIP3   OH225227   2.204   0.285   1.299 -0.6891 -0.1218 -0.5162
 1223TIP3    H125228   2.134   0.220   1.288 -1.6512  0.4554  1.6419
 1223TIP3    H225229   2.253   0.282   1.217 -2.7846 -1.1065 -1.8134
 1224TIP3   OH225230   1.371   5.343   1.497 -0.3872 -0.2736  0.7973
 1224TIP3    H125231   1.420   5.269   1.533  0.7930 -0.3966 -0.9168
 1224TIP3    H225232   1.439   5.409   1.480 -0.8759 -0.2089 -1.0684
 1225TIP3   OH225233   4.413   0.920   1.947 -0.0921  0.2981  0.0346
 1225TIP3    H125234   4.504   0.939   1.968 -0.3446  0.3129  1.1829
 1225TIP3    H225235   4.363   0.990   1.988 -0.7082 -0.4164  0.5461
 1226TIP3   OH225236   1.563   1.030   7.581  0.1596  0.7123  0.3484
 1226TIP3    H125237   1.568   1.125   7.577  1.6460  0.7044  1.5569
 1226TIP3    H225238   1.568   1.002   7.489 -0.2767  1.7690 -0.0148
 1227TIP3   OH225239   4.794   1.966   8.442  0.1803  0.1686  0.5126
 1227TIP3    H125240   4.742   2.044   8.423  1.1780  1.5306  2.8663
 1227TIP3    H225241   4.835   1.943   8.359 -2.7719  0.0298 -1.0420
 1228TIP3   OH225242   0.031   2.740   1.546  0.6443 -0.5202 -0.7318
 1228TIP3    H125243   0.110   2.717   1.497  0.9679 -0.6500 -0.1526
 1228TIP3    H225244  -0.025   2.663   1.539  0.6491 -0.5052 -0.9688
 1229TIP3   OH225245   5.618   3.070   6.755  0.3587  0.0376 -0.2531
 1229TIP3    H125246   5.684   3.015   6.713  1.0592  0.3210  0.4510
 1229TIP3    H225247   5.580   3.014   6.823  1.5602  0.6145  0.9300
 1230TIP3   OH225248   2.967   6.302   8.729  0.7715  0.1922 -0.4632
 1230TIP3    H125249   2.946   6.229   8.787  0.1571 -0.8613 -1.9511
 1230TIP3    H225250   3.016   6.363   8.785 -0.5643 -0.3239  1.3961
 1231TIP3   OH225251   3.652   2.598   0.206  0.5289 -0.0484 -0.1960
 1231TIP3    H125252   3.692   2.542   0.139  0.6534 -1.4238  0.9786
 1231TIP3    H225253   3.585   2.648   0.158  1.9217  0.4530 -1.6969
 1232TIP3   OH225254   1.365   2.432   1.267  0.2624  0.5359 -0.3240
 1232TIP3    H125255   1.323   2.506   1.311 -1.0009 -0.8025  0.8407
 1232TIP3    H225256   1.300   2.403   1.203  0.4298 -0.0106 -0.2509
 1233TIP3   OH225257   3.234   5.092   7.208  0.2715 -0.3263 -0.1354
 1233TIP3    H125258   3.281   5.071   7.289  0.0668  0.5548  0.2181
 1233TIP3    H225259   3.287   5.161   7.167  1.0594 -1.6164 -1.3992
 1234TIP3   OH225260   5.847   5.697   0.379 -0.2778  0.1717 -0.2154
 1234TIP3    H125261   5.849   5.776   0.433 -3.7798  0.4773 -0.3284
 1234TIP3    H225262   5.922   5.707   0.320 -0.0310  2.9261  0.4222
 1235TIP3   OH225263   6.703   4.665   6.497 -0.7237  0.9668  0.1869
 1235TIP3    H125264   6.613   4.694   6.478 -0.5514  0.7520 -1.0556
 1235TIP3    H225265   6.721   4.599   6.430  0.7377  1.7939 -0.2654
 1236TIP3   OH225266   3.002   4.132   6.754 -0.0321  0.8906 -0.2772
 1236TIP3    H125267   2.913   4.147   6.723  0.2577 -0.3997 -1.8577
 1236TIP3    H225268   3.004   4.039   6.777  0.9144  0.8826 -0.3252
 1237TIP3   OH225269   5.365   2.406   8.226 -0.2786  0.1720 -0.1359
 1237TIP3    H125270   5.273   2.433   8.218 -0.6260 -1.4366 -2.2920
 1237TIP3    H225271   5.410   2.450   8.155  0.5999  0.6786  0.7025
 1238TIP3   OH225272   5.223   1.611   1.631 -0.2089 -0.7996 -0.2303
 1238TIP3    H125273   5.278   1.659   1.692 -0.7649  1.0811 -1.1375
 1238TIP3    H225274   5.157   1.570   1.686  0.4987 -0.8333  0.6106
 1239TIP3   OH225275   0.744   0.802   8.091 -0.4941 -0.9387 -0.3941
 1239TIP3    H125276   0.772   0.887   8.125 -1.0998 -0.5482 -0.8499
 1239TIP3    H225277   0.823   0.762   8.055 -0.0956 -0.8143  0.3162
 1240TIP3   OH225278   2.860   5.751   6.759 -0.1666 -0.0477  0.2756
 1240TIP3    H125279   2.846   5.846   6.749 -1.6758 -0.2015  0.6101
 1240TIP3    H225280   2.954   5.742   6.769  0.0054  1.4387  0.3080
 1241TIP3   OH225281   6.249   3.828   1.553 -0.3549  0.5000  0.5295
 1241TIP3    H125282   6.255   3.769   1.627 -0.8159  0.7327  0.7557
 1241TIP3    H225283   6.157   3.854   1.550 -0.0559  1.6482  0.7879
 1242TIP3   OH225284   1.085   5.209   1.147 -0.1826  0.1066 -0.1494
 1242TIP3    H125285   1.026   5.256   1.088 -1.2447  0.6491  1.2816
 1242TIP3    H225286   1.152   5.274   1.169 -0.6913  0.4161  0.4948
 1243TIP3   OH225287   3.379   6.504   8.395  0.0362  0.6468 -0.4741
 1243TIP3    H125288   3.422   6.550   8.468 -1.1372  0.4403  0.3718
 1243TIP3    H225289   3.371   6.571   8.327 -0.8962  1.4911  0.4356
 1244TIP3   OH225290   0.689   3.661   0.605 -0.2410 -0.2333 -0.1370
 1244TIP3    H125291   0.720   3.688   0.519 -0.2213  0.4733  0.0848
 1244TIP3    H225292   0.617   3.600   0.586 -0.0366 -0.3232 -0.6498
 1245TIP3   OH225293   1.845   3.597   0.455  0.0940 -0.1190 -0.5151
 1245TIP3    H125294   1.789   3.519   0.459  0.5260 -0.3851  0.9067
 1245TIP3    H225295   1.908   3.585   0.526  0.2710  1.4480 -0.3755
 1246TIP3   OH225296   0.190   0.525   0.621 -0.0091 -0.4925 -0.3471
 1246TIP3    H125297   0.223   0.614   0.605 -0.9213 -0.3963 -1.8924
 1246TIP3    H225298   0.106   0.538   0.664 -0.1639 -0.6158 -0.6157
 1247TIP3   OH225299   3.530   5.611   7.554 -0.4094  0.5761  0.2307
 1247TIP3    H125300   3.499   5.638   7.468  1.5079  0.5733 -0.4911
 1247TIP3    H225301   3.625   5.604   7.545 -0.0491  1.4201  2.5708
 1248TIP3   OH225302   6.123   1.559   2.086 -0.0391 -0.1425 -0.3094
 1248TIP3    H125303   6.051   1.595   2.140 -0.3953  0.0817 -0.9264
 1248TIP3    H225304   6.148   1.479   2.132  0.4396  0.6261  0.8252
 1249TIP3   OH225305   1.375   4.587   0.185  0.7647 -0.3834  0.3352
 1249TIP3    H125306   1.311   4.614   0.251 -0.1091 -0.8726 -0.2960
 1249TIP3    H225307   1.337   4.613   0.102  1.9694  0.4432  0.0043
 1250TIP3   OH225308   3.982   4.561   1.118  0.2221  0.5090  0.4601
 1250TIP3    H125309   3.979   4.544   1.212 -1.2556  0.5030  0.4442
 1250TIP3    H225310   3.903   4.614   1.101 -0.7004 -1.2305 -1.0787
 1251TIP3   OH225311   3.196   3.309   0.807 -0.7050  0.3728 -0.2513
 1251TIP3    H125312   3.211   3.223   0.845 -1.8731 -0.8341 -2.3188
 1251TIP3    H225313   3.114   3.339   0.847 -2.1538 -1.0690 -1.9434
 1252TIP3   OH225314   5.876   3.990   0.668  0.2518  0.0855 -0.5810
 1252TIP3    H125315   5.852   3.901   0.640 -0.4493  0.4938 -1.3476
 1252TIP3    H225316   5.969   3.997   0.649  0.2446 -0.3821 -0.8120
 1253TIP3   OH225317   1.645   0.887   7.328 -0.3653  0.2241 -0.5670
 1253TIP3    H125318   1.585   0.813   7.327 -1.6792  1.2492  0.0263
 1253TIP3    H225319   1.612   0.946   7.260 -0.3208  1.0055  0.0738
 1254TIP3   OH225320   1.746   0.665   7.505 -0.5061  0.7622  0.5284
 1254TIP3    H125321   1.681   0.601   7.477  0.3465 -0.9295  2.2632
 1254TIP3    H225322   1.698   0.748   7.505 -2.0260 -0.0611 -0.3782
 1255TIP3   OH225323   0.768   6.768   6.532 -0.0110 -0.4587  0.1391
 1255TIP3    H125324   0.696   6.808   6.483  1.3208  0.6287 -1.0176
 1255TIP3    H225325   0.725   6.721   6.603 -1.8321  0.6247 -0.1691
 1256TIP3   OH225326   3.731   5.234   1.723  0.7018  0.3211 -0.4058
 1256TIP3    H125327   3.720   5.151   1.770 -0.9769  0.2875 -0.7991
 1256TIP3    H225328   3.809   5.273   1.762  0.2765 -0.4447  1.3039
 1257TIP3   OH225329   4.586   2.311   8.047 -0.0216  0.4134  0.1352
 1257TIP3    H125330   4.635   2.270   8.119 -0.2004  0.1380  0.1017
 1257TIP3    H225331   4.654   2.337   7.985  0.0446 -0.6009 -0.2364
 1258TIP3   OH225332   1.805   1.329   2.342 -0.4992  0.1470  0.0942
 1258TIP3    H125333   1.809   1.325   2.437  1.6543 -0.5074  0.0294
 1258TIP3    H225334   1.843   1.414   2.320 -1.6465  0.6079 -0.1907
 1259TIP3   OH225335   1.763   3.784   7.788  0.5461  0.2169 -0.0844
 1259TIP3    H125336   1.787   3.727   7.860 -1.1174 -0.7058 -0.2090
 1259TIP3    H225337   1.711   3.729   7.730  0.3373  1.4139 -1.0848
 1260TIP3   OH225338   2.208   6.392   7.433 -0.0117  0.2306  0.1603
 1260TIP3    H125339   2.183   6.363   7.345 -1.0608 -1.3762  0.9461
 1260TIP3    H225340   2.294   6.352   7.447 -0.4256 -0.6131  0.3486
 1261TIP3   OH225341   4.611   1.541   6.990 -0.5153  0.4331  0.5735
 1261TIP3    H125342   4.614   1.577   7.079  0.2751 -2.6913  1.9628
 1261TIP3    H225343   4.698   1.504   6.976 -0.4403  1.3451 -1.8043
 1262TIP3   OH225344   0.691   4.651   8.339 -0.0272  0.4984 -0.0885
 1262TIP3    H125345   0.778   4.611   8.332  0.3881  1.4453 -0.5084
 1262TIP3    H225346   0.688   4.685   8.428  0.1200  0.6559 -0.1434
 1263TIP3   OH225347   1.092   1.769   1.885  0.9965  0.0578 -0.0043
 1263TIP3    H125348   1.007   1.788   1.846  1.6841  1.4868 -0.9031
 1263TIP3    H225349   1.099   1.830   1.959  1.4949  0.4124 -0.3357
 1264TIP3   OH225350   1.154   5.572   8.697 -0.0000  0.8849 -0.6576
 1264TIP3    H125351   1.067   5.589   8.735 -0.0052 -1.6711  0.6506
 1264TIP3    H225352   1.214   5.586   8.770  0.5665  1.2609 -1.1923
 1265TIP3   OH225353   1.216   3.304   0.503 -0.2078 -0.2274 -0.1140
 1265TIP3    H125354   1.223   3.369   0.574  2.1028 -0.3006 -0.2147
 1265TIP3    H225355   1.187   3.355   0.427 -0.7692  0.2225  0.3898
 1266TIP3   OH225356   2.305   0.415   8.120  0.6834 -0.3634 -0.0362
 1266TIP3    H125357   2.384   0.407   8.067  0.4627  0.2057 -0.4594
 1266TIP3    H225358   2.256   0.334   8.103  1.3029 -0.8397  0.4437
 1267TIP3   OH225359   3.668   1.425   2.248  0.6983 -0.0394  0.1665
 1267TIP3    H125360   3.727   1.390   2.181  0.0593 -3.4804  1.1837
 1267TIP3    H225361   3.584   1.382   2.230  0.1815 -0.0755  2.3756
 1268TIP3   OH225362   1.308   0.154   6.272 -0.1656  0.2123  0.1058
 1268TIP3    H125363   1.224   0.139   6.315  0.8823 -0.9645  1.8614
 1268TIP3    H225364   1.344   0.066   6.258  0.1265  0.6194 -2.0355
 1269TIP3   OH225365   1.358   1.983   0.704  0.1880 -0.5464  0.2498
 1269TIP3    H125366   1.403   1.938   0.775 -0.5783 -1.1548  0.3720
 1269TIP3    H225367   1.292   1.920   0.673  0.9152 -0.5498 -1.4300
 1270TIP3   OH225368   4.468   0.134   7.927  0.5201  0.3261  0.0277
 1270TIP3    H125369   4.536   0.185   7.882  0.3751  1.3325  0.9160
 1270TIP3    H225370   4.428   0.196   7.987 -3.2362  0.6960 -2.4978
 1271TIP3   OH225371   1.853   4.673   8.567  0.4844 -0.8027  0.1194
 1271TIP3    H125372   1.889   4.711   8.487  0.8030  0.1929  0.7185
 1271TIP3    H225373   1.927   4.669   8.628 -0.2936  1.0014  1.2695
 1272TIP3   OH225374   2.981   1.932   1.356 -0.0006  0.2515 -0.4623
 1272TIP3    H125375   2.993   2.026   1.371 -2.0783  0.4208  0.5036
 1272TIP3    H225376   2.935   1.902   1.434  1.3086 -1.7535 -0.4029
 1273TIP3   OH225377   1.526   4.350   7.906  0.6437 -0.2517 -0.1901
 1273TIP3    H125378   1.609   4.328   7.949  1.0202 -0.1461 -0.8331
 1273TIP3    H225379   1.524   4.445   7.905  0.1439 -0.2529  0.5030
 1274TIP3   OH225380   1.235   0.253   1.198  0.0181 -0.0275  0.0198
 1274TIP3    H125381   1.215   0.314   1.269 -0.6498 -0.0359 -0.1570
 1274TIP3    H225382   1.151   0.238   1.155  0.5514  0.5638 -1.2479
 1275TIP3   OH225383   5.526   0.107   7.313  0.6130 -0.6007 -0.5845
 1275TIP3    H125384   5.539   0.115   7.407 -0.1866 -1.5901 -0.3738
 1275TIP3    H225385   5.550   0.193   7.278  0.0151  0.0781  0.6137
 1276TIP3   OH225386   1.570   0.266   7.827  0.3384 -0.2007 -0.4484
 1276TIP3    H125387   1.516   0.281   7.905  0.4196  2.0952 -0.7555
 1276TIP3    H225388   1.537   0.184   7.791 -0.4684 -0.7437  1.3583
 1277TIP3   OH225389   5.854   4.896   8.075 -0.3367 -0.0207 -0.0468
 1277TIP3    H125390   5.767   4.870   8.045  0.2115  0.7647 -2.6003
 1277TIP3    H225391   5.841   4.925   8.165 -2.4245 -1.2645  0.1154
 1278TIP3   OH225392   4.962   0.684   1.823  0.0910 -0.2940 -0.0325
 1278TIP3    H125393   4.927   0.758   1.874  1.3499 -0.4782  1.1547
 1278TIP3    H225394   5.021   0.724   1.759 -0.9641 -0.1179 -0.9251
 1279TIP3   OH225395   0.894   4.723   1.203 -0.1474 -0.0660 -0.3590
 1279TIP3    H125396   0.831   4.652   1.188 -0.3056  0.5979 -3.3944
 1279TIP3    H225397   0.840   4.801   1.217  0.0503 -0.0796  0.6005
 1280TIP3   OH225398   2.421   3.281   0.988 -0.0191  0.4639  0.9801
 1280TIP3    H125399   2.514   3.293   1.006  0.2974  0.1003 -0.3190
 1280TIP3    H225400   2.399   3.197   1.029  0.6861 -0.3592 -0.2716
 1281TIP3   OH225401   0.534   3.545   8.047 -0.1975 -0.0392 -0.2602
 1281TIP3    H125402   0.571   3.468   8.091  0.1935 -0.3587 -1.1223
 1281TIP3    H225403   0.561   3.619   8.101 -1.8911 -0.5914  1.4735
 1282TIP3   OH225404   2.803   1.645   7.826 -0.0334  0.4050  0.4885
 1282TIP3    H125405   2.836   1.655   7.737  1.0894  0.4629  0.8911
 1282TIP3    H225406   2.866   1.693   7.880  0.1284 -0.8561  1.4625
 1283TIP3   OH225407   0.428   1.516   8.126  1.0103 -0.4304 -0.1133
 1283TIP3    H125408   0.400   1.590   8.072  0.2892 -0.3341  0.3791
 1283TIP3    H225409   0.479   1.555   8.197  1.9639 -0.5578 -0.7031
 1284TIP3   OH225410   5.595   5.355   6.683  0.0413  0.2226 -0.3852
 1284TIP3    H125411   5.533   5.387   6.748  0.8781 -0.2240  0.6752
 1284TIP3    H225412   5.635   5.434   6.647  0.0359  0.4602  0.1234
 1285TIP3   OH225413   4.422   1.282   0.993 -0.6889  0.1768  0.0353
 1285TIP3    H125414   4.478   1.244   0.926  1.1374 -0.8449  2.0019
 1285TIP3    H225415   4.336   1.244   0.978  0.2582 -1.9988 -0.2671
 1286TIP3   OH225416   0.802   3.749   8.454 -0.3172  0.2741 -0.4605
 1286TIP3    H125417   0.811   3.775   8.546  0.5486 -1.8719  0.1038
 1286TIP3    H225418   0.707   3.746   8.440 -0.4531  1.4070  0.1022
 1287TIP3   OH225419   0.269   6.261   7.998  0.6336  0.0502 -0.6454
 1287TIP3    H125420   0.272   6.356   7.994  1.4130  0.1003  0.5554
 1287TIP3    H225421   0.242   6.234   7.910  0.6210  1.3564 -1.0670
 1288TIP3   OH225422   0.548   4.201   8.020 -0.3911 -0.5186 -0.2340
 1288TIP3    H125423   0.626   4.156   7.987 -0.1422 -1.0946  1.0713
 1288TIP3    H225424   0.492   4.131   8.055 -0.1010  0.1092  1.6242
 1289TIP3   OH225425   0.996   5.118   0.479  0.3805  0.3897  0.0904
 1289TIP3    H125426   1.044   5.048   0.435  1.9245  1.3000  0.2332
 1289TIP3    H225427   0.989   5.091   0.570  1.4906  0.6593  0.2675
 1290TIP3   OH225428   2.960   3.902   7.841  0.2638  0.4229  0.0076
 1290TIP3    H125429   2.942   3.812   7.870 -0.6480  0.3417 -0.7894
 1290TIP3    H225430   2.941   3.956   7.918 -1.2768  0.1192 -0.1219
 1291TIP3   OH225431   1.752   3.112   8.532  0.1070  0.2621  0.0169
 1291TIP3    H125432   1.673   3.100   8.584  1.3762 -0.9011  1.8045
 1291TIP3    H225433   1.730   3.181   8.470 -1.7465  1.1791  1.5965
 1292TIP3   OH225434   2.925   5.679   1.938 -0.5143 -0.3179  0.0279
 1292TIP3    H125435   2.973   5.691   1.855  1.8714  0.8469  1.4722
 1292TIP3    H225436   2.945   5.588   1.963  2.7946  0.6663  1.5443
 1293TIP3   OH225437   5.782   0.930   1.106 -0.1399  0.0190  0.3330
 1293TIP3    H125438   5.780   0.838   1.080  0.8575 -0.0536  0.4791
 1293TIP3    H225439   5.706   0.940   1.163 -0.1081 -0.7833  0.5283
 1294TIP3   OH225440   5.713   3.076   6.203 -0.1656  1.0542  0.1388
 1294TIP3    H125441   5.743   3.157   6.162  1.7548  0.6606  0.6666
 1294TIP3    H225442   5.636   3.101   6.254 -0.0882  2.3654 -0.3652
 1295TIP3   OH225443   6.717   2.143   0.881 -0.4921  0.4789  1.0586
 1295TIP3    H125444   6.669   2.223   0.902  0.5753  1.2019  0.8614
 1295TIP3    H225445   6.791   2.143   0.941  0.7387  0.8223 -0.3825
 1296TIP3   OH225446   4.313   6.108   6.932 -0.1125 -0.5096 -0.1776
 1296TIP3    H125447   4.358   6.069   6.857  0.8097  1.7777 -0.8758
 1296TIP3    H225448   4.227   6.133   6.898 -0.0797 -0.3928 -0.1724
 1297TIP3   OH225449   1.832   4.229   0.778 -0.0808  0.2592 -0.6706
 1297TIP3    H125450   1.785   4.164   0.725  0.6747  1.8447 -3.5176
 1297TIP3    H225451   1.764   4.272   0.830 -0.8655 -1.3618 -0.2876
 1298TIP3   OH225452   2.708   6.293   1.348  0.1354  0.1545 -0.1386
 1298TIP3    H125453   2.704   6.298   1.252  2.8711  0.5918 -0.3076
 1298TIP3    H225454   2.711   6.384   1.377  0.3815  0.0204  0.2696
 1299TIP3   OH225455   5.772   5.596   0.130  0.0977  0.8138 -0.3734
 1299TIP3    H125456   5.795   5.632   0.215 -3.2168 -2.5278  2.2625
 1299TIP3    H225457   5.822   5.514   0.123 -2.8485 -1.2517  0.6957
 1300TIP3   OH225458   3.193   4.358   7.678  0.2325  0.5812 -0.0287
 1300TIP3    H125459   3.241   4.410   7.614 -1.6668  1.4516 -0.8151
 1300TIP3    H225460   3.225   4.387   7.763  2.8663 -0.6544 -0.4909
 1301TIP3   OH225461   5.926   5.344   0.122  1.0345  0.1985 -0.0854
 1301TIP3    H125462   5.990   5.284   0.160 -1.2925 -0.3634  3.5262
 1301TIP3    H225463   5.842   5.301   0.137 -0.4247  2.4672 -1.3160
 1302TIP3   OH225464   3.918   3.476   6.657  0.2923  0.2256 -0.7809
 1302TIP3    H125465   3.823   3.478   6.655  0.2705 -0.7151 -2.5655
 1302TIP3    H225466   3.942   3.400   6.604  2.0400  0.2164 -0.0631
 1303TIP3   OH225467   1.557   1.955   8.364  0.3658 -0.1217  0.5278
 1303TIP3    H125468   1.515   2.009   8.297 -0.2424  0.5395  1.4176
 1303TIP3    H225469   1.553   2.008   8.444  3.0362  0.0151  0.6382
 1304TIP3   OH225470   4.227   6.368   0.305 -0.2666 -0.5293 -0.7800
 1304TIP3    H125471   4.309   6.355   0.257  0.0599 -0.9187 -0.1340
 1304TIP3    H225472   4.161   6.320   0.254 -0.1284 -0.0662 -1.3940
 1305TIP3   OH225473   0.078   0.376   0.135  0.1456  0.0585  0.4132
 1305TIP3    H125474   0.154   0.371   0.194  0.0780 -0.4425  0.4671
 1305TIP3    H225475   0.066   0.286   0.104  0.3708  0.3694 -0.6198
 1306TIP3   OH225476   1.739   4.915   0.358 -0.3767  0.6473 -0.0860
 1306TIP3    H125477   1.777   4.906   0.270  0.7157  1.2076  0.3158
 1306TIP3    H225478   1.702   4.829   0.376  0.3614  0.1944 -0.6552
 1307TIP3   OH225479   0.814   3.670   0.841  0.3051  0.2505 -0.6939
 1307TIP3    H125480   0.903   3.676   0.807 -0.1077 -0.3984 -1.9539
 1307TIP3    H225481   0.759   3.669   0.763 -0.7694 -0.0821  0.0484
 1308TIP3   OH225482   6.082   3.890   0.929  0.2504  0.4770  0.1126
 1308TIP3    H125483   6.035   3.973   0.918 -0.2408  0.3426  1.1096
 1308TIP3    H225484   6.086   3.877   1.024  0.9795 -0.2759 -0.0113
 1309TIP3   OH225485   5.753   1.244   1.089  0.7189 -0.0087  0.0128
 1309TIP3    H125486   5.846   1.253   1.107  1.2404  0.5846 -2.5213
 1309TIP3    H225487   5.732   1.153   1.113  1.5649  0.2643  1.9375
 1310TIP3   OH225488   4.205   2.868   8.106  0.1813  1.0717  0.3711
 1310TIP3    H125489   4.154   2.788   8.099  0.6790  0.7146  0.7276
 1310TIP3    H225490   4.290   2.847   8.066  0.1984  1.5230  0.1618
 1311TIP3   OH225491   5.688   4.784   6.638  0.0043  0.0550  0.2465
 1311TIP3    H125492   5.678   4.805   6.731 -0.7878  2.6289 -0.3436
 1311TIP3    H225493   5.598   4.767   6.608  0.1050  0.4654 -0.2921
 1312TIP3   OH225494   5.312   2.406   7.252 -0.0328 -0.7554 -0.3328
 1312TIP3    H125495   5.227   2.370   7.229 -0.1971  0.3776 -1.6163
 1312TIP3    H225496   5.349   2.437   7.169  0.9465  0.1719  0.4116
 1313TIP3   OH225497   0.478   6.126   7.183 -0.3481  0.3133  0.1914
 1313TIP3    H125498   0.513   6.123   7.094 -0.3954 -0.0282  0.1803
 1313TIP3    H225499   0.383   6.130   7.172 -0.3052  1.8422  0.2163
 1314TIP3   OH225500   3.503   3.250   0.328 -1.0346 -0.4946 -0.1151
 1314TIP3    H125501   3.518   3.314   0.397 -2.2131  0.3885 -0.6671
 1314TIP3    H225502   3.581   3.255   0.273 -0.8380 -0.0121  0.2079
 1315TIP3   OH225503   3.359   2.536   8.738 -0.6765 -0.1627  0.2621
 1315TIP3    H125504   3.281   2.555   8.790 -1.2847  0.6924 -0.9156
 1315TIP3    H225505   3.380   2.445   8.759 -1.9712 -0.4005  0.6254
 1316TIP3   OH225506   5.280   2.981   7.150  0.0360 -1.0995 -0.4323
 1316TIP3    H125507   5.324   2.938   7.224 -1.0869  0.6477  1.3482
 1316TIP3    H225508   5.219   2.915   7.117  0.0182 -1.6762  0.6965
 1317TIP3   OH225509   6.428   5.211   8.240 -0.3766  0.6525  0.0651
 1317TIP3    H125510   6.469   5.210   8.327 -0.4212  0.9366  0.0915
 1317TIP3    H225511   6.335   5.195   8.257 -0.2218 -0.4453 -0.0337
 1318TIP3   OH225512   3.381   6.480   6.759 -0.3031 -0.6067  0.1229
 1318TIP3    H125513   3.419   6.396   6.786 -1.1256 -0.8149  0.6736
 1318TIP3    H225514   3.379   6.475   6.663  0.2589 -0.9432  0.1255
 1319TIP3   OH225515   2.490   6.085   0.235 -0.5625 -0.2194 -0.4142
 1319TIP3    H125516   2.451   6.003   0.205 -2.3581  0.1393  0.7437
 1319TIP3    H225517   2.464   6.091   0.327 -0.4735  1.6250 -0.4773
 1320TIP3   OH225518   2.566   5.589   7.619  0.2354 -0.1467  0.4172
 1320TIP3    H125519   2.614   5.507   7.608  0.1757  0.0093 -1.3542
 1320TIP3    H225520   2.497   5.568   7.682 -0.1508 -1.6446 -0.4474
 1321TIP3   OH225521   5.774   5.644   7.155 -0.1425 -0.1638 -0.0496
 1321TIP3    H125522   5.800   5.729   7.121  0.5542  0.2054  1.3167
 1321TIP3    H225523   5.679   5.648   7.162 -0.0600  0.8200  0.7320
 1322TIP3   OH225524   6.047   2.397   7.403 -0.0410  0.4942  0.3270
 1322TIP3    H125525   6.085   2.320   7.363 -0.5248  0.1266  0.5625
 1322TIP3    H225526   6.031   2.457   7.329  0.8112  0.5871  0.2099
 1323TIP3   OH225527   6.375   0.825   7.598 -0.2329  0.0986  0.4914
 1323TIP3    H125528   6.420   0.837   7.681 -0.5094  1.1597  0.5022
 1323TIP3    H225529   6.351   0.913   7.570  0.8651 -0.0937 -1.2745
 1324TIP3   OH225530   6.556   5.529   8.431 -0.1599 -0.0883  0.0440
 1324TIP3    H125531   6.468   5.502   8.459 -0.2541  2.3241  2.5279
 1324TIP3    H225532   6.614   5.495   8.498  0.5247  0.2026 -0.3892
 1325TIP3   OH225533   2.774   0.313   6.884 -0.4363 -0.3058  0.0733
 1325TIP3    H125534   2.761   0.396   6.838  0.9565  0.6149  1.2194
 1325TIP3    H225535   2.867   0.313   6.906 -0.7605 -1.3745  1.5799
 1326TIP3   OH225536   0.985   1.206   7.666 -0.3687 -0.2898  0.1829
 1326TIP3    H125537   1.050   1.218   7.735  1.7535 -1.0280 -1.5687
 1326TIP3    H225538   0.982   1.291   7.621  1.1084 -0.8455 -1.0706
 1327TIP3   OH225539   1.417   0.968   1.126 -0.4681  0.0034 -0.3110
 1327TIP3    H125540   1.500   1.000   1.091 -1.7612  1.6907 -2.0642
 1327TIP3    H225541   1.384   0.909   1.058 -1.6703  1.0212 -0.6337
 1328TIP3   OH225542   1.995   6.698   0.233 -0.3282  0.4401 -0.6201
 1328TIP3    H125543   2.066   6.708   0.170 -0.6263 -0.8745 -1.2053
 1328TIP3    H225544   2.003   6.608   0.265 -1.3609  0.4640 -0.2479
 1329TIP3   OH225545   6.310   1.087   7.567 -0.8112 -0.6040 -0.0115
 1329TIP3    H125546   6.220   1.120   7.576 -1.1464 -2.0324  2.8185
 1329TIP3    H225547   6.364   1.165   7.557 -2.2024  0.3658 -0.1445
 1330TIP3   OH225548   5.255   5.617   6.975 -0.4998  0.3853 -0.1414
 1330TIP3    H125549   5.209   5.575   7.048  0.5903 -0.9272 -0.1794
 1330TIP3    H225550   5.319   5.552   6.946 -2.2905 -0.0663 -3.7030
 1331TIP3   OH225551   5.293   5.064   8.162  0.2616 -0.5830 -0.0900
 1331TIP3    H125552   5.219   5.124   8.154 -1.1830 -2.2562  0.2668
 1331TIP3    H225553   5.353   5.091   8.091 -1.2612 -0.0072 -1.2108
 1332TIP3   OH225554   1.963   3.449   8.285 -0.1050 -0.1483  0.2879
 1332TIP3    H125555   1.878   3.493   8.279  0.9079  1.8240 -0.7846
 1332TIP3    H225556   1.943   3.356   8.275 -1.9212  0.4378 -3.1344
 1333TIP3   OH225557   2.266   0.667   1.888  0.3454 -0.2190  0.4594
 1333TIP3    H125558   2.296   0.739   1.944  0.8486 -0.4986  0.5505
 1333TIP3    H225559   2.289   0.588   1.937  0.2780 -0.4542  0.1115
 1334TIP3   OH225560   6.506   1.903   7.738  0.3350 -0.4683  0.0129
 1334TIP3    H125561   6.570   1.950   7.792  3.2842 -2.5143 -1.4630
 1334TIP3    H225562   6.454   1.972   7.697 -0.4495  1.2102  3.4280
 1335TIP3   OH225563   0.188   1.292   7.446 -0.3753 -0.4792  0.0878
 1335TIP3    H125564   0.223   1.380   7.435 -0.0293 -0.3986  1.5791
 1335TIP3    H225565   0.199   1.274   7.539  1.3756 -2.8608 -0.4725
 1336TIP3   OH225566   0.940   3.712   1.314  0.6912 -0.8658  0.3134
 1336TIP3    H125567   0.867   3.773   1.313  0.3291 -1.2685  1.1992
 1336TIP3    H225568   0.903   3.629   1.284  1.7584 -0.1154 -3.6079
 1337TIP3   OH225569   0.493   6.165   8.476  0.4709 -0.2490  0.2165
 1337TIP3    H125570   0.444   6.083   8.463  0.1210 -0.2092  1.1765
 1337TIP3    H225571   0.476   6.216   8.397  2.9501 -2.1802 -1.6915
 1338TIP3   OH225572   4.757   4.916   8.314 -0.0884 -0.2667  0.1787
 1338TIP3    H125573   4.837   4.968   8.310 -0.4639  0.3040 -0.0621
 1338TIP3    H225574   4.787   4.825   8.313  0.6261 -0.0742  1.5452
 1339TIP3   OH225575   3.879   2.117   7.723  0.3576  0.2793 -0.0787
 1339TIP3    H125576   3.805   2.117   7.662  0.6406 -1.4632 -0.4890
 1339TIP3    H225577   3.838   2.113   7.810 -0.1159 -2.2319 -0.3298
 1340TIP3   OH225578   5.105   3.990   6.312 -0.0185 -0.5823  0.3974
 1340TIP3    H125579   5.018   3.949   6.307  0.2304 -0.9557 -1.2990
 1340TIP3    H225580   5.149   3.943   6.383 -0.6237 -1.5388  0.1610
 1341TIP3   OH225581   1.108   3.344   6.844 -1.0252  0.5883  0.5389
 1341TIP3    H125582   1.136   3.419   6.792 -0.9338  0.2448  0.0873
 1341TIP3    H225583   1.017   3.361   6.865 -0.9743  0.8760  0.5204
 1342TIP3   OH225584   0.940   6.274   0.061 -0.1008 -0.1789  0.1070
 1342TIP3    H125585   0.866   6.237   0.110 -0.7681  1.4840  0.4212
 1342TIP3    H225586   0.921   6.250  -0.030 -0.0048 -1.4093  0.3962
 1343TIP3   OH225587   6.014   1.101   1.643 -0.4647 -0.2549  0.0953
 1343TIP3    H125588   6.017   1.056   1.727 -2.1334 -1.0007 -0.2096
 1343TIP3    H225589   5.931   1.149   1.645 -0.1516  0.3425 -0.8133
 1344TIP3   OH225590   4.401   2.005   8.521 -0.0651  0.0626 -0.1534
 1344TIP3    H125591   4.415   2.000   8.615 -0.4668  0.4701 -0.0623
 1344TIP3    H225592   4.437   1.924   8.486  0.6614  0.1907  0.2765
 1345TIP3   OH225593   3.858   0.927   0.186 -0.6037 -0.3108  0.3679
 1345TIP3    H125594   3.878   0.998   0.246 -2.0332  0.4031  0.0436
 1345TIP3    H225595   3.839   0.852   0.242  2.2685 -0.9029  0.7045
 1346TIP3   OH225596   4.745   5.690   7.443  0.3143 -0.4947  0.1868
 1346TIP3    H125597   4.755   5.689   7.538 -0.7799 -0.8331  0.3099
 1346TIP3    H225598   4.722   5.600   7.421  1.2753 -0.5882 -0.4948
 1347TIP3   OH225599   5.644   5.157   7.754  0.0286  0.2638 -0.6636
 1347TIP3    H125600   5.688   5.153   7.669  1.5743  0.4514  0.0874
 1347TIP3    H225601   5.710   5.194   7.813 -0.8967 -0.1681  0.6866
 1348TIP3   OH225602   1.735   1.684   7.110 -0.2715 -0.0726 -0.5752
 1348TIP3    H125603   1.742   1.602   7.159 -0.7012  0.0322 -0.3324
 1348TIP3    H225604   1.712   1.749   7.176 -1.8241 -0.1029 -1.0458
 1349TIP3   OH225605   0.848   6.255   1.322 -0.1939  0.0393  0.3990
 1349TIP3    H125606   0.902   6.213   1.390  0.5652  1.1099  0.4848
 1349TIP3    H225607   0.878   6.216   1.240  1.3491  1.2381  0.3590
 1350TIP3   OH225608   3.926   4.238   7.687  0.8480 -0.7811  0.0106
 1350TIP3    H125609   3.987   4.209   7.754 -0.6443 -1.8665  0.9759
 1350TIP3    H225610   3.930   4.333   7.690  1.7907 -0.8367  0.7084
 1351TIP3   OH225611   3.386   5.015   1.232  0.5726  0.4929  0.5194
 1351TIP3    H125612   3.332   5.086   1.268 -2.5427  0.3135 -3.0939
 1351TIP3    H225613   3.342   4.935   1.261 -0.0333  0.2875 -0.8930
 1352TIP3   OH225614   1.018   3.219   0.298 -0.7394  0.0208 -0.0994
 1352TIP3    H125615   1.003   3.146   0.238 -2.1006  2.2615 -2.6896
 1352TIP3    H225616   0.989   3.187   0.383 -0.5167 -2.6864 -0.9550
 1353TIP3   OH225617   2.249   3.552   6.929 -0.6207  0.0731 -0.0987
 1353TIP3    H125618   2.275   3.641   6.952 -0.1646 -0.6082  2.3640
 1353TIP3    H225619   2.321   3.497   6.960 -0.9157 -1.1752 -1.5049
 1354TIP3   OH225620   0.328   5.608   1.972  0.2768  0.7721  0.4569
 1354TIP3    H125621   0.242   5.590   2.010  0.7571  0.8732  1.6600
 1354TIP3    H225622   0.359   5.522   1.943  0.2544  0.5216  1.1322
 1355TIP3   OH225623   6.132   2.030   8.528 -0.0995 -0.4606 -0.5165
 1355TIP3    H125624   6.122   2.006   8.435 -0.3878  0.6562 -0.7920
 1355TIP3    H225625   6.051   2.001   8.569  0.4836 -1.9670 -0.3682
 1356TIP3   OH225626   1.979   6.032   7.953 -0.0134  0.7969  0.0096
 1356TIP3    H125627   2.043   5.961   7.948 -0.5041  0.2854  0.8119
 1356TIP3    H225628   1.951   6.046   7.863 -0.9988 -1.0434 -0.0056
 1357TIP3   OH225629   4.030   3.091   1.633  0.2026 -0.3963  0.5427
 1357TIP3    H125630   4.110   3.143   1.630  0.0500 -0.0454  1.7841
 1357TIP3    H225631   3.959   3.156   1.628  0.0113 -0.4976  1.6311
 1358TIP3   OH225632   4.479   4.548   0.083  0.3996 -0.2512 -0.1232
 1358TIP3    H125633   4.407   4.515   0.136  0.7325 -1.6284 -0.4898
 1358TIP3    H225634   4.441   4.560  -0.004  0.2012  0.6945  0.0765
 1359TIP3   OH225635   0.879   2.955   1.479 -0.0623  0.1254  1.1625
 1359TIP3    H125636   0.953   3.015   1.479  0.9074 -1.0189  0.1892
 1359TIP3    H225637   0.871   2.927   1.388 -1.8161  0.3413  1.2171
 1360TIP3   OH225638   4.709   5.353   7.995  0.0056  0.3157  0.0199
 1360TIP3    H125639   4.722   5.259   7.989 -1.0549  0.1043  0.7702
 1360TIP3    H225640   4.660   5.376   7.916 -3.3411 -0.4758  1.7074
 1361TIP3   OH225641   2.301   5.068   7.748 -0.0227  0.4162  0.1994
 1361TIP3    H125642   2.298   5.143   7.689 -0.7197  0.4670  0.2949
 1361TIP3    H225643   2.370   5.089   7.811  1.3226 -0.0050 -1.0742
 1362TIP3   OH225644   5.289   1.404   1.839  0.5939 -0.2369  0.5860
 1362TIP3    H125645   5.324   1.482   1.882 -0.7109  0.6380  0.1219
 1362TIP3    H225646   5.228   1.367   1.903 -0.5303  0.4549 -0.0562
 1363TIP3   OH225647   0.005   5.184   0.175  0.5753  0.3453  0.2893
 1363TIP3    H125648  -0.025   5.182   0.266  1.2486  0.4000  0.5157
 1363TIP3    H225649   0.023   5.276   0.158  1.0596  0.2571  0.3088
 1364TIP3   OH225650   5.265   0.047   0.420 -0.3268 -0.1377 -0.2310
 1364TIP3    H125651   5.341   0.072   0.473 -1.8156  0.5506  1.6843
 1364TIP3    H225652   5.284   0.083   0.333  1.5230  0.0013  0.1954
 1365TIP3   OH225653   1.867   0.402   0.452 -0.3960  0.5038 -0.3484
 1365TIP3    H125654   1.940   0.424   0.510  0.2648  0.2254 -1.0617
 1365TIP3    H225655   1.876   0.460   0.377 -0.7102  0.2399 -0.5975
 1366TIP3   OH225656   3.494   4.495   6.959  0.0698  0.5486 -0.3940
 1366TIP3    H125657   3.553   4.557   6.915  2.2026 -1.2833 -0.2968
 1366TIP3    H225658   3.451   4.449   6.888  0.2834  0.5258 -0.5109
 1367TIP3   OH225659   4.863   2.912   7.174 -0.4191 -0.6021  0.3674
 1367TIP3    H125660   4.862   2.933   7.080 -0.7263  1.3856  0.7798
 1367TIP3    H225661   4.912   2.830   7.179 -2.0663 -1.8334 -1.7301
 1368TIP3   OH225662   0.975   4.317   8.572 -0.8199 -0.0075  0.3848
 1368TIP3    H125663   1.057   4.333   8.619 -0.4583 -1.1865  0.1922
 1368TIP3    H225664   0.926   4.399   8.580  0.0278  0.4369  1.2040
 1369TIP3   OH225665   6.134   1.685   2.361  0.2994  0.0202 -0.0288
 1369TIP3    H125666   6.095   1.603   2.329  0.8620 -0.3106  0.1138
 1369TIP3    H225667   6.074   1.753   2.331 -0.0046 -0.4166 -0.4338
 1370TIP3   OH225668   5.209   2.466   0.574 -0.2597  0.6290 -0.0082
 1370TIP3    H125669   5.237   2.403   0.508 -0.6395 -0.0344  0.4512
 1370TIP3    H225670   5.113   2.467   0.566 -0.3046  0.5439  0.5372
 1371TIP3   OH225671   0.144   4.630   2.158  0.5284  0.6378 -0.3057
 1371TIP3    H125672   0.190   4.553   2.192  0.0326 -0.1602 -1.3917
 1371TIP3    H225673   0.083   4.595   2.093 -1.6517  1.6701  1.0953
 1372TIP3   OH225674   3.832   3.228   1.803 -0.3109 -0.3428  0.0773
 1372TIP3    H125675   3.911   3.175   1.793 -1.2657 -1.6697 -0.7299
 1372TIP3    H225676   3.773   3.175   1.855 -0.5991  0.7645  0.9298
 1373TIP3   OH225677   2.917   5.779   6.340 -0.2869  0.2757  0.2337
 1373TIP3    H125678   3.008   5.803   6.324  0.2925 -1.5165  0.6024
 1373TIP3    H225679   2.917   5.684   6.337 -1.9559  0.2063  1.2890
 1374TIP3   OH225680   3.237   3.504   6.320 -0.5076 -0.6293  0.2413
 1374TIP3    H125681   3.211   3.462   6.402 -1.5870 -1.0508 -0.2830
 1374TIP3    H225682   3.306   3.448   6.285 -0.9211 -1.1674  0.2633
 1375TIP3   OH225683   4.926   6.796   0.017  0.0680 -0.3718  0.1052
 1375TIP3    H125684   4.858   6.732   0.040  0.6146 -1.0059 -0.0254
 1375TIP3    H225685   4.904   6.823  -0.073  1.1141 -2.0827 -0.7039
 1376TIP3   OH225686   1.635   0.425   7.371  0.0968  0.1117  0.4269
 1376TIP3    H125687   1.630   0.408   7.277 -1.1854 -1.6274  0.7555
 1376TIP3    H225688   1.570   0.366   7.410  0.4506  0.9291  2.3921
 1377TIP3   OH225689   1.203   5.249   8.256 -0.0048 -0.2725  0.3918
 1377TIP3    H125690   1.250   5.231   8.175  0.5040  0.2297  0.5654
 1377TIP3    H225691   1.237   5.186   8.319  1.3832  0.9049  0.8587
 1378TIP3   OH225692   0.674   4.523   0.057 -0.2768  0.0690  0.3744
 1378TIP3    H125693   0.730   4.514  -0.020  1.0646  1.1830  1.1716
 1378TIP3    H225694   0.730   4.500   0.131 -1.3400 -0.3051  1.1001
 1379TIP3   OH225695   0.496   2.638   8.321  0.1052 -0.2880  0.1575
 1379TIP3    H125696   0.564   2.605   8.263 -0.1549 -2.2694  0.9150
 1379TIP3    H225697   0.544   2.669   8.398  0.1454 -2.6304  1.1309
 1380TIP3   OH225698   4.328   4.616   6.314 -0.0872  0.2348 -0.5100
 1380TIP3    H125699   4.307   4.695   6.264  0.2299 -1.3254 -3.2807
 1380TIP3    H225700   4.403   4.578   6.269 -0.0804 -1.5290  0.8884
 1381TIP3   OH225701   2.907   4.143   2.056 -0.8777 -0.0330 -0.5272
 1381TIP3    H125702   2.969   4.157   1.984 -0.0145 -1.7235 -0.1697
 1381TIP3    H225703   2.956   4.167   2.135 -0.9881 -0.4798 -0.3192
 1382TIP3   OH225704   4.951   3.834   0.627 -0.3602 -0.0895 -0.1407
 1382TIP3    H125705   4.871   3.786   0.650  0.1449 -0.6695  0.4467
 1382TIP3    H225706   5.010   3.817   0.700 -0.1802  1.4769  0.1113
 1383TIP3   OH225707   0.506   4.999   8.037 -0.6239 -0.9695  0.1156
 1383TIP3    H125708   0.528   4.958   7.954  2.1793  2.0794 -0.8783
 1383TIP3    H225709   0.558   4.953   8.103 -1.8024 -2.4847  0.0510
 1384TIP3   OH225710   3.220   3.752   1.265 -0.3015  0.2851  0.2268
 1384TIP3    H125711   3.282   3.698   1.313 -0.0126  0.2232 -0.2059
 1384TIP3    H225712   3.147   3.693   1.246  1.0508 -0.7456 -2.3849
 1385TIP3   OH225713   4.205   5.284   2.094  0.2491 -0.0782  0.4324
 1385TIP3    H125714   4.242   5.197   2.111 -1.7114 -0.7669  1.4982
 1385TIP3    H225715   4.186   5.283   2.000 -0.5621 -1.1591  0.5860
 1386TIP3   OH225716   3.224   5.637   1.867  0.2203 -0.1921 -0.4920
 1386TIP3    H125717   3.303   5.643   1.921 -0.9742  0.3874  1.2871
 1386TIP3    H225718   3.178   5.560   1.901 -0.4751  0.0824 -0.7845
 1387TIP3   OH225719   3.093   5.581   7.913 -0.5843 -0.1513  0.4489
 1387TIP3    H125720   3.105   5.569   7.819 -1.4484 -0.2434  0.3411
 1387TIP3    H225721   3.179   5.609   7.945 -0.4457  0.4951 -0.4595
 1388TIP3   OH225722   0.201   1.740   1.500 -0.4360 -0.6032 -0.9089
 1388TIP3    H125723   0.109   1.723   1.479 -1.1788 -0.3059  1.7150
 1388TIP3    H225724   0.228   1.807   1.437 -2.0811 -0.5374 -1.5939
 1389TIP3   OH225725   6.536   3.449   6.919  0.6166 -0.0103  0.2004
 1389TIP3    H125726   6.579   3.366   6.943  1.1468  0.0847 -0.3707
 1389TIP3    H225727   6.443   3.430   6.924  0.7277 -0.8080 -0.4170
 1390TIP3   OH225728   2.758   1.189   1.388  0.3063 -0.1699 -0.2665
 1390TIP3    H125729   2.754   1.278   1.353  0.3097 -0.2359 -0.4326
 1390TIP3    H225730   2.739   1.200   1.481 -0.9328 -0.1237 -0.5036
 1391TIP3   OH225731   6.256   5.250   6.897 -0.3669  0.2015 -0.1167
 1391TIP3    H125732   6.203   5.243   6.818 -1.3135  0.7936  0.4420
 1391TIP3    H225733   6.243   5.167   6.943  0.6346 -0.3725 -0.8341
 1392TIP3   OH225734   1.943   1.141   6.742 -0.1946  0.1129  0.5658
 1392TIP3    H125735   1.984   1.140   6.829 -0.8418 -0.2061  0.8725
 1392TIP3    H225736   1.990   1.074   6.693  0.2795  0.4000  0.6139
 1393TIP3   OH225737   2.620   0.448   0.721  1.0006 -0.1765 -0.2869
 1393TIP3    H125738   2.685   0.514   0.745  1.8829 -0.8838 -0.6688
 1393TIP3    H225739   2.620   0.448   0.625  0.1112  0.1192 -0.2955
 1394TIP3   OH225740   4.373   3.740   0.709 -0.0475 -0.3541 -0.0222
 1394TIP3    H125741   4.376   3.835   0.712  1.8793 -0.3521 -0.2786
 1394TIP3    H225742   4.280   3.718   0.717 -0.7520  1.5987 -1.8078
 1395TIP3   OH225743   1.472   5.662   0.481 -0.7585  0.4319 -0.4681
 1395TIP3    H125744   1.557   5.674   0.524 -0.1068 -2.5200 -0.7309
 1395TIP3    H225745   1.470   5.730   0.414  0.7294  1.5015  0.4963
 1396TIP3   OH225746   0.201   5.916   8.243  0.3048  0.0385  0.4791
 1396TIP3    H125747   0.164   5.827   8.249 -2.0630  1.0108  1.9192
 1396TIP3    H225748   0.165   5.951   8.162  0.0819  0.1450  0.6225
 1397TIP3   OH225749   4.565   5.762   8.190  0.2005  0.1487  0.0770
 1397TIP3    H125750   4.571   5.843   8.140  0.9698 -0.1120 -0.2819
 1397TIP3    H225751   4.526   5.787   8.273 -0.7241  0.6684 -0.4950
 1398TIP3   OH225752   3.597   2.504   7.568 -0.6514 -0.1421 -0.0263
 1398TIP3    H125753   3.566   2.503   7.658  1.5812 -0.0894  0.8064
 1398TIP3    H225754   3.541   2.568   7.524 -1.3945  0.2790  1.4678
 1399TIP3   OH225755   1.819   1.350   0.985 -0.2704  0.0816 -0.0756
 1399TIP3    H125756   1.870   1.380   1.060 -0.8943 -0.8155  0.7359
 1399TIP3    H225757   1.737   1.399   0.990 -0.8099 -0.8550  0.5639
 1400TIP3   OH225758   1.025   5.563   1.235 -0.4864  0.1580 -0.3512
 1400TIP3    H125759   0.967   5.498   1.276 -0.7135  1.2007  1.0767
 1400TIP3    H225760   1.111   5.521   1.235 -1.1710 -1.4386 -2.5638
 1401TIP3   OH225761   0.536   3.847   8.422  0.3180  0.2718 -0.3693
 1401TIP3    H125762   0.496   3.768   8.386 -0.0614  0.0694  0.4666
 1401TIP3    H225763   0.464   3.909   8.432  0.4339  0.3606 -0.0705
 1402TIP3   OH225764   0.193   0.932   7.627  0.3004 -0.4765  0.0430
 1402TIP3    H125765   0.217   1.024   7.637 -0.6042 -0.2256 -0.0074
 1402TIP3    H225766   0.218   0.891   7.710 -0.0177 -0.0148  0.3698
 1403TIP3   OH225767   3.814   1.347   8.241  0.7997 -0.2051  0.0934
 1403TIP3    H125768   3.761   1.426   8.225 -0.8647 -0.8399  2.0388
 1403TIP3    H225769   3.891   1.380   8.287  1.0720  0.4944 -0.8296
 1404TIP3   OH225770   3.041   3.497   0.336 -0.0220 -0.0059  0.2454
 1404TIP3    H125771   2.954   3.456   0.334 -0.1211  0.1451  1.0370
 1404TIP3    H225772   3.023   3.591   0.342  0.2027  0.2514 -2.3213
 1405TIP3   OH225773   2.608   5.799   2.182 -0.0952 -0.2236 -0.2008
 1405TIP3    H125774   2.657   5.870   2.223  0.5326 -0.3259 -0.7487
 1405TIP3    H225775   2.521   5.803   2.222 -0.3447  1.3952 -0.8184
 1406TIP3   OH225776   4.400   3.413   8.496 -0.2090 -0.1737 -0.1946
 1406TIP3    H125777   4.427   3.468   8.422 -1.3496  0.5377 -0.0959
 1406TIP3    H225778   4.321   3.370   8.466 -0.6600  0.0916  0.5933
 1407TIP3   OH225779   3.080   4.216   1.857  0.6010 -0.1386 -0.0047
 1407TIP3    H125780   3.121   4.302   1.847 -1.4629  1.1604  1.8301
 1407TIP3    H225781   3.151   4.153   1.845  2.3719  1.8365 -0.3496
 1408TIP3   OH225782   2.445   1.310   1.312  0.0954  0.6658 -0.6050
 1408TIP3    H125783   2.514   1.350   1.364 -0.1472  0.6337 -0.2547
 1408TIP3    H225784   2.491   1.258   1.246  0.4021  0.7560 -0.4595
 1409TIP3   OH225785   3.656   3.045   0.172 -0.2542 -0.7973  0.2851
 1409TIP3    H125786   3.564   3.059   0.195 -0.1725  1.5625 -0.4963
 1409TIP3    H225787   3.653   2.981   0.101 -1.3811 -0.2008 -0.2400
 1410TIP3   OH225788   5.059   1.735   6.268 -0.7053  0.1743 -0.3168
 1410TIP3    H125789   5.072   1.773   6.181  1.7272 -0.5959 -0.3609
 1410TIP3    H225790   5.046   1.642   6.251 -2.1531  0.2851  0.0660
 1411TIP3   OH225791   1.088   5.869   7.874 -0.3560  0.5163 -0.2194
 1411TIP3    H125792   1.077   5.948   7.926 -0.7488  0.5920 -0.4127
 1411TIP3    H225793   0.999   5.845   7.847 -0.1957  0.2720 -0.5476
 1412TIP3   OH225794   3.472   4.727   6.344  0.1706  0.2914 -0.4272
 1412TIP3    H125795   3.498   4.812   6.381 -0.4480 -0.3169  1.5437
 1412TIP3    H225796   3.479   4.739   6.249 -3.1809  3.6532 -0.4618
 1413TIP3   OH225797   2.903   2.662   6.558  0.6772  0.2386 -0.0338
 1413TIP3    H125798   2.881   2.715   6.482 -2.0657 -1.4648 -0.5853
 1413TIP3    H225799   2.879   2.572   6.532  0.2070 -0.4758  2.5956
 1414TIP3   OH225800   3.196   5.761   0.572 -0.2622  0.2748  0.3762
 1414TIP3    H125801   3.192   5.672   0.607  1.0178  0.6249  1.4944
 1414TIP3    H225802   3.170   5.817   0.646 -0.0427  0.8954 -0.0064
 1415TIP3   OH225803   3.019   2.423   6.806  0.3240 -0.2217 -0.7430
 1415TIP3    H125804   2.931   2.385   6.806  0.8517 -1.5602  0.7646
 1415TIP3    H225805   3.022   2.474   6.887  1.2466 -1.0113 -0.2635
 1416TIP3   OH225806   1.089   2.398   8.050  0.1041 -0.8236 -0.0989
 1416TIP3    H125807   1.038   2.443   8.117  0.3497 -0.4893 -0.1376
 1416TIP3    H225808   1.170   2.448   8.043  0.8548 -1.9008  0.6355
 1417TIP3   OH225809   1.316   5.702   7.424  0.4609  0.1074 -0.2110
 1417TIP3    H125810   1.382   5.686   7.492  1.2425  0.3948 -0.8851
 1417TIP3    H225811   1.238   5.655   7.455  1.7124 -2.4166 -0.6202
 1418TIP3   OH225812   5.400   6.412   7.521  0.0589 -0.1851  0.2840
 1418TIP3    H125813   5.459   6.462   7.465 -1.6788  1.0930 -0.4947
 1418TIP3    H225814   5.323   6.395   7.466 -0.0173 -2.5210  0.9921
 1419TIP3   OH225815   3.892   2.275   6.613 -0.2530  0.5492 -0.2195
 1419TIP3    H125816   3.954   2.240   6.676 -1.2327 -1.1705 -0.1309
 1419TIP3    H225817   3.920   2.365   6.599  1.5362  0.1859  0.6835
 1420TIP3   OH225818   4.522   1.476   7.240  0.3459 -0.1218 -0.2473
 1420TIP3    H125819   4.596   1.434   7.195 -0.1320 -1.7491  0.4294
 1420TIP3    H225820   4.554   1.489   7.329 -0.8032 -2.6595  0.6000
 1421TIP3   OH225821   2.197   5.132   8.073  0.0934  0.3541  0.0640
 1421TIP3    H125822   2.258   5.067   8.037 -1.4238 -0.3897 -1.3054
 1421TIP3    H225823   2.142   5.082   8.133 -0.4258  0.5945 -0.2101
 1422TIP3   OH225824   6.226   1.211   6.838  0.1141 -0.1389 -0.4912
 1422TIP3    H125825   6.312   1.230   6.800 -0.7239  1.6520 -1.5720
 1422TIP3    H225826   6.227   1.256   6.922  0.0302  0.3291 -0.7420
 1423TIP3   OH225827   2.816   0.271   1.780 -0.2424  0.1577  1.2862
 1423TIP3    H125828   2.802   0.180   1.755  3.1700 -0.4752  1.2374
 1423TIP3    H225829   2.800   0.272   1.875  2.9407 -1.4133  1.9701
 1424TIP3   OH225830   6.791   6.260   1.427  0.2506  0.1040  0.3297
 1424TIP3    H125831   6.847   6.322   1.380  0.4373 -0.7158 -0.5748
 1424TIP3    H225832   6.808   6.277   1.519  0.9897  0.7746  0.0835
 1425TIP3   OH225833   1.356   4.001   6.928  0.0382 -0.3184  0.4045
 1425TIP3    H125834   1.401   4.079   6.897  4.1457 -2.6639 -0.1961
 1425TIP3    H225835   1.278   3.995   6.872  0.8744  2.0045 -1.1540
 1426TIP3   OH225836   6.704   2.779   6.600  0.6266 -0.2982 -0.7008
 1426TIP3    H125837   6.730   2.703   6.549 -0.9094  0.0064 -2.0235
 1426TIP3    H225838   6.631   2.817   6.551  0.1160  0.9301  0.9216
 1427TIP3   OH225839   1.684   4.930   1.750  0.6186 -0.3473  0.2148
 1427TIP3    H125840   1.726   4.852   1.786 -0.5106 -0.7042  0.8016
 1427TIP3    H225841   1.627   4.960   1.820 -1.2862 -0.7720 -1.0903
 1428TIP3   OH225842   6.234   1.762   7.449 -0.0841 -0.6068 -0.2453
 1428TIP3    H125843   6.194   1.832   7.398  1.3167  0.9044  0.6171
 1428TIP3    H225844   6.190   1.765   7.534  0.4429 -0.2947  0.0234
 1429TIP3   OH225845   4.147   6.785   1.219 -0.2188  0.1376 -0.4880
 1429TIP3    H125846   4.097   6.723   1.165 -1.5351  0.5783  0.1723
 1429TIP3    H225847   4.093   6.796   1.298  1.7365 -0.6661  1.0455
 1430TIP3   OH225848   4.301   1.595   7.068 -0.8509  0.1970  0.1235
 1430TIP3    H125849   4.365   1.528   7.044  0.1382  1.7848 -2.0068
 1430TIP3    H225850   4.302   1.597   7.164  0.9797 -1.0572  0.1674
 1431TIP3   OH225851   2.618   5.117   0.360  0.0771  0.1658  0.3646
 1431TIP3    H125852   2.672   5.196   0.362 -1.7437  1.4694  1.4694
 1431TIP3    H225853   2.577   5.114   0.447 -0.3160 -1.7037  0.1500
 1432TIP3   OH225854   0.607   4.180   1.334 -0.1163 -0.3719 -0.6898
 1432TIP3    H125855   0.540   4.181   1.401 -0.1379 -0.2251 -0.7127
 1432TIP3    H225856   0.683   4.221   1.375  0.1643 -1.1066 -0.4556
 1433TIP3   OH225857   3.293   1.548   6.240  0.0732  0.2119 -0.1922
 1433TIP3    H125858   3.326   1.634   6.216  1.8561 -0.3696  0.0085
 1433TIP3    H225859   3.217   1.566   6.296  1.3227  1.7066  1.1249
 1434TIP3   OH225860   0.996   1.979   1.590 -0.1188 -0.2506 -0.3214
 1434TIP3    H125861   0.925   1.921   1.561 -0.4920 -0.3377  0.7161
 1434TIP3    H225862   1.067   1.964   1.528 -0.6416 -0.9397 -0.7601
 1435TIP3   OH225863   5.171   4.684   2.185 -0.0968 -0.5253  0.4916
 1435TIP3    H125864   5.185   4.606   2.239  0.6647 -0.8461 -0.1475
 1435TIP3    H225865   5.078   4.680   2.160 -0.2545 -0.7980  1.1083
 1436TIP3   OH225866   4.011   2.736   8.249 -0.0467 -0.6701 -0.3207
 1436TIP3    H125867   3.978   2.823   8.273  0.8166 -0.5273  0.3967
 1436TIP3    H225868   3.936   2.677   8.262  0.0660 -0.4341  1.7608
 1437TIP3   OH225869   0.399   0.900   0.004 -0.6103  0.6656  0.1206
 1437TIP3    H125870   0.360   0.944   0.080 -0.0232  0.5516  0.4980
 1437TIP3    H225871   0.475   0.955  -0.018 -2.0730  2.0243 -1.8550
 1438TIP3   OH225872   1.075   5.743   1.542  0.0863 -0.4805  0.4690
 1438TIP3    H125873   1.144   5.785   1.593 -0.9171  0.6225  0.9592
 1438TIP3    H225874   1.087   5.649   1.558  1.3381 -0.2997  0.6880
 1439TIP3   OH225875   0.352   3.497   6.619 -0.3465  0.5248 -0.0631
 1439TIP3    H125876   0.356   3.430   6.552 -0.6206  1.0142 -0.5802
 1439TIP3    H225877   0.270   3.543   6.603 -0.8842  0.0568  1.1910
 1440TIP3   OH225878   0.754   6.697   7.303 -0.2785 -0.3977 -0.4685
 1440TIP3    H125879   0.702   6.777   7.311 -1.0170 -0.8110 -1.0566
 1440TIP3    H225880   0.822   6.706   7.370 -1.7839 -0.3663  1.1210
 1441TIP3   OH225881   3.147   3.841   0.948 -0.3557  0.1203 -0.1339
 1441TIP3    H125882   3.099   3.762   0.923 -0.2163 -0.2574  0.7541
 1441TIP3    H225883   3.193   3.817   1.028  1.9744  0.2031 -1.3660
 1442TIP3   OH225884   2.394   1.904   1.945 -0.3074 -0.2981  0.4641
 1442TIP3    H125885   2.393   1.907   2.040 -0.4940 -0.5927  0.4736
 1442TIP3    H225886   2.487   1.902   1.922 -0.2631 -1.1058  0.6767
 1443TIP3   OH225887   6.274   4.971   7.391 -0.7042  0.2947  0.3436
 1443TIP3    H125888   6.337   4.907   7.356 -2.6230 -1.1221 -0.7470
 1443TIP3    H225889   6.223   4.921   7.455 -1.3935  1.1047  0.4340
 1444TIP3   OH225890   4.610   1.823   7.467 -0.5974 -0.1013 -0.1486
 1444TIP3    H125891   4.642   1.819   7.377 -0.5277 -0.6179 -0.1082
 1444TIP3    H225892   4.546   1.894   7.468  0.1827  0.6068 -0.3496
 1445TIP3   OH225893   5.778   0.141   8.482  0.0576 -0.2769  0.4538
 1445TIP3    H125894   5.865   0.101   8.472 -0.2801 -1.1784  0.9409
 1445TIP3    H225895   5.768   0.151   8.577 -0.7060 -0.9845  0.4594
 1446TIP3   OH225896   5.442   2.130   1.468 -0.2854 -0.1111  0.3621
 1446TIP3    H125897   5.476   2.093   1.386 -0.9595  0.9901 -0.4457
 1446TIP3    H225898   5.446   2.225   1.455  0.3342  0.0956  1.9282
 1447TIP3   OH225899   6.698   0.083   7.475 -0.2352  0.2224 -0.0138
 1447TIP3    H125900   6.641   0.075   7.399 -0.0125 -0.0416 -0.1535
 1447TIP3    H225901   6.782   0.111   7.439  0.1416 -0.8202  0.0277
 1448TIP3   OH225902   1.367   0.886   8.221 -0.3833  0.2391  0.0839
 1448TIP3    H125903   1.341   0.816   8.280 -0.1853  1.3115  1.5032
 1448TIP3    H225904   1.460   0.869   8.203 -0.9909 -1.4171 -1.8926
 1449TIP3   OH225905   4.705   4.374   0.035 -0.1470 -0.0048  0.2923
 1449TIP3    H125906   4.665   4.288   0.024 -0.1032 -0.0049  0.1374
 1449TIP3    H225907   4.633   4.436   0.023 -0.1279 -0.0103  0.1535
 1450TIP3   OH225908   3.325   4.397   7.913 -0.3172  0.6217  0.0966
 1450TIP3    H125909   3.329   4.332   7.982 -2.0292 -1.9250 -1.9808
 1450TIP3    H225910   3.410   4.392   7.869  0.0663  0.8527  0.7994
 1451TIP3   OH225911   4.252   6.375   7.060 -0.6617  0.2915 -0.3922
 1451TIP3    H125912   4.187   6.338   7.000 -0.9427 -1.1321  0.7360
 1451TIP3    H225913   4.209   6.452   7.097 -1.9419 -0.8605  0.6477
 1452TIP3   OH225914   3.338   3.622   7.337 -0.3405  0.5645 -0.3846
 1452TIP3    H125915   3.393   3.699   7.352 -0.6516  0.8816 -0.8688
 1452TIP3    H225916   3.283   3.645   7.262  0.6412 -0.7142 -1.5354
 1453TIP3   OH225917   0.140   6.441   0.195 -0.3146  0.3469  0.0967
 1453TIP3    H125918   0.141   6.531   0.162  2.0760  0.2679 -0.2637
 1453TIP3    H225919   0.147   6.450   0.290 -1.1716  0.5462  0.1424
 1454TIP3   OH225920   5.011   5.075   7.070  0.7448 -0.2338 -0.2055
 1454TIP3    H125921   5.031   5.161   7.109  0.3234  1.1220 -2.7367
 1454TIP3    H225922   5.075   5.016   7.108  1.4349  1.3221  1.1898
 1455TIP3   OH225923   1.075   3.368   7.150 -0.1607  1.0482 -0.0186
 1455TIP3    H125924   1.024   3.301   7.196  0.1225  0.8648  0.0276
 1455TIP3    H225925   1.108   3.324   7.072 -0.8024  1.4126 -0.5076
 1456TIP3   OH225926   5.701   1.716   6.191  0.0111  0.2902  0.1026
 1456TIP3    H125927   5.786   1.697   6.231 -0.6903 -2.0710  0.6384
 1456TIP3    H225928   5.684   1.808   6.213  1.3688  0.1499  1.9995
 1457TIP3   OH225929   2.452   3.581   0.886  0.4073  0.0065  0.0473
 1457TIP3    H125930   2.420   3.494   0.907  1.2694 -0.3613 -0.1359
 1457TIP3    H225931   2.400   3.640   0.942  0.2884 -0.6716  0.6626
 1458TIP3   OH225932   3.666   1.289   1.864  0.5249 -0.2438  0.1901
 1458TIP3    H125933   3.655   1.200   1.898  2.3235 -0.6210 -0.1071
 1458TIP3    H225934   3.709   1.337   1.935  0.2240  0.1883  0.0822
 1459TIP3   OH225935   2.207   3.132   0.407  0.1936 -0.4210  0.2789
 1459TIP3    H125936   2.150   3.135   0.484 -0.8924 -0.2689 -0.5143
 1459TIP3    H225937   2.170   3.197   0.347  0.8313 -0.7644 -0.5026
 1460TIP3   OH225938   1.375   2.189   1.368  0.5106  0.2622  0.0072
 1460TIP3    H125939   1.380   2.266   1.311 -0.6734  1.0348  0.9063
 1460TIP3    H225940   1.402   2.220   1.454 -0.5649 -0.1534  0.5171
 1461TIP3   OH225941   6.621   2.170   8.459 -0.1155  0.1821  0.1484
 1461TIP3    H125942   6.711   2.154   8.432  0.3852  0.2027  1.6988
 1461TIP3    H225943   6.569   2.157   8.380  1.1399 -0.8445 -0.5389
 1462TIP3   OH225944   3.983   2.148   0.551 -0.0739 -0.7872  0.4293
 1462TIP3    H125945   3.911   2.197   0.591 -0.7081 -0.4510 -1.0301
 1462TIP3    H225946   4.003   2.197   0.471  0.6152 -1.8434 -0.0616
 1463TIP3   OH225947   2.378   5.642   6.737  0.7132 -0.2379 -0.2554
 1463TIP3    H125948   2.346   5.552   6.728  0.4740 -0.0920 -0.9261
 1463TIP3    H225949   2.318   5.682   6.801  1.1506 -0.6993  0.4636
 1464TIP3   OH225950   5.024   0.044   1.455 -0.1251 -0.5784 -0.7039
 1464TIP3    H125951   4.961   0.083   1.394 -1.3110 -1.8989 -0.3915
 1464TIP3    H225952   4.974   0.033   1.537  0.4206 -1.8585 -0.5129
 1465TIP3   OH225953   2.472   6.336   7.511  0.2197 -0.2084  0.1906
 1465TIP3    H125954   2.534   6.388   7.562 -0.3685 -0.4112  1.1482
 1465TIP3    H225955   2.498   6.245   7.527  1.0855 -0.2475 -1.2719
 1466TIP3   OH225956   4.683   6.429   1.709  0.0768 -0.5715  0.0408
 1466TIP3    H125957   4.696   6.521   1.688 -2.2159  0.2226  1.6830
 1466TIP3    H225958   4.771   6.392   1.717  1.0604  1.7426  0.4677
 1467TIP3   OH225959   0.435   4.741   6.986  0.0774  0.1618 -0.7375
 1467TIP3    H125960   0.517   4.736   7.036 -0.1552 -0.2565 -0.3985
 1467TIP3    H225961   0.371   4.695   7.039  0.0429 -1.1779 -1.8836
 1468TIP3   OH225962   6.763   5.714   8.379 -0.6266  0.5330  0.1154
 1468TIP3    H125963   6.752   5.772   8.304  0.8831  0.8974  0.1508
 1468TIP3    H225964   6.677   5.675   8.391 -0.9212  0.4470 -1.8221
 1469TIP3   OH225965   0.188   4.280   1.315  0.5396  0.2079 -0.2705
 1469TIP3    H125966   0.133   4.230   1.255 -1.7432  1.8773  0.3241
 1469TIP3    H225967   0.178   4.236   1.399 -0.6120  0.9678  0.0157
 1470TIP3   OH225968   0.267   1.572   1.813 -0.1563  0.3540  0.3119
 1470TIP3    H125969   0.362   1.572   1.824 -0.0322  0.7650 -0.6820
 1470TIP3    H225970   0.239   1.655   1.850 -0.4449 -0.7833  2.8707
 1471TIP3   OH225971   3.602   3.190   7.875  0.1877 -0.7796 -0.4912
 1471TIP3    H125972   3.557   3.181   7.790 -0.7887  0.4909 -0.1500
 1471TIP3    H225973   3.537   3.232   7.932  1.2320 -0.5052  0.5411
 1472TIP3   OH225974   5.199   5.165   7.294  0.2796 -0.3002  0.3209
 1472TIP3    H125975   5.150   5.214   7.359  0.4645 -0.9600  0.9707
 1472TIP3    H225976   5.228   5.087   7.340  0.8995 -0.5033 -0.3978
 1473TIP3   OH225977   4.261   4.150   8.451 -0.1977  0.6096  0.2963
 1473TIP3    H125978   4.175   4.109   8.459  0.1968 -0.1886  0.5112
 1473TIP3    H225979   4.261   4.189   8.363  0.2417 -1.8582 -0.8952
 1474TIP3   OH225980   5.817   2.892   6.649 -0.1661 -0.4344 -0.2256
 1474TIP3    H125981   5.846   2.883   6.559  1.2505 -0.8970  0.2496
 1474TIP3    H225982   5.802   2.802   6.678  1.0862 -0.4326  0.5093
 1475TIP3   OH225983   4.433   2.602   8.219 -0.3532 -0.2557  0.7675
 1475TIP3    H125984   4.357   2.594   8.276 -0.2228 -1.1170  0.8343
 1475TIP3    H225985   4.479   2.680   8.251 -1.8262  0.9887 -0.0468
 1476TIP3   OH225986   6.630   2.445   7.565  0.2314 -0.9475  0.4346
 1476TIP3    H125987   6.586   2.529   7.572  1.5208 -0.2932  0.9804
 1476TIP3    H225988   6.587   2.401   7.491  0.0377  0.4840 -0.3278
 1477TIP3   OH225989   1.510   1.945   7.758  0.1932  0.1118 -0.1125
 1477TIP3    H125990   1.424   1.987   7.758 -0.3183 -0.5697 -4.0035
 1477TIP3    H225991   1.573   2.017   7.756 -0.4274  0.6568 -0.1581
 1478TIP3   OH225992   3.772   6.135   7.942 -0.5872 -0.0051  0.1557
 1478TIP3    H125993   3.789   6.204   8.005  2.1949 -0.1813 -0.2543
 1478TIP3    H225994   3.711   6.076   7.987 -1.5041  1.6840  1.2344
 1479TIP3   OH225995   4.518   1.750   8.440 -0.4421 -0.3557  0.4770
 1479TIP3    H125996   4.558   1.689   8.378 -1.4730 -0.5177 -0.0441
 1479TIP3    H225997   4.592   1.783   8.491  0.3905 -0.5115 -0.5734
 1480TIP3   OH225998   1.337   1.170   8.383 -0.2962 -0.0497  0.3905
 1480TIP3    H125999   1.364   1.109   8.315 -0.6399 -0.5139  0.6584
 1480TIP3    H226000   1.406   1.164   8.449 -1.0394 -1.2885  1.1083
 1481TIP3   OH226001   2.197   2.939   1.533 -0.2394 -1.1967  0.1109
 1481TIP3    H126002   2.213   2.916   1.441  2.6509  3.4680 -0.8856
 1481TIP3    H226003   2.107   2.971   1.534 -1.0445 -3.2208 -0.4496
 1482TIP3   OH226004   3.651   2.745   0.693 -0.2527  0.0930 -0.3435
 1482TIP3    H126005   3.634   2.802   0.769  0.1368 -1.4060  0.9014
 1482TIP3    H226006   3.712   2.679   0.725  2.0964  0.9622 -2.7080
 1483TIP3   OH226007   3.327   1.194   0.329  0.2276  0.0814  0.3957
 1483TIP3    H126008   3.281   1.275   0.351  0.5220  0.8810 -1.6852
 1483TIP3    H226009   3.262   1.141   0.283  0.2431 -0.5889  1.1171
 1484TIP3   OH226010   1.205   4.428   8.270 -0.0796 -0.5797 -0.5675
 1484TIP3    H126011   1.136   4.486   8.302 -0.9228 -1.1083 -1.3995
 1484TIP3    H226012   1.210   4.447   8.176 -1.0538 -2.5353 -1.0573
 1485TIP3   OH226013   6.175   5.255   0.859  0.1755  0.8687  0.7402
 1485TIP3    H126014   6.097   5.306   0.837 -1.3761 -0.6104  2.4900
 1485TIP3    H226015   6.206   5.291   0.942  1.8485  1.9004 -0.2688
 1486TIP3   OH226016   5.856   0.386   1.950  0.0214  0.1629  0.4904
 1486TIP3    H126017   5.764   0.362   1.936 -0.4083  0.5295  2.3738
 1486TIP3    H226018   5.852   0.469   1.997  1.3034  0.0583  0.8145
 1487TIP3   OH226019   0.050   4.584   7.905  0.2035 -0.0509  0.5237
 1487TIP3    H126020   0.018   4.595   7.994 -1.4656  0.3265 -0.0834
 1487TIP3    H226021  -0.028   4.569   7.852  1.0444  0.7295 -1.0378
 1488TIP3   OH226022   4.729   0.207   8.067 -0.3947 -0.2809 -0.3130
 1488TIP3    H126023   4.712   0.221   8.161  2.1728 -0.0378  0.1852
 1488TIP3    H226024   4.768   0.289   8.037  1.5692 -1.3333 -0.8247
 1489TIP3   OH226025   0.363   6.293   0.431 -0.4650 -0.1952 -0.2892
 1489TIP3    H126026   0.313   6.213   0.451  0.4594 -0.6913  0.1412
 1489TIP3    H226027   0.300   6.364   0.438 -1.9059 -1.0755 -3.0806
 1490TIP3   OH226028   5.759   1.935   7.390  0.3427 -0.0823  0.1163
 1490TIP3    H126029   5.749   2.002   7.458  2.5789  0.8668 -0.4012
 1490TIP3    H226030   5.691   1.956   7.326  0.9563  1.7039  0.0007
 1491TIP3   OH226031   3.616   0.952   7.697 -0.8285 -0.2626  0.1642
 1491TIP3    H126032   3.646   1.042   7.710 -0.3833 -0.5370  1.1714
 1491TIP3    H226033   3.604   0.944   7.603 -0.5597  0.7508  0.0275
 1492TIP3   OH226034   1.454   5.434   0.997  0.0511 -0.6258 -0.2750
 1492TIP3    H126035   1.418   5.500   0.938  0.7946 -0.3730 -0.4575
 1492TIP3    H226036   1.506   5.377   0.941 -1.1212 -1.7951 -0.2339
 1493TIP3   OH226037   1.834   5.752   7.984 -0.0399 -0.2626  0.2432
 1493TIP3    H126038   1.763   5.816   7.990 -0.5584 -0.6346 -1.3903
 1493TIP3    H226039   1.885   5.766   8.063 -2.1487 -0.2685  1.6990
 1494TIP3   OH226040   0.701   5.159   0.783  0.4858  0.2354  0.4026
 1494TIP3    H126041   0.794   5.178   0.795  0.3368  0.6431  0.9295
 1494TIP3    H226042   0.658   5.200   0.857 -0.0935 -0.1695  0.3009
 1495TIP3   OH226043   3.229   5.850   8.049 -0.3260 -0.3824  0.3923
 1495TIP3    H126044   3.275   5.906   8.112 -0.2135  0.0613 -0.0751
 1495TIP3    H226045   3.288   5.776   8.035  0.5006  0.4170 -0.5675
 1496TIP3   OH226046   2.099   4.364   8.585  0.0103  0.1779  0.0586
 1496TIP3    H126047   2.088   4.456   8.611 -0.2059  0.2486 -0.2772
 1496TIP3    H226048   2.100   4.316   8.668  0.1038  0.4800  0.2365
 1497TIP3   OH226049   5.080   3.206   0.039  0.1359  0.5334  0.2815
 1497TIP3    H126050   4.998   3.240   0.073  0.0103  1.7308 -1.1225
 1497TIP3    H226051   5.054   3.147  -0.032  0.4639  2.1632 -1.2647
 1498TIP3   OH226052   5.105   3.209   7.904 -0.1204  0.3492 -0.0489
 1498TIP3    H126053   5.021   3.165   7.898  0.3809 -1.0795  2.1432
 1498TIP3    H226054   5.114   3.256   7.821 -2.0811 -1.1938 -1.2220
 1499TIP3   OH226055   2.499   4.716   1.681 -0.0440 -0.0442 -0.6053
 1499TIP3    H126056   2.438   4.644   1.670 -0.6113  0.1125  1.1935
 1499TIP3    H226057   2.479   4.753   1.767  1.0463  1.4900 -0.9460
 1500TIP3   OH226058   4.274   6.598   8.719 -0.0966  0.4997  0.1795
 1500TIP3    H126059   4.307   6.509   8.733 -0.8792  0.0671 -0.5924
 1500TIP3    H226060   4.341   6.640   8.666  1.0663  0.9295  1.8979
 1501TIP3   OH226061   0.481   6.184   6.557  0.4793  0.1099 -0.0663
 1501TIP3    H126062   0.461   6.242   6.631  2.6013 -0.7670  1.2861
 1501TIP3    H226063   0.397   6.143   6.536 -0.4384  1.3457  0.9913
 1502TIP3   OH226064   1.461   6.749   1.432  0.0574 -0.3857 -0.4394
 1502TIP3    H126065   1.483   6.694   1.357  2.6139  0.9375 -0.7884
 1502TIP3    H226066   1.371   6.777   1.416  0.3242 -0.6431 -2.7212
 1503TIP3   OH226067   4.207   4.866   0.084  0.4127  0.6907 -0.4353
 1503TIP3    H126068   4.136   4.806   0.061  0.4856  0.3271  0.2530
 1503TIP3    H226069   4.281   4.837   0.031  0.1982  0.7236 -0.7521
 1504TIP3   OH226070   5.742   5.535   6.545  0.3662 -1.0437  0.2219
 1504TIP3    H126071   5.838   5.532   6.544  0.3476 -1.8969 -0.1968
 1504TIP3    H226072   5.718   5.560   6.456  0.1979 -0.4875  0.4182
 1505TIP3   OH226073   0.563   0.047   8.109  0.8076  0.4190  0.7285
 1505TIP3    H126074   0.480   0.032   8.065  2.2149  0.3683 -2.2084
 1505TIP3    H226075   0.560   0.139   8.135  0.7994  1.2561 -1.9023
 1506TIP3   OH226076   2.371   1.994   0.147 -0.1054  0.0198 -0.4893
 1506TIP3    H126077   2.298   2.052   0.126 -1.7872 -1.7050  0.2127
 1506TIP3    H226078   2.446   2.032   0.102 -1.4592  1.7754 -1.4108
 1507TIP3   OH226079   5.060   1.906   1.559 -0.0298  0.1555 -0.3937
 1507TIP3    H126080   5.118   1.907   1.634  0.5696  1.1111 -0.8554
 1507TIP3    H226081   5.072   1.992   1.518 -0.0308 -0.4908 -1.8042
 1508TIP3   OH226082   0.864   3.355   7.566 -0.2945  0.6025  0.3516
 1508TIP3    H126083   0.855   3.297   7.642 -1.5247  2.2280  1.4995
 1508TIP3    H226084   0.799   3.322   7.503  0.6336 -0.6627  0.0080
 1509TIP3   OH226085   5.992   3.400   8.614  0.7175  0.1753  0.1558
 1509TIP3    H126086   5.909   3.381   8.658  1.0110  2.4462  1.8754
 1509TIP3    H226087   5.970   3.403   8.521 -1.6695  2.8306  0.6622
 1510TIP3   OH226088   0.069   3.902   0.206 -0.4958 -0.3967  0.6173
 1510TIP3    H126089   0.048   3.818   0.247 -1.9763 -0.8415 -0.9559
 1510TIP3    H226090   0.011   3.965   0.248 -0.2418 -0.3856  0.9515
 1511TIP3   OH226091   3.716   2.733   7.123  0.1148  0.0652 -0.2451
 1511TIP3    H126092   3.688   2.824   7.119 -2.2247 -0.5955 -0.8737
 1511TIP3    H226093   3.789   2.732   7.185 -0.0177  2.2915  0.0132
 1512TIP3   OH226094   4.427   6.483   0.805 -0.6883 -0.0093  0.6442
 1512TIP3    H126095   4.434   6.453   0.715 -2.2639 -0.4947  0.6481
 1512TIP3    H226096   4.457   6.574   0.803  0.7349 -0.4686 -0.0525
 1513TIP3   OH226097   2.588   6.756   8.180  0.8987 -0.5155  0.2750
 1513TIP3    H126098   2.494   6.767   8.194  0.5493 -1.5081 -1.0529
 1513TIP3    H226099   2.600   6.770   8.086  2.0068 -0.8412  0.3519
 1514TIP3   OH226100   4.154   5.724   8.509 -0.5150 -0.6359 -0.3872
 1514TIP3    H126101   4.163   5.699   8.601 -0.4460  2.0800  0.4202
 1514TIP3    H226102   4.060   5.741   8.498 -1.2741 -4.6803 -1.9949
 1515TIP3   OH226103   5.627   4.062   8.116 -0.3579  0.1174 -0.2858
 1515TIP3    H126104   5.593   4.146   8.145  0.0490  0.8697 -1.8521
 1515TIP3    H226105   5.549   4.008   8.101 -0.5938 -0.0455  1.3815
 1516TIP3   OH226106   4.449   4.034   0.723 -0.0363 -0.3858 -0.2946
 1516TIP3    H126107   4.488   4.101   0.778 -1.1123 -1.0855  1.3974
 1516TIP3    H226108   4.399   4.083   0.657  1.3556  0.4618 -0.7730
 1517TIP3   OH226109   0.146   2.384   0.241 -0.2771 -0.5455 -0.2340
 1517TIP3    H126110   0.077   2.318   0.245 -0.1412 -0.6577  3.0920
 1517TIP3    H226111   0.112   2.457   0.293  0.1995  1.4581 -2.5488
 1518TIP3   OH226112   5.835   3.038   7.081  0.0384  0.3044  0.1604
 1518TIP3    H126113   5.849   3.123   7.123  1.9771 -0.2743  0.7858
 1518TIP3    H226114   5.888   3.041   7.002  0.0054 -0.2495  0.1090
 1519TIP3   OH226115   1.254   3.020   7.090 -0.0539  0.5902  0.0947
 1519TIP3    H126116   1.171   3.066   7.080 -0.1106  0.2857 -0.9365
 1519TIP3    H226117   1.234   2.950   7.152 -0.0164  1.7808  1.5159
 1520TIP3   OH226118   5.275   0.226   8.317  1.2461 -0.1963 -0.4259
 1520TIP3    H126119   5.284   0.234   8.222 -1.7908 -1.6735 -0.9503
 1520TIP3    H226120   5.313   0.140   8.338 -0.7636 -1.2471 -0.8522
 1521TIP3   OH226121   6.692   4.316   6.907  0.2613  0.2051  0.0647
 1521TIP3    H126122   6.760   4.259   6.943 -1.8410 -2.1844  0.5468
 1521TIP3    H226123   6.681   4.385   6.973  2.4528  0.9479 -0.2528
 1522TIP3   OH226124   3.856   0.164   8.280  0.1474  0.6759  0.0209
 1522TIP3    H126125   3.868   0.161   8.375  0.2424  0.0467 -0.0069
 1522TIP3    H226126   3.944   0.152   8.245 -0.2201 -2.1099 -0.1637
 1523TIP3   OH226127   1.186   4.125   8.214  0.3960 -0.0601 -0.1375
 1523TIP3    H126128   1.159   4.213   8.242  0.9542  0.7589 -2.0036
 1523TIP3    H226129   1.279   4.135   8.192  0.1726 -0.8083 -1.5259
 1524TIP3   OH226130   5.611   5.902   2.028 -0.2745  0.1637 -0.3818
 1524TIP3    H126131   5.698   5.905   2.068 -0.2224  2.1802 -0.5496
 1524TIP3    H226132   5.550   5.907   2.102 -0.3159 -1.5739 -0.2375
 1525TIP3   OH226133   1.677   0.070   1.486 -0.1920 -0.6571  0.0281
 1525TIP3    H126134   1.639   0.030   1.564 -2.1434  2.8330  1.0647
 1525TIP3    H226135   1.631   0.030   1.413 -1.6534 -0.7476  0.9686
 1526TIP3   OH226136   1.121   6.068   8.084  0.2379  0.1460 -0.4090
 1526TIP3    H126137   1.193   6.024   8.128  0.9191  1.8145  0.2450
 1526TIP3    H226138   1.048   6.062   8.146  0.1595 -0.5296 -0.5657
 1527TIP3   OH226139   2.140   6.654   7.147  0.7694 -0.3472  0.3011
 1527TIP3    H126140   2.068   6.640   7.087  0.9525 -1.4150  0.3077
 1527TIP3    H226141   2.196   6.719   7.104  0.8622 -1.0453 -0.6590
 1528TIP3   OH226142   6.566   2.482   7.145 -0.2833 -0.3432 -0.5230
 1528TIP3    H126143   6.509   2.555   7.167 -1.3378 -1.1158 -0.6231
 1528TIP3    H226144   6.510   2.421   7.097  0.3949 -1.5306  0.1418
 1529TIP3   OH226145   1.621   5.887   8.658  0.8536  0.1822 -0.4067
 1529TIP3    H126146   1.602   5.954   8.725  1.1683 -0.2071  0.0810
 1529TIP3    H226147   1.711   5.860   8.677  0.6249 -0.6032 -0.4015
 1530TIP3   OH226148   2.480   1.862   0.610  0.1507 -0.3431  0.0679
 1530TIP3    H126149   2.460   1.956   0.610  0.4496 -0.2582  1.3847
 1530TIP3    H226150   2.524   1.847   0.694 -1.9430 -2.0760  0.9725
 1531TIP3   OH226151   2.321   4.579   1.397 -0.5783 -0.1701  0.0689
 1531TIP3    H126152   2.360   4.508   1.346 -3.8650 -1.9325 -0.2523
 1531TIP3    H226153   2.319   4.547   1.486 -0.2250  0.4358  0.3062
 1532TIP3   OH226154   6.641   1.835   0.236  0.4132 -0.3826  0.3592
 1532TIP3    H126155   6.619   1.916   0.282 -1.2356  0.4316 -1.7141
 1532TIP3    H226156   6.679   1.864   0.154  0.3848 -1.7361 -0.1561
 1533TIP3   OH226157   1.704   6.732   1.200 -0.1083  0.3179 -0.3870
 1533TIP3    H126158   1.618   6.725   1.158  0.2850  0.0031 -1.1373
 1533TIP3    H226159   1.758   6.779   1.137 -0.3985  2.9410  1.1172
 1534TIP3   OH226160   5.493   3.077   8.159  0.0438 -0.4651  0.8455
 1534TIP3    H126161   5.485   2.982   8.155 -1.7295 -0.3751  1.3164
 1534TIP3    H226162   5.479   3.106   8.069 -0.0181 -0.6101  0.8089
 1535TIP3   OH226163   0.051   4.872   0.463 -0.2451 -0.2796  0.5893
 1535TIP3    H126164   0.020   4.895   0.375 -1.6385  0.9257  1.3481
 1535TIP3    H226165   0.059   4.776   0.461 -1.5161 -0.3982 -0.4658
 1536TIP3   OH226166   2.320   2.366   0.504  0.3977 -0.1925 -0.5957
 1536TIP3    H126167   2.268   2.409   0.436 -1.1383 -1.2175 -0.1474
 1536TIP3    H226168   2.356   2.288   0.461  2.0340  0.7723 -1.0396
 1537TIP3   OH226169   0.888   1.933   1.833  0.8841 -0.2016 -0.2403
 1537TIP3    H126170   0.927   1.972   1.754  0.2426 -0.1954 -0.5611
 1537TIP3    H226171   0.849   2.008   1.879  0.4223 -0.3346 -0.4081
 1538TIP3   OH226172   2.936   4.621   7.581  0.0066  0.2190  0.2378
 1538TIP3    H126173   2.934   4.717   7.584  0.8399  0.2464  0.1767
 1538TIP3    H226174   3.022   4.598   7.618 -0.7457 -0.5634  1.5901
 1539TIP3   OH226175   6.347   2.119   1.519 -0.0164 -0.1608  0.0940
 1539TIP3    H126176   6.293   2.197   1.506  1.5032  0.8617 -0.3502
 1539TIP3    H226177   6.395   2.136   1.600  0.8592 -0.3002 -0.3869
 1540TIP3   OH226178   6.146   0.008   0.847 -0.4615 -0.0683 -0.2218
 1540TIP3    H126179   6.210  -0.059   0.869 -0.7696 -0.5598 -0.7666
 1540TIP3    H226180   6.103   0.030   0.930 -1.0739 -1.3105 -0.1907
 1541TIP3   OH226181   2.413   4.622   0.610  0.3078  0.0774 -0.1007
 1541TIP3    H126182   2.369   4.570   0.677 -0.7660  1.8119  0.5915
 1541TIP3    H226183   2.438   4.558   0.543 -0.7454 -1.3509  0.8163
 1542TIP3   OH226184   3.638   3.976   8.182  0.0117  0.0108  0.8867
 1542TIP3    H126185   3.645   3.887   8.218 -0.6696 -1.0002 -1.3247
 1542TIP3    H226186   3.727   4.011   8.188  0.2220 -0.6786  2.1025
 1543TIP3   OH226187   6.631   0.211   0.195  0.3004 -0.5391  0.3780
 1543TIP3    H126188   6.641   0.122   0.163  1.8852 -0.1264 -0.3499
 1543TIP3    H226189   6.587   0.258   0.124  2.4850  0.0218 -0.6768
 1544TIP3   OH226190   6.254   3.452   1.578 -0.2617 -0.1378  0.7252
 1544TIP3    H126191   6.237   3.441   1.672 -0.5666  0.6393  0.7697
 1544TIP3    H226192   6.187   3.514   1.549 -0.9731 -1.3505 -0.2785
 1545TIP3   OH226193   2.130   5.416   0.556  0.4959  0.0026 -0.1293
 1545TIP3    H126194   2.209   5.365   0.538  0.3046 -0.1573 -0.5389
 1545TIP3    H226195   2.080   5.411   0.475  1.0737  1.9566 -0.6533
 1546TIP3   OH226196   5.102   5.512   6.748 -0.5299  0.2245 -0.4309
 1546TIP3    H126197   5.145   5.520   6.833  0.4810 -1.4085 -0.7446
 1546TIP3    H226198   5.009   5.502   6.769 -0.4268  0.8859  0.4137
 1547TIP3   OH226199   2.463   1.545   1.163  0.1636 -0.5452  0.0599
 1547TIP3    H126200   2.476   1.454   1.189 -0.7423 -1.2438 -1.7631
 1547TIP3    H226201   2.379   1.570   1.200 -0.0012 -0.7404 -0.1846
 1548TIP3   OH226202   6.239   4.552   0.354  0.2452 -0.2385 -0.2241
 1548TIP3    H126203   6.218   4.474   0.302  0.3522 -1.1117  1.0245
 1548TIP3    H226204   6.302   4.522   0.419  1.1805  1.1542 -0.4395
 1549TIP3   OH226205   0.978   5.052   8.403 -0.1004  0.5225 -0.1411
 1549TIP3    H126206   0.888   5.061   8.434 -0.3978  0.3145 -0.9086
 1549TIP3    H226207   0.975   5.082   8.312  0.3783 -0.4764 -0.5024
 1550TIP3   OH226208   4.647   0.869   8.144  0.4834 -0.1834 -0.0394
 1550TIP3    H126209   4.737   0.845   8.168  0.8491  0.1304 -1.0440
 1550TIP3    H226210   4.657   0.949   8.092 -0.5092  0.7336  1.1184
 1551TIP3   OH226211   5.557   2.223   0.717 -0.0826 -0.2910 -0.7933
 1551TIP3    H126212   5.627   2.215   0.782  1.0459  2.8314 -1.4520
 1551TIP3    H226213   5.592   2.181   0.639 -0.6400 -2.2678 -0.0492
 1552TIP3   OH226214   0.251   6.308   8.723 -0.2875  0.7458  0.6135
 1552TIP3    H126215   0.271   6.230   8.775 -0.5601  1.3070  1.5751
 1552TIP3    H226216   0.215   6.371   8.785 -0.0763  1.6493 -0.1441
 1553TIP3   OH226217   3.389   5.004   7.435  0.3952  0.2341  0.0315
 1553TIP3    H126218   3.473   5.037   7.402  0.6319  0.3588  0.7460
 1553TIP3    H226219   3.381   5.042   7.523  0.2956 -0.9794  0.5590
 1554TIP3   OH226220   3.894   6.764   8.058 -0.7039  0.5583 -0.0979
 1554TIP3    H126221   3.926   6.698   8.120  0.8104  0.3468 -1.0438
 1554TIP3    H226222   3.939   6.845   8.083  0.3305  0.3585 -1.1675
 1555TIP3   OH226223   1.847   3.241   0.890  0.1670 -0.0552  0.6316
 1555TIP3    H126224   1.823   3.171   0.830 -1.4834  1.4288 -0.5212
 1555TIP3    H226225   1.780   3.238   0.959  0.4742 -0.0206  0.9355
 1556TIP3   OH226226   4.203   4.581   0.211  0.0822 -0.2981  0.1345
 1556TIP3    H126227   4.212   4.487   0.201  0.8377 -0.0841 -1.7715
 1556TIP3    H226228   4.166   4.611   0.128  0.5742  1.1438  0.3937
 1557TIP3   OH226229   1.717   6.416   8.095 -0.1142  0.4577 -0.1610
 1557TIP3    H126230   1.783   6.441   8.161  0.0483  0.2014 -0.2254
 1557TIP3    H226231   1.635   6.453   8.129 -0.4911 -1.6221  1.4014
 1558TIP3   OH226232   0.241   3.234   0.859  0.6449  0.4781 -0.2203
 1558TIP3    H126233   0.284   3.163   0.812 -0.5272 -0.1413 -0.4029
 1558TIP3    H226234   0.311   3.296   0.879  1.6353 -0.5683 -0.3445
 1559TIP3   OH226235   4.455   1.005   8.548  0.2145  0.3332 -0.7091
 1559TIP3    H126236   4.516   0.941   8.512  0.6228  1.3636 -1.9334
 1559TIP3    H226237   4.379   1.001   8.489 -0.4750 -0.2041  0.1984
 1560TIP3   OH226238   2.762   5.937   8.692 -0.1584  0.1442 -0.0145
 1560TIP3    H126239   2.854   5.912   8.678  0.3076  1.8077 -0.1331
 1560TIP3    H226240   2.743   5.909   8.781  0.8314  0.7833  0.4189
 1561TIP3   OH226241   3.102   6.557   8.560 -0.0960  0.0494  0.4020
 1561TIP3    H126242   3.140   6.643   8.541  0.0415 -0.1521 -0.2392
 1561TIP3    H226243   3.008   6.574   8.569 -0.0630  0.2753  0.3297
 1562TIP3   OH226244   5.207   3.316   7.628  0.8060 -0.1800 -0.0592
 1562TIP3    H126245   5.274   3.372   7.587 -0.2110  1.4246  0.3690
 1562TIP3    H226246   5.137   3.312   7.563  0.4620 -0.1425  0.3060
 1563TIP3   OH226247   5.075   0.134   0.839  0.3237  0.7946  0.2972
 1563TIP3    H126248   5.040   0.172   0.758 -0.7612  0.7530  0.7191
 1563TIP3    H226249   5.041   0.190   0.908  1.2515  0.8357  0.7328
 1564TIP3   OH226250   6.610   4.842   1.973 -0.0795  0.2345 -0.1613
 1564TIP3    H126251   6.551   4.851   1.897  0.1474  0.3027 -0.3294
 1564TIP3    H226252   6.642   4.931   1.990 -0.6609  0.3386  0.4468
 1565TIP3   OH226253   5.338   4.200   8.366 -0.1544 -0.0690 -0.5100
 1565TIP3    H126254   5.382   4.252   8.299 -0.2231  0.2392 -0.3169
 1565TIP3    H226255   5.272   4.259   8.403  1.6732  0.6930  1.7139
 1566TIP3   OH226256   0.204   0.688   1.003  0.0740  0.0374  0.3573
 1566TIP3    H126257   0.164   0.710   0.919 -0.3304  1.5067  0.8904
 1566TIP3    H226258   0.278   0.749   1.011  0.2373 -0.2246  0.9698
 1567TIP3   OH226259   4.813   0.080   6.158  0.2170 -0.3275  0.2368
 1567TIP3    H126260   4.862   0.150   6.201  0.4233 -0.3859  0.0946
 1567TIP3    H226261   4.737   0.066   6.215  0.0646  0.1514  0.1575
 1568TIP3   OH226262   1.841   0.833   0.121 -0.1867  0.4546  0.1178
 1568TIP3    H126263   1.809   0.749   0.088  1.8867 -0.1386 -0.5419
 1568TIP3    H226264   1.849   0.820   0.215 -1.6628  0.5690  0.2755
 1569TIP3   OH226265   0.072   6.085   8.426 -0.1689 -0.2383  0.2918
 1569TIP3    H126266   0.106   6.074   8.515 -1.5556  1.6108  1.1289
 1569TIP3    H226267   0.129   6.030   8.372  0.1481 -2.1698  2.4129
 1570TIP3   OH226268   5.583   0.983   1.318 -0.3654 -0.4900  0.4037
 1570TIP3    H126269   5.638   0.996   1.395 -0.9682 -1.9097  1.1400
 1570TIP3    H226270   5.505   1.035   1.336  1.2453  2.8149 -1.3647
 1571TIP3   OH226271   3.736   4.451   0.166  0.0428  0.4430 -0.4785
 1571TIP3    H126272   3.660   4.506   0.150 -0.4944 -0.3717 -0.7975
 1571TIP3    H226273   3.737   4.437   0.260 -0.8763 -0.4587 -0.5822
 1572TIP3   OH226274   6.458   3.900   7.094  0.1191 -1.1740 -0.7362
 1572TIP3    H126275   6.398   3.973   7.110  1.8692  0.2216 -0.0902
 1572TIP3    H226276   6.469   3.859   7.179  1.1732 -0.4902 -0.5218
 1573TIP3   OH226277   1.876   6.320   2.243  0.9271  0.1178  1.0343
 1573TIP3    H126278   1.827   6.346   2.321 -0.9345 -0.3765  0.0721
 1573TIP3    H226279   1.810   6.293   2.180  2.3819  0.5814 -0.7847
 1574TIP3   OH226280   0.017   2.085   8.303  0.2543 -0.0208  0.1767
 1574TIP3    H126281   0.090   2.057   8.359  0.9106  1.3852  0.0780
 1574TIP3    H226282  -0.046   2.013   8.308  2.0242 -1.7438 -0.4687
 1575TIP3   OH226283   2.896   6.040   6.752  0.3196 -0.1485  0.3243
 1575TIP3    H126284   2.822   6.055   6.812 -0.3008 -0.9723 -0.2260
 1575TIP3    H226285   2.857   6.042   6.665  0.9708 -0.4941  0.0224
 1576TIP3   OH226286   5.153   1.225   8.465 -0.0387 -0.1477 -0.2148
 1576TIP3    H126287   5.113   1.151   8.512  0.0549  0.4174  0.7770
 1576TIP3    H226288   5.096   1.238   8.389 -1.8804  0.7254  1.2261
 1577TIP3   OH226289   2.070   1.672   7.221 -0.3325  0.4579  0.3365
 1577TIP3    H126290   2.101   1.585   7.197 -1.8863  0.4847 -2.1254
 1577TIP3    H226291   2.006   1.655   7.290 -2.6069 -0.7885 -1.8795
 1578TIP3   OH226292   0.262   4.029   1.917  0.5014 -0.4725 -0.4183
 1578TIP3    H126293   0.210   4.107   1.937  0.0943 -1.0049  0.6606
 1578TIP3    H226294   0.241   4.009   1.825  1.4525  1.3125 -1.0764
 1579TIP3   OH226295   1.101   5.621   7.118  0.2054 -0.2361  0.1302
 1579TIP3    H126296   1.056   5.704   7.128 -0.8701 -0.7714 -0.1975
 1579TIP3    H226297   1.042   5.566   7.066  1.0159 -1.1123  0.0917
 1580TIP3   OH226298   6.392   2.522   0.673 -0.2734 -0.4865 -0.8642
 1580TIP3    H126299   6.487   2.515   0.665 -0.2309 -0.2567 -0.5880
 1580TIP3    H226300   6.375   2.616   0.671 -0.5775 -0.5461 -1.7886
 1581TIP3   OH226301   4.863   4.739   7.058  0.4571 -0.2388 -0.3344
 1581TIP3    H126302   4.937   4.793   7.030  0.9754 -1.0699 -0.6007
 1581TIP3    H226303   4.836   4.776   7.142 -0.5163  1.7136 -1.4407
 1582TIP3   OH226304   2.739   3.789   1.108 -0.2712  0.3101 -0.0087
 1582TIP3    H126305   2.675   3.859   1.119 -0.8334 -0.2532  0.3552
 1582TIP3    H226306   2.823   3.831   1.126 -0.5491  1.0155 -0.3339
 1583TIP3   OH226307   1.916   1.557   7.441  0.4525  0.4929 -0.4753
 1583TIP3    H126308   1.956   1.516   7.517  1.0886  0.3306 -0.8896
 1583TIP3    H226309   1.839   1.602   7.475  0.6236  0.2566  0.2274
 1584TIP3   OH226310   4.078   6.787   0.594  0.1647 -0.5574 -0.5279
 1584TIP3    H126311   4.029   6.789   0.677  0.3038  1.1931 -0.4588
 1584TIP3    H226312   4.022   6.736   0.535 -0.1310 -1.4689  0.4989
 1585TIP3   OH226313   1.914   2.533   1.730  0.6772 -0.2928  1.1401
 1585TIP3    H126314   1.964   2.453   1.745  0.3121 -0.7146  0.1683
 1585TIP3    H226315   1.978   2.597   1.699  0.4402 -1.2120 -1.3987
 1586TIP3   OH226316   5.637   2.434   0.492 -0.3258  0.2354 -0.2277
 1586TIP3    H126317   5.610   2.520   0.460 -0.2043  0.1962 -0.4383
 1586TIP3    H226318   5.648   2.445   0.586  0.5277  0.6646 -0.3765
 1587TIP3   OH226319   4.769   0.790   6.940 -0.4436  0.2491  0.0716
 1587TIP3    H126320   4.685   0.751   6.964  0.8520 -1.6354  1.8704
 1587TIP3    H226321   4.755   0.824   6.851 -2.7935 -0.9429 -0.0950
 1588TIP3   OH226322   1.180   3.388   0.152  0.5219 -0.4241  0.4040
 1588TIP3    H126323   1.113   3.336   0.196  0.7056  0.0452  1.2871
 1588TIP3    H226324   1.169   3.370   0.059  0.2167 -1.5813  0.6558
 1589TIP3   OH226325   6.075   4.567   1.226  0.6079  0.0892  0.0276
 1589TIP3    H126326   6.027   4.494   1.265 -0.4007  0.2193 -0.9381
 1589TIP3    H226327   6.163   4.561   1.264  0.1956 -0.9190  0.8479
 1590TIP3   OH226328   2.700   0.294   8.501 -0.0894  0.4109 -0.3298
 1590TIP3    H126329   2.623   0.302   8.445 -0.8263 -1.5470  0.3109
 1590TIP3    H226330   2.745   0.216   8.468  0.9742  0.8490  0.0645
 1591TIP3   OH226331   6.125   6.794   2.142 -0.4244  0.2895 -0.0818
 1591TIP3    H126332   6.091   6.877   2.108 -1.3881  0.2801  0.8112
 1591TIP3    H226333   6.218   6.796   2.120 -0.2035  2.0827  0.8467
 1592TIP3   OH226334   4.118   0.493   0.052  0.0455 -0.2398 -1.0348
 1592TIP3    H126335   4.204   0.493   0.011 -0.1305  1.6680 -1.5255
 1592TIP3    H226336   4.117   0.573   0.105 -0.7006 -1.2868  0.6081
 1593TIP3   OH226337   5.068   1.016   2.016 -0.1062 -0.0994  0.7229
 1593TIP3    H126338   5.007   1.040   2.086  0.5802  1.5734  0.8135
 1593TIP3    H226339   5.125   0.950   2.055 -0.7457 -0.3686  1.2117
 1594TIP3   OH226340   3.222   2.040   6.971  1.1463 -0.5262  0.2399
 1594TIP3    H126341   3.284   2.111   6.987  1.4378 -0.3393 -1.5468
 1594TIP3    H226342   3.252   1.999   6.890  0.1732 -1.8207  0.4873
 1595TIP3   OH226343   4.912   2.753   7.559  0.3627 -0.1260  0.4453
 1595TIP3    H126344   4.905   2.843   7.590  1.6355 -0.0677  0.6380
 1595TIP3    H226345   4.836   2.708   7.594 -1.4094  1.3281 -1.3134
 1596TIP3   OH226346   4.683   5.849   6.715  0.2816 -0.2668  0.2691
 1596TIP3    H126347   4.656   5.823   6.803  1.2020  0.6763  0.8476
 1596TIP3    H226348   4.695   5.766   6.669 -0.3299 -0.7711  0.9782
 1597TIP3   OH226349   0.323   3.531   1.828  0.0207 -0.8605 -0.0682
 1597TIP3    H126350   0.355   3.559   1.914 -1.6253 -0.5172  0.4517
 1597TIP3    H226351   0.340   3.437   1.826  3.4208 -0.3575 -0.8823
 1598TIP3   OH226352   2.301   6.549   7.888  0.5768 -0.2023 -0.6739
 1598TIP3    H126353   2.371   6.485   7.903  0.2327 -0.5651 -0.5779
 1598TIP3    H226354   2.227   6.496   7.859  0.4637  0.2227 -1.1620
 1599TIP3   OH226355   1.463   1.568   2.110 -0.2843 -0.0305  1.0082
 1599TIP3    H126356   1.503   1.492   2.069 -1.2862 -0.4252  0.7237
 1599TIP3    H226357   1.418   1.532   2.186 -0.4273  0.3404  1.0985
 1600TIP3   OH226358   3.686   4.105   7.312  0.1442 -0.5112 -0.0325
 1600TIP3    H126359   3.756   4.168   7.329 -0.4735 -0.1105  1.1932
 1600TIP3    H226360   3.718   4.052   7.239  0.0311  2.2320 -2.2117
 1601TIP3   OH226361   1.489   2.525   7.481  0.1164  1.0097 -0.0266
 1601TIP3    H126362   1.526   2.437   7.489  2.8120  2.0395 -0.0692
 1601TIP3    H226363   1.496   2.546   7.388 -0.0795  1.4314  0.0501
 1602TIP3   OH226364   3.906   1.355   0.522 -0.0090  0.2386  0.3336
 1602TIP3    H126365   3.982   1.337   0.577  0.2790 -1.6796 -0.6021
 1602TIP3    H226366   3.942   1.400   0.445  0.1211 -0.2128  0.1259
 1603TIP3   OH226367   4.675   3.371   7.751 -0.3733 -0.4550  0.0289
 1603TIP3    H126368   4.676   3.411   7.664 -1.3434  0.6698  0.5036
 1603TIP3    H226369   4.584   3.377   7.780 -0.1844 -1.3520  0.8838
 1604TIP3   OH226370   5.623   2.887   7.942  0.0121  0.7676  0.3123
 1604TIP3    H126371   5.537   2.855   7.967 -0.6532 -0.1136 -2.6614
 1604TIP3    H226372   5.675   2.881   8.022 -1.7553 -2.0152  1.4094
 1605TIP3   OH226373   3.429   1.296   2.162  0.8025  0.3817  0.8384
 1605TIP3    H126374   3.348   1.318   2.115 -0.5584 -0.3369  2.7294
 1605TIP3    H226375   3.465   1.222   2.114 -0.4584 -0.2275  0.7788
 1606TIP3   OH226376   4.261   2.516   0.587 -0.2239  0.4495  0.1703
 1606TIP3    H126377   4.234   2.494   0.676 -0.1530  1.9044  0.5809
 1606TIP3    H226378   4.338   2.462   0.571  0.3355  0.8551  1.3693
 1607TIP3   OH226379   6.431   3.757   8.725 -0.1012  0.0646  0.1611
 1607TIP3    H126380   6.371   3.685   8.707 -0.9030  0.7550  0.0035
 1607TIP3    H226381   6.518   3.717   8.722 -0.5906 -1.1609  1.3954
 1608TIP3   OH226382   1.223   1.664   8.209  0.2079 -0.0254 -0.7952
 1608TIP3    H126383   1.137   1.624   8.221  0.5937 -0.3591  1.2467
 1608TIP3    H226384   1.207   1.758   8.209 -0.2066 -0.0933 -1.0367
 1609TIP3   OH226385   0.330   6.328   6.795 -0.0127 -0.0342 -0.0502
 1609TIP3    H126386   0.337   6.413   6.750 -1.2020 -0.2873 -0.7470
 1609TIP3    H226387   0.251   6.289   6.760 -0.1196 -0.9370  1.1403
 1610TIP3   OH226388   6.758   0.313   8.059 -0.0353 -0.2200  0.1535
 1610TIP3    H126389   6.758   0.243   7.994 -1.2404  0.6431 -0.8123
 1610TIP3    H226390   6.841   0.303   8.105  0.7703 -0.9540 -1.4060
 1611TIP3   OH226391   4.193   4.631   1.317 -0.4805 -0.1819  0.5476
 1611TIP3    H126392   4.155   4.718   1.307 -0.5437 -0.1479  1.0357
 1611TIP3    H226393   4.178   4.588   1.233  1.0715  0.8581 -0.3163
 1612TIP3   OH226394   2.362   5.943   6.697 -0.2010 -0.0594 -0.2092
 1612TIP3    H126395   2.306   5.877   6.656  0.6502 -0.9966  0.1010
 1612TIP3    H226396   2.392   5.998   6.624  0.4835 -1.0843 -0.7101
 1613TIP3   OH226397   5.773   5.555   1.076  0.5201 -0.7023 -0.3596
 1613TIP3    H126398   5.843   5.602   1.121  0.4073  0.1783 -1.0651
 1613TIP3    H226399   5.794   5.463   1.087  1.9395 -0.4537 -0.7683
 1614TIP3   OH226400   6.322   1.362   1.137 -0.2953  0.7282 -0.6624
 1614TIP3    H126401   6.291   1.378   1.048 -0.8096  0.6554 -0.5001
 1614TIP3    H226402   6.346   1.449   1.169 -2.3341  1.1218 -0.0647
 1615TIP3   OH226403   6.711   3.906   8.695  0.4614 -0.0148 -0.1013
 1615TIP3    H126404   6.792   3.893   8.646  1.1639 -1.5393  1.3890
 1615TIP3    H226405   6.722   3.856   8.775 -2.3309 -1.0782 -0.2552
 1616TIP3   OH226406   3.249   1.163   8.481  0.1148  0.3217 -0.0598
 1616TIP3    H126407   3.334   1.146   8.441  0.9309  0.3209  1.5888
 1616TIP3    H226408   3.258   1.249   8.521 -1.7297  1.7687 -2.4630
 1617TIP3   OH226409   5.544   1.355   0.316 -0.3358  0.1683 -0.4355
 1617TIP3    H126410   5.460   1.379   0.355 -0.7137  1.1326 -1.7604
 1617TIP3    H226411   5.541   1.260   0.309 -0.4794  0.0224  1.3269
 1618TIP3   OH226412   5.970   1.568   8.214 -0.0152 -0.2900  0.0487
 1618TIP3    H126413   6.048   1.612   8.180  0.4860 -0.4791  0.9315
 1618TIP3    H226414   5.907   1.571   8.141  0.2655  1.2232 -0.1737
 1619TIP3   OH226415   2.857   1.090   1.832  0.3446 -0.2126  0.0192
 1619TIP3    H126416   2.906   1.164   1.870 -1.1022  0.2473  1.0596
 1619TIP3    H226417   2.812   1.051   1.906 -2.4626  0.6087 -1.1416
 1620TIP3   OH226418   2.947   6.062   1.085  0.3199  0.0452 -0.2200
 1620TIP3    H126419   2.854   6.041   1.094  0.1743  1.1308  1.2510
 1620TIP3    H226420   2.953   6.113   1.004 -0.0808 -1.3290 -1.1585
 1621TIP3   OH226421   0.239   0.812   0.715  0.0082 -0.2910  0.2667
 1621TIP3    H126422   0.161   0.822   0.661  0.5334 -1.1476 -0.6994
 1621TIP3    H226423   0.220   0.860   0.796 -0.2566  2.2424 -1.2167
 1622TIP3   OH226424   5.491   3.610   1.156 -0.0570  0.9934  0.2890
 1622TIP3    H126425   5.474   3.637   1.066 -2.8948 -0.5285  0.2467
 1622TIP3    H226426   5.425   3.543   1.174  0.5830  1.0444  3.4298
 1623TIP3   OH226427   2.190   3.495   8.175 -0.2892  0.0937 -0.2973
 1623TIP3    H126428   2.170   3.571   8.120  2.0361  1.4774  0.6087
 1623TIP3    H226429   2.108   3.475   8.220 -1.5310  0.6157 -2.2004
 1624TIP3   OH226430   6.740   4.170   8.511  0.0037  0.2044  0.2464
 1624TIP3    H126431   6.773   4.148   8.423 -1.9179 -0.2574 -0.3968
 1624TIP3    H226432   6.764   4.095   8.565  0.8775  0.3325  0.0648
 1625TIP3   OH226433   3.043   1.626   7.585  0.0939  0.2002  0.8425
 1625TIP3    H126434   3.044   1.599   7.493  0.1783  0.7619  0.6772
 1625TIP3    H226435   3.101   1.563   7.629  0.7430  0.4476  0.3569
 1626TIP3   OH226436   4.062   0.334   1.664 -0.1757  0.2057 -0.7756
 1626TIP3    H126437   4.064   0.282   1.745 -0.0118  1.9434  0.3946
 1626TIP3    H226438   4.013   0.413   1.687 -1.1846  0.2126 -2.7388
 1627TIP3   OH226439   3.387   1.819   6.260  0.3889  0.0596 -0.3845
 1627TIP3    H126440   3.418   1.900   6.218 -0.7549  1.5177  1.4095
 1627TIP3    H226441   3.292   1.825   6.257  0.2488 -1.9663 -1.4562
 1628TIP3   OH226442   1.105   3.985   6.789  0.1010 -0.3049  0.4684
 1628TIP3    H126443   1.148   3.953   6.710 -1.0280 -0.0215 -0.2866
 1628TIP3    H226444   1.048   3.913   6.816 -0.3318  0.0033  0.3891
 1629TIP3   OH226445   4.030   6.653   7.134 -0.2154 -0.0534  0.4210
 1629TIP3    H126446   4.058   6.624   7.047 -2.0337  0.7706 -0.4925
 1629TIP3    H226447   4.085   6.729   7.152  1.4513 -1.3064  0.8509
 1630TIP3   OH226448   5.239   0.202   7.074  0.1321  0.0922 -0.5711
 1630TIP3    H126449   5.245   0.114   7.036 -0.4647 -0.8587  1.4228
 1630TIP3    H226450   5.325   0.217   7.113  0.0602  0.1827 -0.4490
 1631TIP3   OH226451   0.278   2.126   6.895  0.2617 -0.0810  0.5241
 1631TIP3    H126452   0.309   2.204   6.849 -0.5483 -0.2825 -0.4090
 1631TIP3    H226453   0.305   2.138   6.986 -2.2044  2.6484  1.0457
 1632TIP3   OH226454   4.790   1.500   1.757 -0.7222  0.2303  0.9387
 1632TIP3    H126455   4.850   1.574   1.745  0.0853 -0.5027  0.4095
 1632TIP3    H226456   4.762   1.478   1.668  0.5919 -1.3708  0.8937
 1633TIP3   OH226457   4.243   6.056   8.689  0.1439  0.0058 -0.2249
 1633TIP3    H126458   4.225   5.986   8.752  0.0272  0.7432  0.5867
 1633TIP3    H226459   4.252   6.011   8.605 -1.3558 -0.8418  0.0303
 1634TIP3   OH226460   5.474   5.754   0.568 -0.5104  0.1248 -0.5278
 1634TIP3    H126461   5.512   5.676   0.608  0.4569  1.1209  0.6066
 1634TIP3    H226462   5.410   5.785   0.633 -1.3180 -0.0375 -1.2300
 1635TIP3   OH226463   3.917   4.438   1.420 -0.2192  0.1200  0.3444
 1635TIP3    H126464   3.863   4.359   1.414 -1.1826  0.7703  0.2197
 1635TIP3    H226465   3.969   4.425   1.499 -0.7319 -0.4260  0.6071
 1636TIP3   OH226466   3.012   6.586   7.381  0.3053  1.0190  0.0627
 1636TIP3    H126467   2.966   6.534   7.315  1.0576 -0.8975  0.9630
 1636TIP3    H226468   3.098   6.603   7.341  0.1144  1.4327 -0.1716
 1637TIP3   OH226469   5.440   3.442   8.222 -0.4181 -0.1212 -0.0240
 1637TIP3    H126470   5.426   3.461   8.315 -0.6205  0.6607 -0.2053
 1637TIP3    H226471   5.520   3.391   8.219 -0.6978 -0.6135  0.6281
 1638TIP3   OH226472   5.243   5.424   5.961  0.1724 -0.3105  0.1143
 1638TIP3    H126473   5.322   5.460   5.921 -0.8015  0.1045 -1.5498
 1638TIP3    H226474   5.256   5.330   5.962  0.9146 -0.2078  0.3761
 1639TIP3   OH226475   0.804   2.105   7.290  0.4401  0.1780 -0.1581
 1639TIP3    H126476   0.809   2.009   7.295  0.0645  0.1474 -0.3518
 1639TIP3    H226477   0.781   2.132   7.379  0.4865  0.0821 -0.1168
 1640TIP3   OH226478   5.645   1.624   8.530  0.0614 -0.1903 -0.1312
 1640TIP3    H126479   5.584   1.554   8.508 -0.0562 -0.2590  0.4155
 1640TIP3    H226480   5.604   1.672   8.602  0.2217  0.3336 -0.3790
 1641TIP3   OH226481   4.408   4.576   6.951  0.3950 -0.0916  0.0883
 1641TIP3    H126482   4.503   4.579   6.943  0.3129 -0.6135 -1.4078
 1641TIP3    H226483   4.378   4.656   6.908  0.0924 -0.9245 -1.3125
 1642TIP3   OH226484   1.910   4.015   0.404 -0.4369 -0.2247  0.2565
 1642TIP3    H126485   1.942   3.936   0.361  1.5166  0.1337  0.9735
 1642TIP3    H226486   1.900   4.079   0.333 -0.6150 -0.6613 -0.1169
 1643TIP3   OH226487   4.980   6.211   1.900  0.7238  0.5216 -0.5618
 1643TIP3    H126488   4.915   6.170   1.958 -0.2301  1.2017 -1.1198
 1643TIP3    H226489   5.025   6.138   1.858  0.2810  0.0394 -0.2135
 1644TIP3   OH226490   5.206   2.944   0.081  0.1760  0.7020  0.6966
 1644TIP3    H126491   5.176   3.027   0.044  1.5006  2.3574  3.1268
 1644TIP3    H226492   5.220   2.962   0.174 -0.4195 -2.5285  1.5448
 1645TIP3   OH226493   3.740   2.601   2.248 -0.5720  0.2394 -0.0367
 1645TIP3    H126494   3.818   2.551   2.223 -0.3891  0.4685  0.0654
 1645TIP3    H226495   3.679   2.536   2.281 -0.8908 -0.1027 -1.2334
 1646TIP3   OH226496   2.381   5.975   7.793 -0.0323 -0.3592 -0.1094
 1646TIP3    H126497   2.328   5.941   7.865 -1.5712 -1.4355 -1.6785
 1646TIP3    H226498   2.327   5.962   7.715  0.9427  2.1331 -1.3182
 1647TIP3   OH226499   4.640   0.670   7.974 -0.0380  0.2234  0.6952
 1647TIP3    H126500   4.658   0.725   8.050 -0.4962  0.3164  0.7413
 1647TIP3    H226501   4.558   0.705   7.938 -0.0895 -0.1374  0.4554
 1648TIP3   OH226502   1.300   5.868   8.635 -0.3848  0.6235 -0.4718
 1648TIP3    H126503   1.211   5.836   8.626  0.4326 -1.9452 -0.0811
 1648TIP3    H226504   1.291   5.949   8.686 -2.2984 -0.7355  1.5161
 1649TIP3   OH226505   3.672   1.271   2.705 -0.3118  0.1948 -0.2756
 1649TIP3    H126506   3.747   1.323   2.733 -1.0356 -0.1268  2.5756
 1649TIP3    H226507   3.626   1.327   2.642  2.0539  0.5238 -1.8537
 1650TIP3   OH226508   0.758   6.207   7.960  0.3277  0.0786  0.4274
 1650TIP3    H126509   0.720   6.238   7.878 -0.1135  1.6368  1.1840
 1650TIP3    H226510   0.693   6.147   7.996  2.5206 -4.6835 -2.6089
 1651TIP3   OH226511   0.897   2.458   7.448 -0.0272  0.0318 -0.0900
 1651TIP3    H126512   0.825   2.410   7.408  0.7021 -0.1545 -1.2236
 1651TIP3    H226513   0.888   2.547   7.414 -1.3250  0.7429  1.9397
 1652TIP3   OH226514   5.551   0.509   7.619  0.2451  0.3599 -0.1904
 1652TIP3    H126515   5.488   0.468   7.561 -1.4849 -0.5161  2.1690
 1652TIP3    H226516   5.525   0.601   7.622 -0.7309  0.0736  0.4841
 1653TIP3   OH226517   2.950   1.480   8.062 -0.0702  0.1275 -0.0245
 1653TIP3    H126518   2.862   1.443   8.072 -0.5744  1.3413  0.3426
 1653TIP3    H226519   2.972   1.512   8.150  0.3821  0.5694 -0.2938
 1654TIP3   OH226520   4.029   1.837   1.656 -0.0764 -0.0904  0.3598
 1654TIP3    H126521   4.053   1.745   1.666  0.4973  0.0810  0.6312
 1654TIP3    H226522   4.080   1.868   1.581 -0.1478  0.0410  0.3647
 1655TIP3   OH226523   3.980   4.091   1.338 -0.0449  0.8726 -0.9232
 1655TIP3    H126524   4.058   4.035   1.340  0.3687  1.4346 -1.1694
 1655TIP3    H226525   3.923   4.054   1.406 -0.0348 -0.2113 -1.4851
 1656TIP3   OH226526   4.452   1.190   7.010 -0.5117  0.4298 -0.2512
 1656TIP3    H126527   4.372   1.193   7.062 -1.4878  1.4282 -1.7418
 1656TIP3    H226528   4.466   1.280   6.982  2.1423  0.6226  1.3885
 1657TIP3   OH226529   0.867   6.521   7.106  0.3889 -0.0615  0.3213
 1657TIP3    H126530   0.825   6.592   7.155  0.6824 -0.1658  0.7276
 1657TIP3    H226531   0.795   6.471   7.069  0.1712  0.7887 -0.4703
 1658TIP3   OH226532   4.902   3.531   7.788 -0.0002  0.2671  0.0505
 1658TIP3    H126533   4.929   3.540   7.696  0.1595 -2.8703 -0.3045
 1658TIP3    H226534   4.825   3.474   7.785 -1.9991  2.6877  1.7042
 1659TIP3   OH226535   6.755   6.507   1.919  0.4275 -0.4803  0.1102
 1659TIP3    H126536   6.740   6.558   1.998  0.9897  0.6770 -0.4967
 1659TIP3    H226537   6.692   6.435   1.923  0.4944 -0.4697  1.6246
 1660TIP3   OH226538   1.387   2.407   8.174  0.6293  0.0782  0.2635
 1660TIP3    H126539   1.352   2.333   8.223  0.0430  0.5717  0.6055
 1660TIP3    H226540   1.413   2.370   8.090 -0.4489 -0.3784  0.1104
 1661TIP3   OH226541   0.959   3.083   7.992  0.6722 -0.1197  0.1346
 1661TIP3    H126542   0.996   3.163   7.954  0.0749  0.1504  0.1115
 1661TIP3    H226543   1.029   3.019   7.983  1.1165  0.3655  0.0377
 1662TIP3   OH226544   0.788   3.152   1.058 -0.3026 -0.2500  0.3436
 1662TIP3    H126545   0.734   3.175   1.133 -2.4915 -0.8863 -0.9265
 1662TIP3    H226546   0.789   3.231   1.004 -0.4125 -0.3945  0.1270
 1663TIP3   OH226547   3.328   3.992   8.422 -0.0308  0.3840 -0.3603
 1663TIP3    H126548   3.249   3.938   8.423 -0.8388  1.4215  2.4906
 1663TIP3    H226549   3.345   4.008   8.329 -1.7858 -1.8111 -1.1421
 1664TIP3   OH226550   5.513   0.612   8.119 -0.1731  0.5213  0.1970
 1664TIP3    H126551   5.516   0.559   8.199 -0.5842  0.9919  0.5292
 1664TIP3    H226552   5.603   0.613   8.088 -0.3269 -1.3247 -0.4536
 1665TIP3   OH226553   5.169   2.409   0.967 -0.4598 -0.0640  0.1262
 1665TIP3    H126554   5.090   2.411   0.913  0.6904  0.1358 -1.6519
 1665TIP3    H226555   5.240   2.429   0.906  1.0516 -0.9486  1.5092
 1666TIP3   OH226556   4.255   4.251   0.620  0.3358  0.0194 -0.5712
 1666TIP3    H126557   4.241   4.167   0.576 -1.4709 -0.4743  0.8273
 1666TIP3    H226558   4.253   4.316   0.550  1.2912 -1.0432 -1.6268
 1667TIP3   OH226559   2.262   2.354   7.725 -0.1716 -0.3759  0.6318
 1667TIP3    H126560   2.196   2.407   7.680  0.3916 -0.6437 -0.5785
 1667TIP3    H226561   2.314   2.316   7.653  0.6309 -1.0093  1.5259
 1668TIP3   OH226562   0.855   5.715   8.436 -0.2689 -0.1914 -0.1106
 1668TIP3    H126563   0.913   5.753   8.503 -0.8804 -0.0453  0.3509
 1668TIP3    H226564   0.898   5.736   8.353  1.0637 -1.2925  0.2522
 1669TIP3   OH226565   2.339   4.881   0.504  0.2735  0.0599 -0.0214
 1669TIP3    H126566   2.377   4.803   0.545  0.8438  0.7842  0.8790
 1669TIP3    H226567   2.413   4.941   0.495 -0.3007  0.7716 -0.0247
 1670TIP3   OH226568   1.381   3.966   0.291 -0.1394 -0.5175  0.1883
 1670TIP3    H126569   1.337   4.051   0.283 -0.2366 -0.5381  0.4862
 1670TIP3    H226570   1.473   3.988   0.306  0.3332 -0.4743 -2.3486
 1671TIP3   OH226571   0.409   5.632   8.209 -0.1438 -0.0059  0.4738
 1671TIP3    H126572   0.436   5.542   8.225  0.4588  0.1917  0.5809
 1671TIP3    H226573   0.314   5.630   8.216 -0.0432 -0.3037  2.1846
 1672TIP3   OH226574   0.534   2.627   2.064  0.3924  0.2236  0.1909
 1672TIP3    H126575   0.519   2.709   2.111 -1.8122  1.9110 -3.0840
 1672TIP3    H226576   0.452   2.580   2.072  0.4645 -0.0828 -0.7579
 1673TIP3   OH226577   2.752   1.891   6.895  0.6106 -0.3392  0.0623
 1673TIP3    H126578   2.820   1.827   6.919  1.3330  1.0003  1.8732
 1673TIP3    H226579   2.675   1.838   6.876  0.9661 -1.7727  2.1932
 1674TIP3   OH226580   4.695   2.366   6.534 -0.0836 -0.4057 -0.4917
 1674TIP3    H126581   4.714   2.422   6.459 -1.1571 -0.3643 -0.7439
 1674TIP3    H226582   4.603   2.383   6.554 -0.6270 -2.5501 -0.9638
 1675TIP3   OH226583   0.678   3.441   1.503 -0.1246  0.0909  0.3696
 1675TIP3    H126584   0.586   3.468   1.498  0.0976  0.7491 -0.5219
 1675TIP3    H226585   0.724   3.505   1.449  1.1197  0.8972  2.2772
 1676TIP3   OH226586   6.384   1.104   1.165 -0.3730  0.2532 -0.2095
 1676TIP3    H126587   6.345   1.191   1.155 -3.0783 -0.9293 -0.9173
 1676TIP3    H226588   6.381   1.087   1.259 -3.2090 -0.3792 -0.3138
 1677TIP3   OH226589   6.629   4.663   7.064  0.2521  0.1442  0.0446
 1677TIP3    H126590   6.575   4.643   6.988  0.2204 -0.5603  0.2422
 1677TIP3    H226591   6.695   4.724   7.031 -0.5582  0.8953 -0.2322
 1678TIP3   OH226592   2.901   3.076   0.885  0.2998  0.3002  0.3127
 1678TIP3    H126593   2.807   3.057   0.891  0.0537  1.5169  0.5577
 1678TIP3    H226594   2.921   3.069   0.792  0.3074 -1.3914  0.3994
 1679TIP3   OH226595   0.371   4.298   0.834 -0.0799 -0.4642  0.0309
 1679TIP3    H126596   0.396   4.235   0.902 -1.1432 -1.2372 -0.2726
 1679TIP3    H226597   0.276   4.292   0.829  0.0192 -1.1050 -2.1690
 1680TIP3   OH226598   4.514   4.921   1.611  0.6858  0.0424 -0.5016
 1680TIP3    H126599   4.458   4.995   1.591 -0.7106 -0.9040 -0.2224
 1680TIP3    H226600   4.603   4.955   1.600  0.0781  1.5307 -1.1111
 1681TIP3   OH226601   1.286   2.055   8.719  0.1031  0.6496 -0.2260
 1681TIP3    H126602   1.278   1.969   8.761  2.0395  0.2214 -0.6302
 1681TIP3    H226603   1.202   2.097   8.734 -0.7964 -1.2064  0.2332
 1682TIP3   OH226604   6.700   3.831   7.504 -0.0293 -0.2124 -0.0513
 1682TIP3    H126605   6.746   3.749   7.526 -0.4431 -1.1127 -2.3294
 1682TIP3    H226606   6.745   3.864   7.427 -1.1896  0.6097 -0.3967
 1683TIP3   OH226607   1.135   3.381   1.380  0.6559  0.3695  0.2478
 1683TIP3    H126608   1.088   3.387   1.297  1.0127  0.4389  0.0500
 1683TIP3    H226609   1.153   3.472   1.404 -0.1465  0.3887  0.8053
 1684TIP3   OH226610   6.605   4.617   7.972 -0.1496 -0.5171  0.0469
 1684TIP3    H126611   6.525   4.629   7.922 -1.4079  0.3294  2.1345
 1684TIP3    H226612   6.645   4.704   7.976 -1.7782  0.2451  3.0964
 1685TIP3   OH226613   4.065   3.131   0.039 -0.7425 -0.2031  0.7886
 1685TIP3    H126614   4.056   3.036   0.045  0.3361 -0.6560 -2.6214
 1685TIP3    H226615   4.021   3.154  -0.042 -1.7374  2.3929  1.9663
 1686TIP3   OH226616   4.627   0.339   0.826  0.5255  0.2055  0.0950
 1686TIP3    H126617   4.611   0.430   0.803  2.8490  0.3291 -1.3928
 1686TIP3    H226618   4.684   0.345   0.903 -0.1984 -0.0436  0.6624
 1687TIP3   OH226619   6.767   0.209   8.482 -0.3063 -0.3076 -0.0781
 1687TIP3    H126620   6.735   0.281   8.427 -0.8137 -0.2888  0.2309
 1687TIP3    H226621   6.761   0.132   8.427  0.3854 -0.0952 -0.4646
 1688TIP3   OH226622   4.223   5.764   0.034 -0.1737 -0.0144  0.3764
 1688TIP3    H126623   4.214   5.678   0.076  0.3786 -0.1212  0.2854
 1688TIP3    H226624   4.315   5.767   0.006 -0.5450  0.0354 -0.8727
 1689TIP3   OH226625   3.088   2.931   8.462 -0.0124 -0.0814 -0.4876
 1689TIP3    H126626   3.113   2.845   8.430 -1.5912 -0.1960 -1.5485
 1689TIP3    H226627   3.073   2.918   8.556  1.2467 -0.5854 -0.3494
 1690TIP3   OH226628   0.584   2.212   6.720 -0.0411 -0.5207  0.6593
 1690TIP3    H126629   0.621   2.221   6.632  0.2419  0.4619  0.8639
 1690TIP3    H226630   0.496   2.176   6.706 -0.3159  0.4111 -0.1012
 1691TIP3   OH226631   0.187   3.178   1.700 -0.5772  0.4256 -0.0852
 1691TIP3    H126632   0.263   3.196   1.644 -1.5139 -0.1889 -1.6020
 1691TIP3    H226633   0.142   3.105   1.657 -1.7738  0.4648  1.0416
 1692TIP3   OH226634   2.742   5.637   1.379  0.1500  0.3373  0.0667
 1692TIP3    H126635   2.738   5.630   1.474  0.8619  1.5094  0.1978
 1692TIP3    H226636   2.699   5.557   1.347  0.6520 -0.4769  1.3629
 1693TIP3   OH226637   3.348   0.995   0.778 -0.3467  0.1593 -0.0178
 1693TIP3    H126638   3.423   0.980   0.836  0.0349  1.9842  0.0271
 1693TIP3    H226639   3.364   0.939   0.702  0.1808 -0.7446  0.7444
 1694TIP3   OH226640   6.444   4.359   7.605 -0.6802 -0.0758 -0.1305
 1694TIP3    H126641   6.370   4.362   7.666 -0.2073  0.5929  0.4217
 1694TIP3    H226642   6.465   4.450   7.588  0.5600 -0.2423  0.3919
 1695TIP3   OH226643   1.750   3.582   7.251 -0.0265  0.3727  0.6490
 1695TIP3    H126644   1.733   3.488   7.243  1.1174  0.1221  1.0320
 1695TIP3    H226645   1.665   3.623   7.232 -0.1935 -0.6480 -1.0317
 1696TIP3   OH226646   0.222   0.165   0.738  0.0199 -0.9039  0.1696
 1696TIP3    H126647   0.296   0.186   0.681 -1.4289 -1.4183 -2.0112
 1696TIP3    H226648   0.148   0.214   0.701 -0.9636 -1.1665  1.7030
 1697TIP3   OH226649   6.080   4.347   8.072 -0.0987 -0.0976  0.7320
 1697TIP3    H126650   6.063   4.344   8.167 -1.5745  0.3602  0.5155
 1697TIP3    H226651   6.129   4.267   8.054  0.4100 -0.0706  1.9231
 1698TIP3   OH226652   5.950   2.436   6.912 -0.7323 -0.6088 -0.2815
 1698TIP3    H126653   6.007   2.512   6.926 -0.7606 -0.7979  0.9105
 1698TIP3    H226654   5.870   2.457   6.960 -1.1001 -1.0000 -0.7095
 1699TIP3   OH226655   4.162   4.677   5.971 -0.2995 -0.8327 -0.0408
 1699TIP3    H126656   4.079   4.660   6.016 -0.3728  2.2519  1.2133
 1699TIP3    H226657   4.222   4.611   6.006 -1.8182 -2.1657  0.1642
 1700TIP3   OH226658   4.695   1.821   5.795 -0.0270  0.1428  0.3285
 1700TIP3    H126659   4.602   1.835   5.808  0.2827  2.1110  0.7427
 1700TIP3    H226660   4.713   1.736   5.835 -1.4842  0.1390  1.0103
 1701TIP3   OH226661   2.418   3.214   8.131  0.0072  0.4502  0.9726
 1701TIP3    H126662   2.427   3.278   8.060 -2.0574  1.7640  1.8129
 1701TIP3    H226663   2.495   3.229   8.185  1.3713 -0.2441 -0.6720
 1702TIP3   OH226664   2.871   0.411   7.250 -0.3111  0.1529  0.1002
 1702TIP3    H126665   2.850   0.501   7.275  2.5613  0.8299  0.4778
 1702TIP3    H226666   2.915   0.420   7.165 -1.6748 -1.1482 -0.8010
 1703TIP3   OH226667   3.292   4.248   0.055 -0.2419 -0.2603  0.6569
 1703TIP3    H126668   3.348   4.200  -0.006 -1.6364 -0.6780 -0.3310
 1703TIP3    H226669   3.288   4.337   0.019 -1.7609 -0.7154 -0.4173
 1704TIP3   OH226670   5.236   2.796   0.662 -0.3398 -0.3638 -0.8144
 1704TIP3    H126671   5.193   2.713   0.640 -0.0816 -1.1425  1.3501
 1704TIP3    H226672   5.329   2.774   0.668 -0.3673 -0.1595  0.6506
 1705TIP3   OH226673   4.750   1.849   1.778 -0.7411 -0.2543 -0.5619
 1705TIP3    H126674   4.657   1.835   1.757 -0.7072  1.0156 -1.7085
 1705TIP3    H226675   4.749   1.882   1.867 -1.3896 -0.3439 -0.5245
 1706TIP3   OH226676   5.899   5.331   1.461 -0.5966  0.2550 -0.3063
 1706TIP3    H126677   5.853   5.301   1.382  0.3914 -1.4147 -0.2979
 1706TIP3    H226678   5.947   5.254   1.491 -0.4842  1.0213  1.6096
 1707TIP3   OH226679   5.369   0.800   6.609 -0.1634  0.3389 -0.1113
 1707TIP3    H126680   5.389   0.892   6.621 -1.3558  0.9593 -2.3317
 1707TIP3    H226681   5.447   0.754   6.639 -0.4617  1.8433  3.4195
 1708TIP3   OH226682   3.075   1.175   7.350 -0.7307 -0.0193 -0.1812
 1708TIP3    H126683   3.062   1.218   7.434  1.2974 -1.1530  0.7818
 1708TIP3    H226684   2.990   1.136   7.330 -0.8089 -1.2978  2.2806
 1709TIP3   OH226685   4.655   2.583   1.960  0.4353 -0.1464  0.0632
 1709TIP3    H126686   4.618   2.646   2.022  1.1892 -0.2731  0.6502
 1709TIP3    H226687   4.749   2.601   1.960  0.7772 -1.7530  0.8004
 1710TIP3   OH226688   2.581   5.740   0.842  0.5285  0.4815 -0.4910
 1710TIP3    H126689   2.585   5.771   0.752 -0.6671 -1.8213 -1.4235
 1710TIP3    H226690   2.497   5.773   0.875  1.0111  1.4092 -0.1357
 1711TIP3   OH226691   4.790   6.598   8.156  0.1207  0.0440  0.2854
 1711TIP3    H126692   4.849   6.533   8.119  1.4727 -0.7327  3.4895
 1711TIP3    H226693   4.816   6.680   8.115  1.2794 -0.7656 -0.6807
 1712TIP3   OH226694   2.949   5.632   0.125 -0.0627  0.0679  0.3809
 1712TIP3    H126695   2.988   5.718   0.141  0.2617 -0.1811  0.9700
 1712TIP3    H226696   2.979   5.578   0.199  0.6992 -0.8694 -0.5862
 1713TIP3   OH226697   4.767   5.643   1.137  0.3531 -0.8204  0.0950
 1713TIP3    H126698   4.786   5.575   1.072  0.1443 -0.2285 -0.5976
 1713TIP3    H226699   4.750   5.594   1.218 -1.0537 -1.6919 -0.6714
 1714TIP3   OH226700   5.546   5.440   0.059 -0.3397 -0.1078  0.0902
 1714TIP3    H126701   5.491   5.449   0.137  0.3889 -0.8316  0.7066
 1714TIP3    H226702   5.623   5.495   0.078 -0.7266  0.7205 -0.6667
 1715TIP3   OH226703   5.558   5.939   1.751  0.1475 -0.3088 -0.3020
 1715TIP3    H126704   5.531   5.860   1.704  0.0950  0.2036 -1.1463
 1715TIP3    H226705   5.593   5.906   1.834 -0.9381 -1.1391 -0.1417
 1716TIP3   OH226706   2.876   6.637   7.771  0.1182  0.7647  0.6350
 1716TIP3    H126707   2.944   6.570   7.782  0.5203  1.2810  1.3229
 1716TIP3    H226708   2.878   6.687   7.852 -0.6395  1.2031  0.3899
 1717TIP3   OH226709   4.490   2.092   6.080  0.6444  0.1344  0.2918
 1717TIP3    H126710   4.546   2.126   6.150  0.3184  0.1124  0.5656
 1717TIP3    H226711   4.504   1.997   6.083 -0.1808  0.0264  1.0400
 1718TIP3   OH226712   3.408   4.159   8.196 -0.2435 -0.2966  0.3073
 1718TIP3    H126713   3.398   4.253   8.213 -0.5978 -0.4661  1.0926
 1718TIP3    H226714   3.502   4.144   8.200 -0.2623 -0.1886  1.4554
 1719TIP3   OH226715   1.527   5.155   1.628  0.0781  0.3683  0.1861
 1719TIP3    H126716   1.585   5.189   1.695  0.7834  0.6973 -0.5683
 1719TIP3    H226717   1.565   5.071   1.603 -0.4317  0.0378  0.5080
 1720TIP3   OH226718   1.061   3.669   0.637  0.4596 -0.6923 -0.2916
 1720TIP3    H126719   1.154   3.649   0.652  1.1004  1.7142 -0.6191
 1720TIP3    H226720   1.042   3.740   0.698 -1.0289 -0.7425 -0.6545
 1721TIP3   OH226721   1.634   2.441   1.182 -0.0389  0.5754 -0.2661
 1721TIP3    H126722   1.656   2.395   1.102 -0.6806  1.0213 -0.7091
 1721TIP3    H226723   1.540   2.426   1.193  0.0405  0.5222  0.4002
 1722TIP3   OH226724   1.907   3.237   1.394  0.7305  0.1768 -0.0163
 1722TIP3    H126725   1.915   3.160   1.450 -0.2843  0.9955  1.3009
 1722TIP3    H226726   1.981   3.230   1.333  0.9002 -1.5999  0.3405
 1723TIP3   OH226727   4.051   3.780   1.123  0.7623  0.0521  0.1643
 1723TIP3    H126728   4.079   3.868   1.098  0.7447  0.2842  0.9225
 1723TIP3    H226729   4.095   3.722   1.061 -0.7995  0.7019 -1.6204
 1724TIP3   OH226730   0.899   6.184   7.610  0.1298 -0.0546  0.5320
 1724TIP3    H126731   0.984   6.141   7.617  1.3173  2.0356 -0.2212
 1724TIP3    H226732   0.902   6.254   7.675 -0.3728  1.0159 -0.5732
 1725TIP3   OH226733   3.806   4.579   7.009 -0.0514 -0.1577 -1.5169
 1725TIP3    H126734   3.757   4.537   7.080  0.0754  0.6548 -0.9321
 1725TIP3    H226735   3.739   4.606   6.946 -0.1792 -0.7314 -1.6305
 1726TIP3   OH226736   6.183   5.684   1.453 -0.1768  0.7866  0.5697
 1726TIP3    H126737   6.236   5.763   1.455  0.5555  0.2939  1.1921
 1726TIP3    H226738   6.228   5.625   1.394 -0.6205  0.7552  0.2544
 1727TIP3   OH226739   1.757   6.776   7.503  0.0828 -0.0738 -0.5910
 1727TIP3    H126740   1.708   6.703   7.464  0.2112 -0.8801  0.7115
 1727TIP3    H226741   1.848   6.760   7.479 -0.0212  0.3062 -1.2749
 1728TIP3   OH226742   4.485   5.586   6.737  0.2518 -0.3879  0.4459
 1728TIP3    H126743   4.477   5.490   6.743 -1.3270 -0.2931  0.3328
 1728TIP3    H226744   4.494   5.603   6.643 -0.6729 -0.3672  0.3533
 1729TIP3   OH226745   6.384   2.117   7.576  0.4086 -0.2386 -0.0519
 1729TIP3    H126746   6.297   2.142   7.606 -0.1892 -1.4856 -0.6783
 1729TIP3    H226747   6.403   2.178   7.504  0.6647  0.9259  0.9593
 1730TIP3   OH226748   1.771   5.043   7.405 -0.5087  0.7742  0.5397
 1730TIP3    H126749   1.789   5.097   7.329  1.1645  0.1469  0.4479
 1730TIP3    H226750   1.676   5.030   7.403 -0.5589  1.1538 -1.1605
 1731TIP3   OH226751   4.168   5.434   7.607  0.6253 -0.9533  0.2612
 1731TIP3    H126752   4.086   5.422   7.559  0.9741 -2.2655 -0.0714
 1731TIP3    H226753   4.164   5.369   7.677  1.9695 -2.0510 -0.6195
 1732TIP3   OH226754   0.252   5.008   6.779 -0.8670 -0.3178 -0.0713
 1732TIP3    H126755   0.281   5.046   6.696 -2.3062 -0.4482 -0.6623
 1732TIP3    H226756   0.186   5.069   6.811 -0.8840 -0.6777  0.5833
 1733TIP3   OH226757   1.549   0.306   6.297  0.4949 -0.0108  0.2965
 1733TIP3    H126758   1.560   0.385   6.244  0.0489  0.0708  0.3167
 1733TIP3    H226759   1.460   0.277   6.279  0.7935 -0.7505 -0.0209
 1734TIP3   OH226760   6.528   6.550   8.345 -0.2144  1.0291  0.3001
 1734TIP3    H126761   6.583   6.589   8.413 -0.5423  1.0930  0.5333
 1734TIP3    H226762   6.452   6.516   8.392 -0.3216  0.8446 -0.0043
 1735TIP3   OH226763   2.469   0.633   0.504  0.0687  0.2892 -0.5914
 1735TIP3    H126764   2.544   0.575   0.493  0.2021  0.6362 -1.5651
 1735TIP3    H226765   2.397   0.590   0.458 -0.1413  0.3256 -0.3031
 1736TIP3   OH226766   6.551   4.854   1.666  0.1071  0.3907 -0.1975
 1736TIP3    H126767   6.458   4.862   1.684  0.3694  1.1295  0.9875
 1736TIP3    H226768   6.574   4.937   1.624  0.0097 -0.2800 -1.6103
 1737TIP3   OH226769   4.913   3.351   0.965 -0.8060 -0.0447 -0.0308
 1737TIP3    H126770   4.872   3.434   0.988  1.7298  1.3373 -0.1020
 1737TIP3    H226771   4.964   3.371   0.886  0.1629 -1.5431  0.1761
 1738TIP3   OH226772   3.823   0.211   1.194  0.6561 -0.3330  0.4874
 1738TIP3    H126773   3.914   0.180   1.190  0.2306 -1.6807  0.8599
 1738TIP3    H226774   3.771   0.132   1.207 -0.8469  0.0340 -2.4765
 1739TIP3   OH226775   4.151   4.664   1.585 -0.0413 -0.7819 -0.3941
 1739TIP3    H126776   4.111   4.666   1.498 -0.3977 -1.8925 -0.2743
 1739TIP3    H226777   4.127   4.579   1.620  0.3443 -0.4581  0.6876
 1740TIP3   OH226778   4.996   0.413   2.266  0.0130 -0.4040 -0.6837
 1740TIP3    H126779   5.004   0.318   2.255 -1.5246 -0.5101 -1.1067
 1740TIP3    H226780   5.062   0.435   2.332 -0.1272 -1.8745 -0.0089
 1741TIP3   OH226781   0.372   2.176   2.350  0.1380  0.1434  0.0470
 1741TIP3    H126782   0.443   2.174   2.413  0.9219  1.5910 -0.7369
 1741TIP3    H226783   0.292   2.181   2.403  0.3528 -3.7129  1.0236
 1742TIP3   OH226784   3.861   5.905   7.447  0.0992  0.4338 -0.5306
 1742TIP3    H126785   3.902   5.953   7.376  0.7574 -0.5589 -0.8383
 1742TIP3    H226786   3.788   5.961   7.475  0.2699  1.1577 -1.4989
 1743TIP3   OH226787   0.679   6.074   1.816  0.4446 -0.2079 -0.2582
 1743TIP3    H126788   0.612   6.139   1.795  0.4346 -0.1742 -0.1278
 1743TIP3    H226789   0.743   6.122   1.869  0.4930 -0.2768 -0.2540
 1744TIP3   OH226790   1.813   3.787   8.277  0.7389 -0.1047  0.1356
 1744TIP3    H126791   1.894   3.774   8.327  0.8573  0.8696  0.2288
 1744TIP3    H226792   1.782   3.874   8.304 -0.9104 -0.8861  0.8801
 1745TIP3   OH226793   1.736   1.163   6.931  0.1143  0.1311 -0.6686
 1745TIP3    H126794   1.787   1.234   6.969  0.0956  0.0801 -0.5440
 1745TIP3    H226795   1.779   1.143   6.848 -0.8840  1.4480 -1.5545
 1746TIP3   OH226796   2.521   5.075   6.972  0.4347 -0.0703 -0.3296
 1746TIP3    H126797   2.606   5.117   6.957  0.1930  0.7481  0.5226
 1746TIP3    H226798   2.464   5.112   6.904 -0.2434  2.4130  1.4607
 1747TIP3   OH226799   3.701   4.514   8.379 -0.1612  0.3169  0.1612
 1747TIP3    H126800   3.767   4.468   8.328  0.3603 -1.1362  2.0149
 1747TIP3    H226801   3.734   4.512   8.469 -2.0026  0.9061  0.9085
 1748TIP3   OH226802   2.543   0.474   7.853 -0.3415  0.4612 -0.0331
 1748TIP3    H126803   2.609   0.444   7.915  0.1368 -0.1263 -0.8200
 1748TIP3    H226804   2.511   0.395   7.811 -1.2003  0.7841 -0.0225
 1749TIP3   OH226805   0.170   3.532   2.098  0.3565 -0.0105 -0.5012
 1749TIP3    H126806   0.108   3.588   2.051  0.4489  1.2647  0.8380
 1749TIP3    H226807   0.252   3.582   2.099  0.7830 -0.6972 -0.3233
 1750TIP3   OH226808   5.479   4.312   0.885 -0.6053  0.0546 -0.4403
 1750TIP3    H126809   5.460   4.237   0.941 -1.0692  0.4389 -0.0784
 1750TIP3    H226810   5.491   4.385   0.945  0.5421  0.1334 -0.7568
 1751TIP3   OH226811   3.857   2.634   6.612 -0.0133  0.8423 -0.0964
 1751TIP3    H126812   3.841   2.695   6.540 -0.8057  1.2966  0.4448
 1751TIP3    H226813   3.787   2.652   6.675  1.1580  1.0727  1.1951
 1752TIP3   OH226814   4.652   5.293   0.841  0.4699 -0.0685 -0.2769
 1752TIP3    H126815   4.607   5.230   0.898  2.7665 -0.0393  1.7369
 1752TIP3    H226816   4.636   5.260   0.752 -0.0007 -2.4325  0.5932
 1753TIP3   OH226817   6.126   1.578   7.770 -0.4849  0.6248 -0.3353
 1753TIP3    H126818   6.089   1.659   7.734 -1.4953  0.2604 -0.1323
 1753TIP3    H226819   6.218   1.599   7.783 -0.7704  1.8247 -0.0852
 1754TIP3   OH226820   4.674   5.835   7.007 -0.1749 -0.0687  0.5323
 1754TIP3    H126821   4.581   5.850   7.025 -0.4097 -1.0823  0.1832
 1754TIP3    H226822   4.718   5.906   7.054 -0.9605 -0.9583  2.7254
 1755TIP3   OH226823   0.825   6.810   8.146  0.2030 -0.9764  0.1223
 1755TIP3    H126824   0.731   6.820   8.131  0.2825 -0.1302  0.1484
 1755TIP3    H226825   0.866   6.851   8.070  0.5510 -1.6889 -0.0825
 1756TIP3   OH226826   3.066   5.898   2.092  0.5347  0.0235  0.0958
 1756TIP3    H126827   3.161   5.892   2.102  0.3938  0.3353  1.9570
 1756TIP3    H226828   3.052   5.890   1.998  2.4121  0.1309 -0.2443
 1757TIP3   OH226829   5.271   4.686   1.867  0.6718 -0.1089  0.3535
 1757TIP3    H126830   5.212   4.617   1.897  1.4844 -1.1567 -0.4248
 1757TIP3    H226831   5.289   4.738   1.946 -1.0729  0.0932  0.6629
 1758TIP3   OH226832   0.870   2.271   1.514  0.1926  0.2170  0.2569
 1758TIP3    H126833   0.952   2.253   1.561  0.6598  0.5123 -0.4321
 1758TIP3    H226834   0.867   2.366   1.506 -1.0544  0.3368  1.7201
 1759TIP3   OH226835   2.265   6.227   8.164  0.0065  0.7571 -0.2518
 1759TIP3    H126836   2.196   6.172   8.201  1.0958  0.2199  1.0671
 1759TIP3    H226837   2.224   6.268   8.088 -1.5280 -0.1210  0.0465
 1760TIP3   OH226838   5.556   3.487   2.098  0.0263 -0.1909  0.6379
 1760TIP3    H126839   5.549   3.523   2.186  1.0059 -1.3810  1.2217
 1760TIP3    H226840   5.594   3.558   2.046 -1.3935  0.8340  0.9304
 1761TIP3   OH226841   0.380   2.056   1.001  0.2390  0.4124 -0.5532
 1761TIP3    H126842   0.452   2.111   1.031  0.2169  0.4234 -0.5202
 1761TIP3    H226843   0.390   1.974   1.050 -0.3488  0.7747  0.1897
 1762TIP3   OH226844   0.706   5.093   0.123  0.0475  0.7896  0.0926
 1762TIP3    H126845   0.723   5.139   0.206 -0.6129  0.4257  0.4393
 1762TIP3    H226846   0.786   5.105   0.073  1.1315 -0.4133  1.4484
 1763TIP3   OH226847   6.618   4.019   0.994 -0.1822  0.5336 -0.1280
 1763TIP3    H126848   6.595   3.986   0.907 -1.0313  0.1329  0.2344
 1763TIP3    H226849   6.614   3.941   1.050 -0.0075  0.8591  0.3405
 1764TIP3   OH226850   0.602   3.678   7.512  0.2444 -0.4222  0.0890
 1764TIP3    H126851   0.657   3.663   7.590 -0.1490 -1.0079  0.2653
 1764TIP3    H226852   0.576   3.590   7.485 -1.5985 -0.1049  0.7302
 1765TIP3   OH226853   2.221   3.579   8.583  0.4005 -0.8110  0.0623
 1765TIP3    H126854   2.130   3.588   8.608  0.1088 -3.1836  0.0568
 1765TIP3    H226855   2.220   3.517   8.510  1.9405 -0.0874 -0.6326
 1766TIP3   OH226856   4.722   4.472   0.816  0.3861 -0.5115  0.0433
 1766TIP3    H126857   4.646   4.487   0.872  0.3558 -0.6981  0.0519
 1766TIP3    H226858   4.690   4.415   0.746  0.4086 -0.2297 -0.1989
 1767TIP3   OH226859   4.620   1.822   1.300  0.4093 -0.0406 -0.2745
 1767TIP3    H126860   4.652   1.887   1.362 -1.2072 -1.2655  1.9964
 1767TIP3    H226861   4.698   1.771   1.278  1.4338  1.7639 -1.0492
 1768TIP3   OH226862   6.107   1.329   6.612  0.2269 -0.0477 -0.4107
 1768TIP3    H126863   6.155   1.278   6.677  0.6442  2.2843  1.2323
 1768TIP3    H226864   6.019   1.338   6.650 -0.5714 -1.4577 -1.8103
 1769TIP3   OH226865   4.507   4.172   6.153 -0.3458 -0.1801 -0.1438
 1769TIP3    H126866   4.457   4.241   6.110 -1.9929 -1.8441 -1.0420
 1769TIP3    H226867   4.447   4.098   6.157  1.2095 -1.4425  1.1738
 1770TIP3   OH226868   3.710   3.523   0.849 -0.1016 -0.2116  0.5923
 1770TIP3    H126869   3.626   3.479   0.836 -1.4283  2.2940 -0.0704
 1770TIP3    H226870   3.690   3.594   0.911  1.7059  0.0173  0.9765
 1771TIP3   OH226871   6.189   4.109   8.045 -0.6194 -0.1621 -0.4645
 1771TIP3    H126872   6.177   4.073   8.133 -0.4734 -0.0647 -0.4048
 1771TIP3    H226873   6.148   4.045   7.988  2.4187 -2.1333 -0.6795
 1772TIP3   OH226874   3.420   4.426   8.362  0.4167 -0.7131  0.3381
 1772TIP3    H126875   3.358   4.494   8.335  0.1054 -2.0424 -2.6100
 1772TIP3    H226876   3.506   4.468   8.353  0.2585 -0.7389 -1.8449
 1773TIP3   OH226877   5.577   6.228   0.960  0.6247 -0.8674  0.1589
 1773TIP3    H126878   5.667   6.229   0.928  0.6725  0.5765  0.2661
 1773TIP3    H226879   5.554   6.136   0.964  2.1807 -1.2737  0.3587
 1774TIP3   OH226880   0.050   4.663   8.166 -0.1473  0.2410  0.1597
 1774TIP3    H126881   0.015   4.653   8.255 -0.7671 -0.2797 -0.1394
 1774TIP3    H226882   0.071   4.756   8.159  2.3747 -0.1125  1.7587
 1775TIP3   OH226883   1.636   3.399   8.703 -0.3278 -0.1834  0.3516
 1775TIP3    H126884   1.574   3.365   8.639 -0.5773 -1.2244  1.1149
 1775TIP3    H226885   1.612   3.491   8.714  1.4103  0.8321 -3.0077
 1776TIP3   OH226886   3.421   3.160   8.733  0.7970  0.3218  0.3089
 1776TIP3    H126887   3.360   3.126   8.798 -0.8620  1.7092 -0.4624
 1776TIP3    H226888   3.426   3.090   8.667 -0.6192  0.5093 -0.0255
 1777TIP3   OH226889   0.448   4.866   6.275 -0.3766  0.3385  0.3437
 1777TIP3    H126890   0.536   4.901   6.262  0.6034 -1.3763  1.9167
 1777TIP3    H226891   0.460   4.772   6.279 -2.1314  0.1176  1.5636
 1778TIP3   OH226892   6.434   4.109   1.544  0.0234 -0.1549  0.3603
 1778TIP3    H126893   6.399   4.196   1.526  1.7486  0.5969  0.4340
 1778TIP3    H226894   6.358   4.051   1.542 -1.0168  1.1888 -0.7313
 1779TIP3   OH226895   0.521   3.610   7.788 -0.4941  0.1524  0.2828
 1779TIP3    H126896   0.508   3.575   7.877 -0.3869 -1.3606 -0.2763
 1779TIP3    H226897   0.615   3.606   7.775 -0.6353 -1.2271 -0.4979
 1780TIP3   OH226898   0.070   0.570   8.652  0.2705 -0.0442 -0.1667
 1780TIP3    H126899   0.084   0.503   8.719  0.3643 -0.0333 -0.1752
 1780TIP3    H226900   0.158   0.587   8.617  0.3344  0.5046  0.2380
 1781TIP3   OH226901   2.129   3.882   8.122 -0.3214 -0.3649  0.3025
 1781TIP3    H126902   2.128   3.800   8.072 -0.2779 -0.7819  0.9811
 1781TIP3    H226903   2.120   3.950   8.055 -1.5422 -0.9558 -0.1805
 1782TIP3   OH226904   6.358   6.540   1.865 -0.4417  0.0914 -0.3429
 1782TIP3    H126905   6.364   6.448   1.839 -0.3104 -0.4797  1.5434
 1782TIP3    H226906   6.318   6.583   1.790  2.2974 -0.8935 -2.5552
 1783TIP3   OH226907   4.715   1.041   0.055 -0.1682 -0.7197 -0.1606
 1783TIP3    H126908   4.803   1.032   0.091 -0.5340  0.1209  1.0203
 1783TIP3    H226909   4.726   1.029  -0.040  1.1838 -0.7866 -0.0134
 1784TIP3   OH226910   6.634   5.852   1.870 -0.2859 -0.1237 -0.2479
 1784TIP3    H126911   6.546   5.847   1.907  0.8472  0.6092  2.8518
 1784TIP3    H226912   6.621   5.893   1.784 -2.8583  0.9491  0.5448
 1785TIP3   OH226913   2.527   4.254   7.796 -0.0734  0.4132 -0.2593
 1785TIP3    H126914   2.491   4.337   7.826  0.3811  0.1762  0.9778
 1785TIP3    H226915   2.609   4.244   7.844 -0.4162 -1.0317  0.0804
 1786TIP3   OH226916   5.238   2.664   6.806 -0.0155  0.0262 -0.3649
 1786TIP3    H126917   5.160   2.708   6.772  0.2252  1.3578  0.7099
 1786TIP3    H226918   5.300   2.667   6.733  0.3058  2.3268 -0.0786
 1787TIP3   OH226919   1.502   4.741   7.683 -0.1079 -0.1689 -0.0261
 1787TIP3    H126920   1.500   4.750   7.588  1.2678  0.5142 -0.0079
 1787TIP3    H226921   1.441   4.807   7.715  0.5401  0.6199 -0.3903
 1788TIP3   OH226922   5.999   5.781   0.169  0.1447  0.1279 -0.3043
 1788TIP3    H126923   6.080   5.832   0.173  0.8869 -0.8353 -1.9834
 1788TIP3    H226924   5.964   5.799   0.082  0.3857 -2.1160 -0.9217
 1789TIP3   OH226925   3.151   4.025   8.171 -0.0844  0.1868 -0.6720
 1789TIP3    H126926   3.118   4.068   8.093 -1.8303  1.2666  0.5860
 1789TIP3    H226927   3.221   4.082   8.203 -1.2213  1.2489  0.0237
 1790TIP3   OH226928   4.605   5.519   8.615  0.3648  0.0613 -0.1495
 1790TIP3    H126929   4.581   5.604   8.652  0.5724 -0.8625  2.2944
 1790TIP3    H226930   4.583   5.456   8.684  0.7771 -1.8189 -1.6545
 1791TIP3   OH226931   4.028   1.000   6.619  0.5074 -0.3077  0.1158
 1791TIP3    H126932   4.081   0.923   6.638 -2.2039 -1.8860  1.8613
 1791TIP3    H226933   3.994   0.985   6.531  2.5724  0.5791 -0.8995
 1792TIP3   OH226934   5.797   2.627   6.700 -0.0145 -0.3191  0.2333
 1792TIP3    H126935   5.859   2.565   6.738  0.1721  1.0748  2.3898
 1792TIP3    H226936   5.711   2.590   6.719  0.1033 -0.0948  1.3007
 1793TIP3   OH226937   6.763   2.307   6.337  0.5106 -0.0090  0.1568
 1793TIP3    H126938   6.685   2.290   6.285 -1.1217  1.9887  1.7832
 1793TIP3    H226939   6.817   2.363   6.282 -0.3174  0.5558 -0.0877
 1794TIP3   OH226940   2.178   2.389   6.454  0.5513  0.2751 -0.3897
 1794TIP3    H126941   2.245   2.457   6.438 -0.7087  1.6014 -0.2533
 1794TIP3    H226942   2.095   2.435   6.444 -0.3483 -0.9742  1.0149
 1795TIP3   OH226943   2.817   2.125   7.237  0.3924  0.2036 -0.3677
 1795TIP3    H126944   2.909   2.146   7.223  0.7620  0.6903  2.3973
 1795TIP3    H226945   2.814   2.029   7.239  1.0308  0.1939  0.4994
 1796TIP3   OH226946   4.821   4.148   1.471 -0.1595 -0.1217 -0.0008
 1796TIP3    H126947   4.840   4.154   1.565 -2.3302 -0.7601  0.5385
 1796TIP3    H226948   4.822   4.238   1.440  0.1275  0.1319  0.7212
 1797TIP3   OH226949   4.105   0.180   1.084  1.1835 -0.1669  0.5663
 1797TIP3    H126950   4.127   0.088   1.094 -0.3318 -0.6959 -0.5921
 1797TIP3    H226951   4.187   0.222   1.060  1.4557 -1.6417 -1.2665
 1798TIP3   OH226952   4.372   4.874   5.969  0.1919 -0.1408  0.2497
 1798TIP3    H126953   4.314   4.949   5.984  0.1239  0.2674 -1.8080
 1798TIP3    H226954   4.314   4.804   5.939  0.3297 -0.9159  1.6664
 1799TIP3   OH226955   4.111   5.545   0.981  0.2294  0.2471  0.1786
 1799TIP3    H126956   4.058   5.537   1.060 -0.2457 -1.8647 -0.3111
 1799TIP3    H226957   4.147   5.634   0.986  0.1266  0.2206  2.6796
 1800TIP3   OH226958   5.700   6.657   8.580  0.4435 -0.4131  0.2796
 1800TIP3    H126959   5.641   6.659   8.654  0.5985  1.0921  0.3846
 1800TIP3    H226960   5.643   6.645   8.504  0.1929 -0.8916  0.5375
 1801TIP3   OH226961   3.864   0.661   8.582  0.6169 -0.4783 -0.3219
 1801TIP3    H126962   3.947   0.655   8.629  0.2596  0.6538  0.4762
 1801TIP3    H226963   3.873   0.738   8.526 -0.2221  0.1942  0.4442
 1802TIP3   OH226964   2.182   0.716   7.575 -0.3547 -0.4945 -0.5829
 1802TIP3    H126965   2.241   0.641   7.565  1.0943  0.4725  0.3936
 1802TIP3    H226966   2.236   0.784   7.614 -2.3029  0.2096  1.0725
 1803TIP3   OH226967   1.862   3.592   0.981  0.8896  0.1429 -0.9187
 1803TIP3    H126968   1.940   3.636   1.015  0.1266  0.5760  0.3155
 1803TIP3    H226969   1.832   3.537   1.054  1.3773 -1.8687 -2.1582
 1804TIP3   OH226970   4.039   0.277   7.582 -0.3335 -0.6493 -0.5737
 1804TIP3    H126971   4.022   0.347   7.646  1.0376 -0.4426 -0.4073
 1804TIP3    H226972   4.004   0.311   7.500  0.4264  0.3207 -0.5251
 1805TIP3   OH226973   2.371   0.702   1.624  0.3377 -0.2119  0.6683
 1805TIP3    H126974   2.370   0.683   1.718 -0.0065 -0.5390  0.6021
 1805TIP3    H226975   2.332   0.625   1.583 -1.6013  0.8246  0.4368
 1806TIP3   OH226976   4.749   3.302   6.573  0.3535 -0.9040  0.1164
 1806TIP3    H126977   4.747   3.211   6.542  0.0468 -1.0048  0.4333
 1806TIP3    H226978   4.721   3.297   6.664 -0.3992 -0.3952 -0.0840
 1807TIP3   OH226979   0.840   5.487   7.053  0.2870 -0.2433 -0.3749
 1807TIP3    H126980   0.752   5.524   7.057  1.1163  1.9615 -1.4503
 1807TIP3    H226981   0.860   5.480   6.960  1.4788 -0.1407 -0.1483
 1808TIP3   OH226982   5.496   3.147   6.387 -0.3651  0.5375 -0.0117
 1808TIP3    H126983   5.471   3.221   6.332 -1.5031 -0.2848 -0.6402
 1808TIP3    H226984   5.441   3.154   6.465 -0.7231  0.1714 -0.2274
 1809TIP3   OH226985   3.121   0.162   7.947 -0.5752 -0.4520 -0.3769
 1809TIP3    H126986   3.151   0.158   7.856 -0.8489 -0.4952 -0.4691
 1809TIP3    H226987   3.199   0.147   7.999 -0.7441 -2.5299 -0.6341
 1810TIP3   OH226988   6.750   5.469   7.819  0.4519  0.1287 -0.0656
 1810TIP3    H126989   6.753   5.379   7.784 -2.4653  1.1694 -3.6630
 1810TIP3    H226990   6.661   5.477   7.854 -0.7657  2.5118 -3.2437
 1811TIP3   OH226991   6.560   1.756   7.509  0.2825  0.4521 -0.1882
 1811TIP3    H126992   6.522   1.789   7.590 -0.1840  0.0019 -0.2161
 1811TIP3    H226993   6.485   1.730   7.456  0.6186 -0.1641 -0.3749
 1812TIP3   OH226994   0.237   6.153   1.451  0.0663  0.3403  0.2726
 1812TIP3    H126995   0.183   6.180   1.378 -2.0198 -0.9199  1.2541
 1812TIP3    H226996   0.178   6.103   1.508  1.8681  0.2927  2.2443
 1813TIP3   OH226997   5.856   1.377   6.700 -0.7304  0.0582  0.0210
 1813TIP3    H126998   5.825   1.467   6.701 -2.9917 -0.6670  1.4062
 1813TIP3    H226999   5.777   1.323   6.699  0.5275 -1.9163  0.2084
 1814TIP3   OH227000   6.068   6.352   8.412 -0.0449  0.8466  0.4874
 1814TIP3    H127001   6.135   6.377   8.348 -0.9270  0.3140 -0.6907
 1814TIP3    H227002   6.081   6.413   8.485  1.1963  1.2722 -0.0513
 1815TIP3   OH227003   4.517   6.203   7.708 -0.2047  0.2622 -0.3206
 1815TIP3    H127004   4.540   6.283   7.662  1.3645 -0.3050 -0.5816
 1815TIP3    H227005   4.425   6.214   7.731 -0.3385  1.6135 -1.3967
 1816TIP3   OH227006   5.470   4.741   0.798 -0.4621  0.4198 -0.3631
 1816TIP3    H127007   5.425   4.657   0.791 -0.4978  0.3815  0.2792
 1816TIP3    H227008   5.552   4.729   0.750 -0.8133  0.2670 -0.9364
 1817TIP3   OH227009   4.635   3.378   0.020 -0.1988  0.4332  0.1590
 1817TIP3    H127010   4.660   3.404  -0.069  1.6604 -0.7742  0.2867
 1817TIP3    H227011   4.542   3.354   0.013 -0.0350  0.1993 -1.4821
 1818TIP3   OH227012   5.954   6.825   2.379 -0.2259 -0.0419  0.4798
 1818TIP3    H127013   5.881   6.883   2.358  0.5375  1.0455  0.7224
 1818TIP3    H227014   6.009   6.827   2.302 -1.1992 -2.1212 -0.3317
 1819TIP3   OH227015   3.675   4.816   7.414 -0.6091  0.2681 -0.7836
 1819TIP3    H127016   3.633   4.790   7.333 -1.0123  0.2143 -0.5582
 1819TIP3    H227017   3.742   4.749   7.429 -1.7809 -0.7734 -0.0964
 1820TIP3   OH227018   6.791   1.823   7.109 -0.8020 -0.0085 -0.3891
 1820TIP3    H127019   6.836   1.905   7.130 -0.7334  0.6036 -2.6701
 1820TIP3    H227020   6.845   1.783   7.041 -1.0468 -1.7886  0.4062
 1821TIP3   OH227021   0.605   1.827   7.720  0.5205  0.8790  0.1197
 1821TIP3    H127022   0.585   1.748   7.672 -0.2603  0.9282  0.3430
 1821TIP3    H227023   0.521   1.872   7.729  0.9635  1.7734 -0.0796
 1822TIP3   OH227024   1.408   5.232   0.606  0.1710  0.6864  0.2415
 1822TIP3    H127025   1.336   5.292   0.586  0.0830  1.0560  1.5691
 1822TIP3    H227026   1.446   5.211   0.521  0.5928  3.1120 -0.2364
 1823TIP3   OH227027   3.385   5.733   7.056 -0.5606  0.2761  0.1966
 1823TIP3    H127028   3.411   5.780   7.136 -0.3774  0.0588  0.2679
 1823TIP3    H227029   3.348   5.800   6.999 -0.1190  0.5437  0.2167
 1824TIP3   OH227030   5.087   5.132   8.658  0.0425  0.1219 -0.4896
 1824TIP3    H127031   5.079   5.186   8.736 -0.3264 -0.6408  0.0139
 1824TIP3    H227032   5.022   5.063   8.670  0.5498 -0.4710 -1.0866
 1825TIP3   OH227033   6.747   0.940   7.713 -0.6649 -0.5201 -0.6088
 1825TIP3    H127034   6.700   0.857   7.721 -1.6115 -0.1509 -1.9902
 1825TIP3    H227035   6.798   0.932   7.632 -1.5638  0.5932 -1.3250
 1826TIP3   OH227036   6.035   1.565   6.943 -0.1705  0.5623 -0.4166
 1826TIP3    H127037   5.969   1.511   6.987  0.8581 -0.6654 -0.3295
 1826TIP3    H227038   5.984   1.630   6.895 -1.4291 -0.0943 -0.0189
 1827TIP3   OH227039   4.003   4.613   8.104 -0.0941  0.2244 -0.0405
 1827TIP3    H127040   4.062   4.559   8.156  0.5110  1.1471  0.2620
 1827TIP3    H227041   4.022   4.589   8.013 -0.3079 -0.5376  0.1123
 1828TIP3   OH227042   4.100   1.986   1.422  0.3866  0.1635 -0.0438
 1828TIP3    H127043   4.143   1.906   1.392  1.7334  0.1564  1.7734
 1828TIP3    H227044   4.031   2.002   1.357  0.9985 -1.6729 -1.2085
 1829TIP3   OH227045   3.841   2.279   6.117 -0.1796 -0.1817  0.4036
 1829TIP3    H127046   3.772   2.231   6.069 -1.9136 -0.6163  3.0817
 1829TIP3    H227047   3.909   2.213   6.132 -0.1417 -0.3482 -0.4733
 1830TIP3   OH227048   2.713   6.656   0.989 -0.0684 -0.5572  0.8353
 1830TIP3    H127049   2.627   6.687   0.961 -0.1289 -0.4700  1.1156
 1830TIP3    H227050   2.768   6.662   0.911  0.5563  2.4618  1.3966
 1831TIP3   OH227051   4.109   2.403   7.266  0.0941  0.6802  0.6039
 1831TIP3    H127052   4.058   2.350   7.205 -0.9403  1.7989  0.4581
 1831TIP3    H227053   4.078   2.377   7.353  0.2500  0.4035  0.5782
 1832TIP3   OH227054   6.081   5.228   7.269 -0.9127 -0.2521  0.3065
 1832TIP3    H127055   6.016   5.295   7.291 -1.0213 -0.4126  0.4736
 1832TIP3    H227056   6.111   5.253   7.181 -1.0118 -0.0316  0.3327
 1833TIP3   OH227057   5.614   6.541   0.086  0.0751 -0.5565  0.1716
 1833TIP3    H127058   5.667   6.461   0.080  0.1129 -0.4444 -1.4640
 1833TIP3    H227059   5.524   6.510   0.093  0.0300 -0.7731 -1.1214
 1834TIP3   OH227060   2.287   6.742   1.869 -0.0959 -0.4189 -0.2251
 1834TIP3    H127061   2.312   6.721   1.779 -2.1511 -0.6945 -0.7873
 1834TIP3    H227062   2.367   6.776   1.909  1.2648 -1.7531 -1.6784
 1835TIP3   OH227063   2.351   3.785   7.058  0.1508 -0.2847 -0.2305
 1835TIP3    H127064   2.279   3.838   7.093 -1.5270 -2.6606  0.1061
 1835TIP3    H227065   2.388   3.742   7.135  0.5352 -0.7125 -0.6522
 1836TIP3   OH227066   3.087   2.454   2.059  0.4468  0.6794 -0.2460
 1836TIP3    H127067   3.091   2.407   2.142  1.0828  0.8701 -0.1655
 1836TIP3    H227068   3.152   2.524   2.068  0.7299  0.5200 -1.0154
 1837TIP3   OH227069   3.583   6.293   0.831 -0.4552  0.3864 -0.2207
 1837TIP3    H127070   3.519   6.262   0.766 -0.0896  0.2291 -0.5136
 1837TIP3    H227071   3.633   6.360   0.784 -0.5506  0.6647  0.0775
 1838TIP3   OH227072   4.882   2.893   0.492 -0.5426 -0.1956  0.3865
 1838TIP3    H127073   4.842   2.937   0.568 -0.9190 -0.3332  0.2744
 1838TIP3    H227074   4.851   2.943   0.417 -0.6176 -0.3892  0.2888
 1839TIP3   OH227075   2.972   1.936   0.078 -0.1063 -0.6284 -0.2220
 1839TIP3    H127076   2.897   1.878   0.068 -1.4093  0.3755  2.5484
 1839TIP3    H227077   2.935   2.017   0.114  2.0064  0.8714 -1.1938
 1840TIP3   OH227078   4.729   1.356   5.847  0.4740  0.6571 -0.4534
 1840TIP3    H127079   4.639   1.338   5.872  0.3717  3.2610  1.4234
 1840TIP3    H227080   4.771   1.270   5.841 -2.2274 -0.6755 -2.1091
 1841TIP3   OH227081   6.559   1.969   7.257 -0.6724 -0.4431  0.0095
 1841TIP3    H127082   6.524   1.895   7.306 -0.2356 -0.5244  0.2100
 1841TIP3    H227083   6.643   1.937   7.222 -0.5781 -0.1116 -0.0752
 1842TIP3   OH227084   0.419   2.208   0.368  0.4623 -0.3920  0.0196
 1842TIP3    H127085   0.445   2.245   0.284  1.2052 -1.0285 -0.0393
 1842TIP3    H227086   0.495   2.156   0.396 -0.2712 -1.2551  0.4543
 1843TIP3   OH227087   6.568   5.305   1.431  0.3671 -0.0160  0.0021
 1843TIP3    H127088   6.480   5.334   1.458  0.0532  0.2225 -1.2232
 1843TIP3    H227089   6.628   5.364   1.476 -0.0664 -0.5016  1.2609
 1844TIP3   OH227090   5.294   5.443   0.441 -0.3137 -0.2353  0.6744
 1844TIP3    H127091   5.388   5.441   0.424  0.0914  0.4693  2.6436
 1844TIP3    H227092   5.262   5.516   0.389 -0.5852 -2.8125 -3.2530
 1845TIP3   OH227093   6.139   2.978   1.994  0.0738 -0.1472 -0.4766
 1845TIP3    H127094   6.052   3.013   2.010 -1.1025 -2.3547 -1.5269
 1845TIP3    H227095   6.185   3.047   1.945 -0.7993  1.3279  0.7169
 1846TIP3   OH227096   5.437   6.328   7.973  0.0219 -0.1333  0.6046
 1846TIP3    H127097   5.415   6.286   7.889  1.0014 -1.0967  0.8094
 1846TIP3    H227098   5.532   6.324   7.978  0.2248  2.4244  0.5107
 1847TIP3   OH227099   6.078   2.405   8.431 -0.7736 -0.0164 -0.0634
 1847TIP3    H127100   6.113   2.418   8.519  2.9731 -1.3938 -1.1812
 1847TIP3    H227101   6.030   2.321   8.437 -0.0678 -0.3843  0.5458
 1848TIP3   OH227102   1.937   4.144   1.302  0.6523  0.3508 -0.0156
 1848TIP3    H127103   1.993   4.178   1.372  1.2871 -1.2755  0.3071
 1848TIP3    H227104   1.866   4.099   1.348  0.2720  0.5124 -0.4330
 1849TIP3   OH227105   2.706   6.514   7.583 -0.2489 -0.1964 -0.1503
 1849TIP3    H127106   2.755   6.589   7.617 -0.8289  0.3139 -0.4214
 1849TIP3    H227107   2.741   6.438   7.631  0.2170  0.2674  0.2533
 1850TIP3   OH227108   4.023   6.745   6.205  0.0920 -0.1267  0.0538
 1850TIP3    H127109   4.024   6.691   6.126 -0.6772 -0.2334  0.1058
 1850TIP3    H227110   3.965   6.818   6.184  2.9180  2.0299 -0.8548
 1851TIP3   OH227111   1.795   5.567   7.462 -0.0573  0.3227 -0.7660
 1851TIP3    H127112   1.858   5.496   7.451 -1.6604 -1.0370 -1.5799
 1851TIP3    H227113   1.847   5.641   7.493  1.4315 -1.7159  2.0087
 1852TIP3   OH227114   1.418   0.889   0.826 -0.1065 -0.1788  0.3893
 1852TIP3    H127115   1.340   0.857   0.873 -0.8529 -0.1805 -0.8187
 1852TIP3    H227116   1.457   0.811   0.787  0.3266 -0.1320  0.7188
 1853TIP3   OH227117   4.205   3.943   1.448 -0.4945 -0.2580 -0.4788
 1853TIP3    H127118   4.221   3.848   1.447  0.2311 -0.2798  2.8606
 1853TIP3    H227119   4.143   3.956   1.520 -0.9769  1.7913 -1.2000
 1854TIP3   OH227120   4.244   6.581   8.295 -0.3675 -0.9221 -0.0344
 1854TIP3    H127121   4.274   6.561   8.206 -0.7892 -0.2884 -0.3279
 1854TIP3    H227122   4.320   6.619   8.338  0.9796 -4.4333  1.0534
 1855TIP3   OH227123   1.003   5.185   0.798 -0.7572 -0.1862  0.2323
 1855TIP3    H127124   1.001   5.258   0.861  1.2007  0.2338 -0.1313
 1855TIP3    H227125   1.012   5.107   0.852 -3.2493 -0.2791  0.6528
 1856TIP3   OH227126   6.154   1.013   0.650 -0.6170  0.5864 -0.4635
 1856TIP3    H127127   6.223   0.972   0.702 -1.6694  0.6639  1.0739
 1856TIP3    H227128   6.198   1.043   0.571  0.8270 -0.5775 -0.1552
 1857TIP3   OH227129   1.396   6.772   0.728 -0.2532  0.2175 -0.3321
 1857TIP3    H127130   1.308   6.738   0.711 -0.4263  0.1135  0.7055
 1857TIP3    H227131   1.396   6.859   0.688 -1.3605  0.8544  0.9714
 1858TIP3   OH227132   4.966   0.175   6.958  0.0762 -0.1906  0.1795
 1858TIP3    H127133   4.905   0.243   6.987  0.2268  0.1639 -0.3243
 1858TIP3    H227134   5.047   0.194   7.005  0.1894  0.1258 -0.1348
 1859TIP3   OH227135   5.855   4.393   1.060 -0.5900 -0.3574  0.4663
 1859TIP3    H127136   5.925   4.430   1.114 -0.0608 -2.4312  1.2902
 1859TIP3    H227137   5.798   4.349   1.123 -1.5457 -0.4284 -0.4170
 1860TIP3   OH227138   1.938   4.775   1.871  0.1935  0.2227  0.1854
 1860TIP3    H127139   1.871   4.708   1.884 -0.5788  1.0301  0.4224
 1860TIP3    H227140   2.013   4.727   1.835 -1.6743 -0.2033 -3.6025
 1861TIP3   OH227141   0.499   1.338   7.500  0.4459  0.0225 -0.7132
 1861TIP3    H127142   0.453   1.256   7.488  0.7391 -0.1178 -0.8840
 1861TIP3    H227143   0.459   1.377   7.578  0.1773 -0.1892 -0.7462
 1862TIP3   OH227144   0.820   5.233   1.699  0.6125 -0.1757  0.2577
 1862TIP3    H127145   0.735   5.262   1.731  1.4634  1.7033  0.9555
 1862TIP3    H227146   0.804   5.203   1.610 -0.2842  3.2728 -0.8732
 1863TIP3   OH227147   3.866   6.135   8.511 -0.0924  0.4014  0.1632
 1863TIP3    H127148   3.924   6.211   8.514 -0.4762  0.7674 -1.1157
 1863TIP3    H227149   3.891   6.089   8.431 -0.7237 -0.1268  0.2659
 1864TIP3   OH227150   1.738   1.986   7.529 -0.2292 -0.0844  0.2910
 1864TIP3    H127151   1.685   1.926   7.477  0.0629  1.2809 -1.6464
 1864TIP3    H227152   1.758   1.936   7.609 -0.4259 -2.3647 -1.0081
 1865TIP3   OH227153   5.445   5.922   7.399 -0.5434  0.3174  0.1527
 1865TIP3    H127154   5.374   5.858   7.390 -0.0128 -0.2146 -0.3484
 1865TIP3    H227155   5.444   5.947   7.491 -1.2783  0.1935  0.1814
 1866TIP3   OH227156   6.138   0.818   1.510 -0.5727 -0.2837 -0.2074
 1866TIP3    H127157   6.085   0.877   1.458 -0.0973  0.0583 -0.3148
 1866TIP3    H227158   6.214   0.798   1.455 -0.4058 -0.4650  0.0830
 1867TIP3   OH227159   1.125   6.740   8.495 -0.7369  0.1950 -0.1810
 1867TIP3    H127160   1.057   6.675   8.511 -2.2851  2.1371  1.9603
 1867TIP3    H227161   1.159   6.761   8.582 -0.4336  2.3052 -0.7508
 1868TIP3   OH227162   4.355   1.052   1.341  0.1211 -0.1774 -0.2301
 1868TIP3    H127163   4.380   0.981   1.400  0.6308  0.6965  0.6439
 1868TIP3    H227164   4.268   1.029   1.310  0.4966 -1.4468 -0.3945
 1869TIP3   OH227165   3.806   5.465   8.404 -0.0816  0.3354  0.2438
 1869TIP3    H127166   3.762   5.483   8.486 -0.6924 -2.0626  0.5181
 1869TIP3    H227167   3.735   5.448   8.342  0.3982 -0.7949 -0.0114
 1870TIP3   OH227168   1.811   0.616   7.193  0.4257 -0.1422 -0.0830
 1870TIP3    H127169   1.732   0.561   7.189  0.1976  0.2534 -2.0995
 1870TIP3    H227170   1.882   0.559   7.164  0.3899  0.2862 -1.0299
 1871TIP3   OH227171   6.117   6.512   1.148 -0.7845 -0.1117 -0.5742
 1871TIP3    H127172   6.060   6.448   1.106 -0.1816 -0.5651 -0.7180
 1871TIP3    H227173   6.206   6.482   1.127 -0.4843  0.0205  0.4715
 1872TIP3   OH227174   5.174   5.958   0.152  0.1890 -0.2699 -0.5679
 1872TIP3    H127175   5.108   5.890   0.166  0.8927 -0.9158 -0.3318
 1872TIP3    H227176   5.238   5.944   0.222 -0.4660  1.6532  0.5084
 1873TIP3   OH227177   5.694   0.568   7.041 -0.2898  0.3129  0.0685
 1873TIP3    H127178   5.638   0.645   7.054  0.0363  1.3824 -3.5735
 1873TIP3    H227179   5.765   0.600   6.985  2.9008 -1.5053  2.7829
 1874TIP3   OH227180   4.858   3.562   0.443  0.0263 -0.2221 -0.3511
 1874TIP3    H127181   4.952   3.556   0.428  0.0664 -2.0263  0.3954
 1874TIP3    H227182   4.829   3.471   0.452 -1.7869  0.2982 -0.5024
 1875TIP3   OH227183   2.018   5.153   6.481  0.0023 -0.0235  0.1154
 1875TIP3    H127184   1.974   5.110   6.554 -1.2319 -0.8269 -1.0512
 1875TIP3    H227185   2.112   5.141   6.499 -0.2731 -0.0210  1.6407
 1876TIP3   OH227186   6.196   0.954   6.796  0.3605 -0.1889  0.2186
 1876TIP3    H127187   6.191   0.971   6.702  0.3631  0.6330  0.3616
 1876TIP3    H227188   6.220   1.038   6.835  0.0469 -0.4411  0.9845
 1877TIP3   OH227189   1.161   6.194   1.321  0.2088  0.5493 -0.7810
 1877TIP3    H127190   1.202   6.273   1.287  2.2174 -0.7477 -1.5814
 1877TIP3    H227191   1.230   6.150   1.371 -0.3355 -1.4543 -1.6676
 1878TIP3   OH227192   6.749   2.216   8.100 -0.1006 -0.5115  0.6123
 1878TIP3    H127193   6.757   2.185   8.010 -0.2889 -1.4217  0.8990
 1878TIP3    H227194   6.821   2.173   8.146  3.2597  3.7674 -0.0412
 1879TIP3   OH227195   0.648   4.510   0.511 -0.2722 -0.0426 -0.6322
 1879TIP3    H127196   0.623   4.602   0.499  3.5267  1.2422  0.0397
 1879TIP3    H227197   0.728   4.499   0.460  0.7429 -2.2663  1.2112
 1880TIP3   OH227198   4.051   0.523   5.981 -0.2377 -0.1700  0.4028
 1880TIP3    H127199   3.965   0.525   6.022 -0.4378  0.2570 -0.0276
 1880TIP3    H227200   4.100   0.458   6.031 -1.2488 -1.4808 -0.2514
 1881TIP3   OH227201   2.355   3.615   0.245  0.2980  0.1407 -0.2327
 1881TIP3    H127202   2.278   3.631   0.300  0.1077 -0.5130 -0.3083
 1881TIP3    H227203   2.426   3.600   0.308 -0.3099 -2.6156 -0.0909
 1882TIP3   OH227204   4.097   0.295   1.401 -0.2387 -0.1765 -0.6789
 1882TIP3    H127205   4.082   0.317   1.493  0.8037  0.7941 -0.7104
 1882TIP3    H227206   4.028   0.232   1.379  0.3630 -1.5635  1.1760
 1883TIP3   OH227207   4.302   1.698   8.634  0.3145 -1.3210 -0.0272
 1883TIP3    H127208   4.340   1.673   8.718 -0.8728  0.9997  1.2959
 1883TIP3    H227209   4.378   1.712   8.577  1.3605 -0.0370  1.5622
 1884TIP3   OH227210   4.297   2.369   7.715 -0.7479  0.3110 -0.7454
 1884TIP3    H127211   4.287   2.377   7.809 -0.6338  0.0909 -0.7146
 1884TIP3    H227212   4.383   2.329   7.703 -0.3115  1.2688 -0.9730
 1885TIP3   OH227213   4.813   1.294   0.592 -0.2351 -0.1729  0.1226
 1885TIP3    H127214   4.776   1.279   0.504 -0.0799  0.9167 -0.1462
 1885TIP3    H227215   4.738   1.284   0.651 -0.2990 -1.1189 -0.1047
 1886TIP3   OH227216   0.411   2.023   0.658  0.0955 -0.1581  0.0586
 1886TIP3    H127217   0.348   1.953   0.669  0.2396 -0.3623 -0.3874
 1886TIP3    H227218   0.431   2.023   0.564  0.3121  0.2881  0.1006
 1887TIP3   OH227219   3.970   0.727   0.488  0.9631 -0.2196 -0.3882
 1887TIP3    H127220   4.031   0.671   0.536  0.1018  0.0899  1.1189
 1887TIP3    H227221   3.977   0.812   0.531  0.0619  0.0252 -0.7085
 1888TIP3   OH227222   2.953   4.112   8.629  0.2370 -0.0606  0.2097
 1888TIP3    H127223   2.996   4.171   8.566  1.7592  0.5870  1.7704
 1888TIP3    H227224   2.908   4.170   8.690  0.2053 -0.5932  0.7054
 1889TIP3   OH227225   1.017   6.297   7.973  0.0109 -0.2710 -0.2137
 1889TIP3    H127226   0.932   6.254   7.965 -0.3090 -0.0929  1.7595
 1889TIP3    H227227   1.079   6.225   7.987  0.7783 -0.7111 -4.5491
 1890TIP3   OH227228   4.491   5.044   6.426  0.5728 -0.4199  0.0783
 1890TIP3    H127229   4.556   5.038   6.356  0.4181  1.3423 -0.2444
 1890TIP3    H227230   4.508   4.967   6.480  0.6069 -1.9148 -1.9420
 1891TIP3   OH227231   3.671   6.057   0.962  0.6523 -0.4001  0.1828
 1891TIP3    H127232   3.600   5.994   0.957  0.2374 -0.1411  2.1606
 1891TIP3    H227233   3.633   6.140   0.933  1.1494 -0.9449 -2.2356
 1892TIP3   OH227234   3.728   0.073   7.873  0.4011 -0.4170  0.0672
 1892TIP3    H127235   3.741   0.134   7.945  1.1382  0.2012 -0.5661
 1892TIP3    H227236   3.783  -0.002   7.894  0.4418 -0.3346  0.2542
 1893TIP3   OH227237   0.621   6.033   1.098 -0.1321 -0.0283  0.7340
 1893TIP3    H127238   0.546   6.071   1.050  0.7945  0.4441 -0.3923
 1893TIP3    H227239   0.603   5.939   1.099 -0.5587  0.0355  0.1205
 1894TIP3   OH227240   0.477   0.349   1.830 -0.3244 -0.5223  0.7162
 1894TIP3    H127241   0.385   0.345   1.856 -0.0350 -0.2546  1.8420
 1894TIP3    H227242   0.506   0.436   1.855 -0.3761  0.3262 -1.9059
 1895TIP3   OH227243   2.622   0.009   1.865 -0.0137  0.5138  0.4228
 1895TIP3    H127244   2.604   0.013   1.959  0.6370  0.1646  0.5661
 1895TIP3    H227245   2.665  -0.076   1.853  0.2602  0.7290 -0.1330
 1896TIP3   OH227246   2.079   2.525   1.458  0.0671 -0.8167  0.0259
 1896TIP3    H127247   2.104   2.498   1.369  1.0415  0.4554 -0.1259
 1896TIP3    H227248   2.003   2.471   1.479  0.5547 -2.0154 -1.1021
 1897TIP3   OH227249   4.088   0.451   0.376 -0.9717  0.1111 -0.1725
 1897TIP3    H127250   4.154   0.383   0.385 -2.5428 -1.6840 -1.2250
 1897TIP3    H227251   4.100   0.484   0.287 -0.1957  1.2807  0.3450
 1898TIP3   OH227252   6.684   5.770   7.962  0.0763 -0.1388  0.1517
 1898TIP3    H127253   6.714   5.679   7.964 -2.6508 -1.1014  0.1505
 1898TIP3    H227254   6.625   5.775   7.887 -1.3872  1.0851  1.3082
 1899TIP3   OH227255   4.504   2.602   8.567  0.1391 -0.0965  0.1929
 1899TIP3    H127256   4.508   2.651   8.485 -1.6088  1.1756  0.8154
 1899TIP3    H227257   4.411   2.602   8.591  0.4724 -1.3138  1.6626
 1900TIP3   OH227258   4.291   2.691   1.054 -0.1272 -0.1695  0.3515
 1900TIP3    H127259   4.312   2.656   1.141 -1.1184  0.5377  0.8891
 1900TIP3    H227260   4.235   2.766   1.071  1.5521  1.4426 -0.7893
 1901TIP3   OH227261   3.750   4.393   8.642  0.4102 -0.0177 -0.4436
 1901TIP3    H127262   3.756   4.387   8.738 -0.2740  3.2558 -0.0973
 1901TIP3    H227263   3.677   4.335   8.620 -0.0075 -0.1416  1.1045
 1902TIP3   OH227264   2.491   6.739   8.565 -0.3355  0.3717  0.0971
 1902TIP3    H127265   2.472   6.666   8.505 -1.1029  0.7196 -0.0899
 1902TIP3    H227266   2.493   6.698   8.652  2.4883 -0.4691 -0.2386
 1903TIP3   OH227267   5.771   1.008   1.520 -0.2413  0.0404 -0.0625
 1903TIP3    H127268   5.740   1.005   1.611  0.9157  0.6798  0.3887
 1903TIP3    H227269   5.830   0.934   1.512 -0.0177  0.2269 -0.1601
 1904TIP3   OH227270   6.110   4.092   6.907 -0.1806  0.0137 -0.2709
 1904TIP3    H127271   6.073   4.181   6.908  1.0970  0.5624 -0.2815
 1904TIP3    H227272   6.161   4.086   6.988 -1.3132 -1.1944  0.3927
 1905TIP3   OH227273   2.554   4.432   0.293 -0.3363 -0.2717 -0.7894
 1905TIP3    H127274   2.505   4.514   0.285  0.7785  0.5240  0.1551
 1905TIP3    H227275   2.491   4.364   0.269 -2.6257  0.5005  2.3676
 1906TIP3   OH227276   3.138   5.550   7.258  0.9389  0.8833 -0.0542
 1906TIP3    H127277   3.199   5.619   7.284  0.5001  0.8262  1.2107
 1906TIP3    H227278   3.180   5.507   7.184  2.5718  0.6331  0.9750
 1907TIP3   OH227279   0.538   2.952   7.741 -0.5603 -0.8750  0.0801
 1907TIP3    H127280   0.531   2.935   7.835 -1.8095 -1.9442 -0.1755
 1907TIP3    H227281   0.630   2.973   7.727 -0.6435  0.7918  1.7546
 1908TIP3   OH227282   1.196   2.184   2.064  0.4804  0.0621 -0.6046
 1908TIP3    H127283   1.280   2.207   2.025 -0.2587  0.8658 -1.8009
 1908TIP3    H227284   1.171   2.262   2.113  0.5593 -0.2811 -0.0146
 1909TIP3   OH227285   5.075   2.841   1.391 -0.1472 -0.2263  0.3926
 1909TIP3    H127286   5.161   2.874   1.417  0.1760 -1.0484  0.3903
 1909TIP3    H227287   5.092   2.786   1.314 -0.6520 -0.5093  0.4753
 1910TIP3   OH227288   2.545   3.344   6.346 -0.5611  0.0948  0.1618
 1910TIP3    H127289   2.639   3.343   6.363 -0.6678 -0.3661  0.7565
 1910TIP3    H227290   2.510   3.404   6.411 -0.4625  1.8820 -1.3484
 1911TIP3   OH227291   5.694   1.764   6.988 -0.2200 -0.1614 -0.2495
 1911TIP3    H127292   5.643   1.842   7.007  1.0665  0.5453  0.4812
 1911TIP3    H227293   5.681   1.748   6.895 -1.0671  0.4903 -0.2532
 1912TIP3   OH227294   1.934   0.592   8.149  0.1717 -0.0251 -0.6816
 1912TIP3    H127295   1.891   0.624   8.229 -0.1222  1.2040 -1.3002
 1912TIP3    H227296   1.916   0.498   8.148 -2.4850  0.4205 -0.8702
 1913TIP3   OH227297   3.522   5.872   6.111  0.1626  0.0578 -0.2308
 1913TIP3    H127298   3.520   5.931   6.186 -0.0541  0.6003 -0.6513
 1913TIP3    H227299   3.451   5.810   6.128  1.0577 -0.7181  0.7112
 1914TIP3   OH227300   0.254   3.778   6.952  0.1197  0.2604 -0.0067
 1914TIP3    H127301   0.312   3.753   6.880  0.1513 -0.9987  0.4250
 1914TIP3    H227302   0.203   3.851   6.918 -0.5157 -0.8895 -1.6441
 1915TIP3   OH227303   1.619   0.409   7.094  0.0493  0.0281 -0.5644
 1915TIP3    H127304   1.543   0.446   7.050  1.3363  1.9392 -1.3250
 1915TIP3    H227305   1.618   0.316   7.071 -2.7284 -0.3048  0.5442
 1916TIP3   OH227306   3.491   3.667   7.708 -0.1737  0.2960  0.6702
 1916TIP3    H127307   3.579   3.640   7.733 -0.4020  0.2786  1.4912
 1916TIP3    H227308   3.448   3.585   7.680 -1.2543 -0.5597  4.3144
 1917TIP3   OH227309   0.840   6.781   0.439  0.6892  0.0283 -0.2584
 1917TIP3    H127310   0.794   6.698   0.456  0.5660  0.5065  2.0346
 1917TIP3    H227311   0.816   6.803   0.349 -0.9750 -1.3638 -0.2101
 1918TIP3   OH227312   2.959   0.230   1.066  0.5687 -0.2235 -0.1430
 1918TIP3    H127313   2.892   0.175   1.108  0.1183 -0.9405 -1.7138
 1918TIP3    H227314   2.970   0.304   1.126  0.6972 -1.6732  1.7082
 1919TIP3   OH227315   0.614   2.650   0.179 -1.0002  0.0573 -0.2198
 1919TIP3    H127316   0.552   2.585   0.212  0.1949 -0.1774  1.7153
 1919TIP3    H227317   0.636   2.620   0.091 -1.4977 -1.4102  0.1263
 1920TIP3   OH227318   4.230   5.236   0.270 -0.4400 -0.0011 -0.4985
 1920TIP3    H127319   4.163   5.264   0.331 -0.7969  0.3509 -1.0453
 1920TIP3    H227320   4.251   5.147   0.297 -0.8740  0.0100 -0.1104
 1921TIP3   OH227321   1.232   4.688   2.104 -0.3740 -0.2287 -0.9807
 1921TIP3    H127322   1.139   4.703   2.085 -0.1334  1.2050 -1.1133
 1921TIP3    H227323   1.253   4.749   2.174  0.4561 -0.6174 -0.8788
 1922TIP3   OH227324   2.322   3.383   0.567 -0.3548  0.4186  0.1927
 1922TIP3    H127325   2.297   3.293   0.587  0.0760  0.3817  0.5894
 1922TIP3    H227326   2.251   3.417   0.513 -1.5956  0.5421  1.8351
 1923TIP3   OH227327   6.468   2.130   8.250  0.1946  0.5672  0.2381
 1923TIP3    H127328   6.412   2.206   8.233 -0.6629 -0.1114  0.0109
 1923TIP3    H227329   6.460   2.075   8.173 -1.0425 -0.8779  1.3280
 1924TIP3   OH227330   4.321   0.836   0.337 -0.0687 -0.1396  0.2231
 1924TIP3    H127331   4.318   0.931   0.347  0.6806 -0.2206  1.4743
 1924TIP3    H227332   4.359   0.822   0.250 -0.0767  0.7045  0.0763
 1925TIP3   OH227333   3.822   5.948   6.506  0.2637 -0.2783 -0.3435
 1925TIP3    H127334   3.892   6.007   6.536 -0.3861  0.1913  0.2721
 1925TIP3    H227335   3.797   5.982   6.420 -1.7086  1.8250  0.9703
 1926TIP3   OH227336   5.605   2.824   7.688 -0.2915 -0.0660 -0.4625
 1926TIP3    H127337   5.595   2.865   7.773  0.4945  0.7211 -0.7350
 1926TIP3    H227338   5.625   2.732   7.707 -0.3999  0.0464  0.1891
 1927TIP3   OH227339   4.953   6.374   6.758 -0.0448  0.2943  0.5220
 1927TIP3    H127340   4.917   6.321   6.829  0.9129 -1.4736 -0.2626
 1927TIP3    H227341   4.925   6.331   6.678  1.8639  0.1633 -0.1328
 1928TIP3   OH227342   3.645   3.247   1.557 -0.0303 -0.2140 -0.0027
 1928TIP3    H127343   3.578   3.181   1.578 -1.2042  0.6773 -0.8545
 1928TIP3    H227344   3.717   3.196   1.519 -0.6581 -1.0877 -0.0587
 1929TIP3   OH227345   6.257   5.671   6.353 -0.4026  0.7574  0.0242
 1929TIP3    H127346   6.171   5.708   6.334 -0.8184  0.4490  1.2356
 1929TIP3    H227347   6.239   5.586   6.393  0.4973  0.2033 -0.7036
 1930TIP3   OH227348   1.108   1.391   0.231  0.0801 -0.0419  0.3700
 1930TIP3    H127349   1.138   1.430   0.314 -0.4276  0.9731  0.0913
 1930TIP3    H227350   1.166   1.316   0.218  0.7266  0.2917  1.2146
 1931TIP3   OH227351   5.267   4.753   0.353  0.2200 -0.5716 -0.0769
 1931TIP3    H127352   5.340   4.744   0.292 -0.4595  0.9699 -1.1660
 1931TIP3    H227353   5.202   4.805   0.306 -1.2899 -1.2791  1.1371
 1932TIP3   OH227354   4.660   6.640   7.530  0.4581 -0.1404  0.2271
 1932TIP3    H127355   4.634   6.551   7.554  1.7537 -0.3567  0.8964
 1932TIP3    H227356   4.746   6.629   7.491  0.7676  0.8646  0.6159
 1933TIP3   OH227357   2.496   3.080   0.193  0.1223 -0.2187  0.1769
 1933TIP3    H127358   2.462   3.168   0.210  0.8773  0.2967 -0.7986
 1933TIP3    H227359   2.433   3.021   0.234 -0.8256  0.7546  0.1802
 1934TIP3   OH227360   4.427   2.005   7.439  0.3553 -0.3963  0.6346
 1934TIP3    H127361   4.420   2.098   7.418  0.9274 -0.0612  1.8701
 1934TIP3    H227362   4.353   1.965   7.394  0.3239  0.5950 -0.2244
 1935TIP3   OH227363   2.453   1.360   8.524  0.0499  0.2846  0.1561
 1935TIP3    H127364   2.386   1.302   8.487 -0.7361  0.0694  1.8139
 1935TIP3    H227365   2.504   1.303   8.581 -0.2922  1.0684  1.2689
 1936TIP3   OH227366   1.777   4.089   8.349  0.5168  0.2012 -0.4700
 1936TIP3    H127367   1.824   4.162   8.309  0.1657  0.6439 -0.0849
 1936TIP3    H227368   1.696   4.082   8.298  0.9338 -0.4961 -1.0693
 1937TIP3   OH227369   2.601   1.820   7.672  0.4409 -0.2695  0.4458
 1937TIP3    H127370   2.507   1.821   7.690  0.2600 -0.1330 -0.4699
 1937TIP3    H227371   2.623   1.727   7.666  0.5845 -0.3338  1.7055
 1938TIP3   OH227372   1.208   2.052   0.964  0.3970  0.4939  0.0357
 1938TIP3    H127373   1.227   1.993   1.037 -0.5425 -1.4079 -1.1640
 1938TIP3    H227374   1.143   2.004   0.911  1.1642  1.7155 -2.1207
 1939TIP3   OH227375   0.703   2.452   2.156 -0.2158 -0.5103  0.2586
 1939TIP3    H127376   0.643   2.380   2.176  0.5697 -1.7138 -1.4877
 1939TIP3    H227377   0.650   2.516   2.109 -1.1533  0.5803  2.6427
 1940TIP3   OH227378   0.059   5.183   8.489  1.1563 -0.2435  0.0761
 1940TIP3    H127379   0.080   5.276   8.482  1.7794 -0.2721  1.2897
 1940TIP3    H227380   0.096   5.144   8.410  1.5401  0.4312 -0.0830
 1941TIP3   OH227381   5.489   3.767   6.530  0.3417 -0.2499  0.1116
 1941TIP3    H127382   5.536   3.849   6.513  1.2984 -1.0506 -1.2237
 1941TIP3    H227383   5.508   3.712   6.455 -1.3992 -1.2286  0.3398
 1942TIP3   OH227384   6.525   4.231   8.150  0.5353  0.3303 -0.2020
 1942TIP3    H127385   6.483   4.231   8.064  0.1409  0.6931 -0.0128
 1942TIP3    H227386   6.583   4.307   8.148  1.6963 -0.5331 -0.6995
 1943TIP3   OH227387   5.184   5.097   0.707 -0.1349  0.1969  0.3555
 1943TIP3    H127388   5.199   5.008   0.740 -0.1209  0.1831  0.3122
 1943TIP3    H227389   5.153   5.084   0.617 -1.3114  0.1802  0.7492
 1944TIP3   OH227390   0.403   5.209   7.084  0.0189 -0.2512 -0.5029
 1944TIP3    H127391   0.473   5.228   7.021 -0.4221 -1.0324 -1.2437
 1944TIP3    H227392   0.426   5.262   7.161  0.5498  0.7456 -1.3148
 1945TIP3   OH227393   5.589   2.745   0.452 -0.3050  0.1495  0.2401
 1945TIP3    H127394   5.555   2.716   0.536  0.3795  1.8182  1.1450
 1945TIP3    H227395   5.646   2.819   0.473  2.4856 -1.3569 -1.3706
 1946TIP3   OH227396   2.111   5.966   0.497 -0.2613 -0.3093  0.0889
 1946TIP3    H127397   2.043   6.031   0.478 -0.0023  0.1676  0.7722
 1946TIP3    H227398   2.068   5.882   0.483 -1.9949 -0.1672  3.4967
 1947TIP3   OH227399   2.797   2.947   7.338  0.7692  0.0426 -0.7392
 1947TIP3    H127400   2.823   2.862   7.302 -0.1077 -0.7298  0.3625
 1947TIP3    H227401   2.848   2.955   7.419 -0.3396 -0.2177  0.0098
 1948TIP3   OH227402   4.556   5.715   0.254 -0.0461  0.1144  0.0790
 1948TIP3    H127403   4.510   5.652   0.310  0.8724 -0.2845  0.4099
 1948TIP3    H227404   4.590   5.781   0.314 -0.9077  0.8841 -0.2570
 1949TIP3   OH227405   1.833   4.877   7.644  0.3912 -0.7340 -0.4179
 1949TIP3    H127406   1.775   4.954   7.648 -0.2356 -1.2068 -0.1886
 1949TIP3    H227407   1.851   4.867   7.550  0.8263 -0.0642 -0.4174
 1950TIP3   OH227408   1.861   6.502   8.496 -0.0281  0.1329  0.4829
 1950TIP3    H127409   1.904   6.579   8.460 -0.4145  0.3855  0.5496
 1950TIP3    H227410   1.782   6.491   8.443  0.1684 -0.3926  0.2854
 1951TIP3   OH227411   5.135   1.757   1.341 -0.0013  0.2150  0.8045
 1951TIP3    H127412   5.114   1.781   1.431  0.0747  1.1248  0.5977
 1951TIP3    H227413   5.111   1.834   1.290  0.1765 -0.2007  0.0759
 1952TIP3   OH227414   2.347   3.490   7.814 -0.0538  0.2005 -0.0247
 1952TIP3    H127415   2.441   3.495   7.798  0.3694 -1.6346  1.5385
 1952TIP3    H227416   2.337   3.511   7.907 -1.0872 -0.4559  0.0306
 1953TIP3   OH227417   3.570   0.948   7.436  0.6702  0.2275  0.2714
 1953TIP3    H127418   3.566   0.866   7.387  1.3667 -0.0490  0.6609
 1953TIP3    H227419   3.588   1.014   7.370  1.5910 -0.1393  0.1407
 1954TIP3   OH227420   1.752   0.114   6.712 -0.0391  0.0690 -0.1671
 1954TIP3    H127421   1.773   0.044   6.651  0.8076  1.3117 -1.3694
 1954TIP3    H227422   1.755   0.194   6.659  1.3031  1.2745  1.5958
 1955TIP3   OH227423   6.599   3.732   8.363 -0.1516 -0.1584 -0.1963
 1955TIP3    H127424   6.530   3.793   8.391  0.2190  0.5882 -0.8509
 1955TIP3    H227425   6.679   3.765   8.406 -0.0271 -0.4529 -0.1987
 1956TIP3   OH227426   2.643   6.127   6.239 -0.3750  0.0235 -0.2511
 1956TIP3    H127427   2.554   6.095   6.254 -0.5588  0.6803  0.0792
 1956TIP3    H227428   2.695   6.091   6.311 -0.7185  1.0110  0.5017
 1957TIP3   OH227429   4.399   0.623   8.400 -0.6068 -0.1150  0.0520
 1957TIP3    H127430   4.393   0.703   8.347  0.5073 -0.2114 -0.2317
 1957TIP3    H227431   4.492   0.605   8.406 -0.7040 -0.1724  1.9818
 1958TIP3   OH227432   0.796   1.470   1.399  0.1363 -0.5797  0.2731
 1958TIP3    H127433   0.750   1.466   1.316 -0.1409 -2.4824  0.4721
 1958TIP3    H227434   0.727   1.462   1.465  0.5957 -2.8594  0.5833
 1959TIP3   OH227435   5.496   5.866   8.035  0.2180  0.4180 -0.2675
 1959TIP3    H127436   5.419   5.849   7.981 -1.8994  1.2353  2.2454
 1959TIP3    H227437   5.500   5.792   8.096  1.2967  0.5005 -0.2132
 1960TIP3   OH227438   0.191   1.896   0.097 -0.6360 -0.0744 -0.3291
 1960TIP3    H127439   0.279   1.932   0.103  0.1332 -1.8260 -0.3786
 1960TIP3    H227440   0.133   1.972   0.104  0.8182  0.9594  1.3629
 1961TIP3   OH227441   6.274   2.620   0.078  0.0438  0.0211 -0.0312
 1961TIP3    H127442   6.322   2.574   0.146  1.3785  1.8096  0.2873
 1961TIP3    H227443   6.274   2.559   0.004  1.1685 -0.7611  0.5853
 1962TIP3   OH227444   1.588   3.698   0.935  0.8188  0.0703 -0.2994
 1962TIP3    H127445   1.674   3.699   0.977  0.4830 -0.1630  0.4209
 1962TIP3    H227446   1.601   3.649   0.854  1.6545  1.2064 -0.8797
 1963TIP3   OH227447   5.701   1.652   0.795  0.5496  0.2731 -0.6995
 1963TIP3    H127448   5.644   1.668   0.720 -0.1538  0.4073 -0.1387
 1963TIP3    H227449   5.648   1.602   0.856  1.1693  0.0305 -0.3519
 1964TIP3   OH227450   6.103   3.220   6.687 -0.1005  0.8692  0.0473
 1964TIP3    H127451   6.170   3.171   6.640 -1.8145 -0.1551 -1.4211
 1964TIP3    H227452   6.135   3.310   6.686  1.0607  0.4783 -0.9828
 1965TIP3   OH227453   1.715   3.118   7.889 -0.1652 -0.2109  0.1811
 1965TIP3    H127454   1.785   3.161   7.936 -0.1859  0.1303 -0.0940
 1965TIP3    H227455   1.756   3.083   7.810 -0.6813  1.8933 -1.1012
 1966TIP3   OH227456   6.207   2.569   8.061  0.2477 -0.2431 -0.0782
 1966TIP3    H127457   6.131   2.588   8.116  1.2747  1.2763  0.8972
 1966TIP3    H227458   6.178   2.591   7.973 -0.4134  0.4504  0.2980
 1967TIP3   OH227459   1.229   2.483   0.881  0.0899 -0.1620 -0.9748
 1967TIP3    H127460   1.223   2.441   0.966 -1.3942  1.9061  0.0220
 1967TIP3    H227461   1.318   2.518   0.877 -0.5110  1.7840  0.8404
 1968TIP3   OH227462   1.323   6.268   8.295 -0.2971 -0.0809 -0.3766
 1968TIP3    H127463   1.290   6.180   8.313  0.7241 -1.2885 -3.6484
 1968TIP3    H227464   1.245   6.319   8.275 -0.8618 -0.3035  1.1111
 1969TIP3   OH227465   1.780   0.749   0.567  0.1156 -0.0853 -0.7816
 1969TIP3    H127466   1.693   0.747   0.606  0.3495 -2.2366 -0.2121
 1969TIP3    H227467   1.839   0.769   0.641  0.0761  2.7553 -1.4091
 1970TIP3   OH227468   0.805   5.118   1.144 -0.0099  0.1833 -0.5981
 1970TIP3    H127469   0.732   5.179   1.141 -0.8934 -0.4532  2.9360
 1970TIP3    H227470   0.763   5.032   1.151  1.1715 -0.5450 -1.9928
 1971TIP3   OH227471   4.447   3.988   7.298  0.2723  0.3045  0.7868
 1971TIP3    H127472   4.542   3.990   7.292  0.2381 -0.9339 -0.8543
 1971TIP3    H227473   4.428   3.905   7.342 -0.0498  0.4794  0.9760
 1972TIP3   OH227474   6.563   0.801   1.699  0.4825  0.2397  0.2410
 1972TIP3    H127475   6.627   0.761   1.758  0.0426 -1.5410 -0.4019
 1972TIP3    H227476   6.482   0.804   1.750  0.1514 -1.1177 -0.1546
 1973TIP3   OH227477   1.604   0.459   1.687 -0.1998 -0.3050  0.4654
 1973TIP3    H127478   1.636   0.527   1.628 -0.9108 -0.4717 -0.1315
 1973TIP3    H227479   1.557   0.507   1.755  1.8681  0.0004  1.7737
 1974TIP3   OH227480   0.976   4.540   8.028 -0.5061  0.3374 -0.3525
 1974TIP3    H127481   0.943   4.495   8.105 -0.7957  0.8338 -0.1825
 1974TIP3    H227482   1.011   4.470   7.972 -0.1195 -0.0064  0.3064
 1975TIP3   OH227483   4.447   4.731   1.135 -0.2657 -0.2071  0.2245
 1975TIP3    H127484   4.541   4.714   1.145  0.1555  0.7062 -1.6840
 1975TIP3    H227485   4.421   4.771   1.218  0.9715 -0.6783  0.8740
 1976TIP3   OH227486   3.318   0.040   0.528 -0.4198 -0.5686  0.8341
 1976TIP3    H127487   3.279  -0.002   0.451 -1.7746  0.8418  0.7150
 1976TIP3    H227488   3.411   0.049   0.504 -0.9520  0.5802 -1.0091
 1977TIP3   OH227489   4.236   2.287   8.677  0.4074  0.0335  0.3670
 1977TIP3    H127490   4.324   2.275   8.642  0.0735 -1.5143 -0.0039
 1977TIP3    H227491   4.178   2.271   8.603 -0.2294 -0.7150  1.0034
 1978TIP3   OH227492   2.493   6.663   0.072 -0.0859  0.9196  0.0323
 1978TIP3    H127493   2.527   6.578   0.098  0.3819  1.6021  1.8152
 1978TIP3    H227494   2.400   6.660   0.096 -0.4502  0.3726 -1.3802
 1979TIP3   OH227495   5.173   2.137   1.429 -0.6998 -0.2308  0.0221
 1979TIP3    H127496   5.263   2.112   1.450 -0.4430  1.6124  1.2974
 1979TIP3    H227497   5.179   2.174   1.340  0.0488  0.9580  0.5434
 1980TIP3   OH227498   1.456   0.552   0.957  0.1389  0.2997 -0.6515
 1980TIP3    H127499   1.372   0.576   0.996  0.5456  1.2422 -0.3164
 1980TIP3    H227500   1.520   0.602   1.008  0.7566  0.9428 -2.0178
 1981TIP3   OH227501   2.329   3.598   1.138  0.6119 -0.3592  0.0789
 1981TIP3    H127502   2.297   3.595   1.228 -0.6268  1.2081 -0.2705
 1981TIP3    H227503   2.261   3.554   1.087  0.8530 -0.4005 -0.2090
 1982TIP3   OH227504   6.738   2.259   7.133  0.8089 -0.6417 -0.1405
 1982TIP3    H127505   6.673   2.246   7.064 -0.6984  1.2651  0.7925
 1982TIP3    H227506   6.706   2.336   7.181  3.3380 -0.1406  0.9037
 1983TIP3   OH227507   2.182   0.217   0.619  0.3282  0.1010  0.3551
 1983TIP3    H127508   2.138   0.169   0.689 -0.9570  0.4782 -0.1749
 1983TIP3    H227509   2.250   0.268   0.664 -1.2272  1.2518  1.5075
 1984TIP3   OH227510   5.469   1.221   1.408  0.0619  0.0417  0.5261
 1984TIP3    H127511   5.429   1.298   1.450 -0.7515  0.6216 -1.2434
 1984TIP3    H227512   5.559   1.247   1.391 -0.2953  0.7463 -0.3544
 1985TIP3   OH227513   3.801   5.357   0.587 -0.0316  0.0411 -0.4803
 1985TIP3    H127514   3.823   5.264   0.590  0.2025  0.1042  1.5238
 1985TIP3    H227515   3.849   5.395   0.661 -1.8197  1.3571  0.0785
 1986TIP3   OH227516   0.029   2.968   8.374  0.1731 -0.0949  0.3823
 1986TIP3    H127517   0.103   2.934   8.324 -0.9641 -0.7915 -0.8791
 1986TIP3    H227518  -0.045   2.915   8.346 -0.5199 -0.5773  2.8763
 1987TIP3   OH227519   4.115   6.697   8.494  0.2858 -0.1050 -0.0674
 1987TIP3    H127520   4.139   6.634   8.426 -0.7403 -1.8089  1.0744
 1987TIP3    H227521   4.153   6.662   8.574 -1.0565  0.2467  0.7526
 1988TIP3   OH227522   5.267   3.420   0.016 -0.1203 -0.8906  0.0291
 1988TIP3    H127523   5.212   3.498   0.022  0.8369 -0.1995  0.1795
 1988TIP3    H227524   5.212   3.348   0.047 -0.5332 -0.0145  1.4275
 1989TIP3   OH227525   3.791   1.658   7.920 -0.0560 -0.0579  0.5614
 1989TIP3    H127526   3.868   1.680   7.973  0.8547  2.1812 -1.5165
 1989TIP3    H227527   3.728   1.727   7.941 -0.7517 -0.7429  0.7518
 1990TIP3   OH227528   6.352   0.767   7.238  0.0560 -0.7930  0.3149
 1990TIP3    H127529   6.267   0.729   7.214 -0.2970  0.1213  0.0985
 1990TIP3    H227530   6.403   0.765   7.157 -1.2466  2.6004 -0.7625
 1991TIP3   OH227531   2.290   6.757   8.062  0.6468  0.3201  0.4297
 1991TIP3    H127532   2.314   6.690   7.998  1.0448  0.7900  0.0768
 1991TIP3    H227533   2.202   6.732   8.090  0.8112 -0.3814  0.3494
 1992TIP3   OH227534   4.716   2.495   1.446 -0.4991  0.0684  0.3612
 1992TIP3    H127535   4.729   2.587   1.469 -0.4967  0.1318  0.1068
 1992TIP3    H227536   4.804   2.459   1.439 -0.4940  0.1139  0.1897
 1993TIP3   OH227537   0.478   1.981   7.363  0.1722 -0.4891  0.1764
 1993TIP3    H127538   0.427   2.022   7.432  0.6507 -1.5647  1.2073
 1993TIP3    H227539   0.440   1.893   7.355 -0.7663  0.0416 -1.9023
 1994TIP3   OH227540   6.645   1.402   0.270 -0.4553 -0.2533  0.2824
 1994TIP3    H127541   6.700   1.438   0.340 -0.5263 -0.8842  0.6708
 1994TIP3    H227542   6.687   1.432   0.189 -1.1269  1.5858  0.5904
 1995TIP3   OH227543   0.968   4.971   0.987  0.7221  0.3790 -0.0051
 1995TIP3    H127544   0.925   5.035   1.044 -1.2598 -1.3157  0.5221
 1995TIP3    H227545   0.983   4.895   1.043  2.2638  0.0466 -0.8198
 1996TIP3   OH227546   6.007   1.302   0.540 -0.2075 -0.0781 -0.0667
 1996TIP3    H127547   5.914   1.322   0.544 -0.1241  0.5826 -0.9948
 1996TIP3    H227548   6.011   1.206   0.536 -0.8194 -0.1265  0.3809
 1997TIP3   OH227549   6.387   6.394   0.729 -0.3192 -0.2444 -0.6750
 1997TIP3    H127550   6.470   6.382   0.683  0.3979 -0.6921  0.6874
 1997TIP3    H227551   6.329   6.329   0.690 -0.2455  0.4864 -2.0729
 1998TIP3   OH227552   0.755   0.216   7.206 -0.6755 -0.1143  0.0906
 1998TIP3    H127553   0.719   0.219   7.295  1.8897  1.2476  1.1860
 1998TIP3    H227554   0.824   0.282   7.206  0.6030 -1.3214 -2.3916
 1999TIP3   OH227555   3.259   4.660   1.556 -0.0929  0.4268  0.1898
 1999TIP3    H127556   3.247   4.695   1.644  0.7823 -1.5730  1.1874
 1999TIP3    H227557   3.277   4.567   1.570  1.7258  0.3663 -1.9892
 2000TIP3   OH227558   5.386   4.740   6.617 -0.2245  0.6569  0.5482
 2000TIP3    H127559   5.396   4.725   6.523  2.4168  0.7452  0.7606
 2000TIP3    H227560   5.394   4.835   6.627  0.3799  0.5674  0.9410
 2001TIP3   OH227561   0.493   1.637   2.505  0.1325  0.1403 -0.2023
 2001TIP3    H127562   0.538   1.633   2.590 -0.0887 -0.2786 -0.0985
 2001TIP3    H227563   0.524   1.718   2.465 -0.7192  1.0175  0.8210
 2002TIP3   OH227564   2.395   4.044   1.513 -0.6340 -0.0037 -0.8297
 2002TIP3    H127565   2.388   4.114   1.579 -1.3659 -1.0090  0.1988
 2002TIP3    H227566   2.308   4.039   1.475 -0.7804 -0.7991 -0.4112
 2003TIP3   OH227567   2.707   4.963   2.481 -0.7462  0.1844 -0.0909
 2003TIP3    H127568   2.682   5.019   2.407 -0.9092  1.7708  1.0926
 2003TIP3    H227569   2.627   4.956   2.534 -0.8199 -1.4956 -0.3771
 2004TIP3   OH227570   4.145   5.220   6.036 -0.3962 -0.4594  0.0166
 2004TIP3    H127571   4.227   5.208   6.086 -0.5443 -1.4949  0.0211
 2004TIP3    H227572   4.120   5.132   6.010 -1.4448 -0.1304 -0.1112
 2005TIP3   OH227573   5.529   1.967   8.492  0.0973  0.3353 -0.2465
 2005TIP3    H127574   5.472   2.015   8.552 -2.2374 -0.0791 -1.9988
 2005TIP3    H227575   5.492   1.983   8.405  1.7106 -1.2906 -1.3092
 2006TIP3   OH227576   6.542   2.489   6.220 -0.1096 -0.2979 -0.1665
 2006TIP3    H127577   6.493   2.407   6.225 -1.2464  0.3259 -0.6255
 2006TIP3    H227578   6.497   2.548   6.281  1.0294 -0.1599  0.5776
 2007TIP3   OH227579   5.850   6.435   7.387  0.2695  0.0467  0.1942
 2007TIP3    H127580   5.850   6.505   7.322 -1.3991 -0.0144  0.0990
 2007TIP3    H227581   5.897   6.472   7.462  0.1134  0.9757 -0.1521
 2008TIP3   OH227582   3.902   2.756   7.604 -0.0549  0.2479 -0.1560
 2008TIP3    H127583   3.879   2.697   7.676  0.1612  0.6091  0.2189
 2008TIP3    H227584   3.886   2.844   7.640  0.6622  0.4551 -0.3306
 2009TIP3   OH227585   2.491   2.641   7.831  0.3619  0.3501 -0.1710
 2009TIP3    H127586   2.481   2.736   7.828 -1.8924  0.1922  0.1875
 2009TIP3    H227587   2.464   2.611   7.745  3.2214  0.1022 -1.0743
 2010TIP3   OH227588   5.082   4.370   0.012  0.2784 -0.4137  0.2622
 2010TIP3    H127589   5.170   4.378  -0.026  0.5704 -1.2677  0.7334
 2010TIP3    H227590   5.074   4.277   0.036 -0.4659 -0.1933  0.9169
 2011TIP3   OH227591   5.034   2.795   6.649 -0.1167  0.7885  0.0537
 2011TIP3    H127592   4.943   2.774   6.627  0.9743 -1.1559 -3.3104
 2011TIP3    H227593   5.044   2.887   6.623 -0.7266  0.5395 -1.1348
 2012TIP3   OH227594   5.889   5.869   8.270  0.0809  0.0658  0.0551
 2012TIP3    H127595   5.951   5.856   8.341 -1.0746  1.2727  1.3339
 2012TIP3    H227596   5.824   5.930   8.305 -1.5008 -0.6771 -1.4420
 2013TIP3   OH227597   1.420   3.762   0.676 -0.3616  0.7533  0.0056
 2013TIP3    H127598   1.492   3.819   0.650  0.0384  0.5979  0.7529
 2013TIP3    H227599   1.382   3.804   0.754 -0.1002  0.0406  0.5305
 2014TIP3   OH227600   2.590   1.262   0.281 -0.3536  0.0702 -0.1913
 2014TIP3    H127601   2.659   1.245   0.344 -1.1366  0.6706  0.8485
 2014TIP3    H227602   2.509   1.264   0.332 -1.2418 -1.1080 -1.4383
 2015TIP3   OH227603   1.185   0.268   1.994 -0.1758 -0.6181 -0.1067
 2015TIP3    H127604   1.127   0.194   2.010  0.7573 -1.5688 -1.0107
 2015TIP3    H227605   1.252   0.234   1.936  1.5033  0.3483  1.1766
 2016TIP3   OH227606   5.194   0.935   7.815 -0.3969 -0.3021  0.5427
 2016TIP3    H127607   5.183   0.880   7.738 -0.4041 -0.3593  0.5845
 2016TIP3    H227608   5.226   0.876   7.883 -1.2395 -0.4369  0.8353
 2017TIP3   OH227609   5.314   0.298   0.945 -0.5894 -0.0476  0.2938
 2017TIP3    H127610   5.338   0.373   0.892 -0.0531  0.5963  1.4062
 2017TIP3    H227611   5.307   0.333   1.034  1.0503 -1.5604  1.0711
 2018TIP3   OH227612   3.058   0.982   8.235  0.0132 -0.3362 -0.1884
 2018TIP3    H127613   3.070   0.955   8.144  1.7977  1.2107 -0.4766
 2018TIP3    H227614   3.063   1.078   8.233  0.4898 -0.2806  1.5802
 2019TIP3   OH227615   1.775   4.012   1.475 -1.3397 -0.7478 -0.3000
 2019TIP3    H127616   1.818   3.943   1.525 -1.2589  0.6038  1.5675
 2019TIP3    H227617   1.740   4.072   1.540 -0.9332  1.2892 -1.8313
 2020TIP3   OH227618   4.144   3.891   0.809 -0.0519  0.2665 -0.1870
 2020TIP3    H127619   4.068   3.833   0.810 -0.3796  0.6985  0.1795
 2020TIP3    H227620   4.138   3.941   0.890 -0.0834  1.2118 -0.7611
 2021TIP3   OH227621   2.038   5.617   7.868 -0.7645 -0.1178  0.3232
 2021TIP3    H127622   2.021   5.526   7.892 -0.3603 -0.2328  0.1758
 2021TIP3    H227623   1.973   5.667   7.918  1.3316 -0.1673  3.3322
 2022TIP3   OH227624   2.286   2.614   0.659 -0.2689 -0.0656  0.2894
 2022TIP3    H127625   2.263   2.528   0.624 -1.4410 -0.3215  1.6111
 2022TIP3    H227626   2.380   2.623   0.640 -0.5456 -0.7825 -1.5747
 2023TIP3   OH227627   2.361   1.826   8.581 -0.3982  0.6209 -0.1705
 2023TIP3    H127628   2.447   1.797   8.613 -0.2238  2.8909  1.7834
 2023TIP3    H227629   2.298   1.775   8.632 -0.1565  0.6372  0.1518
 2024TIP3   OH227630   2.913   5.033   0.443 -0.1989  0.1384  0.6098
 2024TIP3    H127631   2.821   5.009   0.440 -0.6886  1.9096  0.2908
 2024TIP3    H227632   2.918   5.115   0.393  1.5459  0.0659  0.6004
 2025TIP3   OH227633   1.999   1.485   8.551  0.1187  0.3673 -0.6738
 2025TIP3    H127634   2.060   1.556   8.533 -0.8400  1.1149 -0.9968
 2025TIP3    H227635   1.915   1.528   8.569 -0.5114 -0.6785 -1.0257
 2026TIP3   OH227636   2.999   2.177   7.826 -0.5455  0.2877  0.0305
 2026TIP3    H127637   3.051   2.190   7.747 -1.1081 -0.7232 -0.5238
 2026TIP3    H227638   2.983   2.083   7.830  0.3844  0.1450  1.9573
 2027TIP3   OH227639   0.524   5.269   0.558  0.1255  0.1896  0.2535
 2027TIP3    H127640   0.497   5.203   0.495 -1.3436 -0.9284  1.9465
 2027TIP3    H227641   0.566   5.219   0.628  1.7297  1.3869  0.1953
 2028TIP3   OH227642   1.776   1.781   7.764 -0.6656 -0.2788 -0.5360
 2028TIP3    H127643   1.866   1.772   7.734 -1.2185 -1.0310 -2.1097
 2028TIP3    H227644   1.765   1.711   7.828 -0.6655 -1.5273 -1.8285
 2029TIP3   OH227645   5.254   4.645   1.179 -0.0004  0.5401 -0.2878
 2029TIP3    H127646   5.261   4.672   1.271  2.5082  0.8618 -0.5202
 2029TIP3    H227647   5.340   4.611   1.157 -0.9151 -0.6777 -2.2079
 2030TIP3   OH227648   4.445   5.109   1.869  0.2828  0.8526 -0.2385
 2030TIP3    H127649   4.394   5.071   1.940 -0.4789 -0.6882 -1.5382
 2030TIP3    H227650   4.526   5.058   1.868 -0.4384 -0.3687 -1.5229
 2031TIP3   OH227651   3.677   2.646   1.290  0.0398  0.2851 -0.2384
 2031TIP3    H127652   3.765   2.681   1.279  0.1306  0.3197  0.5241
 2031TIP3    H227653   3.630   2.714   1.337 -1.6625  2.1474 -4.1615
 2032TIP3   OH227654   5.286   5.157   6.934  0.8059 -0.3624 -0.4101
 2032TIP3    H127655   5.310   5.161   7.027 -0.5084 -1.7430  0.0336
 2032TIP3    H227656   5.310   5.068   6.908  0.4455 -0.2320 -1.1925
 2033TIP3   OH227657   1.411   5.607   0.782 -0.3724 -0.2513  0.3827
 2033TIP3    H127658   1.417   5.601   0.686  0.1603 -0.3596  0.4198
 2033TIP3    H227659   1.323   5.642   0.798  0.2067  1.5542 -0.1988
 2034TIP3   OH227660   5.664   4.347   6.843 -0.4062  0.2428 -0.6025
 2034TIP3    H127661   5.729   4.303   6.897 -0.5567  2.3279  1.4421
 2034TIP3    H227662   5.715   4.412   6.794 -0.6930  0.6160 -0.4098
 2035TIP3   OH227663   2.520   1.288   2.120  0.9242 -0.0797 -0.3498
 2035TIP3    H127664   2.565   1.210   2.152  2.7183  0.2542 -1.9297
 2035TIP3    H227665   2.534   1.353   2.189 -0.8340 -1.1629  1.1139
 2036TIP3   OH227666   2.478   4.837   1.931 -0.2433 -0.6829 -0.4673
 2036TIP3    H127667   2.398   4.847   1.983  0.0216 -0.8688 -0.0153
 2036TIP3    H227668   2.524   4.764   1.972  0.1604 -0.5729 -0.7193
 2037TIP3   OH227669   1.545   2.076   1.606 -0.3983  0.6289  0.0864
 2037TIP3    H127670   1.530   2.075   1.701 -1.8424  1.5838 -0.0843
 2037TIP3    H227671   1.577   2.164   1.588  0.0275  0.3991 -0.2887
 2038TIP3   OH227672   6.198   6.356   1.673  0.2458  0.1281 -0.0332
 2038TIP3    H127673   6.181   6.323   1.761  2.3502  0.7486  0.6757
 2038TIP3    H227674   6.173   6.448   1.677  0.3111  0.1479 -0.0820
 2039TIP3   OH227675   4.985   0.410   0.503 -0.0935 -1.1389 -0.0645
 2039TIP3    H127676   4.906   0.457   0.476 -0.4670 -0.9814  1.2096
 2039TIP3    H227677   4.952   0.334   0.551  0.5250 -1.2145  0.2544
 2040TIP3   OH227678   6.106   4.151   1.455 -0.3630 -0.4211 -0.5360
 2040TIP3    H127679   6.084   4.140   1.548 -1.3264 -1.0493 -0.8183
 2040TIP3    H227680   6.182   4.208   1.455 -0.0950 -0.7397  0.6662
 2041TIP3   OH227681   0.841   1.394   0.746 -0.3273 -0.1762 -0.2577
 2041TIP3    H127682   0.853   1.481   0.784 -0.9648 -0.6553  1.1313
 2041TIP3    H227683   0.914   1.384   0.685 -0.3748  1.4074 -0.6025
 2042TIP3   OH227684   2.526   3.399   1.482 -0.3526 -0.0298 -0.0945
 2042TIP3    H127685   2.451   3.394   1.541  0.4850 -2.5031  0.8619
 2042TIP3    H227686   2.518   3.486   1.441 -1.6395  1.3029  2.7153
 2043TIP3   OH227687   1.830   4.278   1.617 -0.3463  0.7081  0.7357
 2043TIP3    H127688   1.887   4.325   1.677  2.3148  0.1584 -1.1700
 2043TIP3    H227689   1.757   4.248   1.671  0.9413  1.8237  3.2338
 2044TIP3   OH227690   6.710   6.471   0.251  0.1967  0.1531  0.1865
 2044TIP3    H127691   6.798   6.444   0.224 -0.4135 -1.8597  0.0311
 2044TIP3    H227692   6.707   6.565   0.231  2.1061  0.1674 -0.3026
 2045TIP3   OH227693   5.666   1.904   1.269 -0.0565  0.0805  0.1543
 2045TIP3    H127694   5.629   1.989   1.247 -1.7562 -1.1776 -2.3747
 2045TIP3    H227695   5.756   1.908   1.237 -0.7530  0.3086 -1.9520
 2046TIP3   OH227696   0.298   1.259   2.369 -0.3075  0.6020 -0.2013
 2046TIP3    H127697   0.383   1.303   2.362 -0.5097  1.2397  1.1368
 2046TIP3    H227698   0.319   1.175   2.411 -0.3167  0.6677 -0.0665
 2047TIP3   OH227699   0.447   3.444   7.041 -0.2191  0.1650  0.0708
 2047TIP3    H127700   0.455   3.506   6.968  0.0670  0.0128 -0.0288
 2047TIP3    H227701   0.519   3.383   7.028  0.9986  1.2298  1.5486
 2048TIP3   OH227702   0.239   6.663   2.363  0.6170  0.3081 -0.8963
 2048TIP3    H127703   0.277   6.745   2.331  0.0655  0.9620  0.0663
 2048TIP3    H227704   0.175   6.690   2.428 -2.8680 -0.6273 -3.6448
 2049TIP3   OH227705   0.934   2.142   0.372 -0.5107 -0.4114 -0.1715
 2049TIP3    H127706   0.944   2.122   0.465 -2.7672  1.0993  0.4776
 2049TIP3    H227707   0.896   2.063   0.334 -0.6133 -0.6550  0.4281
 2050TIP3   OH227708   0.134   5.589   8.223  0.1398  0.8454  0.5285
 2050TIP3    H127709   0.139   5.501   8.259 -0.1677 -0.6479 -2.7840
 2050TIP3    H227710   0.046   5.619   8.247 -0.6576 -0.7284 -0.3099
 2051TIP3   OH227711   2.951   5.449   8.109 -0.2260  0.2228 -0.1760
 2051TIP3    H127712   3.001   5.477   8.032 -0.8557 -0.0617 -0.6937
 2051TIP3    H227713   2.917   5.531   8.146 -0.5531  0.2960 -0.6366
 2052TIP3   OH227714   3.738   6.533   7.943  0.2078  0.3857 -0.4720
 2052TIP3    H127715   3.756   6.590   7.868  0.7336 -0.7320 -1.2253
 2052TIP3    H227716   3.821   6.490   7.962 -0.2937 -0.5486 -0.2936
 2053TIP3   OH227717   1.075   0.156   6.399 -0.0842  0.0687  0.0696
 2053TIP3    H127718   1.066   0.070   6.440  0.0941  0.3089  0.6164
 2053TIP3    H227719   1.022   0.215   6.454 -0.8496  0.1684 -0.7475
 2054TIP3   OH227720   5.680   3.633   8.471 -0.4951  0.0351 -0.7737
 2054TIP3    H127721   5.606   3.694   8.463  0.7870  1.5585 -1.6919
 2054TIP3    H227722   5.747   3.683   8.518  0.1909 -1.0977 -0.5167
 2055TIP3   OH227723   0.052   5.198   6.901  0.0035 -0.0812  0.4781
 2055TIP3    H127724   0.041   5.273   6.959 -0.4906 -1.6296  2.4765
 2055TIP3    H227725  -0.027   5.145   6.915  0.4824 -1.1412 -0.6306
 2056TIP3   OH227726   6.668   1.518   7.298 -0.2593 -0.3867 -0.1041
 2056TIP3    H127727   6.687   1.540   7.390  0.5968 -2.1408  0.1702
 2056TIP3    H227728   6.574   1.537   7.288  0.0385  1.7461  0.5175
 2057TIP3   OH227729   2.430   5.145   0.157  0.3943 -0.9919 -1.4088
 2057TIP3    H127730   2.445   5.237   0.137 -1.0055 -0.7068 -1.2949
 2057TIP3    H227731   2.497   5.122   0.220  0.6310  0.0078 -1.2872
 2058TIP3   OH227732   0.561   1.012   6.629  0.4877 -0.4742 -0.5576
 2058TIP3    H127733   0.509   0.995   6.550 -0.5921  0.7748 -0.1633
 2058TIP3    H227734   0.595   1.101   6.616  0.3690 -0.2902  0.3379
 2059TIP3   OH227735   6.189   5.301   5.926  0.1850 -0.3405 -0.3621
 2059TIP3    H127736   6.187   5.314   6.021  1.6595  1.7166 -0.5475
 2059TIP3    H227737   6.124   5.362   5.892  1.2899  0.6506 -0.7709
 2060TIP3   OH227738   6.402   0.211   2.136 -0.5954  0.1891 -0.4431
 2060TIP3    H127739   6.485   0.241   2.100 -0.3566  0.5423  0.3993
 2060TIP3    H227740   6.350   0.291   2.146 -0.7135  0.0735 -0.1393
 2061TIP3   OH227741   5.817   3.877   6.045  0.6267  0.0200 -0.0025
 2061TIP3    H127742   5.757   3.929   6.098  0.9699  0.2069  0.2029
 2061TIP3    H227743   5.873   3.942   6.002  0.1714 -0.1120 -0.8131
 2062TIP3   OH227744   1.158   4.095   7.669  0.1136  0.2148  0.0500
 2062TIP3    H127745   1.118   4.154   7.732 -0.2553  0.2312 -0.1926
 2062TIP3    H227746   1.237   4.140   7.640  0.8156 -0.2224  1.2214
 2063TIP3   OH227747   0.600   1.258   1.845 -0.2146 -0.2900 -0.3297
 2063TIP3    H127748   0.684   1.303   1.837  0.4253 -1.1569  1.1468
 2063TIP3    H227749   0.621   1.165   1.847 -1.3193 -0.5839 -1.0213
 2064TIP3   OH227750   3.001   1.549   7.336  0.2691  0.1771 -0.6850
 2064TIP3    H127751   2.970   1.591   7.256 -0.3436  1.0988  0.0311
 2064TIP3    H227752   2.952   1.466   7.340 -0.7242  0.7552 -0.5572
 2065TIP3   OH227753   3.692   2.922   8.416 -0.2944  0.0972 -0.1136
 2065TIP3    H127754   3.600   2.936   8.393 -0.2707  1.3231  0.4363
 2065TIP3    H227755   3.732   2.893   8.334 -1.2527 -0.9269 -0.2432
 2066TIP3   OH227756   1.839   2.897   0.594  0.7755 -0.8232 -0.0209
 2066TIP3    H127757   1.801   2.936   0.515  0.2829  0.1525  0.6814
 2066TIP3    H227758   1.922   2.944   0.606  0.4668 -0.4058  0.4900
 2067TIP3   OH227759   3.933   2.673   1.406 -0.6269 -0.0787 -0.2995
 2067TIP3    H127760   3.908   2.581   1.408  1.2169 -0.6856 -1.5622
 2067TIP3    H227761   3.963   2.692   1.495 -0.7295 -0.8051 -0.1037
 2068TIP3   OH227762   5.377   2.483   0.230  0.7004 -0.6069  0.0730
 2068TIP3    H127763   5.349   2.460   0.318  1.8449  0.4183  0.7393
 2068TIP3    H227764   5.323   2.558   0.206  0.9608 -0.3493  0.2683
 2069TIP3   OH227765   4.493   5.760   8.736  0.8235 -0.4058 -0.7218
 2069TIP3    H127766   4.556   5.816   8.691 -1.1289  1.6682 -1.0289
 2069TIP3    H227767   4.530   5.750   8.824  0.9864  1.9380 -0.4475
 2070TIP3   OH227768   0.992   0.726   0.899 -0.1459 -0.1026  0.0838
 2070TIP3    H127769   0.964   0.710   0.989 -1.8395 -1.4881 -0.6402
 2070TIP3    H227770   0.913   0.758   0.854  0.6915  0.6541 -0.9045
 2071TIP3   OH227771   2.278   4.487   7.481 -0.7306 -0.6565 -0.2824
 2071TIP3    H127772   2.286   4.531   7.565  1.8202 -1.2828 -0.0985
 2071TIP3    H227773   2.196   4.520   7.444 -1.2567  0.6323  1.8440
 2072TIP3   OH227774   0.666   6.402   6.978 -0.1539 -0.1646 -0.4676
 2072TIP3    H127775   0.638   6.311   6.976  0.5534 -0.3744 -1.2525
 2072TIP3    H227776   0.665   6.430   6.886  1.2712  0.0975 -0.4300
 2073TIP3   OH227777   4.846   5.407   0.364 -0.3130  0.0524  0.4762
 2073TIP3    H127778   4.832   5.437   0.274 -1.0119 -0.8317  0.2817
 2073TIP3    H227779   4.803   5.474   0.418 -0.9446 -0.0451  0.0983
 2074TIP3   OH227780   5.426   5.524   6.327  0.7699 -0.0073 -0.4205
 2074TIP3    H127781   5.388   5.560   6.407  0.0166  0.0997 -0.8222
 2074TIP3    H227782   5.458   5.600   6.279  0.8237 -0.0355 -0.4299
 2075TIP3   OH227783   6.033   1.684   1.486 -0.0777 -0.3110 -0.7925
 2075TIP3    H127784   5.945   1.661   1.457 -0.3632  1.2978 -1.3026
 2075TIP3    H227785   6.091   1.624   1.438 -0.6990  0.6531 -2.8576
 2076TIP3   OH227786   1.663   5.094   7.653  0.2483 -0.3683 -0.1724
 2076TIP3    H127787   1.735   5.152   7.628  0.1356  0.0427  0.4338
 2076TIP3    H227788   1.596   5.110   7.587  0.0095  0.5974  0.2837
 2077TIP3   OH227789   0.192   5.374   6.758  0.0261  0.4449  0.2888
 2077TIP3    H127790   0.274   5.344   6.719 -0.2087 -0.6754  0.6492
 2077TIP3    H227791   0.158   5.298   6.805 -0.9715  1.0477  0.5609
 2078TIP3   OH227792   1.839   4.794   1.185 -0.3174  0.9848  0.2303
 2078TIP3    H127793   1.923   4.749   1.182 -0.8212  0.0504 -1.3791
 2078TIP3    H227794   1.775   4.725   1.204 -0.9752  1.1907 -1.0904
 2079TIP3   OH227795   2.431   6.662   0.905 -0.1581  0.2643  0.3299
 2079TIP3    H127796   2.421   6.626   0.993 -1.4202  1.4615  0.7122
 2079TIP3    H227797   2.344   6.653   0.866  0.7651 -1.8055 -1.4520
 2080TIP3   OH227798   6.778   4.790   0.875  0.0566 -0.1521 -0.0103
 2080TIP3    H127799   6.752   4.824   0.789  0.1974  1.1248  0.4223
 2080TIP3    H227800   6.743   4.701   0.877  1.1317 -0.6832 -1.8691
 2081TIP3   OH227801   3.218   0.781   8.558 -0.3174 -0.2431  0.2472
 2081TIP3    H127802   3.142   0.837   8.574  0.3620  0.5319  0.8835
 2081TIP3    H227803   3.266   0.825   8.488 -1.6477 -1.9813 -1.8835
 2082TIP3   OH227804   4.409   3.321   7.875 -0.3480 -0.0320 -0.3692
 2082TIP3    H127805   4.448   3.302   7.960  1.3735 -2.4924 -1.6211
 2082TIP3    H227806   4.316   3.335   7.894 -0.1557 -1.3516  1.8014
 2083TIP3   OH227807   4.625   1.159   8.190  0.6984 -0.1063  0.2240
 2083TIP3    H127808   4.530   1.160   8.203  0.7774 -0.0796  0.8427
 2083TIP3    H227809   4.637   1.140   8.097  0.0808  0.3929  0.0421
 2084TIP3   OH227810   5.983   2.387   0.995 -0.3087 -0.2569  0.1566
 2084TIP3    H127811   6.002   2.345   1.079 -1.2418 -1.9018 -0.4099
 2084TIP3    H227812   6.059   2.367   0.941 -0.4568 -0.6893  0.0988
 2085TIP3   OH227813   0.367   3.780   0.589 -0.1170  0.3304 -0.4481
 2085TIP3    H127814   0.457   3.749   0.590  0.2657  1.2951  1.9100
 2085TIP3    H227815   0.368   3.854   0.528  0.5211 -0.0693 -0.9311
 2086TIP3   OH227816   3.857   1.692   8.551 -0.0230  0.3937  0.1689
 2086TIP3    H127817   3.777   1.733   8.585 -0.4782 -0.4188  0.1183
 2086TIP3    H227818   3.846   1.692   8.456 -1.5187 -2.5830  0.2034
 2087TIP3   OH227819   3.997   4.438   6.854  0.5562  0.0215  0.0700
 2087TIP3    H127820   4.065   4.479   6.907  1.9119 -0.0785 -1.5080
 2087TIP3    H227821   3.916   4.455   6.902  1.4466  1.7890  1.0717
 2088TIP3   OH227822   2.846   3.416   0.608  0.0111  0.0090  0.3204
 2088TIP3    H127823   2.867   3.329   0.642  0.7236  0.2380  0.4744
 2088TIP3    H227824   2.751   3.423   0.617  0.0468 -0.4381  1.0579
 2089TIP3   OH227825   2.710   5.346   7.569 -0.3430  0.0756  0.2529
 2089TIP3    H127826   2.736   5.254   7.575 -1.5181 -0.2517  0.5910
 2089TIP3    H227827   2.765   5.382   7.500 -0.9075 -1.2660 -0.9575
 2090TIP3   OH227828   3.016   4.578   0.326  0.5489 -0.2242 -0.0058
 2090TIP3    H127829   2.981   4.541   0.407  2.0815 -2.9753 -0.4659
 2090TIP3    H227830   3.074   4.648   0.355  1.3397 -1.3867  1.3537
 2091TIP3   OH227831   6.109   0.844   0.033  0.3528 -0.5428 -0.0048
 2091TIP3    H127832   6.054   0.766   0.023 -1.8596  0.7792  0.9874
 2091TIP3    H227833   6.152   0.855  -0.052 -0.8990 -1.6975 -0.8293
 2092TIP3   OH227834   3.248   3.234   0.205  0.0331 -0.1583 -0.4937
 2092TIP3    H127835   3.334   3.244   0.246 -0.3944  0.5047  0.2728
 2092TIP3    H227836   3.186   3.241   0.278 -0.6792 -0.4384 -1.0628
 2093TIP3   OH227837   5.648   5.614   6.046 -0.3152 -0.2364  0.1806
 2093TIP3    H127838   5.707   5.622   6.121 -0.1355  0.1939 -0.0088
 2093TIP3    H227839   5.568   5.658   6.075  0.0239  0.6190 -0.1656
 2094TIP3   OH227840   2.118   0.888   8.643 -0.1578 -0.1667 -0.1531
 2094TIP3    H127841   2.033   0.933   8.641 -0.1575 -0.1151  0.7396
 2094TIP3    H227842   2.097   0.800   8.675 -0.0203 -0.5068 -0.9720
 2095TIP3   OH227843   6.360   3.708   6.911 -0.6733 -0.4488 -0.8903
 2095TIP3    H127844   6.271   3.735   6.888 -0.7789  0.5011  0.5578
 2095TIP3    H227845   6.387   3.769   6.979  0.8251 -1.1792 -0.7980
 2096TIP3   OH227846   0.832   1.235   2.369 -0.6184  0.0728 -0.9187
 2096TIP3    H127847   0.776   1.307   2.400 -0.0965  0.2815 -0.4664
 2096TIP3    H227848   0.770   1.174   2.329 -1.1000  0.6478 -1.0811
 2097TIP3   OH227849   0.863   1.561   0.451 -0.3981  0.6315 -0.2040
 2097TIP3    H127850   0.904   1.637   0.408 -0.5959  0.0598 -1.4352
 2097TIP3    H227851   0.936   1.506   0.478 -0.2934  0.5484 -0.6517
 2098TIP3   OH227852   5.847   2.904   0.221 -0.0588 -0.2063 -0.1367
 2098TIP3    H127853   5.869   2.976   0.162 -1.7155  0.4850  0.0443
 2098TIP3    H227854   5.905   2.832   0.193 -0.8652  0.0487 -2.7116
 2099TIP3   OH227855   1.645   3.418   0.480  0.4659  0.5998  0.4041
 2099TIP3    H127856   1.610   3.413   0.391  0.6547  0.3806  0.3417
 2099TIP3    H227857   1.664   3.328   0.503 -0.3086  0.5669  0.9608
 2100TIP3   OH227858   5.193   1.716   0.991 -0.1692 -0.0266 -0.6635
 2100TIP3    H127859   5.195   1.778   1.063  1.8635 -0.7510 -0.0419
 2100TIP3    H227860   5.129   1.650   1.018  0.1305  0.0339  0.1989
 2101TIP3   OH227861   2.185   5.047   6.960 -0.1781  0.1913  0.7580
 2101TIP3    H127862   2.111   4.995   6.927 -0.5618  0.0661  1.7785
 2101TIP3    H227863   2.225   5.084   6.882 -1.6780  0.7282  0.2095
 2102TIP3   OH227864   1.490   3.308   7.222  0.2943 -0.4296  0.3770
 2102TIP3    H127865   1.432   3.360   7.277  1.3377  0.3753  0.7568
 2102TIP3    H227866   1.432   3.265   7.159 -1.0035 -1.7435  2.3587
 2103TIP3   OH227867   2.552   6.390   7.155 -0.2405  0.3162  0.4676
 2103TIP3    H127868   2.498   6.469   7.147 -1.0430 -0.0017  2.2344
 2103TIP3    H227869   2.490   6.321   7.177  0.2590 -1.1486 -2.2302
 2104TIP3   OH227870   1.465   0.669   7.307 -0.1415 -0.4183  0.1269
 2104TIP3    H127871   1.373   0.660   7.331 -0.6367  0.4178 -1.3317
 2104TIP3    H227872   1.506   0.589   7.339 -0.8499  0.2524  3.0379
 2105TIP3   OH227873   1.961   3.399   0.666 -0.1669  0.0810 -0.1394
 2105TIP3    H127874   2.008   3.467   0.714 -1.0062  0.4589  0.1678
 2105TIP3    H227875   1.923   3.344   0.735  0.5984 -0.7784 -0.3837
 2106TIP3   OH227876   4.357   3.302   8.745  0.0411 -0.3922 -0.4584
 2106TIP3    H127877   4.340   3.349   8.663  0.6846 -1.0707 -1.0033
 2106TIP3    H227878   4.310   3.219   8.735  0.1707 -0.5025 -0.1642
 2107TIP3   OH227879   6.259   0.849   2.240 -0.3291 -0.1506 -0.4995
 2107TIP3    H127880   6.287   0.892   2.159 -1.5180 -1.6175 -1.7669
 2107TIP3    H227881   6.206   0.914   2.285 -1.3823  0.0507 -1.9423
 2108TIP3   OH227882   5.746   6.699   6.740  0.5507  0.1801 -0.1427
 2108TIP3    H127883   5.678   6.708   6.673  0.6004 -0.4325 -0.2809
 2108TIP3    H227884   5.826   6.726   6.696  0.5655 -0.1190 -0.3033
 2109TIP3   OH227885   5.967   2.831   0.813  0.4328  0.5582 -0.2707
 2109TIP3    H127886   6.035   2.785   0.763 -0.5174 -2.5770  1.0464
 2109TIP3    H227887   6.012   2.905   0.852  2.4538  0.0788 -1.5264
 2110TIP3   OH227888   4.876   2.827   0.051 -0.7155 -0.1661  1.0269
 2110TIP3    H127889   4.873   2.898   0.115 -1.1781 -0.7462  1.6614
 2110TIP3    H227890   4.787   2.821   0.017 -0.0586  1.5230 -1.2675
 2111TIP3   OH227891   1.008   5.010   1.363  0.3875 -0.4512 -0.4252
 2111TIP3    H127892   1.074   4.987   1.297 -0.2944 -1.1458 -0.8879
 2111TIP3    H227893   0.949   5.070   1.317  0.6739  0.1507 -0.0194
 2112TIP3   OH227894   6.801   5.928   0.309  0.5683 -0.0919  0.0778
 2112TIP3    H127895   6.873   5.911   0.369  0.0479  0.5263  0.8976
 2112TIP3    H227896   6.786   5.844   0.264  2.1030 -0.1049 -0.4743
 2113TIP3   OH227897   5.786   6.580   6.985  0.1445  0.1334 -0.1044
 2113TIP3    H127898   5.787   6.631   6.904  2.5477 -1.1221 -0.9746
 2113TIP3    H227899   5.693   6.574   7.009 -0.7805 -0.2946 -3.3227
 2114TIP3   OH227900   3.119   1.095   0.163 -0.0776  0.6083  0.7242
 2114TIP3    H127901   3.108   0.999   0.162 -0.4886  0.6557  0.0926
 2114TIP3    H227902   3.037   1.128   0.127  0.6088  1.1446 -0.3909
 2115TIP3   OH227903   2.469   0.232   7.808 -0.1534 -0.7454  0.2392
 2115TIP3    H127904   2.413   0.185   7.746 -1.9191  0.6543  0.6806
 2115TIP3    H227905   2.524   0.164   7.847 -2.0905 -2.3636  0.3298
 2116TIP3   OH227906   4.377   1.244   0.537 -0.6761  0.0409 -0.2067
 2116TIP3    H127907   4.393   1.162   0.491  1.9558  0.6414 -0.5607
 2116TIP3    H227908   4.409   1.312   0.477 -0.4284  1.1046  1.0708
 2117TIP3   OH227909   0.484   2.914   1.004 -0.6835  0.4743 -0.2119
 2117TIP3    H127910   0.502   2.962   1.085 -0.2734  1.2006 -0.7206
 2117TIP3    H227911   0.569   2.908   0.961 -0.3848 -2.0826  0.5392
 2118TIP3   OH227912   2.621   1.719   1.357  0.1857 -0.0827 -0.2505
 2118TIP3    H127913   2.562   1.727   1.433  1.8004  1.5820  0.9250
 2118TIP3    H227914   2.574   1.662   1.296 -2.8157  1.4304  0.4423
 2119TIP3   OH227915   5.178   0.611   1.273 -0.1450 -0.5731 -0.2144
 2119TIP3    H127916   5.101   0.571   1.314 -1.4014 -0.6494 -2.4910
 2119TIP3    H227917   5.234   0.537   1.252 -0.1485 -0.6561  0.0535
 2120TIP3   OH227918   0.153   3.405   8.503 -0.0024 -0.1198  0.5106
 2120TIP3    H127919   0.208   3.482   8.517 -0.4111  0.2694 -0.0207
 2120TIP3    H227920   0.184   3.367   8.421  1.1875 -1.3822  1.4964
 2121TIP3   OH227921   5.081   2.257   6.858 -0.3456  0.3083 -0.4013
 2121TIP3    H127922   5.041   2.339   6.886 -0.7088 -0.0333  0.0947
 2121TIP3    H227923   5.008   2.206   6.823 -0.2558 -0.0969 -0.0097
 2122TIP3   OH227924   5.017   4.734   7.667  0.9054  0.3430 -0.2816
 2122TIP3    H127925   5.051   4.709   7.581 -0.2718 -0.3056 -0.5785
 2122TIP3    H227926   5.084   4.792   7.703  0.6186  2.0897 -2.3716
 2123TIP3   OH227927   5.975   3.791   8.376  0.1910 -0.5651  0.0692
 2123TIP3    H127928   6.012   3.825   8.458 -0.0280  0.0220 -0.0660
 2123TIP3    H227929   5.934   3.868   8.336 -0.1213 -0.9547 -0.3580
 2124TIP3   OH227930   3.035   6.556   8.216 -0.1653  0.0654  0.2746
 2124TIP3    H127931   2.996   6.632   8.260 -1.3164 -0.3197 -0.0510
 2124TIP3    H227932   3.093   6.594   8.150  1.6355  0.6648  2.0841
 2125TIP3   OH227933   5.388   1.836   7.886  0.0485 -0.4991  0.3239
 2125TIP3    H127934   5.315   1.808   7.831 -0.2103 -0.0769  0.4547
 2125TIP3    H227935   5.461   1.780   7.858  0.1542  0.2847 -1.0670
 2126TIP3   OH227936   4.584   4.069   1.316 -0.0288 -0.4429  0.9844
 2126TIP3    H127937   4.585   3.988   1.366 -0.0296 -0.6745  0.6095
 2126TIP3    H227938   4.676   4.086   1.295 -0.1134 -0.8352  0.2779
 2127TIP3   OH227939   5.459   6.182   0.367 -0.1118 -0.3367  0.1384
 2127TIP3    H127940   5.541   6.187   0.318 -0.4697  1.8412 -0.3398
 2127TIP3    H227941   5.475   6.232   0.447 -0.8768 -0.1236  0.1724
 2128TIP3   OH227942   2.463   5.099   0.634  0.5414  0.1458  0.4947
 2128TIP3    H127943   2.544   5.054   0.657  1.4403  1.0023 -0.8674
 2128TIP3    H227944   2.459   5.173   0.694  0.0370 -0.6362  1.4655
 2129TIP3   OH227945   4.264   6.321   8.528  0.0744  0.2442 -0.3497
 2129TIP3    H127946   4.283   6.259   8.598 -0.4235  0.0409 -0.3862
 2129TIP3    H227947   4.331   6.304   8.462 -0.4167 -0.6791 -0.6272
 2130TIP3   OH227948   5.259   0.518   8.123 -0.2227  0.1248  0.3761
 2130TIP3    H127949   5.289   0.435   8.087  0.0202  0.5732 -0.4617
 2130TIP3    H227950   5.339   0.565   8.146 -0.2076  1.3430 -1.9053
 2131TIP3   OH227951   2.418   4.094   8.158  0.0474 -0.9383 -0.0985
 2131TIP3    H127952   2.403   4.000   8.170 -1.8169 -0.6355  0.1144
 2131TIP3    H227953   2.367   4.117   8.081  2.1944 -0.4665 -1.4748
 2132TIP3   OH227954   0.925   5.827   8.165  0.7707 -0.2793  0.2223
 2132TIP3    H127955   0.916   5.909   8.213 -0.9171 -0.4714  0.2769
 2132TIP3    H227956   0.838   5.809   8.130  0.2493 -3.4980  2.6307
 2133TIP3   OH227957   3.299   5.812   0.037  0.4728  0.0665  0.3720
 2133TIP3    H127958   3.388   5.781   0.054 -0.2720 -1.5079  1.6530
 2133TIP3    H227959   3.274   5.858   0.117 -0.8073 -1.8699  1.1395
 2134TIP3   OH227960   1.743   1.883   1.704  0.4371 -0.4223  0.8202
 2134TIP3    H127961   1.663   1.895   1.755  0.4227  1.9420  0.3176
 2134TIP3    H227962   1.741   1.952   1.638  2.0211 -1.4384 -0.3742
 2135TIP3   OH227963   4.057   1.021   0.545  0.5575 -1.3178 -0.5809
 2135TIP3    H127964   4.016   1.071   0.473  0.3096 -0.5568  0.0737
 2135TIP3    H227965   4.064   1.084   0.616  5.3227 -0.5291 -1.3974
 2136TIP3   OH227966   4.779   1.609   6.266 -0.5415 -0.8365 -0.0286
 2136TIP3    H127967   4.853   1.550   6.276  0.0986 -0.4337 -1.9961
 2136TIP3    H227968   4.797   1.681   6.327 -0.1810 -1.5488  0.7170
 2137TIP3   OH227969   2.337   3.245   2.048  0.2003  0.1372 -0.3842
 2137TIP3    H127970   2.312   3.270   2.137  0.5856  1.3476 -0.5975
 2137TIP3    H227971   2.269   3.184   2.020  0.5758 -0.9979  1.0629
 2138TIP3   OH227972   1.391   1.515   1.614  0.2110 -1.0696 -0.0934
 2138TIP3    H127973   1.383   1.608   1.631 -0.6026 -0.7202 -2.0855
 2138TIP3    H227974   1.315   1.476   1.657 -0.0904 -0.6452 -0.2348
 2139TIP3   OH227975   0.426   5.884   1.506  0.3867  0.0914  0.3955
 2139TIP3    H127976   0.365   5.929   1.565 -2.5152 -0.5949 -1.9049
 2139TIP3    H227977   0.484   5.954   1.475  0.0664  0.9925  1.7069
 2140TIP3   OH227978   4.884   3.887   1.415  0.5685  0.7075 -0.6375
 2140TIP3    H127979   4.859   3.951   1.481  1.3020  0.6760 -0.3152
 2140TIP3    H227980   4.980   3.896   1.408  0.7868 -0.9195  0.0046
 2141TIP3   OH227981   1.102   6.622   2.212 -0.0578 -0.2161  0.5662
 2141TIP3    H127982   1.183   6.572   2.201  0.1381  0.0268  0.8806
 2141TIP3    H227983   1.059   6.581   2.287  0.1901  0.1929  0.9393
 2142TIP3   OH227984   2.403   3.221   1.307 -0.0439 -0.0030  0.1027
 2142TIP3    H127985   2.474   3.283   1.325 -0.6347  0.7684 -0.1928
 2142TIP3    H227986   2.442   3.135   1.325  0.8722  0.4259  0.2434
 2143TIP3   OH227987   0.065   5.838   7.250 -0.3349 -0.4383  0.0162
 2143TIP3    H127988   0.111   5.877   7.325 -0.3904  0.5804 -0.4704
 2143TIP3    H227989  -0.028   5.841   7.275 -0.3851  0.2455 -0.2474
 2144TIP3   OH227990   4.708   0.783   0.956 -0.4773  0.3064 -0.6035
 2144TIP3    H127991   4.791   0.738   0.971 -1.6200 -1.4200  1.0342
 2144TIP3    H227992   4.643   0.713   0.950 -1.8399  1.6079 -1.9220
 2145TIP3   OH227993   1.258   4.984   1.138 -0.6688  0.4315 -0.0110
 2145TIP3    H127994   1.344   5.010   1.171 -1.4626  0.7212  1.9875
 2145TIP3    H227995   1.206   5.065   1.140 -0.8987  0.3584 -1.6087
 2146TIP3   OH227996   2.092   3.129   8.716 -0.4627 -0.0518 -0.5270
 2146TIP3    H127997   2.034   3.152   8.789 -0.8381 -1.5046 -0.3414
 2146TIP3    H227998   2.136   3.050   8.744  1.6897  1.0310 -0.6596
 2147TIP3   OH227999   4.292   4.542   8.621  0.7441 -0.1521  0.9354
 2147TIP3    H128000   4.269   4.624   8.577 -0.5873 -1.0980 -0.2344
 2147TIP3    H228001   4.207   4.502   8.642  1.3363 -2.0353 -0.0954
 2148TIP3   OH228002   0.979   0.567   0.143 -0.0331 -0.4261 -0.3659
 2148TIP3    H128003   0.941   0.634   0.200  0.6107 -0.0078 -0.4087
 2148TIP3    H228004   0.991   0.491   0.199 -0.5158 -0.4168 -0.2462
 2149TIP3   OH228005   3.899   4.360   8.276  0.0545  0.3161 -0.0150
 2149TIP3    H128006   3.906   4.302   8.200  1.3837  1.3230 -0.7027
 2149TIP3    H228007   3.977   4.342   8.327 -0.6774 -0.1199  0.9811
 2150TIP3   OH228008   1.374   2.255   7.203  0.1982  0.4849  0.2020
 2150TIP3    H128009   1.294   2.300   7.233  0.8673  1.8418  0.0014
 2150TIP3    H228010   1.384   2.282   7.112 -0.5135 -1.7564 -0.6190
 2151TIP3   OH228011   4.463   0.786   7.573  0.2170  0.7768 -0.2379
 2151TIP3    H128012   4.475   0.783   7.478 -1.0777 -0.7265 -0.3974
 2151TIP3    H228013   4.547   0.756   7.609  0.1097 -0.4572 -0.9772
 2152TIP3   OH228014   6.008   0.000   6.683 -0.0210  0.4948 -0.8395
 2152TIP3    H128015   5.954   0.066   6.727  0.2271 -0.7991  1.6027
 2152TIP3    H228016   6.098   0.022   6.709  0.1783 -0.0385 -1.0575
 2153TIP3   OH228017   5.089   1.753   6.560 -0.0938  0.1568  0.7844
 2153TIP3    H128018   5.148   1.699   6.508  0.9312  0.2823  1.7880
 2153TIP3    H228019   5.050   1.814   6.496 -0.3904 -0.9808 -0.1525
 2154TIP3   OH228020   1.354   6.819   2.141  0.2909  0.4648 -0.1124
 2154TIP3    H128021   1.443   6.818   2.105  0.5918  0.0111  0.6132
 2154TIP3    H228022   1.299   6.844   2.067  0.7490 -1.5123 -1.1905
 2155TIP3   OH228023   2.361   3.008   1.085  0.8371 -0.0548 -0.2160
 2155TIP3    H128024   2.370   2.962   1.168  2.7523  1.8838  0.7539
 2155TIP3    H228025   2.267   3.021   1.075  0.4006 -2.1985  0.5178
 2156TIP3   OH228026   5.722   5.534   8.326  0.0410 -0.0268  0.3393
 2156TIP3    H128027   5.662   5.606   8.350  1.6312  0.7352  2.3846
 2156TIP3    H228028   5.666   5.471   8.280 -2.0991  1.1076  1.1994
 2157TIP3   OH228029   4.411   5.169   6.140  0.4307  0.6122  0.0642
 2157TIP3    H128030   4.491   5.121   6.160  0.2640 -0.7947 -2.2838
 2157TIP3    H228031   4.439   5.259   6.125  1.5272  0.2042 -0.4026
 2158TIP3   OH228032   0.238   3.276   6.431  0.0689 -0.2668 -0.6386
 2158TIP3    H128033   0.200   3.188   6.437 -0.4147 -0.0587 -0.6177
 2158TIP3    H228034   0.325   3.261   6.394  0.6998 -0.9327  1.0039
 2159TIP3   OH228035   5.447   0.493   1.143  0.3616  0.0019 -0.5967
 2159TIP3    H128036   5.478   0.567   1.194  0.1039  0.7899 -1.5645
 2159TIP3    H228037   5.437   0.527   1.055 -1.7763 -0.6293 -0.6347
 2160TIP3   OH228038   2.054   2.975   7.452 -0.7735 -0.1085 -0.2310
 2160TIP3    H128039   2.016   3.041   7.394 -1.1976 -0.3014 -0.1798
 2160TIP3    H228040   2.035   2.891   7.409 -0.3088 -0.1988 -0.2571
 2161TIP3   OH228041   4.932   2.303   8.138  0.4821  0.0479  0.4051
 2161TIP3    H128042   4.969   2.374   8.192  2.0267 -0.6565  0.3239
 2161TIP3    H228043   4.901   2.347   8.059 -1.2229  1.0063  1.5486
 2162TIP3   OH228044   5.991   3.858   1.376 -0.1464 -0.5858  0.9293
 2162TIP3    H128045   5.978   3.905   1.459  1.5730  1.2667  0.2266
 2162TIP3    H228046   5.910   3.874   1.327 -0.2830  0.1993  1.3962
 2163TIP3   OH228047   0.289   3.238   6.916  0.3917 -0.2374  0.4621
 2163TIP3    H128048   0.313   3.307   6.978  0.4367  0.8379 -0.7092
 2163TIP3    H228049   0.373   3.211   6.878  0.3332 -0.6865  0.6453
 2164TIP3   OH228050   1.602   6.585   0.798 -0.1534  0.0485  0.5211
 2164TIP3    H128051   1.575   6.522   0.731  2.5799 -0.7357  0.0040
 2164TIP3    H228052   1.540   6.658   0.790 -2.4123 -1.8103  0.0187
 2165TIP3   OH228053   6.605   0.272   6.940 -0.5731 -0.2125  0.9290
 2165TIP3    H128054   6.575   0.201   6.883 -0.9598  1.1630 -0.6694
 2165TIP3    H228055   6.596   0.351   6.886 -0.0026  1.0357  2.5848
 2166TIP3   OH228056   0.205   1.170   8.699  0.0597  0.1049 -0.1389
 2166TIP3    H128057   0.238   1.139   8.614  0.4032 -0.0512  0.0503
 2166TIP3    H228058   0.281   1.208   8.742  0.5927 -2.3634  1.2678
 2167TIP3   OH228059   5.642   6.474   1.707 -0.4069  0.5796 -0.1580
 2167TIP3    H128060   5.628   6.390   1.664  0.9789  1.1582 -1.8729
 2167TIP3    H228061   5.625   6.457   1.800 -2.1825 -1.0525 -0.7238
 2168TIP3   OH228062   4.957   3.692   1.219 -0.5968 -0.3751 -0.3351
 2168TIP3    H128063   4.941   3.736   1.303  1.4494  1.1373 -0.6524
 2168TIP3    H228064   4.887   3.725   1.162 -1.3334 -0.5281  0.4442
 2169TIP3   OH228065   5.010   5.123   7.669 -0.2903 -0.7673  0.3241
 2169TIP3    H128066   5.012   5.212   7.635 -0.0607 -1.0739 -0.4773
 2169TIP3    H228067   5.058   5.071   7.605  0.8291 -1.2346  1.4824
 2170TIP3   OH228068   4.456   3.982   8.507  0.2163  0.1738  0.1261
 2170TIP3    H128069   4.504   4.054   8.549 -1.6335  0.4999  1.8363
 2170TIP3    H228070   4.376   4.023   8.474  0.4678 -0.5877 -1.5175
 2171TIP3   OH228071   1.888   0.104   0.461  0.4791 -0.0313 -0.3824
 2171TIP3    H128072   1.906   0.198   0.459  1.3057 -0.1938 -0.5766
 2171TIP3    H228073   1.919   0.071   0.377 -1.4181 -0.2088 -1.0633
 2172TIP3   OH228074   0.371   6.444   8.505 -0.0470 -0.1725  0.1576
 2172TIP3    H128075   0.343   6.380   8.571 -1.1173  1.1381  1.0311
 2172TIP3    H228076   0.464   6.458   8.522  0.1611 -1.3468  0.0668
 2173TIP3   OH228077   6.441   2.248   0.725  0.2012  0.1348  0.1954
 2173TIP3    H128078   6.534   2.266   0.719  0.4480 -0.7694  1.0930
 2173TIP3    H228079   6.401   2.334   0.739  0.5494  0.9759 -3.0335
 2174TIP3   OH228080   5.002   5.027   8.270  0.3162  0.3281  0.1217
 2174TIP3    H128081   5.033   4.969   8.200 -1.1080  0.5725 -0.7716
 2174TIP3    H228082   5.019   5.115   8.237 -0.9105  0.4598 -0.2449
 2175TIP3   OH228083   2.005   6.677   7.405  0.8423  0.3399 -0.1911
 2175TIP3    H128084   2.055   6.654   7.327  0.2285  1.1840 -0.8581
 2175TIP3    H228085   2.024   6.607   7.467  3.3115  0.9241 -0.1778
 2176TIP3   OH228086   4.685   3.056   7.991 -0.1346  0.0392 -0.1356
 2176TIP3    H128087   4.763   3.038   8.043  0.2357 -0.5154 -0.8509
 2176TIP3    H228088   4.719   3.090   7.908 -0.6668  0.0794 -0.3423
 2177TIP3   OH228089   2.992   4.405   0.603 -0.1560 -0.0893  0.5275
 2177TIP3    H128090   3.058   4.414   0.673  1.1829 -1.2630 -0.5238
 2177TIP3    H228091   3.035   4.351   0.537 -1.8598 -0.0720 -0.6455
 2178TIP3   OH228092   5.580   3.221   1.595  0.0692 -0.1040 -0.0029
 2178TIP3    H128093   5.486   3.231   1.610  0.2555  1.6185  0.2609
 2178TIP3    H228094   5.603   3.139   1.638 -1.2390 -0.3382  0.2796
 2179TIP3   OH228095   0.063   6.788   7.074 -0.6964  0.1950 -0.1259
 2179TIP3    H128096   0.041   6.727   7.144  0.5968  0.3881  0.4698
 2179TIP3    H228097  -0.018   6.796   7.024 -1.6073 -0.0672  1.2422
 2180TIP3   OH228098   1.672   2.415   6.902  0.2198  0.3176 -0.1229
 2180TIP3    H128099   1.652   2.323   6.920  1.6434 -0.3626 -1.8177
 2180TIP3    H228100   1.589   2.452   6.871 -0.9363  0.2254  2.5095
 2181TIP3   OH228101   5.989   5.074   1.457  0.3970  0.0682  0.3977
 2181TIP3    H128102   5.934   5.005   1.421  0.4187 -0.0764  0.6397
 2181TIP3    H228103   6.011   5.044   1.545  0.5101  0.3250  0.4588
 2182TIP3   OH228104   4.423   1.887   1.084 -0.1491 -0.0781  0.0518
 2182TIP3    H128105   4.484   1.875   1.157  0.0816 -0.4962 -0.2121
 2182TIP3    H228106   4.434   1.809   1.030 -0.5804  0.0644 -0.2444
 2183TIP3   OH228107   4.600   4.339   0.601  0.5830 -0.0884  0.1433
 2183TIP3    H128108   4.620   4.248   0.581 -0.9759 -0.0859 -1.7268
 2183TIP3    H228109   4.628   4.387   0.523  1.7654  1.1314  1.2643
 2184TIP3   OH228110   1.693   5.436   0.171  0.3090 -0.0568  0.1860
 2184TIP3    H128111   1.684   5.342   0.156  0.0377  0.2333 -1.6498
 2184TIP3    H228112   1.653   5.477   0.095 -2.0168  1.6421  2.1753
 2185TIP3   OH228113   3.844   5.362   7.625 -0.6874 -0.2792  0.6250
 2185TIP3    H128114   3.818   5.394   7.712 -0.7910 -0.1563  0.5485
 2185TIP3    H228115   3.881   5.275   7.642  2.6670  1.1218  1.3130
 2186TIP3   OH228116   3.533   5.371   8.275 -0.0444 -0.3074  0.3337
 2186TIP3    H128117   3.516   5.465   8.265  0.7521  0.0401  1.8162
 2186TIP3    H228118   3.446   5.331   8.282 -0.3860  0.5066  0.9695
 2187TIP3   OH228119   4.471   0.623   2.132 -0.1925 -0.0095  0.2493
 2187TIP3    H128120   4.456   0.703   2.182 -2.3460  0.3433 -0.8542
 2187TIP3    H228121   4.463   0.553   2.197 -0.2271  0.5678  0.8770
 2188TIP3   OH228122   0.481   4.123   6.744  0.6989 -0.2568 -0.1153
 2188TIP3    H128123   0.565   4.166   6.723  1.8946 -2.5540 -0.2958
 2188TIP3    H228124   0.453   4.085   6.660 -1.8317  2.4238 -0.6604
 2189TIP3   OH228125   3.069   2.193   1.478  0.2172 -0.2402 -0.0880
 2189TIP3    H128126   3.036   2.273   1.518  3.0660  0.6464  0.7392
 2189TIP3    H228127   3.089   2.217   1.387  1.4364  0.1415  0.2658
 2190TIP3   OH228128   4.862   6.231   6.554  0.4498  0.0224  0.4155
 2190TIP3    H128129   4.793   6.164   6.553 -0.6931  1.1597 -0.5456
 2190TIP3    H228130   4.906   6.221   6.470 -0.9898  1.6716 -0.5988
 2191TIP3   OH228131   4.518   0.974   6.434  0.4011 -0.0910 -0.5213
 2191TIP3    H128132   4.440   0.934   6.394  0.6596 -0.1873 -0.9380
 2191TIP3    H228133   4.584   0.972   6.364  0.5688  0.6091 -0.3941
 2192TIP3   OH228134   1.267   2.552   7.857 -0.0755 -0.6465  0.0398
 2192TIP3    H128135   1.183   2.588   7.828 -0.4683 -0.9896  0.7097
 2192TIP3    H228136   1.332   2.619   7.833 -0.8184  0.6838  1.5149
 2193TIP3   OH228137   4.858   1.272   1.406 -0.2697  0.1712  0.2815
 2193TIP3    H128138   4.777   1.221   1.404  0.4536 -1.0124 -0.6930
 2193TIP3    H228139   4.830   1.361   1.427 -1.8655 -0.1283 -0.3999
 2194TIP3   OH228140   3.132   3.492   8.105 -0.1431 -0.0006 -0.2001
 2194TIP3    H128141   3.052   3.445   8.083  0.8299 -2.3109  0.8868
 2194TIP3    H228142   3.146   3.473   8.198  0.5796  2.0957  0.1746
 2195TIP3   OH228143   2.705   4.756   1.514  0.4935 -0.6074 -0.1435
 2195TIP3    H128144   2.766   4.688   1.541  1.1568  0.3152  0.7907
 2195TIP3    H228145   2.640   4.760   1.584  0.7172  0.0068  0.0410
 2196TIP3   OH228146   2.924   1.867   6.234 -0.2667  0.4691 -0.4023
 2196TIP3    H128147   2.946   1.785   6.278  1.8733  0.9818 -0.4235
 2196TIP3    H228148   2.830   1.876   6.245 -0.5480 -1.9580 -0.3500
 2197TIP3   OH228149   3.140   5.489   8.552  0.7514 -0.7440 -0.6576
 2197TIP3    H128150   3.161   5.503   8.459  2.7104 -1.7978 -0.4284
 2197TIP3    H228151   3.045   5.477   8.553  0.3999  1.3827 -2.2202
 2198TIP3   OH228152   4.920   4.819   0.609 -0.0119  0.2113  0.2219
 2198TIP3    H128153   4.932   4.894   0.550  1.2249  0.7246  1.0661
 2198TIP3    H228154   4.911   4.744   0.552  0.0051  0.8471 -0.6342
 2199TIP3   OH228155   0.049   3.923   6.846  0.7590  0.0359 -0.2065
 2199TIP3    H128156   0.100   3.942   6.767  1.2449 -1.2387 -0.2248
 2199TIP3    H228157  -0.033   3.887   6.814  0.7457  0.0065 -0.1392
 2200TIP3   OH228158   2.837   0.586   1.146 -0.3434 -0.4149  0.2283
 2200TIP3    H128159   2.914   0.643   1.150 -1.9321  1.9196 -0.1806
 2200TIP3    H228160   2.807   0.580   1.237 -0.9190  0.5407  0.1129
 2201TIP3   OH228161   4.879   6.813   6.800  0.0773  0.0315  0.4437
 2201TIP3    H128162   4.884   6.889   6.859  0.6955 -0.9444  1.6949
 2201TIP3    H228163   4.954   6.822   6.742 -0.7368  1.1952 -0.4972
 2202TIP3   OH228164   6.007   0.188   6.260  0.6136  0.4606  0.2101
 2202TIP3    H128165   6.036   0.245   6.332 -1.7185  1.0205  0.7686
 2202TIP3    H228166   5.991   0.103   6.302  1.2930  0.1763 -0.0849
 2203TIP3   OH228167   4.211   2.025   0.969  0.1861  0.2700  0.5526
 2203TIP3    H128168   4.206   2.117   0.993  1.7290  0.2898  0.8844
 2203TIP3    H228169   4.298   1.997   0.996  0.3326 -0.8838 -0.9242
 2204TIP3   OH228170   0.089   2.188   7.766  0.0823  0.2608 -0.3349
 2204TIP3    H128171   0.017   2.247   7.747  0.1122  0.5470  0.4221
 2204TIP3    H228172   0.116   2.155   7.680  0.6487  2.0154 -0.8680
 2205TIP3   OH228173   1.048   1.607   1.158 -0.4560  0.2048 -0.2560
 2205TIP3    H128174   1.131   1.583   1.200 -1.1859 -2.4128 -0.1193
 2205TIP3    H228175   1.058   1.578   1.067 -1.3032 -0.4085 -0.1631
 2206TIP3   OH228176   4.110   3.249   1.167  0.0587  0.1610  0.1190
 2206TIP3    H128177   4.018   3.246   1.140  0.1152 -0.8087  0.0077
 2206TIP3    H228178   4.158   3.223   1.089  0.2817 -1.6623  0.8104
 2207TIP3   OH228179   0.983   2.799   7.550  1.0148 -0.5720 -0.1640
 2207TIP3    H128180   0.967   2.760   7.464  0.1457  1.8418 -1.2030
 2207TIP3    H228181   1.078   2.794   7.562  1.6670  2.0609 -2.9391
 2208TIP3   OH228182   3.093   5.496   7.584  0.1290 -0.1113  0.1358
 2208TIP3    H128183   3.035   5.555   7.632 -0.7646  0.2698 -1.3689
 2208TIP3    H228184   3.057   5.492   7.496  1.2382 -1.4673 -0.3034
 2209TIP3   OH228185   3.403   3.135   1.010  0.3170  0.0433 -0.3722
 2209TIP3    H128186   3.479   3.106   0.958  1.3313  3.0954 -0.8410
 2209TIP3    H228187   3.409   3.086   1.091  1.4897 -1.4096 -1.2805
 2210TIP3   OH228188   2.611   1.668   8.052 -0.4151 -0.2643  0.0355
 2210TIP3    H128189   2.630   1.631   7.965 -0.2658  0.2127 -0.1363
 2210TIP3    H228190   2.679   1.734   8.065  0.3035 -1.1733  1.0416
 2211TIP3   OH228191   0.915   3.753   7.973 -0.0428  0.4665  0.0705
 2211TIP3    H128192   0.953   3.828   8.019  0.2341 -0.8101  2.0585
 2211TIP3    H228193   0.829   3.740   8.015 -0.1454 -0.2452 -0.3443
 2212TIP3   OH228194   6.426   2.979   1.509  0.1993  0.7522 -0.4179
 2212TIP3    H128195   6.409   3.064   1.468  1.8194  1.6417  0.6223
 2212TIP3    H228196   6.521   2.969   1.505  0.0345 -1.1369 -0.7012
 2213TIP3   OH228197   4.251   1.770   1.292  0.5563 -0.2223  0.2356
 2213TIP3    H128198   4.214   1.681   1.297 -0.2351  0.1419  1.9361
 2213TIP3    H228199   4.287   1.777   1.204 -1.8196 -1.2856 -0.9240
 2214TIP3   OH228200   2.362   0.344   1.825  0.4038 -0.6873 -0.0877
 2214TIP3    H128201   2.358   0.352   1.920  0.7273  1.9851 -0.2248
 2214TIP3    H228202   2.454   0.358   1.804  0.2884 -0.9856 -0.8211
 2215TIP3   OH228203   1.231   6.376   7.816 -0.1750 -0.5683  0.2873
 2215TIP3    H128204   1.220   6.471   7.823  2.1158 -0.3277  1.3016
 2215TIP3    H228205   1.180   6.340   7.888  1.4574  0.1476  1.8613
 2216TIP3   OH228206   5.228   0.763   7.609 -0.2811  0.0999  0.2068
 2216TIP3    H128207   5.173   0.696   7.568 -0.6377 -0.6545  1.8556
 2216TIP3    H228208   5.317   0.727   7.604 -0.1050  0.6470 -1.1077
 2217TIP3   OH228209   5.010   1.102   0.408  0.2490 -0.6983 -0.0497
 2217TIP3    H128210   5.042   1.114   0.497  0.7772 -0.9655 -0.2061
 2217TIP3    H228211   4.916   1.118   0.414  0.5165  0.9100  0.2570
 2218TIP3   OH228212   5.208   4.512   6.553 -0.2441  0.6702  0.0752
 2218TIP3    H128213   5.212   4.486   6.461 -0.6423 -2.4146  0.8311
 2218TIP3    H228214   5.184   4.605   6.551 -0.0665  0.7273 -2.9080
 2219TIP3   OH228215   4.493   4.193   0.292 -0.0903 -0.0109  0.6257
 2219TIP3    H128216   4.424   4.199   0.226 -1.9209 -1.6686  2.2469
 2219TIP3    H228217   4.530   4.281   0.296 -0.2132  0.2694 -2.2021
 2220TIP3   OH228218   6.774   1.981   7.919 -0.3331  0.3602 -0.6442
 2220TIP3    H128219   6.825   1.900   7.931  0.0716  0.5903 -0.7785
 2220TIP3    H228220   6.838   2.044   7.884 -0.4937  0.9118  0.0339
 2221TIP3   OH228221   5.928   2.539   7.587 -0.3789 -0.1306 -0.3126
 2221TIP3    H128222   5.985   2.503   7.520  0.2481 -1.8904  1.0751
 2221TIP3    H228223   5.843   2.547   7.545 -0.1524 -1.7668 -1.1533
 2222TIP3   OH228224   3.740   4.356   6.631 -0.4922  0.1844 -0.3532
 2222TIP3    H128225   3.739   4.361   6.727  0.2703 -1.4160 -0.2215
 2222TIP3    H228226   3.711   4.267   6.612  1.7863 -0.3808 -1.4810
 2223TIP3   OH228227   0.615   6.414   1.568  0.4280  0.4363 -0.1323
 2223TIP3    H128228   0.578   6.502   1.571 -0.8855 -0.1160  0.3147
 2223TIP3    H228229   0.696   6.425   1.517  1.1758  2.2044  1.3047
 2224TIP3   OH228230   1.144   0.626   7.061  0.0716 -0.0313 -0.1304
 2224TIP3    H128231   1.116   0.558   7.000  2.8760  0.1528 -1.7894
 2224TIP3    H228232   1.121   0.708   7.017  1.3101  0.0917 -0.5863
 2225TIP3   OH228233   2.248   1.737   0.863  0.0631  0.0273  0.0283
 2225TIP3    H128234   2.248   1.776   0.950 -0.7151  0.5597 -0.1976
 2225TIP3    H228235   2.179   1.784   0.816  0.4002 -0.3278 -0.8408
 2226TIP3   OH228236   4.340   2.990   7.778  0.8402  0.2400 -0.6719
 2226TIP3    H128237   4.265   2.947   7.736  0.5678  0.1033 -0.0560
 2226TIP3    H228238   4.332   3.082   7.753  0.0346  0.3648 -0.0002
 2227TIP3   OH228239   6.382   6.691   7.631 -0.0116 -0.2089  0.4658
 2227TIP3    H128240   6.428   6.651   7.557 -0.7881 -0.8099  0.2967
 2227TIP3    H228241   6.445   6.754   7.667 -0.4251  1.9981 -2.2620
 2228TIP3   OH228242   3.357   1.562   1.646 -0.5823  0.5023 -0.8585
 2228TIP3    H128243   3.369   1.502   1.719 -1.1219 -1.2541 -2.1404
 2228TIP3    H228244   3.346   1.505   1.570 -2.0437  2.2062 -2.0121
 2229TIP3   OH228245   3.720   0.018   0.605 -0.3949 -0.2112 -0.4663
 2229TIP3    H128246   3.718  -0.023   0.518  0.2741 -0.2243 -0.4857
 2229TIP3    H228247   3.668  -0.040   0.660  0.8140 -1.2949 -0.4202
 2230TIP3   OH228248   3.429   3.449   6.659  0.2702 -0.7424  0.6018
 2230TIP3    H128249   3.359   3.438   6.595 -0.9856  1.1623  1.5902
 2230TIP3    H228250   3.392   3.417   6.742  0.9910 -0.7891  0.9206
 2231TIP3   OH228251   0.887   6.530   1.731 -0.5518 -0.2991 -0.0839
 2231TIP3    H128252   0.915   6.444   1.699  1.0614 -0.3772  1.3744
 2231TIP3    H228253   0.902   6.526   1.825  0.4624  1.9180 -0.0971
 2232TIP3   OH228254   4.514   2.899   6.988 -0.1729 -0.1173  0.1096
 2232TIP3    H128255   4.590   2.924   6.936  0.5787 -0.1983  1.1386
 2232TIP3    H228256   4.471   2.831   6.936  1.0353 -0.8073 -0.0283
 2233TIP3   OH228257   4.770   0.856   6.676 -0.0382 -0.1111  0.4890
 2233TIP3    H128258   4.705   0.924   6.693 -1.2703 -1.5398  1.7453
 2233TIP3    H228259   4.732   0.804   6.605  0.9491  0.5156 -0.5412
 2234TIP3   OH228260   1.976   4.081   0.988  0.1180 -0.0486  0.1608
 2234TIP3    H128261   1.918   4.132   0.931  0.1763 -0.5387 -0.3415
 2234TIP3    H228262   1.921   4.059   1.063 -0.4632 -0.7735 -0.4491
 2235TIP3   OH228263   1.449   0.431   1.324  0.3757  0.4192  0.6081
 2235TIP3    H128264   1.402   0.407   1.244  2.4065  0.4997 -0.7013
 2235TIP3    H228265   1.450   0.351   1.376 -1.0885  0.3981  0.6457
 2236TIP3   OH228266   4.918   1.141   8.259 -0.2810 -0.1896  0.1823
 2236TIP3    H128267   4.902   1.114   8.350 -0.9197 -0.4661 -0.0066
 2236TIP3    H228268   4.831   1.157   8.223  0.0360  2.7455  0.4390
 2237TIP3   OH228269   4.954   5.014   0.418  0.2673  0.3929 -0.2881
 2237TIP3    H128270   5.016   5.087   0.411  0.6512  0.2551  1.3684
 2237TIP3    H228271   4.873   5.047   0.379  0.2178  1.9820  1.0577
 2238TIP3   OH228272   3.775   1.794   1.018  0.5735  0.4776 -0.1012
 2238TIP3    H128273   3.825   1.730   0.966  0.6436  1.8048 -1.7584
 2238TIP3    H228274   3.819   1.878   1.001 -0.4064  1.2032  0.8384
 2239TIP3   OH228275   1.483   0.517   2.310  0.0232  0.5059  0.2444
 2239TIP3    H128276   1.409   0.463   2.337 -0.1771  1.2627  1.2838
 2239TIP3    H228277   1.443   0.592   2.266  0.2840 -0.0434 -0.9568
 2240TIP3   OH228278   0.031   6.632   7.849 -0.1216 -0.1712  0.4009
 2240TIP3    H128279   0.123   6.609   7.836  0.2547  1.1036  0.7486
 2240TIP3    H228280  -0.000   6.654   7.761 -0.0588 -0.4155  0.3143
 2241TIP3   OH228281   0.597   6.626   6.685  0.3099 -0.2466  0.1105
 2241TIP3    H128282   0.504   6.606   6.673  0.8759 -1.6788 -2.7935
 2241TIP3    H228283   0.640   6.540   6.688  1.6441  0.4019  0.3238
 2242TIP3   OH228284   6.209   4.193   7.464  0.1725  0.2791 -0.1212
 2242TIP3    H128285   6.293   4.167   7.503  1.1810  1.1941 -1.5626
 2242TIP3    H228286   6.157   4.113   7.464  0.8230 -0.1832  1.2969
 2243TIP3   OH228287   4.820   3.334   7.108 -0.3863  0.2318  0.0613
 2243TIP3    H128288   4.815   3.346   7.013  0.2852 -0.5385 -0.0846
 2243TIP3    H228289   4.905   3.292   7.123  1.6188  4.3079  1.4531
 2244TIP3   OH228290   0.138   4.940   8.636 -0.0307 -0.4468  0.0614
 2244TIP3    H128291   0.047   4.920   8.619  0.1255 -0.8879 -0.2658
 2244TIP3    H228292   0.147   5.033   8.615  0.5107 -1.2236 -4.0057
 2245TIP3   OH228293   3.710   5.695   1.395  0.1112 -0.6027 -0.6454
 2245TIP3    H128294   3.624   5.655   1.408 -0.3464  0.2326 -1.0318
 2245TIP3    H228295   3.732   5.734   1.480 -0.4541  0.2408 -0.8803
 2246TIP3   OH228296   2.773   2.801   0.130 -0.0008  0.1556 -0.4639
 2246TIP3    H128297   2.762   2.831   0.220 -0.0080  1.0132 -0.7487
 2246TIP3    H228298   2.771   2.705   0.137 -0.0958  0.2132  0.4315
 2247TIP3   OH228299   2.410   5.357   0.706 -0.7451  0.1525 -0.5732
 2247TIP3    H128300   2.443   5.427   0.650  0.0649 -0.5381 -0.9857
 2247TIP3    H228301   2.342   5.398   0.759  1.2887  1.8614  0.8656
 2248TIP3   OH228302   6.425   2.308   7.955  0.1326  0.1829 -0.1854
 2248TIP3    H128303   6.399   2.372   7.889 -2.2536  0.2189  0.6767
 2248TIP3    H228304   6.389   2.342   8.037 -1.3941 -2.2639  0.2787
 2249TIP3   OH228305   3.161   4.672   0.797  0.4578  0.1306  0.2330
 2249TIP3    H128306   3.159   4.577   0.786 -1.4008  0.1964 -0.3149
 2249TIP3    H228307   3.086   4.691   0.854 -1.6184  1.5535 -2.7014
 2250TIP3   OH228308   0.928   3.488   8.391  0.1870 -0.4459 -0.2646
 2250TIP3    H128309   0.957   3.504   8.301  3.3307 -1.3726  0.4409
 2250TIP3    H228310   0.889   3.572   8.418  2.1146  0.9562 -1.5057
 2251TIP3   OH228311   0.079   1.445   2.325 -0.3287 -0.5952  0.2095
 2251TIP3    H128312   0.131   1.367   2.344 -1.0292 -1.3193 -0.7565
 2251TIP3    H228313   0.141   1.518   2.332  0.6423 -1.3714 -0.2046
 2252TIP3   OH228314   6.746   5.490   6.649 -0.1985 -0.0420  0.5117
 2252TIP3    H128315   6.821   5.513   6.704 -0.4156  1.4086  0.2578
 2252TIP3    H228316   6.746   5.394   6.647  1.3908 -0.0848  0.8571
 2253TIP3   OH228317   6.824   5.218   6.497 -0.0851 -0.7871 -0.0380
 2253TIP3    H128318   6.902   5.192   6.546 -0.4153  0.7451  1.4091
 2253TIP3    H228319   6.756   5.228   6.564  0.1055  4.0504 -0.1952
 2254TIP3   OH228320   1.278   5.203   1.755 -0.2744 -0.1056 -0.1573
 2254TIP3    H128321   1.280   5.299   1.747  2.1068  0.1070  1.8761
 2254TIP3    H228322   1.361   5.174   1.718  0.2815 -1.0854  1.7470
 2255TIP3   OH228323   4.334   3.768   7.467  0.1148  0.1480 -0.2035
 2255TIP3    H128324   4.299   3.693   7.515  0.4755 -0.6828 -1.2104
 2255TIP3    H228325   4.414   3.791   7.515  0.0368 -0.1486  0.0735
 2256TIP3   OH228326   2.470   2.849   8.300  0.1146 -1.0765 -0.2438
 2256TIP3    H128327   2.467   2.945   8.307 -0.3514 -1.1076  0.0745
 2256TIP3    H228328   2.451   2.831   8.208 -2.5996 -0.9375  0.1874
 2257TIP3   OH228329   3.416   5.285   7.120  0.1080  0.0658  0.2706
 2257TIP3    H128330   3.397   5.335   7.041  2.9464  0.0855 -0.4918
 2257TIP3    H228331   3.440   5.350   7.186  0.1859 -0.0843  0.3936
 2258TIP3   OH228332   3.482   5.940   6.622  0.4559  0.2370 -0.2630
 2258TIP3    H128333   3.542   5.870   6.599  0.1456 -0.7537  1.7274
 2258TIP3    H228334   3.395   5.905   6.602  0.3811  0.5895 -0.5593
 2259TIP3   OH228335   3.873   5.942   6.203  0.4513  0.5118 -0.0063
 2259TIP3    H128336   3.937   6.000   6.245  3.3592 -2.9923  0.9422
 2259TIP3    H228337   3.918   5.908   6.126 -1.6559  0.4600 -1.2785
 2260TIP3   OH228338   0.563   3.242   7.959  0.4195  0.2395  0.7790
 2260TIP3    H128339   0.510   3.213   8.034  1.7900 -0.5065  1.4959
 2260TIP3    H228340   0.507   3.304   7.913 -0.9667 -0.3030  1.6666
 2261TIP3   OH228341   0.063   1.968   1.737 -0.7353 -0.1573 -0.2554
 2261TIP3    H128342   0.033   2.054   1.710  0.8438 -0.1090 -2.0804
 2261TIP3    H228343   0.036   1.909   1.667 -0.7814 -0.9427  0.4042
 2262TIP3   OH228344   5.351   4.452   8.604  0.1324  0.0028  0.4907
 2262TIP3    H128345   5.402   4.371   8.606  0.4222  0.0833 -1.4717
 2262TIP3    H228346   5.416   4.521   8.591 -0.3262  0.2548 -0.5688
 2263TIP3   OH228347   0.778   0.823   0.684  0.2572 -0.1727 -0.0428
 2263TIP3    H128348   0.734   0.768   0.620 -1.9638  0.8650  0.5237
 2263TIP3    H228349   0.789   0.907   0.641 -1.1567  0.5024  0.8419
 2264TIP3   OH228350   3.091   2.637   1.848  0.1390  0.3486  0.4786
 2264TIP3    H128351   3.138   2.621   1.930 -0.9647 -0.2949  1.0202
 2264TIP3    H228352   3.012   2.583   1.855  0.5622 -0.6197 -1.5167
 2265TIP3   OH228353   5.203   3.191   8.186  0.1422 -0.6392 -0.8516
 2265TIP3    H128354   5.181   3.206   8.094 -0.9830 -1.0433 -0.6590
 2265TIP3    H228355   5.298   3.178   8.186  0.1139 -0.9355 -1.9858
 2266TIP3   OH228356   4.665   1.327   0.122 -0.0524  0.2524 -0.1138
 2266TIP3    H128357   4.673   1.384   0.046  1.6049 -0.3900 -0.4695
 2266TIP3    H228358   4.647   1.240   0.085 -2.2278  0.4444  0.4027
 2267TIP3   OH228359   4.980   2.250   8.648 -0.5066 -0.5370 -0.5489
 2267TIP3    H128360   4.907   2.208   8.603 -0.1029 -0.4370 -1.3191
 2267TIP3    H228361   5.057   2.224   8.597 -0.1458  0.3497 -0.4664
 2268TIP3   OH228362   3.917   0.561   1.649 -0.4404  0.5207 -0.1846
 2268TIP3    H128363   3.882   0.571   1.560 -0.6111  0.5240 -0.1177
 2268TIP3    H228364   3.880   0.634   1.698 -1.8567 -0.5169  0.3561
 2269TIP3   OH228365   3.677   2.924   6.846  0.4152  0.0756  0.0464
 2269TIP3    H128366   3.664   2.830   6.838  0.2553  0.0633  0.4147
 2269TIP3    H228367   3.722   2.949   6.765  0.5178 -0.3254 -0.0252
 2270TIP3   OH228368   3.376   0.479   0.159  0.4518  0.1393  0.1826
 2270TIP3    H128369   3.379   0.552   0.098 -1.3476 -0.3011 -0.4843
 2270TIP3    H228370   3.468   0.463   0.182  1.3380 -0.3906 -3.2571
 2271TIP3   OH228371   3.191   5.148   1.427 -0.2530  0.0010  0.8636
 2271TIP3    H128372   3.194   5.121   1.519  1.4686  1.9065  1.4569
 2271TIP3    H228373   3.118   5.209   1.422 -1.0503 -0.9413  0.6676
 2272TIP3   OH228374   4.463   1.837   1.771 -0.0985  0.7711 -0.3836
 2272TIP3    H128375   4.458   1.873   1.683 -0.1597 -1.0211 -1.1630
 2272TIP3    H228376   4.372   1.834   1.800 -0.3620 -0.7045 -1.2063
 2273TIP3   OH228377   5.463   6.244   0.040  0.1271  0.1295 -0.0999
 2273TIP3    H128378   5.505   6.182  -0.020 -0.9179  0.4166 -1.1560
 2273TIP3    H228379   5.370   6.234   0.024 -0.0676  2.3843 -0.7189
 2274TIP3   OH228380   3.839   5.675   5.949  0.1276  0.0897 -0.2649
 2274TIP3    H128381   3.927   5.710   5.962 -0.0249  1.0223 -1.5165
 2274TIP3    H228382   3.850   5.606   5.884  0.1588 -0.9715  0.8382
 2275TIP3   OH228383   0.890   5.198   6.845 -0.0048  0.2136  0.6439
 2275TIP3    H128384   0.914   5.189   6.938 -0.6013  0.0255  0.7809
 2275TIP3    H228385   0.919   5.286   6.822  2.1762 -0.4941  0.3970
 2276TIP3   OH228386   1.959   2.191   7.737  0.5187  0.1116  0.4949
 2276TIP3    H128387   1.991   2.253   7.671  1.2249 -0.4654  0.2756
 2276TIP3    H228388   2.022   2.199   7.809 -0.8135  1.4783  1.5677
 2277TIP3   OH228389   1.214   1.549   6.356 -0.4150  0.6437  0.1790
 2277TIP3    H128390   1.143   1.525   6.297  0.6274  0.3527 -1.0220
 2277TIP3    H228391   1.289   1.498   6.325  0.6691  1.9517  0.5232
 2278TIP3   OH228392   3.510   4.711   0.497 -0.5323  0.1683 -0.2733
 2278TIP3    H128393   3.554   4.740   0.577 -2.3476  0.9533  0.4825
 2278TIP3    H228394   3.510   4.788   0.440 -1.3339  0.3210 -0.0747
 2279TIP3   OH228395   6.071   6.189   1.459 -0.2466  0.1314 -0.0940
 2279TIP3    H128396   6.079   6.129   1.385  2.0909 -0.1751  0.3411
 2279TIP3    H228397   6.085   6.276   1.421  1.3488 -0.0563 -0.0116
 2280TIP3   OH228398   1.999   2.614   7.965  0.0391 -0.2444 -0.5571
 2280TIP3    H128399   2.060   2.621   7.892  0.9848 -2.7254 -0.1075
 2280TIP3    H228400   2.020   2.689   8.021  0.5898  0.6207 -1.8710
 2281TIP3   OH228401   6.788   2.283   1.402  0.1842  0.1398  0.0314
 2281TIP3    H128402   6.859   2.346   1.392  0.1621  0.1758  0.1009
 2281TIP3    H228403   6.803   2.218   1.333  0.9806 -0.5180  0.7997
 2282TIP3   OH228404   2.483   3.384   7.018 -0.0849 -0.0937 -0.1074
 2282TIP3    H128405   2.555   3.411   7.074  0.7103  1.6277 -1.8499
 2282TIP3    H228406   2.519   3.387   6.929 -0.9777 -3.6965 -0.7531
 2283TIP3   OH228407   3.664   4.892   7.678  0.3346  0.2575  0.2051
 2283TIP3    H128408   3.754   4.861   7.671  0.7158  1.3230  0.1658
 2283TIP3    H228409   3.636   4.904   7.587  0.8640  1.8447  0.2236
 2284TIP3   OH228410   4.925   4.576   7.865 -0.0548  0.6881  0.0700
 2284TIP3    H128411   4.846   4.612   7.904  0.1579  1.0456  0.1712
 2284TIP3    H228412   4.948   4.637   7.796  0.9512  1.3759  0.9848
 2285TIP3   OH228413   4.375   5.080   0.024 -0.0406 -0.2704  0.2956
 2285TIP3    H128414   4.417   4.997   0.002  0.1943 -0.4246  1.3104
 2285TIP3    H228415   4.306   5.056   0.086 -0.9369  0.1197 -0.5140
 2286TIP3   OH228416   5.778   1.307   7.362 -0.5388 -0.1914 -0.1432
 2286TIP3    H128417   5.863   1.336   7.330  0.2116 -3.0712 -1.0341
 2286TIP3    H228418   5.718   1.319   7.288 -0.2552 -0.8831 -0.4807
 2287TIP3   OH228419   1.659   3.273   1.075  0.0794  0.2263  0.3085
 2287TIP3    H128420   1.698   3.308   1.155 -1.6535  1.1899  0.7851
 2287TIP3    H228421   1.583   3.223   1.106  0.9180 -1.6914 -0.5710
 2288TIP3   OH228422   4.105   4.923   7.452 -0.2845 -0.0102 -0.4057
 2288TIP3    H128423   4.066   4.995   7.404  1.1205  2.0435  1.3095
 2288TIP3    H228424   4.198   4.946   7.459  0.2818 -2.1697 -0.0858
 2289TIP3   OH228425   1.586   5.158   0.400  0.4746 -0.1603  0.5636
 2289TIP3    H128426   1.613   5.066   0.405 -0.9072 -0.6068  0.4186
 2289TIP3    H228427   1.617   5.188   0.315 -0.2187 -0.9132  0.0264
 2290TIP3   OH228428   0.809   1.653   1.859  0.5272 -0.3652  0.4948
 2290TIP3    H128429   0.816   1.740   1.821  1.6330 -0.4622  0.4404
 2290TIP3    H228430   0.820   1.668   1.953 -1.1867 -0.2427  0.7020
 2291TIP3   OH228431   3.068   3.548   7.290  0.2808  0.0832  0.0140
 2291TIP3    H128432   2.980   3.532   7.255 -0.3664 -0.5630  1.8605
 2291TIP3    H228433   3.054   3.586   7.376  1.8464  2.2208 -0.5694
 2292TIP3   OH228434   4.765   4.090   7.988 -0.8467 -0.0954  0.4990
 2292TIP3    H128435   4.716   4.084   8.070  0.2288  1.6653  1.3181
 2292TIP3    H228436   4.839   4.031   8.000 -0.4205  0.5370  1.0083
 2293TIP3   OH228437   4.566   0.172   6.773  0.1870 -0.6595  0.1302
 2293TIP3    H128438   4.517   0.177   6.691  0.2708  2.6760  0.1254
 2293TIP3    H228439   4.540   0.088   6.812 -2.9139 -0.6028 -1.4602
 2294TIP3   OH228440   0.611   2.031   0.418  0.0988 -0.1593 -0.8280
 2294TIP3    H128441   0.689   2.028   0.363 -0.2708 -0.5701 -1.3429
 2294TIP3    H228442   0.582   1.940   0.424  0.1643 -0.1244  0.1005
 2295TIP3   OH228443   6.683   0.140   6.410  0.3887  0.0874 -0.1722
 2295TIP3    H128444   6.761   0.100   6.449  0.9384 -0.2586 -1.5615
 2295TIP3    H228445   6.717   0.205   6.348 -0.4755  1.5096  0.7857
 2296TIP3   OH228446   4.151   4.328   1.176 -0.2643  0.3101  0.6800
 2296TIP3    H128447   4.064   4.290   1.169 -0.0005 -0.0845 -0.7541
 2296TIP3    H228448   4.201   4.263   1.225 -0.0940 -0.7645 -0.8356
 2297TIP3   OH228449   3.917   6.649   0.437  0.0356 -0.6039  0.2341
 2297TIP3    H128450   3.934   6.650   0.343 -0.4400 -1.4236  0.1277
 2297TIP3    H228451   3.949   6.563   0.466  0.1552 -0.3671  0.8160
 2298TIP3   OH228452   0.027   5.141   7.407 -0.1239 -0.1610 -0.0194
 2298TIP3    H128453  -0.014   5.213   7.455  0.5488 -0.0170  0.3523
 2298TIP3    H228454   0.063   5.084   7.476 -1.1263 -1.1570 -0.2843
 2299TIP3   OH228455   2.472   6.712   7.744  0.0138 -0.0657 -0.1272
 2299TIP3    H128456   2.520   6.644   7.791 -1.2342 -1.3894 -0.7018
 2299TIP3    H228457   2.381   6.699   7.769 -0.1599  2.1333  0.6142
 2300TIP3   OH228458   3.061   2.215   0.894 -0.1276  0.5277  0.3309
 2300TIP3    H128459   3.078   2.169   0.812 -2.2313 -1.2933  0.8028
 2300TIP3    H228460   3.074   2.148   0.962 -1.6416  1.0400  1.1845
 2301TIP3   OH228461   3.949   0.743   7.559 -0.1165  0.3033  0.7663
 2301TIP3    H128462   3.927   0.825   7.513  1.5661  0.4942  0.2596
 2301TIP3    H228463   4.029   0.712   7.517 -1.6947 -2.6512 -0.3469
 2302TIP3   OH228464   5.932   3.316   8.344 -1.0595  0.7061  0.3189
 2302TIP3    H128465   6.005   3.265   8.309 -0.6093  1.5964 -0.0558
 2302TIP3    H228466   5.857   3.258   8.335 -0.4466 -0.1497  0.5170
 2303TIP3   OH228467   2.498   5.312   8.683 -0.5770  0.3461 -0.1179
 2303TIP3    H128468   2.535   5.346   8.601 -1.1863 -0.1470 -0.6029
 2303TIP3    H228469   2.434   5.246   8.655 -2.9547  2.2092  0.6036
 2304TIP3   OH228470   6.239   2.895   7.979  0.5548  0.4394 -0.3953
 2304TIP3    H128471   6.200   2.914   7.894  1.1029  0.2292 -0.6954
 2304TIP3    H228472   6.324   2.857   7.959  0.6387  0.2728  0.2451
 2305TIP3   OH228473   4.561   0.741   1.317  0.1643 -0.1250 -0.2942
 2305TIP3    H128474   4.637   0.759   1.373  1.3691  0.1595 -1.9400
 2305TIP3    H228475   4.486   0.748   1.375  1.0177  3.6572  0.6488
 2306TIP3   OH228476   2.659   5.879   1.313  0.4659 -0.6880 -0.3576
 2306TIP3    H128477   2.698   5.892   1.227  0.1851 -1.6107 -0.6413
 2306TIP3    H228478   2.687   5.791   1.339  0.1764 -0.5955  0.2889
 2307TIP3   OH228479   6.583   1.046   8.671 -0.0940  0.1859  0.2824
 2307TIP3    H128480   6.570   0.983   8.600  1.7927  1.6562 -1.5107
 2307TIP3    H228481   6.674   1.032   8.699 -0.2781  0.7969  1.2317
 2308TIP3   OH228482   3.986   2.799   1.709  0.1004  0.1861 -0.1754
 2308TIP3    H128483   3.999   2.890   1.683 -0.1177  0.9349  2.0957
 2308TIP3    H228484   4.054   2.783   1.775  1.1125 -1.8213 -1.5591
 2309TIP3   OH228485   4.698   4.717   8.611 -0.7796 -0.1643 -0.7406
 2309TIP3    H128486   4.731   4.778   8.545 -0.2843  0.3082 -0.0633
 2309TIP3    H228487   4.763   4.720   8.681 -1.3936 -0.5251 -0.1478
 2310TIP3   OH228488   3.764   2.355   7.402  0.5616 -0.0700  0.2122
 2310TIP3    H128489   3.713   2.384   7.478  1.0820 -1.1343  0.9888
 2310TIP3    H228490   3.700   2.311   7.346 -0.1781  2.1603 -0.8313
 2311TIP3   OH228491   5.003   0.565   7.577 -0.1500 -0.0344  0.1444
 2311TIP3    H128492   5.048   0.481   7.583  1.5742  0.8458  0.2852
 2311TIP3    H228493   4.973   0.571   7.487 -1.7323 -1.4698  0.5373
 2312TIP3   OH228494   4.356   2.156   8.308 -0.9999  0.7150  1.0049
 2312TIP3    H128495   4.270   2.147   8.266 -0.1552 -0.5225 -0.5733
 2312TIP3    H228496   4.341   2.129   8.398 -2.3261  0.7265  0.8079
 2313TIP3   OH228497   5.867   1.445   8.438  0.0240  0.4715 -0.1608
 2313TIP3    H128498   5.909   1.493   8.367  0.9317  1.4226  0.9537
 2313TIP3    H228499   5.795   1.502   8.466  0.0007  0.3557  0.0211
 2314TIP3   OH228500   0.018   1.087   0.355  0.2972 -0.1172 -0.5458
 2314TIP3    H128501   0.066   1.165   0.383 -0.4045  0.0099  0.3877
 2314TIP3    H228502  -0.074   1.108   0.374  0.0597 -1.0285 -0.6358
 2315TIP3   OH228503   6.436   5.461   6.863  0.2089 -0.6561 -0.2384
 2315TIP3    H128504   6.371   5.393   6.885  0.3728 -0.8530 -0.3615
 2315TIP3    H228505   6.388   5.543   6.871 -0.4076 -0.8652 -1.5555
 2316TIP3   OH228506   0.891   5.611   0.060 -0.3084  0.3100 -0.0340
 2316TIP3    H128507   0.825   5.542   0.066  0.2941 -0.3711 -0.9663
 2316TIP3    H228508   0.841   5.693   0.059 -1.0909 -0.1603  0.0167
 2317TIP3   OH228509   6.774   1.840   1.456  0.2134  0.1250 -0.2132
 2317TIP3    H128510   6.754   1.923   1.413  0.7829  0.1000 -0.5422
 2317TIP3    H228511   6.716   1.776   1.414 -0.8987  0.5067  0.6868
 2318TIP3   OH228512   6.763   4.386   1.984 -0.1425  0.4853  0.5469
 2318TIP3    H128513   6.785   4.479   1.982  0.9126  0.3178  2.3525
 2318TIP3    H228514   6.822   4.349   2.050 -0.8128 -1.3931  0.1426
 2319TIP3   OH228515   2.268   0.098   1.618  0.1981 -0.0584  0.2633
 2319TIP3    H128516   2.325   0.174   1.627 -0.9388  0.6845  1.7268
 2319TIP3    H228517   2.183   0.134   1.593 -0.1354 -0.9420  0.0913
 2320TIP3   OH228518   0.782   6.045   7.377  0.4269 -0.6289 -0.7585
 2320TIP3    H128519   0.852   6.080   7.322 -0.5405 -1.8578 -2.9024
 2320TIP3    H228520   0.813   6.058   7.467  3.2224 -0.8121 -1.6085
 2321TIP3   OH228521   3.263   2.035   0.734  0.3757  0.5811  0.2577
 2321TIP3    H128522   3.297   2.082   0.657 -0.0427  0.2649 -0.1267
 2321TIP3    H228523   3.255   1.944   0.705 -0.8561  0.6588  0.3057
 2322TIP3   OH228524   5.973   5.408   1.878 -0.5660  0.1782 -0.1311
 2322TIP3    H128525   5.976   5.326   1.828  0.8195  0.5409 -0.7138
 2322TIP3    H228526   5.934   5.471   1.817 -2.4895 -0.2171  0.6353
 2323TIP3   OH228527   4.769   5.650   6.563 -0.0770 -0.0352  0.6308
 2323TIP3    H128528   4.829   5.629   6.490 -1.3374 -1.3249 -0.0819
 2323TIP3    H228529   4.692   5.688   6.520 -0.3619  0.2705  1.4105
 2324TIP3   OH228530   3.789   0.495   0.544 -0.0548 -0.4575  0.6808
 2324TIP3    H128531   3.871   0.537   0.518 -0.9030  0.1199 -1.2533
 2324TIP3    H228532   3.773   0.528   0.633  1.0828  0.5448  0.5460
 2325TIP3   OH228533   1.531   1.130   1.472  0.0690  0.3504 -0.1184
 2325TIP3    H128534   1.505   1.044   1.439  0.2316 -0.3039  1.3957
 2325TIP3    H228535   1.626   1.133   1.460  0.0998  0.1964  0.0769
 2326TIP3   OH228536   6.783   6.179   6.865  0.6733  0.3830  0.2669
 2326TIP3    H128537   6.831   6.229   6.799 -1.7986  1.7330 -0.6571
 2326TIP3    H228538   6.703   6.230   6.881 -1.0720 -2.2670  0.7483
 2327TIP3   OH228539   4.481   3.396   2.045 -0.3311  0.5896 -0.3820
 2327TIP3    H128540   4.522   3.331   2.103 -2.4031 -1.0621 -0.6256
 2327TIP3    H228541   4.528   3.477   2.062  3.0687 -1.1369 -0.7550
 2328TIP3   OH228542   1.121   0.762   6.830 -0.1411 -0.1243 -0.1903
 2328TIP3    H128543   1.206   0.799   6.856 -0.6482  1.4690 -0.6657
 2328TIP3    H228544   1.130   0.745   6.736  0.2263 -1.7043  0.0972
 2329TIP3   OH228545   6.427   0.539   1.670 -0.2695 -0.0865 -0.2292
 2329TIP3    H128546   6.471   0.600   1.611  2.2560 -0.6374  0.9383
 2329TIP3    H228547   6.406   0.592   1.747 -1.6120  0.1385 -0.7238
 2330TIP3   OH228548   1.093   3.818   0.883  0.4339 -0.1941  0.0730
 2330TIP3    H128549   1.042   3.896   0.859 -1.4412 -0.8737  1.5752
 2330TIP3    H228550   1.174   3.853   0.921 -0.7187  1.0839  1.4918
 2331TIP3   OH228551   6.630   5.257   1.170  0.1348 -0.5369  0.0453
 2331TIP3    H128552   6.652   5.165   1.154 -2.0474 -1.2410  0.8585
 2331TIP3    H228553   6.584   5.257   1.253  0.3233  1.3627  0.1957
 2332TIP3   OH228554   4.466   0.200   8.314 -0.2564  0.8418  0.5741
 2332TIP3    H128555   4.400   0.221   8.380 -0.7725  0.2352  0.2670
 2332TIP3    H228556   4.544   0.178   8.365 -1.5447 -2.8969  1.2531
 2333TIP3   OH228557   3.343   3.991   1.189 -0.7945  0.3289 -0.0821
 2333TIP3    H128558   3.304   3.910   1.223  1.9263 -0.6561  1.0436
 2333TIP3    H228559   3.283   4.060   1.216 -2.3233 -1.1411  0.4795
 2334TIP3   OH228560   0.618   2.456   1.643 -0.0166 -0.3076 -0.6136
 2334TIP3    H128561   0.543   2.480   1.697  0.9901 -0.0091  0.6981
 2334TIP3    H228562   0.632   2.363   1.659  0.8599 -0.0170  0.4148
 2335TIP3   OH228563   2.897   0.232   0.808 -0.3955  0.0097 -0.3934
 2335TIP3    H128564   2.966   0.193   0.755  0.3934 -0.1511  0.7215
 2335TIP3    H228565   2.937   0.244   0.895 -2.1740 -1.4275  0.7092
 2336TIP3   OH228566   6.098   3.293   8.017  0.0932 -0.1589  0.1940
 2336TIP3    H128567   6.129   3.377   8.050  0.3740 -0.2807  0.2381
 2336TIP3    H228568   6.177   3.245   7.993 -0.0898 -0.2216 -0.2986
 2337TIP3   OH228569   1.925   3.208   7.382 -0.2852 -0.1809 -0.6854
 2337TIP3    H128570   1.867   3.190   7.308 -0.1149  0.6631 -1.0275
 2337TIP3    H228571   1.992   3.267   7.347 -0.1912  0.2094  0.1317
 2338TIP3   OH228572   2.687   4.669   8.695  0.0401 -0.5189 -0.5641
 2338TIP3    H128573   2.766   4.635   8.737  0.0559 -1.1641 -1.1096
 2338TIP3    H228574   2.622   4.600   8.704 -1.2934  0.9299  2.1056
 2339TIP3   OH228575   2.546   6.283   8.144  0.5624 -0.3876  0.5311
 2339TIP3    H128576   2.563   6.341   8.219 -0.8750 -0.4029  0.8958
 2339TIP3    H228577   2.451   6.273   8.142  0.6468 -1.2173 -0.6917
 2340TIP3   OH228578   4.367   6.519   1.418 -0.0441  0.3241  0.2406
 2340TIP3    H128579   4.362   6.562   1.503  1.1273  1.3368 -0.1731
 2340TIP3    H228580   4.448   6.468   1.422  0.4195  0.9695 -0.4962
 2341TIP3   OH228581   3.345   2.854   0.424  0.4317 -0.1580 -0.7067
 2341TIP3    H128582   3.288   2.825   0.496  0.7477 -0.2212 -0.4771
 2341TIP3    H228583   3.387   2.933   0.458 -1.5474  1.5019 -1.8807
 2342TIP3   OH228584   0.786   3.079   0.498 -0.0116 -0.3335 -0.1704
 2342TIP3    H128585   0.827   2.993   0.509 -1.4345 -1.0559 -0.3233
 2342TIP3    H228586   0.720   3.065   0.431 -2.5987  0.0125  2.1310
 2343TIP3   OH228587   5.559   1.699   1.111  0.4856  0.0537 -0.5812
 2343TIP3    H128588   5.538   1.710   1.203  0.3881  0.9497 -0.7039
 2343TIP3    H228589   5.574   1.788   1.078 -1.2079 -0.0663 -1.8387
 2344TIP3   OH228590   5.510   4.877   0.507 -0.0367  0.3322  0.1368
 2344TIP3    H128591   5.590   4.847   0.550  1.9373  2.8675 -1.4958
 2344TIP3    H228592   5.466   4.797   0.479  2.3053 -1.1408  0.4309
 2345TIP3   OH228593   0.599   1.624   6.006  0.2846 -0.6390 -0.1665
 2345TIP3    H128594   0.683   1.649   6.044 -0.0112  0.4449 -0.1816
 2345TIP3    H228595   0.535   1.682   6.049 -0.2196 -0.2530 -1.3847
 2346TIP3   OH228596   0.893   6.511   2.377  0.0156 -0.7764 -0.3445
 2346TIP3    H128597   0.826   6.491   2.442 -0.2260  3.5870  1.0720
 2346TIP3    H228598   0.851   6.496   2.293 -0.9280 -2.9992  0.4627
 2347TIP3   OH228599   1.072   1.118   0.732 -0.6761 -0.1060  0.0423
 2347TIP3    H128600   0.976   1.114   0.734 -0.9419  3.3411 -0.2223
 2347TIP3    H228601   1.095   1.192   0.788  1.8107 -0.5119 -0.3212
 2348TIP3   OH228602   0.296   0.008   8.044  0.1437 -0.1782  0.4426
 2348TIP3    H128603   0.302   0.098   8.012  1.0528 -0.0380  0.9648
 2348TIP3    H228604   0.223   0.009   8.106  0.9469  0.5251  1.4133
 2349TIP3   OH228605   4.775   1.296   7.790  0.1108 -0.8981 -0.6074
 2349TIP3    H128606   4.737   1.381   7.811 -0.3578 -0.9247 -1.3354
 2349TIP3    H228607   4.867   1.315   7.770 -0.5700 -0.1492 -3.3542
 2350TIP3   OH228608   0.138   1.942   8.531  0.8267  0.2942  0.4148
 2350TIP3    H128609   0.190   2.018   8.555  1.1273  0.0964  0.4066
 2350TIP3    H228610   0.180   1.869   8.577 -0.0949  0.2897  1.2741
 2351TIP3   OH228611   5.375   2.082   8.694  0.0168 -0.1055  0.2082
 2351TIP3    H128612   5.452   2.087   8.751 -0.0535 -0.1004  0.3012
 2351TIP3    H228613   5.328   2.163   8.711 -0.7083 -0.6948  1.1369
 2352TIP3   OH228614   5.965   0.270   0.766 -0.4080  0.1806  0.2409
 2352TIP3    H128615   6.015   0.351   0.773  0.7468 -0.4365 -0.5213
 2352TIP3    H228616   5.912   0.268   0.846  0.9223  0.7833  1.1823
 2353TIP3   OH228617   0.019   5.412   6.317  0.3126  0.0516 -0.0031
 2353TIP3    H128618   0.072   5.376   6.246  2.7074 -1.1679  2.2212
 2353TIP3    H228619   0.007   5.338   6.378 -1.0981  1.1780  1.1488
 2354TIP3   OH228620   5.150   5.625   1.147 -0.6780  0.5763  0.0386
 2354TIP3    H128621   5.222   5.569   1.119 -1.6803 -0.6398 -0.1808
 2354TIP3    H228622   5.112   5.581   1.223 -1.0004  1.3649  0.3527
 2355TIP3   OH228623   0.336   0.232   6.445 -0.3620  0.0793 -0.3567
 2355TIP3    H128624   0.403   0.260   6.382  1.9825  0.1338  2.0056
 2355TIP3    H228625   0.328   0.138   6.429 -0.9389  0.3335 -1.7113
 2356TIP3   OH228626   6.369   6.329   7.408  0.4362  0.3189 -1.0104
 2356TIP3    H128627   6.330   6.408   7.371 -0.4165 -0.3802 -1.6516
 2356TIP3    H228628   6.315   6.258   7.373  0.5896 -0.4767  0.3375
 2357TIP3   OH228629   6.595   4.621   0.237  0.5513 -0.5102  0.5028
 2357TIP3    H128630   6.654   4.610   0.162  1.9598 -1.2541  1.6537
 2357TIP3    H228631   6.546   4.539   0.241  0.7263 -0.6135  0.5828
 2358TIP3   OH228632   4.565   6.284   8.592  0.0240  0.8079 -0.2768
 2358TIP3    H128633   4.556   6.377   8.612  2.4245  0.8697  0.8227
 2358TIP3    H228634   4.562   6.280   8.497 -1.5145  1.7966 -0.3118
 2359TIP3   OH228635   3.027   0.840   6.379 -0.2262  0.2353  0.5228
 2359TIP3    H128636   2.982   0.879   6.454  0.0812 -0.5266  1.1327
 2359TIP3    H228637   3.120   0.852   6.399 -0.1289  1.5365 -0.5802
 2360TIP3   OH228638   6.431   2.075   1.263 -0.6147  0.1757 -0.8403
 2360TIP3    H128639   6.525   2.057   1.263 -0.8649 -1.7780 -3.4246
 2360TIP3    H228640   6.410   2.095   1.354  2.4916  2.0764 -0.4096
 2361TIP3   OH228641   5.321   4.478   7.416 -0.3861  0.8498  0.3232
 2361TIP3    H128642   5.272   4.430   7.483  0.7097 -1.2779 -0.2957
 2361TIP3    H228643   5.286   4.446   7.333  0.6343  0.8061 -0.1085
 2362TIP3   OH228644   3.864   4.581   7.469 -0.4707 -0.0454  0.3634
 2362TIP3    H128645   3.957   4.602   7.467 -0.1463 -1.2933  1.1838
 2362TIP3    H228646   3.843   4.571   7.562 -2.0661  2.7380  0.4266
 2363TIP3   OH228647   0.896   1.816   7.636  0.6397 -0.4526 -0.2599
 2363TIP3    H128648   0.815   1.865   7.623  1.6361  0.8821 -1.8991
 2363TIP3    H228649   0.928   1.845   7.721  1.9801  3.1304 -1.8006
 2364TIP3   OH228650   2.625   1.638   6.861 -0.1572  0.2358  0.0938
 2364TIP3    H128651   2.568   1.673   6.930  0.1448  1.1596 -0.1198
 2364TIP3    H228652   2.634   1.545   6.883 -0.0503  0.5197  1.3184
 2365TIP3   OH228653   2.735   6.638   7.089  0.0419 -0.0635 -0.2928
 2365TIP3    H128654   2.770   6.550   7.071  0.3183  0.1517 -0.8333
 2365TIP3    H228655   2.805   6.697   7.064  0.0656  0.3029  0.5996
 2366TIP3   OH228656   6.443   1.617   1.616 -0.1889 -0.4581 -0.5551
 2366TIP3    H128657   6.430   1.620   1.710 -2.1567  0.7408 -0.8268
 2366TIP3    H228658   6.415   1.529   1.591 -0.0552 -0.6347 -0.1016
 2367TIP3   OH228659   3.209   3.699   6.735  0.1837 -0.1357 -0.9392
 2367TIP3    H128660   3.240   3.769   6.678 -0.5734  1.3890  0.4527
 2367TIP3    H228661   3.276   3.693   6.804 -0.1370 -0.2615 -0.6364
 2368TIP3   OH228662   2.693   3.870   7.481  0.3074  0.3742  0.7115
 2368TIP3    H128663   2.775   3.901   7.519  0.6115  0.2288  0.1679
 2368TIP3    H228664   2.625   3.907   7.539  0.7140  1.1064  0.7390
 2369TIP3   OH228665   4.630   1.960   8.103  0.5462  0.3131  0.1872
 2369TIP3    H128666   4.629   2.021   8.176  1.9113 -0.2872  0.7376
 2369TIP3    H228667   4.705   1.988   8.050  0.4264 -0.1263 -0.2177
 2370TIP3   OH228668   0.052   5.602   1.056  0.4849 -0.4084 -0.0049
 2370TIP3    H128669   0.023   5.610   0.965  0.3143 -0.3091  0.0574
 2370TIP3    H228670   0.036   5.689   1.094  1.2268 -0.2357 -0.0756
 2371TIP3   OH228671   5.244   1.070   6.948 -0.0846  0.2471  0.5162
 2371TIP3    H128672   5.241   1.116   6.865 -0.7364 -1.7971 -0.6638
 2371TIP3    H228673   5.290   0.989   6.929 -0.0013 -0.1405  2.2229
 2372TIP3   OH228674   0.305   2.437   7.743  0.0963  0.0833  0.4252
 2372TIP3    H128675   0.228   2.459   7.796 -0.2380 -1.9706  0.8493
 2372TIP3    H228676   0.272   2.379   7.675  1.1331 -0.1009  0.0626
 2373TIP3   OH228677   6.594   0.326   7.536 -0.1497  0.2439  0.4476
 2373TIP3    H128678   6.502   0.344   7.554 -0.2966 -0.5768  0.5638
 2373TIP3    H228679   6.596   0.236   7.504  0.2327  1.2673 -2.7700
 2374TIP3   OH228680   5.464   5.496   7.851 -0.0159 -0.1479  0.2490
 2374TIP3    H128681   5.407   5.537   7.915  1.0886  0.1166  1.0922
 2374TIP3    H228682   5.414   5.497   7.770 -0.8929  0.7815  0.7828
 2375TIP3   OH228683   0.079   1.899   6.049 -0.0445  0.3294  0.0578
 2375TIP3    H128684   0.026   1.948   6.112  1.8488 -0.4186  2.4023
 2375TIP3    H228685   0.158   1.953   6.037  0.1983 -0.1725 -0.6531
 2376TIP3   OH228686   2.865   3.110   8.307  0.0564  0.3875  0.0677
 2376TIP3    H128687   2.914   3.045   8.357 -0.3570  0.4200  0.5248
 2376TIP3    H228688   2.860   3.187   8.365 -0.8309  0.2609  0.1771
 2377TIP3   OH228689   3.030   0.614   1.455  0.0873 -0.2405 -0.0037
 2377TIP3    H128690   3.041   0.568   1.372  0.4082  0.4674 -0.3633
 2377TIP3    H228691   3.104   0.585   1.509  0.3513 -0.0657 -0.2683
 2378TIP3   OH228692   6.274   1.090   7.290  0.2668 -0.2476 -0.1717
 2378TIP3    H128693   6.188   1.049   7.285  0.2332 -0.1219 -0.7144
 2378TIP3    H228694   6.294   1.094   7.383  1.3052 -3.6167 -0.1361
 2379TIP3   OH228695   2.947   2.553   7.052 -0.1995 -0.0974 -0.0390
 2379TIP3    H128696   2.975   2.502   7.127  0.1739  0.0949 -0.0464
 2379TIP3    H228697   2.952   2.644   7.081 -0.7790 -0.0584 -0.0525
 2380TIP3   OH228698   4.220   6.060   8.263 -0.1318 -0.3019  0.5288
 2380TIP3    H128699   4.242   5.999   8.334 -1.7970 -0.7388  0.6946
 2380TIP3    H228700   4.263   6.024   8.186 -0.9404 -1.6022  0.6627
 2381TIP3   OH228701   1.091   2.205   0.128  0.1028 -0.4835  0.0350
 2381TIP3    H128702   1.138   2.288   0.122  0.6841 -0.8007  0.1865
 2381TIP3    H228703   1.038   2.213   0.207  1.4356 -0.9012  1.0102
 2382TIP3   OH228704   2.061   1.935   8.086  0.4809 -0.2339 -0.2520
 2382TIP3    H128705   2.147   1.921   8.047  0.5421 -0.0901 -0.1670
 2382TIP3    H228706   2.076   1.931   8.180  0.4101 -0.1108 -0.2357
 2383TIP3   OH228707   6.458   5.974   8.378 -0.5296  0.4548 -0.3741
 2383TIP3    H128708   6.458   6.052   8.322  1.4056  0.1760 -0.8307
 2383TIP3    H228709   6.544   5.935   8.365 -0.9188 -0.9634  0.9807
 2384TIP3   OH228710   2.133   0.282   6.692 -0.0917  0.6806  0.0425
 2384TIP3    H128711   2.140   0.333   6.611  0.5220  0.5986  0.0411
 2384TIP3    H228712   2.147   0.192   6.665  0.1446  0.6556  0.2452
 2385TIP3   OH228713   0.273   3.807   8.031  0.2037  0.1377  0.0738
 2385TIP3    H128714   0.188   3.765   8.023 -0.6460  1.7312  0.2854
 2385TIP3    H228715   0.269   3.882   7.971  2.5404 -1.3373 -2.1293
 2386TIP3   OH228716   2.211   2.229   0.751 -0.0760  0.5424 -0.3193
 2386TIP3    H128717   2.185   2.217   0.660  2.7819  0.8537 -1.2816
 2386TIP3    H228718   2.306   2.243   0.747  0.1384  0.5795  2.7168
 2387TIP3   OH228719   3.086   0.606   7.537  0.0502  0.0869 -0.2137
 2387TIP3    H128720   3.045   0.615   7.451 -0.7848 -0.8058  0.0748
 2387TIP3    H228721   3.017   0.625   7.600  0.3731 -0.2863  0.2681
 2388TIP3   OH228722   3.803   0.751   1.797 -0.6442 -0.1516  0.0642
 2388TIP3    H128723   3.810   0.678   1.857 -0.3295  0.2868  0.5711
 2388TIP3    H228724   3.754   0.818   1.845 -2.3341 -0.5973 -0.9549
 2389TIP3   OH228725   5.180   5.683   8.281  0.7949  0.2794  0.7439
 2389TIP3    H128726   5.118   5.745   8.243  1.1912  0.4214  0.3220
 2389TIP3    H228727   5.127   5.629   8.339 -0.1420 -0.8861 -1.0782
 2390TIP3   OH228728   0.047   5.333   1.094  0.1639 -0.0960  0.3881
 2390TIP3    H128729  -0.040   5.318   1.131  0.1423 -0.3445  0.2417
 2390TIP3    H228730   0.055   5.428   1.088  0.2566 -0.0418  1.2446
 2391TIP3   OH228731   5.886   4.102   0.913 -0.4133  0.3156 -0.3863
 2391TIP3    H128732   5.870   4.075   0.822 -0.0943  1.8980 -0.9662
 2391TIP3    H228733   5.930   4.187   0.904 -0.1525  0.3819  1.2609
 2392TIP3   OH228734   6.592   6.602   8.071  0.6463 -0.1618 -0.4915
 2392TIP3    H128735   6.508   6.618   8.028  0.0759  2.4726  1.3520
 2392TIP3    H228736   6.570   6.561   8.154  1.2333 -0.1935 -0.3462
 2393TIP3   OH228737   0.450   1.801   1.099  0.1188  0.2877 -0.3396
 2393TIP3    H128738   0.476   1.737   1.033 -0.8540  0.6269 -1.0711
 2393TIP3    H228739   0.414   1.748   1.170 -1.7750  0.0191 -1.4298
 2394TIP3   OH228740   4.233   1.662   0.518  0.1453 -0.3776  0.6112
 2394TIP3    H128741   4.257   1.749   0.486 -1.8750 -0.3822 -1.1716
 2394TIP3    H228742   4.296   1.643   0.588  2.2350  1.4084 -0.6825
 2395TIP3   OH228743   3.009   4.071   0.317 -0.5649 -0.3072 -0.3368
 2395TIP3    H128744   2.936   4.053   0.375 -0.6821 -1.6950 -0.8755
 2395TIP3    H228745   2.988   4.023   0.236  0.2899  0.3767 -0.9827
 2396TIP3   OH228746   3.625   1.272   6.726 -0.0791  0.7868 -0.9672
 2396TIP3    H128747   3.582   1.204   6.674  0.2470  0.3162 -0.6299
 2396TIP3    H228748   3.619   1.240   6.817  0.3711  1.0425 -0.8438
 2397TIP3   OH228749   1.178   0.607   8.095  0.5024  0.3283 -0.9259
 2397TIP3    H128750   1.193   0.587   8.187 -1.5163  0.1808 -0.5667
 2397TIP3    H228751   1.138   0.527   8.059 -0.5592  1.0320 -1.3948
 2398TIP3   OH228752   3.524   5.281   0.432  0.1224 -0.3411  0.0629
 2398TIP3    H128753   3.590   5.301   0.499  0.5870  2.1454 -1.0431
 2398TIP3    H228754   3.447   5.254   0.482  0.8908  0.0761  1.5370
 2399TIP3   OH228755   6.594   2.938   2.065 -0.4358  0.4549  0.4547
 2399TIP3    H128756   6.586   2.900   1.978 -0.1657  1.0354  0.1710
 2399TIP3    H228757   6.569   2.868   2.124  0.3479 -0.2580 -0.0408
 2400TIP3   OH228758   2.365   5.532   7.848  0.7605  0.4343 -0.0905
 2400TIP3    H128759   2.410   5.613   7.872  3.0442 -0.3897 -1.3171
 2400TIP3    H228760   2.279   5.560   7.818  1.3216  2.3395 -0.0193
 2401TIP3   OH228761   1.846   2.903   5.928  0.0338  0.1023 -0.2582
 2401TIP3    H128762   1.926   2.850   5.928 -0.1917 -0.2616  0.8570
 2401TIP3    H228763   1.864   2.975   5.988 -0.7763 -0.4649  0.6841
 2402TIP3   OH228764   1.334   5.909   0.697  0.3519 -0.6855  0.2647
 2402TIP3    H128765   1.379   5.972   0.641  1.2030 -1.0051  0.5596
 2402TIP3    H228766   1.288   5.963   0.761  0.0151 -0.3391 -0.2589
 2403TIP3   OH228767   5.531   0.709   1.287  0.2491  0.2424  0.4317
 2403TIP3    H128768   5.580   0.681   1.364 -0.9186 -0.6351  0.8860
 2403TIP3    H228769   5.544   0.803   1.284  0.1039  0.3351  1.8565
 2404TIP3   OH228770   6.206   1.341   1.618  0.0338 -0.4002  0.0075
 2404TIP3    H128771   6.211   1.328   1.712  0.6960 -1.3043 -0.1432
 2404TIP3    H228772   6.121   1.307   1.593 -0.6010  0.8369  0.4211
 2405TIP3   OH228773   5.655   1.878   8.723 -0.1404  0.7705 -0.3651
 2405TIP3    H128774   5.604   1.905   8.647 -0.8151  0.7177  0.0679
 2405TIP3    H228775   5.604   1.809   8.764  0.3570  0.6000 -0.0231
 2406TIP3   OH228776   4.973   0.184   6.370 -0.1769 -0.1261  0.0381
 2406TIP3    H128777   4.915   0.175   6.445 -1.7172 -0.4954 -1.1533
 2406TIP3    H228778   5.024   0.264   6.388  1.4804 -1.6535  2.7151
 2407TIP3   OH228779   3.508   6.005   6.356 -0.7051 -0.4161 -0.4164
 2407TIP3    H128780   3.488   5.990   6.449  1.3637 -0.1113  0.1259
 2407TIP3    H228781   3.504   6.100   6.346 -0.8694 -0.4450 -0.6266
 2408TIP3   OH228782   5.692   2.362   6.689  0.3129 -0.6803 -0.4259
 2408TIP3    H128783   5.696   2.405   6.604 -0.5907 -0.7110 -0.4930
 2408TIP3    H228784   5.733   2.276   6.675  0.0353 -0.7416 -0.8655
 2409TIP3   OH228785   1.133   4.668   0.754  0.2394  0.0677  0.3328
 2409TIP3    H128786   1.219   4.624   0.751  0.7987  1.1781 -0.8240
 2409TIP3    H228787   1.070   4.596   0.750  1.1224 -0.6867 -1.7794
 2410TIP3   OH228788   4.705   5.047   8.734 -0.8512 -0.4412 -0.3309
 2410TIP3    H128789   4.781   5.004   8.694  1.0867  2.0533  0.3783
 2410TIP3    H228790   4.658   5.086   8.661 -1.0527 -1.3455 -0.7019
 2411TIP3   OH228791   4.276   5.066   8.001 -0.4521 -0.7053  0.2858
 2411TIP3    H128792   4.279   5.091   8.093 -0.0555 -0.1586  0.1300
 2411TIP3    H228793   4.367   5.052   7.977 -0.6358 -1.9671  0.2676
 2412TIP3   OH228794   2.684   1.913   1.192  0.0943  0.7892  0.1866
 2412TIP3    H128795   2.692   1.864   1.274  0.8933  1.7653  0.7145
 2412TIP3    H228796   2.719   1.853   1.125  1.0141  0.5946  0.8092
 2413TIP3   OH228797   0.168   5.355   0.293 -0.0704 -0.0606 -0.2985
 2413TIP3    H128798   0.190   5.316   0.377 -0.5684 -1.8540 -0.9600
 2413TIP3    H228799   0.146   5.446   0.314 -2.8069 -1.0898  1.9398
 2414TIP3   OH228800   1.265   4.112   2.478 -0.4593 -0.4140 -0.1484
 2414TIP3    H128801   1.252   4.038   2.420 -0.7867 -0.1375 -0.4297
 2414TIP3    H228802   1.341   4.158   2.441 -0.4551 -0.4283 -0.1573
 2415TIP3   OH228803   5.255   6.083   1.272 -0.2468 -1.1399  0.1683
 2415TIP3    H128804   5.308   6.069   1.350 -0.0829 -0.2791  0.2259
 2415TIP3    H228805   5.166   6.097   1.306  0.3167  2.4459  0.5357
 2416TIP3   OH228806   1.327   6.588   0.216  0.6226 -0.6937  0.3801
 2416TIP3    H128807   1.277   6.521   0.169 -0.4142  0.0734  0.3398
 2416TIP3    H228808   1.319   6.666   0.161  1.2031 -0.3486  0.7802
 2417TIP3   OH228809   6.375   2.467   1.296 -0.0480 -0.1836 -0.7470
 2417TIP3    H128810   6.339   2.553   1.275 -0.6098 -0.0322  0.6980
 2417TIP3    H228811   6.390   2.470   1.390  1.0171 -1.2806 -0.8601
 2418TIP3   OH228812   5.710   4.623   7.862 -0.6270  0.3393 -0.5604
 2418TIP3    H128813   5.635   4.597   7.917  1.0400  1.0026  2.2222
 2418TIP3    H228814   5.778   4.559   7.884  1.1556  2.5462  0.7779
 2419TIP3   OH228815   0.048   6.714   0.068 -0.5990 -0.1330  0.3102
 2419TIP3    H128816   0.060   6.809   0.060  2.2735 -0.4651 -0.5860
 2419TIP3    H228817  -0.043   6.699   0.043 -0.5824  2.2034 -1.5193
 2420TIP3   OH228818   4.388   1.368   6.812  0.4335 -0.1327  0.6446
 2420TIP3    H128819   4.468   1.373   6.760 -0.4309 -0.7174 -0.8119
 2420TIP3    H228820   4.332   1.436   6.776 -1.2908 -2.3788 -1.3074
 2421TIP3   OH228821   2.661   1.984   8.190 -0.1114  0.6358  0.0973
 2421TIP3    H128822   2.648   2.062   8.136 -0.2686 -0.6143 -1.7671
 2421TIP3    H228823   2.725   1.932   8.141 -0.3593 -0.6207  1.0782
 2422TIP3   OH228824   5.987   4.655   0.759  0.0780  0.0263  0.3010
 2422TIP3    H128825   6.026   4.642   0.672 -0.4796  0.0421  0.0448
 2422TIP3    H228826   5.979   4.567   0.795  1.2978  0.0883  0.7882
 2423TIP3   OH228827   6.350   3.624   2.114  0.0267  0.3767  0.5782
 2423TIP3    H128828   6.257   3.621   2.136 -0.1463 -0.6963 -0.2023
 2423TIP3    H228829   6.357   3.572   2.034  1.4709 -0.4919  1.2414
 2424TIP3   OH228830   1.336   3.895   8.437  0.0647 -0.4051 -0.3082
 2424TIP3    H128831   1.331   3.980   8.479  1.7016 -0.6047  0.3737
 2424TIP3    H228832   1.245   3.874   8.414 -0.6754  0.4988  1.5395
 2425TIP3   OH228833   1.409   3.002   1.256  0.3986  0.2154  0.1775
 2425TIP3    H128834   1.399   3.089   1.218  1.1619 -0.2954 -1.2628
 2425TIP3    H228835   1.363   3.007   1.340 -0.0963  1.8103 -0.1578
 2426TIP3   OH228836   4.184   3.926   7.211 -0.1286  0.0901 -0.0274
 2426TIP3    H128837   4.135   3.896   7.287  0.1156  0.2608  0.1978
 2426TIP3    H228838   4.263   3.966   7.247  0.2814 -0.3749 -0.3993
 2427TIP3   OH228839   1.471   2.778   8.414 -0.0115  0.1611  0.2214
 2427TIP3    H128840   1.530   2.840   8.371 -0.6880  1.2042  0.7483
 2427TIP3    H228841   1.529   2.712   8.452  0.6133 -0.8576 -2.2931
 2428TIP3   OH228842   4.480   1.589   1.317 -0.1328 -0.4233  0.2518
 2428TIP3    H128843   4.393   1.589   1.356 -0.3527 -0.2862 -0.2429
 2428TIP3    H228844   4.502   1.681   1.306 -0.8095 -0.4415 -1.5822
 2429TIP3   OH228845   3.611   4.411   0.787 -1.0308  0.8139 -0.2348
 2429TIP3    H128846   3.683   4.473   0.791  0.4976 -0.8914  0.3229
 2429TIP3    H228847   3.544   4.453   0.733  0.6087  2.2272 -1.2242
 2430TIP3   OH228848   6.747   5.240   1.758  0.3240  0.1294 -0.4968
 2430TIP3    H128849   6.841   5.257   1.747  0.4012  1.5019  1.6263
 2430TIP3    H228850   6.704   5.318   1.722  0.0356 -0.1334 -0.7271
 2431TIP3   OH228851   2.839   5.392   7.121 -0.1558  0.0008  0.4511
 2431TIP3    H128852   2.845   5.451   7.046  2.6184  0.1168  0.6391
 2431TIP3    H228853   2.819   5.307   7.083 -0.5418  0.3864 -0.2268
 2432TIP3   OH228854   4.421   5.514   1.431  0.0487 -0.2227 -0.5137
 2432TIP3    H128855   4.366   5.494   1.506 -0.2204  2.6985  0.1900
 2432TIP3    H228856   4.501   5.463   1.446  0.0715  0.3868  1.8839
 2433TIP3   OH228857   5.518   6.580   1.390  0.5308  0.7210 -0.8483
 2433TIP3    H128858   5.460   6.539   1.455  0.2844  1.6416 -0.4742
 2433TIP3    H228859   5.587   6.515   1.376 -1.6713 -1.3942 -2.9526
 2434TIP3   OH228860   3.392   6.251   7.978 -0.9358 -0.4479  0.2303
 2434TIP3    H128861   3.389   6.175   7.919 -2.7648 -0.2680  0.0266
 2434TIP3    H228862   3.432   6.320   7.925 -0.2989 -0.9587  0.0345
 2435TIP3   OH228863   1.577   5.884   1.349  0.3680  0.4509  0.2764
 2435TIP3    H128864   1.484   5.868   1.332  0.4351  1.1673 -0.8878
 2435TIP3    H228865   1.592   5.846   1.436 -0.6117 -1.1666 -0.2142
 2436TIP3   OH228866   2.467   6.373   6.842  0.4515  0.2222  0.1904
 2436TIP3    H128867   2.443   6.414   6.925  1.9647  2.2433 -0.2658
 2436TIP3    H228868   2.414   6.420   6.777  2.2497  1.6263 -0.3507
 2437TIP3   OH228869   2.062   1.398   1.548 -0.6433  0.2035 -0.4661
 2437TIP3    H128870   2.125   1.357   1.607 -0.9363  1.2305  0.5928
 2437TIP3    H228871   1.990   1.336   1.543 -0.0250 -0.5001 -0.8348
 2438TIP3   OH228872   3.521   3.953   0.932  0.1994  0.0801  0.9258
 2438TIP3    H128873   3.544   4.023   0.871  1.3828  0.2269  1.5097
 2438TIP3    H228874   3.471   3.997   1.001  0.8350  0.3324  1.2284
 2439TIP3   OH228875   2.770   1.138   7.948  0.1007  0.3277 -0.4750
 2439TIP3    H128876   2.690   1.130   7.999  0.8477  2.8560  1.2879
 2439TIP3    H228877   2.823   1.062   7.974 -0.2543  0.6235  1.1970
 2440TIP3   OH228878   1.267   1.329   1.797  0.1249 -0.3303  0.4339
 2440TIP3    H128879   1.293   1.309   1.886  0.5202  0.9406  0.6198
 2440TIP3    H228880   1.225   1.248   1.765 -0.2380 -0.7169  1.8335
 2441TIP3   OH228881   0.411   6.555   1.861  0.6606  0.2224  0.0080
 2441TIP3    H128882   0.320   6.585   1.855  1.5953  2.9167 -3.1528
 2441TIP3    H228883   0.455   6.623   1.912  1.0419 -1.0122  1.4242
 2442TIP3   OH228884   1.950   5.352   7.340  0.1063  0.0811 -0.5973
 2442TIP3    H128885   2.015   5.288   7.310 -0.8828 -0.4675 -1.6714
 2442TIP3    H228886   1.899   5.372   7.261  0.4697  2.3159 -0.3122
 2443TIP3   OH228887   4.774   3.042   0.245  0.3145 -0.5888  0.2312
 2443TIP3    H128888   4.819   3.127   0.245 -0.7140  0.0328  2.6950
 2443TIP3    H228889   4.691   3.058   0.201 -0.1950 -0.0824  1.3352
 2444TIP3   OH228890   5.543   1.391   8.391 -0.5449 -0.2792 -0.0979
 2444TIP3    H128891   5.588   1.330   8.449 -1.3228 -0.7968 -0.0363
 2444TIP3    H228892   5.512   1.338   8.319  4.3606  0.8794 -3.6223
 2445TIP3   OH228893   2.352   5.086   8.636 -0.1503  0.3227 -0.0266
 2445TIP3    H128894   2.332   5.000   8.597 -1.2477  0.3884  0.3585
 2445TIP3    H228895   2.365   5.068   8.729 -2.2287  0.7999  0.3998
 2446TIP3   OH228896   6.816   0.258   6.644  0.1925 -0.4485  0.3835
 2446TIP3    H128897   6.761   0.288   6.572  2.1880 -0.2241 -1.1390
 2446TIP3    H228898   6.857   0.178   6.611  3.7287  1.3960 -0.2178
 2447TIP3   OH228899   1.913   0.768   0.823 -0.2203  0.3188  0.0123
 2447TIP3    H128900   1.901   0.677   0.852 -2.2438  0.6098  0.2087
 2447TIP3    H228901   1.974   0.806   0.887 -1.4640 -0.1688  1.5467
 2448TIP3   OH228902   5.156   2.764   7.076 -0.4482 -0.3437  0.2662
 2448TIP3    H128903   5.156   2.734   6.985 -0.1171  0.3157  0.0394
 2448TIP3    H228904   5.089   2.711   7.119 -1.1874 -0.1021 -0.5535
 2449TIP3   OH228905   2.482   5.760   7.062 -0.0050  0.1774  0.0392
 2449TIP3    H128906   2.578   5.758   7.064  0.0200  1.3943  0.6145
 2449TIP3    H228907   2.456   5.713   7.141  0.1173  0.0825  0.0240
 2450TIP3   OH228908   5.787   3.766   0.390 -0.4867  0.2478 -0.2750
 2450TIP3    H128909   5.742   3.687   0.422 -1.1703  0.6426 -0.2444
 2450TIP3    H228910   5.877   3.757   0.422 -0.6440 -0.3541  0.0137
 2451TIP3   OH228911   5.554   0.331   7.140 -0.3324  0.2397 -0.7545
 2451TIP3    H128912   5.623   0.375   7.090 -0.0018  1.4621  0.7157
 2451TIP3    H228913   5.498   0.402   7.171 -1.4041 -0.6213 -0.6699
 2452TIP3   OH228914   6.319   3.488   7.271  0.4516  0.4314  0.1276
 2452TIP3    H128915   6.259   3.413   7.262  1.7541 -0.6493  0.1288
 2452TIP3    H228916   6.357   3.477   7.358  1.2334  0.6531 -0.1870
 2453TIP3   OH228917   4.026   1.372   8.409 -0.4950  0.2183 -0.0230
 2453TIP3    H128918   4.066   1.457   8.389  0.2230 -0.7036 -3.0130
 2453TIP3    H228919   4.099   1.316   8.434 -0.8448  0.2033  1.0135
 2454TIP3   OH228920   2.706   2.416   0.431 -0.1973 -0.3048  0.0061
 2454TIP3    H128921   2.763   2.433   0.506 -0.1855 -0.1082 -0.0457
 2454TIP3    H228922   2.662   2.334   0.452  0.8795 -1.0019 -0.4292
 2455TIP3   OH228923   1.086   2.200   8.445  0.1139  0.8488  0.0635
 2455TIP3    H128924   1.090   2.171   8.354 -0.6812  1.1621 -0.0782
 2455TIP3    H228925   1.008   2.158   8.480  0.3991  0.7610  0.5928
 2456TIP3   OH228926   3.203   1.494   6.979  0.5989  0.2086  0.2079
 2456TIP3    H128927   3.131   1.471   6.920 -1.2024 -0.3020  2.4733
 2456TIP3    H228928   3.256   1.414   6.984  0.4506  0.0774 -0.2625
 2457TIP3   OH228929   1.777   6.750   7.176 -0.1879 -0.3007  0.1072
 2457TIP3    H128930   1.787   6.682   7.243 -0.3393  0.4167  0.8680
 2457TIP3    H228931   1.832   6.822   7.207 -0.4806  0.1425 -0.3961
 2458TIP3   OH228932   5.213   5.346   6.400  0.6539  0.3356  0.2647
 2458TIP3    H128933   5.149   5.362   6.330  1.0513 -0.3932 -0.2759
 2458TIP3    H228934   5.258   5.430   6.411  0.9754  0.3099 -0.7512
 2459TIP3   OH228935   1.659   5.950   8.258  0.3864 -0.3700  0.1935
 2459TIP3    H128936   1.565   5.960   8.274  0.6512  2.8099  0.3955
 2459TIP3    H228937   1.677   6.006   8.183  2.0165 -1.6889 -0.4667
 2460TIP3   OH228938   3.797   0.460   2.179 -1.1353  0.2565  0.6787
 2460TIP3    H128939   3.777   0.495   2.092 -1.4381 -1.4914  0.0158
 2460TIP3    H228940   3.867   0.396   2.165 -0.0059  1.1381  1.9794
 2461TIP3   OH228941   6.701   4.854   8.589 -0.4622  0.0991  0.2806
 2461TIP3    H128942   6.662   4.930   8.631 -1.8865 -0.0947 -0.6381
 2461TIP3    H228943   6.640   4.783   8.607 -1.2448  0.0488 -2.2075
 2462TIP3   OH228944   1.384   5.941   7.764  0.1885 -0.3104 -0.3353
 2462TIP3    H128945   1.377   6.015   7.825  2.2700  0.5811 -1.0829
 2462TIP3    H228946   1.390   5.864   7.821  1.0113  0.3979  0.5766
 2463TIP3   OH228947   3.260   4.913   6.987 -0.0801 -0.0700  0.0441
 2463TIP3    H128948   3.242   4.946   7.075 -1.3916 -1.5942  0.3858
 2463TIP3    H228949   3.247   4.990   6.930  1.2636  1.0521  1.1686
 2464TIP3   OH228950   3.419   3.454   8.239 -0.3210  0.1187  0.7563
 2464TIP3    H128951   3.470   3.520   8.192  0.8771 -0.3028  1.4049
 2464TIP3    H228952   3.367   3.505   8.301 -0.4678  0.5440  0.2931
 2465TIP3   OH228953   4.947   2.047   8.211  0.1794 -0.1907 -0.1616
 2465TIP3    H128954   4.961   2.139   8.188  1.6106 -0.6152 -1.1300
 2465TIP3    H228955   5.000   1.998   8.148 -1.3753 -1.7426 -0.3179
 2466TIP3   OH228956   3.938   3.377   0.082  0.1538 -0.5475 -0.3861
 2466TIP3    H128957   4.011   3.438   0.077  1.3564 -1.8539  0.3326
 2466TIP3    H228958   3.980   3.291   0.093 -1.5040 -1.2540  0.7892
 2467TIP3   OH228959   3.291   6.756   8.308 -0.1923 -0.1476 -0.3702
 2467TIP3    H128960   3.329   6.830   8.260 -1.2563  0.9030  0.3454
 2467TIP3    H228961   3.220   6.795   8.359 -0.7434 -1.6688  0.0711
 2468TIP3   OH228962   6.742   1.290   1.237 -0.2809  0.6234  1.0491
 2468TIP3    H128963   6.809   1.224   1.219 -0.3583  0.8191 -0.0450
 2468TIP3    H228964   6.783   1.373   1.214 -0.8505  0.7545  0.4529
 2469TIP3   OH228965   0.563   5.734   0.071  0.2564 -0.0392 -0.1821
 2469TIP3    H128966   0.618   5.807   0.042  0.0972  1.1803  2.2633
 2469TIP3    H228967   0.500   5.722   0.000  1.1659  1.2688 -1.2748
 2470TIP3   OH228968   5.597   5.775   1.159 -0.0453 -0.1014 -0.1911
 2470TIP3    H128969   5.544   5.831   1.102  1.2803  1.1129 -0.3000
 2470TIP3    H228970   5.631   5.708   1.101  0.0497  0.2240 -0.5154
 2471TIP3   OH228971   3.212   3.975   1.774  0.4601  1.2096 -0.3167
 2471TIP3    H128972   3.123   3.997   1.744 -0.0270  3.5001  2.3431
 2471TIP3    H228973   3.256   3.942   1.696 -2.8723 -0.6445 -1.6177
 2472TIP3   OH228974   1.533   1.413   7.022  0.2172 -0.1010 -0.5045
 2472TIP3    H128975   1.571   1.413   6.934  1.4808 -2.0849 -0.0374
 2472TIP3    H228976   1.608   1.400   7.081 -0.5616  1.4945  0.9197
 2473TIP3   OH228977   5.824   2.196   0.837  0.5064 -0.4954  0.9001
 2473TIP3    H128978   5.821   2.108   0.874 -1.5536 -0.2199  1.4871
 2473TIP3    H228979   5.866   2.249   0.905 -1.0910 -0.4525  1.8988
 2474TIP3   OH228980   3.757   1.654   2.650  0.2293 -0.4814 -0.1885
 2474TIP3    H128981   3.775   1.593   2.722  0.4315  0.2697  0.4058
 2474TIP3    H228982   3.840   1.699   2.635  0.4078 -1.1599 -1.4182
 2475TIP3   OH228983   5.063   1.881   8.557 -0.2723 -0.5096 -0.5397
 2475TIP3    H128984   5.131   1.826   8.517 -0.5037 -1.1640 -0.0509
 2475TIP3    H228985   5.078   1.968   8.520  1.4781 -0.3930  0.2980
 2476TIP3   OH228986   2.471   0.023   2.112  0.5695  0.2219  0.3373
 2476TIP3    H128987   2.443  -0.031   2.186  0.0599 -0.5449 -0.3963
 2476TIP3    H228988   2.482   0.111   2.149 -0.6060  0.0554  1.1183
 2477TIP3   OH228989   6.732   4.759   1.207  0.0076  0.1622  0.0015
 2477TIP3    H128990   6.747   4.709   1.288 -0.8635  0.5753  0.4347
 2477TIP3    H228991   6.645   4.730   1.178 -0.6554  1.6472  0.4382
 2478TIP3   OH228992   6.060   1.353   0.838  0.2967  0.4365  0.3599
 2478TIP3    H128993   6.037   1.442   0.865  1.3007  0.6320  0.5779
 2478TIP3    H228994   6.066   1.358   0.743 -0.7697  0.3189  0.2644
 2479TIP3   OH228995   1.824   5.414   6.794 -0.4852 -0.3215 -0.5836
 2479TIP3    H128996   1.740   5.450   6.768 -1.5185  0.1681  2.9591
 2479TIP3    H228997   1.886   5.447   6.728 -2.8380  0.0671 -2.7367
 2480TIP3   OH228998   0.170   4.355   7.141  0.0177  0.3039  0.0928
 2480TIP3    H128999   0.172   4.262   7.120 -1.8559  0.2070  0.1308
 2480TIP3    H229000   0.081   4.370   7.174  0.5967  1.9070  1.0685
 2481TIP3   OH229001   4.539   6.314   0.305  0.2607 -0.2683 -0.5757
 2481TIP3    H129002   4.561   6.405   0.284  0.5441  0.1537  1.3968
 2481TIP3    H229003   4.554   6.267   0.223  1.0584  1.2851 -1.3747
 2482TIP3   OH229004   0.918   4.586   8.636 -0.3565 -0.3422 -0.0064
 2482TIP3    H129005   0.971   4.630   8.703 -1.1012 -0.3591  0.6072
 2482TIP3    H229006   0.926   4.642   8.559  0.9434 -0.6023 -0.0871
 2483TIP3   OH229007   6.241   0.737   8.471  0.2550  0.1802 -0.5242
 2483TIP3    H129008   6.209   0.648   8.460  0.2523  0.1787 -0.5045
 2483TIP3    H229009   6.303   0.732   8.544 -1.0776  0.5251  0.6757
 2484TIP3   OH229010   3.533   3.404   0.539  0.2299 -1.0806  0.0414
 2484TIP3    H129011   3.602   3.463   0.510  1.4723 -1.9185  1.1644
 2484TIP3    H229012   3.456   3.460   0.552  1.5715  0.4422  1.8664
 2485TIP3   OH229013   6.697   2.386   8.287 -0.2645 -0.3731 -0.1456
 2485TIP3    H129014   6.733   2.333   8.216  0.2665 -3.1429  1.9992
 2485TIP3    H229015   6.614   2.344   8.308 -1.3179  1.5428 -0.2915
 2486TIP3   OH229016   3.650   0.455   0.258 -0.4281  0.2968  0.4815
 2486TIP3    H129017   3.720   0.429   0.317 -1.0749  1.6008  1.8787
 2486TIP3    H229018   3.579   0.485   0.315 -1.8209 -0.1909 -0.9031
 2487TIP3   OH229019   3.589   3.111   8.161 -0.1496  0.1315  0.1640
 2487TIP3    H129020   3.573   3.201   8.188  2.1247  0.5861  0.2245
 2487TIP3    H229021   3.606   3.116   8.067 -0.1144 -0.2447  0.1464
 2488TIP3   OH229022   3.948   5.128   7.700  0.1086 -0.7723 -0.9876
 2488TIP3    H129023   3.954   5.090   7.788 -0.5025  0.2135 -0.4945
 2488TIP3    H229024   3.905   5.060   7.648 -0.6853 -0.8993 -0.2057
 2489TIP3   OH229025   0.417   0.795   7.402 -0.1315 -0.0512 -0.0248
 2489TIP3    H129026   0.507   0.823   7.386 -0.2990  0.1055 -0.7480
 2489TIP3    H229027   0.420   0.700   7.401  0.1007 -0.0503  0.4151
 2490TIP3   OH229028   1.451   4.758   1.380  0.1162  0.3775  0.3427
 2490TIP3    H129029   1.536   4.714   1.387  1.2504  2.6224  1.7671
 2490TIP3    H229030   1.440   4.801   1.465 -0.3011  3.7753 -1.2576
 2491TIP3   OH229031   2.853   5.460   1.577  0.8290  0.0786  0.5510
 2491TIP3    H129032   2.944   5.441   1.598  0.9039  0.8111  0.9008
 2491TIP3    H229033   2.808   5.464   1.661  0.7520  1.0956  0.4797
 2492TIP3   OH229034   2.581   0.119   7.502 -0.4939  0.3065  0.5117
 2492TIP3    H129035   2.623   0.173   7.435 -1.8993  0.0665 -0.5930
 2492TIP3    H229036   2.626   0.143   7.583  0.5018  1.3980 -0.3304
 2493TIP3   OH229037   6.199   0.484   1.104 -0.5035  0.5299 -0.1106
 2493TIP3    H129038   6.189   0.580   1.107 -1.3053  0.4370  0.9821
 2493TIP3    H229039   6.253   0.464   1.180 -1.4532  0.0086  0.4436
 2494TIP3   OH229040   3.370   6.056   7.795  0.6926  0.3806 -0.1829
 2494TIP3    H129041   3.375   6.088   7.705  0.5077  0.1071 -0.2886
 2494TIP3    H229042   3.414   5.971   7.794 -0.7666 -0.3936 -0.3659
 2495TIP3   OH229043   5.785   0.374   7.699  0.2183  0.3034  0.0999
 2495TIP3    H129044   5.718   0.439   7.678  0.3262  1.0845  2.0398
 2495TIP3    H229045   5.757   0.336   7.782 -0.0844 -2.5203 -1.1862
 2496TIP3   OH229046   6.207   0.621   0.224 -0.3213 -0.1386  0.6148
 2496TIP3    H129047   6.145   0.685   0.189 -1.3977 -1.4392  0.0456
 2496TIP3    H229048   6.155   0.566   0.283 -0.1217 -2.2251 -1.0469
 2497TIP3   OH229049   5.690   5.446   2.017  0.2658 -0.1572 -0.3848
 2497TIP3    H129050   5.636   5.367   2.015  1.1034 -0.7239 -1.5717
 2497TIP3    H229051   5.777   5.417   1.990  0.5866  1.1837 -0.8728
 2498TIP3   OH229052   4.028   5.709   7.553  0.1258 -0.5551  0.2694
 2498TIP3    H129053   3.948   5.736   7.509 -0.3809  1.1637  2.0805
 2498TIP3    H229054   4.079   5.790   7.562  1.1406 -1.2436  0.9308
 2499TIP3   OH229055   0.800   5.921   0.071  0.2006 -0.1438 -0.3599
 2499TIP3    H129056   0.777   6.001   0.120  0.6392 -0.3963  0.2738
 2499TIP3    H229057   0.811   5.951  -0.019  0.6797  0.5768 -0.0731
 2500TIP3   OH229058   1.742   1.051   6.519  0.2356 -1.0744  0.5249
 2500TIP3    H129059   1.675   1.108   6.558 -0.0885 -1.2454  0.2251
 2500TIP3    H229060   1.727   0.966   6.559  0.7173 -0.9565  0.9687
 2501TIP3   OH229061   3.110   1.532   2.290  0.0139  0.8337 -0.1395
 2501TIP3    H129062   3.090   1.450   2.246 -0.4222 -1.1635  3.3759
 2501TIP3    H229063   3.195   1.516   2.333 -0.4035  1.9188  1.1731
 2502TIP3   OH229064   5.784   0.553   0.685 -0.0750 -0.2941  0.0672
 2502TIP3    H129065   5.856   0.605   0.652  0.1434  1.1947  2.6436
 2502TIP3    H229066   5.803   0.464   0.655  1.0470  0.5914 -2.0330
 2503TIP3   OH229067   3.304   6.470   0.207  0.4919 -0.0624 -0.5310
 2503TIP3    H129068   3.324   6.562   0.191  1.1826 -0.2137 -0.5443
 2503TIP3    H229069   3.209   6.468   0.219  0.1367  0.2994 -2.9248
 2504TIP3   OH229070   1.699   5.935   7.663 -0.0414 -0.1505  0.0359
 2504TIP3    H129071   1.606   5.950   7.682 -0.1501 -1.0084  0.2066
 2504TIP3    H229072   1.700   5.907   7.571  0.1716  0.9316 -0.3103
 2505TIP3   OH229073   0.956   0.712   8.298  0.0545 -0.2753  0.6130
 2505TIP3    H129074   0.865   0.725   8.326  0.8422  1.0939  2.7696
 2505TIP3    H229075   0.957   0.624   8.259 -1.9622 -0.7594  1.5448
 2506TIP3   OH229076   3.545   6.338   7.055 -0.1383  0.1550  0.4556
 2506TIP3    H129077   3.537   6.285   6.975 -0.7479  0.4052  0.3503
 2506TIP3    H229078   3.602   6.287   7.112 -1.1511 -0.8823  0.5684
 2507TIP3   OH229079   2.675   0.895   7.189 -0.3218 -0.7217  0.4286
 2507TIP3    H129080   2.713   0.824   7.136  0.1180  0.6422 -1.1521
 2507TIP3    H229081   2.601   0.853   7.234  1.9678 -3.0567  2.3631
 2508TIP3   OH229082   4.656   0.593   8.346  0.1396 -0.7182 -0.2003
 2508TIP3    H129083   4.713   0.629   8.278  0.8432 -0.6772  0.4008
 2508TIP3    H229084   4.716   0.566   8.416 -0.4034 -2.4057 -0.3261
 2509TIP3   OH229085   5.320   1.727   6.808  0.3080 -0.2556  0.0582
 2509TIP3    H129086   5.353   1.725   6.898  0.1423 -1.0178  0.1087
 2509TIP3    H229087   5.398   1.724   6.753  0.3613 -2.5011  0.1724
 2510TIP3   OH229088   2.718   0.542   1.428  0.0986  0.0992  0.1730
 2510TIP3    H129089   2.730   0.637   1.421 -1.8424  0.3039 -1.5870
 2510TIP3    H229090   2.624   0.529   1.416  0.1463 -1.9939  1.5816
 2511TIP3   OH229091   2.543   0.222   0.371 -0.3404  0.1598  0.1433
 2511TIP3    H129092   2.572   0.190   0.286  0.3673  0.1888  0.3632
 2511TIP3    H229093   2.613   0.197   0.431 -0.4226  0.9047  0.5672
 2512TIP3   OH229094   3.575   0.955   6.944  0.2048 -0.2252  0.4261
 2512TIP3    H129095   3.542   0.998   6.866  1.1003 -0.8379 -0.3142
 2512TIP3    H229096   3.503   0.959   7.006  0.4880  3.0778  0.7228
 2513TIP3   OH229097   5.598   1.734   1.591  0.1335 -0.3979  0.2307
 2513TIP3    H129098   5.672   1.794   1.589 -0.8466  0.8732  0.6372
 2513TIP3    H229099   5.572   1.731   1.683 -1.9602  1.3404 -0.2123
 2514TIP3   OH229100   1.176   2.786   0.061  0.3155  0.3633 -0.2763
 2514TIP3    H129101   1.102   2.744   0.104  0.5380 -0.2647 -0.4969
 2514TIP3    H229102   1.236   2.809   0.132 -0.2650  1.2377 -0.0597
 2515TIP3   OH229103   0.689   2.104   7.557  0.1614 -0.8806  0.1821
 2515TIP3    H129104   0.603   2.105   7.514 -0.6215 -2.4116  1.6216
 2515TIP3    H229105   0.673   2.140   7.644  0.7257 -2.1828  0.8517
 2516TIP3   OH229106   2.491   4.212   0.877 -0.3756 -0.3643  0.2937
 2516TIP3    H129107   2.534   4.128   0.892 -1.1045 -1.1331 -1.5908
 2516TIP3    H229108   2.544   4.276   0.925  1.2189 -1.6607  0.3190
 2517TIP3   OH229109   2.290   3.145   1.699 -0.1099 -0.2247  0.1979
 2517TIP3    H129110   2.261   3.060   1.667 -0.0985 -0.5353  0.9901
 2517TIP3    H229111   2.252   3.152   1.786 -0.8113  0.9547 -0.1836
 2518TIP3   OH229112   5.826   5.780   1.630  0.4115 -0.4236 -0.1329
 2518TIP3    H129113   5.892   5.713   1.648  0.9598 -0.1233 -0.9465
 2518TIP3    H229114   5.778   5.789   1.712  0.1159 -2.0328 -0.0989
 2519TIP3   OH229115   4.702   5.862   0.975 -0.5562 -0.6042  0.3627
 2519TIP3    H129116   4.776   5.916   0.947 -0.6035 -0.5717  0.3001
 2519TIP3    H229117   4.742   5.790   1.024 -0.5698  0.0875  1.4142
 2520TIP3   OH229118   0.002   1.314   8.605  0.5077 -0.9297  0.1262
 2520TIP3    H129119  -0.065   1.280   8.664 -0.0277  0.3321  0.2796
 2520TIP3    H229120   0.085   1.286   8.644  0.1087 -1.6099  0.5082
 2521TIP3   OH229121   1.176   3.867   7.112  0.0249  0.4742  0.5343
 2521TIP3    H129122   1.166   3.772   7.109 -0.0933  0.5096 -1.6947
 2521TIP3    H229123   1.220   3.889   7.030  0.2939  2.3310  1.1333
 2522TIP3   OH229124   4.679   5.572   0.520 -0.5518  0.2718 -0.0076
 2522TIP3    H129125   4.586   5.590   0.534 -1.2198 -3.1591  0.7295
 2522TIP3    H229126   4.723   5.653   0.547 -3.2110  1.5233  0.9312
 2523TIP3   OH229127   6.108   0.371   1.801 -0.2696 -0.4459  0.6716
 2523TIP3    H129128   6.032   0.354   1.857 -0.9043  0.2494  0.0292
 2523TIP3    H229129   6.088   0.453   1.756  1.0641 -0.0094  0.8292
 2524TIP3   OH229130   2.219   1.445   1.329 -0.3886 -0.5593  0.4349
 2524TIP3    H129131   2.180   1.424   1.413  0.0508  2.5301  1.5359
 2524TIP3    H229132   2.298   1.391   1.325 -0.3116 -0.6169  2.0946
 2525TIP3   OH229133   1.172   5.651   7.738 -0.2214  0.6971  0.3336
 2525TIP3    H129134   1.172   5.740   7.773 -2.1168  0.7695  0.2518
 2525TIP3    H229135   1.080   5.633   7.719  0.3734 -0.4331 -1.8230
 2526TIP3   OH229136   1.855   3.674   1.846 -0.3252  0.3640 -0.0698
 2526TIP3    H129137   1.788   3.620   1.804 -0.0329 -0.2569  0.2544
 2526TIP3    H229138   1.827   3.764   1.829 -1.6688  0.1234  0.7310
 2527TIP3   OH229139   5.906   2.902   8.249  0.0197  0.4713 -0.5811
 2527TIP3    H129140   5.916   2.949   8.331 -2.8772 -1.8055  1.2761
 2527TIP3    H229141   5.958   2.823   8.260  0.1118  0.4365 -1.2085
 2528TIP3   OH229142   6.554   4.142   6.719  0.2675 -0.2823 -0.6753
 2528TIP3    H129143   6.580   4.177   6.804 -0.9920  0.9048 -0.7403
 2528TIP3    H229144   6.616   4.183   6.657 -0.2926  0.7493 -0.5793
 2529TIP3   OH229145   0.439   0.605   0.307  0.2547 -0.3290 -0.7113
 2529TIP3    H129146   0.344   0.598   0.297 -0.1093  0.6360  1.4755
 2529TIP3    H229147   0.453   0.695   0.336  1.5321 -1.2093  1.6477
 2530TIP3   OH229148   0.800   5.250   0.329  0.1745  0.1960  0.2792
 2530TIP3    H129149   0.857   5.322   0.300  0.0810  0.4953  0.8150
 2530TIP3    H229150   0.861   5.187   0.369  0.2374  0.0528 -0.0385
 2531TIP3   OH229151   1.333   4.218   1.366  0.3642  0.0042 -0.0356
 2531TIP3    H129152   1.252   4.270   1.369  0.3368 -0.0657  0.4279
 2531TIP3    H229153   1.365   4.217   1.456  0.2658 -0.9495 -0.0027
 2532TIP3   OH229154   4.164   2.603   0.834 -0.2203  0.3222 -0.0662
 2532TIP3    H129155   4.100   2.538   0.864 -0.4019  0.5596  0.0714
 2532TIP3    H229156   4.220   2.618   0.910  1.6705 -1.8283 -0.9409
 2533TIP3   OH229157   6.765   2.609   8.147  0.3037  0.2138  0.7541
 2533TIP3    H129158   6.758   2.530   8.200 -1.3512 -1.2300 -1.4318
 2533TIP3    H229159   6.675   2.639   8.136  0.4220 -0.1597 -1.9650
 2534TIP3   OH229160   6.551   1.762   6.844  0.4930 -0.6525  0.0031
 2534TIP3    H129161   6.552   1.845   6.893  1.2224 -0.8311  0.3086
 2534TIP3    H229162   6.597   1.701   6.901  0.4835 -1.1152 -0.4828
 2535TIP3   OH229163   4.839   5.345   7.036  0.6896  0.7174 -0.6204
 2535TIP3    H129164   4.830   5.384   7.123  1.1770 -0.5070 -0.0009
 2535TIP3    H229165   4.753   5.306   7.019  0.8806  0.1376 -0.2722
 2536TIP3   OH229166   5.184   6.230   1.620 -0.1416 -0.1113 -0.1309
 2536TIP3    H129167   5.189   6.228   1.716 -1.4004 -0.6414 -0.0509
 2536TIP3    H229168   5.237   6.156   1.592 -0.2505 -0.3149  0.1891
 2537TIP3   OH229169   0.113   5.149   2.111 -0.1813  0.5574 -0.1172
 2537TIP3    H129170   0.144   5.201   2.186  1.9784  0.6464 -1.0011
 2537TIP3    H229171   0.092   5.064   2.149  1.6682  0.3316  0.5214
 2538TIP3   OH229172   2.624   0.039   7.908 -0.3296  0.5968  0.4182
 2538TIP3    H129173   2.574  -0.012   7.844  1.4352 -1.2949  0.4343
 2538TIP3    H229174   2.711   0.046   7.869  0.1736  1.3220  1.6392
 2539TIP3   OH229175   1.582   6.067   1.773  0.1845 -0.6768 -0.2181
 2539TIP3    H129176   1.527   5.992   1.794  0.5238 -0.3406  2.0639
 2539TIP3    H229177   1.647   6.033   1.711  0.7324 -2.4462  1.2484
 2540TIP3   OH229178   4.324   5.904   7.744 -0.3989  0.7905 -0.1921
 2540TIP3    H129179   4.347   5.975   7.804 -0.4208  1.2666 -0.7295
 2540TIP3    H229180   4.249   5.938   7.695 -0.2090  0.5296 -0.6783
 2541TIP3   OH229181   0.386   2.420   1.792 -0.3278  0.1267 -0.4143
 2541TIP3    H129182   0.336   2.341   1.814 -0.8717  0.2658 -1.1141
 2541TIP3    H229183   0.361   2.483   1.860  0.1302 -0.3041  0.1636
 2542TIP3   OH229184   6.062   2.708   1.234  0.0424 -0.4046  0.6680
 2542TIP3    H129185   6.050   2.793   1.276  0.8889 -0.1934  0.5051
 2542TIP3    H229186   6.155   2.704   1.214 -0.3443 -0.3955 -1.3912
 2543TIP3   OH229187   5.707   2.193   8.744 -0.2742  0.0478 -0.4276
 2543TIP3    H129188   5.763   2.215   8.819 -0.5043  2.0054 -0.7758
 2543TIP3    H229189   5.748   2.116   8.705  1.2210  0.4401  0.3126
 2544TIP3   OH229190   2.048   2.375   7.543 -0.0402 -0.1987 -0.8780
 2544TIP3    H129191   2.090   2.381   7.457  0.5531  1.2848 -0.5024
 2544TIP3    H229192   1.994   2.453   7.549  2.3812  1.4539  1.3435
 2545TIP3   OH229193   3.377   6.634   7.707 -0.1253 -1.0395  0.0442
 2545TIP3    H129194   3.378   6.573   7.633  0.6861  0.7923 -1.5424
 2545TIP3    H229195   3.291   6.676   7.701  0.3509 -0.1338 -0.5277
 2546TIP3   OH229196   5.499   1.956   8.117 -0.0366 -0.2471 -0.2194
 2546TIP3    H129197   5.452   1.941   8.035 -1.3421  2.4108 -0.0891
 2546TIP3    H229198   5.579   2.001   8.090 -1.3777  2.4473 -0.0473
 2547TIP3   OH229199   0.330   4.472   0.313  0.0852 -0.3383  0.4825
 2547TIP3    H129200   0.259   4.473   0.378  1.2378 -0.4364  1.7941
 2547TIP3    H229201   0.397   4.530   0.350 -0.0902  1.3791 -1.6869
 2548TIP3   OH229202   2.174   3.329   7.239 -0.0974 -0.1924 -0.2503
 2548TIP3    H129203   2.260   3.288   7.251  0.2972  0.9487  0.9791
 2548TIP3    H229204   2.136   3.281   7.166  1.1236 -1.4675 -0.1038
 2549TIP3   OH229205   4.027   6.570   1.097 -0.2051  0.5622  0.3166
 2549TIP3    H129206   4.108   6.525   1.122  0.5860  2.5251  1.5477
 2549TIP3    H229207   3.965   6.547   1.165  1.0921  3.5454  2.7772
 2550TIP3   OH229208   3.722   4.958   0.842  0.3042 -0.3986 -0.0825
 2550TIP3    H129209   3.760   4.914   0.918  0.8661 -2.5853 -1.5445
 2550TIP3    H229210   3.637   4.989   0.873  0.3870 -1.4940  1.3586
 2551TIP3   OH229211   2.387   4.165   6.339  0.4647  0.1750 -0.3382
 2551TIP3    H129212   2.394   4.234   6.405  1.1303  0.3721 -0.6127
 2551TIP3    H229213   2.381   4.084   6.389  1.2208  0.3028 -0.0330
 2552TIP3   OH229214   1.606   2.525   0.388  0.1458  0.4121  0.1163
 2552TIP3    H129215   1.547   2.509   0.315 -0.4412  0.5906  0.5482
 2552TIP3    H229216   1.557   2.581   0.448 -0.5118 -2.0892  2.0736
 2553TIP3   OH229217   1.148   5.337   8.586  0.2980  0.9629  0.2215
 2553TIP3    H129218   1.124   5.360   8.496 -0.7549  1.1402  0.5338
 2553TIP3    H229219   1.153   5.421   8.632  0.0891  0.8253  0.4997
 2554TIP3   OH229220   5.134   4.187   6.770  0.4514 -0.1804  0.2436
 2554TIP3    H129221   5.096   4.115   6.719  0.6339  0.2304 -0.4749
 2554TIP3    H229222   5.066   4.210   6.833 -0.2076  0.0328 -0.5241
 2555TIP3   OH229223   4.632   5.795   1.318  0.8392 -0.1178 -0.0811
 2555TIP3    H129224   4.682   5.761   1.243  0.3853 -1.5132  0.2135
 2555TIP3    H229225   4.635   5.724   1.382 -3.3158 -1.2814 -0.8747
 2556TIP3   OH229226   6.370   2.464   7.747  0.4268  0.2218  0.2299
 2556TIP3    H129227   6.428   2.487   7.675 -0.4938 -0.2184 -0.6759
 2556TIP3    H229228   6.305   2.534   7.748 -0.3759 -0.5002 -0.2949
 2557TIP3   OH229229   4.295   4.331   0.899 -0.6134  0.5452  0.1022
 2557TIP3    H129230   4.370   4.299   0.949  0.2533  0.3221 -1.2746
 2557TIP3    H229231   4.277   4.261   0.836 -2.5904  0.1916  0.9999
 2558TIP3   OH229232   2.494   6.010   1.717  0.0955 -0.0142  0.4121
 2558TIP3    H129233   2.577   5.964   1.727  0.0879  0.1831  1.5145
 2558TIP3    H229234   2.501   6.054   1.633  2.5720  2.8973  1.9277
 2559TIP3   OH229235   2.777   5.820   1.062 -0.3361 -0.3447  0.0274
 2559TIP3    H129236   2.717   5.797   0.991 -1.1477  0.5648  0.3928
 2559TIP3    H229237   2.843   5.751   1.061 -0.1257 -0.1503 -1.8399
 2560TIP3   OH229238   5.299   1.736   8.480 -0.2608  0.0788  0.4323
 2560TIP3    H129239   5.350   1.772   8.553  0.7420  0.5645 -0.4947
 2560TIP3    H229240   5.286   1.644   8.503  0.8438  0.0054  0.7829
 2561TIP3   OH229241   2.377   1.541   1.612  0.9880 -0.9703  0.4458
 2561TIP3    H129242   2.407   1.576   1.696 -1.0384  1.1334  0.3665
 2561TIP3    H229243   2.303   1.485   1.634  0.8246 -0.8985  0.0861
 2562TIP3   OH229244   3.852   1.538   5.849 -0.0790 -0.0989 -0.2467
 2562TIP3    H129245   3.814   1.606   5.794  0.4299 -1.3640 -2.2511
 2562TIP3    H229246   3.928   1.507   5.801  0.5965 -1.0514  1.3400
 2563TIP3   OH229247   4.959   4.862   8.692  0.1094 -0.1929  0.4783
 2563TIP3    H129248   4.987   4.819   8.773  3.9104  1.4633  0.2632
 2563TIP3    H229249   5.007   4.816   8.623  0.9204  1.5517 -0.1944
 2564TIP3   OH229250   1.590   1.219   6.646 -0.5356 -0.2845  0.1716
 2564TIP3    H129251   1.562   1.212   6.737  0.7001 -3.4442  0.4625
 2564TIP3    H229252   1.509   1.217   6.596 -1.2714  2.1605  1.1477
 2565TIP3   OH229253   0.216   5.947   8.602  0.4020  0.1117 -0.0234
 2565TIP3    H129254   0.278   5.907   8.541 -0.0369  1.6283 -1.5319
 2565TIP3    H229255   0.169   5.873   8.640  2.0041 -0.9698 -0.0787
 2566TIP3   OH229256   3.303   0.835   8.263 -0.0449 -0.2036  0.3687
 2566TIP3    H129257   3.224   0.887   8.247 -0.2175  0.0018  1.8316
 2566TIP3    H229258   3.372   0.901   8.275  0.4247 -0.3830 -1.1386
 2567TIP3   OH229259   0.609   0.100   1.791  1.2447  0.1246  0.0801
 2567TIP3    H129260   0.577   0.190   1.794  2.0328  0.5271 -1.8901
 2567TIP3    H229261   0.668   0.092   1.866  0.6076  1.0085  0.6854
 2568TIP3   OH229262   2.454   1.655   7.092  0.3721  0.3272 -0.4967
 2568TIP3    H129263   2.399   1.659   7.170  1.2934  3.0149  0.0898
 2568TIP3    H229264   2.400   1.607   7.028 -1.6447  0.7378  0.8095
 2569TIP3   OH229265   2.060   4.088   7.091  0.4503 -0.3548 -0.5614
 2569TIP3    H129266   2.095   4.017   7.144  2.0370  1.7536  1.4681
 2569TIP3    H229267   1.982   4.118   7.138  0.3938 -0.0980 -0.8133
 2570TIP3   OH229268   4.215   5.758   1.737 -0.4658  0.6253 -0.1085
 2570TIP3    H129269   4.193   5.788   1.825 -0.7774  0.2754 -0.0646
 2570TIP3    H229270   4.293   5.808   1.713 -0.5316  0.9067  0.2639
 2571TIP3   OH229271   1.359   3.689   6.841 -0.2688  0.0073  0.2381
 2571TIP3    H129272   1.308   3.609   6.857 -2.2791  1.2221  0.2556
 2571TIP3    H229273   1.313   3.732   6.769  0.3868  1.4586  0.6622
 2572TIP3   OH229274   3.597   1.339   1.391  0.0837 -0.1026  0.1172
 2572TIP3    H129275   3.505   1.364   1.378  0.2400  0.4863  0.1452
 2572TIP3    H229276   3.614   1.277   1.320 -0.6410 -1.0419  0.7354
 2573TIP3   OH229277   2.215   5.806   7.927 -0.1983 -0.2962 -0.0419
 2573TIP3    H129278   2.273   5.779   7.999 -0.0635  0.8621  0.3096
 2573TIP3    H229279   2.158   5.731   7.912  1.4068 -1.4975 -0.4223
 2574TIP3   OH229280   6.448   4.787   0.462 -0.8655 -0.1781 -0.6219
 2574TIP3    H129281   6.356   4.812   0.471 -1.2302 -1.5017 -0.4372
 2574TIP3    H229282   6.462   4.782   0.368 -1.7003 -2.3573 -0.6760
 2575TIP3   OH229283   3.644   4.124   0.115 -0.1732 -0.8435  0.4183
 2575TIP3    H129284   3.721   4.115   0.058 -0.8529 -1.8169 -0.3921
 2575TIP3    H229285   3.577   4.163   0.058 -0.0781  0.7264  1.3259
 2576TIP3   OH229286   6.390   3.002   0.677 -0.3165  0.1532 -0.4043
 2576TIP3    H129287   6.466   3.040   0.633  0.5396 -0.1879  0.7278
 2576TIP3    H229288   6.334   3.078   0.697 -0.0349  0.4674 -0.7900
 2577TIP3   OH229289   4.983   0.155   8.239  0.0060 -0.1978  0.2182
 2577TIP3    H129290   5.076   0.141   8.221 -0.1444 -0.0788 -0.7063
 2577TIP3    H229291   4.939   0.131   8.157 -0.8021 -0.5270  0.7413
 2578TIP3   OH229292   3.577   1.175   0.235  0.4524 -0.3814  0.3127
 2578TIP3    H129293   3.488   1.199   0.262  0.5669  0.4637 -0.0303
 2578TIP3    H229294   3.567   1.087   0.197  0.3252 -1.7162  3.2007
 2579TIP3   OH229295   5.849   5.129   8.659  0.2930 -0.4491 -0.3582
 2579TIP3    H129296   5.802   5.133   8.575  1.3724 -0.7540 -0.9920
 2579TIP3    H229297   5.785   5.161   8.723  0.1305  1.8970 -1.5779
 2580TIP3   OH229298   4.259   5.793   7.305  0.4917  0.2641  0.2484
 2580TIP3    H129299   4.209   5.867   7.338  1.2939  1.2670 -0.6987
 2580TIP3    H229300   4.308   5.761   7.381 -0.4189  0.2182  0.8340
 2581TIP3   OH229301   1.965   3.514   0.107 -0.8771 -0.3716  0.2720
 2581TIP3    H129302   1.873   3.534   0.125 -0.5344  1.1508  0.4850
 2581TIP3    H229303   1.973   3.521   0.012 -0.4425  2.2691  0.4289
 2582TIP3   OH229304   0.923   0.546   8.574  0.5703  0.0049 -0.3221
 2582TIP3    H129305   0.997   0.594   8.536  0.0399  0.0144 -1.3658
 2582TIP3    H229306   0.889   0.604   8.642  0.6316  0.6258 -0.8127
 2583TIP3   OH229307   1.810   2.029   6.817  0.4308  0.7611 -0.3125
 2583TIP3    H129308   1.758   1.995   6.744  1.1189  1.6346 -1.2463
 2583TIP3    H229309   1.844   1.951   6.861 -1.7015  0.1626  0.3912
 2584TIP3   OH229310   1.067   2.719   7.065  0.0110 -0.1084  0.2516
 2584TIP3    H129311   0.989   2.769   7.041 -0.0452 -0.0351  0.5853
 2584TIP3    H229312   1.053   2.633   7.026  1.1522  0.7763 -2.3585
 2585TIP3   OH229313   4.747   6.001   1.443 -0.6742 -0.3855  0.7553
 2585TIP3    H129314   4.695   5.940   1.391 -1.4693  0.8216  0.0823
 2585TIP3    H229315   4.710   5.995   1.531 -0.5199 -1.1013  0.7823
 2586TIP3   OH229316   3.915   3.106   7.367  0.1562 -0.8364 -0.0675
 2586TIP3    H129317   3.906   3.184   7.311 -0.6374 -0.8394  0.0522
 2586TIP3    H229318   4.006   3.078   7.354  0.7065  0.5881  0.5155
 2587TIP3   OH229319   2.161   3.671   0.437  0.4529  0.2473 -0.5101
 2587TIP3    H129320   2.106   3.734   0.390 -1.5542 -0.9271  0.1099
 2587TIP3    H229321   2.175   3.711   0.523 -0.1001  0.2390 -0.4111
 2588TIP3   OH229322   4.467   2.320   0.864  0.3763 -0.1522  0.1409
 2588TIP3    H129323   4.388   2.343   0.912  0.4620  1.4491 -0.4377
 2588TIP3    H229324   4.436   2.274   0.786  0.1031 -0.7342  0.5931
 2589TIP3   OH229325   5.540   5.356   0.384  0.1900 -0.6575 -0.1365
 2589TIP3    H129326   5.632   5.381   0.397  0.0983  1.6806 -2.9387
 2589TIP3    H229327   5.544   5.267   0.348  1.1257 -1.5822  2.0996
 2590TIP3   OH229328   4.208   3.755   8.484  0.0916 -0.0944 -0.4899
 2590TIP3    H129329   4.265   3.726   8.554  0.4202  1.5280 -0.0303
 2590TIP3    H229330   4.122   3.762   8.524 -0.0165 -0.5524 -0.6377
 2591TIP3   OH229331   4.278   1.925   0.666 -0.2944 -0.3181  0.4136
 2591TIP3    H129332   4.280   2.014   0.629  1.0594  0.4263  2.0775
 2591TIP3    H229333   4.185   1.903   0.672 -0.7142  1.4482  0.9520
 2592TIP3   OH229334   5.929   1.907   7.084  0.2942  0.5732 -0.1496
 2592TIP3    H129335   5.865   1.838   7.071  1.6723 -0.5018 -1.6802
 2592TIP3    H229336   5.878   1.987   7.094 -1.2973 -0.4800  0.4463
 2593TIP3   OH229337   3.594   2.607   8.620 -0.1555 -0.4766  0.0967
 2593TIP3    H129338   3.578   2.538   8.556  0.5806 -1.9850  1.4840
 2593TIP3    H229339   3.511   2.620   8.664 -0.8615  1.0553 -1.5271
 2594TIP3   OH229340   2.060   4.955   0.042  0.0815  0.2183 -0.1081
 2594TIP3    H129341   2.102   4.927   0.123  0.2954  0.2798 -0.1974
 2594TIP3    H229342   2.081   5.048   0.035  0.3077  0.1455 -0.3839
 2595TIP3   OH229343   6.476   5.527   0.671 -0.5802 -0.6253  0.3113
 2595TIP3    H129344   6.394   5.481   0.657 -0.2293 -1.2637  0.3458
 2595TIP3    H229345   6.520   5.478   0.741 -0.8171  0.5639  1.3375
 2596TIP3   OH229346   5.266   2.937   1.771  0.5136  0.0952  0.3652
 2596TIP3    H129347   5.301   2.897   1.851  2.0114  1.3200  0.3821
 2596TIP3    H229348   5.177   2.964   1.795 -0.0856 -2.0008  0.7280
 2597TIP3   OH229349   0.967   1.884   7.974 -0.0544 -0.4013 -0.8028
 2597TIP3    H129350   0.962   1.878   8.069  0.4601  0.0745 -0.7412
 2597TIP3    H229351   0.926   1.968   7.953  1.7462  0.5052 -0.8126
 2598TIP3   OH229352   0.536   6.716   8.478  0.2403 -0.3050 -0.3962
 2598TIP3    H129353   0.621   6.756   8.460  0.5916 -0.2631  1.2148
 2598TIP3    H229354   0.473   6.773   8.434  0.9186  0.7092 -0.0996
 2599TIP3   OH229355   3.093   3.161   7.334 -0.1232 -0.1480  0.1465
 2599TIP3    H129356   3.062   3.200   7.252 -1.8379  1.5728  1.5226
 2599TIP3    H229357   3.096   3.067   7.316  0.7974  0.2562 -2.2413
 2600TIP3   OH229358   5.083   1.939   0.830  0.4436  0.6306  1.0602
 2600TIP3    H129359   5.140   2.012   0.852  1.7185  0.5536 -1.5355
 2600TIP3    H229360   5.127   1.862   0.867 -0.9252  1.0477  3.8343
 2601TIP3   OH229361   5.766   4.915   0.261 -0.2577  0.2937 -0.3297
 2601TIP3    H129362   5.673   4.895   0.259 -0.5417  0.4807  3.4102
 2601TIP3    H229363   5.808   4.835   0.294  0.5659  0.9088  0.1765
 2602TIP3   OH229364   2.684   2.253   7.853  0.1158  0.4444  0.2975
 2602TIP3    H129365   2.699   2.179   7.794 -0.2356  1.4929 -1.1602
 2602TIP3    H229366   2.592   2.244   7.879  0.6994 -0.9918  2.1638
 2603TIP3   OH229367   1.911   3.013   7.676 -0.0584 -0.3823 -0.3323
 2603TIP3    H129368   1.977   3.063   7.724  0.1525 -1.6113  0.7310
 2603TIP3    H229369   1.947   3.003   7.588  1.4301 -1.3898  0.3401
 2604TIP3   OH229370   3.825   5.811   7.817  0.4604  0.0629  0.4170
 2604TIP3    H129371   3.899   5.752   7.830 -0.0241 -0.6856 -0.1565
 2604TIP3    H229372   3.826   5.831   7.724 -1.2886 -1.6845 -0.0579
 2605TIP3   OH229373   1.857   6.565   1.349 -0.4656 -0.3286 -0.3143
 2605TIP3    H129374   1.896   6.633   1.404 -0.7906 -0.0967 -0.3680
 2605TIP3    H229375   1.794   6.612   1.294 -0.3208 -0.5951 -0.7117
 2606TIP3   OH229376   2.201   1.927   7.325  0.3238 -0.0108 -0.3703
 2606TIP3    H129377   2.148   1.873   7.267 -0.0102  0.6135 -0.6616
 2606TIP3    H229378   2.146   1.941   7.402  1.0321 -1.4117  0.4172
 2607TIP3   OH229379   2.679   4.023   1.480 -0.0828 -0.1165 -0.6978
 2607TIP3    H129380   2.701   4.093   1.419  0.8328 -1.0982 -1.5416
 2607TIP3    H229381   2.584   4.018   1.479 -0.1294  0.7380 -1.0439
 2608TIP3   OH229382   1.511   1.485   0.247 -0.5041 -0.0276 -0.1366
 2608TIP3    H129383   1.574   1.447   0.186 -0.8643  1.1826 -1.2986
 2608TIP3    H229384   1.565   1.522   0.317 -0.0335 -0.4724 -0.2547
 2609TIP3   OH229385   3.496   4.966   0.602 -0.6832 -0.2651 -0.3484
 2609TIP3    H129386   3.467   4.911   0.675 -0.1217  0.1690  0.2142
 2609TIP3    H229387   3.423   4.964   0.540 -1.2781 -0.4308  0.3463
 2610TIP3   OH229388   1.633   3.468   1.847  0.3996 -0.2795  0.4943
 2610TIP3    H129389   1.579   3.509   1.915  0.2807  1.2528 -0.4686
 2610TIP3    H229390   1.621   3.374   1.860 -1.0313  0.0081  1.4633
 2611TIP3   OH229391   0.376   0.390   6.789  0.1258 -0.5787  0.2136
 2611TIP3    H129392   0.316   0.369   6.718 -0.9464 -0.6551  1.1087
 2611TIP3    H229393   0.457   0.415   6.746 -0.8564  0.5279 -1.0780
 2612TIP3   OH229394   3.503   2.734   1.509 -0.1401  0.3866  0.0055
 2612TIP3    H129395   3.448   2.760   1.583 -0.2089  0.3919 -0.0472
 2612TIP3    H229396   3.463   2.652   1.478  0.3569 -0.0442  0.4733
 2613TIP3   OH229397   0.902   4.235   0.072  0.2348  0.2647  0.1685
 2613TIP3    H129398   0.955   4.157   0.086  0.3795  0.4992  0.9409
 2613TIP3    H229399   0.900   4.245  -0.024 -1.7508 -2.0179 -0.1040
 2614TIP3   OH229400   4.140   2.861   0.179 -0.7012  0.5596 -0.0231
 2614TIP3    H129401   4.082   2.820   0.114  2.0032 -1.2587 -1.4916
 2614TIP3    H229402   4.138   2.802   0.254  1.8044 -1.5949 -1.4553
 2615TIP3   OH229403   3.364   1.477   2.378  0.2087 -1.2407 -0.1806
 2615TIP3    H129404   3.411   1.419   2.318 -1.0238 -1.3831 -1.0337
 2615TIP3    H229405   3.430   1.501   2.444  1.3847 -1.6624 -1.1638
 2616TIP3   OH229406   6.383   1.840   8.504 -0.2107  0.1960 -0.2408
 2616TIP3    H129407   6.322   1.770   8.483  1.0935 -0.5331 -1.9021
 2616TIP3    H229408   6.364   1.908   8.440 -1.0377  1.1145  0.9511
 2617TIP3   OH229409   1.183   2.596   6.757  0.2799 -0.3104 -0.7797
 2617TIP3    H129410   1.176   2.572   6.665  1.7881 -1.5011 -0.6223
 2617TIP3    H229411   1.130   2.530   6.803  2.6181 -2.1809 -0.5392
 2618TIP3   OH229412   5.295   4.179   6.484 -0.1987  0.2498  0.4287
 2618TIP3    H129413   5.386   4.150   6.474 -0.1195  0.4183  0.6587
 2618TIP3    H229414   5.245   4.123   6.425 -0.0491 -0.3681  0.8832
 2619TIP3   OH229415   2.507   0.394   7.323 -0.3446 -0.2120 -0.0026
 2619TIP3    H129416   2.435   0.337   7.296 -0.7759 -0.0134  0.7201
 2619TIP3    H229417   2.575   0.378   7.257 -1.4497  0.4462 -1.3739
 2620TIP3   OH229418   0.680   1.377   8.070  0.0536  0.3072 -0.4578
 2620TIP3    H129419   0.644   1.300   8.114  1.3979 -0.3146 -0.3999
 2620TIP3    H229420   0.634   1.451   8.110 -0.4259 -0.3955  0.3195
 2621TIP3   OH229421   0.484   1.329   1.580 -0.3168  0.2810  0.1678
 2621TIP3    H129422   0.556   1.391   1.571  1.0946 -1.5253 -1.8925
 2621TIP3    H229423   0.509   1.275   1.656 -0.7259  1.1219  0.9233
 2622TIP3   OH229424   0.742   6.261   8.299 -0.2485 -0.3218  0.3346
 2622TIP3    H129425   0.658   6.239   8.258  0.9378  0.1679 -2.6126
 2622TIP3    H229426   0.800   6.280   8.226  2.3552 -0.2012  2.2857
 2623TIP3   OH229427   5.873   5.367   7.680  0.0260  0.1873  0.3559
 2623TIP3    H129428   5.832   5.448   7.710 -1.2149  0.1073 -1.0311
 2623TIP3    H229429   5.951   5.358   7.735 -0.2750  1.8614  1.1178
 2624TIP3   OH229430   6.224   4.448   0.993  0.2493  0.1399 -0.3786
 2624TIP3    H129431   6.168   4.515   1.032 -1.0660 -0.5095 -1.0891
 2624TIP3    H229432   6.205   4.368   1.043  0.9745  0.0307 -0.2601
 2625TIP3   OH229433   6.571   3.875   6.848 -0.3682 -0.2754 -0.0233
 2625TIP3    H129434   6.589   3.957   6.800 -0.7957 -0.3397 -0.2953
 2625TIP3    H229435   6.568   3.901   6.940 -0.8353  0.0733 -0.1348
 2626TIP3   OH229436   2.560   1.239   8.734  0.0750  0.0736  0.2025
 2626TIP3    H129437   2.602   1.154   8.723  1.7346  0.7302  1.1704
 2626TIP3    H229438   2.550   1.248   8.829  2.1459  1.9422  0.3196
 2627TIP3   OH229439   1.561   0.610   8.120 -0.5414  0.3093  0.3706
 2627TIP3    H129440   1.638   0.584   8.069 -0.5588 -2.8793  1.7559
 2627TIP3    H229441   1.592   0.681   8.176  1.1066 -0.1784  0.1214
 2628TIP3   OH229442   1.290   1.735   0.959  0.7688 -0.4079 -0.4605
 2628TIP3    H129443   1.299   1.640   0.951 -0.1049 -0.3969 -2.1751
 2628TIP3    H229444   1.355   1.771   0.899  0.1196  0.0194 -0.9269
 2629TIP3   OH229445   5.019   4.861   1.888  0.0043 -0.1598 -0.0517
 2629TIP3    H129446   4.938   4.833   1.932  0.0009 -0.2872 -0.1396
 2629TIP3    H229447   5.076   4.785   1.892  0.0517 -0.1296 -0.1550
 2630TIP3   OH229448   3.793   0.564   6.995 -0.5485 -0.4524  0.0345
 2630TIP3    H129449   3.824   0.513   6.920 -0.3940  0.6436 -0.6683
 2630TIP3    H229450   3.755   0.499   7.054  1.1076 -1.5597 -0.0765
 2631TIP3   OH229451   1.170   1.402   6.786 -0.1780  0.2430 -0.6705
 2631TIP3    H129452   1.209   1.474   6.737 -0.5235  1.3789  0.6490
 2631TIP3    H229453   1.076   1.417   6.779 -0.2337  0.3334  0.1773
 2632TIP3   OH229454   5.797   3.725   6.315  0.0497  0.2855  0.0100
 2632TIP3    H129455   5.719   3.678   6.285 -1.0895  1.4298  1.0510
 2632TIP3    H229456   5.811   3.794   6.250  2.3551 -1.9711 -2.1084
 2633TIP3   OH229457   6.306   4.127   0.685 -0.6721  0.0239 -0.5286
 2633TIP3    H129458   6.318   4.136   0.780  0.3603  2.4050 -0.8226
 2633TIP3    H229459   6.259   4.045   0.675 -1.2523 -0.0547  2.0924
 2634TIP3   OH229460   1.602   1.058   1.783  0.0839 -0.3949  0.5418
 2634TIP3    H129461   1.544   1.018   1.848 -4.1280 -0.7403 -2.9792
 2634TIP3    H229462   1.583   1.152   1.788 -1.4923 -0.5741 -1.0620
 2635TIP3   OH229463   3.582   5.419   6.388 -0.6928 -0.2702 -0.1913
 2635TIP3    H129464   3.628   5.336   6.396  0.7035  0.5396  0.6476
 2635TIP3    H229465   3.602   5.450   6.300 -1.4959 -0.9644 -0.6274
 2636TIP3   OH229466   5.752   5.785   2.368  0.2401 -0.4704 -0.3008
 2636TIP3    H129467   5.789   5.819   2.286 -0.9991  1.0156 -0.2884
 2636TIP3    H229468   5.809   5.712   2.391  2.3385  0.8656 -0.9760
 2637TIP3   OH229469   0.016   0.204   0.543 -0.4060  0.5110 -0.2551
 2637TIP3    H129470  -0.065   0.198   0.492 -0.8054  0.8138  0.3318
 2637TIP3    H229471   0.074   0.257   0.489 -0.9054  1.0201 -0.3055
 2638TIP3   OH229472   0.282   0.978   0.934  0.4465  0.5539  0.4659
 2638TIP3    H129473   0.215   1.001   0.998 -0.4167 -0.8837  0.1183
 2638TIP3    H229474   0.354   0.942   0.987 -0.1446 -0.3603  0.6763
 2639TIP3   OH229475   3.200   0.064   1.060 -0.2062  0.8105  0.0155
 2639TIP3    H129476   3.194  -0.017   1.009  0.4266  0.7902 -0.0323
 2639TIP3    H229477   3.111   0.100   1.058 -1.2866 -1.3802  2.5501
 2640TIP3   OH229478   4.152   1.983   7.338 -0.0068  0.3410 -0.9024
 2640TIP3    H129479   4.096   1.969   7.414  0.4916  0.9512 -0.4097
 2640TIP3    H229480   4.137   1.906   7.283  1.4303 -1.3695  0.9404
 2641TIP3   OH229481   3.554   4.464   2.003 -0.6475  0.7170 -0.0463
 2641TIP3    H129482   3.539   4.559   2.003  0.9383  1.0098 -0.9850
 2641TIP3    H229483   3.647   4.455   2.024 -0.0542 -0.4413 -2.7403
 2642TIP3   OH229484   2.282   5.701   0.608  0.1145 -0.2148  0.2918
 2642TIP3    H129485   2.295   5.610   0.633 -0.1407  0.3208  2.5351
 2642TIP3    H229486   2.360   5.746   0.638 -1.1837  0.8360  2.3666
 2643TIP3   OH229487   6.255   2.049   0.710  0.2173 -0.3422  0.1625
 2643TIP3    H129488   6.213   2.057   0.796  0.5748  0.8554  0.2508
 2643TIP3    H229489   6.323   2.116   0.711  1.6451 -1.7436 -0.2740
 2644TIP3   OH229490   6.564   4.362   1.098 -0.4485  0.6215 -0.0789
 2644TIP3    H129491   6.551   4.427   1.167  0.3450 -1.3476  2.0503
 2644TIP3    H229492   6.495   4.298   1.113  0.1130 -0.1428 -0.7259
 2645TIP3   OH229493   3.191   0.377   7.338  0.7356 -0.0863  0.2407
 2645TIP3    H129494   3.175   0.464   7.300  0.7751 -0.7777 -1.4781
 2645TIP3    H229495   3.104   0.343   7.358  0.6684  0.0575  0.1970
 2646TIP3   OH229496   6.208   3.166   0.338  0.3390  0.4385  0.7412
 2646TIP3    H129497   6.135   3.175   0.400 -0.6412 -1.0850 -0.1197
 2646TIP3    H229498   6.184   3.221   0.264  1.1413  1.6475  1.3459
 2647TIP3   OH229499   6.458   4.796   7.286 -0.3050  0.0686 -0.2181
 2647TIP3    H129500   6.453   4.812   7.192 -1.3704 -2.7692 -0.7493
 2647TIP3    H229501   6.552   4.781   7.302  0.2983  3.1583 -0.2070
 2648TIP3   OH229502   3.878   3.239   7.908 -0.1800 -0.9371 -0.4207
 2648TIP3    H129503   3.797   3.205   7.870 -0.8345  0.5210 -0.3870
 2648TIP3    H229504   3.922   3.162   7.943 -2.4609 -1.5722  1.2937
 2649TIP3   OH229505   3.475   6.182   1.606  0.5422 -0.3793  0.3372
 2649TIP3    H129506   3.515   6.105   1.646  0.9572 -1.4454 -2.0194
 2649TIP3    H229507   3.420   6.147   1.536  0.7480  1.4768 -0.7966
 2650TIP3   OH229508   3.883   2.571   8.599 -0.0028  0.0638  0.1091
 2650TIP3    H129509   3.898   2.518   8.677  0.8030  0.3972  0.1895
 2650TIP3    H229510   3.788   2.588   8.599  0.2530  1.8946  2.2242
 2651TIP3   OH229511   1.510   3.423   1.399 -0.2521  0.1149  0.5749
 2651TIP3    H129512   1.556   3.339   1.395  0.9009  0.7763 -0.6379
 2651TIP3    H229513   1.503   3.451   1.308 -0.9989  1.1439  0.9325
 2652TIP3   OH229514   6.152   0.170   2.475 -0.2395 -0.6827 -0.5432
 2652TIP3    H129515   6.093   0.230   2.429 -0.2710  1.1653  1.7265
 2652TIP3    H229516   6.118   0.083   2.456 -1.7685  0.1509 -1.8577
 2653TIP3   OH229517   2.808   0.281   1.472 -0.0412 -0.1104  0.4474
 2653TIP3    H129518   2.796   0.253   1.563  1.6969  0.1934  0.8040
 2653TIP3    H229519   2.809   0.377   1.476 -0.9504 -0.0641 -0.0573
 2654TIP3   OH229520   6.044   0.483   8.662  0.5218 -0.1663  0.5106
 2654TIP3    H129521   5.960   0.520   8.689 -1.7140 -2.0273 -3.1605
 2654TIP3    H229522   6.062   0.415   8.727 -1.8141 -0.9394  0.4379
 2655TIP3   OH229523   5.415   4.236   6.886  0.1950 -0.2637 -0.2248
 2655TIP3    H129524   5.425   4.166   6.951  0.2533  0.5746  0.6925
 2655TIP3    H229525   5.505   4.260   6.864  0.2657  1.5373  1.7222
 2656TIP3   OH229526   1.802   1.362   1.853  0.4126 -0.5501 -0.2035
 2656TIP3    H129527   1.746   1.377   1.929  2.7066 -0.7625  1.6469
 2656TIP3    H229528   1.743   1.329   1.786 -2.6365  4.1410 -0.2625
 2657TIP3   OH229529   1.369   0.703   7.939  0.6335  0.5741  0.0348
 2657TIP3    H129530   1.310   0.681   8.011  0.8836  2.2352  0.8014
 2657TIP3    H229531   1.453   0.663   7.964  0.4812  0.3680  0.2155
 2658TIP3   OH229532   6.297   0.124   1.895  0.0214 -0.2411  0.0653
 2658TIP3    H129533   6.311   0.179   1.972 -0.0697 -0.2079  0.0586
 2658TIP3    H229534   6.327   0.037   1.922 -1.2978 -0.5571  0.6103
 2659TIP3   OH229535   2.426   3.338   0.205  0.5336 -0.1338 -0.2614
 2659TIP3    H129536   2.426   3.389   0.123  1.0062  1.2829  0.5929
 2659TIP3    H229537   2.350   3.371   0.253  1.9468  1.2376  1.1479
 2660TIP3   OH229538   5.619   6.196   1.766  0.0844  0.1701  0.1295
 2660TIP3    H129539   5.581   6.109   1.759 -0.0988  0.0834  1.7572
 2660TIP3    H229540   5.707   6.181   1.801 -0.3087  0.6601  1.4057
 2661TIP3   OH229541   2.833   6.788   7.419 -0.2469  0.0264  0.0305
 2661TIP3    H129542   2.875   6.703   7.406 -2.4729 -1.4326  1.5597
 2661TIP3    H229543   2.748   6.779   7.376 -1.0952  0.9343  1.4378
 2662TIP3   OH229544   0.579   3.427   8.682 -0.0020 -0.5068 -0.7175
 2662TIP3    H129545   0.645   3.408   8.750  0.0310 -0.3188 -0.6976
 2662TIP3    H229546   0.510   3.475   8.728 -0.4281 -1.1967 -0.6113
 2663TIP3   OH229547   4.244   6.210   7.699 -0.7591  0.0236  0.2226
 2663TIP3    H129548   4.186   6.193   7.773 -1.6426  3.5302  0.5011
 2663TIP3    H229549   4.223   6.299   7.672  1.3097 -0.2288 -2.6770
 2664TIP3   OH229550   3.354   0.710   0.335  0.3223  0.6915  0.2527
 2664TIP3    H129551   3.389   0.634   0.382 -0.9218  0.3480  0.6630
 2664TIP3    H229552   3.282   0.675   0.283  0.8987  1.2859 -0.9980
 2665TIP3   OH229553   4.171   0.014   7.282 -0.1166 -0.4716 -0.0291
 2665TIP3    H129554   4.137  -0.026   7.362 -0.4490  0.4476  0.3140
 2665TIP3    H229555   4.262  -0.015   7.277 -0.2216 -0.8978  0.4389
 2666TIP3   OH229556   2.857   5.240   1.343  0.0681  0.2649  0.3189
 2666TIP3    H129557   2.868   5.332   1.369 -0.1834  0.3937 -0.0290
 2666TIP3    H229558   2.879   5.238   1.250 -1.1576  0.2159  0.0125
 2667TIP3   OH229559   3.649   6.223   7.694 -0.6242 -0.1392 -0.2927
 2667TIP3    H129560   3.584   6.282   7.732  0.8518  3.0632 -2.2902
 2667TIP3    H229561   3.701   6.194   7.768 -2.4350 -0.3768  0.9558
 2668TIP3   OH229562   6.553   0.814   8.450 -0.2720  0.0062 -0.0019
 2668TIP3    H129563   6.529   0.728   8.485 -1.6011  0.3984  0.1443
 2668TIP3    H229564   6.473   0.844   8.407  0.1989  1.1303 -0.1080
 2669TIP3   OH229565   0.129   1.113   1.334 -0.0109 -0.1102  0.0627
 2669TIP3    H129566   0.100   1.022   1.322  0.5224 -0.3229  0.3564
 2669TIP3    H229567   0.216   1.116   1.295  0.4043  0.0071  0.9815
 2670TIP3   OH229568   3.698   1.180   0.504 -0.2997  0.1070 -0.0606
 2670TIP3    H129569   3.654   1.188   0.420 -1.0194  1.4773  0.4164
 2670TIP3    H229570   3.752   1.259   0.511 -2.0905  1.2798  1.7666
 2671TIP3   OH229571   6.104   1.560   0.646  0.3206 -0.0240  0.4306
 2671TIP3    H129572   6.105   1.477   0.599  0.4130  0.3299 -0.2062
 2671TIP3    H229573   6.020   1.600   0.624  1.0268  0.8896 -0.8012
 2672TIP3   OH229574   3.039   1.616   1.197  0.5509 -0.3383  0.3580
 2672TIP3    H129575   3.104   1.599   1.129 -0.2014 -1.6465 -0.0766
 2672TIP3    H229576   3.021   1.529   1.234  0.7195  0.3011  2.0193
 2673TIP3   OH229577   0.983   4.014   7.488 -0.0522  0.6091  0.5509
 2673TIP3    H129578   1.054   4.026   7.551 -0.8566  0.3979  1.5042
 2673TIP3    H229579   0.904   4.041   7.534 -0.6395  0.5668 -0.4064
 2674TIP3   OH229580   0.186   1.074   7.955  0.4390 -0.1194 -0.0095
 2674TIP3    H129581   0.170   1.144   8.018 -0.4748 -0.6731  0.4080
 2674TIP3    H229582   0.142   0.998   7.993  0.2733 -0.5844 -1.0924
 2675TIP3   OH229583   3.847   0.463   6.731 -0.2407 -0.1948  0.1388
 2675TIP3    H129584   3.781   0.394   6.722  0.7337 -1.2878  1.0325
 2675TIP3    H229585   3.868   0.489   6.642 -3.1677  1.4875 -0.1708
 2676TIP3   OH229586   4.990   4.137   8.506 -0.3498 -0.0892 -0.3722
 2676TIP3    H129587   4.973   4.224   8.541  0.6703  0.4682 -1.2250
 2676TIP3    H229588   4.952   4.138   8.418 -0.1039 -0.4027 -0.4853
 2677TIP3   OH229589   4.427   5.214   0.646  0.0508  0.2487 -0.5483
 2677TIP3    H129590   4.455   5.159   0.573  1.0213 -1.1864  0.8378
 2677TIP3    H229591   4.402   5.152   0.714 -1.3771  1.5499  0.1756
 2678TIP3   OH229592   3.352   4.535   7.505 -0.5371 -0.0656  0.2835
 2678TIP3    H129593   3.424   4.486   7.466  0.1455 -0.2590  1.6976
 2678TIP3    H229594   3.331   4.603   7.442  3.4207  2.4356  1.2865
 2679TIP3   OH229595   5.489   0.422   8.341 -0.0177 -0.3828 -0.1783
 2679TIP3    H129596   5.427   0.361   8.381 -1.2083 -1.1583 -2.9797
 2679TIP3    H229597   5.575   0.383   8.356 -0.4072 -0.7332  1.3460
 2680TIP3   OH229598   4.165   4.352   6.071 -0.1082 -0.0733  0.3373
 2680TIP3    H129599   4.092   4.413   6.083  0.8265  0.7971  1.9649
 2680TIP3    H229600   4.138   4.274   6.119 -1.4075 -1.1438 -1.9406
 2681TIP3   OH229601   6.007   6.312   6.234 -0.0443 -0.2132 -0.3027
 2681TIP3    H129602   5.997   6.278   6.145  0.3526 -0.6272 -0.1932
 2681TIP3    H229603   6.062   6.248   6.278  1.0806  0.7865 -0.2135
 2682TIP3   OH229604   1.476   5.478   8.668 -1.1372 -0.2364 -0.6263
 2682TIP3    H129605   1.439   5.539   8.731  1.9769  1.7646 -0.5006
 2682TIP3    H229606   1.466   5.521   8.583  0.4497  0.2315 -0.6205
 2683TIP3   OH229607   1.437   0.349   8.034  0.3859  0.7222  0.3094
 2683TIP3    H129608   1.499   0.419   8.055  0.1831  0.9455  0.1619
 2683TIP3    H229609   1.369   0.357   8.102 -1.1517  2.4978 -1.3240
 2684TIP3   OH229610   5.527   0.542   6.388  0.0571 -0.0282 -0.5785
 2684TIP3    H129611   5.620   0.554   6.405  0.0850  0.7665 -1.2614
 2684TIP3    H229612   5.522   0.474   6.322  0.2360  0.8615 -1.5339
 2685TIP3   OH229613   1.696   2.970   1.915  0.3960 -0.2631 -0.2677
 2685TIP3    H129614   1.755   2.896   1.930  1.0719  0.1607 -0.8064
 2685TIP3    H229615   1.750   3.037   1.875 -0.3960  0.2404 -0.5284
 2686TIP3   OH229616   5.598   3.386   7.757  0.1616 -0.2334  0.3255
 2686TIP3    H129617   5.575   3.479   7.753  2.4689  0.3593 -1.3070
 2686TIP3    H229618   5.689   3.386   7.786  0.1759 -2.0052  0.3327
 2687TIP3   OH229619   1.383   1.689   7.982 -0.2726 -0.2694 -0.2661
 2687TIP3    H129620   1.336   1.677   8.064  0.9106 -0.8443  0.3608
 2687TIP3    H229621   1.442   1.613   7.977 -0.4871 -0.3547 -1.7570
 2688TIP3   OH229622   2.052   6.302   0.572  0.0197  0.1847 -0.1088
 2688TIP3    H129623   2.110   6.326   0.643 -0.9590  2.3735  0.0370
 2688TIP3    H229624   1.969   6.346   0.592 -0.7620 -0.4018 -1.7957
 2689TIP3   OH229625   6.792   0.753   0.858 -0.0046  0.1253 -0.4685
 2689TIP3    H129626   6.722   0.740   0.922  0.7715 -0.1985  0.3428
 2689TIP3    H229627   6.771   0.694   0.786 -0.3355 -0.2881 -0.0352
 2690TIP3   OH229628   0.050   2.069   2.129 -0.1204 -0.1007 -0.3943
 2690TIP3    H129629   0.089   2.151   2.098 -2.5757  2.0277  1.6471
 2690TIP3    H229630   0.115   2.033   2.189  0.1816  1.5190  0.3121
 2691TIP3   OH229631   2.617   1.015   0.463  0.1880  0.2490 -0.3488
 2691TIP3    H129632   2.681   1.046   0.400 -1.7976  2.5104 -1.4284
 2691TIP3    H229633   2.565   0.951   0.415  1.5730 -1.6346  0.5454
 2692TIP3   OH229634   4.981   5.471   8.308 -0.0557  0.4956  0.9268
 2692TIP3    H129635   4.940   5.532   8.248  1.1374  1.1530  0.7520
 2692TIP3    H229636   4.932   5.482   8.390 -1.4936 -0.1935  0.2066
 2693TIP3   OH229637   0.176   1.301   6.953  0.4194 -0.1233 -0.9075
 2693TIP3    H129638   0.164   1.332   7.043  2.2368  1.5664 -1.2092
 2693TIP3    H229639   0.147   1.209   6.957  1.3874 -0.4189  1.6414
 2694TIP3   OH229640   6.288   2.309   0.182 -0.2478 -0.0397 -0.3500
 2694TIP3    H129641   6.243   2.226   0.197  0.6201 -0.6031 -0.7233
 2694TIP3    H229642   6.317   2.337   0.268  1.7229 -1.4938 -0.4486
 2695TIP3   OH229643   3.724   3.680   8.722  0.0314  0.5539  0.1802
 2695TIP3    H129644   3.668   3.709   8.794  0.6546  0.7334  0.6013
 2695TIP3    H229645   3.685   3.598   8.692 -0.1623  0.4121  0.8064
 2696TIP3   OH229646   6.750   2.807   7.403  0.7199  0.2814 -0.5678
 2696TIP3    H129647   6.748   2.816   7.498  0.8322 -2.0792 -0.2833
 2696TIP3    H229648   6.739   2.713   7.388  0.4142  0.6480 -2.9059
 2697TIP3   OH229649   2.923   0.487   8.241 -0.4034 -0.6536 -0.5493
 2697TIP3    H129650   2.959   0.399   8.243 -0.9038 -0.8511 -0.1168
 2697TIP3    H229651   2.898   0.501   8.149  3.0375  0.4418 -1.4965
 2698TIP3   OH229652   3.748   3.536   0.463 -0.0305  0.0586  0.0640
 2698TIP3    H129653   3.808   3.611   0.467  0.4494 -0.3318  0.4557
 2698TIP3    H229654   3.762   3.498   0.376 -0.1414  0.3210 -0.0670
 2699TIP3   OH229655   2.748   6.142   8.053  0.0506  0.0212  0.0390
 2699TIP3    H129656   2.727   6.107   7.967  2.7026  0.9061 -1.0620
 2699TIP3    H229657   2.668   6.188   8.080 -1.2820 -1.3947 -1.3074
 2700TIP3   OH229658   2.001   3.800   0.231  0.0398  0.4806 -0.7591
 2700TIP3    H129659   1.961   3.713   0.235  1.3365 -0.0980  0.2947
 2700TIP3    H229660   2.058   3.797   0.154  0.9197  0.0085 -0.1006
 2701TIP3   OH229661   1.994   2.135   8.498  0.3483 -0.7252  1.0085
 2701TIP3    H129662   1.992   2.185   8.580 -0.3707  1.1748 -0.1037
 2701TIP3    H229663   1.945   2.189   8.436  1.4787 -1.7526 -0.8734
 2702TIP3   OH229664   0.088   2.625   7.156  0.4496 -0.3531  0.3057
 2702TIP3    H129665   0.136   2.548   7.127  1.3828 -0.0512  1.0124
 2702TIP3    H229666   0.108   2.633   7.249 -0.2200  0.3251  0.4039
 2703TIP3   OH229667   5.529   1.909   6.529  0.1359  0.8312 -0.4993
 2703TIP3    H129668   5.489   1.924   6.443  1.5250  2.7046 -0.8833
 2703TIP3    H229669   5.499   1.984   6.582 -0.7465 -0.3263  0.6922
 2704TIP3   OH229670   3.564   1.316   7.510  0.0505 -0.2270  0.1329
 2704TIP3    H129671   3.619   1.303   7.588 -0.4875 -1.6386  0.3034
 2704TIP3    H229672   3.627   1.322   7.438  0.4706 -1.0278  0.4229
 2705TIP3   OH229673   5.809   2.657   7.110  0.3908  0.4444  0.5115
 2705TIP3    H129674   5.749   2.592   7.073 -0.5668  0.9174  1.1964
 2705TIP3    H229675   5.800   2.733   7.053  0.2984  0.5282  0.6361
 2706TIP3   OH229676   2.801   3.565   2.032  0.5599 -0.1861 -0.6325
 2706TIP3    H129677   2.759   3.586   1.948  0.3785  0.4442 -0.3883
 2706TIP3    H229678   2.807   3.470   2.032  1.5616 -0.1471 -1.8501
 2707TIP3   OH229679   1.487   1.415   0.645 -0.5872 -0.2901 -0.1464
 2707TIP3    H129680   1.495   1.326   0.679 -1.6793  0.4192  2.1455
 2707TIP3    H229681   1.576   1.448   0.640 -0.3613 -0.2825  2.6550
 2708TIP3   OH229682   4.049   6.307   8.358 -0.5980  0.5793  0.1984
 2708TIP3    H129683   4.111   6.348   8.418 -1.9676  1.3462  1.1338
 2708TIP3    H229684   4.086   6.221   8.341  2.0967  1.9423 -1.4302
 2709TIP3   OH229685   4.549   3.443   1.687  0.0555 -0.0512 -0.0863
 2709TIP3    H129686   4.458   3.462   1.663  0.5889  0.5008 -1.8813
 2709TIP3    H229687   4.543   3.391   1.767 -1.7414  2.0636  1.2722
 2710TIP3   OH229688   3.459   3.583   1.226  0.1686  0.3189  0.6064
 2710TIP3    H129689   3.512   3.546   1.297 -0.9225  1.0571  1.8379
 2710TIP3    H229690   3.518   3.645   1.183  0.8694 -0.1975  0.7884
 2711TIP3   OH229691   0.185   4.207   0.342 -0.6024  0.1515  0.0392
 2711TIP3    H129692   0.101   4.252   0.349 -0.7461  0.0826 -1.0787
 2711TIP3    H229693   0.208   4.214   0.250  0.3601 -0.3065  0.2352
 2712TIP3   OH229694   2.093   1.193   2.317  0.3070 -0.1087 -0.2275
 2712TIP3    H129695   2.027   1.217   2.382  0.5936 -0.4278  0.1855
 2712TIP3    H229696   2.122   1.277   2.282  0.9791  0.1543  0.8929
 2713TIP3   OH229697   4.618   0.040   0.177 -0.4174  0.0435 -0.2356
 2713TIP3    H129698   4.677   0.115   0.185 -1.2362  1.0102 -2.4040
 2713TIP3    H229699   4.550   0.056   0.242  1.1425 -0.6189  1.6541
 2714TIP3   OH229700   2.608   1.553   0.313 -0.2003 -0.6607 -0.1535
 2714TIP3    H129701   2.553   1.480   0.283 -0.5602 -0.3339 -0.3038
 2714TIP3    H229702   2.561   1.589   0.389 -0.8487  0.3878 -1.0126
 2715TIP3   OH229703   2.766   2.832   1.945 -0.0897  0.8894  0.1347
 2715TIP3    H129704   2.699   2.768   1.967  0.3844  0.1486 -0.5048
 2715TIP3    H229705   2.719   2.902   1.900 -0.3649  0.0526 -0.9357
 2716TIP3   OH229706   3.271   1.778   0.901 -0.3754  1.1024  0.3359
 2716TIP3    H129707   3.237   1.690   0.920 -1.0044  0.8955 -1.5584
 2716TIP3    H229708   3.311   1.770   0.815  0.6607  2.4139  0.6567
 2717TIP3   OH229709   3.571   6.694   0.811 -0.3333 -0.1793  0.3586
 2717TIP3    H129710   3.485   6.691   0.770  0.6101  2.4372 -2.1475
 2717TIP3    H229711   3.568   6.771   0.868  0.0289 -0.7366  1.1511
 2718TIP3   OH229712   3.445   4.378   1.435 -0.3498 -0.2940  0.6870
 2718TIP3    H129713   3.402   4.315   1.377  0.7645 -1.1189  0.7216
 2718TIP3    H229714   3.380   4.396   1.503 -0.4801 -1.9533  1.0661
 2719TIP3   OH229715   1.119   1.318   0.900 -0.3096  0.4495  0.1963
 2719TIP3    H129716   1.188   1.384   0.907  0.4571 -0.2667 -0.4484
 2719TIP3    H229717   1.103   1.291   0.991 -1.7952  2.6376  0.6654
 2720TIP3   OH229718   1.619   2.692   7.663 -0.0759  0.3244  0.0582
 2720TIP3    H129719   1.655   2.636   7.732 -0.3614 -0.3155 -0.3048
 2720TIP3    H229720   1.593   2.631   7.593 -0.8070  0.8695 -0.1602
 2721TIP3   OH229721   3.365   1.625   0.321  0.2595 -0.3168 -0.3769
 2721TIP3    H129722   3.438   1.572   0.288 -0.3538 -1.3423 -0.1448
 2721TIP3    H229723   3.392   1.716   0.306  2.2214 -0.6011  1.0233
 2722TIP3   OH229724   3.117   5.973   1.272  0.1950  0.1763 -0.3209
 2722TIP3    H129725   3.087   5.884   1.258  0.5438  0.2171 -1.4163
 2722TIP3    H229726   3.082   6.022   1.198  0.7125  0.7718 -0.1856
 2723TIP3   OH229727   3.738   5.227   7.130 -0.0185 -0.1652  0.0230
 2723TIP3    H129728   3.795   5.302   7.110 -0.7763  0.4632  0.1995
 2723TIP3    H229729   3.658   5.244   7.081 -0.3229 -0.7041  0.3243
 2724TIP3   OH229730   5.872   6.792   7.825 -0.0178 -0.3805 -0.3158
 2724TIP3    H129731   5.930   6.807   7.900 -0.3900 -1.2592  0.1650
 2724TIP3    H229732   5.784   6.811   7.859 -0.0717  0.4898 -0.9117
 2725TIP3   OH229733   4.845   2.665   1.068  0.0056  0.2392 -0.1695
 2725TIP3    H129734   4.776   2.726   1.094  0.5121  0.2678  1.1949
 2725TIP3    H229735   4.800   2.581   1.058 -0.3649  0.4274 -0.1116
 2726TIP3   OH229736   2.701   0.661   2.279 -0.4821  0.5666 -0.3158
 2726TIP3    H129737   2.703   0.659   2.375  2.8360 -2.1010 -0.2534
 2726TIP3    H229738   2.630   0.602   2.255  1.6658 -2.7558  0.7405
 2727TIP3   OH229739   5.970   5.161   1.793  0.0666 -0.1171  0.6745
 2727TIP3    H129740   5.886   5.130   1.827 -0.7830  1.0682 -0.2635
 2727TIP3    H229741   6.010   5.083   1.753  0.2730 -1.1072  2.7085
 2728TIP3   OH229742   0.564   6.029   8.055 -0.6098 -0.2406 -0.2045
 2728TIP3    H129743   0.489   5.986   8.014 -0.5157  0.5073 -1.1813
 2728TIP3    H229744   0.624   5.957   8.077 -0.0077 -0.5966 -2.7099
 2729TIP3   OH229745   5.014   4.741   1.339 -0.4078 -0.4149 -0.0822
 2729TIP3    H129746   4.969   4.752   1.423 -1.8758 -1.6243 -0.6607
 2729TIP3    H229747   5.093   4.691   1.361  0.0762  0.6971  0.7853
 2730TIP3   OH229748   2.745   5.329   0.481  0.6320 -0.2881  0.3827
 2730TIP3    H129749   2.808   5.329   0.409  1.9387 -1.1202  1.4690
 2730TIP3    H229750   2.761   5.411   0.527  1.4608 -0.7997  1.0575
 2731TIP3   OH229751   5.843   1.614   0.519  0.4235  0.2037 -0.3302
 2731TIP3    H129752   5.760   1.663   0.515  0.7479  0.7314 -0.8478
 2731TIP3    H229753   5.817   1.523   0.510 -0.1701  0.2957  0.3219
 2732TIP3   OH229754   3.186   1.492   0.939 -0.1544  0.3892 -0.7133
 2732TIP3    H129755   3.259   1.434   0.960 -0.5453  0.2947  0.4178
 2732TIP3    H229756   3.109   1.435   0.937 -0.7405  0.9960  1.6126
 2733TIP3   OH229757   5.316   3.762   7.332 -0.2157  0.3664  0.6905
 2733TIP3    H129758   5.404   3.727   7.347 -0.4244 -0.7984 -0.6345
 2733TIP3    H229759   5.329   3.857   7.329  0.5067  0.4527  3.4044
 2734TIP3   OH229760   4.166   0.755   7.133 -0.2969  0.4763 -0.1903
 2734TIP3    H129761   4.100   0.823   7.146 -1.1204 -0.4352  0.5101
 2734TIP3    H229762   4.173   0.712   7.218  0.1521 -0.3769 -0.6496
 2735TIP3   OH229763   2.944   0.814   1.619  0.2792  0.3640 -0.6976
 2735TIP3    H129764   2.959   0.719   1.620  0.2309  0.3607 -0.3804
 2735TIP3    H229765   2.922   0.836   1.709 -0.2504  0.5884 -0.8773
 2736TIP3   OH229766   2.079   6.752   7.753  0.3774 -0.7666 -0.3037
 2736TIP3    H129767   1.989   6.786   7.751  0.9993  0.9818  0.1572
 2736TIP3    H229768   2.077   6.683   7.819 -0.0488  1.0917  1.7382
 2737TIP3   OH229769   1.508   0.499   7.655  0.4257  0.1466  0.3778
 2737TIP3    H129770   1.535   0.413   7.689  0.4874 -0.2898 -0.7485
 2737TIP3    H229771   1.424   0.483   7.613  0.4340  0.6361  0.1708
 2738TIP3   OH229772   5.195   4.317   1.892 -0.2273 -0.1020  0.1901
 2738TIP3    H129773   5.115   4.286   1.934 -0.1463  1.5177  1.6647
 2738TIP3    H229774   5.265   4.294   1.952  0.1340  0.4643  0.0000
 2739TIP3   OH229775   2.388   6.766   6.336  0.1623 -0.1310  0.4497
 2739TIP3    H129776   2.299   6.757   6.371 -0.5481  2.9965 -0.2227
 2739TIP3    H229777   2.381   6.737   6.245  0.1977 -1.1507  0.7573
 2740TIP3   OH229778   4.173   0.358   8.249  0.2212  0.0153 -0.7604
 2740TIP3    H129779   4.103   0.423   8.249 -0.6433 -0.8986 -0.8798
 2740TIP3    H229780   4.242   0.397   8.195  0.1385  1.2549 -0.0276
 2741TIP3   OH229781   2.312   1.038   0.607 -0.4572 -0.2498  0.2021
 2741TIP3    H129782   2.384   1.096   0.579 -0.7955 -0.0207 -0.2092
 2741TIP3    H229783   2.268   1.014   0.525 -0.7601 -0.5114  0.4398
 2742TIP3   OH229784   5.051   3.928   7.868 -0.1774  0.1028 -0.0086
 2742TIP3    H129785   5.052   3.841   7.907 -2.1498  0.2565  0.4752
 2742TIP3    H229786   5.058   3.913   7.774  0.9815 -0.4627  0.1455
 2743TIP3   OH229787   6.382   3.347   1.358 -0.0438 -0.0941  0.1991
 2743TIP3    H129788   6.331   3.284   1.307  0.6316 -0.9105  0.5142
 2743TIP3    H229789   6.318   3.392   1.412 -0.5664 -0.3125 -0.2276
 2744TIP3   OH229790   6.374   3.655   0.709  0.4436  0.2665  0.6059
 2744TIP3    H129791   6.460   3.614   0.702  1.3286  1.8312  1.6939
 2744TIP3    H229792   6.376   3.725   0.644  0.0170  0.3534  0.6866
 2745TIP3   OH229793   2.186   0.492   1.488 -0.2618 -0.6665  0.0774
 2745TIP3    H129794   2.191   0.442   1.570  1.6884 -0.3358  0.2244
 2745TIP3    H229795   2.140   0.435   1.427 -1.1542 -1.1913  1.2245
 2746TIP3   OH229796   5.291   1.892   1.722 -0.1385 -0.0934  0.6106
 2746TIP3    H129797   5.310   1.823   1.785  1.3816  0.1817  0.4780
 2746TIP3    H229798   5.356   1.959   1.739 -0.8095  0.7583 -0.1045
 2747TIP3   OH229799   4.544   0.722   6.577 -0.1875 -0.0276 -0.0791
 2747TIP3    H129800   4.476   0.655   6.588  0.6555 -0.7369  1.0806
 2747TIP3    H229801   4.495   0.804   6.574 -1.1098 -0.4642  1.3480
 2748TIP3   OH229802   2.569   6.626   0.573 -0.0571  0.4856 -0.0491
 2748TIP3    H129803   2.503   6.679   0.617  1.8198  1.2310  2.0335
 2748TIP3    H229804   2.519   6.571   0.513 -2.3480  2.4120 -0.0432
 2749TIP3   OH229805   4.467   1.799   7.807  0.2764  0.0650  0.2358
 2749TIP3    H129806   4.437   1.763   7.891  3.1814  0.7162  1.7124
 2749TIP3    H229807   4.422   1.883   7.800 -0.9080 -0.5312  0.5169
 2750TIP3   OH229808   0.279   0.110   0.259  0.2671 -0.7009  0.2993
 2750TIP3    H129809   0.245   0.185   0.309 -0.3230 -1.1918  0.6454
 2750TIP3    H229810   0.311   0.149   0.177  1.3417  0.1322  1.0744
 2751TIP3   OH229811   3.451   5.082   0.928 -0.2972 -0.4418 -0.4170
 2751TIP3    H129812   3.357   5.099   0.926 -0.5595 -1.7952 -0.2236
 2751TIP3    H229813   3.461   5.010   0.990  0.9315  0.0317 -0.0307
 2752TIP3   OH229814   5.795   4.056   7.512 -0.1182 -0.4050  0.0030
 2752TIP3    H129815   5.826   4.099   7.433 -1.8724 -0.9800 -1.0631
 2752TIP3    H229816   5.785   3.964   7.488 -0.2290 -0.6859  1.0472
 2753TIP3   OH229817   2.546   1.577   8.744  0.5203  0.6070 -0.2241
 2753TIP3    H129818   2.455   1.596   8.721  0.3696  0.2169  0.0317
 2753TIP3    H229819   2.549   1.481   8.751  1.0251  0.5972 -0.5397
 2754TIP3   OH229820   3.059   5.979   1.819  0.1187 -0.3660 -0.1040
 2754TIP3    H129821   3.134   5.941   1.772  0.3012  1.5609 -1.4928
 2754TIP3    H229822   2.991   5.988   1.752 -0.5067  0.1129  0.5802
 2755TIP3   OH229823   4.824   2.031   0.021  0.4065 -0.7123 -0.0570
 2755TIP3    H129824   4.793   2.001   0.106 -2.8078 -0.9463 -1.1576
 2755TIP3    H229825   4.839   2.125   0.032  1.6977 -1.0160  1.1181
 2756TIP3   OH229826   1.341   5.443   0.394 -0.5393 -0.0296  0.1355
 2756TIP3    H129827   1.259   5.493   0.403 -0.1643  0.4678  0.8458
 2756TIP3    H229828   1.409   5.503   0.423 -0.1106 -1.0887  1.4201
 2757TIP3   OH229829   5.936   1.812   1.208 -0.6290 -0.8237  0.2096
 2757TIP3    H129830   5.962   1.724   1.235 -0.8612 -1.2551 -0.9045
 2757TIP3    H229831   6.018   1.855   1.186 -0.5595 -0.9556  0.2072
 2758TIP3   OH229832   2.809   4.917   7.933  0.2240  0.5882  0.1336
 2758TIP3    H129833   2.743   4.987   7.933  0.1342  0.5298 -1.1962
 2758TIP3    H229834   2.757   4.836   7.937  0.3039  0.5765  1.0628
 2759TIP3   OH229835   2.556   2.592   8.113 -0.3698  0.0939  0.5160
 2759TIP3    H129836   2.517   2.659   8.169  0.4295  0.7732  0.2832
 2759TIP3    H229837   2.516   2.605   8.028  0.1929  0.6640  0.3273
 2760TIP3   OH229838   1.572   1.197   8.020 -0.0112  0.0093  0.8170
 2760TIP3    H129839   1.624   1.158   7.950 -0.9701  1.3174 -0.7099
 2760TIP3    H229840   1.487   1.154   8.014 -0.4899  0.9906  0.3248
 2761TIP3   OH229841   6.189   6.645   1.656 -0.3065 -0.5240  0.1901
 2761TIP3    H129842   6.095   6.661   1.661 -0.1081  0.2892  2.1270
 2761TIP3    H229843   6.208   6.643   1.562 -2.1649 -0.2579 -0.2289
 2762TIP3   OH229844   1.818   2.330   1.504  0.3529 -0.1493  0.8943
 2762TIP3    H129845   1.856   2.301   1.587 -0.3636 -1.1287  0.8943
 2762TIP3    H229846   1.737   2.374   1.529  1.3708  1.8722  0.8864
 2763TIP3   OH229847   1.022   0.618   1.491  0.0544  0.1855  0.4383
 2763TIP3    H129848   1.064   0.685   1.544 -1.8948  1.1768  0.8114
 2763TIP3    H229849   0.945   0.661   1.455 -2.0023 -2.1535  1.7297
 2764TIP3   OH229850   2.129   5.082   0.887 -0.2087 -0.1540  0.4329
 2764TIP3    H129851   2.155   5.115   0.973 -0.7295  1.7773 -0.1000
 2764TIP3    H229852   2.212   5.062   0.843  0.0957 -0.2915  1.0564
 2765TIP3   OH229853   6.199   2.919   7.078 -0.0783 -0.3337  0.5018
 2765TIP3    H129854   6.142   2.896   7.005  0.8258 -1.1244  0.0242
 2765TIP3    H229855   6.140   2.952   7.145 -0.9869 -0.1991 -0.3476
 2766TIP3   OH229856   6.383   1.691   7.867 -0.3546  0.2678  0.2780
 2766TIP3    H129857   6.430   1.774   7.853  0.8594 -0.3319  0.5926
 2766TIP3    H229858   6.451   1.624   7.856 -0.6291 -0.5422  2.8996
 2767TIP3   OH229859   6.576   0.551   5.966 -0.6141  0.2726  0.0324
 2767TIP3    H129860   6.539   0.520   6.048 -0.6186  1.9887  0.7264
 2767TIP3    H229861   6.608   0.472   5.922 -0.5252 -0.6747  1.7226
 2768TIP3   OH229862   6.105   3.219   7.083  0.2002  0.0415 -0.0026
 2768TIP3    H129863   6.036   3.264   7.034 -1.7124 -1.4688  1.1861
 2768TIP3    H229864   6.092   3.248   7.174  2.0585  0.8044  0.0636
 2769TIP3   OH229865   3.164   2.896   7.321  0.8186  0.2122  0.0801
 2769TIP3    H129866   3.250   2.884   7.281  1.1392  0.3487  0.7166
 2769TIP3    H229867   3.179   2.887   7.415  0.2569  0.8948  0.2479
 2770TIP3   OH229868   5.768   4.184   7.012  0.2424 -1.3701  0.0009
 2770TIP3    H129869   5.690   4.163   7.063  0.4035 -0.0648  0.8309
 2770TIP3    H229870   5.837   4.197   7.078  0.9386 -1.6028 -0.6658
 2771TIP3   OH229871   5.505   0.993   7.413 -0.0908 -0.5051 -0.6109
 2771TIP3    H129872   5.431   1.052   7.400 -2.0741 -2.4535  1.0881
 2771TIP3    H229873   5.573   1.049   7.451 -0.6472  1.3273 -2.1515
 2772TIP3   OH229874   5.839   3.440   7.870 -0.4685  0.3390 -0.1686
 2772TIP3    H129875   5.921   3.402   7.901 -1.6148 -0.5485  1.9903
 2772TIP3    H229876   5.841   3.531   7.901  0.2738  0.7592 -1.3676
 2773TIP3   OH229877   3.242   0.545   8.226  0.4706 -0.0549  0.9879
 2773TIP3    H129878   3.187   0.481   8.271  1.1253  0.5594  2.7870
 2773TIP3    H229879   3.206   0.630   8.253 -0.2533  0.3713 -1.1873
 2774TIP3   OH229880   4.158   5.662   0.547  0.6625  0.0558  0.5853
 2774TIP3    H129881   4.178   5.708   0.466  0.8331 -0.1660  0.5001
 2774TIP3    H229882   4.190   5.721   0.616 -0.2002  0.6092  0.5330
 2775TIP3   OH229883   3.917   5.099   0.637  0.2097 -0.1866 -0.1069
 2775TIP3    H129884   3.884   5.033   0.697 -0.6084  0.4465  0.1577
 2775TIP3    H229885   4.005   5.068   0.612 -0.4319 -1.7120 -0.5568
 2776TIP3   OH229886   6.024   1.191   6.383 -0.4134 -0.3070 -0.7168
 2776TIP3    H129887   6.049   1.202   6.475 -0.5321 -0.7611 -0.6282
 2776TIP3    H229888   6.088   1.129   6.348 -1.2665 -1.3095 -0.5434
 2777TIP3   OH229889   2.727   5.896   7.316  0.8969  0.1732 -0.5557
 2777TIP3    H129890   2.693   5.869   7.231  1.2773  0.3833 -0.7783
 2777TIP3    H229891   2.819   5.869   7.315  1.4119  1.8302 -0.9572
 2778TIP3   OH229892   2.296   0.108   7.296 -0.2336  0.2017  0.4303
 2778TIP3    H129893   2.335   0.072   7.216 -0.3220 -0.0519  0.5006
 2778TIP3    H229894   2.202   0.102   7.281 -0.2741  1.8909 -0.2274
 2779TIP3   OH229895   1.448   0.583   1.909  0.1169  0.0857  0.0460
 2779TIP3    H129896   1.374   0.571   1.969 -0.5669 -0.6223 -0.9030
 2779TIP3    H229897   1.496   0.657   1.946 -0.4360 -0.1420  1.3017
 2780TIP3   OH229898   6.682   1.394   8.373 -0.1644  0.1966  0.3395
 2780TIP3    H129899   6.744   1.382   8.445  0.0354 -0.9252  0.0026
 2780TIP3    H229900   6.627   1.315   8.376 -1.8045  1.3026  0.8312
 2781TIP3   OH229901   0.442   2.702   1.184  0.2627 -0.0496  0.7744
 2781TIP3    H129902   0.531   2.692   1.220  0.0850  1.9061  1.8774
 2781TIP3    H229903   0.452   2.765   1.113  0.2360 -2.2969 -1.3783
 2782TIP3   OH229904   5.539   4.183   7.603  0.3831 -0.0004  0.2318
 2782TIP3    H129905   5.461   4.135   7.576 -0.4746  0.8843  1.0808
 2782TIP3    H229906   5.612   4.131   7.569 -0.5255 -1.6656  0.7234
 2783TIP3   OH229907   2.000   0.921   1.577  0.2517 -0.0889  0.0595
 2783TIP3    H129908   2.013   0.828   1.597 -1.3604 -0.4432 -0.4214
 2783TIP3    H229909   1.918   0.943   1.620  0.2639  0.9363 -0.4279
 2784TIP3   OH229910   0.553   6.446   7.941  0.0529  0.4699 -0.6008
 2784TIP3    H129911   0.460   6.466   7.946  0.1405  1.0490 -1.1059
 2784TIP3    H229912   0.562   6.393   7.861 -0.2010 -1.8317  0.8047
 2785TIP3   OH229913   6.284   4.099   0.386 -0.1505  0.5364  0.6024
 2785TIP3    H129914   6.234   4.169   0.345  0.1396 -0.1803 -1.0358
 2785TIP3    H229915   6.225   4.062   0.451 -0.9233  1.1727  0.2753
 2786TIP3   OH229916   4.502   5.692   7.716  0.2864  0.0023 -0.5568
 2786TIP3    H129917   4.434   5.757   7.730  0.2591 -0.3042  0.8754
 2786TIP3    H229918   4.574   5.719   7.773  1.4008  0.3117 -2.0172
 2787TIP3   OH229919   2.296   3.159   0.747 -0.1068  0.9353  0.3594
 2787TIP3    H129920   2.349   3.082   0.768 -1.0463 -0.3999 -1.7201
 2787TIP3    H229921   2.326   3.227   0.807  2.0860 -0.5082  1.0240
 2788TIP3   OH229922   2.767   6.427   0.672 -0.1995 -0.1206 -0.3837
 2788TIP3    H129923   2.751   6.516   0.703 -0.5173  0.1047 -1.1521
 2788TIP3    H229924   2.680   6.392   0.654 -0.1043 -0.7513  0.3288
 2789TIP3   OH229925   3.885   3.530   8.394 -0.7379  0.1168  0.1380
 2789TIP3    H129926   3.962   3.476   8.372 -1.5664 -0.3387 -1.9307
 2789TIP3    H229927   3.811   3.470   8.388 -1.3719  0.7847  1.0568
 2790TIP3   OH229928   1.954   0.647   7.711  0.0103  0.3533  0.1666
 2790TIP3    H129929   1.883   0.637   7.647  0.4342  2.5857 -0.7179
 2790TIP3    H229930   2.033   0.659   7.659  0.3523  2.3144  1.0370
 2791TIP3   OH229931   1.824   2.695   0.800  1.0519 -0.5619 -0.1112
 2791TIP3    H129932   1.844   2.765   0.738 -1.5943 -0.2475 -0.7160
 2791TIP3    H229933   1.841   2.614   0.750  0.9573 -0.3241 -0.5337
 2792TIP3   OH229934   3.366   5.255   8.033  0.6514  0.2686  0.1396
 2792TIP3    H129935   3.324   5.212   8.107  1.5736 -0.1853  0.4121
 2792TIP3    H229936   3.304   5.244   7.961  0.0686  0.0791  0.6601
 2793TIP3   OH229937   3.522   5.791   7.781  0.0226  0.8205 -0.6776
 2793TIP3    H129938   3.613   5.811   7.802  0.5541 -0.3470 -1.7533
 2793TIP3    H229939   3.527   5.720   7.717 -1.6680  0.0782 -0.0390
 2794TIP3   OH229940   5.428   2.282   7.868  0.3274  0.2848 -0.4905
 2794TIP3    H129941   5.367   2.344   7.908 -1.2695 -0.3793 -1.8169
 2794TIP3    H229942   5.383   2.249   7.791  1.0702 -2.6254  0.1967
 2795TIP3   OH229943   1.120   1.341   7.857 -0.1150  0.2797  0.1885
 2795TIP3    H129944   1.134   1.433   7.880  0.1106  0.3955 -0.3969
 2795TIP3    H229945   1.076   1.303   7.933 -1.4157  1.1863 -0.0914
 2796TIP3   OH229946   1.419   6.018   7.480 -0.1445 -0.3081 -0.8597
 2796TIP3    H129947   1.426   5.985   7.570  3.8490 -0.2263 -0.9587
 2796TIP3    H229948   1.376   5.947   7.432 -1.4179 -0.7754  0.8801
 2797TIP3   OH229949   4.764   0.843   0.320 -0.2391 -0.2577  0.0062
 2797TIP3    H129950   4.823   0.906   0.279  1.6904 -3.0635 -1.8331
 2797TIP3    H229951   4.809   0.815   0.399 -1.3931  1.0026  1.1782
 2798TIP3   OH229952   6.499   2.046   7.999 -0.5628 -0.2601 -0.1628
 2798TIP3    H129953   6.481   2.130   7.957 -1.8155 -0.2315  0.3651
 2798TIP3    H229954   6.591   2.051   8.025 -0.8293  1.3208  0.6355
 2799TIP3   OH229955   2.388   5.655   7.287  0.0743  0.0792  0.5461
 2799TIP3    H129956   2.322   5.668   7.355  0.1817 -0.5011  0.7631
 2799TIP3    H229957   2.438   5.579   7.317 -1.1139 -1.4504 -1.1430
 2800TIP3   OH229958   1.338   4.850   2.328  0.3230  0.1668  0.0637
 2800TIP3    H129959   1.309   4.940   2.310 -0.1273  0.0498  0.1906
 2800TIP3    H229960   1.433   4.857   2.340  0.1997  0.7400  0.7711
 2801TIP3   OH229961   5.852   2.196   0.566 -0.1511  0.1640 -0.0890
 2801TIP3    H129962   5.903   2.277   0.563 -1.1393  0.8079  0.1847
 2801TIP3    H229963   5.836   2.181   0.659 -0.5921  0.0486 -0.1813
 2802TIP3   OH229964   6.068   0.634   7.130 -0.4086 -0.3005 -0.2278
 2802TIP3    H129965   6.111   0.669   7.052  1.7615 -0.3855  0.8677
 2802TIP3    H229966   6.052   0.542   7.110 -0.3025 -0.2081 -0.7432
 2803TIP3   OH229967   6.523   0.580   1.293 -0.2410 -0.0053  0.5311
 2803TIP3    H129968   6.460   0.514   1.321  0.8780 -1.4828 -0.2227
 2803TIP3    H229969   6.586   0.585   1.365  0.3356 -0.6849  0.0875
 2804TIP3   OH229970   5.328   5.873   8.488 -0.3913 -0.1115  1.0230
 2804TIP3    H129971   5.263   5.915   8.432  1.0086  2.7863  1.3743
 2804TIP3    H229972   5.310   5.780   8.480 -1.7997  0.3009 -2.3119
 2805TIP3   OH229973   2.322   0.926   0.111 -0.3375  0.6000  0.0701
 2805TIP3    H129974   2.264   0.878   0.052 -0.9609 -1.1573  1.9598
 2805TIP3    H229975   2.277   1.009   0.127 -0.1432  1.1245 -1.8317
 2806TIP3   OH229976   4.299   5.797   1.021 -0.2999  0.1892  0.2340
 2806TIP3    H129977   4.380   5.847   1.032  0.4549 -1.0799  0.6391
 2806TIP3    H229978   4.296   5.739   1.097 -0.7674 -0.8889 -0.5855
 2807TIP3   OH229979   0.439   1.267   6.720  0.7207 -0.0872 -0.4651
 2807TIP3    H129980   0.387   1.342   6.689 -0.6411 -0.7107  0.2061
 2807TIP3    H229981   0.517   1.307   6.757 -0.6701  1.2094  1.2933
 2808TIP3   OH229982   1.630   3.175   1.366  0.0261 -0.0648  0.1773
 2808TIP3    H129983   1.635   3.108   1.298  0.2396 -0.1265  0.2562
 2808TIP3    H229984   1.721   3.200   1.383 -0.1200  1.6487 -1.2637
 2809TIP3   OH229985   2.899   1.358   1.208  0.2711 -0.3690  0.6267
 2809TIP3    H129986   2.816   1.381   1.167  0.6560 -0.0187  0.0227
 2809TIP3    H229987   2.959   1.345   1.135  1.3032  1.4956  1.0707
 2810TIP3   OH229988   1.097   3.123   1.501 -0.1939 -0.1491 -0.4813
 2810TIP3    H129989   1.096   3.185   1.428  1.0188  1.4821  0.8163
 2810TIP3    H229990   1.186   3.089   1.503 -0.3538 -0.5522 -0.0392
 2811TIP3   OH229991   0.899   4.512   0.734  0.1291 -0.1326  0.2693
 2811TIP3    H129992   0.911   4.456   0.811 -0.8176 -0.0266  0.5081
 2811TIP3    H229993   0.817   4.482   0.695 -0.0556  0.6573  0.0311
 2812TIP3   OH229994   0.927   0.912   7.179 -0.2026 -0.0474 -0.1072
 2812TIP3    H129995   0.963   0.953   7.101 -0.0695 -0.4959 -0.2893
 2812TIP3    H229996   0.956   0.967   7.251 -1.5786  1.2191 -0.4825
 2813TIP3   OH229997   5.649   2.495   7.486  0.1039 -0.0162 -0.4570
 2813TIP3    H129998   5.623   2.585   7.471  0.0176  0.2741  1.2469
 2813TIP3    H229999   5.646   2.484   7.581  1.1356 -1.5002 -0.5520
 2814TIP3   OH230000   0.455   5.429   7.917 -0.3079  0.0273 -0.0691
 2814TIP3    H130001   0.434   5.348   7.964 -2.4521 -0.4166 -1.6642
 2814TIP3    H230002   0.374   5.454   7.873  1.2993  0.9139 -2.7796
 2815TIP3   OH230003   2.299   6.453   1.950  0.6268 -1.2575 -0.3537
 2815TIP3    H130004   2.298   6.546   1.927 -0.9531 -1.4231 -1.0812
 2815TIP3    H230005   2.227   6.415   1.899  1.5950 -2.9932 -0.5009
 2816TIP3   OH230006   6.734   6.153   0.489 -0.4007  0.1207 -0.7372
 2816TIP3    H130007   6.694   6.240   0.477 -0.0174  0.3890 -0.1257
 2816TIP3    H230008   6.793   6.143   0.415 -0.2961  0.4706 -0.7016
 2817TIP3   OH230009   3.667   3.366   8.320 -0.0573  0.5784  0.6104
 2817TIP3    H130010   3.577   3.397   8.327  0.1013  1.1514  0.2435
 2817TIP3    H230011   3.684   3.322   8.403 -0.5597  0.7849  0.8274
 2818TIP3   OH230012   3.589   0.685   1.645 -0.0972  0.1192  0.3152
 2818TIP3    H130013   3.667   0.691   1.701  0.9927 -0.1350 -1.0908
 2818TIP3    H230014   3.595   0.762   1.587 -0.2658 -0.4866 -0.5361
 2819TIP3   OH230015   0.340   2.032   6.604  0.5794  0.3755 -0.9821
 2819TIP3    H130016   0.325   1.945   6.641  0.3699 -0.2160 -2.4036
 2819TIP3    H230017   0.252   2.066   6.586  0.5999  1.4104  0.6829
 2820TIP3   OH230018   3.340   5.537   0.755  0.3776  0.7900 -0.0532
 2820TIP3    H130019   3.369   5.447   0.738  0.0756  0.0493  2.8300
 2820TIP3    H230020   3.419   5.589   0.743  0.8707 -0.0358 -0.5413
 2821TIP3   OH230021   5.943   1.060   0.062 -0.6464  0.2788 -0.2080
 2821TIP3    H130022   5.972   1.125  -0.002  1.6019  0.7786  1.1994
 2821TIP3    H230023   6.001   0.985   0.049 -0.8476 -0.0159  0.5299
 2822TIP3   OH230024   1.145   1.027   0.359  0.1769 -0.0687 -0.9194
 2822TIP3    H130025   1.168   0.989   0.444  1.9403 -0.5062 -1.5420
 2822TIP3    H230026   1.063   1.074   0.375  0.6845  0.2351  1.1242
 2823TIP3   OH230027   5.333   2.599   1.455  0.0334 -0.1426  0.0491
 2823TIP3    H130028   5.345   2.664   1.386  1.1168  0.4659  0.7822
 2823TIP3    H230029   5.378   2.521   1.421  0.4002  0.0942 -0.0226
 2824TIP3   OH230030   2.515   1.174   1.084 -0.5073 -0.9560  0.8497
 2824TIP3    H130031   2.554   1.173   0.996 -0.5016 -1.3438  0.8529
 2824TIP3    H230032   2.555   1.099   1.129  0.7818  0.2453  1.7684
 2825TIP3   OH230033   6.735   2.608   0.055  0.4084 -0.2359 -0.1553
 2825TIP3    H130034   6.708   2.551   0.127 -0.2492 -0.5254 -0.6175
 2825TIP3    H230035   6.702   2.565  -0.024 -1.6018  1.5917 -0.4022
 2826TIP3   OH230036   2.657   1.591   6.569 -0.3222  0.2459 -0.0837
 2826TIP3    H130037   2.649   1.600   6.664 -0.8137  0.9199 -0.1795
 2826TIP3    H230038   2.597   1.657   6.534  1.3386  1.3810 -0.8619
 2827TIP3   OH230039   4.269   3.258   6.597 -0.1811  0.8046 -0.2728
 2827TIP3    H130040   4.302   3.229   6.682  0.8962  2.9204  0.1035
 2827TIP3    H230041   4.181   3.220   6.591  1.0492 -2.4342  0.0970
 2828TIP3   OH230042   5.139   2.705   0.204  0.0533  0.2625 -0.1576
 2828TIP3    H130043   5.155   2.785   0.255 -0.5647  0.8491 -0.8666
 2828TIP3    H230044   5.059   2.669   0.242  0.5223 -0.2195  0.3918
 2829TIP3   OH230045   1.340   2.711   1.110  0.1820  0.1740 -0.0236
 2829TIP3    H130046   1.258   2.678   1.147  0.2441 -0.2847 -0.2913
 2829TIP3    H230047   1.375   2.769   1.177 -0.7626  1.0095 -0.2293
 2830TIP3   OH230048   4.724   0.690   7.693  0.5788  0.1211 -0.1050
 2830TIP3    H130049   4.693   0.668   7.781  1.0984 -0.5155 -0.0704
 2830TIP3    H230050   4.802   0.743   7.708 -0.0367  1.0791 -0.1921
 2831TIP3   OH230051   2.138   1.248   7.802  0.1035 -0.3091  0.1728
 2831TIP3    H130052   2.104   1.323   7.753  0.3826  0.5512  1.2548
 2831TIP3    H230053   2.233   1.251   7.787  0.0564 -0.8049 -0.2547
 2832TIP3   OH230054   1.718   5.645   2.486 -0.2971  0.1380  0.4084
 2832TIP3    H130055   1.744   5.707   2.418 -0.8570  0.7686  0.7549
 2832TIP3    H230056   1.790   5.649   2.550  0.5253 -0.9158 -0.4208
 2833TIP3   OH230057   3.675   2.929   1.286 -0.0638 -0.3904  0.3646
 2833TIP3    H130058   3.728   2.977   1.223 -0.8099 -1.1946 -0.8985
 2833TIP3    H230059   3.728   2.930   1.367  0.3267  1.7614  0.1453
 2834TIP3   OH230060   4.105   0.854   1.084 -0.5718 -0.1594  0.0678
 2834TIP3    H130061   4.152   0.882   1.006 -1.6408 -1.3851 -1.0786
 2834TIP3    H230062   4.147   0.771   1.109 -1.1545 -0.5096 -0.0900
 2835TIP3   OH230063   3.369   4.288   1.918  0.0391  0.2474 -0.4924
 2835TIP3    H130064   3.335   4.240   1.994 -0.4766 -1.3490 -1.6883
 2835TIP3    H230065   3.416   4.362   1.956  1.9493 -1.8436  1.5029
 2836TIP3   OH230066   0.680   2.483   8.689  0.3991  0.0876 -0.8775
 2836TIP3    H130067   0.769   2.453   8.672  0.9936  0.8290  0.7747
 2836TIP3    H230068   0.632   2.404   8.711  1.4113 -0.0141  1.2148
 2837TIP3   OH230069   1.842   4.452   8.404  0.1427  0.5686  0.3502
 2837TIP3    H130070   1.825   4.521   8.469 -0.4640 -0.5760  1.4512
 2837TIP3    H230071   1.934   4.464   8.380  1.3523 -0.7761  3.7243
 2838TIP3   OH230072   3.929   3.174   8.552 -0.4842 -0.0174 -0.1015
 2838TIP3    H130073   3.849   3.227   8.555 -1.0389 -0.5982 -2.5070
 2838TIP3    H230074   3.898   3.084   8.555 -0.0480 -0.2730 -1.9920
 2839TIP3   OH230075   1.805   0.622   1.567 -0.5069  0.2248 -0.2842
 2839TIP3    H130076   1.879   0.597   1.622 -0.3267 -0.2922 -0.7565
 2839TIP3    H230077   1.790   0.714   1.589  2.0147  1.1958 -2.0614
 2840TIP3   OH230078   2.552   4.766   0.785 -0.0701 -0.5553  0.0992
 2840TIP3    H130079   2.522   4.713   0.711 -1.4012 -0.3409  0.4612
 2840TIP3    H230080   2.563   4.703   0.857  0.1900 -0.6143  0.0066
 2841TIP3   OH230081   0.635   5.805   6.650 -0.2125 -0.6532 -0.2439
 2841TIP3    H130082   0.694   5.745   6.696  0.2427 -0.6036 -0.7550
 2841TIP3    H230083   0.571   5.831   6.716  1.2759  0.5719  0.7853
 2842TIP3   OH230084   4.935   4.449   1.691 -0.0388 -0.4748 -0.2846
 2842TIP3    H130085   4.849   4.479   1.661 -0.0175 -1.5947 -1.5661
 2842TIP3    H230086   4.994   4.471   1.619  0.5525 -0.7101  0.1206
 2843TIP3   OH230087   4.613   0.635   0.226 -0.1848  0.5808 -0.3823
 2843TIP3    H130088   4.658   0.717   0.243  0.8065  0.1349 -0.7616
 2843TIP3    H230089   4.683   0.571   0.211 -0.9264 -0.3921  0.1569
 2844TIP3   OH230090   2.119   5.216   8.741 -0.3722  0.5425  0.1272
 2844TIP3    H130091   2.111   5.308   8.714 -0.2935  0.2792 -0.8567
 2844TIP3    H230092   2.213   5.198   8.734 -0.6250 -0.2509 -2.0158
 2845TIP3   OH230093   4.141   3.483   7.603  0.1972 -0.1638 -0.0547
 2845TIP3    H130094   4.148   3.466   7.509 -0.2919 -2.3369  0.2334
 2845TIP3    H230095   4.232   3.491   7.633  0.4127 -0.8000 -0.5238
 2846TIP3   OH230096   3.897   0.155   0.171 -0.3632 -0.0487 -0.4995
 2846TIP3    H130097   3.890   0.237   0.122 -0.3182  0.7505  0.7788
 2846TIP3    H230098   3.879   0.179   0.262  0.0914 -1.3765 -0.0205
 2847TIP3   OH230099   6.826   2.903   0.727  0.3696 -0.3305  0.1253
 2847TIP3    H130100   6.801   2.815   0.755 -1.5030 -0.4792 -1.7649
 2847TIP3    H230101   6.870   2.889   0.643 -0.1711  0.5445 -0.3110
 2848TIP3   OH230102   4.914   4.184   8.238  0.4112  0.0114 -0.0544
 2848TIP3    H130103   4.877   4.271   8.225 -0.5877 -0.3582  0.2386
 2848TIP3    H230104   4.998   4.187   8.192  0.4485  1.1602  0.0510
 2849TIP3   OH230105   0.400   4.751   8.250 -0.1193 -0.0930  0.4248
 2849TIP3    H130106   0.332   4.769   8.315 -1.5403 -3.5001  0.0875
 2849TIP3    H230107   0.481   4.777   8.293 -1.3298  1.4840  1.9224
 2850TIP3   OH230108   3.601   0.601   8.491 -0.0181 -0.3316  0.1248
 2850TIP3    H130109   3.688   0.631   8.518 -0.1078 -0.9590  1.1905
 2850TIP3    H230110   3.579   0.655   8.415 -0.7616  3.3578  2.6780
 2851TIP3   OH230111   3.775   5.540   7.418 -0.0818  0.0055 -0.5511
 2851TIP3    H130112   3.840   5.488   7.465  0.5209  0.4235 -0.9125
 2851TIP3    H230113   3.715   5.475   7.380 -1.9021 -0.3402  2.5596
 2852TIP3   OH230114   1.682   3.581   8.418 -0.1810 -0.5239 -0.2447
 2852TIP3    H130115   1.710   3.647   8.353  2.2146  1.0259  2.1597
 2852TIP3    H230116   1.672   3.631   8.499 -2.8774 -2.4337  0.7239
 2853TIP3   OH230117   0.939   5.952   0.664 -0.2804 -0.0083  1.0666
 2853TIP3    H130118   0.859   5.966   0.614  0.0053 -0.0979  0.5660
 2853TIP3    H230119   0.935   5.860   0.692  0.8042 -0.8119 -1.1444
 2854TIP3   OH230120   6.622   6.457   7.095  0.6499  0.2728  0.1207
 2854TIP3    H130121   6.537   6.484   7.128  0.7050 -0.3058  0.7798
 2854TIP3    H230122   6.622   6.482   7.003 -0.0711  0.6353  0.2111
 2855TIP3   OH230123   6.390   1.753   2.261 -0.3737 -0.3515 -1.0934
 2855TIP3    H130124   6.414   1.674   2.212  0.1694 -2.8905  2.8483
 2855TIP3    H230125   6.322   1.723   2.322  0.3296  2.0215  1.0072
 2856TIP3   OH230126   0.298   5.868   2.348  0.5490  0.0308 -0.0315
 2856TIP3    H130127   0.335   5.956   2.352 -0.8202  0.5888  1.7324
 2856TIP3    H230128   0.207   5.879   2.372  0.4400 -1.9336  0.6503
 2857TIP3   OH230129   0.009   6.437   8.650  0.0289  0.5650 -0.1494
 2857TIP3    H130130   0.078   6.469   8.592  0.3538  0.7040  0.3088
 2857TIP3    H230131   0.030   6.345   8.664 -0.1719  0.4748 -0.4190
 2858TIP3   OH230132   2.665   3.168   7.840  0.0059 -0.5632  0.3418
 2858TIP3    H130133   2.710   3.085   7.858 -0.7128 -1.1126 -0.2899
 2858TIP3    H230134   2.703   3.230   7.902  1.5387 -1.0276 -0.0788
 2859TIP3   OH230135   6.170   6.374   7.044 -0.0657  0.2921 -0.6385
 2859TIP3    H130136   6.126   6.293   7.017  0.9972 -0.6242  0.3191
 2859TIP3    H230137   6.204   6.411   6.962 -0.0342 -0.5320 -1.0055
 2860TIP3   OH230138   4.058   2.834   1.144 -0.1528  0.4606  0.5201
 2860TIP3    H130139   4.011   2.917   1.152 -0.0791  0.4149  1.7405
 2860TIP3    H230140   4.060   2.799   1.234 -0.4258 -0.9968 -0.0019
 2861TIP3   OH230141   1.716   2.797   1.032 -0.7556 -0.0887  0.0014
 2861TIP3    H130142   1.728   2.747   1.113  0.6365  0.8601  0.4142
 2861TIP3    H230143   1.765   2.747   0.966 -0.9397 -0.2560 -0.0108
 2862TIP3   OH230144   3.077   1.875   7.639  0.3394  0.5123  0.1639
 2862TIP3    H130145   3.148   1.897   7.578  0.8724  0.7754  0.8569
 2862TIP3    H230146   3.064   1.781   7.627  0.4926  0.5483 -0.2999
 2863TIP3   OH230147   3.000   4.919   7.098 -0.1554 -0.4485  0.5225
 2863TIP3    H130148   2.988   4.877   7.013 -2.5322  1.4079 -0.1574
 2863TIP3    H230149   3.073   4.980   7.085 -0.3346 -0.3656 -0.0773
 2864TIP3   OH230150   6.815   0.482   7.601 -0.3225  0.0567 -0.1144
 2864TIP3    H130151   6.765   0.531   7.667  0.0361  0.0178  0.1883
 2864TIP3    H230152   6.749   0.429   7.556 -0.8856  1.5050 -1.0898
 2865TIP3   OH230153   1.149   6.107   0.736 -0.2034  0.3472 -0.4670
 2865TIP3    H130154   1.122   6.067   0.819  2.7907 -3.0474 -0.9096
 2865TIP3    H230155   1.079   6.085   0.675 -1.6506  1.4709  0.6956
 2866TIP3   OH230156   2.494   6.349   1.605 -0.1099  0.5481 -0.2483
 2866TIP3    H130157   2.492   6.276   1.543  0.3799  0.5672 -0.2904
 2866TIP3    H230158   2.568   6.330   1.663  0.7924  1.6175 -1.0110
 2867TIP3   OH230159   5.161   4.368   1.215 -0.0178  0.0307  0.1659
 2867TIP3    H130160   5.108   4.359   1.136 -0.7640  0.9709  0.5380
 2867TIP3    H230161   5.195   4.457   1.210  1.1604 -0.4008  0.1712
 2868TIP3   OH230162   5.320   2.243   0.435  0.1179  0.2692  0.5375
 2868TIP3    H130163   5.262   2.186   0.486  1.3761 -0.3939  1.2722
 2868TIP3    H230164   5.408   2.209   0.452  0.5871 -0.6894 -2.9068
 2869TIP3   OH230165   4.655   4.547   1.880  0.3642  0.5274  0.1180
 2869TIP3    H130166   4.675   4.455   1.892  1.1556  0.6281 -0.3735
 2869TIP3    H230167   4.564   4.556   1.909  0.5284 -0.2498  0.8861
 2870TIP3   OH230168   2.569   3.390   6.737  0.1452  0.2437 -0.3319
 2870TIP3    H130169   2.650   3.442   6.738  0.0678  0.3990  1.6365
 2870TIP3    H230170   2.506   3.447   6.693  0.8225  0.5422 -0.9572
 2871TIP3   OH230171   5.023   6.726   7.626 -0.6220 -0.3883 -0.4158
 2871TIP3    H130172   5.058   6.638   7.642  1.3405  0.4355  0.0519
 2871TIP3    H230173   5.078   6.761   7.556 -1.0794  0.6390 -0.2778
 2872TIP3   OH230174   4.805   4.922   7.724  0.2629 -0.5113 -0.0818
 2872TIP3    H130175   4.881   4.980   7.727 -0.6226  0.7252 -0.7134
 2872TIP3    H230176   4.841   4.836   7.699  1.4748 -0.0392 -0.0269
 2873TIP3   OH230177   4.028   6.413   0.547  0.5775  0.1264 -0.0538
 2873TIP3    H130178   3.974   6.336   0.528  0.5144 -0.0860  0.9336
 2873TIP3    H230179   4.109   6.399   0.498  0.1303 -0.0275 -0.7605
 2874TIP3   OH230180   5.240   3.254   1.926 -0.3117 -0.3724  0.1893
 2874TIP3    H130181   5.190   3.273   2.005 -0.5383 -1.2835  0.2787
 2874TIP3    H230182   5.320   3.212   1.958 -0.3933 -0.7220 -0.0576
 2875TIP3   OH230183   5.068   1.807   6.840  0.4069  0.2425  0.6018
 2875TIP3    H130184   5.157   1.777   6.860 -0.1080 -2.4089 -0.7329
 2875TIP3    H230185   5.060   1.798   6.745 -0.6386  2.5523  0.3952
 2876TIP3   OH230186   4.740   0.866   8.501  0.1491  0.1816  0.2671
 2876TIP3    H130187   4.773   0.956   8.500  0.7749  0.0868  3.3263
 2876TIP3    H230188   4.807   0.816   8.454 -0.1364  1.2254 -1.3526
 2877TIP3   OH230189   3.163   2.361   0.660  0.2458  0.1948  0.3773
 2877TIP3    H130190   3.240   2.412   0.684  0.0122  0.9064 -0.3196
 2877TIP3    H230191   3.089   2.411   0.695  0.0052  0.4372 -0.4527
 2878TIP3   OH230192   5.337   0.173   7.712 -0.0899  0.4601  0.3641
 2878TIP3    H130193   5.315   0.083   7.687 -2.5614  1.3517 -1.0915
 2878TIP3    H230194   5.426   0.186   7.681 -0.1200 -1.1304 -0.4954
 2879TIP3   OH230195   0.517   6.648   2.382 -0.2388  0.0843  0.0567
 2879TIP3    H130196   0.425   6.625   2.397 -0.0627 -0.5901  0.1423
 2879TIP3    H230197   0.566   6.569   2.407  0.6248  1.4331  3.1265
 2880TIP3   OH230198   5.372   6.390   1.551  0.1964 -0.3383 -0.3959
 2880TIP3    H130199   5.289   6.343   1.558 -0.1956  0.3145 -0.5607
 2880TIP3    H230200   5.434   6.325   1.516  0.3605 -1.5104  1.9036
 2881TIP3   OH230201   3.914   5.442   7.076  0.0896  0.7214  0.1452
 2881TIP3    H130202   3.996   5.465   7.119 -0.4408  0.9660  1.0548
 2881TIP3    H230203   3.865   5.524   7.071  0.5951  0.9586 -2.0222
 2882TIP3   OH230204   1.795   2.317   0.332 -0.0755  1.0107 -0.2245
 2882TIP3    H130205   1.735   2.372   0.383  1.4113  1.9769  0.5488
 2882TIP3    H230206   1.878   2.364   0.333  0.8643 -0.5474 -0.8074
 2883TIP3   OH230207   5.239   2.924   8.432  0.0810  0.1758  0.0212
 2883TIP3    H130208   5.313   2.983   8.420  2.1666 -1.7245  2.4223
 2883TIP3    H230209   5.182   2.968   8.494  0.7665  0.3913  0.5076
 2884TIP3   OH230210   3.713   6.661   6.299  0.5353 -0.1040  0.0400
 2884TIP3    H130211   3.623   6.645   6.269 -0.4870  0.9087  2.2865
 2884TIP3    H230212   3.736   6.746   6.261  0.9158 -0.7863 -1.2839
 2885TIP3   OH230213   1.256   0.808   8.693  0.1495 -0.0759  0.0332
 2885TIP3    H130214   1.295   0.893   8.675  2.1809 -0.9536 -0.0145
 2885TIP3    H230215   1.258   0.800   8.788  0.4886 -0.2931  0.0096
 2886TIP3   OH230216   2.615   1.812   0.868 -0.5793 -0.1789  0.9380
 2886TIP3    H130217   2.698   1.780   0.905 -0.8133 -1.0556  0.7465
 2886TIP3    H230218   2.568   1.732   0.845 -0.6986  0.3353 -0.6831
 2887TIP3   OH230219   3.569   4.606   6.553 -0.0684 -0.3993  0.1026
 2887TIP3    H130220   3.536   4.650   6.475  1.9034  1.1271  0.0296
 2887TIP3    H230221   3.595   4.519   6.523 -4.5972 -2.1207  0.3617
 2888TIP3   OH230222   6.786   6.609   7.246 -0.6550 -0.6808  0.1570
 2888TIP3    H130223   6.694   6.628   7.229 -0.6915 -0.2380  0.8011
 2888TIP3    H230224   6.796   6.517   7.223 -1.3226 -0.7990  0.3203
 2889TIP3   OH230225   1.347   2.790   0.276  0.1587 -0.9748 -0.0811
 2889TIP3    H130226   1.364   2.836   0.358  0.9282 -0.6848 -0.4006
 2889TIP3    H230227   1.347   2.697   0.300 -0.2434 -0.8661  0.3552
 2890TIP3   OH230228   6.431   1.330   7.485  0.7202 -0.0075  0.1377
 2890TIP3    H130229   6.429   1.388   7.409  1.0406  0.8084  0.7399
 2890TIP3    H230230   6.523   1.320   7.506  0.5875  1.5086  1.6882
 2891TIP3   OH230231   5.257   2.084   7.085 -0.5930  0.1816 -0.4310
 2891TIP3    H130232   5.348   2.058   7.076 -1.1015 -1.2963 -1.5033
 2891TIP3    H230233   5.240   2.140   7.009 -0.6526  0.2883 -0.3410
 2892TIP3   OH230234   6.537   0.516   1.018 -0.2358  0.4074 -0.6279
 2892TIP3    H130235   6.499   0.534   1.104 -0.7388  0.5315 -0.8716
 2892TIP3    H230236   6.631   0.516   1.033 -0.2767 -3.4890  0.7321
 2893TIP3   OH230237   6.669   5.035   0.999  0.4319 -0.4804  0.1127
 2893TIP3    H130238   6.742   5.016   0.941 -0.3068  1.3483 -1.4976
 2893TIP3    H230239   6.591   5.015   0.947 -0.2452  0.1244  0.8708
 2894TIP3   OH230240   6.067   3.755   0.460 -0.5397 -0.3582 -0.2864
 2894TIP3    H130241   6.110   3.724   0.380  0.6373 -0.3181  0.3094
 2894TIP3    H230242   6.048   3.676   0.509 -0.9216 -0.3591 -0.4344
 2895TIP3   OH230243   5.646   4.829   1.041 -0.2250  0.4155  0.4006
 2895TIP3    H130244   5.665   4.846   0.949 -0.8727  2.9871  0.6632
 2895TIP3    H230245   5.698   4.751   1.062  1.5259  0.9328 -1.6166
 2896TIP3   OH230246   0.576   4.898   0.795 -0.4555 -0.1070 -0.0655
 2896TIP3    H130247   0.600   4.989   0.813  0.2642 -0.0952 -1.0432
 2896TIP3    H230248   0.619   4.878   0.712  2.4896 -2.5038  1.8445
 2897TIP3   OH230249   4.574   6.188   1.223  0.0311 -0.3406  0.2015
 2897TIP3    H130250   4.597   6.212   1.313 -0.8534  0.4457  0.2403
 2897TIP3    H230251   4.570   6.272   1.177  3.1064 -0.8864 -1.2803
 2898TIP3   OH230252   0.240   4.467   0.578 -0.3606  0.2816 -0.3309
 2898TIP3    H130253   0.152   4.478   0.615  0.0826  0.1747  0.7858
 2898TIP3    H230254   0.295   4.527   0.628  0.2657  0.1375 -0.8302
 2899TIP3   OH230255   5.346   0.575   0.223 -0.7111 -0.0468 -0.1941
 2899TIP3    H130256   5.266   0.523   0.230 -1.2566  0.9085  1.0933
 2899TIP3    H230257   5.344   0.610   0.134 -2.6837  1.3944  0.3383
 2900TIP3   OH230258   6.619   3.111   0.932  0.4355  0.1513 -0.2376
 2900TIP3    H130259   6.691   3.081   0.987 -1.3689  0.4125  2.4940
 2900TIP3    H230260   6.639   3.203   0.914  1.3452 -0.0957 -0.5168
 2901TIP3   OH230261   3.771   6.617   8.513 -0.3403 -0.2437  0.1069
 2901TIP3    H130262   3.831   6.688   8.489 -1.9355  0.9507 -0.5055
 2901TIP3    H230263   3.754   6.573   8.430  1.9593 -2.5211  0.7091
 2902TIP3   OH230264   2.352   0.731   7.081 -0.1782 -0.2160 -0.1932
 2902TIP3    H130265   2.326   0.656   7.134  0.1886  0.7721  1.4421
 2902TIP3    H230266   2.421   0.697   7.023  0.1710 -1.0727  0.7076
 2903TIP3   OH230267   0.634   1.507   8.320 -0.0784  1.0159  0.2261
 2903TIP3    H130268   0.715   1.528   8.368  0.4783 -0.9033  0.2172
 2903TIP3    H230269   0.574   1.477   8.388  0.6491 -1.5273 -0.1352
 2904TIP3   OH230270   6.550   5.208   0.275 -0.4284 -0.4654  0.4474
 2904TIP3    H130271   6.462   5.180   0.299 -0.4624 -1.5840 -0.8835
 2904TIP3    H230272   6.599   5.207   0.358 -1.5492 -0.1930  1.1360
 2905TIP3   OH230273   5.841   1.926   0.373  0.0223 -0.2509 -0.2499
 2905TIP3    H130274   5.828   1.956   0.283 -0.2252  0.8696  0.1541
 2905TIP3    H230275   5.925   1.964   0.399 -1.0143  1.4625  0.7966
 2906TIP3   OH230276   0.936   1.554   8.081  0.8234 -0.5563 -0.5427
 2906TIP3    H130277   0.919   1.460   8.087  0.6031 -0.5060 -0.4032
 2906TIP3    H230278   0.852   1.595   8.101  0.5706 -0.3511 -1.9232
 2907TIP3   OH230279   0.658   5.537   7.572 -0.6936  0.4673 -0.4694
 2907TIP3    H130280   0.601   5.535   7.495 -0.0544  2.5099 -1.0704
 2907TIP3    H230281   0.687   5.629   7.578  0.5069  0.0270  1.2967
 2908TIP3   OH230282   6.600   6.623   0.955  0.0339  0.9042 -0.0408
 2908TIP3    H130283   6.511   6.603   0.983 -0.2333  1.9560 -0.0916
 2908TIP3    H230284   6.627   6.696   1.012  1.2749 -0.1206  0.7404
 2909TIP3   OH230285   0.771   1.017   6.295  0.1400 -0.2450 -0.1780
 2909TIP3    H130286   0.684   1.055   6.299 -0.2075 -0.3774 -3.6931
 2909TIP3    H230287   0.787   0.983   6.383 -2.3421  1.8577  1.1896
 2910TIP3   OH230288   6.400   0.885   0.089  0.2029  0.0186  0.1087
 2910TIP3    H130289   6.310   0.918   0.091 -0.2411 -1.2187  1.3029
 2910TIP3    H230290   6.445   0.944   0.027 -1.3931  0.6820 -0.4738
 2911TIP3   OH230291   5.722   1.077   7.537 -0.1465 -0.5158  0.3905
 2911TIP3    H130292   5.759   1.155   7.496 -3.6953  1.0097 -0.2602
 2911TIP3    H230293   5.785   1.055   7.606  1.5712  2.2521 -0.1105
 2912TIP3   OH230294   4.199   6.127   7.218  0.1323 -0.3051 -0.3007
 2912TIP3    H130295   4.135   6.065   7.183  0.1458  0.6075 -2.0102
 2912TIP3    H230296   4.236   6.170   7.142  3.6147 -1.5185  0.5127
 2913TIP3   OH230297   1.905   5.638   1.277  0.2613 -0.1412  0.3844
 2913TIP3    H130298   1.951   5.640   1.194  1.4704 -0.9029  0.9969
 2913TIP3    H230299   1.832   5.577   1.263 -0.7083  1.1911 -0.6399
 2914TIP3   OH230300   6.054   6.617   0.669 -0.9594 -0.1761  0.0994
 2914TIP3    H130301   6.015   6.675   0.734 -2.0505 -0.0476 -0.6505
 2914TIP3    H230302   6.118   6.566   0.719 -1.1301  0.5406  1.0910
 2915TIP3   OH230303   1.016   2.660   7.821 -0.0515 -0.6832  0.0258
 2915TIP3    H130304   0.970   2.706   7.750 -0.2107 -0.8031  0.0516
 2915TIP3    H230305   1.034   2.729   7.886 -0.7416 -0.7449  0.2946
 2916TIP3   OH230306   3.144   6.723   1.292 -0.0450 -0.4541 -0.0760
 2916TIP3    H130307   3.200   6.676   1.230 -0.2627  0.7959 -1.2659
 2916TIP3    H230308   3.055   6.695   1.270 -0.0344 -1.1541  0.7033
 2917TIP3   OH230309   0.315   2.876   1.584 -0.6104  0.2293  0.2081
 2917TIP3    H130310   0.291   2.786   1.567  0.7697  0.0315 -0.9501
 2917TIP3    H230311   0.406   2.883   1.553 -0.6412  1.9698  0.3720
 2918TIP3   OH230312   1.046   6.750   6.534  0.0344  0.5314  0.2921
 2918TIP3    H130313   1.062   6.661   6.566 -1.8514  0.6666  1.8609
 2918TIP3    H230314   0.952   6.751   6.514 -0.0625  2.2422  0.6920
 2919TIP3   OH230315   1.286   0.483   7.450  0.0226 -0.6213  0.6523
 2919TIP3    H130316   1.245   0.570   7.445  2.3331  0.5369  0.4976
 2919TIP3    H230317   1.226   0.426   7.404 -1.2295  1.0455  0.1059
 2920TIP3   OH230318   3.845   6.737   0.065 -0.2478 -0.5585  0.1246
 2920TIP3    H130319   3.927   6.712   0.108 -0.7532  0.0283  1.5042
 2920TIP3    H230320   3.843   6.832   0.071 -0.5325 -0.4981 -0.8747
 2921TIP3   OH230321   4.169   4.608   7.526 -0.1368 -0.0391 -0.2927
 2921TIP3    H130322   4.223   4.679   7.561  1.0714 -0.6307 -0.8928
 2921TIP3    H230323   4.212   4.583   7.444 -1.6820 -0.1406 -1.1002
 2922TIP3   OH230324   6.110   5.435   7.848  0.1095 -0.4913 -0.1235
 2922TIP3    H130325   6.173   5.363   7.853 -1.3135 -1.7338  1.0545
 2922TIP3    H230326   6.163   5.514   7.852  1.7154 -1.4533 -1.3335
 2923TIP3   OH230327   3.457   1.890   8.368  0.2958  0.3249 -0.6225
 2923TIP3    H130328   3.436   1.815   8.312 -3.2093  0.4319  0.3177
 2923TIP3    H230329   3.376   1.907   8.416  0.9770  4.6645 -0.6879
 2924TIP3   OH230330   1.233   4.001   1.585  0.7194 -0.3253 -0.2791
 2924TIP3    H130331   1.203   3.934   1.647 -0.9566  1.0172  0.4533
 2924TIP3    H230332   1.270   4.070   1.640  1.7216 -0.2879 -0.9740
 2925TIP3   OH230333   4.212   2.536   6.907 -0.4049 -0.0487  0.4363
 2925TIP3    H130334   4.230   2.442   6.917 -1.3548 -0.3614 -0.5774
 2925TIP3    H230335   4.151   2.556   6.978 -1.9143 -0.7212 -0.6244
 2926TIP3   OH230336   4.459   3.360   7.171 -0.3472 -0.0169  0.7318
 2926TIP3    H130337   4.542   3.315   7.184 -0.0173  0.0266 -0.9426
 2926TIP3    H230338   4.395   3.306   7.218  0.5254 -0.3945  1.5216
 2927TIP3   OH230339   0.676   4.897   8.230 -0.2191 -0.2943 -0.0449
 2927TIP3    H130340   0.699   4.809   8.262  3.2969  0.6501  0.3787
 2927TIP3    H230341   0.686   4.953   8.306  0.3938  0.8867 -0.9759
 2928TIP3   OH230342   4.641   1.420   6.727 -0.0735 -0.6865 -0.3589
 2928TIP3    H130343   4.680   1.427   6.814 -0.3670 -3.6787  0.1274
 2928TIP3    H230344   4.681   1.491   6.676  3.3712 -1.4267  1.0555
 2929TIP3   OH230345   3.580   2.050   7.748  0.0656  0.9620 -0.2287
 2929TIP3    H130346   3.577   1.983   7.679  1.1790  0.1484  0.4843
 2929TIP3    H230347   3.490   2.055   7.781  0.1684 -1.0033  0.4623
 2930TIP3   OH230348   0.661   2.186   1.717  0.4072  0.2921 -0.7233
 2930TIP3    H130349   0.736   2.172   1.775  0.6084  0.4156 -0.9490
 2930TIP3    H230350   0.598   2.118   1.741  0.8728 -0.2462 -0.9874
 2931TIP3   OH230351   0.121   5.631   7.881 -0.1609  0.2494  0.0281
 2931TIP3    H130352   0.141   5.588   7.965  2.4320  1.2332 -0.0087
 2931TIP3    H230353   0.047   5.582   7.847 -0.3043 -1.1794  2.1670
 2932TIP3   OH230354   2.091   5.563   1.792 -0.6415 -0.6248  0.0078
 2932TIP3    H130355   2.004   5.602   1.784  0.2157  1.8122  1.2581
 2932TIP3    H230356   2.130   5.608   1.867  1.3223 -2.4300  0.1645
 2933TIP3   OH230357   6.631   3.132   0.662 -0.3415 -0.1040  0.2369
 2933TIP3    H130358   6.607   3.115   0.754 -2.2201  0.7651 -0.0352
 2933TIP3    H230359   6.716   3.091   0.651  0.8954  1.4661  2.9350
 2934TIP3   OH230360   4.393   6.375   0.547 -0.2200  0.3525  0.2888
 2934TIP3    H130361   4.316   6.412   0.502 -0.2574  0.7682  0.6844
 2934TIP3    H230362   4.451   6.347   0.476 -1.0805 -0.7175 -0.0277
 2935TIP3   OH230363   1.711   5.933   1.112  0.2588 -0.5188  0.9310
 2935TIP3    H130364   1.667   5.869   1.056 -0.7956  0.1560  0.9554
 2935TIP3    H230365   1.659   5.934   1.192 -0.1430  0.8252  0.6840
 2936TIP3   OH230366   6.548   5.842   1.008 -0.4790 -0.1654 -0.6176
 2936TIP3    H130367   6.525   5.795   0.927 -2.7246  2.7352 -1.8933
 2936TIP3    H230368   6.620   5.900   0.982 -0.5218  0.0354 -0.2883
 2937TIP3   OH230369   2.051   3.110   8.425  0.2297  0.2767  0.3123
 2937TIP3    H130370   2.051   3.124   8.519 -0.2408  1.2501  0.1800
 2937TIP3    H230371   2.031   3.017   8.414  0.8888  0.0262  1.1786
 2938TIP3   OH230372   6.092   3.960   7.287 -0.8254 -0.3384 -0.7695
 2938TIP3    H130373   6.128   3.895   7.348 -3.0011 -0.7875  0.0954
 2938TIP3    H230374   6.052   3.907   7.218  0.4167  0.1604 -1.9196
 2939TIP3   OH230375   6.598   4.980   8.201 -0.0817 -0.2243  0.0988
 2939TIP3    H130376   6.589   5.036   8.278 -0.8880  2.7497 -1.9677
 2939TIP3    H230377   6.572   4.893   8.232 -1.3218  1.0129  2.9401
 2940TIP3   OH230378   0.912   1.153   0.417  0.4424  0.0418  0.2283
 2940TIP3    H130379   0.875   1.227   0.369  2.5772  0.7466 -0.4221
 2940TIP3    H230380   0.858   1.148   0.497 -1.8045  0.1886 -1.1762
 2941TIP3   OH230381   6.645   5.442   0.918  0.1448 -0.1821  0.0843
 2941TIP3    H130382   6.592   5.511   0.958  0.2191  0.6290 -1.1964
 2941TIP3    H230383   6.639   5.369   0.981 -1.5081  0.2943  0.5353
 2942TIP3   OH230384   2.794   1.299   7.364 -0.4243 -0.0935 -0.1567
 2942TIP3    H130385   2.703   1.286   7.336 -1.1271 -0.1199  2.0100
 2942TIP3    H230386   2.826   1.210   7.383  0.5498 -0.2387 -2.1823
 2943TIP3   OH230387   1.850   5.441   8.648  0.1662 -0.3383 -0.1108
 2943TIP3    H130388   1.758   5.419   8.633 -0.2191  1.0868  0.0002
 2943TIP3    H230389   1.897   5.358   8.637 -0.9324 -0.7787 -1.8940
 2944TIP3   OH230390   2.086   5.121   0.309 -0.1252  0.3974 -0.3620
 2944TIP3    H130391   2.172   5.161   0.314 -0.6165  1.3145  2.1626
 2944TIP3    H230392   2.028   5.194   0.285 -0.1326 -0.4328 -3.1541
 2945TIP3   OH230393   4.001   6.525   0.780  0.0175  0.3930 -0.4356
 2945TIP3    H130394   4.086   6.558   0.808  0.2383 -0.2375 -0.3490
 2945TIP3    H230395   4.015   6.493   0.691 -0.9217  3.3385 -1.7725
 2946TIP3   OH230396   2.230   4.829   7.465  0.6469 -0.6854  0.0779
 2946TIP3    H130397   2.204   4.741   7.492  1.6376 -0.7758  0.8215
 2946TIP3    H230398   2.157   4.861   7.413 -1.4359 -0.5081  2.8438
 2947TIP3   OH230399   4.113   5.513   0.176  0.2696  0.7150 -0.3835
 2947TIP3    H130400   4.034   5.515   0.230  0.7457  1.2277  0.3179
 2947TIP3    H230401   4.171   5.452   0.222  0.5876  0.9637 -0.4570
 2948TIP3   OH230402   1.767   1.507   0.712 -0.1168  0.0579  0.1745
 2948TIP3    H130403   1.730   1.573   0.654 -0.6222  0.4510  0.9422
 2948TIP3    H230404   1.805   1.556   0.785 -1.8109 -0.5347  1.5211
 2949TIP3   OH230405   6.507   2.206   6.256  0.2350 -0.5581 -0.0166
 2949TIP3    H130406   6.535   2.132   6.311  1.5761  0.4735  0.7481
 2949TIP3    H230407   6.411   2.201   6.255  0.2282 -1.1871  1.6081
 2950TIP3   OH230408   2.964   5.701   7.722 -0.1178  0.4326  0.3893
 2950TIP3    H130409   2.874   5.729   7.707 -0.2760  0.3526  1.1406
 2950TIP3    H230410   2.989   5.746   7.803  0.2808 -0.1007  0.5622
 2951TIP3   OH230411   5.310   3.997   1.983 -0.5444 -0.0413  0.2931
 2951TIP3    H130412   5.281   4.033   1.899 -1.4116 -0.5184  0.3688
 2951TIP3    H230413   5.386   4.050   2.008  0.1659 -0.3462 -1.1279
 2952TIP3   OH230414   5.396   1.875   0.655  0.0648 -0.2335  0.3145
 2952TIP3    H130415   5.456   1.902   0.724 -1.8978  1.2462  1.5741
 2952TIP3    H230416   5.348   1.801   0.692  0.1054 -0.4924 -0.1305
 2953TIP3   OH230417   4.981   1.707   1.755 -0.3411  0.3405  0.0333
 2953TIP3    H130418   4.915   1.776   1.763  1.5983  2.1715  1.2754
 2953TIP3    H230419   5.042   1.740   1.689  1.2883  0.4561  1.5295
 2954TIP3   OH230420   6.086   1.959   7.323 -0.4754 -0.7607 -0.1925
 2954TIP3    H130421   6.039   1.951   7.407  1.1959 -1.4440  0.7229
 2954TIP3    H230422   6.023   1.930   7.258 -1.7023 -0.5736  0.8598
 2955TIP3   OH230423   1.298   0.261   8.638  0.1650 -0.0112  0.6393
 2955TIP3    H130424   1.274   0.171   8.660  0.9426 -0.0958  1.2209
 2955TIP3    H230425   1.247   0.283   8.561  1.4756 -1.6741 -0.7780
 2956TIP3   OH230426   5.776   2.027   6.517 -0.3058  0.4479 -0.2886
 2956TIP3    H130427   5.844   1.961   6.520  0.2213  0.8791 -1.7455
 2956TIP3    H230428   5.696   1.981   6.543  0.5346 -0.0041  1.7080
 2957TIP3   OH230429   1.803   6.344   1.190  0.4478  0.1752  0.1706
 2957TIP3    H130430   1.813   6.427   1.237 -0.2452  0.4264 -0.1108
 2957TIP3    H230431   1.723   6.355   1.139  2.0532  0.5843 -2.4722
 2958TIP3   OH230432   2.093   2.495   8.205  0.0901 -0.2139 -0.4960
 2958TIP3    H130433   2.022   2.503   8.140 -0.9759 -0.1259  0.6440
 2958TIP3    H230434   2.140   2.578   8.199 -1.6402  0.9185  0.6679
 2959TIP3   OH230435   2.789   3.603   8.250 -0.5268  0.1998 -0.1459
 2959TIP3    H130436   2.847   3.529   8.232 -2.5323 -0.9565 -2.3476
 2959TIP3    H230437   2.701   3.565   8.253 -1.2869  1.8998  2.9763
 2960TIP3   OH230438   5.536   2.658   8.692  0.0625  0.0900 -0.4680
 2960TIP3    H130439   5.576   2.665   8.779  0.6842 -3.0154 -0.3982
 2960TIP3    H230440   5.530   2.749   8.661  2.0016  1.1094  1.8299
 2961TIP3   OH230441   2.440   1.199   7.008  0.0330 -0.0115 -0.3675
 2961TIP3    H130442   2.468   1.172   6.921 -1.1212 -1.3256 -0.3629
 2961TIP3    H230443   2.417   1.117   7.053  0.0244  0.6874  0.9678
 2962TIP3   OH230444   0.911   2.707   7.311 -0.5005 -0.0855 -0.2864
 2962TIP3    H130445   0.897   2.632   7.254 -0.4347  1.5859 -2.6331
 2962TIP3    H230446   0.928   2.780   7.252  1.6497  1.3786  1.9259
 2963TIP3   OH230447   2.773   6.273   6.049 -0.0515 -0.1789 -0.0878
 2963TIP3    H130448   2.703   6.296   5.987 -0.0694 -0.3964 -0.1504
 2963TIP3    H230449   2.731   6.214   6.111 -0.5049  1.4467  1.2156
 2964TIP3   OH230450   1.075   4.979   6.986  0.8675  0.7624 -0.3859
 2964TIP3    H130451   1.062   4.980   6.891  0.5736 -0.1624 -0.3572
 2964TIP3    H230452   1.139   5.049   7.001  0.8473  0.9816 -1.2512
 2965TIP3   OH230453   6.698   2.116   7.548 -0.4751 -0.1386 -0.0614
 2965TIP3    H130454   6.673   2.162   7.628  0.0125 -1.1902  0.7072
 2965TIP3    H230455   6.615   2.091   7.508 -0.7561 -2.3623  1.7435
 2966TIP3   OH230456   1.400   0.227   7.360 -0.5698  0.6301  0.1429
 2966TIP3    H130457   1.365   0.172   7.430 -1.3875  2.0097  0.8466
 2966TIP3    H230458   1.348   0.307   7.363  1.3962  1.9829 -0.0482
 2967TIP3   OH230459   5.946   4.230   6.619  0.2553  0.4041 -1.0848
 2967TIP3    H130460   5.862   4.186   6.632 -0.4257  1.9276 -0.0574
 2967TIP3    H230461   5.937   4.274   6.535 -0.2939  1.1569 -0.6543
 2968TIP3   OH230462   5.685   3.232   7.532  0.3734  0.3139  0.0566
 2968TIP3    H130463   5.677   3.279   7.615 -0.1236 -1.8090  1.2948
 2968TIP3    H230464   5.601   3.188   7.521  0.5940  0.2101 -1.3417
 2969TIP3   OH230465   6.799   4.210   1.101 -0.2211 -0.0646  0.2531
 2969TIP3    H130466   6.745   4.136   1.075  0.2109 -0.5083  0.5963
 2969TIP3    H230467   6.737   4.279   1.124 -0.6384 -0.5582  0.6190
 2970TIP3   OH230468   5.149   2.014   7.767  0.3383 -0.1726  0.3404
 2970TIP3    H130469   5.212   2.066   7.717 -0.0131  0.3602  0.4417
 2970TIP3    H230470   5.134   1.937   7.713 -0.8595  0.9018 -0.9412
 2971TIP3   OH230471   5.306   1.429   2.580  0.0327 -0.0385 -0.3494
 2971TIP3    H130472   5.251   1.354   2.559  0.3863 -0.3637 -0.1088
 2971TIP3    H230473   5.249   1.505   2.567  0.4813 -0.1165 -3.5783
 2972TIP3   OH230474   2.614   1.535   7.620  0.1855 -0.4864 -0.2205
 2972TIP3    H130475   2.698   1.534   7.667  0.1863 -0.8054 -0.2289
 2972TIP3    H230476   2.569   1.456   7.650  0.4630 -1.0615 -1.2554
 2973TIP3   OH230477   6.658   6.057   2.383  0.3107 -0.0224  0.2909
 2973TIP3    H130478   6.674   6.070   2.477 -1.1353  0.2042  0.5311
 2973TIP3    H230479   6.744   6.065   2.343  0.7807  1.1907  1.4498
 2974TIP3   OH230480   3.832   0.571   1.365  0.2718  0.2646  0.2502
 2974TIP3    H130481   3.879   0.565   1.282  1.0149 -0.7711  0.7305
 2974TIP3    H230482   3.778   0.492   1.369 -1.6583  1.4826 -0.3391
 2975TIP3   OH230483   2.253   0.502   1.036  0.0803  0.1385  0.2155
 2975TIP3    H130484   2.162   0.520   1.011 -0.1387 -1.0291  0.1086
 2975TIP3    H230485   2.265   0.549   1.119  0.0028  1.8997 -0.7263
 2976TIP3   OH230486   1.117   6.647   7.803  0.0403 -0.3751  0.2080
 2976TIP3    H130487   1.029   6.685   7.805 -0.9656 -2.4537 -0.5825
 2976TIP3    H230488   1.170   6.704   7.858 -1.2615  2.2097 -1.0560
 2977TIP3   OH230489   6.579   3.484   8.461  0.3483  0.5980  0.3407
 2977TIP3    H130490   6.494   3.458   8.426  0.2952 -0.1923  1.0246
 2977TIP3    H230491   6.606   3.559   8.408 -1.7762  2.2933  1.5141
 2978TIP3   OH230492   0.685   0.671   0.457 -0.2738  0.7426 -0.2664
 2978TIP3    H130493   0.731   0.651   0.375 -1.4912 -0.5858 -0.6574
 2978TIP3    H230494   0.695   0.592   0.510 -1.0363  0.9033  0.1333
 2979TIP3   OH230495   4.907   5.823   0.189 -0.4920  0.0990  0.2228
 2979TIP3    H130496   4.834   5.807   0.129  0.0626 -0.6534 -0.2659
 2979TIP3    H230497   4.916   5.918   0.191 -1.4391  0.2021  0.2392
 2980TIP3   OH230498   4.866   3.527   6.459 -0.1198 -0.2810 -0.0930
 2980TIP3    H130499   4.800   3.524   6.391 -1.7389 -0.6225  1.4293
 2980TIP3    H230500   4.840   3.460   6.522  1.1907  0.1626  0.9797
 2981TIP3   OH230501   5.094   2.663   1.178  0.5234 -0.2913 -0.0535
 2981TIP3    H130502   5.166   2.669   1.115  1.0890 -1.6344  0.4159
 2981TIP3    H230503   5.017   2.644   1.126  0.6886  0.1466 -0.4683
 2982TIP3   OH230504   0.969   3.105   0.714 -0.1314 -0.1042 -0.3481
 2982TIP3    H130505   0.897   3.124   0.654 -0.6228  2.8724  1.0272
 2982TIP3    H230506   0.960   3.011   0.733 -3.2680  0.0191 -0.6902
 2983TIP3   OH230507   5.253   2.015   7.360  0.1120 -0.0146  0.0325
 2983TIP3    H130508   5.201   2.050   7.287 -1.1148 -0.0908  0.8595
 2983TIP3    H230509   5.217   2.056   7.438  0.6152 -0.8689  0.7351
 2984TIP3   OH230510   6.754   6.212   2.087 -0.1020 -0.9279  0.3214
 2984TIP3    H130511   6.760   6.253   2.174 -0.6741 -1.1219  0.4544
 2984TIP3    H230512   6.800   6.128   2.097  0.6775 -0.5268  0.1704
 2985TIP3   OH230513   0.402   5.330   0.133  0.0890 -0.3395  0.1639
 2985TIP3    H130514   0.372   5.240   0.138  0.8099 -0.6871 -1.2598
 2985TIP3    H230515   0.348   5.377   0.196 -2.5913 -1.1444 -1.3937
 2986TIP3   OH230516   5.513   5.965   0.940 -0.0763  0.2666  0.2582
 2986TIP3    H130517   5.453   5.900   0.976 -0.6200 -0.8194 -2.3349
 2986TIP3    H230518   5.463   6.007   0.870  0.2602  3.6127  1.8474
 2987TIP3   OH230519   1.959   3.514   8.579  0.0409 -0.6795 -0.2946
 2987TIP3    H130520   1.882   3.462   8.600 -1.3513  1.5911  0.6772
 2987TIP3    H230521   1.986   3.484   8.492 -2.8261 -0.6122 -1.3080
 2988TIP3   OH230522   3.259   1.208   7.992 -0.6379 -0.2167  0.0621
 2988TIP3    H130523   3.181   1.254   7.960  0.1126 -0.2779 -2.0068
 2988TIP3    H230524   3.250   1.210   8.087 -2.7708  0.4442 -0.0912
 2989TIP3   OH230525   5.491   5.173   1.166 -0.0024 -0.4321 -0.4213
 2989TIP3    H130526   5.466   5.081   1.172  0.0280 -0.4243 -0.1474
 2989TIP3    H230527   5.483   5.194   1.073 -0.1894 -0.6603 -0.4586
 2990TIP3   OH230528   1.085   5.391   8.026 -0.0525  0.1284  0.2052
 2990TIP3    H130529   1.144   5.316   8.018 -1.4579 -0.9887 -0.0710
 2990TIP3    H230530   1.141   5.462   8.057  1.0156 -1.4266  2.0830
 2991TIP3   OH230531   1.868   6.084   0.847 -0.6769  0.1564  0.0523
 2991TIP3    H130532   1.896   6.172   0.871 -0.4849  0.1976 -0.3130
 2991TIP3    H230533   1.841   6.044   0.929  0.9770 -0.0804  0.5199
 2992TIP3   OH230534   0.562   6.436   0.025 -0.0496 -0.1754 -0.5520
 2992TIP3    H130535   0.545   6.521   0.066  2.3995 -0.4196  1.1851
 2992TIP3    H230536   0.603   6.457  -0.059  0.8988  0.4000  0.0354
 2993TIP3   OH230537   1.352   6.365   0.787  0.3618 -0.1668 -0.2868
 2993TIP3    H130538   1.356   6.457   0.813  0.3126  0.3611 -2.0285
 2993TIP3    H230539   1.302   6.323   0.856 -0.1513  1.2344  0.2297
 2994TIP3   OH230540   1.567   3.200   1.952 -0.3361 -0.4683  0.5476
 2994TIP3    H130541   1.483   3.196   1.998 -1.3537  1.4851 -0.9963
 2994TIP3    H230542   1.587   3.109   1.932 -0.4834 -1.2958  3.5927
 2995TIP3   OH230543   5.985   2.070   7.558 -0.2017  0.3808  0.3403
 2995TIP3    H130544   6.037   2.140   7.599 -1.8573  2.0247 -0.2277
 2995TIP3    H230545   5.898   2.108   7.548 -0.3474 -0.5374 -3.0378
 2996TIP3   OH230546   3.564   5.779   0.019 -0.2526 -0.2803 -0.2292
 2996TIP3    H130547   3.630   5.717  -0.011 -1.1679 -0.4283 -2.0835
 2996TIP3    H230548   3.602   5.865   0.004  0.0693 -0.3716  0.0587
 2997TIP3   OH230549   3.904   3.284   1.407  0.2197 -0.0051 -0.4242
 2997TIP3    H130550   3.896   3.278   1.312  1.9632 -0.0215 -0.5912
 2997TIP3    H230551   3.923   3.376   1.424 -1.0970  0.2079  0.0163
 2998TIP3   OH230552   2.170   3.880   7.223 -0.1379 -0.8967  0.4751
 2998TIP3    H130553   2.222   3.916   7.295 -0.6619  0.0978  0.3745
 2998TIP3    H230554   2.145   3.792   7.253 -2.3340  0.3335  2.5940
 2999TIP3   OH230555   0.997   4.181   7.284  0.3175 -0.6001  0.2024
 2999TIP3    H130556   1.005   4.116   7.354 -0.2177  1.4298  2.2740
 2999TIP3    H230557   1.018   4.265   7.327  0.8105  0.6475 -2.2942
 3000TIP3   OH230558   5.475   4.553   7.972 -0.2837  0.0550  0.3338
 3000TIP3    H130559   5.475   4.472   7.921  0.5506  0.3508 -0.1491
 3000TIP3    H230560   5.414   4.610   7.926  0.2587  0.2241 -0.1848
 3001TIP3   OH230561   6.826   1.034   0.075  0.5023  0.4508  0.0817
 3001TIP3    H130562   6.812   1.071   0.163  1.2886 -0.8882  0.7966
 3001TIP3    H230563   6.908   1.074   0.045  1.3614 -0.6516  0.8626
 3002TIP3   OH230564   2.129   5.866   8.602  0.3915  0.1406 -0.3831
 3002TIP3    H130565   2.053   5.809   8.592 -0.3282  1.1383 -0.8351
 3002TIP3    H230566   2.160   5.849   8.691 -3.3457  3.1328  1.8042
 3003TIP3   OH230567   0.846   1.995   2.571  0.0352 -0.0676  0.2020
 3003TIP3    H130568   0.846   1.966   2.662  1.5425  0.2886  0.3536
 3003TIP3    H230569   0.902   1.931   2.527 -0.8680 -0.3682 -0.5367
 3004TIP3   OH230570   0.236   1.617   0.160 -0.2665  0.0676 -0.1736
 3004TIP3    H130571   0.228   1.700   0.112 -0.9321 -0.4083 -0.9076
 3004TIP3    H230572   0.206   1.637   0.248  1.1352  1.0010  0.1242
 3005TIP3   OH230573   0.609   0.630   8.663  0.3324 -0.4816 -0.1129
 3005TIP3    H130574   0.604   0.558   8.726  2.6422  0.0661  0.8118
 3005TIP3    H230575   0.663   0.696   8.707 -0.8822  1.4156 -1.3197
 3006TIP3   OH230576   2.267   6.783   1.382  0.3564 -0.3707  0.1479
 3006TIP3    H130577   2.233   6.694   1.375  0.6664 -0.6002  1.2754
 3006TIP3    H230578   2.272   6.799   1.477  0.7001  0.6904 -0.0352
 3007TIP3   OH230579   1.821   2.188   0.073  1.0323 -0.5950 -0.6479
 3007TIP3    H130580   1.805   2.232   0.156 -0.9689 -0.7758 -0.8819
 3007TIP3    H230581   1.907   2.219   0.045  2.0033 -0.9597  1.7243
 3008TIP3   OH230582   6.758   5.959   0.861 -0.8633  0.1253  0.2175
 3008TIP3    H130583   6.818   6.030   0.883  0.1000 -0.4802 -0.4049
 3008TIP3    H230584   6.713   5.990   0.782 -0.7177  0.2006  0.1638
 3009TIP3   OH230585   6.698   5.291   0.669  0.9977 -0.3917  0.4553
 3009TIP3    H130586   6.615   5.259   0.705  0.0105  1.2288 -0.2898
 3009TIP3    H230587   6.741   5.335   0.742  1.1841 -1.1311  0.8097
 3010TIP3   OH230588   5.352   3.537   1.855 -0.6107  0.2391  0.2525
 3010TIP3    H130589   5.328   3.452   1.891  0.9070 -0.4272 -0.2214
 3010TIP3    H230590   5.371   3.591   1.931 -0.7481 -0.1197  0.5448
 3011TIP3   OH230591   4.964   2.685   6.210  0.0439  0.6339  0.4826
 3011TIP3    H130592   5.000   2.618   6.152 -2.4441 -0.3053 -0.1231
 3011TIP3    H230593   5.030   2.754   6.212  2.4056 -1.4871  0.5690
 3012TIP3   OH230594   0.878   4.275   2.579 -0.0918  0.0714 -0.1481
 3012TIP3    H130595   0.809   4.293   2.515 -1.2257 -0.9591  0.7343
 3012TIP3    H230596   0.845   4.314   2.660  2.0298  2.7578 -0.4551
 3013TIP3   OH230597   0.142   3.393   7.142 -0.1025 -0.0158 -0.5156
 3013TIP3    H130598   0.223   3.417   7.187 -0.4365  1.7826 -0.7911
 3013TIP3    H230599   0.096   3.476   7.129 -1.7730 -0.9295 -0.8061
 3014TIP3   OH230600   4.212   4.608   0.569  0.2416 -0.4307 -0.8316
 3014TIP3    H130601   4.275   4.578   0.635 -1.9980  0.7967  2.1457
 3014TIP3    H230602   4.208   4.536   0.506  2.9766 -1.4547  0.0033
 3015TIP3   OH230603   6.064   5.143   0.578  0.4872  0.6458 -0.0761
 3015TIP3    H130604   5.983   5.148   0.528  0.2879 -0.0650  0.1682
 3015TIP3    H230605   6.036   5.129   0.669  0.8877 -0.4226 -0.1033
 3016TIP3   OH230606   1.821   1.767   0.120 -0.3469  0.1953 -0.4181
 3016TIP3    H130607   1.770   1.815   0.055 -0.8622  2.0024  1.1988
 3016TIP3    H230608   1.910   1.800   0.112 -0.6182  1.1839  0.4211
 3017TIP3   OH230609   1.762   6.365   1.721  0.1573  0.1293  0.5927
 3017TIP3    H130610   1.834   6.310   1.691 -0.6981  0.2304 -1.8564
 3017TIP3    H230611   1.687   6.306   1.725 -0.0839  0.4624  1.0784
 3018TIP3   OH230612   0.544   2.246   8.228  0.6977  0.4121 -0.2984
 3018TIP3    H130613   0.492   2.236   8.308 -0.0354  1.8480 -0.5665
 3018TIP3    H230614   0.485   2.289   8.166  0.9788 -1.4144 -1.9274
 3019TIP3   OH230615   2.877   1.675   8.309 -0.0471 -0.3764 -0.3015
 3019TIP3    H130616   2.898   1.588   8.343  1.8937  0.1924  0.0771
 3019TIP3    H230617   2.804   1.705   8.363 -0.2953 -1.4868  0.0140
 3020TIP3   OH230618   1.832   3.909   7.486  0.3331 -0.6406  0.6510
 3020TIP3    H130619   1.833   3.919   7.391  2.3273 -0.3662  0.6601
 3020TIP3    H230620   1.923   3.924   7.513 -0.1032 -1.1339  2.5609
 3021TIP3   OH230621   2.114   6.711   6.403  0.5357  0.1813 -0.4075
 3021TIP3    H130622   2.126   6.630   6.454 -1.1286  0.6089  0.7364
 3021TIP3    H230623   2.040   6.692   6.346  0.3625  0.7782 -0.3827
 3022TIP3   OH230624   2.965   1.406   8.643 -0.2870 -0.3281 -0.0178
 3022TIP3    H130625   2.954   1.365   8.729 -0.9851 -0.4303 -0.1504
 3022TIP3    H230626   3.054   1.382   8.616  0.3848  0.6501  1.1749
 3023TIP3   OH230627   3.287   4.756   7.351  0.3428  0.1761 -0.6715
 3023TIP3    H130628   3.198   4.770   7.320  0.7157  1.2566 -1.2961
 3023TIP3    H230629   3.322   4.844   7.368  0.2458 -0.3068  2.7204
 3024TIP3   OH230630   2.813   4.016   7.215 -0.1302  0.4785 -0.1876
 3024TIP3    H130631   2.762   4.093   7.240 -2.2169 -0.3684 -1.5329
 3024TIP3    H230632   2.768   3.943   7.258  1.7888 -0.0462  1.0322
 3025TIP3   OH230633   4.656   4.003   0.401 -0.1997  0.4165  0.0767
 3025TIP3    H130634   4.702   4.052   0.469  0.2161 -1.2529  1.0472
 3025TIP3    H230635   4.569   4.044   0.398 -1.3838 -1.3251  3.8904
 3026TIP3   OH230636   1.161   3.978   0.629 -0.8966  0.0532  0.1122
 3026TIP3    H130637   1.248   3.993   0.664 -0.1073  1.1673 -2.1629
 3026TIP3    H230638   1.102   4.020   0.692  0.3485  1.0256  0.6641
 3027TIP3   OH230639   1.464   4.731   1.030 -0.8617 -0.0439 -0.0979
 3027TIP3    H130640   1.459   4.825   1.016 -0.3320  0.3341  2.0440
 3027TIP3    H230641   1.533   4.702   0.970  1.1513  1.4391  1.3895
 3028TIP3   OH230642   6.501   2.941   0.267  0.3635  0.2367 -0.5650
 3028TIP3    H130643   6.515   2.897   0.351 -2.0583  0.3648 -0.0356
 3028TIP3    H230644   6.533   3.030   0.280  0.8833 -0.0155 -0.0942
 3029TIP3   OH230645   0.997   1.647   0.876 -0.5093 -0.0874 -0.2096
 3029TIP3    H130646   1.081   1.686   0.900 -0.6521 -0.3959  0.8666
 3029TIP3    H230647   0.962   1.703   0.807 -0.2477  1.1010  0.6063
 3030TIP3   OH230648   1.166   0.329   7.810  0.2239  0.1602 -0.1927
 3030TIP3    H130649   1.150   0.303   7.900  1.1397 -1.7373 -0.5191
 3030TIP3    H230650   1.261   0.345   7.806 -0.1433  2.8505 -0.2512
 3031TIP3   OH230651   5.364   0.612   0.870  0.9698  0.6906  0.0946
 3031TIP3    H130652   5.302   0.665   0.919 -1.1392 -0.5420 -1.1185
 3031TIP3    H230653   5.322   0.597   0.785  2.3641 -1.2341 -0.3327
 3032TIP3   OH230654   4.234   3.966   6.552  0.2451 -0.0446 -0.5299
 3032TIP3    H130655   4.224   4.013   6.469 -0.2878  0.6723 -0.0817
 3032TIP3    H230656   4.307   4.010   6.595  0.0530  0.0733 -0.3165
 3033TIP3   OH230657   2.602   3.499   7.715 -0.2383 -0.0248  0.2834
 3033TIP3    H130658   2.631   3.588   7.733 -1.8214  0.5749  0.0562
 3033TIP3    H230659   2.555   3.506   7.632  1.5076 -1.5240 -0.9011
 3034TIP3   OH230660   5.743   6.485   7.819  0.7015 -0.2082 -0.4382
 3034TIP3    H130661   5.778   6.438   7.895 -0.6106  1.1420  1.1046
 3034TIP3    H230662   5.775   6.575   7.829 -0.1592  0.1805 -1.0051
 3035TIP3   OH230663   3.369   3.035   7.909  0.5385 -0.2458  0.4085
 3035TIP3    H130664   3.311   3.049   7.834  0.3736 -0.3679  0.5113
 3035TIP3    H230665   3.366   3.118   7.957  0.9400 -0.0345  0.0827
 3036TIP3   OH230666   1.230   2.423   0.104  0.5546 -0.3026 -0.6418
 3036TIP3    H130667   1.220   2.496   0.043 -1.1237  1.2879  1.3887
 3036TIP3    H230668   1.278   2.459   0.178  0.2625 -1.4360  0.1364
 3037TIP3   OH230669   4.212   0.916   0.820  0.6169  0.2980  0.2056
 3037TIP3    H130670   4.185   0.913   0.728 -0.3386  0.0450  0.4894
 3037TIP3    H230671   4.293   0.864   0.822  0.1286 -0.5029 -0.3164
 3038TIP3   OH230672   0.721   4.451   1.582 -0.2266 -0.4318 -0.3023
 3038TIP3    H130673   0.793   4.407   1.537 -1.1371 -0.3103 -1.9943
 3038TIP3    H230674   0.722   4.417   1.671  1.3802 -1.0642 -0.5449
 3039TIP3   OH230675   5.394   6.024   7.148  0.4178  0.2165  0.5092
 3039TIP3    H130676   5.435   5.996   7.230  0.9337 -0.1525  0.1360
 3039TIP3    H230677   5.394   5.946   7.093 -3.0717 -0.4830  1.3364
 3040TIP3   OH230678   1.498   0.858   7.068  0.1803 -0.2140 -0.0316
 3040TIP3    H130679   1.466   0.768   7.074  1.0421 -0.4879  0.6923
 3040TIP3    H230680   1.422   0.909   7.041 -0.3734 -1.1293 -0.2310
 3041TIP3   OH230681   4.055   0.991   7.201 -0.1217  0.1646 -0.0329
 3041TIP3    H130682   3.996   0.918   7.220  0.7947 -0.2359  1.4467
 3041TIP3    H230683   3.997   1.061   7.170 -1.1288 -0.8486 -0.4830
 3042TIP3   OH230684   3.964   3.683   8.593  0.0491  0.3146 -0.2648
 3042TIP3    H130685   3.942   3.629   8.517 -0.3909  1.1686 -0.7550
 3042TIP3    H230686   3.890   3.673   8.652  0.2665 -0.1325 -0.0648
 3043TIP3   OH230687   1.904   5.896   6.168  0.3013  0.2518 -0.4997
 3043TIP3    H130688   1.995   5.910   6.193  0.6164  0.4636 -1.7155
 3043TIP3    H230689   1.889   5.956   6.095 -0.3459 -0.8837 -1.3404
 3044TIP3   OH230690   5.840   1.133   0.812 -0.0313 -0.2060  0.0216
 3044TIP3    H130691   5.920   1.183   0.802  0.5759 -1.3521 -1.1156
 3044TIP3    H230692   5.776   1.178   0.756  0.9502 -1.5387 -2.3088
 3045TIP3   OH230693   4.621   2.772   7.709 -0.0764 -0.0624 -1.0912
 3045TIP3    H130694   4.564   2.812   7.774  0.3434 -1.1168 -0.0461
 3045TIP3    H230695   4.566   2.761   7.632 -1.0853 -0.4283 -0.3322
 3046TIP3   OH230696   1.980   6.119   8.204 -0.4532 -0.1077 -0.3879
 3046TIP3    H130697   1.990   6.113   8.109 -0.9591  0.1626 -0.4617
 3046TIP3    H230698   1.890   6.090   8.220 -0.9325  1.4553 -0.1618
 3047TIP3   OH230699   6.762   2.895   7.746 -0.2310 -0.3952  0.1772
 3047TIP3    H130700   6.833   2.875   7.808 -1.3080 -2.7992  0.7717
 3047TIP3    H230701   6.695   2.937   7.799 -0.1141 -0.0950  0.0861
 3048TIP3   OH230702   5.308   3.847   0.566  0.0229  0.4210  0.0784
 3048TIP3    H130703   5.216   3.852   0.540  0.0095  1.0111  0.2429
 3048TIP3    H230704   5.323   3.753   0.581 -0.9862  0.4815  1.6670
 3049TIP3   OH230705   1.176   0.736   7.454 -0.0262 -0.1104  0.2450
 3049TIP3    H130706   1.195   0.777   7.538 -1.0745 -0.4681  0.6814
 3049TIP3    H230707   1.127   0.803   7.405 -0.2808 -0.2512  0.3062
 3050TIP3   OH230708   3.138   5.130   1.706 -0.2136 -0.2554  0.3777
 3050TIP3    H130709   3.044   5.117   1.697 -0.3988  0.2574  1.3697
 3050TIP3    H230710   3.167   5.059   1.763  0.0390 -0.5235 -0.0812
 3051TIP3   OH230711   0.410   6.693   0.708  0.4547  0.2243  0.8110
 3051TIP3    H130712   0.471   6.623   0.683 -0.0416  0.2924 -0.6846
 3051TIP3    H230713   0.323   6.653   0.698  0.1759  0.9742  0.1445
 3052TIP3   OH230714   4.096   2.131   8.229 -0.9386 -0.3548 -0.0830
 3052TIP3    H130715   4.017   2.114   8.279 -1.1340  1.9868  0.5467
 3052TIP3    H230716   4.074   2.206   8.174  0.9797  0.7656  0.5579
 3053TIP3   OH230717   4.233   1.530   1.455  0.0212  0.2397 -0.1068
 3053TIP3    H130718   4.269   1.442   1.468  2.2720  1.2680  1.0890
 3053TIP3    H230719   4.154   1.531   1.508  0.0685 -0.9719  0.0302
 3054TIP3   OH230720   1.326   4.447   7.653  0.1771  0.3002  0.4113
 3054TIP3    H130721   1.413   4.484   7.636 -0.2931  0.2631 -2.8163
 3054TIP3    H230722   1.343   4.356   7.678  1.0784  0.5620  0.7973
 3055TIP3   OH230723   0.727   4.651   7.082 -0.2577 -0.4226  0.0094
 3055TIP3    H130724   0.756   4.716   7.146 -0.1856  0.6449 -1.0780
 3055TIP3    H230725   0.750   4.567   7.121 -0.6971  0.1722  1.6217
 3056TIP3   OH230726   6.499   3.442   0.490  0.2896  0.1024  0.2915
 3056TIP3    H130727   6.540   3.372   0.440 -0.5358 -1.5371  1.7597
 3056TIP3    H230728   6.572   3.492   0.526  0.8929  0.6502 -1.5786
 3057TIP3   OH230729   6.394   5.920   7.362  0.7010  0.4789  0.4558
 3057TIP3    H130730   6.338   5.994   7.339 -0.4436 -0.5497 -0.1837
 3057TIP3    H230731   6.404   5.871   7.281 -1.4450 -1.9332  1.4992
 3058TIP3   OH230732   5.601   0.043   7.853  0.3815  0.6409 -0.0195
 3058TIP3    H130733   5.604   0.018   7.945  0.8372  0.2651 -0.1320
 3058TIP3    H230734   5.578   0.136   7.854 -1.0338  0.3025  0.4091
 3059TIP3   OH230735   4.945   2.487   1.794 -0.2091  0.2016  0.2995
 3059TIP3    H130736   4.951   2.550   1.723  1.2366 -2.8931 -2.5841
 3059TIP3    H230737   5.019   2.509   1.852 -0.2981  1.6569 -0.0918
 3060TIP3   OH230738   4.849   3.305   0.174 -0.1164 -0.3991 -0.4804
 3060TIP3    H130739   4.881   3.394   0.193 -1.0345 -0.1142 -0.2331
 3060TIP3    H230740   4.761   3.318   0.140 -0.0272 -1.1864 -1.0321
 3061TIP3   OH230741   1.694   1.328   2.090 -0.5680  0.0882  0.6790
 3061TIP3    H130742   1.614   1.292   2.130 -0.4750  0.7446  1.4782
 3061TIP3    H230743   1.759   1.326   2.160  0.3789 -1.1781 -0.1795
 3062TIP3   OH230744   1.595   4.611   8.604 -0.4000  0.8164 -0.1499
 3062TIP3    H130745   1.614   4.517   8.603 -2.0927  0.4562 -1.2469
 3062TIP3    H230746   1.681   4.652   8.615  0.8929 -0.7595 -3.2599
 3063TIP3   OH230747   5.180   4.682   7.920  0.3704 -0.1541 -0.6184
 3063TIP3    H130748   5.095   4.638   7.916  0.5848 -0.7156  0.6204
 3063TIP3    H230749   5.216   4.673   7.832 -0.7163 -0.1789 -1.0724
 3064TIP3   OH230750   6.053   6.027   7.513  0.4651 -0.0544  0.1718
 3064TIP3    H130751   6.094   5.974   7.444  0.4052  1.9918 -1.5179
 3064TIP3    H230752   6.125   6.080   7.547  0.1458  0.1527  0.5205
 3065TIP3   OH230753   5.899   5.161   6.760  0.1082 -0.1260  0.3326
 3065TIP3    H130754   5.872   5.223   6.828  0.9647  0.6674 -0.0277
 3065TIP3    H230755   5.970   5.205   6.714  1.2766 -1.6837  0.5472
 3066TIP3   OH230756   1.761   0.214   1.786  0.2684 -0.0211 -0.4843
 3066TIP3    H130757   1.699   0.186   1.719 -0.6842  0.4955  0.1571
 3066TIP3    H230758   1.798   0.132   1.820 -2.5978 -0.6577  1.4763
 3067TIP3   OH230759   6.780   0.840   7.434 -1.0270 -0.5026 -0.0576
 3067TIP3    H130760   6.728   0.910   7.394  0.0996 -0.3055 -1.2598
 3067TIP3    H230761   6.734   0.759   7.410 -1.7613 -0.2441  0.4493
 3068TIP3   OH230762   6.555   2.720   8.535  0.8136 -0.5857 -0.4484
 3068TIP3    H130763   6.596   2.639   8.566  1.0560 -0.8868 -1.4967
 3068TIP3    H230764   6.542   2.772   8.614  2.1638 -0.9697  0.0525
 3069TIP3   OH230765   2.760   6.369   6.929 -0.2566 -0.6559 -0.5145
 3069TIP3    H130766   2.683   6.373   6.986  0.0402 -0.4804 -0.1157
 3069TIP3    H230767   2.738   6.302   6.864  0.3889 -2.8637  1.3590
 3070TIP3   OH230768   5.113   3.546   7.974 -0.0279  0.0137  0.2409
 3070TIP3    H130769   5.107   3.519   8.066  1.0700 -0.9323  0.0608
 3070TIP3    H230770   5.032   3.515   7.935 -0.5061  0.4216  0.8759
 3071TIP3   OH230771   5.553   3.187   7.185 -0.0490 -0.1274 -0.1148
 3071TIP3    H130772   5.555   3.178   7.280  0.6151  0.8312 -0.0265
 3071TIP3    H230773   5.499   3.264   7.169  1.3239  0.8012 -0.4177
 3072TIP3   OH230774   2.532   5.236   0.973 -0.5143  0.0746 -0.2101
 3072TIP3    H130775   2.591   5.173   1.015 -0.5978  0.5259  0.6130
 3072TIP3    H230776   2.582   5.269   0.898  0.2187  0.3150  0.3649
 3073TIP3   OH230777   6.355   4.114   0.950 -0.5254 -0.3378  0.2768
 3073TIP3    H130778   6.449   4.125   0.963  0.0145 -1.7659 -1.8287
 3073TIP3    H230779   6.315   4.173   1.013  1.7624  0.0266  1.5114
 3074TIP3   OH230780   0.526   1.780   0.275  0.2936  0.5617  0.4636
 3074TIP3    H130781   0.614   1.764   0.240  0.1359  1.0622 -0.1768
 3074TIP3    H230782   0.491   1.692   0.293  1.2105  0.3777  1.4823
 3075TIP3   OH230783   1.962   5.804   7.678  0.1467 -0.2728  0.8182
 3075TIP3    H130784   1.990   5.727   7.727  0.4256 -0.6576  0.0692
 3075TIP3    H230785   1.881   5.832   7.721 -0.0030 -1.0345  1.0496
 3076TIP3   OH230786   5.635   6.451   6.769  0.2612 -0.5510  0.3657
 3076TIP3    H130787   5.706   6.486   6.822 -0.7553  2.5273 -0.0976
 3076TIP3    H230788   5.640   6.499   6.686 -3.1611  0.9211  0.8518
 3077TIP3   OH230789   2.890   1.243   0.096  0.3573 -0.1990  0.4397
 3077TIP3    H130790   2.838   1.221   0.174 -0.1958 -0.1861  0.0816
 3077TIP3    H230791   2.854   1.187   0.028  1.6526 -1.1095  0.4688
 3078TIP3   OH230792   3.413   0.279   7.069  1.0590  0.4290 -0.4425
 3078TIP3    H130793   3.356   0.248   6.999  0.4329  0.3991  0.0725
 3078TIP3    H230794   3.405   0.214   7.138  0.3598  1.2916  0.3244
 3079TIP3   OH230795   2.724   0.044   1.617  0.1764  0.3351 -0.1647
 3079TIP3    H130796   2.658   0.055   1.686 -0.8809  0.8479 -1.2318
 3079TIP3    H230797   2.674   0.024   1.538  1.3507  0.0508 -0.8621
 3080TIP3   OH230798   1.186   6.050   1.764 -0.2241  0.0888 -0.3353
 3080TIP3    H130799   1.225   6.120   1.816  1.8573  0.7877 -2.6272
 3080TIP3    H230800   1.203   6.076   1.673 -0.5119 -2.7867 -1.2940
 3081TIP3   OH230801   3.559   1.831   8.031  0.0064  0.2479 -0.3650
 3081TIP3    H130802   3.469   1.798   8.041  0.1748 -0.1257 -0.0610
 3081TIP3    H230803   3.548   1.926   8.020 -0.7691 -0.1461 -4.9517
 3082TIP3   OH230804   1.292   6.781   6.999 -0.0323 -0.3061 -0.4702
 3082TIP3    H130805   1.223   6.718   6.978 -0.3291  0.2844 -1.3167
 3082TIP3    H230806   1.341   6.740   7.070 -0.3220 -1.4232 -0.8902
 3083TIP3   OH230807   3.318   2.789   1.693  0.4744 -0.7705 -0.0813
 3083TIP3    H130808   3.237   2.747   1.723 -0.0300 -0.4455 -0.9795
 3083TIP3    H230809   3.344   2.845   1.766  0.0953 -1.1498  0.3568
 3084TIP3   OH230810   5.445   3.942   6.970 -0.0127 -0.4091 -0.2806
 3084TIP3    H130811   5.463   4.004   7.041  0.4943  0.6619 -1.3084
 3084TIP3    H230812   5.350   3.948   6.957  0.1542  0.9860 -1.0666
 3085TIP3   OH230813   0.277   0.006   8.366 -0.2683 -0.1712 -0.8629
 3085TIP3    H130814   0.247  -0.058   8.302  2.0883 -1.7170 -0.5462
 3085TIP3    H230815   0.244  -0.028   8.450  0.3903 -0.6084 -0.7753
 3086TIP3   OH230816   5.693   4.018   0.392  0.2031 -0.3862 -0.1231
 3086TIP3    H130817   5.635   4.002   0.318 -0.5813 -0.1614  0.4345
 3086TIP3    H230818   5.747   3.939   0.398 -1.5017 -1.5537  0.6664
 3087TIP3   OH230819   1.796   6.739   6.542  0.4229  0.5259 -0.1409
 3087TIP3    H130820   1.832   6.714   6.457  0.8374  0.1525  0.1401
 3087TIP3    H230821   1.713   6.691   6.548 -0.4863  1.9356 -1.0911
 3088TIP3   OH230822   3.940   6.810   1.425 -0.2095 -0.1307  0.8078
 3088TIP3    H130823   3.952   6.802   1.520  0.7600 -0.7396  0.6450
 3088TIP3    H230824   3.846   6.826   1.414 -0.4506 -0.7900  1.8233
 3089TIP3   OH230825   5.961   1.971   1.797  0.2791  0.0740  0.8686
 3089TIP3    H130826   6.022   1.899   1.779 -0.4869 -0.8990  2.0855
 3089TIP3    H230827   5.926   1.953   1.884 -1.8863  0.5244  0.1468
 3090TIP3   OH230828   4.500   3.673   8.358  0.2275  0.2050 -0.0687
 3090TIP3    H130829   4.423   3.719   8.326  0.0021  0.8273  1.3045
 3090TIP3    H230830   4.526   3.616   8.285 -1.7629 -0.3269 -0.4208
 3091TIP3   OH230831   5.035   3.141   1.501  0.2176  0.7419 -0.0355
 3091TIP3    H130832   4.943   3.122   1.485  0.2567  0.1824  0.3720
 3091TIP3    H230833   5.046   3.128   1.595  1.2825 -1.7521 -0.4347
 3092TIP3   OH230834   4.081   5.499   8.655  0.4225  0.1653 -0.3214
 3092TIP3    H130835   4.076   5.506   8.750 -2.1070  0.2061 -0.4004
 3092TIP3    H230836   4.106   5.408   8.639  0.5687  0.0752  0.3769
 3093TIP3   OH230837   0.185   6.104   7.168  0.0049  0.4921 -0.4155
 3093TIP3    H130838   0.149   6.192   7.176 -1.1589  0.1224 -1.1998
 3093TIP3    H230839   0.166   6.063   7.253 -1.5980  0.2842 -0.8270
 3094TIP3   OH230840   0.106   4.891   2.247 -1.1208  0.1189  0.1951
 3094TIP3    H130841   0.165   4.884   2.323  0.1078  0.5176 -0.6838
 3094TIP3    H230842   0.098   4.802   2.215 -0.0786  0.1861 -0.3160
 3095TIP3   OH230843   2.447   1.166   6.726 -0.5861 -0.3160 -0.2857
 3095TIP3    H130844   2.366   1.184   6.679 -0.8112  0.6884  0.4541
 3095TIP3    H230845   2.512   1.222   6.683 -0.0543 -1.7275 -1.4255
 3096TIP3   OH230846   2.242   6.306   1.494 -0.5309 -0.3977 -0.1532
 3096TIP3    H130847   2.284   6.336   1.575 -2.0557 -0.7107  0.8014
 3096TIP3    H230848   2.260   6.212   1.492 -0.1153 -0.3141 -0.4218
 3097TIP3   OH230849   6.591   4.456   7.261 -0.5498 -0.5687 -0.2953
 3097TIP3    H130850   6.634   4.531   7.220  1.5670 -1.1522  0.7136
 3097TIP3    H230851   6.527   4.494   7.320  1.0070  0.5447  0.7575
 3098TIP3   OH230852   2.234   4.357   0.513  0.0778 -0.2325 -0.4569
 3098TIP3    H130853   2.222   4.452   0.514  0.1846 -0.1885 -1.6956
 3098TIP3    H230854   2.146   4.321   0.527 -0.2213  0.0643 -1.4856
 3099TIP3   OH230855   6.817   1.534   6.275  0.8162  0.1128  0.1636
 3099TIP3    H130856   6.809   1.439   6.276 -1.5181  0.2032 -1.3706
 3099TIP3    H230857   6.818   1.557   6.182  0.1588  1.6430  0.5067
 3100TIP3   OH230858   3.862   6.068   6.947  0.6793  0.2959  0.0333
 3100TIP3    H130859   3.767   6.078   6.935  0.5403  1.0163  1.4676
 3100TIP3    H230860   3.887   5.998   6.887 -0.8617 -0.3049  0.0556
 3101TIP3   OH230861   6.450   2.703   8.133  0.5077  0.2219 -0.0638
 3101TIP3    H130862   6.458   2.755   8.053 -0.8678  1.4703  0.5468
 3101TIP3    H230863   6.398   2.627   8.107  0.6442  0.2739 -0.5021
 3102TIP3   OH230864   6.276   4.084   7.131 -0.3728  0.2188  0.4581
 3102TIP3    H130865   6.345   4.131   7.178  1.7518 -1.5425 -0.7243
 3102TIP3    H230866   6.223   4.044   7.200  1.2487 -0.3494  1.4243
 3103TIP3   OH230867   3.048   6.450   0.269 -0.3716 -0.0045 -0.0530
 3103TIP3    H130868   3.030   6.463   0.362  0.1000 -2.1572  0.3941
 3103TIP3    H230869   3.018   6.361   0.251  0.2175  0.1161 -1.7974
 3104TIP3   OH230870   3.649   1.783   7.052 -0.0940  0.1948 -0.1445
 3104TIP3    H130871   3.553   1.789   7.046  0.0520  3.2114 -0.6979
 3104TIP3    H230872   3.678   1.768   6.962 -0.0288 -1.9670  0.1806
 3105TIP3   OH230873   5.786   1.639   1.398 -0.0695 -0.1014 -0.0691
 3105TIP3    H130874   5.703   1.673   1.431  1.6174  1.5083  2.9396
 3105TIP3    H230875   5.815   1.704   1.334 -0.4803 -0.0043 -0.1648
 3106TIP3   OH230876   2.119   1.938   2.305 -0.3058 -0.1031  0.2391
 3106TIP3    H130877   2.127   1.845   2.325 -1.6768 -0.7062 -1.6791
 3106TIP3    H230878   2.066   1.974   2.377  0.2112 -0.8014  0.9826
 3107TIP3   OH230879   0.750   0.066   2.029 -0.2318 -0.2149  0.5763
 3107TIP3    H130880   0.679   0.003   2.040 -0.1496 -0.3610  0.2908
 3107TIP3    H230881   0.740   0.128   2.101 -0.6069 -0.2762  0.5759
 3108TIP3   OH230882   0.812   1.337   0.225 -0.2185 -0.0168  0.0583
 3108TIP3    H130883   0.779   1.285   0.151  1.1951 -0.1157 -0.5359
 3108TIP3    H230884   0.906   1.346   0.208 -0.0238  0.7312  1.3884
 3109TIP3   OH230885   3.154   2.634   6.206 -0.0248 -0.0528  0.5098
 3109TIP3    H130886   3.231   2.683   6.178  0.2007 -0.6201  0.1213
 3109TIP3    H230887   3.165   2.547   6.168 -0.4470 -0.3955  1.1364
 3110TIP3   OH230888   6.161   3.918   0.652 -0.6077  0.4083  0.1952
 3110TIP3    H130889   6.128   3.862   0.582 -0.0596 -0.6978  0.7852
 3110TIP3    H230890   6.139   3.870   0.733 -0.1611  1.0607  0.7133
 3111TIP3   OH230891   2.451   3.936   1.975  0.0065 -0.2156 -0.3137
 3111TIP3    H130892   2.531   3.984   1.953 -0.6469  1.7124  1.3068
 3111TIP3    H230893   2.381   3.983   1.930 -0.5493 -0.0986  0.6473
 3112TIP3   OH230894   0.191   1.820   7.300 -0.4419  0.5459  0.3000
 3112TIP3    H130895   0.097   1.822   7.314 -0.5882 -0.4614 -0.4085
 3112TIP3    H230896   0.220   1.910   7.314 -1.4079  0.7389  1.1391
 3113TIP3   OH230897   3.649   4.360   7.154 -0.3544 -0.6045  0.3750
 3113TIP3    H130898   3.660   4.298   7.082 -1.9121 -0.2142 -0.2398
 3113TIP3    H230899   3.573   4.413   7.129 -0.2397  0.2819  1.7863
 3114TIP3   OH230900   1.148   3.868   0.387  0.4999  0.2358 -0.8687
 3114TIP3    H130901   1.232   3.876   0.342  0.2376  3.9114 -1.0015
 3114TIP3    H230902   1.163   3.906   0.473 -0.9203  0.5851 -0.7475
 3115TIP3   OH230903   6.171   5.313   7.512  0.1965 -0.1867  0.0081
 3115TIP3    H130904   6.094   5.293   7.564  0.1957 -2.1681 -0.6755
 3115TIP3    H230905   6.158   5.267   7.429  1.5063  0.5241 -0.6398
 3116TIP3   OH230906   4.442   4.654   1.590  0.1648  0.0269 -0.3274
 3116TIP3    H130907   4.468   4.743   1.613 -0.5578  0.0144  0.6255
 3116TIP3    H230908   4.346   4.655   1.595  0.1089 -0.6233 -1.0214
 3117TIP3   OH230909   5.307   1.496   0.397 -0.2785 -0.0567  0.4821
 3117TIP3    H130910   5.222   1.535   0.420  0.3519  0.6669  1.6602
 3117TIP3    H230911   5.320   1.426   0.461  1.0616  1.3655  1.8504
 3118TIP3   OH230912   4.577   2.495   7.616 -0.4457  0.6188 -0.5190
 3118TIP3    H130913   4.575   2.413   7.665  2.1058  0.1583 -1.0921
 3118TIP3    H230914   4.545   2.561   7.679  0.6076 -0.2954  1.0372
 3119TIP3   OH230915   3.768   3.332   7.217  0.1112 -0.3979  0.0331
 3119TIP3    H130916   3.698   3.397   7.211  1.5451  1.2576  0.3134
 3119TIP3    H230917   3.771   3.293   7.130  0.7670  1.6679 -0.9511
 3120TIP3   OH230918   4.465   0.951   0.068 -0.3525  0.0757  0.0181
 3120TIP3    H130919   4.447   0.960  -0.026  0.6587 -1.3391 -0.3413
 3120TIP3    H230920   4.560   0.958   0.076 -0.2282 -1.7873  0.6470
 3121TIP3   OH230921   0.279   5.833   1.113  0.1805 -0.2388 -0.3614
 3121TIP3    H130922   0.193   5.858   1.147 -0.6641  0.0551 -2.5489
 3121TIP3    H230923   0.308   5.762   1.169 -0.7544  0.7197  1.4112
 3122TIP3   OH230924   3.218   2.248   7.622  0.0341  0.0305  0.0458
 3122TIP3    H130925   3.174   2.327   7.590 -0.6391 -1.4319 -3.0324
 3122TIP3    H230926   3.301   2.246   7.574 -0.4645 -1.6425 -0.8196
 3123TIP3   OH230927   4.972   2.382   0.807  0.3392 -0.5087  0.0505
 3123TIP3    H130928   4.971   2.474   0.781  1.5327 -1.1290 -2.4039
 3123TIP3    H230929   4.887   2.369   0.850 -0.6366  1.2959 -1.1935
 3124TIP3   OH230930   3.896   4.783   0.577 -0.3052  0.4345  0.4186
 3124TIP3    H130931   3.908   4.743   0.491 -0.3852  0.4916  0.3804
 3124TIP3    H230932   3.983   4.781   0.617 -0.2960  0.2831  0.3913
 3125TIP3   OH230933   4.413   4.987   0.816  0.4752  0.1033 -0.5761
 3125TIP3    H130934   4.495   4.945   0.792  1.1493  1.6222 -1.0912
 3125TIP3    H230935   4.424   5.009   0.909 -0.3026 -1.7205 -0.0122
 3126TIP3   OH230936   4.204   2.574   8.354 -0.5001 -0.9956  0.3261
 3126TIP3    H130937   4.153   2.501   8.389 -1.7755  0.3469  1.4216
 3126TIP3    H230938   4.139   2.630   8.310  0.6944 -1.3542 -2.0844
 3127TIP3   OH230939   1.911   2.735   2.252  0.2768  0.1894 -0.1513
 3127TIP3    H130940   1.903   2.717   2.159  0.9739 -0.8357 -0.0347
 3127TIP3    H230941   2.005   2.737   2.268  0.1606 -0.0744  0.6087
 3128TIP3   OH230942   3.765   4.420   0.465 -0.0783  0.4367 -0.1420
 3128TIP3    H130943   3.718   4.496   0.499 -1.1072  0.2830 -1.1808
 3128TIP3    H230944   3.700   4.350   0.462  0.6448 -0.2681 -0.0003
 3129TIP3   OH230945   5.067   3.914   2.321  0.0451  0.1863  0.0705
 3129TIP3    H130946   5.059   3.897   2.227 -0.4894  0.6216  0.0232
 3129TIP3    H230947   5.017   3.844   2.362  0.6875 -0.2856  0.0611
 3130TIP3   OH230948   6.550   4.051   7.737 -0.2703  0.0247  0.0453
 3130TIP3    H130949   6.588   3.999   7.808  0.5972 -1.0138 -1.1328
 3130TIP3    H230950   6.489   4.110   7.781  0.6601 -0.1825  1.7138
 3131TIP3   OH230951   6.501   4.335   1.894  0.2564  0.2452 -0.1851
 3131TIP3    H130952   6.587   4.367   1.922  0.7825 -1.8394  0.7490
 3131TIP3    H230953   6.519   4.253   1.848 -1.1191  0.6254 -1.4910
 3132TIP3   OH230954   2.765   5.976   1.970  0.2329 -0.0287  0.1512
 3132TIP3    H130955   2.811   6.014   1.895  1.2380 -0.4055  0.5688
 3132TIP3    H230956   2.687   6.030   1.980  0.2047  0.1671 -1.0240
 3133TIP3   OH230957   0.569   1.380   2.333 -0.4964 -0.2226 -0.0410
 3133TIP3    H130958   0.594   1.469   2.359  0.1712 -0.2564 -0.5480
 3133TIP3    H230959   0.598   1.373   2.242 -2.8971 -0.0483 -0.8923
 3134TIP3   OH230960   5.843   1.571   8.704 -0.1126 -0.3736  0.3416
 3134TIP3    H130961   5.809   1.491   8.744 -0.1875  0.0746  1.2122
 3134TIP3    H230962   5.771   1.605   8.652 -0.3069 -0.5189  0.5158
 3135TIP3   OH230963   6.783   2.907   8.048  0.2055  0.5537 -0.1553
 3135TIP3    H130964   6.697   2.901   8.006 -0.1359  0.6478  0.5274
 3135TIP3    H230965   6.777   2.847   8.122  1.2082 -0.5354 -0.9245
 3136TIP3   OH230966   2.471   3.837   0.734  0.2159  0.1962  0.4909
 3136TIP3    H130967   2.469   3.756   0.785 -0.3823  0.1298  0.3722
 3136TIP3    H230968   2.549   3.883   0.765  0.6622 -0.5012  0.4426
 3137TIP3   OH230969   1.477   5.607   2.343  0.4391 -0.4110 -0.0254
 3137TIP3    H130970   1.560   5.603   2.391  1.2746 -0.3398 -1.4099
 3137TIP3    H230971   1.502   5.605   2.251 -0.9684  1.5795 -0.5383
 3138TIP3   OH230972   1.274   4.739   0.519  0.0990  0.2914  0.0197
 3138TIP3    H130973   1.274   4.816   0.575  1.1863 -0.1650  0.6880
 3138TIP3    H230974   1.286   4.665   0.579 -0.8544 -0.3981 -0.6114
 3139TIP3   OH230975   5.495   3.253   1.984  0.2971 -0.1742 -0.3605
 3139TIP3    H130976   5.572   3.197   1.988 -0.2495 -1.1050 -1.9961
 3139TIP3    H230977   5.524   3.337   2.020  1.6619 -0.9153  0.3455
 3140TIP3   OH230978   1.096   5.615   0.259  0.1469  0.1969  0.2143
 3140TIP3    H130979   1.057   5.657   0.335  2.1897  2.2933  0.2247
 3140TIP3    H230980   1.027   5.616   0.193 -0.7176  1.1220  1.0943
 3141TIP3   OH230981   3.395   0.789   1.134 -0.3110 -0.1942 -0.1047
 3141TIP3    H130982   3.341   0.775   1.056  0.9940 -1.9004 -0.7514
 3141TIP3    H230983   3.365   0.722   1.196 -0.3317  0.1941  0.3095
 3142TIP3   OH230984   4.482   0.585   0.465  0.5150  0.3588  0.0480
 3142TIP3    H130985   4.525   0.592   0.379  2.7976 -0.3305  1.0570
 3142TIP3    H230986   4.404   0.532   0.449  1.3829 -0.5157 -1.4390
 3143TIP3   OH230987   3.978   0.089   8.540 -0.6326 -0.5830  0.0033
 3143TIP3    H130988   4.032   0.011   8.533  0.2060 -0.0885  0.7209
 3143TIP3    H230989   4.040   0.161   8.549 -1.3990 -0.0112  0.9960
 3144TIP3   OH230990   3.590   4.405   8.092  0.3062 -0.3506  0.6410
 3144TIP3    H130991   3.552   4.440   8.173 -1.0389  0.2780 -0.2431
 3144TIP3    H230992   3.637   4.480   8.054 -1.9586  0.3979 -0.8776
 3145TIP3   OH230993   4.666   1.707   8.205  0.1669  0.0999 -0.1618
 3145TIP3    H130994   4.662   1.800   8.184  0.3812  0.4184  1.1200
 3145TIP3    H230995   4.718   1.669   8.134  0.1093  0.9629 -0.6797
 3146TIP3   OH230996   0.114   0.745   7.194  0.2869 -0.0593 -0.6089
 3146TIP3    H130997   0.024   0.744   7.162 -0.3142 -0.2409  0.9803
 3146TIP3    H230998   0.167   0.763   7.117 -1.1511  0.5923 -1.4875
 3147TIP3   OH230999   3.884   2.215   0.819 -0.3762  0.1746  0.2570
 3147TIP3    H131000   3.813   2.173   0.770 -0.1549 -0.4182  0.4349
 3147TIP3    H231001   3.914   2.147   0.879  1.4117 -0.1210 -0.9087
 3148TIP3   OH231002   4.318   0.712   0.072  0.0542  0.1969 -0.1902
 3148TIP3    H131003   4.333   0.654  -0.002  1.1612  1.4110 -0.9644
 3148TIP3    H231004   4.383   0.782   0.062  0.2335  0.4169  1.9207
 3149TIP3   OH231005   1.387   3.434   8.545  0.6251 -0.9162  0.0419
 3149TIP3    H131006   1.393   3.517   8.592  0.8680 -0.9789  0.1241
 3149TIP3    H231007   1.354   3.457   8.458  0.3741 -0.7734  0.1720
 3150TIP3   OH231008   6.006   6.168   7.865 -0.2988 -0.3666  0.3729
 3150TIP3    H131009   5.974   6.168   7.775 -0.5412 -1.2755  0.4419
 3150TIP3    H231010   5.970   6.088   7.903 -1.3037  0.6660  1.6858
 3151TIP3   OH231011   5.516   4.141   7.146  0.4024  0.1457 -0.1639
 3151TIP3    H131012   5.528   4.231   7.176  0.5997 -0.0953  0.4933
 3151TIP3    H231013   5.468   4.098   7.216  0.5991 -0.3476 -0.3260
 3152TIP3   OH231014   6.118   4.782   7.547 -0.2697 -0.2554  0.3541
 3152TIP3    H131015   6.166   4.702   7.525  0.4864 -0.7971  3.4942
 3152TIP3    H231016   6.057   4.756   7.616 -2.1794  1.3238 -0.6220
 3153TIP3   OH231017   2.831   5.699   8.154 -0.1409 -0.0239 -0.2987
 3153TIP3    H131018   2.758   5.742   8.109 -0.2462  0.0264 -0.0820
 3153TIP3    H231019   2.909   5.734   8.110 -0.2560 -0.4203 -0.8333
 3154TIP3   OH231020   1.150   0.804   7.768 -0.6498  0.3470  0.0554
 3154TIP3    H131021   1.068   0.782   7.812 -1.1557  0.5363 -0.7552
 3154TIP3    H231022   1.218   0.762   7.820 -1.4495 -1.8067 -0.5253
 3155TIP3   OH231023   0.515   6.444   1.055  0.3067 -0.5422 -0.5243
 3155TIP3    H131024   0.584   6.378   1.045  0.7570 -0.0152 -0.9434
 3155TIP3    H231025   0.561   6.527   1.052 -0.1961 -0.2078  0.5293
 3156TIP3   OH231026   1.301   4.033   2.168 -0.3750  0.1899  0.0720
 3156TIP3    H131027   1.212   4.068   2.180  0.1153  1.0258  1.4518
 3156TIP3    H231028   1.358   4.101   2.203  0.6365 -1.8881  2.8103
 3157TIP3   OH231029   2.906   1.026   0.996 -0.3929 -0.0224 -0.1245
 3157TIP3    H131030   2.832   0.967   0.985  0.2780 -0.7312 -0.9091
 3157TIP3    H231031   2.924   1.023   1.090  0.0840 -1.6563 -0.2329
 3158TIP3   OH231032   1.172   2.601   2.441 -0.0927 -0.1149 -0.4276
 3158TIP3    H131033   1.133   2.608   2.528  0.0044 -1.1428 -0.2831
 3158TIP3    H231034   1.107   2.637   2.382  0.5241  2.2200  0.2027
 3159TIP3   OH231035   4.094   6.570   6.876  0.3767 -0.2330 -0.1942
 3159TIP3    H131036   4.048   6.521   6.808  1.8640 -1.0385 -0.6681
 3159TIP3    H231037   4.144   6.636   6.828  0.8182 -0.2918  0.1769
 3160TIP3   OH231038   1.135   0.559   1.886  0.2065  0.4309 -0.2144
 3160TIP3    H131039   1.155   0.641   1.841 -1.3970  0.6098 -0.6739
 3160TIP3    H231040   1.040   0.550   1.878  0.3462 -1.5022 -0.2085
 3161TIP3   OH231041   3.790   1.905   8.184  0.0988 -0.1721  0.4326
 3161TIP3    H131042   3.776   1.988   8.229  1.6687  0.4149 -0.1124
 3161TIP3    H231043   3.705   1.885   8.144 -0.3197  1.1227  0.6388
 3162TIP3   OH231044   3.650   3.576   6.708 -0.2340 -0.0603  0.1056
 3162TIP3    H131045   3.651   3.665   6.671  1.0185  0.3697  1.1176
 3162TIP3    H231046   3.561   3.546   6.693 -0.8239  1.5474  0.1443
 3163TIP3   OH231047   5.593   1.504   6.552  0.1285 -0.4276  0.1704
 3163TIP3    H131048   5.658   1.543   6.611 -0.6646  0.8336  0.2508
 3163TIP3    H231049   5.645   1.456   6.488  1.0180 -1.8285  1.8517
 3164TIP3   OH231050   5.424   4.720   8.446 -0.0213  0.2395  0.7622
 3164TIP3    H131051   5.403   4.743   8.356 -0.4160  1.1392  1.0814
 3164TIP3    H231052   5.489   4.649   8.438 -0.5998 -0.1891 -0.2178
 3165TIP3   OH231053   3.744   1.184   7.721 -0.3252  0.7677 -0.3705
 3165TIP3    H131054   3.836   1.163   7.709 -0.2946  0.0625  0.9319
 3165TIP3    H231055   3.743   1.260   7.778 -0.5478  1.1245 -0.8400
 3166TIP3   OH231056   0.632   5.486   0.109  0.4629  0.1948  0.3887
 3166TIP3    H131057   0.587   5.569   0.093 -0.5674 -0.1327  1.4125
 3166TIP3    H231058   0.562   5.425   0.132  1.3235 -0.6313  0.9017
 3167TIP3   OH231059   5.690   3.292   6.966  0.3423  0.6134 -0.0507
 3167TIP3    H131060   5.661   3.230   7.033  2.2399  0.3426  0.5797
 3167TIP3    H231061   5.666   3.249   6.883 -0.2200  0.0161  0.4038
 3168TIP3   OH231062   5.361   6.615   8.648  0.1741 -0.5791 -0.2758
 3168TIP3    H131063   5.319   6.666   8.718  0.5910  0.0567 -0.4864
 3168TIP3    H231064   5.309   6.535   8.643  0.7591 -1.1032  1.4750
 3169TIP3   OH231065   5.561   4.890   8.088  0.6499 -0.2796  0.5115
 3169TIP3    H131066   5.576   4.956   8.157  4.1771 -1.2536  0.8964
 3169TIP3    H231067   5.528   4.814   8.136 -0.7914  0.2919  0.4698
 3170TIP3   OH231068   0.151   3.011   0.500 -0.1991  0.5658 -0.9703
 3170TIP3    H131069   0.173   3.091   0.451  1.0963  1.5245  1.0719
 3170TIP3    H231070   0.219   3.004   0.567 -0.7888 -1.8039 -0.5420
 3171TIP3   OH231071   1.231   0.013   0.314  0.4156  0.3629 -0.2974
 3171TIP3    H131072   1.247   0.024   0.220 -0.2901  0.2416 -0.4399
 3171TIP3    H231073   1.183  -0.070   0.321 -2.3872  1.8404 -0.2049
 3172TIP3   OH231074   0.034   2.845   1.190  0.4591 -0.2977 -0.3214
 3172TIP3    H131075   0.005   2.756   1.169 -0.0550 -0.2116 -0.0040
 3172TIP3    H231076   0.068   2.879   1.107  1.4761 -1.0846 -0.2465
 3173TIP3   OH231077   1.752   1.782   8.402 -0.2270 -0.1885  0.6502
 3173TIP3    H131078   1.682   1.838   8.369  0.6066  1.0998  1.0029
 3173TIP3    H231079   1.789   1.742   8.324 -0.8427 -0.2669  0.3934
 3174TIP3   OH231080   0.352   4.848   2.374 -0.8208 -0.3952 -0.2875
 3174TIP3    H131081   0.426   4.879   2.322 -0.6739 -1.3118 -0.6406
 3174TIP3    H231082   0.383   4.850   2.464 -0.8248  0.4935 -0.2959
 3175TIP3   OH231083   6.304   0.226   0.889  0.4142  0.2716  0.6099
 3175TIP3    H131084   6.267   0.159   0.833  1.5319  1.9182 -2.3228
 3175TIP3    H231085   6.239   0.297   0.889  0.3865  0.2701  1.5490
 3176TIP3   OH231086   3.800   2.569   8.267  0.7247  0.3693  0.0679
 3176TIP3    H131087   3.811   2.512   8.190 -0.9597 -0.3411  0.3171
 3176TIP3    H231088   3.767   2.511   8.335  3.6499  0.6377  1.8844
 3177TIP3   OH231089   2.819   0.060   6.995  0.0542 -0.7036 -0.3126
 3177TIP3    H131090   2.907   0.096   7.009 -0.7272  1.0458  0.4932
 3177TIP3    H231091   2.770   0.133   6.958 -1.2230 -1.4589 -0.1461
 3178TIP3   OH231092   5.416   0.619   0.475  0.2039  0.2747  0.7923
 3178TIP3    H131093   5.489   0.670   0.441 -0.2216  0.7686  0.6124
 3178TIP3    H231094   5.366   0.594   0.398 -0.2172  0.5591  0.9679
 3179TIP3   OH231095   3.348   1.381   1.302  0.4249 -0.8110 -0.6618
 3179TIP3    H131096   3.260   1.370   1.337 -0.5673 -0.6318 -2.9183
 3179TIP3    H231097   3.346   1.337   1.217  2.5006 -0.7296 -0.8134
 3180TIP3   OH231098   4.416   0.469   7.483 -0.2453  0.1151 -0.4945
 3180TIP3    H131099   4.503   0.509   7.493 -0.6064  0.6189  0.6760
 3180TIP3    H231100   4.418   0.433   7.394  0.6674  1.3271 -0.9993
 3181TIP3   OH231101   4.847   0.279   8.592  0.3697  0.2458  0.0774
 3181TIP3    H131102   4.862   0.191   8.559 -0.0109 -1.1292  3.1634
 3181TIP3    H231103   4.934   0.310   8.616  0.5304  0.8529 -1.2111
 3182TIP3   OH231104   5.478   5.923   7.676  0.5155  0.2606 -0.2344
 3182TIP3    H131105   5.496   5.830   7.690 -2.7593 -0.5609 -0.6663
 3182TIP3    H231106   5.443   5.953   7.760 -0.3589  0.5284 -0.6832
 3183TIP3   OH231107   0.646   4.115   0.116  0.1542  0.1620  0.2194
 3183TIP3    H131108   0.594   4.120   0.196 -0.5910 -0.3787 -0.2221
 3183TIP3    H231109   0.733   4.146   0.142 -0.8025  2.8309  0.5855
 3184TIP3   OH231110   1.943   5.883   1.423  0.1327  0.4184 -0.2816
 3184TIP3    H131111   1.928   5.805   1.369 -2.6687  0.1747  0.7090
 3184TIP3    H231112   2.028   5.867   1.465  0.3847 -1.3134 -1.3631
 3185TIP3   OH231113   1.506   4.948   7.340 -0.1071 -0.1680  0.0966
 3185TIP3    H131114   1.501   4.968   7.247  0.6106 -1.4916 -0.2537
 3185TIP3    H231115   1.470   4.860   7.348  0.7154 -0.4436  0.9303
 3186TIP3   OH231116   4.463   5.330   6.629 -0.4390 -0.4823 -0.2006
 3186TIP3    H131117   4.537   5.309   6.573 -0.6617 -0.5945 -0.4525
 3186TIP3    H231118   4.387   5.294   6.584 -0.3893 -2.6032  1.2667
 3187TIP3   OH231119   5.838   3.152   1.451  0.3426  0.1303  0.4087
 3187TIP3    H131120   5.879   3.216   1.394 -2.1977  1.7424  0.2556
 3187TIP3    H231121   5.753   3.189   1.473 -0.1249 -1.9399  2.6028
 3188TIP3   OH231122   0.472   0.965   8.244 -0.1187 -0.2958 -0.3165
 3188TIP3    H131123   0.410   0.984   8.314  0.2098 -0.3900  0.0037
 3188TIP3    H231124   0.505   1.050   8.217  0.8121 -0.3486  0.6190
 3189TIP3   OH231125   6.426   3.528   6.632  0.5538 -0.5661 -0.1643
 3189TIP3    H131126   6.453   3.475   6.556  2.2198 -0.0236  0.0002
 3189TIP3    H231127   6.347   3.485   6.664  2.1980 -3.4456  0.3954
 3190TIP3   OH231128   1.546   3.229   7.597  0.2172 -0.5436 -0.0685
 3190TIP3    H131129   1.569   3.136   7.597 -0.3191 -0.7068 -2.0233
 3190TIP3    H231130   1.475   3.236   7.661 -0.7175 -1.7606 -0.9316
 3191TIP3   OH231131   0.641   2.801   7.255 -0.1216  0.4232  0.1761
 3191TIP3    H131132   0.724   2.767   7.290  0.2659  0.0732 -1.0284
 3191TIP3    H231133   0.590   2.824   7.333  0.7447 -0.2134  0.9591
 3192TIP3   OH231134   0.483   4.411   6.172 -0.3515 -0.2577 -0.0340
 3192TIP3    H131135   0.494   4.488   6.228  0.3578 -0.8541  0.6588
 3192TIP3    H231136   0.476   4.338   6.232  0.4337 -0.9145 -0.7233
 3193TIP3   OH231137   0.044   2.151   0.355 -0.3106  0.2919 -0.2873
 3193TIP3    H131138   0.037   2.055   0.360  2.9769 -0.2829 -3.0422
 3193TIP3    H231139   0.104   2.175   0.425 -1.1626  0.4243  0.4266
 3194TIP3   OH231140   0.381   4.245   0.517 -0.2584 -0.1000 -0.2430
 3194TIP3    H131141   0.351   4.313   0.577  0.2399 -0.0783 -0.0147
 3194TIP3    H231142   0.305   4.228   0.461 -0.4980  0.3908 -0.0772
 3195TIP3   OH231143   2.212   2.857   6.240  0.2236  0.4701  0.3680
 3195TIP3    H131144   2.234   2.950   6.249  0.1404  0.3548  1.9131
 3195TIP3    H231145   2.138   2.844   6.298 -1.3451 -0.0797 -1.6288
 3196TIP3   OH231146   3.262   6.656   7.288  0.0752  0.0883  0.0686
 3196TIP3    H131147   3.234   6.739   7.249 -2.6466 -1.1779 -0.9970
 3196TIP3    H231148   3.284   6.601   7.213  0.6983 -0.5226  0.6887
 3197TIP3   OH231149   6.584   5.058   8.745  0.5185  0.0448 -0.0281
 3197TIP3    H131150   6.499   5.100   8.756  0.3453 -0.8287  2.4547
 3197TIP3    H231151   6.643   5.105   8.804  1.3203 -0.5211 -0.3563
 3198TIP3   OH231152   3.755   1.860   6.541 -0.1365 -0.2284  0.3144
 3198TIP3    H131153   3.676   1.818   6.508  0.2107 -0.1369 -0.6578
 3198TIP3    H231154   3.782   1.920   6.471  0.2496  0.4604  1.0337
 3199TIP3   OH231155   4.516   2.103   1.324 -0.0131 -0.3336  0.5904
 3199TIP3    H131156   4.596   2.112   1.272 -0.8674 -0.7095 -0.8330
 3199TIP3    H231157   4.467   2.184   1.309 -1.5743 -1.5696 -1.5645
 3200TIP3   OH231158   6.603   6.448   7.480  0.0780  0.5891 -0.0850
 3200TIP3    H131159   6.577   6.524   7.427  0.7296 -0.3503 -1.8321
 3200TIP3    H231160   6.532   6.385   7.466  1.0490 -0.2896 -1.2354
 3201TIP3   OH231161   0.639   1.964   6.525  0.1765 -0.3956  0.2828
 3201TIP3    H131162   0.733   1.978   6.510  0.3074  0.4129  1.7128
 3201TIP3    H231163   0.607   2.049   6.556 -0.8508 -0.9155  0.6788
 3202TIP3   OH231164   4.523   1.221   1.622  0.0285 -0.8414  0.6534
 3202TIP3    H131165   4.560   1.188   1.540 -0.7457  1.3004 -0.6387
 3202TIP3    H231166   4.599   1.236   1.678  0.4348 -4.8789  1.4886
 3203TIP3   OH231167   3.285   6.537   1.146 -0.2205 -0.0138 -0.9500
 3203TIP3    H131168   3.208   6.488   1.117 -0.5149  0.0253 -0.2466
 3203TIP3    H231169   3.340   6.472   1.189 -0.1079  0.0656 -0.9729
 3204TIP3   OH231170   0.745   2.954   0.889 -0.1617 -0.1358 -0.0739
 3204TIP3    H131171   0.826   2.904   0.886  0.4656  0.8191  0.3076
 3204TIP3    H231172   0.763   3.024   0.952 -1.7350 -0.6809  1.0491
 3205TIP3   OH231173   5.999   2.432   0.487  0.2158 -0.4112 -0.5530
 3205TIP3    H131174   5.943   2.508   0.503 -1.2593 -1.6675  0.5698
 3205TIP3    H231175   5.992   2.417   0.393  0.2524  0.5938 -0.7366
 3206TIP3   OH231176   2.179   5.419   7.652 -0.1311 -0.4924  0.5827
 3206TIP3    H131177   2.236   5.356   7.609 -0.3899 -1.5065  1.6876
 3206TIP3    H231178   2.147   5.374   7.730 -3.3378 -0.3704 -0.5513
 3207TIP3   OH231179   5.191   5.330   8.473  0.2447 -0.3622  0.1216
 3207TIP3    H131180   5.151   5.417   8.474  0.7551 -0.1216  0.7093
 3207TIP3    H231181   5.132   5.276   8.525 -1.0921 -0.8703 -1.8007
 3208TIP3   OH231182   3.008   3.906   7.044  0.3667 -0.4668 -0.5724
 3208TIP3    H131183   2.949   3.939   7.112 -1.2127 -2.0952 -1.0761
 3208TIP3    H231184   3.094   3.906   7.086 -0.4361 -0.7229  1.1859
 3209TIP3   OH231185   0.888   4.816   0.363 -0.4505  0.0841  0.3176
 3209TIP3    H131186   0.979   4.843   0.356 -0.6333  0.6788  0.1657
 3209TIP3    H231187   0.862   4.794   0.273 -0.5848  0.3598  0.2862
 3210TIP3   OH231188   5.496   5.599   7.223 -0.1232 -0.2517  0.3188
 3210TIP3    H131189   5.438   5.619   7.296 -1.0826 -2.1845  0.1620
 3210TIP3    H231190   5.495   5.503   7.217 -0.2893 -0.1687 -2.3903
 3211TIP3   OH231191   5.573   6.617   7.384  0.2164 -0.0406 -0.3016
 3211TIP3    H131192   5.559   6.684   7.318  0.6605  0.7206  0.3581
 3211TIP3    H231193   5.640   6.653   7.442 -2.5280  0.8686  2.5669
 3212TIP3   OH231194   6.426   2.750   7.174 -0.2194  0.1701  0.4176
 3212TIP3    H131195   6.352   2.792   7.130 -0.5259 -0.4136  0.3795
 3212TIP3    H231196   6.487   2.823   7.192 -0.0149  0.3974 -1.1009
 3213TIP3   OH231197   5.724   2.624   8.347  0.1878 -0.0254  0.6555
 3213TIP3    H131198   5.715   2.539   8.303 -3.0860 -0.0180  1.0797
 3213TIP3    H231199   5.702   2.606   8.439  0.7633  1.0684  1.0225
 3214TIP3   OH231200   3.741   5.872   8.056  0.4372 -0.1559  0.7901
 3214TIP3    H131201   3.805   5.868   7.986  1.7054 -0.1159  1.9151
 3214TIP3    H231202   3.722   5.781   8.077 -1.8361 -0.2510 -1.2041
 3215TIP3   OH231203   5.974   1.636   0.918 -0.1244  0.0986 -0.1701
 3215TIP3    H131204   5.933   1.592   0.993  0.5245 -1.4304 -0.6767
 3215TIP3    H231205   5.900   1.668   0.866 -0.6794 -1.3053 -0.2992
 3216TIP3   OH231206   5.398   6.230   7.734  0.4973  0.2896  0.0917
 3216TIP3    H131207   5.365   6.149   7.695 -2.3982  2.0543 -1.4186
 3216TIP3    H231208   5.397   6.293   7.662  2.2164  1.8578  1.3450
 3217TIP3   OH231209   2.434   4.537   8.735 -0.1726  0.1158 -0.1629
 3217TIP3    H131210   2.395   4.545   8.822 -1.3764  0.0088 -0.6761
 3217TIP3    H231211   2.413   4.448   8.707 -0.6046  0.4427 -0.9274
 3218TIP3   OH231212   2.393   6.063   0.509  0.0784 -0.3152 -0.3859
 3218TIP3    H131213   2.439   5.983   0.535 -0.9983 -0.5845  0.7894
 3218TIP3    H231214   2.306   6.033   0.482 -0.4220  0.4538  0.2992
 3219TIP3   OH231215   2.069   6.438   0.293  0.1169 -0.1771 -0.2887
 3219TIP3    H131216   2.140   6.385   0.257 -0.2827 -0.1307 -1.1576
 3219TIP3    H231217   2.045   6.395   0.375  1.5404  0.1318  0.3227
 3220TIP3   OH231218   3.514   1.539   8.453  0.4606 -0.4500 -0.1100
 3220TIP3    H131219   3.487   1.591   8.528  0.4792 -0.1917 -0.2832
 3220TIP3    H231220   3.574   1.474   8.490  0.4351 -0.3513  0.1061
 3221TIP3   OH231221   5.463   4.464   1.208  0.2597 -0.4318 -0.0184
 3221TIP3    H131222   5.452   4.369   1.206  0.8449 -0.6697  2.9730
 3221TIP3    H231223   5.558   4.477   1.215  0.1342  0.3253  0.3868
 3222TIP3   OH231224   4.547   4.670   0.526 -0.3999 -0.5150 -0.0615
 3222TIP3    H131225   4.537   4.733   0.597  1.2893  0.2686 -0.4683
 3222TIP3    H231226   4.545   4.584   0.569  1.2694 -0.0390  1.0680
 3223TIP3   OH231227   1.268   5.203   7.972 -0.0724 -0.4818  0.0334
 3223TIP3    H131228   1.264   5.223   7.878 -0.4550  1.8798  0.4725
 3223TIP3    H231229   1.361   5.187   7.988  0.1775  0.2493 -0.5741
 3224TIP3   OH231230   0.312   3.218   7.370 -0.6600 -0.4988  0.3081
 3224TIP3    H131231   0.374   3.210   7.443 -0.5204  1.0520  0.3972
 3224TIP3    H231232   0.275   3.130   7.360  2.3446 -1.7962 -0.5015
 3225TIP3   OH231233   6.590   0.633   7.399  0.3717 -0.7170 -0.6716
 3225TIP3    H131234   6.495   0.633   7.393  0.3963  1.0090 -1.4554
 3225TIP3    H231235   6.619   0.572   7.331 -0.1294 -0.0669 -1.4716
 3226TIP3   OH231236   3.529   1.509   6.774  0.2499 -0.0646 -0.2726
 3226TIP3    H131237   3.607   1.563   6.785  0.1376 -0.1721  1.3493
 3226TIP3    H231238   3.562   1.420   6.762  0.3973 -0.2584  1.3784
 3227TIP3   OH231239   4.165   3.474   7.341  0.3522 -0.5565  0.1697
 3227TIP3    H131240   4.165   3.384   7.307  1.0086 -0.5220  0.0762
 3227TIP3    H231241   4.152   3.528   7.264  1.1605 -0.5135  0.0562
 3228TIP3   OH231242   0.859   5.042   7.700  0.0562 -0.0013  0.0848
 3228TIP3    H131243   0.793   5.103   7.667  0.0319  0.2330  0.5555
 3228TIP3    H231244   0.838   5.033   7.793  0.3971 -0.3003  0.1321
 3229TIP3   OH231245   0.973   4.547   0.447  0.2993  0.0686  0.2822
 3229TIP3    H131246   0.988   4.507   0.533 -2.0354 -2.0489 -0.1462
 3229TIP3    H231247   0.917   4.622   0.466  0.0807 -0.1814  0.6614
 3230TIP3   OH231248   1.787   4.008   7.211  0.0068  0.5701 -0.2744
 3230TIP3    H131249   1.720   3.978   7.150 -2.2223  1.7479  1.4349
 3230TIP3    H231250   1.748   4.084   7.254  2.7922  1.8340  0.2561
 3231TIP3   OH231251   3.649   5.931   8.389  0.2123  0.5830  0.1633
 3231TIP3    H131252   3.720   5.993   8.401 -0.4071  1.1348  1.0744
 3231TIP3    H231253   3.581   5.959   8.451 -0.3210 -0.6319  0.1653
 3232TIP3   OH231254   0.331   0.074   1.934 -0.3449  0.7518 -0.0097
 3232TIP3    H131255   0.392   0.119   1.993  2.7355 -3.0909  0.1561
 3232TIP3    H231256   0.366   0.090   1.847  0.3772 -0.5590  0.0032
 3233TIP3   OH231257   5.916   6.813   6.420 -0.5624  0.1697 -0.4294
 3233TIP3    H131258   5.984   6.815   6.487  0.3043  2.1213 -1.3123
 3233TIP3    H231259   5.935   6.734   6.369  0.9169  0.5536 -0.5174
 3234TIP3   OH231260   3.175   0.334   0.031  0.5977 -0.3880  0.5043
 3234TIP3    H131261   3.232   0.372   0.098 -0.1425  2.6255 -0.4348
 3234TIP3    H231262   3.184   0.393  -0.044 -1.6390 -1.3841 -0.6367
 3235TIP3   OH231263   2.939   1.684   6.897 -0.2454  0.0430 -0.1885
 3235TIP3    H131264   2.892   1.668   6.815 -1.5661  0.3201  0.4839
 3235TIP3    H231265   2.949   1.598   6.936 -1.5430  0.1122  0.3533
 3236TIP3   OH231266   0.149   0.191   7.423  0.3244 -0.2506 -0.2190
 3236TIP3    H131267   0.162   0.210   7.331  0.4619  1.1312  0.0621
 3236TIP3    H231268   0.233   0.159   7.454  0.9189  1.2694 -0.1398
 3237TIP3   OH231269   3.733   0.972   0.661  0.2760 -0.3066  0.1645
 3237TIP3    H131270   3.725   1.055   0.614 -0.5653 -0.2351  0.4130
 3237TIP3    H231271   3.682   0.910   0.609  0.7942 -0.6441  0.0504
 3238TIP3   OH231272   0.978   3.707   0.177  0.1883  0.0060 -0.3678
 3238TIP3    H131273   1.001   3.798   0.156 -1.8681  0.3961 -1.2425
 3238TIP3    H231274   0.956   3.668   0.092  1.0349 -1.3229  0.0082
 3239TIP3   OH231275   4.110   4.909   6.964 -0.2067 -0.1880 -0.1398
 3239TIP3    H131276   4.173   4.866   6.907  1.0421 -0.2794  1.2627
 3239TIP3    H231277   4.111   4.858   7.045 -1.4773  0.2879  0.2032
 3240TIP3   OH231278   1.910   3.181   0.178  0.2807  0.3767  0.1022
 3240TIP3    H131279   1.885   3.267   0.212 -1.8925 -0.0020 -0.3727
 3240TIP3    H231280   1.888   3.120   0.249  2.5937  0.2279  0.7687
 3241TIP3   OH231281   5.975   6.695   8.578 -0.1270  0.3654  0.3996
 3241TIP3    H131282   5.882   6.684   8.600  0.0026 -0.5546  0.5469
 3241TIP3    H231283   6.022   6.665   8.656  0.3249 -2.3816 -0.8145
 3242TIP3   OH231284   3.548   5.500   6.780  0.2198 -0.4793  1.1874
 3242TIP3    H131285   3.619   5.437   6.766  0.7738  0.7368 -3.2202
 3242TIP3    H231286   3.558   5.563   6.708 -4.0366  1.0374  1.6415
 3243TIP3   OH231287   5.175   0.823   8.333  0.0831  0.0859 -0.7382
 3243TIP3    H131288   5.137   0.862   8.412  0.1300 -0.1965 -0.5723
 3243TIP3    H231289   5.247   0.768   8.366  2.4331  2.6749 -1.2044
 3244TIP3   OH231290   0.370   3.553   7.276 -0.2904 -0.3465 -0.2668
 3244TIP3    H131291   0.402   3.522   7.192  0.4947  0.0935 -0.1392
 3244TIP3    H231292   0.317   3.630   7.255 -0.2697 -0.3626 -0.3768
 3245TIP3   OH231293   6.513   2.628   1.038 -0.2582 -0.2468  0.3643
 3245TIP3    H131294   6.537   2.710   0.994  1.4673 -2.1151 -2.5262
 3245TIP3    H231295   6.422   2.614   1.013 -0.3238  0.3944  0.2097
 3246TIP3   OH231296   2.689   0.033   8.414  0.5495  0.4040 -0.0776
 3246TIP3    H131297   2.667   0.062   8.326  0.8764 -0.7992 -0.5778
 3246TIP3    H231298   2.606   0.035   8.462  0.1382 -0.0591 -0.7540
 3247TIP3   OH231299   2.405   3.543   6.596  0.5811 -0.5010  1.0843
 3247TIP3    H131300   2.372   3.557   6.508  0.9035 -0.4146  0.9739
 3247TIP3    H231301   2.346   3.594   6.652 -0.1598 -1.2800  1.0184
 3248TIP3   OH231302   3.674   6.435   0.463  0.0821 -0.1464 -0.3359
 3248TIP3    H131303   3.731   6.360   0.448  1.3586  0.9328 -1.1389
 3248TIP3    H231304   3.650   6.430   0.555 -0.4118 -1.8946 -0.5328
 3249TIP3   OH231305   4.214   3.958   8.078  1.1382 -0.6346 -0.3421
 3249TIP3    H131306   4.178   3.935   8.164  0.7459 -1.6039 -0.7533
 3249TIP3    H231307   4.280   4.025   8.098 -1.0211  1.4254  0.3890
 3250TIP3   OH231308   5.298   6.006   1.547 -0.5790  0.0980  0.3983
 3250TIP3    H131309   5.280   5.937   1.611 -0.8747 -0.3581 -0.1663
 3250TIP3    H231310   5.382   5.982   1.509 -0.3661  0.4120  0.6722
 3251TIP3   OH231311   2.967   3.823   8.285 -0.4297 -0.5273 -0.1433
 3251TIP3    H131312   2.889   3.769   8.273 -0.8729 -0.0667  0.6318
 3251TIP3    H231313   3.004   3.831   8.197 -3.0200  1.9450 -1.1250
 3252TIP3   OH231314   6.212   5.630   8.109  0.4571  0.1825  0.0352
 3252TIP3    H131315   6.166   5.562   8.059 -3.0908  0.9796  1.8492
 3252TIP3    H231316   6.284   5.583   8.152  0.3880 -1.6012 -1.6439
 3253TIP3   OH231317   3.936   6.382   8.668  0.2677  0.2119  0.4440
 3253TIP3    H131318   3.962   6.472   8.650  0.1640  0.6801  2.3845
 3253TIP3    H231319   3.841   6.381   8.654  0.4376  0.0593 -0.7843
 3254TIP3   OH231320   1.302   2.525   0.359 -0.2829  0.1718 -0.0701
 3254TIP3    H131321   1.207   2.537   0.362 -0.5993 -2.1197  1.7034
 3254TIP3    H231322   1.335   2.569   0.438 -0.1730 -0.9210  0.5156
 3255TIP3   OH231323   1.588   3.910   8.007 -0.2222 -0.3519 -0.0455
 3255TIP3    H131324   1.639   3.829   8.001  2.0752  0.7172  2.6782
 3255TIP3    H231325   1.611   3.958   7.927  0.5795 -1.2074 -0.3531
 3256TIP3   OH231326   4.369   5.316   6.977 -0.5058 -0.0565 -0.3155
 3256TIP3    H131327   4.369   5.409   7.001 -0.3126 -0.1686  0.1383
 3256TIP3    H231328   4.306   5.276   7.037  0.2500 -0.3993  0.2709
 3257TIP3   OH231329   3.432   2.275   0.041  0.2557  0.1722 -0.8295
 3257TIP3    H131330   3.463   2.276   0.131 -0.8997  0.0029 -0.4091
 3257TIP3    H231331   3.502   2.233  -0.008  0.3805 -0.8853  0.2017
 3258TIP3   OH231332   1.915   2.756   7.306 -0.0580  0.4169 -0.6157
 3258TIP3    H131333   1.848   2.818   7.279  1.3462  1.3441 -2.1599
 3258TIP3    H231334   1.977   2.753   7.233  0.1972 -2.4717 -0.4072
 3259TIP3   OH231335   3.435   5.550   5.676 -0.4566 -0.1238 -0.0016
 3259TIP3    H131336   3.427   5.631   5.726  0.3410 -0.0774  0.0741
 3259TIP3    H231337   3.350   5.538   5.635 -1.0420 -0.0024  1.1209
 3260TIP3   OH231338   5.531   5.401   8.137 -0.0111 -0.0063  0.1863
 3260TIP3    H131339   5.525   5.406   8.042  1.8126  2.9189  0.1006
 3260TIP3    H231340   5.444   5.430   8.168 -0.5136 -0.6745 -0.5616
 3261TIP3   OH231341   4.346   1.597   1.038 -0.2101  0.0855  0.0507
 3261TIP3    H131342   4.303   1.512   1.027 -1.0097  0.6245 -1.2002
 3261TIP3    H231343   4.439   1.578   1.033 -0.3475 -0.8343  0.7398
 3262TIP3   OH231344   1.369   3.268   6.900 -0.6437  0.1880 -0.0110
 3262TIP3    H131345   1.428   3.297   6.830  0.1811  0.3669  0.7499
 3262TIP3    H231346   1.281   3.283   6.864 -0.2830 -1.2959 -1.6860
 3263TIP3   OH231347   2.696   4.112   8.286  0.0563 -0.6478  0.6212
 3263TIP3    H131348   2.607   4.113   8.252  0.6112 -1.3162 -0.9717
 3263TIP3    H231349   2.709   4.200   8.320 -0.6466  0.0319 -0.7592
 3264TIP3   OH231350   0.692   0.922   7.385  0.2358  0.1643 -0.0866
 3264TIP3    H131351   0.744   0.854   7.341 -0.2698 -0.6344  0.5263
 3264TIP3    H231352   0.755   0.968   7.441  1.1376  1.9067 -2.3592
 3265TIP3   OH231353   0.598   5.433   8.260  0.0468 -0.5363 -0.6493
 3265TIP3    H131354   0.626   5.431   8.352 -1.0508 -2.0535 -0.3044
 3265TIP3    H231355   0.679   5.433   8.210  0.7006  1.6388  0.2794
 3266TIP3   OH231356   4.053   2.724   2.088  0.2774 -0.0142 -0.9167
 3266TIP3    H131357   4.029   2.662   2.157  2.8961  0.7733  0.8484
 3266TIP3    H231358   4.124   2.680   2.040  1.1492  0.9848 -0.5735
 3267TIP3   OH231359   1.172   4.908   8.529  0.0369 -0.0862  0.8363
 3267TIP3    H131360   1.238   4.965   8.567  0.2505  1.2752 -1.3991
 3267TIP3    H231361   1.116   4.967   8.478 -1.4680 -1.5227  0.7312
 3268TIP3   OH231362   3.495   5.661   8.273 -0.1862  0.0718  0.2385
 3268TIP3    H131363   3.528   5.728   8.333  1.1341 -1.0943  0.8525
 3268TIP3    H231364   3.538   5.681   8.189 -0.9869  0.8869  0.0030
 3269TIP3   OH231365   5.398   0.854   0.622 -0.7822  0.4460  0.0967
 3269TIP3    H131366   5.309   0.886   0.610 -0.4930  0.8944 -0.9631
 3269TIP3    H231367   5.390   0.759   0.615 -1.3123  0.4200  0.9701
 3270TIP3   OH231368   1.728   2.993   7.295 -0.2196 -0.1487  0.2553
 3270TIP3    H131369   1.698   3.039   7.374 -0.7203  0.1927 -0.1289
 3270TIP3    H231370   1.648   2.980   7.244  0.3003  0.8882 -0.8505
 3271TIP3   OH231371   4.091   3.083   6.869 -0.2693 -0.4273  0.2600
 3271TIP3    H131372   4.018   3.089   6.931  0.2835 -0.4732  0.9269
 3271TIP3    H231373   4.130   3.170   6.869 -0.7174 -0.2267 -0.5851
 3272TIP3   OH231374   1.037   2.413   6.889  0.0620 -0.1865 -0.0042
 3272TIP3    H131375   0.942   2.414   6.879  0.1366  1.7139 -0.9162
 3272TIP3    H231376   1.054   2.345   6.954 -2.0369  0.5295  1.3799
 3273TIP3   OH231377   0.609   6.108   1.425  0.0719 -0.4415  0.5935
 3273TIP3    H131378   0.695   6.128   1.462 -0.0643 -0.4948  0.9458
 3273TIP3    H231379   0.622   6.110   1.330  0.6154 -1.1365  0.6532
 3274TIP3   OH231380   2.280   1.406   7.449 -0.2852 -0.7249  0.2465
 3274TIP3    H131381   2.329   1.346   7.505 -1.1318 -0.0993  1.7276
 3274TIP3    H231382   2.344   1.472   7.422  0.2561 -1.3361  0.0181
 3275TIP3   OH231383   2.275   4.843   2.120  0.0456 -0.0878 -0.6636
 3275TIP3    H131384   2.301   4.929   2.153  2.0521  0.5906 -3.5850
 3275TIP3    H231385   2.184   4.832   2.150 -0.3869  3.1527 -0.4127
 3276TIP3   OH231386   6.237   0.003   6.485 -0.4467 -0.6744  0.3911
 3276TIP3    H131387   6.313   0.011   6.428 -0.6413 -0.1967  0.1869
 3276TIP3    H231388   6.238  -0.087   6.515  0.6035 -0.4891  0.9610
 3277TIP3   OH231389   6.407   2.030   8.704  0.5031  0.1690 -0.1585
 3277TIP3    H131390   6.321   2.037   8.662  0.1902  1.9334  0.6701
 3277TIP3    H231391   6.455   1.967   8.650 -0.4804  0.9541 -2.0610
 3278TIP3   OH231392   6.599   3.891   0.758  0.4373  0.3583 -0.2129
 3278TIP3    H131393   6.658   3.817   0.746  0.0996  0.2679 -1.4517
 3278TIP3    H231394   6.550   3.896   0.676 -1.1356  0.5572  0.7097
 3279TIP3   OH231395   0.903   0.859   0.322  0.1685  0.2898  0.0755
 3279TIP3    H131396   0.991   0.894   0.315 -0.3963  1.4677 -2.7298
 3279TIP3    H231397   0.847   0.935   0.337 -0.5008 -0.2420  0.3578
 3280TIP3   OH231398   4.731   1.854   7.706 -0.8110 -0.6511  0.4291
 3280TIP3    H131399   4.706   1.845   7.614 -1.0279  0.1992  0.3913
 3280TIP3    H231400   4.649   1.841   7.754 -0.5306 -2.0114  0.5713
 3281TIP3   OH231401   1.429   2.594   7.209  0.1542 -0.4508  0.2550
 3281TIP3    H131402   1.397   2.670   7.161 -0.4521 -0.6142  0.3935
 3281TIP3    H231403   1.416   2.521   7.148  1.5458 -0.3315 -0.2167
 3282TIP3   OH231404   5.059   5.389   7.920  0.4059  0.2865  0.4110
 3282TIP3    H131405   5.065   5.485   7.921 -1.2358  0.4253 -0.2781
 3282TIP3    H231406   4.966   5.371   7.908  0.6757 -1.4096  0.6876
 3283TIP3   OH231407   2.426   2.364   1.179  0.1769 -0.6840 -0.0090
 3283TIP3    H131408   2.503   2.308   1.172 -0.2897 -1.3924  0.4055
 3283TIP3    H231409   2.352   2.305   1.167 -0.2969  0.2392 -1.9248
 3284TIP3   OH231410   3.788   3.717   7.002  0.2312  0.6482  0.6012
 3284TIP3    H131411   3.816   3.662   7.075  0.5490 -0.0890 -0.0692
 3284TIP3    H231412   3.758   3.655   6.935  0.8937  1.2641 -0.2894
 3285TIP3   OH231413   3.927   2.069   8.463 -0.4985  0.4807 -0.5436
 3285TIP3    H131414   3.948   1.986   8.507  0.3308  0.3074 -1.2337
 3285TIP3    H231415   3.867   2.113   8.522 -0.5038 -0.3659  0.1026
 3286TIP3   OH231416   0.535   5.318   2.667  0.0762  0.1187  0.2717
 3286TIP3    H131417   0.596   5.381   2.705  0.5643 -0.4619  0.4763
 3286TIP3    H231418   0.576   5.293   2.584  1.5023 -2.2089  1.5434
 3287TIP3   OH231419   2.607   2.800   7.511 -0.0733  0.8114 -0.0348
 3287TIP3    H131420   2.580   2.788   7.420  1.9736  0.6943 -0.6721
 3287TIP3    H231421   2.588   2.892   7.529 -0.6293  0.7977 -0.5149
 3288TIP3   OH231422   2.390   6.166   7.168 -0.1679 -0.4354  0.1501
 3288TIP3    H131423   2.391   6.099   7.237 -0.6322 -0.7273 -0.1221
 3288TIP3    H231424   2.379   6.116   7.087  0.5018 -0.1021 -0.1502
 3289TIP3   OH231425   2.296   3.816   1.709 -0.3550 -0.1226 -0.1049
 3289TIP3    H131426   2.281   3.909   1.691 -1.1928 -0.3797 -0.7947
 3289TIP3    H231427   2.391   3.805   1.701 -0.3855  0.3925 -1.4446
 3290TIP3   OH231428   2.784   2.253   0.965  0.3859 -0.5109  0.6837
 3290TIP3    H131429   2.848   2.204   0.913  0.5408  1.9762 -1.6697
 3290TIP3    H231430   2.837   2.314   1.017  0.0535  1.5034 -1.2123
 3291TIP3   OH231431   4.007   4.659   0.025  0.6285 -0.3356  0.4178
 3291TIP3    H131432   3.932   4.599   0.015 -0.1256  0.5692  0.4970
 3291TIP3    H231433   4.024   4.691  -0.063  0.0776  0.4384  0.5805
 3292TIP3   OH231434   6.726   1.502   1.966 -0.1342 -0.6764 -0.1571
 3292TIP3    H131435   6.803   1.531   2.015 -0.8900  0.5694  0.3288
 3292TIP3    H231436   6.762   1.467   1.884  1.0101 -1.0395  0.4810
 3293TIP3   OH231437   1.431   1.770   1.446 -0.3188 -0.2334 -0.2136
 3293TIP3    H131438   1.452   1.839   1.509  1.3355  0.0398 -1.0038
 3293TIP3    H231439   1.476   1.693   1.480  1.2648  0.1022 -1.3862
 3294TIP3   OH231440   4.583   6.535   8.339  0.4920 -0.5443  0.2478
 3294TIP3    H131441   4.629   6.583   8.271 -0.2471 -1.1598 -0.7281
 3294TIP3    H231442   4.557   6.453   8.297 -0.6954 -0.5950  1.0103
 3295TIP3   OH231443   1.713   3.812   0.562 -0.3203 -0.5021  0.5363
 3295TIP3    H131444   1.765   3.766   0.496 -1.2226 -0.4923 -0.2119
 3295TIP3    H231445   1.752   3.787   0.646  1.5253  0.3066 -0.0216
 3296TIP3   OH231446   2.444   4.055   0.516 -0.3930 -1.0489 -0.1499
 3296TIP3    H131447   2.480   3.969   0.540  0.6968 -1.1664 -1.9508
 3296TIP3    H231448   2.496   4.081   0.440 -1.8157  0.4594 -0.6552
 3297TIP3   OH231449   1.628   2.595   1.643  0.3532 -0.0668 -0.4228
 3297TIP3    H131450   1.600   2.528   1.705  2.3690 -2.1004 -1.5840
 3297TIP3    H231451   1.721   2.610   1.663  1.0633 -0.7696 -2.8530
 3298TIP3   OH231452   2.288   5.849   1.790  0.2662  0.1731  0.1825
 3298TIP3    H131453   2.361   5.878   1.736 -1.0963  0.2148 -1.7272
 3298TIP3    H231454   2.317   5.765   1.827  1.5828  0.6142  0.1754
 3299TIP3   OH231455   1.770   1.510   0.063  0.3068  0.1927  0.4079
 3299TIP3    H131456   1.737   1.513  -0.027  1.3559  1.3905  0.0385
 3299TIP3    H231457   1.766   1.600   0.093  1.0694 -0.0119  1.1576
 3300TIP3   OH231458   0.705   2.439   8.339  0.4087 -0.1160  0.3939
 3300TIP3    H131459   0.797   2.448   8.313  0.5088 -0.8141  0.4881
 3300TIP3    H231460   0.663   2.397   8.264 -0.1289  1.3860 -0.1917
 3301TIP3   OH231461   1.354   1.454   0.904  0.3373 -0.4891  0.3414
 3301TIP3    H131462   1.397   1.418   0.982 -2.2695 -1.5853  1.3881
 3301TIP3    H231463   1.397   1.409   0.831  1.7817 -0.6015  1.2114
 3302TIP3   OH231464   4.362   4.187   8.183  0.2480 -0.5439  0.1747
 3302TIP3    H131465   4.453   4.171   8.211  0.0384 -3.4423 -0.4547
 3302TIP3    H231466   4.366   4.268   8.133  2.3647 -0.2480  0.7238
 3303TIP3   OH231467   6.665   0.497   0.113 -0.0496  0.3885 -0.8252
 3303TIP3    H131468   6.736   0.436   0.131 -0.7768 -0.3617 -0.4686
 3303TIP3    H231469   6.710   0.580   0.093  0.8919  0.2734  0.6834
 3304TIP3   OH231470   2.576   3.451   0.676  0.2923  0.1922  0.4325
 3304TIP3    H131471   2.548   3.495   0.756  1.4222 -2.2737  2.2960
 3304TIP3    H231472   2.496   3.409   0.643 -0.3336  1.7912 -0.2358
 3305TIP3   OH231473   6.791   2.892   2.362  0.1033  0.5065 -0.4798
 3305TIP3    H131474   6.857   2.834   2.402  0.8832  2.1669  0.8076
 3305TIP3    H231475   6.721   2.896   2.427 -0.0901  0.7389 -0.7022
 3306TIP3   OH231476   0.701   4.299   6.678  0.0027 -0.1039  0.3151
 3306TIP3    H131477   0.698   4.361   6.606  2.6470 -0.6957 -0.3974
 3306TIP3    H231478   0.784   4.316   6.722  0.0879 -2.0672  1.0417
 3307TIP3   OH231479   4.040   2.707   6.346  0.3447 -0.0625 -0.6645
 3307TIP3    H131480   4.028   2.616   6.319  1.2048 -0.5766  0.5548
 3307TIP3    H231481   3.951   2.738   6.366  0.1903 -1.1992  0.5436
 3308TIP3   OH231482   5.207   6.143   7.947 -0.0071  0.4046  0.1694
 3308TIP3    H131483   5.155   6.180   7.876  1.4661  0.8443 -0.7215
 3308TIP3    H231484   5.287   6.196   7.948  0.9358 -0.9826  0.7228
 3309TIP3   OH231485   0.003   3.653   0.347  0.0713  0.1900 -0.5260
 3309TIP3    H131486  -0.033   3.648   0.436 -0.0705 -0.2397 -0.6034
 3309TIP3    H231487   0.028   3.563   0.327  1.3159  0.5004 -0.4253
 3310TIP3   OH231488   6.338   4.740   7.853  0.1400  0.0961 -0.0570
 3310TIP3    H131489   6.394   4.818   7.857  0.0092  0.2334 -0.7051
 3310TIP3    H231490   6.250   4.775   7.847  0.0927 -0.0972 -0.5228
 3311TIP3   OH231491   0.178   3.718   1.117  0.0863 -0.0207 -0.0262
 3311TIP3    H131492   0.156   3.811   1.109  0.6161  0.0876 -0.2439
 3311TIP3    H231493   0.109   3.673   1.066 -1.2792  0.0959  1.6291
 3312TIP3   OH231494   0.014   5.781   8.721  0.2038  0.5373 -0.0621
 3312TIP3    H131495  -0.016   5.740   8.802  0.3342  0.6860  0.0626
 3312TIP3    H231496  -0.064   5.788   8.667 -0.0203  1.0638  0.3220
 3313TIP3   OH231497   6.711   4.080   0.325  0.2686 -0.1177 -0.4385
 3313TIP3    H131498   6.735   4.164   0.287  2.2886  0.3846  1.7307
 3313TIP3    H231499   6.689   4.099   0.416  3.4604 -2.1334  0.9455
 3314TIP3   OH231500   1.730   2.478   7.322  0.2383 -0.5325  0.4167
 3314TIP3    H131501   1.703   2.391   7.293  0.9450 -0.8671  0.7399
 3314TIP3    H231502   1.685   2.538   7.262 -2.3506 -0.9625  1.8077
 3315TIP3   OH231503   5.364   2.421   0.792 -0.0187 -0.0711 -0.1748
 3315TIP3    H131504   5.310   2.433   0.715 -1.0222 -1.7864  0.2011
 3315TIP3    H231505   5.422   2.348   0.770  0.9988  0.6498  0.0331
 3316TIP3   OH231506   5.542   2.751   6.858  0.2111 -0.1766 -0.0790
 3316TIP3    H131507   5.454   2.717   6.876  1.0807 -2.1789  0.7011
 3316TIP3    H231508   5.556   2.820   6.922  0.0195 -1.3734  1.2888
 3317TIP3   OH231509   2.148   1.816   6.997 -0.1936  0.1996  0.4982
 3317TIP3    H131510   2.141   1.743   7.059 -0.1898 -2.3108 -2.2423
 3317TIP3    H231511   2.058   1.841   6.979 -0.2209  0.4551  0.9874
 3318TIP3   OH231512   3.064   2.234   5.832  0.1516  0.4107 -0.6172
 3318TIP3    H131513   3.059   2.308   5.771  0.7739 -0.5335 -1.8522
 3318TIP3    H231514   3.158   2.222   5.846  0.0159  1.0702  1.1531
 3319TIP3   OH231515   5.600   5.291   7.041 -0.1175 -0.4109 -0.1620
 3319TIP3    H131516   5.609   5.196   7.043 -0.4877 -0.4602  1.6236
 3319TIP3    H231517   5.527   5.309   7.101 -2.2452  0.8226 -2.9231
 3320TIP3   OH231518   5.308   2.799   0.999 -0.1583  0.4793 -0.4162
 3320TIP3    H131519   5.270   2.810   0.912 -1.3528  0.2409  0.0577
 3320TIP3    H231520   5.354   2.882   1.015 -0.0429  0.5778 -1.2118
 3321TIP3   OH231521   1.459   3.717   0.183 -0.7545 -0.0562  0.2308
 3321TIP3    H131522   1.424   3.684   0.265 -3.8587 -2.1718 -1.7392
 3321TIP3    H231523   1.442   3.811   0.185 -0.4825 -0.0071  2.0506
 3322TIP3   OH231524   2.743   0.376   7.515 -0.3952 -0.4662 -0.2550
 3322TIP3    H131525   2.789   0.382   7.431 -1.0733  0.7833 -0.5638
 3322TIP3    H231526   2.691   0.456   7.520  1.0017  0.4081  2.1702
 3323TIP3   OH231527   2.841   1.027   7.352 -0.3262  0.3182  0.2878
 3323TIP3    H131528   2.833   0.981   7.435  0.4184  0.2343  0.3118
 3323TIP3    H231529   2.780   0.982   7.293 -0.3308 -0.0610  0.5857
 3324TIP3   OH231530   2.188   2.380   6.156  0.3435  0.3054 -0.5512
 3324TIP3    H131531   2.256   2.342   6.212  0.1271 -0.8759 -1.0551
 3324TIP3    H231532   2.235   2.410   6.078  0.3293 -0.4290 -0.8593
 3325TIP3   OH231533   1.552   6.596   7.812 -0.1223 -0.1630 -0.0383
 3325TIP3    H131534   1.540   6.669   7.751 -1.6722  0.3936  0.8781
 3325TIP3    H231535   1.522   6.630   7.896  1.1069 -1.2141  0.8599
 3326TIP3   OH231536   3.072   3.703   7.511 -0.2528  0.4284  0.1923
 3326TIP3    H131537   3.039   3.776   7.459  0.3603  0.0120 -0.8148
 3326TIP3    H231538   3.160   3.730   7.537  0.1304 -0.0938 -0.5178
 3327TIP3   OH231539   6.503   6.241   1.069 -0.1090  0.2865  0.1655
 3327TIP3    H131540   6.463   6.188   1.000 -0.2094  0.4284  0.1161
 3327TIP3    H231541   6.553   6.178   1.121 -1.2925 -0.0805  0.8966
 3328TIP3   OH231542   1.181   0.481   8.375  0.6670  0.0478  0.4132
 3328TIP3    H131543   1.213   0.569   8.396 -0.1288  0.6705 -0.7982
 3328TIP3    H231544   1.256   0.437   8.337  0.2227  1.5666 -2.6172
 3329TIP3   OH231545   5.938   5.458   7.297 -0.4336  0.3416 -0.2566
 3329TIP3    H131546   5.895   5.525   7.244 -0.8632 -0.6729 -1.2185
 3329TIP3    H231547   5.989   5.508   7.361 -2.0025  1.5668  0.0898
 3330TIP3   OH231548   1.180   4.335   0.741 -0.2393 -0.2301  0.3552
 3330TIP3    H131549   1.267   4.299   0.758  0.9962  0.9376 -2.7850
 3330TIP3    H231550   1.138   4.271   0.684 -0.2630  0.5528 -0.5311
 3331TIP3   OH231551   1.768   1.065   1.311  0.4850 -0.1015 -0.6437
 3331TIP3    H131552   1.821   1.023   1.379 -0.5866 -0.1613  0.1870
 3331TIP3    H231553   1.821   1.058   1.231  1.1650 -1.2906 -0.1166
 3332TIP3   OH231554   1.144   4.868   0.310 -0.1244  0.4193 -0.4758
 3332TIP3    H131555   1.177   4.812   0.380 -1.3371 -0.5715 -0.6523
 3332TIP3    H231556   1.214   4.931   0.294 -0.2158  1.3711  2.3377
 3333TIP3   OH231557   2.770   4.303   0.678  0.0027 -0.0827 -0.7223
 3333TIP3    H131558   2.852   4.340   0.648 -1.4675  1.6571 -2.9472
 3333TIP3    H231559   2.761   4.335   0.768  1.1334  0.8070 -0.9049
 3334TIP3   OH231560   4.091   0.423   0.897 -1.0475 -0.2548 -0.1623
 3334TIP3    H131561   4.115   0.335   0.925  0.3987  0.2556  0.3134
 3334TIP3    H231562   4.091   0.419   0.802  3.1183  0.1210 -0.3697
 3335TIP3   OH231563   1.144   5.665   8.164 -0.0619  0.3855 -0.7759
 3335TIP3    H131564   1.070   5.722   8.143 -0.7706 -0.1231  0.2535
 3335TIP3    H231565   1.199   5.718   8.223  0.2390  0.6447 -1.2795
 3336TIP3   OH231566   6.129   2.225   7.005  0.3919  0.4433  0.1710
 3336TIP3    H131567   6.174   2.200   6.924 -1.1161  0.7826 -0.8185
 3336TIP3    H231568   6.080   2.304   6.981  0.7629  1.1793  1.7336
 3337TIP3   OH231569   0.445   3.034   1.779 -0.4002 -0.1873 -0.8310
 3337TIP3    H131570   0.395   3.002   1.704  1.2612  0.2863 -2.2063
 3337TIP3    H231571   0.521   2.976   1.784  0.5553  1.0268 -0.8236
 3338TIP3   OH231572   5.805   2.360   1.493 -0.3122 -0.1886 -0.2276
 3338TIP3    H131573   5.881   2.355   1.551 -1.5319  1.3637  1.6323
 3338TIP3    H231574   5.822   2.293   1.426  1.2529 -1.9995  1.8019
 3339TIP3   OH231575   4.362   1.351   8.612 -0.2698 -0.0926 -0.2231
 3339TIP3    H131576   4.348   1.276   8.553  0.7040  0.1688 -0.8164
 3339TIP3    H231577   4.274   1.384   8.630 -0.6791 -1.0772 -0.3578
 3340TIP3   OH231578   3.525   5.365   1.559  0.4443  0.8164  0.5259
 3340TIP3    H131579   3.533   5.458   1.580 -0.1773  0.4569  2.6183
 3340TIP3    H231580   3.597   5.323   1.607 -0.2118  0.0798  0.8988
 3341TIP3   OH231581   0.597   2.915   0.652  0.0673 -0.0141  0.3592
 3341TIP3    H131582   0.603   2.822   0.631  1.4382  0.1418 -0.0073
 3341TIP3    H231583   0.638   2.924   0.738  0.7572  0.3785 -0.0050
 3342TIP3   OH231584   6.001   2.287   6.687  0.2445 -0.4552 -0.5886
 3342TIP3    H131585   5.986   2.352   6.755 -0.9317 -1.8760  0.5694
 3342TIP3    H231586   5.992   2.335   6.605 -1.4825  0.6645  0.2169
 3343TIP3   OH231587   2.102   5.543   7.154  0.4859 -0.0533 -0.2429
 3343TIP3    H131588   2.164   5.495   7.098 -0.7469 -0.6068 -1.1755
 3343TIP3    H231589   2.122   5.635   7.139  1.4788 -0.2228 -0.0503
 3344TIP3   OH231590   3.095   3.213   8.504 -0.1744 -0.1860  0.1854
 3344TIP3    H131591   3.117   3.121   8.521  1.8565  0.3694  0.8319
 3344TIP3    H231592   3.137   3.233   8.421 -1.0811  0.0465 -0.2349
 3345TIP3   OH231593   5.412   1.686   1.374 -0.5626  0.7540 -0.1710
 3345TIP3    H131594   5.326   1.723   1.355 -1.6529 -1.4624  0.0663
 3345TIP3    H231595   5.445   1.738   1.447 -1.8944  1.3875  0.0163
 3346TIP3   OH231596   3.678   3.726   1.022  0.0141 -0.3969 -0.4903
 3346TIP3    H131597   3.613   3.790   0.994 -2.7277 -1.6484  2.4287
 3346TIP3    H231598   3.704   3.755   1.109  1.6813 -1.2052 -0.6803
 3347TIP3   OH231599   6.071   4.685   0.497 -0.3593  0.1022  0.6602
 3347TIP3    H131600   6.146   4.631   0.473 -0.5688 -0.0812  0.4212
 3347TIP3    H231601   6.003   4.662   0.434 -0.1991  1.2214  0.0332
 3348TIP3   OH231602   1.137   5.319   0.587 -0.0139 -0.2101  0.0879
 3348TIP3    H131603   1.106   5.290   0.672 -1.2929 -0.0222 -0.2907
 3348TIP3    H231604   1.081   5.273   0.524  0.6024  0.0120 -0.6439
 3349TIP3   OH231605   6.002   1.673   0.297  0.2998 -0.1585  0.0867
 3349TIP3    H131606   5.947   1.717   0.362 -1.7171 -2.2604 -0.0646
 3349TIP3    H231607   6.091   1.701   0.318 -0.6982  3.1587  0.5497
 3350TIP3   OH231608   3.633   6.433   8.722 -0.0411 -0.5636 -0.0306
 3350TIP3    H131609   3.603   6.388   8.801 -0.4201 -2.3641 -1.1316
 3350TIP3    H231610   3.612   6.372   8.651 -0.4509  1.3263 -1.6207
 3351TIP3   OH231611   0.470   6.752   1.253 -0.0825  0.1979 -0.1934
 3351TIP3    H131612   0.496   6.702   1.176 -1.2720 -1.0392  0.1795
 3351TIP3    H231613   0.380   6.778   1.236 -0.8253 -1.2042  1.2958
 3352TIP3   OH231614   0.776   2.420   6.848  0.0503 -0.3556  0.1483
 3352TIP3    H131615   0.756   2.470   6.769  1.9390 -0.2511 -0.3077
 3352TIP3    H231616   0.704   2.357   6.856 -0.0224 -0.5771 -1.8298
 3353TIP3   OH231617   6.042   3.602   1.508 -0.6605 -0.2607  0.5262
 3353TIP3    H131618   6.040   3.696   1.490  0.2504 -0.6155 -1.6810
 3353TIP3    H231619   5.967   3.567   1.461 -0.6286 -0.7244  0.8171
 3354TIP3   OH231620   3.051   0.483   7.008  0.0031 -0.0526 -0.4541
 3354TIP3    H131621   3.079   0.391   7.005  1.6441  0.3462  0.9881
 3354TIP3    H231622   3.055   0.512   6.917  0.2372 -1.1891 -0.8291
 3355TIP3   OH231623   3.891   2.949   1.443 -0.1510 -0.3682 -0.1909
 3355TIP3    H131624   3.938   2.998   1.511 -0.6918 -1.4901  1.0440
 3355TIP3    H231625   3.949   2.876   1.421 -0.5044 -0.7036 -0.0229
 3356TIP3   OH231626   6.688   3.401   2.015 -0.0444 -0.4486  0.0080
 3356TIP3    H131627   6.609   3.350   1.995  0.3324 -1.3568  0.7062
 3356TIP3    H231628   6.661   3.461   2.084 -0.1844 -0.6190  0.1039
 3357TIP3   OH231629   3.471   4.621   1.037  0.0388 -0.0962 -0.4423
 3357TIP3    H131630   3.444   4.631   1.128 -0.4111 -0.3923 -0.5387
 3357TIP3    H231631   3.502   4.531   1.031 -0.3141 -0.2056 -0.6739
 3358TIP3   OH231632   3.480   1.240   8.649 -0.1787  0.0580  0.2087
 3358TIP3    H131633   3.444   1.156   8.680 -1.6531  0.6148  0.1178
 3358TIP3    H231634   3.565   1.217   8.612 -0.3833 -1.3410  0.5121
 3359TIP3   OH231635   3.172   0.927   7.992 -0.6619 -0.0449  0.1224
 3359TIP3    H131636   3.172   1.017   7.958  0.3502 -0.4656 -1.0807
 3359TIP3    H231637   3.264   0.902   7.992 -0.8534 -0.8113  1.2493
 3360TIP3   OH231638   3.528   3.030   1.691 -0.1079 -0.3314  0.3175
 3360TIP3    H131639   3.470   3.017   1.766  0.5355  2.3757  1.3908
 3360TIP3    H231640   3.614   3.002   1.722  0.2175  1.0722  0.7450
 3361TIP3   OH231641   3.632   2.134   6.701 -0.0073  0.2170 -0.3058
 3361TIP3    H131642   3.717   2.176   6.713 -0.2372  0.4248  0.7265
 3361TIP3    H231643   3.650   2.040   6.708  0.8348 -0.1286 -4.5811
 3362TIP3   OH231644   3.789   5.436   1.311 -0.4219  0.1863  0.1778
 3362TIP3    H131645   3.764   5.527   1.328  0.9144  1.0202 -1.9238
 3362TIP3    H231646   3.709   5.396   1.276 -0.4689  1.1908 -0.9352
 3363TIP3   OH231647   0.647   6.327   7.367 -0.0987 -0.6942 -0.1168
 3363TIP3    H131648   0.614   6.241   7.341  0.5307 -1.5945  1.8328
 3363TIP3    H231649   0.741   6.322   7.355 -0.2103  0.3864 -1.6760
 3364TIP3   OH231650   2.574   2.823   8.662 -0.2926  0.0759 -0.1683
 3364TIP3    H131651   2.625   2.829   8.743  1.2952  1.6606 -1.2373
 3364TIP3    H231652   2.624   2.764   8.606 -1.3953 -1.0229 -0.0619
 3365TIP3   OH231653   5.689   5.148   0.705  0.0074  0.1261 -0.5296
 3365TIP3    H131654   5.605   5.104   0.695  0.9564 -1.7819 -0.4780
 3365TIP3    H231655   5.734   5.133   0.622  1.4224 -1.4652  0.4549
 3366TIP3   OH231656   2.831   3.353   8.471 -0.0833 -0.4527 -0.1689
 3366TIP3    H131657   2.818   3.446   8.491 -0.8363 -0.5642 -0.0924
 3366TIP3    H231658   2.923   3.337   8.490  1.1053  1.1761 -3.8100
 3367TIP3   OH231659   0.292   0.128   7.169  0.2300  0.3516 -0.5166
 3367TIP3    H131660   0.218   0.071   7.187  0.8530 -1.1728 -2.4546
 3367TIP3    H231661   0.369   0.072   7.180  1.0367  1.5235  0.0699
 3368TIP3   OH231662   1.521   6.745   8.071  0.3837 -0.2270  0.1327
 3368TIP3    H131663   1.474   6.724   8.151 -0.7601  0.7878 -0.2470
 3368TIP3    H231664   1.604   6.784   8.102  0.3271 -0.6303  0.8081
 3369TIP3   OH231665   0.319   5.479   0.906  0.3165 -0.1046 -0.2102
 3369TIP3    H131666   0.277   5.543   0.964  0.7967 -0.4225  0.5009
 3369TIP3    H231667   0.246   5.426   0.873  0.0672 -0.1057  0.3339
 3370TIP3   OH231668   1.716   3.413   8.059 -0.4675 -0.1919  0.6991
 3370TIP3    H131669   1.642   3.361   8.028 -0.2473  0.6763 -1.3984
 3370TIP3    H231670   1.782   3.404   7.990 -0.4621  2.9359  0.1737
 3371TIP3   OH231671   3.137   2.660   0.129  0.5262 -0.1775 -0.4440
 3371TIP3    H131672   3.150   2.608   0.208  0.0844  0.4671  0.0729
 3371TIP3    H231673   3.064   2.718   0.151  0.7447  0.3737 -1.1389
 3372TIP3   OH231674   4.119   6.012   7.532 -0.4482  0.5928 -0.4069
 3372TIP3    H131675   4.187   6.078   7.547  0.1740  0.1742 -1.2913
 3372TIP3    H231676   4.038   6.062   7.525 -0.0724  1.2048 -0.4662
 3373TIP3   OH231677   2.595   0.944   8.041  0.0865 -0.0181  0.2679
 3373TIP3    H131678   2.655   0.878   8.076  0.5457 -0.6340 -1.5242
 3373TIP3    H231679   2.516   0.895   8.019 -0.2459  0.3754  0.5726
 3374TIP3   OH231680   1.199   5.960   7.282 -0.6353 -0.0211  0.0270
 3374TIP3    H131681   1.185   5.887   7.341  1.7644 -0.6683 -0.0956
 3374TIP3    H231682   1.158   5.934   7.200 -0.7579 -0.7422  0.3168
 3375TIP3   OH231683   3.846   4.042   0.799  0.0747 -0.6620 -0.2418
 3375TIP3    H131684   3.753   4.059   0.783  0.0349  0.4538  0.9519
 3375TIP3    H231685   3.856   3.948   0.790 -1.2650 -0.8479  0.0304
 3376TIP3   OH231686   0.488   3.965   8.123 -0.3448 -0.2057 -0.2739
 3376TIP3    H131687   0.451   3.881   8.095 -1.3060  0.6682 -1.7188
 3376TIP3    H231688   0.467   3.969   8.217 -0.6239 -1.3996 -0.2615
 3377TIP3   OH231689   1.828   2.227   1.777  0.2751  0.0379  0.6619
 3377TIP3    H131690   1.904   2.276   1.808 -0.4045  1.0073  0.8445
 3377TIP3    H231691   1.756   2.257   1.832 -0.3431 -0.4819  0.1480
 3378TIP3   OH231692   4.387   4.576   1.956 -0.8240 -0.2888  0.3800
 3378TIP3    H131693   4.362   4.664   1.927 -0.2423  0.4476  2.0128
 3378TIP3    H231694   4.331   4.560   2.032  0.0577 -0.7497  0.9397
 3379TIP3   OH231695   5.210   4.845   0.601 -0.3355 -0.3237 -0.3414
 3379TIP3    H131696   5.220   4.814   0.511  0.8599 -0.4203 -0.2012
 3379TIP3    H231697   5.291   4.818   0.644 -0.3380  0.8349  0.4303
 3380TIP3   OH231698   2.431   2.647   1.245 -0.5561 -0.0879 -0.6068
 3380TIP3    H131699   2.525   2.664   1.250 -0.8399  1.2533  2.4577
 3380TIP3    H231700   2.424   2.552   1.241  0.9211 -0.2200 -0.7330
 3381TIP3   OH231701   1.517   2.421   0.076  0.9675 -0.8451 -0.4461
 3381TIP3    H131702   1.422   2.415   0.062  0.2821  2.5753  1.7302
 3381TIP3    H231703   1.541   2.333   0.106 -1.9943 -1.2415  1.2430
 3382TIP3   OH231704   2.186   4.089   0.778  0.1692  0.0224  0.0853
 3382TIP3    H131705   2.142   4.022   0.726  2.4835 -1.0618 -0.5674
 3382TIP3    H231706   2.127   4.104   0.852 -1.3249 -1.2697 -0.7864
 3383TIP3   OH231707   5.782   2.263   2.088  0.2733 -0.0107  0.0036
 3383TIP3    H131708   5.858   2.287   2.035  0.0386 -0.2104 -0.4347
 3383TIP3    H231709   5.792   2.313   2.169  1.6854 -1.1981  0.6100
 3384TIP3   OH231710   5.158   5.208   0.414  0.0945  0.7088  0.7330
 3384TIP3    H131711   5.238   5.163   0.387 -0.6367 -0.9569  1.2057
 3384TIP3    H231712   5.182   5.300   0.419  1.2475  0.6250 -1.8303
 3385TIP3   OH231713   5.718   3.919   1.381  0.0009  0.0040 -0.0457
 3385TIP3    H131714   5.652   3.850   1.376 -0.7234  0.7651 -2.1197
 3385TIP3    H231715   5.730   3.947   1.290  3.1022  0.0123  0.2727
 3386TIP3   OH231716   4.906   0.523   6.871  0.0110  0.0926  0.1351
 3386TIP3    H131717   4.878   0.613   6.883 -1.0752 -0.3905  1.5847
 3386TIP3    H231718   4.886   0.503   6.779 -0.4990  1.0712  0.0286
 3387TIP3   OH231719   2.877   6.713   0.765 -1.0822 -0.1284  0.1695
 3387TIP3    H131720   2.839   6.752   0.686 -1.9446  2.3577  1.6983
 3387TIP3    H231721   2.963   6.681   0.738 -1.5153  0.2707 -1.8347
 3388TIP3   OH231722   6.037   2.120   1.056  0.3217  0.0567 -0.1980
 3388TIP3    H131723   6.078   2.045   1.013  0.7760 -0.9085  1.7933
 3388TIP3    H231724   6.110   2.180   1.073  0.3134 -0.0289  0.1377
 3389TIP3   OH231725   2.148   2.237   7.947  0.4127  0.0602 -0.2154
 3389TIP3    H131726   2.179   2.300   7.882  1.7110  0.3074  0.6089
 3389TIP3    H231727   2.193   2.261   8.027 -3.7255  2.0382  1.8554
 3390TIP3   OH231728   0.491   5.236   1.534  0.2814 -0.1964  0.1049
 3390TIP3    H131729   0.472   5.246   1.627 -0.1521 -2.5000  0.3161
 3390TIP3    H231730   0.418   5.185   1.499  1.2092 -0.7269 -1.1497
 3391TIP3   OH231731   6.656   0.925   6.212  0.2899  0.1860  0.1502
 3391TIP3    H131732   6.606   0.892   6.137  1.2729 -1.2805  0.1084
 3391TIP3    H231733   6.700   1.003   6.178  0.3777 -0.2072 -0.6676
 3392TIP3   OH231734   1.786   2.866   2.466  0.2169 -0.2362  0.9446
 3392TIP3    H131735   1.831   2.797   2.417  1.8070 -1.2095  3.5435
 3392TIP3    H231736   1.775   2.937   2.404  0.0815 -2.1748 -1.3827
 3393TIP3   OH231737   4.200   0.409   7.174 -0.3117  0.3102 -0.1802
 3393TIP3    H131738   4.153   0.420   7.092 -1.1779 -0.5666  0.1912
 3393TIP3    H231739   4.146   0.350   7.226  0.0526  1.1099  1.1604
 3394TIP3   OH231740   4.232   2.661   0.354 -0.8697  0.0248 -0.6793
 3394TIP3    H131741   4.297   2.627   0.292 -0.5991 -2.1507  0.7029
 3394TIP3    H231742   4.247   2.612   0.435 -1.6139  2.3130  0.9751
 3395TIP3   OH231743   6.181   3.321   0.821 -0.2509  0.1455 -0.3161
 3395TIP3    H131744   6.142   3.408   0.815 -0.8169 -0.1698 -1.3925
 3395TIP3    H231745   6.225   3.309   0.737 -0.0768 -0.5630 -0.1287
 3396TIP3   OH231746   1.851   2.318   8.353  0.3798  0.1514 -0.3183
 3396TIP3    H131747   1.831   2.396   8.302  2.5489  0.5391 -0.6782
 3396TIP3    H231748   1.862   2.249   8.287  0.3753 -0.0051 -0.1551
 3397TIP3   OH231749   5.392   4.999   6.633  0.1180 -0.0791 -0.0434
 3397TIP3    H131750   5.404   5.058   6.558 -1.6073  0.7381  0.2740
 3397TIP3    H231751   5.472   5.009   6.685  1.7421 -1.3073 -2.1573
 3398TIP3   OH231752   4.764   2.094   6.672 -0.6410 -0.2787 -0.0958
 3398TIP3    H131753   4.737   2.181   6.643  1.4462  0.6739  0.5855
 3398TIP3    H231754   4.791   2.049   6.592 -0.7449  0.0706 -0.3295
 3399TIP3   OH231755   2.723   0.955   2.014 -0.1666  0.5136 -0.4968
 3399TIP3    H131756   2.665   0.996   2.078 -0.6737  0.7008 -1.0632
 3399TIP3    H231757   2.693   0.864   2.010 -1.2192  0.8861 -1.6521
 3400TIP3   OH231758   2.027   2.406   0.869 -0.0158 -0.1927 -0.6162
 3400TIP3    H131759   2.110   2.357   0.862 -0.8000 -1.8370  0.7336
 3400TIP3    H231760   1.989   2.400   0.782  0.7322 -0.4939 -0.9350
 3401TIP3   OH231761   2.562   6.184   1.918 -0.3952 -0.7204  0.3053
 3401TIP3    H131762   2.499   6.142   1.859 -0.2284  0.6875 -0.9292
 3401TIP3    H231763   2.631   6.216   1.860  0.5996 -0.7216  1.4609
 3402TIP3   OH231764   5.156   6.010   1.837  0.5581 -0.0011  0.5028
 3402TIP3    H131765   5.194   6.000   1.924  1.4463  0.1133  0.1414
 3402TIP3    H231766   5.161   5.923   1.798  1.3614  0.2190  0.0979
 3403TIP3   OH231767   6.134   3.611   0.180 -0.1309  0.6888 -0.0180
 3403TIP3    H131768   6.164   3.620   0.089 -1.7253  0.5260 -0.5929
 3403TIP3    H231769   6.214   3.597   0.230  0.9190  2.0204 -1.2259
 3404TIP3   OH231770   3.833   5.705   7.024  0.1805  0.0009 -0.2961
 3404TIP3    H131771   3.781   5.728   7.101  0.6532 -0.6828  0.2425
 3404TIP3    H231772   3.775   5.724   6.949 -0.3633  0.4593  0.2293
 3405TIP3   OH231773   4.485   2.674   2.162 -0.2039 -0.9155  0.0206
 3405TIP3    H131774   4.447   2.610   2.221 -0.1735  0.2652  1.3647
 3405TIP3    H231775   4.410   2.725   2.130  0.0077  0.1625  1.1619
 3406TIP3   OH231776   0.204   5.626   6.540 -0.1185  0.5432 -0.3143
 3406TIP3    H131777   0.220   5.629   6.634  0.8241 -1.4668 -0.3494
 3406TIP3    H231778   0.290   5.643   6.501 -0.8085  2.9986 -0.8972
 3407TIP3   OH231779   2.029   0.072   1.276  0.0387  0.3673 -0.2848
 3407TIP3    H131780   2.071  -0.011   1.254 -1.4806 -0.8671  1.2811
 3407TIP3    H231781   2.041   0.081   1.371 -2.2263  0.5063  0.0393
 3408TIP3   OH231782   6.631   6.598   8.620 -0.0817 -0.5421  0.1189
 3408TIP3    H131783   6.697   6.528   8.618  0.2106 -0.3463  1.4823
 3408TIP3    H231784   6.559   6.562   8.670 -0.1050 -0.0238  0.4715
 3409TIP3   OH231785   6.057   0.217   2.113  0.4941  0.0882 -0.4837
 3409TIP3    H131786   6.134   0.273   2.107  0.5506 -0.1019 -1.7175
 3409TIP3    H231787   5.987   0.267   2.071  0.4166 -0.5225 -1.1124
 3410TIP3   OH231788   6.618   5.141   8.439 -0.5160  0.1942 -0.1676
 3410TIP3    H131789   6.561   5.153   8.515  1.8992  0.6349  1.7083
 3410TIP3    H231790   6.704   5.168   8.469  1.3690 -3.1521 -1.8989
 3411TIP3   OH231791   0.973   3.940   1.124 -0.3491  0.0323  0.1072
 3411TIP3    H131792   1.023   3.906   1.199 -0.3162 -0.2749 -0.0500
 3411TIP3    H231793   0.998   3.882   1.052 -0.9765 -0.1548  0.0375
 3412TIP3   OH231794   1.015   2.451   8.322 -0.2049 -0.6947 -0.0940
 3412TIP3    H131795   1.080   2.384   8.343 -0.1410 -0.6020  0.0021
 3412TIP3    H231796   1.038   2.525   8.378  0.4327 -0.1682 -1.0274
 3413TIP3   OH231797   6.239   3.094   1.320 -0.1323  0.2852  0.2423
 3413TIP3    H131798   6.148   3.065   1.328 -0.7785  2.0971 -0.0859
 3413TIP3    H231799   6.272   3.048   1.243 -1.2411  0.6633 -0.4964
 3414TIP3   OH231800   6.366   5.252   7.852 -0.3053 -0.0808 -0.1489
 3414TIP3    H131801   6.363   5.196   7.774 -1.7973  0.6835 -0.7077
 3414TIP3    H231802   6.444   5.305   7.840  0.9651 -1.7839  0.2431
 3415TIP3   OH231803   2.080   6.058   6.475 -0.2928  0.4988 -0.1215
 3415TIP3    H131804   2.091   6.044   6.381 -0.5187  0.5919 -0.1612
 3415TIP3    H231805   2.134   6.135   6.494 -0.0895  0.3625 -0.1372
 3416TIP3   OH231806   1.626   0.922   6.747  0.4570  0.2141  0.0447
 3416TIP3    H131807   1.639   0.976   6.825  2.4154 -2.3645  1.6748
 3416TIP3    H231808   1.559   0.859   6.772  0.8283 -0.4056 -0.4964
 3417TIP3   OH231809   4.464   3.866   1.665  0.7272  0.3328  0.0147
 3417TIP3    H131810   4.496   3.932   1.727 -1.7344  1.1505  0.5048
 3417TIP3    H231811   4.435   3.794   1.720  1.3595 -0.2491 -0.3973
 3418TIP3   OH231812   5.642   0.191   0.926 -0.4562 -0.0751 -0.0445
 3418TIP3    H131813   5.559   0.211   0.969 -0.2620  1.1422 -0.2045
 3418TIP3    H231814   5.688   0.275   0.921  1.1854 -0.8714  0.8378
 3419TIP3   OH231815   1.518   0.690   0.332 -0.1705  0.7116  0.0614
 3419TIP3    H131816   1.562   0.618   0.377 -0.4488  0.3711 -0.2157
 3419TIP3    H231817   1.528   0.764   0.392  2.2968  1.1061 -0.7257
 3420TIP3   OH231818   5.790   1.891   7.930  0.3402 -0.2267  0.6150
 3420TIP3    H131819   5.826   1.866   8.015 -0.6109 -0.5254  0.9406
 3420TIP3    H231820   5.738   1.970   7.948  0.4322 -0.0738  0.2395
 3421TIP3   OH231821   5.289   0.217   0.135 -0.0961  0.0525  0.2088
 3421TIP3    H131822   5.343   0.259   0.068 -0.5136  1.1894  0.5513
 3421TIP3    H231823   5.204   0.260   0.127  0.2199  1.2107  2.3415
 3422TIP3   OH231824   2.047   3.850   8.717 -0.0661 -0.3357  0.0944
 3422TIP3    H131825   2.103   3.922   8.687 -0.1672 -0.0507  0.5818
 3422TIP3    H231826   2.012   3.812   8.636  1.4326 -1.0174 -0.2470
 3423TIP3   OH231827   1.791   1.592   1.368 -0.0240 -0.3237  0.1428
 3423TIP3    H131828   1.765   1.673   1.323 -0.6655 -0.0871  0.9057
 3423TIP3    H231829   1.822   1.622   1.454  0.3693 -0.8353  0.1790
 3424TIP3   OH231830   5.351   6.784   1.342  0.0974  0.3851 -0.1526
 3424TIP3    H131831   5.421   6.723   1.363 -0.7255 -0.5740 -0.1058
 3424TIP3    H231832   5.394   6.869   1.334  1.3063 -0.2417 -0.4719
 3425TIP3   OH231833   4.533   3.081   0.138  0.1977 -0.0336 -0.2954
 3425TIP3    H131834   4.521   3.152   0.074  0.0395 -1.3010 -1.7264
 3425TIP3    H231835   4.450   3.079   0.187  0.0155  0.4620 -0.5728
 3426TIP3   OH231836   1.149   6.283   0.479  0.0134  0.4880  0.0502
 3426TIP3    H131837   1.063   6.257   0.446 -0.9130  1.6797  1.3946
 3426TIP3    H231838   1.157   6.238   0.563  0.2408  1.1516  0.3973
 3427TIP3   OH231839   1.373   5.722   7.141  0.4723  0.4562 -0.3401
 3427TIP3    H131840   1.367   5.702   7.234 -1.1573 -1.1636 -0.7446
 3427TIP3    H231841   1.284   5.715   7.108  1.2071 -0.5327 -2.3064
 3428TIP3   OH231842   3.296   3.636   8.409 -0.3173  0.5734  0.8857
 3428TIP3    H131843   3.348   3.666   8.483 -0.6401  0.0548  1.3351
 3428TIP3    H231844   3.207   3.630   8.443 -0.0813 -2.1747  1.2590
 3429TIP3   OH231845   0.582   2.158   1.163  0.5954  0.3532 -0.8853
 3429TIP3    H131846   0.551   2.137   1.251 -0.5834  1.8594 -0.8865
 3429TIP3    H231847   0.656   2.100   1.149  0.7828  0.0356  1.0821
 3430TIP3   OH231848   2.833   6.069   1.720  0.1363  0.1216 -0.4253
 3430TIP3    H131849   2.800   6.159   1.715  0.2411  0.2070  0.3825
 3430TIP3    H231850   2.851   6.045   1.629  0.8189  1.1906 -0.5855
 3431TIP3   OH231851   5.707   4.250   6.392 -0.2424  0.0298  0.0577
 3431TIP3    H131852   5.794   4.278   6.364 -0.0140 -1.3850 -0.7642
 3431TIP3    H231853   5.673   4.323   6.444  0.2027  1.9233 -2.1160
 3432TIP3   OH231854   5.185   4.546   6.952 -0.6797 -0.2635  0.1031
 3432TIP3    H131855   5.205   4.623   7.006  1.4735 -0.0627 -0.8991
 3432TIP3    H231856   5.257   4.541   6.889 -1.3998 -2.4112 -0.6363
 3433TIP3   OH231857   4.864   4.037   0.212  0.3507  0.5823 -0.5355
 3433TIP3    H131858   4.817   4.015   0.132  1.0433 -0.5995 -0.6365
 3433TIP3    H231859   4.795   4.053   0.276 -0.2498  2.8717 -1.6522
 3434TIP3   OH231860   1.035   5.907   7.071  0.6299  0.1351 -0.3303
 3434TIP3    H131861   0.992   5.978   7.024  0.6516 -0.0529 -0.6355
 3434TIP3    H231862   0.966   5.869   7.126  0.9150  1.1963  0.7946
 3435TIP3   OH231863   3.139   2.756   0.580  0.3322  0.2815  0.0774
 3435TIP3    H131864   3.091   2.752   0.662  1.2040  1.5736  0.6693
 3435TIP3    H231865   3.084   2.810   0.523 -0.0818 -0.2904 -0.0800
 3436TIP3   OH231866   2.815   2.322   8.749 -0.0030  0.0395  0.0476
 3436TIP3    H131867   2.887   2.260   8.753 -0.8260 -0.9781 -0.4585
 3436TIP3    H231868   2.813   2.363   8.835 -2.2419 -3.8869  2.1400
 3437TIP3   OH231869   3.251   6.131   6.527 -0.1072  0.0944  0.0613
 3437TIP3    H131870   3.188   6.136   6.456 -0.0386  2.1009  0.0868
 3437TIP3    H231871   3.329   6.176   6.494  0.8056 -1.0673  0.5516
 3438TIP3   OH231872   6.158   5.419   2.534 -0.2337  0.0887 -0.1454
 3438TIP3    H131873   6.243   5.428   2.578 -0.1620  1.4720 -0.5176
 3438TIP3    H231874   6.174   5.448   2.444 -1.1842  0.8403 -0.0923
 3439TIP3   OH231875   5.142   1.509   6.813  0.6007  0.3437  0.0266
 3439TIP3    H131876   5.137   1.483   6.721  2.0942 -2.6291  0.6720
 3439TIP3    H231877   5.210   1.577   6.814  0.7929  0.1912 -1.0168
 3440TIP3   OH231878   2.051   1.617   6.469 -0.1183 -0.8690 -0.1841
 3440TIP3    H131879   2.135   1.655   6.492 -0.5387 -0.7095  1.1556
 3440TIP3    H231880   1.999   1.690   6.437  0.0960 -0.8893 -0.5868
 3441TIP3   OH231881   5.670   2.201   0.351  0.0148 -0.4123  0.2378
 3441TIP3    H131882   5.751   2.172   0.394  1.2511  1.4390 -0.7151
 3441TIP3    H231883   5.651   2.285   0.391 -0.7800 -0.2889 -0.3915
 3442TIP3   OH231884   6.160   4.481   8.529  0.8165 -0.5598  0.3334
 3442TIP3    H131885   6.232   4.499   8.468  0.1838 -1.9056 -0.8560
 3442TIP3    H231886   6.199   4.426   8.596  1.3486  0.3602  0.8063
 3443TIP3   OH231887   4.523   1.145   0.763 -0.4732 -0.0337  0.0411
 3443TIP3    H131888   4.560   1.067   0.721 -1.0647  0.1133 -0.7894
 3443TIP3    H231889   4.458   1.177   0.700 -1.0504  0.4777  0.8749
 3444TIP3   OH231890   2.322   5.253   0.412  0.2561 -0.0157  0.2394
 3444TIP3    H131891   2.392   5.268   0.349 -0.6180 -2.9955 -1.6658
 3444TIP3    H231892   2.363   5.201   0.482  0.0299 -1.8787 -0.9426
 3445TIP3   OH231893   1.786   3.378   7.575 -0.3513 -0.0959  0.0349
 3445TIP3    H131894   1.835   3.329   7.509  1.7906  0.7158  0.9220
 3445TIP3    H231895   1.702   3.331   7.583  1.2051 -3.1053  0.2107
 3446TIP3   OH231896   6.305   4.487   7.359  0.2562  0.5441 -0.0112
 3446TIP3    H131897   6.281   4.465   7.269 -0.8740  0.1932  0.3605
 3446TIP3    H231898   6.295   4.405   7.408  1.1049  0.6690  0.3998
 3447TIP3   OH231899   3.366   2.209   0.968 -0.1202 -0.3144  0.0088
 3447TIP3    H131900   3.461   2.201   0.966 -0.0997 -0.2793 -2.8497
 3447TIP3    H231901   3.336   2.157   0.893 -2.2827  0.4892  0.2407
 3448TIP3   OH231902   0.226   4.830   1.557  0.3062 -0.6293  0.1602
 3448TIP3    H131903   0.130   4.835   1.555  0.3467  0.1821 -0.4484
 3448TIP3    H231904   0.247   4.800   1.645 -0.4948 -0.2667  0.4855
 3449TIP3   OH231905   4.602   4.087   1.772  0.2917 -0.3458 -0.3814
 3449TIP3    H131906   4.691   4.107   1.743  0.5168  0.4563  0.7663
 3449TIP3    H231907   4.605   4.100   1.867 -1.4742  1.4807 -0.4984
 3450TIP3   OH231908   0.367   3.335   0.161  0.2715 -0.4079 -0.3242
 3450TIP3    H131909   0.355   3.416   0.113  0.6045 -0.3407 -0.2993
 3450TIP3    H231910   0.315   3.270   0.114  0.3835 -0.2830 -0.6176
 3451TIP3   OH231911   5.989   6.586   7.184  0.0449 -0.3743  0.0556
 3451TIP3    H131912   6.022   6.500   7.159  0.5107  0.1508 -1.2147
 3451TIP3    H231913   5.958   6.625   7.103 -0.0077  0.7205  0.5807
 3452TIP3   OH231914   2.855   1.465   1.682  0.8506  0.4580 -0.2064
 3452TIP3    H131915   2.763   1.453   1.701  1.3285 -0.0298  2.0547
 3452TIP3    H231916   2.897   1.384   1.711  1.9478  0.4275 -1.7273
 3453TIP3   OH231917   3.871   0.890   8.378  0.1263 -0.1038  0.3641
 3453TIP3    H131918   3.947   0.898   8.322 -1.0197 -3.4625 -2.0072
 3453TIP3    H231919   3.805   0.946   8.337  0.7764  1.6610  1.5930
 3454TIP3   OH231920   1.590   2.556   8.556  0.5630 -0.0575 -0.6435
 3454TIP3    H131921   1.593   2.473   8.604 -0.5368  0.2439 -0.0279
 3454TIP3    H231922   1.577   2.623   8.623  0.1288  0.4852 -1.2592
 3455TIP3   OH231923   4.402   4.540   0.762 -0.7258  0.3268  0.2594
 3455TIP3    H131924   4.392   4.600   0.836 -0.5027 -0.4553  0.9367
 3455TIP3    H231925   4.381   4.454   0.797  3.4383 -0.7599  0.5953
 3456TIP3   OH231926   2.347   1.449   6.955 -0.0606 -0.0444  0.0423
 3456TIP3    H131927   2.329   1.465   6.863 -3.0709 -0.1316  0.5134
 3456TIP3    H231928   2.382   1.361   6.958  1.4140  0.4761 -1.1118
 3457TIP3   OH231929   3.850   1.033   5.868  0.2696  0.7126  0.0471
 3457TIP3    H131930   3.869   1.067   5.956  1.7249 -1.3093  0.5780
 3457TIP3    H231931   3.931   0.992   5.840 -0.5409  0.2376 -1.7576
 3458TIP3   OH231932   2.429   2.314   8.146 -0.2188  0.8222  0.2192
 3458TIP3    H131933   2.519   2.284   8.133 -1.2701 -1.9824 -1.2364
 3458TIP3    H231934   2.434   2.409   8.137  2.5494  0.7306  0.0417
 3459TIP3   OH231935   4.092   2.331   1.414 -0.3664  0.3194  0.2280
 3459TIP3    H131936   3.998   2.329   1.433 -0.3413 -0.6795  0.2911
 3459TIP3    H231937   4.129   2.264   1.471  0.1298 -0.6124 -1.1428
 3460TIP3   OH231938   2.946   6.786   7.989 -0.2425  0.2730 -1.1860
 3460TIP3    H131939   3.009   6.716   8.009 -0.8856 -0.1958 -0.7647
 3460TIP3    H231940   2.998   6.866   7.988  0.1485  0.0648  0.4340
 3461TIP3   OH231941   2.815   3.824   0.389  0.3084  0.3765  0.0756
 3461TIP3    H131942   2.785   3.914   0.395  1.2059  0.6675  0.4002
 3461TIP3    H231943   2.852   3.817   0.301  2.1572  0.9663  0.7626
 3462TIP3   OH231944   1.312   4.139   6.626 -0.1693 -0.3469 -0.1113
 3462TIP3    H131945   1.348   4.163   6.711  0.3375  0.7433 -0.6165
 3462TIP3    H231946   1.218   4.151   6.636 -0.0700  0.2517  0.1573
 3463TIP3   OH231947   0.228   4.616   7.086 -0.3192 -0.6022 -0.2168
 3463TIP3    H131948   0.192   4.532   7.115  1.2110 -2.0031 -2.0631
 3463TIP3    H231949   0.152   4.665   7.053 -1.2672 -1.1627  1.0627
 3464TIP3   OH231950   3.005   1.689   0.754 -0.2002 -0.0385  0.5962
 3464TIP3    H131951   3.093   1.678   0.717 -0.3610 -1.4002  0.5732
 3464TIP3    H231952   2.949   1.635   0.698 -1.1562  1.2596  0.2700
 3465TIP3   OH231953   2.461   2.901   7.813  0.4087 -0.5014  0.0606
 3465TIP3    H131954   2.413   2.944   7.742  1.5857  1.2056  0.2355
 3465TIP3    H231955   2.551   2.932   7.803  1.0292 -1.8688  1.0843
 3466TIP3   OH231956   1.718   3.691   8.038  0.3229  0.1586 -0.0366
 3466TIP3    H131957   1.751   3.732   8.118 -0.7203 -1.3801  1.2407
 3466TIP3    H231958   1.737   3.598   8.048 -1.6411 -0.3619 -0.5927
 3467TIP3   OH231959   0.904   6.049   1.120  0.5130 -0.2572  0.1744
 3467TIP3    H131960   0.953   5.985   1.171  0.0254 -0.5724  0.2465
 3467TIP3    H231961   0.813   6.034   1.143  0.3561  0.1537 -0.1624
 3468TIP3   OH231962   6.510   2.275   0.361  0.6509 -0.4911 -0.1157
 3468TIP3    H131963   6.473   2.310   0.442  2.3697 -1.6559  1.2414
 3468TIP3    H231964   6.576   2.339   0.336 -0.6839  0.4808 -1.3318
 3469TIP3   OH231965   6.688   0.624   1.495  0.1753  0.0034 -0.3952
 3469TIP3    H131966   6.710   0.548   1.549  1.3350  0.4325 -0.2399
 3469TIP3    H231967   6.700   0.699   1.553  0.2298  0.3851 -0.8918
 3470TIP3   OH231968   1.332   1.097   8.063  0.1008 -0.3359  0.5359
 3470TIP3    H131969   1.348   1.005   8.083  1.0486  0.0168  1.4990
 3470TIP3    H231970   1.292   1.096   7.977 -1.0625 -1.7251  1.0593
 3471TIP3   OH231971   3.065   2.438   7.289  0.3770 -0.3944 -0.1584
 3471TIP3    H131972   3.077   2.345   7.268  2.9001 -0.2269  0.2521
 3471TIP3    H231973   3.077   2.443   7.384 -0.3365  0.2915 -0.0901
 3472TIP3   OH231974   2.053   4.695   8.244 -0.1178  0.1689  0.5320
 3472TIP3    H131975   2.129   4.659   8.198 -0.0583  1.5189 -0.4938
 3472TIP3    H231976   1.979   4.676   8.185 -0.1448  1.2907  0.1797
 3473TIP3   OH231977   0.446   1.461   0.389  0.7947  0.1245 -0.5534
 3473TIP3    H131978   0.396   1.390   0.349  2.1813 -0.3542 -1.5296
 3473TIP3    H231979   0.524   1.419   0.425  1.3819  1.0702 -0.6836
 3474TIP3   OH231980   5.107   2.706   8.008  0.2053  0.0859 -0.4971
 3474TIP3    H131981   5.043   2.710   8.079 -0.6897 -2.2279 -1.0536
 3474TIP3    H231982   5.054   2.700   7.928  1.1656  0.4734 -1.1835
 3475TIP3   OH231983   0.266   2.198   8.043  0.3723 -0.5646 -0.1396
 3475TIP3    H131984   0.320   2.142   7.988 -1.4624 -1.0914 -1.5127
 3475TIP3    H231985   0.204   2.239   7.982 -0.5042  0.3137  1.2829
 3476TIP3   OH231986   2.478   5.702   0.019  0.4583  0.0894 -0.9023
 3476TIP3    H131987   2.573   5.695   0.021  0.4243 -0.2465 -0.1155
 3476TIP3    H231988   2.452   5.658  -0.062  0.8516 -1.4015 -0.2327
 3477TIP3   OH231989   1.849   4.284   7.041  0.0310  0.2427  0.0879
 3477TIP3    H131990   1.758   4.258   7.029 -0.1253  1.0816 -0.7024
 3477TIP3    H231991   1.845   4.379   7.053  0.7963  0.2789  0.0883
 3478TIP3   OH231992   6.479   6.522   6.482  0.0409 -0.4104  0.0018
 3478TIP3    H131993   6.386   6.532   6.498 -0.2076 -0.5681 -1.2260
 3478TIP3    H231994   6.499   6.432   6.506 -0.1412 -0.3971  0.1951
 3479TIP3   OH231995   1.780   6.821   7.838  0.3857 -0.3019 -0.0955
 3479TIP3    H131996   1.708   6.818   7.775 -0.1706 -2.1782  0.5866
 3479TIP3    H231997   1.738   6.817   7.924  1.1793  1.5237  0.4264
 3480TIP3   OH231998   2.610   2.568   8.497  0.3387 -0.0776 -0.2084
 3480TIP3    H131999   2.701   2.538   8.496  0.3785 -0.0293  0.9382
 3480TIP3    H232000   2.559   2.494   8.466  0.8434  0.2257 -1.8499
 3481TIP3   OH232001   0.733   5.153   1.441 -0.3969  0.1234 -0.2781
 3481TIP3    H132002   0.648   5.189   1.465  0.0487 -0.2081  2.0405
 3481TIP3    H232003   0.715   5.062   1.417 -0.6926  0.0218  0.3158
 3482TIP3   OH232004   6.513   0.022   1.393 -0.2631  0.4363  0.2796
 3482TIP3    H132005   6.423   0.040   1.364  0.3478  2.5719 -0.4486
 3482TIP3    H232006   6.517  -0.074   1.399 -1.5237 -0.0077 -3.3821
 3483TIP3   OH232007   5.155   0.410   8.490  0.1047 -0.4857 -0.4985
 3483TIP3    H132008   5.105   0.442   8.415  2.0091 -0.1479 -1.6726
 3483TIP3    H232009   5.207   0.338   8.455  1.6010  0.1689  0.3107
 3484TIP3   OH232010   5.570   1.644   7.855 -1.3169 -0.3596  0.5273
 3484TIP3    H132011   5.627   1.617   7.784 -0.4061 -0.1670  1.1704
 3484TIP3    H232012   5.627   1.645   7.932 -1.6926  1.7985  0.8359
 3485TIP3   OH232013   4.884   4.395   1.392  0.4364 -0.2526 -0.6016
 3485TIP3    H132014   4.973   4.420   1.417  0.6776  0.7937 -2.3268
 3485TIP3    H232015   4.833   4.475   1.402  0.6187  0.3347 -3.5199
 3486TIP3   OH232016   2.264   6.827   1.103  0.0216 -1.2823  0.0837
 3486TIP3    H132017   2.313   6.908   1.087 -1.8425 -0.1751 -0.2691
 3486TIP3    H232018   2.277   6.810   1.196 -0.1077 -0.1970  0.3181
 3487TIP3   OH232019   5.228   6.391   8.594 -0.4637  0.0017 -0.6346
 3487TIP3    H132020   5.198   6.405   8.505  0.1605 -2.1467 -1.2599
 3487TIP3    H232021   5.268   6.304   8.592  0.2178  0.1986  1.5768
 3488TIP3   OH232022   2.652   4.225   7.276 -0.0070  0.4610  0.3625
 3488TIP3    H132023   2.599   4.244   7.353 -1.6304 -0.1605 -0.5390
 3488TIP3    H232024   2.591   4.234   7.202  0.3899 -2.8694 -0.5400
 3489TIP3   OH232025   3.983   5.527   1.514  0.4239 -0.0931 -0.0630
 3489TIP3    H132026   3.931   5.590   1.564 -0.3921 -0.0132 -0.9911
 3489TIP3    H232027   3.920   5.483   1.456  0.5904 -3.1162  1.8188
 3490TIP3   OH232028   2.171   2.041   0.918  0.0443 -0.0328 -0.6600
 3490TIP3    H132029   2.203   2.104   0.853  0.6008  0.0572 -0.3049
 3490TIP3    H232030   2.250   2.011   0.963 -0.5918  2.8799  2.7407
 3491TIP3   OH232031   0.990   5.516   1.764 -0.2944 -0.3654  0.6416
 3491TIP3    H132032   0.971   5.440   1.819  1.2457 -1.4002 -0.2077
 3491TIP3    H232033   1.027   5.479   1.684  0.7825  1.2884  0.3366
 3492TIP3   OH232034   1.759   1.066   7.834 -0.0752 -0.3050 -0.1217
 3492TIP3    H132035   1.820   1.026   7.772  0.4505 -0.6790  0.6228
 3492TIP3    H232036   1.675   1.025   7.816  0.0322 -0.2638 -0.7188
 3493TIP3   OH232037   1.022   0.139   1.074 -0.5160 -0.2245 -0.2947
 3493TIP3    H132038   0.995   0.057   1.116  0.2926 -0.5739 -0.4386
 3493TIP3    H232039   0.976   0.139   0.990 -1.5893  0.1409  0.2653
 3494TIP3   OH232040   2.979   2.488   7.557  0.5557 -0.0759  0.4100
 3494TIP3    H132041   2.924   2.517   7.630  0.3258 -0.4055  0.3668
 3494TIP3    H232042   2.936   2.410   7.523  1.2707 -0.5751  0.6299
 3495TIP3   OH232043   0.166   0.856   1.224 -0.5737  0.2734  0.6429
 3495TIP3    H132044   0.073   0.857   1.202 -0.2425  1.7953 -0.8643
 3495TIP3    H232045   0.202   0.788   1.167 -0.2816  1.9179 -1.2656
 3496TIP3   OH232046   3.645   4.941   1.212  0.2267 -0.1038 -0.0303
 3496TIP3    H132047   3.677   4.996   1.283  1.3140 -0.4556 -0.2334
 3496TIP3    H232048   3.550   4.947   1.219  0.3175  0.6982  0.7992
 3497TIP3   OH232049   2.557   1.319   1.832 -0.0336 -0.5212  0.3373
 3497TIP3    H132050   2.552   1.413   1.818 -0.6023 -0.8352 -2.0524
 3497TIP3    H232051   2.537   1.307   1.925  0.3557  1.7037  0.7659
 3498TIP3   OH232052   5.326   1.358   6.969  0.0363 -0.1375 -0.5546
 3498TIP3    H132053   5.308   1.275   7.013 -0.0948  0.7374  1.0839
 3498TIP3    H232054   5.240   1.388   6.940  0.1262 -0.7229 -1.4944
 3499TIP3   OH232055   4.111   6.718   7.881 -0.5100  0.1228 -0.4005
 3499TIP3    H132056   4.120   6.811   7.863 -1.1777  0.3082  0.1704
 3499TIP3    H232057   4.040   6.713   7.945 -0.6019 -0.7925 -0.5645
 3500TIP3   OH232058   1.281   6.136   8.705  0.3739  0.1764  0.9449
 3500TIP3    H132059   1.323   6.217   8.677  3.5975 -1.1767  1.3767
 3500TIP3    H232060   1.268   6.146   8.799  0.6272  0.2432  0.9722
 3501TIP3   OH232061   5.597   0.204   0.278  0.1588 -0.1790 -0.3443
 3501TIP3    H132062   5.616   0.295   0.257  0.5610  0.0641  0.9950
 3501TIP3    H232063   5.584   0.203   0.373  0.5657 -1.5841 -0.2782
 3502TIP3   OH232064   6.749   3.189   0.101  0.7920 -0.3125 -0.1018
 3502TIP3    H132065   6.779   3.110   0.055 -0.1134  0.1669 -1.5939
 3502TIP3    H232066   6.755   3.258   0.036 -1.1391  0.2771  0.2896
 3503TIP3   OH232067   6.794   3.970   1.279 -0.1688  0.1675  0.0284
 3503TIP3    H132068   6.753   3.886   1.259 -1.7050  1.0245 -0.5134
 3503TIP3    H232069   6.854   3.985   1.205 -0.3182 -0.1815 -0.1670
 3504TIP3   OH232070   2.628   0.797   6.091  0.4053 -0.2807 -0.3823
 3504TIP3    H132071   2.721   0.778   6.097  0.3910 -0.0373  1.2763
 3504TIP3    H232072   2.589   0.744   6.161 -0.5672  0.3611 -0.4212
 3505TIP3   OH232073   3.148   3.864   0.516 -0.1335  0.0409  0.0866
 3505TIP3    H132074   3.107   3.938   0.562 -0.4047 -1.2821  2.1309
 3505TIP3    H232075   3.099   3.787   0.546  2.0026 -1.2898  0.3709
 3506TIP3   OH232076   5.746   5.574   7.797 -1.1317 -0.5262  0.2471
 3506TIP3    H132077   5.787   5.613   7.875  0.2062 -0.8974 -0.2356
 3506TIP3    H232078   5.662   5.540   7.828 -0.1473 -1.6765  1.8154
 3507TIP3   OH232079   4.915   6.093   0.223  0.4689 -0.3570  0.2421
 3507TIP3    H132080   4.849   6.145   0.176  0.2214 -0.9096 -0.0312
 3507TIP3    H232081   4.970   6.158   0.266 -1.8264  0.1258  2.7062
 3508TIP3   OH232082   5.813   0.702   7.676  0.0806 -0.0941  0.1586
 3508TIP3    H132083   5.722   0.680   7.695 -0.2308  0.2669 -0.8477
 3508TIP3    H232084   5.829   0.666   7.589  0.4307  1.1137 -0.3054
 3509TIP3   OH232085   1.163   6.231   7.392 -0.5564 -0.3847 -0.1487
 3509TIP3    H132086   1.206   6.146   7.404  1.7836  0.8597  0.8920
 3509TIP3    H232087   1.088   6.212   7.336  1.0524 -2.8145 -1.6730
 3510TIP3   OH232088   5.410   3.675   0.874 -0.1286  0.0260 -0.5412
 3510TIP3    H132089   5.338   3.681   0.811 -1.2389 -2.4002  0.3796
 3510TIP3    H232090   5.457   3.596   0.849  0.7585  0.2640  0.3384
 3511TIP3   OH232091   6.389   0.894   0.594  0.3062 -0.0839 -0.3091
 3511TIP3    H132092   6.404   0.853   0.679 -0.3524 -1.6339 -0.9100
 3511TIP3    H232093   6.390   0.822   0.532 -3.7692  0.3107 -1.0980
 3512TIP3   OH232094   2.389   4.628   0.250  0.2443  0.0272  0.4350
 3512TIP3    H132095   2.296   4.607   0.258 -0.1214  1.2992 -0.3172
 3512TIP3    H232096   2.392   4.723   0.241  1.5712 -0.0601 -0.3102
 3513TIP3   OH232097   0.949   2.105   0.637 -0.3982 -0.0104  0.5248
 3513TIP3    H132098   0.908   2.118   0.723 -0.7510 -0.7334  0.4782
 3513TIP3    H232099   1.026   2.161   0.638 -0.6134  0.2847  1.1698
 3514TIP3   OH232100   5.320   6.581   2.141  0.2507  0.4395 -0.0374
 3514TIP3    H132101   5.386   6.582   2.210  0.3270  2.7467 -0.0699
 3514TIP3    H232102   5.301   6.488   2.127  1.5769 -0.1574  1.7779
 3515TIP3   OH232103   3.920   1.337   0.181  0.1890 -0.2128 -0.2890
 3515TIP3    H132104   3.958   1.404   0.238 -1.0391 -0.2968  0.6577
 3515TIP3    H232105   3.828   1.359   0.176 -0.2408 -1.8125  0.0357
 3516TIP3   OH232106   0.280   6.545   7.994  0.2394  0.0890 -0.1154
 3516TIP3    H132107   0.277   6.537   8.090 -1.2729  0.6149 -0.0853
 3516TIP3    H232108   0.277   6.639   7.978  2.5215  0.1228 -0.6822
 3517TIP3   OH232109   3.148   3.692   1.895  0.5846  0.0769 -0.1288
 3517TIP3    H132110   3.214   3.666   1.959  1.3924 -0.3144 -1.0879
 3517TIP3    H232111   3.198   3.709   1.815 -0.1140  2.8392 -0.0643
 3518TIP3   OH232112   1.904   5.677   0.926 -1.1922  0.1937 -0.0974
 3518TIP3    H132113   1.879   5.636   0.843  0.2608 -3.3571  0.9912
 3518TIP3    H232114   1.993   5.644   0.942 -0.0221  3.6169  1.2420
 3519TIP3   OH232115   0.874   2.461   1.082  0.0268  0.2135  0.4604
 3519TIP3    H132116   0.865   2.370   1.111 -2.6949  0.7209  1.4553
 3519TIP3    H232117   0.876   2.455   0.987  0.0760 -0.9060  0.5123
 3520TIP3   OH232118   3.944   3.164   0.789  0.6358  0.1849  0.6589
 3520TIP3    H132119   3.986   3.250   0.788 -1.4131  1.2789  1.9078
 3520TIP3    H232120   3.976   3.121   0.710  1.4669  2.2150 -0.1823
 3521TIP3   OH232121   6.509   2.929   7.615 -0.3206  0.1149  0.3762
 3521TIP3    H132122   6.448   3.002   7.610  0.7584  0.9906 -0.6924
 3521TIP3    H232123   6.595   2.968   7.596  0.2739 -1.4283 -0.3241
 3522TIP3   OH232124   6.454   3.374   6.404  0.1160  0.4269 -0.0492
 3522TIP3    H132125   6.464   3.392   6.311  0.3830  0.0134 -0.1030
 3522TIP3    H232126   6.457   3.279   6.411 -1.0768  0.3947  0.2526
 3523TIP3   OH232127   6.400   4.237   7.905  0.3017 -0.5448  0.1578
 3523TIP3    H132128   6.336   4.180   7.948  0.2569 -0.0702  0.7417
 3523TIP3    H232129   6.348   4.312   7.876  0.4430 -0.5731 -0.1683
 3524TIP3   OH232130   6.321   0.391   7.169  0.2739  0.5316  0.1212
 3524TIP3    H132131   6.231   0.362   7.185 -0.1466  1.5326 -0.3962
 3524TIP3    H232132   6.331   0.388   7.074  0.9838 -0.1166  0.2054
 3525TIP3   OH232133   4.253   2.622   8.662  0.6620  0.1402 -0.7035
 3525TIP3    H132134   4.196   2.578   8.725  1.2531  0.5793  0.1629
 3525TIP3    H232135   4.203   2.622   8.580 -0.0493 -0.5968 -0.2880
 3526TIP3   OH232136   2.551   2.092   7.015 -0.5434  0.0313 -0.2733
 3526TIP3    H132137   2.496   2.032   6.964  0.3989  0.5407 -1.9765
 3526TIP3    H232138   2.639   2.056   7.007 -0.2941  0.4607  0.5096
 3527TIP3   OH232139   0.476   4.233   7.504  0.0237  0.0522  0.1714
 3527TIP3    H132140   0.390   4.191   7.513 -0.2535  0.0953 -1.8965
 3527TIP3    H232141   0.467   4.291   7.428  1.0012  2.3953  1.7088
 3528TIP3   OH232142   1.345   3.849   0.970 -0.3010  0.1650  0.4666
 3528TIP3    H132143   1.425   3.801   0.990  0.4383  1.4142  0.6100
 3528TIP3    H232144   1.373   3.922   0.915 -1.2966  0.7837  0.7388
 3529TIP3   OH232145   2.547   6.406   0.135 -0.4071 -0.7726  0.2388
 3529TIP3    H132146   2.468   6.363   0.168 -0.4923 -0.5172  0.3691
 3529TIP3    H232147   2.618   6.372   0.190 -0.6681  0.3549  1.3335
 3530TIP3   OH232148   2.688   4.970   0.684  0.0724  0.1116 -0.3207
 3530TIP3    H132149   2.639   4.891   0.707  0.1886  0.0219 -0.3779
 3530TIP3    H232150   2.769   4.964   0.735 -0.2363  0.5581  0.2352
 3531TIP3   OH232151   4.561   1.800   0.276  0.0089 -0.0590  0.5389
 3531TIP3    H132152   4.486   1.860   0.278 -0.2646 -0.3442 -0.5101
 3531TIP3    H232153   4.622   1.836   0.341  0.4436  2.1318 -0.9649
 3532TIP3   OH232154   0.229   5.075   1.807 -0.2023 -0.2900  0.4101
 3532TIP3    H132155   0.190   5.114   1.728  0.0017 -0.1234  0.3925
 3532TIP3    H232156   0.223   5.144   1.873  2.2722  0.6365 -0.2392
 3533TIP3   OH232157   1.890   4.560   6.998  0.2834 -0.0581  0.1647
 3533TIP3    H132158   1.972   4.520   6.970 -1.1891 -1.9875 -1.8462
 3533TIP3    H232159   1.855   4.600   6.918 -2.5183 -2.7795 -0.1864
 3534TIP3   OH232160   5.805   1.543   1.096  0.0694 -0.2456  0.3654
 3534TIP3    H132161   5.723   1.592   1.089  0.6401  0.7281  0.3443
 3534TIP3    H232162   5.780   1.453   1.075 -1.0973 -0.0758  0.8832
 3535TIP3   OH232163   0.601   4.871   1.522  0.0062  0.8683 -0.5714
 3535TIP3    H132164   0.573   4.931   1.592  0.5284  0.5350 -0.0668
 3535TIP3    H232165   0.569   4.785   1.550  0.1424  0.7465 -0.7872
 3536TIP3   OH232166   2.476   2.855   6.897  0.1561 -0.1839 -0.4030
 3536TIP3    H132167   2.528   2.922   6.942  0.9759  0.1688 -1.7986
 3536TIP3    H232168   2.509   2.772   6.930 -0.5224  0.0767  0.9774
 3537TIP3   OH232169   4.388   5.244   8.489 -0.0166 -0.3052  0.4778
 3537TIP3    H132170   4.408   5.285   8.573  1.2221  0.9915 -0.4193
 3537TIP3    H232171   4.470   5.203   8.462 -0.5022 -1.0198  0.0390
 3538TIP3   OH232172   4.771   4.250   7.764  0.0335 -0.4222 -0.2060
 3538TIP3    H132173   4.764   4.193   7.841 -1.1980  0.6053  0.4764
 3538TIP3    H232174   4.702   4.315   7.775  2.5478  2.4793  0.0887
 3539TIP3   OH232175   4.679   6.788   1.175  0.8981 -0.1024  0.0708
 3539TIP3    H132176   4.715   6.720   1.233  0.9711  0.9530  1.2968
 3539TIP3    H232177   4.596   6.752   1.144 -0.3619  0.2355  2.7628
 3540TIP3   OH232178   0.665   3.245   1.280  0.1253  0.3136 -0.1875
 3540TIP3    H132179   0.615   3.310   1.232  0.0481  1.2698  1.1302
 3540TIP3    H232180   0.716   3.295   1.344  0.3689 -0.8736  0.5939
 3541TIP3   OH232181   6.406   3.391   6.115  0.5306 -0.3439  0.2718
 3541TIP3    H132182   6.449   3.315   6.077  2.8700 -0.0290  2.0280
 3541TIP3    H232183   6.448   3.466   6.072  0.1633 -0.0171  0.4744
 3542TIP3   OH232184   3.971   0.341   7.336  0.3880  0.0491 -0.3016
 3542TIP3    H132185   3.898   0.402   7.344  1.5865  1.8135 -1.8893
 3542TIP3    H232186   3.956   0.298   7.251 -0.8767 -2.6074  1.1318
 3543TIP3   OH232187   1.935   6.287   1.490 -0.3499 -0.4226 -0.3277
 3543TIP3    H132188   2.029   6.272   1.494 -0.1689  0.1486 -1.7283
 3543TIP3    H232189   1.927   6.372   1.445 -1.5015  0.0532  0.7356
 3544TIP3   OH232190   0.052   5.937   1.514  0.1722  0.0997  0.0434
 3544TIP3    H132191  -0.021   5.972   1.565  2.2924  0.3803  3.1904
 3544TIP3    H232192   0.082   5.861   1.564  0.5717 -1.5564 -2.5036
 3545TIP3   OH232193   2.348   4.858   8.144  0.4554 -0.1347 -0.4380
 3545TIP3    H132194   2.348   4.803   8.222  0.9572  1.4652  0.7454
 3545TIP3    H232195   2.411   4.927   8.164  1.0130  0.0085 -2.5013
 3546TIP3   OH232196   6.624   4.601   1.709  0.0779  0.7886  0.4202
 3546TIP3    H132197   6.650   4.579   1.798  0.8559  1.5790  0.4026
 3546TIP3    H232198   6.633   4.696   1.704  5.7544  0.4871 -2.1733
 3547TIP3   OH232199   5.462   2.283   1.936 -0.3255 -0.2696 -0.3541
 3547TIP3    H132200   5.463   2.378   1.948 -2.2645 -0.2690  0.1567
 3547TIP3    H232201   5.369   2.261   1.927  0.0715 -2.1510 -0.2259
 3548TIP3   OH232202   0.116   3.877   8.571  0.1084 -0.1704 -0.4614
 3548TIP3    H132203   0.199   3.908   8.605  0.5723 -1.4443 -0.3856
 3548TIP3    H232204   0.117   3.903   8.478 -1.1566  3.2836  0.3536
 3549TIP3   OH232205   6.282   3.931   7.821 -0.0619  0.3126 -0.5726
 3549TIP3    H132206   6.342   3.954   7.892  0.4082  3.0821 -1.7401
 3549TIP3    H232207   6.339   3.920   7.745 -0.8279  0.6010 -1.1945
 3550TIP3   OH232208   0.584   5.764   0.351  0.0799 -0.8474 -0.0152
 3550TIP3    H132209   0.616   5.682   0.389  1.9306 -0.6231 -0.9485
 3550TIP3    H232210   0.589   5.749   0.256  0.7951  0.4293 -0.2090
 3551TIP3   OH232211   2.431   1.534   0.894  0.8004  0.0046  0.3034
 3551TIP3    H132212   2.455   1.547   0.985  1.8519  0.3271 -0.0046
 3551TIP3    H232213   2.361   1.597   0.878  2.2144  1.6240  0.2627
 3552TIP3   OH232214   3.154   0.015   8.566 -0.6876 -0.3244  0.6353
 3552TIP3    H132215   3.180   0.102   8.536  0.1108 -0.7852 -0.0266
 3552TIP3    H232216   3.175   0.015   8.660 -0.1912  0.0063  0.5270
 3553TIP3   OH232217   4.827   1.695   8.004  0.1526  0.3684 -0.4090
 3553TIP3    H132218   4.818   1.779   7.960 -3.4642  1.6183  2.2357
 3553TIP3    H232219   4.906   1.703   8.058 -1.3807  3.2062  1.6666
 3554TIP3   OH232220   0.355   3.328   8.316 -0.1885 -0.2044 -0.7461
 3554TIP3    H132221   0.414   3.253   8.315  0.6710  0.4372 -0.1352
 3554TIP3    H232222   0.402   3.395   8.366 -1.3125  0.4325 -0.4992
 3555TIP3   OH232223   4.940   1.824   7.490  0.4305 -0.0567 -0.1824
 3555TIP3    H132224   4.964   1.824   7.583  3.8930 -0.0305 -0.9324
 3555TIP3    H232225   4.944   1.916   7.464  1.0294 -0.2060 -0.6494
 3556TIP3   OH232226   1.047   1.615   7.828 -0.1732 -0.2495 -0.0019
 3556TIP3    H132227   1.003   1.613   7.913 -0.0910 -0.6482  0.0323
 3556TIP3    H232228   1.110   1.686   7.836  0.1444 -0.5725  0.4297
 3557TIP3   OH232229   4.732   1.625   6.003  0.9375  0.8800 -0.1961
 3557TIP3    H132230   4.722   1.611   6.098 -2.3293  0.8301 -0.4126
 3557TIP3    H232231   4.727   1.538   5.966 -1.2585  1.1005 -0.5390
 3558TIP3   OH232232   1.572   5.675   7.623 -0.3816 -0.4386 -0.0940
 3558TIP3    H132233   1.617   5.608   7.572  1.2522 -0.1914  0.9360
 3558TIP3    H232234   1.605   5.663   7.712 -0.4073  1.4145  0.2033
 3559TIP3   OH232235   5.776   4.652   1.251 -0.0665 -0.7227 -0.4958
 3559TIP3    H132236   5.849   4.591   1.235 -0.1355 -1.1998  0.8512
 3559TIP3    H232237   5.738   4.622   1.333  1.1025  2.2627  1.3163
 3560TIP3   OH232238   5.247   0.532   2.083 -0.2047  0.0132 -0.7381
 3560TIP3    H132239   5.292   0.450   2.060 -0.4731 -0.1510 -0.6804
 3560TIP3    H232240   5.188   0.508   2.154  0.9588  0.6079  0.4838
 3561TIP3   OH232241   2.922   2.208   6.075  0.0493 -0.0470 -0.3665
 3561TIP3    H132242   2.977   2.223   5.999  1.5574  2.6065  1.0834
 3561TIP3    H232243   2.842   2.258   6.058  0.3275  0.4311 -0.2837
 3562TIP3   OH232244   2.875   5.074   1.625  0.0930 -0.2563 -0.3087
 3562TIP3    H132245   2.863   5.144   1.561 -0.3317 -0.3271 -0.3122
 3562TIP3    H232246   2.792   5.026   1.623 -0.2619  0.2832  0.9459
 3563TIP3   OH232247   0.547   3.664   1.704  0.4036  0.1201  0.4259
 3563TIP3    H132248   0.488   3.596   1.735 -1.2785  0.7490 -1.1910
 3563TIP3    H232249   0.495   3.715   1.642  2.8786  0.2319 -1.7549
 3564TIP3   OH232250   5.958   5.865   0.626  0.1914 -0.7759 -0.1478
 3564TIP3    H132251   5.960   5.790   0.685  0.1809  0.2211  1.1572
 3564TIP3    H232252   5.866   5.893   0.627  0.2544 -0.5600 -0.4104
 3565TIP3   OH232253   1.350   6.379   7.546  0.4585 -0.5127  0.7301
 3565TIP3    H132254   1.282   6.335   7.495  0.0466  1.5915 -0.6521
 3565TIP3    H232255   1.333   6.353   7.636 -1.8072 -0.5481  0.3506
 3566TIP3   OH232256   0.441   1.729   6.207  0.5129  0.2945 -0.1140
 3566TIP3    H132257   0.401   1.642   6.207  1.1937 -0.0745 -1.9977
 3566TIP3    H232258   0.376   1.785   6.164 -0.1227  0.8528  1.5137
 3567TIP3   OH232259   4.543   4.773   8.173 -0.1795 -0.2002  0.2649
 3567TIP3    H132260   4.471   4.770   8.235 -0.1739  1.6065  0.4204
 3567TIP3    H232261   4.617   4.806   8.224  0.9251 -2.4372  0.2190
 3568TIP3   OH232262   3.343   2.610   0.716 -0.1220 -0.2006 -0.5343
 3568TIP3    H132263   3.291   2.643   0.642 -1.3184 -0.4053  0.1885
 3568TIP3    H232264   3.344   2.683   0.778 -1.4938 -0.9446  0.4196
 3569TIP3   OH232265   6.122   3.544   1.199 -0.0699 -0.2986 -0.3278
 3569TIP3    H132266   6.153   3.632   1.220  1.0553 -1.0642  1.3744
 3569TIP3    H232267   6.194   3.504   1.151 -0.1121 -0.6691 -0.0879
 3570TIP3   OH232268   4.142   0.619   1.499  0.7123  0.6070 -0.5206
 3570TIP3    H132269   4.086   0.595   1.573  0.5479  1.6492 -0.2953
 3570TIP3    H232270   4.156   0.537   1.452 -0.2155  0.1582 -0.0353
 3571TIP3   OH232271   3.070   4.945   7.884 -0.2619 -0.2869 -0.6159
 3571TIP3    H132272   2.974   4.942   7.881 -0.4605 -0.4991  2.6685
 3571TIP3    H232273   3.097   4.865   7.841 -1.5222 -0.1672 -1.7159
 3572TIP3   OH232274   3.402   4.847   0.054 -0.2132  0.0891 -0.0196
 3572TIP3    H132275   3.307   4.859   0.046 -0.2872  0.3414  0.9827
 3572TIP3    H232276   3.438   4.935   0.043  0.0304 -0.1840 -1.6385
 3573TIP3   OH232277   4.133   0.090   6.966 -0.1464  0.6543 -0.6568
 3573TIP3    H132278   4.098   0.121   7.049  1.1620 -0.8326  0.5427
 3573TIP3    H232279   4.070   0.118   6.901 -1.4054  1.5755  0.8752
 3574TIP3   OH232280   2.771   1.891   0.592  0.2742 -0.6746 -0.4581
 3574TIP3    H132281   2.817   1.810   0.571 -0.4964 -1.5431  1.0588
 3574TIP3    H232282   2.817   1.926   0.668 -1.2056 -1.3103  0.7828
 3575TIP3   OH232283   1.769   5.679   6.069 -0.4271 -0.4774  0.5626
 3575TIP3    H132284   1.707   5.744   6.034  0.4063  0.0728  0.0819
 3575TIP3    H232285   1.820   5.728   6.134  1.0255 -0.2985 -0.6621
 3576TIP3   OH232286   4.634   3.473   6.299 -0.5293 -0.2476 -0.1289
 3576TIP3    H132287   4.598   3.487   6.387 -0.6920  1.2746 -0.4039
 3576TIP3    H232288   4.653   3.380   6.296 -1.0683 -0.4426  1.3169
 3577TIP3   OH232289   5.371   6.741   7.661  0.1576 -0.3343  0.3491
 3577TIP3    H132290   5.402   6.677   7.724 -1.6446  0.2619  1.9535
 3577TIP3    H232291   5.429   6.731   7.586  1.4277 -2.1425  1.4844
 3578TIP3   OH232292   6.574   1.694   2.039  0.6174 -0.0479  0.3670
 3578TIP3    H132293   6.538   1.745   1.965  0.8883 -0.7446 -0.2566
 3578TIP3    H232294   6.647   1.645   2.001  0.6399 -0.5661  1.0611
 3579TIP3   OH232295   3.081   2.954   0.213 -0.1004 -0.2705 -0.0197
 3579TIP3    H132296   3.002   2.985   0.257  0.6179 -0.8363  1.7933
 3579TIP3    H232297   3.146   2.949   0.283  1.1977 -0.9807 -1.2295
 3580TIP3   OH232298   1.364   4.800   1.652 -0.2825  0.0502 -0.0772
 3580TIP3    H132299   1.335   4.709   1.652  0.9685 -0.3717  0.5948
 3580TIP3    H232300   1.290   4.850   1.686 -0.4770 -0.8973  0.9207
 3581TIP3   OH232301   4.259   3.545   7.080  0.0892 -0.0887 -0.8526
 3581TIP3    H132302   4.311   3.625   7.075 -0.5282  0.4862  1.2071
 3581TIP3    H232303   4.323   3.477   7.102  0.3146  0.1966 -0.6138
 3582TIP3   OH232304   0.374   1.132   7.165 -0.1200  0.3292  0.0010
 3582TIP3    H132305   0.469   1.139   7.163 -0.0368 -0.7821 -0.6039
 3582TIP3    H232306   0.352   1.078   7.090 -1.2970  1.1235 -0.2617
 3583TIP3   OH232307   1.654   4.610   1.250  0.5927 -0.3027  0.5989
 3583TIP3    H132308   1.596   4.559   1.195  1.5083 -0.4820 -0.2375
 3583TIP3    H232309   1.679   4.551   1.321 -1.3470  0.2341  1.7839
 3584TIP3   OH232310   1.684   6.546   7.360 -0.5123  0.5636 -0.2083
 3584TIP3    H132311   1.645   6.508   7.281 -2.3931  1.6012  0.1455
 3584TIP3    H232312   1.705   6.471   7.415  1.2170 -0.2075 -1.7981
 3585TIP3   OH232313   6.341   0.752   1.849 -0.5396  0.2235  0.1472
 3585TIP3    H132314   6.282   0.716   1.915  0.4172 -0.4932  0.6525
 3585TIP3    H232315   6.336   0.847   1.861 -1.3547  0.1513  0.3796
 3586TIP3   OH232316   3.992   5.650   1.190 -0.2463  0.3883  0.3289
 3586TIP3    H132317   4.086   5.645   1.207 -0.3092 -0.3817  0.4875
 3586TIP3    H232318   3.952   5.642   1.276 -0.4787 -0.3278  0.1630
 3587TIP3   OH232319   5.488   1.193   7.716 -0.0373  0.3990 -0.1335
 3587TIP3    H132320   5.533   1.109   7.723  0.4225  0.5843 -0.7630
 3587TIP3    H232321   5.483   1.225   7.806 -1.0829 -0.7359  0.2501
 3588TIP3   OH232322   6.422   5.003   7.943  0.4378 -0.7140  0.1355
 3588TIP3    H132323   6.399   5.095   7.928 -1.8759 -1.2506 -0.0669
 3588TIP3    H232324   6.433   4.996   8.038 -0.9070 -0.4824  0.3386
 3589TIP3   OH232325   5.537   3.326   0.375 -0.3081  0.2013  0.1682
 3589TIP3    H132326   5.491   3.344   0.293  0.8277  0.3395 -0.4723
 3589TIP3    H232327   5.500   3.243   0.406  0.3220 -0.6757 -1.3257
 3590TIP3   OH232328   4.255   1.679   7.356  0.3599 -0.3184 -0.5926
 3590TIP3    H132329   4.274   1.635   7.439  2.3272 -1.0303 -1.3464
 3590TIP3    H232330   4.179   1.734   7.374  1.6619  0.7523  2.1154
 3591TIP3   OH232331   6.783   3.669   0.948  0.0215 -0.0263  0.5877
 3591TIP3    H132332   6.841   3.657   0.873 -0.5794  0.7161 -0.0036
 3591TIP3    H232333   6.696   3.642   0.916 -0.1031 -0.4483  1.2522
 3592TIP3   OH232334   4.731   4.354   2.273  0.8324  0.0470 -0.0851
 3592TIP3    H132335   4.655   4.349   2.215  0.5516 -0.0050  0.2916
 3592TIP3    H232336   4.777   4.271   2.259  0.6223 -0.0785 -0.0385
 3593TIP3   OH232337   5.508   2.284   7.396  0.4192 -0.3381 -0.0217
 3593TIP3    H132338   5.425   2.328   7.378 -0.3568 -1.5629  0.4285
 3593TIP3    H232339   5.570   2.356   7.414 -0.7308  0.5726  0.4448
 3594TIP3   OH232340   5.837   4.485   7.587  0.5159 -0.3589  0.3616
 3594TIP3    H132341   5.750   4.451   7.565  0.0294  0.7256  0.5157
 3594TIP3    H232342   5.853   4.453   7.676  1.1685 -2.2270 -0.3898
 3595TIP3   OH232343   5.997   4.683   6.644  0.4004  0.1799  0.3022
 3595TIP3    H132344   6.069   4.697   6.583 -1.2645  1.5441 -1.4592
 3595TIP3    H232345   5.930   4.746   6.618 -1.8720 -1.7095  1.2108
 3596TIP3   OH232346   2.665   4.471   1.453  0.0226  0.3764 -0.8505
 3596TIP3    H132347   2.731   4.532   1.421 -0.5177  1.7681  0.5995
 3596TIP3    H232348   2.585   4.523   1.462  0.0536  0.0683  2.4255
 3597TIP3   OH232349   6.444   4.438   6.483  0.3427  0.1455  0.1840
 3597TIP3    H132350   6.437   4.378   6.409  2.2114  0.4007 -0.2418
 3597TIP3    H232351   6.527   4.416   6.524  1.1647  2.5415 -0.0702
 3598TIP3   OH232352   0.188   0.319   7.680  0.5939 -0.5300  0.1238
 3598TIP3    H132353   0.116   0.381   7.667  1.2001 -0.0454 -1.0704
 3598TIP3    H232354   0.201   0.279   7.594  2.3369  0.0603  0.0648
 3599TIP3   OH232355   1.027   3.534   8.147  0.8134  0.0666 -0.5220
 3599TIP3    H132356   1.115   3.504   8.124  0.5324 -0.5608 -0.8103
 3599TIP3    H232357   1.006   3.601   8.082  0.3643 -1.0901 -1.6048
 3600TIP3   OH232358   2.153   0.850   1.044  0.2416  0.3036 -0.1950
 3600TIP3    H132359   2.177   0.781   1.106 -1.5817  0.1959  0.4654
 3600TIP3    H232360   2.179   0.931   1.086  4.3118  0.0857 -1.8491
 3601TIP3   OH232361   6.806   4.359   0.268 -0.1961  0.4787  0.1217
 3601TIP3    H132362   6.841   4.448   0.279 -0.1606  0.6097 -0.9687
 3601TIP3    H232363   6.711   4.371   0.262 -0.0863  0.6661 -1.8455
 3602TIP3   OH232364   3.336   5.974   8.270 -0.0742  0.3431  0.1220
 3602TIP3    H132365   3.367   5.966   8.361  2.0595  1.9788 -0.3970
 3602TIP3    H232366   3.247   6.007   8.278 -0.6257 -1.3161  1.6220
 3603TIP3   OH232367   6.765   4.375   1.596 -0.6643 -0.2026 -0.2478
 3603TIP3    H132368   6.789   4.434   1.524  0.1889  1.5067  1.3637
 3603TIP3    H232369   6.711   4.428   1.653  1.0514 -0.5627  1.8396
 3604TIP3   OH232370   5.156   2.975   7.552 -0.2966 -0.4035  0.0833
 3604TIP3    H132371   5.169   2.960   7.646  0.3601 -0.4771 -0.0152
 3604TIP3    H232372   5.229   2.929   7.510  0.5321  1.2328 -0.3477
 3605TIP3   OH232373   5.742   1.350   0.526  0.5737  0.0759  0.5420
 3605TIP3    H132374   5.674   1.343   0.593 -0.3808 -0.5491 -0.4523
 3605TIP3    H232375   5.709   1.298   0.453  0.0670  3.1749 -1.6432
 3606TIP3   OH232376   5.598   0.835   7.211  0.3511 -0.2024  0.0436
 3606TIP3    H132377   5.550   0.863   7.288  0.1529  1.8597 -0.7534
 3606TIP3    H232378   5.539   0.853   7.138  0.9304 -1.1445 -0.6907
 3607TIP3   OH232379   6.432   5.346   7.516  0.4121 -0.0294  0.1236
 3607TIP3    H132380   6.337   5.340   7.514  0.3604  0.3212  1.1575
 3607TIP3    H232381   6.461   5.260   7.548  0.3939  0.1887  0.7301
 3608TIP3   OH232382   3.839   3.724   7.486 -0.3519  0.2455 -0.4412
 3608TIP3    H132383   3.797   3.679   7.559 -0.9793  0.1030 -0.8819
 3608TIP3    H232384   3.901   3.784   7.528 -0.3014 -0.2261  0.1863
 3609TIP3   OH232385   1.096   4.620   0.193  0.3610  0.4519 -0.0185
 3609TIP3    H132386   1.091   4.713   0.214  0.0615  0.4150  0.0812
 3609TIP3    H232387   1.035   4.579   0.254 -0.1113  0.2808 -0.5980
 3610TIP3   OH232388   6.340   3.227   8.176 -0.0950  0.5240  0.1741
 3610TIP3    H132389   6.334   3.246   8.082 -2.0004  0.7408  0.2993
 3610TIP3    H232390   6.425   3.185   8.187  1.2227  2.5977 -1.2644
 3611TIP3   OH232391   0.572   6.704   2.113 -0.1886 -0.2003 -0.9673
 3611TIP3    H132392   0.509   6.709   2.185 -1.7992 -1.1355 -2.2474
 3611TIP3    H232393   0.616   6.620   2.125  0.5453  0.2595 -0.3217
 3612TIP3   OH232394   3.406   4.150   7.024 -0.0943 -0.9601  0.5448
 3612TIP3    H132395   3.497   4.175   7.009 -0.4552 -0.3597 -0.7301
 3612TIP3    H232396   3.396   4.066   6.980 -0.4883 -0.3999 -0.4652
 3613TIP3   OH232397   1.181   6.543   1.429 -0.4945  0.0242  0.1849
 3613TIP3    H132398   1.254   6.526   1.369 -0.0009 -1.3663  1.1131
 3613TIP3    H232399   1.165   6.637   1.422  2.0639  0.5689  0.6673
 3614TIP3   OH232400   6.365   1.238   7.080 -1.2097 -0.2740 -0.2154
 3614TIP3    H132401   6.454   1.272   7.074 -2.0166  2.2128  0.7839
 3614TIP3    H232402   6.363   1.189   7.162 -0.7607 -0.3738 -0.2631
 3615TIP3   OH232403   0.573   3.499   8.414  0.2034  0.8741 -0.4503
 3615TIP3    H132404   0.643   3.461   8.360  0.6762  0.2840  0.5505
 3615TIP3    H232405   0.610   3.501   8.503 -0.3158  2.4253 -0.2380
 3616TIP3   OH232406   1.413   6.681   7.231  0.3283  0.1683 -0.1142
 3616TIP3    H132407   1.339   6.634   7.271  0.8510 -1.7896 -1.3184
 3616TIP3    H232408   1.483   6.674   7.296  0.7909 -1.9241 -0.7551
 3617TIP3   OH232409   3.299   0.217   8.471 -0.1999 -0.2253 -0.2107
 3617TIP3    H132410   3.256   0.303   8.463  0.3046 -0.0730 -1.5995
 3617TIP3    H232411   3.378   0.235   8.522  0.4792  0.3828 -1.4378
 3618TIP3   OH232412   4.087   1.555   1.704 -0.2068 -0.2268  0.5359
 3618TIP3    H132413   4.108   1.515   1.789  0.5656 -0.5235  0.2113
 3618TIP3    H232414   3.996   1.529   1.688  0.3949 -2.2242  0.1460
 3619TIP3   OH232415   5.264   2.610   8.639  0.3628  0.1465  0.6749
 3619TIP3    H132416   5.275   2.516   8.625  2.1444  0.3886  0.1435
 3619TIP3    H232417   5.351   2.640   8.665  0.1263  1.8557 -0.3486
 3620TIP3   OH232418   1.259   3.495   7.927 -0.1093  0.1113  0.2469
 3620TIP3    H132419   1.198   3.563   7.898 -2.0608 -1.1498  1.1910
 3620TIP3    H232420   1.345   3.538   7.926 -0.9336  1.8844 -1.3826
 3621TIP3   OH232421   3.707   0.300   8.087  0.6868 -0.5965  0.4650
 3621TIP3    H132422   3.769   0.283   8.158  1.0178  1.9849  0.9096
 3621TIP3    H232423   3.625   0.261   8.117  1.4070 -1.7093  1.0981
 3622TIP3   OH232424   3.110   2.470   0.329  0.1177  0.0973  0.0372
 3622TIP3    H132425   3.120   2.463   0.423  1.6330  0.2879 -0.0873
 3622TIP3    H232426   3.137   2.384   0.296  3.0787  1.0730 -0.4098
 3623TIP3   OH232427   2.455   3.505   8.083  0.2842 -0.5553 -0.4498
 3623TIP3    H132428   2.504   3.465   8.155  0.1935 -0.5030 -0.3582
 3623TIP3    H232429   2.366   3.514   8.117  0.4686  0.4258 -0.1899
 3624TIP3   OH232430   2.255   0.987   2.296  0.6824  0.2847  0.3029
 3624TIP3    H132431   2.165   0.962   2.275  0.2718 -0.9489  3.1485
 3624TIP3    H232432   2.249   1.078   2.324  0.0581 -0.1509  1.6642
 3625TIP3   OH232433   2.801   1.861   7.341 -0.0623 -0.5573 -0.0521
 3625TIP3    H132434   2.881   1.824   7.378 -0.9087 -2.0540  0.3807
 3625TIP3    H232435   2.754   1.785   7.305 -1.2390  0.2959 -0.3777
 3626TIP3   OH232436   0.102   2.580   6.823  0.3853 -0.0663 -0.4689
 3626TIP3    H132437   0.071   2.634   6.750 -1.2722 -0.6772 -0.2436
 3626TIP3    H232438   0.037   2.593   6.891  1.5803 -0.0036  0.6986
 3627TIP3   OH232439   1.388   6.197   1.502  0.3895 -0.3232 -0.9667
 3627TIP3    H132440   1.418   6.249   1.576  0.3321 -0.6020 -0.7464
 3627TIP3    H232441   1.434   6.234   1.426  0.1374  0.2214 -0.8536
 3628TIP3   OH232442   1.602   3.327   0.218  0.2946 -0.1655  0.6554
 3628TIP3    H132443   1.651   3.336   0.136 -1.7573 -1.0303 -0.7374
 3628TIP3    H232444   1.573   3.236   0.219  0.8107 -0.3731  2.7208
 3629TIP3   OH232445   6.028   6.573   2.465  0.6130  0.2464  0.2517
 3629TIP3    H132446   6.081   6.618   2.531 -0.0701  0.4412  0.6826
 3629TIP3    H232447   5.985   6.644   2.416  0.3232  0.0881  0.2713
 3630TIP3   OH232448   6.423   0.428   0.293  0.1350 -0.0649  0.1336
 3630TIP3    H132449   6.349   0.483   0.266 -0.4929 -1.4857 -1.2231
 3630TIP3    H232450   6.478   0.422   0.216  0.2776 -1.1828  0.3048
 3631TIP3   OH232451   2.035   2.622   0.125 -0.0223 -0.8778 -0.0935
 3631TIP3    H132452   2.044   2.717   0.138 -2.0243 -0.7004  0.2783
 3631TIP3    H232453   1.973   2.613   0.053 -0.8555 -1.8985  0.7256
 3632TIP3   OH232454   3.090   2.155   7.208 -0.5258 -0.6611  0.0401
 3632TIP3    H132455   3.110   2.072   7.250 -0.8355 -1.0555 -0.5770
 3632TIP3    H232456   3.161   2.167   7.144  2.1358  1.7537  3.0819
 3633TIP3   OH232457   2.676   1.924   6.297 -0.0753 -0.3249 -0.3214
 3633TIP3    H132458   2.659   2.003   6.347 -0.5498 -0.3613 -0.4132
 3633TIP3    H232459   2.614   1.860   6.332 -1.4238  0.0480 -1.8750
 3634TIP3   OH232460   6.367   5.626   0.305 -0.4279 -0.2879  0.0321
 3634TIP3    H132461   6.438   5.583   0.257  0.0681  1.7290 -1.1309
 3634TIP3    H232462   6.291   5.568   0.291 -0.0833 -0.2621 -2.4892
 3635TIP3   OH232463   6.418   0.507   0.579  0.4551 -0.3446 -0.0040
 3635TIP3    H132464   6.411   0.453   0.500  0.5305 -0.2315 -0.0889
 3635TIP3    H232465   6.496   0.473   0.623  0.3446 -0.4863  0.0821
 3636TIP3   OH232466   5.821   6.320   0.834 -0.2251  0.2754  0.7342
 3636TIP3    H132467   5.881   6.278   0.772 -1.8240  0.1766 -0.8401
 3636TIP3    H232468   5.843   6.413   0.829  1.0913  0.0395  1.6911
 3637TIP3   OH232469   5.404   5.410   6.864  0.0592  0.6830  0.4479
 3637TIP3    H132470   5.489   5.401   6.908  1.4245 -1.5551 -2.3232
 3637TIP3    H232471   5.357   5.331   6.888 -0.6264  1.1604  0.6955
 3638TIP3   OH232472   1.927   2.139   7.064 -0.3492 -0.1410 -0.0870
 3638TIP3    H132473   1.899   2.081   6.993  3.3512 -1.5910 -0.5881
 3638TIP3    H232474   2.012   2.171   7.037  0.0961  1.2857  2.6325
 3639TIP3   OH232475   1.146   6.673   0.726 -0.6435 -0.2874  0.0834
 3639TIP3    H132476   1.092   6.740   0.685 -2.6783 -1.4168  0.7810
 3639TIP3    H232477   1.095   6.593   0.718  1.5605 -1.7096 -0.4086
 3640TIP3   OH232478   0.451   6.454   7.159  0.2634  0.0930 -0.4429
 3640TIP3    H132479   0.503   6.406   7.223  0.9116  1.5705  0.1904
 3640TIP3    H232480   0.494   6.437   7.075 -0.3870 -1.5752 -0.4696
 3641TIP3   OH232481   0.830   3.841   8.712 -0.0425  0.0351  0.2771
 3641TIP3    H132482   0.902   3.898   8.683 -0.1382  0.1686  0.3013
 3641TIP3    H232483   0.787   3.890   8.782  1.6289 -1.2698  2.3284
 3642TIP3   OH232484   2.925   1.529   0.220 -0.2094  0.1129 -0.1890
 3642TIP3    H132485   2.879   1.460   0.171 -0.2053  0.0026 -0.0367
 3642TIP3    H232486   2.867   1.605   0.213  0.6654  0.6671 -1.9762
 3643TIP3   OH232487   6.391   1.558   0.917  0.2953 -0.3725 -0.0123
 3643TIP3    H132488   6.415   1.499   0.846 -2.0872 -0.7018 -0.6248
 3643TIP3    H232489   6.331   1.621   0.877  2.1065  2.0465  0.8112
 3644TIP3   OH232490   5.731   1.052   0.228  0.2546 -0.8344  0.2716
 3644TIP3    H132491   5.817   1.016   0.204  0.8545  0.2473  0.7204
 3644TIP3    H232492   5.733   1.057   0.323 -0.8722 -2.0987  0.3879
 3645TIP3   OH232493   2.390   3.755   0.020 -0.0456  0.9345  0.1861
 3645TIP3    H132494   2.377   3.711   0.104  1.6944  0.0790  0.0657
 3645TIP3    H232495   2.378   3.685  -0.045  1.1639  0.9566 -0.0968
 3646TIP3   OH232496   6.272   2.614   7.373  0.0638 -0.2450 -0.0102
 3646TIP3    H132497   6.184   2.601   7.339  0.0278 -1.2616  0.4430
 3646TIP3    H232498   6.315   2.671   7.309 -0.2920 -1.3419 -1.2684
 3647TIP3   OH232499   3.308   5.786   7.352  0.2241 -0.2845 -0.1101
 3647TIP3    H132500   3.366   5.853   7.317 -1.6210  1.1422 -0.5789
 3647TIP3    H232501   3.270   5.826   7.430 -0.5108 -0.9828 -0.0999
 3648TIP3   OH232502   2.673   4.005   0.766 -0.4671 -0.8746 -0.2087
 3648TIP3    H132503   2.750   4.007   0.823 -0.5720 -1.1118 -0.0593
 3648TIP3    H232504   2.704   4.042   0.683 -0.8794  1.7310  0.6949
 3649TIP3   OH232505   5.786   4.388   8.151 -0.2404 -0.6629  0.2056
 3649TIP3    H132506   5.837   4.381   8.232 -1.8849 -0.3796  1.3054
 3649TIP3    H232507   5.840   4.345   8.085  0.5661 -2.0533  1.7143
 3650TIP3   OH232508   2.762   5.261   7.888  0.1917 -0.1024  0.4936
 3650TIP3    H132509   2.814   5.232   7.813 -0.5677 -1.1931  0.3621
 3650TIP3    H232510   2.762   5.357   7.881  1.5789 -0.1037  0.1114
 3651TIP3   OH232511   0.166   5.631   8.554 -0.0088 -0.3677  0.6589
 3651TIP3    H132512   0.143   5.673   8.472 -0.6011  0.0286  1.0187
 3651TIP3    H232513   0.110   5.673   8.619 -0.9175 -1.9801  0.9724
 3652TIP3   OH232514   3.875   3.418   7.705  0.4201 -0.6365 -0.4008
 3652TIP3    H132515   3.898   3.362   7.779 -0.3763 -3.9829 -2.4663
 3652TIP3    H232516   3.955   3.466   7.685  0.5409  0.7361  2.7849
 3653TIP3   OH232517   1.836   4.993   7.062 -0.3859 -0.3887 -0.3346
 3653TIP3    H132518   1.856   4.963   6.973  1.2974 -1.5673  0.3716
 3653TIP3    H232519   1.776   4.927   7.097  0.5248 -1.0428  0.0374
 3654TIP3   OH232520   6.068   1.204   7.524 -0.0127  0.1153  0.0645
 3654TIP3    H132521   6.047   1.251   7.605 -0.3298 -1.8934  1.2047
 3654TIP3    H232522   6.068   1.272   7.456 -0.5385  1.7258  1.6107
 3655TIP3   OH232523   6.352   1.567   1.893  0.1692 -0.1890  0.3583
 3655TIP3    H132524   6.272   1.576   1.946  0.8210 -1.4216  1.6139
 3655TIP3    H232525   6.423   1.576   1.956  1.0002 -0.2723 -0.5566
 3656TIP3   OH232526   5.065   4.772   6.431  0.0470  0.4730 -0.6507
 3656TIP3    H132527   5.113   4.778   6.348 -1.3437 -4.3304 -2.0984
 3656TIP3    H232528   4.974   4.789   6.407 -0.4668 -1.6411 -0.3649
 3657TIP3   OH232529   1.500   5.036   1.257 -0.2160  0.6623  0.1159
 3657TIP3    H132530   1.565   5.036   1.187 -0.9014 -0.5393 -0.5383
 3657TIP3    H232531   1.544   5.080   1.330  1.5784 -0.7018 -0.0783
 3658TIP3   OH232532   1.242   2.793   1.806  0.5633  0.4643 -0.1982
 3658TIP3    H132533   1.306   2.858   1.776  1.7936 -1.6333 -2.5071
 3658TIP3    H232534   1.190   2.839   1.872  3.5862  2.6846  0.8542
 3659TIP3   OH232535   1.637   4.027   1.222  0.5907 -0.3149 -0.0900
 3659TIP3    H132536   1.578   3.964   1.263  0.9504 -1.0715 -0.7011
 3659TIP3    H232537   1.691   4.060   1.294 -0.6502  0.4988  0.4997
 3660TIP3   OH232538   0.156   3.975   1.036  0.2837 -0.1499 -0.6179
 3660TIP3    H132539   0.217   3.929   0.979 -0.3073 -1.0031 -0.5767
 3660TIP3    H232540   0.105   4.030   0.977  2.1306  1.8480 -0.4973
 3661TIP3   OH232541   5.030   6.285   7.777 -0.4163  0.6480  0.1601
 3661TIP3    H132542   5.002   6.241   7.698 -2.1107  0.0962  1.0261
 3661TIP3    H232543   5.097   6.347   7.748  1.1119 -1.5563 -1.2651
 3662TIP3   OH232544   4.679   3.095   8.607  0.1022  0.0629  0.5795
 3662TIP3    H132545   4.584   3.100   8.613  0.1225  0.6901  0.4512
 3662TIP3    H232546   4.708   3.186   8.614  0.6408 -0.0455 -0.1906
 3663TIP3   OH232547   2.767   4.098   0.497  0.1266  0.1936  0.4668
 3663TIP3    H132548   2.765   4.173   0.557  0.3190  1.1392 -0.6890
 3663TIP3    H232549   2.702   4.118   0.430  0.1551 -0.6961  0.1492
 3664TIP3   OH232550   5.702   3.313   8.143  0.3697  0.4152 -0.1361
 3664TIP3    H132551   5.784   3.264   8.139  0.8236  1.0902  0.5286
 3664TIP3    H232552   5.637   3.255   8.104  0.8824 -0.7271  0.6653
 3665TIP3   OH232553   6.443   4.790   6.440  0.1986  0.4497 -0.0230
 3665TIP3    H132554   6.438   4.858   6.373  0.3826  0.0937 -0.4056
 3665TIP3    H232555   6.368   4.734   6.422  1.2316 -0.6537 -1.0596
 3666TIP3   OH232556   0.268   1.686   2.309  0.2233 -0.3235 -0.1319
 3666TIP3    H132557   0.310   1.751   2.365  0.1479  2.5170 -3.0746
 3666TIP3    H232558   0.337   1.658   2.248 -0.8228  0.6134 -1.8340
 3667TIP3   OH232559   6.024   6.684   7.469  0.2343 -0.6242 -0.2866
 3667TIP3    H132560   6.015   6.686   7.374  1.4653 -0.5332 -0.4189
 3667TIP3    H232561   6.089   6.752   7.488  2.9419 -3.1296  0.2232
 3668TIP3   OH232562   4.884   4.149   1.730 -0.2372 -0.3709 -0.4131
 3668TIP3    H132563   4.918   4.236   1.748  0.9319 -1.2082  1.8541
 3668TIP3    H232564   4.953   4.089   1.760 -0.9770 -2.0927 -1.9287
 3669TIP3   OH232565   4.340   5.931   8.469 -0.1244  0.8021  0.1247
 3669TIP3    H132566   4.340   5.836   8.457  0.4904  0.7314  0.6444
 3669TIP3    H232567   4.433   5.955   8.473 -0.2419  1.5794 -1.1611
 3670TIP3   OH232568   5.492   2.473   6.254 -0.0795 -0.3280  0.2718
 3670TIP3    H132569   5.459   2.561   6.233  1.2763  0.1502  0.0035
 3670TIP3    H232570   5.585   2.488   6.275  0.3551 -1.7924 -0.5061
 3671TIP3   OH232571   0.622   2.237   0.732 -0.2162  0.4356 -0.2934
 3671TIP3    H132572   0.557   2.198   0.674 -0.0720 -2.4958  1.3245
 3671TIP3    H232573   0.570   2.279   0.801 -0.3662  2.1671 -1.4180
 3672TIP3   OH232574   4.646   5.030   1.276  0.1287 -0.0398  0.0027
 3672TIP3    H132575   4.650   5.070   1.363  1.4476 -1.1865  0.5115
 3672TIP3    H232576   4.696   4.949   1.285  0.2377 -0.2100 -1.8258
 3673TIP3   OH232577   0.980   4.242   6.752 -0.1080 -0.1151 -0.0406
 3673TIP3    H132578   1.022   4.163   6.786 -0.3159 -1.3005 -2.3244
 3673TIP3    H232579   0.956   4.219   6.662 -0.8500  2.3159 -0.5300
 3674TIP3   OH232580   4.429   0.137   7.477 -0.1090  0.7626 -0.2785
 3674TIP3    H132581   4.459   0.193   7.548 -2.9854 -1.4281  3.0160
 3674TIP3    H232582   4.336   0.157   7.468 -0.9607 -2.4115  0.1968
 3675TIP3   OH232583   5.109   0.467   0.251 -0.2303  0.1038  0.1823
 3675TIP3    H132584   5.047   0.425   0.191 -1.6563  1.1464  0.8766
 3675TIP3    H232585   5.067   0.464   0.336  1.7428 -1.2882  1.1898
 3676TIP3   OH232586   5.675   5.217   1.584  0.0283  0.3590  0.1621
 3676TIP3    H132587   5.688   5.180   1.672  0.4050 -1.2933 -0.5497
 3676TIP3    H232588   5.754   5.267   1.567  0.3274 -0.0136  0.4380
 3677TIP3   OH232589   1.921   5.369   0.353  0.3392 -0.1132  0.5277
 3677TIP3    H132590   1.858   5.388   0.424 -0.1017  0.6283 -0.0443
 3677TIP3    H232591   1.877   5.400   0.274  1.6726  0.9491  0.1837
 3678TIP3   OH232592   2.898   1.554   0.519  0.0206 -0.1325 -0.8176
 3678TIP3    H132593   2.991   1.534   0.504  0.3554  0.3497  0.4354
 3678TIP3    H232594   2.854   1.527   0.439  0.8690 -2.8499 -0.4649
 3679TIP3   OH232595   3.057   4.967   8.174  0.0324  0.3375 -0.4878
 3679TIP3    H132596   3.008   5.049   8.163  0.2204  0.3973 -0.8895
 3679TIP3    H232597   3.102   4.955   8.091  0.1169 -0.1031 -0.3796
 3680TIP3   OH232598   2.122   2.538   1.167  0.3436  0.4279 -0.4036
 3680TIP3    H132599   2.179   2.462   1.155  0.0310  0.1973 -0.4424
 3680TIP3    H232600   2.148   2.600   1.099 -0.1872 -0.1220 -1.1211
 3681TIP3   OH232601   6.805   1.578   6.536 -0.1958  0.1675  0.1419
 3681TIP3    H132602   6.829   1.552   6.447  0.8867  1.2040  0.1118
 3681TIP3    H232603   6.751   1.505   6.568 -0.3682 -0.3520 -1.2484
 3682TIP3   OH232604   2.299   6.290   0.198 -0.3192 -0.1782  0.2310
 3682TIP3    H132605   2.247   6.289   0.118  1.7353 -0.5877 -1.1880
 3682TIP3    H232606   2.340   6.204   0.202  1.3399  0.5648  0.4758
 3683TIP3   OH232607   1.092   2.613   8.537 -0.0833  0.1519  0.4489
 3683TIP3    H132608   1.175   2.571   8.513 -0.4459 -0.0915 -0.4090
 3683TIP3    H232609   1.118   2.694   8.581  0.6201 -0.5568  1.3886
 3684TIP3   OH232610   4.443   2.266   7.373  0.2456  0.5046  0.0344
 3684TIP3    H132611   4.414   2.333   7.435 -0.4835  0.7305 -0.5375
 3684TIP3    H232612   4.525   2.302   7.337 -1.5413  2.5542 -2.4011
 3685TIP3   OH232613   3.950   6.538   1.489  0.2272 -0.2989  0.1054
 3685TIP3    H132614   3.971   6.616   1.438  0.7238 -0.0416  0.6865
 3685TIP3    H232615   3.994   6.551   1.573 -2.4090  0.3331  1.5011
 3686TIP3   OH232616   3.067   0.947   7.720 -0.0679 -0.0425  0.6354
 3686TIP3    H132617   3.156   0.929   7.688 -0.4369 -1.8598  0.4971
 3686TIP3    H232618   3.040   0.865   7.761 -1.5429  0.6160  1.0307
 3687TIP3   OH232619   5.174   3.973   6.960 -0.1692  0.6015  0.0375
 3687TIP3    H132620   5.184   4.034   6.886 -3.4418 -0.0558 -1.1190
 3687TIP3    H232621   5.080   3.956   6.965  0.4313 -3.8264  0.7131
 3688TIP3   OH232622   1.395   5.458   1.795  0.1415 -0.5132 -0.1953
 3688TIP3    H132623   1.402   5.546   1.757 -0.7193 -1.1393 -1.8968
 3688TIP3    H232624   1.398   5.473   1.889 -0.3254  1.3813 -0.4345
 3689TIP3   OH232625   6.688   6.734   6.659  0.0945  0.1878 -0.0572
 3689TIP3    H132626   6.734   6.778   6.587  1.0975 -0.0616  0.4153
 3689TIP3    H232627   6.626   6.799   6.691 -1.0757 -0.0150 -1.7666
 3690TIP3   OH232628   3.691   0.753   0.398 -0.4371 -0.1002 -0.5247
 3690TIP3    H132629   3.620   0.742   0.461  0.8819 -2.1028  0.7061
 3690TIP3    H232630   3.759   0.693   0.428  0.3663 -0.9592 -3.7317
 3691TIP3   OH232631   1.974   4.712   2.400 -0.3254 -0.4818  0.3292
 3691TIP3    H132632   2.010   4.744   2.318  2.0845 -0.8946  1.1429
 3691TIP3    H232633   1.879   4.713   2.387 -0.0426  0.1916 -2.1459
 3692TIP3   OH232634   3.788   3.806   1.263 -0.3479  0.6526  0.2796
 3692TIP3    H132635   3.791   3.874   1.331  0.9988  0.1444  0.7691
 3692TIP3    H232636   3.877   3.804   1.228 -0.3206 -0.9281  0.3572
 3693TIP3   OH232637   0.333   1.715   7.979 -0.2783 -0.2932 -0.2397
 3693TIP3    H132638   0.305   1.794   8.026 -3.5905 -0.9066 -0.9249
 3693TIP3    H232639   0.311   1.733   7.887  0.4705 -1.3895 -0.6548
 3694TIP3   OH232640   5.498   4.832   1.424 -0.5432  0.5478 -0.3045
 3694TIP3    H132641   5.569   4.769   1.428 -0.5926  0.4499 -0.8247
 3694TIP3    H232642   5.420   4.782   1.447 -0.4277  0.6949  0.4372
 3695TIP3   OH232643   2.460   0.507   1.367  0.2797  0.2716 -0.2498
 3695TIP3    H132644   2.479   0.556   1.287  0.6184 -0.8102 -0.8514
 3695TIP3    H232645   2.369   0.480   1.357 -0.4000  2.0540  0.7925
 3696TIP3   OH232646   4.839   5.572   6.810 -0.1089  0.1644  0.9506
 3696TIP3    H132647   4.806   5.610   6.729  0.6429 -0.3925  0.3769
 3696TIP3    H232648   4.760   5.557   6.863 -1.1872 -3.1933 -1.2334
 3697TIP3   OH232649   1.073   5.474   8.346 -0.3528  0.1510 -0.3547
 3697TIP3    H132650   1.112   5.417   8.280  1.3252 -0.4099  1.0508
 3697TIP3    H232651   1.060   5.558   8.301 -0.9912 -0.7418 -1.8851
 3698TIP3   OH232652   5.527   4.259   6.206  0.6716  0.2855 -0.0280
 3698TIP3    H132653   5.608   4.261   6.257 -0.2047 -0.0486  1.4560
 3698TIP3    H232654   5.484   4.342   6.227  0.8260  0.6670 -1.1724
 3699TIP3   OH232655   4.325   4.065   7.781  0.1045  0.4352 -0.6528
 3699TIP3    H132656   4.354   3.980   7.815 -0.3557  0.0258 -1.2619
 3699TIP3    H232657   4.394   4.093   7.721  1.2313  1.4620  1.0394
 3700TIP3   OH232658   6.433   3.125   7.284  0.0446 -0.8226  0.1122
 3700TIP3    H132659   6.439   3.188   7.213 -1.0183  1.9107  2.2505
 3700TIP3    H232660   6.516   3.078   7.282  0.3631 -0.2808 -2.3606
 3701TIP3   OH232661   5.594   4.626   8.220  0.3947 -0.3640  0.3049
 3701TIP3    H132662   5.649   4.555   8.254 -0.0520 -1.2397 -0.7434
 3701TIP3    H232663   5.543   4.585   8.150 -0.6662  0.7467  0.4085
 3702TIP3   OH232664   4.210   5.359   0.810 -0.4992 -0.0978  0.5994
 3702TIP3    H132665   4.279   5.400   0.759  0.0437 -1.4709  0.1822
 3702TIP3    H232666   4.181   5.427   0.871  0.8625  0.6552  0.4412
 3703TIP3   OH232667   1.531   0.636   0.705 -0.2940  0.0226  0.1260
 3703TIP3    H132668   1.544   0.568   0.638  1.4683  1.1193 -0.7340
 3703TIP3    H232669   1.510   0.587   0.784 -0.3020 -1.4559 -0.7378
 3704TIP3   OH232670   6.249   6.612   7.873 -0.2794 -0.3893 -0.1847
 3704TIP3    H132671   6.297   6.676   7.819  0.0746 -0.0848  0.4851
 3704TIP3    H232672   6.202   6.558   7.809 -0.4088  0.4002 -0.7706
 3705TIP3   OH232673   6.791   5.625   1.895 -0.4518  0.5366  0.1388
 3705TIP3    H132674   6.785   5.612   1.989  0.9940 -0.8091  0.0771
 3705TIP3    H232675   6.726   5.693   1.876 -0.8771  0.7156  2.0628
 3706TIP3   OH232676   2.241   0.205   2.446  0.1452 -0.3123  0.0063
 3706TIP3    H132677   2.202   0.237   2.527 -2.1738  0.3460 -1.2891
 3706TIP3    H232678   2.280   0.282   2.405 -2.8633  0.4415 -1.6986
 3707TIP3   OH232679   6.784   0.408   1.616  0.1965  0.2487 -0.1764
 3707TIP3    H132680   6.813   0.317   1.613  0.1822  0.2598 -1.2577
 3707TIP3    H232681   6.739   0.417   1.700 -1.9194 -1.4362 -1.0360
 3708TIP3   OH232682   3.897   5.295   1.898 -0.3972  0.1984 -0.2860
 3708TIP3    H132683   3.944   5.377   1.883 -1.5476  0.6367 -1.7043
 3708TIP3    H232684   3.856   5.306   1.984  1.1246  0.2550  0.4583
 3709TIP3   OH232685   5.476   4.314   7.855 -0.1313 -0.3191 -0.0351
 3709TIP3    H132686   5.506   4.279   7.771 -0.3184 -0.3620 -0.0856
 3709TIP3    H232687   5.418   4.247   7.890 -1.9886  0.6940 -1.0120
 3710TIP3   OH232688   5.067   3.700   7.299 -0.4864 -0.1949 -0.0204
 3710TIP3    H132689   5.159   3.701   7.325 -0.0804  0.8459 -1.4011
 3710TIP3    H232690   5.045   3.791   7.281 -1.4538 -0.5526 -0.7871
 3711TIP3   OH232691   3.262   3.891   7.182  0.2789 -0.5188  0.1521
 3711TIP3    H132692   3.348   3.921   7.210 -0.0852  0.9209 -0.2024
 3711TIP3    H232693   3.204   3.914   7.256 -0.5326  2.5024 -1.2529
 3712TIP3   OH232694   2.632   2.165   1.189  0.0965 -0.3529  0.2746
 3712TIP3    H132695   2.685   2.204   1.120 -1.4599  0.1380 -0.6677
 3712TIP3    H232696   2.654   2.072   1.186 -0.8586 -0.5495 -1.7374
 3713TIP3   OH232697   1.621   5.902   6.891 -0.2773  0.1167 -0.5197
 3713TIP3    H132698   1.622   5.859   6.805 -1.6278  0.5455 -0.7865
 3713TIP3    H232699   1.587   5.990   6.873 -0.0492  0.3994  0.3843
 3714TIP3   OH232700   3.478   3.911   7.350  0.1398  0.2447  0.4632
 3714TIP3    H132701   3.477   3.928   7.444  1.1358 -0.2705  0.5861
 3714TIP3    H232702   3.533   3.980   7.314 -0.8034  0.8554  0.1492
 3715TIP3   OH232703   5.636   5.079   6.746 -0.0133  0.5578 -0.2407
 3715TIP3    H132704   5.732   5.080   6.750 -0.0435  1.6791  2.3163
 3715TIP3    H232705   5.611   5.170   6.732 -0.7309  0.1834 -1.5257
 3716TIP3   OH232706   0.167   0.427   6.563  0.0443 -0.6620 -0.0716
 3716TIP3    H132707   0.227   0.375   6.511  0.6901 -0.4551  0.4582
 3716TIP3    H232708   0.096   0.367   6.585  0.2461 -1.0137 -0.3698
 3717TIP3   OH232709   0.876   5.222   7.140 -1.2259  0.5372  0.1448
 3717TIP3    H132710   0.887   5.313   7.114 -0.6374  0.0241 -1.5826
 3717TIP3    H232711   0.918   5.215   7.225 -0.2233  1.6377 -0.2325
 3718TIP3   OH232712   0.515   1.318   0.748 -0.4735 -0.6838  0.1112
 3718TIP3    H132713   0.591   1.325   0.690 -0.6501  2.0026  0.1138
 3718TIP3    H232714   0.468   1.400   0.737 -2.1046 -1.2999  1.9199
 3719TIP3   OH232715   5.754   6.057   7.710 -0.4042 -0.4510  0.1663
 3719TIP3    H132716   5.762   6.033   7.802 -1.3040  1.2011  0.7161
 3719TIP3    H232717   5.664   6.035   7.687 -0.0146 -1.4117 -0.5189
 3720TIP3   OH232718   0.303   3.263   0.425 -0.1868  0.1259  0.1421
 3720TIP3    H132719   0.264   3.301   0.503  1.5812 -1.2542  1.7966
 3720TIP3    H232720   0.376   3.322   0.403 -0.3763  0.2468 -0.1658
 3721TIP3   OH232721   5.340   3.746   8.676 -0.2527 -0.2998 -0.1571
 3721TIP3    H132722   5.354   3.834   8.710  0.6499  0.2285 -1.7751
 3721TIP3    H232723   5.252   3.722   8.707 -0.2101  0.8403  0.9367
 3722TIP3   OH232724   4.776   5.778   8.708 -0.0166  0.0059  0.0374
 3722TIP3    H132725   4.805   5.695   8.669 -1.0265 -0.0525 -0.6118
 3722TIP3    H232726   4.848   5.839   8.690 -0.7278  0.1695 -2.5588
 3723TIP3   OH232727   4.630   3.215   6.850  0.2612 -0.0340 -0.2322
 3723TIP3    H132728   4.664   3.126   6.835 -1.9064 -1.1038  0.7152
 3723TIP3    H232729   4.682   3.249   6.922 -0.3839 -1.5031  0.9784
 3724TIP3   OH232730   1.914   4.612   8.020 -0.8317  0.3741 -0.0551
 3724TIP3    H132731   1.852   4.614   7.947 -0.0802 -1.6545 -0.8045
 3724TIP3    H232732   1.992   4.656   7.987 -0.6123 -0.2485 -0.3864
 3725TIP3   OH232733   5.900   1.699   7.478 -0.3464 -0.0288  0.4166
 3725TIP3    H132734   5.864   1.779   7.440 -0.5005  0.0099  0.6390
 3725TIP3    H232735   5.824   1.641   7.487 -0.4882  0.3047  1.5259
 3726TIP3   OH232736   3.674   2.875   8.694  0.6251 -0.5013 -0.4465
 3726TIP3    H132737   3.647   2.912   8.611 -0.0438 -0.5966 -0.2778
 3726TIP3    H232738   3.615   2.801   8.708  0.1211  0.0660  0.5478
 3727TIP3   OH232739   5.436   5.735   8.270 -0.1536  0.2701 -0.0377
 3727TIP3    H132740   5.346   5.707   8.258 -0.8609  1.6323  1.6557
 3727TIP3    H232741   5.431   5.804   8.337  2.1014  0.5750 -0.1091
 3728TIP3   OH232742   3.257   2.720   8.534  0.3118 -0.3187 -0.3515
 3728TIP3    H132743   3.301   2.667   8.600 -0.1329 -0.0652  0.1508
 3728TIP3    H232744   3.171   2.680   8.524  0.0493  0.1901 -0.1218
 3729TIP3   OH232745   2.634   6.030   7.813 -0.1683  0.3702 -0.4884
 3729TIP3    H132746   2.539   6.020   7.804 -0.2326  0.4675  0.0879
 3729TIP3    H232747   2.670   5.972   7.745 -0.6523  2.4926 -2.6920
 3730TIP3   OH232748   5.511   4.983   6.980  0.4078  0.1665 -0.4980
 3730TIP3    H132749   5.564   5.010   6.905 -0.1907 -1.0782 -1.4305
 3730TIP3    H232750   5.565   4.919   7.026 -0.3255 -1.3511 -1.6353
 3731TIP3   OH232751   0.706   4.380   7.651  0.1928 -0.1329  0.1806
 3731TIP3    H132752   0.682   4.347   7.738  0.2277 -1.5411 -0.3198
 3731TIP3    H232753   0.625   4.374   7.600  0.0199  1.2360  0.2338
 3732TIP3   OH232754   3.364   4.835   6.702  0.8728  0.8100 -0.1973
 3732TIP3    H132755   3.308   4.825   6.778  1.3179 -0.9080 -0.0679
 3732TIP3    H232756   3.406   4.921   6.715  0.3185  0.9120  1.0570
 3733TIP3   OH232757   3.300   0.506   7.136 -0.3540 -0.6149  0.5409
 3733TIP3    H132758   3.353   0.427   7.130 -0.7246 -0.8538  0.3998
 3733TIP3    H232759   3.231   0.494   7.071 -0.2514 -0.0543  0.3230
 3734TIP3   OH232760   1.296   1.437   8.579 -0.3324 -0.0431 -0.2145
 3734TIP3    H132761   1.217   1.433   8.634 -0.5937 -0.7399 -0.6329
 3734TIP3    H232762   1.363   1.473   8.637 -0.7422 -0.2407  0.3971
 3735TIP3   OH232763   2.207   2.844   1.279  0.2019 -0.3736 -0.3687
 3735TIP3    H132764   2.257   2.764   1.267 -0.2069 -0.5022 -1.2823
 3735TIP3    H232765   2.152   2.851   1.200 -1.4328 -0.3925  0.7086
 3736TIP3   OH232766   3.508   6.438   7.824  0.8752  0.1225  0.4784
 3736TIP3    H132767   3.459   6.517   7.802 -1.2620 -0.4156  2.8162
 3736TIP3    H232768   3.591   6.470   7.861  0.6629  1.1959  0.0527
 3737TIP3   OH232769   1.046   5.857   1.265 -0.4476  0.2171 -0.4432
 3737TIP3    H132770   1.038   5.762   1.254 -0.6082  0.3341 -1.4548
 3737TIP3    H232771   1.028   5.872   1.358 -1.5795 -0.6162 -0.5050
 3738TIP3   OH232772   2.049   5.470   8.268  0.3874 -0.2403  0.9537
 3738TIP3    H132773   1.978   5.415   8.232  0.8548 -0.5076  0.4270
 3738TIP3    H232774   2.129   5.432   8.232  0.6801  1.3745 -0.2299
 3739TIP3   OH232775   3.064   3.127   7.066 -0.0154 -0.4899 -0.0759
 3739TIP3    H132776   3.070   3.034   7.046 -0.8632 -0.2656 -1.4929
 3739TIP3    H232777   3.125   3.170   7.006 -0.9592 -0.0005 -0.7255
 3740TIP3   OH232778   3.702   5.554   0.985  0.4389 -0.6711  0.7881
 3740TIP3    H132779   3.631   5.521   1.040 -0.7500 -0.9263 -0.8444
 3740TIP3    H232780   3.766   5.482   0.983 -0.5272 -1.5315  0.0811
 3741TIP3   OH232781   6.567   5.765   7.710 -0.0005  0.0267  0.4680
 3741TIP3    H132782   6.488   5.719   7.681  0.5934 -0.6575 -0.1178
 3741TIP3    H232783   6.575   5.839   7.650  1.7751 -1.9424 -1.9090
 3742TIP3   OH232784   5.782   5.967   1.440  0.4025  0.1158  0.4514
 3742TIP3    H132785   5.790   5.889   1.494 -1.1242 -0.1422  0.3521
 3742TIP3    H232786   5.847   6.028   1.476  3.5359 -2.0668 -1.1680
 3743TIP3   OH232787   6.020   1.007   7.332 -0.1201 -0.1648 -0.7502
 3743TIP3    H132788   6.049   1.040   7.417 -0.4785 -1.0237 -0.2822
 3743TIP3    H232789   5.941   0.956   7.351 -0.4296 -0.0564 -1.6545
 3744TIP3   OH232790   1.336   0.993   1.628  0.5926  0.0922 -0.4631
 3744TIP3    H132791   1.424   1.026   1.645 -0.0852  1.8052 -0.0426
 3744TIP3    H232792   1.279   1.069   1.639 -1.0688 -1.1786  0.2787
 3745TIP3   OH232793   4.137   1.084   6.925 -0.1879 -0.0342 -0.1089
 3745TIP3    H132794   4.065   1.070   6.864  0.7637 -2.0737 -0.8761
 3745TIP3    H232795   4.110   1.041   7.006 -0.6772  1.0384  0.3099
 3746TIP3   OH232796   5.643   4.481   8.683 -0.2375  0.7085  0.1034
 3746TIP3    H132797   5.608   4.458   8.769  0.3274  0.3020  0.2347
 3746TIP3    H232798   5.714   4.543   8.702  0.8345 -0.4478  0.0712
 3747TIP3   OH232799   6.511   4.650   8.690 -0.4652 -0.4546  0.2073
 3747TIP3    H132800   6.438   4.637   8.629  0.0310 -0.1492 -0.4645
 3747TIP3    H232801   6.549   4.562   8.701  0.1030 -0.3484 -0.7804
 3748TIP3   OH232802   1.175   5.544   2.275 -0.6547  0.1988 -0.8297
 3748TIP3    H132803   1.188   5.450   2.266 -0.8997 -0.1918  1.9179
 3748TIP3    H232804   1.202   5.563   2.365 -1.3002  2.6159 -1.0885
 3749TIP3   OH232805   1.270   3.119   8.403  0.6068 -0.0772 -0.5513
 3749TIP3    H132806   1.184   3.159   8.392  1.0514  1.1079  0.0747
 3749TIP3    H232807   1.258   3.053   8.471  0.0920 -0.2959 -0.8455
 3750TIP3   OH232808   2.804   2.724   1.016 -0.1881 -0.0123  0.4611
 3750TIP3    H132809   2.801   2.803   1.070  0.2412  0.6599 -0.4783
 3750TIP3    H232810   2.719   2.683   1.030 -1.8161  2.3570 -1.5768
 3751TIP3   OH232811   5.701   3.969   8.729 -0.7108  0.3445 -0.3631
 3751TIP3    H132812   5.708   3.950   8.823  0.8911 -0.6463 -0.6465
 3751TIP3    H232813   5.735   3.891   8.686 -0.5026  1.1614 -1.7561
 3752TIP3   OH232814   5.801   1.953   0.944  0.1064  0.6700  0.0052
 3752TIP3    H132815   5.853   1.896   0.888 -2.9247 -2.7010  0.2772
 3752TIP3    H232816   5.819   1.922   1.033 -3.5916 -2.1087  0.0216
 3753TIP3   OH232817   5.843   3.712   8.681 -0.1128 -0.1200  0.0798
 3753TIP3    H132818   5.890   3.767   8.743 -0.0714  1.3917 -1.2364
 3753TIP3    H232819   5.854   3.623   8.714  0.6867  0.5584  1.7035
 3754TIP3   OH232820   1.913   0.468   1.823 -0.0351 -0.4190 -0.2940
 3754TIP3    H132821   1.847   0.411   1.785  1.1318 -2.1252  0.1178
 3754TIP3    H232822   1.873   0.501   1.903 -0.6283 -0.8948 -0.3852
 3755TIP3   OH232823   6.532   1.840   0.799 -0.0557  0.2031 -0.2392
 3755TIP3    H132824   6.445   1.817   0.767 -0.0119 -0.3703  0.0342
 3755TIP3    H232825   6.521   1.853   0.893 -0.0304  1.1060 -0.3494
 3756TIP3   OH232826   3.587   1.458   6.474  0.6417 -1.0249 -0.0962
 3756TIP3    H132827   3.596   1.401   6.550  0.6962 -1.1696 -0.2132
 3756TIP3    H232828   3.674   1.495   6.461 -0.1600  2.3652  2.5676
 3757TIP3   OH232829   6.760   3.103   2.194  0.5479 -0.2573 -0.4943
 3757TIP3    H132830   6.705   3.048   2.138  0.0030  0.4142 -0.6286
 3757TIP3    H232831   6.791   3.044   2.263 -1.1514 -0.4228  0.1647
 3758TIP3   OH232832   6.607   2.227   0.082 -0.2164  0.4073  0.4085
 3758TIP3    H132833   6.548   2.264   0.148 -0.6834  0.1776  0.1221
 3758TIP3    H232834   6.553   2.164   0.034  1.0737 -2.2453  2.2123
 3759TIP3   OH232835   4.819   3.141   7.747 -0.6536  0.0099  0.0283
 3759TIP3    H132836   4.831   3.092   7.666  0.3896 -1.7349  1.1739
 3759TIP3    H232837   4.759   3.212   7.724 -1.0889 -0.9703 -2.0371
 3760TIP3   OH232838   4.853   6.301   8.411 -0.0610  0.4137  0.1089
 3760TIP3    H132839   4.818   6.361   8.477  1.1755 -0.4055  1.5641
 3760TIP3    H232840   4.908   6.356   8.356  1.1901  0.6445  1.5274
 3761TIP3   OH232841   5.196   0.587   7.299  0.1402  0.1493  0.3164
 3761TIP3    H132842   5.155   0.649   7.238 -0.0316  0.1381  0.4210
 3761TIP3    H232843   5.125   0.530   7.327  0.4530 -0.6390 -0.4298
 3762TIP3   OH232844   6.566   4.680   6.764 -0.3437 -0.2992  0.3697
 3762TIP3    H132845   6.593   4.604   6.713 -1.8796 -0.8780  0.3762
 3762TIP3    H232846   6.595   4.755   6.713  0.0707 -0.8732 -0.2581
 3763TIP3   OH232847   0.373   0.086   1.645  0.1749 -0.4858 -0.0964
 3763TIP3    H132848   0.357   0.159   1.585 -0.6383  0.4565  1.2252
 3763TIP3    H232849   0.463   0.100   1.675 -0.8450  1.7361  2.3527
 3764TIP3   OH232850   3.016   2.628   8.427 -0.2942 -0.0265 -0.1682
 3764TIP3    H132851   2.955   2.677   8.372  0.3861 -0.8471 -1.7041
 3764TIP3    H232852   2.971   2.546   8.446  0.2428 -0.5775 -1.1940
 3765TIP3   OH232853   6.727   5.474   8.653  0.2529  0.1398 -0.3929
 3765TIP3    H132854   6.692   5.480   8.742 -1.3665  1.4519 -1.0566
 3765TIP3    H232855   6.818   5.449   8.665 -0.4261 -1.7343  1.5249
 3766TIP3   OH232856   4.869   3.919   6.935  0.4887 -0.1706  0.3590
 3766TIP3    H132857   4.842   3.914   6.844 -0.6800  2.1632  0.4893
 3766TIP3    H232858   4.816   3.854   6.981  0.0294 -0.3521 -0.4238
 3767TIP3   OH232859   4.467   6.397   7.243  0.0901  0.1418 -0.5700
 3767TIP3    H132860   4.401   6.396   7.174 -0.7826 -0.6130  0.2421
 3767TIP3    H232861   4.548   6.371   7.199 -0.4387 -0.2617 -1.3319
 3768TIP3   OH232862   4.497   4.502   8.410  0.2119  0.0835 -0.3335
 3768TIP3    H132863   4.517   4.595   8.421 -0.5267  0.0056  2.4157
 3768TIP3    H232864   4.413   4.490   8.455  1.4746 -2.3124  1.6136
 3769TIP3   OH232865   4.090   3.243   7.185 -0.3028 -0.3916  0.2137
 3769TIP3    H132866   4.049   3.290   7.112 -0.6630  0.1973  0.7845
 3769TIP3    H232867   4.154   3.186   7.144 -1.4428 -1.0690 -0.6935
 3770TIP3   OH232868   0.528   6.819   6.340  0.0699  0.5571 -0.2668
 3770TIP3    H132869   0.532   6.725   6.324 -0.8570  0.9424 -3.5092
 3770TIP3    H232870   0.449   6.831   6.392  0.0820 -0.4162 -0.0016
 3771TIP3   OH232871   4.784   1.627   6.643  0.0794 -0.1695  0.2535
 3771TIP3    H132872   4.752   1.692   6.580 -1.2868 -2.9733 -2.1595
 3771TIP3    H232873   4.876   1.615   6.619  0.2578  0.6255  0.5115
 3772TIP3   OH232874   5.502   1.460   1.606 -0.3592 -0.8111  0.2171
 3772TIP3    H132875   5.434   1.485   1.668  0.6584  0.3882  0.8780
 3772TIP3    H232876   5.527   1.541   1.562  0.0729 -1.3716 -0.6098
 3773TIP3   OH232877   1.830   2.632   1.217  0.6519 -0.1304 -0.5278
 3773TIP3    H132878   1.765   2.563   1.234 -1.4483  1.6491 -0.8790
 3773TIP3    H232879   1.904   2.586   1.178 -1.3654 -2.0229 -2.4310
 3774TIP3   OH232880   2.101   4.385   7.211 -0.1333  0.5630  0.0352
 3774TIP3    H132881   2.155   4.456   7.177  0.0634  0.9066  1.0297
 3774TIP3    H232882   2.087   4.327   7.136 -0.0951  1.5217 -0.7255
 3775TIP3   OH232883   5.333   6.422   0.516  0.0252  0.0111 -0.0855
 3775TIP3    H132884   5.398   6.470   0.567 -2.0354  1.7123  1.1045
 3775TIP3    H232885   5.335   6.464   0.430 -0.9561  1.5431  0.6022
 3776TIP3   OH232886   1.090   3.666   7.790  0.3333 -0.0059 -0.0695
 3776TIP3    H132887   1.021   3.717   7.833  0.8246  0.5710  0.0477
 3776TIP3    H232888   1.151   3.732   7.757  0.3855 -0.4742 -0.9384
 3777TIP3   OH232889   6.736   4.249   7.625  0.6456 -0.7828  0.2906
 3777TIP3    H132890   6.778   4.166   7.648 -1.5737 -1.7665  1.1457
 3777TIP3    H232891   6.643   4.234   7.643 -0.1720  1.0974 -1.8874
 3778TIP3   OH232892   5.720   4.730   0.677  0.6761 -0.1143  0.1247
 3778TIP3    H132893   5.809   4.742   0.708  1.5119 -0.1236 -2.0463
 3778TIP3    H232894   5.720   4.644   0.635 -0.6693 -0.5840  1.0241
 3779TIP3   OH232895   1.167   3.735   1.669 -0.7520  0.3767  0.6209
 3779TIP3    H132896   1.190   3.669   1.604 -0.5911  0.1450  0.9118
 3779TIP3    H232897   1.138   3.684   1.746 -1.2481  0.6486  0.6196
 3780TIP3   OH232898   5.576   1.731   6.729 -0.1321  0.5344  0.0756
 3780TIP3    H132899   5.657   1.684   6.715 -0.5923 -0.0845 -0.5912
 3780TIP3    H232900   5.550   1.760   6.642 -1.0311  0.0368  0.1666
 3781TIP3   OH232901   4.554   0.351   6.969 -0.2522 -0.8090 -0.2454
 3781TIP3    H132902   4.541   0.295   6.892 -1.9677  0.2134 -0.7514
 3781TIP3    H232903   4.576   0.437   6.933  0.3390 -0.6584  0.4562
 3782TIP3   OH232904   2.616   5.922   6.791  0.4228 -0.3888 -0.7292
 3782TIP3    H132905   2.523   5.904   6.778 -0.0113  1.9572 -1.2470
 3782TIP3    H232906   2.623   6.017   6.791  2.7978 -0.4935 -0.4001
 3783TIP3   OH232907   2.067   2.710   6.781 -0.3944 -0.5578 -0.0980
 3783TIP3    H132908   2.151   2.713   6.827 -0.3640  0.4635 -0.2010
 3783TIP3    H232909   2.054   2.618   6.761  1.5753 -0.5536 -1.6821
 3784TIP3   OH232910   5.813   6.367   1.534 -0.3358  0.1122 -0.6957
 3784TIP3    H132911   5.872   6.333   1.602 -1.4947 -0.8898 -0.1403
 3784TIP3    H232912   5.772   6.444   1.574 -0.0282  0.3138 -0.7659
 3785TIP3   OH232913   6.023   0.249   7.755 -0.1969  0.6764 -0.3735
 3785TIP3    H132914   5.945   0.303   7.757 -2.1936 -1.9912  0.9863
 3785TIP3    H232915   6.013   0.193   7.678 -0.7820 -1.0995  0.9202
 3786TIP3   OH232916   0.764   2.742   8.140  0.0819  0.3291 -0.3517
 3786TIP3    H132917   0.827   2.800   8.183 -1.5885  1.4853  0.6798
 3786TIP3    H232918   0.807   2.657   8.136  1.6819  1.0737  0.3150
 3787TIP3   OH232919   4.003   2.709   0.606  0.0343  0.0225 -0.4499
 3787TIP3    H132920   3.926   2.652   0.599  1.5338 -2.3182  1.0573
 3787TIP3    H232921   4.053   2.674   0.679  2.1585  1.9953 -0.8451
 3788TIP3   OH232922   0.452   1.758   1.643  0.1654 -0.2259  0.3981
 3788TIP3    H132923   0.369   1.712   1.658 -0.8177  1.0133 -0.9472
 3788TIP3    H232924   0.439   1.804   1.561  1.6183  1.3208  0.9780
 3789TIP3   OH232925   4.986   0.083   0.409  0.6347  0.5704 -0.1170
 3789TIP3    H132926   5.081   0.070   0.409  0.6100  0.3796 -0.7120
 3789TIP3    H232927   4.951   0.001   0.443  0.7161  0.9861  1.0368
 3790TIP3   OH232928   5.344   6.345   6.650  0.3252 -0.2832  0.1941
 3790TIP3    H132929   5.298   6.280   6.596  0.6289 -0.1162 -0.2671
 3790TIP3    H232930   5.410   6.293   6.697  0.3203 -0.3700  0.1077
 3791TIP3   OH232931   0.481   4.115   1.036 -0.3820  0.1132  0.0653
 3791TIP3    H132932   0.530   4.051   1.088 -0.7672 -0.8824 -0.7649
 3791TIP3    H232933   0.472   4.191   1.094  0.5329 -0.3805  0.8895
 3792TIP3   OH232934   4.066   4.459   0.743  0.3920  0.0560 -0.3308
 3792TIP3    H132935   4.097   4.515   0.672  2.1864 -0.1962  0.2008
 3792TIP3    H232936   4.049   4.375   0.702 -3.2947  1.1280 -1.3339
 3793TIP3   OH232937   5.294   1.455   1.415 -0.5118 -0.1415  0.7186
 3793TIP3    H132938   5.373   1.505   1.392  0.6689 -1.2824  2.1186
 3793TIP3    H232939   5.256   1.503   1.489 -1.1137  0.3518  0.1076
 3794TIP3   OH232940   0.517   5.832   6.209 -0.5290 -0.0068 -0.0969
 3794TIP3    H132941   0.564   5.897   6.261  0.6632  0.1209 -1.2689
 3794TIP3    H232942   0.447   5.882   6.166 -0.3328  0.2698 -0.0969
 3795TIP3   OH232943   2.631   1.080   1.678 -0.7188  0.0809 -0.2387
 3795TIP3    H132944   2.711   1.072   1.731 -0.0250 -0.4654 -1.3188
 3795TIP3    H232945   2.590   1.161   1.708  0.5103  0.6406  0.0143
 3796TIP3   OH232946   3.443   1.750   5.974 -0.0917 -0.2944  0.0865
 3796TIP3    H132947   3.348   1.759   5.974 -0.0461  0.5621  1.8067
 3796TIP3    H232948   3.476   1.840   5.972  0.6477 -0.5283  1.1505
 3797TIP3   OH232949   2.564   3.645   0.438  0.1334  0.0273  0.5595
 3797TIP3    H132950   2.650   3.684   0.423  0.3192 -0.3231  0.6995
 3797TIP3    H232951   2.566   3.616   0.530 -0.4248  0.7386  0.8059
 3798TIP3   OH232952   5.780   6.289   6.979  0.3031 -0.7671 -0.0599
 3798TIP3    H132953   5.811   6.378   6.994  2.2238 -1.0497 -1.8562
 3798TIP3    H232954   5.798   6.243   7.060  0.3658  0.2043  0.4887
 3799TIP3   OH232955   5.228   1.124   7.591  0.0786 -0.3040  0.5849
 3799TIP3    H132956   5.306   1.174   7.615  0.7665 -1.0338 -0.0527
 3799TIP3    H232957   5.221   1.057   7.659 -0.5247  0.3205  1.1404
 3800TIP3   OH232958   1.264   0.465   0.536 -0.1790 -0.5479  0.2693
 3800TIP3    H132959   1.196   0.532   0.532  0.5913  0.2206 -0.1113
 3800TIP3    H232960   1.333   0.497   0.478  0.3214 -1.5370  0.2991
 3801TIP3   OH232961   4.334   5.108   1.557 -0.2725 -0.3034 -0.2469
 3801TIP3    H132962   4.246   5.070   1.571  0.2175 -2.0361 -1.5065
 3801TIP3    H232963   4.342   5.114   1.462  1.0859 -0.4382 -0.1491
 3802TIP3   OH232964   0.208   0.444   7.130  0.3488 -0.2742  0.4149
 3802TIP3    H132965   0.142   0.423   7.195  0.8155 -1.8797  0.4080
 3802TIP3    H232966   0.260   0.515   7.169 -1.6158  1.3731  0.2089
 3803TIP3   OH232967   2.580   4.210   8.642  0.0976 -0.5725  0.3461
 3803TIP3    H132968   2.629   4.132   8.617  0.1202 -0.7013  0.7877
 3803TIP3    H232969   2.628   4.246   8.716  2.0355  1.7401 -1.8168
 3804TIP3   OH232970   2.375   5.049   7.347  0.6928  0.1632  0.5668
 3804TIP3    H132971   2.302   5.079   7.294  1.2515 -2.3039 -1.8189
 3804TIP3    H232972   2.338   4.981   7.403  0.9394 -0.3276  0.1405
 3805TIP3   OH232973   1.360   1.819   6.121 -0.3453  0.0855  0.0190
 3805TIP3    H132974   1.406   1.743   6.085  0.2499  0.1674  0.5851
 3805TIP3    H232975   1.268   1.803   6.101 -0.0382  0.2423 -1.7547
 3806TIP3   OH232976   0.327   5.386   7.297 -0.1785 -0.1713  0.1209
 3806TIP3    H132977   0.285   5.427   7.221 -0.7875  0.0569  0.5682
 3806TIP3    H232978   0.306   5.445   7.370  2.2823  0.8088  0.1123
 3807TIP3   OH232979   5.514   2.131   1.185  0.6005  0.3096 -0.0731
 3807TIP3    H132980   5.548   2.203   1.132  0.1360  0.4796 -0.1423
 3807TIP3    H232981   5.445   2.092   1.131  0.8451 -0.1843 -0.0349
 3808TIP3   OH232982   6.615   3.611   8.107 -0.2469 -0.2643  0.8346
 3808TIP3    H132983   6.589   3.658   8.186  2.3324  2.7154  0.1021
 3808TIP3    H232984   6.705   3.584   8.124  1.0009  1.9530 -1.5478
 3809TIP3   OH232985   2.705   2.297   8.128  0.8142  0.0762  0.1110
 3809TIP3    H132986   2.735   2.293   8.037 -1.1790 -0.6018 -0.5743
 3809TIP3    H232987   2.762   2.361   8.169  0.3782  2.1195 -2.2150
 3810TIP3   OH232988   4.809   1.675   2.021  0.3180 -0.0997 -0.3869
 3810TIP3    H132989   4.831   1.674   1.928 -1.8090 -0.6001 -0.9370
 3810TIP3    H232990   4.811   1.767   2.045  0.2663  0.0906 -1.0836
 3811TIP3   OH232991   3.405   0.442   0.448  0.9427 -0.1559  0.4749
 3811TIP3    H132992   3.464   0.404   0.513  0.9954  0.7371  0.9584
 3811TIP3    H232993   3.329   0.471   0.499 -0.4988 -2.3426 -0.2598
 3812TIP3   OH232994   0.952   0.549   7.533  0.1299 -0.2339 -0.1896
 3812TIP3    H132995   0.957   0.466   7.486 -1.1079 -0.0449 -0.7017
 3812TIP3    H232996   1.015   0.606   7.489  1.2685 -1.0022  0.4136
 3813TIP3   OH232997   3.505   3.089   6.503 -0.7483 -0.3730  0.0290
 3813TIP3    H132998   3.520   3.008   6.453  0.6673 -0.9837  1.3691
 3813TIP3    H232999   3.411   3.103   6.496 -0.9181 -1.7136 -0.8870
 3814TIP3   OH233000   5.625   0.753   0.850 -0.0988  0.4080  0.7512
 3814TIP3    H133001   5.681   0.678   0.829 -0.7830  0.2580 -0.6701
 3814TIP3    H233002   5.542   0.714   0.879 -0.6573  0.5685 -0.5448
 3815TIP3   OH233003   1.879   2.886   8.470 -0.1159  0.0914 -0.4884
 3815TIP3    H133004   1.833   2.859   8.390  1.6069 -0.6042 -1.3011
 3815TIP3    H233005   1.830   2.962   8.501 -0.5425  0.7158 -2.5088
 3816TIP3   OH233006   1.866   5.643   0.675  0.2843 -0.4428  0.4105
 3816TIP3    H133007   1.888   5.697   0.599 -2.2011  1.6262  1.0169
 3816TIP3    H233008   1.818   5.569   0.638  0.2508 -0.1566 -0.1403
 3817TIP3   OH233009   3.621   2.975   0.884  0.0984  1.1155  0.4131
 3817TIP3    H133010   3.649   3.042   0.822  1.2006 -0.0769 -0.4384
 3817TIP3    H233011   3.689   2.975   0.952  0.0215  0.9733  0.4907
 3818TIP3   OH233012   0.434   5.773   7.511  0.1750 -0.4917  0.3116
 3818TIP3    H133013   0.485   5.735   7.439 -0.1170  1.0389 -0.7507
 3818TIP3    H233014   0.355   5.720   7.515 -0.2016 -0.0892 -1.1003
 3819TIP3   OH233015   3.644   3.065   2.457  0.0075  0.1703 -0.4014
 3819TIP3    H133016   3.615   2.991   2.510  1.2658  0.4685  0.7321
 3819TIP3    H233017   3.640   3.033   2.367 -0.1285 -1.0349  0.0229
 3820TIP3   OH233018   6.393   5.945   2.630  0.3478 -0.0687 -0.2425
 3820TIP3    H133019   6.326   5.890   2.670  1.4635  0.1862  2.1573
 3820TIP3    H233020   6.383   6.030   2.674  0.8448  0.6203 -1.4216
 3821TIP3   OH233021   0.682   0.207   6.387 -0.6390  0.1272  0.3437
 3821TIP3    H133022   0.715   0.283   6.340 -0.0339 -0.2190  0.2050
 3821TIP3    H233023   0.634   0.156   6.322 -0.3422 -0.0279  0.2450
 3822TIP3   OH233024   6.408   0.296   7.768 -0.2319 -0.6732 -0.4387
 3822TIP3    H133025   6.464   0.363   7.808  0.5895 -1.5697 -0.0690
 3822TIP3    H233026   6.351   0.268   7.840 -0.6537 -0.3067 -0.6229
 3823TIP3   OH233027   0.907   5.295   2.246 -0.0182  0.1201  0.6418
 3823TIP3    H133028   0.867   5.211   2.223  0.1478  0.4082 -0.7847
 3823TIP3    H233029   0.832   5.354   2.259 -0.1838 -0.4518  2.6999
 3824TIP3   OH233030   2.178   5.486   8.705  0.2922 -0.3650  0.4508
 3824TIP3    H133031   2.132   5.554   8.655  0.8100 -0.4754 -0.1946
 3824TIP3    H233032   2.264   5.480   8.663  0.2645 -1.3943  0.5241
 3825TIP3   OH233033   4.357   6.300   0.058  0.0159  0.2030 -0.0121
 3825TIP3    H133034   4.431   6.294  -0.002 -0.8500 -0.0189 -1.0795
 3825TIP3    H233035   4.329   6.210   0.071 -1.1062  0.3952 -0.9598
 3826TIP3   OH233036   4.580   5.112   8.162 -0.3302 -0.2522 -0.2110
 3826TIP3    H133037   4.584   5.043   8.228  1.1409 -0.4298 -0.4638
 3826TIP3    H233038   4.658   5.099   8.108 -0.7933  0.7223 -1.1549
 3827TIP3   OH233039   0.429   4.126   8.695  0.0477 -0.3928  0.2531
 3827TIP3    H133040   0.407   4.218   8.704  0.4753 -0.2279 -0.3416
 3827TIP3    H233041   0.512   4.116   8.743 -0.3909 -0.6365  0.9758
 3828TIP3   OH233042   2.606   4.657   2.106  0.0121  0.1124 -0.3164
 3828TIP3    H133043   2.679   4.671   2.166 -1.1484 -0.0522  1.1841
 3828TIP3    H233044   2.587   4.563   2.112 -0.6543  0.2441 -0.3090
 3829TIP3   OH233045   6.665   1.565   7.000  0.1469  0.4508 -0.0967
 3829TIP3    H133046   6.641   1.476   7.025 -1.2263  0.3390 -1.6445
 3829TIP3    H233047   6.706   1.602   7.078 -1.2738 -0.8044  1.2937
 3830TIP3   OH233048   3.933   2.481   6.271  0.4997  0.3841 -0.2876
 3830TIP3    H133049   3.913   2.410   6.210  1.0812 -0.0934  0.0630
 3830TIP3    H233050   3.850   2.502   6.312  0.5171 -0.9016  0.4492
 3831TIP3   OH233051   0.463   4.037   7.011  0.1421 -0.8227 -0.5813
 3831TIP3    H133052   0.475   4.074   6.924 -0.7429 -0.6013 -0.6166
 3831TIP3    H233053   0.490   3.946   7.002 -2.8478 -1.6814 -1.8999
 3832TIP3   OH233054   1.707   2.324   8.025 -0.1482  0.0982 -0.5295
 3832TIP3    H133055   1.709   2.233   8.056  1.6371  0.6791  1.3611
 3832TIP3    H233056   1.711   2.376   8.106 -1.0099  1.8549 -1.5796
 3833TIP3   OH233057   5.718   5.110   1.860  0.1772  0.3588  0.0410
 3833TIP3    H133058   5.756   5.055   1.928  0.1173  1.5420  1.0666
 3833TIP3    H233059   5.660   5.169   1.907  0.4677  1.4917 -0.9826
 3834TIP3   OH233060   5.137   2.249   1.180  0.6364 -0.2263 -0.2749
 3834TIP3    H133061   5.086   2.314   1.227  0.5839 -1.1708  1.0139
 3834TIP3    H233062   5.159   2.292   1.097 -0.2882  1.0269  0.0962
 3835TIP3   OH233063   2.091   4.689   1.238 -0.0657  0.6668  0.0875
 3835TIP3    H133064   2.176   4.653   1.263 -0.9539 -0.9176  1.0081
 3835TIP3    H233065   2.111   4.774   1.199  2.0885 -0.3649 -1.2715
 3836TIP3   OH233066   0.456   0.764   1.868  0.3491  0.3227 -0.7258
 3836TIP3    H133067   0.516   0.696   1.838 -0.0165 -0.3771  0.0597
 3836TIP3    H233068   0.490   0.789   1.954  1.0896  1.9194 -1.4356
 3837TIP3   OH233069   5.338   3.560   0.616  0.3613  0.4057  0.3360
 3837TIP3    H133070   5.308   3.544   0.527 -0.1041  0.5285  0.4659
 3837TIP3    H233071   5.372   3.476   0.646 -1.3675 -0.1720  0.7556
 3838TIP3   OH233072   3.278   2.417   1.100 -0.4892  0.0886  0.6053
 3838TIP3    H133073   3.350   2.476   1.077 -0.9614  0.1008 -0.9897
 3838TIP3    H233074   3.289   2.342   1.041 -2.4958  0.6674 -0.5864
 3839TIP3   OH233075   0.300   3.271   7.786  0.3134 -0.2588  0.4613
 3839TIP3    H133076   0.251   3.210   7.731  1.1944 -1.1534  0.6414
 3839TIP3    H233077   0.271   3.251   7.875  1.3235 -1.1285  0.6164
 3840TIP3   OH233078   3.084   4.582   8.122 -0.6452 -0.6822  0.0854
 3840TIP3    H133079   3.013   4.646   8.122  1.2287  1.5298 -0.0972
 3840TIP3    H233080   3.158   4.629   8.083  1.3602 -2.3479  1.6924
 3841TIP3   OH233081   2.541   0.927   1.203 -0.1369  0.3999 -0.3799
 3841TIP3    H133082   2.554   0.927   1.298 -0.9254 -0.2196 -0.2615
 3841TIP3    H233083   2.527   0.835   1.180 -3.1161  0.8347 -0.6128
 3842TIP3   OH233084   2.254   0.827   0.794  0.5775  0.3517 -0.6079
 3842TIP3    H133085   2.224   0.849   0.883  3.1261 -1.8937  0.9658
 3842TIP3    H233086   2.279   0.912   0.756 -0.4479  1.3605  0.8382
 3843TIP3   OH233087   3.728   6.217   7.213  0.1324  0.3053 -0.0143
 3843TIP3    H133088   3.775   6.159   7.153 -0.3789  0.8086 -0.9182
 3843TIP3    H233089   3.797   6.258   7.265  0.8038  1.6759 -1.8948
 3844TIP3   OH233090   3.672   6.328   2.178 -0.2171 -0.0235  0.9235
 3844TIP3    H133091   3.756   6.374   2.187  0.8417 -1.9095  1.0906
 3844TIP3    H233092   3.629   6.372   2.105  0.5643  1.4609  1.2986
 3845TIP3   OH233093   3.213   5.606   8.305  0.0934 -0.5959  0.6959
 3845TIP3    H133094   3.285   5.661   8.274 -0.3793 -0.2810  0.1368
 3845TIP3    H233095   3.204   5.539   8.238 -0.6087 -0.2061  0.3961
 3846TIP3   OH233096   1.083   4.394   2.424  0.5831 -0.2007  0.5796
 3846TIP3    H133097   1.015   4.347   2.473  0.6659  0.2294  1.1128
 3846TIP3    H233098   1.097   4.474   2.474  2.0286 -0.6233  0.8798
 3847TIP3   OH233099   0.895   4.219   1.181  0.0676 -0.0900 -0.7631
 3847TIP3    H133100   0.915   4.138   1.134 -0.5204 -0.6298 -0.0933
 3847TIP3    H233101   0.828   4.262   1.127  0.7047  0.1763 -1.3522
 3848TIP3   OH233102   1.759   4.169   6.756 -0.5008  0.0731  0.6075
 3848TIP3    H133103   1.734   4.091   6.707  0.1264 -0.7350  1.5258
 3848TIP3    H233104   1.693   4.177   6.825 -2.1420  1.9603 -1.0712
 3849TIP3   OH233105   4.383   0.331   0.280 -0.5198  0.1881  0.5014
 3849TIP3    H133106   4.362   0.309   0.190  0.5105  2.1080 -0.2617
 3849TIP3    H233107   4.465   0.284   0.298 -1.1318 -0.8192  0.7311
 3850TIP3   OH233108   4.646   1.651   2.223 -0.9986  0.1410  0.1173
 3850TIP3    H133109   4.687   1.639   2.137 -2.9259  1.5740 -1.0931
 3850TIP3    H233110   4.557   1.679   2.203 -1.8285 -0.4556  2.6209
 3851TIP3   OH233111   6.068   0.618   1.718 -0.2022 -0.1558  0.6705
 3851TIP3    H133112   6.094   0.669   1.641 -2.7214 -0.8034 -0.7325
 3851TIP3    H233113   6.099   0.668   1.793  2.9217  0.1917 -0.7177
 3852TIP3   OH233114   1.990   5.624   0.195 -0.0145  0.0189 -0.3737
 3852TIP3    H133115   2.055   5.668   0.140  0.6654  0.6481  0.8906
 3852TIP3    H233116   2.000   5.531   0.174  0.7499  0.1833 -0.7802
 3853TIP3   OH233117   3.037   3.625   0.859 -0.0067  0.1898  0.7473
 3853TIP3    H133118   3.026   3.645   0.766 -0.7848 -3.2597 -0.0408
 3853TIP3    H233119   2.949   3.601   0.888 -0.1877  3.0213  3.0044
 3854TIP3   OH233120   4.615   2.613   0.205 -0.1102 -0.4767  0.4306
 3854TIP3    H133121   4.644   2.583   0.119  0.1335  1.3938 -0.1886
 3854TIP3    H233122   4.537   2.561   0.224 -1.5861  0.6501 -2.0321
 3855TIP3   OH233123   3.842   4.950   8.538 -0.3664 -0.2823 -0.1268
 3855TIP3    H133124   3.917   4.964   8.597 -1.1867 -1.4503  1.2715
 3855TIP3    H233125   3.802   4.870   8.570 -2.6734  0.7164 -0.3550
 3856TIP3   OH233126   0.249   3.179   8.721  0.3931 -0.2445 -0.5741
 3856TIP3    H133127   0.236   3.084   8.712  0.2187 -0.3291  0.4508
 3856TIP3    H233128   0.189   3.218   8.659  1.0410 -0.8260 -1.5880
 3857TIP3   OH233129   5.203   6.668   8.396 -0.3847 -0.3874 -0.2969
 3857TIP3    H133130   5.249   6.696   8.317  0.5260 -1.1439 -0.0533
 3857TIP3    H233131   5.273   6.645   8.458 -1.0679  0.4904  0.8458
 3858TIP3   OH233132   3.726   5.285   6.760  0.2009 -0.1392  0.0310
 3858TIP3    H133133   3.646   5.252   6.802  1.3697 -2.8685  0.2775
 3858TIP3    H233134   3.797   5.238   6.803  1.9329  1.6954 -0.6724
 3859TIP3   OH233135   2.325   5.367   6.119 -0.0564 -0.2806 -0.0725
 3859TIP3    H133136   2.344   5.274   6.131  3.3907  0.4194  0.9076
 3859TIP3    H233137   2.400   5.400   6.070 -2.5123  1.5642 -2.8581
 3860TIP3   OH233138   1.437   5.151   7.503  0.1270 -0.6843  0.6468
 3860TIP3    H133139   1.412   5.217   7.437 -1.3441 -1.0176  0.8497
 3860TIP3    H233140   1.453   5.072   7.452  0.5313 -0.5447  0.5476
 3861TIP3   OH233141   4.221   6.488   7.713  0.6757 -0.0186 -0.1779
 3861TIP3    H133142   4.299   6.544   7.722 -0.1095  1.0787 -0.0561
 3861TIP3    H233143   4.147   6.548   7.723 -0.2017 -1.2383  0.8739
 3862TIP3   OH233144   5.458   1.689   8.736  0.4049 -0.3482  0.0358
 3862TIP3    H133145   5.456   1.598   8.767  1.5824  0.0582  1.4216
 3862TIP3    H233146   5.407   1.738   8.800  2.4520  0.4359  1.1405
 3863TIP3   OH233147   1.345   5.758   7.990 -0.0504  0.3719 -0.2631
 3863TIP3    H133148   1.254   5.739   8.010  0.1390 -0.2404  0.0312
 3863TIP3    H233149   1.380   5.798   8.071  0.1962 -0.2921 -0.0378
 3864TIP3   OH233150   4.417   6.679   7.725  0.1208 -0.4571  0.6519
 3864TIP3    H133151   4.501   6.681   7.771  1.5046 -1.9963 -1.6172
 3864TIP3    H233152   4.392   6.771   7.717  2.3633  0.1565  0.0712
 3865TIP3   OH233153   3.451   1.070   8.312  0.3072 -0.2420 -0.1399
 3865TIP3    H133154   3.479   1.095   8.224 -0.5081  0.8438 -0.1127
 3865TIP3    H233155   3.526   1.091   8.368  0.4801 -0.0436 -0.4421
 3866TIP3   OH233156   0.027   2.061   7.262  0.1310 -0.5388  0.3879
 3866TIP3    H133157  -0.024   2.128   7.215  0.1553 -0.7752  0.0239
 3866TIP3    H233158   0.014   2.082   7.354  1.6075  1.0940  0.2731
 3867TIP3   OH233159   2.922   1.527   6.526  0.1163 -0.2153 -0.3823
 3867TIP3    H133160   2.924   1.441   6.484 -0.2658 -0.1336 -0.5698
 3867TIP3    H233161   2.830   1.553   6.524  0.3838  0.7605 -1.4726
 3868TIP3   OH233162   5.229   5.216   1.660 -0.6456  0.3649  0.3763
 3868TIP3    H133163   5.254   5.307   1.680  1.2605 -0.0725  0.1984
 3868TIP3    H233164   5.305   5.181   1.613 -1.6849 -1.0941 -0.2763
 3869TIP3   OH233165   5.510   2.046   7.298  0.2092  0.2578  0.6280
 3869TIP3    H133166   5.417   2.025   7.304  0.1086  0.0418 -1.1498
 3869TIP3    H233167   5.520   2.125   7.351 -0.8204 -0.1368  1.4551
 3870TIP3   OH233168   2.618   6.109   7.460  0.1244 -0.0754  0.4258
 3870TIP3    H133169   2.623   6.176   7.391  1.4904 -0.4084  0.1820
 3870TIP3    H233170   2.656   6.031   7.420 -1.6834 -1.1067  0.6149
 3871TIP3   OH233171   6.498   0.195   1.647  0.1433  0.2221 -0.0586
 3871TIP3    H133172   6.524   0.103   1.645 -1.1802 -0.1962  0.6236
 3871TIP3    H233173   6.572   0.242   1.609  1.1965 -1.0432  0.3455
 3872TIP3   OH233174   1.579   5.509   1.427  0.1766  0.0842 -0.3987
 3872TIP3    H133175   1.637   5.487   1.353  0.9441  1.1286 -0.1381
 3872TIP3    H233176   1.629   5.483   1.504  0.0413  0.4243 -0.1957
 3873TIP3   OH233177   2.919   4.883   7.557 -0.0604  0.1827 -0.0799
 3873TIP3    H133178   2.934   4.940   7.482  0.4831  0.8228  0.4995
 3873TIP3    H233179   2.881   4.940   7.623 -0.6615 -0.4065  0.0881
 3874TIP3   OH233180   2.844   1.809   8.065 -0.4215  0.6085  0.4266
 3874TIP3    H133181   2.923   1.854   8.036 -0.9813  1.7422  0.6030
 3874TIP3    H233182   2.875   1.743   8.127  0.7613 -1.4904 -2.1602
 3875TIP3   OH233183   6.160   0.949   7.860 -0.0417 -0.3173  0.2015
 3875TIP3    H133184   6.139   0.859   7.836 -0.0903 -0.3497  0.3603
 3875TIP3    H233185   6.255   0.950   7.872 -0.1948 -0.7089  1.6390
 3876TIP3   OH233186   5.673   1.596   0.255  0.3762  0.1198  0.3616
 3876TIP3    H133187   5.762   1.617   0.226  0.0802 -0.3345 -0.9731
 3876TIP3    H233188   5.677   1.502   0.276 -0.2441 -0.4465 -1.7675
 3877TIP3   OH233189   6.403   5.861   2.002  0.3299 -0.0283 -0.0143
 3877TIP3    H133190   6.320   5.832   2.040  0.9571  0.6880  2.0333
 3877TIP3    H233191   6.467   5.847   2.072  1.9061 -0.2948 -1.4447
 3878TIP3   OH233192   5.100   3.301   2.159 -0.1937  0.4622 -0.2108
 3878TIP3    H133193   5.131   3.279   2.247 -1.0012  2.3163  0.6122
 3878TIP3    H233194   5.126   3.393   2.147 -1.0331  0.5626 -1.4719
 3879TIP3   OH233195   1.240   6.802   8.013  0.1068 -0.0664  0.4384
 3879TIP3    H133196   1.231   6.877   8.071 -1.3366 -0.1595  0.3757
 3879TIP3    H233197   1.334   6.787   8.006  0.4623  2.2020 -0.1735
 3880TIP3   OH233198   2.910   6.061   7.149  0.1984 -0.2800 -0.1239
 3880TIP3    H133199   2.960   5.991   7.191 -0.3588 -0.7480 -0.2382
 3880TIP3    H233200   2.836   6.017   7.107  0.3442  0.2571 -0.9893
 3881TIP3   OH233201   2.204   5.750   1.211  0.6934 -0.3518 -0.6252
 3881TIP3    H133202   2.154   5.811   1.157  0.6518 -0.5864 -0.8549
 3881TIP3    H233203   2.177   5.770   1.300  0.7071 -0.0107 -0.6944
 3882TIP3   OH233204   5.446   1.100   0.304  0.3710 -0.4920  0.0510
 3882TIP3    H133205   5.380   1.047   0.258 -1.5760  1.1700  0.7598
 3882TIP3    H233206   5.529   1.078   0.262 -0.8880 -1.3332 -2.1515
 3883TIP3   OH233207   4.261   2.184   7.143  0.1405 -0.1710 -0.8172
 3883TIP3    H133208   4.182   2.141   7.176 -0.3315 -0.3018 -2.0393
 3883TIP3    H233209   4.283   2.250   7.209  1.2870 -2.6685  1.4487
 3884TIP3   OH233210   2.313   5.782   0.899 -0.0564  0.0890  0.6410
 3884TIP3    H133211   2.265   5.707   0.863  0.1951  0.2483 -0.0481
 3884TIP3    H233212   2.260   5.858   0.873  0.8525  0.3193 -0.6730
 3885TIP3   OH233213   4.174   2.788   1.479  0.0364  0.2988 -0.2805
 3885TIP3    H133214   4.171   2.868   1.426 -1.3857  0.9601  0.7238
 3885TIP3    H233215   4.203   2.818   1.565 -0.1348 -0.3242 -0.0040
 3886TIP3   OH233216   6.212   6.557   6.506 -0.6725  0.4961  0.8283
 3886TIP3    H133217   6.184   6.479   6.554 -1.9854  0.3671 -0.1106
 3886TIP3    H233218   6.130   6.595   6.473  0.1356  0.9693 -0.7059
 3887TIP3   OH233219   0.043   6.302   1.692 -0.0533  0.4574 -0.2049
 3887TIP3    H133220   0.111   6.300   1.760  0.1932  3.1521 -0.2590
 3887TIP3    H233221  -0.037   6.327   1.738 -0.3627  0.1418 -0.5677
 3888TIP3   OH233222   4.109   6.001   6.556 -0.0608  0.0612 -0.2600
 3888TIP3    H133223   4.199   5.981   6.530 -0.1676  0.3101 -0.8614
 3888TIP3    H233224   4.066   6.028   6.474 -0.5560  0.3910  0.0993
 3889TIP3   OH233225   4.386   0.841   8.224 -0.2189  0.4957 -0.4451
 3889TIP3    H133226   4.338   0.877   8.149 -0.4684  0.5703 -0.2523
 3889TIP3    H233227   4.478   0.850   8.200 -0.3009 -0.2533 -1.1053
 3890TIP3   OH233228   1.019   3.991   0.179  0.3272  0.3635 -0.6937
 3890TIP3    H133229   1.108   4.010   0.150  0.8885 -0.0037  0.6958
 3890TIP3    H233230   1.030   3.960   0.269 -1.1419 -0.3738 -0.7491
 3891TIP3   OH233231   1.891   5.150   1.364  0.0412 -0.2026 -0.1311
 3891TIP3    H133232   1.865   5.126   1.276 -1.2126  0.9536 -0.1037
 3891TIP3    H233233   1.860   5.078   1.419  0.3874 -0.6827 -0.5523
 3892TIP3   OH233234   2.672   1.213   6.146 -0.5241  1.0927  0.5027
 3892TIP3    H133235   2.649   1.257   6.228  1.1801  1.2434  0.9344
 3892TIP3    H233236   2.764   1.234   6.133  0.4141 -2.2703  0.7105
 3893TIP3   OH233237   4.157   0.105   0.358  0.3043  0.2736  0.1462
 3893TIP3    H133238   4.114   0.144   0.282 -1.1919  0.5329  1.0997
 3893TIP3    H233239   4.088   0.053   0.400  1.6884 -1.7638  0.0693
 3894TIP3   OH233240   0.729   4.661   7.856  0.2217 -0.1713  0.2540
 3894TIP3    H133241   0.767   4.632   7.939  0.9750  1.0639  0.3746
 3894TIP3    H233242   0.661   4.596   7.836 -0.0606 -0.4247  1.8969
 3895TIP3   OH233243   6.346   6.428   8.500  0.4767  0.9955 -0.1221
 3895TIP3    H133244   6.352   6.334   8.519  1.3891  0.8517 -1.0590
 3895TIP3    H233245   6.392   6.469   8.573 -2.0612  0.9383  1.6794
 3896TIP3   OH233246   4.698   2.234   0.261 -0.9441  0.8244 -0.7144
 3896TIP3    H133247   4.704   2.278   0.176 -0.8130  1.8081 -0.2110
 3896TIP3    H233248   4.778   2.260   0.307 -0.7255 -0.1787 -0.4953
 3897TIP3   OH233249   6.130   2.046   7.982  0.5300 -0.4963  0.0010
 3897TIP3    H133250   6.126   1.988   7.906  0.8838  1.4833 -1.5885
 3897TIP3    H233251   6.223   2.057   7.999  0.4567 -1.3167  1.0955
 3898TIP3   OH233252   6.652   2.253   2.153  0.5498  0.1273  0.0261
 3898TIP3    H133253   6.747   2.261   2.142  0.4984  0.0944 -0.4981
 3898TIP3    H233254   6.617   2.339   2.128  0.4980  0.4209  1.0574
 3899TIP3   OH233255   0.904   4.587   7.629  0.7947  0.4350 -0.1954
 3899TIP3    H133256   0.898   4.496   7.602  1.0029 -0.1097  1.5156
 3899TIP3    H233257   0.834   4.599   7.693  1.1262  1.3151  0.0291
 3900TIP3   OH233258   0.493   3.411   0.833 -0.3640 -0.3554 -0.2632
 3900TIP3    H133259   0.574   3.394   0.880 -0.5804 -0.3946  0.0997
 3900TIP3    H233260   0.453   3.484   0.880  0.0145  0.4443 -1.1344
 3901TIP3   OH233261   0.492   6.762   7.213 -0.0429 -0.2969  0.7361
 3901TIP3    H133262   0.514   6.672   7.236 -1.3061 -0.8291 -0.0320
 3901TIP3    H233263   0.565   6.792   7.159  0.8259 -0.5236  1.7491
 3902TIP3   OH233264   2.104   6.314   8.734 -0.6449 -0.1159  0.3421
 3902TIP3    H133265   2.088   6.239   8.676 -1.3629  0.2171  0.0989
 3902TIP3    H233266   2.068   6.286   8.819  0.5691 -0.6726  0.6878
 3903TIP3   OH233267   2.333   0.423   0.767 -0.2348 -0.2035  0.2754
 3903TIP3    H133268   2.425   0.417   0.790  0.0720 -0.3101 -0.8990
 3903TIP3    H233269   2.293   0.475   0.837  0.4310 -1.3348  1.5307
 3904TIP3   OH233270   4.020   1.389   6.535  0.4041  0.4318  0.0259
 3904TIP3    H133271   4.050   1.348   6.453  0.1886  0.6951 -0.1888
 3904TIP3    H233272   3.988   1.317   6.588  0.2905  0.2871 -0.2338
 3905TIP3   OH233273   2.042   0.786   7.362  0.1019 -0.1237  0.0132
 3905TIP3    H133274   2.076   0.713   7.310 -0.2148 -0.1895 -0.1020
 3905TIP3    H233275   2.091   0.782   7.444  0.0301 -0.5112  0.0358
 3906TIP3   OH233276   3.384   6.301   1.208 -0.2928 -0.2849 -0.0203
 3906TIP3    H133277   3.378   6.228   1.147  0.3996 -1.3920  1.1821
 3906TIP3    H233278   3.387   6.260   1.294  1.3887  1.0794  0.6326
 3907TIP3   OH233279   2.209   6.338   1.045  0.3427 -0.7616 -0.0663
 3907TIP3    H133280   2.241   6.315   0.958 -0.2516 -0.1974 -0.4455
 3907TIP3    H233281   2.166   6.259   1.077 -1.9772 -0.1536 -1.4867
 3908TIP3   OH233282   6.649   5.131   7.003  0.0729  0.1394 -0.1420
 3908TIP3    H133283   6.613   5.197   7.062 -0.8103 -0.5463  0.1077
 3908TIP3    H233284   6.693   5.069   7.061  0.0557 -0.0134 -0.2929
 3909TIP3   OH233285   4.678   2.435   6.162 -0.3941  0.2163 -0.2854
 3909TIP3    H133286   4.695   2.417   6.070 -2.1287  0.9833 -0.8124
 3909TIP3    H233287   4.718   2.521   6.177 -3.7554  2.2124 -1.6261
 3910TIP3   OH233288   4.007   0.550   8.133  0.4197  0.2064 -0.2635
 3910TIP3    H133289   3.933   0.611   8.129  0.0744 -0.1240  0.6310
 3910TIP3    H233290   4.078   0.594   8.087 -0.5486  0.2206 -1.7983
 3911TIP3   OH233291   0.076   5.923   1.982  0.0542 -0.0693 -0.0255
 3911TIP3    H133292   0.098   5.848   2.037 -0.6305 -0.9163 -0.8899
 3911TIP3    H233293  -0.010   5.903   1.945  0.4773  0.4708 -1.3983
 3912TIP3   OH233294   1.461   4.633   7.919 -0.2256  0.1667 -0.2099
 3912TIP3    H133295   1.467   4.650   7.824  2.6072  0.7493 -0.0438
 3912TIP3    H233296   1.371   4.653   7.942 -0.8286  0.6244 -2.6961
 3913TIP3   OH233297   2.506   2.205   8.504 -0.2883  0.4335 -0.4229
 3913TIP3    H133298   2.542   2.189   8.591  0.1434 -3.7145 -1.1906
 3913TIP3    H233299   2.415   2.177   8.510 -0.9451  2.3174 -0.8232
 3914TIP3   OH233300   6.739   1.815   8.268 -0.1637 -0.1309 -0.4491
 3914TIP3    H133301   6.809   1.773   8.218 -0.8615  0.3749 -1.9229
 3914TIP3    H233302   6.745   1.777   8.355 -1.2785 -3.9701 -1.8591
 3915TIP3   OH233303   6.821   6.400   8.037  0.6742  0.5185  0.2508
 3915TIP3    H133304   6.750   6.374   7.979  1.6383 -0.4983 -0.5256
 3915TIP3    H233305   6.855   6.481   7.998 -0.8500  1.7336  1.3563
 3916TIP3   OH233306   0.209   2.573   8.633 -0.1896 -0.0611 -0.4794
 3916TIP3    H133307   0.265   2.510   8.679 -1.4787 -1.0456 -0.1937
 3916TIP3    H233308   0.122   2.562   8.673 -0.9328  0.3674 -1.8887
 3917TIP3   OH233309   5.697   4.022   6.224 -0.4421 -0.7922 -0.8316
 3917TIP3    H133310   5.760   4.076   6.271  0.3918 -2.0411 -0.4634
 3917TIP3    H233311   5.616   4.072   6.226 -0.1890 -0.3731  1.1279
 3918TIP3   OH233312   3.317   4.267   1.221 -0.3947  0.5894  0.5031
 3918TIP3    H133313   3.232   4.284   1.181  0.0237 -0.5263 -0.9567
 3918TIP3    H233314   3.380   4.279   1.150  0.7060  1.5244  1.5856
 3919TIP3   OH233315   4.722   1.887   0.519 -0.0809 -0.1065 -0.1684
 3919TIP3    H133316   4.763   1.819   0.573 -2.1577 -0.6324  0.8671
 3919TIP3    H233317   4.696   1.954   0.582 -0.1137  0.5668 -0.8916
 3920TIP3   OH233318   3.847   6.188   0.520 -0.0874 -0.5862  0.1760
 3920TIP3    H133319   3.882   6.149   0.440 -0.9450 -0.0863 -0.4544
 3920TIP3    H233320   3.827   6.113   0.576  0.6194 -0.9336 -0.0248
 3921TIP3   OH233321   2.544   4.450   8.442  0.0634 -0.4049  0.0056
 3921TIP3    H133322   2.531   4.397   8.521  0.0341  0.1396  0.3699
 3921TIP3    H233323   2.637   4.472   8.444 -0.0784  0.1961  0.2693
 3922TIP3   OH233324   1.672   3.006   0.049  0.2864 -0.2333 -1.1836
 3922TIP3    H133325   1.603   3.041  -0.007 -0.4053  0.7113  0.1996
 3922TIP3    H233326   1.743   3.070   0.043  0.0985  0.0197 -0.7842
 3923TIP3   OH233327   2.880   4.015   7.609 -0.1421  0.2430  0.4501
 3923TIP3    H133328   2.885   4.108   7.630 -2.6037  0.2040  1.4195
 3923TIP3    H233329   2.880   3.970   7.694  0.4641 -0.6310  0.0101
 3924TIP3   OH233330   4.773   3.636   7.107 -0.1803 -0.0222  0.3833
 3924TIP3    H133331   4.702   3.601   7.054 -2.2614  0.9166  2.3839
 3924TIP3    H233332   4.813   3.559   7.148 -1.2043 -0.4511  0.5959
 3925TIP3   OH233333   2.144   0.987   0.370  0.1629 -0.1825  0.2872
 3925TIP3    H133334   2.129   0.928   0.296  2.4730 -0.3736 -0.1180
 3925TIP3    H233335   2.156   1.073   0.331 -0.6746  0.1060  0.6487
 3926TIP3   OH233336   2.992   6.820   0.221 -0.6543  0.3133 -0.6189
 3926TIP3    H133337   2.921   6.792   0.164 -1.2843  0.8378 -0.0999
 3926TIP3    H233338   2.986   6.916   0.222 -0.0495  0.3559 -0.4276
 3927TIP3   OH233339   4.882   4.805   1.595  0.5515 -0.4745 -0.7183
 3927TIP3    H133340   4.854   4.896   1.581 -0.6485 -0.7395 -0.1554
 3927TIP3    H233341   4.959   4.813   1.652  0.4545  0.1862 -0.6644
 3928TIP3   OH233342   3.094   4.905   0.668  0.6597 -0.2194  0.4201
 3928TIP3    H133343   3.004   4.875   0.653  0.8188 -0.0377 -1.0512
 3928TIP3    H233344   3.144   4.825   0.684  0.6165 -0.5471 -0.9625
 3929TIP3   OH233345   0.997   5.425   0.949 -0.3687  0.4118  0.2122
 3929TIP3    H133346   0.970   5.480   0.876  0.4170  1.1825  0.4858
 3929TIP3    H233347   0.941   5.452   1.022 -0.1409  0.6873  0.2853
 3930TIP3   OH233348   1.648   3.159   0.629  0.3669  0.2718 -0.0466
 3930TIP3    H133349   1.705   3.114   0.692 -2.1761 -1.8834  0.9073
 3930TIP3    H233350   1.561   3.124   0.647 -1.3536  3.5661 -1.2724
 3931TIP3   OH233351   2.366   4.855   1.422  0.2252 -0.2354 -0.5878
 3931TIP3    H133352   2.390   4.885   1.510 -0.8083  0.8043 -0.6409
 3931TIP3    H233353   2.366   4.759   1.429  0.9733 -0.1931  0.3046
 3932TIP3   OH233354   1.095   1.207   8.618  0.2032 -0.1224  0.4698
 3932TIP3    H133355   1.078   1.268   8.546 -1.2929  0.6849  1.4580
 3932TIP3    H233356   1.188   1.186   8.610  0.6220  1.8305 -0.2819
 3933TIP3   OH233357   6.057   4.808   0.102  0.6462 -0.2259  0.6074
 3933TIP3    H133358   6.114   4.733   0.118  0.5446 -0.1901  1.1213
 3933TIP3    H233359   5.969   4.772   0.099  0.7758 -0.5665 -1.8820
 3934TIP3   OH233360   5.570   6.230   1.450 -0.1472  0.0411  0.2643
 3934TIP3    H133361   5.656   6.222   1.493  0.0818 -2.4100 -0.4953
 3934TIP3    H233362   5.534   6.141   1.452 -2.7658  1.0233  0.6611
 3935TIP3   OH233363   3.333   0.620   0.756 -0.3237 -0.0124 -0.2091
 3935TIP3    H133364   3.281   0.556   0.805 -0.6826  0.4370  0.0020
 3935TIP3    H233365   3.276   0.696   0.747 -0.1556  0.0124 -1.0926
 3936TIP3   OH233366   3.577   3.856   1.483 -0.6450  0.1159  0.0201
 3936TIP3    H133367   3.664   3.896   1.481 -0.7758  0.3748 -0.9906
 3936TIP3    H233368   3.593   3.762   1.484 -0.3403  0.1384 -1.2164
 3937TIP3   OH233369   5.397   3.349   6.867 -0.0494 -0.2106  0.1659
 3937TIP3    H133370   5.414   3.441   6.848  0.5796 -0.2548  0.4878
 3937TIP3    H233371   5.452   3.329   6.943  1.3646 -1.3678 -1.1005
 3938TIP3   OH233372   5.115   6.412   0.776 -0.5165 -0.2428 -0.2917
 3938TIP3    H133373   5.061   6.380   0.848 -2.0948  0.1455 -1.2403
 3938TIP3    H233374   5.139   6.333   0.727  1.4931 -0.6371  1.1953
 3939TIP3   OH233375   3.151   2.136   0.248  0.0505 -0.9220 -0.6041
 3939TIP3    H133376   3.136   2.183   0.166 -0.9529  0.2037  0.1971
 3939TIP3    H233377   3.064   2.109   0.276  0.2417 -0.2935  0.6586
 3940TIP3   OH233378   0.047   5.031   1.266 -0.5869  0.5365  0.0244
 3940TIP3    H133379  -0.014   4.998   1.331  1.1790  0.3067  1.6651
 3940TIP3    H233380   0.051   5.125   1.282 -0.1894  0.4871  0.2404
 3941TIP3   OH233381   6.317   3.256   0.599 -0.3448 -0.4060  0.5748
 3941TIP3    H133382   6.316   3.197   0.524  1.0316 -1.1266  1.0795
 3941TIP3    H233383   6.366   3.332   0.569 -0.9769 -0.0872  0.3337
 3942TIP3   OH233384   4.671   2.470   0.547  0.0321 -0.3954 -0.6025
 3942TIP3    H133385   4.702   2.483   0.636  0.0547 -0.5272 -0.5901
 3942TIP3    H233386   4.591   2.419   0.557 -1.1220  1.3644 -0.5305
 3943TIP3   OH233387   6.097   2.363   1.255  0.0502 -0.0022  0.1760
 3943TIP3    H133388   6.037   2.290   1.271 -0.5502  0.7012  1.1877
 3943TIP3    H233389   6.149   2.369   1.335 -1.0677  1.7604  0.8149
 3944TIP3   OH233390   2.161   3.708   1.428  0.2614 -0.4066 -0.2184
 3944TIP3    H133391   2.125   3.766   1.495  0.7863 -0.6900  0.3159
 3944TIP3    H233392   2.255   3.708   1.443  0.6832  1.2773 -2.3801
 3945TIP3   OH233393   6.315   4.302   8.656  0.2620 -0.1529  0.0148
 3945TIP3    H133394   6.365   4.236   8.704 -1.2729 -1.6357 -0.3015
 3945TIP3    H233395   6.326   4.278   8.564 -2.7106 -1.9374 -0.0015
 3946TIP3   OH233396   1.387   4.329   8.435 -0.2686 -0.0043 -0.7589
 3946TIP3    H133397   1.467   4.373   8.408  0.5760 -1.8918 -1.4869
 3946TIP3    H233398   1.321   4.360   8.373  0.0293  0.9975 -0.6052
 3947TIP3   OH233399   2.429   6.110   6.504 -0.3045  0.5863 -0.1190
 3947TIP3    H133400   2.352   6.162   6.527 -0.2303  0.2705  0.9102
 3947TIP3    H233401   2.418   6.090   6.411 -1.7449  0.0892  0.1377
 3948TIP3   OH233402   2.723   6.105   0.536 -0.0489 -0.1105 -1.0513
 3948TIP3    H133403   2.802   6.077   0.581 -0.9627 -0.8692  0.1140
 3948TIP3    H233404   2.666   6.028   0.536 -0.3070  0.0232 -3.0305
 3949TIP3   OH233405   2.682   3.737   7.814  0.4371  0.1165  0.2109
 3949TIP3    H133406   2.611   3.795   7.840 -0.6945 -0.9263 -0.4359
 3949TIP3    H233407   2.760   3.792   7.814 -0.4362  1.3872  0.5352
 3950TIP3   OH233408   5.415   5.338   7.236  0.8766 -0.2701  0.0815
 3950TIP3    H133409   5.320   5.329   7.239  0.8067  0.5581  1.2841
 3950TIP3    H233410   5.439   5.364   7.325  1.9782  1.6515 -0.7071
 3951TIP3   OH233411   4.948   6.219   7.487 -0.1042  0.1289 -0.2636
 3951TIP3    H133412   4.970   6.135   7.446  0.5180 -0.0363  0.3881
 3951TIP3    H233413   4.852   6.220   7.489 -0.1350 -1.2480  1.0637
 3952TIP3   OH233414   5.112   3.622   0.332 -0.2292  0.0437 -0.4397
 3952TIP3    H133415   5.207   3.636   0.325 -0.0167 -0.3714  1.1513
 3952TIP3    H233416   5.074   3.709   0.326  0.0926  0.1021 -2.6072
 3953TIP3   OH233417   2.375   5.071   1.575  0.1651  0.0022 -0.2781
 3953TIP3    H133418   2.316   5.089   1.502 -2.7482  0.9138  2.1026
 3953TIP3    H233419   2.409   5.157   1.600  1.2862 -0.3266 -0.6314
 3954TIP3   OH233420   3.604   5.385   0.192  0.3037  0.1512 -0.5693
 3954TIP3    H133421   3.536   5.445   0.161  0.4318  0.3732 -0.4173
 3954TIP3    H233422   3.576   5.360   0.280 -0.8310 -1.6156 -1.3653
 3955TIP3   OH233423   6.635   5.942   7.491 -0.2576 -0.2736 -0.1183
 3955TIP3    H133424   6.685   5.981   7.420 -0.4318  0.9654  0.4215
 3955TIP3    H233425   6.551   5.917   7.451 -0.2371  0.1314 -0.4166
 3956TIP3   OH233426   0.512   2.221   2.122 -0.5097  0.7037  0.0822
 3956TIP3    H133427   0.479   2.207   2.211 -0.7785 -2.6202 -0.4189
 3956TIP3    H233428   0.435   2.248   2.072 -1.0478 -0.3065  0.3180
 3957TIP3   OH233429   1.125   6.048   8.472 -0.4670  0.3082 -0.4859
 3957TIP3    H133430   1.166   6.097   8.543 -0.2097  0.6159 -0.8415
 3957TIP3    H233431   1.198   6.001   8.430 -0.7252 -0.4527 -0.0908
 3958TIP3   OH233432   3.130   1.112   6.761  0.0657  0.3697  0.1918
 3958TIP3    H133433   3.177   1.107   6.677 -1.2758 -2.4421 -0.5120
 3958TIP3    H233434   3.052   1.163   6.741  0.3217  0.7069  0.0416
 3959TIP3   OH233435   4.762   3.502   1.968  0.1210  0.3380  0.3875
 3959TIP3    H133436   4.816   3.578   1.944  0.7738 -0.0245  0.6945
 3959TIP3    H233437   4.714   3.531   2.045  0.2868  0.4757  0.4394
 3960TIP3   OH233438   4.069   0.823   8.727  0.1231  0.3753  0.3957
 3960TIP3    H133439   4.154   0.795   8.762 -0.0202  0.1837  0.5877
 3960TIP3    H233440   4.012   0.827   8.804 -0.5619 -1.3437  0.0156
 3961TIP3   OH233441   4.829   6.768   5.919 -0.0920 -0.4757  0.5959
 3961TIP3    H133442   4.826   6.802   6.008 -0.7477  0.1092  0.3611
 3961TIP3    H233443   4.737   6.760   5.893 -0.0114  3.0905 -1.3880
 3962TIP3   OH233444   4.085   5.439   8.356 -0.1905 -0.6011 -0.0866
 3962TIP3    H133445   3.993   5.454   8.379  0.0295  0.0176  0.4177
 3962TIP3    H233446   4.133   5.502   8.409  0.4213  0.1287 -1.4651
 3963TIP3   OH233447   0.598   2.877   1.524  0.0992  0.1795  0.0356
 3963TIP3    H133448   0.678   2.929   1.523  1.5711 -1.9932 -0.3042
 3963TIP3    H233449   0.607   2.819   1.600 -1.7828  0.7757  0.7732
 3964TIP3   OH233450   5.293   5.593   7.411  0.1888 -0.0333 -0.7767
 3964TIP3    H133451   5.227   5.525   7.423 -1.3398  1.3073 -1.2600
 3964TIP3    H233452   5.300   5.635   7.497 -0.5396  0.6470 -1.0459
 3965TIP3   OH233453   2.171   4.408   8.000 -0.0695 -0.0926  0.1314
 3965TIP3    H133454   2.079   4.425   8.020 -0.1573 -0.7607  0.3192
 3965TIP3    H233455   2.214   4.408   8.086 -0.2304 -1.7087  0.2364
 3966TIP3   OH233456   2.878   5.392   8.591  0.0920  0.1628 -0.5050
 3966TIP3    H133457   2.838   5.331   8.654  1.6873  1.3441  1.8069
 3966TIP3    H233458   2.852   5.479   8.622  1.8140  0.8188 -0.7752
 3967TIP3   OH233459   1.672   3.575   0.725 -1.4498 -0.6538 -0.7894
 3967TIP3    H133460   1.690   3.506   0.661 -0.8794 -1.4083  0.1544
 3967TIP3    H233461   1.750   3.577   0.781 -1.6476  0.4571 -0.5250
 3968TIP3   OH233462   0.263   2.314   1.337  0.2261  0.8248 -0.8877
 3968TIP3    H133463   0.351   2.351   1.346  0.2138  1.1937 -2.1095
 3968TIP3    H233464   0.263   2.238   1.396  1.5183  0.5245 -1.2400
 3969TIP3   OH233465   4.125   5.682   7.005 -0.0974  0.1215  0.1219
 3969TIP3    H133466   4.167   5.680   6.919 -1.5380  1.8764 -0.6751
 3969TIP3    H233467   4.031   5.678   6.986 -0.4322  0.2403  1.6379
 3970TIP3   OH233468   6.195   3.832   1.183 -0.4302  0.2527 -0.1612
 3970TIP3    H133469   6.133   3.857   1.252 -0.4110  1.3361 -0.5277
 3970TIP3    H233470   6.280   3.861   1.215 -0.6227  2.2940 -1.3277
 3971TIP3   OH233471   0.949   0.497   7.817 -0.1047 -0.2409  0.0265
 3971TIP3    H133472   0.953   0.508   7.722  1.6007  0.2593  0.1066
 3971TIP3    H233473   1.017   0.433   7.837 -1.5949 -1.6419  0.7802
 3972TIP3   OH233474   0.386   3.707   2.044 -0.1911  0.2554 -0.2759
 3972TIP3    H133475   0.477   3.725   2.020  0.1848 -1.5624 -0.3525
 3972TIP3    H233476   0.339   3.788   2.021  1.1985  0.8222 -1.2960
 3973TIP3   OH233477   6.352   6.180   8.005  0.1272 -0.1207 -0.0688
 3973TIP3    H133478   6.429   6.194   7.950  0.1048  1.7053  0.2872
 3973TIP3    H233479   6.350   6.086   8.020  1.1247 -0.4548 -1.7470
 3974TIP3   OH233480   0.612   6.343   0.342  0.2629  0.0400 -0.3891
 3974TIP3    H133481   0.619   6.436   0.319 -0.2902  0.3467  0.6556
 3974TIP3    H233482   0.520   6.330   0.362  0.5864 -0.3805  0.9048
 3975TIP3   OH233483   2.007   1.674   1.525  0.0225 -0.6269  0.3430
 3975TIP3    H133484   2.062   1.598   1.507 -0.1415 -0.7475  0.3555
 3975TIP3    H233485   2.070   1.744   1.543  0.1983 -1.2400  2.4077
 3976TIP3   OH233486   3.242   3.768   8.129 -0.4561  0.4181 -0.1843
 3976TIP3    H133487   3.244   3.861   8.152 -1.1817  0.4898 -0.3875
 3976TIP3    H233488   3.220   3.724   8.212  0.2327  0.3890 -0.0093
 3977TIP3   OH233489   3.756   5.613   1.834 -0.3225  0.0771 -0.4779
 3977TIP3    H133490   3.735   5.679   1.768 -0.6550 -0.4362 -0.8975
 3977TIP3    H233491   3.851   5.603   1.829 -0.5354 -1.5447 -2.4661
 3978TIP3   OH233492   4.465   1.614   0.107 -0.5611  0.0904  0.5697
 3978TIP3    H133493   4.492   1.679   0.172 -2.2598 -0.9121  2.3956
 3978TIP3    H233494   4.419   1.547   0.158 -1.5741 -0.9900 -1.6333
 3979TIP3   OH233495   2.414   1.283   7.683  0.4237  0.0659  0.2761
 3979TIP3    H133496   2.496   1.244   7.654  1.0683  0.9644  0.8749
 3979TIP3    H233497   2.429   1.307   7.774 -0.5502  0.1227  0.4341
 3980TIP3   OH233498   4.024   6.244   1.195  0.4608 -0.0446  0.8758
 3980TIP3    H133499   4.059   6.158   1.171 -1.1405 -0.2261 -1.1386
 3980TIP3    H233500   4.098   6.304   1.186  1.1984 -0.9720  0.6416
 3981TIP3   OH233501   3.948   3.554   1.273 -0.4240 -0.7578  0.2167
 3981TIP3    H133502   3.987   3.633   1.236 -0.3862 -0.0821  1.6223
 3981TIP3    H233503   3.919   3.580   1.360 -0.8903 -2.1683  0.5166
 3982TIP3   OH233504   3.247   2.187   8.239  0.3869  0.0078  0.0211
 3982TIP3    H133505   3.155   2.183   8.212 -0.1652  3.5594  0.8108
 3982TIP3    H233506   3.243   2.185   8.335  0.9042  1.9175  0.1159
 3983TIP3   OH233507   0.731   0.267   8.243 -0.0914 -0.6005  0.4741
 3983TIP3    H133508   0.788   0.190   8.239 -1.2594 -1.5239  1.1940
 3983TIP3    H233509   0.711   0.279   8.336 -0.3471  0.2659  0.3239
 3984TIP3   OH233510   0.660   3.967   1.184  0.2004 -0.1819  0.0947
 3984TIP3    H133511   0.725   3.986   1.117 -1.4914  1.5795 -1.1641
 3984TIP3    H233512   0.660   4.044   1.240 -0.7652 -0.1709  0.0925
 3985TIP3   OH233513   6.224   0.584   7.562  0.0819  0.0099  0.2108
 3985TIP3    H133514   6.271   0.668   7.565  1.9712 -0.9929  0.1097
 3985TIP3    H233515   6.164   0.594   7.488  2.2204  0.3723 -1.5959
 3986TIP3   OH233516   2.932   6.237   0.866 -0.2565  0.0821  0.0803
 3986TIP3    H133517   2.963   6.215   0.778 -0.0924 -2.6995  0.7688
 3986TIP3    H233518   2.846   6.277   0.852  0.1273  0.4592 -1.3745
 3987TIP3   OH233519   0.721   1.349   2.092 -0.4150  0.0710 -0.0900
 3987TIP3    H133520   0.747   1.347   2.000 -1.7093  0.5171 -0.4842
 3987TIP3    H233521   0.760   1.270   2.130  3.8681  1.9993  0.0905
 3988TIP3   OH233522   0.617   6.274   7.725 -0.0303 -0.4054 -0.2265
 3988TIP3    H133523   0.569   6.199   7.689  1.1173 -0.6954 -1.2324
 3988TIP3    H233524   0.643   6.324   7.647 -0.4880  0.8629  0.4146
 3989TIP3   OH233525   4.788   5.800   0.624 -0.0388 -0.0123  0.5754
 3989TIP3    H133526   4.766   5.887   0.657  0.7645  0.0809  0.8681
 3989TIP3    H233527   4.875   5.809   0.586  0.4045 -0.8777  1.3542
 3990TIP3   OH233528   2.940   3.120   0.596  0.3088  0.0369  0.7991
 3990TIP3    H133529   2.931   3.140   0.503 -0.1116  0.2878  0.8892
 3990TIP3    H233530   3.033   3.133   0.615 -0.0401  3.0354  1.0858
 3991TIP3   OH233531   3.985   4.257   0.967 -0.7240  0.5148  0.4081
 3991TIP3    H133532   3.923   4.271   1.039  0.2347 -1.9636  1.8643
 3991TIP3    H233533   3.934   4.215   0.898 -0.8506 -1.0152  1.3840
 3992TIP3   OH233534   6.018   0.030   6.956  0.1809 -0.0752 -0.3175
 3992TIP3    H133535   5.936   0.019   7.004  1.1096  0.7752  1.5708
 3992TIP3    H233536   6.014   0.118   6.920 -0.9053 -1.0234 -2.7005
 3993TIP3   OH233537   1.893   5.435   1.983  0.4738 -0.0338 -0.0133
 3993TIP3    H133538   1.822   5.455   1.923 -0.4614 -0.7339  0.8330
 3993TIP3    H233539   1.887   5.341   1.998  1.1480  0.0055  0.6106
 3994TIP3   OH233540   3.391   1.547   8.222 -0.1543 -0.4903 -0.5309
 3994TIP3    H133541   3.444   1.522   8.298  0.5646  1.1834 -0.4327
 3994TIP3    H233542   3.416   1.485   8.154  0.4572 -0.9503  0.0977
 3995TIP3   OH233543   2.836   2.796   6.324  0.0817  0.3322  0.3679
 3995TIP3    H133544   2.777   2.870   6.335 -0.0521  0.1270  1.0826
 3995TIP3    H233545   2.863   2.800   6.232  0.8788  1.8644  0.6232
 3996TIP3   OH233546   2.417   0.842   2.070 -0.3878  0.1247  0.5308
 3996TIP3    H133547   2.491   0.783   2.059 -0.2028  0.0839  1.8315
 3996TIP3    H233548   2.393   0.834   2.162 -0.5204  1.8845  0.6882
 3997TIP3   OH233549   4.985   2.508   6.940  0.2775  0.3963  0.3768
 3997TIP3    H133550   4.935   2.533   6.862  0.7604  1.2041  0.3050
 3997TIP3    H233551   4.920   2.474   7.001  0.0236 -1.3320 -0.7815
 3998TIP3   OH233552   1.340   2.742   6.980  0.0799  0.3715 -0.3936
 3998TIP3    H133553   1.252   2.772   7.006 -0.0523 -0.5954  0.3006
 3998TIP3    H233554   1.324   2.683   6.906 -0.0429 -1.2543  0.8839
 3999TIP3   OH233555   4.323   6.581   8.038  0.2673  0.1176 -0.4166
 3999TIP3    H133556   4.366   6.665   8.052  0.3889 -0.0125 -0.0004
 3999TIP3    H233557   4.260   6.598   7.968  0.6621  0.4235 -0.7085
 4000TIP3   OH233558   5.674   2.645   1.344 -0.0613 -0.4607 -0.3273
 4000TIP3    H133559   5.610   2.715   1.350  0.0751 -0.2161 -1.5337
 4000TIP3    H233560   5.727   2.667   1.267  0.2084 -1.6931 -0.5117
 4001TIP3   OH233561   6.668   0.656   0.443 -0.2657 -0.0641  0.2757
 4001TIP3    H133562   6.684   0.623   0.355 -0.9531 -1.6959  0.7165
 4001TIP3    H233563   6.582   0.699   0.437 -0.8103 -1.1065  0.3573
 4002TIP3   OH233564   4.896   6.603   7.347 -0.0773 -0.4112  0.1045
 4002TIP3    H133565   4.919   6.627   7.258  0.4478 -1.1149  0.0393
 4002TIP3    H233566   4.959   6.650   7.402  0.0661 -0.5433  0.0560
 4003TIP3   OH233567   5.581   4.450   7.540  0.3147  0.3079 -0.0192
 4003TIP3    H133568   5.571   4.362   7.577  0.6929  0.3478  0.1817
 4003TIP3    H233569   5.504   4.462   7.485  0.5531 -0.3882 -0.5180
 4004TIP3   OH233570   4.137   1.155   8.186 -0.5260 -0.1086  0.1280
 4004TIP3    H133571   4.199   1.189   8.121  0.6897 -1.7668  0.3660
 4004TIP3    H233572   4.051   1.173   8.148  0.1546 -0.8959 -1.8922
 4005TIP3   OH233573   3.697   6.578   1.553  0.1649  0.2687 -0.1896
 4005TIP3    H133574   3.655   6.599   1.469 -0.5005 -1.4886 -0.3350
 4005TIP3    H233575   3.785   6.548   1.528  0.3678  0.8319 -0.1580
 4006TIP3   OH233576   3.766   2.037   6.984 -0.0023 -0.4483  0.3382
 4006TIP3    H133577   3.744   1.971   7.050  1.2114 -0.8033  0.4019
 4006TIP3    H233578   3.763   2.120   7.033 -1.0359 -0.4877  0.3701
 4007TIP3   OH233579   3.580   5.686   6.540 -0.4145  0.4944  0.1266
 4007TIP3    H133580   3.624   5.710   6.459 -0.6531 -1.3864 -0.6091
 4007TIP3    H233581   3.494   5.656   6.513 -0.1374 -1.1380  0.9585
 4008TIP3   OH233582   2.749   3.945   1.903 -0.2688  0.8708 -0.3957
 4008TIP3    H133583   2.774   3.969   1.992 -0.4941  1.5623 -0.5133
 4008TIP3    H233584   2.830   3.913   1.863  0.1719  1.9629 -0.4017
 4009TIP3   OH233585   1.425   0.579   6.975 -0.0702  0.1178 -0.1662
 4009TIP3    H133586   1.341   0.588   7.019 -0.3994  0.6064 -0.8838
 4009TIP3    H233587   1.413   0.622   6.891  0.8478  0.0424 -0.3454
 4010TIP3   OH233588   1.925   2.603   7.569 -0.5085  0.3407 -0.2414
 4010TIP3    H133589   1.856   2.637   7.626 -0.6070  0.4350 -0.4142
 4010TIP3    H233590   1.894   2.624   7.481  0.2158  1.2673 -0.2844
 4011TIP3   OH233591   0.025   3.835   8.318 -0.0597 -0.4224 -0.0407
 4011TIP3    H133592   0.016   3.924   8.285  0.4084 -0.1574  0.5317
 4011TIP3    H233593  -0.009   3.780   8.247  1.0304  0.1248 -1.0166
 4012TIP3   OH233594   0.136   1.777   6.312 -0.5802 -0.1531 -0.1360
 4012TIP3    H133595   0.083   1.699   6.329 -1.2641  0.2741 -0.2432
 4012TIP3    H233596   0.088   1.824   6.243 -1.5285  1.5979  1.5991
 4013TIP3   OH233597   5.292   4.074   7.864 -0.1115 -0.4043  0.4349
 4013TIP3    H133598   5.326   3.994   7.905  2.9772 -1.0809 -2.8705
 4013TIP3    H233599   5.200   4.056   7.849 -0.1772 -2.0956  2.3689
 4014TIP3   OH233600   6.805   6.822   8.335 -1.0864  0.3447  0.2884
 4014TIP3    H133601   6.812   6.797   8.243  0.5177  2.3493 -0.2018
 4014TIP3    H233602   6.829   6.743   8.383 -0.5601 -0.3348 -1.0454
 4015TIP3   OH233603   1.484   2.416   2.319  0.0165 -0.0085  0.3333
 4015TIP3    H133604   1.390   2.401   2.327 -0.1304  0.4313 -0.4722
 4015TIP3    H233605   1.518   2.337   2.277 -0.4160  0.8880 -1.8268
 4016TIP3   OH233606   0.330   2.613   1.613 -0.1329 -0.1886  0.2817
 4016TIP3    H133607   0.311   2.560   1.536  0.3620 -0.7498  0.5343
 4016TIP3    H233608   0.345   2.549   1.683  1.0999  0.2572  0.4567
 4017TIP3   OH233609   6.769   2.880   0.093 -0.1556 -0.2111 -0.0960
 4017TIP3    H133610   6.685   2.902   0.134  0.0508 -0.1475  0.2926
 4017TIP3    H233611   6.763   2.786   0.074 -0.0712 -0.3338  0.4927
 4018TIP3   OH233612   0.672   4.679   0.925 -0.5895  0.0671 -0.2091
 4018TIP3    H133613   0.642   4.753   0.872 -0.9333  0.1114  0.0467
 4018TIP3    H233614   0.646   4.601   0.875  0.0939  0.1206 -0.6539
 4019TIP3   OH233615   2.210   2.682   1.636 -0.3578  0.2135 -0.4548
 4019TIP3    H133616   2.191   2.605   1.582  1.5656 -0.5882 -0.0407
 4019TIP3    H233617   2.234   2.750   1.574  2.0854 -0.7742 -0.6925
 4020TIP3   OH233618   4.372   6.089   7.998 -0.1595  0.5771  0.4577
 4020TIP3    H133619   4.410   6.175   8.017 -1.7653  1.7462 -1.3241
 4020TIP3    H233620   4.282   6.107   7.971 -0.3278 -1.5946 -0.6735
 4021TIP3   OH233621   4.306   2.942   0.531  0.2887  0.1123  0.8482
 4021TIP3    H133622   4.324   2.891   0.452 -0.7793  0.3734  0.4144
 4021TIP3    H233623   4.265   2.879   0.590  0.0047  0.1907  0.7384
 4022TIP3   OH233624   4.864   1.629   8.498 -0.2710 -0.6394  0.1161
 4022TIP3    H133625   4.814   1.547   8.508 -1.3830 -0.0944 -0.7955
 4022TIP3    H233626   4.879   1.637   8.404  0.3218 -0.0763  0.2540
 4023TIP3   OH233627   0.680   2.598   1.265 -0.1026 -0.1363  0.4827
 4023TIP3    H133628   0.726   2.628   1.343 -0.7721 -2.9735  2.1055
 4023TIP3    H233629   0.743   2.543   1.219 -0.0550  0.6677 -0.4513
 4024TIP3   OH233630   3.459   3.403   1.006  0.1915 -0.1578  0.0716
 4024TIP3    H133631   3.446   3.313   1.037 -1.2577  0.2186  0.6727
 4024TIP3    H233632   3.451   3.457   1.085  1.8565  0.4739 -0.1443
 4025TIP3   OH233633   5.236   2.455   7.909 -0.3282  0.5411  0.3216
 4025TIP3    H133634   5.199   2.461   7.821  2.8180  2.5626 -1.0225
 4025TIP3    H233635   5.214   2.539   7.950 -0.4675  0.2106  0.9385
 4026TIP3   OH233636   3.837   1.593   6.431 -0.5253 -0.5087  0.1507
 4026TIP3    H133637   3.874   1.676   6.460  0.0674 -0.5996 -0.3077
 4026TIP3    H233638   3.891   1.527   6.475 -0.2306 -0.6432 -0.3947
 4027TIP3   OH233639   4.231   4.130   7.471  0.1601 -0.2257  0.1912
 4027TIP3    H133640   4.211   4.207   7.418 -0.1750 -0.4596 -0.0208
 4027TIP3    H233641   4.317   4.100   7.440  0.1956 -0.0626  0.1337
 4028TIP3   OH233642   3.432   5.113   6.614 -0.6214  0.0672 -0.6018
 4028TIP3    H133643   3.418   5.199   6.573 -0.1808 -0.4201 -1.8218
 4028TIP3    H233644   3.472   5.060   6.545  0.2798 -0.7523  0.5115
 4029TIP3   OH233645   3.528   4.695   7.181 -0.2014 -0.5522  0.1676
 4029TIP3    H133646   3.492   4.660   7.099 -0.8203  2.1456 -0.8000
 4029TIP3    H233647   3.451   4.717   7.233  0.1869 -2.2505  1.5513
 4030TIP3   OH233648   0.753   5.926   6.938  0.1510 -0.6889 -0.1230
 4030TIP3    H133649   0.657   5.927   6.930  0.1047  0.6726  0.3480
 4030TIP3    H233650   0.776   5.833   6.940 -1.1495 -1.0361 -0.3681
 4031TIP3   OH233651   5.577   5.623   0.903  0.8168  0.5609 -0.4552
 4031TIP3    H133652   5.569   5.585   0.816 -0.3906  0.1753 -0.1974
 4031TIP3    H233653   5.660   5.590   0.936 -0.3931 -2.3571 -0.0423
 4032TIP3   OH233654   2.034   5.498   6.656  0.5492  0.0412 -0.3767
 4032TIP3    H133655   2.016   5.518   6.565  0.2302 -0.1980 -0.3669
 4032TIP3    H233656   2.113   5.442   6.654 -0.0741 -0.8532 -0.5855
 4033TIP3   OH233657   2.743   1.356   8.198 -0.7140 -0.1678  0.0553
 4033TIP3    H133658   2.765   1.387   8.285 -1.5625  0.1287  0.1735
 4033TIP3    H233659   2.672   1.293   8.212  1.0156 -2.2977 -0.1621
 4034TIP3   OH233660   1.768   0.039   8.127  0.2649  0.1311 -0.1623
 4034TIP3    H133661   1.745   0.132   8.130  2.3814  0.6899  0.0961
 4034TIP3    H233662   1.864   0.038   8.129  0.2975 -2.0461 -0.7381
 4035TIP3   OH233663   1.867   2.942   7.033  0.1442 -0.1755  0.1903
 4035TIP3    H133664   1.935   3.008   7.041  1.6982 -1.5737 -0.8346
 4035TIP3    H233665   1.807   2.961   7.106 -0.3501  3.2490 -0.9319
 4036TIP3   OH233666   6.776   1.133   8.166  0.2502  0.2451 -0.0312
 4036TIP3    H133667   6.719   1.186   8.221  1.0421  1.2681 -0.1600
 4036TIP3    H233668   6.735   1.135   8.080 -0.7800 -1.0304  0.4035
 4037TIP3   OH233669   4.519   1.458   2.412  0.0392  0.9822  0.3358
 4037TIP3    H133670   4.429   1.489   2.419 -0.7583 -0.4323 -2.3728
 4037TIP3    H233671   4.564   1.527   2.363 -0.5094  0.1763 -1.3798
 4038TIP3   OH233672   5.204   6.095   7.624 -0.4850  0.0651 -0.0151
 4038TIP3    H133673   5.188   6.132   7.537 -2.5655  0.9926  0.7029
 4038TIP3    H233674   5.133   6.033   7.638  0.3734 -0.8070  0.6733
 4039TIP3   OH233675   4.346   5.638   7.494 -0.4116 -0.0528  0.2602
 4039TIP3    H133676   4.403   5.660   7.567 -0.1309 -0.7394  0.2589
 4039TIP3    H233677   4.295   5.563   7.525 -0.2480 -0.3908 -0.2647
 4040TIP3   OH233678   3.346   2.433   7.277  0.0310  0.0512  0.2417
 4040TIP3    H133679   3.390   2.508   7.236  0.1026 -0.5148 -0.7504
 4040TIP3    H233680   3.298   2.471   7.351 -0.2862  1.1495 -0.4990
 4041TIP3   OH233681   1.456   3.031   6.783  0.2986 -0.0401 -0.2526
 4041TIP3    H133682   1.510   3.015   6.860  3.4631  0.3629 -2.1888
 4041TIP3    H233683   1.398   3.103   6.808  3.1433  1.9937  1.0121
 4042TIP3   OH233684   6.083   0.209   0.502 -0.4613 -0.1363  0.4975
 4042TIP3    H133685   6.067   0.166   0.586  0.4815 -0.3605  0.5738
 4042TIP3    H233686   6.048   0.148   0.437 -0.4082 -0.3674  0.6847
 4043TIP3   OH233687   1.137   2.858   8.033 -0.5028 -0.0317 -0.3386
 4043TIP3    H133688   1.216   2.909   8.052 -1.1499  0.3473  1.5581
 4043TIP3    H233689   1.163   2.767   8.048  0.3596 -0.2589 -2.7042
 4044TIP3   OH233690   6.184   1.896   6.949  0.5248  0.1994  0.1576
 4044TIP3    H133691   6.162   1.910   6.857 -1.6362 -3.7777 -0.1534
 4044TIP3    H233692   6.108   1.927   6.997  0.2286 -0.7305  0.3002
 4045TIP3   OH233693   4.268   6.192   1.959 -0.0776  0.9382  0.1566
 4045TIP3    H133694   4.333   6.139   1.913 -0.7706  0.2365 -0.0274
 4045TIP3    H233695   4.275   6.278   1.919 -0.9321  0.2545 -1.5514
 4046TIP3   OH233696   3.372   6.125   1.003 -0.0996 -0.5327  0.2450
 4046TIP3    H133697   3.391   6.067   0.929 -0.8340 -0.3927 -0.0676
 4046TIP3    H233698   3.313   6.191   0.966  2.6049  1.9123 -0.0742
 4047TIP3   OH233699   2.543   4.724   6.742  0.3920  0.4315 -0.1897
 4047TIP3    H133700   2.450   4.709   6.761  0.7553  1.3150  2.8445
 4047TIP3    H233701   2.583   4.637   6.747 -0.2344  0.0542 -1.4640
 4048TIP3   OH233702   3.613   0.402   1.652 -0.0948  0.0203 -0.0802
 4048TIP3    H133703   3.524   0.366   1.659 -0.1490  0.4749  1.9236
 4048TIP3    H233704   3.601   0.497   1.656  0.2265  0.3408 -3.3862
 4049TIP3   OH233705   4.408   3.557   7.686  0.3018  0.1942 -0.1022
 4049TIP3    H133706   4.439   3.577   7.774 -0.4112 -1.4635  0.5805
 4049TIP3    H233707   4.487   3.550   7.633  0.7142  1.6315  0.2919
 4050TIP3   OH233708   0.036   1.722   2.169 -0.1706 -0.1419  0.9670
 4050TIP3    H133709   0.108   1.696   2.226  0.4820  0.3297  0.3813
 4050TIP3    H233710   0.076   1.785   2.108 -0.4050 -1.8377 -1.0676
 4051TIP3   OH233711   4.607   3.046   7.268  0.2219  0.5769 -0.5459
 4051TIP3    H133712   4.664   2.997   7.208 -0.4367 -0.0454 -0.6708
 4051TIP3    H233713   4.532   2.989   7.282 -0.0397  1.0909  0.1918
 4052TIP3   OH233714   6.094   3.038   8.557 -0.4309 -0.4104  0.1840
 4052TIP3    H133715   6.114   3.058   8.466 -2.3432  1.1515  0.0406
 4052TIP3    H233716   6.054   2.951   8.554  0.7845 -0.9689 -0.2629
 4053TIP3   OH233717   6.334   4.605   8.104  0.3080  0.7579  0.3301
 4053TIP3    H133718   6.423   4.603   8.068  0.1867 -1.1504  0.0550
 4053TIP3    H233719   6.281   4.559   8.040 -0.0977 -1.8586  2.3765
 4054TIP3   OH233720   6.609   2.975   1.192  0.2849  0.4558 -0.2378
 4054TIP3    H133721   6.619   3.014   1.278  0.3874  0.0428 -0.0588
 4054TIP3    H233722   6.695   2.936   1.173  0.0988  0.0561 -0.2792
 4055TIP3   OH233723   2.819   6.017   6.448 -0.0964  0.0758 -0.6989
 4055TIP3    H133724   2.904   6.045   6.416  0.0065 -0.1315 -0.6099
 4055TIP3    H233725   2.814   5.924   6.427  0.4558 -0.3561  0.8949
 4056TIP3   OH233726   6.477   1.626   0.275  0.2030 -0.3857  0.3615
 4056TIP3    H133727   6.527   1.545   0.263  0.3891  0.0612 -3.1022
 4056TIP3    H233728   6.541   1.696   0.256 -1.2992  0.2238 -3.3829
 4057TIP3   OH233729   6.703   1.618   0.756 -0.1599 -0.4673 -0.0707
 4057TIP3    H133730   6.653   1.541   0.728  0.1021 -0.8486  0.4964
 4057TIP3    H233731   6.636   1.682   0.780 -0.4187  0.1957 -2.3454
 4058TIP3   OH233732   6.251   0.501   8.254 -0.4659  0.1589 -0.2180
 4058TIP3    H133733   6.281   0.410   8.251  2.3279  0.9640  0.8535
 4058TIP3    H233734   6.236   0.525   8.162  0.2558 -0.9148 -0.6315
 4059TIP3   OH233735   4.628   6.020   8.057 -0.5142  0.0307 -0.4007
 4059TIP3    H133736   4.657   6.110   8.040  0.7753 -0.3426 -0.2971
 4059TIP3    H233737   4.538   6.017   8.025  0.2727  0.6412 -2.8782
 4060TIP3   OH233738   3.447   3.362   6.213  0.4473 -0.2593  0.1385
 4060TIP3    H133739   3.442   3.267   6.203  0.5560 -0.2712  0.1941
 4060TIP3    H233740   3.476   3.393   6.127  1.4359 -0.3680  0.4221
 4061TIP3   OH233741   4.812   0.367   7.101  0.6700  0.0426  0.0760
 4061TIP3    H133742   4.722   0.346   7.075  0.6738 -0.0713  0.1573
 4061TIP3    H233743   4.841   0.431   7.036  0.7084 -0.3076 -0.2598
 4062TIP3   OH233744   5.675   4.234   0.689  0.5706 -0.1375 -0.0002
 4062TIP3    H133745   5.681   4.139   0.695 -1.5551 -0.3988 -1.3835
 4062TIP3    H233746   5.602   4.257   0.747 -0.0112  0.4671 -0.9638
 4063TIP3   OH233747   0.416   4.389   7.270 -0.7777  0.2867  0.5936
 4063TIP3    H133748   0.332   4.392   7.224  0.0601  0.5323 -0.9706
 4063TIP3    H233749   0.431   4.479   7.298 -0.1725  0.6385 -0.7851
 4064TIP3   OH233750   0.159   6.147   7.750 -0.0590 -0.5379 -0.7342
 4064TIP3    H133751   0.226   6.081   7.731  0.2699 -0.2523 -0.5888
 4064TIP3    H233752   0.077   6.107   7.723  0.1099 -1.0980 -0.4385
 4065TIP3   OH233753   3.160   3.929   2.094  0.4164  0.8275  0.3413
 4065TIP3    H133754   3.146   3.924   2.000 -0.0850  2.7578  0.2692
 4065TIP3    H233755   3.114   3.852   2.129 -1.6299  1.4528 -0.7866
 4066TIP3   OH233756   5.380   4.673   7.188 -0.0223 -0.4501  0.2548
 4066TIP3    H133757   5.407   4.582   7.175  0.9317 -0.3810  1.4921
 4066TIP3    H233758   5.461   4.723   7.182 -0.5064  0.2936 -0.1898
 4067TIP3   OH233759   5.259   5.687   0.279 -0.0574  0.0358  0.2008
 4067TIP3    H133760   5.257   5.765   0.333  1.0335  0.4433 -0.3258
 4067TIP3    H233761   5.309   5.712   0.201  2.1271 -1.7389  0.9082
 4068TIP3   OH233762   3.506   6.238   6.781 -0.6409  0.0202  0.2599
 4068TIP3    H133763   3.569   6.167   6.776 -0.1711  0.5080 -1.0852
 4068TIP3    H233764   3.434   6.211   6.724 -0.1607  0.8974 -0.7857
 4069TIP3   OH233765   0.641   5.639   7.867 -0.2869 -0.2401  0.2407
 4069TIP3    H133766   0.590   5.561   7.892  0.4594 -0.4479  1.2058
 4069TIP3    H233767   0.714   5.604   7.816 -0.0040 -0.1712  0.5929
 4070TIP3   OH233768   6.574   2.514   2.114  0.2655  0.0711  0.3997
 4070TIP3    H133769   6.604   2.549   2.030  2.1732  0.6509  1.2705
 4070TIP3    H233770   6.555   2.592   2.167  0.5374 -0.2612  0.9956
 4071TIP3   OH233771   5.524   2.386   1.366 -0.5912  0.1456  0.4517
 4071TIP3    H133772   5.609   2.410   1.402 -1.0397  0.3198  1.4181
 4071TIP3    H233773   5.539   2.377   1.272  0.4724  0.2512  0.6069
 4072TIP3   OH233774   2.512   0.723   6.859  0.4788 -0.0355  0.2667
 4072TIP3    H133775   2.434   0.755   6.813  0.7187 -1.1146 -0.9625
 4072TIP3    H233776   2.559   0.671   6.793  1.6880 -0.2899  1.2912
 4073TIP3   OH233777   6.564   1.429   7.779  0.0533  0.2801  0.1949
 4073TIP3    H133778   6.510   1.367   7.829  0.9956 -1.8059 -1.2417
 4073TIP3    H233779   6.525   1.430   7.692  0.9485  0.5388 -0.2151
 4074TIP3   OH233780   2.544   6.112   1.461 -0.1457  0.0070 -0.3647
 4074TIP3    H133781   2.546   6.043   1.394  1.4756 -0.4989  0.1805
 4074TIP3    H233782   2.593   6.185   1.423 -2.3435  1.1756 -1.1831
 4075TIP3   OH233783   6.302   1.649   7.032  0.1070  0.3228  0.0369
 4075TIP3    H133784   6.337   1.735   7.007 -0.2099  0.7252  0.9048
 4075TIP3    H233785   6.207   1.661   7.030 -0.0052 -0.5383 -1.5669
 4076TIP3   OH233786   4.626   2.840   8.733 -0.3765  0.2663 -0.0661
 4076TIP3    H133787   4.583   2.917   8.769  0.7947  1.2966 -0.7846
 4076TIP3    H233788   4.557   2.793   8.687 -1.4316  0.0376  1.6792
 4077TIP3   OH233789   1.611   0.025   8.728  0.8182 -0.5323 -0.0901
 4077TIP3    H133790   1.641  -0.020   8.807 -0.3166  0.2318  0.8079
 4077TIP3    H233791   1.516   0.023   8.733  0.7211  1.3982 -0.3251
 4078TIP3   OH233792   2.505   2.966   1.622  0.2501  0.3296 -0.4259
 4078TIP3    H133793   2.432   3.027   1.635 -0.3467 -0.5898  0.7706
 4078TIP3    H233794   2.572   2.996   1.682 -0.4168 -0.7129  0.8989
 4079TIP3   OH233795   4.241   5.702   1.260 -0.4597  0.1076 -0.2034
 4079TIP3    H133796   4.286   5.769   1.310  3.5100 -0.9046 -2.0164
 4079TIP3    H233797   4.274   5.619   1.295  0.1786 -0.6686 -2.4688
 4080TIP3   OH233798   6.557   4.130   0.562  0.3520  0.1347  0.4429
 4080TIP3    H133799   6.519   4.044   0.580  1.1213 -0.6046 -1.2732
 4080TIP3    H233800   6.483   4.190   0.565 -0.4138 -0.7812  0.3901
 4081TIP3   OH233801   0.429   5.007   8.497  0.0469  0.6220 -0.3062
 4081TIP3    H133802   0.347   4.994   8.450 -0.5033  1.5617  0.3498
 4081TIP3    H233803   0.451   5.099   8.482  1.9565 -0.0255 -1.9611
 4082TIP3   OH233804   6.185   3.528   8.105  0.4401  0.8830  0.0289
 4082TIP3    H133805   6.277   3.553   8.119 -0.2355  3.4376  0.2879
 4082TIP3    H233806   6.144   3.537   8.191 -0.5831  2.3133 -0.5766
 4083TIP3   OH233807   0.151   4.465   6.678  0.5207  0.2689  0.5118
 4083TIP3    H133808   0.189   4.384   6.713 -0.2142  0.0185  0.7606
 4083TIP3    H233809   0.181   4.468   6.587  0.9881 -0.0064  0.6515
 4084TIP3   OH233810   3.154   2.714   6.479  0.3636  0.1981 -0.4396
 4084TIP3    H133811   3.151   2.703   6.384 -0.5612  0.0702 -0.4031
 4084TIP3    H233812   3.070   2.681   6.510  0.0314  1.6248  0.2768
 4085TIP3   OH233813   5.769   0.016   7.098 -0.4197  0.0915 -0.5870
 4085TIP3    H133814   5.683   0.049   7.125  0.2242 -0.2851  2.3077
 4085TIP3    H233815   5.756  -0.078   7.088 -0.6383  0.2180 -1.5142
 4086TIP3   OH233816   3.165   1.447   0.349  0.3732 -0.3339 -0.3244
 4086TIP3    H133817   3.096   1.468   0.287 -1.7414 -0.2089  1.9249
 4086TIP3    H233818   3.235   1.509   0.329 -0.1706 -0.3744 -2.5962
 4087TIP3   OH233819   2.261   6.273   0.781  0.1037 -0.2260  0.1229
 4087TIP3    H133820   2.216   6.189   0.774 -0.9149  0.2206  0.9718
 4087TIP3    H233821   2.342   6.262   0.732  1.0917 -2.4764  2.0617
 4088TIP3   OH233822   0.718   4.517   1.140  0.1057 -0.4515 -0.2964
 4088TIP3    H133823   0.698   4.587   1.078  1.0837 -1.0155 -1.2823
 4088TIP3    H233824   0.732   4.440   1.085 -0.8005 -1.4043  0.7515
 4089TIP3   OH233825   5.750   1.999   1.589  0.4407 -0.4696 -0.1199
 4089TIP3    H133826   5.838   1.968   1.612 -0.0478 -2.9531 -1.2556
 4089TIP3    H233827   5.754   2.012   1.494  0.2541  1.9561  0.1516
 4090TIP3   OH233828   4.347   3.999   2.256 -0.1253  0.2604  0.0600
 4090TIP3    H133829   4.287   3.992   2.182 -1.0317  1.8637  0.6160
 4090TIP3    H233830   4.301   4.052   2.321  2.3643  2.7085 -0.0140
 4091TIP3   OH233831   2.526   5.547   0.541 -0.6356  0.5086 -0.1870
 4091TIP3    H133832   2.530   5.499   0.458  1.4186 -0.4966  0.4405
 4091TIP3    H233833   2.563   5.633   0.521  1.1359 -0.1887 -0.0614
 4092TIP3   OH233834   4.420   1.899   1.494  0.7763  0.3273  0.6546
 4092TIP3    H133835   4.442   1.978   1.446 -1.6495  1.4487  1.2046
 4092TIP3    H233836   4.375   1.844   1.430  0.8495  0.2064  0.7078
 4093TIP3   OH233837   2.681   0.469   0.453  0.5796 -0.7139  0.7306
 4093TIP3    H133838   2.740   0.524   0.401  0.6536 -1.1770  0.3119
 4093TIP3    H233839   2.681   0.385   0.408 -1.5208 -0.3307 -0.1020
 4094TIP3   OH233840   4.592   2.915   0.637 -0.5398  0.5629  0.4925
 4094TIP3    H133841   4.574   2.834   0.685  0.7118 -0.4155 -0.6031
 4094TIP3    H233842   4.581   2.890   0.545  1.1723  1.2675  0.0673
 4095TIP3   OH233843   3.723   4.776   0.237  0.5181 -0.4180 -0.1024
 4095TIP3    H133844   3.711   4.862   0.277  1.8357  1.5473 -3.5453
 4095TIP3    H233845   3.810   4.748   0.267  1.0062  0.4755 -0.6641
 4096TIP3   OH233846   5.219   3.832   6.484 -0.1262  0.2422  0.6761
 4096TIP3    H133847   5.313   3.833   6.502  0.4489 -0.3976 -1.9579
 4096TIP3    H233848   5.200   3.742   6.458 -1.3569  0.5161  0.5366
 4097TIP3   OH233849   3.104   6.448   6.391  1.0098  0.0844 -0.2359
 4097TIP3    H133850   3.176   6.505   6.364  0.4314  0.7452 -0.4384
 4097TIP3    H233851   3.065   6.418   6.309  2.1159 -1.6870 -0.1477
 4098TIP3   OH233852   3.626   3.213   0.740  0.0868 -0.0751  0.1312
 4098TIP3    H133853   3.712   3.218   0.782  0.6197  1.0611 -1.0197
 4098TIP3    H233854   3.616   3.297   0.696 -1.3143 -0.4621 -0.3514
 4099TIP3   OH233855   4.475   2.081   0.325  0.4150  0.2597  0.1063
 4099TIP3    H133856   4.434   2.110   0.407 -0.6157 -2.3749  0.6450
 4099TIP3    H233857   4.566   2.109   0.333 -0.2149  2.2514  0.9809
 4100TIP3   OH233858   5.182   3.907   1.113  0.0902 -0.1772 -0.6384
 4100TIP3    H133859   5.151   3.838   1.171  0.0511 -0.8385 -1.4320
 4100TIP3    H233860   5.235   3.964   1.170 -0.2302 -0.6135  0.1109
 4101TIP3   OH233861   0.742   5.570   1.115 -0.2564  0.1406  0.5683
 4101TIP3    H133862   0.806   5.626   1.157  1.4591  0.0440 -1.7251
 4101TIP3    H233863   0.698   5.627   1.051  0.3818 -0.6945 -0.6585
 4102TIP3   OH233864   5.980   0.779   0.670 -0.7125  0.6282  0.5923
 4102TIP3    H133865   6.045   0.723   0.628 -0.9089  1.2622 -0.6187
 4102TIP3    H233866   6.028   0.860   0.690 -0.7539  0.5295  1.0768
 4103TIP3   OH233867   5.030   0.735   7.133 -0.0307  0.0334 -0.2961
 4103TIP3    H133868   4.976   0.815   7.126  1.2622  0.9190 -0.4301
 4103TIP3    H233869   5.003   0.681   7.059 -0.5996  0.5405 -0.4691
 4104TIP3   OH233870   5.603   6.818   8.128 -0.2667 -0.4536 -0.0952
 4104TIP3    H133871   5.669   6.879   8.160 -1.4770  1.4304 -1.0293
 4104TIP3    H233872   5.644   6.732   8.136  1.8820  0.5521  0.3232
 4105TIP3   OH233873   4.090   2.529   0.101 -0.2159  0.1475  0.0179
 4105TIP3    H133874   4.071   2.582   0.178  1.9153  0.4256  0.4277
 4105TIP3    H233875   4.056   2.442   0.122 -1.4734  0.7173  0.3997
 4106TIP3   OH233876   3.016   5.262   1.116 -0.1430 -0.5100  0.1093
 4106TIP3    H133877   2.976   5.262   1.029  3.4725 -1.0527 -1.7691
 4106TIP3    H233878   3.064   5.345   1.120 -0.5137 -0.3436  1.7647
 4107TIP3   OH233879   2.937   0.797   1.901 -0.0376 -0.2756  0.2812
 4107TIP3    H133880   2.955   0.741   1.976  0.0303  1.4861  1.6553
 4107TIP3    H233881   2.877   0.864   1.935  0.7832  1.1569 -0.9507
 4108TIP3   OH233882   6.524   3.875   7.961  0.1622  0.6726  0.4573
 4108TIP3    H133883   6.537   3.784   7.987  0.5962  1.0044  1.4368
 4108TIP3    H233884   6.588   3.924   8.011  0.5841  1.4281 -0.7838
 4109TIP3   OH233885   5.753   6.052   1.159  0.3176  0.0831 -0.4219
 4109TIP3    H133886   5.699   5.987   1.114 -2.4007  1.2448  0.9259
 4109TIP3    H233887   5.771   6.013   1.244  0.2761  0.3328 -0.2982
 4110TIP3   OH233888   2.151   2.109   6.730 -0.4261 -0.7062 -0.0525
 4110TIP3    H133889   2.169   2.144   6.818  1.9477  0.1879 -0.8139
 4110TIP3    H233890   2.144   2.014   6.743  0.7731 -0.6786  1.0197
 4111TIP3   OH233891   3.886   4.945   1.500 -0.7320 -0.3772  0.1020
 4111TIP3    H133892   3.803   4.991   1.484 -2.2142 -2.1085  2.2295
 4111TIP3    H233893   3.912   4.974   1.588 -0.5437 -1.8393  0.5560
 4112TIP3   OH233894   0.997   0.908   8.593 -0.4665 -0.6267 -0.2865
 4112TIP3    H133895   1.029   0.998   8.598 -1.9410 -0.0964 -0.0513
 4112TIP3    H233896   1.066   0.857   8.636  0.7539  0.2657 -1.0962
 4113TIP3   OH233897   0.637   3.755   1.932 -0.6845  0.3951 -0.9398
 4113TIP3    H133898   0.731   3.772   1.923 -0.0778 -1.1261  1.4015
 4113TIP3    H233899   0.616   3.699   1.857  1.0665 -1.7363  0.0151
 4114TIP3   OH233900   2.181   3.601   7.299  0.1928 -0.4572  0.0546
 4114TIP3    H133901   2.100   3.621   7.346 -1.0789  0.3175 -2.2593
 4114TIP3    H233902   2.165   3.514   7.261  1.6372 -1.5700  1.8454
 4115TIP3   OH233903   1.629   6.536   8.363  0.5605  0.3104  0.3714
 4115TIP3    H133904   1.534   6.539   8.361  0.4527 -1.0989 -2.9181
 4115TIP3    H233905   1.655   6.619   8.403 -1.9964  0.1051  2.6813
 4116TIP3   OH233906   3.204   2.086   6.154  0.0663  0.0621 -0.0694
 4116TIP3    H133907   3.292   2.048   6.158 -0.0956 -0.2466  1.1003
 4116TIP3    H233908   3.174   2.069   6.065  0.9436 -0.3983 -0.2889
 4117TIP3   OH233909   3.096   2.488   0.898  0.0384  0.6613 -0.5973
 4117TIP3    H133910   3.156   2.509   0.970 -1.7754  1.0205  0.8859
 4117TIP3    H233911   3.083   2.394   0.904  1.2360  0.4109 -1.5966
 4118TIP3   OH233912   0.727   0.067   1.294  0.4802  0.2948  0.2180
 4118TIP3    H133913   0.699   0.120   1.368 -1.9225  0.0748 -0.4384
 4118TIP3    H233914   0.649   0.016   1.270  1.8449 -1.3625 -1.0060
 4119TIP3   OH233915   3.254   5.524   1.182  0.4076  0.5443  0.6041
 4119TIP3    H133916   3.317   5.464   1.223 -1.7287 -0.5242  2.5899
 4119TIP3    H233917   3.226   5.581   1.253 -2.3729 -0.4173  0.4049
 4120TIP3   OH233918   2.096   3.661   7.979 -0.4378 -0.5176  0.3081
 4120TIP3    H133919   2.107   3.726   7.909  2.7008 -0.5932  0.5882
 4120TIP3    H233920   2.035   3.597   7.943 -0.6339  0.6013 -1.4702
 4121TIP3   OH233921   6.123   3.077   8.267 -0.7785 -0.1041 -0.3335
 4121TIP3    H133922   6.184   3.144   8.237  0.8597  0.6050  3.9321
 4121TIP3    H233923   6.162   2.995   8.239  0.1287  0.4858 -0.8559
 4122TIP3   OH233924   0.771   0.712   7.232 -0.1278 -0.3860  0.0776
 4122TIP3    H133925   0.840   0.773   7.210 -0.9752  1.3495  1.9082
 4122TIP3    H233926   0.766   0.652   7.157  4.5442 -1.8208  0.5893
 4123TIP3   OH233927   4.952   2.997   2.283 -0.3245  0.4142 -0.2111
 4123TIP3    H133928   4.985   2.910   2.259 -1.3613 -0.4793  1.3634
 4123TIP3    H233929   4.997   3.018   2.365 -0.7352  0.9440 -0.1155
 4124TIP3   OH233930   0.079   1.243   6.631 -0.1101 -0.7489  0.0739
 4124TIP3    H133931   0.000   1.243   6.685 -0.7356 -1.9233 -0.7910
 4124TIP3    H233932   0.120   1.328   6.648 -1.8924  0.1513  0.0628
 4125TIP3   OH233933   6.532   3.795   1.523  0.1024 -0.1035 -0.1392
 4125TIP3    H133934   6.438   3.793   1.536 -0.1254 -1.6649 -1.6237
 4125TIP3    H233935   6.568   3.824   1.607 -1.7221  1.6897  0.0860
 4126TIP3   OH233936   0.325   2.828   6.519  0.7850 -0.0021  0.2923
 4126TIP3    H133937   0.277   2.746   6.526  1.0431 -0.2247 -0.4319
 4126TIP3    H233938   0.417   2.802   6.508  0.9741  0.4027  0.8225
 4127TIP3   OH233939   0.947   6.772   1.252  0.6173 -0.2950 -0.5273
 4127TIP3    H133940   0.881   6.836   1.279  1.2829 -0.7271  2.4566
 4127TIP3    H233941   0.901   6.688   1.256  0.3961 -0.2929 -2.1484
 4128TIP3   OH233942   1.734   0.330   8.237  0.0953  0.2585 -0.4428
 4128TIP3    H133943   1.664   0.380   8.279 -0.7675 -1.7107  0.6505
 4128TIP3    H233944   1.801   0.321   8.305 -1.0386 -2.4125  0.5046
 4129TIP3   OH233945   2.102   4.186   8.376  0.3311  0.2569  0.0927
 4129TIP3    H133946   2.103   4.257   8.441  1.5382  0.8387 -0.5273
 4129TIP3    H233947   2.045   4.218   8.307 -0.3491 -0.0389  0.5103
 4130TIP3   OH233948   2.115   1.227   8.666 -0.3722  0.1511  0.1415
 4130TIP3    H133949   2.079   1.315   8.654 -1.4096 -0.4700 -1.7769
 4130TIP3    H233950   2.039   1.169   8.664  0.2401 -0.7826  1.9119
 4131TIP3   OH233951   3.914   1.710   2.373  0.0975 -0.4925 -0.1830
 4131TIP3    H133952   3.987   1.741   2.319  0.9179 -0.7099  0.7744
 4131TIP3    H233953   3.937   1.737   2.461 -2.2241  1.7228 -0.1648
 4132TIP3   OH233954   2.746   3.971   8.521  0.1749 -0.0003 -0.3764
 4132TIP3    H133955   2.730   4.011   8.435 -2.2973  2.3716  1.0419
 4132TIP3    H233956   2.817   4.024   8.559 -0.0106  0.1559 -0.2451
 4133TIP3   OH233957   5.639   2.735   0.186  0.0305  0.1624 -0.0948
 4133TIP3    H133958   5.592   2.742   0.269 -0.5473  1.3697 -0.4921
 4133TIP3    H233959   5.712   2.796   0.195  0.1091  0.1109 -0.3796
 4134TIP3   OH233960   2.155   5.117   1.384 -0.5162 -0.5296  0.7175
 4134TIP3    H133961   2.177   5.062   1.309 -1.1387  0.0138  0.1126
 4134TIP3    H233962   2.062   5.136   1.373 -0.0926  1.6158  0.2002
 4135TIP3   OH233963   1.489   5.821   0.253 -0.0856  0.3326  0.8184
 4135TIP3    H133964   1.514   5.905   0.215 -0.3889  1.0143  2.0542
 4135TIP3    H233965   1.572   5.774   0.264 -0.0507 -0.1949 -1.2888
 4136TIP3   OH233966   0.005   5.166   7.779 -0.3570 -0.0046 -0.1699
 4136TIP3    H133967   0.059   5.092   7.808 -0.0525  0.7560  1.2925
 4136TIP3    H233968  -0.062   5.175   7.847 -2.3113 -0.8425 -1.8729
 4137TIP3   OH233969   1.053   2.557   0.441  0.4391  0.1527  0.1558
 4137TIP3    H133970   1.046   2.559   0.537  0.0564  0.8706  0.1191
 4137TIP3    H233971   0.973   2.512   0.413  0.9619 -0.8234  0.2079
 4138TIP3   OH233972   1.555   3.972   8.268  0.6223 -0.7583  0.4940
 4138TIP3    H133973   1.562   3.925   8.186 -1.0294  0.3008 -0.2991
 4138TIP3    H233974   1.474   3.941   8.308 -0.1324  0.8277  0.2839
 4139TIP3   OH233975   4.504   2.669   6.278  0.4066 -0.5901 -0.3793
 4139TIP3    H133976   4.589   2.631   6.298  0.3828 -0.9511 -0.9276
 4139TIP3    H233977   4.462   2.604   6.221 -1.1430 -1.4795  1.6391
 4140TIP3   OH233978   2.332   2.761   8.525  0.7638  0.5687 -0.2641
 4140TIP3    H133979   2.381   2.780   8.605  0.2444  0.0682  0.1804
 4140TIP3    H233980   2.384   2.801   8.456  1.7396  0.1589  0.2078
 4141TIP3   OH233981   3.908   5.387   6.006  0.3430 -0.0469  0.5299
 4141TIP3    H133982   3.899   5.379   5.911  1.7391  1.0022  0.2892
 4141TIP3    H233983   3.997   5.358   6.025  0.5829  1.1393  1.3331
 4142TIP3   OH233984   3.022   5.869   0.336 -0.2180 -0.1355  0.2584
 4142TIP3    H133985   3.007   5.815   0.414 -2.2852  0.6043  0.4486
 4142TIP3    H233986   3.115   5.860   0.318  0.7332  0.9570  3.8015
 4143TIP3   OH233987   1.456   5.277   8.401  0.1211 -0.0721 -0.0707
 4143TIP3    H133988   1.434   5.347   8.339  1.1453 -0.1822 -0.5728
 4143TIP3    H233989   1.464   5.199   8.346 -0.7087 -0.5427  0.4473
 4144TIP3   OH233990   3.620   1.836   8.596 -0.0578 -0.6022  0.7163
 4144TIP3    H133991   3.638   1.920   8.639  0.7878 -0.0942 -0.5593
 4144TIP3    H233992   3.569   1.860   8.518 -0.9557 -1.4224  1.0406
 4145TIP3   OH233993   5.571   1.360   7.962 -0.5695 -0.5539 -0.1580
 4145TIP3    H133994   5.621   1.420   8.018 -0.1882 -1.1598  0.1654
 4145TIP3    H233995   5.508   1.416   7.916 -0.2639  0.0798  0.1858
 4146TIP3   OH233996   4.543   5.102   1.031  0.2332  0.7358 -0.5697
 4146TIP3    H133997   4.470   5.155   1.061 -1.1093 -1.2214 -0.1885
 4146TIP3    H233998   4.576   5.059   1.111  1.3074  0.9611 -0.8653
 4147TIP3   OH233999   0.125   3.779   0.751 -0.0556  0.4181 -0.4145
 4147TIP3    H134000   0.097   3.699   0.706  0.8976 -0.7388  0.9455
 4147TIP3    H234001   0.210   3.799   0.712  0.5382 -0.2959  0.4763
 4148TIP3   OH234002   5.213   6.799   0.090 -0.0492 -0.0176 -0.1604
 4148TIP3    H134003   5.247   6.885   0.116  0.6084 -0.7537  1.4729
 4148TIP3    H234004   5.120   6.816   0.072  0.2675  1.2051 -0.8123
 4149TIP3   OH234005   1.483   3.520   2.077  0.2740 -0.6808  0.1987
 4149TIP3    H134006   1.402   3.474   2.055  0.3833 -0.9243  0.2970
 4149TIP3    H234007   1.508   3.483   2.162 -0.1399  0.2405  0.7331
 4150TIP3   OH234008   0.487   1.638   6.765 -0.2522  0.1571  0.2600
 4150TIP3    H134009   0.473   1.691   6.687 -0.2699 -2.8259 -1.9410
 4150TIP3    H234010   0.401   1.601   6.785 -0.1778  0.6115  1.5098
 4151TIP3   OH234011   0.416   2.624   6.172  0.0310 -0.0459  0.1216
 4151TIP3    H134012   0.448   2.670   6.250 -1.0859 -1.0710  1.2388
 4151TIP3    H234013   0.474   2.652   6.102 -0.5870  3.0325  0.7134
 4152TIP3   OH234014   1.808   4.617   7.242  0.6668  0.3830  0.0323
 4152TIP3    H134015   1.841   4.598   7.154 -1.0395  1.4093 -0.8913
 4152TIP3    H234016   1.735   4.678   7.228  0.2459  0.4680  2.1579
 4153TIP3   OH234017   1.739   2.673   6.678  0.1954  0.5065  0.3134
 4153TIP3    H134018   1.765   2.622   6.601  2.0575  1.7703  0.0411
 4153TIP3    H234019   1.681   2.740   6.643 -0.4217 -0.0151  0.3177
 4154TIP3   OH234020   3.709   6.601   1.021 -0.7047 -0.1783  0.1239
 4154TIP3    H134021   3.710   6.506   1.019 -0.3047 -0.1591 -1.1317
 4154TIP3    H234022   3.677   6.627   0.934 -1.0290  0.8279  0.5277
 4155TIP3   OH234023   0.058   4.150   6.993  0.1739  0.2715  0.5368
 4155TIP3    H134024   0.112   4.197   6.929 -1.5410  1.0696 -0.3773
 4155TIP3    H234025   0.036   4.068   6.951  1.4567 -0.5184  1.3229
 4156TIP3   OH234026   3.167   5.843   6.275  0.4101  0.3546  0.1637
 4156TIP3    H134027   3.197   5.763   6.232 -0.1667  0.9544 -1.4427
 4156TIP3    H234028   3.222   5.912   6.237 -0.4547  0.9674  0.0059
 4157TIP3   OH234029   0.496   5.550   6.793  0.5480  0.0108  0.1127
 4157TIP3    H134030   0.585   5.569   6.764  0.7269 -0.1145  0.5665
 4157TIP3    H234031   0.468   5.477   6.737  0.7045  0.0960 -0.0782
 4158TIP3   OH234032   2.115   5.537   6.130  0.0419  0.0304 -0.4404
 4158TIP3    H134033   2.036   5.489   6.106  0.1792 -0.8763  0.7923
 4158TIP3    H234034   2.187   5.479   6.105  0.3885  1.1758 -2.2585
 4159TIP3   OH234035   2.843   0.803   8.303  0.0674  0.8408 -0.0457
 4159TIP3    H134036   2.769   0.838   8.353  0.1755  1.7016 -0.4658
 4159TIP3    H234037   2.888   0.881   8.269  0.2438  0.2906 -1.1137
 4160TIP3   OH234038   4.986   1.309   2.270  0.1078  0.1345  0.4876
 4160TIP3    H134039   4.934   1.242   2.226 -0.2166  0.6185  0.1283
 4160TIP3    H234040   5.019   1.265   2.349  0.5120 -0.6697 -0.1108
 4161TIP3   OH234041   5.843   0.131   8.155  0.4679  0.5716 -0.2560
 4161TIP3    H134042   5.893   0.072   8.099  0.1200 -0.3883  0.4229
 4161TIP3    H234043   5.894   0.138   8.236 -0.7022 -0.8223  0.6426
 4162TIP3   OH234044   1.031   5.169   0.021  0.1960 -0.4725 -0.1708
 4162TIP3    H134045   1.055   5.232   0.089 -0.8717  0.4643 -0.6206
 4162TIP3    H234046   1.045   5.216  -0.061  1.1247 -1.4624 -0.5941
 4163TIP3   OH234047   4.731   4.299   7.119  0.1148  0.5838 -0.2714
 4163TIP3    H134048   4.789   4.258   7.056 -0.5215 -1.1260  0.2011
 4163TIP3    H234049   4.744   4.393   7.107 -0.7905  0.3985 -3.7427
 4164TIP3   OH234050   2.169   4.729   7.966 -0.7345  0.1987  0.9853
 4164TIP3    H134051   2.248   4.776   7.993 -1.5915  1.6758  1.0260
 4164TIP3    H234052   2.118   4.794   7.917 -1.6859 -0.8803  0.5000
 4165TIP3   OH234053   3.459   1.649   8.704 -0.4966  0.1478  0.0595
 4165TIP3    H134054   3.389   1.695   8.751  1.0323  0.6220  1.9591
 4165TIP3    H234055   3.521   1.717   8.680  1.1050 -0.6812  1.6559
 4166TIP3   OH234056   5.503   2.609   1.080  0.0839 -0.5184  0.1470
 4166TIP3    H134057   5.414   2.639   1.064  0.0665  0.6622  2.2019
 4166TIP3    H234058   5.555   2.652   1.011 -0.1418  3.3998  2.1404
 4167TIP3   OH234059   0.064   2.017   6.558 -0.7677 -0.1300  0.6966
 4167TIP3    H134060   0.026   1.931   6.573 -1.5779  0.2741  0.9857
 4167TIP3    H234061   0.003   2.079   6.598  0.4794  0.5030  1.6910
 4168TIP3   OH234062   2.712   4.969   0.047 -0.8516 -0.2985 -0.3765
 4168TIP3    H134063   2.799   4.962   0.007 -0.3075 -0.3320  0.7699
 4168TIP3    H234064   2.682   4.878   0.054 -0.2725 -0.4226  0.6959
 4169TIP3   OH234065   3.084   6.477   6.671  0.0458  0.0387  0.0516
 4169TIP3    H134066   3.176   6.487   6.693  0.5119  0.6482 -1.9412
 4169TIP3    H234067   3.084   6.455   6.578 -1.8256  0.3711 -0.0703
 4170TIP3   OH234068   0.521   3.175   8.624  0.0248 -0.2260 -0.6091
 4170TIP3    H134069   0.548   3.267   8.634  1.2508 -0.7904  2.0011
 4170TIP3    H234070   0.430   3.174   8.655  0.2185 -0.0035 -0.0220
 4171TIP3   OH234071   2.877   0.720   0.588 -0.0033 -0.2125  0.3503
 4171TIP3    H134072   2.949   0.770   0.626 -0.9324  2.4924 -1.2055
 4171TIP3    H234073   2.822   0.696   0.663 -0.0612  2.0734  1.1134
 4172TIP3   OH234074   5.886   3.368   0.250 -0.0644  0.4440  0.3897
 4172TIP3    H134075   5.965   3.394   0.203 -0.8073  1.7493 -0.1862
 4172TIP3    H234076   5.915   3.354   0.340  1.0435 -0.3275 -0.0667
 4173TIP3   OH234077   6.031   6.188   0.366 -0.2560 -0.1949 -0.1017
 4173TIP3    H134078   6.053   6.160   0.277 -0.0748 -1.2308  0.2557
 4173TIP3    H234079   5.968   6.123   0.396 -0.1904  0.0564  0.5958
 4174TIP3   OH234080   0.211   4.949   6.420 -0.4759 -0.3181  0.3708
 4174TIP3    H134081   0.278   4.944   6.351 -0.6611 -0.4176  0.1992
 4174TIP3    H234082   0.241   5.020   6.477 -2.0440  2.1607 -1.6697
 4175TIP3   OH234083   2.411   2.828   6.618  0.0398  0.0626  0.1683
 4175TIP3    H134084   2.344   2.890   6.590 -0.1510 -1.0663 -2.0868
 4175TIP3    H234085   2.440   2.860   6.704 -2.9299  0.9317  0.9448
 4176TIP3   OH234086   1.133   4.987   8.029  0.2332  0.2326 -0.3838
 4176TIP3    H134087   1.182   5.066   8.009  1.8773 -0.3497  1.1422
 4176TIP3    H234088   1.046   5.018   8.054 -0.2090  1.2882 -2.8901
 4177TIP3   OH234089   2.394   1.624   1.958  0.4334 -0.5954 -0.3135
 4177TIP3    H134090   2.403   1.719   1.952  1.9062 -0.7123 -0.2343
 4177TIP3    H234091   2.308   1.611   1.998 -0.0153  0.6786 -0.7955
 4178TIP3   OH234092   6.079   1.076   1.376 -0.0551  0.1904 -0.3096
 4178TIP3    H134093   6.172   1.096   1.375  0.3063 -0.9379  2.2023
 4178TIP3    H234094   6.055   1.080   1.469 -1.7805 -2.5222 -0.5211
 4179TIP3   OH234095   3.190   5.148   0.304  0.4442  0.0347  0.5527
 4179TIP3    H134096   3.183   5.191   0.390  0.1871  0.0788  0.5109
 4179TIP3    H234097   3.179   5.219   0.241 -0.5480 -0.1688  0.4806
 4180TIP3   OH234098   0.737   0.799   1.096  0.2093 -0.0293  0.1857
 4180TIP3    H134099   0.764   0.736   1.163  1.1483 -0.0525 -0.2083
 4180TIP3    H234100   0.696   0.745   1.028 -2.9172  0.1857  1.7313
 4181TIP3   OH234101   3.885   0.783   7.215 -0.2401  0.1196 -0.0730
 4181TIP3    H134102   3.914   0.695   7.195 -0.3034  0.0379  0.1909
 4181TIP3    H234103   3.792   0.774   7.238 -0.3703  0.3196 -0.5065
 4182TIP3   OH234104   0.032   2.568   0.401 -0.2303 -0.2488  0.3298
 4182TIP3    H134105   0.082   2.649   0.412  0.7145 -0.4316 -2.1278
 4182TIP3    H234106   0.007   2.544   0.490  0.4169  2.1327  1.2320
 4183TIP3   OH234107   5.017   5.698   0.787  0.5711  0.7329 -0.1211
 4183TIP3    H134108   4.937   5.678   0.837  1.1770 -0.6420  0.3542
 4183TIP3    H234109   4.990   5.693   0.695  0.6428 -2.6382 -0.0844
 4184TIP3   OH234110   0.418   3.566   1.397  0.3427  0.3329  0.3880
 4184TIP3    H134111   0.347   3.507   1.422  0.1162  0.0997 -0.7807
 4184TIP3    H234112   0.375   3.643   1.362  0.6578  0.6579  0.7074
 4185TIP3   OH234113   0.332   2.838   8.386  0.3197  0.3730 -0.3379
 4185TIP3    H134114   0.351   2.747   8.360  1.2346  0.2004  0.8273
 4185TIP3    H234115   0.368   2.891   8.316 -0.3544 -0.1504 -1.1087
 4186TIP3   OH234116   4.687   4.177   8.531 -0.3868  0.1703 -0.0102
 4186TIP3    H134117   4.627   4.187   8.457 -1.7814  2.9798  1.3407
 4186TIP3    H234118   4.761   4.234   8.509 -0.0169 -0.2727  0.0651
 4187TIP3   OH234119   3.495   1.870   1.065 -0.4189  0.1565  0.4428
 4187TIP3    H134120   3.555   1.797   1.048  0.5434  0.8357  0.8653
 4187TIP3    H234121   3.426   1.860   0.999  0.2024 -0.5838 -0.1119
 4188TIP3   OH234122   3.498   1.810   7.299 -0.3706 -1.0711 -0.1125
 4188TIP3    H134123   3.497   1.735   7.357  0.6642 -0.2626  1.0014
 4188TIP3    H234124   3.582   1.804   7.252 -0.6206 -1.0196 -0.5735
 4189TIP3   OH234125   4.887   1.941   1.033  0.0542 -0.6047 -0.0746
 4189TIP3    H134126   4.934   1.953   0.951  0.5523 -2.1063 -0.0464
 4189TIP3    H234127   4.809   1.996   1.025 -0.1190 -1.0412 -1.7212
 4190TIP3   OH234128   4.863   0.929   7.160  0.1970  0.1626  0.1895
 4190TIP3    H134129   4.814   0.887   7.089  0.3897  0.2525 -0.0003
 4190TIP3    H234130   4.798   0.982   7.206  0.4409  1.7333 -1.1768
 4191TIP3   OH234131   3.097   3.888   8.514  0.0078  0.4092 -0.2184
 4191TIP3    H134132   3.052   3.966   8.548  1.4372  1.3105 -0.3149
 4191TIP3    H234133   3.037   3.853   8.448 -1.3832  0.4719  0.9657
 4192TIP3   OH234134   2.379   5.559   8.538 -0.2515 -0.0076 -0.3015
 4192TIP3    H134135   2.340   5.624   8.479 -0.6236  0.0409 -0.0052
 4192TIP3    H234136   2.464   5.540   8.499 -0.0156  0.8743 -0.2391
 4193TIP3   OH234137   0.834   4.003   8.278 -0.0913 -0.2334  0.7640
 4193TIP3    H134138   0.811   3.970   8.365 -1.2758 -1.4768  0.0278
 4193TIP3    H234139   0.761   4.061   8.256 -0.7475 -1.3457 -0.1073
 4194TIP3   OH234140   4.773   1.949   1.507 -0.0051  0.2673  0.8973
 4194TIP3    H134141   4.742   1.936   1.597 -0.6148  0.4342  0.7135
 4194TIP3    H234142   4.861   1.912   1.507 -0.7521 -1.5988  1.0441
 4195TIP3   OH234143   1.829   0.555   2.056  0.7046 -0.7697 -0.0319
 4195TIP3    H134144   1.811   0.494   2.128 -0.9535  0.9128  1.0708
 4195TIP3    H234145   1.823   0.642   2.096  1.3049  0.1938 -1.8977
 4196TIP3   OH234146   1.896   5.743   6.821 -0.3284  0.1537  0.3237
 4196TIP3    H134147   1.863   5.785   6.742  0.7670 -0.8282 -0.6887
 4196TIP3    H234148   1.949   5.670   6.789  0.0777 -0.3102  1.9701
 4197TIP3   OH234149   5.660   0.898   0.580 -0.2263  0.2985  0.0136
 4197TIP3    H134150   5.701   0.835   0.640 -0.2081  0.2976  0.0002
 4197TIP3    H234151   5.568   0.899   0.605 -0.9793 -2.2585 -2.1015
 4198TIP3   OH234152   3.112   1.240   8.255 -0.2842 -0.3975  0.2852
 4198TIP3    H134153   3.174   1.221   8.325  2.3962  1.5768 -1.3692
 4198TIP3    H234154   3.085   1.331   8.271  1.6014  0.6574 -1.9568
 4199TIP3   OH234155   1.439   6.719   1.112 -0.0232 -0.4133  0.6800
 4199TIP3    H134156   1.365   6.680   1.067  0.4760 -0.3109 -0.2658
 4199TIP3    H234157   1.433   6.812   1.091  1.6363 -0.6833 -1.3920
 4200TIP3   OH234158   4.219   0.915   7.990 -0.0062 -0.0497  0.2919
 4200TIP3    H134159   4.169   0.921   7.909  0.2825 -1.0563  0.0168
 4200TIP3    H234160   4.158   0.877   8.053  0.2543 -0.8504  0.0785
 4201TIP3   OH234161   2.602   0.297   0.939 -0.4507  0.3303  0.4323
 4201TIP3    H134162   2.613   0.345   0.857  0.7138 -1.5213 -0.5631
 4201TIP3    H234163   2.689   0.262   0.958 -1.3826 -2.1159  0.5818
 4202TIP3   OH234164   2.175   4.275   1.391 -0.0160 -0.1696 -0.3774
 4202TIP3    H134165   2.207   4.291   1.480 -0.1205 -0.2125 -0.3315
 4202TIP3    H234166   2.233   4.325   1.335  0.6285 -0.8922 -0.3631
 4203TIP3   OH234167   3.748   3.008   6.608 -0.1861  0.1192 -0.3001
 4203TIP3    H134168   3.656   3.011   6.582  0.2294  0.6996 -1.8304
 4203TIP3    H234169   3.787   2.940   6.554  0.3625  0.1200  0.0760
 4204TIP3   OH234170   2.653   0.206   8.198  0.0654  0.2018  0.2890
 4204TIP3    H134171   2.641   0.299   8.180  0.5884  0.1600 -0.3391
 4204TIP3    H234172   2.593   0.163   8.137 -0.7092  0.1359  1.0779
 4205TIP3   OH234173   3.837   0.392   0.026  0.0483 -0.2458  0.0825
 4205TIP3    H134174   3.919   0.434  -0.003 -1.1060  0.5025 -2.3291
 4205TIP3    H234175   3.798   0.456   0.085 -0.4280  1.0085 -1.5121
 4206TIP3   OH234176   4.226   5.468   7.920  0.3819  0.0563 -0.1236
 4206TIP3    H134177   4.287   5.469   7.994  0.1846  0.3332  0.0361
 4206TIP3    H234178   4.262   5.403   7.860  1.0523  0.4960 -0.2125
 4207TIP3   OH234179   2.650   6.534   8.330 -0.1981  0.1960 -0.2218
 4207TIP3    H134180   2.623   6.617   8.291  0.1513  0.2522 -0.3500
 4207TIP3    H234181   2.580   6.511   8.390 -1.8179 -0.9603 -2.4015
 4208TIP3   OH234182   0.469   1.963   0.060  0.1524 -0.6003  0.1931
 4208TIP3    H134183   0.504   1.916   0.135  1.4890 -0.8816 -0.5854
 4208TIP3    H234184   0.437   1.894   0.001 -0.9278 -0.3807  0.4967
 4209TIP3   OH234185   2.665   2.600   6.681  0.1498  0.4392 -0.1566
 4209TIP3    H134186   2.758   2.616   6.667 -0.2218  2.3817 -0.7285
 4209TIP3    H234187   2.645   2.523   6.629  1.3791  0.1714 -0.2477
 4210TIP3   OH234188   3.342   5.639   7.952 -0.5622 -0.4896 -0.2950
 4210TIP3    H134189   3.391   5.712   7.914  0.8413 -1.1163  0.2502
 4210TIP3    H234190   3.395   5.562   7.934 -0.5176 -0.9866  1.7271
 4211TIP3   OH234191   0.009   4.011   7.306 -0.1862  0.2523 -0.0714
 4211TIP3    H134192  -0.006   4.104   7.323 -0.5444  0.5030 -1.5808
 4211TIP3    H234193   0.095   4.008   7.263 -0.7014  0.0231 -1.0940
 4212TIP3   OH234194   0.591   1.628   7.546 -0.3295  0.3513 -0.3152
 4212TIP3    H134195   0.527   1.566   7.580 -0.6635  0.8331 -0.0588
 4212TIP3    H234196   0.600   1.604   7.453 -1.8828  1.1097 -0.6900
 4213TIP3   OH234197   0.089   1.384   1.794  0.3233 -0.0972  0.2237
 4213TIP3    H134198   0.125   1.472   1.795  0.1999 -0.0376  1.4593
 4213TIP3    H234199   0.134   1.340   1.722  1.2221  0.6345  0.3233
 4214TIP3   OH234200   3.717   0.510   1.888 -0.3675 -0.3339  0.1168
 4214TIP3    H134201   3.771   0.440   1.850 -1.6288 -1.1601 -0.2004
 4214TIP3    H234202   3.632   0.469   1.903 -0.6327  0.6727  1.5310
 4215TIP3   OH234203   4.494   5.158   7.842 -0.0881  0.2122  0.0597
 4215TIP3    H134204   4.450   5.241   7.861  1.4309  0.7696  1.4440
 4215TIP3    H234205   4.557   5.179   7.773 -1.5444 -0.4560 -1.5315
 4216TIP3   OH234206   1.114   0.293   8.092  0.2035  0.3730  0.1360
 4216TIP3    H134207   1.126   0.259   8.181  0.6071 -0.6355 -0.2930
 4216TIP3    H234208   1.030   0.258   8.064 -0.1639  1.1085  0.2980
 4217TIP3   OH234209   5.797   4.754   0.005  0.0278 -0.2721  0.6955
 4217TIP3    H134210   5.841   4.719  -0.073  2.0717  1.5770  0.9172
 4217TIP3    H234211   5.732   4.815  -0.030 -1.7319 -2.1852  0.4058
 4218TIP3   OH234212   1.715   6.050   6.368  0.2284  0.0071 -0.0769
 4218TIP3    H134213   1.760   6.133   6.386 -0.5396  0.4799 -0.3052
 4218TIP3    H234214   1.765   6.012   6.296 -0.0903  0.8241 -0.7472
 4219TIP3   OH234215   5.704   5.201   0.146  0.2337 -0.3028  0.2130
 4219TIP3    H134216   5.653   5.277   0.120  2.4724  1.0694 -0.4946
 4219TIP3    H234217   5.653   5.126   0.115 -1.3995  0.9422 -0.2549
 4220TIP3   OH234218   2.245   4.042   1.237 -0.2111  0.7002  0.3857
 4220TIP3    H134219   2.164   4.004   1.203  0.4369 -2.2945  1.8672
 4220TIP3    H234220   2.220   4.129   1.268 -2.1534  1.0073 -1.8040
 4221TIP3   OH234221   5.460   4.161   5.905  0.2590 -0.2990  0.4230
 4221TIP3    H134222   5.488   4.154   5.996 -0.2955  0.9565  0.7047
 4221TIP3    H234223   5.463   4.254   5.885  1.9007 -0.6555 -1.3485
 4222TIP3   OH234224   5.471   6.559   7.813  0.1955  0.1847  0.6603
 4222TIP3    H134225   5.566   6.563   7.806  0.0833  1.9270 -0.2694
 4222TIP3    H234226   5.454   6.478   7.861  2.0271 -1.5252 -1.3606
 4223TIP3   OH234227   5.620   4.377   0.192  0.6762  0.4532  0.0565
 4223TIP3    H134228   5.597   4.333   0.275 -1.6693  0.9905 -0.2395
 4223TIP3    H234229   5.615   4.308   0.126 -0.1769  0.5632 -0.0039
 4224TIP3   OH234230   6.447   1.478   2.238 -0.8118 -0.6958  0.4957
 4224TIP3    H134231   6.489   1.417   2.178  1.8358 -1.2819  2.7021
 4224TIP3    H234232   6.360   1.441   2.254 -1.2301 -0.9947 -2.1560
 4225TIP3   OH234233   4.979   4.431   0.689 -1.1922 -0.4577 -0.2172
 4225TIP3    H134234   4.896   4.466   0.721 -0.7438  1.0834 -0.6073
 4225TIP3    H234235   5.005   4.492   0.619 -0.6122 -1.9332 -1.3485
 4226TIP3   OH234236   6.789   3.190   7.211 -0.2724  0.6066 -0.0578
 4226TIP3    H134237   6.866   3.246   7.222 -0.5107  0.9722 -0.2023
 4226TIP3    H234238   6.772   3.190   7.117  0.4439 -0.7131 -0.2052
 4227TIP3   OH234239   1.908   1.400   6.648 -0.9983 -0.8645  0.0630
 4227TIP3    H134240   1.900   1.312   6.684 -1.1004 -2.2671 -3.0396
 4227TIP3    H234241   1.990   1.399   6.600 -1.9517  0.0233 -1.6727
 4228TIP3   OH234242   2.218   1.622   2.587 -0.0360 -0.0911 -0.2114
 4228TIP3    H134243   2.136   1.632   2.636  0.9564  0.3298  1.4642
 4228TIP3    H234244   2.199   1.659   2.501 -2.0060 -1.2810 -0.3549
 4229TIP3   OH234245   3.139   0.446   0.853  0.3065  0.4878  0.7004
 4229TIP3    H134246   3.150   0.424   0.945  2.9885  2.9436  1.1263
 4229TIP3    H234247   3.152   0.363   0.807  0.5248 -0.5072  2.4645
 4230TIP3   OH234248   2.802   3.171   7.174 -0.0826  0.8630 -0.7368
 4230TIP3    H134249   2.785   3.086   7.214 -0.1353  1.0285 -0.4137
 4230TIP3    H234250   2.887   3.160   7.131  0.5189  1.0316  0.3767
 4231TIP3   OH234251   4.999   6.125   1.421  0.3001 -0.0697  0.4931
 4231TIP3    H134252   4.909   6.094   1.424  0.3234 -0.1065  0.9214
 4231TIP3    H234253   5.031   6.115   1.511  0.5033  0.6191  0.5044
 4232TIP3   OH234254   5.011   0.386   1.354 -0.3260 -0.3281 -0.0079
 4232TIP3    H134255   4.954   0.316   1.324 -1.8573  1.2573 -0.9806
 4232TIP3    H234256   4.954   0.462   1.364  1.3763  0.9963  0.2693
 4233TIP3   OH234257   6.491   0.531   7.900  0.5409  0.1527  0.2322
 4233TIP3    H134258   6.401   0.535   7.933 -0.0232 -1.4224 -0.9478
 4233TIP3    H234259   6.544   0.571   7.968 -0.9891  0.5227  1.2485
 4234TIP3   OH234260   5.941   5.055   0.848 -0.6313 -0.4434  0.2047
 4234TIP3    H134261   5.869   5.099   0.804 -0.0860  0.9981  0.6797
 4234TIP3    H234262   5.962   5.112   0.922  1.2479 -0.5956 -0.1548
 4235TIP3   OH234263   2.254   1.820   1.742  0.1835  0.4693  0.5978
 4235TIP3    H134264   2.197   1.892   1.714 -0.9815 -0.7501 -0.2832
 4235TIP3    H234265   2.305   1.856   1.815 -0.6053  2.0670  0.3933
 4236TIP3   OH234266   5.288   5.596   8.043 -0.8347  0.4876 -0.1266
 4236TIP3    H134267   5.245   5.616   8.125 -0.3258  2.5579 -0.3079
 4236TIP3    H234268   5.222   5.612   7.976 -0.8770  0.0008 -0.2096
 4237TIP3   OH234269   1.089   5.333   0.237  0.2409 -0.3634  0.2386
 4237TIP3    H134270   1.082   5.427   0.257 -1.1548 -0.2457 -0.6479
 4237TIP3    H234271   1.151   5.299   0.301  1.7648  1.3957 -0.2253
 4238TIP3   OH234272   5.399   5.088   0.333  0.3279  0.2411 -0.0411
 4238TIP3    H134273   5.419   5.029   0.406  0.3446  0.3793  0.0663
 4238TIP3    H234274   5.450   5.054   0.260  0.6357  0.3519  0.1233
 4239TIP3   OH234275   0.141   6.047   7.434 -0.2729  0.1644  0.3739
 4239TIP3    H134276   0.076   6.111   7.463  0.2322  0.0843  1.7292
 4239TIP3    H234277   0.225   6.084   7.461 -0.0822 -2.0835  3.3760
 4240TIP3   OH234278   4.174   1.755   0.884  0.1814 -0.3390 -0.8190
 4240TIP3    H134279   4.222   1.838   0.887 -0.4512  0.0301  2.0426
 4240TIP3    H234280   4.236   1.691   0.919 -0.7971 -0.1461  1.4124
 4241TIP3   OH234281   5.947   2.251   1.727 -0.3289  0.1180  0.6606
 4241TIP3    H134282   5.914   2.162   1.738  1.2765 -0.6448 -0.2692
 4241TIP3    H234283   5.980   2.275   1.813  1.3994 -1.1631  0.4123
 4242TIP3   OH234284   1.872   2.333   1.247 -0.6146 -0.5278 -0.0921
 4242TIP3    H134285   1.875   2.337   1.343  2.3932  1.0872 -0.1441
 4242TIP3    H234286   1.780   2.352   1.226 -1.3314 -0.7965  2.4273
 4243TIP3   OH234287   4.812   5.151   7.312 -0.3004  0.6404 -1.2967
 4243TIP3    H134288   4.834   5.058   7.305 -1.8588  0.1314 -0.0171
 4243TIP3    H234289   4.716   5.153   7.311 -0.4571  1.8407  2.2659
 4244TIP3   OH234290   5.158   2.162   8.439 -0.1117  0.2711 -0.4502
 4244TIP3    H134291   5.247   2.181   8.411  0.6094 -0.0640  1.4858
 4244TIP3    H234292   5.103   2.193   8.367  1.5575  0.2912 -1.7752
 4245TIP3   OH234293   4.647   2.930   2.177 -0.0923 -0.1419 -0.1382
 4245TIP3    H134294   4.740   2.910   2.173 -0.1706 -0.4164 -0.5973
 4245TIP3    H234295   4.604   2.846   2.190 -0.3785 -0.2319 -1.4848
 4246TIP3   OH234296   1.607   2.900   6.571  0.0271  0.0909  0.0049
 4246TIP3    H134297   1.539   2.933   6.630  1.2152 -0.3092  1.6524
 4246TIP3    H234298   1.561   2.886   6.488 -1.6851  0.7315  0.7922
 4247TIP3   OH234299   3.375   5.580   8.635 -0.3016  0.3347  0.1263
 4247TIP3    H134300   3.292   5.539   8.612  0.6519 -0.7213 -1.6505
 4247TIP3    H234301   3.365   5.671   8.607 -1.3113  0.5596  1.1622
 4248TIP3   OH234302   4.923   5.612   6.328  0.4710 -0.1748 -0.4742
 4248TIP3    H134303   5.001   5.608   6.272  0.1879 -0.6324 -0.8461
 4248TIP3    H234304   4.850   5.612   6.266  0.1759  0.3467 -0.1314
 4249TIP3   OH234305   0.883   1.509   6.788 -0.6015 -0.4247 -0.1011
 4249TIP3    H134306   0.888   1.603   6.768  1.1076 -0.4315  0.1856
 4249TIP3    H234307   0.820   1.504   6.860 -0.6322  0.5124 -0.0440
 4250TIP3   OH234308   3.521   5.147   6.884 -0.5980 -0.0429 -0.5862
 4250TIP3    H134309   3.464   5.175   6.955  0.2920 -0.7777  0.4403
 4250TIP3    H234310   3.468   5.160   6.805 -0.8531  2.8676 -0.0555
 4251TIP3   OH234311   3.812   1.116   8.061 -0.2895 -0.7099 -0.1467
 4251TIP3    H134312   3.719   1.123   8.042 -0.4477 -1.7612  0.1664
 4251TIP3    H234313   3.831   1.190   8.119 -1.0890 -0.8763  0.3483
 4252TIP3   OH234314   0.615   5.615   7.022 -0.1487  0.4004 -0.1203
 4252TIP3    H134315   0.564   5.573   6.953  1.8649  1.0122 -2.0997
 4252TIP3    H234316   0.572   5.699   7.036 -0.2286  0.5373 -1.1013
 4253TIP3   OH234317   0.218   4.852   7.317 -0.2244 -0.8731 -0.1841
 4253TIP3    H134318   0.201   4.890   7.403  0.7300 -2.0007  0.5257
 4253TIP3    H234319   0.174   4.912   7.256 -1.8862 -0.6664  1.1373
 4254TIP3   OH234320   0.569   5.777   1.014  0.3403 -0.1402 -0.0864
 4254TIP3    H134321   0.480   5.790   1.048  0.1647 -1.3018 -0.0368
 4254TIP3    H234322   0.561   5.701   0.956  0.8877  1.0589 -1.8030
 4255TIP3   OH234323   2.770   4.260   7.976  0.3577 -0.2341 -0.2016
 4255TIP3    H134324   2.759   4.342   8.024  1.1338 -0.2769  0.0557
 4255TIP3    H234325   2.803   4.288   7.890  2.0970 -0.3408  0.3831
 4256TIP3   OH234326   1.512   3.827   1.368 -0.2528  0.0949  0.3622
 4256TIP3    H134327   1.437   3.880   1.340  0.4976  1.6184  1.1185
 4256TIP3    H234328   1.484   3.789   1.452  0.1882  1.5631  1.2051
 4257TIP3   OH234329   4.666   4.419   8.173  0.5838  0.2535  0.1676
 4257TIP3    H134330   4.745   4.441   8.224  0.5121 -0.7783  0.7371
 4257TIP3    H234331   4.593   4.447   8.228  0.4755 -1.7172  1.1045
 4258TIP3   OH234332   2.627   0.000   6.762 -0.8288 -0.3234  0.2869
 4258TIP3    H134333   2.676  -0.042   6.833  0.2672  1.3443  0.5701
 4258TIP3    H234334   2.676  -0.022   6.683  0.2875  1.0868  0.5359
 4259TIP3   OH234335   0.595   0.377   0.183 -0.3767 -0.1381  0.1173
 4259TIP3    H134336   0.633   0.323   0.252  0.8000  0.4389 -0.0520
 4259TIP3    H234337   0.542   0.442   0.230 -1.7052 -1.3237  0.3254
 4260TIP3   OH234338   5.018   3.861   0.362  0.3626  0.0042 -0.3315
 4260TIP3    H134339   4.969   3.917   0.303  1.5170  2.5836  0.9666
 4260TIP3    H234340   4.981   3.880   0.449  0.1879 -1.9840  0.0633
 4261TIP3   OH234341   5.552   1.674   0.538  0.0820 -0.4010 -0.0504
 4261TIP3    H134342   5.547   1.642   0.447  0.0446 -0.5325 -0.0035
 4261TIP3    H234343   5.510   1.760   0.536 -0.4032 -0.6313 -0.0563
 4262TIP3   OH234344   5.033   0.616   7.845  0.5564 -0.4168 -0.1566
 4262TIP3    H134345   5.021   0.606   7.751 -1.4409  1.7882 -0.2340
 4262TIP3    H234346   5.122   0.648   7.855  0.3522  0.6615 -1.4777
 4263TIP3   OH234347   0.754   2.298   6.511 -0.1749  0.1500  0.4173
 4263TIP3    H134348   0.757   2.375   6.568  0.8103  0.6633 -0.2754
 4263TIP3    H234349   0.827   2.311   6.450 -1.9398  0.3072 -1.8101
 4264TIP3   OH234350   3.597   6.011   6.914 -0.2828 -0.7433  0.2990
 4264TIP3    H134351   3.598   5.922   6.877  1.6642 -1.2605  1.4606
 4264TIP3    H234352   3.505   6.027   6.934 -0.8123 -2.0968 -0.8380
 4265TIP3   OH234353   1.322   4.434   6.664 -0.4875 -0.3982 -0.2179
 4265TIP3    H134354   1.255   4.396   6.607 -0.7738  0.7665 -0.6707
 4265TIP3    H234355   1.392   4.369   6.665 -1.0457 -1.0233 -0.8214
 4266TIP3   OH234356   3.493   4.788   7.866  0.6037 -0.4994  0.3948
 4266TIP3    H134357   3.541   4.835   7.797 -0.1493 -1.8862 -1.1588
 4266TIP3    H234358   3.560   4.768   7.932  1.9858 -1.4279 -1.1919
 4267TIP3   OH234359   1.318   3.507   7.355  0.1344 -0.5178 -0.0301
 4267TIP3    H134360   1.243   3.502   7.297 -0.4710 -2.2362  0.8356
 4267TIP3    H234361   1.284   3.483   7.441  1.6007 -1.0141  0.4446
 4268TIP3   OH234362   0.420   4.163   1.563 -0.4642 -0.0069 -0.7918
 4268TIP3    H134363   0.428   4.223   1.637  1.5294 -1.9392  0.7357
 4268TIP3    H234364   0.326   4.145   1.556 -1.0383  2.7259 -0.9274
 4269TIP3   OH234365   3.405   6.732   2.043 -0.2875  0.5373  0.6661
 4269TIP3    H134366   3.313   6.733   2.071 -1.4614 -0.6120 -2.6712
 4269TIP3    H234367   3.422   6.823   2.016 -1.9360  0.0344 -2.5755
 4270TIP3   OH234368   6.064   2.589   7.181 -0.3443 -0.2301 -0.4409
 4270TIP3    H134369   5.969   2.575   7.173 -0.1073 -0.7646 -3.2084
 4270TIP3    H234370   6.096   2.587   7.091  2.3687 -0.4067  0.4513
 4271TIP3   OH234371   4.466   4.825   8.720 -0.1311 -0.7080  0.0992
 4271TIP3    H134372   4.484   4.814   8.627  1.1092  0.0861  0.2171
 4271TIP3    H234373   4.534   4.773   8.764  1.7482  1.8778  0.5584
 4272TIP3   OH234374   1.955   0.240   6.888  0.3946 -0.0730 -0.1797
 4272TIP3    H134375   1.990   0.239   6.798  1.7268 -1.7689  0.3089
 4272TIP3    H234376   1.885   0.176   6.887  0.2791  0.0513 -0.0521
 4273TIP3   OH234377   0.320   1.988   6.330  0.3285 -0.8798  0.6176
 4273TIP3    H134378   0.370   1.986   6.412 -0.6927  1.2617  1.3623
 4273TIP3    H234379   0.260   1.914   6.337  0.8620 -1.2595  1.3777
 4274TIP3   OH234380   5.093   5.440   7.152  0.2514  0.1106 -0.0297
 4274TIP3    H134381   5.009   5.428   7.107 -0.8050  2.0794  1.2998
 4274TIP3    H234382   5.088   5.382   7.228  0.3660 -0.2262 -0.2756
 4275TIP3   OH234383   5.874   0.593   6.824  0.4936 -0.2501 -0.3590
 4275TIP3    H134384   5.954   0.646   6.827  0.7859 -0.7073  0.1496
 4275TIP3    H234385   5.905   0.504   6.805 -0.0294 -0.1761 -1.6507
 4276TIP3   OH234386   0.381   2.504   6.531 -0.2263 -0.2647  0.4347
 4276TIP3    H134387   0.445   2.575   6.530  1.9549 -2.0884 -0.6905
 4276TIP3    H234388   0.299   2.544   6.502  1.3104  1.4856 -1.8676
 4277TIP3   OH234389   6.591   5.989   0.654 -0.0696 -0.0348 -0.0403
 4277TIP3    H134390   6.636   6.041   0.587 -1.4704  1.5526  0.2076
 4277TIP3    H234391   6.549   5.918   0.605  2.0730 -1.1996 -0.3498
 4278TIP3   OH234392   4.845   4.806   7.344  0.2497 -0.2546  0.6193
 4278TIP3    H134393   4.796   4.742   7.394 -0.3204  1.0308  1.7984
 4278TIP3    H234394   4.937   4.784   7.360  0.0608 -1.1338  0.4967
 4279TIP3   OH234395   1.936   3.505   7.781 -0.0950 -0.4625 -0.5080
 4279TIP3    H134396   2.012   3.455   7.750  0.8031  0.9996 -0.7974
 4279TIP3    H234397   1.870   3.494   7.712 -0.4376 -2.3041  0.0598
 4280TIP3   OH234398   4.287   1.260   1.496  0.3836  0.0402  0.1359
 4280TIP3    H134399   4.370   1.253   1.542  1.4560  0.6033 -1.6028
 4280TIP3    H234400   4.292   1.194   1.426  0.4934  1.7410 -1.5488
 4281TIP3   OH234401   0.633   0.581   0.927 -0.3098 -0.1736  0.1832
 4281TIP3    H134402   0.695   0.511   0.951  1.1833 -0.0636 -2.8746
 4281TIP3    H234403   0.549   0.537   0.918  0.3570 -1.3704 -0.4716
 4282TIP3   OH234404   3.695   2.321   2.331  0.8783  0.2972  0.5604
 4282TIP3    H134405   3.667   2.235   2.361  1.3001 -0.7122 -1.7308
 4282TIP3    H234406   3.790   2.319   2.337  0.9771  0.0357 -0.8545
 4283TIP3   OH234407   2.143   4.493   0.201  0.8479  0.2847  0.1926
 4283TIP3    H134408   2.072   4.486   0.264 -0.5117  0.8628 -1.2280
 4283TIP3    H234409   2.175   4.403   0.190 -1.1449 -0.3637 -0.7629
 4284TIP3   OH234410   3.076   4.812   0.414  0.0928 -0.4411  0.4200
 4284TIP3    H134411   3.155   4.851   0.452  0.6683 -0.6407 -0.5399
 4284TIP3    H234412   3.012   4.883   0.414 -0.2746 -0.7125  2.7059
 4285TIP3   OH234413   2.993   5.681   7.048 -0.4825  0.2543 -0.0295
 4285TIP3    H134414   3.044   5.603   7.068  1.2401  1.3916  0.2677
 4285TIP3    H234415   3.046   5.729   6.985 -0.7739  1.8733  0.8919
 4286TIP3   OH234416   0.411   0.478   7.333  0.2638 -0.0451  0.2064
 4286TIP3    H134417   0.490   0.467   7.280 -0.2244 -0.6247 -0.4235
 4286TIP3    H234418   0.428   0.427   7.413 -0.0517 -1.4241 -0.5772
 4287TIP3   OH234419   5.111   3.835   7.593 -0.8675 -0.0954  0.2706
 4287TIP3    H134420   5.141   3.758   7.642 -2.0666 -0.1575  0.9327
 4287TIP3    H234421   5.185   3.856   7.536 -0.3152 -1.4180  0.4483
 4288TIP3   OH234422   4.849   3.452   1.288  0.4446 -0.2096  0.8107
 4288TIP3    H134423   4.898   3.515   1.236  0.3595 -1.7562 -1.2606
 4288TIP3    H234424   4.766   3.496   1.307  0.9683  0.8483  0.7178
 4289TIP3   OH234425   1.679   1.737   2.053  0.9164  0.0918 -0.1306
 4289TIP3    H134426   1.599   1.685   2.062  1.6545 -1.0418 -0.0238
 4289TIP3    H234427   1.659   1.818   2.100  0.0229 -0.3973  0.3649
 4290TIP3   OH234428   2.692   4.827   8.467  0.4412 -0.2053  0.2466
 4290TIP3    H134429   2.694   4.793   8.557 -0.2424  1.1517  0.8032
 4290TIP3    H234430   2.621   4.778   8.425  0.8866 -0.9813  0.3729
 4291TIP3   OH234431   4.220   5.214   7.791 -1.0399  0.0798  0.1140
 4291TIP3    H134432   4.152   5.164   7.747 -0.7095 -0.7353  0.4943
 4291TIP3    H234433   4.230   5.171   7.876 -1.1921  1.1982  0.7200
 4292TIP3   OH234434   4.483   0.836   7.297 -0.1533  0.0232 -0.1967
 4292TIP3    H134435   4.399   0.882   7.293 -0.5511 -0.7944 -3.1717
 4292TIP3    H234436   4.548   0.901   7.269 -0.1224 -0.0479 -0.2891
 4293TIP3   OH234437   2.579   5.309   1.657 -0.4817 -0.0535 -0.0518
 4293TIP3    H134438   2.546   5.398   1.647  1.5822  0.5342 -2.9723
 4293TIP3    H234439   2.638   5.313   1.732 -2.0965  0.3986  1.2579
 4294TIP3   OH234440   0.045   4.072   6.567 -0.0296  0.5326 -0.4496
 4294TIP3    H134441   0.011   3.983   6.564  1.5312 -0.1111  0.0357
 4294TIP3    H234442   0.013   4.113   6.487  0.5913 -0.9844 -1.5137
 4295TIP3   OH234443   4.737   0.283   8.312 -0.3835  0.2116 -0.0692
 4295TIP3    H134444   4.733   0.333   8.394 -0.6831 -1.3836  0.9397
 4295TIP3    H234445   4.828   0.254   8.307  0.0785  1.7074 -1.2330
 4296TIP3   OH234446   1.553   4.471   7.306 -0.1074 -0.1361  0.2624
 4296TIP3    H134447   1.636   4.513   7.284 -0.2567  0.7440  1.3164
 4296TIP3    H234448   1.568   4.378   7.287  0.7594  0.1554 -0.5620
 4297TIP3   OH234449   4.833   5.496   0.908  0.0452 -0.2629 -0.9725
 4297TIP3    H134450   4.762   5.437   0.881  0.5294 -0.2735 -2.3338
 4297TIP3    H234451   4.912   5.451   0.880  0.4901  0.4687 -0.9097
 4298TIP3   OH234452   4.628   3.507   1.437 -0.2843  0.0732  0.3228
 4298TIP3    H134453   4.606   3.472   1.523 -2.3328 -0.4127 -0.3309
 4298TIP3    H234454   4.585   3.592   1.433 -0.1282  0.1331 -0.1862
 4299TIP3   OH234455   6.563   4.738   0.710 -0.1380  0.1364  0.2252
 4299TIP3    H134456   6.522   4.764   0.627 -0.3674  2.1624  0.9188
 4299TIP3    H234457   6.523   4.653   0.731  0.4469 -0.7896 -2.0534
 4300TIP3   OH234458   4.541   4.564   6.130  0.6343  0.1136 -0.0993
 4300TIP3    H134459   4.609   4.626   6.102  0.5569  0.2423 -0.0057
 4300TIP3    H234460   4.498   4.537   6.049  0.7489  0.0883 -0.1518
 4301TIP3   OH234461   4.924   2.741   1.957 -0.0893  0.1262  0.2302
 4301TIP3    H134462   4.918   2.797   2.035  0.5874  1.1472 -0.4218
 4301TIP3    H234463   5.016   2.716   1.953  0.0497  0.7613 -0.6963
 4302TIP3   OH234464   3.392   3.827   0.731 -0.7370 -0.3031 -0.1629
 4302TIP3    H134465   3.439   3.870   0.803  0.1193 -1.0833 -0.2290
 4302TIP3    H234466   3.361   3.744   0.768  2.0115 -1.9988 -1.2960
 4303TIP3   OH234467   5.221   0.888   1.321 -0.9063  0.7931 -0.3432
 4303TIP3    H134468   5.212   0.795   1.303  1.0966  0.1425  1.5620
 4303TIP3    H234469   5.135   0.914   1.355 -0.8996 -0.8664  1.0609
 4304TIP3   OH234470   1.189   5.665   1.861 -0.2513  0.1479  0.0151
 4304TIP3    H134471   1.128   5.616   1.806 -0.4449 -0.4801  0.7659
 4304TIP3    H234472   1.138   5.689   1.938  0.3059  0.0798  0.4079
 4305TIP3   OH234473   0.756   0.548   7.019 -0.9096  0.0943  0.3292
 4305TIP3    H134474   0.722   0.592   6.941  1.2831  1.5527  0.0950
 4305TIP3    H234475   0.833   0.500   6.987 -0.5901 -0.1311  1.3977
 4306TIP3   OH234476   2.493   4.311   7.510 -0.4791 -0.1190  0.3209
 4306TIP3    H134477   2.489   4.291   7.604 -0.8156  0.8789  0.5240
 4306TIP3    H234478   2.416   4.364   7.493 -0.5268 -0.4613 -0.5708
 4307TIP3   OH234479   1.356   4.239   0.229 -0.0464 -0.0143  0.5786
 4307TIP3    H134480   1.408   4.244   0.309  3.3528  0.1970 -1.4909
 4307TIP3    H234481   1.377   4.318   0.180 -1.2246 -0.6295 -1.0309
 4308TIP3   OH234482   0.642   1.971   2.111  0.0498  0.5573  0.8131
 4308TIP3    H134483   0.716   1.994   2.054 -0.6958  0.8024 -0.0811
 4308TIP3    H234484   0.589   2.051   2.115 -1.6047 -0.3694 -0.8392
 4309TIP3   OH234485   2.044   5.654   6.381 -0.2642  0.7325 -0.9371
 4309TIP3    H134486   1.982   5.584   6.358  1.4289 -0.9971 -0.5142
 4309TIP3    H234487   2.058   5.701   6.299  0.6794 -1.2204 -1.9835
 4310TIP3   OH234488   4.762   3.995   8.718 -0.3220  0.5642  0.2397
 4310TIP3    H134489   4.766   4.063   8.651 -0.2824  0.1587 -0.1763
 4310TIP3    H234490   4.722   3.920   8.674 -0.7419  0.4429  0.8050
 4311TIP3   OH234491   1.206   0.012   1.378 -0.1600 -0.8748 -0.0302
 4311TIP3    H134492   1.255   0.094   1.380 -0.3788 -0.7586  1.1720
 4311TIP3    H234493   1.123   0.034   1.336 -1.5589  0.3270  3.0630
 4312TIP3   OH234494   1.191   1.372   8.242 -0.0725  0.2919  0.1039
 4312TIP3    H134495   1.248   1.312   8.290 -1.2963  0.6436  2.1350
 4312TIP3    H234496   1.239   1.455   8.242 -0.2491  0.4174  1.2219
 4313TIP3   OH234497   3.595   1.707   1.596 -0.5717  0.3557  0.8111
 4313TIP3    H134498   3.510   1.664   1.590 -0.9942  1.2424  0.2359
 4313TIP3    H234499   3.597   1.743   1.685 -0.4157 -0.4152  1.1283
 4314TIP3   OH234500   3.892   5.610   0.726 -0.4339  0.2298  0.0720
 4314TIP3    H134501   3.869   5.668   0.799 -1.3276 -2.4847  2.0910
 4314TIP3    H234502   3.986   5.597   0.735 -0.0040  2.1088 -1.0753
 4315TIP3   OH234503   3.417   1.603   1.950  0.4820  0.1085 -0.2546
 4315TIP3    H134504   3.353   1.533   1.962  0.3010  0.0204 -1.6122
 4315TIP3    H234505   3.502   1.559   1.954  0.4163  0.0043  0.0777
 4316TIP3   OH234506   5.549   1.943   7.681 -0.9449  0.0787 -0.2061
 4316TIP3    H134507   5.487   1.919   7.749 -1.1717 -0.4803 -0.5998
 4316TIP3    H234508   5.611   1.869   7.678 -1.1467 -0.0731 -0.8455
 4317TIP3   OH234509   3.079   1.054   1.591 -0.2774 -0.6054  0.0662
 4317TIP3    H134510   3.089   1.100   1.674  1.2559 -1.9487  0.6654
 4317TIP3    H234511   3.031   0.975   1.613  0.3987 -1.1134 -0.2503
 4318TIP3   OH234512   6.096   1.336   8.013  0.2527  0.1565  0.6578
 4318TIP3    H134513   6.018   1.286   7.993  0.2940  0.0338  0.7998
 4318TIP3    H234514   6.072   1.427   7.997  0.1515  0.0988  0.4862
 4319TIP3   OH234515   1.901   5.250   8.184  0.2291  0.1751  0.0387
 4319TIP3    H134516   1.893   5.185   8.254  1.6699 -1.0533 -0.8561
 4319TIP3    H234517   1.869   5.205   8.106 -1.7253  1.6522 -0.0814
 4320TIP3   OH234518   2.600   1.470   2.319  0.4458  0.0633  0.0122
 4320TIP3    H134519   2.667   1.413   2.357 -0.6807 -1.5489 -0.2917
 4320TIP3    H234520   2.529   1.468   2.383  0.9019  2.3218  0.6766
 4321TIP3   OH234521   0.330   2.772   7.645  0.1516  0.4937  0.6484
 4321TIP3    H134522   0.329   2.686   7.688  1.1797  1.1484  2.0387
 4321TIP3    H234523   0.397   2.822   7.692 -2.0391  2.8710  1.4563
 4322TIP3   OH234524   5.192   4.855   1.625 -0.2548 -0.3073 -0.0342
 4322TIP3    H134525   5.229   4.794   1.689  0.2942 -0.8249 -0.8250
 4322TIP3    H234526   5.207   4.812   1.540 -2.8877 -0.6848 -0.3967
 4323TIP3   OH234527   4.905   3.064   7.492  0.2050 -0.0968 -0.3116
 4323TIP3    H134528   4.881   3.030   7.406  0.2046 -1.6437  0.2717
 4323TIP3    H234529   4.995   3.036   7.506 -0.5106 -1.9161  1.1209
 4324TIP3   OH234530   5.406   0.148   0.663 -0.3226  0.1605 -0.0400
 4324TIP3    H134531   5.487   0.123   0.618 -1.1407  1.6224 -2.4676
 4324TIP3    H234532   5.407   0.244   0.663 -1.7282  0.1973  0.5273
 4325TIP3   OH234533   1.446   0.301   0.190 -0.9636  0.3074  0.0849
 4325TIP3    H134534   1.447   0.257   0.104 -0.0122 -1.3586  0.8909
 4325TIP3    H234535   1.383   0.372   0.180 -0.2696  0.6860 -2.2474
 4326TIP3   OH234536   2.235   6.275   7.876 -0.1208  0.4036  0.1533
 4326TIP3    H134537   2.261   6.195   7.830  1.1026  1.0829 -0.4127
 4326TIP3    H234538   2.152   6.300   7.837 -0.3212 -0.3750  0.0670
 4327TIP3   OH234539   4.729   1.197   0.351  0.1610 -0.2780 -0.4550
 4327TIP3    H134540   4.651   1.141   0.347 -0.4396  0.5577 -0.6362
 4327TIP3    H234541   4.723   1.252   0.273  0.5969  0.2394 -0.1274
 4328TIP3   OH234542   4.965   0.989   0.140 -0.2471 -0.1857  0.2377
 4328TIP3    H134543   5.020   1.002   0.217  0.4576 -2.7662  0.2593
 4328TIP3    H234544   5.027   0.981   0.067 -0.6872 -1.1174 -0.0517
 4329TIP3   OH234545   6.455   5.217   0.743  0.1456 -0.1005 -0.2884
 4329TIP3    H134546   6.411   5.241   0.825  1.5296  0.6650  0.2705
 4329TIP3    H234547   6.439   5.123   0.733 -1.9109  0.2082 -0.3323
 4330TIP3   OH234548   1.146   2.716   2.176 -0.0172  0.1106 -0.4896
 4330TIP3    H134549   1.131   2.787   2.114  0.6236  2.4600  1.8738
 4330TIP3    H234550   1.068   2.661   2.169 -0.5557  1.0348 -2.3642
 4331TIP3   OH234551   3.472   0.180   0.229 -0.0760  0.2653  0.1144
 4331TIP3    H134552   3.442   0.216   0.312  1.5582 -3.2595  2.4485
 4331TIP3    H234553   3.555   0.224   0.212  0.2767 -0.0071  1.1254
 4332TIP3   OH234554   6.111   3.061   0.909  0.4051  0.1510 -0.0092
 4332TIP3    H134555   6.123   3.154   0.889  1.8999 -0.2137 -0.9953
 4332TIP3    H234556   6.185   3.039   0.965  0.6673 -0.6705 -0.6614
 4333TIP3   OH234557   3.088   6.105   7.853 -0.1974  0.1363  0.3210
 4333TIP3    H134558   3.093   6.146   7.939 -1.2821 -3.1498  2.1081
 4333TIP3    H234559   3.178   6.078   7.834  0.1070  1.1698  0.1970
 4334TIP3   OH234560   1.046   1.507   8.733  0.2022  0.1250  0.0769
 4334TIP3    H134561   1.075   1.466   8.814 -0.9917  1.3976  1.2044
 4334TIP3    H234562   0.992   1.581   8.762  0.3351  1.0391 -1.8835
 4335TIP3   OH234563   0.703   1.727   8.045 -0.0109  0.0971  0.1637
 4335TIP3    H134564   0.770   1.759   7.985 -0.5122 -0.0099 -0.4603
 4335TIP3    H234565   0.664   1.806   8.083  0.0606  0.1750  0.0730
 4336TIP3   OH234566   4.658   0.407   1.476  0.5903 -0.2349 -0.9892
 4336TIP3    H134567   4.685   0.484   1.526  1.1708 -0.7139 -0.5495
 4336TIP3    H234568   4.630   0.442   1.392  2.4347  0.3122 -1.4169
 4337TIP3   OH234569   0.534   4.527   1.354 -0.0801  0.4133 -0.0336
 4337TIP3    H134570   0.584   4.530   1.273 -0.1798  2.1205 -0.0714
 4337TIP3    H234571   0.600   4.531   1.424 -0.0258 -0.4202 -0.0320
 4338TIP3   OH234572   1.689   5.416   1.658 -0.3432  0.6737  0.5247
 4338TIP3    H134573   1.684   5.381   1.747  0.9071  2.0950  1.1903
 4338TIP3    H234574   1.776   5.389   1.627 -0.7848  0.1498 -0.3040
 4339TIP3   OH234575   3.711   5.794   6.779  0.3206 -0.1118  0.2162
 4339TIP3    H134576   3.757   5.859   6.725  3.6722 -2.0026  0.4713
 4339TIP3    H234577   3.660   5.742   6.716 -2.0942  2.3752 -0.0260
 4340TIP3   OH234578   0.914   2.029   8.748 -0.3570  0.2977 -0.2382
 4340TIP3    H134579   1.000   2.054   8.782  0.9102 -1.5374 -1.8523
 4340TIP3    H234580   0.916   2.057   8.656 -0.7904 -1.2026 -0.7424
 4341TIP3   OH234581   0.402   4.349   1.149  0.0243 -0.5976 -0.2996
 4341TIP3    H134582   0.451   4.387   1.222 -1.1262 -0.7564  0.5945
 4341TIP3    H234583   0.311   4.349   1.180 -0.4800 -0.6755 -1.7425
 4342TIP3   OH234584   2.875   2.843   7.600 -0.3055  0.4521  0.3154
 4342TIP3    H134585   2.816   2.803   7.536 -0.3984 -0.8342  1.1717
 4342TIP3    H234586   2.820   2.860   7.676  0.1574  0.4738  0.6468
 4343TIP3   OH234587   5.441   0.225   1.304  0.3066  0.4279 -0.2267
 4343TIP3    H134588   5.457   0.292   1.237 -0.4421  1.0473  0.1861
 4343TIP3    H234589   5.379   0.267   1.364  0.5106 -0.3334  0.5244
 4344TIP3   OH234590   4.078   0.435   6.928 -0.7310 -0.1468  0.3434
 4344TIP3    H134591   4.040   0.518   6.898 -0.0197 -0.0627 -0.3421
 4344TIP3    H234592   4.128   0.404   6.853 -1.3626 -1.4303  0.4359
 4345TIP3   OH234593   3.172   2.899   6.961  0.0251  0.2257  0.0275
 4345TIP3    H134594   3.254   2.916   7.007 -0.1058  1.2358 -0.1021
 4345TIP3    H234595   3.199   2.866   6.875  0.3108  1.0386 -0.2022
 4346TIP3   OH234596   0.041   0.838   0.509 -0.6303 -0.2238  0.3082
 4346TIP3    H134597  -0.045   0.796   0.507 -0.9711  0.4761 -0.2139
 4346TIP3    H234598   0.027   0.924   0.470  0.2417  0.0312  0.5266
 4347TIP3   OH234599   6.466   6.788   6.358  0.3992 -0.2988  0.4812
 4347TIP3    H134600   6.478   6.704   6.401  1.2280 -1.3616 -1.6640
 4347TIP3    H234601   6.541   6.841   6.387 -0.6378  0.0995  2.5869
 4348TIP3   OH234602   1.856   2.615   6.989  0.0472  0.1512  0.2814
 4348TIP3    H134603   1.914   2.557   7.038  1.3874  1.1561 -0.0638
 4348TIP3    H234604   1.784   2.558   6.961  1.0692 -1.2427  0.3624
 4349TIP3   OH234605   2.228   1.774   0.263  0.0744 -0.1915 -0.0421
 4349TIP3    H134606   2.172   1.740   0.193  0.2345  1.1649 -0.8389
 4349TIP3    H234607   2.283   1.839   0.222 -0.5479  1.4094  1.5249
 4350TIP3   OH234608   4.720   6.600   6.794  0.6607  0.7645  0.1184
 4350TIP3    H134609   4.773   6.680   6.797  0.0287  1.1980 -0.1046
 4350TIP3    H234610   4.783   6.531   6.771  1.4811  0.9532  1.6284
 4351TIP3   OH234611   0.173   6.654   1.111  0.5849  0.1313  0.2275
 4351TIP3    H134612   0.226   6.705   1.050 -0.7035 -0.1265 -1.1605
 4351TIP3    H234613   0.131   6.720   1.167 -0.1308  0.5509 -0.7725
 4352TIP3   OH234614   5.941   5.796   7.354  0.2296  0.5681  0.0618
 4352TIP3    H134615   5.865   5.740   7.339 -0.0632  0.9622  0.0620
 4352TIP3    H234616   6.009   5.759   7.297  0.1165  0.0667  0.2455
 4353TIP3   OH234617   0.078   0.155   1.772 -0.1256 -0.0178 -0.4072
 4353TIP3    H134618   0.029   0.218   1.826 -2.5160  0.3554 -2.7854
 4353TIP3    H234619   0.156   0.136   1.823 -2.0921  0.3919  3.1161
 4354TIP3   OH234620   1.036   0.057   2.060 -0.0172  0.0182  0.4143
 4354TIP3    H134621   0.941   0.057   2.063 -0.0106 -0.7039  0.7294
 4354TIP3    H234622   1.062  -0.029   2.093  0.7474  0.2705  0.5063
 4355TIP3   OH234623   2.082   5.847   7.207  0.0666  0.2469  0.0545
 4355TIP3    H134624   2.081   5.802   7.292  0.4826  1.3508  0.6724
 4355TIP3    H234625   2.117   5.934   7.227 -0.2886  0.6930 -1.1771
 4356TIP3   OH234626   3.077   2.256   0.019 -0.2216  0.0935  0.0470
 4356TIP3    H134627   3.084   2.332  -0.039 -0.4140  0.8236  0.9656
 4356TIP3    H234628   3.103   2.182  -0.036 -1.1613  0.6505 -1.1951
 4357TIP3   OH234629   0.851   0.873   6.534  0.4541  0.2619 -0.5663
 4357TIP3    H134630   0.771   0.821   6.544 -0.0141  0.9862 -0.4591
 4357TIP3    H234631   0.921   0.808   6.530 -0.1355 -0.3860 -0.6474
 4358TIP3   OH234632   0.043   0.412   1.294  0.8327  0.8046  0.2983
 4358TIP3    H134633  -0.034   0.358   1.313 -0.5130  1.9655 -1.4435
 4358TIP3    H234634   0.058   0.461   1.376  0.3272 -0.1506  0.9830
 4359TIP3   OH234635   3.507   0.502   7.826  0.6735  0.2954  0.3048
 4359TIP3    H134636   3.592   0.526   7.864  0.3980  0.4752  0.8144
 4359TIP3    H234637   3.452   0.481   7.901  0.9881 -2.3151 -0.1167
 4360TIP3   OH234638   3.463   5.788   1.726 -0.3681 -0.2142  0.0775
 4360TIP3    H134639   3.527   5.855   1.749 -0.9158 -0.3557  2.2775
 4360TIP3    H234640   3.449   5.739   1.807 -2.9872 -0.4019 -0.3830
 4361TIP3   OH234641   6.554   5.453   0.169  0.3052 -0.3144 -0.4957
 4361TIP3    H134642   6.481   5.434   0.110  0.8552 -1.3081 -0.8806
 4361TIP3    H234643   6.570   5.370   0.215  1.5191 -0.2721 -0.8026
 4362TIP3   OH234644   0.697   1.257   6.862  0.3016 -0.1680 -0.0055
 4362TIP3    H134645   0.710   1.235   6.954  0.4491 -1.2934 -0.2708
 4362TIP3    H234646   0.785   1.265   6.826  0.8353 -6.6526 -1.5435
 4363TIP3   OH234647   3.936   5.815   0.191 -0.8710  0.5177  0.3430
 4363TIP3    H134648   4.027   5.800   0.166 -0.8385  1.4835 -0.2064
 4363TIP3    H234649   3.885   5.786   0.115 -1.0492 -0.3361  0.7825
 4364TIP3   OH234650   1.979   3.866   1.604 -0.0807  0.3656  0.1754
 4364TIP3    H134651   1.909   3.903   1.658 -0.2778  1.7990 -1.0106
 4364TIP3    H234652   2.052   3.928   1.614  0.7858 -0.7157  0.8054
 4365TIP3   OH234653   0.284   3.651   8.534 -0.1348  0.4869  0.0537
 4365TIP3    H134654   0.213   3.714   8.546  0.8325  1.3470  1.6037
 4365TIP3    H234655   0.324   3.675   8.451 -1.5431  0.0688 -0.7775
 4366TIP3   OH234656   4.787   3.573   1.010 -0.1742  0.4512 -0.0906
 4366TIP3    H134657   4.709   3.603   1.057 -1.4435 -1.3063 -0.9365
 4366TIP3    H234658   4.767   3.590   0.918  0.4618  0.0072 -0.3144
 4367TIP3   OH234659   1.146   5.951   0.969  0.5316  0.3788  0.2428
 4367TIP3    H134660   1.162   5.856   0.967 -1.3966  0.0306 -0.8938
 4367TIP3    H234661   1.100   5.966   1.052  1.5176  0.4799  0.7926
 4368TIP3   OH234662   3.324   5.357   6.741 -0.0430  0.2196  0.0186
 4368TIP3    H134663   3.307   5.373   6.648 -1.2170 -1.9771 -0.1902
 4368TIP3    H234664   3.404   5.406   6.759  0.7157 -0.0203 -2.3735
 4369TIP3   OH234665   4.136   3.213   7.731  0.0326  0.1784 -0.3674
 4369TIP3    H134666   4.156   3.305   7.712  0.4141  0.5037  1.4014
 4369TIP3    H234667   4.079   3.217   7.808  0.5143 -1.0810  0.0783
 4370TIP3   OH234668   0.856   1.020   8.188  0.3472  0.1844 -0.0767
 4370TIP3    H134669   0.873   1.108   8.155  0.0013 -0.4870 -2.1971
 4370TIP3    H234670   0.943   0.984   8.206  0.4598  1.2487  1.7922
 4371TIP3   OH234671   3.562   6.123   8.212 -0.4093  0.0203  0.8854
 4371TIP3    H134672   3.551   6.029   8.227 -1.1666  0.1710  1.3087
 4371TIP3    H234673   3.493   6.146   8.150  0.2176  0.1754  0.2201
 4372TIP3   OH234674   3.859   2.529   0.751  0.5009 -0.0970 -0.9693
 4372TIP3    H134675   3.825   2.441   0.768 -1.3092  0.1459 -2.9804
 4372TIP3    H234676   3.869   2.568   0.838  2.2520 -2.5407  0.0423
 4373TIP3   OH234677   5.510   3.890   0.196 -0.7266  0.0487  0.2516
 4373TIP3    H134678   5.420   3.919   0.211 -1.2021 -1.4571  0.4249
 4373TIP3    H234679   5.507   3.843   0.113  0.3297  1.6554 -0.7656
 4374TIP3   OH234680   3.387   3.689   0.375 -0.8787 -0.6678 -0.1972
 4374TIP3    H134681   3.337   3.626   0.428 -2.2855 -0.6873 -1.4780
 4374TIP3    H234682   3.359   3.672   0.285  3.0983 -2.2151 -1.3795
 4375TIP3   OH234683   3.939   2.835   8.706 -0.4843  0.0911  0.4720
 4375TIP3    H134684   3.935   2.743   8.678  0.9848 -0.5650  2.2093
 4375TIP3    H234685   3.848   2.863   8.709 -1.0820 -1.7618  1.2265
 4376TIP3   OH234686   6.188   5.420   7.091  0.0375 -0.4156  0.1332
 4376TIP3    H134687   6.190   5.501   7.038 -1.6968  0.2852  1.0516
 4376TIP3    H234688   6.239   5.357   7.040  1.1715  1.1603 -0.7733
 4377TIP3   OH234689   2.812   5.960   2.276  0.4478 -0.3796  0.1354
 4377TIP3    H134690   2.895   5.968   2.324 -0.1576  0.4800  1.0624
 4377TIP3    H234691   2.780   6.049   2.266 -1.9092 -0.8258  2.5782
 4378TIP3   OH234692   2.099   4.099   7.938 -0.4498 -0.1702 -0.7316
 4378TIP3    H134693   2.060   4.034   7.879 -0.5621  0.3523 -1.2352
 4378TIP3    H234694   2.152   4.155   7.882  0.1534 -0.2050 -0.2056
 4379TIP3   OH234695   1.038   0.691   6.562  0.4351  0.0498 -0.1626
 4379TIP3    H134696   1.112   0.636   6.537 -1.0173 -1.0327 -2.4154
 4379TIP3    H234697   0.974   0.630   6.599 -1.1210  0.1135 -2.5100
 4380TIP3   OH234698   5.973   0.575   1.297  0.1221 -0.8911  0.2627
 4380TIP3    H134699   5.986   0.544   1.208  1.9705 -2.4505  1.0076
 4380TIP3    H234700   6.032   0.649   1.306 -2.4208  1.3990 -0.7210
 4381TIP3   OH234701   2.609   4.737   1.176  0.1050  0.6331 -0.0020
 4381TIP3    H134702   2.664   4.785   1.239  0.7821  0.7647 -0.6873
 4381TIP3    H234703   2.532   4.794   1.164  0.1912  0.8289  0.3490
 4382TIP3   OH234704   4.655   0.076   7.347 -0.2599 -0.6093 -0.2954
 4382TIP3    H134705   4.583   0.113   7.399  0.5725 -0.5515  0.8657
 4382TIP3    H234706   4.613   0.013   7.289 -1.5394  1.1538 -1.3711
 4383TIP3   OH234707   1.099   3.158   0.975  0.4824 -0.0092 -0.1540
 4383TIP3    H134708   1.021   3.166   0.920  1.0998  0.0877 -1.0278
 4383TIP3    H234709   1.116   3.064   0.979 -0.1143 -0.0958  0.6781
 4384TIP3   OH234710   0.071   1.044   7.007 -0.1516 -0.4899  0.5770
 4384TIP3    H134711   0.032   1.013   6.926  0.3678  2.0974 -0.7925
 4384TIP3    H234712   0.157   1.002   7.011  0.0680 -0.1752 -0.5752
 4385TIP3   OH234713   3.812   0.234   1.517 -0.7181  0.0539  0.3672
 4385TIP3    H134714   3.881   0.246   1.582 -0.1591  0.3158 -0.2529
 4385TIP3    H234715   3.747   0.302   1.537 -1.9349 -1.5804  2.3384
 4386TIP3   OH234716   4.927   4.682   8.283 -0.1651 -0.5309  0.0553
 4386TIP3    H134717   4.960   4.632   8.208 -0.6318 -0.7629 -0.0006
 4386TIP3    H234718   5.005   4.708   8.331  0.0689 -1.6636  0.3128
 4387TIP3   OH234719   0.067   4.819   6.623 -0.1607  0.6204 -0.2790
 4387TIP3    H134720   0.089   4.872   6.546  1.3483 -0.5574 -0.7036
 4387TIP3    H234721   0.001   4.757   6.591 -0.7120  1.1510 -0.1969
 4388TIP3   OH234722   6.821   2.015   6.862 -0.4582 -0.3769  0.0354
 4388TIP3    H134723   6.891   2.013   6.796  0.0253 -0.1258  0.5267
 4388TIP3    H234724   6.841   2.093   6.914 -0.1382 -1.2256  1.2226
 4389TIP3   OH234725   0.538   3.412   7.443  0.1724  0.0029  0.3259
 4389TIP3    H134726   0.459   3.434   7.393  0.6913  2.5768  0.5167
 4389TIP3    H234727   0.506   3.357   7.514 -1.7096  1.9186  1.0651
 4390TIP3   OH234728   0.052   5.790   1.275  0.1921  0.1377  0.0928
 4390TIP3    H134729   0.058   5.837   1.358  0.5427  3.1214 -1.4800
 4390TIP3    H234730  -0.042   5.781   1.260  0.0696  1.9809 -0.3865
 4391TIP3   OH234731   1.626   4.935   7.870 -0.1845  0.6206 -0.1089
 4391TIP3    H134732   1.564   4.869   7.840 -0.7196  0.8365  0.4738
 4391TIP3    H234733   1.631   4.998   7.798  0.2079  0.0309 -0.5999
 4392TIP3   OH234734   1.703   6.266   8.729 -0.3900 -0.3239 -0.5167
 4392TIP3    H134735   1.779   6.279   8.673  0.1794  0.4751  0.4020
 4392TIP3    H234736   1.634   6.319   8.690  0.6947  2.2364  0.8265
 4393TIP3   OH234737   2.781   2.276   1.672  0.3939  0.7493 -0.3449
 4393TIP3    H134738   2.769   2.181   1.672 -0.8068  0.8766  0.3344
 4393TIP3    H234739   2.858   2.290   1.726 -0.5822  0.2479  1.2421
 4394TIP3   OH234740   5.427   5.244   6.115  0.3406  0.2768  0.2070
 4394TIP3    H134741   5.395   5.309   6.177 -1.4225 -0.3243 -0.0271
 4394TIP3    H234742   5.520   5.265   6.104  0.2663  1.5116  1.6397
 4395TIP3   OH234743   3.957   0.493   7.731  0.0686  0.1289 -0.1589
 4395TIP3    H134744   3.990   0.567   7.680  0.1580  0.4154  0.3042
 4395TIP3    H234745   3.905   0.533   7.801  2.1838 -0.0644  1.6288
 4396TIP3   OH234746   0.744   3.289   0.096 -0.2903  0.0774  0.0498
 4396TIP3    H134747   0.789   3.221   0.045 -0.5076  0.0445 -0.0977
 4396TIP3    H234748   0.688   3.240   0.157 -0.1852  0.1202  0.1822
 4397TIP3   OH234749   0.378   2.027   7.764 -0.0827  0.3446 -1.1342
 4397TIP3    H134750   0.304   1.967   7.772  0.4604 -0.1664  0.4702
 4397TIP3    H234751   0.351   2.090   7.697 -2.6478  1.1371  0.4849
 4398TIP3   OH234752   2.513   6.291   0.632  0.0325 -0.2811  0.0905
 4398TIP3    H134753   2.471   6.357   0.576 -2.6684 -1.2357  0.8311
 4398TIP3    H234754   2.518   6.213   0.578  1.8433  0.0398 -0.2860
 4399TIP3   OH234755   2.975   0.324   0.473  0.1771 -0.3127  0.4726
 4399TIP3    H134756   2.982   0.288   0.385  1.9355  0.0352  0.4351
 4399TIP3    H234757   2.881   0.326   0.491 -0.4126  1.6380 -2.2424
 4400TIP3   OH234758   4.507   6.813   8.677  0.0710 -0.2480  0.0471
 4400TIP3    H134759   4.513   6.902   8.641  0.0216 -0.4417 -0.4345
 4400TIP3    H234760   4.546   6.821   8.764 -0.5769  0.4086  0.2971
 4401TIP3   OH234761   5.429   4.913   1.163  0.1923 -0.5487 -0.2747
 4401TIP3    H134762   5.512   4.900   1.117  0.8296 -0.4822  0.8050
 4401TIP3    H234763   5.442   4.868   1.247 -0.0085  1.3638  0.8385
 4402TIP3   OH234764   3.635   2.089   0.982  0.2244  0.0277 -0.3394
 4402TIP3    H134765   3.590   2.020   1.030  1.4658 -1.3303 -1.0202
 4402TIP3    H234766   3.644   2.054   0.893 -0.2933  1.6507 -1.0715
 4403TIP3   OH234767   1.138   4.383   7.401  0.5545 -0.1783 -0.2320
 4403TIP3    H134768   1.211   4.362   7.459  2.3055 -0.5347 -2.4349
 4403TIP3    H234769   1.116   4.474   7.424 -1.5299 -1.4228  3.6096
 4404TIP3   OH234770   5.673   4.513   0.541  0.1446 -0.0826  0.4234
 4404TIP3    H134771   5.581   4.526   0.519  0.6461 -0.0487 -1.9887
 4404TIP3    H234772   5.682   4.418   0.548  0.5098 -0.4064 -2.8269
 4405TIP3   OH234773   3.938   0.176   6.798 -0.3559 -0.0087 -0.0668
 4405TIP3    H134774   3.911   0.267   6.802 -1.5217 -0.3599  0.5466
 4405TIP3    H234775   3.881   0.136   6.733 -0.7695 -0.5746  0.6186
 4406TIP3   OH234776   1.609   5.965   7.258 -0.4059 -0.7076  0.3108
 4406TIP3    H134777   1.678   6.022   7.292  0.1544  0.5361 -2.6829
 4406TIP3    H234778   1.537   6.024   7.236 -0.6190 -1.4057 -0.9255
 4407TIP3   OH234779   6.455   5.141   1.665 -0.1074  0.2961  0.0904
 4407TIP3    H134780   6.537   5.149   1.715 -0.4634  0.5517  0.6411
 4407TIP3    H234781   6.391   5.190   1.716  0.1726  3.1951 -2.1345
 4408TIP3   OH234782   3.691   5.180   8.596 -0.4762 -0.2382 -0.0303
 4408TIP3    H134783   3.718   5.097   8.557 -0.4198 -0.2258 -0.0182
 4408TIP3    H234784   3.740   5.185   8.678 -2.0961 -1.2044  1.0472
 4409TIP3   OH234785   6.161   5.033   6.112  0.1285 -0.2996 -0.1885
 4409TIP3    H134786   6.238   4.977   6.116  0.3237  0.0283  0.8373
 4409TIP3    H234787   6.192   5.119   6.142 -0.9303 -0.5204  1.6917
 4410TIP3   OH234788   1.334   1.204   7.509 -0.0916 -0.1418 -0.0130
 4410TIP3    H134789   1.379   1.136   7.559  0.9231 -0.0001 -0.7196
 4410TIP3    H234790   1.260   1.230   7.565 -0.0607 -1.2944  0.5796
 4411TIP3   OH234791   4.757   6.621   1.372  0.0521 -0.0624 -0.4638
 4411TIP3    H134792   4.740   6.642   1.464  0.6032 -0.4029 -0.2854
 4411TIP3    H234793   4.833   6.563   1.374  2.3326  2.6678 -1.3264
 4412TIP3   OH234794   0.113   4.267   0.876 -0.5053  0.5517  0.3177
 4412TIP3    H134795   0.087   4.264   0.968  0.5698 -0.3385  0.6155
 4412TIP3    H234796   0.071   4.192   0.836 -0.7506  0.7816  0.1403
 4413TIP3   OH234797   1.546   2.205   6.749  0.3949  0.2952 -0.6986
 4413TIP3    H134798   1.460   2.212   6.708  1.2454 -0.1590 -2.6627
 4413TIP3    H234799   1.580   2.120   6.719  0.4336 -0.8976  2.3284
 4414TIP3   OH234800   5.060   6.362   0.454  0.8979 -0.0560  0.1011
 4414TIP3    H134801   5.144   6.370   0.498  0.8436 -1.8941  0.6189
 4414TIP3    H234802   5.071   6.288   0.394 -0.0036  0.4171 -0.6770
 4415TIP3   OH234803   0.498   6.165   8.738  0.8626 -0.4167  0.2764
 4415TIP3    H134804   0.497   6.258   8.764 -0.3568 -0.0983 -0.8541
 4415TIP3    H234805   0.507   6.167   8.643  1.6729 -1.5023  0.3106
 4416TIP3   OH234806   4.764   5.569   1.413 -0.2721 -0.4734 -0.7927
 4416TIP3    H134807   4.831   5.626   1.452 -1.0918  0.6494 -0.9598
 4416TIP3    H234808   4.774   5.486   1.459  0.4771  0.0263 -0.0038
 4417TIP3   OH234809   3.552   3.511   7.169 -0.0642 -0.0236  0.1756
 4417TIP3    H134810   3.473   3.479   7.213 -1.6144 -2.0744 -3.6244
 4417TIP3    H234811   3.525   3.592   7.126 -0.4446 -1.1166 -1.7510
 4418TIP3   OH234812   5.346   5.529   8.606  0.3531  0.2787  0.0359
 4418TIP3    H134813   5.380   5.489   8.687 -4.6023 -2.0840  1.3379
 4418TIP3    H234814   5.338   5.456   8.545 -2.5123  0.4814  0.0347
 4419TIP3   OH234815   4.131   3.463   7.943 -0.1523  0.0591  0.2918
 4419TIP3    H134816   4.091   3.466   8.030  0.4754  3.0664  0.5960
 4419TIP3    H234817   4.106   3.546   7.903  1.3371 -0.3430 -1.5875
 4420TIP3   OH234818   2.764   4.665   7.391 -0.0506 -0.2934 -0.2665
 4420TIP3    H134819   2.811   4.665   7.474  0.3094  1.1235 -0.4477
 4420TIP3    H234820   2.773   4.576   7.359 -0.0256 -0.8154  1.1078
 4421TIP3   OH234821   2.744   2.165   0.545  0.4709  0.0229 -0.4868
 4421TIP3    H134822   2.836   2.176   0.570  0.7131  0.1735 -1.4027
 4421TIP3    H234823   2.714   2.091   0.597  1.0597  0.1007 -0.0325
 4422TIP3   OH234824   4.770   0.413   0.214 -0.4146  0.2852  0.1939
 4422TIP3    H134825   4.829   0.345   0.182  1.7944  2.3196 -0.3208
 4422TIP3    H234826   4.731   0.375   0.293 -1.6929 -2.6918 -1.7086
 4423TIP3   OH234827   1.101   5.970   7.593  0.4673 -0.0117  0.0695
 4423TIP3    H134828   1.134   5.933   7.675 -1.4459 -1.5645  0.2226
 4423TIP3    H234829   1.077   5.893   7.541 -3.7791  0.8692  0.4046
 4424TIP3   OH234830   3.666   6.565   8.211 -0.0444  0.1436  0.1595
 4424TIP3    H134831   3.703   6.582   8.124  0.4290 -2.0631 -0.1239
 4424TIP3    H234832   3.667   6.470   8.220 -1.2203  0.2543  2.1170
 4425TIP3   OH234833   5.825   4.835   7.324 -0.4145 -0.2756  0.2561
 4425TIP3    H134834   5.822   4.742   7.302 -0.6703 -0.5435  1.3646
 4425TIP3    H234835   5.880   4.840   7.402  2.8107  0.9843 -1.8933
 4426TIP3   OH234836   1.306   3.635   8.346 -0.4488 -0.5540 -0.6201
 4426TIP3    H134837   1.352   3.714   8.376 -0.3692 -1.3084  1.3659
 4426TIP3    H234838   1.214   3.662   8.341 -0.6008 -0.6059  1.2199
 4427TIP3   OH234839   4.914   6.118   8.067  0.6114  0.2089 -0.2740
 4427TIP3    H134840   4.887   6.134   7.977  0.3128 -1.0748 -0.4322
 4427TIP3    H234841   5.007   6.140   8.069  0.5000  0.7464 -0.7492
 4428TIP3   OH234842   0.368   1.311   7.945 -0.2518  0.1674  0.4800
 4428TIP3    H134843   0.376   1.215   7.947  0.6166  0.1762 -1.1474
 4428TIP3    H234844   0.421   1.341   8.018 -0.1779 -0.5862  0.7459
 4429TIP3   OH234845   0.165   6.436   1.304 -0.0858  0.0280 -0.4909
 4429TIP3    H134846   0.251   6.441   1.345 -1.1557 -0.9665  2.1386
 4429TIP3    H234847   0.177   6.471   1.216  2.6410  1.3948  0.3283
 4430TIP3   OH234848   1.852   5.809   7.074  0.0095  0.6656 -0.1391
 4430TIP3    H134849   1.933   5.845   7.110 -0.4064  1.3283  0.1533
 4430TIP3    H234850   1.878   5.768   6.992  0.9457 -0.7041  0.8076
 4431TIP3   OH234851   0.507   0.963   0.647  0.3739  0.0261 -0.0109
 4431TIP3    H134852   0.432   0.991   0.700 -1.8495 -1.3407 -2.1711
 4431TIP3    H234853   0.546   0.891   0.696 -0.2046  0.2681  0.8231
 4432TIP3   OH234854   4.250   5.147   1.292 -0.1157 -0.3874  0.0294
 4432TIP3    H134855   4.163   5.173   1.262 -1.6982 -3.1609  1.7997
 4432TIP3    H234856   4.310   5.188   1.229 -2.6582  1.2835 -1.5102
 4433TIP3   OH234857   2.268   2.597   6.985 -0.1636 -0.3094 -0.5461
 4433TIP3    H134858   2.308   2.536   6.924  3.6301  1.6655 -0.2913
 4433TIP3    H234859   2.314   2.583   7.068 -0.5418  1.5253  0.0336
 4434TIP3   OH234860   3.623   0.932   1.549  0.0712  0.1990  0.1927
 4434TIP3    H134861   3.530   0.952   1.562  0.0148 -0.6876  1.2730
 4434TIP3    H234862   3.668   1.016   1.564 -0.4263  0.2785  1.3337
 4435TIP3   OH234863   0.771   3.593   7.707 -0.0571 -0.0448  0.1079
 4435TIP3    H134864   0.789   3.505   7.676  1.0876  0.6008 -1.1826
 4435TIP3    H234865   0.846   3.615   7.763  0.1818  0.4721 -0.4069
 4436TIP3   OH234866   1.949   3.234   7.939  0.1434 -0.4225  0.3208
 4436TIP3    H134867   2.016   3.197   7.997  0.0028 -1.2124 -0.0045
 4436TIP3    H234868   1.999   3.273   7.867  0.3400  0.9864  1.1894
 4437TIP3   OH234869   3.521   2.856   7.778 -0.2664 -0.7249 -0.5692
 4437TIP3    H134870   3.580   2.805   7.834 -0.5765  0.3709  0.7992
 4437TIP3    H234871   3.470   2.910   7.839  0.2176  1.4151 -1.9558
 4438TIP3   OH234872   6.343   3.220   7.876  0.0347 -0.4172 -0.7140
 4438TIP3    H134873   6.425   3.253   7.839 -0.5252  0.1893 -1.4563
 4438TIP3    H234874   6.279   3.233   7.806 -0.4113 -2.2227 -0.6723
 4439TIP3   OH234875   4.548   6.629   0.543 -0.4288 -0.1484 -0.2149
 4439TIP3    H134876   4.456   6.603   0.536 -0.3876 -0.5537  0.6668
 4439TIP3    H234877   4.589   6.592   0.464 -1.0066  0.0110 -0.6012
 4440TIP3   OH234878   4.411   3.057   8.590  0.0592 -0.2664  0.0352
 4440TIP3    H134879   4.384   3.014   8.509 -0.4540 -1.4632  0.8195
 4440TIP3    H234880   4.390   2.994   8.659  0.0791  0.9025  1.1479
 4441TIP3   OH234881   5.973   6.427   1.946 -0.0601  0.1129  0.6195
 4441TIP3    H134882   5.985   6.475   2.028 -1.2184 -1.0055  1.4728
 4441TIP3    H234883   6.044   6.362   1.946 -0.2006 -0.0426  0.8580
 4442TIP3   OH234884   4.482   5.998   1.059 -0.2501 -0.2097  0.0865
 4442TIP3    H134885   4.559   5.953   1.026 -0.0023 -0.9242  1.5804
 4442TIP3    H234886   4.515   6.059   1.124 -0.7152  1.2995 -1.0186
 4443TIP3   OH234887   6.436   6.091   0.828  0.2728 -0.5426 -0.1657
 4443TIP3    H134888   6.350   6.073   0.790 -0.2725  3.4585 -1.3650
 4443TIP3    H234889   6.498   6.079   0.757  0.1873 -0.0309 -0.3363
 4444TIP3   OH234890   2.871   4.672   2.215 -0.5648  0.2995  0.2217
 4444TIP3    H134891   2.932   4.690   2.286 -0.1809  1.5322 -0.3982
 4444TIP3    H234892   2.923   4.627   2.149 -0.0887  2.0053 -0.6253
 4445TIP3   OH234893   6.164   2.911   7.698  0.1156 -0.0267 -0.2798
 4445TIP3    H134894   6.195   2.975   7.635  1.6119 -3.2554 -3.1528
 4445TIP3    H234895   6.075   2.890   7.670  0.2700 -0.4293 -0.4885
 4446TIP3   OH234896   1.852   4.063   8.602 -0.0742 -0.2506 -0.5687
 4446TIP3    H134897   1.785   3.995   8.609 -0.1084 -0.2431 -0.8057
 4446TIP3    H234898   1.869   4.070   8.508 -0.5971  0.5758 -0.6139
 4447TIP3   OH234899   6.420   1.326   8.151 -0.5911 -0.8797  0.3204
 4447TIP3    H134900   6.391   1.317   8.061 -0.6448  1.1229  0.0927
 4447TIP3    H234901   6.466   1.410   8.153  1.7356 -2.0603  1.5629
 4448TIP3   OH234902   6.646   1.713   8.529  0.0457 -0.6518 -0.2143
 4448TIP3    H134903   6.646   1.770   8.606 -1.4511 -0.1818 -0.5425
 4448TIP3    H234904   6.572   1.742   8.477  2.0380  0.2720 -2.7748
 4449TIP3   OH234905   4.808   4.679   0.380 -0.1658 -0.3315 -0.3963
 4449TIP3    H134906   4.743   4.625   0.426 -1.5875  0.9593 -0.8082
 4449TIP3    H234907   4.756   4.743   0.332  1.4485  2.1343  0.9091
 4450TIP3   OH234908   6.529   1.620   8.231 -0.2519  0.1781  0.1670
 4450TIP3    H134909   6.593   1.691   8.234  0.8303 -0.6505 -1.8593
 4450TIP3    H234910   6.568   1.550   8.283  0.2209 -0.1089 -0.5679
 4451TIP3   OH234911   4.696   3.356   0.531 -0.0974  0.0733  0.1974
 4451TIP3    H134912   4.624   3.402   0.573 -1.3945  0.1803 -1.9860
 4451TIP3    H234913   4.654   3.292   0.474  1.5422 -0.3722 -0.5830
 4452TIP3   OH234914   1.188   3.232   7.884 -0.0737  0.1993  0.2422
 4452TIP3    H134915   1.262   3.184   7.921 -0.8370 -0.5394  0.8730
 4452TIP3    H234916   1.210   3.324   7.894  0.7566 -0.0135  0.4127
 4453TIP3   OH234917   5.775   0.264   6.539 -0.0114 -0.2549  0.2228
 4453TIP3    H134918   5.835   0.200   6.502 -1.4015 -0.6168 -1.5540
 4453TIP3    H234919   5.824   0.305   6.611  2.6998  0.1663 -1.7062
 4454TIP3   OH234920   2.686   0.389   0.006 -0.5167  0.1010 -0.4605
 4454TIP3    H134921   2.709   0.370  -0.085 -2.0825  1.4437 -1.1889
 4454TIP3    H234922   2.656   0.305   0.041  1.7446 -0.8297 -0.5928
 4455TIP3   OH234923   1.901   6.107   7.698 -0.5219 -0.4081  0.3043
 4455TIP3    H134924   1.872   6.184   7.650  0.6857 -0.7069 -0.9554
 4455TIP3    H234925   1.832   6.043   7.685 -0.6700 -0.1486 -0.2110
 4456TIP3   OH234926   2.218   2.166   8.328  0.8006  0.0211  0.0722
 4456TIP3    H134927   2.187   2.114   8.254  1.0780 -0.4855  0.3039
 4456TIP3    H234928   2.292   2.216   8.292  1.0863 -0.4012  0.0600
 4457TIP3   OH234929   4.459   2.493   6.620  0.4065 -0.6660 -0.1250
 4457TIP3    H134930   4.406   2.468   6.545  0.3554 -1.2713  0.1080
 4457TIP3    H234931   4.437   2.428   6.688  2.5624 -1.8841 -0.5140
 4458TIP3   OH234932   6.638   1.131   7.892 -0.1161 -0.1071  0.2335
 4458TIP3    H134933   6.679   1.106   7.810 -0.0631  0.1821  0.1701
 4458TIP3    H234934   6.654   1.225   7.899 -1.3635  0.1518 -0.1311
 4459TIP3   OH234935   0.155   3.237   1.981 -0.6749  0.1974 -0.2095
 4459TIP3    H134936   0.167   3.174   1.910 -0.3649  0.3703 -0.3110
 4459TIP3    H234937   0.233   3.293   1.978 -1.2853  1.0616 -0.5996
 4460TIP3   OH234938   4.688   3.987   0.988 -0.1440  0.5754 -0.1937
 4460TIP3    H134939   4.705   3.910   1.042 -1.3803  0.1899 -0.3151
 4460TIP3    H234940   4.760   4.047   1.008 -0.2099  0.1783  1.3975
 4461TIP3   OH234941   5.202   2.275   1.933 -0.6529 -0.1037  0.0108
 4461TIP3    H134942   5.118   2.239   1.959 -0.5009  1.6635  3.6691
 4461TIP3    H234943   5.188   2.370   1.936  0.6896  0.2277 -2.4575
 4462TIP3   OH234944   6.216   1.731   1.166 -0.1319  0.0836 -0.5998
 4462TIP3    H134945   6.237   1.752   1.257 -1.7936  1.1267 -0.4139
 4462TIP3    H234946   6.154   1.659   1.171 -1.1193  0.8981 -0.8276
 4463TIP3   OH234947   3.257   6.759   0.268  0.6880  0.1951  0.0923
 4463TIP3    H134948   3.278   6.805   0.187  1.0356  2.1106  1.2233
 4463TIP3    H234949   3.162   6.753   0.268  0.6459  0.8154 -0.1184
 4464TIP3   OH234950   4.031   0.355   7.944  0.0006  0.4167  0.4815
 4464TIP3    H134951   4.047   0.416   7.872 -0.1361 -0.9412 -0.7302
 4464TIP3    H234952   4.018   0.412   8.020  1.1498  1.8578 -0.3365
 4465TIP3   OH234953   5.877   6.195   8.496 -0.2414  0.7841 -0.7864
 4465TIP3    H134954   5.818   6.158   8.430 -0.8332  0.5005 -0.1121
 4465TIP3    H234955   5.932   6.256   8.447 -2.8389  3.1557 -1.0610
 4466TIP3   OH234956   0.148   5.378   1.723 -0.0807  0.1567  0.3688
 4466TIP3    H134957   0.089   5.442   1.764  1.6159  1.9989  0.0504
 4466TIP3    H234958   0.229   5.385   1.773  0.3807 -1.2575 -0.1411
 4467TIP3   OH234959   4.573   6.317   1.487  0.1173 -0.2214 -0.3873
 4467TIP3    H134960   4.532   6.234   1.510  0.3429 -0.4222 -0.6954
 4467TIP3    H234961   4.611   6.349   1.569 -2.9277  1.3196  0.5722
 4468TIP3   OH234962   2.251   1.063   7.439  0.3272  0.0930 -0.0006
 4468TIP3    H134963   2.166   1.102   7.421  0.0998  0.1034  1.0345
 4468TIP3    H234964   2.269   1.084   7.530 -0.0665 -2.6934  0.8159
 4469TIP3   OH234965   2.601   3.557   1.216 -0.0240  0.0112 -0.0428
 4469TIP3    H134966   2.647   3.641   1.218 -0.4345  0.2207  1.3300
 4469TIP3    H234967   2.514   3.578   1.180  0.4959 -0.1758 -1.4782
 4470TIP3   OH234968   1.315   6.712   6.339 -0.0015 -0.2104 -0.1664
 4470TIP3    H134969   1.233   6.696   6.294  0.6172 -0.3927 -1.2698
 4470TIP3    H234970   1.304   6.672   6.425 -2.1553  2.3943  0.9006
 4471TIP3   OH234971   5.597   0.126   7.588  0.8289 -0.0386 -0.3609
 4471TIP3    H134972   5.594   0.069   7.664  0.2992  0.9716  0.4024
 4471TIP3    H234973   5.682   0.170   7.594  0.5482  0.4689 -0.0165
 4472TIP3   OH234974   2.774   4.866   6.604 -0.4491  0.2738  0.3743
 4472TIP3    H134975   2.694   4.848   6.653  0.8292 -1.4722  1.9399
 4472TIP3    H234976   2.794   4.784   6.560  1.3309  0.1355  1.3409
 4473TIP3   OH234977   4.588   2.194   1.597 -0.4267  0.2953  0.3557
 4473TIP3    H134978   4.656   2.203   1.664  0.6438 -0.2734 -0.6249
 4473TIP3    H234979   4.625   2.134   1.533 -2.2406 -0.7853  0.2486
 4474TIP3   OH234980   4.699   0.292   0.444  0.1261  0.2223 -0.4706
 4474TIP3    H134981   4.646   0.278   0.523  0.5526 -0.7072 -0.3392
 4474TIP3    H234982   4.757   0.216   0.440 -0.5611 -0.2591 -2.2136
 4475TIP3   OH234983   2.145   4.174   0.046  0.2497  0.0678 -0.1611
 4475TIP3    H134984   2.066   4.149   0.095  0.9329 -0.4998  0.6967
 4475TIP3    H234985   2.216   4.127   0.091  0.7157 -2.0107 -2.8393
 4476TIP3   OH234986   3.972   1.580   1.129 -0.1524 -0.3950 -0.1471
 4476TIP3    H134987   4.054   1.534   1.149  0.1088 -0.0210 -0.3356
 4476TIP3    H234988   3.983   1.610   1.039 -0.1672  0.3434  0.0895
 4477TIP3   OH234989   0.055   1.618   6.008 -0.3862  0.2725 -0.3299
 4477TIP3    H134990   0.088   1.583   5.925 -0.5740  0.4402 -0.4779
 4477TIP3    H234991   0.066   1.712   6.000  0.7497  0.2061  0.3462
 4478TIP3   OH234992   1.992   2.011   1.230 -0.4838 -0.3374 -0.8131
 4478TIP3    H134993   1.976   2.066   1.153 -1.7782 -0.3244 -0.5596
 4478TIP3    H234994   1.919   2.030   1.288  0.0979 -0.8907  0.1170
 4479TIP3   OH234995   4.461   2.493   1.524 -0.2491 -0.4606 -0.2162
 4479TIP3    H134996   4.546   2.458   1.500 -1.0648 -1.5602 -1.6543
 4479TIP3    H234997   4.433   2.544   1.448 -0.5575  0.5657  0.5459
 4480TIP3   OH234998   5.394   6.335   1.915  0.2664  0.5399  0.2036
 4480TIP3    H134999   5.456   6.378   1.973  0.4010 -0.1499  0.5816
 4480TIP3    H235000   5.448   6.283   1.856  0.0309 -1.7322  1.8587
 4481TIP3   OH235001   6.684   6.043   7.150 -0.3665 -0.3435 -0.0655
 4481TIP3    H135002   6.731   6.126   7.135 -1.8111  0.1968 -2.0112
 4481TIP3    H235003   6.595   6.061   7.120 -1.5498 -1.7119  2.3770
 4482TIP3   OH235004   4.357   3.234   6.877  0.5924  0.0047  0.0689
 4482TIP3    H135005   4.451   3.215   6.878  0.5556 -0.1673  0.1687
 4482TIP3    H235006   4.335   3.253   6.968  0.4945 -0.1241  0.0726
 4483TIP3   OH235007   2.800   2.662   8.008 -0.2637  0.5849 -0.3300
 4483TIP3    H135008   2.834   2.582   7.968 -0.3825  0.9896 -1.2640
 4483TIP3    H235009   2.719   2.634   8.051 -0.0460  0.1065 -0.2162
 4484TIP3   OH235010   6.016   3.622   7.350 -0.3883  0.3599  0.2579
 4484TIP3    H135011   6.085   3.662   7.402  0.0320 -1.2576  1.0031
 4484TIP3    H235012   6.053   3.618   7.261  0.2961 -0.0724  0.5572
 4485TIP3   OH235013   3.806   3.916   8.443 -0.5799  0.2904 -0.1419
 4485TIP3    H135014   3.808   3.821   8.443  0.2571  0.2934  0.8499
 4485TIP3    H235015   3.721   3.938   8.482  0.2674 -0.0819  2.0382
 4486TIP3   OH235016   2.508   4.245   6.745 -0.5429  0.1420 -0.8416
 4486TIP3    H135017   2.451   4.180   6.705  0.1009 -1.2993  0.4774
 4486TIP3    H235018   2.452   4.291   6.807 -0.4550 -0.8903  0.0425
 4487TIP3   OH235019   2.323   5.833   0.353  0.2834 -0.5937 -0.1903
 4487TIP3    H135020   2.408   5.826   0.394 -0.2104 -2.6914  0.5627
 4487TIP3    H235021   2.261   5.801   0.418 -0.8207 -1.3359 -1.5377
 4488TIP3   OH235022   2.707   4.436   7.614  0.3035  0.2975  0.1773
 4488TIP3    H135023   2.635   4.419   7.554 -0.2604  1.9945  0.3313
 4488TIP3    H235024   2.733   4.526   7.597  0.3945  0.7073  2.1675
 4489TIP3   OH235025   1.128   4.394   0.995  0.5292  0.5403 -0.6000
 4489TIP3    H135026   1.120   4.310   1.040  1.7993  0.0010 -1.3423
 4489TIP3    H235027   1.137   4.371   0.903 -2.5188  1.6468 -1.2881
 4490TIP3   OH235028   0.115   0.158   8.715 -0.2316  0.3015 -0.0727
 4490TIP3    H135029   0.201   0.177   8.677  1.1102 -2.7530  1.1162
 4490TIP3    H235030   0.054   0.166   8.641  1.6372 -1.1548 -1.8992
 4491TIP3   OH235031   0.112   3.351   7.504 -0.3787  0.0012 -0.2256
 4491TIP3    H135032   0.179   3.413   7.533 -0.2724  0.1479 -0.7829
 4491TIP3    H235033   0.154   3.300   7.435 -0.2461 -1.1554  0.6593
 4492TIP3   OH235034   2.085   4.652   8.714 -0.1383 -0.1586 -0.1845
 4492TIP3    H135035   2.045   4.722   8.765 -1.0246 -0.8141  0.0456
 4492TIP3    H235036   2.122   4.593   8.779 -0.7308 -0.6819 -0.3192
 4493TIP3   OH235037   1.469   2.008   1.866  0.9275  1.0372  0.3639
 4493TIP3    H135038   1.452   2.095   1.901  0.5606  0.9356  0.4349
 4493TIP3    H235039   1.451   1.948   1.938 -0.2223  0.7969 -0.1028
 4494TIP3   OH235040   6.619   1.631   2.401  0.0332  0.1054 -0.5298
 4494TIP3    H135041   6.673   1.551   2.399  0.1461  0.1508  0.3012
 4494TIP3    H235042   6.531   1.602   2.377 -0.0116 -0.3495  0.1571
 4495TIP3   OH235043   6.175   5.600   1.973  0.6002  0.4421 -0.2521
 4495TIP3    H135044   6.116   5.650   2.029  0.4587  0.6743 -0.6058
 4495TIP3    H235045   6.117   5.546   1.919  0.6571  1.3420 -1.2441
 4496TIP3   OH235046   2.977   6.164   0.247  0.2935  0.6611  0.1369
 4496TIP3    H135047   2.959   6.076   0.279  1.5132  0.8131  1.3358
 4496TIP3    H235048   2.897   6.214   0.267 -0.1840 -0.0259 -0.0314
 4497TIP3   OH235049   2.814   3.685   8.570 -0.0173 -0.1930  0.1237
 4497TIP3    H135050   2.802   3.772   8.532  1.3029  0.2026  0.5742
 4497TIP3    H235051   2.731   3.640   8.552 -0.2388  0.7009 -1.2622
 4498TIP3   OH235052   5.388   6.593   6.846 -0.1870  0.7117 -0.2935
 4498TIP3    H135053   5.471   6.549   6.832 -0.0580  0.6926  0.4742
 4498TIP3    H235054   5.340   6.581   6.764  0.6334  0.8821 -0.8063
 4499TIP3   OH235055   6.822   3.330   1.265  0.1419 -0.1628  0.4063
 4499TIP3    H135056   6.871   3.402   1.303  1.0911  0.0716 -1.1590
 4499TIP3    H235057   6.746   3.372   1.225  1.4495  0.2577 -1.8098
 4500TIP3   OH235058   0.720   2.663   8.505  0.4199  0.2205 -0.1704
 4500TIP3    H135059   0.692   2.640   8.594 -2.4006  1.8674 -0.4967
 4500TIP3    H235060   0.710   2.582   8.455  1.7475 -0.6479  0.8965
 4501TIP3   OH235061   4.556   4.777   6.523 -0.4031 -0.1126  0.1011
 4501TIP3    H135062   4.610   4.804   6.597 -1.0280  0.9213  0.2094
 4501TIP3    H235063   4.494   4.714   6.559 -1.2092  0.9678  0.6490
 4502TIP3   OH235064   4.111   0.729   1.974 -0.9581 -0.5273  0.2672
 4502TIP3    H135065   4.015   0.734   1.974 -1.0016 -0.9496  2.0130
 4502TIP3    H235066   4.138   0.780   2.049  0.2368 -0.0698 -0.4485
 4503TIP3   OH235067   0.416   6.172   1.722  0.4533 -0.5938 -0.0581
 4503TIP3    H135068   0.377   6.091   1.755 -1.0741 -0.0561 -0.4430
 4503TIP3    H235069   0.417   6.230   1.798 -2.2885  0.3588 -0.6003
 4504TIP3   OH235070   3.828   5.932   1.291  0.2688 -0.1010  0.2238
 4504TIP3    H135071   3.790   5.992   1.355 -0.5782  0.8158 -1.0761
 4504TIP3    H235072   3.782   5.849   1.306  0.2073  0.0485  0.9111
 4505TIP3   OH235073   4.537   1.255   7.533  0.1660  0.3091 -0.0560
 4505TIP3    H135074   4.610   1.193   7.540  0.3808  0.6197  0.4907
 4505TIP3    H235075   4.578   1.341   7.543 -0.2314  0.5048 -0.0982
 4506TIP3   OH235076   6.644   2.263   7.782 -0.0451 -0.8064 -0.0999
 4506TIP3    H135077   6.650   2.345   7.734 -1.2422 -0.5654  0.1230
 4506TIP3    H235078   6.603   2.287   7.865  0.9756 -1.3943  0.5955
 4507TIP3   OH235079   5.035   2.745   8.505 -0.1385 -0.1675 -0.2411
 4507TIP3    H135080   5.112   2.780   8.460 -0.4767  0.9585  0.0089
 4507TIP3    H235081   4.966   2.746   8.438 -0.2521  0.0360 -0.1225
 4508TIP3   OH235082   2.587   2.628   0.532 -0.7542  0.0849  0.1095
 4508TIP3    H135083   2.615   2.608   0.621 -2.4627  0.2043  0.7247
 4508TIP3    H235084   2.621   2.557   0.479  1.9174  0.9772  0.4920
 4509TIP3   OH235085   3.025   5.502   0.362  0.0446 -0.8770  0.0917
 4509TIP3    H135086   2.981   5.568   0.415  0.1320  0.7802 -1.7817
 4509TIP3    H235087   3.102   5.477   0.413  1.1114  1.9836  0.0561
 4510TIP3   OH235088   2.783   0.042   7.681 -0.2856  0.2945  0.0649
 4510TIP3    H135089   2.780   0.021   7.588  0.2976  0.1751  0.0673
 4510TIP3    H235090   2.840  -0.025   7.718  0.4590  1.0541  0.3144
 4511TIP3   OH235091   0.866   1.408   1.022 -0.1037  0.1632 -0.2023
 4511TIP3    H135092   0.946   1.399   1.073 -0.2748  0.1028  0.0551
 4511TIP3    H235093   0.876   1.345   0.951 -1.4122 -2.3952  1.7408
 4512TIP3   OH235094   1.585   5.526   6.734  0.2367 -0.5493 -0.2717
 4512TIP3    H135095   1.529   5.577   6.675 -1.2895 -2.7877 -0.8794
 4512TIP3    H235096   1.531   5.512   6.812  1.5260  0.7105  0.9085
 4513TIP3   OH235097   3.278   1.107   6.515  0.1421  0.1964 -0.1917
 4513TIP3    H135098   3.313   1.186   6.474  1.1007 -0.5360 -0.8508
 4513TIP3    H235099   3.281   1.041   6.445 -1.5621 -0.1910  0.0602
 4514TIP3   OH235100   4.740   4.578   1.529 -0.2380  0.3833  0.4125
 4514TIP3    H135101   4.648   4.600   1.521 -0.1789  0.1449 -1.2149
 4514TIP3    H235102   4.783   4.661   1.548 -0.6849  0.6489  0.2739
 4515TIP3   OH235103   5.893   1.513   7.926  0.0642  0.2294  0.0405
 4515TIP3    H135104   5.829   1.513   7.855  0.0251 -0.6144  0.0636
 4515TIP3    H235105   5.964   1.570   7.894 -0.7347  1.2656  0.0747
 4516TIP3   OH235106   1.238   5.657   2.518  0.2071  0.0718  0.5576
 4516TIP3    H135107   1.332   5.650   2.535  0.6077 -5.1307 -2.0066
 4516TIP3    H235108   1.197   5.605   2.588 -0.4244 -0.4581 -0.1929
 4517TIP3   OH235109   2.570   1.097   0.831  0.3304 -0.5104  0.4440
 4517TIP3    H135110   2.512   1.022   0.819 -1.0556  0.7012 -0.8959
 4517TIP3    H235111   2.650   1.074   0.782 -1.6051  0.3910 -3.6277
 4518TIP3   OH235112   0.066   1.423   7.200 -0.0997 -0.2479 -0.2146
 4518TIP3    H135113   0.058   1.338   7.242 -0.1781 -1.2246 -2.0964
 4518TIP3    H235114  -0.011   1.472   7.230 -1.7106 -1.9167 -1.3989
 4519TIP3   OH235115   2.789   3.544   0.976  0.6202 -0.0892 -0.1564
 4519TIP3    H135116   2.761   3.627   1.014 -0.9249 -1.4689  1.9274
 4519TIP3    H235117   2.711   3.510   0.932  0.6354 -1.2950  0.6867
 4520TIP3   OH235118   4.513   2.640   7.159 -0.4696  0.3597  0.2525
 4520TIP3    H135119   4.535   2.638   7.066 -0.6800  2.3351  0.1292
 4520TIP3    H235120   4.482   2.729   7.175 -1.2319 -0.1771  2.0451
 4521TIP3   OH235121   2.136   0.752   0.540  0.3702  0.2805  0.6468
 4521TIP3    H135122   2.166   0.799   0.462  0.5889 -0.9690 -0.0471
 4521TIP3    H235123   2.185   0.793   0.612 -0.5037  2.0668  0.2951
 4522TIP3   OH235124   5.981   2.714   1.864  0.1335 -0.1287 -0.1008
 4522TIP3    H135125   6.000   2.665   1.944 -0.3533 -0.2959 -0.0851
 4522TIP3    H235126   5.929   2.788   1.893  0.2801  0.0195 -0.2157
 4523TIP3   OH235127   5.898   0.666   0.955  0.2210  0.5383 -0.4034
 4523TIP3    H135128   5.986   0.641   0.929  0.7768  2.2605 -0.2539
 4523TIP3    H235129   5.875   0.739   0.898 -1.3843 -0.2842 -0.8743
 4524TIP3   OH235130   2.502   0.844   0.294  0.4161  1.1466  0.1610
 4524TIP3    H135131   2.421   0.853   0.244  2.1900 -0.7046 -3.3721
 4524TIP3    H235132   2.487   0.770   0.352  0.5049 -1.4977 -2.9264
 4525TIP3   OH235133   4.451   0.428   7.209  0.3198 -0.4184  0.5599
 4525TIP3    H135134   4.479   0.384   7.129  2.3899  1.6644  0.0331
 4525TIP3    H235135   4.356   0.434   7.201  0.5176  0.3408 -2.0985
 4526TIP3   OH235136   0.304   1.041   0.298  0.0119  0.2751 -0.3225
 4526TIP3    H135137   0.211   1.065   0.296 -0.3947 -1.1943 -1.2267
 4526TIP3    H235138   0.314   0.990   0.378 -0.2704 -0.5986 -0.8276
 4527TIP3   OH235139   5.162   0.290   7.338 -0.2400  0.8890  0.1882
 4527TIP3    H135140   5.076   0.249   7.346 -0.9958  1.7763 -2.2817
 4527TIP3    H235141   5.196   0.255   7.255  1.8384  0.4953  1.1658
 4528TIP3   OH235142   4.223   0.622   1.055  0.0236  0.2966  0.4459
 4528TIP3    H135143   4.168   0.566   1.000 -1.0925  0.6853  1.1431
 4528TIP3    H235144   4.297   0.645   0.998 -0.7472  0.1236 -0.6603
 4529TIP3   OH235145   3.109   4.932   0.097 -0.7087  0.4365  0.1059
 4529TIP3    H135146   3.078   4.994   0.030 -0.2016  0.3752 -0.1849
 4529TIP3    H235147   3.131   4.988   0.171  0.6586  0.7199 -0.4841
 4530TIP3   OH235148   6.342   2.740   1.308 -0.1488  0.1015  0.1855
 4530TIP3    H135149   6.420   2.729   1.253 -0.8385 -2.0533 -0.4866
 4530TIP3    H235150   6.364   2.812   1.366  1.0555  1.7751 -2.1465
 4531TIP3   OH235151   4.072   4.782   8.546 -0.0763  0.5525  0.0475
 4531TIP3    H135152   4.008   4.805   8.480  0.1777  1.3822  0.0812
 4531TIP3    H235153   4.157   4.798   8.504  0.0875  2.0509  0.8772
 4532TIP3   OH235154   5.678   0.109   1.245 -0.1187  0.1072  0.4401
 4532TIP3    H135155   5.722   0.194   1.237  0.2273 -0.1391 -0.4122
 4532TIP3    H235156   5.591   0.130   1.279  0.3192  0.6958  1.2539
 4533TIP3   OH235157   3.072   1.884   8.304  0.3028  0.3196 -0.2282
 4533TIP3    H135158   3.047   1.939   8.378  0.4025 -0.5071  0.4387
 4533TIP3    H235159   3.004   1.817   8.301  0.2654  0.3840 -0.9311
 4534TIP3   OH235160   6.241   2.680   0.965 -0.2223  0.2452  0.0995
 4534TIP3    H135161   6.230   2.585   0.975 -1.4888  0.2405 -1.1399
 4534TIP3    H235162   6.221   2.697   0.873 -0.5933  1.7960  0.4466
 4535TIP3   OH235163   5.041   4.570   1.904 -0.1241  0.2884 -0.3841
 4535TIP3    H135164   5.010   4.531   1.822  1.1259  0.4155 -0.9323
 4535TIP3    H235165   5.063   4.495   1.958 -1.6114  0.1856  0.1299
 4536TIP3   OH235166   4.431   0.791   0.757 -0.4674  0.0696  0.2604
 4536TIP3    H135167   4.493   0.719   0.741 -1.1670  0.0099 -2.8520
 4536TIP3    H235168   4.482   0.870   0.737 -0.8082  0.1608 -0.2501
 4537TIP3   OH235169   0.710   0.453   7.957 -0.3860 -0.0928 -0.4450
 4537TIP3    H135170   0.782   0.452   7.894  0.6464 -2.7014  0.6577
 4537TIP3    H235171   0.637   0.493   7.909  1.2327  0.8588 -2.2251
 4538TIP3   OH235172   3.401   0.321   7.661  0.7366  0.6291  0.2699
 4538TIP3    H135173   3.429   0.383   7.728  0.9755  0.2506  0.5228
 4538TIP3    H235174   3.418   0.235   7.699  2.9938  0.3805 -1.1452
 4539TIP3   OH235175   5.524   2.057   1.733 -0.3219  0.6278 -0.1030
 4539TIP3    H135176   5.452   2.082   1.676 -2.2995 -1.0371  1.4828
 4539TIP3    H235177   5.601   2.059   1.677 -1.7904  1.2328 -2.2247
 4540TIP3   OH235178   6.206   1.353   2.250  1.0862  0.7904 -0.3053
 4540TIP3    H135179   6.129   1.380   2.300 -1.0440 -0.4500 -2.6962
 4540TIP3    H235180   6.211   1.259   2.262  1.6555  0.7333 -0.9455
 4541TIP3   OH235181   4.738   5.126   0.268 -0.0865 -0.1423  0.2431
 4541TIP3    H135182   4.760   5.216   0.291 -0.8943  0.6129 -1.7488
 4541TIP3    H235183   4.773   5.114   0.180  1.6359 -2.4343  1.1262
 4542TIP3   OH235184   3.737   4.033   7.592 -0.5354 -0.0956  0.3582
 4542TIP3    H135185   3.745   3.958   7.533 -0.3760 -0.7754  1.2240
 4542TIP3    H235186   3.827   4.059   7.611 -0.5912  0.4951 -0.1482
 4543TIP3   OH235187   5.045   4.551   0.454  0.9580  0.1528  0.2659
 4543TIP3    H135188   5.113   4.540   0.387  0.4055 -0.6297 -0.1825
 4543TIP3    H235189   4.967   4.578   0.405  0.1853 -1.7259  0.3996
 4544TIP3   OH235190   6.472   0.491   8.423 -0.4358 -0.4206  0.4659
 4544TIP3    H135191   6.432   0.465   8.506 -1.9869  1.8236  0.5323
 4544TIP3    H235192   6.401   0.535   8.376  0.9792  0.2525 -1.1348
 4545TIP3   OH235193   6.430   5.541   1.946 -0.1225  0.2897  0.1845
 4545TIP3    H135194   6.450   5.587   1.864 -1.7849 -0.5444 -0.7400
 4545TIP3    H235195   6.343   5.573   1.971 -0.1509 -0.3744  0.9714
 4546TIP3   OH235196   3.470   3.085   0.543  0.1925  0.1905  0.7415
 4546TIP3    H135197   3.517   3.129   0.614  1.2638  0.4073 -0.0829
 4546TIP3    H235198   3.506   3.123   0.463  1.0620 -2.0553 -0.0134
 4547TIP3   OH235199   2.847   0.845   7.570  1.1698 -0.2734 -0.4122
 4547TIP3    H135200   2.931   0.882   7.598  0.2385  1.6023  0.1007
 4547TIP3    H235201   2.823   0.783   7.639  0.3485  2.0582  1.5253
 4548TIP3   OH235202   0.559   5.575   0.837  0.2201 -0.2965  0.0334
 4548TIP3    H135203   0.480   5.527   0.864  0.9957 -0.6793  1.7718
 4548TIP3    H235204   0.600   5.519   0.772 -2.1106  0.9938 -2.7624
 4549TIP3   OH235205   0.920   1.990   6.481 -0.6660  0.5580 -0.1365
 4549TIP3    H135206   0.982   1.947   6.422 -1.6433 -0.8888 -0.1409
 4549TIP3    H235207   0.973   2.055   6.527  0.5537  0.3115 -1.1273
 4550TIP3   OH235208   0.001   3.727   2.008  0.1085  0.3031 -0.6190
 4550TIP3    H135209  -0.079   3.776   2.022  1.3033  2.0386  0.4607
 4550TIP3    H235210   0.024   3.743   1.916 -1.2255 -1.0119 -1.2373
 4551TIP3   OH235211   5.134   6.349   8.307  0.0652 -0.6182 -0.0764
 4551TIP3    H135212   5.164   6.259   8.294 -1.4878 -0.9921 -1.3682
 4551TIP3    H235213   5.179   6.399   8.239 -0.5285 -0.7903 -0.6099
 4552TIP3   OH235214   6.161   4.993   7.757 -0.4163 -0.2639  0.3604
 4552TIP3    H135215   6.081   4.949   7.728 -0.3814 -1.4514  1.9168
 4552TIP3    H235216   6.134   5.043   7.834  0.5072 -1.6621  1.6689
 4553TIP3   OH235217   3.993   5.901   6.771 -0.0894 -0.2670 -0.1161
 4553TIP3    H135218   4.036   5.953   6.702  1.2626  1.8522  2.1465
 4553TIP3    H235219   4.059   5.838   6.797 -1.2114 -2.2689 -1.8277
 4554TIP3   OH235220   3.869   6.036   5.874 -0.1796 -0.0108  0.4152
 4554TIP3    H135221   3.786   5.991   5.893 -0.0452 -0.3389  0.2338
 4554TIP3    H235222   3.935   5.968   5.885  0.2943  0.7198  2.6684
 4555TIP3   OH235223   2.739   3.593   1.707 -0.1110  0.1973  0.3687
 4555TIP3    H135224   2.833   3.590   1.690  0.0161 -0.5044  1.1187
 4555TIP3    H235225   2.710   3.503   1.694 -1.2480  0.9105 -2.7523
 4556TIP3   OH235226   6.294   1.452   0.149  0.5996 -0.2445  0.0187
 4556TIP3    H135227   6.211   1.434   0.192 -0.3191 -0.5697 -1.7860
 4556TIP3    H235228   6.345   1.500   0.214 -0.6037 -0.8922  1.5123
 4557TIP3   OH235229   2.587   5.352   6.289  0.0028  0.2873 -0.0515
 4557TIP3    H135230   2.616   5.405   6.215  1.4646  0.4304  0.5967
 4557TIP3    H235231   2.576   5.264   6.252  0.5625  0.3889 -0.4848
 4558TIP3   OH235232   5.491   5.242   1.994 -0.6109 -0.4302 -1.0303
 4558TIP3    H135233   5.437   5.310   2.037  0.9750  1.0508 -1.2868
 4558TIP3    H235234   5.427   5.178   1.962 -1.9879 -1.1238  2.5883
 4559TIP3   OH235235   2.975   6.766   1.655  0.3355  0.2535 -0.0333
 4559TIP3    H135236   2.891   6.754   1.699 -0.1461 -3.3986 -1.5424
 4559TIP3    H235237   2.962   6.843   1.599 -1.2287  1.0147  1.2991
 4560TIP3   OH235238   6.792   4.724   7.322  0.1098  0.2873 -0.0617
 4560TIP3    H135239   6.781   4.662   7.394  0.5356  0.2443 -0.0334
 4560TIP3    H235240   6.884   4.750   7.326  0.3225 -0.2727 -1.0431
 4561TIP3   OH235241   6.454   0.741   8.124 -0.2616 -0.2897  0.3393
 4561TIP3    H135242   6.441   0.777   8.212  0.1225  0.0334  0.2697
 4561TIP3    H235243   6.522   0.674   8.135 -0.0556 -0.0956  0.2519
 4562TIP3   OH235244   2.775   5.536   7.865 -0.6141 -0.7228  0.1421
 4562TIP3    H135245   2.864   5.571   7.865 -1.0599  0.4734  1.0872
 4562TIP3    H235246   2.719   5.610   7.843 -1.4125 -1.3848 -0.1436
 4563TIP3   OH235247   3.423   0.888   7.902  0.1128  0.8800  0.3163
 4563TIP3    H135248   3.518   0.878   7.899  0.0092 -0.6298  0.8555
 4563TIP3    H235249   3.390   0.824   7.839 -0.5419  2.7619 -1.3837
 4564TIP3   OH235250   2.986   5.599   0.769 -0.0931 -0.3028  0.3178
 4564TIP3    H135251   3.032   5.635   0.846 -0.2186  0.3820  0.0823
 4564TIP3    H235252   3.006   5.506   0.771  0.8254 -0.1183  0.5615
 4565TIP3   OH235253   0.223   4.739   1.118 -0.6329  0.8007 -0.3160
 4565TIP3    H135254   0.252   4.727   1.209 -0.3463  2.1275 -0.2047
 4565TIP3    H235255   0.280   4.682   1.067 -0.3064  0.5899  0.2773
 4566TIP3   OH235256   4.974   3.012   1.213 -0.2913  0.0684  0.5233
 4566TIP3    H135257   5.005   2.950   1.279 -1.0470 -2.4199 -1.2837
 4566TIP3    H235258   4.888   3.040   1.245 -0.9322 -1.5927  0.3683
 4567TIP3   OH235259   5.588   2.763   7.409 -0.3544 -0.1427 -0.3904
 4567TIP3    H135260   5.564   2.798   7.495 -2.4670 -0.7522 -0.6723
 4567TIP3    H235261   5.662   2.817   7.381 -0.0036  0.4541  1.5321
 4568TIP3   OH235262   3.322   5.212   8.583 -0.6279  0.6046  0.7940
 4568TIP3    H135263   3.326   5.120   8.556 -0.0955  0.7588  0.3241
 4568TIP3    H235264   3.356   5.212   8.672 -0.6117  0.3421  0.7894
 4569TIP3   OH235265   6.171   4.922   0.375 -0.6809  0.4163  0.0948
 4569TIP3    H135266   6.162   4.986   0.446 -0.5007  1.1393 -0.5204
 4569TIP3    H235267   6.122   4.846   0.406 -1.7298  1.1982  0.4473
 4570TIP3   OH235268   5.561   0.555   8.620 -0.5060 -0.0676 -0.2201
 4570TIP3    H135269   5.544   0.477   8.673 -1.5562 -0.7090 -1.4323
 4570TIP3    H235270   5.639   0.534   8.570  0.0557  0.2492  0.5029
 4571TIP3   OH235271   4.959   0.789   2.175 -0.5518  0.2855  0.5497
 4571TIP3    H135272   4.877   0.767   2.130 -1.3603 -0.4397  2.2582
 4571TIP3    H235273   4.930   0.830   2.257  0.8401  1.1595  0.6309
 4572TIP3   OH235274   3.178   6.692   6.279 -0.2144  0.4612  0.6141
 4572TIP3    H135275   3.087   6.705   6.305 -1.1326  0.8166 -2.4135
 4572TIP3    H235276   3.174   6.631   6.206  2.1724 -0.6096  1.2635
 4573TIP3   OH235277   0.220   2.311   0.887 -0.5374  0.2610  0.6193
 4573TIP3    H135278   0.253   2.387   0.936  1.1064 -0.8708  1.3484
 4573TIP3    H235279   0.206   2.244   0.954 -1.2800 -0.3207 -0.1004
 4574TIP3   OH235280   0.287   6.802   6.749  0.5826 -0.4801 -0.4725
 4574TIP3    H135281   0.310   6.882   6.701 -0.2807  0.6602  0.9329
 4574TIP3    H235282   0.336   6.808   6.831 -0.2770 -0.8801  0.0835
 4575TIP3   OH235283   2.835   1.478   7.060  0.4022 -0.3051 -0.7689
 4575TIP3    H135284   2.793   1.526   7.132  1.4809  0.9904 -0.9507
 4575TIP3    H235285   2.762   1.444   7.008 -0.4172 -1.4672  1.0185
 4576TIP3   OH235286   4.806   3.564   0.747 -0.4966  0.4544  0.0712
 4576TIP3    H135287   4.757   3.646   0.741 -1.4217 -0.0549  0.5089
 4576TIP3    H235288   4.759   3.503   0.691 -0.4688 -0.0826  0.6198
 4577TIP3   OH235289   0.618   6.388   1.948  0.0074  0.1229  0.2539
 4577TIP3    H135290   0.561   6.422   1.879  0.2598 -2.6581 -1.4831
 4577TIP3    H235291   0.576   6.308   1.977  1.4816 -0.3707  1.1376
 4578TIP3   OH235292   5.974   0.513   2.256 -0.6946 -0.1500 -0.7738
 4578TIP3    H135293   5.959   0.438   2.314 -0.0060  0.5455  0.3521
 4578TIP3    H235294   5.896   0.518   2.201 -0.8287 -1.5718 -0.7353
 4579TIP3   OH235295   6.677   4.512   0.888 -0.0974  0.0938 -0.2247
 4579TIP3    H135296   6.660   4.424   0.854 -1.4629  0.6433 -1.0728
 4579TIP3    H235297   6.631   4.514   0.972  1.0519 -0.4040  0.4436
 4580TIP3   OH235298   6.616   2.353   1.176  0.3220 -0.5355  0.6849
 4580TIP3    H135299   6.613   2.398   1.092  0.6048 -1.5574  0.1147
 4580TIP3    H235300   6.533   2.375   1.218  0.4632  0.5289  0.4416
 4581TIP3   OH235301   6.288   0.294   7.427  0.2275 -0.2845  0.4938
 4581TIP3    H135302   6.297   0.372   7.373  0.8933 -0.5026  0.2874
 4581TIP3    H235303   6.200   0.302   7.464  0.0992  0.3136  0.0894
 4582TIP3   OH235304   2.734   3.429   7.948  0.0792 -0.1324 -0.0029
 4582TIP3    H135305   2.665   3.488   7.980  2.0434  2.4822 -0.1918
 4582TIP3    H235306   2.716   3.419   7.855 -1.4142 -1.5963  0.3955
 4583TIP3   OH235307   2.855   5.551   1.109  0.4941 -0.7555  0.4394
 4583TIP3    H135308   2.786   5.513   1.164 -2.3184  0.6004 -1.8499
 4583TIP3    H235309   2.857   5.494   1.031  0.8177  0.1060 -0.1959
 4584TIP3   OH235310   5.752   6.699   1.135 -0.2212 -0.6654 -0.4537
 4584TIP3    H135311   5.711   6.768   1.186 -1.7265 -1.1118 -1.0160
 4584TIP3    H235312   5.715   6.618   1.169 -0.1706 -1.0512 -1.2743
 4585TIP3   OH235313   4.183   3.225   0.606 -0.1090  0.2264 -0.1868
 4585TIP3    H135314   4.274   3.197   0.598  0.3313  1.3242  0.6210
 4585TIP3    H235315   4.132   3.152   0.572  1.0497 -0.6400 -0.1268
 4586TIP3   OH235316   4.762   1.114   7.598 -0.0048 -0.3669  0.2371
 4586TIP3    H135317   4.787   1.163   7.676  0.7819 -0.6054  0.1468
 4586TIP3    H235318   4.799   1.027   7.612 -1.1408 -0.8612  0.2650
 4587TIP3   OH235319   6.182   6.249   0.886  0.5622 -0.1550 -0.4435
 4587TIP3    H135320   6.171   6.200   0.968  0.2732  0.5639 -0.0445
 4587TIP3    H235321   6.272   6.283   0.891  0.3867  0.2811 -0.2012
 4588TIP3   OH235322   0.463   1.063   7.488 -0.4317  0.1453 -0.4000
 4588TIP3    H135323   0.545   1.039   7.444 -0.1235 -0.8579  0.6819
 4588TIP3    H235324   0.406   0.986   7.477 -0.1978 -0.3014  1.2685
 4589TIP3   OH235325   4.832   5.432   7.311  0.2055  0.2896 -0.7543
 4589TIP3    H135326   4.812   5.339   7.327 -3.1713  0.9556 -0.3948
 4589TIP3    H235327   4.896   5.455   7.378  0.6323 -1.6037 -0.4539
 4590TIP3   OH235328   1.787   3.021   2.194  0.6143 -0.1327 -0.2316
 4590TIP3    H135329   1.831   3.101   2.165  2.7203 -0.6108  1.4185
 4590TIP3    H235330   1.848   2.950   2.172  0.5013 -0.8770  1.6514
 4591TIP3   OH235331   6.821   0.455   7.309  0.4222  0.0043 -0.4235
 4591TIP3    H135332   6.747   0.408   7.270  0.1322  1.4427 -1.7073
 4591TIP3    H235333   6.813   0.438   7.403 -1.8239  0.4767 -0.4656
 4592TIP3   OH235334   3.729   6.664   7.681  0.1625  0.2272 -0.0936
 4592TIP3    H135335   3.793   6.700   7.620  1.5667  0.6026  1.5199
 4592TIP3    H235336   3.660   6.629   7.625  1.0621  1.1196 -1.8597
 4593TIP3   OH235337   4.347   5.315   1.073  0.0615 -0.0171 -0.1475
 4593TIP3    H135338   4.327   5.359   0.990  0.7312  2.1407  0.7412
 4593TIP3    H235339   4.379   5.386   1.130  0.1159 -1.5125  1.7892
 4594TIP3   OH235340   4.827   5.535   7.662 -0.2809  0.0047 -0.4359
 4594TIP3    H135341   4.874   5.463   7.620 -0.3882  0.1273 -0.7712
 4594TIP3    H235342   4.885   5.565   7.732 -0.4749 -0.7714  0.0758
 4595TIP3   OH235343   4.063   1.744   6.355  0.3634  0.1998  0.2620
 4595TIP3    H135344   4.115   1.707   6.284  1.4652 -0.7295  1.5039
 4595TIP3    H235345   4.125   1.797   6.405 -0.6415  1.7212 -0.0478
 4596TIP3   OH235346   2.089   1.533   0.172 -0.0263  0.2406 -0.7478
 4596TIP3    H135347   1.994   1.539   0.173  0.0649  4.4328 -1.6600
 4596TIP3    H235348   2.110   1.470   0.242 -3.3751  0.4963  0.6550
 4597TIP3   OH235349   5.558   2.861   6.414 -0.2330 -0.2925 -0.5785
 4597TIP3    H135350   5.652   2.847   6.399  0.1669  0.9583  0.5779
 4597TIP3    H235351   5.552   2.948   6.453 -1.3451 -1.9883  3.6780
 4598TIP3   OH235352   2.253   0.640   8.280  0.1208  0.2049 -0.0080
 4598TIP3    H135353   2.279   0.565   8.227 -1.2368  0.6952 -1.4663
 4598TIP3    H235354   2.158   0.644   8.269  0.0007  1.2715  1.2348
 4599TIP3   OH235355   5.307   3.118   6.606  0.3045  0.4399  0.0181
 4599TIP3    H135356   5.230   3.061   6.598  0.0292  0.7697  0.3221
 4599TIP3    H235357   5.331   3.113   6.698  1.3556 -0.5720 -0.2762
 4600TIP3   OH235358   2.355   1.380   7.942 -0.4783  0.2261  0.0751
 4600TIP3    H135359   2.293   1.367   8.014 -2.6312  0.5380 -1.6016
 4600TIP3    H235360   2.369   1.474   7.940  1.1847  0.0458  1.2750
 4601TIP3   OH235361   3.824   0.840   6.949 -0.2942  0.8861  0.6930
 4601TIP3    H135362   3.744   0.876   6.987 -0.6355  0.2902  0.5408
 4601TIP3    H235363   3.806   0.747   6.936 -0.0182  0.9703 -0.4736
 4602TIP3   OH235364   1.177   5.683   0.551  0.4072  1.0074  0.3311
 4602TIP3    H135365   1.163   5.778   0.558  0.9516  1.1961 -0.9761
 4602TIP3    H235366   1.272   5.673   0.542  0.3251  0.3518  0.1457
 4603TIP3   OH235367   5.953   0.093   1.362  0.1047  0.0628 -0.6713
 4603TIP3    H135368   5.958   0.057   1.274 -1.4021 -0.1498 -0.6995
 4603TIP3    H235369   5.864   0.128   1.369  0.7345  1.6334  0.1838
 4604TIP3   OH235370   0.587   0.201   8.719 -0.0803  0.3451  0.1669
 4604TIP3    H135371   0.610   0.254   8.795  0.1643  0.3434  0.0956
 4604TIP3    H235372   0.642   0.122   8.727 -1.3659 -0.4934  0.9632
 4605TIP3   OH235373   4.566   5.047   8.467  0.0621  0.3249 -0.1491
 4605TIP3    H135374   4.495   4.985   8.484  0.2363  0.2788  0.4395
 4605TIP3    H235375   4.628   4.998   8.413  1.2970 -0.8305  2.1527
 4606TIP3   OH235376   5.675   4.261   1.218 -0.5778 -0.4350 -0.2613
 4606TIP3    H135377   5.681   4.248   1.312 -0.1493 -0.1529 -0.2482
 4606TIP3    H235378   5.674   4.172   1.182  1.4191 -0.5562 -0.1177
 4607TIP3   OH235379   4.444   5.975   6.690  0.1242 -0.0738 -0.3677
 4607TIP3    H135380   4.399   5.989   6.607 -0.2895  0.3125 -0.0852
 4607TIP3    H235381   4.522   5.925   6.667  1.2010  1.9418 -1.3053
 4608TIP3   OH235382   1.319   4.510   1.186  0.5487 -0.2411  0.2011
 4608TIP3    H135383   1.405   4.479   1.157  0.4786  0.3581 -0.7057
 4608TIP3    H235384   1.260   4.485   1.115 -0.1371 -1.1100  1.0538
 4609TIP3   OH235385   3.521   4.539   7.727 -0.2886  0.1542 -0.1787
 4609TIP3    H135386   3.503   4.626   7.763  1.2544  0.2819  0.3430
 4609TIP3    H235387   3.458   4.530   7.656 -1.9864  0.7685  1.1623
 4610TIP3   OH235388   0.083   3.019   0.957  0.1309 -0.1672 -0.4368
 4610TIP3    H135389   0.135   3.099   0.948 -0.6932  0.6334  1.4321
 4610TIP3    H235390   0.050   3.002   0.869 -0.5955  2.2254 -0.7069
 4611TIP3   OH235391   3.709   0.417   7.631 -0.0883  0.0597 -0.1191
 4611TIP3    H135392   3.782   0.450   7.683 -0.6203  0.8032  0.1713
 4611TIP3    H235393   3.635   0.474   7.653 -0.6467 -0.3953 -0.7454
 4612TIP3   OH235394   5.204   0.591   0.641 -0.3213 -0.3002 -0.1293
 4612TIP3    H135395   5.126   0.564   0.594 -0.4102 -2.8731  1.2943
 4612TIP3    H235396   5.271   0.601   0.573 -1.3708 -0.0968 -1.1530
 4613TIP3   OH235397   2.097   2.744   6.000  0.4547 -0.2461  0.4120
 4613TIP3    H135398   2.128   2.805   6.066  0.9579 -1.3722  1.2484
 4613TIP3    H235399   2.054   2.675   6.049 -2.3197  0.5929 -0.6467
 4614TIP3   OH235400   1.174   5.974   2.535 -0.0737 -0.1227  0.0394
 4614TIP3    H135401   1.203   5.886   2.508 -1.8514 -0.6432 -0.3208
 4614TIP3    H235402   1.186   6.028   2.457  0.0963 -0.2887 -0.0507
 4615TIP3   OH235403   1.135   3.657   6.453  0.2785  0.3126 -0.6885
 4615TIP3    H135404   1.055   3.707   6.467  1.0197  1.9021 -1.8032
 4615TIP3    H235405   1.136   3.639   6.359  1.8201  1.4698 -0.9401
 4616TIP3   OH235406   0.389   4.692   8.674 -0.2109  0.0476  0.4857
 4616TIP3    H135407   0.423   4.765   8.726 -2.2782  0.7568  0.9336
 4616TIP3    H235408   0.369   4.623   8.738 -0.1362 -0.1499  0.2981
 4617TIP3   OH235409   0.097   4.820   6.953  0.3268  0.2505 -0.1338
 4617TIP3    H135410   0.119   4.878   7.026 -1.9701 -0.7625  1.4584
 4617TIP3    H235411   0.117   4.872   6.875  2.0508  1.6844  1.1691
 4618TIP3   OH235412   1.421   2.900   0.529  0.5340 -0.0482 -0.5246
 4618TIP3    H135413   1.360   2.941   0.591 -0.1528  1.5409 -2.1657
 4618TIP3    H235414   1.459   2.973   0.481  1.7098 -1.1996 -1.3915
 4619TIP3   OH235415   3.399   2.967   1.928 -0.1532  0.1231 -0.0897
 4619TIP3    H135416   3.418   2.904   1.997  1.6328 -0.3535 -0.9581
 4619TIP3    H235417   3.329   3.022   1.964 -1.2913 -1.8933  0.9644
 4620TIP3   OH235418   6.550   0.004   8.582 -0.1288 -0.1396  0.1932
 4620TIP3    H135419   6.586  -0.080   8.610 -3.7954 -1.7100  0.6847
 4620TIP3    H235420   6.609   0.034   8.513  2.8534 -1.6767  1.8810
 4621TIP3   OH235421   0.425   3.867   7.449 -0.0117 -0.5488  0.4497
 4621TIP3    H135422   0.437   3.919   7.529  0.3259 -0.8889  0.6210
 4621TIP3    H235423   0.498   3.806   7.449  0.4848  0.0123 -0.5617
 4622TIP3   OH235424   0.648   5.484   0.389 -0.7492 -0.4314 -0.6556
 4622TIP3    H135425   0.661   5.476   0.294  0.9660 -1.6932 -0.3569
 4622TIP3    H235426   0.632   5.395   0.419 -0.3582 -0.1674  0.3693
 4623TIP3   OH235427   1.311   4.455   2.255  0.8156 -0.3193  0.7423
 4623TIP3    H135428   1.249   4.528   2.252 -0.7047 -1.5964  0.2858
 4623TIP3    H235429   1.267   4.387   2.305  0.9513 -2.0360 -1.3579
 4624TIP3   OH235430   0.129   1.658   8.184  0.4267 -0.3088 -0.1187
 4624TIP3    H135431   0.188   1.639   8.257  1.8802  0.6662 -1.0029
 4624TIP3    H235432   0.167   1.613   8.109 -0.1050  0.0988 -0.6450
 4625TIP3   OH235433   2.028   2.330   8.697 -0.3088 -0.1151  0.2179
 4625TIP3    H135434   1.993   2.413   8.728  0.5886 -0.0605  1.1265
 4625TIP3    H235435   2.090   2.354   8.628  2.7399  0.3424  2.9002
 4626TIP3   OH235436   1.076   1.528   7.092  0.8597 -0.0650 -0.1004
 4626TIP3    H135437   1.109   1.448   7.052  2.1025 -0.2516  1.1983
 4626TIP3    H235438   1.050   1.502   7.181 -2.8547  0.1034 -0.9985
 4627TIP3   OH235439   0.667   1.331   6.182  0.2497 -0.3473 -0.2067
 4627TIP3    H135440   0.609   1.261   6.212 -1.8565  0.7171 -1.5204
 4627TIP3    H235441   0.614   1.379   6.118  1.1281  3.1616  1.4848
 4628TIP3   OH235442   3.542   6.749   0.143  0.1321  0.0444 -0.0156
 4628TIP3    H135443   3.583   6.730   0.227 -0.2266 -1.6142 -0.1655
 4628TIP3    H235444   3.490   6.828   0.159  1.0679  0.4873  0.9564
 4629TIP3   OH235445   1.474   2.797   1.567  0.0086 -0.4647  0.6147
 4629TIP3    H135446   1.456   2.837   1.652 -1.0866 -1.2910  0.7894
 4629TIP3    H235447   1.547   2.737   1.584  0.4402  0.0893  0.7491
 4630TIP3   OH235448   3.065   1.541   1.527  1.2394  0.2914 -0.0315
 4630TIP3    H135449   3.069   1.451   1.494 -0.3947 -0.3446  1.3669
 4630TIP3    H235450   2.998   1.539   1.595  1.4762  2.4892  0.3458
 4631TIP3   OH235451   1.652   6.208   1.370 -0.3776  0.4146 -0.1787
 4631TIP3    H135452   1.733   6.227   1.322 -0.5278  0.7555 -0.3027
 4631TIP3    H235453   1.677   6.140   1.433  0.2150  1.1157  0.3613
 4632TIP3   OH235454   5.824   3.244   7.251  0.5880  0.3244 -0.1510
 4632TIP3    H135455   5.875   3.314   7.290  1.1868  0.3569 -0.9499
 4632TIP3    H235456   5.762   3.217   7.319  0.5021  1.4654  0.2340
 4633TIP3   OH235457   4.760   4.285   1.176 -0.3596 -0.0579 -0.7244
 4633TIP3    H135458   4.789   4.324   1.259 -0.4061 -1.1932 -0.1529
 4633TIP3    H235459   4.841   4.271   1.126 -0.1946 -0.5178 -0.3415
 4634TIP3   OH235460   5.655   2.141   7.963  0.2998  0.1113 -0.0645
 4634TIP3    H135461   5.718   2.205   7.930  0.2412  0.4862  0.5321
 4634TIP3    H235462   5.571   2.185   7.956  0.2585  0.1000  0.3426
 4635TIP3   OH235463   2.081   4.965   0.553  0.1354 -0.3137  0.2880
 4635TIP3    H135464   2.085   5.030   0.482  1.7940 -0.4725  0.1971
 4635TIP3    H235465   2.172   4.943   0.570 -0.2096 -0.0964  2.6661
 4636TIP3   OH235466   3.644   3.916   0.525 -0.2300 -0.5093  0.3006
 4636TIP3    H135467   3.698   3.941   0.450 -1.0069 -1.3515 -0.5680
 4636TIP3    H235468   3.706   3.905   0.597  0.7191 -1.1700 -0.5962
 4637TIP3   OH235469   5.155   0.850   6.476 -0.1701  0.3110 -0.2383
 4637TIP3    H135470   5.247   0.832   6.495  0.1270  1.7823 -0.1555
 4637TIP3    H235471   5.108   0.773   6.508  1.0647 -0.6362 -0.6538
 4638TIP3   OH235472   2.145   0.362   7.453 -0.3321 -0.0452  0.1787
 4638TIP3    H135473   2.195   0.283   7.470  0.6465  0.5095 -0.0682
 4638TIP3    H235474   2.058   0.343   7.487  0.3720 -0.5633  1.7718
 4639TIP3   OH235475   4.694   1.060   7.935 -0.6815  0.2613 -0.1694
 4639TIP3    H135476   4.632   1.006   7.885 -1.2687  0.5350  0.2543
 4639TIP3    H235477   4.690   1.145   7.892 -0.0834  0.1002 -0.5627
 4640TIP3   OH235478   1.362   3.087   1.522 -0.4369  0.4204  0.4050
 4640TIP3    H135479   1.440   3.124   1.480 -0.7983  1.1498  0.3548
 4640TIP3    H235480   1.397   3.037   1.596  0.0366  1.5513  0.9757
 4641TIP3   OH235481   6.360   5.087   7.619  0.5436  0.0840  0.4818
 4641TIP3    H135482   6.326   5.081   7.530  1.8408  0.7681 -0.0841
 4641TIP3    H235483   6.290   5.051   7.674 -1.6357  2.4806 -0.4889
 4642TIP3   OH235484   3.936   0.283   7.084  0.6246 -0.1022 -0.3669
 4642TIP3    H135485   3.970   0.358   7.035  1.2221 -1.5394 -2.2901
 4642TIP3    H235486   3.845   0.275   7.055  0.3904  0.2002  0.2681
 4643TIP3   OH235487   6.581   6.730   0.206 -0.5261  0.4620  0.3451
 4643TIP3    H135488   6.499   6.744   0.159 -0.8368 -0.2236  0.6669
 4643TIP3    H235489   6.559   6.742   0.299 -0.3890 -0.2715  0.4771
 4644TIP3   OH235490   5.809   0.353   1.317  0.3198 -0.0697  0.1175
 4644TIP3    H135491   5.728   0.362   1.368  0.4122 -0.0837  0.2687
 4644TIP3    H235492   5.866   0.423   1.351  0.5553 -0.3780  0.3662
 4645TIP3   OH235493   6.770   5.620   7.525 -0.6110  0.2660 -0.3046
 4645TIP3    H135494   6.755   5.660   7.611 -0.1658  0.3372 -0.2624
 4645TIP3    H235495   6.689   5.638   7.476 -0.1796  1.7666 -0.5067
 4646TIP3   OH235496   0.136   6.757   0.570 -0.0263  0.0543  0.0159
 4646TIP3    H135497   0.079   6.815   0.521 -2.3041 -1.3763  0.8076
 4646TIP3    H235498   0.168   6.810   0.643 -0.4787  0.8395 -0.3552
 4647TIP3   OH235499   4.459   5.069   6.765 -0.2040  0.8131  0.0555
 4647TIP3    H135500   4.433   5.133   6.698  0.5639 -0.4136 -1.4822
 4647TIP3    H235501   4.524   5.116   6.818  0.2372  1.3797 -0.9518
 4648TIP3   OH235502   3.590   5.997   0.302  0.0794  0.8125  0.2088
 4648TIP3    H135503   3.559   6.080   0.265  0.9421  0.4849 -1.3472
 4648TIP3    H235504   3.680   6.015   0.327  0.2990  0.3318 -0.2227
 4649TIP3   OH235505   5.786   0.624   8.119 -0.0676 -0.1441  0.2421
 4649TIP3    H135506   5.851   0.611   8.188  0.4074  1.5834  0.1531
 4649TIP3    H235507   5.799   0.714   8.090  0.1001 -0.9534 -2.4836
 4650TIP3   OH235508   4.695   4.984   1.865 -0.0155 -0.0941  0.0398
 4650TIP3    H135509   4.724   5.040   1.937 -0.1157 -1.4768  1.1863
 4650TIP3    H235510   4.713   4.895   1.894  0.4111 -0.6881 -1.8642
 4651TIP3   OH235511   1.639   2.237   7.691 -0.0994 -0.1242  0.7280
 4651TIP3    H135512   1.608   2.231   7.601 -0.2775 -0.8508  0.8330
 4651TIP3    H235513   1.734   2.222   7.686  0.0459  0.7602  0.5658
 4652TIP3   OH235514   6.306   5.660   7.800 -0.8019 -0.6926  0.3424
 4652TIP3    H135515   6.269   5.748   7.805 -0.4513 -0.3894 -1.4324
 4652TIP3    H235516   6.317   5.645   7.706  1.0882 -1.8134  0.7013
 4653TIP3   OH235517   3.178   5.355   0.528  0.0023 -0.3723 -0.5984
 4653TIP3    H135518   3.210   5.426   0.584 -1.3069  1.3476 -1.9178
 4653TIP3    H235519   3.133   5.296   0.589  1.3019 -0.2112  0.5645
 4654TIP3   OH235520   0.432   5.171   7.416 -0.0267 -0.1822 -0.2059
 4654TIP3    H135521   0.441   5.115   7.339 -2.2853 -1.1102  0.1250
 4654TIP3    H235522   0.368   5.238   7.390  0.1975  0.2892  0.4370
 4655TIP3   OH235523   5.361   3.319   0.751 -0.2502  0.1818  0.1645
 4655TIP3    H135524   5.328   3.297   0.839  2.1369 -0.8382  0.8932
 4655TIP3    H235525   5.330   3.248   0.695  0.4315 -0.6193  0.7742
 4656TIP3   OH235526   0.833   3.846   0.415 -0.1648 -0.1975  0.3390
 4656TIP3    H135527   0.862   3.931   0.449 -1.9947  0.2180  1.0176
 4656TIP3    H235528   0.803   3.865   0.326 -0.6229 -0.0974  0.5090
 4657TIP3   OH235529   1.698   4.492   0.143 -0.0230 -0.6882 -0.0925
 4657TIP3    H135530   1.697   4.425   0.073 -1.7617 -1.4698  0.6153
 4657TIP3    H235531   1.667   4.571   0.100 -0.5843 -1.0405 -0.3631
 4658TIP3   OH235532   3.184   1.764   0.152 -0.0126 -0.3729 -0.2560
 4658TIP3    H135533   3.109   1.824   0.159 -0.0290 -0.3916 -0.2693
 4658TIP3    H235534   3.177   1.708   0.229  0.8181  0.5614  0.5170
 4659TIP3   OH235535   1.619   5.833   1.965  0.2464 -0.6270 -0.3022
 4659TIP3    H135536   1.540   5.865   1.921  0.3063  0.3487  0.2672
 4659TIP3    H235537   1.599   5.742   1.986  0.4542 -1.3364 -2.8443
 4660TIP3   OH235538   1.715   4.675   2.286  0.0564 -0.4433 -0.0092
 4660TIP3    H135539   1.661   4.750   2.262 -1.3282 -0.8882  1.5459
 4660TIP3    H235540   1.693   4.608   2.222  3.2165  1.1172 -3.0889
 4661TIP3   OH235541   4.816   5.113   7.966 -0.1325  0.4226 -0.0745
 4661TIP3    H135542   4.800   5.044   7.902 -0.5539  1.1702 -0.8029
 4661TIP3    H235543   4.901   5.091   8.005 -0.1219 -0.3305 -0.5066
 4662TIP3   OH235544   5.007   2.689   7.283 -0.0972 -0.2739 -0.4990
 4662TIP3    H135545   5.001   2.748   7.357 -0.4252  1.2504 -1.6976
 4662TIP3    H235546   4.947   2.617   7.304 -0.3654  0.2551  0.5881
 4663TIP3   OH235547   5.900   1.355   1.827  0.1803 -0.0782  0.4517
 4663TIP3    H135548   5.886   1.448   1.846 -0.2094  0.1356 -0.7732
 4663TIP3    H235549   5.837   1.336   1.757  0.2428 -1.2740  0.7061
 4664TIP3   OH235550   0.793   2.181   1.988  0.5836 -0.7860 -0.4492
 4664TIP3    H135551   0.860   2.249   1.980  1.4841 -1.6104 -0.0678
 4664TIP3    H235552   0.740   2.209   2.063  1.1371 -0.6544 -0.1015
 4665TIP3   OH235553   6.257   6.716   6.833 -0.3338 -0.7248  0.0389
 4665TIP3    H135554   6.175   6.733   6.880  0.5090  0.5888  1.1191
 4665TIP3    H235555   6.243   6.632   6.791 -3.1282  0.5426 -1.8487
 4666TIP3   OH235556   4.950   1.526   0.496 -0.3499 -0.1698  0.2400
 4666TIP3    H135557   4.906   1.446   0.524  0.5855 -1.0252 -0.6384
 4666TIP3    H235558   4.916   1.541   0.408  0.6499 -0.5142 -0.2165
 4667TIP3   OH235559   5.352   1.508   1.093  0.1688  0.4475  0.2047
 4667TIP3    H135560   5.400   1.590   1.077 -2.2375  2.2871  1.7011
 4667TIP3    H235561   5.358   1.496   1.187 -0.6942 -0.3384  0.1637
 4668TIP3   OH235562   6.333   0.964   6.082 -0.6717  0.6227  0.2553
 4668TIP3    H135563   6.381   0.887   6.052 -2.0977  1.2155 -4.3694
 4668TIP3    H235564   6.398   1.034   6.084 -0.3974  0.4328 -1.1838
 4669TIP3   OH235565   2.890   4.008   1.186 -0.0856 -0.5538 -0.9970
 4669TIP3    H135566   2.822   4.052   1.237  0.1923  1.7432 -2.4925
 4669TIP3    H235567   2.953   3.979   1.252  0.6400  2.9467  0.0371
 4670TIP3   OH235568   4.892   0.798   0.564 -0.5155  0.0776  0.0649
 4670TIP3    H135569   4.963   0.849   0.603  0.4726  0.2963 -1.9103
 4670TIP3    H235570   4.899   0.712   0.605  0.7462  0.1697  0.0794
 4671TIP3   OH235571   4.446   4.647   7.962 -0.2320  0.1091  0.0210
 4671TIP3    H135572   4.522   4.599   7.928  0.3398  1.0908 -0.1180
 4671TIP3    H235573   4.479   4.693   8.039 -0.8521  0.0453  0.3349
 4672TIP3   OH235574   0.607   1.304   1.005  0.1879 -0.3257 -0.1907
 4672TIP3    H135575   0.583   1.321   0.914 -0.2626 -0.8316 -0.1761
 4672TIP3    H235576   0.690   1.349   1.017 -0.7567  1.5346 -0.2328
 4673TIP3   OH235577   3.427   4.016   0.293  0.0565  0.0929 -0.0497
 4673TIP3    H135578   3.487   3.994   0.223  0.0892  1.2341 -0.4056
 4673TIP3    H235579   3.343   4.030   0.249 -0.0445  0.2892  0.2031
 4674TIP3   OH235580   2.473   3.131   6.700 -0.4945  0.7370 -0.1008
 4674TIP3    H135581   2.486   3.226   6.708 -0.5998  0.5997  2.1242
 4674TIP3    H235582   2.451   3.102   6.788  0.1057 -1.4609 -0.6251
 4675TIP3   OH235583   1.282   1.584   6.615 -0.5154 -0.1281 -0.5613
 4675TIP3    H135584   1.240   1.584   6.529  1.2572 -0.9146 -1.4758
 4675TIP3    H235585   1.358   1.642   6.605  0.4403 -1.2311  0.0629
 4676TIP3   OH235586   4.520   6.310   6.981 -0.3245 -0.4594  0.6890
 4676TIP3    H135587   4.457   6.378   7.004 -0.7757 -1.2448  1.8259
 4676TIP3    H235588   4.470   6.229   6.981  0.2077 -0.8144 -0.6709
 4677TIP3   OH235589   3.437   1.439   7.952 -0.7166  0.5482  0.4467
 4677TIP3    H135590   3.438   1.525   7.908 -2.7577  0.7447  0.7046
 4677TIP3    H235591   3.393   1.381   7.890 -1.0350  0.1373  1.0504
 4678TIP3   OH235592   1.470   3.111   8.612 -0.1963 -0.2969 -0.2259
 4678TIP3    H135593   1.408   3.039   8.624 -0.7845  0.4008  1.1697
 4678TIP3    H235594   1.433   3.164   8.541 -0.7260 -0.3903 -0.0227
 4679TIP3   OH235595   5.323   4.817   6.874 -0.1437  0.8134 -0.3512
 4679TIP3    H135596   5.378   4.757   6.824 -1.1451  0.3033 -0.8475
 4679TIP3    H235597   5.371   4.830   6.956 -0.5861 -1.8272  0.4016
 4680TIP3   OH235598   3.342   0.621   1.350 -0.3727  0.1593 -0.1456
 4680TIP3    H135599   3.326   0.563   1.425 -0.5949 -0.1966 -0.4681
 4680TIP3    H235600   3.326   0.709   1.385 -0.0507  0.0330  0.3408
 4681TIP3   OH235601   6.645   4.255   0.804 -0.4207  0.6416  0.4964
 4681TIP3    H135602   6.610   4.201   0.734  1.1479 -0.3903  0.4518
 4681TIP3    H235603   6.650   4.197   0.880 -0.7791  1.3489  1.0787
 4682TIP3   OH235604   5.155   3.831   1.404  0.1500  0.4828 -0.3491
 4682TIP3    H135605   5.202   3.871   1.477  0.2248 -0.1240 -0.0552
 4682TIP3    H235606   5.195   3.744   1.395 -0.8825 -0.0242 -0.1239
 4683TIP3   OH235607   6.731   0.090   0.805 -1.3208 -0.2003  0.2499
 4683TIP3    H135608   6.779   0.010   0.826 -0.1862  0.7461  1.4655
 4683TIP3    H235609   6.786   0.135   0.740 -0.6452  0.7405  1.4195
 4684TIP3   OH235610   3.363   5.770   5.860 -0.4003 -0.0432  0.7462
 4684TIP3    H135611   3.443   5.822   5.868 -0.1268  0.0833 -1.9112
 4684TIP3    H235612   3.293   5.835   5.849 -0.2563 -0.1571 -1.1000
 4685TIP3   OH235613   6.028   1.252   1.145 -0.2182 -0.5111 -0.5823
 4685TIP3    H135614   6.036   1.203   1.227 -0.8124 -0.1646 -0.3051
 4685TIP3    H235615   6.087   1.208   1.084  0.3247 -0.6992  0.0657
 4686TIP3   OH235616   5.388   0.741   0.009  0.3842 -0.2844 -0.2233
 4686TIP3    H135617   5.428   0.691  -0.062 -0.7119 -2.0636  0.3547
 4686TIP3    H235618   5.315   0.788  -0.032  0.0974 -0.8703 -0.3905
 4687TIP3   OH235619   4.675   3.735   0.284 -0.2572 -0.6717 -0.3990
 4687TIP3    H135620   4.682   3.814   0.338 -0.4979  0.1984 -1.6088
 4687TIP3    H235621   4.714   3.666   0.338 -1.7456 -0.1352  1.4473
 4688TIP3   OH235622   4.787   2.557   6.735  0.3328 -0.1656 -0.6155
 4688TIP3    H135623   4.770   2.635   6.682 -0.2583 -0.9215 -1.5814
 4688TIP3    H235624   4.760   2.484   6.679  1.3851 -1.1032  0.0587
 4689TIP3   OH235625   2.925   1.197   7.621  0.1823 -0.2899 -0.0390
 4689TIP3    H135626   2.917   1.251   7.699 -1.6012 -1.8655  0.9617
 4689TIP3    H235627   2.981   1.125   7.647  1.1322  0.1422 -0.8316
 4690TIP3   OH235628   2.845   4.740   6.262 -0.3209  0.1190  0.0807
 4690TIP3    H135629   2.852   4.659   6.211 -1.4479 -1.2037  1.8759
 4690TIP3    H235630   2.865   4.713   6.352 -0.2624  1.9481  0.6501
 4691TIP3   OH235631   1.730   5.597   2.107  0.8349 -0.7841 -0.2648
 4691TIP3    H135632   1.753   5.689   2.092  0.2609 -0.8075 -1.3880
 4691TIP3    H235633   1.813   5.550   2.099  0.8797 -0.5477 -1.4238
 4692TIP3   OH235634   2.120   3.115   8.146  0.1992 -0.3853 -0.1233
 4692TIP3    H135635   2.202   3.164   8.149 -0.3085  0.5226 -0.7172
 4692TIP3    H235636   2.082   3.124   8.234  0.8203 -0.9841  0.2162
 4693TIP3   OH235637   5.387   3.625   0.340 -0.3915  0.8415  0.0540
 4693TIP3    H135638   5.436   3.547   0.315 -0.5130  0.9308 -0.4843
 4693TIP3    H235639   5.451   3.696   0.337 -0.1148  0.6539  1.2521
 4694TIP3   OH235640   6.362   0.792   1.360  0.1121 -0.5887 -0.7074
 4694TIP3    H135641   6.431   0.849   1.394 -0.0447 -1.2750  0.8165
 4694TIP3    H235642   6.408   0.715   1.328  0.0977 -0.8938 -0.0120
 4695TIP3   OH235643   6.273   4.479   6.798  0.1432  0.3074 -0.7274
 4695TIP3    H135644   6.367   4.467   6.806  0.4248  2.2140 -0.6913
 4695TIP3    H235645   6.262   4.532   6.719 -0.9806 -0.5579 -1.1876
 4696TIP3   OH235646   2.157   3.803   0.958 -0.0190 -0.3966 -0.3937
 4696TIP3    H135647   2.100   3.772   1.028 -1.1111  1.0419 -0.5994
 4696TIP3    H235648   2.151   3.899   0.963  0.6828 -0.2542 -1.7954
 4697TIP3   OH235649   1.579   6.400   1.027  0.1759 -0.1042 -0.5097
 4697TIP3    H135650   1.593   6.466   0.959  1.2203 -0.5648 -0.7619
 4697TIP3    H235651   1.498   6.355   1.001  0.7170 -0.4645 -1.6114
 4698TIP3   OH235652   2.642   1.157   7.585  0.5105 -0.1609 -0.2929
 4698TIP3    H135653   2.608   1.131   7.498  0.3433  0.0545 -0.2914
 4698TIP3    H235654   2.737   1.154   7.575  0.4950  0.1934 -0.5845
 4699TIP3   OH235655   3.274   6.618   0.901  0.8666  0.7779  0.7396
 4699TIP3    H135656   3.300   6.585   0.987  0.2194 -1.0601  0.2747
 4699TIP3    H235657   3.266   6.540   0.847  1.5599  1.9078 -1.1025
 4700TIP3   OH235658   0.722   6.278   0.986  0.0778 -0.5818 -0.0855
 4700TIP3    H135659   0.724   6.185   1.007 -0.5440 -1.5401 -3.6077
 4700TIP3    H235660   0.814   6.303   0.980  0.2536 -0.6610  1.8768
 4701TIP3   OH235661   4.124   0.835   2.248 -0.0871 -0.0293 -0.2064
 4701TIP3    H135662   4.109   0.895   2.321 -0.8689 -1.0710  0.5135
 4701TIP3    H235663   4.039   0.794   2.232  0.3914 -0.8285 -0.7796
 4702TIP3   OH235664   0.917   4.705   1.643 -0.6454 -0.3906  0.4562
 4702TIP3    H135665   0.870   4.630   1.606 -1.6991  0.5354 -0.1705
 4702TIP3    H235666   0.863   4.731   1.717 -1.0365  0.5649 -0.1473
 4703TIP3   OH235667   0.731   5.439   0.662 -0.1107  0.0100  0.8100
 4703TIP3    H135668   0.714   5.486   0.580  2.6747  0.4559  0.3693
 4703TIP3    H235669   0.689   5.354   0.651 -0.4095  0.3319 -0.7697
 4704TIP3   OH235670   6.416   0.941   7.901  0.0024 -0.4790  0.1840
 4704TIP3    H135671   6.489   1.003   7.900 -1.6676  1.6234  1.6662
 4704TIP3    H235672   6.430   0.888   7.980 -0.1254 -0.0192  0.5148
 4705TIP3   OH235673   5.087   3.633   0.019  0.0976  0.1336  0.0935
 4705TIP3    H135674   5.058   3.699  -0.045  0.4936 -0.3016 -0.5517
 4705TIP3    H235675   5.010   3.617   0.074 -0.0106  1.0995  0.2275
 4706TIP3   OH235676   5.093   1.312   2.013 -0.0430 -0.1777 -0.3196
 4706TIP3    H135677   5.040   1.344   2.086 -0.1935  0.8196 -0.8452
 4706TIP3    H235678   5.062   1.223   1.998 -0.0408 -0.3845  0.7962
 4707TIP3   OH235679   5.555   5.736   0.008  0.5007 -0.0574  0.1333
 4707TIP3    H135680   5.511   5.662  -0.034  0.5638  0.6822 -1.2796
 4707TIP3    H235681   5.628   5.697   0.056  0.3292 -0.9410 -0.3114
 4708TIP3   OH235682   5.214   0.236   1.462 -0.2380  0.3204  0.0321
 4708TIP3    H135683   5.157   0.160   1.479  0.2331 -0.1864 -0.5934
 4708TIP3    H235684   5.157   0.300   1.420 -0.1669 -0.5349 -1.4350
 4709TIP3   OH235685   2.186   2.657   0.924 -0.8550  0.0384 -0.1724
 4709TIP3    H135686   2.118   2.597   0.892 -1.4989  0.5923  0.1314
 4709TIP3    H235687   2.239   2.676   0.846 -2.3783  1.3403 -0.9639
 4710TIP3   OH235688   5.293   4.787   8.210 -0.4338 -0.0506  0.0333
 4710TIP3    H135689   5.265   4.759   8.123 -0.8521 -0.2191  0.2182
 4710TIP3    H235690   5.316   4.880   8.200  0.9731 -0.4452 -0.5854
 4711TIP3   OH235691   0.330   2.383   6.803  0.0277  0.5230  0.0033
 4711TIP3    H135692   0.248   2.431   6.809 -1.7345 -1.9233 -2.2301
 4711TIP3    H235693   0.375   2.423   6.728 -0.3697  0.2077 -0.4109
 4712TIP3   OH235694   4.011   3.135   6.614 -0.0053  0.5709  0.1265
 4712TIP3    H135695   4.027   3.145   6.708  1.4592  1.1463 -0.1480
 4712TIP3    H235696   3.924   3.097   6.608  0.2840 -0.4735  1.7669
 4713TIP3   OH235697   3.193   4.385   0.806  0.0580 -0.9024 -0.4394
 4713TIP3    H135698   3.201   4.299   0.848  0.2863 -1.4006 -1.4801
 4713TIP3    H235699   3.281   4.406   0.776 -0.2502 -0.9474 -1.4077
 4714TIP3   OH235700   0.644   2.917   7.999 -0.2317 -0.1282  0.0516
 4714TIP3    H135701   0.657   2.826   8.026 -1.7197 -0.3279  0.2070
 4714TIP3    H235702   0.709   2.966   8.049  1.9418 -1.2888 -1.5233
 4715TIP3   OH235703   5.315   3.187   1.676 -0.0834  0.2929  0.0806
 4715TIP3    H135704   5.302   3.094   1.692 -1.9869  0.3526 -0.8420
 4715TIP3    H235705   5.307   3.228   1.762 -0.3108 -0.2928  0.3421
 4716TIP3   OH235706   5.121   4.209   1.448  0.0536 -0.0843 -0.5400
 4716TIP3    H135707   5.042   4.155   1.449  0.2349 -0.3426  0.3923
 4716TIP3    H235708   5.124   4.244   1.359 -1.4269  0.4095 -0.4338
 4717TIP3   OH235709   1.456   3.632   0.435 -0.1717  0.1345 -0.2313
 4717TIP3    H135710   1.545   3.604   0.454  0.3495  1.5408 -0.4851
 4717TIP3    H235711   1.431   3.683   0.512 -1.2272 -1.2548  0.3833
 4718TIP3   OH235712   4.725   1.813   6.467 -0.1868  0.0198 -0.8404
 4718TIP3    H135713   4.767   1.899   6.457 -1.6335  0.7445 -0.8563
 4718TIP3    H235714   4.634   1.827   6.442 -1.6020 -0.4249  3.2367
 4719TIP3   OH235715   4.654   3.802   8.532  0.2422  0.3102 -0.2023
 4719TIP3    H135716   4.599   3.880   8.523 -2.3106 -1.3545 -0.0740
 4719TIP3    H235717   4.616   3.739   8.471  0.9331 -1.5105  1.1665
 4720TIP3   OH235718   2.024   2.025   7.498  0.0677 -0.4867  0.2893
 4720TIP3    H135719   1.929   2.021   7.507 -0.1888  1.9444 -0.5430
 4720TIP3    H235720   2.056   2.036   7.588 -0.8103  2.4414  0.3665
 4721TIP3   OH235721   1.235   0.772   0.985  0.6771 -0.8099 -0.3775
 4721TIP3    H135722   1.156   0.739   0.942 -0.0033  0.6256 -0.2980
 4721TIP3    H235723   1.211   0.778   1.077 -0.6309  3.3996 -0.7870
 4722TIP3   OH235724   5.553   6.193   6.793 -0.3252  0.0550  0.6481
 4722TIP3    H135725   5.585   6.107   6.820  0.6481  0.4102  0.6583
 4722TIP3    H235726   5.596   6.255   6.852  0.6672  0.7186 -0.7268
 4723TIP3   OH235727   1.410   0.329   8.345  0.2245  0.7262  0.1555
 4723TIP3    H135728   1.393   0.236   8.362 -0.9188  0.2995 -2.7291
 4723TIP3    H235729   1.496   0.345   8.383  0.5243 -1.5613  0.5900
 4724TIP3   OH235730   1.795   4.284   7.909 -0.2757  0.1498 -0.0331
 4724TIP3    H135731   1.740   4.226   7.856 -0.1848  0.4380 -0.4454
 4724TIP3    H235732   1.866   4.310   7.851  1.5042 -1.8546  1.0544
 4725TIP3   OH235733   6.313   5.087   0.120  0.0872 -0.3861  0.0636
 4725TIP3    H135734   6.340   5.001   0.151 -1.8569 -0.6513  1.1782
 4725TIP3    H235735   6.240   5.071   0.061 -1.0569  0.5192  1.1787
 4726TIP3   OH235736   4.035   5.286   1.200  0.3596  0.2002 -0.7514
 4726TIP3    H135737   3.984   5.356   1.241 -0.3958 -0.0920 -1.1596
 4726TIP3    H235738   3.969   5.221   1.174  1.1045 -0.9621  0.1942
 4727TIP3   OH235739   5.297   1.327   7.918 -0.1321  0.6945  0.1542
 4727TIP3    H135740   5.268   1.255   7.974  0.8470  0.0279 -0.1916
 4727TIP3    H235741   5.291   1.293   7.829  2.3304  0.2662  0.0899
 4728TIP3   OH235742   1.826   4.966   8.658  0.0027  0.1086 -0.1506
 4728TIP3    H135743   1.909   4.962   8.706 -0.6181  2.6506  1.3346
 4728TIP3    H235744   1.846   5.011   8.577  0.0810  0.9455  0.3184
 4729TIP3   OH235745   6.737   1.375   0.952 -0.3817  0.6072  0.6828
 4729TIP3    H135746   6.831   1.354   0.951 -0.0665  1.9591  0.0708
 4729TIP3    H235747   6.695   1.291   0.970  0.8582 -0.4366 -0.8980
 4730TIP3   OH235748   1.374   3.183   0.131 -0.1794 -0.3785  0.1214
 4730TIP3    H135749   1.322   3.263   0.130 -0.2696 -0.3440  2.5692
 4730TIP3    H235750   1.421   3.185   0.048 -1.0534  1.6155 -0.3959
 4731TIP3   OH235751   1.442   1.191   0.443  0.0553 -0.5117 -0.0216
 4731TIP3    H135752   1.414   1.227   0.527  0.7119 -0.1405  0.0456
 4731TIP3    H235753   1.527   1.231   0.427 -0.5729  0.3281 -1.4293
 4732TIP3   OH235754   3.367   1.319   6.357  0.2944 -0.0741 -0.2406
 4732TIP3    H135755   3.328   1.393   6.311  0.3653  0.7402  0.9743
 4732TIP3    H235756   3.442   1.356   6.404 -0.4625 -0.6121  1.4813
 4733TIP3   OH235757   0.569   3.908   7.708 -0.3926 -0.2245 -0.1081
 4733TIP3    H135758   0.509   3.840   7.738 -0.4476 -0.4581 -0.7239
 4733TIP3    H235759   0.603   3.947   7.788  1.9901 -3.0099  0.4121
 4734TIP3   OH235760   0.847   4.397   7.188  0.8899 -0.2619 -0.5612
 4734TIP3    H135761   0.912   4.349   7.240  0.1410 -2.1764 -1.3052
 4734TIP3    H235762   0.783   4.330   7.162 -1.5017  1.5385  0.2811
 4735TIP3   OH235763   0.898   1.478   7.613 -0.5129 -0.2252 -0.2367
 4735TIP3    H135764   0.808   1.510   7.622 -1.5194 -2.3867 -1.7900
 4735TIP3    H235765   0.949   1.534   7.671 -2.9489  0.6368  1.2289
 4736TIP3   OH235766   5.016   3.327   7.428  0.1092 -0.1243 -0.0958
 4736TIP3    H135767   4.959   3.255   7.456  1.8352 -1.3970  0.3322
 4736TIP3    H235768   5.045   3.302   7.341 -1.0458  1.2127 -0.9051
 4737TIP3   OH235769   2.900   5.170   8.148  0.0231  0.2692 -0.5952
 4737TIP3    H135770   2.915   5.263   8.162  1.4324  0.1452 -1.1207
 4737TIP3    H235771   2.881   5.162   8.054 -2.1239  0.2294 -0.2254
 4738TIP3   OH235772   4.548   5.606   0.851 -0.2992  0.6130 -0.2849
 4738TIP3    H135773   4.604   5.536   0.820  0.0026  1.8090 -2.6459
 4738TIP3    H235774   4.607   5.679   0.869 -0.6429  0.4383  1.8196
 4739TIP3   OH235775   6.136   4.798   5.911 -0.1017  1.0803 -0.0619
 4739TIP3    H135776   6.095   4.885   5.904 -1.8304  0.4715  1.4948
 4739TIP3    H235777   6.069   4.739   5.878  0.5187  0.2383  0.1742
 4740TIP3   OH235778   4.727   2.602   7.349 -0.4996  0.2795 -0.1261
 4740TIP3    H135779   4.665   2.624   7.280 -1.0174  1.4505  0.6905
 4740TIP3    H235780   4.679   2.616   7.430  1.0771  2.0784  0.5563
 4741TIP3   OH235781   4.178   3.293   0.873 -0.1917 -0.0971 -0.0260
 4741TIP3    H135782   4.159   3.282   0.780 -1.2366 -0.1567  0.1819
 4741TIP3    H235783   4.231   3.217   0.895  0.5566  0.2196 -0.7015
 4742TIP3   OH235784   0.337   0.079   2.285  0.0406  0.4308 -0.1755
 4742TIP3    H135785   0.373   0.127   2.211  2.0663  1.9662  1.6537
 4742TIP3    H235786   0.384   0.114   2.361 -1.3222 -1.6448  1.7544
 4743TIP3   OH235787   3.319   6.699   6.520 -0.9952 -0.2416 -0.5342
 4743TIP3    H135788   3.254   6.686   6.451  2.1952  0.4570 -3.9682
 4743TIP3    H235789   3.365   6.616   6.526 -1.1770 -0.2750  0.8244
 4744TIP3   OH235790   5.643   0.803   8.377 -0.0011  0.4532 -0.4989
 4744TIP3    H135791   5.646   0.817   8.282 -1.8223 -1.1244 -0.8486
 4744TIP3    H235792   5.599   0.881   8.411  1.2704  1.3409 -0.8469
 4745TIP3   OH235793   2.205   6.552   0.804  0.3832 -0.1532  0.1604
 4745TIP3    H135794   2.126   6.571   0.854  0.1059  0.0996 -0.3688
 4745TIP3    H235795   2.211   6.456   0.806 -0.4836 -0.2340 -0.6265
 4746TIP3   OH235796   5.657   2.991   1.693 -0.4178 -0.3357  0.0209
 4746TIP3    H135797   5.591   2.923   1.680 -0.6182 -0.2067  0.3316
 4746TIP3    H235798   5.648   3.014   1.786  1.5567 -1.8622  0.6639
 4747TIP3   OH235799   3.545   2.232   7.309  0.6325  0.0185 -0.0502
 4747TIP3    H135800   3.470   2.289   7.326  0.2250 -0.6540  0.4571
 4747TIP3    H235801   3.523   2.185   7.229  0.4819 -0.2224  0.1315
 4748TIP3   OH235802   0.995   0.867   1.809  0.2295  0.2315 -0.1675
 4748TIP3    H135803   0.917   0.823   1.842  0.4388  0.1177  0.1731
 4748TIP3    H235804   1.003   0.945   1.863  0.3081  0.2871 -0.2588
 4749TIP3   OH235805   4.512   6.756   6.880 -0.2018  0.0425  0.3047
 4749TIP3    H135806   4.491   6.722   6.967 -1.6040 -2.8944 -1.0632
 4749TIP3    H235807   4.565   6.688   6.839  2.2766  2.2708 -0.5279
 4750TIP3   OH235808   6.012   3.541   0.614  0.1653  0.4147  0.7973
 4750TIP3    H135809   5.926   3.541   0.655  0.9261 -1.1639  2.6095
 4750TIP3    H235810   6.072   3.562   0.686  1.3951  0.0212 -0.0754
 4751TIP3   OH235811   4.265   5.182   6.495 -0.2022  0.1490 -0.1546
 4751TIP3    H135812   4.195   5.135   6.448 -1.0006  1.2360 -0.0981
 4751TIP3    H235813   4.342   5.127   6.484 -0.9698 -0.8841 -0.5766
 4752TIP3   OH235814   3.629   5.116   7.361 -0.2502 -0.3750 -0.1307
 4752TIP3    H135815   3.666   5.029   7.376 -0.3070 -0.6444 -1.4350
 4752TIP3    H235816   3.650   5.135   7.270  0.9716  1.5762  0.5005
 4753TIP3   OH235817   1.460   2.959   1.795 -0.1395 -0.0372  0.1812
 4753TIP3    H135818   1.415   3.033   1.836  1.5799  0.7862  0.6673
 4753TIP3    H235819   1.529   2.935   1.857 -1.1789 -2.6652  0.4523
 4754TIP3   OH235820   3.081   4.270   1.087 -0.7771  0.8609 -0.1637
 4754TIP3    H135821   3.100   4.210   1.014 -1.9292 -0.6675  0.7384
 4754TIP3    H235822   2.990   4.295   1.074 -1.2262 -0.0119  1.1250
 4755TIP3   OH235823   0.525   2.828   2.233  0.0058  0.5641  0.1005
 4755TIP3    H135824   0.480   2.911   2.243 -0.2550  0.6320 -1.3795
 4755TIP3    H235825   0.618   2.849   2.241 -0.0975  0.8821  0.4382
 4756TIP3   OH235826   5.268   2.121   0.895 -0.0024  0.4958 -0.4332
 4756TIP3    H135827   5.291   2.203   0.852 -0.3246  1.2514  0.7771
 4756TIP3    H235828   5.350   2.073   0.902  0.3402  1.0798 -0.4074
 4757TIP3   OH235829   4.975   3.924   8.277  0.0591  0.0496 -0.1439
 4757TIP3    H135830   4.937   4.008   8.253  0.2334 -0.0997 -0.9680
 4757TIP3    H235831   4.926   3.860   8.225  0.5611 -0.2653 -0.2358
 4758TIP3   OH235832   3.025   4.740   7.294 -0.0865 -0.0816  0.5418
 4758TIP3    H135833   2.995   4.818   7.248 -1.1386 -0.6869  0.1552
 4758TIP3    H235834   2.945   4.702   7.332 -0.1200 -2.4576 -1.5951
 4759TIP3   OH235835   1.765   0.878   7.000 -0.1186 -0.4042 -0.2511
 4759TIP3    H135836   1.674   0.851   7.007 -0.8012  1.2701 -1.8152
 4759TIP3    H235837   1.764   0.971   7.022  0.4803  0.6449 -3.9652
 4760TIP3   OH235838   2.210   1.618   8.371  0.0479  0.5208  0.1165
 4760TIP3    H135839   2.305   1.632   8.361 -0.1325  1.6739 -0.1429
 4760TIP3    H235840   2.194   1.532   8.332  0.8447  0.7420 -0.7400
 4761TIP3   OH235841   3.987   1.691   2.024  0.3851 -0.1450  0.0483
 4761TIP3    H135842   4.038   1.620   1.985 -2.6011 -3.2219  1.3032
 4761TIP3    H235843   4.028   1.705   2.109  1.6656  0.5051 -0.6393
 4762TIP3   OH235844   2.698   1.416   1.018  0.2292  0.1110  0.7044
 4762TIP3    H135845   2.742   1.402   0.934  0.0444  0.2476  0.5857
 4762TIP3    H235846   2.605   1.414   0.998  0.1524 -1.1682  1.1128
 4763TIP3   OH235847   6.285   0.395   8.579  0.0106  0.1194 -0.5351
 4763TIP3    H135848   6.232   0.318   8.558  0.6755 -0.9245  1.3069
 4763TIP3    H235849   6.223   0.459   8.613 -0.4050 -0.0720 -0.9235
 4764TIP3   OH235850   5.915   0.372   7.428  0.2365  0.3801  0.0822
 4764TIP3    H135851   5.878   0.362   7.516  1.4952  0.7667  0.6928
 4764TIP3    H235852   5.924   0.467   7.416  0.2138  0.3231 -0.3952
 4765TIP3   OH235853   6.018   5.119   7.975  0.7849  0.3178  0.4380
 4765TIP3    H135854   5.964   5.044   7.999  0.8546  0.0217 -0.3114
 4765TIP3    H235855   5.965   5.196   7.999  1.0623  0.0549  2.0060
 4766TIP3   OH235856   3.170   2.919   8.071 -1.0926 -0.4221  0.0727
 4766TIP3    H135857   3.221   2.967   8.006 -1.2934 -1.9118 -1.2713
 4766TIP3    H235858   3.223   2.920   8.150 -1.2792  2.3082  0.2623
 4767TIP3   OH235859   6.053   3.832   7.716  0.0368 -0.1803  0.0715
 4767TIP3    H135860   6.138   3.876   7.725 -0.1859  0.5963 -1.4606
 4767TIP3    H235861   6.004   3.860   7.793  1.0442 -0.4125  0.8301
 4768TIP3   OH235862   5.292   5.874   7.875 -0.4264 -0.5848  0.1329
 4768TIP3    H135863   5.255   5.962   7.874 -0.7499 -0.7101  0.7178
 4768TIP3    H235864   5.217   5.817   7.894 -0.1232 -0.9368  0.2780
 4769TIP3   OH235865   2.578   4.761   7.940  0.0234  0.3802  0.3967
 4769TIP3    H135866   2.547   4.839   7.985 -0.9182  0.4159 -0.2957
 4769TIP3    H235867   2.551   4.772   7.849  2.8156  0.7967 -0.4774
 4770TIP3   OH235868   0.471   2.517   7.974  0.2364  0.1776 -0.3902
 4770TIP3    H135869   0.396   2.574   7.983  0.1299 -0.2372  2.2487
 4770TIP3    H235870   0.434   2.433   7.946 -0.5445 -0.3846  2.0918
 4771TIP3   OH235871   5.846   4.127   7.785  0.6097  0.0533 -0.8464
 4771TIP3    H135872   5.884   4.057   7.839 -0.7017  0.0596  0.1097
 4771TIP3    H235873   5.866   4.100   7.695 -1.4192 -2.5599 -0.6419
 4772TIP3   OH235874   1.176   4.111   1.011  0.1497  0.5029  0.8573
 4772TIP3    H135875   1.183   4.039   1.072 -1.0929  2.1985  3.1638
 4772TIP3    H235876   1.263   4.117   0.970  0.3917 -1.9509  0.8899
 4773TIP3   OH235877   6.435   1.989   7.032 -0.0062 -0.0421  0.2013
 4773TIP3    H135878   6.339   1.992   7.039 -0.0417  0.3467 -0.3567
 4773TIP3    H235879   6.465   1.984   7.122 -0.5744 -1.0123  0.3516
 4774TIP3   OH235880   3.140   1.786   6.077 -0.0068  0.4975 -0.0588
 4774TIP3    H135881   3.108   1.697   6.088  0.1457  0.3171 -1.0325
 4774TIP3    H235882   3.070   1.841   6.114  0.9418 -0.0653  2.8802
 4775TIP3   OH235883   0.472   1.722   6.484 -0.7135  0.3299 -0.2948
 4775TIP3    H135884   0.452   1.733   6.391  0.7417  0.0739 -0.6645
 4775TIP3    H235885   0.549   1.778   6.499  0.6414 -1.5719  0.1406
 4776TIP3   OH235886   5.719   6.409   1.261  0.0820 -0.0017  0.1648
 4776TIP3    H135887   5.700   6.353   1.336  0.3265  0.7049  0.7561
 4776TIP3    H235888   5.792   6.366   1.217  0.0427 -0.3290  0.4172
 4777TIP3   OH235889   6.677   5.874   6.887  0.1131  0.0573  0.3086
 4777TIP3    H135890   6.661   5.887   6.980  0.9125 -1.0994  0.6286
 4777TIP3    H235891   6.616   5.805   6.861  0.4141 -0.1479  0.1432
 4778TIP3   OH235892   4.117   5.397   0.457  0.1676  1.0656  0.2157
 4778TIP3    H135893   4.129   5.482   0.500 -0.0370  1.4603 -0.5001
 4778TIP3    H235894   4.046   5.356   0.506 -2.0280  2.6766 -1.4025
 4779TIP3   OH235895   4.892   3.550   7.477  0.4175  0.1804 -0.0531
 4779TIP3    H135896   4.935   3.614   7.420  1.7087  0.1817  0.8791
 4779TIP3    H235897   4.932   3.466   7.453 -1.2670 -0.3315 -1.2702
 4780TIP3   OH235898   1.895   0.654   8.448 -0.1458  0.6302 -0.1637
 4780TIP3    H135899   1.979   0.657   8.494 -0.0649 -2.0247  0.0155
 4780TIP3    H235900   1.868   0.745   8.443  1.2678  1.3154  2.5218
 4781TIP3   OH235901   4.406   1.517   8.135  0.1644 -0.4615  0.3850
 4781TIP3    H135902   4.475   1.517   8.200  2.0587 -0.9039 -1.5245
 4781TIP3    H235903   4.422   1.595   8.082 -1.4957  0.0365  0.5411
 4782TIP3   OH235904   1.818   5.656   1.715 -0.1652  0.3777  0.3057
 4782TIP3    H135905   1.782   5.578   1.672  1.7949  0.1562 -1.1056
 4782TIP3    H235906   1.758   5.726   1.693 -0.3312 -0.1624 -1.0297
 4783TIP3   OH235907   4.588   2.799   8.365  0.0195  0.3305  0.0435
 4783TIP3    H135908   4.619   2.883   8.399 -0.0678  0.7112 -0.8045
 4783TIP3    H235909   4.665   2.759   8.325  0.0647 -0.0055  0.4571
 4784TIP3   OH235910   4.743   3.449   2.368  0.5873  0.1352  0.0240
 4784TIP3    H135911   4.736   3.369   2.315  2.5855 -0.8273  1.0890
 4784TIP3    H235912   4.700   3.516   2.316 -0.3746 -1.4460 -1.3159
 4785TIP3   OH235913   2.149   3.123   6.725 -0.0514 -0.5741 -0.1275
 4785TIP3    H135914   2.077   3.120   6.662 -0.4642 -1.0429  0.3530
 4785TIP3    H235915   2.150   3.212   6.758  2.0355  0.5852 -2.9002
 4786TIP3   OH235916   4.213   5.121   7.119  0.1471 -0.0859 -0.0182
 4786TIP3    H135917   4.126   5.088   7.097 -0.5349  1.1684  0.6489
 4786TIP3    H235918   4.259   5.046   7.157  0.5697 -1.6948 -3.3169
 4787TIP3   OH235919   1.382   1.343   7.815  0.0374  0.3056  0.5580
 4787TIP3    H135920   1.380   1.342   7.910 -0.4399 -0.7121  0.5446
 4787TIP3    H235921   1.297   1.309   7.788  0.8914 -1.3377 -0.2196
 4788TIP3   OH235922   4.756   3.388   8.532 -0.6224  0.6844 -0.1430
 4788TIP3    H135923   4.726   3.353   8.448  0.4857 -0.0064 -0.2700
 4788TIP3    H235924   4.821   3.454   8.508  0.4016 -0.1815  0.1588
 4789TIP3   OH235925   6.645   1.278   7.053 -0.2171 -0.8123  0.3525
 4789TIP3    H135926   6.717   1.265   7.114  0.0318  0.5830  0.3824
 4789TIP3    H235927   6.655   1.208   6.988  2.8070  0.8641 -1.2001
 4790TIP3   OH235928   3.552   3.388   1.776 -0.2106 -0.3822  0.2306
 4790TIP3    H135929   3.600   3.372   1.695 -0.4042  2.3464 -0.5217
 4790TIP3    H235930   3.588   3.325   1.838  1.1893 -1.3779 -1.4874
 4791TIP3   OH235931   2.809   3.527   6.822 -0.3140 -0.2413 -0.2642
 4791TIP3    H135932   2.874   3.535   6.752 -0.1007  0.5147  0.0098
 4791TIP3    H235933   2.861   3.524   6.903 -0.6328  1.8626  0.0772
 4792TIP3   OH235934   1.664   2.403   0.674  0.5070 -0.3181 -0.3642
 4792TIP3    H135935   1.612   2.322   0.679 -1.8659  1.1279  4.3975
 4792TIP3    H235936   1.613   2.461   0.618 -0.4486 -0.5352  0.2605
 4793TIP3   OH235937   5.619   1.235   8.617 -0.4655  0.0109 -0.0778
 4793TIP3    H135938   5.687   1.231   8.685 -0.7787 -1.2728  0.1823
 4793TIP3    H235939   5.536   1.225   8.665 -0.7347 -0.2066 -0.5756
 4794TIP3   OH235940   0.948   4.814   7.167 -0.3425  0.5076  0.1106
 4794TIP3    H135941   1.011   4.825   7.238 -0.2866 -2.9937  0.7875
 4794TIP3    H235942   0.987   4.860   7.093  2.2618 -0.1701  0.9608
 4795TIP3   OH235943   5.707   3.578   0.168 -0.8549 -0.3251 -0.1426
 4795TIP3    H135944   5.748   3.514   0.226 -0.8368  0.0803  0.3017
 4795TIP3    H235945   5.630   3.533   0.133 -1.0491 -0.4673  0.4587
 4796TIP3   OH235946   0.517   5.584   7.328 -0.1221 -0.3677 -0.6806
 4796TIP3    H135947   0.475   5.504   7.295 -1.5970  0.4900 -0.9640
 4796TIP3    H235948   0.512   5.646   7.256  1.1963 -0.0660 -0.5282
 4797TIP3   OH235949   5.676   1.971   6.254  0.1461  0.3747 -0.3352
 4797TIP3    H135950   5.626   2.050   6.233 -1.8142 -0.8340 -0.5290
 4797TIP3    H235951   5.692   1.976   6.348 -1.3902  0.2804 -0.0391
 4798TIP3   OH235952   0.464   5.704   6.443 -0.7341  0.5141 -0.3424
 4798TIP3    H135953   0.547   5.720   6.489 -1.7086  1.3345  1.2261
 4798TIP3    H235954   0.480   5.734   6.353 -0.1871  3.5439  0.6507
 4799TIP3   OH235955   4.359   1.022   6.730  0.2746  0.3211 -0.0149
 4799TIP3    H135956   4.295   1.034   6.801  2.8409 -0.5614  2.6862
 4799TIP3    H235957   4.324   0.950   6.678 -0.1361 -1.4485  2.5042
 4800TIP3   OH235958   1.141   6.453   8.210  0.1779 -0.2121 -0.1321
 4800TIP3    H135959   1.132   6.409   8.126 -0.4504 -0.5106  0.0814
 4800TIP3    H235960   1.055   6.491   8.227 -0.2469 -1.6186  1.1493
 4801TIP3   OH235961   4.122   0.893   8.293 -0.6562 -0.2393 -0.2039
 4801TIP3    H135962   4.190   0.830   8.317  0.1771  1.5296  2.5237
 4801TIP3    H235963   4.168   0.963   8.247 -0.5922  0.8304  1.4031
 4802TIP3   OH235964   0.299   5.842   0.310  0.2860 -0.0833  0.6451
 4802TIP3    H135965   0.389   5.810   0.306  0.0670 -0.6443 -0.0334
 4802TIP3    H235966   0.288   5.895   0.232 -0.4727 -1.4236 -0.2017
 4803TIP3   OH235967   6.200   5.989   0.687 -0.3002 -0.0481  0.4216
 4803TIP3    H135968   6.114   5.950   0.669 -0.1645  0.6101 -2.1786
 4803TIP3    H235969   6.207   6.060   0.623  2.4700 -0.5381  0.0672
 4804TIP3   OH235970   5.880   5.229   5.770 -0.4255 -0.2104 -0.1369
 4804TIP3    H135971   5.931   5.306   5.745 -0.7257 -0.6745 -2.2986
 4804TIP3    H235972   5.944   5.158   5.776 -0.5751 -0.4448 -1.2325
 4805TIP3   OH235973   0.781   2.257   0.089 -0.1688  0.0069  0.2213
 4805TIP3    H135974   0.816   2.172   0.063  1.6336  0.1920  1.8060
 4805TIP3    H235975   0.844   2.320   0.056 -0.5148  0.5854  0.6476
 4806TIP3   OH235976   0.240   5.115   1.528  0.3832  0.3812 -0.4375
 4806TIP3    H135977   0.196   5.151   1.451  0.6826  0.9943 -0.3252
 4806TIP3    H235978   0.215   5.022   1.528  0.8543  0.2399 -1.6089
 4807TIP3   OH235979   6.165   5.150   8.331  0.0545 -0.7888 -0.4445
 4807TIP3    H135980   6.131   5.154   8.420  1.3967 -1.9524  0.1666
 4807TIP3    H235981   6.092   5.118   8.279 -0.3214 -1.5253  0.5015
 4808TIP3   OH235982   1.036   4.969   1.624 -0.3288  0.3058  0.3420
 4808TIP3    H135983   0.994   4.884   1.628 -1.2461  0.7239 -0.1543
 4808TIP3    H235984   1.028   4.996   1.532 -1.3213  1.5421  0.7632
 4809TIP3   OH235985   1.107   4.424   6.514 -0.1123 -0.4451  0.6764
 4809TIP3    H135986   1.067   4.337   6.513  1.7684 -1.3609  0.8450
 4809TIP3    H235987   1.156   4.428   6.432 -1.2208  1.0103  0.0453
 4810TIP3   OH235988   0.243   5.311   0.561 -0.5196 -0.8355 -0.3222
 4810TIP3    H135989   0.338   5.321   0.554 -0.7345  1.1785 -0.9290
 4810TIP3    H235990   0.225   5.324   0.654 -0.4945  2.6265 -0.6773
 4811TIP3   OH235991   1.872   2.210   1.010 -0.8048 -0.3276 -0.3630
 4811TIP3    H135992   1.942   2.247   0.955 -1.1238  0.9110  0.0268
 4811TIP3    H235993   1.872   2.265   1.088 -1.0205 -1.4568  0.4451
 4812TIP3   OH235994   5.685   1.972   0.646  0.0498  0.0171  0.2488
 4812TIP3    H135995   5.719   1.889   0.681  0.6476  0.4569  0.7240
 4812TIP3    H235996   5.736   1.986   0.566  0.3709  0.2284  0.4892
 4813TIP3   OH235997   1.650   4.932   2.154  0.0190  0.0419 -0.3951
 4813TIP3    H135998   1.616   4.991   2.222 -1.1673 -1.2294  0.1410
 4813TIP3    H235999   1.592   4.946   2.079 -0.7875 -1.0269  0.0134
 4814TIP3   OH236000   0.110   6.207   2.489 -0.2264  0.9822 -0.6180
 4814TIP3    H136001   0.068   6.289   2.515 -2.5363 -0.2737 -0.1196
 4814TIP3    H236002   0.081   6.144   2.555  0.7682 -0.4432 -1.5003
 4815TIP3   OH236003   5.162   3.324   1.257  0.2978  0.2398 -0.4750
 4815TIP3    H136004   5.077   3.285   1.278  0.3639  1.0979  1.7072
 4815TIP3    H236005   5.213   3.251   1.221 -0.4611 -1.0456  0.9077
 4816TIP3   OH236006   5.942   6.219   8.169 -0.2428  0.0865 -0.0585
 4816TIP3    H136007   5.979   6.253   8.250  1.1616 -1.1858 -0.1248
 4816TIP3    H236008   6.017   6.202   8.112 -1.2118  1.1979 -1.7736
 4817TIP3   OH236009   5.125   4.716   7.415  0.1037  0.0057 -0.3449
 4817TIP3    H136010   5.180   4.639   7.402 -1.0297 -0.9202  0.0946
 4817TIP3    H236011   5.186   4.788   7.425  1.1814 -0.5623 -2.3877
 4818TIP3   OH236012   4.079   1.529   0.340  0.3849 -0.4800  0.0068
 4818TIP3    H136013   4.129   1.582   0.278 -0.7129 -0.0784 -0.5539
 4818TIP3    H236014   4.126   1.539   0.423 -0.3415  2.1877  0.1695
 4819TIP3   OH236015   1.036   1.387   0.555  0.3188  0.4266  0.5265
 4819TIP3    H136016   1.129   1.408   0.554  0.3642  0.3160  1.7098
 4819TIP3    H236017   1.029   1.304   0.509  0.7328  0.6805 -0.0056
 4820TIP3   OH236018   4.707   1.501   1.492 -0.0986 -0.4901 -0.0046
 4820TIP3    H136019   4.622   1.507   1.447 -1.1917  0.0939  2.0112
 4820TIP3    H236020   4.767   1.550   1.436 -1.0168 -1.0638 -1.5764
 4821TIP3   OH236021   1.479   6.330   8.531  0.0772  0.5130  0.0966
 4821TIP3    H136022   1.491   6.422   8.509 -2.8354  1.0278  0.1904
 4821TIP3    H236023   1.448   6.289   8.450 -1.9907  0.4600  0.8406
 4822TIP3   OH236024   5.092   5.242   8.147 -0.1067 -0.4250  0.1277
 4822TIP3    H136025   5.073   5.294   8.069  1.2477 -0.9250 -0.5621
 4822TIP3    H236026   5.049   5.289   8.218  1.3797  1.8868 -0.4007
 4823TIP3   OH236027   6.497   3.552   0.958 -0.3527 -0.3066  0.0061
 4823TIP3    H136028   6.476   3.641   0.931 -2.4126 -0.2448  1.5912
 4823TIP3    H236029   6.413   3.512   0.978  0.4036 -3.0429 -1.7230
 4824TIP3   OH236030   4.348   2.857   8.741  0.3805  0.6882  0.2117
 4824TIP3    H136031   4.286   2.885   8.809  1.6755  0.5052  1.5346
 4824TIP3    H236032   4.310   2.778   8.704 -1.0019  1.5343 -0.2183
 4825TIP3   OH236033   2.922   0.605   8.500  0.1340 -0.6197  0.0763
 4825TIP3    H136034   2.940   0.692   8.463 -0.3230 -0.5735 -0.0409
 4825TIP3    H236035   2.908   0.549   8.423  0.7341 -0.8728  0.1406
 4826TIP3   OH236036   2.457   5.628   1.158  0.5921 -0.6354  0.1320
 4826TIP3    H136037   2.494   5.680   1.086 -1.6932  0.6626 -0.1990
 4826TIP3    H236038   2.389   5.684   1.195 -0.1120 -2.3636  1.5715
 4827TIP3   OH236039   5.412   2.270   6.772 -0.1679 -0.9197  0.2486
 4827TIP3    H136040   5.500   2.245   6.744 -0.1842 -2.1970  1.2331
 4827TIP3    H236041   5.357   2.197   6.745 -0.6313 -0.9008  1.1019
 4828TIP3   OH236042   4.680   4.416   0.311  0.0459  0.3936  0.2865
 4828TIP3    H136043   4.745   4.350   0.333 -0.1591  0.6277  1.7100
 4828TIP3    H236044   4.704   4.446   0.224  0.7853 -0.7771  0.0764
 4829TIP3   OH236045   4.442   1.817   5.885  0.1242  0.4314 -0.2026
 4829TIP3    H136046   4.391   1.740   5.910 -1.2965  1.0174 -1.2129
 4829TIP3    H236047   4.383   1.870   5.833  1.4021  1.7355 -0.3984
 4830TIP3   OH236048   0.546   6.660   1.514 -0.5069  0.2288  0.1439
 4830TIP3    H136049   0.523   6.714   1.438 -0.4783  0.4960  0.3216
 4830TIP3    H236050   0.505   6.705   1.588 -1.2285 -0.4763  0.1864
 4831TIP3   OH236051   4.767   1.695   1.108  0.1834 -0.4086  0.0690
 4831TIP3    H136052   4.683   1.696   1.062 -0.3703  1.6956  0.9772
 4831TIP3    H236053   4.804   1.782   1.090  0.4555  0.0685  2.5999
 4832TIP3   OH236054   6.659   6.752   1.651 -0.0724  0.3567 -0.4176
 4832TIP3    H136055   6.577   6.733   1.605 -1.1109 -0.3768  1.6097
 4832TIP3    H236056   6.727   6.719   1.593 -1.3676 -1.4622 -0.9820
 4833TIP3   OH236057   6.329   0.291   6.741 -0.5491  0.1216  0.0391
 4833TIP3    H136058   6.237   0.285   6.714 -0.2994  1.3367 -1.2039
 4833TIP3    H236059   6.327   0.350   6.816 -0.9724 -1.3808  1.2648
 4834TIP3   OH236060   0.300   3.875   0.070 -0.2345 -0.9122 -0.2315
 4834TIP3    H136061   0.328   3.960   0.039 -1.8979 -0.5263 -0.8002
 4834TIP3    H236062   0.212   3.890   0.105 -0.4275 -2.3256 -0.0396
 4835TIP3   OH236063   1.992   2.451   7.187  0.1002  0.0914  0.9659
 4835TIP3    H136064   1.925   2.476   7.250 -0.6124 -1.6292  0.9629
 4835TIP3    H236065   2.001   2.356   7.199  1.0762 -0.0191 -0.4300
 4836TIP3   OH236066   1.158   0.376   1.422 -0.4828  0.3899  0.3252
 4836TIP3    H136067   1.205   0.358   1.504 -0.6941  0.5766  0.4873
 4836TIP3    H236068   1.111   0.457   1.439  0.5616  1.1831 -0.4456
 4837TIP3   OH236069   1.365   0.148   0.536 -0.1639 -0.2095 -0.0655
 4837TIP3    H136070   1.454   0.165   0.507  0.0990 -0.7720  0.4016
 4837TIP3    H236071   1.322   0.109   0.460 -0.0565  0.1786 -0.3317
 4838TIP3   OH236072   3.549   1.684   1.303  0.4373  0.0809 -0.3808
 4838TIP3    H136073   3.610   1.635   1.249 -1.1168 -1.6433 -0.6954
 4838TIP3    H236074   3.471   1.629   1.307 -1.0538  2.0947  0.1254
 4839TIP3   OH236075   3.889   0.278   0.417 -0.4398 -0.1690 -0.0832
 4839TIP3    H136076   3.824   0.304   0.483 -1.4804  2.6415 -2.0145
 4839TIP3    H236077   3.966   0.331   0.437  0.0922 -1.0116  0.1778
 4840TIP3   OH236078   2.971   4.350   0.121 -0.3188 -0.2764  0.0193
 4840TIP3    H136079   2.978   4.437   0.161  1.3202 -0.5082  0.3292
 4840TIP3    H236080   2.985   4.289   0.194  0.2675 -0.7547 -0.4779
 4841TIP3   OH236081   5.969   5.356   8.251  0.4809 -0.2667  0.1913
 4841TIP3    H136082   6.064   5.353   8.242  0.5693 -0.4663  1.0977
 4841TIP3    H236083   5.954   5.398   8.336 -0.2639  0.6929 -0.3867
 4842TIP3   OH236084   4.412   4.923   7.369  0.0634  0.2828  0.0135
 4842TIP3    H136085   4.499   4.885   7.363  0.0781  0.4481 -0.9236
 4842TIP3    H236086   4.412   4.971   7.452  1.6203  2.1112 -0.9780
 4843TIP3   OH236087   2.271   5.358   1.655  0.0097 -0.2528 -0.4220
 4843TIP3    H136088   2.207   5.410   1.704  0.0680 -0.2261 -0.3744
 4843TIP3    H236089   2.338   5.421   1.629  0.5106 -0.4612  0.3570
 4844TIP3   OH236090   6.647   4.875   7.863  0.2659  0.2925 -0.0678
 4844TIP3    H136091   6.568   4.929   7.855  1.3966  2.2656  1.2021
 4844TIP3    H236092   6.691   4.884   7.778  0.3769  1.3393  0.0840
 4845TIP3   OH236093   3.129   6.699   0.671  0.6156 -0.6620 -0.5501
 4845TIP3    H136094   3.170   6.687   0.756  0.8905 -0.5022 -0.6607
 4845TIP3    H236095   3.178   6.770   0.630 -0.5610  0.3855 -0.1916
 4846TIP3   OH236096   4.370   4.598   6.588 -0.2240  0.4788 -0.0859
 4846TIP3    H136097   4.331   4.512   6.601  0.4892  0.3214  1.1477
 4846TIP3    H236098   4.359   4.616   6.495 -1.4023 -0.4388 -0.1417
 4847TIP3   OH236099   5.766   1.918   8.354 -0.2948 -0.1498 -0.1852
 4847TIP3    H136100   5.704   1.952   8.418  0.0173 -1.0570  0.6156
 4847TIP3    H236101   5.804   1.841   8.395  1.6698  0.5979 -0.4742
 4848TIP3   OH236102   0.735   1.634   1.118 -0.0506  0.7407 -0.4828
 4848TIP3    H136103   0.704   1.691   1.047  0.5589  0.8730 -0.6504
 4848TIP3    H236104   0.811   1.589   1.081 -1.3622 -1.3093 -0.8513
 4849TIP3   OH236105   3.050   3.512   1.728 -0.6039 -0.2920  0.0591
 4849TIP3    H136106   3.036   3.431   1.776  3.5134 -1.0660  0.3377
 4849TIP3    H236107   3.043   3.581   1.794 -1.3818 -0.6981  0.4078
 4850TIP3   OH236108   1.590   4.672   8.157 -0.7109  0.4138  0.2221
 4850TIP3    H136109   1.624   4.762   8.150  1.6157 -0.3731  0.4016
 4850TIP3    H236110   1.565   4.648   8.068  1.0455  0.4195 -0.3119
 4851TIP3   OH236111   4.616   1.524   7.496  0.2385  0.6295 -0.0340
 4851TIP3    H136112   4.589   1.614   7.516  0.3490  0.4988  0.7429
 4851TIP3    H236113   4.711   1.529   7.486  0.3334  0.4828  0.7244
 4852TIP3   OH236114   4.868   5.479   8.605  0.1111 -0.2760 -0.0458
 4852TIP3    H136115   4.782   5.491   8.564  0.4394 -0.4001 -0.7880
 4852TIP3    H236116   4.850   5.478   8.699 -0.7084 -0.3794 -0.1969
 4853TIP3   OH236117   0.574   1.936   8.182 -0.4463  0.0654  0.7742
 4853TIP3    H136118   0.480   1.944   8.162 -0.4832 -0.8918  0.4871
 4853TIP3    H236119   0.611   2.020   8.157 -1.1322  0.2392  0.3028
 4854TIP3   OH236120   4.554   4.347   7.907  0.4666  0.7384 -0.8329
 4854TIP3    H136121   4.475   4.338   7.960  0.9096 -1.5624 -0.4697
 4854TIP3    H236122   4.626   4.339   7.970  0.9921  0.2221 -1.4896
 4855TIP3   OH236123   2.989   5.210   7.620  0.3227  0.2533  0.4646
 4855TIP3    H136124   2.984   5.169   7.534 -0.9000 -2.4202  1.6722
 4855TIP3    H236125   2.999   5.304   7.602  0.7624 -0.2750 -2.5359
 4856TIP3   OH236126   1.837   5.694   8.733  0.3963  0.2296 -0.2295
 4856TIP3    H136127   1.830   5.607   8.695  0.4081  0.4485 -0.7465
 4856TIP3    H236128   1.867   5.679   8.823  1.8420 -0.2259 -0.7618
 4857TIP3   OH236129   4.434   5.665   8.410  0.2931 -0.4671  0.3813
 4857TIP3    H136130   4.476   5.620   8.484 -1.3472 -0.3422  1.4571
 4857TIP3    H236131   4.340   5.648   8.423  0.0230 -2.0145 -2.7377
 4858TIP3   OH236132   4.696   4.538   6.952 -0.1715  0.1128 -0.3351
 4858TIP3    H136133   4.720   4.565   6.864  0.4079 -0.6643 -0.4245
 4858TIP3    H236134   4.744   4.598   7.010  1.2727 -0.7998 -0.5279
 4859TIP3   OH236135   0.247   4.314   8.412  0.1990 -0.0229 -0.2985
 4859TIP3    H136136   0.196   4.311   8.332 -0.0006 -2.6690 -0.1728
 4859TIP3    H236137   0.312   4.382   8.397 -1.7631  1.7076 -1.4224
 4860TIP3   OH236138   5.446   5.103   1.523  0.1943 -0.0284  0.1879
 4860TIP3    H136139   5.477   5.012   1.517  1.2345  0.3407 -0.2559
 4860TIP3    H236140   5.525   5.154   1.539 -0.3348  0.8454  0.0583
 4861TIP3   OH236141   4.533   3.521   6.529 -0.0299  0.0028 -0.2122
 4861TIP3    H136142   4.450   3.565   6.548 -1.5889 -2.4902 -0.7530
 4861TIP3    H236143   4.571   3.503   6.615 -0.5103  0.3850  0.0844
 4862TIP3   OH236144   3.411   4.621   1.297  0.0175  0.0174 -0.3238
 4862TIP3    H136145   3.424   4.545   1.354  0.3501  0.4169  0.1427
 4862TIP3    H236146   3.374   4.688   1.354 -2.2168 -0.4222 -1.1793
 4863TIP3   OH236147   5.937   6.539   6.386  0.2747  0.0940  0.3804
 4863TIP3    H136148   5.941   6.456   6.339 -1.6252 -0.3501  0.9219
 4863TIP3    H236149   5.844   6.551   6.406  0.7465  1.3669  2.0584
 4864TIP3   OH236150   2.948   4.591   1.517  0.0705 -0.3004 -0.2387
 4864TIP3    H136151   2.956   4.586   1.422  1.1333  0.7489 -0.2222
 4864TIP3    H236152   2.970   4.503   1.547  2.2868 -0.0222 -0.8465
 4865TIP3   OH236153   3.623   3.524   1.445  0.3134 -0.0612 -0.4158
 4865TIP3    H136154   3.712   3.559   1.444  0.7668 -1.1645 -0.0962
 4865TIP3    H236155   3.634   3.431   1.463 -0.9200 -0.1895 -0.2478
 4866TIP3   OH236156   1.508   6.422   0.256 -0.5893  0.3905  0.1080
 4866TIP3    H136157   1.599   6.420   0.225 -0.7288 -0.7899 -0.2717
 4866TIP3    H236158   1.468   6.495   0.209 -0.8513 -1.4371 -2.7459
 4867TIP3   OH236159   1.894   2.732   1.490 -0.3198  0.3877 -0.5182
 4867TIP3    H136160   1.960   2.671   1.457 -1.4355 -0.7676 -0.6653
 4867TIP3    H236161   1.836   2.749   1.416 -0.1250  1.5155 -0.4356
 4868TIP3   OH236162   5.789   0.544   6.448  0.4732 -0.0995  0.9859
 4868TIP3    H136163   5.773   0.458   6.485  0.7775 -0.6109 -0.0375
 4868TIP3    H236164   5.884   0.551   6.442  0.4262 -0.0340  0.2826
 4869TIP3   OH236165   0.429   5.850   7.890 -0.4075  0.0464 -0.5660
 4869TIP3    H136166   0.490   5.776   7.883  0.3838  0.7954 -2.2278
 4869TIP3    H236167   0.360   5.830   7.828 -0.9506  0.0346  0.0364
 4870TIP3   OH236168   2.844   0.817   0.300  0.1484  0.4344 -0.0493
 4870TIP3    H136169   2.794   0.740   0.275  0.1091  0.7809 -1.1046
 4870TIP3    H236170   2.870   0.801   0.390 -0.8413 -0.2887  0.1250
 4871TIP3   OH236171   4.643   3.510   8.163 -0.0990 -0.0422  0.2763
 4871TIP3    H136172   4.636   3.431   8.216 -0.2955 -0.6915 -0.7041
 4871TIP3    H236173   4.737   3.525   8.155  0.0259 -1.3836 -1.2570
 4872TIP3   OH236174   2.478   0.401   8.365  0.2917 -0.1141  1.0043
 4872TIP3    H136175   2.410   0.400   8.297  0.7345 -0.2568  0.5610
 4872TIP3    H236176   2.528   0.481   8.349  0.0559  0.1416  1.5096
 4873TIP3   OH236177   3.247   6.319   0.765 -0.1300 -0.0546 -0.2383
 4873TIP3    H136178   3.183   6.247   0.767 -0.0270 -0.1421 -0.0875
 4873TIP3    H236179   3.254   6.342   0.673 -0.8852  0.4080 -0.1879
 4874TIP3   OH236180   1.731   6.653   1.686 -0.1313  0.2909  0.3034
 4874TIP3    H136181   1.790   6.577   1.689 -0.3426  0.0799 -0.6920
 4874TIP3    H236182   1.753   6.702   1.765  0.6991 -0.2923  0.4566
 4875TIP3   OH236183   3.948   4.175   8.092 -0.2669 -0.1928  0.0949
 4875TIP3    H136184   4.032   4.199   8.053 -0.2325 -0.7331 -0.1879
 4875TIP3    H236185   3.946   4.079   8.085 -1.2055 -0.1424 -0.5518
 4876TIP3   OH236186   2.037   0.687   1.723 -0.0288 -0.5885 -0.0917
 4876TIP3    H136187   2.127   0.671   1.750 -0.0567 -2.2784 -0.9085
 4876TIP3    H236188   1.984   0.630   1.779 -0.6298  0.5249  0.5114
 4877TIP3   OH236189   4.273   6.124   0.646 -0.0291 -0.1430 -0.0293
 4877TIP3    H136190   4.336   6.066   0.603  1.4170  1.4986 -0.2234
 4877TIP3    H236191   4.308   6.212   0.634 -2.2037  0.8307  0.1708
 4878TIP3   OH236192   5.185   1.530   7.522 -0.1852 -0.1574 -0.1247
 4878TIP3    H136193   5.275   1.563   7.527  0.4571 -1.7895 -0.3974
 4878TIP3    H236194   5.161   1.541   7.430  0.7261 -2.1380 -0.6349
 4879TIP3   OH236195   4.240   3.458   1.922 -0.2504 -0.5483 -0.5069
 4879TIP3    H136196   4.332   3.446   1.944 -0.3853 -0.3026  0.2354
 4879TIP3    H236197   4.193   3.433   2.002 -0.8087 -0.3933 -0.7809
 4880TIP3   OH236198   6.305   0.999   1.723  0.2106 -0.5186  0.0693
 4880TIP3    H136199   6.218   1.037   1.735  0.4883 -0.5954  3.0183
 4880TIP3    H236200   6.289   0.920   1.669 -1.0887  0.8535 -1.6879
 4881TIP3   OH236201   2.091   5.514   1.421  0.4680  0.3999 -0.2133
 4881TIP3    H136202   2.026   5.470   1.476  0.7992 -0.4817 -0.5235
 4881TIP3    H236203   2.039   5.559   1.354  0.1996 -0.9860 -0.9599
 4882TIP3   OH236204   0.214   2.698   1.350 -0.4499 -0.3450  0.4146
 4882TIP3    H136205   0.300   2.694   1.308 -0.2567 -2.8798  0.9262
 4882TIP3    H236206   0.157   2.739   1.285  0.4731 -1.5576 -1.2087
 4883TIP3   OH236207   5.825   4.833   1.559  0.3348  0.3875 -0.0243
 4883TIP3    H136208   5.848   4.742   1.542  1.2742  0.3535  1.3567
 4883TIP3    H236209   5.889   4.864   1.622 -1.6129  1.1783  1.6953
 4884TIP3   OH236210   4.522   4.202   0.994 -0.6336 -0.0580 -0.3111
 4884TIP3    H136211   4.586   4.146   0.950 -1.2303 -1.1476  0.1513
 4884TIP3    H236212   4.556   4.213   1.083  0.5451  2.0977 -0.9701
 4885TIP3   OH236213   3.761   3.677   8.207  0.3018  0.3126  0.3214
 4885TIP3    H136214   3.806   3.651   8.287  1.8087  2.3604  0.2068
 4885TIP3    H236215   3.756   3.596   8.156 -1.2865 -1.1980  2.6739
 4886TIP3   OH236216   6.827   0.737   0.128  0.3984  0.6050 -0.4258
 4886TIP3    H136217   6.824   0.833   0.121  1.1832  0.5740 -1.4243
 4886TIP3    H236218   6.865   0.708   0.045  5.0065 -0.2511  1.7039
 4887TIP3   OH236219   5.780   4.944   1.309 -0.4884  0.4153 -0.1652
 4887TIP3    H136220   5.770   4.902   1.394  1.0969 -0.2161 -0.2498
 4887TIP3    H236221   5.709   4.909   1.256  0.2442 -1.5156  0.0473
 4888TIP3   OH236222   5.650   2.432   8.565 -0.3463 -0.6310  0.6760
 4888TIP3    H136223   5.606   2.501   8.615 -0.4260  0.4825 -0.8781
 4888TIP3    H236224   5.671   2.366   8.631  0.4111  1.1775  2.3654
 4889TIP3   OH236225   1.059   2.051   7.443 -0.1301  0.4588  0.0510
 4889TIP3    H136226   1.121   2.061   7.515  0.1699  1.2184 -0.3003
 4889TIP3    H236227   1.062   2.135   7.397 -0.8850  0.2497 -0.3962
 4890TIP3   OH236228   0.131   0.244   8.228 -0.4342  0.3669 -0.0210
 4890TIP3    H136229   0.222   0.216   8.242 -0.6320 -0.5305 -0.4519
 4890TIP3    H236230   0.085   0.216   8.307 -0.6249 -0.5342 -0.4366
 4891TIP3   OH236231   4.274   6.394   1.189  0.0480 -0.3699 -0.1222
 4891TIP3    H136232   4.353   6.394   1.136 -0.6739  0.8105 -1.2750
 4891TIP3    H236233   4.302   6.426   1.275  0.9436 -0.7559 -0.2575
 4892TIP3   OH236234   0.931   3.469   0.414 -0.2785  0.5903 -0.0605
 4892TIP3    H136235   0.959   3.399   0.355 -2.7594  0.2436 -0.9188
 4892TIP3    H236236   0.863   3.429   0.469  2.7919  0.4840  4.1460
 4893TIP3   OH236237   1.635   2.507   8.275  0.8280 -0.3847 -0.0893
 4893TIP3    H136238   1.548   2.477   8.249  0.9910  0.2440 -1.4370
 4893TIP3    H236239   1.635   2.500   8.370 -0.3351 -1.3578 -0.1389
 4894TIP3   OH236240   3.533   1.717   6.456  0.3666 -0.4075  0.0933
 4894TIP3    H136241   3.527   1.621   6.458  0.6846 -0.4434 -0.5007
 4894TIP3    H236242   3.478   1.743   6.383 -2.0098  0.0891  1.9269
 4895TIP3   OH236243   2.300   2.873   7.491 -0.0800  0.4519  0.2364
 4895TIP3    H136244   2.213   2.905   7.512 -0.3627  0.2173 -0.5465
 4895TIP3    H236245   2.307   2.881   7.396  0.0212 -1.3123  0.0592
 4896TIP3   OH236246   6.644   1.766   1.701 -0.3161  0.1855 -0.2254
 4896TIP3    H136247   6.623   1.675   1.676 -2.8893  0.7098 -0.2582
 4896TIP3    H236248   6.691   1.801   1.626 -2.8052 -0.0127 -2.0027
 4897TIP3   OH236249   5.387   3.727   2.047 -0.1785  0.2878  0.0853
 4897TIP3    H136250   5.476   3.731   2.011  0.9487 -0.6699  2.5615
 4897TIP3    H236251   5.351   3.814   2.031  0.6327  0.2846 -2.2159
 4898TIP3   OH236252   3.080   3.800   0.264  0.1207  0.1100  0.4739
 4898TIP3    H136253   3.105   3.833   0.350  2.3721 -0.6768  0.1847
 4898TIP3    H236254   3.114   3.866   0.203  1.4476 -0.8931  0.0769
 4899TIP3   OH236255   6.462   2.739   7.862  0.3999 -0.0264  0.1336
 4899TIP3    H136256   6.431   2.659   7.819  0.0934  0.7723 -1.1834
 4899TIP3    H236257   6.492   2.795   7.791 -2.1389  2.2451  0.6489
 4900TIP3   OH236258   1.446   1.711   8.428 -0.3573 -0.0043 -0.0194
 4900TIP3    H136259   1.360   1.711   8.470  0.1326 -0.0362  1.0160
 4900TIP3    H236260   1.457   1.800   8.394 -0.5993  0.1365  0.2754
 4901TIP3   OH236261   2.195   0.188   7.974 -0.4446 -0.0851  0.4269
 4901TIP3    H136262   2.193   0.215   7.882 -2.7829  0.2379  0.5026
 4901TIP3    H236263   2.253   0.112   7.975  0.2155  0.3448 -1.1630
 4902TIP3   OH236264   3.872   0.462   1.086 -0.5507  0.5283  0.5377
 4902TIP3    H136265   3.881   0.378   1.130 -0.3352  1.1660  1.7450
 4902TIP3    H236266   3.932   0.457   1.012 -1.8303 -1.0234 -0.4481
 4903TIP3   OH236267   3.306   0.188   1.699  0.0002  0.3676  0.0855
 4903TIP3    H136268   3.223   0.180   1.745  0.8077  1.3346  1.8160
 4903TIP3    H236269   3.306   0.115   1.637 -2.0483  0.2620  0.1402
 4904TIP3   OH236270   6.481   1.869   1.075  0.0425  0.1812 -0.4171
 4904TIP3    H136271   6.404   1.886   1.129 -0.1890 -0.7649 -0.4386
 4904TIP3    H236272   6.552   1.855   1.138 -0.3998 -1.7655 -0.2983
 4905TIP3   OH236273   5.812   2.419   2.321  0.5929  0.5275  0.4229
 4905TIP3    H136274   5.903   2.403   2.348  0.9319  1.8832  0.1908
 4905TIP3    H236275   5.803   2.515   2.325 -0.5723  0.4688 -0.3667
 4906TIP3   OH236276   0.387   1.543   0.647  0.3044 -0.4160 -0.4516
 4906TIP3    H136277   0.373   1.510   0.559 -1.8270 -2.0494  0.4329
 4906TIP3    H236278   0.323   1.613   0.658  0.7564 -0.0189 -0.2657
 4907TIP3   OH236279   4.036   2.253   0.135  0.0214 -0.4228  0.2288
 4907TIP3    H136280   4.068   2.273   0.223 -0.7214 -0.0368  0.4150
 4907TIP3    H236281   4.114   2.263   0.079  0.8068 -1.9097  0.9864
 4908TIP3   OH236282   6.624   6.222   7.895  0.2822 -0.1445  0.1006
 4908TIP3    H136283   6.654   6.142   7.851 -1.9497  0.4829 -2.8807
 4908TIP3    H236284   6.651   6.293   7.836  0.2478  1.1140  1.5548
 4909TIP3   OH236285   2.369   2.568   6.525  0.1419  0.3098 -0.0876
 4909TIP3    H136286   2.445   2.567   6.466  0.0670 -0.5212 -0.1823
 4909TIP3    H236287   2.376   2.652   6.571  0.8209  0.4772 -0.4746
 4910TIP3   OH236288   6.827   3.928   7.918 -1.0003 -0.0742  0.1739
 4910TIP3    H136289   6.835   3.979   7.837  1.5290  1.8479  1.4982
 4910TIP3    H236290   6.850   3.838   7.892 -0.1498  0.5128 -1.2332
 4911TIP3   OH236291   4.584   5.185   7.049 -0.3298  0.1472  0.1894
 4911TIP3    H136292   4.515   5.244   7.019 -0.2858 -0.4332 -1.1096
 4911TIP3    H236293   4.556   5.156   7.136 -2.8348 -1.7599 -1.1479
 4912TIP3   OH236294   4.275   3.461   1.243  0.3443 -0.2322 -0.5850
 4912TIP3    H136295   4.356   3.415   1.221  0.2390 -1.5197  1.4748
 4912TIP3    H236296   4.206   3.395   1.233 -0.0650 -0.0025  0.5581
 4913TIP3   OH236297   6.280   3.107   7.515 -0.4404 -0.3499 -0.5450
 4913TIP3    H136298   6.325   3.124   7.433  0.2813  0.0564 -0.0706
 4913TIP3    H236299   6.251   3.193   7.545 -1.5343 -0.6021 -0.8359
 4914TIP3   OH236300   5.029   0.850   6.740 -0.1909 -0.0618 -0.3186
 4914TIP3    H136301   4.934   0.858   6.746 -0.2609 -1.6571  1.5360
 4914TIP3    H236302   5.044   0.782   6.675 -0.4488 -1.3946  0.9616
 4915TIP3   OH236303   5.600   3.490   0.901 -0.3736  0.0699 -0.4122
 4915TIP3    H136304   5.573   3.407   0.941  0.4919 -0.3967 -0.7655
 4915TIP3    H236305   5.658   3.464   0.829 -0.3140  0.9722 -0.6965
 4916TIP3   OH236306   3.746   1.681   6.786 -0.2884 -0.7175 -0.0004
 4916TIP3    H136307   3.739   1.770   6.751 -2.8479 -1.5187 -1.8357
 4916TIP3    H236308   3.831   1.650   6.755  0.0396  0.6085 -0.5114
 4917TIP3   OH236309   3.283   5.602   6.188  0.6039  0.1002  0.1560
 4917TIP3    H136310   3.340   5.568   6.119  0.0685  0.4920 -0.5053
 4917TIP3    H236311   3.245   5.524   6.229  2.1258 -0.1888  1.0793
 4918TIP3   OH236312   5.648   4.042   8.458  0.3671 -0.5811 -0.0673
 4918TIP3    H136313   5.646   4.008   8.547  2.3991 -2.5003 -0.6546
 4918TIP3    H236314   5.593   3.981   8.408 -0.6896  0.4311 -0.1920
 4919TIP3   OH236315   5.637   0.724   0.353 -0.0651 -0.2789 -1.0508
 4919TIP3    H136316   5.679   0.791   0.407  2.3316 -1.4761 -1.3245
 4919TIP3    H236317   5.628   0.765   0.267 -2.9832  1.2705 -0.1765
 4920TIP3   OH236318   0.089   3.395   0.300 -0.0419  0.3384 -0.0016
 4920TIP3    H136319   0.125   3.386   0.211  2.2954  4.3376  0.2576
 4920TIP3    H236320   0.150   3.345   0.355  0.1391  0.1187 -0.3935
 4921TIP3   OH236321   1.610   2.807   6.917  0.1201  0.2298  0.6041
 4921TIP3    H136322   1.521   2.773   6.922  0.4384 -0.7983 -0.3158
 4921TIP3    H236323   1.607   2.891   6.963 -1.7190  1.0221 -0.8486
 4922TIP3   OH236324   5.772   1.296   6.404 -0.2787  0.1981  0.3837
 4922TIP3    H136325   5.858   1.261   6.381 -0.1339  0.6056  0.3027
 4922TIP3    H236326   5.736   1.232   6.467 -0.6293 -0.8667 -0.8467
 4923TIP3   OH236327   0.852   2.914   1.219 -0.2332 -0.1960  0.1784
 4923TIP3    H136328   0.852   2.974   1.144  0.0367 -1.0576 -0.5296
 4923TIP3    H236329   0.818   2.832   1.184  1.2383 -1.0479  0.6361
 4924TIP3   OH236330   2.261   0.907   8.402 -0.3919  0.2453  0.2124
 4924TIP3    H136331   2.302   0.824   8.377  0.0696  0.3537  0.6045
 4924TIP3    H236332   2.196   0.882   8.468 -0.2128  0.2055  0.3727
 4925TIP3   OH236333   5.512   4.425   7.109  0.1263  0.2342 -0.2625
 4925TIP3    H136334   5.586   4.438   7.050 -0.6467  1.5250 -0.9859
 4925TIP3    H236335   5.461   4.354   7.069  1.5431 -1.5060  0.8665
 4926TIP3   OH236336   6.538   2.423   1.513 -0.1541  0.4875 -0.6736
 4926TIP3    H136337   6.615   2.396   1.462  1.0075  2.1788  0.1265
 4926TIP3    H236338   6.565   2.502   1.558 -1.9817  0.4237  0.6370
 4927TIP3   OH236339   6.777   1.176   7.287  0.5261 -0.4078 -0.1391
 4927TIP3    H136340   6.699   1.120   7.289  1.6446 -2.0341  0.2755
 4927TIP3    H236341   6.849   1.116   7.266  1.9229  0.6911  1.2706
 4928TIP3   OH236342   3.062   1.044   0.563 -0.3090  0.3493 -0.4747
 4928TIP3    H136343   3.131   1.097   0.603 -0.1776 -1.5727  2.1013
 4928TIP3    H236344   3.101   0.957   0.554 -1.3620  0.0025 -2.0966
 4929TIP3   OH236345   0.713   1.568   7.263  0.2206 -0.4745 -0.5623
 4929TIP3    H136346   0.763   1.498   7.304  0.1512  0.1569  0.6209
 4929TIP3    H236347   0.697   1.537   7.174  0.2297 -1.9448 -0.0726
 4930TIP3   OH236348   0.753   0.790   7.804 -0.0974 -0.6747 -0.1364
 4930TIP3    H136349   0.718   0.871   7.841 -0.8259  0.3225 -2.7728
 4930TIP3    H236350   0.783   0.740   7.880 -3.0504  0.3935  1.9015
 4931TIP3   OH236351   3.358   1.957   1.308  0.0933 -0.5673  0.7521
 4931TIP3    H136352   3.279   1.905   1.322 -2.5266  2.2928 -1.8040
 4931TIP3    H236353   3.396   1.921   1.227 -0.5193  0.0853  0.1590
 4932TIP3   OH236354   5.676   5.994   8.423  0.3185  0.1696 -0.5193
 4932TIP3    H136355   5.602   6.044   8.456  0.2749  0.3097 -0.8273
 4932TIP3    H236356   5.668   5.909   8.466  1.8000  1.1828  1.9700
 4933TIP3   OH236357   5.894   4.140   8.515  0.4218 -0.3761  0.1575
 4933TIP3    H136358   5.895   4.136   8.610 -0.1776 -2.4617  0.1303
 4933TIP3    H236359   5.806   4.111   8.490  0.5138  0.2908 -1.0345
 4934TIP3   OH236360   3.886   1.768   0.392  0.2102  0.1086 -0.1488
 4934TIP3    H136361   3.949   1.818   0.339 -0.7014  1.0916 -0.3496
 4934TIP3    H236362   3.806   1.770   0.340 -0.3634  0.0545  0.7233
 4935TIP3   OH236363   0.470   1.748   2.146 -0.4705 -0.2681 -0.8334
 4935TIP3    H136364   0.470   1.675   2.083 -0.6280  0.8896 -2.2208
 4935TIP3    H236365   0.561   1.778   2.149  0.1028 -1.9594  1.5464
 4936TIP3   OH236366   0.799   0.018   7.790 -0.2043  0.0468  0.5157
 4936TIP3    H136367   0.808  -0.077   7.801  0.9093 -0.0073 -0.5538
 4936TIP3    H236368   0.706   0.035   7.803 -1.3399 -1.8584 -3.5052
 4937TIP3   OH236369   3.606   1.189   1.163  0.3961  0.3071 -0.0352
 4937TIP3    H136370   3.522   1.146   1.177  1.1882 -1.2678  0.1044
 4937TIP3    H236371   3.613   1.196   1.068  0.7185 -0.8906 -0.1195
 4938TIP3   OH236372   5.771   6.721   7.555  0.5078 -0.0390  0.3309
 4938TIP3    H136373   5.797   6.733   7.646  1.6279 -0.9487  0.1634
 4938TIP3    H236374   5.854   6.714   7.508 -0.0531 -0.6396 -0.6026
 4939TIP3   OH236375   2.206   2.951   6.916 -0.1248 -0.6790  0.4219
 4939TIP3    H136376   2.294   2.915   6.926 -0.3075 -1.1896  0.2456
 4939TIP3    H236377   2.206   2.993   6.830  0.1098 -0.2037  0.6560
 4940TIP3   OH236378   6.324   6.776   8.312  0.1707  0.4641 -0.8327
 4940TIP3    H136379   6.362   6.861   8.290  0.5755  1.0264  1.7191
 4940TIP3    H236380   6.399   6.721   8.335 -0.0745 -0.6676 -2.5620
 4941TIP3   OH236381   2.774   0.553   6.760  0.2472 -0.3007 -0.1043
 4941TIP3    H136382   2.739   0.606   6.688 -0.9686 -2.3963 -1.1652
 4941TIP3    H236383   2.868   0.571   6.759 -0.0544  1.4459 -0.6886
 4942TIP3   OH236384   6.801   1.570   7.768  0.0238 -0.1793  0.2212
 4942TIP3    H136385   6.723   1.515   7.759  0.4213 -0.8296  0.6611
 4942TIP3    H236386   6.769   1.658   7.751 -0.8431 -0.4181  0.5165
 4943TIP3   OH236387   6.685   2.953   1.640 -0.0864 -0.2252 -0.2566
 4943TIP3    H136388   6.755   2.901   1.601 -1.2344 -1.7825 -0.3037
 4943TIP3    H236389   6.637   2.892   1.695 -0.7135  1.1007  0.7242
 4944TIP3   OH236390   0.204   4.213   7.566  0.2889 -0.4929 -0.5267
 4944TIP3    H136391   0.174   4.226   7.476  1.5276  1.8675 -0.6861
 4944TIP3    H236392   0.205   4.301   7.604 -1.0832 -1.5182  2.1373
 4945TIP3   OH236393   3.480   3.969   7.963  0.7364  0.2651  0.4885
 4945TIP3    H136394   3.487   4.057   7.928  1.6180  0.2590  0.6184
 4945TIP3    H236395   3.511   3.977   8.054  1.7338 -0.3305  0.2230
 4946TIP3   OH236396   5.035   1.345   7.675 -0.0649  0.0183 -0.3453
 4946TIP3    H136397   5.096   1.408   7.635 -0.0095  0.3748  0.2950
 4946TIP3    H236398   5.045   1.266   7.622  2.1897 -0.5050  0.7460
 4947TIP3   OH236399   3.976   6.199   7.384 -0.0532 -0.0872  0.0095
 4947TIP3    H136400   3.993   6.293   7.399 -0.8318  0.0821 -0.1445
 4947TIP3    H236401   4.060   6.165   7.352 -0.1054  0.8240 -1.1575
 4948TIP3   OH236402   0.277   2.116   1.530 -0.0883  0.0833  0.4532
 4948TIP3    H136403   0.311   2.032   1.498  1.4386  0.8281  0.0067
 4948TIP3    H236404   0.243   2.097   1.617  0.7900 -0.8950  0.6033
 4949TIP3   OH236405   0.209   5.384   8.688 -0.6854 -0.5872  0.0210
 4949TIP3    H136406   0.245   5.472   8.677  0.6186 -1.1311 -0.2063
 4949TIP3    H236407   0.276   5.337   8.737 -1.6604 -1.2799  0.7210
 4950TIP3   OH236408   1.872   5.264   7.599 -0.1908 -0.3162  0.4166
 4950TIP3    H136409   1.863   5.354   7.631  2.3689  0.2620 -0.2447
 4950TIP3    H236410   1.882   5.273   7.504 -1.6165 -1.4868  0.1189
 4951TIP3   OH236411   0.471   3.175   7.584 -0.5286  0.0090  0.1833
 4951TIP3    H136412   0.521   3.105   7.626  0.4079  1.9986  2.6279
 4951TIP3    H236413   0.416   3.210   7.653 -0.1163  2.4323 -0.6277
 4952TIP3   OH236414   3.803   2.299   1.117  0.2245  0.2701 -0.0640
 4952TIP3    H136415   3.757   2.239   1.058 -0.0894  0.4313  0.0163
 4952TIP3    H236416   3.867   2.343   1.062  1.2664 -0.9808  0.1001
 4953TIP3   OH236417   2.549   6.634   7.407  0.6038 -0.2057 -0.3524
 4953TIP3    H136418   2.616   6.622   7.473 -0.2811  0.3931  0.6945
 4953TIP3    H236419   2.530   6.546   7.374  1.3816 -0.4498 -0.1493
 4954TIP3   OH236420   4.625   2.156   8.313 -0.5381  0.0162 -0.0980
 4954TIP3    H136421   4.652   2.239   8.351 -1.7385 -0.6098  2.2886
 4954TIP3    H236422   4.529   2.158   8.317 -0.6612 -0.6927 -1.8503
 4955TIP3   OH236423   6.214   0.422   2.145 -0.4170 -0.8297 -0.0992
 4955TIP3    H136424   6.136   0.446   2.194 -1.8466 -0.1486 -2.5424
 4955TIP3    H236425   6.236   0.501   2.095  1.6230 -1.1429  0.1999
 4956TIP3   OH236426   2.342   0.204   8.745  0.6408  0.1813  0.6228
 4956TIP3    H136427   2.345   0.289   8.703  2.2506 -0.3139 -0.3316
 4956TIP3    H236428   2.250   0.177   8.738  0.5153  0.9277 -0.9443
 4957TIP3   OH236429   3.684   1.127   6.492 -0.1519  0.1593  0.1813
 4957TIP3    H136430   3.637   1.045   6.509  0.9600 -0.8934 -1.4603
 4957TIP3    H236431   3.759   1.100   6.438  0.9669  2.0966  0.6702
 4958TIP3   OH236432   0.906   6.159   7.001 -0.6531 -0.2023  0.1911
 4958TIP3    H136433   0.841   6.091   6.981 -1.5367  0.5819  0.3393
 4958TIP3    H236434   0.918   6.206   6.919 -0.4665 -0.1801  0.2312
 4959TIP3   OH236435   3.315   0.686   7.722  0.5895  0.4968 -0.4243
 4959TIP3    H136436   3.236   0.645   7.688  0.6406  0.4761 -0.5197
 4959TIP3    H236437   3.371   0.612   7.748  1.0582  0.4716 -1.4461
 4960TIP3   OH236438   5.718   2.396   8.211 -0.1576  0.2486  0.1349
 4960TIP3    H136439   5.766   2.352   8.281 -2.6961 -1.6701  0.8453
 4960TIP3    H236440   5.768   2.377   8.131  0.8641 -0.6427  0.9639
 4961TIP3   OH236441   3.084   0.265   8.207  0.1443  0.6366  0.1142
 4961TIP3    H136442   3.085   0.221   8.122  2.2831  0.9710 -0.0963
 4961TIP3    H236443   3.057   0.198   8.269  0.6569 -0.2159 -0.5647
 4962TIP3   OH236444   3.489   0.108   0.892 -0.0875  0.3225 -0.1761
 4962TIP3    H136445   3.538   0.190   0.900  0.1091  0.0694  2.1662
 4962TIP3    H236446   3.409   0.124   0.942 -1.2909 -0.0785 -1.9187
 4963TIP3   OH236447   1.726   0.944   0.953 -0.4666  0.2112  0.1396
 4963TIP3    H136448   1.755   0.913   0.867 -1.6799  1.4324 -0.7424
 4963TIP3    H236449   1.777   1.024   0.968  1.2142 -1.0397  1.5178
 4964TIP3   OH236450   1.662   0.833   8.233  0.1710 -0.1872  0.2554
 4964TIP3    H136451   1.697   0.848   8.321 -0.8202  0.7406  0.5042
 4964TIP3    H236452   1.726   0.872   8.174  0.8196 -0.7761  0.5542
 4965TIP3   OH236453   5.158   3.583   2.161 -0.6358 -0.3084 -0.0275
 4965TIP3    H136454   5.230   3.636   2.126  0.1272  0.1389  2.1020
 4965TIP3    H236455   5.083   3.643   2.162 -0.5220 -0.1566 -0.3430
 4966TIP3   OH236456   5.243   3.544   6.197  0.0395  0.2652 -0.5764
 4966TIP3    H136457   5.254   3.637   6.180 -2.2729  0.4335 -1.4617
 4966TIP3    H236458   5.216   3.539   6.289  1.5716  0.2953 -0.0904
 4967TIP3   OH236459   5.544   3.915   0.904  0.4156  0.1444 -0.0763
 4967TIP3    H136460   5.593   3.919   0.822 -1.8647  0.2944 -1.5073
 4967TIP3    H236461   5.523   3.823   0.915  0.4960  0.1595  0.2098
 4968TIP3   OH236462   2.514   6.192   8.519  0.2245  0.0820  0.2744
 4968TIP3    H136463   2.498   6.109   8.564  0.1986 -0.9080 -1.4813
 4968TIP3    H236464   2.608   6.193   8.503  0.1536  0.1727 -0.1358
 4969TIP3   OH236465   0.103   6.334   8.275 -0.1606 -0.1882 -0.0152
 4969TIP3    H136466   0.093   6.239   8.282  0.9952 -0.2589  0.9743
 4969TIP3    H236467   0.090   6.353   8.182 -1.0610 -1.2175 -0.1203
 4970TIP3   OH236468   6.344   4.878   8.604 -0.0223  0.0380  0.2543
 4970TIP3    H136469   6.383   4.878   8.692  2.4948  1.1010 -0.7600
 4970TIP3    H236470   6.264   4.929   8.613  0.4432  0.5553  1.8319
 4971TIP3   OH236471   3.706   3.401   0.217  0.1097  0.4688 -0.2537
 4971TIP3    H136472   3.774   3.367   0.158 -1.7422 -0.9935 -1.6688
 4971TIP3    H236473   3.672   3.478   0.172 -1.0156 -0.4064 -0.9671
 4972TIP3   OH236474   1.499   4.933   8.688 -0.6260  0.5178 -0.1697
 4972TIP3    H136475   1.544   4.871   8.631  2.1705  2.4232 -0.2098
 4972TIP3    H236476   1.437   4.978   8.630 -0.1952  0.1416 -0.9319
 4973TIP3   OH236477   0.697   2.349   7.231 -0.0409  0.8637  0.1560
 4973TIP3    H136478   0.619   2.384   7.276  0.7529  1.6901  0.9277
 4973TIP3    H236479   0.679   2.255   7.223 -1.0167  0.9948  0.5364
 4974TIP3   OH236480   3.008   0.486   7.950 -0.3127  0.4996  0.0282
 4974TIP3    H136481   3.029   0.401   7.911  2.0461  1.2881 -0.5843
 4974TIP3    H236482   3.065   0.492   8.027 -1.0895  1.1761  0.5724
 4975TIP3   OH236483   2.566   3.389   8.316  0.1660 -0.2006 -0.2980
 4975TIP3    H136484   2.593   3.447   8.387  0.9967  0.3783 -1.0570
 4975TIP3    H236485   2.602   3.303   8.339  0.5821  0.0252 -0.0996
 4976TIP3   OH236486   0.197   3.059   7.632  0.6580 -0.1263 -0.1921
 4976TIP3    H136487   0.108   3.063   7.597  0.6952  0.9016 -0.2122
 4976TIP3    H236488   0.235   2.980   7.593 -0.0812 -0.2920 -0.5836
 4977TIP3   OH236489   3.620   5.650   0.730  0.2374  0.0120  0.4367
 4977TIP3    H136490   3.701   5.638   0.679  1.0701  4.7173  0.2376
 4977TIP3    H236491   3.643   5.622   0.818  1.8692  0.5272  0.2159
 4978TIP3   OH236492   2.584   3.173   7.560  0.2067 -0.8414 -0.0857
 4978TIP3    H136493   2.624   3.241   7.506  2.0094 -1.1472  0.7755
 4978TIP3    H236494   2.608   3.198   7.650  0.2970 -2.2129  0.2898
 4979TIP3   OH236495   0.995   0.132   7.641 -0.0955 -0.4230 -0.0544
 4979TIP3    H136496   0.917   0.117   7.693 -1.6766  0.4744 -2.0206
 4979TIP3    H236497   1.042   0.201   7.687 -1.0770 -0.1388  0.5480
 4980TIP3   OH236498   4.700   3.934   7.726 -0.4927 -0.1171 -0.1699
 4980TIP3    H136499   4.631   3.993   7.695  1.1664  1.1430 -1.6415
 4980TIP3    H236500   4.745   3.983   7.795  0.9031  0.4036 -1.4095
 4981TIP3   OH236501   3.818   1.614   0.614 -0.1872 -0.0432 -0.1495
 4981TIP3    H136502   3.785   1.527   0.595 -2.5427  1.0310 -1.3864
 4981TIP3    H236503   3.834   1.654   0.529 -0.0648  1.0560  0.3643
 4982TIP3   OH236504   3.513   4.621   0.177 -0.4075  0.2354  1.3170
 4982TIP3    H136505   3.453   4.685   0.137  1.2921  0.4596 -1.1100
 4982TIP3    H236506   3.585   4.674   0.212  0.4739 -0.2267  0.2731
 4983TIP3   OH236507   3.586   4.047   1.289  0.0092 -0.3662  0.0226
 4983TIP3    H136508   3.505   4.021   1.244  1.3988 -2.7253 -1.2986
 4983TIP3    H236509   3.589   3.991   1.366  1.7527 -2.4978 -1.4843
 4984TIP3   OH236510   3.007   2.129   8.135  0.3518  0.3484 -0.1674
 4984TIP3    H136511   2.994   2.123   8.040  2.2386 -2.6925 -0.3454
 4984TIP3    H236512   2.983   2.043   8.168 -0.2083  1.3194  2.1753
 4985TIP3   OH236513   0.247   5.565   7.533 -0.5059 -0.5954 -0.3472
 4985TIP3    H136514   0.161   5.603   7.517  0.3899  1.1793 -1.3189
 4985TIP3    H236515   0.233   5.500   7.602 -2.6155 -0.4254 -0.5663
 4986TIP3   OH236516   4.976   4.212   2.048  0.0486 -0.2011  0.4017
 4986TIP3    H136517   4.884   4.204   2.074 -0.2169  0.0598 -0.4351
 4986TIP3    H236518   5.024   4.200   2.130 -0.6941 -1.0608  0.7396
 4987TIP3   OH236519   2.952   0.684   7.787  0.1673 -0.2244 -0.0238
 4987TIP3    H136520   2.975   0.610   7.843  0.6380  0.0293  0.1200
 4987TIP3    H236521   2.857   0.695   7.800  0.6435  1.4954  2.7996
 4988TIP3   OH236522   3.989   5.086   0.090  0.3145  0.0222  0.1341
 4988TIP3    H136523   3.895   5.086   0.108  0.1505 -0.3819 -0.6875
 4988TIP3    H236524   4.030   5.076   0.176 -0.4532 -1.9832  0.3327
 4989TIP3   OH236525   5.981   2.610   8.212  0.1256 -0.4549 -0.0314
 4989TIP3    H136526   5.886   2.613   8.202  0.0039  1.9521  1.1704
 4989TIP3    H236527   5.995   2.564   8.295  0.0920 -1.6500 -0.6696
 4990TIP3   OH236528   0.099   1.612   8.573 -0.1944 -0.4392 -0.1392
 4990TIP3    H136529   0.012   1.642   8.548 -1.1461 -0.3090  2.9033
 4990TIP3    H236530   0.091   1.517   8.579 -0.3460 -0.3791  0.7574
 4991TIP3   OH236531   4.421   2.731   7.536 -0.0723  0.6140 -0.4820
 4991TIP3    H136532   4.370   2.676   7.475  2.0405 -1.8727 -0.1879
 4991TIP3    H236533   4.355   2.770   7.594 -1.7714 -1.4125 -0.9199
 4992TIP3   OH236534   3.299   2.632   8.265  0.8114 -0.2390  0.7991
 4992TIP3    H136535   3.205   2.618   8.255  0.9217 -0.8553  0.5758
 4992TIP3    H236536   3.307   2.693   8.339  0.2877 -1.1253  1.6023
 4993TIP3   OH236537   1.770   4.423   0.575 -0.3919  0.0700 -0.1129
 4993TIP3    H136538   1.795   4.390   0.661 -0.7383 -0.9999 -0.4096
 4993TIP3    H236539   1.675   4.409   0.571 -0.2420 -0.8103 -1.0379
 4994TIP3   OH236540   5.092   1.733   0.568 -0.6830 -0.3042  0.0921
 4994TIP3    H136541   5.163   1.691   0.616 -0.5446 -0.5144 -0.2860
 4994TIP3    H236542   5.033   1.661   0.545  0.5213 -0.6580 -2.2394
 4995TIP3   OH236543   3.308   0.913   7.582  0.4969 -0.4754  0.2145
 4995TIP3    H136544   3.392   0.938   7.543 -0.4528  0.4406 -1.3742
 4995TIP3    H236545   3.322   0.823   7.613  2.7515  0.4495  2.2459
 4996TIP3   OH236546   6.780   5.004   6.318  0.2872 -0.6241  0.3019
 4996TIP3    H136547   6.795   5.096   6.341  0.1347 -0.4101 -0.4308
 4996TIP3    H236548   6.860   4.959   6.346  1.4361  0.1402 -1.5354
 4997TIP3   OH236549   1.528   2.335   1.545 -0.2112 -0.0705  0.4803
 4997TIP3    H136550   1.485   2.389   1.478 -0.5697 -0.5333  0.3289
 4997TIP3    H236551   1.508   2.379   1.628 -0.2181  0.2100  0.3311
 4998TIP3   OH236552   3.957   3.787   0.123 -0.1024  0.1984  0.2084
 4998TIP3    H136553   4.013   3.715   0.092  1.1803 -0.2562  3.1978
 4998TIP3    H236554   3.876   3.777   0.074  0.7267 -2.1063 -0.8681
 4999TIP3   OH236555   3.393   3.297   8.002  0.2594 -0.0299  0.0457
 4999TIP3    H136556   3.388   3.326   8.093 -0.9694 -1.0081  0.3200
 4999TIP3    H236557   3.336   3.357   7.954 -1.0122 -0.9385  0.3515
 5000TIP3   OH236558   5.657   2.458   6.980  0.0529 -0.2267  0.0321
 5000TIP3    H136559   5.660   2.416   6.894  1.0305 -0.7187  0.2932
 5000TIP3    H236560   5.563   2.469   6.998 -0.2016 -1.3623 -0.5024
 5001TIP3   OH236561   0.813   1.112   0.679 -0.1653 -0.0471  0.0611
 5001TIP3    H136562   0.779   1.197   0.707  1.4944  0.4064  0.8258
 5001TIP3    H236563   0.778   1.050   0.742  1.6046  0.6374  1.8287
 5002TIP3   OH236564   4.179   1.167   0.894 -0.6710 -0.5121  0.4888
 5002TIP3    H136565   4.205   1.075   0.896  0.2098 -0.2679  0.7957
 5002TIP3    H236566   4.088   1.167   0.924  0.1204 -1.0379  3.1302
 5003TIP3   OH236567   0.649   5.014   7.176 -0.2597 -0.2589 -0.3056
 5003TIP3    H136568   0.619   4.996   7.087 -4.3495  2.2192  0.3361
 5003TIP3    H236569   0.704   5.092   7.167  1.6157 -1.5613 -0.8361
 5004TIP3   OH236570   4.621   6.595   0.281 -0.2742  0.3184  0.9693
 5004TIP3    H136571   4.715   6.583   0.269 -0.5282 -0.1429 -0.9338
 5004TIP3    H236572   4.602   6.678   0.238 -0.7575  0.3641  1.2639
 5005TIP3   OH236573   2.264   5.786   8.389  0.2905 -0.4202 -0.3568
 5005TIP3    H136574   2.212   5.818   8.463  0.1136 -1.3264 -0.0813
 5005TIP3    H236575   2.338   5.847   8.383 -1.1968  1.4241 -1.2806
 5006TIP3   OH236576   4.703   3.197   1.025 -0.1690 -0.2947  0.2531
 5006TIP3    H136577   4.781   3.245   0.999  1.7546 -2.9684  0.7250
 5006TIP3    H236578   4.656   3.181   0.944  1.2187 -0.9981 -0.4354
 5007TIP3   OH236579   0.971   4.025   8.045  0.1137 -0.0199  0.5685
 5007TIP3    H136580   0.912   4.010   8.119 -0.9726 -0.3701 -0.3474
 5007TIP3    H236581   1.057   4.037   8.086 -0.5869  0.6046  1.9453
 5008TIP3   OH236582   5.115   4.799   8.483  0.7331 -0.0317  0.0899
 5008TIP3    H136583   5.114   4.895   8.479 -0.6051  0.0850  2.0728
 5008TIP3    H236584   5.208   4.777   8.487  1.0760  1.1399 -0.6821
 5009TIP3   OH236585   3.280   4.071   7.725  0.0612  0.1099  0.0076
 5009TIP3    H136586   3.355   4.112   7.769 -0.7613  1.5011  0.1775
 5009TIP3    H236587   3.244   4.141   7.670 -0.8465 -0.6759 -0.4219
 5010TIP3   OH236588   6.636   2.015   2.315  0.6917 -0.4754 -0.1198
 5010TIP3    H136589   6.652   2.078   2.244 -2.5947 -1.6248 -2.0813
 5010TIP3    H236590   6.585   2.063   2.379  1.3075 -0.1859  0.1613
 5011TIP3   OH236591   0.739   2.932   7.562 -0.3153 -0.2794 -0.5040
 5011TIP3    H136592   0.750   2.962   7.472 -0.4012 -0.1240 -0.4630
 5011TIP3    H236593   0.823   2.894   7.585  0.4355  1.6131  0.0809
 5012TIP3   OH236594   2.199   5.810   1.526  0.1293 -1.1853 -0.1680
 5012TIP3    H136595   2.216   5.842   1.614 -0.2184 -2.2562  0.3073
 5012TIP3    H236596   2.190   5.715   1.536  0.4274 -1.3665 -1.4097
 5013TIP3   OH236597   1.641   6.357   7.156 -0.5468 -0.6870  0.5738
 5013TIP3    H136598   1.563   6.377   7.104 -0.9835 -2.0793  0.6679
 5013TIP3    H236599   1.617   6.281   7.208  1.2568 -1.9128 -0.2768
 5014TIP3   OH236600   1.147   4.653   7.485  0.2762  0.4843  0.2953
 5014TIP3    H136601   1.139   4.746   7.464  2.2669  1.3814  2.9279
 5014TIP3    H236602   1.076   4.636   7.545  0.4452  0.5492  0.5143
 5015TIP3   OH236603   6.120   0.702   6.846 -0.1402 -0.2860  0.0849
 5015TIP3    H136604   6.193   0.641   6.844  0.3022  0.2165  0.3924
 5015TIP3    H236605   6.159   0.787   6.823 -0.2528  0.3328  1.9630
 5016TIP3   OH236606   2.969   3.335   0.975 -0.0238 -0.4457 -0.8335
 5016TIP3    H136607   2.925   3.255   0.947  0.0205 -0.3851 -1.0768
 5016TIP3    H236608   2.902   3.403   0.966 -0.0221 -0.4336 -0.7529
 5017TIP3   OH236609   2.675   2.853   0.386  0.4507  0.1132 -0.2544
 5017TIP3    H136610   2.642   2.770   0.419 -1.0049  0.4005 -0.9002
 5017TIP3    H236611   2.600   2.912   0.389  1.3791  1.3298 -0.0908
 5018TIP3   OH236612   4.510   5.488   5.994  0.5726  0.3095  0.1891
 5018TIP3    H136613   4.520   5.561   5.932 -1.9369  0.2612 -0.3582
 5018TIP3    H236614   4.534   5.410   5.944 -1.3349  0.2841 -0.7397
 5019TIP3   OH236615   6.015   6.261   0.662  0.4968  0.3733  0.2128
 5019TIP3    H136616   6.072   6.284   0.589 -0.2805 -0.5867 -0.7198
 5019TIP3    H236617   6.074   6.248   0.736  1.2381  2.0916 -0.0273
 5020TIP3   OH236618   3.550   3.934   8.551 -0.2818  0.1482 -0.1825
 5020TIP3    H136619   3.518   3.867   8.612 -0.9086  0.1670 -0.4859
 5020TIP3    H236620   3.476   3.951   8.493  0.5764 -0.5046 -1.5187
 5021TIP3   OH236621   6.404   3.812   1.003  0.1550 -0.5529  0.1479
 5021TIP3    H136622   6.332   3.798   1.065 -0.1618  1.4936  0.3044
 5021TIP3    H236623   6.377   3.887   0.951  1.7322 -0.3958 -0.5050
 5022TIP3   OH236624   1.193   0.761   1.666  0.0784  0.3090 -0.0409
 5022TIP3    H136625   1.118   0.804   1.707  1.3019  0.1286  2.5874
 5022TIP3    H236626   1.253   0.833   1.644 -0.1795  0.3326 -0.6842
 5023TIP3   OH236627   4.157   3.687   1.610 -0.0891  0.0148  0.0926
 5023TIP3    H136628   4.204   3.721   1.686  0.3956  0.3218 -0.3385
 5023TIP3    H236629   4.082   3.746   1.599 -0.1882 -0.0607  0.3589
 5024TIP3   OH236630   2.098   3.971   7.559 -0.0879 -0.2267 -0.0595
 5024TIP3    H136631   2.179   3.936   7.521  1.8642  0.6385  2.8877
 5024TIP3    H236632   2.102   4.064   7.540 -1.4835 -0.4461 -1.5903
 5025TIP3   OH236633   2.363   2.864   7.229  0.0763 -0.2642 -0.1109
 5025TIP3    H136634   2.302   2.820   7.169 -0.5337 -0.9206  0.9711
 5025TIP3    H236635   2.438   2.804   7.235  0.4969  0.1671 -0.8006
 5026TIP3   OH236636   6.083   4.164   2.190  0.0756  0.6523 -0.1301
 5026TIP3    H136637   6.149   4.127   2.249  0.8818  3.7362  1.1031
 5026TIP3    H236638   6.126   4.166   2.105 -0.2722 -1.7337 -0.4505
 5027TIP3   OH236639   6.068   1.400   0.294  0.5243 -0.3588  0.0096
 5027TIP3    H136640   6.049   1.493   0.286 -0.2801 -0.4879  0.3194
 5027TIP3    H236641   6.058   1.381   0.387  0.0502 -0.8815 -0.1387
 5028TIP3   OH236642   5.009   3.151   7.179  0.0469 -0.4845 -0.7218
 5028TIP3    H136643   5.096   3.128   7.148  1.8234  1.2119  2.5001
 5028TIP3    H236644   4.958   3.070   7.173  2.6399 -2.2499 -0.1838
 5029TIP3   OH236645   5.635   6.499   6.193 -0.4132 -0.1235  0.5631
 5029TIP3    H136646   5.612   6.440   6.122 -0.0454  0.1071  0.2449
 5029TIP3    H236647   5.642   6.585   6.151 -0.8380  0.1281  0.9992
 5030TIP3   OH236648   3.550   4.255   0.393 -0.7797 -0.3243 -0.3342
 5030TIP3    H136649   3.535   4.172   0.347  1.2469 -0.5514 -0.6866
 5030TIP3    H236650   3.482   4.314   0.358 -0.6098 -1.0900 -2.0909
 5031TIP3   OH236651   5.496   4.366   6.575  0.4135  0.1915  0.0942
 5031TIP3    H136652   5.538   4.434   6.522  0.0388  0.1871 -0.2148
 5031TIP3    H236653   5.547   4.364   6.656 -0.6729  2.1564  0.9091
 5032TIP3   OH236654   6.448   6.471   0.033 -0.2749 -0.1550  0.1556
 5032TIP3    H136655   6.465   6.377   0.038 -1.6959 -0.5488 -1.4453
 5032TIP3    H236656   6.402   6.492   0.114 -0.1770 -0.8974  0.4086
 5033TIP3   OH236657   6.015   1.460   7.357  0.4936  0.4279  0.0876
 5033TIP3    H136658   6.077   1.496   7.294  0.3315  1.6916  0.6193
 5033TIP3    H236659   5.970   1.536   7.392  0.3470 -0.2744  1.4941
 5034TIP3   OH236660   2.573   5.465   8.119 -0.5506  0.4512  0.3989
 5034TIP3    H136661   2.618   5.395   8.071 -0.1139 -0.0065  1.4416
 5034TIP3    H236662   2.635   5.538   8.119 -0.9768  0.8338 -0.6255
 5035TIP3   OH236663   3.948   3.377   8.151 -0.8103 -0.7404  0.7569
 5035TIP3    H136664   3.870   3.341   8.194 -0.6662 -2.9386 -0.6843
 5035TIP3    H236665   3.954   3.329   8.068  0.7916  1.0131 -0.2193
 5036TIP3   OH236666   1.665   2.877   1.363 -0.3313  0.4799 -0.2864
 5036TIP3    H136667   1.622   2.852   1.281  0.5277 -0.7917 -0.3857
 5036TIP3    H236668   1.597   2.869   1.430 -0.6743  0.0890 -0.6788
 5037TIP3   OH236669   3.109   2.462   1.571 -0.1922 -0.1087 -0.5160
 5037TIP3    H136670   3.035   2.470   1.631  0.0880  1.8960 -0.3827
 5037TIP3    H236671   3.184   2.440   1.628 -0.0218  1.3160 -0.1531
 5038TIP3   OH236672   6.781   4.102   8.259 -0.0517 -0.4682  0.1297
 5038TIP3    H136673   6.852   4.143   8.210 -0.5561 -1.2381 -1.3095
 5038TIP3    H236674   6.701   4.135   8.219 -0.5066 -3.5350 -1.8750
 5039TIP3   OH236675   4.666   3.872   8.211 -0.0315  0.4120  0.4221
 5039TIP3    H136676   4.662   3.805   8.280 -2.9382 -0.4821 -0.4505
 5039TIP3    H236677   4.682   3.824   8.131  1.0137  1.1692  0.1603
 5040TIP3   OH236678   4.083   4.093   0.251 -0.3286 -0.1043 -0.1047
 5040TIP3    H136679   4.038   4.089   0.336  0.8212  1.7252  0.6498
 5040TIP3    H236680   4.139   4.015   0.250 -0.9928 -0.6025  0.4167
 5041TIP3   OH236681   0.852   5.399   8.171 -0.2886  0.1282  0.0397
 5041TIP3    H136682   0.896   5.403   8.256  1.0188  1.8258 -0.6405
 5041TIP3    H236683   0.924   5.403   8.107 -1.2299 -1.3331 -1.1580
 5042TIP3   OH236684   2.988   4.640   8.562  0.1154  0.1376  0.4899
 5042TIP3    H136685   2.978   4.657   8.656  1.6837  2.7229  0.3048
 5042TIP3    H236686   2.998   4.727   8.523 -2.2658 -0.7012 -2.3843
 5043TIP3   OH236687   2.924   1.967   0.799  0.8728  0.4820 -0.1407
 5043TIP3    H136688   2.933   1.957   0.893  2.7106 -0.2762 -0.3509
 5043TIP3    H236689   2.985   1.903   0.762 -0.8742 -0.2990 -1.8747
 5044TIP3   OH236690   4.497   2.574   7.924  0.0967  0.2787 -0.2417
 5044TIP3    H136691   4.439   2.504   7.954  0.7080 -0.5790 -0.9690
 5044TIP3    H236692   4.452   2.655   7.947 -1.4986 -0.3440 -1.0112
 5045TIP3   OH236693   0.900   6.579   0.998 -0.2750  0.5242 -0.1545
 5045TIP3    H136694   0.916   6.556   1.089  1.8829  0.8376 -0.4077
 5045TIP3    H236695   0.943   6.511   0.947 -2.5209 -0.3617 -1.0264
 5046TIP3   OH236696   0.217   1.177   0.689 -0.4217 -0.0368 -0.1025
 5046TIP3    H136697   0.189   1.116   0.758  0.8435 -0.7027 -0.1400
 5046TIP3    H236698   0.312   1.186   0.703 -0.2459  0.2480 -1.4196
 5047TIP3   OH236699   5.234   0.820   8.080  0.0583  0.6627  0.0971
 5047TIP3    H136700   5.198   0.833   8.168  0.1825 -2.0664  0.6411
 5047TIP3    H236701   5.272   0.732   8.082 -0.5682  0.2070 -2.8965
 5048TIP3   OH236702   1.839   4.931   1.526 -0.4951  0.3899  0.3018
 5048TIP3    H136703   1.781   4.927   1.601 -1.2985 -0.0966 -0.3367
 5048TIP3    H236704   1.887   4.848   1.528 -2.3270 -0.7862 -1.1254
 5049TIP3   OH236705   2.332   1.704   7.659  0.0543 -0.2356 -0.2008
 5049TIP3    H136706   2.366   1.672   7.743  2.7476  0.0427 -1.1047
 5049TIP3    H236707   2.245   1.738   7.681  1.4690  1.9074  2.9914
 5050TIP3   OH236708   6.688   5.070   2.266  0.1372 -0.7132 -0.0654
 5050TIP3    H136709   6.618   5.034   2.212 -0.5801 -0.4779  0.6858
 5050TIP3    H236710   6.747   4.996   2.281  0.1103 -0.8921 -0.7775
 5051TIP3   OH236711   5.867   6.297   8.741 -0.5697 -0.7950  0.4663
 5051TIP3    H136712   5.944   6.347   8.713 -0.1668 -1.2166  0.8045
 5051TIP3    H236713   5.832   6.260   8.660 -0.2211 -0.8730  0.3486
 5052TIP3   OH236714   4.774   6.750   7.750 -0.2718  0.7797  0.0796
 5052TIP3    H136715   4.858   6.735   7.707 -0.0869 -0.8036  0.9115
 5052TIP3    H236716   4.708   6.723   7.685 -0.1675  2.0925 -0.5997
 5053TIP3   OH236717   5.736   5.996   7.963  0.2667  0.3919  0.4118
 5053TIP3    H136718   5.795   5.983   8.038  2.1903  1.1136 -0.8913
 5053TIP3    H236719   5.654   5.956   7.991  1.6998 -1.8292  1.8851
 5054TIP3   OH236720   2.272   0.095   7.664  0.6949  0.2851 -0.1628
 5054TIP3    H136721   2.222   0.018   7.690 -1.1036  1.2955 -0.4327
 5054TIP3    H236722   2.206   0.164   7.653  2.2802  2.0291  0.6187
 5055TIP3   OH236723   1.624   6.788   8.465  0.2104 -0.8300  0.3997
 5055TIP3    H136724   1.534   6.802   8.438  0.7677  0.6818 -0.8123
 5055TIP3    H236725   1.629   6.826   8.553  0.1618  1.2111 -0.4159
 5056TIP3   OH236726   1.666   1.903   8.050 -0.1222  0.2604 -0.2152
 5056TIP3    H136727   1.589   1.955   8.073 -0.2312  0.2483 -0.5489
 5056TIP3    H236728   1.653   1.880   7.958 -1.3696 -2.5744  0.5732
 5057TIP3   OH236729   4.901   0.901   1.259  0.1912 -0.0858  0.4732
 5057TIP3    H136730   4.930   0.968   1.322 -1.0275  0.7436  0.1797
 5057TIP3    H236731   4.832   0.944   1.209  1.0189 -0.7802 -1.3382
 5058TIP3   OH236732   2.129   5.783   6.607 -0.0595  0.0154  0.2391
 5058TIP3    H136733   2.115   5.723   6.533 -2.8408  0.8513 -0.0269
 5058TIP3    H236734   2.063   5.851   6.596 -1.1406 -0.2242  3.9319
 5059TIP3   OH236735   3.900   6.022   8.273 -0.0198 -0.2738  0.2768
 5059TIP3    H136736   3.835   5.965   8.232 -0.2182  0.6331 -0.6843
 5059TIP3    H236737   3.964   6.040   8.204 -0.4652  1.4264  0.2821
 5060TIP3   OH236738   5.394   1.772   6.090  0.3752 -0.0465  0.2383
 5060TIP3    H136739   5.308   1.813   6.077  0.5718 -0.0700 -1.4445
 5060TIP3    H236740   5.432   1.817   6.165 -2.1956 -1.9088  2.9038
 5061TIP3   OH236741   2.695   2.666   6.937 -0.0297  0.0012  0.0441
 5061TIP3    H136742   2.683   2.625   6.851  0.6552 -1.6714  0.7000
 5061TIP3    H236743   2.771   2.621   6.974 -0.5144  0.4502  1.6516
 5062TIP3   OH236744   2.790   1.435   8.428  0.5755 -0.8124  0.3641
 5062TIP3    H136745   2.721   1.489   8.466 -0.0289 -0.4317 -1.1997
 5062TIP3    H236746   2.842   1.406   8.504 -1.4517 -1.3754  1.6190
 5063TIP3   OH236747   1.347   0.708   8.418 -0.0744  0.5684 -0.5020
 5063TIP3    H136748   1.302   0.731   8.499  0.1938  1.1933 -0.5251
 5063TIP3    H236749   1.427   0.663   8.446  1.6625  3.5518 -0.2384
 5064TIP3   OH236750   4.261   5.842   0.361 -0.0734 -0.2625  0.1139
 5064TIP3    H136751   4.307   5.919   0.396 -1.4794  1.5496 -1.7524
 5064TIP3    H236752   4.258   5.857   0.267 -0.5511 -2.5780 -0.3095
 5065TIP3   OH236753   4.629   0.587   0.741  0.2409 -0.2054  0.0281
 5065TIP3    H136754   4.724   0.592   0.730  0.7356 -1.8883  2.6207
 5065TIP3    H236755   4.595   0.591   0.652  2.8191 -0.7652 -1.1004
 5066TIP3   OH236756   3.586   4.471   7.402 -0.0440 -0.2700  0.3905
 5066TIP3    H136757   3.613   4.436   7.317 -1.5167 -0.7841  0.1130
 5066TIP3    H236758   3.648   4.542   7.419  0.9023 -0.8183 -0.6216
 5067TIP3   OH236759   3.885   1.312   0.979  0.3391  0.6483  0.1015
 5067TIP3    H136760   3.886   1.238   0.918 -0.6777 -0.4497  1.3356
 5067TIP3    H236761   3.903   1.388   0.925 -0.1176 -0.3167 -1.4934
 5068TIP3   OH236762   3.149   1.660   8.531 -0.0049 -0.1652 -0.4262
 5068TIP3    H136763   3.197   1.741   8.549 -1.6710  0.8900 -0.4833
 5068TIP3    H236764   3.098   1.644   8.611 -0.0570 -0.8921 -0.5975
 5069TIP3   OH236765   5.598   1.313   6.906  0.0982  0.8228 -0.3910
 5069TIP3    H136766   5.618   1.285   6.816  0.4146  0.8466 -0.3269
 5069TIP3    H236767   5.503   1.329   6.905 -0.4203 -1.7713 -0.0155
 5070TIP3   OH236768   1.418   4.696   7.384 -0.3763 -0.4784 -0.0577
 5070TIP3    H136769   1.337   4.667   7.425 -0.7646  0.7918  0.1249
 5070TIP3    H236770   1.466   4.616   7.365 -1.3888 -1.2133  0.4224
 5071TIP3   OH236771   6.469   6.633   7.341 -0.3279  0.1540  0.3720
 5071TIP3    H136772   6.513   6.718   7.338  0.8719 -0.4635 -0.0678
 5071TIP3    H236773   6.425   6.625   7.257  1.4177 -0.5887 -0.5273
 5072TIP3   OH236774   5.403   3.128   7.444  0.1134  0.5478 -0.1431
 5072TIP3    H136775   5.388   3.218   7.413 -0.4380 -0.2267 -2.3043
 5072TIP3    H236776   5.315   3.095   7.462  0.3173  0.3949  0.6336
 5073TIP3   OH236777   6.616   4.406   8.551  0.1205  0.2025  0.0914
 5073TIP3    H136778   6.696   4.459   8.556 -0.4728  1.1233 -0.1191
 5073TIP3    H236779   6.648   4.317   8.535  1.0491  0.9421 -2.7708
 5074TIP3   OH236780   3.246   1.897   7.228  0.2240  0.3726 -0.3914
 5074TIP3    H136781   3.331   1.863   7.257  1.0108  2.8310  0.4805
 5074TIP3    H236782   3.249   1.892   7.133  1.0031 -0.3523 -0.3371
 5075TIP3   OH236783   0.963   1.373   8.407  0.1580 -0.1928  0.3040
 5075TIP3    H136784   1.040   1.389   8.352  0.6753 -2.2023  0.3618
 5075TIP3    H236785   0.923   1.459   8.418  1.7781  0.7305 -0.6463
 5076TIP3   OH236786   6.752   0.557   0.688 -0.0190 -0.3066 -0.3876
 5076TIP3    H136787   6.696   0.480   0.699 -0.0075 -0.4147 -1.0508
 5076TIP3    H236788   6.715   0.602   0.612  0.2544  0.0997 -0.2809
 5077TIP3   OH236789   0.297   2.799   0.865 -0.1215  0.4627 -0.2499
 5077TIP3    H136790   0.364   2.732   0.875  0.0816  0.6646 -0.2483
 5077TIP3    H236791   0.337   2.879   0.899 -0.6755  0.4053  0.5858
 5078TIP3   OH236792   0.207   4.479   7.626 -0.3978  0.0168 -0.1304
 5078TIP3    H136793   0.272   4.549   7.622 -0.0574 -0.1483  1.6601
 5078TIP3    H236794   0.124   4.523   7.608 -0.1522  0.8574  0.6907
 5079TIP3   OH236795   5.025   1.054   1.470  0.0039 -0.4149  0.0416
 5079TIP3    H136796   5.061   1.043   1.558  0.6943 -1.0711 -0.3125
 5079TIP3    H236797   4.988   1.142   1.470  2.2159  0.5653  0.2221
 5080TIP3   OH236798   4.490   5.047   0.400  0.1302 -0.6180  0.4711
 5080TIP3    H136799   4.560   5.088   0.348 -0.2208 -0.4957  0.0904
 5080TIP3    H236800   4.462   4.972   0.348 -0.4013 -0.3438  0.3551
 5081TIP3   OH236801   0.638   6.463   8.502  0.1216  0.5018  0.9286
 5081TIP3    H136802   0.647   6.401   8.430  1.1561  0.6773  0.8795
 5081TIP3    H236803   0.634   6.549   8.459 -1.7110  0.4777  0.9716
 5082TIP3   OH236804   3.641   5.504   6.130  0.0570  0.1593 -0.2058
 5082TIP3    H136805   3.727   5.487   6.093  0.0288 -1.2155  0.3138
 5082TIP3    H236806   3.580   5.490   6.058  0.1365 -0.7192 -0.1090
 5083TIP3   OH236807   3.512   0.891   0.218 -0.1226 -0.3530 -0.0922
 5083TIP3    H136808   3.588   0.834   0.228 -1.4712 -1.9191  2.0612
 5083TIP3    H236809   3.440   0.843   0.258 -1.8878  1.8629 -0.3757
 5084TIP3   OH236810   5.996   1.073   8.378 -0.2693  0.5911  0.3094
 5084TIP3    H136811   5.979   0.984   8.408  1.5386  0.7248  1.8895
 5084TIP3    H236812   5.936   1.127   8.429  0.5478  0.5039  1.4051
 5085TIP3   OH236813   3.332   3.564   0.795 -0.4074  0.1753  0.2508
 5085TIP3    H136814   3.368   3.486   0.838  0.7729  0.6196  0.0992
 5085TIP3    H236815   3.238   3.550   0.796 -0.3282 -0.4622  1.7757
 5086TIP3   OH236816   0.342   2.381   8.374  0.6634  0.1983 -0.4147
 5086TIP3    H136817   0.261   2.434   8.372 -0.7426 -1.7986  0.6139
 5086TIP3    H236818   0.411   2.443   8.351 -1.1819  1.9265 -1.7080
 5087TIP3   OH236819   4.785   4.778   1.213  0.1797 -0.0276  0.0145
 5087TIP3    H136820   4.742   4.697   1.187  0.9518 -0.2493 -0.6035
 5087TIP3    H236821   4.865   4.749   1.257  0.1836  0.3950  0.2906
 5088TIP3   OH236822   0.161   1.484   7.968 -0.2752  0.2272 -0.1576
 5088TIP3    H136823   0.114   1.494   7.885 -0.5451  0.8243  0.0622
 5088TIP3    H236824   0.240   1.435   7.944 -0.9326 -0.6853 -0.5527
 5089TIP3   OH236825   2.754   5.785   1.692  0.0895  0.0017  0.5578
 5089TIP3    H136826   2.836   5.736   1.689 -0.5885 -1.3063  1.8880
 5089TIP3    H236827   2.776   5.864   1.742  0.7359  0.0714  0.1699
 5090TIP3   OH236828   2.717   3.326   0.281 -0.0591  0.0876  0.0695
 5090TIP3    H136829   2.693   3.375   0.203  0.2957 -0.1857 -0.2174
 5090TIP3    H236830   2.634   3.315   0.329 -0.0254  1.5691  0.5049
 5091TIP3   OH236831   4.496   3.479   0.683  0.4525 -0.1112  0.0803
 5091TIP3    H136832   4.415   3.436   0.710  0.8812 -0.5931  0.6194
 5091TIP3    H236833   4.478   3.572   0.695 -0.7036 -0.0605 -1.6858
 5092TIP3   OH236834   0.944   2.398   8.651  0.1992  0.4899  0.0312
 5092TIP3    H136835   0.968   2.326   8.593  0.7488  2.0675 -1.8135
 5092TIP3    H236836   0.999   2.471   8.623 -1.4744  2.1043  0.7251
 5093TIP3   OH236837   3.866   3.595   7.225 -0.0935 -0.1180 -0.3324
 5093TIP3    H136838   3.845   3.508   7.259  0.2600  0.0438  0.3019
 5093TIP3    H236839   3.888   3.647   7.302 -1.0388  0.7510 -0.6129
 5094TIP3   OH236840   3.060   6.455   7.820  0.1717  0.4006 -0.2718
 5094TIP3    H136841   3.090   6.435   7.731 -2.5579  0.2064 -1.2302
 5094TIP3    H236842   3.042   6.369   7.859  3.3668  0.3269  1.3485
 5095TIP3   OH236843   1.466   1.820   0.409  0.3228  0.3774 -0.1719
 5095TIP3    H136844   1.491   1.907   0.376 -0.5269  0.4159 -0.7532
 5095TIP3    H236845   1.388   1.836   0.463  1.0478  0.1616  0.9755
 5096TIP3   OH236846   0.208   6.464   7.675  0.7163  0.3574  0.2163
 5096TIP3    H136847   0.169   6.378   7.689 -2.4164  1.5554 -0.2635
 5096TIP3    H236848   0.185   6.486   7.584  0.4445  2.1256  0.6743
 5097TIP3   OH236849   1.519   6.485   0.540 -0.0858  0.0362  0.6689
 5097TIP3    H136850   1.529   6.481   0.445  0.4486  1.3889  0.6483
 5097TIP3    H236851   1.481   6.401   0.563  0.4191 -0.5884 -0.6583
 5098TIP3   OH236852   3.459   3.889   6.817  0.7568  0.0811 -0.0412
 5098TIP3    H136853   3.382   3.910   6.764  0.8657  0.4897 -0.0381
 5098TIP3    H236854   3.527   3.867   6.753  0.1182 -2.2230 -0.0348
 5099TIP3   OH236855   2.065   1.220   0.688  0.2731  0.6121 -0.0958
 5099TIP3    H136856   2.138   1.160   0.701 -0.8775 -0.7509  0.3347
 5099TIP3    H236857   2.078   1.289   0.753  0.7589 -0.0444  0.5168
 5100TIP3   OH236858   5.615   1.040   8.075 -0.4936 -0.1750  0.7264
 5100TIP3    H136859   5.697   1.016   8.118 -0.8892  1.4811  2.6038
 5100TIP3    H236860   5.573   1.101   8.137 -2.6724 -0.2032 -0.6158
 5101TIP3   OH236861   4.065   5.584   7.290 -0.2478  0.2321 -0.0853
 5101TIP3    H136862   4.084   5.601   7.383 -1.1719 -0.4273  0.2497
 5101TIP3    H236863   4.110   5.654   7.243  0.9996  0.0534  0.7957
 5102TIP3   OH236864   4.155   2.318   0.381  0.1252  0.0285  0.0108
 5102TIP3    H136865   4.221   2.284   0.442 -0.2321 -0.6116  0.0563
 5102TIP3    H236866   4.156   2.412   0.395 -1.9703 -0.2621  3.1325
 5103TIP3   OH236867   0.690   4.306   8.244  0.2109 -0.2837  0.6152
 5103TIP3    H136868   0.630   4.327   8.316  1.3414  0.0374  1.4815
 5103TIP3    H236869   0.632   4.294   8.168 -0.8719  1.0033  1.1931
 5104TIP3   OH236870   3.933   5.876   1.044 -0.2693 -0.5480 -0.0393
 5104TIP3    H136871   3.946   5.926   1.124 -2.0438  1.2911 -0.8137
 5104TIP3    H236872   3.932   5.784   1.073 -0.0599  0.0232  1.9018
 5105TIP3   OH236873   0.290   2.072   6.071  0.0323 -0.2449 -0.1928
 5105TIP3    H136874   0.325   2.161   6.078  1.4117 -0.6778 -1.0320
 5105TIP3    H236875   0.304   2.033   6.157  1.9080 -0.4640 -0.5450
 5106TIP3   OH236876   3.739   3.907   7.850  0.3115  0.1269 -0.3466
 5106TIP3    H136877   3.649   3.889   7.876  0.1163  1.2643 -0.1803
 5106TIP3    H236878   3.732   3.966   7.775  0.9101 -1.2592 -1.5384
 5107TIP3   OH236879   4.771   3.661   6.774  0.3407  0.6505  0.5121
 5107TIP3    H136880   4.676   3.647   6.776  0.3339  0.3380 -1.0491
 5107TIP3    H236881   4.782   3.742   6.723  0.9404  0.3843  0.2117
 5108TIP3   OH236882   0.213   6.321   1.933 -0.1647  0.2340 -0.1732
 5108TIP3    H136883   0.168   6.338   2.015 -1.1136  0.0380 -0.6456
 5108TIP3    H236884   0.305   6.311   1.958  0.0242  2.9690  0.5009
 5109TIP3   OH236885   6.300   2.428   0.451  0.0664 -0.3063 -0.9218
 5109TIP3    H136886   6.324   2.455   0.539 -0.8946 -0.3979 -0.6130
 5109TIP3    H236887   6.208   2.454   0.443 -0.0158 -0.8063 -1.6934
 5110TIP3   OH236888   5.957   4.930   8.366  0.1435 -0.2183 -0.0229
 5110TIP3    H136889   6.044   4.911   8.330  1.1595  1.0517  1.6413
 5110TIP3    H236890   5.932   4.850   8.412  1.2474  0.0111  1.0114
 5111TIP3   OH236891   3.283   5.746   6.500  0.2449 -0.0200 -0.1824
 5111TIP3    H136892   3.211   5.693   6.534  1.3430 -1.0559  0.5849
 5111TIP3    H236893   3.253   5.772   6.412 -0.8510 -0.8371 -0.0795
 5112TIP3   OH236894   0.212   5.336   8.297 -0.3296  0.5169 -0.5532
 5112TIP3    H136895   0.267   5.283   8.355 -0.8354 -1.9684 -2.1759
 5112TIP3    H236896   0.254   5.327   8.211 -3.0862 -1.4074 -1.8500
 5113TIP3   OH236897   6.520   3.835   0.249 -0.3388  0.4904  0.3083
 5113TIP3    H136898   6.605   3.878   0.247 -0.2013  0.2446  0.7398
 5113TIP3    H236899   6.507   3.803   0.160 -0.7364  1.9721 -0.2104
 5114TIP3   OH236900   3.003   5.199   0.659  0.7341 -0.4210  0.8913
 5114TIP3    H136901   2.925   5.199   0.603  1.1593  1.2062  0.2457
 5114TIP3    H236902   3.023   5.106   0.673 -1.2846 -0.8786  1.0568
 5115TIP3   OH236903   2.359   5.661   8.114 -0.1743 -0.0664 -0.0460
 5115TIP3    H136904   2.377   5.568   8.109  1.0045  0.1583 -0.1544
 5115TIP3    H236905   2.298   5.670   8.187  1.0959 -0.7291  1.1269
 5116TIP3   OH236906   6.125   0.238   1.519 -0.2720  0.2427 -0.5595
 5116TIP3    H136907   6.065   0.311   1.508 -0.1718  0.5279  0.6378
 5116TIP3    H236908   6.092   0.170   1.460 -0.3260  1.2636 -1.7369
 5117TIP3   OH236909   5.865   0.344   0.266  0.3979 -0.0873 -0.6568
 5117TIP3    H136910   5.808   0.414   0.234  0.2364  1.0741  1.9690
 5117TIP3    H236911   5.821   0.310   0.344  2.3921 -0.4038  0.3858
 5118TIP3   OH236912   3.429   2.149   8.046  0.5831  0.5428  0.0577
 5118TIP3    H136913   3.378   2.125   7.968  0.6746  1.6969 -0.3810
 5118TIP3    H236914   3.364   2.160   8.115  0.6138 -1.7828  0.5234
 5119TIP3   OH236915   3.365   0.376   8.025  0.1706  0.1931  0.4272
 5119TIP3    H136916   3.392   0.284   8.033  2.0662  0.8000  1.5133
 5119TIP3    H236917   3.325   0.397   8.109  2.8816  1.2477  1.5900
 5120TIP3   OH236918   0.165   1.221   8.260 -0.0361  0.1744 -0.1890
 5120TIP3    H136919   0.083   1.172   8.261 -0.1317  0.2411  2.5396
 5120TIP3    H236920   0.209   1.195   8.341  1.2764  2.3757 -0.1164
 5121TIP3   OH236921   0.623   2.069   1.432  0.1279  0.3162  0.3281
 5121TIP3    H136922   0.644   2.106   1.518  0.2363  0.9380  0.0391
 5121TIP3    H236923   0.688   2.106   1.373 -1.2464  1.6263 -0.4363
 5122TIP3   OH236924   2.638   1.394   7.874  0.5082 -0.0836 -0.4492
 5122TIP3    H136925   2.586   1.370   7.950  0.8350  0.9664  0.1178
 5122TIP3    H236926   2.711   1.332   7.874  0.9788  0.4517  0.6037
 5123TIP3   OH236927   4.761   2.637   6.390 -0.0736  0.6382  0.1570
 5123TIP3    H136928   4.773   2.705   6.457 -1.9191  1.5476 -0.3602
 5123TIP3    H236929   4.835   2.650   6.330  1.3297  0.1297  1.6786
 5124TIP3   OH236930   4.510   0.350   1.211 -0.2729  0.4590  0.7996
 5124TIP3    H136931   4.450   0.306   1.151 -0.3542  1.3051  0.2356
 5124TIP3    H236932   4.456   0.416   1.255 -0.2583 -0.2785  1.9600
 5125TIP3   OH236933   1.882   6.607   0.786  0.4581 -0.1781 -0.3075
 5125TIP3    H136934   1.789   6.599   0.764 -0.0907  1.6487  1.1067
 5125TIP3    H236935   1.926   6.608   0.701 -0.9460  0.2442 -1.0652
 5126TIP3   OH236936   4.151   4.127   6.240  0.5458 -1.1718  0.0632
 5126TIP3    H136937   4.080   4.115   6.304 -0.3871 -3.2333 -1.2405
 5126TIP3    H236938   4.218   4.064   6.265  1.5443  0.1177  0.7334
 5127TIP3   OH236939   3.369   2.535   1.358  0.6710 -0.0838 -0.2243
 5127TIP3    H136940   3.307   2.529   1.431  2.0425 -1.4568  0.8883
 5127TIP3    H236941   3.325   2.489   1.286  0.7826 -2.0855  0.8958
 5128TIP3   OH236942   0.205   2.705   8.122 -0.1104  0.6144  0.1344
 5128TIP3    H136943   0.205   2.652   8.202  0.5654  0.1017 -0.1881
 5128TIP3    H236944   0.113   2.713   8.099 -0.2257 -0.9133 -0.0975
 5129TIP3   OH236945   0.674   1.222   7.839  0.3939  0.6562 -0.3720
 5129TIP3    H136946   0.677   1.271   7.921  2.2973 -0.2415  0.1343
 5129TIP3    H236947   0.756   1.242   7.795  1.9048 -3.0133  0.4823
 5130TIP3   OH236948   0.699   3.993   0.855 -0.1486 -0.1735 -0.0097
 5130TIP3    H136949   0.695   3.903   0.822 -1.0368 -0.6971  1.4492
 5130TIP3    H236950   0.692   4.047   0.776  0.6948 -1.3735 -0.9309
 5131TIP3   OH236951   2.387   3.513   7.528  0.3070 -0.7278  0.0964
 5131TIP3    H136952   2.331   3.539   7.454 -0.9224  0.9384  1.5182
 5131TIP3    H236953   2.336   3.449   7.576  0.7883 -1.2359 -0.0559
 5132TIP3   OH236954   3.817   1.893   7.242  0.4125 -0.0828  0.1400
 5132TIP3    H136955   3.897   1.846   7.267  1.0009 -0.3378 -2.0087
 5132TIP3    H236956   3.783   1.843   7.168 -1.0435  0.7706  0.2025
 5133TIP3   OH236957   4.978   2.406   1.339 -0.2367 -0.3085  0.0256
 5133TIP3    H136958   4.992   2.492   1.299 -0.4440 -0.1147  0.3688
 5133TIP3    H236959   5.054   2.394   1.396 -1.1573  0.4959  1.4562
 5134TIP3   OH236960   3.358   6.455   7.485 -0.2455  0.4496  0.1074
 5134TIP3    H136961   3.327   6.523   7.426  0.4158  0.5164 -0.1709
 5134TIP3    H236962   3.452   6.451   7.470 -0.0094  0.7246  1.4354
 5135TIP3   OH236963   3.155   4.185   1.442 -0.1909 -0.0595 -0.0329
 5135TIP3    H136964   3.194   4.214   1.360  1.0601  0.6611  0.7844
 5135TIP3    H236965   3.210   4.113   1.471 -0.2370  0.1133  0.4937
 5136TIP3   OH236966   4.874   4.260   0.395 -0.0525 -0.0757 -0.1727
 5136TIP3    H136967   4.899   4.216   0.314  2.3665  0.1202  0.3916
 5136TIP3    H236968   4.953   4.258   0.449 -1.1449  1.1572  1.5828
 5137TIP3   OH236969   4.884   2.678   0.305 -1.0137 -0.2180 -0.4037
 5137TIP3    H136970   4.890   2.738   0.379 -0.6366 -0.6791 -0.0582
 5137TIP3    H236971   4.806   2.707   0.257 -0.5385  0.8709 -0.5365
 5138TIP3   OH236972   5.601   4.921   1.702 -0.5789 -0.1016 -0.4657
 5138TIP3    H136973   5.674   4.888   1.649  0.8353  2.3479 -0.2215
 5138TIP3    H236974   5.641   4.990   1.755 -2.8359  0.3663  0.7191
 5139TIP3   OH236975   2.657   4.493   6.773  0.3247 -0.2062  0.0961
 5139TIP3    H136976   2.715   4.450   6.709  0.4445 -0.7083  0.5313
 5139TIP3    H236977   2.586   4.430   6.787  0.8921 -0.6060  1.3046
 5140TIP3   OH236978   5.867   6.179   1.844  0.1058 -0.1192 -0.1251
 5140TIP3    H136979   5.925   6.116   1.887  0.0669  0.1370  0.3143
 5140TIP3    H236980   5.884   6.261   1.891  0.2797  0.2326 -0.7983
 5141TIP3   OH236981   4.406   0.546   7.778  0.0428  0.7050 -0.2835
 5141TIP3    H136982   4.439   0.495   7.704  1.5616  0.3607  0.5884
 5141TIP3    H236983   4.371   0.626   7.738 -1.5687 -0.5570 -1.5855
 5142TIP3   OH236984   2.655   2.060   7.582 -0.2696  0.0821 -0.4562
 5142TIP3    H136985   2.712   2.023   7.515 -0.0724 -1.2535  0.4096
 5142TIP3    H236986   2.627   1.985   7.634 -1.3633  0.9419  0.2413
 5143TIP3   OH236987   2.272   3.961   0.143 -0.5760  0.2480 -0.2150
 5143TIP3    H136988   2.311   3.916   0.219 -1.9479 -0.0212  0.3597
 5143TIP3    H236989   2.278   3.898   0.072 -4.0555 -1.7016  0.9934
 5144TIP3   OH236990   1.426   4.173   7.694  0.2621 -0.4480 -0.0568
 5144TIP3    H136991   1.514   4.173   7.657  0.2658  2.0367 -0.2109
 5144TIP3    H236992   1.438   4.200   7.785 -0.2797 -0.9059  0.1568
 5145TIP3   OH236993   4.330   4.829   6.762  0.6785  0.2813 -0.5627
 5145TIP3    H136994   4.379   4.759   6.719  1.1771 -0.8561  1.7053
 5145TIP3    H236995   4.394   4.899   6.774  0.0011  1.5360 -3.4930
 5146TIP3   OH236996   3.330   4.105   0.617  0.5675 -0.3829  0.0918
 5146TIP3    H136997   3.252   4.139   0.573  0.5609 -1.6770 -0.9688
 5146TIP3    H236998   3.303   4.091   0.708  0.2185  1.2047  0.2604
 5147TIP3   OH236999   0.711   3.303   0.645 -0.0745 -0.2935  0.2639
 5147TIP3    H137000   0.616   3.313   0.656 -0.4601 -0.4866 -2.4044
 5147TIP3    H237001   0.721   3.226   0.589  1.5745  0.6069 -0.7316
 5148TIP3   OH237002   2.801   1.353   0.752  0.9376 -0.0999  0.5878
 5148TIP3    H137003   2.809   1.399   0.669  1.8731  0.0971  0.7788
 5148TIP3    H237004   2.762   1.268   0.729 -2.4337  1.3274  0.4278
 5149TIP3   OH237005   4.434   6.032   0.444 -0.4733 -0.6259 -0.0078
 5149TIP3    H137006   4.522   5.993   0.445 -0.4571 -0.6091 -0.3460
 5149TIP3    H237007   4.438   6.094   0.371 -0.5224 -0.0547  0.4688
 5150TIP3   OH237008   6.118   0.815   8.202 -0.4957  0.4736  0.1047
 5150TIP3    H137009   6.169   0.890   8.170 -1.0167  0.5815 -0.4925
 5150TIP3    H237010   6.166   0.785   8.279  2.1914 -1.3284 -2.0893
 5151TIP3   OH237011   2.871   0.591   0.839 -0.3013 -0.2670 -0.0271
 5151TIP3    H137012   2.865   0.607   0.933 -1.2702  0.5664 -0.2134
 5151TIP3    H237013   2.957   0.550   0.827 -0.4563 -1.0414  1.3032
 5152TIP3   OH237014   1.362   0.041   8.420  0.3668 -0.5611 -0.1606
 5152TIP3    H137015   1.275   0.015   8.388  0.6295 -1.0403 -0.4907
 5152TIP3    H237016   1.360   0.018   8.513 -0.4973  1.0882  0.2711
 5153TIP3   OH237017   1.010   6.432   0.756  0.5701  0.1629  0.4606
 5153TIP3    H137018   1.046   6.380   0.684 -0.2075 -1.9188  1.4773
 5153TIP3    H237019   1.000   6.369   0.828 -0.2878  1.7844  1.8292
 5154TIP3   OH237020   4.739   0.030   0.556 -0.1102 -0.0249 -0.0835
 5154TIP3    H137021   4.748  -0.009   0.643 -2.9782 -0.3550  0.1642
 5154TIP3    H237022   4.654  -0.002   0.525  0.2223  1.2093 -2.4356
 5155TIP3   OH237023   0.847   3.443   6.980  0.5870  0.0150  1.0556
 5155TIP3    H137024   0.789   3.500   6.929  1.6712  0.3964  0.1962
 5155TIP3    H237025   0.800   3.360   6.986  0.6508 -0.2490 -1.1401
 5156TIP3   OH237026   6.637   6.764   6.991 -0.0651  0.4830 -0.2397
 5156TIP3    H137027   6.571   6.698   6.973  1.0738 -0.3329 -1.6636
 5156TIP3    H237028   6.600   6.845   6.957 -0.2902  0.0034 -1.1891
 5157TIP3   OH237029   0.719   0.305   0.936 -0.2750  0.1857  0.4510
 5157TIP3    H137030   0.812   0.317   0.921 -0.1320  0.7793  1.6879
 5157TIP3    H237031   0.700   0.218   0.901  0.4719  0.5435 -0.9213
 5158TIP3   OH237032   3.769   0.019   7.225 -0.0862  0.5679  0.0151
 5158TIP3    H137033   3.845   0.077   7.225  0.4208 -0.0668  1.3472
 5158TIP3    H237034   3.750   0.004   7.318 -1.5684  0.3583 -0.2972
 5159TIP3   OH237035   4.531   3.531   6.821  0.1121 -0.3559 -0.0484
 5159TIP3    H137036   4.458   3.469   6.824 -1.1600  1.1177  1.6279
 5159TIP3    H237037   4.490   3.616   6.811  1.6735  0.4592  0.1085
 5160TIP3   OH237038   2.261   2.466   7.341 -0.9206  0.0678  0.0993
 5160TIP3    H137039   2.235   2.385   7.298 -2.1242  0.1988  0.5362
 5160TIP3    H237040   2.227   2.535   7.284  0.1342  0.2853 -0.2950
 5161TIP3   OH237041   3.719   1.734   0.150 -0.6016 -0.7986 -0.2120
 5161TIP3    H137042   3.768   1.659   0.117 -0.1952  0.2112 -1.9999
 5161TIP3    H237043   3.749   1.808   0.098  0.5698  1.0913  2.8450
 5162TIP3   OH237044   0.374   6.083   0.986  0.1240 -0.5258  0.4611
 5162TIP3    H137045   0.282   6.109   0.975  0.1062 -1.6187 -2.8592
 5162TIP3    H237046   0.372   6.015   1.053 -1.8117 -1.8213 -0.8117
 5163TIP3   OH237047   3.689   1.115   8.436  0.1863  0.0740 -0.4419
 5163TIP3    H137048   3.753   1.185   8.437 -1.1574  1.3452  0.1009
 5163TIP3    H237049   3.700   1.071   8.521  0.8359 -0.2182 -0.6679
 5164TIP3   OH237050   2.129   4.227   7.475  0.3316  0.2673 -0.0114
 5164TIP3    H137051   2.112   4.249   7.383  2.1608 -0.4275 -0.5715
 5164TIP3    H237052   2.183   4.300   7.507  1.3177 -0.4239 -0.0738
 5165TIP3   OH237053   2.028   4.889   7.290  0.0188  0.6636 -0.2942
 5165TIP3    H137054   2.005   4.975   7.255 -1.5434 -0.2627 -1.7195
 5165TIP3    H237055   1.968   4.829   7.245  1.2064 -1.1911  0.5127
 5166TIP3   OH237056   3.790   3.990   0.316  0.2890 -0.6471 -0.7689
 5166TIP3    H137057   3.856   4.055   0.339 -1.1603  0.9443 -0.9034
 5166TIP3    H237058   3.732   4.035   0.255 -1.0876 -1.8808 -0.4251
 5167TIP3   OH237059   2.245   4.267   7.775  0.0588  0.1795  0.3749
 5167TIP3    H137060   2.338   4.244   7.775  0.0976  0.2957 -0.2559
 5167TIP3    H237061   2.238   4.342   7.835  0.0583 -0.9486  1.8252
 5168TIP3   OH237062   5.307   0.511   7.049 -0.1305 -0.8863 -0.1995
 5168TIP3    H137063   5.286   0.553   7.133 -0.2040  1.8345 -1.4930
 5168TIP3    H237064   5.256   0.559   6.984  1.0348 -1.9637 -1.9977
 5169TIP3   OH237065   1.061   5.357   2.008  0.4802 -0.2041  0.2908
 5169TIP3    H137066   1.005   5.402   2.071  1.6108  1.5476  0.1159
 5169TIP3    H237067   1.126   5.312   2.062  1.4278  1.2655  0.4157
 5170TIP3   OH237068   5.526   3.195   7.929  0.6483  0.6942  0.6348
 5170TIP3    H137069   5.510   3.271   7.873 -0.2876  0.8635  1.1065
 5170TIP3    H237070   5.607   3.157   7.896 -0.0214  0.6130 -1.0329
 5171TIP3   OH237071   4.199   2.042   1.782 -0.7646  0.7467 -0.0302
 5171TIP3    H137072   4.243   2.059   1.698 -1.4895  2.0691 -0.1734
 5171TIP3    H237073   4.141   1.969   1.764 -0.4721  0.6307 -0.5266
 5172TIP3   OH237074   6.048   2.299   8.048  0.1828 -0.3123  0.3724
 5172TIP3    H137075   6.087   2.212   8.039 -1.5407 -1.0703 -0.2048
 5172TIP3    H237076   6.091   2.337   8.124  3.4709 -0.2424 -1.3598
 5173TIP3   OH237077   5.580   2.000   7.035 -0.1396  0.1293  0.3118
 5173TIP3    H137078   5.545   1.978   7.122 -1.1714  2.7500  0.6339
 5173TIP3    H237079   5.641   2.071   7.051  0.1406  0.2125 -1.0592
 5174TIP3   OH237080   3.472   0.525   7.425  0.0927 -0.1176  0.1740
 5174TIP3    H137081   3.419   0.489   7.353  0.5509  0.7074 -0.5960
 5174TIP3    H237082   3.443   0.476   7.502 -0.9177 -0.5346 -0.4406
 5175TIP3   OH237083   3.629   2.415   8.419 -0.0673  0.6520 -0.0033
 5175TIP3    H137084   3.567   2.385   8.352  1.7291 -0.7103 -1.1275
 5175TIP3    H237085   3.630   2.345   8.483 -0.0412  0.8991  0.2698
 5176TIP3   OH237086   4.518   4.114   7.585  0.0606 -0.6260 -0.6820
 5176TIP3    H137087   4.467   4.195   7.595  1.5432  0.2956 -0.2136
 5176TIP3    H237088   4.583   4.136   7.519  1.2413 -1.0270  0.3214
 5177TIP3   OH237089   3.940   3.034   7.628 -0.3116  0.3252  0.1939
 5177TIP3    H137090   3.903   3.084   7.555 -0.7273  0.0544  0.2118
 5177TIP3    H237091   4.018   3.083   7.654 -1.8074  2.1367  1.5455
 5178TIP3   OH237092   4.647   5.359   6.445 -0.1352  0.2202  0.0097
 5178TIP3    H137093   4.649   5.453   6.424  1.3209  0.1987 -0.0583
 5178TIP3    H237094   4.670   5.316   6.363 -3.4488 -0.4102 -0.7241
 5179TIP3   OH237095   3.946   1.601   0.037  0.3133  0.1655 -0.0792
 5179TIP3    H137096   4.004   1.525   0.047 -0.6955 -0.7108 -0.7482
 5179TIP3    H237097   3.937   1.611  -0.058  1.0236  1.5973 -0.0162
 5180TIP3   OH237098   2.065   1.567   6.900  0.5403 -0.0833  0.2871
 5180TIP3    H137099   2.125   1.642   6.897 -0.7570  0.9530 -1.1035
 5180TIP3    H237100   2.103   1.504   6.838 -0.4456  1.1166 -1.6026
 5181TIP3   OH237101   3.405   1.770   2.165 -0.1215  0.3900 -0.2458
 5181TIP3    H137102   3.492   1.750   2.199  0.2142  0.6487 -0.9327
 5181TIP3    H237103   3.398   1.719   2.085 -0.9395 -0.2861  0.2463
 5182TIP3   OH237104   0.220   0.016   7.662  0.2176 -0.1369  0.0522
 5182TIP3    H137105   0.137  -0.024   7.637  0.2489  0.2917 -0.7763
 5182TIP3    H237106   0.283  -0.057   7.664  0.4302 -0.0742 -2.1306
 5183TIP3   OH237107   1.458   4.227   8.172 -0.3734  0.2009  0.5941
 5183TIP3    H137108   1.522   4.288   8.208 -0.2722  0.5077 -0.0891
 5183TIP3    H237109   1.504   4.144   8.166  0.1719  0.5546 -0.4524
 5184TIP3   OH237110   4.694   2.764   1.481  0.2918  0.0300  0.0589
 5184TIP3    H137111   4.631   2.836   1.485 -0.8630 -0.8135 -1.4574
 5184TIP3    H237112   4.770   2.795   1.529 -1.3231  1.0570  2.0893
 5185TIP3   OH237113   3.619   6.429   7.427  0.8067 -0.4329 -0.5611
 5185TIP3    H137114   3.674   6.361   7.466  2.0728 -0.3623 -2.0999
 5185TIP3    H237115   3.663   6.451   7.345  0.0800  1.8086 -0.4199
 5186TIP3   OH237116   5.437   1.583   7.443 -0.2783  0.0319 -0.1728
 5186TIP3    H137117   5.491   1.511   7.474  0.9354  0.8405 -0.3480
 5186TIP3    H237118   5.477   1.610   7.361 -0.1983  1.4324  0.2960
 5187TIP3   OH237119   5.939   2.420   0.217 -0.2513  0.6254  0.6056
 5187TIP3    H137120   5.967   2.336   0.182 -0.0238  0.0675  2.0664
 5187TIP3    H237121   5.844   2.421   0.207 -0.6058 -1.0158  3.0159
 5188TIP3   OH237122   1.881   5.964   7.441  0.1065 -0.1433 -0.6047
 5188TIP3    H137123   1.937   5.947   7.517 -0.1693  1.5440  0.0087
 5188TIP3    H237124   1.941   6.000   7.375 -0.0958  1.0115 -0.1874
 5189TIP3   OH237125   1.260   3.957   1.311  0.5447  0.0006  0.2098
 5189TIP3    H137126   1.238   3.965   1.404 -2.9145 -0.1690 -0.4239
 5189TIP3    H237127   1.273   4.047   1.281 -2.1111  0.4646  0.2038
 5190TIP3   OH237128   4.278   1.820   6.524  0.0421 -0.7854  0.2842
 5190TIP3    H137129   4.276   1.895   6.583 -1.5406 -0.5029 -0.0788
 5190TIP3    H237130   4.356   1.833   6.471  0.0840  0.3195  0.6009
 5191TIP3   OH237131   0.007   2.222   1.680  0.5625  0.1293 -0.2061
 5191TIP3    H137132  -0.017   2.237   1.588 -0.7591  0.2235  0.1419
 5191TIP3    H237133  -0.019   2.302   1.725  2.6654  0.7453  0.0200
 5192TIP3   OH237134   4.680   3.846   7.281 -0.2544 -0.3147 -0.8753
 5192TIP3    H137135   4.767   3.881   7.302 -0.5353  0.7325 -1.3590
 5192TIP3    H237136   4.697   3.777   7.216  0.1976  0.0921 -1.2026
 5193TIP3   OH237137   6.050   2.069   1.413  0.2122  0.7156  0.7414
 5193TIP3    H137138   6.096   2.130   1.471  0.0156  0.7557  0.8570
 5193TIP3    H237139   6.088   1.983   1.434  0.3937  0.7787  0.6745
 5194TIP3   OH237140   3.295   4.146   2.149  0.2070  0.1972  0.0740
 5194TIP3    H137141   3.226   4.186   2.200  0.6864  1.3105 -0.1265
 5194TIP3    H237142   3.264   4.057   2.133 -0.0520 -0.1218  2.0894
 5195TIP3   OH237143   6.557   1.144   0.646  0.3334  0.4303  0.4190
 5195TIP3    H137144   6.547   1.151   0.551  2.8701 -1.2785 -0.0513
 5195TIP3    H237145   6.531   1.054   0.667  0.8360  0.4558  1.1904
 5196TIP3   OH237146   5.173   3.145   1.008  0.3173  0.5212 -0.1733
 5196TIP3    H137147   5.160   3.072   0.947  0.7741 -0.8453  1.2979
 5196TIP3    H237148   5.109   3.131   1.077  2.2659 -0.1657  1.5879
 5197TIP3   OH237149   3.881   1.021   7.499 -0.0640  0.1726  0.9244
 5197TIP3    H137150   3.804   1.074   7.482  0.1785  0.7700  1.6492
 5197TIP3    H237151   3.953   1.068   7.456  0.2852  0.8727  2.2159
 5198TIP3   OH237152   5.791   6.606   8.093 -0.0501  0.1252 -0.2011
 5198TIP3    H137153   5.802   6.576   8.183 -1.5676 -1.3428 -0.4588
 5198TIP3    H237154   5.863   6.564   8.045 -1.4099 -2.2619 -0.3191
 5199TIP3   OH237155   5.014   5.549   0.118 -0.2431 -0.4637 -0.5313
 5199TIP3    H137156   4.952   5.620   0.135 -0.0392 -0.5776  0.8190
 5199TIP3    H237157   5.095   5.577   0.162  0.6288 -0.3991 -2.1065
 5200TIP3   OH237158   1.912   6.476   7.887  0.7287  0.2475 -0.4001
 5200TIP3    H137159   1.849   6.437   7.948  0.9488  0.3917 -0.0748
 5200TIP3    H237160   1.871   6.468   7.801  0.3438  0.1814 -0.2126
 5201TIP3   OH237161   4.633   2.186   6.290 -0.0140 -0.0153  0.5337
 5201TIP3    H137162   4.674   2.256   6.240  0.6450 -1.5434 -1.1574
 5201TIP3    H237163   4.702   2.156   6.349 -0.0274  0.1718  0.6466
 5202TIP3   OH237164   4.813   1.278   6.208  0.5157  0.6398 -0.2550
 5202TIP3    H137165   4.833   1.236   6.124 -0.5433 -0.6276  0.0734
 5202TIP3    H237166   4.879   1.346   6.218  1.4592 -0.0528 -1.4971
 5203TIP3   OH237167   1.038   0.650   0.608 -0.4186  0.1604 -0.0789
 5203TIP3    H137168   0.974   0.701   0.557  0.9494  1.6508 -0.3621
 5203TIP3    H237169   1.033   0.687   0.696 -0.5441 -0.3155  0.1180
 5204TIP3   OH237170   3.083   3.974   7.404  0.2628 -0.1689  0.0086
 5204TIP3    H137171   3.087   4.040   7.334 -0.4738 -0.6460 -0.5092
 5204TIP3    H237172   3.001   3.992   7.449 -1.4873 -2.4594 -1.9780
 5205TIP3   OH237173   5.287   4.463   8.186 -0.6786  0.2153  0.1993
 5205TIP3    H137174   5.270   4.544   8.138 -0.3550 -0.0017 -0.2955
 5205TIP3    H237175   5.375   4.437   8.158 -1.1135 -0.7681 -0.3181
 5206TIP3   OH237176   6.483   4.782   8.370 -0.0717 -0.1233  0.7588
 5206TIP3    H137177   6.439   4.832   8.439 -3.4853 -0.5334 -0.8952
 5206TIP3    H237178   6.431   4.702   8.362  0.2109 -0.1228 -2.1865
 5207TIP3   OH237179   6.098   6.478   2.197 -0.0476 -0.2131  0.4304
 5207TIP3    H137180   6.111   6.568   2.166 -0.5757 -0.1706  0.3326
 5207TIP3    H237181   6.060   6.488   2.284 -3.6585 -0.2881 -0.9645
 5208TIP3   OH237182   1.451   3.315   0.878 -0.1145  0.0136  0.5053
 5208TIP3    H137183   1.424   3.272   0.959  0.1571  2.2877  1.8900
 5208TIP3    H237184   1.544   3.334   0.890  0.2372 -0.6991 -0.8805
 5209TIP3   OH237185   6.208   1.067   8.121 -0.4974  0.1607 -0.8182
 5209TIP3    H137186   6.188   1.045   8.030 -0.3456 -0.2704 -0.7503
 5209TIP3    H237187   6.209   1.162   8.123  0.8387  0.1842 -1.5862
 5210TIP3   OH237188   1.611   3.890   7.052  0.0587  0.0588  0.2452
 5210TIP3    H137189   1.561   3.815   7.084 -0.8159  0.3162 -0.5060
 5210TIP3    H237190   1.549   3.941   7.000  1.1910  0.1429 -1.0921
 5211TIP3   OH237191   5.867   1.050   0.469 -0.7602 -0.3818  0.2529
 5211TIP3    H137192   5.806   0.992   0.514 -0.4634 -1.0906 -0.2538
 5211TIP3    H237193   5.951   1.003   0.470 -0.3312  0.3665  0.5094
 5212TIP3   OH237194   2.991   2.689   1.480  0.1309  0.1199 -0.2197
 5212TIP3    H137195   2.923   2.697   1.547 -0.5792 -0.4460 -0.8637
 5212TIP3    H237196   3.042   2.612   1.506  1.4092  1.3285  1.0224
 5213TIP3   OH237197   1.277   2.331   7.586  0.2578  0.2533  0.1556
 5213TIP3    H137198   1.247   2.338   7.496  1.3639 -0.8174 -0.3203
 5213TIP3    H237199   1.352   2.391   7.591 -0.7900  1.5893  0.8625
 5214TIP3   OH237200   5.932   6.294   1.100  0.8931  0.4026  0.2104
 5214TIP3    H137201   5.896   6.323   1.016 -0.2104  0.0347  0.5350
 5214TIP3    H237202   5.897   6.206   1.111  0.5047  0.6886  1.3462
 5215TIP3   OH237203   5.968   2.931   1.348 -0.1461 -0.1812 -0.5355
 5215TIP3    H137204   5.923   3.014   1.357  1.7281  0.8921 -0.4730
 5215TIP3    H237205   5.939   2.879   1.423 -1.3919  0.3800 -0.6189
 5216TIP3   OH237206   1.046   4.837   7.692  0.0881 -0.5023 -0.2783
 5216TIP3    H137207   0.976   4.901   7.705 -0.9572 -2.0820  2.5826
 5216TIP3    H237208   1.000   4.754   7.676  1.3381 -1.2524 -0.1178
 5217TIP3   OH237209   0.731   0.490   0.671  0.2880 -0.4309  0.3805
 5217TIP3    H137210   0.813   0.463   0.711 -0.9983 -1.2790  2.6085
 5217TIP3    H237211   0.693   0.553   0.733  0.0431  1.3658 -1.4734
 5218TIP3   OH237212   0.637   6.574   8.202 -0.0726 -0.0153 -0.1831
 5218TIP3    H137213   0.653   6.659   8.162 -1.4493 -0.1017 -0.9922
 5218TIP3    H237214   0.620   6.516   8.128 -0.0294 -0.8015  0.4100
 5219TIP3   OH237215   6.461   5.660   1.701  0.2324 -0.1230  0.5066
 5219TIP3    H137216   6.421   5.724   1.641 -0.4370 -1.0268 -0.0353
 5219TIP3    H237217   6.546   5.640   1.661 -0.0234 -0.3864  0.0844
 5220TIP3   OH237218   3.615   6.013   7.528 -1.0458  0.0195  0.1982
 5220TIP3    H137219   3.640   6.091   7.578  0.2147  0.0083 -0.3780
 5220TIP3    H237220   3.522   6.026   7.508 -0.9988  1.0953  0.6047
 5221TIP3   OH237221   4.183   0.259   8.510  0.0459  0.6170 -0.2806
 5221TIP3    H137222   4.234   0.337   8.530  2.1094 -0.3602 -1.4334
 5221TIP3    H237223   4.180   0.256   8.414  0.9030 -1.2272 -0.2977
 5222TIP3   OH237224   2.446   4.830   7.658 -0.0472  0.4428  0.2347
 5222TIP3    H137225   2.371   4.885   7.637  0.4750  0.3148 -2.3022
 5222TIP3    H237226   2.409   4.743   7.672 -0.6845  1.0279  2.4908
 5223TIP3   OH237227   2.743   4.167   6.640  0.2311  0.3446  0.5593
 5223TIP3    H137228   2.657   4.197   6.670  0.2494  0.5776  0.3808
 5223TIP3    H237229   2.787   4.246   6.611  0.9815  0.4047  1.8138
 5224TIP3   OH237230   5.897   5.960   8.651 -0.3932  0.0499  0.3159
 5224TIP3    H137231   5.866   5.989   8.737  1.4787 -0.6031  1.2570
 5224TIP3    H237232   5.885   6.037   8.594 -1.6577  0.4885  1.1244
 5225TIP3   OH237233   0.736   1.004   1.856 -0.1817 -0.0551  0.1334
 5225TIP3    H137234   0.737   0.910   1.874 -0.4824 -0.0646  0.1123
 5225TIP3    H237235   0.800   1.042   1.916 -2.0581  0.0753  2.1394
 5226TIP3   OH237236   5.378   5.535   1.058  0.5062 -0.2098  0.6937
 5226TIP3    H137237   5.392   5.480   0.981 -1.5939 -0.7276  0.6214
 5226TIP3    H237238   5.443   5.604   1.049 -0.1983  0.2545 -2.0833
 5227TIP3   OH237239   5.525   5.211   6.446 -0.5071 -0.2197  0.2645
 5227TIP3    H137240   5.570   5.263   6.513  0.2518  0.7461 -0.9494
 5227TIP3    H237241   5.448   5.263   6.423  0.5829  0.7541 -1.4019
 5228TIP3   OH237242   2.245   0.434   6.890  0.3939  0.7864 -0.0051
 5228TIP3    H137243   2.328   0.386   6.898  0.6929  1.4122  0.7262
 5228TIP3    H237244   2.191   0.377   6.835  0.4004 -0.8418  1.5747
 5229TIP3   OH237245   0.392   0.663   1.325  0.4577 -0.0317  0.3614
 5229TIP3    H137246   0.364   0.735   1.381 -0.1762  0.6157 -0.7487
 5229TIP3    H237247   0.320   0.600   1.330  0.5467 -0.1221  0.5193
 5230TIP3   OH237248   4.054   4.211   6.735  0.0338 -0.3387  0.5245
 5230TIP3    H137249   4.059   4.169   6.821  1.0112  0.7718  1.0324
 5230TIP3    H237250   3.995   4.285   6.748 -0.2527 -0.4895  0.0932
 5231TIP3   OH237251   5.634   6.278   7.450 -0.0407 -0.0228  0.0225
 5231TIP3    H137252   5.673   6.362   7.428  1.2561 -0.7538 -0.6573
 5231TIP3    H237253   5.548   6.299   7.486 -0.1458  1.5323 -1.0316
 5232TIP3   OH237254   0.820   0.798   1.433 -0.3244 -0.0083 -0.1736
 5232TIP3    H137255   0.843   0.891   1.429 -0.8876  0.2463  1.6506
 5232TIP3    H237256   0.738   0.796   1.482  0.3473 -1.5580  0.9641
 5233TIP3   OH237257   1.709   5.940   0.635  0.6650 -0.2905 -0.4186
 5233TIP3    H137258   1.703   5.852   0.671  0.9049 -0.3294 -0.4715
 5233TIP3    H237259   1.777   5.982   0.687 -0.7546  0.4778  0.8880
 5234TIP3   OH237260   4.428   0.846   2.315 -0.2374  0.2013 -0.7111
 5234TIP3    H137261   4.332   0.847   2.318 -0.2027  1.0538  0.8272
 5234TIP3    H237262   4.452   0.935   2.290  0.1788 -0.0655 -1.3112
 5235TIP3   OH237263   4.478   6.338   8.082  0.1775 -0.8776  0.6210
 5235TIP3    H137264   4.429   6.415   8.053 -1.5870 -1.5604  1.6117
 5235TIP3    H237265   4.549   6.329   8.018 -0.0047  1.1137  0.0611
 5236TIP3   OH237266   5.648   0.487   0.240 -0.1476  0.0173 -0.4287
 5236TIP3    H137267   5.558   0.502   0.210 -0.8656 -1.7317  0.6660
 5236TIP3    H237268   5.664   0.556   0.304 -1.5024 -0.8092  0.8659
 5237TIP3   OH237269   6.530   3.549   7.841  0.5018  0.6515 -0.0899
 5237TIP3    H137270   6.557   3.469   7.796 -0.4362  0.6658 -0.7119
 5237TIP3    H237271   6.578   3.549   7.924  0.8009 -0.3564 -0.2637
 5238TIP3   OH237272   3.242   6.048   0.240  0.2914  0.2828  0.1550
 5238TIP3    H137273   3.168   6.109   0.245 -0.1345 -0.2495  0.5310
 5238TIP3    H237274   3.294   6.079   0.166 -1.4808 -0.6046 -1.5779
 5239TIP3   OH237275   0.235   0.339   0.429  0.0429  0.4883  0.4996
 5239TIP3    H137276   0.298   0.325   0.499 -1.1348  0.4701  1.5860
 5239TIP3    H237277   0.201   0.427   0.445 -0.3645  0.4145  0.0580
 5240TIP3   OH237278   1.642   3.310   8.354  0.1950  0.9310 -0.3333
 5240TIP3    H137279   1.674   3.392   8.391  2.7346  0.2824 -0.8719
 5240TIP3    H237280   1.636   3.326   8.260  1.5667  0.2860 -0.5527
 5241TIP3   OH237281   5.169   3.357   6.660  0.2276  0.4129  0.5598
 5241TIP3    H137282   5.222   3.281   6.636  0.1374  0.0860  1.3719
 5241TIP3    H237283   5.222   3.404   6.724 -0.1924  0.4285  0.8968
 5242TIP3   OH237284   2.639   2.130   0.010  0.2959  0.0164 -0.1311
 5242TIP3    H137285   2.695   2.206   0.027  1.6429 -1.0025  0.1398
 5242TIP3    H237286   2.691   2.074  -0.047 -1.3712  0.0797 -1.7860
 5243TIP3   OH237287   1.768   4.423   1.399 -0.4544  0.3572  0.3830
 5243TIP3    H137288   1.843   4.389   1.349 -1.3481 -1.0630 -0.0735
 5243TIP3    H237289   1.789   4.404   1.490  0.0673  0.6454  0.3243
 5244TIP3   OH237290   0.044   4.018   7.647  0.2555  0.4382 -0.0640
 5244TIP3    H137291   0.125   4.065   7.625  1.6914 -1.4061  0.9134
 5244TIP3    H237292   0.043   3.944   7.587 -0.3286  0.0569  0.4048
 5245TIP3   OH237293   2.111   2.375   0.266 -0.5256 -0.2387  0.2389
 5245TIP3    H137294   2.093   2.457   0.221  0.0665 -0.1754  0.1090
 5245TIP3    H237295   2.180   2.334   0.215 -0.2334 -0.4251  0.7727
 5246TIP3   OH237296   1.715   0.900   1.573  0.0520  0.3635 -0.1292
 5246TIP3    H137297   1.674   0.959   1.636 -0.5384  0.6054 -0.7322
 5246TIP3    H237298   1.647   0.884   1.507  0.5075 -0.2580 -0.4530
 5247TIP3   OH237299   5.551   1.065   8.413  0.1094  0.2991 -0.3911
 5247TIP3    H137300   5.585   1.109   8.491 -0.4284  1.0406 -0.5654
 5247TIP3    H237301   5.491   1.128   8.374  1.3348  0.4712 -2.1194
 5248TIP3   OH237302   2.615   5.116   7.246 -0.0956  0.0639 -0.1786
 5248TIP3    H137303   2.588   5.141   7.157 -0.8597  0.2602  0.0981
 5248TIP3    H237304   2.538   5.074   7.284 -0.0688  0.7435  0.6775
 5249TIP3   OH237305   1.885   6.570   6.767  0.1841 -0.5895  0.6475
 5249TIP3    H137306   1.836   6.492   6.740  3.4521 -2.1517 -1.4438
 5249TIP3    H237307   1.858   6.638   6.706  1.2024 -1.7138 -1.1442
 5250TIP3   OH237308   5.550   0.328   7.843 -0.7137 -0.2661  0.5752
 5250TIP3    H137309   5.525   0.415   7.811  1.5296  0.1155 -0.3343
 5250TIP3    H237310   5.601   0.346   7.922 -1.2520 -0.8503  1.0622
 5251TIP3   OH237311   1.515   1.163   0.736 -0.6060 -0.7147  0.3241
 5251TIP3    H137312   1.496   1.087   0.792  1.9588  1.1502  4.1400
 5251TIP3    H237313   1.608   1.181   0.751 -1.0310  2.9687 -0.6540
 5252TIP3   OH237314   4.764   4.764   7.935  0.2870 -0.5475 -0.4869
 5252TIP3    H137315   4.777   4.818   7.857  2.1922  0.3607  0.3985
 5252TIP3    H237316   4.713   4.819   7.994  0.8326 -0.3487 -0.2038
 5253TIP3   OH237317   3.481   1.023   6.679  0.5161  0.1295 -0.4074
 5253TIP3    H137318   3.510   0.957   6.617 -1.5505 -0.6056 -0.6650
 5253TIP3    H237319   3.411   1.070   6.633  1.5397  2.1460 -0.0180
 5254TIP3   OH237320   2.174   6.832   6.648  0.3616  0.1159  0.1804
 5254TIP3    H137321   2.164   6.771   6.575 -2.6142  1.1184 -0.3820
 5254TIP3    H237322   2.178   6.775   6.726 -0.0125 -0.8446 -0.4816
 5255TIP3   OH237323   4.838   3.002   0.752  0.5056 -0.0102  0.5494
 5255TIP3    H137324   4.828   3.087   0.710 -0.2152 -1.3602 -2.3009
 5255TIP3    H237325   4.752   2.961   0.742  0.0355 -0.2048  4.1854
 5256TIP3   OH237326   5.636   3.177   0.963 -0.2625 -0.2849 -0.2584
 5256TIP3    H137327   5.692   3.189   0.887  0.0867  2.1449  0.3068
 5256TIP3    H237328   5.697   3.160   1.035 -0.4140 -0.0187 -0.0656
 5257TIP3   OH237329   6.233   5.900   0.062  0.1528 -0.5292 -0.0097
 5257TIP3    H137330   6.211   5.985   0.025  2.2406 -0.3223 -0.8738
 5257TIP3    H237331   6.275   5.852  -0.009  1.9234 -1.0688  1.3216
 5258TIP3   OH237332   5.104   1.760   7.698 -0.3380  0.0222  0.2703
 5258TIP3    H137333   5.124   1.721   7.783  0.0020  1.3407  0.8191
 5258TIP3    H237334   5.129   1.693   7.634 -1.4094 -1.3245  1.2124
 5259TIP3   OH237335   2.624   3.014   0.991  0.0166  0.1152  0.7865
 5259TIP3    H137336   2.669   3.067   1.056  0.5650 -0.6692  1.0660
 5259TIP3    H237337   2.531   3.021   1.014  0.1361  0.4715  1.1725
 5260TIP3   OH237338   4.895   2.899   8.090 -0.2771 -0.8469 -0.8861
 5260TIP3    H137339   4.882   2.827   8.152  0.6271 -1.6649 -1.5984
 5260TIP3    H237340   4.885   2.858   8.004  2.2577 -0.6219 -1.3726
 5261TIP3   OH237341   5.888   2.923   0.477  0.1226 -0.0892 -0.0754
 5261TIP3    H137342   5.906   2.910   0.384  0.6431 -1.6385  0.2247
 5261TIP3    H237343   5.969   2.899   0.521 -0.4944 -0.5245  0.8516
 5262TIP3   OH237344   2.654   5.489   6.071  0.3211 -0.3513 -0.0100
 5262TIP3    H137345   2.621   5.490   5.981 -1.0370  0.3026  0.4637
 5262TIP3    H237346   2.749   5.490   6.062  0.2485 -2.3949 -1.4323
 5263TIP3   OH237347   4.279   3.743   1.850 -0.0053 -0.3480 -0.4247
 5263TIP3    H137348   4.252   3.824   1.892 -0.1571 -0.3813 -0.4585
 5263TIP3    H237349   4.240   3.673   1.903  0.4520 -0.4075 -0.1678
 5264TIP3   OH237350   6.306   5.298   0.525  0.4053  0.4025  0.0084
 5264TIP3    H137351   6.362   5.247   0.585 -0.0636 -0.7309 -0.4895
 5264TIP3    H237352   6.217   5.278   0.553  0.2091  1.6016  0.3085
 5265TIP3   OH237353   1.918   4.524   0.365  0.0322  0.0229  0.1665
 5265TIP3    H137354   1.852   4.520   0.296 -0.3417 -1.3153  0.5691
 5265TIP3    H237355   1.875   4.484   0.441  0.6919  0.7780  0.9581
 5266TIP3   OH237356   2.430   3.382   8.619  0.0505  0.0294 -0.7501
 5266TIP3    H137357   2.350   3.396   8.568 -0.6237 -1.9597 -0.3353
 5266TIP3    H237358   2.432   3.287   8.636  1.2540  0.3384  1.2455
 5267TIP3   OH237359   3.312   3.784   8.674 -0.3216  0.1349 -0.5486
 5267TIP3    H137360   3.273   3.712   8.725  0.0125  0.0091 -0.4692
 5267TIP3    H237361   3.237   3.824   8.629 -0.9958  1.7144  1.8151
 5268TIP3   OH237362   3.789   0.700   8.182  0.4355  0.3086  0.4231
 5268TIP3    H137363   3.801   0.751   8.263 -0.7681 -0.0924  0.8738
 5268TIP3    H237364   3.702   0.661   8.191  0.7237 -0.6087 -0.5978
 5269TIP3   OH237365   4.125   2.298   1.140 -0.3826 -0.5931  0.0450
 5269TIP3    H137366   4.220   2.298   1.129 -0.0266 -1.4630  2.5956
 5269TIP3    H237367   4.110   2.315   1.233 -2.7649  0.0502 -0.3754
 5270TIP3   OH237368   0.137   5.616   0.388  0.0420 -0.1477  0.6787
 5270TIP3    H137369   0.072   5.648   0.450  0.3795  0.7033  0.6050
 5270TIP3    H237370   0.193   5.692   0.371  0.6748 -0.7040  0.2643
 5271TIP3   OH237371   3.866   4.283   7.413  0.7666  0.4337  0.1256
 5271TIP3    H137372   3.856   4.376   7.434  1.3518  0.7650 -1.0067
 5271TIP3    H237373   3.907   4.245   7.491 -0.5991  0.8610  1.0922
 5272TIP3   OH237374   0.644   1.541   1.641  0.2116  1.0829  0.4322
 5272TIP3    H137375   0.587   1.610   1.609  0.5955  1.8047  1.2444
 5272TIP3    H237376   0.683   1.578   1.721  2.5497  1.0264 -0.5960
 5273TIP3   OH237377   6.539   2.825   0.880  0.4183 -0.2855  0.0100
 5273TIP3    H137378   6.617   2.881   0.884  0.1238  0.1488 -0.1256
 5273TIP3    H237379   6.470   2.883   0.846 -0.1147 -0.4892  0.7186
 5274TIP3   OH237380   5.105   6.788   6.644 -0.1277 -0.4852 -0.0365
 5274TIP3    H137381   5.186   6.831   6.618  0.7389 -0.8504  1.8872
 5274TIP3    H237382   5.129   6.696   6.654 -0.6194 -0.4963  1.1507
 5275TIP3   OH237383   4.059   6.822   1.671  0.3944 -0.1354 -0.4087
 5275TIP3    H137384   4.089   6.740   1.711  0.1651  0.8574  1.9336
 5275TIP3    H237385   4.075   6.889   1.737 -0.9368  1.4733 -1.6225
 5276TIP3   OH237386   1.255   1.757   0.582 -0.2099 -0.0065 -0.5636
 5276TIP3    H137387   1.264   1.662   0.587 -0.2404 -0.1265 -2.2646
 5276TIP3    H237388   1.161   1.773   0.586 -0.1958 -0.0201 -0.0882
 5277TIP3   OH237389   2.812   3.513   1.403 -0.4551  0.2832 -0.1986
 5277TIP3    H137390   2.807   3.435   1.458 -2.0862  0.5454  0.0900
 5277TIP3    H237391   2.726   3.517   1.360 -0.9080  2.5713  0.7516
 5278TIP3   OH237392   2.570   5.812   8.222  0.5937 -0.5647  0.4506
 5278TIP3    H137393   2.494   5.755   8.214 -0.1030  0.3440  0.4898
 5278TIP3    H237394   2.536   5.893   8.261  1.3906  0.2206 -0.4144
 5279TIP3   OH237395   0.710   5.925   8.560  0.1300 -0.2856  0.2593
 5279TIP3    H137396   0.630   5.958   8.518  0.8453  0.3727 -0.6106
 5279TIP3    H237397   0.740   5.855   8.503  0.4910 -0.1460  0.2787
 5280TIP3   OH237398   1.106   0.150   8.328 -0.4608 -0.0624  0.3224
 5280TIP3    H137399   1.090   0.063   8.364 -0.5130 -0.6286 -1.0006
 5280TIP3    H237400   1.111   0.207   8.404 -3.2534 -0.7452  1.1358
 5281TIP3   OH237401   0.895   4.111   0.483 -0.0446  0.0261  0.6980
 5281TIP3    H137402   0.977   4.160   0.477 -0.7161  0.9955 -1.2485
 5281TIP3    H237403   0.844   4.157   0.549  0.4394  0.2510  0.9212
 5282TIP3   OH237404   1.060   0.770   1.225  0.3162  0.0525  0.4173
 5282TIP3    H137405   0.979   0.735   1.261  0.9850 -0.9423  0.9937
 5282TIP3    H237406   1.066   0.859   1.259  0.0096 -0.2488  1.2644
 5283TIP3   OH237407   6.507   3.670   7.261 -0.5180  0.0169 -0.2306
 5283TIP3    H137408   6.548   3.648   7.345 -0.2146 -0.3060 -0.4595
 5283TIP3    H237409   6.448   3.597   7.243 -1.4024  0.6095  0.2257
 5284TIP3   OH237410   2.311   4.894   0.238 -0.1858 -0.2963  0.0191
 5284TIP3    H137411   2.352   4.980   0.237  0.2616 -0.5110 -0.9251
 5284TIP3    H237412   2.287   4.880   0.330 -1.0684  1.1933  0.0592
 5285TIP3   OH237413   5.254   0.935   0.149  0.1432 -0.2423  0.0964
 5285TIP3    H137414   5.247   0.955   0.056  0.1157 -0.1142  0.1256
 5285TIP3    H237415   5.254   0.839   0.154 -1.7336 -0.2773  0.0951
 5286TIP3   OH237416   0.823   2.165   8.513  0.0513  0.4883 -0.3934
 5286TIP3    H137417   0.761   2.237   8.503 -0.0110  0.3114 -1.3969
 5286TIP3    H237418   0.771   2.086   8.498  0.2797  0.2654 -0.0522
 5287TIP3   OH237419   0.932   4.312   1.442 -0.1518 -0.2501  0.2701
 5287TIP3    H137420   1.023   4.342   1.445  0.4186 -1.9580  1.9161
 5287TIP3    H237421   0.924   4.271   1.356  0.8837 -0.7237  0.3745
 5288TIP3   OH237422   6.225   5.315   0.269 -0.5809  0.1183 -0.4583
 5288TIP3    H137423   6.229   5.220   0.259  0.8274  0.1764 -0.5759
 5288TIP3    H237424   6.265   5.333   0.354 -1.8634  0.5469  0.0912
 5289TIP3   OH237425   1.927   5.247   2.366 -0.6052 -0.7088 -0.3374
 5289TIP3    H137426   1.899   5.252   2.457 -0.8811 -1.3268 -0.3788
 5289TIP3    H237427   1.845   5.240   2.317 -0.7450  3.2834 -0.9791
 5290TIP3   OH237428   6.195   3.974   8.266  0.0781 -0.1134  0.1340
 5290TIP3    H137429   6.127   3.937   8.322 -0.6611 -1.5461 -1.5713
 5290TIP3    H237430   6.270   3.916   8.278 -0.4296 -1.0788 -1.0615
 5291TIP3   OH237431   1.642   5.665   8.385  0.5363  0.3942  0.6606
 5291TIP3    H137432   1.653   5.582   8.338 -0.5111  0.1724  0.7773
 5291TIP3    H237433   1.697   5.727   8.338 -0.8571  0.2977 -1.1704
 5292TIP3   OH237434   5.696   5.919   0.529 -0.4708  0.0829 -0.0400
 5292TIP3    H137435   5.659   6.008   0.531  0.1001  0.4056 -1.6930
 5292TIP3    H237436   5.619   5.861   0.533 -1.0220  0.7035 -1.0963
 5293TIP3   OH237437   5.378   0.677   8.413 -0.3109  0.6260  0.1923
 5293TIP3    H137438   5.405   0.585   8.417  0.2857  0.6593 -2.0621
 5293TIP3    H237439   5.459   0.726   8.401 -0.8017  1.2777 -0.5290
 5294TIP3   OH237440   5.959   6.820   0.376  0.1315  0.0395  0.0828
 5294TIP3    H137441   6.018   6.746   0.361  0.2374  0.3638 -1.1490
 5294TIP3    H237442   5.883   6.781   0.418 -0.1114 -0.8972 -1.1893
 5295TIP3   OH237443   5.715   6.030   7.408 -0.0880 -0.0951 -0.2562
 5295TIP3    H137444   5.682   6.119   7.418  0.8177  0.5215 -2.1724
 5295TIP3    H237445   5.652   5.987   7.351  1.7295  0.8437 -3.2513
 5296TIP3   OH237446   6.168   0.739   1.173 -0.0385  0.4563  0.2534
 5296TIP3    H137447   6.169   0.795   1.095 -0.6315  0.3719  0.1791
 5296TIP3    H237448   6.235   0.776   1.230  1.2723 -0.2024 -0.7962
 5297TIP3   OH237449   1.300   0.836   0.219  0.0706  0.5036 -0.1333
 5297TIP3    H137450   1.267   0.899   0.282  0.9153  1.0480 -0.2230
 5297TIP3    H237451   1.376   0.796   0.262  0.9123  1.1851 -0.9497
 5298TIP3   OH237452   1.777   6.493   0.174 -0.1498 -0.0578  0.2303
 5298TIP3    H137453   1.796   6.517   0.083 -1.7169  0.4257  0.0081
 5298TIP3    H237454   1.830   6.415   0.189 -0.5540 -0.7048 -1.4132
 5299TIP3   OH237455   6.760   3.769   7.165  0.0678 -0.1260 -0.2715
 5299TIP3    H137456   6.762   3.856   7.204  0.5634 -0.8081  1.2883
 5299TIP3    H237457   6.667   3.746   7.161 -0.2103  1.1064 -2.2564
 5300TIP3   OH237458   6.248   1.336   8.540 -0.0213 -0.3587  0.0434
 5300TIP3    H137459   6.219   1.364   8.453 -1.1560 -0.4037  0.3882
 5300TIP3    H237460   6.336   1.373   8.549 -0.6063  1.2284 -0.3969
 5301TIP3   OH237461   2.846   2.089   0.275 -0.3981  0.1448  0.3828
 5301TIP3    H137462   2.762   2.045   0.286 -0.3906 -0.0839 -0.3712
 5301TIP3    H237463   2.858   2.141   0.354 -1.3148  0.2928  0.4238
 5302TIP3   OH237464   0.308   2.835   8.649  0.6268 -0.1542 -0.3213
 5302TIP3    H137465   0.277   2.745   8.636  0.7161 -0.0248 -1.5213
 5302TIP3    H237466   0.327   2.867   8.561  1.1479  0.8532  0.1404
 5303TIP3   OH237467   0.515   6.164   6.936  0.5812 -0.5009  0.1982
 5303TIP3    H137468   0.494   6.085   6.886 -0.4957 -0.5687  0.7353
 5303TIP3    H237469   0.481   6.235   6.881  2.1171 -0.3335 -0.5920
 5304TIP3   OH237470   0.216   5.640   7.148 -0.3255 -0.1306 -0.5102
 5304TIP3    H137471   0.155   5.708   7.177  0.1215 -0.2744  0.8795
 5304TIP3    H237472   0.286   5.688   7.104 -0.2816  0.2628 -0.0207
 5305TIP3   OH237473   6.653   6.210   8.476 -0.3437 -0.4308  0.0081
 5305TIP3    H137474   6.627   6.237   8.388 -0.5384 -2.2712 -0.5373
 5305TIP3    H237475   6.748   6.204   8.472 -0.3278 -0.1840  0.0211
 5306TIP3   OH237476   0.076   4.499   1.086 -0.1207  0.1683 -0.1362
 5306TIP3    H137477   0.043   4.462   1.004  1.6649  0.8615 -1.2194
 5306TIP3    H237478   0.103   4.588   1.064  0.3137  0.4008  1.2338
 5307TIP3   OH237479   6.250   2.422   1.022 -0.4230 -0.2958 -0.0595
 5307TIP3    H137480   6.292   2.339   1.001  0.3793 -0.3270  1.5873
 5307TIP3    H237481   6.218   2.411   1.112 -2.7186  0.2396 -0.7314
 5308TIP3   OH237482   4.883   2.403   0.357 -0.2531 -0.5282  0.0932
 5308TIP3    H137483   4.830   2.416   0.435  0.5004 -0.1094  0.5355
 5308TIP3    H237484   4.882   2.488   0.313  0.4316 -0.3843  0.3454
 5309TIP3   OH237485   0.745   4.080   7.583  0.1686 -0.3298 -0.5730
 5309TIP3    H137486   0.683   4.012   7.610  1.3267 -1.6158 -1.0681
 5309TIP3    H237487   0.690   4.147   7.543 -0.9529 -1.2514 -0.6358
 5310TIP3   OH237488   3.729   5.720   6.298 -0.2740 -0.0932 -0.1297
 5310TIP3    H137489   3.742   5.796   6.242  1.5044  0.2255  0.6497
 5310TIP3    H237490   3.671   5.662   6.248 -0.5099  1.1456 -1.3254
 5311TIP3   OH237491   1.081   2.163   8.168 -0.3040 -0.5751  0.3243
 5311TIP3    H137492   0.986   2.162   8.161 -0.2204 -1.2546 -1.1050
 5311TIP3    H237493   1.108   2.247   8.131 -0.3178 -0.6156  0.2228
 5312TIP3   OH237494   0.203   0.615   7.509 -0.3794 -0.5852  0.3050
 5312TIP3    H137495   0.133   0.574   7.559 -2.1153  1.0621 -0.6957
 5312TIP3    H237496   0.236   0.544   7.453 -0.3358 -1.6973  1.6752
 5313TIP3   OH237497   4.576   5.437   7.744 -0.2079  0.3029 -0.1017
 5313TIP3    H137498   4.646   5.459   7.682 -1.0274  0.9127 -0.8399
 5313TIP3    H237499   4.510   5.505   7.730 -0.3677  0.5185  1.5358
 5314TIP3   OH237500   0.247   1.773   7.714 -0.2679  0.2374  0.0153
 5314TIP3    H137501   0.165   1.812   7.684 -0.7659  0.3106  1.4330
 5314TIP3    H237502   0.255   1.692   7.662 -0.4041  1.0178 -1.2696
 5315TIP3   OH237503   4.790   0.947   1.777 -0.3994 -0.3595 -0.4477
 5315TIP3    H137504   4.834   1.032   1.768  2.4023 -1.3199  2.3996
 5315TIP3    H237505   4.766   0.942   1.869  0.1720 -2.9150 -0.3823
 5316TIP3   OH237506   1.556   4.317   1.150  0.3663 -0.4828  0.1560
 5316TIP3    H137507   1.631   4.283   1.198 -0.7334 -0.5263  1.9709
 5316TIP3    H237508   1.482   4.263   1.180 -0.6104  0.4110 -0.5401
 5317TIP3   OH237509   1.806   0.197   1.157 -0.7095 -0.1182 -0.0907
 5317TIP3    H137510   1.872   0.138   1.193 -2.0610 -2.0002 -0.5069
 5317TIP3    H237511   1.791   0.262   1.225 -1.2791 -2.0169  1.6802
 5318TIP3   OH237512   0.718   1.604   0.215  0.5300 -0.2956  0.4784
 5318TIP3    H137513   0.777   1.615   0.289 -0.2078 -2.5312  1.5027
 5318TIP3    H237514   0.721   1.510   0.196 -1.1222 -0.1491 -0.7828
 5319TIP3   OH237515   6.455   4.274   6.250 -0.0966 -0.0291 -0.4898
 5319TIP3    H137516   6.468   4.334   6.176  0.4747 -0.4545 -0.7496
 5319TIP3    H237517   6.370   4.234   6.234 -0.5867  0.8720 -0.1908
 5320TIP3   OH237518   1.813   4.768   0.605  0.3694  0.1439 -0.3757
 5320TIP3    H137519   1.810   4.710   0.529 -1.7139 -0.0021 -0.2309
 5320TIP3    H237520   1.840   4.853   0.569  1.7936 -0.4772 -0.8473
 5321TIP3   OH237521   1.409   6.119   7.973  0.1066  0.0882 -1.0253
 5321TIP3    H137522   1.390   6.045   8.031 -0.2733 -0.0013 -1.2608
 5321TIP3    H237523   1.395   6.196   8.028  1.9793 -0.0218 -0.3316
 5322TIP3   OH237524   6.623   1.640   1.360 -0.5688  0.2030  0.3592
 5322TIP3    H137525   6.647   1.602   1.276 -1.2853  0.5907 -0.0397
 5322TIP3    H237526   6.549   1.588   1.390 -2.9575  2.4449 -1.2040
 5323TIP3   OH237527   0.332   4.903   2.061 -0.5994 -0.1181 -0.1570
 5323TIP3    H137528   0.250   4.920   2.107  0.4844  0.9076  1.5286
 5323TIP3    H237529   0.396   4.890   2.131  0.9039  0.2781 -1.3942
 5324TIP3   OH237530   6.620   3.625   2.190 -0.0373 -0.6649 -0.5886
 5324TIP3    H137531   6.539   3.658   2.152  0.2431 -1.1735 -1.7033
 5324TIP3    H237532   6.672   3.703   2.209 -0.2525 -0.3821 -1.1454
 5325TIP3   OH237533   4.611   1.696   0.887 -0.2426 -0.0687 -0.2419
 5325TIP3    H137534   4.600   1.788   0.866  0.4851  0.2273  0.5749
 5325TIP3    H237535   4.689   1.669   0.838  1.0320  0.4364  1.4189
 5326TIP3   OH237536   2.076   0.240   8.383  0.5595  0.2841  0.7797
 5326TIP3    H137537   2.149   0.196   8.428  0.6698 -0.9208 -0.5105
 5326TIP3    H237538   2.056   0.183   8.309  0.3143  2.1454 -0.6558
 5327TIP3   OH237539   2.072   2.220   7.308  0.4502 -0.0316  0.0083
 5327TIP3    H137540   2.079   2.157   7.236  1.6983 -1.5343  1.3880
 5327TIP3    H237541   2.048   2.168   7.384 -0.7633  1.5224  0.7434
 5328TIP3   OH237542   3.361   1.946   0.056 -0.4031  0.5374  0.1127
 5328TIP3    H137543   3.297   1.887   0.095  0.5107 -0.8869 -0.4322
 5328TIP3    H237544   3.395   1.997   0.129 -0.0894 -0.7398  0.8794
 5329TIP3   OH237545   5.243   2.272   0.116  0.0072  0.2191 -0.3806
 5329TIP3    H137546   5.289   2.352   0.141 -0.3388 -0.0260  1.1277
 5329TIP3    H237547   5.168   2.303   0.064  1.1474  0.6899 -1.8294
 5330TIP3   OH237548   1.951   2.553   6.405 -0.1252  0.4223 -0.2561
 5330TIP3    H137549   1.859   2.549   6.431 -0.4268 -0.2780 -1.3570
 5330TIP3    H237550   1.967   2.647   6.394  0.3935  0.9173  3.4833
 5331TIP3   OH237551   2.941   2.369   1.148 -0.1105  0.0752 -0.1137
 5331TIP3    H137552   3.005   2.299   1.162 -0.8136 -0.6753 -0.6030
 5331TIP3    H237553   2.993   2.441   1.111  0.5998 -0.2228  0.2783
 5332TIP3   OH237554   3.615   3.228   2.022 -0.2767 -0.1494  0.2442
 5332TIP3    H137555   3.600   3.280   2.101 -0.2006 -0.6537  0.5954
 5332TIP3    H237556   3.610   3.137   2.052 -0.0529 -0.3426 -0.2949
 5333TIP3   OH237557   0.274   1.826   0.436 -0.1291  0.5117  0.2819
 5333TIP3    H137558   0.330   1.851   0.363  0.9524 -1.6724  0.2999
 5333TIP3    H237559   0.185   1.827   0.399  0.1745  1.5294 -0.4512
 5334TIP3   OH237560   0.255   6.037   0.507 -0.1320  0.3233 -0.8338
 5334TIP3    H137561   0.274   5.976   0.436 -0.0755  0.0599 -0.5933
 5334TIP3    H237562   0.270   5.987   0.587 -1.9004  0.0619 -0.6186
 5335TIP3   OH237563   2.962   1.230   7.073 -0.5292 -0.0460  0.2841
 5335TIP3    H137564   2.952   1.261   7.163  0.0299 -0.4964  0.5123
 5335TIP3    H237565   2.923   1.299   7.019  0.0548  0.7192  0.8143
 5336TIP3   OH237566   6.803   3.183   7.964 -0.0228 -0.1811 -0.0962
 5336TIP3    H137567   6.891   3.217   7.976  0.0732 -0.2821 -0.4941
 5336TIP3    H237568   6.804   3.097   8.006  0.0598 -0.1679 -0.0719
 5337TIP3   OH237569   6.249   2.171   7.273 -0.1075 -0.0241  0.0669
 5337TIP3    H137570   6.185   2.102   7.294  1.2073 -1.3421 -0.1085
 5337TIP3    H237571   6.246   2.177   7.178 -0.2843  0.2261  0.0881
 5338TIP3   OH237572   3.391   0.636   8.705  0.9527 -0.7351 -0.4948
 5338TIP3    H137573   3.345   0.707   8.660  0.5570 -0.6900 -0.0278
 5338TIP3    H237574   3.452   0.603   8.640 -0.8804 -1.9122 -1.7234
 5339TIP3   OH237575   4.963   4.449   8.137 -0.6851  0.3299  0.3156
 5339TIP3    H137576   5.057   4.429   8.130 -0.9347 -2.2794  2.5876
 5339TIP3    H237577   4.935   4.465   8.047  1.6390 -0.3277 -0.6057
 5340TIP3   OH237578   6.224   3.582   8.655 -0.1657 -0.3142 -0.3695
 5340TIP3    H137579   6.252   3.496   8.623 -0.2053  0.0730 -1.4730
 5340TIP3    H237580   6.135   3.592   8.621  0.1726  0.5512 -1.0103
 5341TIP3   OH237581   0.398   6.649   7.714 -0.4433 -0.2132 -0.2853
 5341TIP3    H137582   0.351   6.565   7.720  1.0340 -1.0189  0.7978
 5341TIP3    H237583   0.462   6.635   7.644 -0.5845  0.2295 -0.5050
 5342TIP3   OH237584   0.963   6.560   8.594  0.4370  0.2304 -0.6988
 5342TIP3    H137585   0.895   6.615   8.631  1.7844 -0.1396  2.7278
 5342TIP3    H237586   0.922   6.474   8.586  0.0043  0.3863 -0.2482
 5343TIP3   OH237587   0.057   6.056   8.039 -0.2791  0.2203  0.3036
 5343TIP3    H137588  -0.005   6.065   7.966  0.3600 -3.0699 -0.8409
 5343TIP3    H237589   0.123   6.123   8.023 -0.5598  0.0826 -1.7648
 5344TIP3   OH237590   2.934   1.019   1.284 -0.3640 -0.3972  0.0968
 5344TIP3    H137591   2.899   0.932   1.302  1.2541 -1.1358 -0.1620
 5344TIP3    H237592   2.864   1.079   1.312 -1.1806 -1.7346  1.0675
 5345TIP3   OH237593   2.975   5.858   7.941 -0.2922 -0.2341 -0.0867
 5345TIP3    H137594   2.970   5.951   7.917 -3.3898  0.4041  2.4218
 5345TIP3    H237595   3.061   5.850   7.984 -0.2077  1.6300  0.1832
 5346TIP3   OH237596   2.755   5.879   0.234 -0.2532  0.3584  0.0923
 5346TIP3    H137597   2.842   5.877   0.273 -0.4464 -0.7559  0.4909
 5346TIP3    H237598   2.697   5.903   0.306 -0.3441  0.5385 -0.0397
 5347TIP3   OH237599   4.366   3.429   8.186  0.0532 -0.1580  0.2916
 5347TIP3    H137600   4.326   3.343   8.197 -1.5321  0.5148 -0.0309
 5347TIP3    H237601   4.293   3.490   8.183  0.7644  0.7874 -3.9026
 5348TIP3   OH237602   1.697   1.567   7.927  0.2170  0.2517 -0.0118
 5348TIP3    H137603   1.633   1.518   7.978  1.7053 -1.5531  0.2130
 5348TIP3    H237604   1.754   1.500   7.888  1.5509  1.7485 -0.7748
 5349TIP3   OH237605   0.349   0.667   8.608  0.0161 -0.5606  0.3971
 5349TIP3    H137606   0.439   0.646   8.582 -1.0784 -1.9360 -2.7023
 5349TIP3    H237607   0.358   0.745   8.663  2.9925  0.5294 -1.3861
 5350TIP3   OH237608   1.985   2.552   6.128 -0.3818  0.3994 -0.4758
 5350TIP3    H137609   1.956   2.546   6.219 -1.1272  2.1111 -0.5722
 5350TIP3    H237610   2.061   2.494   6.123 -0.3029  0.3180  1.2360
 5351TIP3   OH237611   5.702   3.127   8.367 -0.4225 -0.0688 -0.2567
 5351TIP3    H137612   5.702   3.044   8.415 -1.0657  0.4096  0.5850
 5351TIP3    H237613   5.632   3.118   8.303  0.7966 -0.9249 -1.5354
 5352TIP3   OH237614   1.594   1.340   7.646  0.3036 -0.0272 -0.2739
 5352TIP3    H137615   1.587   1.394   7.568  0.3945 -0.6946 -0.7547
 5352TIP3    H237616   1.510   1.353   7.692 -0.0316 -0.1617 -0.8375
 5353TIP3   OH237617   2.707   0.207   0.601  0.6699  0.3821 -1.3190
 5353TIP3    H137618   2.752   0.252   0.672 -0.0604  0.8114 -1.1203
 5353TIP3    H237619   2.768   0.139   0.574  0.0124 -1.3725  1.3008
 5354TIP3   OH237620   3.549   4.717   1.987 -0.1331 -0.2452  0.0888
 5354TIP3    H137621   3.629   4.741   1.939 -0.2392  1.0744  0.5151
 5354TIP3    H237622   3.556   4.764   2.070 -1.1058 -0.5374  0.3501
 5355TIP3   OH237623   2.084   5.356   7.927  0.3930 -0.3874 -0.6546
 5355TIP3    H137624   2.164   5.354   7.980  0.2458 -0.1833 -0.4244
 5355TIP3    H237625   2.038   5.276   7.951  0.0609 -0.0247 -0.0576
 5356TIP3   OH237626   4.543   5.205   7.351  0.2436  0.2169  0.1080
 5356TIP3    H137627   4.541   5.300   7.340 -1.1932  0.1864 -0.0759
 5356TIP3    H237628   4.456   5.183   7.383  1.0836 -0.8641  1.7954
 5357TIP3   OH237629   0.392   3.681   8.278 -0.0226 -0.4302  0.5632
 5357TIP3    H137630   0.421   3.591   8.264  1.1630  0.1929 -1.4414
 5357TIP3    H237631   0.347   3.705   8.197 -0.8407  0.6164  1.2905
 5358TIP3   OH237632   4.650   1.398   8.321 -0.0965  0.3690  0.4640
 5358TIP3    H137633   4.730   1.433   8.280 -1.4540  0.9854 -1.8269
 5358TIP3    H237634   4.665   1.304   8.326  0.5542  0.4082 -0.4751
 5359TIP3   OH237635   4.473   6.795   8.125  0.4623  0.3029 -0.0989
 5359TIP3    H137636   4.486   6.856   8.197 -0.0247 -0.4450  0.6326
 5359TIP3    H237637   4.477   6.850   8.046 -1.0846  1.4529  0.5832
 5360TIP3   OH237638   5.804   3.556   8.235  0.3151  0.1671 -0.3280
 5360TIP3    H137639   5.759   3.475   8.210 -0.0296 -0.0686  1.0175
 5360TIP3    H237640   5.760   3.585   8.314  0.6554  1.5099 -0.6048
 5361TIP3   OH237641   3.119   6.378   7.544  0.3981 -0.0398  0.3429
 5361TIP3    H137642   3.074   6.448   7.496  0.8409  0.4765  0.6759
 5361TIP3    H237643   3.211   6.403   7.543  0.8750 -1.6896 -1.3529
 5362TIP3   OH237644   3.042   0.610   6.766  0.4084  0.0390 -0.3895
 5362TIP3    H137645   3.021   0.699   6.794  1.1195  0.6704 -1.7461
 5362TIP3    H237646   3.047   0.616   6.670  0.6170 -1.4339 -0.4895
 5363TIP3   OH237647   2.209   1.009   8.170 -0.0108 -0.2475  0.2953
 5363TIP3    H137648   2.232   0.986   8.260  2.2354  0.5042 -0.0130
 5363TIP3    H237649   2.239   0.934   8.118 -0.5657 -0.3329  0.0968
 5364TIP3   OH237650   6.133   0.677   2.044 -0.4431  0.2549  0.1090
 5364TIP3    H137651   6.153   0.741   2.111 -1.4474  1.1862 -0.4583
 5364TIP3    H237652   6.043   0.650   2.062 -0.6535  0.3672 -0.7387
 5365TIP3   OH237653   5.625   0.818   0.109  0.3585  0.2188 -0.1220
 5365TIP3    H137654   5.534   0.794   0.095  0.0456  1.4252 -0.2488
 5365TIP3    H237655   5.633   0.905   0.072  1.8938 -0.3596 -1.2660
 5366TIP3   OH237656   1.719   4.500   7.630 -0.3579  0.2411 -0.2299
 5366TIP3    H137657   1.786   4.439   7.661 -0.2779  0.5835  0.2815
 5366TIP3    H237658   1.720   4.571   7.694 -1.4706  0.0733 -0.0045
 5367TIP3   OH237659   3.931   6.248   0.829 -0.1758 -0.1260  0.1315
 5367TIP3    H137660   3.915   6.295   0.748 -2.8032  0.3175  0.8394
 5367TIP3    H237661   3.974   6.311   0.886  3.9277 -1.0861 -1.5096
 5368TIP3   OH237662   3.052   6.092   0.678 -0.1326 -0.2698  0.4394
 5368TIP3    H137663   3.033   6.019   0.736  0.0993  0.9757  2.1497
 5368TIP3    H237664   3.132   6.066   0.632  1.1544 -0.2701  2.5685
 5369TIP3   OH237665   4.908   1.479   0.217 -0.6208 -0.8275  0.3406
 5369TIP3    H137666   4.972   1.411   0.196 -0.2826 -0.3276 -0.2964
 5369TIP3    H237667   4.824   1.441   0.192 -0.5780 -1.4599  1.1161
 5370TIP3   OH237668   0.532   1.643   0.880 -0.1788  0.1993 -0.6991
 5370TIP3    H137669   0.606   1.667   0.824 -1.3116  1.3135 -1.8012
 5370TIP3    H237670   0.462   1.620   0.819 -0.6238 -1.2810  0.3160
 5371TIP3   OH237671   2.132   5.608   7.442 -0.0140 -0.1674  0.2717
 5371TIP3    H137672   2.132   5.551   7.518  1.9211 -1.0669 -0.3457
 5371TIP3    H237673   2.094   5.555   7.372  1.8139 -0.8073 -0.3094
 5372TIP3   OH237674   4.366   3.697   8.688  0.8114  0.8889 -0.0010
 5372TIP3    H137675   4.443   3.675   8.637 -0.5964 -0.2958 -1.7350
 5372TIP3    H237676   4.388   3.673   8.777  2.1341 -0.2027 -0.5935
 5373TIP3   OH237677   1.678   6.129   8.031  0.3373 -0.1540  0.3221
 5373TIP3    H137678   1.751   6.127   7.969  0.7327 -0.2044  0.7897
 5373TIP3    H237679   1.601   6.146   7.976  0.8695  1.2527 -0.0131
 5374TIP3   OH237680   5.478   6.582   8.390  0.0576  0.3817 -0.3924
 5374TIP3    H137681   5.421   6.524   8.441 -0.7907 -0.5336 -2.2944
 5374TIP3    H237682   5.519   6.525   8.325 -0.5072  1.8039 -2.0897
 5375TIP3   OH237683   4.491   5.487   7.329  0.1359 -0.0693 -0.1012
 5375TIP3    H137684   4.475   5.499   7.235 -1.4020 -1.2877 -0.0373
 5375TIP3    H237685   4.416   5.527   7.371  1.4401  1.6282  0.7273
 5376TIP3   OH237686   0.828   1.740   8.741 -0.1181  0.4039 -0.2918
 5376TIP3    H137687   0.883   1.819   8.744  1.3716 -0.6283  1.1009
 5376TIP3    H237688   0.789   1.735   8.828  0.1298 -0.6213 -0.2330
 5377TIP3   OH237689   6.595   0.338   0.751 -0.5817 -0.2773 -0.2227
 5377TIP3    H137690   6.551   0.375   0.828 -1.3259 -0.4387 -0.5609
 5377TIP3    H237691   6.618   0.249   0.778 -1.8202 -0.7033 -0.5496
 5378TIP3   OH237692   4.913   0.581   0.731 -0.4242 -0.2521 -0.2499
 5378TIP3    H137693   4.942   0.491   0.717 -0.3411 -0.8945  3.1668
 5378TIP3    H237694   4.981   0.619   0.787 -2.4214  0.5822  1.7496
 5379TIP3   OH237695   4.896   3.644   8.543 -0.0945 -0.1215 -0.0787
 5379TIP3    H137696   4.827   3.710   8.551 -0.5663 -0.6321  0.1745
 5379TIP3    H237697   4.915   3.619   8.634  1.5665  1.1535 -0.0392
 5380TIP3   OH237698   4.078   5.167   0.965  0.1422 -0.1579 -0.0111
 5380TIP3    H137699   4.133   5.218   0.906  1.5544 -1.3050  0.2621
 5380TIP3    H237700   4.084   5.212   1.049 -0.7158  0.6572 -0.3641
 5381TIP3   OH237701   5.246   3.670   7.759  0.2947  0.1587 -0.3400
 5381TIP3    H137702   5.222   3.635   7.845  0.0827 -0.1830 -0.5356
 5381TIP3    H237703   5.342   3.672   7.760  0.2788  1.0269  0.2456
 5382TIP3   OH237704   0.076   0.035   1.254 -0.2199 -0.5119  0.5636
 5382TIP3    H137705   0.063   0.047   1.349 -1.2182 -1.5732  0.5840
 5382TIP3    H237706   0.014   0.097   1.214 -1.7824 -1.9406  0.6483
 5383TIP3   OH237707   0.464   4.290   6.404 -0.3694  0.2847  0.1425
 5383TIP3    H137708   0.469   4.206   6.449 -2.6639  0.8832  1.6865
 5383TIP3    H237709   0.546   4.334   6.426  0.7625 -1.3873 -0.4993
 5384TIP3   OH237710   5.453   3.360   6.203  0.3879 -0.1040 -0.0152
 5384TIP3    H137711   5.377   3.417   6.192 -0.1052 -0.8015 -0.2594
 5384TIP3    H237712   5.493   3.356   6.117 -0.0684 -0.8024 -0.2020
 5385TIP3   OH237713   6.700   5.913   8.204 -0.7162  0.0549  0.1512
 5385TIP3    H137714   6.714   5.874   8.118 -0.4404 -0.9883  0.6546
 5385TIP3    H237715   6.763   5.985   8.209 -0.5827 -0.0198 -0.4302
 5386TIP3   OH237716   2.488   1.588   8.386  0.7494 -0.2609  1.1648
 5386TIP3    H137717   2.519   1.543   8.308  1.3078  1.3180  0.4313
 5386TIP3    H237718   2.458   1.518   8.445  0.3599 -1.4831 -0.4325
 5387TIP3   OH237719   5.619   6.389   8.262  0.0910  0.0503 -0.7181
 5387TIP3    H137720   5.656   6.378   8.175 -0.8750 -0.1021 -1.1098
 5387TIP3    H237721   5.690   6.431   8.312  1.0476 -0.8941 -1.2524
 5388TIP3   OH237722   6.523   6.590   1.437  0.1840 -0.2516 -0.3038
 5388TIP3    H137723   6.484   6.504   1.453 -0.1100 -0.2327 -0.8857
 5388TIP3    H237724   6.617   6.574   1.441  0.1379 -0.2789  1.1974
 5389TIP3   OH237725   1.298   2.076   7.660 -0.1712 -0.4731  0.4354
 5389TIP3    H137726   1.300   2.169   7.640  2.1228 -0.5907 -0.0978
 5389TIP3    H237727   1.215   2.063   7.706 -0.6769  1.7536  0.2390
 5390TIP3   OH237728   6.612   6.103   1.286  0.1147 -0.0564  0.1945
 5390TIP3    H137729   6.664   6.143   1.356  0.6082  0.3294 -0.3839
 5390TIP3    H237730   6.551   6.045   1.332  0.6708 -0.0845  0.9208
 5391TIP3   OH237731   4.192   4.331   0.129  0.0978  0.2820  0.4047
 5391TIP3    H137732   4.156   4.255   0.174  1.2299 -0.6032 -0.1442
 5391TIP3    H237733   4.226   4.297   0.046  1.1565  1.2681  0.4025
 5392TIP3   OH237734   1.004   0.043   0.635 -0.0280  0.3141  0.0538
 5392TIP3    H137735   0.942   0.010   0.570 -0.2221  1.5726 -0.4294
 5392TIP3    H237736   1.024   0.132   0.606  1.9520 -0.0262  0.2304
 5393TIP3   OH237737   6.423   2.370   7.377  0.4544  0.5541 -0.7018
 5393TIP3    H137738   6.353   2.434   7.375  0.6277  0.7315 -1.8742
 5393TIP3    H237739   6.387   2.293   7.332 -0.2559 -0.7637  1.8864
 5394TIP3   OH237740   6.005   5.959   8.060 -0.0710 -0.3897  0.2007
 5394TIP3    H137741   6.092   5.922   8.078  0.4671  0.1944 -1.0912
 5394TIP3    H237742   5.951   5.928   8.132  0.7490 -2.3571  0.0335
 5395TIP3   OH237743   4.145   0.032   7.559  0.1008  0.2076  0.3807
 5395TIP3    H137744   4.179   0.037   7.649  0.9551  0.5806  0.0454
 5395TIP3    H237745   4.109   0.119   7.543  1.0422  0.5261 -0.0548
 5396TIP3   OH237746   5.183   0.021   1.115  0.2633  0.1677 -0.0544
 5396TIP3    H137747   5.115  -0.046   1.108  0.6845 -0.1847 -0.9513
 5396TIP3    H237748   5.223   0.007   1.201 -0.7250  0.3183  0.4371
 5397TIP3   OH237749   2.603   1.592   1.801 -0.0372 -0.2553  0.4126
 5397TIP3    H137750   2.649   1.676   1.805  2.1213 -1.2991 -0.3920
 5397TIP3    H237751   2.529   1.602   1.860 -0.4565  2.5332 -0.4271
 5398TIP3   OH237752   1.675   2.192   8.571  0.1993 -0.6042  0.1862
 5398TIP3    H137753   1.731   2.247   8.517 -1.0831 -0.7162 -1.3245
 5398TIP3    H237754   1.718   2.191   8.657  0.6209  2.1433  0.0773
 5399TIP3   OH237755   0.167   2.631   7.412  0.6813 -0.2126  0.0353
 5399TIP3    H137756   0.208   2.682   7.481 -0.8172 -1.0790  1.6283
 5399TIP3    H237757   0.170   2.541   7.443 -3.2164 -0.2556  0.7827
 5400TIP3   OH237758   3.422   2.485   6.903 -0.1413  0.1132  0.0167
 5400TIP3    H137759   3.421   2.552   6.972 -1.3808 -1.0252  1.1604
 5400TIP3    H237760   3.514   2.459   6.896  0.1504  0.9799  0.5053
 5401TIP3   OH237761   3.168   0.457   1.124 -0.5810  0.1649 -0.5826
 5401TIP3    H137762   3.137   0.547   1.132  0.2778  0.3705  0.8466
 5401TIP3    H237763   3.229   0.446   1.197 -1.1384 -1.7728 -0.3444
 5402TIP3   OH237764   5.242   2.892   0.369 -0.7518  0.0606 -0.2091
 5402TIP3    H137765   5.324   2.913   0.412 -0.8610  1.3176 -0.5826
 5402TIP3    H237766   5.175   2.911   0.435 -0.6858 -4.4237  1.4631
 5403TIP3   OH237767   4.525   5.319   0.078 -0.1820  0.3436 -0.1826
 5403TIP3    H137768   4.484   5.339   0.163 -1.2159  2.1386 -1.0619
 5403TIP3    H237769   4.489   5.233   0.055  0.0241 -0.1199  1.1224
 5404TIP3   OH237770   2.626   0.622   8.255 -0.3333  0.4167 -0.0447
 5404TIP3    H137771   2.598   0.700   8.207 -0.4581 -0.4318 -1.4220
 5404TIP3    H237772   2.719   0.635   8.270 -0.3025  0.7272 -0.4961
 5405TIP3   OH237773   1.109   2.336   7.318 -0.2439  0.0617  0.6646
 5405TIP3    H137774   1.060   2.285   7.253  0.5701 -0.2420  0.2719
 5405TIP3    H237775   1.042   2.386   7.365 -0.7950  0.8259 -0.8623
 5406TIP3   OH237776   3.599   0.880   0.909  0.2381  0.0263 -0.3138
 5406TIP3    H137777   3.672   0.874   0.970  0.5095 -0.2216 -0.6546
 5406TIP3    H237778   3.636   0.919   0.830  0.1045 -0.4964 -0.6399
 5407TIP3   OH237779   5.490   4.924   7.802  0.0869 -0.4279 -0.1002
 5407TIP3    H137780   5.530   4.879   7.877 -0.5629 -0.9681 -0.0749
 5407TIP3    H237781   5.559   4.983   7.771  0.0730  0.4837  1.4812
 5408TIP3   OH237782   1.518   2.129   0.096  0.2218 -0.0559  0.0357
 5408TIP3    H137783   1.436   2.097   0.058 -0.2974  2.2243 -0.9226
 5408TIP3    H237784   1.584   2.069   0.063 -1.1231 -2.5829  1.6627
 5409TIP3   OH237785   0.226   0.627   1.803 -0.2545 -0.1932 -0.0535
 5409TIP3    H137786   0.317   0.615   1.832  0.0980 -1.0735 -1.4668
 5409TIP3    H237787   0.233   0.682   1.725 -1.0741  0.8989  0.6118
 5410TIP3   OH237788   2.150   6.348   7.186  0.3508  0.5403  0.7341
 5410TIP3    H137789   2.222   6.303   7.142 -1.2946 -0.9650 -0.6019
 5410TIP3    H237790   2.155   6.438   7.155  0.4357 -0.0355 -1.0276
 5411TIP3   OH237791   4.326   1.288   7.357 -0.0886  0.2262  0.4495
 5411TIP3    H137792   4.325   1.382   7.342  1.0057 -0.0723 -1.8479
 5411TIP3    H237793   4.410   1.271   7.400  0.5851  0.1212 -0.8520
 5412TIP3   OH237794   5.507   3.353   0.110 -0.1122  0.3721  0.0454
 5412TIP3    H137795   5.417   3.372   0.083 -0.5916 -1.4532  0.2753
 5412TIP3    H237796   5.554   3.338   0.028 -0.7096 -1.5235  0.0248
 5413TIP3   OH237797   3.413   2.375   5.937 -0.0585 -0.1063 -0.7012
 5413TIP3    H137798   3.470   2.306   5.972 -1.5265 -1.6036 -1.1027
 5413TIP3    H237799   3.459   2.407   5.859 -0.0928 -1.8522 -1.4892
 5414TIP3   OH237800   0.589   2.088   2.510 -0.0336 -0.2560 -0.0458
 5414TIP3    H137801   0.672   2.109   2.552 -0.5743  1.8473  0.0470
 5414TIP3    H237802   0.607   2.007   2.462  1.4548 -1.0302  1.6882
 5415TIP3   OH237803   4.037   2.390   8.468 -0.3342 -0.3808 -0.0218
 5415TIP3    H137804   3.977   2.317   8.454 -0.7500 -0.0548  0.0418
 5415TIP3    H237805   3.981   2.462   8.499  0.1595 -0.2395  0.5803
 5416TIP3   OH237806   0.051   4.471   8.584 -1.1398  0.0185 -0.2386
 5416TIP3    H137807   0.105   4.534   8.537 -0.8140 -0.1141 -0.0424
 5416TIP3    H237808   0.089   4.385   8.563 -0.8485 -0.0298  0.4385
 5417TIP3   OH237809   2.766   1.926   8.628  0.3206 -0.0633 -0.8936
 5417TIP3    H137810   2.721   1.895   8.550 -2.2180  0.9528  0.0138
 5417TIP3    H237811   2.732   1.871   8.699 -1.4965  2.2127  0.1790
 5418TIP3   OH237812   6.087   0.936   0.325  0.3267  0.0404  0.3228
 5418TIP3    H137813   6.086   0.907   0.234  0.6360  0.3860  0.2092
 5418TIP3    H237814   6.123   1.025   0.322  1.2695 -0.3114  0.8918
 5419TIP3   OH237815   6.730   5.670   0.198  0.0350  0.3095 -0.1825
 5419TIP3    H137816   6.782   5.616   0.258  1.5490 -1.2495 -2.7244
 5419TIP3    H237817   6.651   5.619   0.184 -1.0619  1.4050  1.5513
 5420TIP3   OH237818   6.293   0.907   0.979  0.2780 -0.4033 -0.2329
 5420TIP3    H137819   6.341   0.958   1.043  0.8017 -0.7694 -0.3265
 5420TIP3    H237820   6.209   0.951   0.970 -0.0553 -0.7215  1.1855
 5421TIP3   OH237821   3.152   2.822   7.601  0.5329 -0.0944  0.3181
 5421TIP3    H137822   3.156   2.779   7.686  0.7381  0.7554  0.7438
 5421TIP3    H237823   3.058   2.821   7.579  0.4601 -0.1780  0.6177
 5422TIP3   OH237824   6.324   1.784   1.419 -0.1877 -0.0964  0.2866
 5422TIP3    H137825   6.369   1.713   1.465 -0.6279  0.2190  1.2408
 5422TIP3    H237826   6.337   1.860   1.476  2.7472  1.3719 -2.0371
 5423TIP3   OH237827   2.107   2.751   0.437 -0.5422 -0.1816  0.2764
 5423TIP3    H137828   2.131   2.713   0.522 -4.5553 -2.3371  0.6724
 5423TIP3    H237829   2.020   2.716   0.419 -0.5954  1.5893 -3.9746
 5424TIP3   OH237830   5.444   4.218   0.003  0.5060  0.5411 -0.1852
 5424TIP3    H137831   5.418   4.138  -0.043 -2.7233  2.3781 -1.8613
 5424TIP3    H237832   5.390   4.219   0.082  1.2206  0.6496  0.3141
 5425TIP3   OH237833   3.675   3.016   7.246  0.2649 -0.0640  0.2073
 5425TIP3    H137834   3.661   3.103   7.209  1.1016 -0.6011 -1.4973
 5425TIP3    H237835   3.756   3.024   7.297  1.2849 -0.1864 -1.3205
 5426TIP3   OH237836   5.619   4.807   7.142  0.4859 -0.1397 -0.4559
 5426TIP3    H137837   5.640   4.730   7.195  0.1576  0.2200  0.2033
 5426TIP3    H237838   5.680   4.874   7.172 -0.8860  0.6102  0.7636
 5427TIP3   OH237839   2.513   4.010   7.629  0.6455  0.2068 -0.3030
 5427TIP3    H137840   2.544   4.093   7.665 -1.1953  0.1671  1.6104
 5427TIP3    H237841   2.470   3.966   7.703 -1.4289 -0.9218 -2.0297
 5428TIP3   OH237842   5.731   6.274   8.010  0.3558 -0.3519 -0.0975
 5428TIP3    H137843   5.717   6.187   7.974  1.3283 -0.1455 -1.0315
 5428TIP3    H237844   5.806   6.265   8.069  0.7943 -0.0567 -0.5980
 5429TIP3   OH237845   5.764   5.750   6.764 -1.0638 -0.2031 -0.1317
 5429TIP3    H137846   5.764   5.673   6.706 -0.7396  0.4118 -0.9793
 5429TIP3    H237847   5.672   5.767   6.780 -1.1297 -1.7189  1.4011
 5430TIP3   OH237848   6.274   6.580   0.889 -0.3186 -0.1043  0.6737
 5430TIP3    H137849   6.327   6.536   0.823 -0.8530  1.1145 -0.6275
 5430TIP3    H237850   6.296   6.537   0.972  2.8442  0.4960  0.2476
 5431TIP3   OH237851   0.199   4.927   7.609  0.1073  0.2338 -0.8379
 5431TIP3    H137852   0.230   4.978   7.684  1.3895 -1.0325 -0.4590
 5431TIP3    H237853   0.236   4.839   7.623 -0.2322 -0.2196 -2.5787
 5432TIP3   OH237854   0.501   3.386   1.117 -0.4606 -0.2402 -0.0298
 5432TIP3    H137855   0.432   3.332   1.156 -0.5461 -0.4669 -0.4975
 5432TIP3    H237856   0.458   3.470   1.099 -0.9224 -0.7510 -1.3740
 5433TIP3   OH237857   1.756   5.066   1.122 -0.0291  0.1206  0.1838
 5433TIP3    H137858   1.786   5.133   1.060 -1.4625  0.8377  0.2197
 5433TIP3    H237859   1.818   4.994   1.112 -0.1761  0.2401 -2.0764
 5434TIP3   OH237860   5.994   5.031   7.492  0.0316 -0.2981  0.1245
 5434TIP3    H137861   6.057   5.052   7.423  0.4027  0.2625  0.6252
 5434TIP3    H237862   6.015   4.941   7.517  0.2854 -0.2923 -0.0681
 5435TIP3   OH237863   6.332   1.278   7.865  0.7810 -0.3108 -0.1099
 5435TIP3    H137864   6.249   1.318   7.892  0.7143  0.2956 -1.1673
 5435TIP3    H237865   6.312   1.184   7.859  0.7792 -0.4792  1.7985
 5436TIP3   OH237866   3.761   4.084   2.082  0.9177  0.2025 -0.6514
 5436TIP3    H137867   3.718   4.140   2.147 -0.8834 -1.8317  0.0321
 5436TIP3    H237868   3.841   4.056   2.125  0.2757 -0.2439  0.2846
 5437TIP3   OH237869   5.328   0.241   8.023 -0.7258 -0.0107  0.0216
 5437TIP3    H137870   5.261   0.191   7.976 -2.5138  1.2735  1.0867
 5437TIP3    H237871   5.383   0.277   7.953 -2.7765  1.1105 -1.1367
 5438TIP3   OH237872   1.266   5.199   7.704 -0.0913 -0.2128 -0.0909
 5438TIP3    H137873   1.346   5.194   7.652 -0.4354  0.2690 -0.6846
 5438TIP3    H237874   1.196   5.181   7.641 -0.4823 -0.1673  0.3248
 5439TIP3   OH237875   0.893   2.791   0.461 -0.2169 -0.2315 -0.3069
 5439TIP3    H137876   0.899   2.832   0.375  2.0601  1.6469  0.6341
 5439TIP3    H237877   0.961   2.724   0.460 -0.0664 -0.0854  0.0790
 5440TIP3   OH237878   5.780   1.297   0.084  0.1127 -0.1395 -0.1466
 5440TIP3    H137879   5.763   1.210   0.120 -0.3041 -1.3530 -2.9619
 5440TIP3    H237880   5.871   1.292   0.052 -0.3041 -0.0460 -1.4266
 5441TIP3   OH237881   4.884   1.729   0.081  0.2232  0.3109  0.3455
 5441TIP3    H137882   4.931   1.657   0.124  0.0874 -0.9176 -1.4651
 5441TIP3    H237883   4.862   1.789   0.152  2.3544 -0.2923  1.5964
 5442TIP3   OH237884   6.413   3.905   8.499  0.0265 -0.2800  0.9468
 5442TIP3    H137885   6.416   3.886   8.592  0.8124  0.0933  1.0050
 5442TIP3    H237886   6.423   4.000   8.493 -0.9999 -0.1849  0.5224
 5443TIP3   OH237887   3.863   3.354   1.101  0.0429 -0.5557 -0.2607
 5443TIP3    H137888   3.928   3.405   1.149  0.5360 -0.8476 -0.5999
 5443TIP3    H237889   3.820   3.418   1.044  1.7353 -0.7124 -1.8497
 5444TIP3   OH237890   2.494   2.245   0.724 -0.1062  0.1766 -0.0141
 5444TIP3    H137891   2.571   2.271   0.774  0.2076  1.1315 -0.9592
 5444TIP3    H237892   2.497   2.299   0.645 -0.7591 -1.0712 -0.9221
 5445TIP3   OH237893   0.573   5.995   0.739 -0.1191 -0.3908  0.6041
 5445TIP3    H137894   0.479   5.998   0.755 -0.6675 -0.3920 -2.1572
 5445TIP3    H237895   0.605   5.926   0.798 -1.9558 -0.9561  1.0146
 5446TIP3   OH237896   1.848   2.101   8.168 -0.2916  0.0143  0.0065
 5446TIP3    H137897   1.778   2.059   8.120 -0.3889 -1.1399  1.1155
 5446TIP3    H237898   1.928   2.079   8.120 -0.5605  0.3100 -0.5743
 5447TIP3   OH237899   2.403   5.504   2.377 -0.1062 -0.0331 -0.2112
 5447TIP3    H137900   2.321   5.456   2.366 -0.0606 -0.3723  0.7999
 5447TIP3    H237901   2.471   5.439   2.358 -0.0667  0.1436 -0.6753
 5448TIP3   OH237902   0.675   1.242   6.531  0.2945 -0.2798  0.0947
 5448TIP3    H137903   0.640   1.329   6.554  1.3374  0.1203  0.1987
 5448TIP3    H237904   0.644   1.227   6.442  0.2536  0.2794  0.0096
 5449TIP3   OH237905   5.582   1.385   7.549 -0.7406  0.2749  0.3279
 5449TIP3    H137906   5.631   1.350   7.474  0.1433  1.5795  0.2554
 5449TIP3    H237907   5.547   1.308   7.593  0.1264 -0.6157 -0.4906
 5450TIP3   OH237908   1.543   0.758   2.078 -0.0854  0.2962 -0.1065
 5450TIP3    H137909   1.633   0.763   2.112  0.3006 -0.0845 -1.0452
 5450TIP3    H237910   1.518   0.850   2.066  0.1287  0.4099  0.2658
 5451TIP3   OH237911   2.756   3.295   1.581 -0.0775  0.0254  0.6674
 5451TIP3    H137912   2.760   3.237   1.657 -0.6083  0.4328  1.0134
 5451TIP3    H237913   2.662   3.304   1.563  0.0577 -0.5317 -0.4043
 5452TIP3   OH237914   6.782   0.674   1.779 -0.3084  0.6613 -0.4128
 5452TIP3    H137915   6.875   0.665   1.798  0.0259  1.9012 -1.3105
 5452TIP3    H237916   6.739   0.609   1.834  0.8863  1.5991  1.7524
 5453TIP3   OH237917   2.104   1.834   6.718 -0.7755  0.6113 -0.6717
 5453TIP3    H137918   2.022   1.793   6.690 -0.7604 -1.7934  2.2696
 5453TIP3    H237919   2.172   1.789   6.668 -1.1003  1.8315 -2.2975
 5454TIP3   OH237920   2.572   5.353   2.576  0.1756  0.0201 -0.4183
 5454TIP3    H137921   2.518   5.309   2.642  0.7576 -0.5348 -0.2999
 5454TIP3    H237922   2.536   5.323   2.492  0.8417 -1.0577 -0.3398
 5455TIP3   OH237923   6.571   5.851   2.249 -0.7218 -0.1652  0.0643
 5455TIP3    H137924   6.660   5.835   2.278 -1.1537 -0.7548  1.1138
 5455TIP3    H237925   6.552   5.940   2.277 -0.0890  0.3803 -1.1757
 5456TIP3   OH237926   0.991   1.303   1.525 -0.1964  0.3188  0.0356
 5456TIP3    H137927   1.009   1.381   1.577  1.8291 -0.8032  1.1552
 5456TIP3    H237928   0.916   1.327   1.470 -2.3986  1.6299  3.3156
 5457TIP3   OH237929   3.250   0.867   2.253 -0.2066 -0.5541  0.2763
 5457TIP3    H137930   3.330   0.859   2.201  0.0302  0.6290  0.4399
 5457TIP3    H237931   3.282   0.870   2.344 -0.6330 -3.0443  0.6038
 5458TIP3   OH237932   5.535   0.525   1.542 -0.3542  0.1418  0.0915
 5458TIP3    H137933   5.453   0.476   1.553  0.6149 -1.2390  1.5564
 5458TIP3    H237934   5.603   0.458   1.543  0.7842  1.1450 -2.1797
 5459TIP3   OH237935   3.423   2.672   6.539  0.0286  0.3319  0.1963
 5459TIP3    H137936   3.333   2.688   6.568  1.0800  2.2299  2.8335
 5459TIP3    H237937   3.439   2.741   6.474 -0.0475  0.7290  0.5968
 5460TIP3   OH237938   5.362   3.160   8.555  0.1957 -0.9686  0.1518
 5460TIP3    H137939   5.277   3.201   8.538  0.9559 -0.1511 -1.9961
 5460TIP3    H237940   5.426   3.231   8.541  1.2475 -1.4387  2.1676
 5461TIP3   OH237941   2.896   2.430   7.887  0.0981  0.0643  0.2519
 5461TIP3    H137942   2.826   2.377   7.851  0.2015  0.3186 -0.3454
 5461TIP3    H237943   2.971   2.371   7.892  0.2246  0.1564 -0.4480
 5462TIP3   OH237944   1.835   5.359   6.489 -0.5311 -0.2126  0.5518
 5462TIP3    H137945   1.912   5.306   6.467 -0.5124 -1.2022  2.7610
 5462TIP3    H237946   1.784   5.304   6.549 -2.0588  1.1356  0.5572
 5463TIP3   OH237947   4.173   4.548   8.295  0.1286 -0.0821 -0.0010
 5463TIP3    H137948   4.090   4.539   8.341  0.2657 -1.6264 -0.0225
 5463TIP3    H237949   4.214   4.625   8.335 -1.2942  0.7121 -0.0110
 5464TIP3   OH237950   1.365   5.488   7.841  0.0625  0.0683  0.3560
 5464TIP3    H137951   1.323   5.452   7.763 -0.3329  0.5725  0.3338
 5464TIP3    H237952   1.317   5.568   7.860  1.1100  0.7514  0.2320
 5465TIP3   OH237953   1.158   1.838   6.343 -0.1494 -0.4753 -0.2234
 5465TIP3    H137954   1.197   1.752   6.358 -2.4100 -1.5383  0.1269
 5465TIP3    H237955   1.116   1.831   6.258 -1.2735 -0.1381  0.2759
 5466TIP3   OH237956   2.193   2.992   6.486  0.3536 -0.0039  0.7304
 5466TIP3    H137957   2.245   3.032   6.416 -2.2679  0.4163 -1.1396
 5466TIP3    H237958   2.207   3.048   6.562 -0.1438  2.2840 -0.7372
 5467TIP3   OH237959   3.323   2.733   1.168 -0.7623  0.6916  0.3341
 5467TIP3    H137960   3.321   2.723   1.263 -0.0355 -1.2356  0.2010
 5467TIP3    H237961   3.241   2.693   1.138 -0.3572  0.0251  0.0878
 5468TIP3   OH237962   4.180   3.024   1.319 -0.7781 -0.2861 -0.7023
 5468TIP3    H137963   4.151   3.098   1.266  0.1499 -0.4827 -1.5120
 5468TIP3    H237964   4.275   3.034   1.325 -0.8346 -0.3478  0.8292
 5469TIP3   OH237965   2.122   2.666   7.731 -0.0534 -0.5862  0.1170
 5469TIP3    H137966   2.201   2.655   7.678  0.9773 -0.9575  1.6396
 5469TIP3    H237967   2.050   2.660   7.669  1.1247  0.6247 -1.4551
 5470TIP3   OH237968   0.193   6.523   0.444 -0.2611 -0.0794 -0.6410
 5470TIP3    H137969   0.138   6.483   0.511  1.2760 -1.2858 -0.0506
 5470TIP3    H237970   0.189   6.617   0.463 -0.7515 -0.3051  0.4383
 5471TIP3   OH237971   3.643   0.332   8.571 -0.0843  0.1636 -0.3777
 5471TIP3    H137972   3.637   0.403   8.508  1.2095  0.3327 -0.3387
 5471TIP3    H237973   3.697   0.367   8.642  1.3187 -1.1024 -0.7563
 5472TIP3   OH237974   1.213   2.846   7.313  0.0306 -0.6832 -0.1111
 5472TIP3    H137975   1.152   2.806   7.251 -2.8336  0.0996  1.9816
 5472TIP3    H237976   1.192   2.805   7.397  2.7844 -0.6868  0.6780
 5473TIP3   OH237977   4.337   1.203   0.149 -0.2655 -0.8935  0.5291
 5473TIP3    H137978   4.292   1.239   0.073 -0.6740 -0.4457  0.9836
 5473TIP3    H237979   4.382   1.125   0.115  0.0002 -0.3955 -0.2872
 5474TIP3   OH237980   3.254   2.898   6.685 -0.0241 -0.4453 -0.5383
 5474TIP3    H137981   3.206   2.835   6.631  0.4257 -0.5143 -0.8552
 5474TIP3    H237982   3.260   2.977   6.630 -1.7265  0.3515  0.3268
 5475TIP3   OH237983   0.545   5.846   7.203 -0.1390 -0.2849 -0.4772
 5475TIP3    H137984   0.584   5.933   7.210  1.3305 -1.0473  1.7101
 5475TIP3    H237985   0.465   5.860   7.152 -1.0699  2.7074  1.5242
 5476TIP3   OH237986   5.896   6.088   6.859 -0.2671 -0.3834  0.4629
 5476TIP3    H137987   5.847   6.166   6.884 -0.3230 -0.2014 -0.1956
 5476TIP3    H237988   5.922   6.104   6.768 -0.3794 -1.1786  0.2864
 5477TIP3   OH237989   1.519   5.979   6.553  0.0143  0.2880  0.7324
 5477TIP3    H137990   1.591   5.996   6.492 -0.0442 -0.2394  0.5110
 5477TIP3    H237991   1.497   6.065   6.588 -0.3059  0.6983 -0.4041
 5478TIP3   OH237992   6.311   2.355   8.236  0.3422  0.4812  0.5942
 5478TIP3    H137993   6.264   2.367   8.319 -1.1545  1.7804 -0.3730
 5478TIP3    H237994   6.285   2.431   8.184 -0.3741 -1.3009 -1.7994
 5479TIP3   OH237995   1.175   6.535   7.314  0.1296  0.1659 -0.0869
 5479TIP3    H137996   1.143   6.444   7.312 -2.5054  1.0301 -0.5449
 5479TIP3    H237997   1.184   6.554   7.408  0.7936 -0.5687  0.0138
 5480TIP3   OH237998   3.437   5.442   5.942  0.3132  0.4256 -0.1680
 5480TIP3    H137999   3.509   5.386   5.914  0.6829  1.0923 -0.5716
 5480TIP3    H238000   3.417   5.497   5.866  1.0728  1.9960  0.7063
 5481TIP3   OH238001   5.186   6.214   0.258  1.1619  0.0257 -0.1364
 5481TIP3    H138002   5.181   6.129   0.215  2.6134  0.7179 -1.8014
 5481TIP3    H238003   5.266   6.211   0.310  0.3391 -0.1706  1.1901
 5482TIP3   OH238004   6.231   2.069   6.337 -0.4546  0.5569  0.8994
 5482TIP3    H138005   6.202   1.979   6.322 -0.8025  0.6978  0.7323
 5482TIP3    H238006   6.293   2.062   6.410  0.4826  0.0048  0.0862
 5483TIP3   OH238007   6.508   1.028   6.899  0.3147 -0.1776 -0.2390
 5483TIP3    H138008   6.454   1.090   6.947  0.0316 -0.4384 -0.2149
 5483TIP3    H238009   6.466   0.943   6.915 -0.5466 -0.1228 -1.9775
 5484TIP3   OH238010   1.326   2.508   8.497 -0.2060 -0.0697  0.0250
 5484TIP3    H138011   1.343   2.413   8.497  1.2265  0.0575 -2.9311
 5484TIP3    H238012   1.406   2.546   8.533  1.2282  0.0663 -2.9666
 5485TIP3   OH238013   2.616   3.099   8.693 -0.2418 -0.3854  0.0719
 5485TIP3    H138014   2.595   3.012   8.659  0.3804 -0.3848 -0.3187
 5485TIP3    H238015   2.593   3.094   8.786  0.5973 -1.2452  0.2445
 5486TIP3   OH238016   1.197   1.735   8.589 -0.7033 -0.0028 -0.4130
 5486TIP3    H138017   1.254   1.685   8.648 -0.2221  0.4050 -0.5198
 5486TIP3    H238018   1.112   1.692   8.596 -1.0194  0.8500  1.5873
 5487TIP3   OH238019   0.786   1.551   2.467  0.1212  0.2392  0.2551
 5487TIP3    H138020   0.723   1.605   2.515 -0.8251 -1.3260  0.8565
 5487TIP3    H238021   0.860   1.609   2.451 -0.3248  1.3572  1.9490
 5488TIP3   OH238022   4.338   0.234   1.885  0.0301 -0.0432  0.1512
 5488TIP3    H138023   4.248   0.202   1.891  0.2933 -0.7531  0.4137
 5488TIP3    H238024   4.332   0.327   1.907 -0.7804  0.1581 -0.8395
 5489TIP3   OH238025   4.527   2.230   7.744  0.5185 -0.5076 -0.2441
 5489TIP3    H138026   4.619   2.255   7.733  0.3889  1.1962  1.9513
 5489TIP3    H238027   4.524   2.189   7.831 -0.9210  0.0801  0.0042
 5490TIP3   OH238028   5.832   2.318   7.832 -0.4036 -0.4593 -0.8494
 5490TIP3    H138029   5.924   2.335   7.852 -1.1485  0.0532  3.0348
 5490TIP3    H238030   5.792   2.405   7.829 -0.7511 -0.6457 -3.0219
 5491TIP3   OH238031   3.142   4.821   1.046  0.6246  0.1175  0.2473
 5491TIP3    H138032   3.153   4.843   1.139 -0.1708 -0.9005  0.6081
 5491TIP3    H238033   3.156   4.726   1.043  1.7593  0.3010 -0.8713
 5492TIP3   OH238034   4.209   3.201   8.192 -0.1203  0.0183  0.2207
 5492TIP3    H138035   4.146   3.155   8.137  1.2321  0.1807 -1.5563
 5492TIP3    H238036   4.222   3.143   8.267 -2.8560  0.3158  1.0139
 5493TIP3   OH238037   0.265   3.510   8.032 -0.1123  0.0007 -0.2487
 5493TIP3    H138038   0.247   3.417   8.046 -1.4737  0.4119  1.0051
 5493TIP3    H238039   0.359   3.519   8.042  0.1665 -1.3816 -1.3592
 5494TIP3   OH238040   4.910   4.594   0.056  0.8495  0.9388 -0.2014
 5494TIP3    H138041   4.956   4.511   0.040  0.6918  0.6432  0.8081
 5494TIP3    H238042   4.818   4.570   0.063  0.6262  1.4163 -1.3904
 5495TIP3   OH238043   0.360   1.177   1.215  0.4586  0.8009  0.0221
 5495TIP3    H138044   0.335   1.247   1.154  1.1638 -0.5078 -1.8512
 5495TIP3    H238045   0.440   1.140   1.177 -0.2771 -1.4678  0.5735
 5496TIP3   OH238046   4.898   3.363   6.856 -0.3417  0.2626  0.0543
 5496TIP3    H138047   4.987   3.376   6.824  0.6337  0.8370  2.7258
 5496TIP3    H238048   4.858   3.450   6.852  0.3675  0.7228  1.8249
 5497TIP3   OH238049   3.858   6.072   0.239  0.4673  0.0967  0.2104
 5497TIP3    H138050   3.891   5.987   0.211  1.6053  1.0823 -1.6170
 5497TIP3    H238051   3.914   6.136   0.195 -0.8547  1.8140  0.8865
 5498TIP3   OH238052   5.776   3.598   7.102  0.2507  0.2118  0.3913
 5498TIP3    H138053   5.704   3.536   7.091 -0.1243  0.8357 -0.7526
 5498TIP3    H238054   5.851   3.554   7.063 -0.2180  0.8212 -1.2679
 5499TIP3   OH238055   4.276   3.064   1.010  0.8096 -0.3091 -0.9158
 5499TIP3    H138056   4.217   2.989   1.003 -0.3712  0.3039  1.4375
 5499TIP3    H238057   4.337   3.040   1.079  1.0938  0.4703 -0.8902
 5500TIP3   OH238058   1.294   1.826   0.171 -0.0532 -0.5962 -0.2951
 5500TIP3    H138059   1.350   1.823   0.249  0.3164  2.3924 -0.3221
 5500TIP3    H238060   1.206   1.807   0.204 -0.0622  1.5632  1.0906
 5501TIP3   OH238061   5.318   3.056   7.823  1.1363 -0.0991 -0.1032
 5501TIP3    H138062   5.235   3.094   7.850  0.1888 -1.6096 -0.7054
 5501TIP3    H238063   5.384   3.121   7.846 -0.3301  1.7349 -0.8099
 5502TIP3   OH238064   1.885   0.919   7.656  0.6860  0.2221  0.2124
 5502TIP3    H138065   1.926   0.832   7.658 -0.0310 -0.1328 -0.2427
 5502TIP3    H238066   1.924   0.962   7.580  0.6213  0.0910  0.1053
 5503TIP3   OH238067   6.693   3.123   1.405 -0.2067 -0.1533 -0.0838
 5503TIP3    H138068   6.727   3.197   1.354 -2.0940  1.0851  0.3402
 5503TIP3    H238069   6.760   3.107   1.471 -0.1565  1.8816  0.4386
 5504TIP3   OH238070   3.658   5.857   5.894 -0.0480 -0.1003  0.3029
 5504TIP3    H138071   3.621   5.890   5.976  2.0685 -0.8918  1.6637
 5504TIP3    H238072   3.702   5.775   5.919 -0.0631 -0.8021 -1.8107
 5505TIP3   OH238073   0.144   2.566   8.340  0.0660  0.0874  0.1767
 5505TIP3    H138074   0.150   2.596   8.431  1.0185 -3.1186  1.2966
 5505TIP3    H238075   0.072   2.503   8.340  1.0550 -1.0839 -0.9123
 5506TIP3   OH238076   5.769   0.035   1.662  0.2499  0.1204 -0.3791
 5506TIP3    H138077   5.856   0.044   1.700  0.8863 -1.0186 -1.4816
 5506TIP3    H238078   5.749  -0.058   1.668 -0.2668  0.1432 -1.4050
 5507TIP3   OH238079   5.724   2.925   8.553  0.3216 -0.1055 -0.2385
 5507TIP3    H138080   5.672   2.935   8.632  1.6033 -0.5704  0.6876
 5507TIP3    H238081   5.796   2.867   8.578  0.8411 -0.1381 -1.6954
 5508TIP3   OH238082   0.376   5.658   1.308  0.1640 -0.1668  0.3238
 5508TIP3    H138083   0.302   5.613   1.350 -0.2528  0.0183 -0.1961
 5508TIP3    H238084   0.405   5.722   1.372 -0.0790 -0.2960  0.5657
 5509TIP3   OH238085   2.058   1.964   2.034 -0.7579  0.7316  0.4481
 5509TIP3    H138086   2.094   1.963   2.123  0.2676 -0.6989  0.0639
 5509TIP3    H238087   2.118   2.018   1.984  1.0178 -1.6354 -0.1873
 5510TIP3   OH238088   2.393   5.248   7.555 -0.0793  0.3676 -0.0371
 5510TIP3    H138089   2.470   5.305   7.557  0.3103 -0.1274 -0.4591
 5510TIP3    H238090   2.403   5.198   7.474 -0.0335 -0.8035  0.6568
 5511TIP3   OH238091   2.933   6.348   8.365 -0.0923  0.3758 -0.1331
 5511TIP3    H138092   2.899   6.289   8.432  1.3583  0.7784  1.0154
 5511TIP3    H238093   2.877   6.425   8.370  3.1854  2.9335  4.8028
 5512TIP3   OH238094   3.091   5.998   8.403 -1.0319  0.4107  0.5992
 5512TIP3    H138095   3.089   5.912   8.446  1.5802 -1.4410 -2.4691
 5512TIP3    H238096   3.024   5.992   8.335 -0.5644  0.6210  0.1163
 5513TIP3   OH238097   2.333   5.743   2.243  0.2654 -0.0617 -0.0501
 5513TIP3    H138098   2.265   5.791   2.290  1.8511  3.1550 -0.7597
 5513TIP3    H238099   2.346   5.663   2.294  0.8302  2.4901  4.2647
 5514TIP3   OH238100   2.720   4.237   1.289  0.1608  0.1946  0.1127
 5514TIP3    H138101   2.685   4.320   1.319  1.2864  0.7171  0.0324
 5514TIP3    H238102   2.735   4.250   1.195  0.2779 -0.1286  0.0846
 5515TIP3   OH238103   3.375   0.187   7.332  0.0073  0.4479 -0.2733
 5515TIP3    H138104   3.321   0.265   7.317  0.6679  0.3786 -3.5055
 5515TIP3    H238105   3.401   0.194   7.424 -0.3001  3.7924 -0.3366
 5516TIP3   OH238106   5.647   3.032   0.459 -0.4987 -0.3812 -0.0617
 5516TIP3    H138107   5.739   3.007   0.462  0.1463  1.8413  0.0914
 5516TIP3    H238108   5.618   3.005   0.371  0.8033  0.4303 -0.7762
 5517TIP3   OH238109   0.804   3.495   1.223 -0.9264  1.0322  0.7183
 5517TIP3    H138110   0.737   3.527   1.163 -1.4455 -1.2882 -0.0181
 5517TIP3    H238111   0.867   3.449   1.168 -0.3614  0.5193  1.7493
 5518TIP3   OH238112   5.798   3.381   0.711 -0.5518  0.3797  0.2952
 5518TIP3    H138113   5.768   3.290   0.708 -0.1731  0.2695 -0.3318
 5518TIP3    H238114   5.850   3.387   0.791  0.1798 -0.1964 -0.1330
 5519TIP3   OH238115   4.954   6.409   1.713  0.4237  0.0650  0.5214
 5519TIP3    H138116   4.980   6.339   1.773 -0.5287 -0.0913  0.7697
 5519TIP3    H238117   4.997   6.387   1.630  2.5535  0.8150  1.3749
 5520TIP3   OH238118   0.199   5.868   7.744  0.3302 -0.3995 -0.9914
 5520TIP3    H138119   0.170   5.804   7.809  1.4753 -0.6128 -0.6775
 5520TIP3    H238120   0.138   5.858   7.672  0.3813 -1.7268 -0.8701
 5521TIP3   OH238121   4.628   1.518   7.915 -0.5554 -0.4434 -0.1618
 5521TIP3    H138122   4.593   1.602   7.883 -0.7005 -0.3943  0.1289
 5521TIP3    H238123   4.709   1.542   7.959 -0.7920 -0.4082  0.2595
 5522TIP3   OH238124   6.410   0.075   2.397  0.3109 -0.0394 -0.0086
 5522TIP3    H138125   6.423   0.103   2.306 -0.5926  0.6629  0.0611
 5522TIP3    H238126   6.322   0.107   2.419  0.5145 -0.2219  1.1087
 5523TIP3   OH238127   3.373   2.432   1.646  0.4771 -0.0502  0.5105
 5523TIP3    H138128   3.393   2.376   1.572  1.0421  0.7962 -0.0023
 5523TIP3    H238129   3.352   2.372   1.718 -0.5981 -0.8718 -0.4657
 5524TIP3   OH238130   5.788   2.333   7.242  0.1575 -0.1337  0.2772
 5524TIP3    H138131   5.703   2.376   7.246  0.3950  0.4215 -0.4458
 5524TIP3    H238132   5.813   2.321   7.334  0.3348  1.8225  0.5342
 5525TIP3   OH238133   0.916   0.286   6.603  0.5190  0.9196  0.0061
 5525TIP3    H138134   0.901   0.372   6.641  0.8611  0.3808  1.4498
 5525TIP3    H238135   0.838   0.268   6.551  0.5499  2.1813 -0.4929
 5526TIP3   OH238136   2.168   1.369   8.224  0.0045 -0.2812  0.4955
 5526TIP3    H138137   2.175   1.313   8.301  0.8510  0.2702  0.8289
 5526TIP3    H238138   2.112   1.319   8.164 -1.5503 -0.2709  1.8459
 5527TIP3   OH238139   5.065   2.374   7.473  0.1039  0.2580  0.7970
 5527TIP3    H138140   5.141   2.426   7.448  0.1038  0.0599  0.3849
 5527TIP3    H238141   5.024   2.424   7.544  0.5504  0.4202  0.9409
 5528TIP3   OH238142   4.274   0.469   1.290 -0.3527 -0.4271  0.2959
 5528TIP3    H138143   4.234   0.520   1.220  0.7925 -2.8199 -2.2902
 5528TIP3    H238144   4.213   0.396   1.304  0.8429 -1.6170 -0.4468
 5529TIP3   OH238145   2.729   5.828   7.635  0.3543 -0.2485  0.1950
 5529TIP3    H138146   2.660   5.764   7.617  0.6246 -0.5869  0.3331
 5529TIP3    H238147   2.746   5.869   7.551  1.0462 -1.2483 -0.1795
 5530TIP3   OH238148   3.255   4.085   0.897 -0.3313 -0.7511 -0.1531
 5530TIP3    H138149   3.323   4.102   0.963  0.2776 -0.8561 -0.7409
 5530TIP3    H238150   3.222   3.998   0.919  1.9145 -2.1029 -1.6755
 5531TIP3   OH238151   2.392   1.632   0.482  0.4984 -0.0244 -0.5648
 5531TIP3    H138152   2.395   1.713   0.533 -0.0969  0.3688 -1.1342
 5531TIP3    H238153   2.326   1.648   0.415  0.0927 -1.1256 -0.4549
 5532TIP3   OH238154   4.611   1.844   6.093  0.5889 -0.2364 -0.1522
 5532TIP3    H138155   4.556   1.859   6.017 -0.6280 -0.0193  0.7496
 5532TIP3    H238156   4.670   1.773   6.066 -1.0569 -1.4676 -0.6945
 5533TIP3   OH238157   1.676   2.242   7.180 -0.8144  0.6168  0.0409
 5533TIP3    H138158   1.747   2.246   7.116  0.7624 -0.5265  1.6046
 5533TIP3    H238159   1.624   2.166   7.153  0.1640 -0.1972  0.3802
 5534TIP3   OH238160   5.909   4.166   7.265  0.1475  0.5035 -0.2074
 5534TIP3    H138161   5.982   4.104   7.269  0.2267  0.5831 -0.4238
 5534TIP3    H238162   5.944   4.242   7.219 -0.0617  0.5527 -0.2870
 5535TIP3   OH238163   4.136   3.474   0.477  0.0938  0.3938 -0.0022
 5535TIP3    H138164   4.132   3.401   0.537 -0.2482  1.3645  1.2003
 5535TIP3    H238165   4.213   3.458   0.423 -0.3060 -1.1198 -0.1617
 5536TIP3   OH238166   5.581   4.859   8.603 -0.4494  0.1718  0.2242
 5536TIP3    H138167   5.510   4.830   8.546  0.2621  0.4265 -0.8177
 5536TIP3    H238168   5.625   4.928   8.554  0.4187  0.1337  0.9131
 5537TIP3   OH238169   1.298   5.095   7.163  0.2976 -0.2469 -0.0585
 5537TIP3    H138170   1.351   5.029   7.120 -0.0664 -0.5123 -0.1043
 5537TIP3    H238171   1.341   5.178   7.142  0.0823 -0.3631 -1.0012
 5538TIP3   OH238172   3.405   6.420   1.497 -0.1017 -0.0182 -0.4135
 5538TIP3    H138173   3.453   6.348   1.538  0.0691  1.0977  1.4553
 5538TIP3    H238174   3.468   6.460   1.437  0.7155  0.2580  0.6037
 5539TIP3   OH238175   4.180   0.780   6.620 -0.3159  0.2865  0.0155
 5539TIP3    H138176   4.188   0.708   6.557 -1.4341  1.8889 -2.1244
 5539TIP3    H238177   4.146   0.739   6.699  0.3005 -1.7152 -0.6791
 5540TIP3   OH238178   1.717   2.964   0.345  0.1717  0.3829 -0.3729
 5540TIP3    H138179   1.681   2.918   0.269 -2.1364 -2.2755  2.0771
 5540TIP3    H238180   1.652   3.032   0.366 -0.9513 -1.0172  0.9876
 5541TIP3   OH238181   2.614   5.536   2.059 -0.0809  0.0136 -0.8181
 5541TIP3    H138182   2.580   5.486   2.132  1.8355 -0.2864 -0.0730
 5541TIP3    H238183   2.633   5.623   2.096 -0.2898  0.2582 -1.2762
 5542TIP3   OH238184   1.477   6.136   1.167  0.3077 -0.1392  0.0675
 5542TIP3    H138185   1.470   6.045   1.194 -0.8219  0.0136  0.3254
 5542TIP3    H238186   1.560   6.166   1.204 -0.4662 -0.3693  2.1159
 5543TIP3   OH238187   4.144   2.651   6.651  0.2208  0.3700  0.4146
 5543TIP3    H138188   4.113   2.602   6.727  0.0481  1.5080  1.0982
 5543TIP3    H238189   4.066   2.661   6.597  0.4343 -0.8213 -0.1586
 5544TIP3   OH238190   3.444   2.860   7.276  0.1523  0.6869 -0.3792
 5544TIP3    H138191   3.455   2.815   7.360  0.5741  2.5908  0.6322
 5544TIP3    H238192   3.531   2.896   7.256  0.5180 -1.1174 -2.5303
 5545TIP3   OH238193   5.344   4.050   7.337  0.2346 -0.4697  0.0058
 5545TIP3    H138194   5.260   4.081   7.303  1.3919  0.1083 -2.6158
 5545TIP3    H238195   5.341   4.068   7.431 -0.6648  4.3392 -0.6600
 5546TIP3   OH238196   2.342   0.992   7.185  0.0260 -0.0071 -0.2428
 5546TIP3    H138197   2.337   0.899   7.161  1.1584  0.0644 -0.8307
 5546TIP3    H238198   2.301   0.996   7.271 -0.7284 -0.9168 -0.5335
 5547TIP3   OH238199   0.441   2.256   6.368 -0.2822 -0.0561  0.4856
 5547TIP3    H138200   0.401   2.204   6.437 -1.1832  0.8804  0.6890
 5547TIP3    H238201   0.417   2.346   6.388  1.4542  0.4905  0.2885
 5548TIP3   OH238202   0.837   2.563   1.509  0.1586  0.3902  0.2323
 5548TIP3    H138203   0.758   2.567   1.563  0.1440  2.1706  0.1222
 5548TIP3    H238204   0.900   2.619   1.553  1.0885 -0.3183 -0.1579
 5549TIP3   OH238205   0.983   4.891   0.076  0.2016  0.2410  0.5753
 5549TIP3    H138206   0.995   4.976   0.034 -1.2081 -0.2271 -0.9059
 5549TIP3    H238207   1.063   4.877   0.126  0.7061  2.1651  0.3713
 5550TIP3   OH238208   3.590   3.307   2.278  0.1210 -0.5655  0.4055
 5550TIP3    H138209   3.636   3.364   2.340 -2.4015  0.7242  1.2313
 5550TIP3    H238210   3.617   3.219   2.302  2.4487  0.1161  0.5292
 5551TIP3   OH238211   4.119   4.039   1.057 -0.6141 -0.1431 -0.2882
 5551TIP3    H138212   4.085   4.118   1.015 -1.0525 -0.0058  0.3242
 5551TIP3    H238213   4.187   4.071   1.116 -0.6763 -0.2429 -0.1627
 5552TIP3   OH238214   6.375   1.201   0.026  0.5153 -0.0108 -0.2976
 5552TIP3    H138215   6.447   1.185  -0.035  0.7997  0.3557 -0.0637
 5552TIP3    H238216   6.376   1.296   0.040  0.4169 -0.0810  0.2245
 5553TIP3   OH238217   5.292   0.446   1.603 -0.0249 -0.0666  0.1389
 5553TIP3    H138218   5.269   0.372   1.548 -0.5457  0.7696 -0.8013
 5553TIP3    H238219   5.241   0.434   1.683 -1.9202  0.4664 -0.9308
 5554TIP3   OH238220   4.341   2.038   7.710 -0.1813 -0.4293 -0.4701
 5554TIP3    H138221   4.395   2.113   7.686 -1.1583  0.0719 -1.1668
 5554TIP3    H238222   4.338   1.984   7.631 -0.8451 -0.3591 -0.4944
 5555TIP3   OH238223   4.782   2.296   7.758 -0.1068  0.0941  0.4195
 5555TIP3    H138224   4.874   2.275   7.741 -0.0322  1.0602 -0.4544
 5555TIP3    H238225   4.782   2.388   7.782 -0.7893 -0.0396  0.9583
 5556TIP3   OH238226   4.709   1.014   6.245  0.1656  0.4391 -0.1121
 5556TIP3    H138227   4.748   1.101   6.240  0.0779  0.6635  2.2584
 5556TIP3    H238228   4.784   0.954   6.252  0.2217  0.6971  2.2438
 5557TIP3   OH238229   4.402   0.419   8.089 -0.2685  0.3075 -0.6738
 5557TIP3    H138230   4.422   0.408   8.182 -3.9744  3.9592  0.8883
 5557TIP3    H238231   4.484   0.449   8.051  1.0062  0.2746  1.8215
 5558TIP3   OH238232   4.054   6.208   0.081 -0.1989  0.1701 -0.3744
 5558TIP3    H138233   4.109   6.170   0.013 -1.2038 -0.8260 -0.6651
 5558TIP3    H238234   4.008   6.280   0.037  1.6245  1.7437  0.1495
 5559TIP3   OH238235   3.874   0.776   2.138  0.1657  0.1018 -0.0093
 5559TIP3    H138236   3.823   0.732   2.206 -0.7145 -0.0503 -0.7416
 5559TIP3    H238237   3.808   0.821   2.085  0.8932  0.7446 -0.3806
 5560TIP3   OH238238   3.153   4.263   0.426  0.3668  0.3654 -0.0531
 5560TIP3    H138239   3.123   4.185   0.379 -0.5839  0.2631  0.6958
 5560TIP3    H238240   3.221   4.300   0.370  3.1740 -2.7230  1.0212
 5561TIP3   OH238241   1.365   1.851   2.101  0.5212  0.4257  0.2322
 5561TIP3    H138242   1.376   1.756   2.096 -0.2134  0.4191 -2.0036
 5561TIP3    H238243   1.304   1.865   2.173 -0.5883 -0.9275 -0.4177
 5562TIP3   OH238244   2.269   6.640   7.549  0.2491  0.0126 -0.0079
 5562TIP3    H138245   2.191   6.644   7.605 -0.5703 -0.8582 -1.0610
 5562TIP3    H238246   2.273   6.549   7.519  0.6955  0.4443 -1.3314
 5563TIP3   OH238247   5.520   0.791   7.610  0.0408 -0.0014  0.4719
 5563TIP3    H138248   5.508   0.854   7.539  1.2092 -0.1796  0.0972
 5563TIP3    H238249   5.552   0.844   7.684  1.7870 -0.2299 -0.0788
 5564TIP3   OH238250   2.897   6.027   1.467 -0.1707 -0.1835  0.0666
 5564TIP3    H138251   2.842   6.041   1.390 -0.0544  2.0172  0.3203
 5564TIP3    H238252   2.981   5.997   1.431 -0.2063  0.5420 -0.6472
 5565TIP3   OH238253   2.764   3.298   2.193 -0.3887 -0.0400 -0.3915
 5565TIP3    H138254   2.856   3.302   2.220 -0.0731 -0.1726 -1.3931
 5565TIP3    H238255   2.730   3.220   2.236  0.4348 -0.9473 -1.3364
 5566TIP3   OH238256   5.475   6.251   8.460 -0.1178 -0.3736 -0.0745
 5566TIP3    H138257   5.546   6.287   8.407 -2.2276  1.1935 -2.0118
 5566TIP3    H238258   5.417   6.208   8.397 -2.2763  0.7978  0.9962
 5567TIP3   OH238259   4.756   3.172   1.299  0.3041  0.9259 -0.1836
 5567TIP3    H138260   4.778   3.257   1.335  0.4842  0.5682  0.5765
 5567TIP3    H238261   4.736   3.189   1.207  2.3586  1.4910 -0.5815
 5568TIP3   OH238262   5.618   5.945   6.896 -0.6503 -0.0751 -0.5322
 5568TIP3    H138263   5.540   5.890   6.906  0.4899 -1.7430 -0.5022
 5568TIP3    H238264   5.687   5.899   6.943  0.5990  0.8652 -1.3696
 5569TIP3   OH238265   3.571   1.130   7.234  0.3453 -0.7297  0.2546
 5569TIP3    H138266   3.628   1.203   7.257  1.6804 -1.5411 -0.3197
 5569TIP3    H238267   3.492   1.143   7.286  0.4754  1.2079  0.0173
 5570TIP3   OH238268   0.063   4.618   0.357  0.1092 -0.7127  0.0457
 5570TIP3    H138269  -0.008   4.659   0.308 -0.9251  0.5081  2.3700
 5570TIP3    H238270   0.143   4.645   0.313 -0.7973 -0.8818 -1.7668
 5571TIP3   OH238271   0.949   5.563   7.601  0.6501 -0.0415 -0.2700
 5571TIP3    H138272   0.867   5.517   7.580  0.3312  0.2822  0.2257
 5571TIP3    H238273   1.015   5.520   7.548  0.0759 -0.0153 -1.0247
 5572TIP3   OH238274   5.095   0.449   1.846 -0.0332  0.8042 -0.0243
 5572TIP3    H138275   5.152   0.473   1.919 -0.5346 -0.6605  0.8777
 5572TIP3    H238276   5.037   0.525   1.835  0.6858  1.4360  0.4423
 5573TIP3   OH238277   6.171   0.939   6.298 -0.3866  0.1456  0.1720
 5573TIP3    H138278   6.227   0.939   6.221 -1.0011  0.1869 -0.2788
 5573TIP3    H238279   6.097   0.883   6.275 -0.1054 -0.6462  1.0883
 5574TIP3   OH238280   5.797   6.765   0.151 -0.2979 -0.5770 -0.0796
 5574TIP3    H138281   5.808   6.671   0.137 -0.0064 -0.3820 -1.2853
 5574TIP3    H238282   5.868   6.790   0.210 -1.5172 -1.4307  1.8528
 5575TIP3   OH238283   4.998   5.279   0.856  0.2782  0.3281  0.9012
 5575TIP3    H138284   5.074   5.224   0.834  1.6815  1.4848  2.5647
 5575TIP3    H238285   4.933   5.218   0.889 -0.3294 -0.9337 -2.2642
 5576TIP3   OH238286   1.284   1.047   7.739  0.2231  0.1278 -0.9407
 5576TIP3    H138287   1.240   0.963   7.751 -0.7868  0.8271  0.4928
 5576TIP3    H238288   1.375   1.030   7.763 -0.2088 -0.3008  0.4828
 5577TIP3   OH238289   3.375   2.799   0.925  0.1929  0.2783  0.5236
 5577TIP3    H138290   3.343   2.798   1.015 -1.4312  3.4479  0.1506
 5577TIP3    H238291   3.460   2.844   0.930 -0.5287  1.7271  0.4092
 5578TIP3   OH238292   2.167   6.609   6.804  0.1307  0.1423 -0.2093
 5578TIP3    H138293   2.178   6.559   6.723 -0.3395 -1.4386  0.6610
 5578TIP3    H238294   2.072   6.621   6.811  0.0818 -0.5886  0.5743
 5579TIP3   OH238295   5.523   3.643   7.798  0.0410 -0.2202  0.2295
 5579TIP3    H138296   5.479   3.638   7.883  1.9110 -0.1839  1.2548
 5579TIP3    H238297   5.568   3.728   7.799 -0.9935  0.3836 -1.3837
 5580TIP3   OH238298   5.889   4.870   7.734  0.0370 -0.0514 -0.2563
 5580TIP3    H138299   5.843   4.917   7.804  1.1832  1.3486 -0.4050
 5580TIP3    H238300   5.819   4.840   7.676 -0.7738  0.9377  0.1762
 5581TIP3   OH238301   5.349   5.015   1.835  0.2387  0.4371  0.0129
 5581TIP3    H138302   5.373   4.963   1.912  1.0374  0.5873 -0.1329
 5581TIP3    H238303   5.387   4.967   1.761 -2.6970 -1.1646 -0.6220
 5582TIP3   OH238304   4.999   0.508   8.202  0.2226 -0.7440 -0.3154
 5582TIP3    H138305   4.956   0.501   8.117  1.7189 -1.4976 -1.0400
 5582TIP3    H238306   5.092   0.502   8.183  0.5526 -2.3365  1.5028
 5583TIP3   OH238307   3.586   0.065   1.547  0.7697 -0.4500 -0.2326
 5583TIP3    H138308   3.643   0.115   1.490 -0.2828  1.6284  0.4498
 5583TIP3    H238309   3.506   0.051   1.496  0.6077 -0.3679 -0.0074
 5584TIP3   OH238310   3.398   6.138   0.036  0.2517  0.4851 -0.0930
 5584TIP3    H138311   3.382   6.177  -0.050 -0.6105  0.8267  0.2070
 5584TIP3    H238312   3.480   6.090   0.026 -0.5058 -0.6099 -1.5006
 5585TIP3   OH238313   4.844   1.921   0.279  0.1055 -0.2563 -0.3685
 5585TIP3    H138314   4.798   1.943   0.360  0.9432 -0.5692  0.2092
 5585TIP3    H238315   4.925   1.973   0.282  0.6641 -1.0888 -0.4554
 5586TIP3   OH238316   2.750   6.267   7.704  0.1830 -0.2003  0.3286
 5586TIP3    H138317   2.822   6.230   7.653  0.5091  0.3714  0.3536
 5586TIP3    H238318   2.706   6.192   7.743  1.5985 -0.5094  1.4224
 5587TIP3   OH238319   1.491   0.861   1.427  0.1001  0.0818  0.0363
 5587TIP3    H138320   1.450   0.794   1.481  0.6844 -1.0010 -0.8270
 5587TIP3    H238321   1.512   0.816   1.345  0.3253  1.3746 -0.6419
 5588TIP3   OH238322   4.172   2.792   7.647 -0.2532 -0.1938 -0.4015
 5588TIP3    H138323   4.157   2.698   7.636 -0.3161 -0.2915  0.4357
 5588TIP3    H238324   4.099   2.833   7.602 -0.1036 -0.5409 -0.9680
 5589TIP3   OH238325   0.156   6.502   7.400 -0.1127  0.1201  0.6079
 5589TIP3    H138326   0.103   6.561   7.347 -1.1937 -1.3777 -0.0458
 5589TIP3    H238327   0.181   6.432   7.341  1.6160  0.1841  1.2262
 5590TIP3   OH238328   4.220   4.886   0.621  0.2548 -0.0820  0.1204
 5590TIP3    H138329   4.204   4.792   0.616  0.9070 -0.1456 -1.2822
 5590TIP3    H238330   4.275   4.897   0.699  0.0305 -0.8359  0.3879
 5591TIP3   OH238331   2.752   6.526   8.072 -0.5948 -0.5383  0.2606
 5591TIP3    H138332   2.827   6.567   8.116 -1.4199  1.1702  0.1675
 5591TIP3    H238333   2.708   6.477   8.141 -0.2333 -0.2987  0.6722
 5592TIP3   OH238334   6.102   4.911   6.450  0.1151  0.2707 -0.1162
 5592TIP3    H138335   6.078   4.835   6.398 -0.9682  0.6857 -0.2586
 5592TIP3    H238336   6.136   4.974   6.387  0.2368  0.2022 -0.1171
 5593TIP3   OH238337   4.069   3.997   7.845 -0.3712 -0.2602  0.0575
 5593TIP3    H138338   4.070   3.981   7.939 -0.7979  1.2525  0.3375
 5593TIP3    H238339   4.153   4.040   7.827 -0.9332  0.8767  0.0388
 5594TIP3   OH238340   2.728   2.538   7.629  0.0128  0.4062  0.7359
 5594TIP3    H138341   2.679   2.530   7.711  0.3459  0.0581  0.9037
 5594TIP3    H238342   2.702   2.623   7.594 -1.9125 -0.4229  0.0309
 5595TIP3   OH238343   4.712   0.850   1.544  0.0959  0.1611 -0.4600
 5595TIP3    H138344   4.650   0.917   1.517  0.2185  0.1419 -0.7937
 5595TIP3    H238345   4.759   0.888   1.618 -0.6317  0.0003  0.1021
 5596TIP3   OH238346   2.903   4.278   7.714  0.2405 -0.4173 -0.6394
 5596TIP3    H138347   2.835   4.333   7.677 -0.4153 -0.5936  0.2691
 5596TIP3    H238348   2.983   4.331   7.710 -0.5155  0.9244  0.8962
 5597TIP3   OH238349   6.666   2.420   0.904 -0.0501 -0.3383 -0.1144
 5597TIP3    H138350   6.735   2.438   0.840  1.2780 -1.4473  0.9559
 5597TIP3    H238351   6.627   2.506   0.922  0.6238  0.2157 -1.1928
 5598TIP3   OH238352   3.766   6.305   1.112 -0.6196 -0.5258  0.5555
 5598TIP3    H138353   3.854   6.281   1.143  1.0503  0.8328 -2.6189
 5598TIP3    H238354   3.735   6.228   1.066 -0.4975 -0.5679  0.5432
 5599TIP3   OH238355   0.607   1.657   8.601  0.0433 -0.1611 -0.2046
 5599TIP3    H138356   0.600   1.561   8.603  1.1333 -0.2615 -0.5934
 5599TIP3    H238357   0.681   1.677   8.658 -0.7568  0.5349  0.6229
 5600TIP3   OH238358   5.236   3.917   0.194  0.0564  0.1476  0.8792
 5600TIP3    H138359   5.194   3.971   0.128  1.3178  0.0330 -0.0641
 5600TIP3    H238360   5.164   3.872   0.238 -0.8785  1.1047  0.3717
 5601TIP3   OH238361   4.111   1.280   8.708  0.0486 -0.2273  0.0990
 5601TIP3    H138362   4.046   1.273   8.778  0.3662 -1.9416  0.2767
 5601TIP3    H238363   4.072   1.231   8.635  1.0610 -1.1684  0.1661
 5602TIP3   OH238364   0.108   1.517   1.264 -0.0933  0.5937  0.1818
 5602TIP3    H138365   0.195   1.523   1.224 -0.2322  2.4166  0.0381
 5602TIP3    H238366   0.078   1.608   1.269 -1.6273  0.0821  1.0530
 5603TIP3   OH238367   1.105   1.136   1.703  0.2268  0.5059  0.3208
 5603TIP3    H138368   1.038   1.105   1.763 -0.6594  1.7443  0.0117
 5603TIP3    H238369   1.060   1.197   1.645  1.0416 -0.7059 -1.6805
 5604TIP3   OH238370   6.702   1.156   1.627  0.3564 -0.5079  0.1134
 5604TIP3    H138371   6.703   1.213   1.549  1.1001 -0.3204  0.2594
 5604TIP3    H238372   6.751   1.205   1.693 -1.2802 -0.1182  1.1007
 5605TIP3   OH238373   5.725   1.368   1.374  0.1299 -0.1759  0.2520
 5605TIP3    H138374   5.760   1.457   1.367  1.7248 -0.5315  2.6188
 5605TIP3    H238375   5.747   1.327   1.291  0.4387  1.2729 -0.4138
 5606TIP3   OH238376   1.388   4.584   0.779 -0.1916 -0.4265 -0.6597
 5606TIP3    H138377   1.458   4.650   0.776 -1.0545  0.4904 -2.7065
 5606TIP3    H238378   1.422   4.511   0.728  0.4169 -1.2545  0.8761
 5607TIP3   OH238379   2.995   1.998   6.616 -0.2738 -0.2174 -0.7133
 5607TIP3    H138380   2.967   2.038   6.698  0.9832 -0.6443 -0.0627
 5607TIP3    H238381   3.036   1.916   6.641  0.3008 -0.2670 -1.7431
 5608TIP3   OH238382   3.350   1.905   7.523 -0.1234 -0.2452 -0.1266
 5608TIP3    H138383   3.393   1.915   7.438 -0.3475 -1.1752 -0.3611
 5608TIP3    H238384   3.364   1.813   7.546  0.2082  0.0719  0.9956
 5609TIP3   OH238385   4.914   0.881   7.773 -0.1325 -0.0813  0.3258
 5609TIP3    H138386   4.972   0.954   7.794 -1.0230  0.7773 -0.1313
 5609TIP3    H238387   4.949   0.807   7.822  1.0509  0.5405  0.4387
 5610TIP3   OH238388   3.570   1.812   1.865 -0.7886 -0.7639 -0.3348
 5610TIP3    H138389   3.523   1.896   1.870  0.3940 -0.1490  1.0352
 5610TIP3    H238390   3.503   1.746   1.883 -1.5284 -0.0464 -0.3778
 5611TIP3   OH238391   4.389   5.866   7.074 -0.4344 -0.0910  0.1761
 5611TIP3    H138392   4.354   5.946   7.034  0.6226  1.1684  1.6429
 5611TIP3    H238393   4.327   5.846   7.145  0.0097  0.2416  0.6711
 5612TIP3   OH238394   2.183   5.539   0.833  0.2662 -0.0002  0.6534
 5612TIP3    H138395   2.161   5.485   0.758 -0.6420  1.4638 -0.1928
 5612TIP3    H238396   2.218   5.478   0.898 -1.7200 -1.7577  0.1795
 5613TIP3   OH238397   0.916   6.580   8.276 -0.5854  0.2158  0.1939
 5613TIP3    H138398   0.913   6.662   8.225 -1.0236 -0.2737 -0.5815
 5613TIP3    H238399   0.828   6.545   8.270 -1.2984  1.2577  3.2154
 5614TIP3   OH238400   5.601   1.326   6.161 -0.2622  0.1542  0.2192
 5614TIP3    H138401   5.565   1.237   6.159  0.8582 -0.3099 -1.4514
 5614TIP3    H238402   5.668   1.323   6.230 -0.2976 -0.2708  0.2368
 5615TIP3   OH238403   5.560   4.040   6.519  0.0873 -0.3754  1.0143
 5615TIP3    H138404   5.620   4.027   6.592  1.2919  0.7056  0.2614
 5615TIP3    H238405   5.594   4.117   6.473 -1.7516  0.1392  0.4205
 5616TIP3   OH238406   1.542   2.257   7.420  0.3012 -0.3533 -0.5985
 5616TIP3    H138407   1.630   2.236   7.388  0.2694  0.2007 -1.0503
 5616TIP3    H238408   1.486   2.251   7.343 -0.1312 -1.0586 -0.2440
 5617TIP3   OH238409   3.994   2.992   0.585  0.2746 -0.1526  0.4202
 5617TIP3    H138410   3.936   3.009   0.511 -0.2087  1.5878  1.1416
 5617TIP3    H238411   4.008   2.898   0.584  0.8020 -0.1304 -2.2531
 5618TIP3   OH238412   5.149   1.941   1.152 -0.3591 -0.0653 -0.2597
 5618TIP3    H138413   5.058   1.936   1.123  0.3929 -0.0542 -2.9079
 5618TIP3    H238414   5.167   2.034   1.159 -0.6865 -0.0715  0.8717
 5619TIP3   OH238415   0.348   4.060   8.452  0.2076  0.5688 -0.1836
 5619TIP3    H138416   0.373   4.075   8.543 -0.9965 -1.0735  0.4630
 5619TIP3    H238417   0.324   4.147   8.419 -0.2750  1.0497  1.3626
 5620TIP3   OH238418   4.887   2.752   7.852 -0.1325  0.1592 -0.2387
 5620TIP3    H138419   4.806   2.799   7.831 -0.0124  0.4294 -0.0910
 5620TIP3    H238420   4.857   2.665   7.880 -0.3324 -0.0228 -0.9692
 5621TIP3   OH238421   2.957   3.627   7.921 -0.3044 -0.4064  0.0301
 5621TIP3    H138422   2.980   3.566   7.852 -1.2225  0.2856 -0.9041
 5621TIP3    H238423   2.865   3.611   7.939 -0.4292  0.3689  0.1182
 5622TIP3   OH238424   6.478   0.080   6.796  0.3016 -0.3827 -0.0641
 5622TIP3    H138425   6.432   0.156   6.762  1.4447  0.4460  0.1840
 5622TIP3    H238426   6.413   0.009   6.794 -0.0436 -0.1006 -2.8185
 5623TIP3   OH238427   3.732   2.818   0.466  0.3788 -0.0144 -0.2659
 5623TIP3    H138428   3.699   2.796   0.553 -1.6156 -0.4356 -1.0616
 5623TIP3    H238429   3.675   2.890   0.437  1.3600  0.4843 -1.0134
 5624TIP3   OH238430   4.408   4.771   0.312  0.3274 -0.2348  0.1843
 5624TIP3    H138431   4.334   4.718   0.284  0.0648  0.7806 -1.1470
 5624TIP3    H238432   4.439   4.729   0.392 -0.1567 -2.1058 -0.5694
 5625TIP3   OH238433   3.527   4.175   7.783 -0.0595 -0.3613 -0.0845
 5625TIP3    H138434   3.614   4.200   7.815 -0.0759 -0.9522  0.4282
 5625TIP3    H238435   3.542   4.150   7.692 -0.0452  1.5072 -0.6469
 5626TIP3   OH238436   3.361   4.424   0.306  0.4660 -0.0703  0.0574
 5626TIP3    H138437   3.343   4.382   0.222 -1.3839 -1.6528  1.1384
 5626TIP3    H238438   3.408   4.504   0.284  2.4975 -1.7399 -2.2790
 5627TIP3   OH238439   2.550   5.645   1.814 -0.2170 -0.3940  0.1494
 5627TIP3    H138440   2.611   5.709   1.778  1.4867 -2.6157 -1.1756
 5627TIP3    H238441   2.596   5.607   1.889 -0.3520 -1.3838 -0.2487
 5628TIP3   OH238442   6.743   3.413   2.310  0.8674 -0.6791 -0.3571
 5628TIP3    H138443   6.711   3.501   2.291  0.8658 -0.3724  0.9693
 5628TIP3    H238444   6.671   3.371   2.357  0.3373 -1.8793 -2.1466
 5629TIP3   OH238445   3.456   2.649   7.105  0.5332 -0.2266  0.4251
 5629TIP3    H138446   3.546   2.670   7.080 -0.2636 -0.6840 -3.4937
 5629TIP3    H238447   3.421   2.732   7.138  2.0728  0.1869  1.1323
 5630TIP3   OH238448   2.225   4.002   8.524  0.2378  0.1867  0.0239
 5630TIP3    H138449   2.281   4.046   8.589 -1.5846 -0.0547  1.8762
 5630TIP3    H238450   2.185   4.072   8.474 -0.3068  0.5344  0.9207
 5631TIP3   OH238451   3.817   1.948   0.024 -0.1956 -0.6426 -0.5741
 5631TIP3    H138452   3.899   1.936  -0.025 -1.2151 -3.1466 -1.8245
 5631TIP3    H238453   3.781   2.030  -0.011  0.6975 -0.6830 -1.6613
 5632TIP3   OH238454   1.210   1.953   8.404 -0.0968 -0.0822  0.0101
 5632TIP3    H138455   1.195   2.015   8.475  1.0628  0.4398 -0.1762
 5632TIP3    H238456   1.208   1.867   8.446 -0.3130  0.1676  0.5148
 5633TIP3   OH238457   4.900   3.230   0.617 -0.3466  0.7640  0.3502
 5633TIP3    H138458   4.970   3.289   0.648 -1.4043  1.4322  1.5765
 5633TIP3    H238459   4.838   3.288   0.573  0.2813  0.0490 -1.5730
 5634TIP3   OH238460   1.724   6.775   0.229 -0.0381 -0.3175 -0.2726
 5634TIP3    H138461   1.669   6.722   0.286 -1.3653 -0.7475 -1.8658
 5634TIP3    H238462   1.811   6.735   0.234 -0.0196 -0.1026  1.6772
 5635TIP3   OH238463   6.671   5.090   1.955  0.4315  0.1096  0.3796
 5635TIP3    H138464   6.741   5.110   2.016  1.8961 -0.3434 -1.0682
 5635TIP3    H238465   6.692   5.142   1.877 -0.6328 -0.3424 -0.2351
 5636TIP3   OH238466   1.212   2.372   2.310 -0.5644  0.3627 -0.5961
 5636TIP3    H138467   1.197   2.459   2.347 -1.0241 -0.1001  0.3545
 5636TIP3    H238468   1.133   2.322   2.334 -0.7696 -0.0366 -2.0048
 5637TIP3   OH238469   2.456   1.046   6.104  0.4904  0.8898  0.5217
 5637TIP3    H138470   2.538   1.096   6.107  2.2876 -1.8688  2.3922
 5637TIP3    H238471   2.484   0.955   6.094 -2.4558 -0.0651 -0.0250
 5638TIP3   OH238472   2.055   1.731   7.796 -0.0818  0.4634 -0.2604
 5638TIP3    H138473   2.063   1.787   7.873  1.0281 -0.3348  0.2327
 5638TIP3    H238474   2.051   1.642   7.832 -0.4904  0.1423 -1.0872
 5639TIP3   OH238475   6.723   4.657   8.387 -0.1274 -0.5980  0.7519
 5639TIP3    H138476   6.796   4.700   8.433  0.8074  0.8200 -1.8630
 5639TIP3    H238477   6.651   4.719   8.392  0.3087  0.0428 -0.5237
 5640TIP3   OH238478   4.137   4.992   0.392  0.0762  0.1365  0.3324
 5640TIP3    H138479   4.160   4.918   0.335 -1.1654 -1.0089  1.2694
 5640TIP3    H238480   4.174   4.969   0.477 -1.3138  0.0015  0.9265
 5641TIP3   OH238481   6.567   0.966   1.478 -0.7885 -0.0872  0.3164
 5641TIP3    H138482   6.645   1.021   1.471 -0.1515 -1.1807 -3.0004
 5641TIP3    H238483   6.585   0.907   1.551 -0.1020  1.8873  1.8342
 5642TIP3   OH238484   0.517   5.373   8.589  0.9613 -0.2916 -0.3610
 5642TIP3    H138485   0.544   5.327   8.668  0.9267 -1.6895 -1.1369
 5642TIP3    H238486   0.599   5.386   8.540  0.8212 -0.6153 -0.6901
 5643TIP3   OH238487   6.735   0.493   8.439 -0.3313 -0.0417 -0.2297
 5643TIP3    H138488   6.659   0.454   8.482  0.0575 -1.5237 -0.7972
 5643TIP3    H238489   6.799   0.504   8.508 -0.4015 -0.5738 -0.0729
 5644TIP3   OH238490   0.572   0.845   2.113  0.2847  0.7572 -0.8932
 5644TIP3    H138491   0.528   0.774   2.160  0.8457  1.2370  0.3967
 5644TIP3    H238492   0.643   0.802   2.067  0.5467  0.4538 -0.2196
 5645TIP3   OH238493   2.349   2.788   8.060 -0.2636 -0.2423  0.5685
 5645TIP3    H138494   2.253   2.784   8.061 -0.3040  0.2478 -0.3088
 5645TIP3    H238495   2.370   2.847   7.987  0.6494  1.3741  2.0712
 5646TIP3   OH238496   6.012   4.348   1.741 -0.4876  0.1327 -0.0963
 5646TIP3    H138497   5.941   4.412   1.732 -0.6419 -0.2704 -2.3843
 5646TIP3    H238498   5.973   4.275   1.788 -1.3163  0.3449 -0.4362
 5647TIP3   OH238499   2.601   5.456   8.435 -0.4022 -0.1111 -0.0952
 5647TIP3    H138500   2.678   5.509   8.457  0.8396 -1.3896 -1.1391
 5647TIP3    H238501   2.599   5.455   8.339 -0.7470 -1.4294 -0.0998
 5648TIP3   OH238502   1.549   1.218   8.569 -0.2768  0.4633 -0.4472
 5648TIP3    H138503   1.611   1.237   8.499 -0.2906  0.7293 -0.3885
 5648TIP3    H238504   1.598   1.234   8.650  0.2609 -1.4769 -0.3597
 5649TIP3   OH238505   5.863   4.172   1.904 -0.2398 -0.4139 -0.1293
 5649TIP3    H138506   5.872   4.102   1.969  0.0750 -0.9957 -0.7776
 5649TIP3    H238507   5.864   4.253   1.955  1.5754 -0.7651  0.4937
 5650TIP3   OH238508   1.739   6.401   1.998  0.0421  0.1289 -0.2899
 5650TIP3    H138509   1.698   6.488   1.999 -0.5309 -0.1375  0.9397
 5650TIP3    H238510   1.767   6.389   1.908  0.8639  1.9384 -0.3258
 5651TIP3   OH238511   2.309   3.129   7.614 -0.2180  0.4424 -0.1800
 5651TIP3    H138512   2.402   3.150   7.622  0.5279 -2.6894  0.9433
 5651TIP3    H238513   2.303   3.076   7.534 -0.0883 -2.9518  1.8498
 5652TIP3   OH238514   2.272   5.383   1.275  0.7004  0.1090 -0.0377
 5652TIP3    H138515   2.277   5.300   1.322  2.5349  0.0288 -0.2720
 5652TIP3    H238516   2.216   5.438   1.330  0.3514 -0.9285  0.6846
 5653TIP3   OH238517   5.118   6.810   7.363  0.6198  0.5713 -0.0193
 5653TIP3    H138518   5.203   6.840   7.330  0.4854  0.0014 -0.9247
 5653TIP3    H238519   5.054   6.864   7.317  0.4244 -0.2915 -0.7839
 5654TIP3   OH238520   4.936   4.171   7.524  0.4477  0.5796  0.2845
 5654TIP3    H138521   4.884   4.196   7.600  0.7165  0.5049  0.4939
 5654TIP3    H238522   4.907   4.082   7.504 -1.1566  1.3401 -1.0115
 5655TIP3   OH238523   0.868   6.733   6.818  0.0741  0.2746 -0.1050
 5655TIP3    H138524   0.893   6.642   6.834  0.7945  0.6234  0.8170
 5655TIP3    H238525   0.852   6.737   6.723  1.6056 -0.4358 -0.4205
 5656TIP3   OH238526   5.053   3.933   6.683  0.2128 -0.1525  0.4345
 5656TIP3    H138527   4.961   3.908   6.676  0.8640 -3.3846  1.6094
 5656TIP3    H238528   5.096   3.886   6.613  1.0165  1.5826 -0.3071
 5657TIP3   OH238529   4.636   4.802   6.023  0.5188  0.1762 -0.6560
 5657TIP3    H138530   4.650   4.858   6.098  0.8270 -1.8440  0.8783
 5657TIP3    H238531   4.545   4.819   5.997  0.0412  0.1175  0.8908
 5658TIP3   OH238532   2.070   0.112   0.001  0.7751  0.0744 -0.0063
 5658TIP3    H138533   2.057   0.032  -0.051 -1.0924 -1.2124  2.2439
 5658TIP3    H238534   1.988   0.160  -0.010  0.4046 -0.1545  1.5798
 5659TIP3   OH238535   4.234   1.564   6.613  0.0604 -0.5850 -0.0988
 5659TIP3    H138536   4.143   1.536   6.625 -0.4440  0.6523 -0.8274
 5659TIP3    H238537   4.228   1.637   6.551  1.3456  0.8964  1.4413
 5660TIP3   OH238538   3.554   1.499   6.066  0.5729 -0.3432 -0.6300
 5660TIP3    H138539   3.506   1.580   6.049  1.3915  0.0632 -1.0083
 5660TIP3    H238540   3.497   1.430   6.031 -1.2635 -0.2071  1.7948
 5661TIP3   OH238541   0.033   1.115   6.083  0.1934  0.0381 -0.0841
 5661TIP3    H138542   0.110   1.085   6.132  0.9586  1.4642 -0.3301
 5661TIP3    H238543  -0.010   1.178   6.141 -1.2026 -1.2404  0.3176
 5662TIP3   OH238544   2.105   5.213   7.174 -0.4038  0.1030  0.3205
 5662TIP3    H138545   2.131   5.291   7.125 -1.2564 -0.5072 -1.1567
 5662TIP3    H238546   2.135   5.140   7.120 -2.9802 -0.6041 -0.2799
 5663TIP3   OH238547   5.316   5.832   1.076 -0.5781 -0.1437  1.0458
 5663TIP3    H138548   5.251   5.762   1.088 -0.5320 -1.1714 -3.1059
 5663TIP3    H238549   5.265   5.913   1.079 -1.4967 -0.7108  1.1381
 5664TIP3   OH238550   2.385   2.921   0.402  0.0800 -0.5831  0.5155
 5664TIP3    H138551   2.343   2.863   0.465 -1.3117  0.7614  0.8949
 5664TIP3    H238552   2.327   2.997   0.397  0.9892  0.0644 -1.1785
 5665TIP3   OH238553   0.995   4.895   0.715  0.0476 -0.4296 -0.2972
 5665TIP3    H138554   1.043   4.813   0.705  0.1795 -0.5507  1.1128
 5665TIP3    H238555   0.999   4.914   0.809 -1.4714  0.2833 -0.3460
 5666TIP3   OH238556   2.565   6.772   1.386 -0.4515  0.0045 -0.3131
 5666TIP3    H138557   2.518   6.855   1.397  0.3415  0.6147 -1.3627
 5666TIP3    H238558   2.497   6.709   1.364 -1.0821  0.3340  0.6239
 5667TIP3   OH238559   3.594   1.462   0.191 -0.0172  0.1544 -0.4650
 5667TIP3    H138560   3.578   1.493   0.102 -3.1159  0.4899  0.1186
 5667TIP3    H238561   3.578   1.368   0.187 -1.9085  0.4212  0.0292
 5668TIP3   OH238562   1.838   5.063   0.633 -0.3307  0.6817  0.4317
 5668TIP3    H138563   1.926   5.039   0.603 -0.9274  1.4816 -2.1932
 5668TIP3    H238564   1.851   5.144   0.683  0.8919 -1.5069  4.0741
 5669TIP3   OH238565   2.997   2.055   8.512 -0.0121 -0.1883  0.2207
 5669TIP3    H138566   2.928   2.098   8.462  0.5679  2.4122  1.4690
 5669TIP3    H238567   2.950   1.996   8.571 -1.1232  0.6720  0.2491
 5670TIP3   OH238568   3.474   5.303   0.740 -0.2721  0.0214 -0.0047
 5670TIP3    H138569   3.543   5.328   0.801 -0.1005  0.1226 -0.2421
 5670TIP3    H238570   3.479   5.208   0.736 -0.8299 -0.0603  0.7847
 5671TIP3   OH238571   0.594   6.562   7.515 -0.4433  0.6273  0.2074
 5671TIP3    H138572   0.593   6.488   7.454  0.5017  0.7107  0.0808
 5671TIP3    H238573   0.646   6.629   7.471  0.1419  0.7340  1.0397
 5672TIP3   OH238574   0.192   4.972   7.900 -0.0402 -0.4999  0.1464
 5672TIP3    H138575   0.267   5.027   7.878 -0.4131  0.5537  1.4429
 5672TIP3    H238576   0.230   4.885   7.912  1.1184  0.1571  1.5070
 5673TIP3   OH238577   1.461   1.949   7.437  0.1145 -0.1447  0.1275
 5673TIP3    H138578   1.490   2.040   7.437  1.7397 -0.6277  0.1233
 5673TIP3    H238579   1.434   1.933   7.528 -0.2855  0.3529  0.1049
 5674TIP3   OH238580   1.251   3.070   0.649 -0.1682 -0.5360  0.2546
 5674TIP3    H138581   1.230   3.150   0.602 -1.1060 -0.6494  0.4487
 5674TIP3    H238582   1.189   3.068   0.722  1.2453 -0.3629  1.5114
 5675TIP3   OH238583   5.986   1.249   8.614  0.3060  0.4739  0.2562
 5675TIP3    H138584   5.949   1.322   8.563 -0.2309 -0.5469 -0.8483
 5675TIP3    H238585   6.080   1.263   8.611  0.1927  1.3636  0.4295
 5676TIP3   OH238586   0.713   6.823   0.200  0.6462 -0.7673 -0.4031
 5676TIP3    H138587   0.786   6.847   0.143  0.9254 -0.9757 -0.1413
 5676TIP3    H238588   0.653   6.774   0.144  0.6895 -0.5579 -0.6300
 5677TIP3   OH238589   5.820   3.725   0.766  0.2215  0.1196 -0.2592
 5677TIP3    H138590   5.788   3.666   0.834 -0.1232 -1.4835 -1.7176
 5677TIP3    H238591   5.744   3.741   0.710  1.1438 -1.0882 -1.9448
 5678TIP3   OH238592   0.515   3.021   1.289 -0.5620 -0.2101 -0.0308
 5678TIP3    H138593   0.577   3.094   1.291  1.3153 -1.6302 -1.8757
 5678TIP3    H238594   0.540   2.967   1.364  0.9506 -1.1015 -1.1237
 5679TIP3   OH238595   4.081   0.699   0.235 -0.2588 -0.2675 -0.3511
 5679TIP3    H138596   4.036   0.700   0.320 -1.8929  2.0565 -1.1558
 5679TIP3    H238597   4.164   0.742   0.252 -1.7064  2.7896 -0.3646
 5680TIP3   OH238598   0.819   6.486   2.099 -0.6229 -0.1194 -0.1092
 5680TIP3    H138599   0.897   6.482   2.044 -0.6241  0.2443 -0.1414
 5680TIP3    H238600   0.747   6.460   2.042 -0.4758 -0.8819  0.0340
 5681TIP3   OH238601   6.510   6.238   8.237  0.2240 -0.0982  0.2846
 5681TIP3    H138602   6.556   6.269   8.159 -2.2088 -0.7174 -1.5169
 5681TIP3    H238603   6.469   6.316   8.273  1.3994  0.1998  1.0098
 5682TIP3   OH238604   4.587   0.238   8.616 -0.5778  0.7333 -0.5502
 5682TIP3    H138605   4.553   0.321   8.652 -2.1081 -0.7031  1.5595
 5682TIP3    H238606   4.682   0.246   8.623 -0.7423  1.3991  2.0058
 5683TIP3   OH238607   2.568   0.649   1.160 -0.4579 -0.2053  0.0861
 5683TIP3    H138608   2.655   0.623   1.129 -0.3287 -0.7178  0.8549
 5683TIP3    H238609   2.512   0.644   1.083 -0.0799 -1.1282 -0.1371
 5684TIP3   OH238610   5.031   6.029   0.732  0.2140  0.2287  0.2378
 5684TIP3    H138611   4.944   6.067   0.741  0.0106 -0.0571 -0.4437
 5684TIP3    H238612   5.048   5.988   0.817 -0.7181 -0.5284  0.0795
 5685TIP3   OH238613   1.943   1.110   1.089 -0.1155 -0.2930  0.4712
 5685TIP3    H138614   2.038   1.119   1.097 -0.1237 -0.8740  1.3518
 5685TIP3    H238615   1.908   1.196   1.111  0.2586  0.3255 -1.2258
 5686TIP3   OH238616   0.257   0.447   8.063  0.1485 -0.1836  0.2058
 5686TIP3    H138617   0.240   0.530   8.018 -0.8993 -1.1598 -1.2904
 5686TIP3    H238618   0.197   0.448   8.138  2.1369  1.6015  1.9137
 5687TIP3   OH238619   5.343   5.342   0.711 -0.2339  0.0550  0.0166
 5687TIP3    H138620   5.290   5.263   0.703  0.2121 -0.1857 -0.6300
 5687TIP3    H238621   5.316   5.397   0.637 -1.0249  0.8092  0.8395
 5688TIP3   OH238622   0.980   0.728   7.951  0.0966 -0.4787 -0.7354
 5688TIP3    H138623   1.058   0.725   8.007 -0.2484 -0.4295 -0.2429
 5688TIP3    H238624   0.973   0.639   7.915  1.0648 -0.1621 -1.7501
 5689TIP3   OH238625   3.683   0.288   6.988 -0.0961  0.5013 -0.0399
 5689TIP3    H138626   3.655   0.255   6.903 -1.2866  1.4585 -0.0477
 5689TIP3    H238627   3.602   0.292   7.040  0.6082 -0.0946  1.1536
 5690TIP3   OH238628   6.621   2.940   7.227  0.7603 -0.4405  0.2012
 5690TIP3    H138629   6.694   3.000   7.213  1.4228 -1.0505  0.9234
 5690TIP3    H238630   6.658   2.870   7.282 -0.0511 -1.3792 -0.4204
 5691TIP3   OH238631   6.054   3.349   7.339 -0.2290  0.4939  0.4695
 5691TIP3    H138632   6.032   3.319   7.427  0.0583  0.2263  0.4515
 5691TIP3    H238633   6.048   3.444   7.343 -1.4240  0.4327  0.4610
 5692TIP3   OH238634   3.392   5.303   1.328 -1.0204  0.0500  0.0046
 5692TIP3    H138635   3.421   5.340   1.411 -0.4112 -1.4041  0.4659
 5692TIP3    H238636   3.321   5.244   1.352  0.0867 -1.4623 -0.3012
 5693TIP3   OH238637   3.741   5.606   8.124 -0.4796  0.5644  0.0193
 5693TIP3    H138638   3.690   5.542   8.074  1.2000  0.4203 -1.5970
 5693TIP3    H238639   3.824   5.562   8.140  1.2096  2.6960 -2.2104
 5694TIP3   OH238640   6.065   0.373   6.468  0.2403  0.9982 -0.1037
 5694TIP3    H138641   6.075   0.332   6.554 -1.4559  0.8591  0.0586
 5694TIP3    H238642   6.152   0.406   6.447  1.5532 -2.1036  0.0330
 5695TIP3   OH238643   3.152   5.968   5.882 -0.4237  0.1340 -0.1344
 5695TIP3    H138644   3.079   5.923   5.924 -1.1043  0.0385 -1.3627
 5695TIP3    H238645   3.176   6.037   5.943 -3.1292  1.7195 -0.6672
 5696TIP3   OH238646   2.455   0.728   0.935 -0.1881 -0.5257  0.1709
 5696TIP3    H138647   2.524   0.767   0.882 -0.8756 -0.0866 -0.4255
 5696TIP3    H238648   2.374   0.748   0.888 -0.9576  0.9751  1.9987
 5697TIP3   OH238649   4.849   6.724   0.760 -0.0004  0.1645 -0.4101
 5697TIP3    H138650   4.911   6.704   0.690 -0.1052 -1.1598 -0.1450
 5697TIP3    H238651   4.902   6.725   0.840  0.1208  1.6817 -0.4725
 5698TIP3   OH238652   0.594   1.115   8.607 -0.1220  0.2285  0.7946
 5698TIP3    H138653   0.651   1.072   8.543 -1.8360 -0.4932 -0.3523
 5698TIP3    H238654   0.652   1.143   8.677  1.7341  0.3480 -0.7247
 5699TIP3   OH238655   5.163   4.184   8.094 -0.4737  0.0429 -0.4546
 5699TIP3    H138656   5.206   4.174   8.009 -0.2007 -0.1828 -0.2922
 5699TIP3    H238657   5.234   4.208   8.154 -0.9551  2.2185 -0.6697
 5700TIP3   OH238658   1.019   2.578   0.722 -0.0957 -0.2122  0.1615
 5700TIP3    H138659   1.108   2.555   0.749  0.1939 -0.4536 -0.9462
 5700TIP3    H238660   0.963   2.523   0.776  0.4941 -1.1996 -0.1962
 5701TIP3   OH238661   5.531   1.661   8.183 -0.4613  0.2675  0.1144
 5701TIP3    H138662   5.502   1.746   8.148  1.0421  0.9014  0.3161
 5701TIP3    H238663   5.587   1.684   8.257  1.5253 -0.8047 -0.9927
 5702TIP3   OH238664   5.799   2.156   7.046 -0.0872 -0.0305  0.2740
 5702TIP3    H138665   5.792   2.220   7.117  1.1758 -0.2069  0.5834
 5702TIP3    H238666   5.879   2.180   7.000 -0.2220 -0.6897 -0.3167
 5703TIP3   OH238667   1.910   6.492   7.037  0.2657 -0.1856  0.0582
 5703TIP3    H138668   1.872   6.532   6.959  1.3231  1.3997  0.3161
 5703TIP3    H238669   1.837   6.444   7.077 -0.0127 -2.1474 -2.5217
 5704TIP3   OH238670   3.169   5.627   0.956 -0.6168  0.4102 -0.6715
 5704TIP3    H138671   3.200   5.603   1.043 -3.0809  2.9714  1.1049
 5704TIP3    H238672   3.228   5.582   0.896  2.0383 -0.4169  2.2926
 5705TIP3   OH238673   0.652   3.736   1.391 -0.4413 -0.3843 -0.7110
 5705TIP3    H138674   0.627   3.799   1.323 -1.5592 -0.7041 -0.6045
 5705TIP3    H238675   0.570   3.695   1.418 -0.2604  0.7979  1.9120
 5706TIP3   OH238676   3.750   4.743   1.063  0.1184  0.1536 -0.0372
 5706TIP3    H138677   3.725   4.812   1.124 -0.9260  0.1571 -0.4384
 5706TIP3    H238678   3.667   4.704   1.036  0.6044 -0.2841 -0.9470
 5707TIP3   OH238679   0.847   1.642   8.424  0.1786  0.3049  0.0000
 5707TIP3    H138680   0.888   1.718   8.383  0.6367  0.2266  0.3062
 5707TIP3    H238681   0.772   1.677   8.471 -1.6684  0.1544 -2.6167
 5708TIP3   OH238682   1.910   3.113   6.107 -0.5859  0.2222  0.0083
 5708TIP3    H138683   1.890   3.107   6.201  0.9809  1.0049  0.4360
 5708TIP3    H238684   2.003   3.136   6.104 -0.8751  1.3669 -1.7160
 5709TIP3   OH238685   2.853   3.971   0.085 -0.3289 -0.0931  0.0829
 5709TIP3    H138686   2.775   3.918   0.077  0.4592 -1.4219  0.7800
 5709TIP3    H238687   2.900   3.959   0.003  0.3215 -1.3329  0.5963
 5710TIP3   OH238688   3.607   3.007   2.181  0.4550 -0.1591  0.6275
 5710TIP3    H138689   3.529   2.952   2.171 -0.6090  1.7246 -3.3523
 5710TIP3    H238690   3.678   2.953   2.147 -0.0248 -0.2041 -0.3387
 5711TIP3   OH238691   1.797   1.911   0.413 -0.0692 -0.0436  1.0774
 5711TIP3    H138692   1.786   1.866   0.330  0.0812  0.6436  0.6780
 5711TIP3    H238693   1.884   1.886   0.443  0.0250 -0.0027  0.8427
 5712TIP3   OH238694   5.638   0.276   1.649 -0.5070  0.4840 -0.3403
 5712TIP3    H138695   5.676   0.190   1.631  0.0815  1.1338 -2.5003
 5712TIP3    H238696   5.646   0.286   1.743  3.7369  0.0839 -0.4358
 5713TIP3   OH238697   2.337   3.131   6.292 -0.6709 -0.1038 -0.1865
 5713TIP3    H138698   2.268   3.167   6.236  0.1024  0.4492 -0.8242
 5713TIP3    H238699   2.402   3.201   6.297  0.1529 -0.8514 -0.1651
 5714TIP3   OH238700   1.392   3.459   6.324  0.0538 -0.1495 -0.1122
 5714TIP3    H138701   1.485   3.457   6.348 -0.1073  0.2652  0.5777
 5714TIP3    H238702   1.357   3.378   6.359 -0.0392  0.1458  0.5048
 5715TIP3   OH238703   6.379   4.516   8.382  0.4270  0.2455 -0.3178
 5715TIP3    H138704   6.446   4.467   8.429 -1.6978 -0.3955  2.3367
 5715TIP3    H238705   6.379   4.479   8.294  2.8195 -0.3911 -0.1188
 5716TIP3   OH238706   5.664   6.553   6.457 -0.3610  0.3103 -0.0610
 5716TIP3    H138707   5.600   6.614   6.494 -1.1124 -0.0006 -0.8094
 5716TIP3    H238708   5.648   6.556   6.363  1.8856  1.5064 -0.4617
 5717TIP3   OH238709   6.446   0.249   8.736  0.0012  0.6644  0.2523
 5717TIP3    H138710   6.482   0.228   8.650 -1.2705 -0.7290  0.0053
 5717TIP3    H238711   6.375   0.311   8.718 -0.6039 -0.0247  0.2178
 5718TIP3   OH238712   3.934   0.609   6.532 -0.0517  0.4659 -0.3220
 5718TIP3    H138713   3.995   0.563   6.474  1.3195  2.1291 -0.3057
 5718TIP3    H238714   3.871   0.650   6.473 -0.9975 -0.9840 -0.3619
 5719TIP3   OH238715   6.396   4.825   0.119  0.4104  0.8071 -0.4883
 5719TIP3    H138716   6.462   4.777   0.070 -0.9720  0.0604 -1.6953
 5719TIP3    H238717   6.353   4.759   0.174 -0.6623  0.8819 -1.2204
 5720TIP3   OH238718   0.041   2.466   0.701  0.0610 -0.0329 -0.3041
 5720TIP3    H138719   0.118   2.522   0.695  0.5836 -0.8647 -2.3213
 5720TIP3    H238720   0.075   2.384   0.738 -0.5045  0.5809  1.6892
 5721TIP3   OH238721   6.061   4.733   7.937  0.1186 -0.4550 -0.0869
 5721TIP3    H138722   6.033   4.764   8.024  0.4525 -0.3363 -0.0197
 5721TIP3    H238723   5.983   4.741   7.882 -0.2259 -0.9630  0.3128
 5722TIP3   OH238724   1.863   0.934   8.388  0.2588 -0.2557  0.0267
 5722TIP3    H138725   1.849   0.986   8.467 -1.1582 -0.1254 -0.2714
 5722TIP3    H238726   1.878   0.999   8.319 -1.9618 -0.1467 -0.4331
 5723TIP3   OH238727   1.619   4.628   0.364  0.0974 -0.7050 -0.0981
 5723TIP3    H138728   1.655   4.576   0.293  1.0913 -1.8440  1.1903
 5723TIP3    H238729   1.529   4.647   0.337  0.0248 -2.2625 -1.0386
 5724TIP3   OH238730   3.616   1.195   0.899  0.1639  0.2182 -0.1682
 5724TIP3    H138731   3.679   1.123   0.895  0.3476  0.2353  1.6816
 5724TIP3    H238732   3.633   1.246   0.819  1.3396 -0.7113 -0.5411
 5725TIP3   OH238733   1.820   1.019   8.648 -0.2167  0.1072 -0.1591
 5725TIP3    H138734   1.730   1.049   8.638 -0.5157 -1.0534 -1.1563
 5725TIP3    H238735   1.823   0.980   8.736  0.1977  2.9266  1.2122
 5726TIP3   OH238736   3.349   1.061   1.144  0.0056  0.0283  0.3330
 5726TIP3    H138737   3.381   0.977   1.111 -0.6623  0.1274 -0.5967
 5726TIP3    H238738   3.255   1.049   1.155 -0.0211  0.5072  0.6821
 5727TIP3   OH238739   2.347   1.403   2.446 -0.0675 -0.2708  0.5040
 5727TIP3    H138740   2.289   1.404   2.369  1.1709  0.3739 -0.4650
 5727TIP3    H238741   2.315   1.474   2.501 -0.7428 -0.4921  0.4055
 5728TIP3   OH238742   5.406   3.441   7.128  0.2327 -0.0989 -0.7784
 5728TIP3    H138743   5.454   3.518   7.096 -0.9656  0.5836 -1.0107
 5728TIP3    H238744   5.315   3.471   7.134  0.0868 -0.8281  1.3100
 5729TIP3   OH238745   1.477   1.683   7.683 -0.0869  0.0122 -0.3670
 5729TIP3    H138746   1.501   1.633   7.761  0.5443  0.7706 -0.0628
 5729TIP3    H238747   1.486   1.774   7.710 -1.1799  0.2987 -0.9278
 5730TIP3   OH238748   1.694   0.388   0.913  0.3164  0.1198 -0.4806
 5730TIP3    H138749   1.657   0.368   0.827  0.3349 -1.6855 -0.1032
 5730TIP3    H238750   1.623   0.431   0.961 -0.9755 -2.1976 -0.1828
 5731TIP3   OH238751   3.428   4.310   6.746  0.1539  0.5411 -0.0490
 5731TIP3    H138752   3.504   4.260   6.774  0.4557  1.2560  0.4479
 5731TIP3    H238753   3.409   4.278   6.658  1.8648  1.3075 -0.7334
 5732TIP3   OH238754   5.724   3.940   6.745  0.1502 -0.1527  0.4545
 5732TIP3    H138755   5.665   3.941   6.820  0.2440  0.0216  0.5258
 5732TIP3    H238756   5.811   3.924   6.782  0.3724  1.0981  0.5075
 5733TIP3   OH238757   1.570   6.446   1.462 -0.2395 -0.0764  0.3604
 5733TIP3    H138758   1.640   6.484   1.514  0.4346  0.7630 -1.0900
 5733TIP3    H238759   1.610   6.368   1.422 -0.1472  0.3296 -0.3634
 5734TIP3   OH238760   5.231   4.971   7.876 -0.0629  0.1359 -0.0049
 5734TIP3    H138761   5.212   5.056   7.836  0.3041  0.0635 -0.3427
 5734TIP3    H238762   5.313   4.943   7.835  0.2805  0.0214  0.7418
 5735TIP3   OH238763   4.306   2.872   8.406  0.2342  0.1202  0.2011
 5735TIP3    H138764   4.247   2.844   8.336  0.6950  0.7425 -0.4581
 5735TIP3    H238765   4.393   2.843   8.376  0.3633 -0.1607  0.8219
 5736TIP3   OH238766   1.274   1.501   7.573 -0.0305  0.0502 -0.1661
 5736TIP3    H138767   1.362   1.471   7.548  0.1252  1.0913 -0.9758
 5736TIP3    H238768   1.277   1.505   7.669  0.6346 -0.4416 -0.1576
 5737TIP3   OH238769   0.436   1.043   1.520 -0.7999 -0.1514  0.1097
 5737TIP3    H138770   0.431   1.131   1.557  1.7251 -0.0334  0.3614
 5737TIP3    H238771   0.484   1.054   1.437 -1.0365 -1.1914 -0.1833
 5738TIP3   OH238772   2.430   4.502   7.929  0.8021 -0.2156  0.1651
 5738TIP3    H138773   2.383   4.462   8.003 -0.0846  0.0868 -0.2298
 5738TIP3    H238774   2.497   4.557   7.970  1.3195 -1.2334  0.7290
 5739TIP3   OH238775   0.827   5.399   1.338 -0.8674  0.4484  0.1078
 5739TIP3    H138776   0.747   5.451   1.346 -0.8925  0.3618  0.4410
 5739TIP3    H238777   0.798   5.308   1.347 -0.9695  0.2933 -1.5106
 5740TIP3   OH238778   1.799   2.041   1.441  0.8569  0.4340 -0.3563
 5740TIP3    H138779   1.755   2.124   1.422  1.6384  1.2266  1.0597
 5740TIP3    H238780   1.744   1.974   1.401 -0.2787  1.5676 -0.7626
 5741TIP3   OH238781   0.615   2.311   7.767  0.0384  0.7201  0.3416
 5741TIP3    H138782   0.697   2.359   7.756  0.2047  1.0000  2.4752
 5741TIP3    H238783   0.547   2.372   7.738  0.2850  2.2140  2.6390
 5742TIP3   OH238784   0.043   2.146   0.074  0.5457 -0.0424  0.1180
 5742TIP3    H138785  -0.036   2.199   0.066  0.4149  0.0136  1.6113
 5742TIP3    H238786   0.089   2.183   0.149  1.8211 -0.3146 -0.5002
 5743TIP3   OH238787   1.955   1.354   7.023  0.2021  0.3692 -0.0895
 5743TIP3    H138788   1.987   1.441   6.999  1.1663  0.4249  1.3020
 5743TIP3    H238789   2.034   1.300   7.030 -0.2511 -0.2022  0.6923
 5744TIP3   OH238790   6.686   6.625   0.682 -0.0422 -0.0565 -1.2747
 5744TIP3    H138791   6.779   6.625   0.706  0.5153 -3.5853 -2.7235
 5744TIP3    H238792   6.640   6.631   0.765  1.5031  0.8665 -0.4442
 5745TIP3   OH238793   0.813   4.417   0.265 -0.2693  0.1998  0.1181
 5745TIP3    H138794   0.889   4.425   0.322  0.8138 -0.7142 -1.1289
 5745TIP3    H238795   0.844   4.363   0.191 -1.3257  2.0555 -1.7801
 5746TIP3   OH238796   5.557   1.272   7.204 -0.6515 -0.2327  0.0475
 5746TIP3    H138797   5.491   1.288   7.271 -1.0345  0.8943 -0.5573
 5746TIP3    H238798   5.514   1.298   7.122  0.7324  1.1618 -0.2872
 5747TIP3   OH238799   1.489   3.968   0.010  0.7603  0.1109 -0.5978
 5747TIP3    H138800   1.515   4.024   0.083 -2.0686  1.0107 -0.1313
 5747TIP3    H238801   1.516   4.017  -0.068  0.9757  0.7062 -0.1601
 5748TIP3   OH238802   0.445   0.287   7.552 -0.4491 -0.1254  0.1574
 5748TIP3    H138803   0.388   0.232   7.606 -3.2676  0.5906 -1.8766
 5748TIP3    H238804   0.485   0.349   7.614 -0.8836 -1.4511  1.8166
 5749TIP3   OH238805   4.864   3.920   7.482 -0.2687 -0.0229 -0.5349
 5749TIP3    H138806   4.809   3.877   7.548 -0.0051  0.0397 -0.2701
 5749TIP3    H238807   4.953   3.894   7.506 -0.0582  1.0889 -0.0493
 5750TIP3   OH238808   5.759   3.283   0.001 -0.3135 -0.3467 -0.3849
 5750TIP3    H138809   5.808   3.305   0.080  3.0411  2.6670 -2.9530
 5750TIP3    H238810   5.785   3.194  -0.020  0.2426 -0.5021  0.8587
 5751TIP3   OH238811   2.034   2.832   8.109  0.1559  0.2554 -0.1000
 5751TIP3    H138812   2.083   2.913   8.094  1.1837 -0.2354  0.4882
 5751TIP3    H238813   2.045   2.816   8.203 -1.1464  0.1214  0.0496
 5752TIP3   OH238814   3.966   4.139   0.520 -0.5272 -0.7594 -0.0058
 5752TIP3    H138815   3.906   4.142   0.595 -0.3911  0.4400  0.0738
 5752TIP3    H238816   4.036   4.080   0.547  0.6546  1.3148  1.7106
 5753TIP3   OH238817   1.990   2.832   6.408  0.4412 -0.6127 -0.5646
 5753TIP3    H138818   2.057   2.870   6.465 -1.3236 -1.3102  2.1819
 5753TIP3    H238819   1.919   2.897   6.408  0.5734 -0.4163 -2.4326
 5754TIP3   OH238820   2.814   5.122   7.003  0.8988 -0.1712  0.6109
 5754TIP3    H138821   2.854   5.037   7.019  1.7271 -0.3041 -1.7875
 5754TIP3    H238822   2.845   5.148   6.916 -0.4979  1.9114  0.6480
 5755TIP3   OH238823   1.541   0.020   7.670  0.3360 -0.5882  0.5987
 5755TIP3    H138824   1.614  -0.001   7.612 -0.2449 -3.9642  0.8506
 5755TIP3    H238825   1.469   0.043   7.610  0.8085 -0.1424  0.1973
 5756TIP3   OH238826   3.448   1.652   7.763  0.0527  0.0610 -0.4757
 5756TIP3    H138827   3.526   1.696   7.729  0.8706  0.7263  2.0449
 5756TIP3    H238828   3.377   1.715   7.751  1.0092  1.8047  2.1104
 5757TIP3   OH238829   1.472   3.701   7.224 -0.0055 -0.1940  0.0287
 5757TIP3    H138830   1.393   3.650   7.244 -0.3582  0.0822 -0.6164
 5757TIP3    H238831   1.500   3.735   7.308  0.7370 -2.1422  0.6173
 5758TIP3   OH238832   2.740   5.235   0.022 -0.1567 -0.4580 -0.0295
 5758TIP3    H138833   2.734   5.153   0.071 -1.3489 -0.4075 -0.0733
 5758TIP3    H238834   2.651   5.252  -0.008 -0.0670  1.2345  0.5744
 5759TIP3   OH238835   6.635   6.193   1.854 -0.6955  0.1819 -0.4489
 5759TIP3    H138836   6.546   6.181   1.887 -0.4280 -2.1247 -0.3627
 5759TIP3    H238837   6.688   6.204   1.933 -0.9280  2.2694 -0.5245
 5760TIP3   OH238838   1.097   2.649   1.215 -0.4561  0.1595 -0.5733
 5760TIP3    H138839   1.104   2.624   1.307  1.3782  1.6929 -0.2366
 5760TIP3    H238840   1.043   2.581   1.175  0.0607 -1.4205  1.2983
 5761TIP3   OH238841   3.975   5.421   8.101 -0.3289 -0.6121  0.2536
 5761TIP3    H138842   4.011   5.441   8.188 -0.4501  0.3843  0.0886
 5761TIP3    H238843   4.045   5.444   8.040 -0.5514 -0.4815  0.0448
 5762TIP3   OH238844   0.517   0.063   7.766  0.4031  0.6140  0.2417
 5762TIP3    H138845   0.464   0.122   7.819  1.6552  0.5773  1.6049
 5762TIP3    H238846   0.464  -0.017   7.760 -0.2984  1.0560  0.3526
 5763TIP3   OH238847   5.135   1.658   8.232  0.0941 -0.3388 -0.0950
 5763TIP3    H138848   5.135   1.751   8.208 -2.9207  0.0400  0.9369
 5763TIP3    H238849   5.201   1.652   8.301  0.8845  0.8766 -0.7070
 5764TIP3   OH238850   6.616   1.129   0.995 -0.0633  0.0916 -0.7860
 5764TIP3    H138851   6.526   1.152   0.971 -0.5722 -0.7968  0.2100
 5764TIP3    H238852   6.612   1.108   1.088  1.3673  0.9484 -0.4962
 5765TIP3   OH238853   5.219   1.079   1.100 -0.1404  0.3736  0.3850
 5765TIP3    H138854   5.247   1.020   1.169 -1.1760 -0.9939 -0.3224
 5765TIP3    H238855   5.213   1.165   1.142  1.2316 -0.0275  1.4667
 5766TIP3   OH238856   4.898   0.504   7.312  0.4346 -0.4995  0.0714
 5766TIP3    H138857   4.891   0.431   7.251 -1.3888  0.0168 -0.4018
 5766TIP3    H238858   4.827   0.563   7.287  1.2737  0.9924  1.0421
 5767TIP3   OH238859   0.095   2.387   7.513  0.4377 -0.4395 -0.1207
 5767TIP3    H138860   0.141   2.306   7.490  0.7202 -1.0232  2.2442
 5767TIP3    H238861   0.008   2.358   7.539  0.7078 -0.0806  1.2642
 5768TIP3   OH238862   6.536   0.119   1.012 -0.5409  0.3623 -0.3069
 5768TIP3    H138863   6.602   0.132   0.944 -1.5313 -0.3523 -1.4314
 5768TIP3    H238864   6.458   0.162   0.979 -1.0665 -0.0621  0.3503
 5769TIP3   OH238865   1.175   5.663   0.934  0.2446  0.4644 -0.3637
 5769TIP3    H138866   1.114   5.675   0.861 -0.4352  2.1810  0.4356
 5769TIP3    H238867   1.154   5.576   0.969  0.1266 -0.0974 -1.7634
 5770TIP3   OH238868   6.200   2.801   0.661  0.1673  0.4136 -0.2969
 5770TIP3    H138869   6.176   2.790   0.569 -1.0430  0.4256  0.0130
 5770TIP3    H238870   6.272   2.864   0.659  0.1200  0.4541 -1.2323
 5771TIP3   OH238871   1.629   4.132   0.172  0.8789 -0.0802  0.4243
 5771TIP3    H138872   1.719   4.109   0.149  0.8834 -1.4984  1.7082
 5771TIP3    H238873   1.632   4.224   0.196  1.6097  0.3854 -1.3183
 5772TIP3   OH238874   3.366   3.710   7.002 -0.2923  0.0559 -0.5647
 5772TIP3    H138875   3.407   3.772   6.942 -0.9254 -0.1974 -1.2705
 5772TIP3    H238876   3.323   3.765   7.067 -2.5610  0.4759 -2.2972
 5773TIP3   OH238877   5.572   1.025   0.894  0.0804 -0.1046  0.0114
 5773TIP3    H138878   5.661   1.060   0.904  0.0575 -0.4397  1.5958
 5773TIP3    H238879   5.586   0.932   0.875  0.0728  0.1694 -1.5233
 5774TIP3   OH238880   5.786   0.353   8.012  0.3050  0.7158 -0.0479
 5774TIP3    H138881   5.816   0.430   8.060 -0.5353  1.0871 -0.0971
 5774TIP3    H238882   5.817   0.279   8.064 -0.0067  1.1045  0.7138
 5775TIP3   OH238883   4.171   5.371   6.679 -0.3467  0.1880  0.0933
 5775TIP3    H138884   4.187   5.296   6.623  0.1528  0.8785 -0.7277
 5775TIP3    H238885   4.255   5.386   6.723 -0.3352  0.4722 -0.0211
 5776TIP3   OH238886   4.472   3.589   7.965  0.3084  0.1779  0.4694
 5776TIP3    H138887   4.548   3.559   8.015  0.3015 -0.7035 -0.0236
 5776TIP3    H238888   4.404   3.524   7.982  0.4456 -0.4036 -1.0102
 5777TIP3   OH238889   1.507   6.726   0.415  0.3916  0.0244  0.2942
 5777TIP3    H138890   1.464   6.660   0.471  0.2721  0.0020  0.1767
 5777TIP3    H238891   1.439   6.753   0.354  1.0285 -1.3116 -1.0655
 5778TIP3   OH238892   0.619   0.294   1.470  0.1992 -0.2160  0.7142
 5778TIP3    H138893   0.614   0.375   1.521 -1.1861 -0.7621  1.4996
 5778TIP3    H238894   0.640   0.322   1.381  0.7892  0.9118  1.2008
 5779TIP3   OH238895   4.440   5.520   8.099 -0.4075 -0.3916 -0.3338
 5779TIP3    H138896   4.505   5.511   8.030 -0.4719  2.0719 -0.7964
 5779TIP3    H238897   4.453   5.609   8.133 -2.3799 -0.4690  0.7563
 5780TIP3   OH238898   4.491   0.630   1.075 -0.1452 -0.8214 -0.0114
 5780TIP3    H138899   4.506   0.543   1.112 -0.8030 -0.2680  1.6733
 5780TIP3    H238900   4.488   0.688   1.151 -2.2120  0.3052 -0.8627
 5781TIP3   OH238901   5.711   6.252   0.188  0.3774  0.2412 -0.0151
 5781TIP3    H138902   5.775   6.249   0.116 -0.0823 -0.8203 -0.4073
 5781TIP3    H238903   5.627   6.262   0.144  0.2005  0.8941  0.4606
 5782TIP3   OH238904   6.137   3.305   0.095 -0.4285  0.0756  0.4926
 5782TIP3    H138905   6.097   3.357   0.025 -0.9352 -1.1618 -0.1754
 5782TIP3    H238906   6.218   3.273   0.057 -0.3940 -0.0847  0.7008
 5783TIP3   OH238907   2.531   0.755   7.382 -0.1335 -0.8556 -0.3625
 5783TIP3    H138908   2.488   0.690   7.437 -2.4888  1.0391  0.2492
 5783TIP3    H238909   2.530   0.835   7.435  1.3980  0.0256 -1.5924
 5784TIP3   OH238910   5.240   5.593   7.675 -0.8842 -0.6353  0.4514
 5784TIP3    H138911   5.198   5.512   7.649 -0.2738 -1.0535  0.7461
 5784TIP3    H238912   5.172   5.642   7.720 -1.4133 -0.7330 -0.2221
 5785TIP3   OH238913   3.808   5.664   8.734 -0.7033  0.1489 -0.1083
 5785TIP3    H138914   3.769   5.577   8.741 -1.4421  0.2918 -1.9757
 5785TIP3    H238915   3.886   5.651   8.679  0.6047  0.2954  1.6000
 5786TIP3   OH238916   2.982   1.310   0.952 -0.2111 -0.5967 -0.3540
 5786TIP3    H138917   2.906   1.339   0.900 -1.1424 -2.1451  0.0833
 5786TIP3    H238918   2.979   1.215   0.948  2.3246 -0.7164 -1.1445
 5787TIP3   OH238919   5.582   3.278   1.326  0.2598 -0.3203  0.2583
 5787TIP3    H138920   5.583   3.284   1.422 -0.6745 -0.2460  0.2748
 5787TIP3    H238921   5.521   3.206   1.308  0.5960 -0.4726 -0.2734
 5788TIP3   OH238922   2.132   3.304   7.737  0.2475 -1.1425 -0.0459
 5788TIP3    H138923   2.194   3.375   7.744 -1.3451  0.2185  1.1032
 5788TIP3    H238924   2.184   3.228   7.710  1.9148  0.5197 -1.7539
 5789TIP3   OH238925   2.151   1.875   8.335 -0.4559 -0.7490 -0.3199
 5789TIP3    H138926   2.190   1.923   8.408 -1.6264  0.6071 -0.5217
 5789TIP3    H238927   2.186   1.787   8.343  0.1328 -0.4162  1.3583
 5790TIP3   OH238928   6.587   1.978   6.441 -0.4207 -0.0483  0.3497
 5790TIP3    H138929   6.528   2.022   6.502 -1.6363 -2.4834  1.0242
 5790TIP3    H238930   6.662   1.952   6.495 -0.1081  0.4150  0.1423
 5791TIP3   OH238931   1.513   0.921   7.887  0.7639 -0.0855 -0.0812
 5791TIP3    H138932   1.462   0.846   7.918  0.6115  0.7277  1.7706
 5791TIP3    H238933   1.581   0.883   7.831 -1.4732 -1.2461 -2.1578
 5792TIP3   OH238934   6.254   0.062   7.130 -0.2395  0.1285  0.1588
 5792TIP3    H138935   6.214   0.058   7.217 -0.4952  0.7328  0.0755
 5792TIP3    H238936   6.180   0.055   7.069 -0.3489  1.9812  0.0017
 5793TIP3   OH238937   2.431   2.557   1.760 -0.2584  0.3932  0.3590
 5793TIP3    H138938   2.358   2.596   1.712 -0.0314 -0.4049 -0.6644
 5793TIP3    H238939   2.396   2.477   1.798 -0.2385  0.6434  0.9106
 5794TIP3   OH238940   6.008   5.099   0.204 -0.0290 -0.0860  0.2294
 5794TIP3    H138941   6.067   5.047   0.259 -1.6253 -0.2723  1.8807
 5794TIP3    H238942   5.940   5.037   0.176 -0.9448  0.6760  0.6806
 5795TIP3   OH238943   3.339   3.359   7.284 -0.6725  0.6022  0.6612
 5795TIP3    H138944   3.308   3.269   7.289  0.8639 -0.0101 -0.0286
 5795TIP3    H238945   3.266   3.412   7.317 -0.9953 -0.9888  2.7160
 5796TIP3   OH238946   5.735   2.129   7.622 -0.5437 -0.0331 -0.3214
 5796TIP3    H138947   5.666   2.086   7.674 -0.6945  0.6159  0.0279
 5796TIP3    H238948   5.774   2.192   7.682 -0.5175  0.5195 -0.9114
 5797TIP3   OH238949   4.272   1.843   0.314  0.1716 -0.0098 -0.5126
 5797TIP3    H138950   4.185   1.829   0.276  0.8599 -1.9601 -1.5141
 5797TIP3    H238951   4.267   1.930   0.354 -1.6361  0.7488 -2.1977
 5798TIP3   OH238952   0.589   3.157   0.299  0.0618 -0.2076  0.1148
 5798TIP3    H138953   0.541   3.088   0.345 -1.5072 -0.0342 -1.1836
 5798TIP3    H238954   0.525   3.228   0.290  1.2668  0.9455  0.3304
 5799TIP3   OH238955   1.630   4.213   7.501 -0.2960 -0.3954  0.1175
 5799TIP3    H138956   1.658   4.304   7.491 -0.7428 -0.1842  0.7424
 5799TIP3    H238957   1.568   4.199   7.429  0.5676 -0.5368 -0.6177
 5800TIP3   OH238958   6.337   2.971   1.077 -0.2957 -0.3026 -0.4829
 5800TIP3    H138959   6.319   2.881   1.048  0.4840 -0.3558 -0.8263
 5800TIP3    H238960   6.432   2.975   1.085 -0.3771  0.2840  0.2408
 5801TIP3   OH238961   6.817   1.767   1.136  0.0065 -0.0655  0.6430
 5801TIP3    H138962   6.859   1.756   1.051  0.5867  0.3226  0.8799
 5801TIP3    H238963   6.742   1.707   1.133 -0.1522  0.1608 -0.2506
 5802TIP3   OH238964   5.336   3.684   1.631  0.1102 -0.1976  0.0393
 5802TIP3    H138965   5.350   3.633   1.710 -4.3651 -1.8521  0.0285
 5802TIP3    H238966   5.286   3.761   1.660 -0.3661 -0.0940 -0.9884
 5803TIP3   OH238967   6.494   1.165   0.375  0.0227  0.3635  0.4778
 5803TIP3    H138968   6.427   1.105   0.340 -0.9298  1.0954  1.0076
 5803TIP3    H238969   6.495   1.238   0.313  0.8897  0.0062  0.0585
 5804TIP3   OH238970   3.800   0.614   0.800  0.0798 -0.0681  0.0580
 5804TIP3    H138971   3.889   0.641   0.822 -0.1222 -0.1495  1.0115
 5804TIP3    H238972   3.761   0.587   0.883 -0.7998 -0.1498 -0.3614
 5805TIP3   OH238973   4.256   6.768   6.767 -0.8383 -0.4286 -0.5042
 5805TIP3    H138974   4.213   6.837   6.818 -0.6500 -0.1776 -0.6853
 5805TIP3    H238975   4.349   6.785   6.777 -0.6490 -2.2026  1.6389
 5806TIP3   OH238976   4.546   0.318   2.306  0.0952  0.6790 -0.1262
 5806TIP3    H138977   4.475   0.373   2.338  0.6466  0.5587  1.4213
 5806TIP3    H238978   4.621   0.378   2.299  0.3437  0.4207  0.2322
 5807TIP3   OH238979   3.613   2.123   8.287  0.4287  0.2890  0.0315
 5807TIP3    H138980   3.547   2.054   8.294 -0.1384  0.7339 -0.7611
 5807TIP3    H238981   3.646   2.133   8.376  0.3068 -0.7908  0.2163
 5808TIP3   OH238982   4.716   3.272   7.350 -0.4838  0.2709  0.1690
 5808TIP3    H138983   4.690   3.182   7.371 -0.0587 -0.1749 -1.1157
 5808TIP3    H238984   4.766   3.264   7.269 -1.1115  1.7597 -0.4051
 5809TIP3   OH238985   1.785   6.065   1.572 -0.1288 -0.2222  0.6792
 5809TIP3    H138986   1.844   6.132   1.538  0.7066 -0.4631  1.6309
 5809TIP3    H238987   1.821   5.982   1.539  0.1773 -0.3856  1.4223
 5810TIP3   OH238988   4.041   1.443   7.590  0.5353  0.1711 -0.5216
 5810TIP3    H138989   4.091   1.523   7.603 -0.6531  1.2397 -2.1379
 5810TIP3    H238990   4.055   1.392   7.670  2.5045  1.3185 -0.0890
 5811TIP3   OH238991   2.074   3.473   1.137 -0.2761 -0.3184  0.3119
 5811TIP3    H138992   1.984   3.478   1.167 -0.5534 -0.6731 -0.4445
 5811TIP3    H238993   2.106   3.390   1.171 -0.1945 -0.1402  0.6756
 5812TIP3   OH238994   1.211   3.589   0.329 -0.0593 -0.0498  0.3302
 5812TIP3    H138995   1.207   3.533   0.252 -0.6234  0.7149 -0.2057
 5812TIP3    H238996   1.305   3.593   0.350 -0.0870 -2.0409  1.0402
 5813TIP3   OH238997   4.768   6.292   0.126  0.3106 -0.8289  0.2400
 5813TIP3    H138998   4.779   6.379   0.164  2.4977 -0.7547 -0.4115
 5813TIP3    H238999   4.804   6.300   0.038  1.0555 -2.5136  0.3635
 5814TIP3   OH239000   2.210   3.789   0.680 -0.1408  0.1196  0.0388
 5814TIP3    H139001   2.301   3.815   0.666  0.0338 -0.5691 -0.1685
 5814TIP3    H239002   2.198   3.792   0.775  0.0876  0.2419  0.0637
 5815TIP3   OH239003   4.117   5.300   7.345 -0.1731  0.2156  0.4709
 5815TIP3    H139004   4.071   5.377   7.312 -2.4965 -1.1106  0.3499
 5815TIP3    H239005   4.098   5.232   7.280  2.1305 -0.4164  0.3728
 5816TIP3   OH239006   3.726   5.117   0.173  0.2298 -0.3342 -0.3440
 5816TIP3    H139007   3.690   5.073   0.250  0.6159 -0.1215 -0.0347
 5816TIP3    H239008   3.720   5.211   0.195  0.5388 -0.2815 -0.4829
 5817TIP3   OH239009   0.189   0.377   1.929  0.5578  0.0447 -0.1759
 5817TIP3    H139010   0.209   0.399   2.020 -3.1006 -1.3127  1.1349
 5817TIP3    H239011   0.163   0.459   1.889  1.6998  0.5704  0.1263
 5818TIP3   OH239012   2.838   4.434   7.309  0.3283 -0.0230  0.5457
 5818TIP3    H139013   2.922   4.401   7.342  0.6606 -1.1861 -1.3432
 5818TIP3    H239014   2.788   4.356   7.287  0.0513  0.6690 -1.4706
 5819TIP3   OH239015   0.615   4.128   0.603 -0.4791  0.3886  0.1280
 5819TIP3    H139016   0.646   4.111   0.514 -3.7433 -1.4296 -0.8009
 5819TIP3    H239017   0.532   4.174   0.591 -0.1994  1.5963  2.3324
 5820TIP3   OH239018   1.569   3.789   7.466  0.2588 -0.7814 -0.1959
 5820TIP3    H139019   1.630   3.860   7.486  1.7673 -1.2432 -2.6571
 5820TIP3    H239020   1.597   3.717   7.522  1.2298 -0.6053 -0.4377
 5821TIP3   OH239021   3.682   2.280   0.651 -0.0095 -0.4012 -0.1388
 5821TIP3    H139022   3.709   2.350   0.591  0.0610  0.0106  0.3694
 5821TIP3    H239023   3.610   2.317   0.701 -0.0932 -0.7563  0.0060
 5822TIP3   OH239024   3.642   3.962   7.072 -0.4461  0.0452  0.0361
 5822TIP3    H139025   3.588   3.950   6.994 -0.0250 -1.1426 -0.1006
 5822TIP3    H239026   3.713   3.899   7.061 -0.1433  0.1737  1.1776
 5823TIP3   OH239027   5.865   0.930   8.129  0.3787  0.5883  0.3972
 5823TIP3    H139028   5.941   0.942   8.186  0.5846  0.9989  0.0467
 5823TIP3    H239029   5.903   0.903   8.045  0.1293  0.6532  0.2632
 5824TIP3   OH239030   1.276   5.417   1.229  0.4374  0.0260  0.1289
 5824TIP3    H139031   1.357   5.425   1.180  0.0567  0.1799 -0.4931
 5824TIP3    H239032   1.302   5.379   1.313  1.4712  2.2085  0.8633
 5825TIP3   OH239033   3.438   1.870   0.395  0.3843  0.5177  0.8427
 5825TIP3    H139034   3.377   1.943   0.408  0.4982  0.6471  0.6524
 5825TIP3    H239035   3.523   1.906   0.418  0.3036  0.1409  1.7796
 5826TIP3   OH239036   0.150   0.576   1.487  0.2175 -0.1572 -0.1003
 5826TIP3    H139037   0.101   0.525   1.552  0.5228  1.3628  1.4016
 5826TIP3    H239038   0.099   0.656   1.476  1.1314  0.4039 -0.3524
 5827TIP3   OH239039   1.020   4.172   6.485 -0.0531 -0.1019 -0.5958
 5827TIP3    H139040   0.950   4.202   6.427  0.6693  1.1645 -0.8445
 5827TIP3    H239041   1.064   4.103   6.436  0.7171  1.1323 -1.7224
 5828TIP3   OH239042   2.953   4.691   0.078 -0.5220 -0.4507  0.3292
 5828TIP3    H139043   2.961   4.657   0.167 -0.6743  0.2272  0.6082
 5828TIP3    H239044   2.981   4.782   0.085 -0.7197 -0.3403 -0.2807
 5829TIP3   OH239045   4.636   2.920   1.075 -0.2428  0.2646 -0.1924
 5829TIP3    H139046   4.660   2.998   1.125 -2.0317  1.4572 -1.0605
 5829TIP3    H239047   4.616   2.953   0.988  0.5497 -1.4385 -1.0641
 5830TIP3   OH239048   2.140   1.942   1.483  0.0279 -0.3660 -0.2904
 5830TIP3    H139049   2.073   1.967   1.546  1.3705  1.1138  0.6243
 5830TIP3    H239050   2.102   1.963   1.398  0.0234  2.4433  0.3110
 5831TIP3   OH239051   4.338   0.496   8.623 -0.1968 -0.1255  0.5780
 5831TIP3    H139052   4.355   0.540   8.540 -0.3136 -0.2439  0.4897
 5831TIP3    H239053   4.421   0.498   8.670  0.3857 -1.6770 -0.3068
 5832TIP3   OH239054   3.691   0.072   8.655  0.3095 -0.6728 -0.2469
 5832TIP3    H139055   3.642   0.144   8.615 -0.7251 -1.6515 -0.7890
 5832TIP3    H239056   3.783   0.099   8.649  0.1305 -0.3912 -2.5603
 5833TIP3   OH239057   2.313   5.993   6.984 -0.1264 -0.1833  0.5205
 5833TIP3    H139058   2.328   5.991   6.890  0.6453 -2.2842  0.6322
 5833TIP3    H239059   2.366   5.920   7.018 -0.2500  0.6322  2.5959
 5834TIP3   OH239060   0.325   0.686   8.290 -0.4370 -0.7107  0.0614
 5834TIP3    H139061   0.237   0.655   8.266  0.1476 -2.5991  0.1616
 5834TIP3    H239062   0.347   0.636   8.369 -0.3606  1.8242  1.7571
 5835TIP3   OH239063   2.504   2.964   1.357  0.0456  0.3833 -0.1613
 5835TIP3    H139064   2.487   2.879   1.316  1.2718  1.0914 -2.3694
 5835TIP3    H239065   2.486   2.951   1.450  0.6502 -2.4245 -0.3481
 5836TIP3   OH239066   5.328   2.685   7.678  0.6309 -0.1342  0.1687
 5836TIP3    H139067   5.399   2.709   7.619  0.1736  1.8643  0.3701
 5836TIP3    H239068   5.335   2.747   7.751 -1.1340 -0.0860  0.3334
 5837TIP3   OH239069   0.508   1.442   6.480 -0.0136 -0.0154  0.2569
 5837TIP3    H139070   0.436   1.425   6.419 -1.3189  1.3511  1.3565
 5837TIP3    H239071   0.502   1.536   6.498  0.0184 -0.4498  2.8565
 5838TIP3   OH239072   5.580   3.690   7.310  0.2190  0.4030  0.1510
 5838TIP3    H139073   5.652   3.676   7.372  0.9753 -0.8600 -0.9534
 5838TIP3    H239074   5.622   3.693   7.224 -0.9015  1.2533 -0.3944
 5839TIP3   OH239075   1.834   0.263   7.758  0.1893  0.5699 -0.3199
 5839TIP3    H139076   1.842   0.167   7.765 -0.5781  0.4807 -0.5275
 5839TIP3    H239077   1.743   0.281   7.782  0.4276  1.2930  0.0765
 5840TIP3   OH239078   2.374   0.247   1.078 -0.0835 -0.6221 -0.5282
 5840TIP3    H139079   2.459   0.238   1.036 -0.8877 -2.2180 -1.8981
 5840TIP3    H239080   2.324   0.305   1.021  0.6036  1.9265  1.2484
 5841TIP3   OH239081   5.185   6.496   7.719 -0.1746  0.0424  0.0626
 5841TIP3    H139082   5.244   6.546   7.774 -0.3250  0.5562 -0.2352
 5841TIP3    H239083   5.237   6.475   7.641 -0.1310 -0.2100  0.1598
 5842TIP3   OH239084   6.004   3.297   0.478  0.7657 -0.0730  0.0861
 5842TIP3    H139085   6.016   3.371   0.537  0.0681 -0.4916  0.7674
 5842TIP3    H239086   5.927   3.251   0.512  0.9043 -0.8433 -0.6085
 5843TIP3   OH239087   6.791   4.625   0.050 -0.4329  0.0015  0.2304
 5843TIP3    H139088   6.778   4.707   0.002  0.1713 -0.4831 -0.7989
 5843TIP3    H239089   6.804   4.559  -0.019 -0.9905 -0.9760  1.0430
 5844TIP3   OH239090   1.951   2.924   1.199 -0.5433  0.6661 -0.2248
 5844TIP3    H139091   1.952   2.944   1.292  1.6335 -0.2430 -0.0050
 5844TIP3    H239092   1.872   2.872   1.186 -0.6400  0.4312  1.1885
 5845TIP3   OH239093   3.005   3.473   6.995  0.1195 -0.0280  0.9929
 5845TIP3    H139094   3.050   3.516   7.068  1.1393  1.2295 -0.3169
 5845TIP3    H239095   3.075   3.444   6.937 -0.6850 -0.5365  0.2564
 5846TIP3   OH239096   5.853   3.980   6.478  0.1731 -0.6905 -0.0453
 5846TIP3    H139097   5.818   3.958   6.564  1.3313 -0.5264  0.4893
 5846TIP3    H239098   5.868   3.896   6.436  0.5395 -0.8061  0.3088
 5847TIP3   OH239099   1.234   2.712   7.553 -0.0401  0.2975 -0.6563
 5847TIP3    H139100   1.264   2.776   7.617 -0.0692  0.6085 -0.9481
 5847TIP3    H239101   1.310   2.694   7.498 -0.6640  2.1360 -2.2729
 5848TIP3   OH239102   6.445   2.673   7.578  0.3901  0.0611 -0.3137
 5848TIP3    H139103   6.388   2.639   7.509  0.0577 -0.7280  0.3286
 5848TIP3    H239104   6.446   2.768   7.565 -1.0517  0.0852 -0.3507
 5849TIP3   OH239105   2.855   4.658   0.999  0.1604 -0.1103 -0.2510
 5849TIP3    H139106   2.865   4.562   1.004 -0.6011 -0.1466  1.0272
 5849TIP3    H239107   2.780   4.677   1.055  0.3903  1.2664 -0.3824
 5850TIP3   OH239108   6.571   0.116   8.158 -0.3561 -0.2537  0.0907
 5850TIP3    H139109   6.599   0.033   8.119 -0.3568  0.0498 -0.5654
 5850TIP3    H239110   6.631   0.181   8.121  0.8713 -0.1885  2.0192
 5851TIP3   OH239111   6.508   4.366   0.222  0.6479 -0.2347 -0.0173
 5851TIP3    H139112   6.428   4.340   0.269 -0.2642  0.6254 -1.0228
 5851TIP3    H239113   6.515   4.302   0.151  0.9967 -0.4575  0.2188
 5852TIP3   OH239114   1.767   5.223   7.182 -0.1423 -0.5071  0.2775
 5852TIP3    H139115   1.799   5.295   7.128 -0.0033 -0.0760  0.9218
 5852TIP3    H239116   1.784   5.144   7.131  3.4810 -0.5110  1.1992
 5853TIP3   OH239117   6.213   5.929   7.830  0.1559  0.2672  0.3665
 5853TIP3    H139118   6.219   5.980   7.911  0.6346  0.0119  0.4965
 5853TIP3    H239119   6.224   5.993   7.760 -2.3124  0.8295  0.4112
 5854TIP3   OH239120   6.576   5.675   7.332 -0.3430  0.1833 -0.0771
 5854TIP3    H139121   6.580   5.606   7.266 -0.2547 -0.9651  1.0708
 5854TIP3    H239122   6.485   5.675   7.361 -0.5755  1.2599 -0.7627
 5855TIP3   OH239123   4.824   2.147   7.161 -0.2226 -0.7838  0.7184
 5855TIP3    H139124   4.733   2.157   7.132 -0.3578 -0.9432  1.0826
 5855TIP3    H239125   4.870   2.114   7.084  0.1022  1.8488 -0.3253
 5856TIP3   OH239126   1.151   5.267   6.907  0.3196  0.4152  0.5307
 5856TIP3    H139127   1.197   5.241   6.827 -2.2266  0.2808 -0.9819
 5856TIP3    H239128   1.102   5.346   6.884 -1.4464 -0.3111  1.5429
 5857TIP3   OH239129   4.132   2.872   0.823 -0.0682  0.5886 -0.4462
 5857TIP3    H139130   4.097   2.905   0.740  0.9062  0.5301 -0.8946
 5857TIP3    H239131   4.113   2.779   0.823 -0.9611  0.7597 -0.1345
 5858TIP3   OH239132   5.521   4.326   8.181  0.2297  0.6136  0.4663
 5858TIP3    H139133   5.552   4.339   8.270  0.5832 -0.8009  0.5660
 5858TIP3    H239134   5.595   4.351   8.126  0.6553 -0.2816  0.6282
 5859TIP3   OH239135   1.046   1.889   1.154 -0.1175 -0.4994 -0.2613
 5859TIP3    H139136   1.110   1.900   1.224 -0.2638 -0.2076 -0.1713
 5859TIP3    H239137   1.046   1.795   1.136 -1.6362 -0.9186  1.6284
 5860TIP3   OH239138   0.772   1.827   6.986  0.1325  0.3312  0.4945
 5860TIP3    H139139   0.760   1.732   6.983 -0.3060  0.3522  1.2900
 5860TIP3    H239140   0.684   1.862   6.998  0.2684  0.8523  0.0052
 5861TIP3   OH239141   2.026   1.570   0.561  0.5491 -0.2438 -0.1522
 5861TIP3    H139142   2.082   1.532   0.628  1.2765  0.6788 -0.2143
 5861TIP3    H239143   1.939   1.534   0.579  1.2632 -2.1798 -0.4369
 5862TIP3   OH239144   2.966   3.961   1.624 -0.1010  0.2663 -0.4311
 5862TIP3    H139145   2.884   4.008   1.640  0.2874  0.2690  2.0195
 5862TIP3    H239146   2.951   3.913   1.543 -1.9297  1.5270 -0.8943
 5863TIP3   OH239147   4.509   4.339   2.026  0.0560  0.0124 -0.2153
 5863TIP3    H139148   4.459   4.258   2.018  0.5808 -0.3087 -0.2421
 5863TIP3    H239149   4.460   4.402   1.973 -1.6326  0.3392  1.5864
 5864TIP3   OH239150   3.266   3.472   0.509  0.7369 -0.5062 -0.3784
 5864TIP3    H139151   3.178   3.447   0.480  0.1004  1.2177 -0.0523
 5864TIP3    H239152   3.291   3.403   0.570 -1.6539  0.4488  1.8444
 5865TIP3   OH239153   2.098   0.742   7.951 -0.3494  0.0540 -0.7104
 5865TIP3    H139154   2.044   0.698   8.016  1.0105  0.5263  0.8081
 5865TIP3    H239155   2.065   0.711   7.867 -0.3763 -2.7523  0.2342
 5866TIP3   OH239156   6.338   6.419   0.267  0.2666  0.0535  0.2966
 5866TIP3    H139157   6.398   6.356   0.307  0.2657  0.2125  0.5495
 5866TIP3    H239158   6.298   6.464   0.340 -0.6643 -0.5038  0.1508
 5867TIP3   OH239159   3.622   2.686   6.733  0.0126  0.1232  0.3511
 5867TIP3    H139160   3.557   2.672   6.664 -0.1188 -0.5815  0.6068
 5867TIP3    H239161   3.622   2.604   6.782 -0.2098  0.7627  1.4560
 5868TIP3   OH239162   1.483   2.094   8.096 -0.0696  0.2640 -0.1776
 5868TIP3    H139163   1.416   2.135   8.151  0.8473  0.7432  0.6098
 5868TIP3    H239164   1.491   2.152   8.021  1.1619  1.5616  0.8928
 5869TIP3   OH239165   6.457   0.768   0.331  0.2586  0.2522 -0.4099
 5869TIP3    H139166   6.375   0.718   0.334  0.0986  0.4998 -0.6609
 5869TIP3    H239167   6.453   0.815   0.248  0.4532  0.6175 -0.2118
 5870TIP3   OH239168   4.751   2.558   8.664 -0.1542 -0.2848  0.4558
 5870TIP3    H139169   4.798   2.604   8.595 -1.0497 -3.8496 -2.9272
 5870TIP3    H239170   4.658   2.570   8.643 -0.5547 -0.0945  2.1254
 5871TIP3   OH239171   3.969   0.967   7.894 -0.1825  0.4713 -0.3790
 5871TIP3    H139172   3.921   1.027   7.952  0.5275 -0.5647  1.3519
 5871TIP3    H239173   3.902   0.911   7.856 -0.5168 -0.0458  0.9233
 5872TIP3   OH239174   4.729   3.037   1.643  0.1656 -0.5361 -0.1261
 5872TIP3    H139175   4.704   3.046   1.735 -1.2949  0.0380 -0.5547
 5872TIP3    H239176   4.803   2.977   1.644 -0.3905 -1.2398  1.3537
 5873TIP3   OH239177   4.048   2.722   2.630 -0.1204 -0.4955  0.4957
 5873TIP3    H139178   3.954   2.726   2.615 -0.0590 -0.1150  0.2140
 5873TIP3    H239179   4.084   2.794   2.578  0.3554 -0.8321  0.3506
 5874TIP3   OH239180   4.545   5.349   1.665 -0.1952  0.0492 -0.1347
 5874TIP3    H139181   4.594   5.383   1.739  2.7388  1.3095 -2.4304
 5874TIP3    H239182   4.606   5.291   1.620 -1.8502 -0.6851 -1.5839
 5875TIP3   OH239183   3.899   4.805   7.176 -0.1704 -0.7044  0.8060
 5875TIP3    H139184   3.866   4.760   7.099  0.8270 -0.9110  0.4843
 5875TIP3    H239185   3.891   4.740   7.247 -2.5295 -0.0071  1.2532
 5876TIP3   OH239186   3.883   1.235   1.242  0.1938 -0.6658  0.0776
 5876TIP3    H139187   3.878   1.274   1.155  1.5219  2.3846  1.2369
 5876TIP3    H239188   3.792   1.218   1.266 -0.4187  1.1447 -0.8001
 5877TIP3   OH239189   1.256   2.935   7.709  0.4818 -0.0058  0.0128
 5877TIP3    H139190   1.335   2.983   7.733  0.9044 -0.4871 -0.4021
 5877TIP3    H239191   1.198   2.945   7.784  0.0193  2.2709 -0.5563
 5878TIP3   OH239192   0.127   6.487   2.169  0.1830 -0.0048 -0.1796
 5878TIP3    H139193   0.045   6.464   2.212 -0.7054 -0.7188 -2.1512
 5878TIP3    H239194   0.185   6.515   2.241 -0.4825 -3.1047  1.7259
 5879TIP3   OH239195   5.399   0.931   1.523  0.4387 -0.1580 -0.3390
 5879TIP3    H139196   5.346   0.929   1.444  2.2282  0.5198 -1.6171
 5879TIP3    H239197   5.408   1.024   1.544  2.1989 -0.1488 -0.9541
 5880TIP3   OH239198   1.268   1.549   1.307  0.0909 -0.2643 -0.3185
 5880TIP3    H139199   1.314   1.465   1.310 -0.4823 -0.6251 -1.4878
 5880TIP3    H239200   1.335   1.613   1.331  1.3863 -0.7321 -2.4313
 5881TIP3   OH239201   0.429   4.635   7.346 -0.5500 -0.5604  0.5931
 5881TIP3    H139202   0.484   4.677   7.413  0.9395  0.8755 -1.3862
 5881TIP3    H239203   0.356   4.695   7.334 -0.0816 -0.0973 -0.0130
 5882TIP3   OH239204   5.069   6.401   1.070 -0.1672 -0.3359 -0.1457
 5882TIP3    H139205   5.009   6.390   1.143  0.3022 -0.7567  0.1833
 5882TIP3    H239206   5.148   6.439   1.108  0.0400 -0.4531 -0.4460
 5883TIP3   OH239207   2.406   3.852   7.855  0.0832  0.1278 -0.0480
 5883TIP3    H139208   2.317   3.825   7.832 -0.1236 -0.6376  1.4841
 5883TIP3    H239209   2.409   3.842   7.951  0.9790  2.7006  0.2706
 5884TIP3   OH239210   2.312   4.362   8.243  0.1955 -0.2003 -0.2579
 5884TIP3    H139211   2.382   4.386   8.303  1.0464 -0.4446 -1.1282
 5884TIP3    H239212   2.298   4.268   8.257  0.1228 -0.1767 -0.1698
 5885TIP3   OH239213   1.941   4.314   7.675  0.2410  0.0822 -0.1596
 5885TIP3    H139214   1.949   4.240   7.616 -1.8452 -1.1752  1.0178
 5885TIP3    H239215   2.031   4.347   7.685  1.0255 -1.4630 -1.6950
 5886TIP3   OH239216   4.481   1.831   6.337  0.8087  0.2108 -0.2992
 5886TIP3    H139217   4.539   1.855   6.265  0.7783  1.7610  0.1453
 5886TIP3    H239218   4.437   1.752   6.307  0.6113  0.9549 -2.1003
 5887TIP3   OH239219   1.726   0.595   0.010  0.0274  0.3194 -0.3158
 5887TIP3    H139220   1.636   0.601  -0.020  0.2779 -0.3982 -1.2461
 5887TIP3    H239221   1.723   0.536   0.085 -0.1485 -0.4245 -0.9061
 5888TIP3   OH239222   4.294   4.359   6.678  0.3978  0.2031  0.7177
 5888TIP3    H139223   4.333   4.363   6.765 -1.6711  0.2550  1.7274
 5888TIP3    H239224   4.215   4.305   6.690  1.7164 -2.5386 -1.8676
 5889TIP3   OH239225   0.252   1.844   1.919 -0.0290 -0.2308  0.0253
 5889TIP3    H139226   0.210   1.922   1.883  0.5937  0.3266  0.4628
 5889TIP3    H239227   0.281   1.872   2.006  1.2241 -0.6006 -0.2626
 5890TIP3   OH239228   3.335   5.333   6.451  0.4038  0.0972  0.1907
 5890TIP3    H139229   3.415   5.385   6.448  0.4340  0.0285 -0.2706
 5890TIP3    H239230   3.277   5.375   6.387  1.2510 -1.7613 -1.9176
 5891TIP3   OH239231   6.210   5.305   6.206 -0.2738 -0.1720  0.0269
 5891TIP3    H139232   6.141   5.298   6.271  0.1755  0.4016  0.5756
 5891TIP3    H239233   6.289   5.324   6.256  0.2809 -0.7667 -0.5954
 5892TIP3   OH239234   1.073   2.180   7.834 -0.2606 -0.6144 -0.0372
 5892TIP3    H139235   1.008   2.230   7.786 -0.4922  0.7341  1.5910
 5892TIP3    H239236   1.099   2.237   7.907  4.7738  0.1431 -1.9961
 5893TIP3   OH239237   4.365   3.377   0.332  0.0618  0.0827  0.8084
 5893TIP3    H139238   4.335   3.329   0.255 -0.6932  1.5181  0.1695
 5893TIP3    H239239   4.408   3.311   0.386 -0.2679 -1.1487 -0.3777
 5894TIP3   OH239240   6.149   0.454   0.835  0.2392  0.1378  0.1935
 5894TIP3    H139241   6.136   0.513   0.761  1.2155 -0.2497 -0.3070
 5894TIP3    H239242   6.168   0.511   0.909  0.9501  0.4594 -0.2340
 5895TIP3   OH239243   2.475   3.104   6.997  0.0936 -0.3875 -0.6872
 5895TIP3    H139244   2.413   3.067   7.060  2.7226 -1.9676  1.1447
 5895TIP3    H239245   2.454   3.197   6.995 -0.7781 -0.4657  1.7597
 5896TIP3   OH239246   6.665   5.206   8.001  0.0883  0.3861  0.0961
 5896TIP3    H139247   6.588   5.260   8.014 -0.2905 -0.2918  0.7496
 5896TIP3    H239248   6.664   5.143   8.074  0.0093 -1.0778 -1.1071
 5897TIP3   OH239249   3.897   5.019   6.868  0.0525 -0.0594  0.2837
 5897TIP3    H139250   3.950   4.987   6.941  0.4566  0.4755  0.2314
 5897TIP3    H239251   3.943   5.097   6.837  1.0797 -1.4572 -1.9328
 5898TIP3   OH239252   5.031   4.817   0.868  0.2657 -0.1124 -0.4959
 5898TIP3    H139253   5.122   4.847   0.870 -0.8963  4.0792  1.6974
 5898TIP3    H239254   5.012   4.806   0.775  2.5416  0.6153 -1.1247
 5899TIP3   OH239255   6.293   4.209   1.986  0.1351  0.1614  0.3276
 5899TIP3    H139256   6.330   4.129   1.947  1.1496  1.4615 -1.5370
 5899TIP3    H239257   6.366   4.269   1.991 -0.6112  0.9889  1.7429
 5900TIP3   OH239258   5.259   3.938   8.285  0.3504  0.0498  0.2017
 5900TIP3    H139259   5.169   3.931   8.252  0.4603 -2.1626  0.2175
 5900TIP3    H239260   5.268   4.030   8.309 -1.5696  0.5508 -0.7338
 5901TIP3   OH239261   0.842   1.260   7.112  0.6386  0.2997  0.1524
 5901TIP3    H139262   0.833   1.256   7.207  2.5979 -0.0888  0.3541
 5901TIP3    H239263   0.936   1.265   7.097  0.3338  0.9392 -1.7595
 5902TIP3   OH239264   6.327   3.441   8.382  0.4722  0.1822  0.4003
 5902TIP3    H139265   6.310   3.365   8.326  0.5781  0.2563  0.2665
 5902TIP3    H239266   6.255   3.501   8.363  1.3168  0.8613 -0.8024
 5903TIP3   OH239267   0.368   3.592   0.067  0.3864  0.0729  0.0297
 5903TIP3    H139268   0.358   3.606  -0.027 -1.9063  0.5684  0.2807
 5903TIP3    H239269   0.382   3.679   0.103  0.9956 -0.0838  0.1768
 5904TIP3   OH239270   3.913   2.581   7.826 -0.2044  0.0747  0.0473
 5904TIP3    H139271   3.968   2.593   7.748 -0.6198 -1.6801 -0.5628
 5904TIP3    H239272   3.972   2.542   7.890 -0.0762  0.7392  0.3442
 5905TIP3   OH239273   2.998   4.189   8.350  0.7038  0.1156 -0.1478
 5905TIP3    H139274   3.080   4.158   8.312  0.6692 -0.0947 -0.0492
 5905TIP3    H239275   2.931   4.129   8.317  0.7074 -0.2205  0.4344
 5906TIP3   OH239276   5.934   4.367   0.106  0.1336  0.0246  0.4074
 5906TIP3    H139277   5.855   4.396   0.153  1.0180 -0.6534  2.4348
 5906TIP3    H239278   5.924   4.271   0.100  0.5723 -0.0103  0.2183
 5907TIP3   OH239279   6.579   5.531   7.110 -0.4373 -0.3641 -0.3728
 5907TIP3    H139280   6.543   5.443   7.116  1.2895 -1.1969 -1.5230
 5907TIP3    H239281   6.529   5.572   7.040 -0.5667 -0.7614 -0.5167
 5908TIP3   OH239282   0.122   3.014   6.521 -0.1824 -0.5186 -0.2496
 5908TIP3    H139283   0.076   2.944   6.474  1.3321 -0.2140 -2.2973
 5908TIP3    H239284   0.207   2.976   6.543  0.2143  0.2927 -0.3509
 5909TIP3   OH239285   6.719   1.920   8.724  0.1117 -0.6848 -0.1720
 5909TIP3    H139286   6.742   2.008   8.753 -1.9365 -0.0556 -0.2648
 5909TIP3    H239287   6.799   1.886   8.684  1.6814  0.1316  2.0974
 5910TIP3   OH239288   6.788   4.746   1.493  0.1478 -0.4228  0.2916
 5910TIP3    H139289   6.807   4.658   1.460 -2.1846 -0.3956 -1.3794
 5910TIP3    H239290   6.700   4.739   1.529  1.1228  0.5293  3.1281
 5911TIP3   OH239291   6.648   2.644   0.725 -0.3939  0.1493 -0.6591
 5911TIP3    H139292   6.726   2.602   0.760  0.3025  1.1201 -1.0179
 5911TIP3    H239293   6.606   2.685   0.801  0.6938  1.5812 -0.7895
 5912TIP3   OH239294   0.016   0.902   8.338  0.6429  0.0296  0.0843
 5912TIP3    H139295   0.082   0.836   8.361 -0.8954 -2.4476 -1.9874
 5912TIP3    H239296  -0.054   0.888   8.401  1.5578  1.9484  1.6256
 5913TIP3   OH239297   2.988   5.719   1.282 -0.2495  0.2241  0.7629
 5913TIP3    H139298   2.945   5.663   1.218 -1.1020  1.2625  0.3917
 5913TIP3    H239299   2.920   5.739   1.346  0.2180  0.3191  1.2377
 5914TIP3   OH239300   2.484   3.869   0.276  0.3166 -0.5545  0.0067
 5914TIP3    H139301   2.473   3.800   0.342  1.8248 -0.0429  0.8474
 5914TIP3    H239302   2.516   3.822   0.199 -1.8825 -1.2164 -0.5579
 5915TIP3   OH239303   5.839   2.610   1.095  0.0725  0.3992 -0.3096
 5915TIP3    H139304   5.918   2.656   1.123  0.4912 -0.4206 -0.1000
 5915TIP3    H239305   5.872   2.533   1.047 -0.5567 -0.5760  0.7691
 5916TIP3   OH239306   2.480   6.608   1.700 -0.2008 -0.0237  0.2607
 5916TIP3    H139307   2.467   6.521   1.663 -1.0546  0.6095 -0.9639
 5916TIP3    H239308   2.574   6.611   1.721 -0.0049 -0.9461 -0.4215
 5917TIP3   OH239309   0.026   0.572   7.917 -0.3489 -0.0483 -0.0384
 5917TIP3    H139310  -0.035   0.507   7.952 -0.1046 -1.1556 -1.5753
 5917TIP3    H239311  -0.004   0.655   7.955 -1.4872 -0.8570  0.9222
 5918TIP3   OH239312   3.655   4.415   1.242  0.2277  0.0730 -0.4350
 5918TIP3    H139313   3.711   4.341   1.219 -0.0354 -0.0079 -0.8346
 5918TIP3    H239314   3.609   4.386   1.321  1.0612  0.3094  0.1450
 5919TIP3   OH239315   2.792   6.716   0.068 -0.1170  0.0191 -0.0194
 5919TIP3    H139316   2.698   6.702   0.081  0.2257 -1.3513  1.3945
 5919TIP3    H239317   2.806   6.702  -0.026 -1.5704  2.1021 -0.6069
 5920TIP3   OH239318   2.308   0.415   0.408 -0.4253  0.1288 -0.4375
 5920TIP3    H139319   2.234   0.383   0.458  0.4528  0.7120  1.2991
 5920TIP3    H239320   2.373   0.345   0.411 -0.4782  0.0395 -1.0638
 5921TIP3   OH239321   0.994   2.204   2.399  0.2401  0.4340  0.1001
 5921TIP3    H139322   1.005   2.110   2.406  0.5761  0.3847 -0.9863
 5921TIP3    H239323   0.918   2.223   2.453 -0.9536 -0.7125 -1.1092
 5922TIP3   OH239324   1.195   1.805   7.524  0.6653 -0.3879 -0.0388
 5922TIP3    H139325   1.184   1.835   7.615 -0.5629  0.1506 -0.3438
 5922TIP3    H239326   1.254   1.730   7.531 -0.5352 -1.2758  1.4034
 5923TIP3   OH239327   2.631   1.923   0.350 -0.4176 -0.0169 -0.2348
 5923TIP3    H139328   2.546   1.880   0.356 -3.1263  4.7202  0.5363
 5923TIP3    H239329   2.673   1.908   0.435 -2.1670  0.5081  0.7568
 5924TIP3   OH239330   2.030   5.109   1.670 -0.4967 -0.1086 -0.1237
 5924TIP3    H139331   2.105   5.093   1.613  0.5480  2.0654  0.5497
 5924TIP3    H239332   1.966   5.043   1.643  0.1179  0.4424 -3.4798
 5925TIP3   OH239333   0.460   2.388   7.332 -0.5058 -0.5697  0.0971
 5925TIP3    H139334   0.407   2.336   7.393 -0.6095  0.2257  0.7018
 5925TIP3    H239335   0.396   2.443   7.286 -0.1778  0.9078  1.3292
 5926TIP3   OH239336   1.738   0.395   0.194 -0.2587  0.1063 -0.3142
 5926TIP3    H139337   1.780   0.313   0.168 -0.8987  0.2592 -1.9704
 5926TIP3    H239338   1.648   0.371   0.215 -0.1749  0.2318  0.1844
 5927TIP3   OH239339   4.372   5.558   7.093  0.2496 -0.3726 -0.4219
 5927TIP3    H139340   4.292   5.578   7.142 -1.3401 -1.3919 -2.4674
 5927TIP3    H239341   4.398   5.642   7.055  0.5704  0.0969  0.7859
 5928TIP3   OH239342   2.646   1.809   8.412  0.2928 -0.0691 -0.2816
 5928TIP3    H139343   2.600   1.726   8.406  0.7357 -0.2921 -0.5864
 5928TIP3    H239344   2.611   1.862   8.340  2.7243 -1.3339 -2.5472
 5929TIP3   OH239345   6.354   5.716   7.543  0.3523 -0.4986 -0.2143
 5929TIP3    H139346   6.352   5.803   7.502 -3.9046  0.0163  0.7137
 5929TIP3    H239347   6.330   5.656   7.472 -2.0692 -0.1910  0.2798
 5930TIP3   OH239348   4.538   3.811   1.423  0.1829  0.2043 -0.1411
 5930TIP3    H139349   4.531   3.824   1.517  0.7892 -0.6401  0.0363
 5930TIP3    H239350   4.448   3.815   1.391  0.1311  2.6063  0.1462
 5931TIP3   OH239351   4.353   6.680   7.424 -0.4412 -0.3553  0.7935
 5931TIP3    H139352   4.446   6.673   7.404 -0.6180 -0.0727 -0.1921
 5931TIP3    H239353   4.342   6.766   7.463 -0.4666  0.1287 -0.2409
 5932TIP3   OH239354   3.725   3.595   7.847  0.1837  0.1468  0.6383
 5932TIP3    H139355   3.749   3.512   7.804  1.4505  1.4463 -1.3573
 5932TIP3    H239356   3.806   3.647   7.845 -1.0037  2.0733  0.2550
 5933TIP3   OH239357   3.536   0.716   0.614  0.2776 -0.3826  0.1097
 5933TIP3    H139358   3.454   0.704   0.661 -0.0336  0.2664 -0.2498
 5933TIP3    H239359   3.604   0.690   0.677 -0.1782 -0.5155  0.5547
 5934TIP3   OH239360   1.747   2.988   0.830  0.2508 -0.2203  0.2784
 5934TIP3    H139361   1.731   2.921   0.897  2.1678 -1.6929 -0.6610
 5934TIP3    H239362   1.765   2.939   0.750  3.0118  1.2993 -0.1600
 5935TIP3   OH239363   4.640   4.186   7.336  0.4891  0.0289 -0.5005
 5935TIP3    H139364   4.686   4.207   7.254 -0.1414 -0.0692 -0.8855
 5935TIP3    H239365   4.610   4.271   7.368  0.8572  0.0829 -0.2947
 5936TIP3   OH239366   5.879   4.000   8.234 -0.1851 -0.3641  0.1867
 5936TIP3    H139367   5.887   4.083   8.281  0.2631 -1.2871  1.8326
 5936TIP3    H239368   5.786   3.996   8.210  0.0356  1.1712 -1.0677
 5937TIP3   OH239369   5.952   2.788   8.662  0.1181  0.4824  1.0196
 5937TIP3    H139370   5.984   2.770   8.751  0.9446  1.7003  0.9887
 5937TIP3    H239371   6.001   2.729   8.606  0.7992  0.8698  1.2017
 5938TIP3   OH239372   3.616   1.255   7.002 -0.1563 -0.0682 -0.4631
 5938TIP3    H139373   3.599   1.193   7.073  0.3160 -0.5498 -0.7627
 5938TIP3    H239374   3.552   1.324   7.015 -0.6309 -0.5725 -0.0667
 5939TIP3   OH239375   4.005   2.233   7.460  0.2835  0.3587  0.0798
 5939TIP3    H139376   4.013   2.173   7.533 -0.3599 -0.1699 -0.2793
 5939TIP3    H239377   3.919   2.272   7.469  0.0330 -0.0103 -0.6126
 5940TIP3   OH239378   5.542   5.377   7.545 -0.2655  0.2836  0.0311
 5940TIP3    H139379   5.512   5.363   7.635  1.5122 -0.0471  0.6059
 5940TIP3    H239380   5.620   5.321   7.536  0.0197  0.8685 -1.4803
 5941TIP3   OH239381   2.018   6.426   1.844 -0.4445 -0.0247 -0.1986
 5941TIP3    H139382   1.984   6.473   1.920 -1.5172 -0.9184 -0.1159
 5941TIP3    H239383   2.025   6.493   1.776 -0.8716  0.4818  0.2494
 5942TIP3   OH239384   3.551   5.469   7.985 -0.0820 -0.2145 -0.1218
 5942TIP3    H139385   3.508   5.390   8.017 -1.7453 -0.2625 -2.2630
 5942TIP3    H239386   3.629   5.437   7.939 -0.5928 -0.5956 -0.7295
 5943TIP3   OH239387   3.984   4.710   0.308 -0.3392 -0.6923 -0.2848
 5943TIP3    H139388   4.043   4.643   0.274 -0.4192 -1.2012  0.5650
 5943TIP3    H239389   3.980   4.776   0.238  0.9492 -0.8106 -0.4937
 5944TIP3   OH239390   4.286   0.345   6.779  0.1662 -0.0830  0.7112
 5944TIP3    H139391   4.342   0.274   6.748  0.2180  0.2638 -0.0112
 5944TIP3    H239392   4.329   0.376   6.859  0.5740 -0.3408  0.5956
 5945TIP3   OH239393   3.230   3.668   1.551 -0.0454  0.4180  0.1743
 5945TIP3    H139394   3.166   3.621   1.603 -0.9068  1.2610 -0.0878
 5945TIP3    H239395   3.307   3.674   1.606 -0.0222 -1.0205  0.3180
 5946TIP3   OH239396   5.722   2.502   6.397 -0.0952  0.0315  0.3789
 5946TIP3    H139397   5.752   2.575   6.452  2.3318 -0.1485 -0.5760
 5946TIP3    H239398   5.802   2.456   6.372 -1.3873 -1.7526 -0.7644
 5947TIP3   OH239399   2.654   3.793   0.078  0.2502  0.1457 -0.2157
 5947TIP3    H139400   2.580   3.792   0.018 -0.3895 -1.0599  0.5531
 5947TIP3    H239401   2.687   3.703   0.078  1.3103  0.5219 -0.0586
 5948TIP3   OH239402   2.200   2.401   8.461 -0.5959 -0.2255 -0.3700
 5948TIP3    H139403   2.179   2.470   8.398  0.3937  1.3220  0.9192
 5948TIP3    H239404   2.194   2.320   8.410  0.4615  0.9702 -2.5373
 5949TIP3   OH239405   6.246   1.034   6.537  0.1117 -0.4458 -0.1908
 5949TIP3    H139406   6.334   1.068   6.529 -0.8447  2.2421 -0.2834
 5949TIP3    H239407   6.226   0.998   6.451  0.9072 -0.5848 -0.3248
 5950TIP3   OH239408   6.023   6.781   1.106 -0.7349  0.1506  0.0329
 5950TIP3    H139409   5.928   6.773   1.116 -0.6905  0.1198  0.4302
 5950TIP3    H239410   6.055   6.691   1.102 -0.8033  0.1595 -0.9139
 5951TIP3   OH239411   1.259   3.418   1.994  0.3460 -0.6276  0.1557
 5951TIP3    H139412   1.215   3.486   1.944  0.6010 -0.2186  0.4817
 5951TIP3    H239413   1.217   3.336   1.966 -0.1973 -0.3041  0.0238
 5952TIP3   OH239414   0.844   2.518   7.108  0.4945 -0.3285 -0.0339
 5952TIP3    H139415   0.816   2.442   7.158  0.1923  0.8385  1.6250
 5952TIP3    H239416   0.818   2.498   7.018 -1.3058 -1.3803  0.6641
 5953TIP3   OH239417   0.281   1.612   7.463  0.0237  0.1599  0.2735
 5953TIP3    H139418   0.215   1.675   7.434 -0.2791  0.3176  1.2381
 5953TIP3    H239419   0.362   1.641   7.422 -0.2611  0.7416  0.1146
 5954TIP3   OH239420   1.701   5.204   8.533  0.1516  0.1113 -0.0957
 5954TIP3    H139421   1.685   5.238   8.621 -1.1200  1.6075 -0.8497
 5954TIP3    H239422   1.617   5.214   8.488  1.1651  0.8836 -1.9315
 5955TIP3   OH239423   5.062   2.757   2.214 -0.1351 -0.2341  0.8683
 5955TIP3    H139424   4.989   2.705   2.247 -1.4617 -0.2690 -1.8109
 5955TIP3    H239425   5.137   2.699   2.216 -0.7502 -1.0220  1.4003
 5956TIP3   OH239426   4.308   1.092   2.120 -0.1838 -0.5522 -0.2181
 5956TIP3    H139427   4.234   1.147   2.096 -0.6283 -1.0971 -0.1331
 5956TIP3    H239428   4.303   1.085   2.215 -0.9035 -1.7607 -0.3136
 5957TIP3   OH239429   1.887   6.766   8.396 -0.0470  0.4995  0.0570
 5957TIP3    H139430   1.926   6.825   8.331  1.2064  0.2840  0.5772
 5957TIP3    H239431   1.797   6.796   8.404  0.5645  2.4375  0.3865
 5958TIP3   OH239432   1.346   5.536   2.043  0.1650 -0.2458 -0.4804
 5958TIP3    H139433   1.319   5.628   2.040 -0.1281 -0.2958  0.4515
 5958TIP3    H239434   1.295   5.498   2.113  1.4881 -0.7365  0.2570
 5959TIP3   OH239435   4.364   4.278   8.667  0.0256 -0.3972 -0.1717
 5959TIP3    H139436   4.377   4.369   8.643  0.7808 -0.8362 -1.5267
 5959TIP3    H239437   4.321   4.239   8.592 -0.4716 -1.1211  0.4761
 5960TIP3   OH239438   0.198   4.685   8.502 -0.3389 -0.2537  0.9703
 5960TIP3    H139439   0.161   4.766   8.537  0.6146  0.7700 -0.3099
 5960TIP3    H239440   0.281   4.674   8.548 -0.5113 -0.5803  1.2130
 5961TIP3   OH239441   5.511   5.974   1.374 -0.9368 -0.1592  0.7541
 5961TIP3    H139442   5.498   5.955   1.281 -1.1699  0.8459  0.5754
 5961TIP3    H239443   5.602   5.949   1.391 -0.0472  2.0806 -0.3874
 5962TIP3   OH239444   6.043   0.272   0.079 -0.1904 -0.1330  0.2198
 5962TIP3    H139445   6.106   0.240   0.143  1.3895 -0.8256 -1.5753
 5962TIP3    H239446   5.959   0.271   0.125  0.7857 -1.0398  2.0997
 5963TIP3   OH239447   4.322   5.711   0.783 -0.2272  0.3599  0.3236
 5963TIP3    H139448   4.315   5.734   0.876  1.5624 -2.0214  1.1312
 5963TIP3    H239449   4.408   5.670   0.774  1.3034  3.7309 -3.1994
 5964TIP3   OH239450   3.753   0.529   7.941  0.3392  0.1101  0.4581
 5964TIP3    H139451   3.797   0.579   8.009  3.6196 -2.0361  0.1312
 5964TIP3    H239452   3.750   0.439   7.975 -2.3528 -0.2113 -0.3193
 5965TIP3   OH239453   2.198   0.045   7.012 -0.3729  0.4491  0.0585
 5965TIP3    H139454   2.269   0.049   6.948 -0.9774  1.3319 -0.5804
 5965TIP3    H239455   2.149   0.126   6.999 -2.8900 -1.1065 -1.1686
 5966TIP3   OH239456   4.350   4.099   6.863  0.2126 -0.5781 -0.3893
 5966TIP3    H139457   4.420   4.052   6.818  0.3205 -2.6759  1.7500
 5966TIP3    H239458   4.394   4.142   6.937 -0.6970 -2.2162  1.1887
 5967TIP3   OH239459   1.643   3.590   7.647  0.0581  0.5015  0.6035
 5967TIP3    H139460   1.572   3.564   7.705  1.4343 -0.1707  2.0802
 5967TIP3    H239461   1.668   3.509   7.601  1.1987  0.2280  1.6457
 5968TIP3   OH239462   1.951   4.253   8.162  0.0286  0.2180 -0.2181
 5968TIP3    H139463   1.879   4.276   8.104 -1.0779  0.2479  1.1087
 5968TIP3    H239464   2.006   4.194   8.110 -1.1082 -0.0374 -1.1672
 5969TIP3   OH239465   1.459   1.383   2.336  0.5040  0.3042 -0.1973
 5969TIP3    H139466   1.454   1.303   2.284 -1.4269 -0.7541  1.4745
 5969TIP3    H239467   1.505   1.356   2.416  1.1267  1.2508 -0.2218
 5970TIP3   OH239468   2.840   1.098   0.334  0.5496  0.0109 -0.5254
 5970TIP3    H139469   2.925   1.118   0.372  0.4171 -0.4568  0.0420
 5970TIP3    H239470   2.850   1.009   0.298  0.2396 -0.1291 -0.2684
 5971TIP3   OH239471   2.072   0.803   7.050 -0.4164  0.5627 -0.0226
 5971TIP3    H139472   2.157   0.782   7.091 -0.9702 -1.2803  0.2911
 5971TIP3    H239473   2.096   0.845   6.967  0.8029  0.3999  0.2177
 5972TIP3   OH239474   6.287   2.849   8.331  0.5782 -0.0292 -0.6477
 5972TIP3    H139475   6.353   2.846   8.400 -0.3660  0.8669  0.3295
 5972TIP3    H239476   6.335   2.826   8.251  2.1485  0.9559 -0.0283
 5973TIP3   OH239477   3.851   5.786   0.456 -0.1468 -0.0441 -0.5451
 5973TIP3    H139478   3.905   5.735   0.518  0.0732  1.0759  0.2066
 5973TIP3    H239479   3.896   5.776   0.372  0.3190 -0.4710 -0.2542
 5974TIP3   OH239480   0.398   4.430   0.024  0.2089 -0.0153 -0.6231
 5974TIP3    H139481   0.390   4.448   0.117  0.2225 -1.1069 -0.3939
 5974TIP3    H239482   0.493   4.429   0.007  0.1945  0.7758 -0.7815
 5975TIP3   OH239483   2.237   5.806   0.096  0.1426  0.0088 -0.0669
 5975TIP3    H139484   2.329   5.783   0.082  0.0564 -0.0627 -0.5326
 5975TIP3    H239485   2.232   5.826   0.189  0.0855 -2.5689  0.5806
 5976TIP3   OH239486   3.163   0.144   7.687  0.1066  0.2831  0.4229
 5976TIP3    H139487   3.221   0.217   7.666  0.1040  0.2053  0.1378
 5976TIP3    H239488   3.075   0.182   7.683  0.1854  0.7139  2.1286
 5977TIP3   OH239489   3.734   4.744   8.681 -0.5552 -0.1107  0.2858
 5977TIP3    H139490   3.667   4.679   8.660  1.2721 -1.7504 -0.8045
 5977TIP3    H239491   3.724   4.759   8.775 -1.5851 -1.3174  0.3976
 5978TIP3   OH239492   3.275   6.027   0.535  0.2219 -0.0660 -0.1672
 5978TIP3    H139493   3.270   6.028   0.440 -1.6818 -0.7221 -0.1135
 5978TIP3    H239494   3.329   5.951   0.556  0.9847  0.3182 -0.7250
 5979TIP3   OH239495   3.105   0.803   0.179  0.5008 -0.1198 -0.4880
 5979TIP3    H139496   3.028   0.809   0.234  1.0527 -0.8742  0.3888
 5979TIP3    H239497   3.073   0.766   0.096 -0.4405  1.6088 -0.9465
 5980TIP3   OH239498   4.119   1.394   7.925 -0.7168 -0.5309 -0.0317
 5980TIP3    H139499   4.214   1.397   7.918 -0.7899  0.5376 -0.7589
 5980TIP3    H239500   4.093   1.323   7.866 -0.4555  0.1639 -1.0097
 5981TIP3   OH239501   1.421   5.271   0.140 -0.5122 -0.3537 -0.0698
 5981TIP3    H139502   1.380   5.333   0.200  0.1435 -0.0876  0.1060
 5981TIP3    H239503   1.409   5.310   0.053  0.5949  0.4241  0.1117
 5982TIP3   OH239504   5.505   6.005   8.668  0.0960 -0.9249 -0.2071
 5982TIP3    H139505   5.435   5.976   8.610  1.4866 -1.0687 -1.9006
 5982TIP3    H239506   5.532   5.927   8.716 -0.2201 -1.0743 -0.2728
 5983TIP3   OH239507   0.259   5.090   0.105  0.3378  0.6222 -0.0063
 5983TIP3    H139508   0.188   5.134   0.151  1.5635  2.9622 -0.1483
 5983TIP3    H239509   0.216   5.033   0.042 -1.3714 -1.4027  2.7747
 5984TIP3   OH239510   5.020   4.894   8.030  0.5060  0.1183 -0.2161
 5984TIP3    H139511   4.983   4.812   7.997  1.4285 -0.4064  0.0173
 5984TIP3    H239512   5.097   4.910   7.975  0.3316  0.8324 -0.2627
 5985TIP3   OH239513   0.481   6.335   1.299  0.2160 -0.0438  0.4042
 5985TIP3    H139514   0.465   6.310   1.208 -0.2817 -0.9897  0.7387
 5985TIP3    H239515   0.526   6.419   1.293 -1.0880  0.6146 -0.6827
 5986TIP3   OH239516   1.891   4.058   0.122  0.2755  0.1612 -0.1434
 5986TIP3    H139517   1.884   4.072   0.028  0.4997 -0.4007 -0.2455
 5986TIP3    H239518   1.941   3.977   0.131 -0.9924 -0.5826  0.4304
 5987TIP3   OH239519   0.388   3.234   1.508 -0.3730 -0.4252 -0.0225
 5987TIP3    H139520   0.357   3.202   1.424 -0.3030 -2.7739  0.7604
 5987TIP3    H239521   0.477   3.199   1.516  0.2199  1.1132  0.3520
 5988TIP3   OH239522   3.175   3.382   8.726  0.3600 -0.1218  0.4996
 5988TIP3    H139523   3.142   3.319   8.661 -1.9818  0.4676  1.0326
 5988TIP3    H239524   3.205   3.327   8.799 -0.1184 -0.6866  0.2792
 5989TIP3   OH239525   0.187   2.227   0.567 -0.2890  0.4484 -0.8358
 5989TIP3    H139526   0.266   2.260   0.524 -0.7282 -0.6628 -2.6254
 5989TIP3    H239527   0.220   2.180   0.644  0.6407  1.4050 -0.6286
 5990TIP3   OH239528   6.645   5.040   1.435 -0.3412 -0.3092  0.5672
 5990TIP3    H139529   6.561   4.995   1.426 -1.0019  0.6974  1.4139
 5990TIP3    H239530   6.622   5.132   1.448  0.9695  0.2669 -0.8804
 5991TIP3   OH239531   1.187   3.285   8.645 -0.0624  0.0053 -0.4408
 5991TIP3    H139532   1.130   3.304   8.570  0.4343  1.1596 -0.5555
 5991TIP3    H239533   1.271   3.323   8.621 -0.0386  0.8680  0.9108
 5992TIP3   OH239534   1.058   5.731   2.094  0.0263  0.0786  0.0104
 5992TIP3    H139535   1.037   5.644   2.127  0.9657 -0.6215 -1.1401
 5992TIP3    H239536   1.143   5.752   2.134 -0.5808  0.8471  0.9395
 5993TIP3   OH239537   0.621   0.328   1.203 -0.5560 -0.5971  0.7259
 5993TIP3    H139538   0.534   0.290   1.187  1.3075 -4.9159 -0.8242
 5993TIP3    H239539   0.664   0.325   1.117  1.2470  1.1733  1.4896
 5994TIP3   OH239540   5.675   3.380   6.025  0.4535  0.5832 -0.4871
 5994TIP3    H139541   5.682   3.470   5.994  1.6751  0.8315  0.4106
 5994TIP3    H239542   5.753   3.367   6.079 -1.7310  0.3893  2.9308
 5995TIP3   OH239543   1.732   2.774   8.264  0.3325 -0.3818  0.0655
 5995TIP3    H139544   1.712   2.681   8.254  0.5489 -0.4492  0.2594
 5995TIP3    H239545   1.733   2.808   8.174 -0.9697 -0.3088  0.0606
 5996TIP3   OH239546   3.964   1.880   0.630 -0.1651  0.6378  0.0266
 5996TIP3    H139547   3.972   1.970   0.599  0.0573  0.7768  0.4753
 5996TIP3    H239548   3.935   1.830   0.554  0.7112  0.9091 -0.4989
 5997TIP3   OH239549   6.301   0.987   2.018  0.1476  0.7366 -0.2066
 5997TIP3    H139550   6.347   1.070   2.013  0.8235  0.4633  1.1101
 5997TIP3    H239551   6.231   0.994   1.953 -0.7856  2.9244  0.9529
 5998TIP3   OH239552   5.342   2.374   8.555 -0.3265 -0.0687  0.4501
 5998TIP3    H139553   5.342   2.327   8.471 -0.7819 -1.6675  1.2923
 5998TIP3    H239554   5.435   2.382   8.578 -0.2365 -0.6405  0.3168
 5999TIP3   OH239555   2.709   3.437   7.188  0.5226  0.4398  0.3302
 5999TIP3    H139556   2.704   3.416   7.281 -0.4437 -1.8512 -0.1388
 5999TIP3    H239557   2.740   3.355   7.147  0.8065  1.3492 -1.3659
 6000TIP3   OH239558   3.904   1.201   6.723  0.1738 -0.4534 -0.1532
 6000TIP3    H139559   3.920   1.114   6.685 -0.5973 -0.5484 -0.2930
 6000TIP3    H239560   3.813   1.219   6.701  0.2056  0.2095  0.2483
 6001TIP3   OH239561   1.258   4.350   7.984 -0.2336  0.0145  0.0382
 6001TIP3    H139562   1.339   4.314   8.020 -0.4670 -0.4131  0.1314
 6001TIP3    H239563   1.287   4.427   7.934  0.0103  1.0679  1.7385
 6002TIP3   OH239564   6.778   2.871   0.375 -0.4148 -0.0262  0.1378
 6002TIP3    H139565   6.848   2.918   0.422  1.1563 -1.6144 -0.4855
 6002TIP3    H239566   6.801   2.881   0.283 -0.2818 -1.5731 -0.0308
 6003TIP3   OH239567   2.392   4.035   6.958 -0.0416 -0.0045  0.3130
 6003TIP3    H139568   2.357   4.030   6.869  1.5525  0.9485 -0.4277
 6003TIP3    H239569   2.395   3.944   6.988 -1.7338 -0.2241 -0.1164
 6004TIP3   OH239570   5.930   1.018   2.263  0.4148 -0.5819  0.2368
 6004TIP3    H139571   5.954   0.931   2.294 -2.5237 -1.4993  0.2678
 6004TIP3    H239572   5.858   1.002   2.201  1.9738  1.6281 -2.3368
 6005TIP3   OH239573   1.516   0.936   0.466 -0.7214  0.1348 -0.1656
 6005TIP3    H139574   1.441   0.925   0.524 -2.0569  0.3666 -1.7450
 6005TIP3    H239575   1.513   1.028   0.441  0.7197  0.3889  0.5207
 6006TIP3   OH239576   5.736   3.451   1.178  0.7298 -0.0499  0.1475
 6006TIP3    H139577   5.690   3.382   1.226  1.7376  0.2078  1.5752
 6006TIP3    H239578   5.668   3.513   1.154  0.3996  1.2041  3.6828
 6007TIP3   OH239579   1.976   0.099   7.348 -0.1028 -0.4947  0.5462
 6007TIP3    H139580   1.988   0.013   7.389 -0.0253  0.1819  1.9878
 6007TIP3    H239581   1.930   0.151   7.414  0.6026  0.8327  0.0204
 6008TIP3   OH239582   3.161   1.777   2.286 -0.6843  0.0875 -0.2231
 6008TIP3    H139583   3.134   1.689   2.313  0.8248 -0.3351  0.0092
 6008TIP3    H239584   3.253   1.767   2.261  0.1021  1.9424  1.6560
 6009TIP3   OH239585   6.146   3.627   0.839  0.2324 -0.4766  0.1034
 6009TIP3    H139586   6.235   3.632   0.804 -0.2609 -0.7477 -1.2709
 6009TIP3    H239587   6.127   3.714   0.872  0.3831  0.0814 -1.2362
 6010TIP3   OH239588   1.301   5.797   2.180 -0.2032  0.1071 -0.2745
 6010TIP3    H139589   1.332   5.729   2.239 -1.1500  0.3163  0.4865
 6010TIP3    H239590   1.369   5.865   2.185  0.3737 -0.4424 -0.4642
 6011TIP3   OH239591   4.120   4.916   1.313  0.4189 -0.0916 -0.1888
 6011TIP3    H139592   4.192   4.979   1.307  0.4978 -0.0964  0.5667
 6011TIP3    H239593   4.057   4.958   1.371  0.3812 -0.6122  0.1582
 6012TIP3   OH239594   3.918   4.837   7.618 -0.5024 -0.2443 -0.1914
 6012TIP3    H139595   3.970   4.831   7.698 -0.7810 -3.3177 -0.1438
 6012TIP3    H239596   3.981   4.855   7.549 -0.0175  0.5318  0.4329
 6013TIP3   OH239597   0.061   5.712   0.797 -0.4760 -0.5842  0.4822
 6013TIP3    H139598   0.019   5.797   0.814 -1.0002 -1.1181  2.0273
 6013TIP3    H239599   0.009   5.674   0.727 -2.2560 -0.9424  1.9119
 6014TIP3   OH239600   3.388   1.769   6.962  0.6631  0.3740  0.0262
 6014TIP3    H139601   3.402   1.772   6.867  0.2916 -1.5315 -0.1317
 6014TIP3    H239602   3.313   1.710   6.973  1.9283 -1.0616  1.5855
 6015TIP3   OH239603   0.768   6.636   0.743 -0.0800 -0.2058  0.6095
 6015TIP3    H139604   0.834   6.592   0.795 -0.2443  0.0972  1.0786
 6015TIP3    H239605   0.696   6.573   0.736 -0.2917 -0.0337  1.2298
 6016TIP3   OH239606   1.807   3.060   6.384  0.2218  0.0588  0.3320
 6016TIP3    H139607   1.844   3.131   6.437 -0.6420  1.9292 -1.3877
 6016TIP3    H239608   1.732   3.029   6.435 -0.7400  1.9756  0.2129
 6017TIP3   OH239609   5.422   3.431   7.399  0.4848 -0.0512  1.1441
 6017TIP3    H139610   5.455   3.518   7.420 -1.0555  1.2821 -1.4688
 6017TIP3    H239611   5.429   3.425   7.304  1.7333 -3.3496  1.3106
 6018TIP3   OH239612   6.780   2.469   1.793  0.2628  0.2873  0.0419
 6018TIP3    H139613   6.785   2.488   1.887  1.2710 -1.1245  0.2878
 6018TIP3    H239614   6.726   2.541   1.758 -1.0204  0.2808  1.8407
 6019TIP3   OH239615   4.080   2.517   7.592  0.8488  0.1561 -0.3166
 6019TIP3    H139616   4.148   2.461   7.628  0.1227  0.5152  1.7807
 6019TIP3    H239617   4.022   2.457   7.544  1.2339 -0.5490  0.0895
 6020TIP3   OH239618   6.122   1.891   0.956  0.0266 -0.3202 -0.3648
 6020TIP3    H139619   6.070   1.816   0.929 -0.9988 -0.4447  1.7516
 6020TIP3    H239620   6.187   1.855   1.016  1.4319  0.1135 -1.5550
 6021TIP3   OH239621   6.201   3.689   1.784 -0.9389 -0.2811  0.2237
 6021TIP3    H139622   6.223   3.601   1.814 -0.4034 -0.3694 -0.4036
 6021TIP3    H239623   6.198   3.742   1.863  1.3809 -0.2938  0.3643
 6022TIP3   OH239624   3.074   0.274   1.394 -0.0471 -0.1412  0.5535
 6022TIP3    H139625   2.980   0.273   1.410 -0.0089 -1.6848  0.9254
 6022TIP3    H239626   3.094   0.184   1.366  1.5387 -0.2966  1.9966
 6023TIP3   OH239627   3.450   2.744   7.531  0.2934  0.1093  0.1697
 6023TIP3    H139628   3.487   2.772   7.615  0.5447 -0.2051  0.1700
 6023TIP3    H239629   3.355   2.743   7.545  0.2969  0.7128  0.2396
 6024TIP3   OH239630   2.592   0.874   8.421 -0.5286  0.2331 -0.5154
 6024TIP3    H139631   2.510   0.917   8.446 -0.0165  0.0223  1.6714
 6024TIP3    H239632   2.600   0.800   8.481  1.7885  0.8918  0.0907
 6025TIP3   OH239633   1.149   4.234   0.447  0.2645  0.5246  0.0708
 6025TIP3    H139634   1.129   4.317   0.405 -0.8646  0.1862 -0.0689
 6025TIP3    H239635   1.208   4.189   0.386 -0.6703  0.4035 -0.7510
 6026TIP3   OH239636   2.307   5.384   1.007  0.1605  0.3625 -0.0889
 6026TIP3    H139637   2.287   5.402   1.099  0.1556 -0.1587  0.0198
 6026TIP3    H239638   2.389   5.333   1.010 -0.7884 -1.2457 -0.2342
 6027TIP3   OH239639   6.271   1.755   0.738 -0.1342 -0.1044 -0.2707
 6027TIP3    H139640   6.209   1.694   0.699 -1.2991  0.5493  0.4951
 6027TIP3    H239641   6.226   1.839   0.738  1.3853  0.7621 -1.1672
 6028TIP3   OH239642   2.691   0.684   7.778  0.1682 -0.0297 -0.0369
 6028TIP3    H139643   2.649   0.768   7.757 -0.5507 -0.5971 -0.9699
 6028TIP3    H239644   2.617   0.625   7.794  0.6547 -0.6297 -0.0004
 6029TIP3   OH239645   1.996   6.469   7.604  0.1807  0.0037 -0.7506
 6029TIP3    H139646   1.929   6.407   7.573 -0.4345  0.5173 -0.4861
 6029TIP3    H239647   2.079   6.428   7.580 -0.1955 -1.0936 -0.2724
 6030TIP3   OH239648   1.358   1.120   6.495  0.5632  0.1846 -0.1489
 6030TIP3    H139649   1.299   1.127   6.570  0.5359 -1.0937 -0.0304
 6030TIP3    H239650   1.336   1.037   6.454  2.6428 -0.6503  0.2516
 6031TIP3   OH239651   5.107   2.958   2.008 -0.4325  0.0300  0.1428
 6031TIP3    H139652   5.164   2.883   1.990  0.2311  0.7304 -0.7293
 6031TIP3    H239653   5.147   3.001   2.084 -0.1772  0.1277 -0.0443
 6032TIP3   OH239654   4.887   1.100   6.856  0.3938 -0.1603 -0.2569
 6032TIP3    H139655   4.910   1.098   6.949 -1.0388  4.2109  0.4210
 6032TIP3    H239656   4.791   1.093   6.854  0.4374 -0.9387 -1.5566
 6033TIP3   OH239657   2.197   0.566   7.251 -0.3949  0.0238  0.1570
 6033TIP3    H139658   2.137   0.537   7.182  1.1761 -0.4264 -1.0822
 6033TIP3    H239659   2.187   0.501   7.320  0.6765 -1.6985 -1.2218
 6034TIP3   OH239660   5.913   3.438   0.930 -0.4711  0.8153 -0.2543
 6034TIP3    H139661   5.848   3.456   0.997  0.6898  0.9128  0.8696
 6034TIP3    H239662   5.973   3.512   0.933  2.0055 -1.1134  1.5771
 6035TIP3   OH239663   4.879   4.214   6.903  0.0802  0.2737  0.7080
 6035TIP3    H139664   4.852   4.231   6.812  1.4430 -1.4050 -0.0609
 6035TIP3    H239665   4.850   4.125   6.920  0.7063  0.2361  1.6081
 6036TIP3   OH239666   0.178   5.620   6.837 -0.3093  0.9295  0.4246
 6036TIP3    H139667   0.172   5.533   6.799  0.7616  2.3036 -3.3248
 6036TIP3    H239668   0.251   5.614   6.898  1.1830 -0.3568 -1.3614
 6037TIP3   OH239669   3.805   1.911   1.514 -0.3318 -0.3000  0.3991
 6037TIP3    H139670   3.872   1.880   1.576 -0.0851  0.7097  0.6438
 6037TIP3    H239671   3.819   1.858   1.436 -1.0197 -2.0257  1.3771
 6038TIP3   OH239672   5.524   5.765   6.255  0.0702 -0.0953  0.7016
 6038TIP3    H139673   5.616   5.787   6.269  0.3557 -1.0838  0.4904
 6038TIP3    H239674   5.475   5.829   6.306  0.9091 -0.2530  1.7283
 6039TIP3   OH239675   2.977   5.059   7.348 -0.1027 -0.3782  0.1796
 6039TIP3    H139676   2.896   5.080   7.301  0.2132  0.1061 -0.1628
 6039TIP3    H239677   3.045   5.064   7.281  0.5158  1.4252  0.8985
 6040TIP3   OH239678   1.214   2.634   8.148 -0.0631 -0.2557 -0.0636
 6040TIP3    H139679   1.302   2.596   8.148 -0.7718 -1.9816 -0.3504
 6040TIP3    H239680   1.201   2.664   8.238  0.8023 -0.0162 -0.0121
 6041TIP3   OH239681   6.644   0.276   1.365  0.0488  0.1581 -0.1412
 6041TIP3    H139682   6.585   0.330   1.313 -0.1338 -1.4788 -1.7729
 6041TIP3    H239683   6.605   0.188   1.361  1.2102 -0.4373  0.9488
 6042TIP3   OH239684   5.985   3.340   1.321  0.5471  0.7564  0.2950
 6042TIP3    H139685   5.986   3.406   1.251  0.7668  0.1840 -0.2514
 6042TIP3    H239686   6.077   3.331   1.347  0.6067  0.2275 -0.0662
 6043TIP3   OH239687   5.921   2.944   7.555  0.2198 -0.1755  0.2888
 6043TIP3    H139688   5.885   2.940   7.467  1.2053 -2.4625 -0.0597
 6043TIP3    H239689   5.851   2.911   7.611  0.5098 -1.2503  0.0320
 6044TIP3   OH239690   1.955   1.071   7.206  0.9010 -0.3804  0.0184
 6044TIP3    H139691   1.975   1.131   7.278 -2.1011  2.4140 -1.2619
 6044TIP3    H239692   2.000   1.109   7.130 -2.0357  1.2448 -1.0829
 6045TIP3   OH239693   0.766   3.205   7.775  0.0323  0.1801  0.0460
 6045TIP3    H139694   0.840   3.160   7.816  0.8519  0.8213 -0.6817
 6045TIP3    H239695   0.693   3.192   7.835  0.9331  0.2042  1.1744
 6046TIP3   OH239696   3.966   2.044   1.190  1.0228  0.1331  0.0230
 6046TIP3    H139697   3.958   1.983   1.117  0.8958 -0.8122  0.8013
 6046TIP3    H239698   3.991   2.127   1.150 -0.0288 -0.1108 -1.1873
 6047TIP3   OH239699   6.622   2.858   8.315 -0.5875  0.0532 -0.1796
 6047TIP3    H139700   6.555   2.807   8.270 -0.3993 -0.2199 -0.1483
 6047TIP3    H239701   6.612   2.834   8.407  0.2745 -0.8200 -0.3029
 6048TIP3   OH239702   0.806   0.284   6.917  0.1889  0.0143  0.1127
 6048TIP3    H139703   0.752   0.235   6.979 -0.3059  0.8997  0.4015
 6048TIP3    H239704   0.765   0.267   6.832  0.4074 -0.5860  0.1256
 6049TIP3   OH239705   4.518   4.933   7.646 -0.3852 -0.1843  0.2592
 6049TIP3    H139706   4.614   4.936   7.652 -0.0100 -0.9613 -3.0848
 6049TIP3    H239707   4.489   5.016   7.683  1.7447  0.9086 -0.3503
 6050TIP3   OH239708   1.785   3.700   1.385  0.2145 -0.0140  0.1257
 6050TIP3    H139709   1.720   3.746   1.332  1.6576  0.3676 -1.3759
 6050TIP3    H239710   1.767   3.729   1.475 -0.1510  2.0111 -0.5382
 6051TIP3   OH239711   6.049   0.363   7.063 -0.1280 -0.1536  0.3858
 6051TIP3    H139712   6.039   0.288   7.123 -0.0222 -0.9342 -0.5423
 6051TIP3    H239713   6.035   0.325   6.976  2.6548  0.3058 -0.3573
 6052TIP3   OH239714   4.486   2.269   8.572  0.2090 -0.7999 -0.0663
 6052TIP3    H139715   4.471   2.349   8.521 -0.2618 -0.5575  0.4375
 6052TIP3    H239716   4.473   2.198   8.510 -1.2109 -0.5377 -0.1122
 6053TIP3   OH239717   6.620   0.694   7.706 -0.1688 -0.4416  0.0970
 6053TIP3    H139718   6.558   0.634   7.748  1.3043 -1.8016  0.4254
 6053TIP3    H239719   6.596   0.692   7.613 -1.0115 -0.4268  0.3057
 6054TIP3   OH239720   2.335   3.887   7.449  0.0789  0.1567  0.3209
 6054TIP3    H139721   2.406   3.927   7.500 -0.1476 -1.7668  2.2541
 6054TIP3    H239722   2.377   3.817   7.400 -0.0383  0.8182 -0.7655
 6055TIP3   OH239723   6.262   5.852   1.067 -0.0913  0.1324 -0.8077
 6055TIP3    H139724   6.270   5.817   0.979  1.1413 -1.3830 -0.1176
 6055TIP3    H239725   6.346   5.893   1.085 -0.1337 -0.0728 -0.1148
 6056TIP3   OH239726   4.729   0.601   1.643  0.1925 -0.2076  0.1674
 6056TIP3    H139727   4.781   0.615   1.722  2.2061  1.0100 -1.2695
 6056TIP3    H239728   4.709   0.689   1.612  0.5528 -0.6307 -1.3455
 6057TIP3   OH239729   6.009   4.370   0.518  0.3352 -0.5747 -0.5089
 6057TIP3    H139730   5.980   4.377   0.609  1.1908  3.5697 -0.3198
 6057TIP3    H239731   6.104   4.371   0.523  0.3939 -0.9544 -1.4205
 6058TIP3   OH239732   5.081   1.275   0.182 -0.7027  0.0577 -0.0131
 6058TIP3    H139733   5.165   1.318   0.198 -1.2851  0.5876  1.9559
 6058TIP3    H239734   5.076   1.207   0.250 -1.8568  0.0219 -0.1076
 6059TIP3   OH239735   6.181   5.305   2.087  0.0522  0.8694 -0.6494
 6059TIP3    H139736   6.105   5.312   2.029 -1.4916 -0.3656  1.0637
 6059TIP3    H239737   6.176   5.383   2.142  0.5468  1.2302 -1.1190
 6060TIP3   OH239738   1.268   3.857   7.731 -0.1279  0.7017  0.0492
 6060TIP3    H139739   1.255   3.951   7.737 -0.0803  0.6895  0.3359
 6060TIP3    H239740   1.264   3.838   7.637 -0.0089  1.0056 -0.0162
 6061TIP3   OH239741   2.294   6.760   0.614  0.0267 -0.1107 -0.0474
 6061TIP3    H139742   2.259   6.709   0.687 -0.1313 -1.1021 -0.7819
 6061TIP3    H239743   2.340   6.833   0.654  0.8401 -1.2021  1.0792
 6062TIP3   OH239744   2.583   0.156   0.096 -0.1881  0.6065 -0.3224
 6062TIP3    H139745   2.499   0.198   0.079 -0.7905 -0.2779  0.3832
 6062TIP3    H239746   2.569   0.064   0.075  0.3344  0.2933  0.6338
 6063TIP3   OH239747   2.030   5.701   0.474 -0.1397  0.1619  0.4131
 6063TIP3    H139748   2.044   5.646   0.396 -1.6271 -0.0145  0.2356
 6063TIP3    H239749   2.082   5.659   0.543  0.8503  0.0716 -0.3596
 6064TIP3   OH239750   5.603   0.973   7.801 -0.2773  0.5076  0.0966
 6064TIP3    H139751   5.588   0.988   7.894 -2.6442 -0.2763 -0.1063
 6064TIP3    H239752   5.682   0.919   7.798 -1.3427 -1.3130  1.8386
 6065TIP3   OH239753   2.061   6.664   1.696  0.6579  0.5218  0.3485
 6065TIP3    H139754   2.095   6.692   1.611 -0.6741 -0.8202 -0.6977
 6065TIP3    H239755   2.125   6.695   1.760  3.5740 -1.3534 -1.4211
 6066TIP3   OH239756   3.298   5.758   0.308 -0.4209  0.5879  0.4336
 6066TIP3    H139757   3.384   5.799   0.304 -0.1183 -0.0436  0.2068
 6066TIP3    H239758   3.270   5.769   0.399  0.1976  0.2279  0.6763
 6067TIP3   OH239759   6.099   2.039   6.697  0.1861  0.4597  0.4119
 6067TIP3    H139760   6.055   2.125   6.700  0.0764  0.7412 -3.5117
 6067TIP3    H239761   6.027   1.976   6.693  0.1615  0.5230 -0.4736
 6068TIP3   OH239762   1.326   5.590   8.457  0.6607 -0.2454  0.2792
 6068TIP3    H139763   1.323   5.567   8.364  1.3428 -1.8587  0.6136
 6068TIP3    H239764   1.238   5.571   8.489  0.6282 -0.3877  0.1102
 6069TIP3   OH239765   0.418   3.629   1.024  0.7756 -0.0052  0.7047
 6069TIP3    H139766   0.332   3.651   1.058  0.8702 -1.4137  1.9594
 6069TIP3    H239767   0.456   3.713   0.996 -0.4286  0.8087  1.4483
 6070TIP3   OH239768   5.383   2.150   8.286  0.8071 -0.4667  0.2831
 6070TIP3    H139769   5.423   2.095   8.218  0.2749  0.6555 -0.9704
 6070TIP3    H239770   5.386   2.239   8.250 -0.3465  0.0200  1.3311
 6071TIP3   OH239771   6.308   5.538   7.335 -0.3059 -0.2017  0.6636
 6071TIP3    H139772   6.313   5.461   7.392 -0.4013 -0.0045  0.9354
 6071TIP3    H239773   6.265   5.506   7.255 -0.5698 -0.3707  0.8724
 6072TIP3   OH239774   1.290   1.172   1.299 -0.1031  0.2355 -0.4456
 6072TIP3    H139775   1.360   1.171   1.365  0.5454  2.3946 -1.0163
 6072TIP3    H239776   1.321   1.112   1.231  1.6359  1.6988 -1.0442
 6073TIP3   OH239777   0.498   0.465   8.427  0.2232 -0.0903 -0.1997
 6073TIP3    H139778   0.532   0.499   8.344  0.7741  2.1307  0.8514
 6073TIP3    H239779   0.574   0.427   8.471  0.6946  1.6446  0.6023
 6074TIP3   OH239780   5.425   1.573   6.314 -1.0328 -0.1674  0.2376
 6074TIP3    H139781   5.482   1.556   6.389 -1.5149 -0.1961  0.6012
 6074TIP3    H239782   5.337   1.551   6.344 -1.2194 -0.2910 -0.3747
 6075TIP3   OH239783   5.984   2.208   0.067 -0.0713  0.0131  0.1078
 6075TIP3    H139784   6.005   2.117   0.089  0.4967  0.1887  0.2988
 6075TIP3    H239785   6.004   2.216  -0.026 -0.3501 -0.1173  0.0339
 6076TIP3   OH239786   3.243   1.947   8.547 -0.8427 -0.5333 -0.0311
 6076TIP3    H139787   3.277   1.985   8.627 -1.6396  0.0956  0.0284
 6076TIP3    H239788   3.155   1.985   8.538 -1.1353 -1.3351 -0.6881
 6077TIP3   OH239789   4.369   3.814   7.881 -0.1303 -0.5983  0.2959
 6077TIP3    H139790   4.334   3.857   7.959 -0.6662 -1.6457  0.6626
 6077TIP3    H239791   4.393   3.726   7.911  1.0574 -0.5320 -0.3910
 6078TIP3   OH239792   3.711   1.195   1.606  0.2772  0.2784 -0.3297
 6078TIP3    H139793   3.709   1.221   1.698 -1.6525 -0.1465 -0.2116
 6078TIP3    H239794   3.673   1.269   1.559 -1.2146 -0.5356 -0.4625
 6079TIP3   OH239795   3.246   5.279   8.328 -0.4246 -0.4472  0.3962
 6079TIP3    H139796   3.281   5.273   8.417 -0.4859  1.6504  0.5970
 6079TIP3    H239797   3.158   5.241   8.335 -0.5329 -0.0655  1.3047
 6080TIP3   OH239798   3.517   6.281   8.515  0.2337  0.0667  0.0845
 6080TIP3    H139799   3.451   6.346   8.490  0.4774  1.5508  2.9029
 6080TIP3    H239800   3.532   6.231   8.435 -0.5883  2.9285 -2.0397
 6081TIP3   OH239801   2.551   5.045   8.018  0.4865  0.6203  0.1124
 6081TIP3    H139802   2.592   5.093   8.090  0.4091  0.7011  0.1037
 6081TIP3    H239803   2.506   5.113   7.967 -1.4571  0.2940  1.3090
 6082TIP3   OH239804   5.816   0.311   0.548  0.3763 -0.0870 -0.1877
 6082TIP3    H139805   5.747   0.254   0.583  0.6276 -0.0292  0.4130
 6082TIP3    H239806   5.895   0.283   0.594  0.5254  0.6512  0.0042
 6083TIP3   OH239807   3.134   2.190   1.211  0.0928 -0.4535 -0.0657
 6083TIP3    H139808   3.160   2.118   1.153  0.0852  0.4077 -1.1589
 6083TIP3    H239809   3.203   2.255   1.201 -0.6334  0.3080 -0.1888
 6084TIP3   OH239810   0.649   0.669   7.593 -0.1311  0.6893  0.3564
 6084TIP3    H139811   0.656   0.729   7.668  1.0791  0.4275  0.4751
 6084TIP3    H239812   0.678   0.722   7.518 -0.4877  0.6804  0.2077
 6085TIP3   OH239813   1.121   3.585   6.726  0.7496  0.5160  0.4746
 6085TIP3    H139814   1.109   3.595   6.631  0.2950  1.0459  0.5860
 6085TIP3    H239815   1.078   3.662   6.764  2.9965  1.6061  0.9811
 6086TIP3   OH239816   0.205   4.808   1.855  0.1962  0.7088  0.2581
 6086TIP3    H139817   0.237   4.823   1.944 -1.4272  0.6853  0.8908
 6086TIP3    H239818   0.174   4.894   1.826  0.5997  0.6900 -0.2335
 6087TIP3   OH239819   6.250   1.034   8.616 -0.3899  0.1160 -0.0707
 6087TIP3    H139820   6.310   1.088   8.668  0.7109 -1.0896 -0.0220
 6087TIP3    H239821   6.201   1.097   8.563  1.4486  1.1521 -0.6642
 6088TIP3   OH239822   2.858   6.380   7.232 -0.6291  0.2379 -0.0822
 6088TIP3    H139823   2.877   6.287   7.244  1.5686  0.7862  1.4427
 6088TIP3    H239824   2.763   6.387   7.238 -0.8276 -1.8848 -0.1090
 6089TIP3   OH239825   4.912   0.125   7.282  0.1915 -0.3763  0.4876
 6089TIP3    H139826   4.837   0.076   7.316  0.1272 -0.0025  0.8856
 6089TIP3    H239827   4.877   0.212   7.263 -0.0563 -0.8889 -1.6247
 6090TIP3   OH239828   0.974   4.043   0.829  0.3970 -0.2898  0.0920
 6090TIP3    H139829   1.013   4.101   0.894 -0.9100  1.5224 -0.6475
 6090TIP3    H239830   0.890   4.018   0.867  0.2002 -0.2747 -0.3238
 6091TIP3   OH239831   5.485   3.684   6.260  0.3742 -0.2358 -0.3536
 6091TIP3    H139832   5.533   3.664   6.180  1.9401  0.6579  0.3272
 6091TIP3    H239833   5.423   3.753   6.234 -0.1767 -0.9940 -1.1093
 6092TIP3   OH239834   1.832   0.203   0.027  0.5876 -0.3223 -0.1703
 6092TIP3    H139835   1.831   0.240  -0.062 -2.1575  0.9814  0.2895
 6092TIP3    H239836   1.761   0.140   0.027 -2.4868  2.7490  2.1088
 6093TIP3   OH239837   2.165   1.409   7.200  0.7914 -0.0078 -0.2924
 6093TIP3    H139838   2.247   1.425   7.154  1.4380 -1.5674  0.2267
 6093TIP3    H239839   2.191   1.361   7.278 -0.4925  0.7880  0.6538
 6094TIP3   OH239840   4.236   1.193   8.437 -0.3587  0.6256  0.4851
 6094TIP3    H139841   4.171   1.142   8.485 -1.1734  0.6252 -0.5581
 6094TIP3    H239842   4.210   1.183   8.345  1.0080  0.8008  0.0633
 6095TIP3   OH239843   3.248   4.668   7.937  0.1253 -0.1395 -0.1345
 6095TIP3    H139844   3.324   4.723   7.922 -0.5024  1.6054  2.5026
 6095TIP3    H239845   3.284   4.580   7.952  1.6075  0.6007  0.8028
 6096TIP3   OH239846   2.288   5.368   8.114  0.2588 -0.2083  0.3358
 6096TIP3    H139847   2.383   5.362   8.114  0.2728  0.0109  0.1509
 6096TIP3    H239848   2.258   5.278   8.127  0.4849 -0.4634 -0.8338
 6097TIP3   OH239849   0.498   0.133   6.900  0.1999  0.0748  0.2634
 6097TIP3    H139850   0.530   0.179   6.822  0.0202 -0.1189  0.0747
 6097TIP3    H239851   0.573   0.082   6.930 -0.3871 -1.7074 -1.1628
 6098TIP3   OH239852   3.582   4.887   2.208 -0.1473 -0.0232 -0.5489
 6098TIP3    H139853   3.675   4.888   2.233  0.2393 -1.4604 -1.8105
 6098TIP3    H239854   3.536   4.863   2.289  0.8481 -2.0675 -0.5352
 6099TIP3   OH239855   2.933   2.100   6.866 -0.1568  0.1160  0.3071
 6099TIP3    H139856   2.882   2.023   6.891 -1.9140  1.3794  0.8711
 6099TIP3    H239857   3.015   2.093   6.914 -0.8201 -0.7574  1.3330
 6100TIP3   OH239858   3.736   4.225   1.493 -0.1123 -0.2716 -0.4212
 6100TIP3    H139859   3.781   4.193   1.571  1.3115  1.0056 -0.6801
 6100TIP3    H239860   3.733   4.150   1.434 -1.2440 -1.2616  0.8431
 6101TIP3   OH239861   5.395   0.048   8.538  0.0813  0.9370  0.0996
 6101TIP3    H139862   5.452   0.034   8.463  1.2491  1.7441  0.8104
 6101TIP3    H239863   5.410  -0.028   8.594 -0.6444  0.4333 -0.3632
 6102TIP3   OH239864   3.268   0.399   2.365 -0.6937 -0.2293  0.3737
 6102TIP3    H139865   3.300   0.482   2.402 -2.3350  1.4680 -1.7100
 6102TIP3    H239866   3.333   0.377   2.299 -0.7425 -0.0702  0.2710
 6103TIP3   OH239867   5.680   3.887   7.872 -0.4025  0.1749 -0.8525
 6103TIP3    H139868   5.667   3.922   7.960  0.9795  2.0938 -1.3440
 6103TIP3    H239869   5.730   3.954   7.826 -0.4034 -1.1084 -2.8912
 6104TIP3   OH239870   2.470   5.990   1.008 -0.4854  0.0635 -0.0454
 6104TIP3    H139871   2.395   5.931   0.996 -0.2161 -0.4044  0.4840
 6104TIP3    H239872   2.456   6.028   1.095  0.6363 -1.1689  0.7225
 6105TIP3   OH239873   2.296   2.905   2.067  0.3789 -0.0707  0.1703
 6105TIP3    H139874   2.235   2.867   2.004 -0.6024  0.6923  0.6285
 6105TIP3    H239875   2.286   3.000   2.056  0.2977  0.0738  1.3477
 6106TIP3   OH239876   4.464   2.969   1.934  0.8610  0.5692  0.4618
 6106TIP3    H139877   4.532   2.989   1.999  1.0926  0.9165  0.1207
 6106TIP3    H239878   4.386   3.013   1.966  0.3243 -1.1964  1.7328
 6107TIP3   OH239879   4.396   3.840   1.083 -0.3690 -0.8331  0.5067
 6107TIP3    H139880   4.397   3.932   1.109 -0.5712 -0.2069 -1.5234
 6107TIP3    H239881   4.408   3.842   0.988  0.9063 -2.9808  0.5585
 6108TIP3   OH239882   1.043   6.017   0.236  0.4693 -0.0813 -0.0566
 6108TIP3    H139883   1.121   6.030   0.182  0.3338 -0.0207 -0.2415
 6108TIP3    H239884   1.012   6.106   0.254  0.1706 -0.1130 -0.3892
 6109TIP3   OH239885   0.453   0.795   1.080 -0.2213 -0.7451  0.2274
 6109TIP3    H139886   0.502   0.728   1.032 -0.3002 -2.1748  2.0131
 6109TIP3    H239887   0.463   0.770   1.172 -2.8673 -0.1172  0.7691
 6110TIP3   OH239888   6.543   1.320   2.036 -0.0853 -0.2221 -0.3090
 6110TIP3    H139889   6.518   1.294   1.947 -1.5418 -0.8688  0.2467
 6110TIP3    H239890   6.604   1.393   2.023  0.6840 -1.0780 -1.8401
 6111TIP3   OH239891   6.202   4.505   7.082  0.1750  0.1023  0.1517
 6111TIP3    H139892   6.252   4.479   7.004  1.6019  0.1460  1.0106
 6111TIP3    H239893   6.215   4.600   7.088  0.5220  0.0228  0.7314
 6112TIP3   OH239894   6.543   6.733   0.478  0.2316  0.2864  0.1006
 6112TIP3    H139895   6.548   6.829   0.475  0.0266  0.3464  1.1626
 6112TIP3    H239896   6.591   6.709   0.557 -2.0477 -0.2627  1.4136
 6113TIP3   OH239897   4.014   1.868   7.732 -0.6853 -0.1268 -0.1684
 6113TIP3    H139898   4.023   1.866   7.827  1.7195 -1.2514 -0.3452
 6113TIP3    H239899   3.959   1.945   7.715 -0.4674  0.6043  2.0775
 6114TIP3   OH239900   1.378   5.549   6.916 -0.0934  0.2999 -0.2936
 6114TIP3    H139901   1.378   5.575   7.008 -2.1214  0.0854 -0.1711
 6114TIP3    H239902   1.311   5.480   6.911  1.5607 -1.2986 -1.5366
 6115TIP3   OH239903   2.099   0.305   7.731 -0.0541  0.1828  0.2378
 6115TIP3    H139904   2.126   0.396   7.728  0.6423 -0.0139 -2.2931
 6115TIP3    H239905   2.006   0.307   7.750 -0.8832  1.7357 -3.2439
 6116TIP3   OH239906   0.779   1.948   0.246 -0.0251 -0.3487 -0.3613
 6116TIP3    H139907   0.833   1.883   0.290 -0.2111  1.8019  3.4894
 6116TIP3    H239908   0.829   1.972   0.168  2.6262 -1.2833  0.9502
 6117TIP3   OH239909   0.828   2.426   0.347 -0.1502  0.0576 -0.2205
 6117TIP3    H139910   0.859   2.336   0.333 -0.4148  0.1689 -1.7791
 6117TIP3    H239911   0.750   2.416   0.402 -0.7507 -0.7837 -1.1885
 6118TIP3   OH239912   5.404   1.613   7.160  0.0178 -0.0869  0.3391
 6118TIP3    H139913   5.330   1.651   7.208  0.6963  0.4139  1.0194
 6118TIP3    H239914   5.364   1.547   7.103 -1.4395  2.5521 -2.0011
 6119TIP3   OH239915   5.261   5.271   7.762 -0.4485  0.4359 -0.1141
 6119TIP3    H139916   5.190   5.324   7.800 -0.3749  0.3681  0.1201
 6119TIP3    H239917   5.240   5.266   7.669 -0.8591  0.2551 -0.0156
 6120TIP3   OH239918   4.966   3.116   1.804  0.7343 -0.3778 -0.3125
 6120TIP3    H139919   5.001   3.078   1.885 -1.7859 -1.6374  0.2842
 6120TIP3    H239920   4.900   3.178   1.834 -1.6446 -2.2783 -1.3145
 6121TIP3   OH239921   3.238   5.900   1.637 -0.2903 -0.0337 -0.0160
 6121TIP3    H139922   3.314   5.846   1.657 -1.3830 -1.2874  0.8828
 6121TIP3    H239923   3.266   5.954   1.562  0.8841 -1.7200 -0.8471
 6122TIP3   OH239924   4.674   4.804   0.852 -0.3433 -0.0228 -0.3862
 6122TIP3    H139925   4.712   4.795   0.764  0.3542 -0.7558 -0.0180
 6122TIP3    H239926   4.743   4.774   0.911 -0.3837  1.5202  0.5060
 6123TIP3   OH239927   6.794   1.541   0.493 -0.3137  0.9182  0.0657
 6123TIP3    H139928   6.788   1.605   0.564  1.7528  1.4019 -0.1281
 6123TIP3    H239929   6.803   1.457   0.538  0.8303  1.2034  0.3975
 6124TIP3   OH239930   2.007   5.626   8.513 -0.2760 -0.1117  0.0148
 6124TIP3    H139931   1.914   5.604   8.515 -0.5000  0.4942 -1.7145
 6124TIP3    H239932   2.045   5.561   8.454 -0.1351  1.2677 -1.4855
 6125TIP3   OH239933   3.485   5.019   1.728  0.0306 -0.1890  0.3749
 6125TIP3    H139934   3.557   5.011   1.791 -0.2645 -2.6324  0.4956
 6125TIP3    H239935   3.412   4.972   1.769 -0.5058 -0.8998 -1.3109
 6126TIP3   OH239936   6.552   0.053   7.762 -0.0139  0.0960 -0.1493
 6126TIP3    H139937   6.507   0.137   7.771  0.6952  0.5240 -0.4553
 6126TIP3    H239938   6.645   0.075   7.773  0.1016 -0.8234  0.8737
 6127TIP3   OH239939   1.085   1.499   1.932 -0.1373  0.3736  0.0824
 6127TIP3    H139940   1.148   1.448   1.881 -2.1626 -1.6694 -0.5382
 6127TIP3    H239941   1.088   1.586   1.893  1.5639  0.0532 -0.5705
 6128TIP3   OH239942   1.264   0.974   0.616  0.0980  0.2259 -0.2472
 6128TIP3    H139943   1.314   0.937   0.688  1.5660 -0.1451 -1.4117
 6128TIP3    H239944   1.216   1.047   0.655  1.0455  0.1833  1.0540
 6129TIP3   OH239945   6.173   3.333   7.697  0.3511  0.4070 -0.4041
 6129TIP3    H139946   6.098   3.284   7.662  0.7236 -0.4625 -0.0025
 6129TIP3    H239947   6.139   3.422   7.709 -0.0932  0.4824 -1.9476
 6130TIP3   OH239948   0.901   2.886   0.186 -0.3270 -0.0253 -0.2898
 6130TIP3    H139949   0.885   2.801   0.143 -1.0209  0.6701 -1.4669
 6130TIP3    H239950   0.868   2.950   0.123  1.1724  1.1807  0.1080
 6131TIP3   OH239951   0.804   5.761   7.209 -0.4085  0.1628 -0.9766
 6131TIP3    H139952   0.714   5.792   7.193 -0.3862  0.3693 -0.7203
 6131TIP3    H239953   0.798   5.666   7.203 -0.7331  0.1494 -0.5386
 6132TIP3   OH239954   4.228   4.900   6.307  0.5414 -0.2164  0.7986
 6132TIP3    H139955   4.314   4.939   6.323  0.2999  0.2095  1.0699
 6132TIP3    H239956   4.170   4.974   6.292  0.1523 -0.4866  0.9376
 6133TIP3   OH239957   4.188   2.130   7.917 -0.1403  0.9834 -0.5020
 6133TIP3    H139958   4.132   2.057   7.945 -0.5327  1.8417  1.1229
 6133TIP3    H239959   4.228   2.100   7.836 -0.7719 -0.7882 -0.2134
 6134TIP3   OH239960   2.689   2.727   1.300  0.3765 -0.1837  0.3152
 6134TIP3    H139961   2.682   2.679   1.382  2.5407  0.9710  1.2639
 6134TIP3    H239962   2.756   2.793   1.316 -0.2589  1.1203 -1.9090
 6135TIP3   OH239963   1.774   6.017   2.124  0.1533  1.1424  0.4177
 6135TIP3    H139964   1.716   5.970   2.063 -1.0685  2.2481  0.6812
 6135TIP3    H239965   1.791   5.953   2.194 -0.8507  0.8277  0.3926
 6136TIP3   OH239966   3.997   5.276   6.874 -0.3200 -0.1391 -0.2383
 6136TIP3    H139967   3.981   5.350   6.931 -1.5690  1.1411 -2.1278
 6136TIP3    H239968   4.060   5.308   6.809  1.3258 -1.6546  0.4950
 6137TIP3   OH239969   2.664   3.953   6.974  0.0462  0.5187 -0.1519
 6137TIP3    H139970   2.598   4.013   6.940  0.7360  1.1333 -0.4181
 6137TIP3    H239971   2.703   3.999   7.048  0.0533  0.0799  0.1192
 6138TIP3   OH239972   5.242   5.618   6.514  0.0879  0.6391  0.3987
 6138TIP3    H139973   5.181   5.584   6.579 -2.9615  1.5213 -1.7775
 6138TIP3    H239974   5.227   5.713   6.515  1.4968  0.8858 -0.1728
 6139TIP3   OH239975   0.898   6.556   0.141 -0.5236 -0.2298 -0.2127
 6139TIP3    H139976   0.832   6.549   0.209 -0.7228 -0.2981 -0.4127
 6139TIP3    H239977   0.899   6.470   0.099 -2.8515  0.7299 -2.5543
 6140TIP3   OH239978   3.913   2.315   8.112  0.3736  0.5022 -0.1525
 6140TIP3    H139979   3.958   2.361   8.042  0.3162 -1.0767 -1.2797
 6140TIP3    H239980   3.841   2.270   8.069  0.5548 -0.8224  0.8513
 6141TIP3   OH239981   1.676   0.004   0.610  0.2325 -0.3295 -0.0681
 6141TIP3    H139982   1.753   0.028   0.560 -0.7056 -0.4285 -1.6121
 6141TIP3    H239983   1.619  -0.040   0.547 -1.4322  0.4686  0.8194
 6142TIP3   OH239984   3.788   4.462   7.714 -0.0699 -0.1036  0.0472
 6142TIP3    H139985   3.698   4.492   7.705  0.0228  0.0785 -0.3337
 6142TIP3    H239986   3.781   4.376   7.756 -0.3504  0.3500  0.9558
 6143TIP3   OH239987   3.798   0.864   1.332 -0.2761 -0.3069  0.2486
 6143TIP3    H139988   3.746   0.884   1.410  1.0045  0.4176  0.9646
 6143TIP3    H239989   3.799   0.769   1.327 -0.1682 -0.3734  1.2812
 6144TIP3   OH239990   3.013   0.857   6.846 -0.4964 -0.2127  0.0976
 6144TIP3    H139991   3.060   0.936   6.818  1.5789 -1.4020  0.0209
 6144TIP3    H239992   3.017   0.861   6.942 -0.2699 -0.2838  0.0926
 6145TIP3   OH239993   4.492   6.424   7.534 -0.1141 -0.3340 -0.6513
 6145TIP3    H139994   4.420   6.473   7.575  0.3661  0.9988 -1.3657
 6145TIP3    H239995   4.457   6.397   7.449 -0.7454 -2.2077  0.1431
 6146TIP3   OH239996   0.111   3.363   0.614  0.5379  0.0860  0.3310
 6146TIP3    H139997   0.111   3.322   0.701  1.4112 -0.8987 -0.1037
 6146TIP3    H239998   0.044   3.430   0.619 -0.1866 -0.6794  1.4382
 6147TIP3   OH239999   0.597   4.867   7.718 -0.5107  0.2906 -0.1436
 6147TIP3    H140000   0.638   4.893   7.635 -0.0123 -1.4370 -0.4692
 6147TIP3    H240001   0.660   4.808   7.759 -1.0697  0.5455  1.1450
 6148TIP3   OH240002   0.180   5.008   0.647  0.0554 -0.1746 -0.2417
 6148TIP3    H140003   0.243   5.049   0.587  1.7968 -1.2037  0.7758
 6148TIP3    H240004   0.133   4.944   0.593  0.2086  0.2932 -0.9370
 6149TIP3   OH240005   4.785   1.786   7.249 -0.4522  0.3489  0.3472
 6149TIP3    H140006   4.835   1.807   7.328 -0.4862 -0.0450  0.4733
 6149TIP3    H240007   4.852   1.771   7.182 -0.4129  0.3182  0.3924
 6150TIP3   OH240008   1.178   4.878   7.336  0.3262  0.2157  0.9001
 6150TIP3    H140009   1.215   4.955   7.293 -0.5189 -0.6008 -1.4187
 6150TIP3    H240010   1.243   4.809   7.320  0.1904 -0.0141  1.3200
 6151TIP3   OH240011   1.300   4.650   8.663  0.2855  0.3895  0.2662
 6151TIP3    H140012   1.391   4.644   8.634  0.6109  1.1491  1.0754
 6151TIP3    H240013   1.272   4.738   8.639 -0.1648  0.2375  0.2229
 6152TIP3   OH240014   3.364   2.567   7.783  0.0222  0.0820  0.3407
 6152TIP3    H140015   3.417   2.538   7.858 -2.0561  0.5632  2.0853
 6152TIP3    H240016   3.314   2.641   7.816 -1.7050 -0.3192 -1.2045
 6153TIP3   OH240017   5.549   4.965   7.440  0.3056 -0.4130  0.4257
 6153TIP3    H140018   5.614   4.898   7.464 -0.1289 -0.4157  1.6539
 6153TIP3    H240019   5.601   5.041   7.414  0.8026 -0.7620  0.3904
 6154TIP3   OH240020   5.474   6.615   0.656  0.0233  0.2003  0.2901
 6154TIP3    H140021   5.504   6.579   0.739  0.0308 -0.0323  0.1851
 6154TIP3    H240022   5.524   6.696   0.646  0.3689 -0.0137  0.2791
 6155TIP3   OH240023   4.892   0.744   8.248  0.3512 -0.0022 -0.2375
 6155TIP3    H140024   4.927   0.656   8.257  1.6633  0.5808  0.6632
 6155TIP3    H240025   4.969   0.801   8.243 -0.4564  1.0666 -1.2786
 6156TIP3   OH240026   2.815   5.524   6.882  0.0784 -0.4297  0.0303
 6156TIP3    H140027   2.841   5.609   6.846  0.1815  0.0012  1.0749
 6156TIP3    H240028   2.852   5.460   6.822  2.5056  0.1813  0.7789
 6157TIP3   OH240029   0.217   4.371   7.897  0.2573 -1.1321 -0.3839
 6157TIP3    H140030   0.192   4.309   7.829 -0.5841 -0.4475 -0.7130
 6157TIP3    H240031   0.169   4.451   7.876 -0.9667 -1.2611  1.7085
 6158TIP3   OH240032   5.488   5.748   6.645 -0.1302 -0.1532  0.6539
 6158TIP3    H140033   5.457   5.658   6.647 -0.1290 -0.2063 -1.0502
 6158TIP3    H240034   5.448   5.787   6.568  1.3902  0.7462  0.2569
 6159TIP3   OH240035   0.980   2.856   0.814  0.0768 -0.3013  0.3232
 6159TIP3    H140036   1.047   2.831   0.877  0.7124 -1.0778 -0.6385
 6159TIP3    H240037   1.001   2.807   0.735  0.3738  1.9900 -1.1249
 6160TIP3   OH240038   4.659   0.627   7.224  0.2986 -0.5744  0.0695
 6160TIP3    H140039   4.609   0.545   7.219 -0.8394 -0.0527  2.0055
 6160TIP3    H240040   4.593   0.695   7.231  1.2581  0.3076  0.7426
 6161TIP3   OH240041   6.663   5.998   1.639  0.0746 -0.0409 -0.1793
 6161TIP3    H140042   6.666   6.058   1.714  0.1597  0.5671 -0.6592
 6161TIP3    H240043   6.571   6.001   1.610  0.3206  0.7857 -0.9274
 6162TIP3   OH240044   4.630   1.799   8.692  0.2366  0.2917  0.4688
 6162TIP3    H140045   4.615   1.712   8.730  0.6352  0.3436  0.7546
 6162TIP3    H240046   4.568   1.856   8.737 -0.9034 -0.0680 -0.6078
 6163TIP3   OH240047   5.354   6.643   6.121 -0.4585 -0.6829 -0.5554
 6163TIP3    H140048   5.440   6.678   6.097  1.2101 -3.8098  0.3304
 6163TIP3    H240049   5.340   6.674   6.210 -1.4708  1.7809 -1.4782
 6164TIP3   OH240050   0.925   2.580   0.135  0.1725 -0.1575  0.1976
 6164TIP3    H140051   0.939   2.502   0.080  1.2431  1.3883 -1.8986
 6164TIP3    H240052   0.872   2.549   0.208 -1.1725 -2.4251 -1.6050
 6165TIP3   OH240053   4.750   0.206   6.547  0.0982  0.3271 -0.5631
 6165TIP3    H140054   4.732   0.164   6.631  0.8361 -0.0446 -0.5786
 6165TIP3    H240055   4.786   0.291   6.570  0.3715  0.1949 -0.5003
 6166TIP3   OH240056   2.648   5.626   6.629 -0.2602  0.2556 -0.5459
 6166TIP3    H140057   2.562   5.641   6.666  0.1140  0.8107  0.1169
 6166TIP3    H240058   2.708   5.677   6.684  0.5553 -0.5353 -0.6702
 6167TIP3   OH240059   4.710   5.766   7.900 -0.0194  1.0413  0.7633
 6167TIP3    H140060   4.795   5.729   7.875  0.1119  2.1376 -0.5674
 6167TIP3    H240061   4.698   5.741   7.991  1.8631  1.0908  1.0518
 6168TIP3   OH240062   6.222   2.787   2.160 -0.6206  0.5368  0.2163
 6168TIP3    H140063   6.203   2.866   2.109  2.6944 -0.6962 -3.3105
 6168TIP3    H240064   6.137   2.743   2.167 -1.7104  2.1186 -1.8646
 6169TIP3   OH240065   5.031   3.065   6.562 -0.2141  0.4323 -0.0266
 6169TIP3    H140066   5.000   3.150   6.593 -0.2869 -0.1216  1.5124
 6169TIP3    H240067   4.971   3.043   6.490  0.0567  1.8376 -0.7251
 6170TIP3   OH240068   1.942   3.021   1.536 -0.4514  0.8706  0.0752
 6170TIP3    H140069   1.926   3.057   1.623  1.0627 -0.3328  0.9029
 6170TIP3    H240070   1.916   2.929   1.543 -0.3434  0.7750 -0.7342
 6171TIP3   OH240071   1.340   5.012   0.182  0.3390  0.4178  0.4222
 6171TIP3    H140072   1.352   5.106   0.165 -1.0665  0.5665  0.1427
 6171TIP3    H240073   1.343   4.971   0.095  0.9619  0.1911  0.5449
 6172TIP3   OH240074   3.016   5.715   1.671 -0.3082  0.3322 -0.9968
 6172TIP3    H140075   3.063   5.739   1.591  0.6505 -0.9355 -0.8409
 6172TIP3    H240076   3.083   5.714   1.739 -1.0485  1.0320 -0.2263
 6173TIP3   OH240077   1.455   3.135   0.369 -0.1260 -0.0403  0.0653
 6173TIP3    H140078   1.421   3.215   0.407 -4.2090 -2.6727  2.7118
 6173TIP3    H240079   1.416   3.131   0.281 -0.9552  0.2903  0.4088
 6174TIP3   OH240080   1.290   6.627   7.572 -0.2986 -0.0608 -0.0251
 6174TIP3    H140081   1.234   6.613   7.649  0.0247 -0.2647  0.1743
 6174TIP3    H240082   1.334   6.543   7.559 -0.7919 -0.2113 -0.7877
 6175TIP3   OH240083   3.628   5.449   8.621 -0.0226  0.2507  0.4506
 6175TIP3    H140084   3.536   5.473   8.631  0.4904  2.2821  0.7893
 6175TIP3    H240085   3.628   5.353   8.625 -2.2153  0.1363 -0.6364
 6176TIP3   OH240086   2.175   2.242   1.198 -0.3609  0.6122  0.3887
 6176TIP3    H140087   2.165   2.160   1.150  0.0702  0.1730  1.0324
 6176TIP3    H240088   2.085   2.272   1.212 -0.6357 -0.7083  1.7400
 6177TIP3   OH240089   4.026   4.575   7.837 -0.3116 -0.4306  0.1951
 6177TIP3    H140090   3.933   4.556   7.826 -0.3620  0.6953 -2.0549
 6177TIP3    H240091   4.063   4.560   7.750  0.9199  2.5378  0.0942
 6178TIP3   OH240092   0.322   2.150   7.172  0.3325 -0.1954 -0.2906
 6178TIP3    H140093   0.348   2.147   7.264 -0.2014 -0.3423 -0.1407
 6178TIP3    H240094   0.234   2.112   7.171  0.4018 -0.3501 -0.8855
 6179TIP3   OH240095   1.904   4.737   0.880  0.0923 -0.3316 -0.5453
 6179TIP3    H140096   1.877   4.739   0.788 -0.5378  0.1801 -0.3552
 6179TIP3    H240097   1.943   4.824   0.895 -0.0658 -0.3104 -0.2568
 6180TIP3   OH240098   3.352   6.201   7.566 -0.7531 -0.2057 -0.2168
 6180TIP3    H140099   3.371   6.294   7.554 -0.2112 -0.3237 -0.3212
 6180TIP3    H240100   3.291   6.180   7.495 -1.0380  0.1116 -0.0724
 6181TIP3   OH240101   4.716   5.503   6.188  0.3717 -0.2446  0.1916
 6181TIP3    H140102   4.743   5.411   6.183  0.6664 -0.0800 -2.2976
 6181TIP3    H240103   4.638   5.508   6.133 -0.9389  0.6225  2.0275
 6182TIP3   OH240104   0.302   4.450   1.486 -0.4671  0.0795 -0.4084
 6182TIP3    H140105   0.295   4.373   1.431  0.9290  0.6860 -1.5097
 6182TIP3    H240106   0.372   4.502   1.446 -1.5444  2.0605  0.1188
 6183TIP3   OH240107   4.524   6.450   1.043  0.6184  0.1477 -0.8197
 6183TIP3    H140108   4.521   6.534   1.089  1.3261  0.1001 -0.6698
 6183TIP3    H240109   4.473   6.464   0.964 -0.6183  0.2309 -0.0231
 6184TIP3   OH240110   0.024   3.601   6.981  0.3078  0.2705 -0.0376
 6184TIP3    H140111   0.089   3.660   6.943  0.7575  0.1973  0.6077
 6184TIP3    H240112  -0.015   3.650   7.053  0.6838 -0.2113  0.5013
 6185TIP3   OH240113   2.457   4.919   1.025 -0.4288  0.4948 -0.0263
 6185TIP3    H140114   2.537   4.966   1.050 -0.7630  0.3183  1.5064
 6185TIP3    H240115   2.467   4.902   0.931  0.9652  1.1709 -0.0268
 6186TIP3   OH240116   4.894   3.528   8.280 -0.0419 -0.1314  0.7913
 6186TIP3    H140117   4.974   3.477   8.278 -0.4421 -0.7498  0.1401
 6186TIP3    H240118   4.896   3.573   8.365  1.3412  0.4561  0.4786
 6187TIP3   OH240119   0.358   1.473   6.231  0.9546 -0.5155 -0.3651
 6187TIP3    H140120   0.300   1.411   6.276 -0.7687  0.9619 -0.4455
 6187TIP3    H240121   0.369   1.437   6.143 -1.8276  0.3085 -1.1429
 6188TIP3   OH240122   4.757   5.477   0.103 -0.0227  0.0930 -0.7552
 6188TIP3    H140123   4.691   5.543   0.127  0.2002 -0.7531  2.6415
 6188TIP3    H240124   4.706   5.400   0.078 -0.4226 -0.2969  1.0915
 6189TIP3   OH240125   5.336   1.166   0.843 -0.0664 -0.5783 -0.3536
 6189TIP3    H140126   5.262   1.163   0.904 -0.5349 -1.0522 -0.9327
 6189TIP3    H240127   5.409   1.127   0.891  0.7931  2.8844  1.4899
 6190TIP3   OH240128   0.649   5.784   8.093 -0.6364  0.6014 -0.3018
 6190TIP3    H140129   0.599   5.742   8.163  0.2551 -0.1949 -0.1332
 6190TIP3    H240130   0.631   5.731   8.016  1.8732 -1.2482  0.2677
 6191TIP3   OH240131   5.017   6.239   6.347 -0.4700  0.3461 -0.0899
 6191TIP3    H140132   5.053   6.292   6.276  0.6653  0.5490  0.6130
 6191TIP3    H240133   5.064   6.155   6.339  0.3618  0.6955  0.9847
 6192TIP3   OH240134   4.964   2.105   7.418  0.7379  0.1082  0.6328
 6192TIP3    H140135   4.979   2.183   7.472 -1.2774  0.5883  0.5746
 6192TIP3    H240136   4.941   2.140   7.332  2.7373 -0.6425 -0.2774
 6193TIP3   OH240137   0.132   3.584   1.375 -0.4151 -0.0031  0.1778
 6193TIP3    H140138   0.140   3.642   1.299  1.2814  1.0904  1.1362
 6193TIP3    H240139   0.135   3.643   1.450  2.5671 -1.3158  1.2445
 6194TIP3   OH240140   3.523   6.487   2.015 -0.5210 -0.9717 -0.2305
 6194TIP3    H140141   3.473   6.568   2.020  0.1782 -0.5697  0.3754
 6194TIP3    H240142   3.549   6.480   1.923  1.6814  0.9038  0.1679
 6195TIP3   OH240143   1.969   0.541   2.587  0.6262 -0.0341  0.5339
 6195TIP3    H140144   1.972   0.578   2.499  0.2489  0.4402  0.7194
 6195TIP3    H240145   1.912   0.599   2.637 -2.6327 -2.5379  0.0568
 6196TIP3   OH240146   3.671   3.301   6.589 -0.4531  0.5823  0.3281
 6196TIP3    H140147   3.652   3.208   6.603  1.2542  0.4750  2.3855
 6196TIP3    H240148   3.587   3.345   6.605 -0.2696 -0.1995  4.8754
 6197TIP3   OH240149   3.274   4.441   8.607  0.1920 -0.4096  0.0129
 6197TIP3    H140150   3.209   4.511   8.605  0.7060  0.0649 -0.6070
 6197TIP3    H240151   3.294   4.425   8.515  0.6896 -0.8001  0.1871
 6198TIP3   OH240152   1.606   4.420   8.279 -0.1336 -0.0064 -0.1993
 6198TIP3    H140153   1.602   4.502   8.231 -0.7121  0.5092  0.7066
 6198TIP3    H240154   1.685   4.428   8.333 -0.1526 -0.0768 -0.1604
 6199TIP3   OH240155   3.711   2.483   6.917  0.1338  0.0984 -0.4318
 6199TIP3    H140156   3.770   2.408   6.926 -0.9010 -0.6357  0.3933
 6199TIP3    H240157   3.726   2.535   6.996 -0.6646 -0.3519  0.0269
 6200TIP3   OH240158   6.574   0.175   0.464 -0.1077  0.2883  0.1123
 6200TIP3    H140159   6.536   0.246   0.515 -2.0131 -0.4035 -0.2666
 6200TIP3    H240160   6.581   0.211   0.375  2.2863  1.1570  0.5865
 6201TIP3   OH240161   2.709   0.603   0.186  0.0361 -0.6660  0.2226
 6201TIP3    H140162   2.622   0.641   0.175  0.0001 -0.9681 -0.6640
 6201TIP3    H240163   2.711   0.530   0.124  0.7433 -0.9786  0.5954
 6202TIP3   OH240164   0.859   1.325   1.854  0.4970  0.6861 -0.1114
 6202TIP3    H140165   0.936   1.273   1.875  0.4431  0.0337 -1.4211
 6202TIP3    H240166   0.886   1.415   1.873  1.0331  0.3243  0.9343
 6203TIP3   OH240167   5.980   0.773   2.395  0.1141  0.3714  0.0277
 6203TIP3    H140168   5.923   0.749   2.468  2.6085  0.1800  2.0366
 6203TIP3    H240169   6.038   0.698   2.383 -0.2203  0.4117 -2.1790
 6204TIP3   OH240170   4.266   4.324   7.236  0.1609 -0.2702  0.8711
 6204TIP3    H140171   4.326   4.289   7.171  1.4518 -0.1013  1.9217
 6204TIP3    H240172   4.182   4.333   7.190  1.2766  0.9044 -1.0782
 6205TIP3   OH240173   6.136   6.658   1.391 -0.2240  0.0889  0.3516
 6205TIP3    H140174   6.119   6.599   1.318 -2.0989  0.0870  0.7475
 6205TIP3    H240175   6.107   6.744   1.361  1.8141  0.7198  0.0413
 6206TIP3   OH240176   6.148   1.273   1.944  0.6512 -0.1307  0.0741
 6206TIP3    H140177   6.146   1.287   2.038  0.8666  2.3655 -0.2295
 6206TIP3    H240178   6.078   1.329   1.910  1.3828 -0.0246 -1.3386
 6207TIP3   OH240179   6.416   3.700   7.636  0.4118 -0.2968  0.8889
 6207TIP3    H140180   6.433   3.658   7.720  2.5598  0.3955  0.8669
 6207TIP3    H240181   6.497   3.746   7.616 -1.1260  2.2336 -0.0162
 6208TIP3   OH240182   6.148   2.285   7.646  0.0486 -0.1089 -0.1212
 6208TIP3    H140183   6.186   2.335   7.719  1.8610 -0.5849 -0.6952
 6208TIP3    H240184   6.127   2.351   7.580 -0.7744  0.2283  0.4550
 6209TIP3   OH240185   2.622   5.431   1.240  0.1213  0.1012  0.7952
 6209TIP3    H140186   2.586   5.344   1.221  1.0533 -0.1737  0.1928
 6209TIP3    H240187   2.558   5.491   1.202  0.6223 -0.3908 -0.9515
 6210TIP3   OH240188   5.049   1.218   7.100  0.3902  0.1456  0.1471
 6210TIP3    H140189   5.097   1.170   7.033 -1.1272 -1.5337  0.1725
 6210TIP3    H240190   5.057   1.164   7.179 -2.7216 -1.0921 -0.2347
 6211TIP3   OH240191   2.922   4.287   1.540 -0.4726 -0.2587  0.0612
 6211TIP3    H140192   3.004   4.238   1.543 -1.1594 -1.3999  0.5141
 6211TIP3    H240193   2.888   4.272   1.452  1.0272  2.3396 -1.0919
 6212TIP3   OH240194   1.657   1.764   0.601 -0.2983  0.4299 -0.1697
 6212TIP3    H140195   1.574   1.760   0.553 -0.0974  0.7226 -0.5452
 6212TIP3    H240196   1.715   1.814   0.544  0.1352  0.2316  0.0970
 6213TIP3   OH240197   1.762   3.302   7.172  0.3325  0.0230 -0.3392
 6213TIP3    H140198   1.672   3.296   7.202 -0.0628  1.6216 -1.1149
 6213TIP3    H240199   1.756   3.328   7.080  1.5627 -1.8754 -1.0266
 6214TIP3   OH240200   6.655   3.732   1.172  0.7582 -0.6198 -0.1256
 6214TIP3    H140201   6.673   3.721   1.079 -0.9415  0.4200 -0.6319
 6214TIP3    H240202   6.643   3.643   1.205 -0.5378 -0.9469 -1.3612
 6215TIP3   OH240203   1.317   0.984   6.910  0.5858  0.0190  0.0500
 6215TIP3    H140204   1.268   0.994   6.828  2.4601  0.5746 -1.0508
 6215TIP3    H240205   1.350   1.072   6.929 -0.4222  0.0674  1.8507
 6216TIP3   OH240206   6.216   6.118   7.264 -0.2050  0.3395  0.1526
 6216TIP3    H140207   6.203   6.091   7.173  1.8570  0.3085 -0.1839
 6216TIP3    H240208   6.130   6.150   7.292 -1.3055 -1.2623 -1.2302
 6217TIP3   OH240209   6.067   0.684   7.793  0.1240 -0.6270  0.2899
 6217TIP3    H140210   5.977   0.700   7.766  0.7847  1.3976 -0.9649
 6217TIP3    H240211   6.103   0.627   7.725  0.0770 -0.5572  0.2062
 6218TIP3   OH240212   4.465   4.223   7.087  0.2251 -0.1541  0.7035
 6218TIP3    H140213   4.483   4.162   7.159  1.2866 -0.3932  0.2581
 6218TIP3    H240214   4.550   4.265   7.070  0.1816 -0.6708 -0.9379
 6219TIP3   OH240215   0.191   3.746   7.223 -0.2569  0.0281 -0.3997
 6219TIP3    H140216   0.096   3.746   7.235 -0.2244 -0.4448 -0.1551
 6219TIP3    H240217   0.204   3.790   7.138 -0.7375 -0.5863 -0.7987
 6220TIP3   OH240218   1.200   2.259   0.677  0.4287  0.1076  0.0833
 6220TIP3    H140219   1.189   2.325   0.745 -0.2837 -1.1316  1.2204
 6220TIP3    H240220   1.261   2.196   0.715  1.4452  0.3125 -1.1581
 6221TIP3   OH240221   2.055   1.192   8.054  0.1742  0.3877  0.5055
 6221TIP3    H140222   2.087   1.199   7.964  1.1065 -0.0743  0.7871
 6221TIP3    H240223   2.099   1.114   8.089 -0.0844  0.6318  1.4000
 6222TIP3   OH240224   0.372   6.551   8.249  0.1812 -0.2160  0.5073
 6222TIP3    H140225   0.355   6.496   8.325 -0.0617  2.4166  2.5274
 6222TIP3    H240226   0.458   6.589   8.266 -0.4751  1.5003  0.2436
 6223TIP3   OH240227   1.886   1.811   6.941  0.2673  0.2132  0.0103
 6223TIP3    H140228   1.853   1.774   7.023  0.5825  0.4593  0.2487
 6223TIP3    H240229   1.892   1.735   6.882  2.0265 -0.3394  0.8502
 6224TIP3   OH240230   5.421   1.434   0.063  0.0053  0.3823  0.6101
 6224TIP3    H140231   5.489   1.415   0.127  2.6299  2.3024 -1.3858
 6224TIP3    H240232   5.405   1.350   0.019  0.0596 -0.3807  1.9992
 6225TIP3   OH240233   5.400   0.414   7.426 -0.6210 -0.9710 -0.2058
 6225TIP3    H140234   5.372   0.328   7.395 -1.6244 -0.9825  0.6738
 6225TIP3    H240235   5.352   0.476   7.371  0.3177 -0.9599 -1.0283
 6226TIP3   OH240236   3.297   1.788   8.130 -0.5530  0.0303  0.0831
 6226TIP3    H140237   3.344   1.709   8.156 -2.5448 -1.1504  0.3101
 6226TIP3    H240238   3.234   1.803   8.200  0.0367  2.1096  0.2447
 6227TIP3   OH240239   0.683   1.939   0.665 -0.2126 -0.8022  0.5139
 6227TIP3    H140240   0.699   2.015   0.610  3.2322 -1.8867 -0.2686
 6227TIP3    H240241   0.592   1.948   0.694 -0.4085  2.7535 -0.7364
 6228TIP3   OH240242   2.382   1.792   1.494 -0.6801 -0.3588 -0.2042
 6228TIP3    H140243   2.303   1.847   1.497 -1.2152 -0.6932 -3.6478
 6228TIP3    H240244   2.359   1.716   1.547 -1.8918  0.4460  0.4935
 6229TIP3   OH240245   5.116   1.051   1.742  0.4818  0.4227 -0.9173
 6229TIP3    H140246   5.208   1.080   1.745  0.3538  0.9279 -1.5632
 6229TIP3    H240247   5.083   1.067   1.830  1.0642  0.0621 -0.6263
 6230TIP3   OH240248   4.282   3.081   0.227 -0.1695  0.4857  0.3426
 6230TIP3    H140249   4.251   2.990   0.224 -1.5171  0.9138  0.6996
 6230TIP3    H240250   4.205   3.133   0.206  0.6483  1.5562 -0.1088
 6231TIP3   OH240251   4.090   1.182   7.761  0.1483 -0.0247  0.0006
 6231TIP3    H140252   4.047   1.111   7.809 -2.7891  1.7857  0.3036
 6231TIP3    H240253   4.154   1.138   7.705 -0.5941 -2.7466  1.1483
 6232TIP3   OH240254   6.770   1.929   0.690  0.7964 -0.2220 -0.4300
 6232TIP3    H140255   6.705   1.869   0.726  0.7540 -0.3582 -0.7311
 6232TIP3    H240256   6.748   2.014   0.727  1.1746 -0.4839  0.4135
 6233TIP3   OH240257   0.564   1.403   8.574  0.4723 -0.1364 -0.3076
 6233TIP3    H140258   0.630   1.345   8.612  0.1058 -0.0750  0.4311
 6233TIP3    H240259   0.491   1.400   8.635 -0.0261  0.1684 -0.8807
 6234TIP3   OH240260   0.102   4.291   2.161 -0.1374  0.1111  0.6916
 6234TIP3    H140261   0.074   4.213   2.207  0.9831 -1.0954 -0.5784
 6234TIP3    H240262   0.182   4.318   2.206  0.2411 -0.3080  0.2837
 6235TIP3   OH240263   1.600   6.102   0.431  0.5673  0.0307  0.2705
 6235TIP3    H140264   1.632   6.033   0.490 -2.7777 -1.8068  0.1586
 6235TIP3    H240265   1.518   6.132   0.470 -0.5096  0.5222 -2.1520
 6236TIP3   OH240266   5.232   6.501   8.101  0.7962 -0.3245 -0.1976
 6236TIP3    H140267   5.257   6.594   8.105  1.0681 -0.4446  1.3095
 6236TIP3    H240268   5.292   6.464   8.036 -0.4850  0.8614 -2.1898
 6237TIP3   OH240269   1.323   0.300   0.765  0.0319 -0.1404  0.1720
 6237TIP3    H140270   1.306   0.391   0.741 -2.5003 -0.8474 -1.1978
 6237TIP3    H240271   1.335   0.255   0.681  3.1761 -0.8294  0.8935
 6238TIP3   OH240272   2.942   0.005   8.287 -0.3980 -0.4650 -0.1676
 6238TIP3    H140273   2.891   0.010   8.206 -0.4018  1.2196 -0.0946
 6238TIP3    H240274   2.877   0.013   8.357 -0.2057  0.1631 -0.0512
 6239TIP3   OH240275   3.015   2.319   1.818 -0.4670  0.0431  0.0896
 6239TIP3    H140276   3.109   2.305   1.806 -0.6079 -0.6422 -0.2573
 6239TIP3    H240277   3.006   2.345   1.909 -0.1272 -1.7710  0.6774
 6240TIP3   OH240278   6.363   1.999   6.608  0.5093 -0.1527  0.3960
 6240TIP3    H140279   6.269   2.011   6.620  0.5333  1.2768 -0.6289
 6240TIP3    H240280   6.403   2.048   6.680  0.5151  3.4430 -1.8175
 6241TIP3   OH240281   5.911   4.674   8.502 -0.0234  0.1233 -0.2401
 6241TIP3    H140282   5.999   4.643   8.526 -0.0016  0.7769  0.5862
 6241TIP3    H240283   5.874   4.603   8.450  0.8331 -0.3484 -0.2274
 6242TIP3   OH240284   3.402   3.451   7.564  0.3057  1.1288  0.2322
 6242TIP3    H140285   3.478   3.401   7.533 -0.6045  0.1179 -0.4370
 6242TIP3    H240286   3.368   3.494   7.486 -2.0738 -1.5170 -0.3527
 6243TIP3   OH240287   2.565   2.839   2.184  0.0713  0.0305  0.5311
 6243TIP3    H140288   2.477   2.864   2.156 -0.1057  0.1035  1.1561
 6243TIP3    H240289   2.580   2.755   2.141 -0.7480 -0.5365  1.3175
 6244TIP3   OH240290   2.957   0.674   2.149 -0.1979 -0.2668 -0.1182
 6244TIP3    H140291   2.983   0.583   2.164  0.7146  0.0268  0.1761
 6244TIP3    H240292   2.870   0.681   2.187  0.0644 -0.8145  0.6178
 6245TIP3   OH240293   0.307   1.967   2.187 -0.1687  0.6719  0.1648
 6245TIP3    H140294   0.342   2.020   2.258  0.5425 -0.7156  0.9059
 6245TIP3    H240295   0.349   1.882   2.198 -1.8040 -0.2783 -0.5435
 6246TIP3   OH240296   3.273   2.369   6.698 -0.4240 -0.0836 -0.0822
 6246TIP3    H140297   3.179   2.382   6.715 -0.3151  1.3816 -0.4288
 6246TIP3    H240298   3.316   2.436   6.752  0.6598 -2.4565  2.2044
 6247TIP3   OH240299   5.316   2.789   7.391 -0.0490 -0.0485  0.4637
 6247TIP3    H140300   5.258   2.756   7.322 -1.2891  0.8821  1.0275
 6247TIP3    H240301   5.399   2.806   7.346 -0.6596  0.0101 -0.6838
 6248TIP3   OH240302   5.988   4.103   0.134  0.2322  0.1756  0.1979
 6248TIP3    H140303   5.978   4.008   0.136 -0.0661  0.1787 -0.6814
 6248TIP3    H240304   6.020   4.126   0.222  1.0603 -0.8149  0.1707
 6249TIP3   OH240305   6.285   6.170   0.478 -0.4638 -0.0724 -0.0971
 6249TIP3    H140306   6.195   6.172   0.445 -1.0699  0.5310  1.4733
 6249TIP3    H240307   6.326   6.097   0.433 -2.0566 -1.0039 -0.1048
 6250TIP3   OH240308   4.230   0.757   7.708  0.3930  0.4704  0.0703
 6250TIP3    H140309   4.144   0.782   7.675  0.5090  0.2623 -0.4056
 6250TIP3    H240310   4.290   0.780   7.637  0.5336 -0.8843 -0.2690
 6251TIP3   OH240311   2.945   4.823   6.847 -0.1335 -0.0468 -0.4150
 6251TIP3    H140312   2.899   4.883   6.788  1.1268  0.1588 -1.2531
 6251TIP3    H240313   2.979   4.755   6.789 -0.7202 -1.0583  0.3990
 6252TIP3   OH240314   0.613   0.949   0.388 -0.3580 -0.5387  0.0381
 6252TIP3    H140315   0.589   0.999   0.467  1.2105 -0.2145  0.3459
 6252TIP3    H240316   0.620   0.859   0.418 -0.5757 -0.5404  0.0847
 6253TIP3   OH240317   3.546   2.438   0.818  0.0626  0.0715  0.5694
 6253TIP3    H140318   3.525   2.473   0.904 -1.1593 -0.3831  0.4787
 6253TIP3    H240319   3.489   2.486   0.758 -0.7544 -1.1865  0.3010
 6254TIP3   OH240320   5.001   4.867   6.089 -0.0471  0.3921 -0.2492
 6254TIP3    H140321   4.950   4.948   6.090  0.5526  0.8750 -2.4677
 6254TIP3    H240322   5.090   4.893   6.114 -0.4064 -0.0987  1.6699
 6255TIP3   OH240323   6.193   2.981   1.692  0.1019  0.2862  0.2136
 6255TIP3    H140324   6.242   3.046   1.741  1.0255  0.3363 -0.7425
 6255TIP3    H240325   6.248   2.961   1.617 -0.6110 -0.8723 -0.0291
 6256TIP3   OH240326   4.057   1.130   0.282  0.5064 -0.2756 -0.0863
 6256TIP3    H140327   4.147   1.145   0.252  0.5567  0.9727  0.6313
 6256TIP3    H240328   4.006   1.200   0.242  0.1524 -0.0188  0.7915
 6257TIP3   OH240329   2.608   2.725   1.616 -0.6522  0.1715 -0.2625
 6257TIP3    H140330   2.549   2.678   1.675  0.3200  0.0377  0.6420
 6257TIP3    H240331   2.574   2.814   1.613 -1.3355 -0.0921 -0.3505
 6258TIP3   OH240332   2.014   3.182   7.073  0.1205 -0.4116  0.6193
 6258TIP3    H140333   2.034   3.228   6.992 -1.3458  1.1925  1.1062
 6258TIP3    H240334   1.929   3.217   7.100  0.2751 -1.3752  2.5108
 6259TIP3   OH240335   1.470   5.716   6.558  0.1459  0.4013 -0.7174
 6259TIP3    H140336   1.415   5.748   6.486 -0.6215  1.0082  0.1192
 6259TIP3    H240337   1.509   5.795   6.595 -0.9760  0.3070  0.7371
 6260TIP3   OH240338   3.723   6.495   0.727 -0.8234 -0.0285 -0.4294
 6260TIP3    H140339   3.670   6.571   0.753 -0.2180  0.5494 -0.8421
 6260TIP3    H240340   3.813   6.526   0.733 -0.5947  0.7629 -4.7241
 6261TIP3   OH240341   6.820   5.777   2.610 -0.2393 -0.0356  0.1828
 6261TIP3    H140342   6.847   5.695   2.651 -2.1041 -0.4921  0.6036
 6261TIP3    H240343   6.807   5.756   2.518 -0.8169 -0.2519  0.3100
 6262TIP3   OH240344   4.888   1.601   1.321  0.1512  0.4088  0.1235
 6262TIP3    H140345   4.982   1.616   1.306  0.5393 -1.4919  0.3566
 6262TIP3    H240346   4.847   1.624   1.238  0.6116  2.5635  0.4280
 6263TIP3   OH240347   2.333   0.479   8.633 -0.3242  0.1418 -0.5502
 6263TIP3    H140348   2.377   0.563   8.626  1.4572 -0.5934  0.9989
 6263TIP3    H240349   2.358   0.432   8.553  1.7952 -0.2433  0.2651
 6264TIP3   OH240350   0.734   1.279   7.363 -0.7143 -0.2727  0.8395
 6264TIP3    H140351   0.775   1.295   7.448 -0.0221  1.1245  0.2607
 6264TIP3    H240352   0.643   1.308   7.373 -0.6244 -0.0822  1.0879
 6265TIP3   OH240353   2.350   1.865   2.214  0.0601  0.0888  0.0674
 6265TIP3    H140354   2.282   1.911   2.264  0.8292 -0.6993  1.9146
 6265TIP3    H240355   2.337   1.773   2.234  0.4622 -0.2455 -1.1370
 6266TIP3   OH240356   0.831   2.854   7.069  0.2425 -0.5986 -0.5238
 6266TIP3    H140357   0.750   2.857   7.120 -0.5121  1.7662 -1.7116
 6266TIP3    H240358   0.813   2.909   6.993  3.0038  0.1060 -0.7772
 6267TIP3   OH240359   4.033   5.117   6.353  0.3352  0.4180  0.0804
 6267TIP3    H140360   4.008   5.203   6.388  0.2001  1.5142 -2.5234
 6267TIP3    H240361   3.951   5.066   6.354 -0.1079  1.1106 -0.5084
 6268TIP3   OH240362   1.803   0.416   1.368  0.0020 -0.7457  0.3410
 6268TIP3    H140363   1.825   0.494   1.420  0.9069 -0.2086 -0.7951
 6268TIP3    H240364   1.711   0.400   1.387 -1.6137  3.2512 -2.6318
 6269TIP3   OH240365   2.631   2.974   6.365  0.2714 -0.2774  0.5627
 6269TIP3    H140366   2.568   2.986   6.435  0.1134  1.6315  0.1493
 6269TIP3    H240367   2.587   3.008   6.287  1.8008  1.1888  0.2766
 6270TIP3   OH240368   5.189   3.895   1.695 -0.4263 -0.6804  0.3007
 6270TIP3    H140369   5.116   3.912   1.753 -1.5671 -2.0154 -0.6695
 6270TIP3    H240370   5.253   3.964   1.714 -0.0712 -1.8585  4.1611
 6271TIP3   OH240371   0.728   3.354   8.164  0.0529  0.4178 -0.1139
 6271TIP3    H140372   0.782   3.281   8.196 -0.4721 -1.2490 -2.6743
 6271TIP3    H240373   0.720   3.337   8.070  0.8269  4.4566 -1.0748
 6272TIP3   OH240374   0.001   6.739   8.092 -0.4677  0.5246 -0.5343
 6272TIP3    H140375   0.039   6.690   8.020  0.5900 -0.5239  0.6943
 6272TIP3    H240376  -0.087   6.702   8.102 -0.0601 -0.4225 -0.3031
 6273TIP3   OH240377   0.640   1.069   7.131  0.4107  0.3070 -0.4703
 6273TIP3    H140378   0.655   1.019   7.212 -0.5654  0.2444 -0.3216
 6273TIP3    H240379   0.701   1.142   7.137 -0.2551  0.7908  0.7618
 6274TIP3   OH240380   3.739   4.252   7.935 -0.0135 -0.0644  0.3063
 6274TIP3    H140381   3.800   4.206   7.992 -0.2311 -0.1967  0.4351
 6274TIP3    H240382   3.672   4.287   7.994  0.1140  0.3601  0.2030
 6275TIP3   OH240383   1.683   4.091   0.959 -0.4906  0.2985 -0.0367
 6275TIP3    H140384   1.662   4.084   1.052  1.2574  2.4808  0.6014
 6275TIP3    H240385   1.598   4.084   0.915 -1.1918 -2.4681  1.5232
 6276TIP3   OH240386   1.703   1.249   0.044 -0.0247 -0.6972  0.2038
 6276TIP3    H140387   1.740   1.337   0.048 -0.9333 -0.3084  0.4387
 6276TIP3    H240388   1.732   1.207   0.125 -0.2873 -0.3165  0.4981
 6277TIP3   OH240389   2.042   3.840   7.798  0.3261 -0.5300  0.3523
 6277TIP3    H140390   1.953   3.805   7.792  0.4845 -1.1863  1.4230
 6277TIP3    H240391   2.063   3.868   7.709 -0.1284 -2.4571 -0.4322
 6278TIP3   OH240392   0.937   5.613   0.729 -0.3597  0.0165 -0.0872
 6278TIP3    H140393   0.868   5.550   0.709 -0.8686  0.5921 -0.1429
 6278TIP3    H240394   0.980   5.628   0.645 -0.8123  0.4208 -0.2509
 6279TIP3   OH240395   0.501   2.434   1.378 -0.3036  0.1605  0.0395
 6279TIP3    H140396   0.559   2.489   1.325 -1.0113  0.1987 -0.7270
 6279TIP3    H240397   0.556   2.403   1.450  1.2101 -1.3467 -1.6723
 6280TIP3   OH240398   6.828   6.706   7.588  0.9104 -0.2615  0.3455
 6280TIP3    H140399   6.845   6.654   7.509 -0.5430 -0.5047  0.1656
 6280TIP3    H240400   6.804   6.792   7.555 -2.0657 -0.9935  0.3311
 6281TIP3   OH240401   4.339   4.196   6.454 -0.2660 -0.3600  0.0783
 6281TIP3    H140402   4.314   4.249   6.530  0.8358  0.5069 -0.1323
 6281TIP3    H240403   4.272   4.214   6.388  0.6304  1.6235 -0.3508
 6282TIP3   OH240404   2.897   5.358   0.859  0.7859 -0.6375 -0.2064
 6282TIP3    H140405   2.949   5.323   0.788  1.0492  2.4712 -1.7117
 6282TIP3    H240406   2.815   5.387   0.818  0.5177  0.3204  0.9265
 6283TIP3   OH240407   4.207   2.557   1.897  0.4687  0.3069 -0.4115
 6283TIP3    H140408   4.175   2.472   1.866  0.9475  0.2937 -0.8775
 6283TIP3    H240409   4.248   2.597   1.821 -2.6355  2.4154 -1.1533
 6284TIP3   OH240410   2.733   0.980   6.833  0.1412  0.0804 -0.4227
 6284TIP3    H140411   2.823   1.001   6.809  0.7289 -1.4206  0.4175
 6284TIP3    H240412   2.734   0.971   6.928 -0.1294 -3.2098 -0.6279
 6285TIP3   OH240413   4.920   4.561   2.182 -0.0322 -0.3105  0.3695
 6285TIP3    H140414   4.837   4.526   2.212 -0.7149 -0.0589 -1.1136
 6285TIP3    H240415   4.986   4.512   2.231 -1.0401  0.7342  2.8937
 6286TIP3   OH240416   6.757   2.605   1.159  0.1378 -0.3810  1.1904
 6286TIP3    H140417   6.668   2.603   1.122  0.2386  1.3383  0.7994
 6286TIP3    H240418   6.776   2.513   1.180 -1.3548 -0.9023  0.3937
 6287TIP3   OH240419   0.600   4.256   0.335  0.2026  0.4848 -0.3373
 6287TIP3    H140420   0.514   4.241   0.374  0.5105 -1.4449 -0.3235
 6287TIP3    H240421   0.621   4.346   0.358 -0.4212  0.0098  2.4194
 6288TIP3   OH240422   3.030   1.949   1.058  0.3000  0.4754  0.7307
 6288TIP3    H140423   3.056   1.867   1.015 -1.4779  0.7664 -1.0704
 6288TIP3    H240424   3.019   1.925   1.150 -1.6426 -1.7654  0.0463
 6289TIP3   OH240425   3.284   4.204   7.257 -0.7854  0.5246 -0.1752
 6289TIP3    H140426   3.356   4.198   7.320 -0.9591 -2.0013 -0.0964
 6289TIP3    H240427   3.319   4.164   7.177 -2.4148 -2.0405  0.2838
 6290TIP3   OH240428   2.369   6.587   7.009  0.5360  0.1707 -0.3414
 6290TIP3    H140429   2.395   6.675   7.038  1.4755  0.1655 -1.1229
 6290TIP3    H240430   2.299   6.602   6.945  0.5487  0.3390 -0.3170
 6291TIP3   OH240431   1.487   2.554   6.762  1.0337 -0.2455 -0.6134
 6291TIP3    H140432   1.546   2.629   6.755 -0.3425  0.7169 -3.0253
 6291TIP3    H240433   1.478   2.522   6.672 -0.9211 -1.2831 -0.1124
 6292TIP3   OH240434   1.811   6.448   0.517  0.0806  0.7262 -1.0525
 6292TIP3    H140435   1.720   6.477   0.508 -0.8066 -0.6796  2.0155
 6292TIP3    H240436   1.861   6.528   0.531 -1.1966  1.3330  0.2748
 6293TIP3   OH240437   6.096   0.174   8.309  0.2975 -0.1379 -0.0045
 6293TIP3    H140438   6.174   0.157   8.256  0.6857  0.4131  0.3906
 6293TIP3    H240439   6.125   0.164   8.399  0.2271  1.2958  0.2006
 6294TIP3   OH240440   1.322   1.299   7.228  0.3877 -0.0753 -0.4101
 6294TIP3    H140441   1.408   1.333   7.201 -0.4813  3.2727  0.6037
 6294TIP3    H240442   1.329   1.288   7.323 -0.3697  0.5237 -0.2761
 6295TIP3   OH240443   1.290   1.474   0.475 -0.2256 -0.2598  0.1635
 6295TIP3    H140444   1.351   1.449   0.545 -0.0153 -1.5565 -0.4580
 6295TIP3    H240445   1.347   1.489   0.399 -0.5033  0.6042  0.1163
 6296TIP3   OH240446   4.386   3.646   0.204 -0.5830 -0.0284 -0.3153
 6296TIP3    H140447   4.460   3.682   0.253 -1.4294  0.5318  0.5889
 6296TIP3    H240448   4.375   3.558   0.239 -2.1930  0.9143  1.7374
 6297TIP3   OH240449   4.406   2.361   1.158  0.1497 -0.1985 -0.1297
 6297TIP3    H140450   4.342   2.404   1.215  1.0755 -0.8512  1.4560
 6297TIP3    H240451   4.484   2.416   1.163 -0.0446  0.2492 -1.5572
 6298TIP3   OH240452   0.183   1.038   7.348  0.4993  0.3605 -0.0755
 6298TIP3    H140453   0.259   1.066   7.297  0.1239  1.9687  0.1992
 6298TIP3    H240454   0.159   1.115   7.400 -0.4332 -0.5751  0.9353
 6299TIP3   OH240455   1.168   0.346   2.348 -0.2762  0.5028  0.3998
 6299TIP3    H140456   1.227   0.338   2.423  0.1848 -0.7927 -0.0560
 6299TIP3    H240457   1.168   0.258   2.310 -1.3920  0.8596 -0.4491
 6300TIP3   OH240458   4.618   1.449   8.581  0.0405 -0.1105  0.4239
 6300TIP3    H140459   4.528   1.423   8.600 -0.7813  1.5474 -0.9142
 6300TIP3    H240460   4.634   1.415   8.493  1.3372 -1.7735  1.2534
 6301TIP3   OH240461   6.028   0.985   0.999 -0.4798 -0.2732 -0.5240
 6301TIP3    H140462   5.965   0.961   1.066 -0.5860  0.0644 -0.4998
 6301TIP3    H240463   5.975   1.012   0.924 -0.3821  0.7002 -0.2571
 6302TIP3   OH240464   6.640   5.184   6.716 -0.4680 -0.4558 -0.0600
 6302TIP3    H140465   6.600   5.099   6.696  1.3982 -1.0157 -1.7295
 6302TIP3    H240466   6.627   5.195   6.811 -2.5140 -1.6123 -0.1561
 6303TIP3   OH240467   3.239   1.398   8.611  0.2610 -0.1002 -0.0745
 6303TIP3    H140468   3.316   1.372   8.661  0.6211  0.5475 -0.2777
 6303TIP3    H240469   3.253   1.491   8.592  0.2453 -0.3779 -1.5679
 6304TIP3   OH240470   6.358   1.117   1.456 -0.1572  0.2274  0.4068
 6304TIP3    H140471   6.433   1.060   1.473  0.7223  1.2762  0.1586
 6304TIP3    H240472   6.330   1.145   1.543  2.0253  2.6568  0.4472
 6305TIP3   OH240473   2.230   1.178   0.178  0.0237 -0.1986  0.6020
 6305TIP3    H140474   2.240   1.267   0.210 -1.5974 -0.4093  1.7542
 6305TIP3    H240475   2.195   1.188   0.089 -0.9749  0.3179  1.0401
 6306TIP3   OH240476   6.823   4.295   7.367  0.1135 -0.0117  0.0674
 6306TIP3    H140477   6.793   4.284   7.457 -1.2514 -2.1563 -0.5732
 6306TIP3    H240478   6.754   4.346   7.325 -0.3143 -0.8170 -0.2384
 6307TIP3   OH240479   4.415   6.698   1.118 -0.1077  0.3602  0.8355
 6307TIP3    H140480   4.370   6.683   1.036 -0.2029  2.5968  0.4051
 6307TIP3    H240481   4.345   6.716   1.181  0.0331  1.6063  0.6752
 6308TIP3   OH240482   0.797   2.119   8.150  0.2249  0.2684 -0.1427
 6308TIP3    H140483   0.755   2.174   8.216  0.2787 -0.3627  0.4307
 6308TIP3    H240484   0.743   2.129   8.072 -1.1298 -0.6854  0.6261
 6309TIP3   OH240485   1.637   0.710   1.094  0.2746 -0.3773  0.1059
 6309TIP3    H140486   1.697   0.741   1.161 -0.4269 -0.8601  0.9871
 6309TIP3    H240487   1.673   0.743   1.011  0.2886  1.6234  0.8571
 6310TIP3   OH240488   4.853   4.399   8.447 -0.0479 -0.1259 -0.3974
 6310TIP3    H140489   4.816   4.483   8.473  0.3648 -0.4858  1.5456
 6310TIP3    H240490   4.947   4.414   8.442  0.1592 -0.6989  1.1360
 6311TIP3   OH240491   3.409   0.977   0.504 -0.0987  0.5203  0.7092
 6311TIP3    H140492   3.427   1.065   0.471  0.6863  0.3377  0.6304
 6311TIP3    H240493   3.442   0.918   0.436  1.4791  0.1398  1.7552
 6312TIP3   OH240494   0.802   4.225   6.361  0.5280 -0.0802 -0.0586
 6312TIP3    H140495   0.769   4.304   6.402  0.7229  0.0831 -0.2168
 6312TIP3    H240496   0.778   4.233   6.269 -1.7403 -1.3816  0.3262
 6313TIP3   OH240497   4.888   0.175   0.170  0.4865 -0.3400  0.2909
 6313TIP3    H140498   4.919   0.146   0.256 -1.4611 -1.4505  0.6641
 6313TIP3    H240499   4.916   0.106   0.110  0.6064 -0.2659  0.2605
 6314TIP3   OH240500   4.498   3.622   7.235 -0.2970  0.1594  0.2902
 6314TIP3    H140501   4.509   3.527   7.233  1.9727  0.3599  0.5271
 6314TIP3    H240502   4.490   3.643   7.328 -1.4559  0.1638  0.2011
 6315TIP3   OH240503   3.397   1.290   1.806  0.0474  0.1390  0.5767
 6315TIP3    H140504   3.335   1.322   1.871 -0.1160  2.7459 -0.7113
 6315TIP3    H240505   3.483   1.302   1.846 -0.1138  0.0132  0.9667
 6316TIP3   OH240506   4.318   3.495   1.535  0.1013 -0.0409  0.1093
 6316TIP3    H140507   4.320   3.483   1.440  1.2840  0.1478  0.0854
 6316TIP3    H240508   4.270   3.576   1.549 -0.4336 -0.2817 -0.2929
 6317TIP3   OH240509   4.075   4.391   0.463  0.2776  0.1252  0.2706
 6317TIP3    H140510   4.064   4.296   0.460  1.3159 -0.0129  0.7103
 6317TIP3    H240511   3.987   4.425   0.444  0.2415 -0.8927 -1.5955
 6318TIP3   OH240512   1.043   1.196   8.092  0.0107 -0.4752  0.6161
 6318TIP3    H140513   1.082   1.109   8.100  2.9727  0.6924  0.2875
 6318TIP3    H240514   1.106   1.255   8.134 -0.5745  1.7873 -1.4039
 6319TIP3   OH240515   3.813   0.769   6.337  1.1553  0.8285  0.3360
 6319TIP3    H140516   3.724   0.790   6.365  1.4125  0.8274  1.1906
 6319TIP3    H240517   3.856   0.854   6.329  1.4378  0.7835  1.2057
 6320TIP3   OH240518   0.454   0.307   0.607 -0.1857  0.1689 -0.7292
 6320TIP3    H140519   0.475   0.393   0.642 -0.1691  0.4301 -1.3687
 6320TIP3    H240520   0.532   0.254   0.624 -0.9588 -0.3634  1.6177
 6321TIP3   OH240521   1.637   2.972   7.609  0.2579  0.2366 -0.3974
 6321TIP3    H140522   1.730   2.976   7.631  0.4045 -1.8349 -0.4200
 6321TIP3    H240523   1.615   2.879   7.612 -1.8551  0.6706 -0.3066
 6322TIP3   OH240524   3.993   1.960   6.840 -0.8279  0.2848  0.6800
 6322TIP3    H140525   3.911   2.002   6.866 -0.7197 -0.0962  1.6728
 6322TIP3    H240526   4.045   2.030   6.800 -2.2366  0.2018 -1.4349
 6323TIP3   OH240527   4.465   2.665   6.839  0.3858 -0.1632 -0.5961
 6323TIP3    H140528   4.502   2.620   6.763  0.5193 -0.5537 -0.3018
 6323TIP3    H240529   4.374   2.635   6.842  0.6440 -0.9178 -0.0268
 6324TIP3   OH240530   3.366   1.300   0.967 -0.1668  0.2275 -0.0976
 6324TIP3    H140531   3.371   1.228   1.030 -1.0590  0.9140  0.7958
 6324TIP3    H240532   3.447   1.294   0.917 -0.2416 -1.4058 -0.0650
 6325TIP3   OH240533   4.488   4.416   7.389  0.1433  0.5914  0.1823
 6325TIP3    H140534   4.413   4.395   7.334  0.6745 -2.7384  0.4896
 6325TIP3    H240535   4.457   4.402   7.479  1.2367 -1.6639  0.2824
 6326TIP3   OH240536   0.015   5.408   7.111  0.0271  0.4505 -0.0618
 6326TIP3    H140537   0.045   5.498   7.113  0.7786  0.2226 -0.6311
 6326TIP3    H240538  -0.076   5.412   7.140  0.8687  1.0245  2.7771
 6327TIP3   OH240539   6.657   6.447   7.753  0.3670  0.0437  0.1030
 6327TIP3    H140540   6.709   6.524   7.776  0.4071  0.7690 -2.1459
 6327TIP3    H240541   6.639   6.457   7.659 -1.2516 -1.7310  0.1479
 6328TIP3   OH240542   4.757   6.392   7.229 -0.4487 -0.1137 -0.0382
 6328TIP3    H140543   4.796   6.458   7.286  0.7819 -1.1835  0.3890
 6328TIP3    H240544   4.763   6.310   7.278  0.4297 -1.0224 -1.5878
 6329TIP3   OH240545   4.850   5.921   7.420  0.5143 -0.7518 -0.4565
 6329TIP3    H140546   4.920   5.891   7.479 -0.9365 -0.6823  1.3690
 6329TIP3    H240547   4.781   5.856   7.428 -1.4066  1.3114  1.1568
 6330TIP3   OH240548   0.216   4.197   6.751  0.4164 -0.2043 -1.1328
 6330TIP3    H140549   0.191   4.159   6.666 -0.2410 -2.1025 -0.1425
 6330TIP3    H240550   0.294   4.149   6.777  0.2861 -0.0190 -0.3977
 6331TIP3   OH240551   5.802   5.144   0.439 -0.2868 -0.2505 -0.1031
 6331TIP3    H140552   5.782   5.233   0.410 -0.8047 -0.9160 -1.9048
 6331TIP3    H240553   5.797   5.091   0.360  1.3323 -1.6916  0.6837
 6332TIP3   OH240554   6.440   5.480   8.183 -0.0679 -0.4690  0.1105
 6332TIP3    H140555   6.439   5.385   8.182  0.7777 -0.4819 -0.4074
 6332TIP3    H240556   6.476   5.503   8.269 -2.2220 -0.5502  1.1255
 6333TIP3   OH240557   0.112   0.015   1.533  0.1355 -0.5370 -0.5948
 6333TIP3    H140558   0.198  -0.023   1.551  0.6728  0.7209 -0.4177
 6333TIP3    H240559   0.087   0.058   1.615  1.3679  2.9025 -1.8647
 6334TIP3   OH240560   1.982   4.951   6.758  0.0961  0.3895 -0.0468
 6334TIP3    H140561   1.925   4.874   6.756 -1.0915  1.2442 -1.7537
 6334TIP3    H240562   1.928   5.021   6.722  1.7458  1.6058 -0.2521
 6335TIP3   OH240563   0.280   6.012   0.102  0.2868 -0.3953  0.1762
 6335TIP3    H140564   0.358   6.047   0.059  0.1739 -1.5875 -1.0715
 6335TIP3    H240565   0.230   5.972   0.032  0.2183 -2.6878  1.4428
 6336TIP3   OH240566   0.339   1.765   8.608 -0.7839  0.4525 -0.4600
 6336TIP3    H140567   0.421   1.718   8.619 -0.4738  1.4017  2.0053
 6336TIP3    H240568   0.272   1.697   8.600 -0.1195 -0.3888  0.9357
 6337TIP3   OH240569   3.704   1.598   1.963  0.1544 -0.4658 -0.6779
 6337TIP3    H140570   3.795   1.608   1.990 -0.3611 -0.6860  1.2597
 6337TIP3    H240571   3.682   1.681   1.922  1.2567 -0.4766 -1.3468
 6338TIP3   OH240572   4.078   4.875   7.846  0.2374  0.3844 -0.1001
 6338TIP3    H140573   4.147   4.851   7.784 -0.4814 -2.1757 -0.0070
 6338TIP3    H240574   4.079   4.805   7.911 -2.3442  0.3492 -0.0143
 6339TIP3   OH240575   2.422   1.992   1.025  0.2195 -1.0342 -0.3282
 6339TIP3    H140576   2.477   2.029   1.094 -0.3003  1.1114 -0.9873
 6339TIP3    H240577   2.483   1.954   0.963  0.8208 -0.8955  0.1706
 6340TIP3   OH240578   1.466   3.355   6.656 -0.0223  0.4403  0.0526
 6340TIP3    H140579   1.555   3.339   6.624 -0.2226 -0.2617 -0.1774
 6340TIP3    H240580   1.411   3.293   6.607 -0.5556  0.4570  0.6149
 6341TIP3   OH240581   3.717   5.012   0.443 -0.3446 -1.0578  0.4905
 6341TIP3    H140582   3.803   5.012   0.484  1.0664  1.3783 -2.0459
 6341TIP3    H240583   3.655   5.009   0.516  1.8678 -1.8981  2.4541
 6342TIP3   OH240584   5.838   4.647   0.332  0.1418 -0.1421 -0.2486
 6342TIP3    H140585   5.766   4.640   0.270  0.3271  2.2273 -0.8406
 6342TIP3    H240586   5.804   4.610   0.413 -1.8155  1.0016 -0.4935
 6343TIP3   OH240587   4.019   5.535   1.835 -0.0794 -0.0651 -0.2184
 6343TIP3    H140588   4.101   5.503   1.798 -0.3535 -0.4358 -0.5016
 6343TIP3    H240589   4.038   5.626   1.859  0.1425  0.1426 -1.1424
 6344TIP3   OH240590   4.670   5.174   7.599  0.0852 -0.3260  0.0288
 6344TIP3    H140591   4.757   5.133   7.606  0.0432 -0.5634 -0.6719
 6344TIP3    H240592   4.672   5.217   7.513 -0.3947 -0.1006  0.1322
 6345TIP3   OH240593   1.468   6.132   7.076  0.1069 -0.3355  0.9332
 6345TIP3    H140594   1.410   6.064   7.042 -0.8697  1.4731 -1.2212
 6345TIP3    H240595   1.409   6.203   7.102  1.1565  0.0862  2.2857
 6346TIP3   OH240596   2.017   6.633   8.077 -0.2429 -0.3295  0.2624
 6346TIP3    H140597   1.973   6.597   7.999  0.1187 -1.3435  0.5033
 6346TIP3    H240598   2.002   6.566   8.144 -0.1468  0.3208  0.9354
 6347TIP3   OH240599   0.334   2.751   0.399  0.1345  0.3623 -0.2796
 6347TIP3    H140600   0.292   2.791   0.323  1.6268 -1.7898 -2.4190
 6347TIP3    H240601   0.415   2.801   0.411 -0.8666  1.7603  1.0656
 6348TIP3   OH240602   1.929   5.341   1.568  0.3843 -0.0710 -0.1760
 6348TIP3    H140603   1.984   5.281   1.618 -1.0755 -1.7544 -0.4776
 6348TIP3    H240604   1.907   5.292   1.488 -0.4534  1.0638 -0.6658
 6349TIP3   OH240605   5.678   4.732   7.608  0.2296  0.2245  0.7804
 6349TIP3    H140606   5.666   4.645   7.570 -1.6118  0.7813 -0.0134
 6349TIP3    H240607   5.696   4.715   7.701  2.4383 -1.0620  0.1969
 6350TIP3   OH240608   5.767   0.026   0.766 -0.2906 -0.5829 -0.1850
 6350TIP3    H140609   5.695   0.058   0.820 -0.5681  1.5973 -1.7265
 6350TIP3    H240610   5.835   0.091   0.775  1.2155 -2.1733  0.5337
 6351TIP3   OH240611   5.908   4.412   7.847 -0.7480 -0.7001  0.4737
 6351TIP3    H140612   5.882   4.321   7.832 -0.0413 -0.9779  0.8865
 6351TIP3    H240613   5.986   4.406   7.902 -0.3077  0.1357 -0.0332
 6352TIP3   OH240614   3.625   5.056   1.479 -0.4116  0.1571  0.0174
 6352TIP3    H140615   3.568   5.121   1.437 -3.9981 -2.3652  0.5556
 6352TIP3    H240616   3.595   5.053   1.570  0.8775 -1.0235  0.4394
 6353TIP3   OH240617   5.830   5.387   6.971 -0.1216 -0.7740  0.2742
 6353TIP3    H140618   5.880   5.407   7.051 -0.3156 -1.4577  0.5770
 6353TIP3    H240619   5.739   5.385   7.000 -0.4389  1.2009 -0.4223
 6354TIP3   OH240620   2.105   6.597   1.067  0.0892  0.2174  0.1944
 6354TIP3    H140621   2.152   6.514   1.057 -0.0263 -0.1830  2.4548
 6354TIP3    H240622   2.173   6.664   1.065  0.0754  0.3298 -3.0951
 6355TIP3   OH240623   0.899   6.186   0.444  0.5756  0.0018 -0.0538
 6355TIP3    H140624   0.828   6.250   0.453  1.2791  0.7534  0.3317
 6355TIP3    H240625   0.862   6.104   0.476  0.2159  0.6248  1.2074
 6356TIP3   OH240626   0.806   6.807   8.441 -0.1245  0.0409 -0.6763
 6356TIP3    H140627   0.864   6.864   8.492 -0.9338 -0.0856  0.4224
 6356TIP3    H240628   0.821   6.834   8.350  0.9280  0.6744 -0.3416
 6357TIP3   OH240629   6.136   5.739   7.192  0.4267  0.3100 -0.0187
 6357TIP3    H140630   6.130   5.785   7.108  1.8373 -0.6751 -0.6844
 6357TIP3    H240631   6.230   5.732   7.209  0.2078 -1.1756  0.7103
 6358TIP3   OH240632   3.884   0.533   6.197 -0.6888 -0.1751 -0.0697
 6358TIP3    H140633   3.957   0.519   6.258 -0.5655 -0.9162 -0.3682
 6358TIP3    H240634   3.834   0.605   6.235  0.4889  0.7058 -0.1379
 6359TIP3   OH240635   1.931   0.357   8.556 -0.2558 -0.3214 -0.6370
 6359TIP3    H140636   1.942   0.449   8.530  0.0605 -0.3144 -0.4891
 6359TIP3    H240637   1.983   0.309   8.492 -0.8832 -0.4499 -1.0626
 6360TIP3   OH240638   4.628   2.402   6.922 -0.3461  0.2373  0.2248
 6360TIP3    H140639   4.674   2.448   6.852 -1.0378 -0.3067 -0.6139
 6360TIP3    H240640   4.586   2.471   6.973  1.9819  0.8103  1.4880
 6361TIP3   OH240641   0.683   3.155   7.362  0.4410 -0.0741  0.2107
 6361TIP3    H140642   0.656   3.219   7.296  0.3803  0.5337  0.8263
 6361TIP3    H240643   0.612   3.152   7.425  1.4862  1.0915  1.5138
 6362TIP3   OH240644   0.158   6.592   1.768 -0.4665 -0.2362  0.0005
 6362TIP3    H140645   0.093   6.640   1.717 -0.1359  0.6903  0.4329
 6362TIP3    H240646   0.108   6.529   1.819 -0.8403 -0.9095 -1.1620
 6363TIP3   OH240647   2.152   6.538   1.381 -0.4245 -0.3537  0.1486
 6363TIP3    H140648   2.177   6.456   1.422  2.4920  0.5443  0.4341
 6363TIP3    H240649   2.072   6.518   1.333 -2.4358 -2.1653  3.8245
 6364TIP3   OH240650   0.959   4.460   6.919  0.3304 -0.6894 -0.0499
 6364TIP3    H140651   0.964   4.378   6.871  0.2700 -1.8165  1.7872
 6364TIP3    H240652   0.917   4.437   7.002 -1.3226  1.5431 -0.1755
 6365TIP3   OH240653   3.295   6.075   6.155  0.7459 -0.1838 -0.2207
 6365TIP3    H140654   3.325   6.137   6.221 -0.7090  0.3689 -0.0336
 6365TIP3    H240655   3.320   6.115   6.071 -0.6578  0.9568 -0.1248
 6366TIP3   OH240656   2.888   0.707   6.164 -0.7097  0.1548  0.1021
 6366TIP3    H140657   2.858   0.647   6.233  0.5065  1.1803  1.5787
 6366TIP3    H240658   2.940   0.772   6.210 -0.7946  1.5354 -1.6649
 6367TIP3   OH240659   1.854   0.315   7.472 -0.3653  0.0514  0.2211
 6367TIP3    H140660   1.847   0.362   7.555  0.0207  3.9625 -1.7434
 6367TIP3    H240661   1.769   0.328   7.430 -0.5091 -1.7554 -0.1241
 6368TIP3   OH240662   0.245   1.780   6.618 -0.0694 -0.0071 -0.0394
 6368TIP3    H140663   0.192   1.802   6.541  0.7563  1.1464 -0.3088
 6368TIP3    H240664   0.293   1.702   6.592  0.3540  0.4867 -0.7857
 6369TIP3   OH240665   1.370   6.613   8.276 -0.1469  0.0603  0.3843
 6369TIP3    H140666   1.301   6.657   8.326  0.6687  0.0140  1.5713
 6369TIP3    H240667   1.322   6.563   8.210 -1.3100 -0.6644  1.7275
 6370TIP3   OH240668   5.863   2.175   1.255  0.7473 -0.2618 -0.2551
 6370TIP3    H140669   5.924   2.134   1.316 -1.6167  0.2405  2.7162
 6370TIP3    H240670   5.896   2.152   1.168  3.6519 -2.0886  1.1772
 6371TIP3   OH240671   6.588   5.734   1.273 -0.4137  0.1572 -0.4250
 6371TIP3    H140672   6.576   5.777   1.188 -1.0125  2.0534  0.5675
 6371TIP3    H240673   6.535   5.785   1.334  0.0264 -1.1346  1.1132
 6372TIP3   OH240674   3.937   5.063   7.210  0.7302  0.2394 -0.2963
 6372TIP3    H140675   3.927   4.969   7.199 -0.4341 -0.1282  2.9335
 6372TIP3    H240676   3.853   5.099   7.181 -0.5217 -0.2428  2.4581
 6373TIP3   OH240677   2.246   1.286   1.719 -0.4400 -0.1876 -0.1485
 6373TIP3    H140678   2.260   1.198   1.685  1.2669  0.5956 -1.6844
 6373TIP3    H240679   2.285   1.285   1.806  0.7972 -0.6383 -0.6731
 6374TIP3   OH240680   4.256   1.062   7.596 -0.1051  0.2578  0.3619
 6374TIP3    H140681   4.343   1.099   7.605 -0.2965  0.6775  0.4979
 6374TIP3    H240682   4.258   1.015   7.512  0.7980 -1.2614  1.1866
 6375TIP3   OH240683   0.673   0.716   8.410  0.0930 -0.2390 -0.1646
 6375TIP3    H140684   0.640   0.673   8.489  2.1379 -0.1780  0.7883
 6375TIP3    H240685   0.671   0.809   8.431  0.7401 -0.2287 -0.1049
 6376TIP3   OH240686   4.583   6.000   8.574  0.4606 -0.0265  0.0565
 6376TIP3    H140687   4.537   6.084   8.565 -0.8075 -0.9098 -3.6458
 6376TIP3    H240688   4.658   6.008   8.515  1.9492 -0.5865  1.8009
 6377TIP3   OH240689   0.030   1.263   6.326 -0.7007 -0.3525 -0.0595
 6377TIP3    H140690   0.123   1.249   6.343 -0.3775 -2.0244 -2.6068
 6377TIP3    H240691  -0.012   1.256   6.412  1.4358 -0.1623  1.0565
 6378TIP3   OH240692   0.029   4.036   0.797  0.0504 -0.4636  0.1281
 6378TIP3    H140693  -0.044   4.046   0.735  1.6616  1.8137 -1.6033
 6378TIP3    H240694   0.063   3.948   0.780 -0.3495 -0.3716 -1.3689
 6379TIP3   OH240695   2.644   0.691   1.978 -0.2869 -0.5715  0.2232
 6379TIP3    H140696   2.651   0.611   2.029 -0.3986 -1.1159 -0.5905
 6379TIP3    H240697   2.639   0.661   1.887  0.3454  0.3905 -0.1443
 6380TIP3   OH240698   2.179   4.062   1.681  0.1023  0.2384 -0.4025
 6380TIP3    H140699   2.124   4.081   1.757  0.2417  0.1906 -0.2904
 6380TIP3    H240700   2.230   4.142   1.669  0.7278 -0.0719  0.1015
 6381TIP3   OH240701   1.641   1.926   8.707 -0.2017  0.2534 -0.6923
 6381TIP3    H140702   1.595   1.891   8.631  0.8686  1.4111 -1.9392
 6381TIP3    H240703   1.728   1.948   8.674  1.6100 -2.5439  1.7111
 6382TIP3   OH240704   6.069   6.794   8.034 -0.3603  0.4428  0.5818
 6382TIP3    H140705   6.135   6.773   7.968  1.2111  1.7450  1.6562
 6382TIP3    H240706   6.091   6.739   8.109  0.9515  2.4036  1.7377
 6383TIP3   OH240707   0.035   4.506   1.356 -0.0496 -0.2989 -0.6446
 6383TIP3    H140708   0.041   4.519   1.261  0.3351  1.6606 -0.4010
 6383TIP3    H240709   0.104   4.443   1.377 -0.5170 -1.1967 -1.7259
 6384TIP3   OH240710   0.366   4.738   1.343 -0.5624  0.2402 -0.1368
 6384TIP3    H140711   0.423   4.678   1.392  1.5764  0.7891 -1.7692
 6384TIP3    H240712   0.309   4.777   1.409  0.7225 -0.6299  1.5588
 6385TIP3   OH240713   3.184   6.629   7.994 -0.3040  0.4560 -0.2156
 6385TIP3    H140714   3.279   6.634   7.982 -0.3249  1.4232 -0.0494
 6385TIP3    H240715   3.154   6.570   7.926  0.4223  0.1187 -0.2521
 6386TIP3   OH240716   3.351   4.917   0.349 -0.8382 -0.3302  0.1954
 6386TIP3    H140717   3.313   4.872   0.273 -1.5765 -0.6233  0.7303
 6386TIP3    H240718   3.334   5.010   0.333 -1.3461 -0.4222  0.1890
 6387TIP3   OH240719   6.396   6.178   8.614  0.1697 -0.7963 -0.5590
 6387TIP3    H140720   6.485   6.188   8.577  0.0162 -0.7158 -0.9138
 6387TIP3    H240721   6.410   6.166   8.708  0.5845 -1.1615 -0.6624
 6388TIP3   OH240722   3.931   4.430   6.431 -0.5707  0.5549  0.1498
 6388TIP3    H140723   3.972   4.345   6.418  0.7175  1.2574 -0.5551
 6388TIP3    H240724   3.880   4.420   6.512  0.5325 -0.5125  0.7365
 6389TIP3   OH240725   3.979   4.566   6.129  0.0616 -0.6132 -0.2005
 6389TIP3    H140726   3.890   4.585   6.100  0.5435  1.9239 -0.2475
 6389TIP3    H240727   3.969   4.537   6.220 -0.7478  0.9247  0.2343
 6390TIP3   OH240728   4.587   5.996   7.225  0.2043  0.8217  0.1617
 6390TIP3    H140729   4.551   6.065   7.170 -0.4651  1.3176  1.2011
 6390TIP3    H240730   4.524   5.924   7.218 -1.3516  1.8560  2.3486
 6391TIP3   OH240731   3.168   5.321   0.080 -0.0748 -0.1381 -0.5409
 6391TIP3    H140732   3.152   5.307  -0.013  1.7153 -1.1354 -0.7573
 6391TIP3    H240733   3.206   5.409   0.085 -1.3584  0.4415 -0.5567
 6392TIP3   OH240734   0.727   1.654   0.671 -0.0390 -0.3648  0.2817
 6392TIP3    H140735   0.720   1.749   0.659 -2.2938 -0.4755  0.3631
 6392TIP3    H240736   0.781   1.625   0.597 -0.5071  0.8175 -0.5541
 6393TIP3   OH240737   0.825   6.717   1.570  0.3409 -0.3429  0.3932
 6393TIP3    H140738   0.733   6.691   1.563  0.7521 -1.5246 -1.5011
 6393TIP3    H240739   0.861   6.663   1.640 -0.0102 -1.2763 -0.1217
 6394TIP3   OH240740   6.054   1.915   0.125  0.7052  0.2285 -0.5296
 6394TIP3    H140741   6.142   1.930   0.157 -0.0815  3.0079  0.6593
 6394TIP3    H240742   6.043   1.819   0.126  2.6845 -0.0768  2.1575
 6395TIP3   OH240743   4.631   1.086   1.393 -0.1338  0.2993 -0.0144
 6395TIP3    H140744   4.568   1.152   1.364  0.2063 -0.1403 -1.8617
 6395TIP3    H240745   4.652   1.037   1.314  0.1505 -1.5905  1.1826
 6396TIP3   OH240746   5.604   0.701   6.747 -0.7689 -0.2688 -0.2535
 6396TIP3    H140747   5.679   0.643   6.762  0.0739 -0.2618 -3.5474
 6396TIP3    H240748   5.643   0.786   6.725 -1.7489 -0.0426 -1.2184
 6397TIP3   OH240749   6.613   1.599   1.091 -0.0526 -0.0201 -0.2030
 6397TIP3    H140750   6.550   1.632   1.028  0.0715  0.1007 -0.2624
 6397TIP3    H240751   6.651   1.521   1.049  1.2398  0.9941 -0.9915
 6398TIP3   OH240752   5.805   3.056   1.134  0.0122 -0.4541  0.0923
 6398TIP3    H140753   5.787   2.966   1.161 -1.1098  0.2874  2.0054
 6398TIP3    H240754   5.820   3.103   1.215 -0.4939  1.3141 -0.7821
 6399TIP3   OH240755   1.205   4.061   8.746  0.0014 -0.2130  0.5959
 6399TIP3    H140756   1.293   4.027   8.764  0.4738  1.0503  0.7937
 6399TIP3    H240757   1.219   4.153   8.724 -1.2050 -0.1875 -0.1668
 6400TIP3   OH240758   4.933   2.838   1.626  0.2057  0.0869  0.1027
 6400TIP3    H140759   4.992   2.785   1.680 -0.6591  0.3152  1.3053
 6400TIP3    H240760   4.975   2.839   1.540  0.6054 -1.9612  0.2185
 6401TIP3   OH240761   2.485   4.260   7.081 -0.3331  0.0950  0.5709
 6401TIP3    H140762   2.429   4.319   7.031  0.4112 -0.3393 -0.8294
 6401TIP3    H240763   2.458   4.172   7.053  0.5394 -0.1351  0.3929
 6402TIP3   OH240764   1.680   5.435   0.559  0.1405 -0.1286  0.2218
 6402TIP3    H140765   1.597   5.468   0.527 -0.2490 -0.3652  0.9638
 6402TIP3    H240766   1.664   5.343   0.578  1.3093 -0.8980 -2.1423
 6403TIP3   OH240767   3.503   5.889   0.546 -0.6122  0.1876  0.3440
 6403TIP3    H140768   3.521   5.796   0.534  1.1345  0.0246  3.1891
 6403TIP3    H240769   3.534   5.930   0.466  4.3221 -1.1419  1.2227
 6404TIP3   OH240770   2.682   2.499   0.839 -0.3234  0.1918 -0.4326
 6404TIP3    H140771   2.709   2.428   0.897  0.6212  0.5265 -0.4538
 6404TIP3    H240772   2.616   2.547   0.890  0.3789  0.3925  0.3044
 6405TIP3   OH240773   5.378   3.614   8.029 -0.1366 -0.3166  0.0277
 6405TIP3    H140774   5.408   3.567   8.107 -1.8674 -1.1144  0.2529
 6405TIP3    H240775   5.300   3.566   8.001  0.1498  0.2753 -1.8968
 6406TIP3   OH240776   1.217   6.579   0.981  0.2801  0.6767 -0.0336
 6406TIP3    H140777   1.135   6.573   1.030 -0.2340 -2.3505 -1.0473
 6406TIP3    H240778   1.195   6.631   0.904 -0.6688  0.0488 -0.2044
 6407TIP3   OH240779   2.311   5.609   2.004  0.1514 -0.2652 -0.3203
 6407TIP3    H140780   2.396   5.607   1.960 -0.2722 -1.9666 -1.1121
 6407TIP3    H240781   2.328   5.654   2.087  1.7334 -0.2597 -0.6247
 6408TIP3   OH240782   2.475   2.585   7.152  0.0889 -0.1823 -0.1495
 6408TIP3    H140783   2.532   2.534   7.095  1.3923  0.5539  0.4490
 6408TIP3    H240784   2.495   2.554   7.240  0.1339  0.6037  0.1270
 6409TIP3   OH240785   0.441   4.505   8.355  0.4583 -0.2354 -0.5151
 6409TIP3    H140786   0.528   4.543   8.344 -0.0852  1.2862  0.1944
 6409TIP3    H240787   0.382   4.567   8.313 -0.6169  0.5803  2.0040
 6410TIP3   OH240788   1.627   0.040   0.910 -0.4035 -0.5774  1.2910
 6410TIP3    H140789   1.609   0.020   0.818  3.0344 -1.2023  0.5924
 6410TIP3    H240790   1.546   0.077   0.943 -1.4920  0.6223 -2.2695
 6411TIP3   OH240791   4.281   3.728   1.312 -0.1262  0.1398 -0.1846
 6411TIP3    H140792   4.302   3.763   1.226  1.4608  0.8582  0.4727
 6411TIP3    H240793   4.258   3.636   1.295  1.9845 -0.2503 -1.1724
 6412TIP3   OH240794   5.584   3.371   8.499  0.4979  0.2676  0.3338
 6412TIP3    H140795   5.635   3.450   8.518  0.3476  0.2101  1.0128
 6412TIP3    H240796   5.649   3.309   8.464  0.2789  1.3282 -2.1823
 6413TIP3   OH240797   3.692   6.796   1.244 -0.2155 -0.4276 -0.3174
 6413TIP3    H140798   3.612   6.845   1.223  0.1088 -0.1889 -1.0674
 6413TIP3    H240799   3.679   6.710   1.203  0.1059 -0.2213 -0.8665
 6414TIP3   OH240800   4.392   0.513   6.578  0.0384  0.1126  0.2017
 6414TIP3    H140801   4.341   0.468   6.645 -0.8203 -0.0120 -0.5089
 6414TIP3    H240802   4.358   0.479   6.495 -0.2731  1.6646 -0.3449
 6415TIP3   OH240803   4.316   4.105   1.262  0.3780  0.0334  0.0422
 6415TIP3    H140804   4.291   4.040   1.327 -0.9777  1.4915  1.0635
 6415TIP3    H240805   4.412   4.101   1.260  0.4849  0.0535  2.3152
 6416TIP3   OH240806   5.716   2.715   0.882  0.0601 -0.3030  0.4630
 6416TIP3    H140807   5.784   2.760   0.833 -1.1833  1.9656  0.7170
 6416TIP3    H240808   5.763   2.675   0.956  1.4779 -1.1425 -0.8306
 6417TIP3   OH240809   1.693   1.673   7.523  0.2947  0.3456  0.1064
 6417TIP3    H140810   1.601   1.679   7.496  0.4202 -1.2409 -0.8212
 6417TIP3    H240811   1.693   1.696   7.616 -0.8310  1.6374 -0.1750
 6418TIP3   OH240812   6.461   5.797   6.469 -0.1029  0.0647 -0.1750
 6418TIP3    H140813   6.387   5.767   6.415 -0.2854 -1.7351  0.9956
 6418TIP3    H240814   6.531   5.734   6.450  0.1857  0.0564  0.8910
 6419TIP3   OH240815   0.867   2.430   7.717  0.3875  0.1079  0.5690
 6419TIP3    H140816   0.938   2.483   7.753 -0.2171  1.4479 -0.1462
 6419TIP3    H240817   0.889   2.420   7.624 -0.0640  0.0260  0.4693
 6420TIP3   OH240818   5.101   5.488   1.426  0.6105 -0.1478 -0.4438
 6420TIP3    H140819   5.030   5.424   1.428  0.4257  0.0610 -0.2801
 6420TIP3    H240820   5.130   5.494   1.517  1.4284 -0.8819 -0.6419
 6421TIP3   OH240821   5.528   4.961   0.104  0.4418 -0.4067 -0.1384
 6421TIP3    H140822   5.560   4.907   0.032  0.9919  1.2938 -1.2240
 6421TIP3    H240823   5.458   5.014   0.066  2.1438  2.0459 -0.0464
 6422TIP3   OH240824   3.184   4.001   0.096 -0.5431  0.4188 -0.4007
 6422TIP3    H140825   3.218   3.953   0.020 -0.6488 -2.6077  1.3226
 6422TIP3    H240826   3.202   4.093   0.076  1.0883 -0.3989 -3.2461
 6423TIP3   OH240827   2.308   4.455   0.832  0.4657  0.2112 -0.1220
 6423TIP3    H140828   2.236   4.430   0.891  0.2046 -1.4284 -1.0635
 6423TIP3    H240829   2.368   4.506   0.887  0.3187 -1.3820  1.6112
 6424TIP3   OH240830   2.459   0.123   0.719 -0.1748  0.3571 -0.2474
 6424TIP3    H140831   2.540   0.155   0.679 -0.3249  1.5004  0.3086
 6424TIP3    H240832   2.475   0.127   0.813 -0.6251 -0.1012 -0.1451
 6425TIP3   OH240833   0.047   6.092   1.188 -0.6908  0.0704 -0.0289
 6425TIP3    H140834  -0.047   6.080   1.199 -0.6862  0.2124  0.1742
 6425TIP3    H240835   0.084   6.071   1.274 -0.5512  0.1440 -0.0701
 6426TIP3   OH240836   0.753   4.075   7.877 -0.5330 -0.1591  0.1757
 6426TIP3    H140837   0.759   4.088   7.783 -0.8590  1.9478  0.3902
 6426TIP3    H240838   0.840   4.095   7.911 -0.1868 -1.7190  0.2783
 6427TIP3   OH240839   1.855   1.248   1.517  0.5947 -0.5756 -0.0687
 6427TIP3    H140840   1.840   1.204   1.433  1.9086  1.8489 -1.6815
 6427TIP3    H240841   1.769   1.282   1.542  0.3067 -0.7760 -0.7601
 6428TIP3   OH240842   3.713   2.030   7.492  1.0764 -0.3187  0.7167
 6428TIP3    H140843   3.755   1.988   7.417 -0.8544  0.0357 -0.6602
 6428TIP3    H240844   3.678   2.112   7.456  0.5367  0.1038  2.1464
 6429TIP3   OH240845   0.138   0.191   6.913  0.2847 -0.1022  0.0415
 6429TIP3    H140846   0.089   0.133   6.971 -0.7616  0.3241 -0.3917
 6429TIP3    H240847   0.078   0.209   6.840  0.9197  0.7918 -0.2820
 6430TIP3   OH240848   3.872   6.810   7.462 -0.3134 -0.2828  0.6948
 6430TIP3    H140849   3.967   6.824   7.466 -0.1640 -0.5321 -1.0624
 6430TIP3    H240850   3.836   6.873   7.524  0.7908  2.7707 -1.5137
 6431TIP3   OH240851   4.085   1.057   1.304 -0.5203 -0.2209  0.9440
 6431TIP3    H140852   4.017   1.122   1.287 -0.1787 -0.3878 -1.3562
 6431TIP3    H240853   4.062   0.982   1.250  1.8977  0.0375 -0.6062
 6432TIP3   OH240854   5.293   6.456   6.383 -0.4516 -0.1881  0.2892
 6432TIP3    H140855   5.279   6.548   6.402  1.6366  0.0076  1.1217
 6432TIP3    H240856   5.374   6.433   6.429  0.3447 -1.8367 -1.7204
 6433TIP3   OH240857   3.412   3.655   1.737  0.0368  0.0818 -0.4595
 6433TIP3    H140858   3.467   3.576   1.741  0.3900  0.1460 -2.6989
 6433TIP3    H240859   3.405   3.684   1.828 -0.3913 -2.7093  0.4827
 6434TIP3   OH240860   4.560   0.596   6.876 -0.4793  0.0883  1.0991
 6434TIP3    H140861   4.512   0.675   6.899  1.8829  2.3515 -1.1016
 6434TIP3    H240862   4.553   0.591   6.780  1.4140 -0.9667  0.9744
 6435TIP3   OH240863   2.010   1.521   8.012  0.0241 -0.4649  0.5160
 6435TIP3    H140864   2.054   1.451   8.060  1.7373  1.0347  1.2568
 6435TIP3    H240865   1.941   1.551   8.071 -0.7128 -1.4609  0.2000
 6436TIP3   OH240866   4.080   6.236   6.863 -0.1653 -0.3789  0.0061
 6436TIP3    H140867   4.008   6.174   6.874 -0.7140  0.3278  0.4990
 6436TIP3    H240868   4.044   6.306   6.809  0.3987 -0.4033 -0.4140
 6437TIP3   OH240869   3.894   3.904   8.073 -0.3692  0.0110  0.3934
 6437TIP3    H140870   3.849   3.894   7.989 -3.5879  0.3560  1.9037
 6437TIP3    H240871   3.868   3.827   8.124  2.8473 -1.0534  0.6482
 6438TIP3   OH240872   0.897   6.732   7.526  0.3296 -0.0033 -0.3785
 6438TIP3    H140873   0.926   6.798   7.588 -0.3123 -0.4749  0.4435
 6438TIP3    H240874   0.927   6.649   7.563 -3.2879 -0.7194  1.4092
 6439TIP3   OH240875   1.645   3.289   6.918 -0.8488 -0.0001 -0.0105
 6439TIP3    H140876   1.672   3.301   6.827 -1.5378 -1.5106 -0.4592
 6439TIP3    H240877   1.597   3.368   6.940 -0.7180  0.3593 -0.9752
 6440TIP3   OH240878   2.826   6.627   8.566  0.6305  0.4143 -0.3117
 6440TIP3    H140879   2.774   6.547   8.567  1.1937  0.0425 -0.3358
 6440TIP3    H240880   2.772   6.691   8.519  1.0389 -0.5543 -2.2159
 6441TIP3   OH240881   6.117   2.685   8.466 -0.0976 -0.4926 -0.2997
 6441TIP3    H140882   6.179   2.746   8.427 -0.3975 -0.6963 -1.1083
 6441TIP3    H240883   6.151   2.598   8.444  1.4946 -0.7343  2.6183
 6442TIP3   OH240884   2.469   1.602   7.414 -0.6880 -0.9152 -0.3164
 6442TIP3    H140885   2.532   1.588   7.486 -0.2507 -0.6755 -0.6477
 6442TIP3    H240886   2.403   1.661   7.451 -0.5466 -0.9137 -0.0624
 6443TIP3   OH240887   1.894   1.893   8.599 -0.1789 -0.6122  0.1458
 6443TIP3    H140888   1.924   1.979   8.568  0.3319 -0.8864 -0.1348
 6443TIP3    H240889   1.851   1.854   8.523  1.3052 -1.3947 -0.3416
 6444TIP3   OH240890   0.409   5.091   7.747 -0.7060 -0.1060 -0.0598
 6444TIP3    H140891   0.453   5.007   7.764 -0.0132  0.2233 -0.1923
 6444TIP3    H240892   0.468   5.137   7.687 -1.1056  0.4629 -0.0232
 6445TIP3   OH240893   1.103   5.406   1.525 -0.0055 -0.5037  0.4732
 6445TIP3    H140894   1.053   5.377   1.449  0.6400 -0.8900  0.1780
 6445TIP3    H240895   1.175   5.343   1.531  1.4795  1.0433 -0.2074
 6446TIP3   OH240896   0.129   6.605   8.424  0.3877  0.6539  0.4612
 6446TIP3    H140897   0.113   6.548   8.349 -3.1182 -0.5550  1.8938
 6446TIP3    H240898   0.206   6.567   8.466  1.4623  0.4006 -1.5846
 6447TIP3   OH240899   5.602   0.242   2.335  0.6206 -0.6219 -0.0086
 6447TIP3    H140900   5.540   0.315   2.328  2.2695  0.7006 -2.3560
 6447TIP3    H240901   5.610   0.209   2.246  2.8027 -1.1591  0.3424
 6448TIP3   OH240902   6.344   5.964   0.317 -0.4768  0.1658  0.5343
 6448TIP3    H140903   6.419   5.910   0.340  1.0237  1.4165 -1.1914
 6448TIP3    H240904   6.311   5.927   0.236 -0.4211  0.8720  0.1816
 6449TIP3   OH240905   4.054   1.326   6.925 -0.4131 -0.2940  0.0203
 6449TIP3    H140906   4.135   1.276   6.910 -0.7246 -1.1759  1.1575
 6449TIP3    H240907   3.999   1.304   6.850  0.6478  0.9150 -1.1755
 6450TIP3   OH240908   3.685   0.149   7.589 -0.8041 -0.6786  1.0051
 6450TIP3    H140909   3.669   0.133   7.682 -2.1492 -0.0959  0.8925
 6450TIP3    H240910   3.692   0.244   7.582 -0.3509 -0.7402  0.5612
 6451TIP3   OH240911   1.442   2.290   7.889  0.3890 -0.6330  0.0052
 6451TIP3    H140912   1.387   2.364   7.861  1.9659  1.3087  1.7719
 6451TIP3    H240913   1.521   2.298   7.835 -0.0034 -1.9702 -0.8179
 6452TIP3   OH240914   2.090   3.081   1.015  1.1070  0.6096  0.4676
 6452TIP3    H140915   2.029   3.123   0.955  1.5234 -0.0549 -0.4452
 6452TIP3    H240916   2.036   3.021   1.066  0.6544  1.5943  1.1943
 6453TIP3   OH240917   4.135   3.533   1.002 -0.6064  0.2265  0.4644
 6453TIP3    H140918   4.157   3.535   1.095  1.9354 -0.4525 -0.0494
 6453TIP3    H240919   4.132   3.439   0.981  2.9403  0.2772 -0.8953
 6454TIP3   OH240920   1.285   3.508   0.733  0.5119  0.0285  0.4682
 6454TIP3    H140921   1.336   3.448   0.788  1.5058 -0.9772 -1.4170
 6454TIP3    H240922   1.348   3.574   0.704 -0.4140  1.6245  1.9372
 6455TIP3   OH240923   2.995   0.950   7.092 -0.1468  0.1888  0.2423
 6455TIP3    H140924   2.954   1.036   7.090  2.0615  1.2857 -0.8389
 6455TIP3    H240925   3.051   0.951   7.170  1.2355  0.4587 -0.7112
 6456TIP3   OH240926   3.533   4.930   8.313  0.3582 -0.4207 -0.0678
 6456TIP3    H140927   3.569   5.012   8.278  0.7535  0.0083  1.2824
 6456TIP3    H240928   3.607   4.888   8.357 -0.8199  0.9335  3.5942
 6457TIP3   OH240929   2.422   3.802   8.140 -0.1890  0.5058  0.4583
 6457TIP3    H140930   2.409   3.776   8.231  0.8740 -2.6756 -0.1638
 6457TIP3    H240931   2.500   3.753   8.112 -0.9174  0.7774 -2.3802
 6458TIP3   OH240932   6.618   2.533   0.291  0.2418  0.0303 -0.1982
 6458TIP3    H140933   6.696   2.550   0.343 -0.5337 -0.7192  1.2898
 6458TIP3    H240934   6.560   2.607   0.309  0.0261 -0.1556 -0.1225
 6459TIP3   OH240935   2.283   6.689   0.348 -0.2267  0.3064  0.9525
 6459TIP3    H140936   2.204   6.734   0.317  1.6632  1.9994 -1.8835
 6459TIP3    H240937   2.287   6.708   0.442 -2.1471  1.8466  0.7765
 6460TIP3   OH240938   5.740   5.705   7.563  0.2640 -0.1794  0.1906
 6460TIP3    H140939   5.661   5.660   7.532  0.2741 -0.1548  0.1268
 6460TIP3    H240940   5.753   5.674   7.652  0.3805 -0.4474  0.0794
 6461TIP3   OH240941   2.565   5.742   7.914 -0.1946 -0.4500 -0.5036
 6461TIP3    H140942   2.587   5.762   8.005  0.8159 -1.0316 -0.6057
 6461TIP3    H240943   2.516   5.819   7.884 -2.3639 -1.1040  1.1162
 6462TIP3   OH240944   3.038   1.451   6.771  0.0657  0.4097 -0.1732
 6462TIP3    H140945   3.049   1.510   6.696  0.7178 -0.4576 -0.7797
 6462TIP3    H240946   2.987   1.378   6.737  0.1872  0.1080  0.2803
 6463TIP3   OH240947   6.701   1.931   1.949 -0.1442  0.2914 -0.0916
 6463TIP3    H140948   6.714   1.937   1.854 -0.9955  1.5969 -0.1638
 6463TIP3    H240949   6.770   1.986   1.986 -0.0709  0.1238  0.0197
 6464TIP3   OH240950   0.551   2.365   0.976  0.1728  0.1055 -0.0564
 6464TIP3    H140951   0.475   2.395   1.026  0.2545  1.4855 -0.7372
 6464TIP3    H240952   0.593   2.301   1.035 -0.2797  0.9495  1.2318
 6465TIP3   OH240953   2.083   2.424   6.729 -0.4311  0.3060  0.3892
 6465TIP3    H140954   2.087   2.423   6.633 -0.4751  2.1457  0.3384
 6465TIP3    H240955   2.028   2.349   6.751  0.3661 -0.7306 -0.9560
 6466TIP3   OH240956   2.015   3.126   0.640 -0.2181 -0.1147 -0.9445
 6466TIP3    H140957   1.990   3.218   0.632  1.6975  0.4400 -1.0918
 6466TIP3    H240958   2.101   3.128   0.682 -0.1158 -1.8378 -1.0032
 6467TIP3   OH240959   0.702   0.019   7.013 -0.5485  0.5608  0.0913
 6467TIP3    H140960   0.757  -0.011   6.940  1.3447  2.0809  0.8030
 6467TIP3    H240961   0.764   0.054   7.077 -2.0915 -1.2173  2.7565
 6468TIP3   OH240962   5.854   1.257   8.227  0.6093  0.3119 -0.2214
 6468TIP3    H140963   5.912   1.193   8.268  0.6385  0.4802 -0.0021
 6468TIP3    H240964   5.852   1.331   8.288 -0.0964  0.1706 -0.0638
 6469TIP3   OH240965   4.779   3.733   7.992 -0.0793 -0.3347 -0.0045
 6469TIP3    H140966   4.713   3.766   7.931  1.7425  1.5657 -1.0804
 6469TIP3    H240967   4.832   3.673   7.941  0.7614  0.3825 -0.0008
 6470TIP3   OH240968   2.085   0.611   8.646  0.9104 -0.4726 -0.3771
 6470TIP3    H140969   2.158   0.552   8.630  1.2381 -0.4651  0.9510
 6470TIP3    H240970   2.034   0.568   8.715 -1.2424 -1.2327 -2.3150
 6471TIP3   OH240971   6.295   5.466   0.055 -0.0972 -0.0065  0.5330
 6471TIP3    H140972   6.236   5.461  -0.020  2.1104  0.1188 -1.3227
 6471TIP3    H240973   6.254   5.411   0.121 -2.1497 -0.0964 -0.7185
 6472TIP3   OH240974   5.943   4.689   6.939  0.4229  0.1561 -0.5820
 6472TIP3    H140975   5.977   4.702   6.850  1.2236 -0.5551 -0.3950
 6472TIP3    H240976   6.019   4.703   6.996 -0.5384  2.7817  0.1769
 6473TIP3   OH240977   0.539   0.515   8.156  0.5151 -0.3318  0.4570
 6473TIP3    H140978   0.456   0.493   8.113  0.5703 -1.4295  0.8639
 6473TIP3    H240979   0.600   0.448   8.125  0.6259 -0.9858  1.9739
 6474TIP3   OH240980   0.627   5.323   1.074 -0.0034 -0.5024 -0.3857
 6474TIP3    H140981   0.667   5.409   1.073  0.4224 -0.7023 -0.6571
 6474TIP3    H240982   0.556   5.330   1.139 -0.7306  0.3881 -1.2457
 6475TIP3   OH240983   4.942   3.116   8.298 -0.0677 -0.6628 -0.2552
 6475TIP3    H140984   5.020   3.148   8.253 -1.2759  0.9391 -1.3011
 6475TIP3    H240985   4.926   3.030   8.260 -0.5730  0.3089 -2.3503
 6476TIP3   OH240986   3.615   1.464   2.528  0.1244  0.0088 -0.5354
 6476TIP3    H140987   3.660   1.543   2.560 -2.0886  0.9957  0.3337
 6476TIP3    H240988   3.647   1.453   2.438 -1.5941  3.6678 -1.7814
 6477TIP3   OH240989   4.635   2.041   0.946  0.3055  0.9217  0.6578
 6477TIP3    H140990   4.596   2.038   0.859  0.5936  0.0076  0.5548
 6477TIP3    H240991   4.564   2.017   1.006  0.6053 -0.4755  0.4930
 6478TIP3   OH240992   5.450   2.916   8.653  0.1168 -0.3041  0.3911
 6478TIP3    H140993   5.427   2.996   8.606  0.2425 -0.6472 -0.2735
 6478TIP3    H240994   5.385   2.909   8.723 -0.1444  0.1611  0.1940
 6479TIP3   OH240995   5.628   2.543   7.769  0.4437 -0.0270 -0.3532
 6479TIP3    H140996   5.670   2.570   7.851  0.6571  1.2726 -0.8693
 6479TIP3    H240997   5.546   2.501   7.797  0.2714  0.8394  0.5032
 6480TIP3   OH240998   1.301   3.848   6.622 -0.1593  0.0629  0.0309
 6480TIP3    H140999   1.307   3.933   6.578 -0.0303 -0.2383 -0.5491
 6480TIP3    H241000   1.285   3.786   6.551  3.5401 -0.9556 -0.1397
 6481TIP3   OH241001   5.954   5.831   7.750  0.3799  0.8857  0.5913
 6481TIP3    H141002   5.928   5.765   7.814  1.0970 -0.0534 -0.0476
 6481TIP3    H241003   6.034   5.869   7.786  2.8662 -2.0913 -1.2296
 6482TIP3   OH241004   2.341   1.995   7.982 -0.2135  0.0144 -0.3505
 6482TIP3    H141005   2.339   2.086   8.012  1.7044 -0.0444  0.0795
 6482TIP3    H241006   2.369   2.001   7.891 -1.0207 -0.1133 -0.6174
 6483TIP3   OH241007   0.282   1.598   7.079 -0.1687 -0.1872  0.0295
 6483TIP3    H141008   0.207   1.554   7.119  0.0428 -1.7462 -1.2120
 6483TIP3    H241009   0.243   1.656   7.013 -0.3265 -0.3541 -0.0259
 6484TIP3   OH241010   0.087   2.881   6.787 -0.0448 -0.2774 -0.3193
 6484TIP3    H141011   0.009   2.850   6.741 -0.6800 -1.9941  1.7562
 6484TIP3    H241012   0.053   2.935   6.858  0.8637  1.4038 -1.0969
 6485TIP3   OH241013   6.026   5.814   8.483  0.2908  0.3805  0.0580
 6485TIP3    H141014   6.119   5.826   8.502  0.6514 -0.0421 -1.3986
 6485TIP3    H241015   5.982   5.875   8.544  1.6192  2.2269 -0.7297
 6486TIP3   OH241016   0.636   5.243   2.430 -0.3334  0.0712 -0.0987
 6486TIP3    H141017   0.657   5.315   2.371  1.6754  1.6758  2.3775
 6486TIP3    H241018   0.687   5.169   2.397 -1.3272  0.1183 -1.8572
 6487TIP3   OH241019   0.951   2.512   1.825  0.1690 -0.3763  0.2594
 6487TIP3    H141020   0.979   2.583   1.767  1.0406 -0.6333  0.3545
 6487TIP3    H241021   0.992   2.433   1.789  0.0087 -0.6773  0.7239
 6488TIP3   OH241022   1.499   1.460   8.068 -0.0219  0.3665 -0.1594
 6488TIP3    H141023   1.513   1.482   8.160  1.7949  0.6526 -0.4668
 6488TIP3    H241024   1.530   1.370   8.060  2.0207  1.0899 -0.9223
 6489TIP3   OH241025   0.188   4.998   0.923 -0.3712  0.1490 -0.6847
 6489TIP3    H141026   0.172   4.969   0.833  0.0874 -1.4226 -0.2880
 6489TIP3    H241027   0.282   5.010   0.928 -0.2803 -0.6848 -0.1745
 6490TIP3   OH241028   5.922   1.915   8.620  0.3678 -0.6150  0.1717
 6490TIP3    H141029   5.991   1.891   8.682 -0.3092 -0.9247  0.8081
 6490TIP3    H241030   5.844   1.872   8.653 -0.1067 -0.3835 -0.6316
 6491TIP3   OH241031   0.125   2.492   7.942  0.1769  0.0631  0.4760
 6491TIP3    H141032   0.170   2.553   8.001 -0.5333  0.1599  0.9239
 6491TIP3    H241033   0.051   2.460   7.992  0.8481 -1.6298  0.4454
 6492TIP3   OH241034   3.987   6.552   8.198  0.0161 -0.1723  0.2370
 6492TIP3    H141035   4.077   6.567   8.229 -0.2058 -0.9400  1.3103
 6492TIP3    H241036   3.960   6.472   8.243 -0.6402 -0.8625 -1.3368
 6493TIP3   OH241037   2.669   3.660   7.048  0.3133  0.1905  0.0058
 6493TIP3    H141038   2.614   3.679   7.124  1.1861  0.7682  0.5091
 6493TIP3    H241039   2.705   3.574   7.065  0.6802  0.4115  0.3583
 6494TIP3   OH241040   1.226   2.981   6.338  0.0770 -0.0082 -0.2307
 6494TIP3    H141041   1.304   2.936   6.306  1.3273  1.0105  1.2453
 6494TIP3    H241042   1.160   2.912   6.348  2.0301 -1.6949  2.3169
 6495TIP3   OH241043   5.287   2.061   6.657 -0.4604  0.5304 -0.3061
 6495TIP3    H141044   5.292   1.979   6.706  0.1396  0.9188  0.2993
 6495TIP3    H241045   5.215   2.048   6.595 -0.0850 -0.6093 -0.5099
 6496TIP3   OH241046   5.100   5.638   8.543 -0.2810  0.0080  0.5417
 6496TIP3    H141047   5.054   5.584   8.607  0.4348 -2.2447 -0.7378
 6496TIP3    H241048   5.190   5.643   8.576 -0.3991  0.6731  0.7831
 6497TIP3   OH241049   0.355   3.963   1.323 -0.0667 -0.1553  0.3925
 6497TIP3    H141050   0.262   3.976   1.342  0.0117 -2.2895  2.5998
 6497TIP3    H241051   0.396   4.046   1.347 -1.2257  0.4099  0.5002
 6498TIP3   OH241052   0.090   4.302   8.150 -0.2502 -0.5949 -0.6925
 6498TIP3    H141053   0.129   4.326   8.066  2.4091  0.7033  0.7335
 6498TIP3    H241054   0.026   4.371   8.167 -1.2147 -1.1699 -1.8358
 6499TIP3   OH241055   2.890   3.360   8.153 -0.3761 -0.4003 -0.3218
 6499TIP3    H141056   2.848   3.370   8.067 -1.6216  1.8248  0.4629
 6499TIP3    H241057   2.858   3.276   8.185 -0.9338 -0.6572 -1.4886
 6500TIP3   OH241058   0.672   2.645   0.630 -0.0066  0.3395 -0.0082
 6500TIP3    H141059   0.755   2.661   0.586  1.0134 -0.0671  1.6537
 6500TIP3    H241060   0.637   2.567   0.588  0.6738  0.2562 -0.4326
 6501TIP3   OH241061   4.105   3.625   0.738 -0.0805  0.0397 -0.0637
 6501TIP3    H141062   4.110   3.600   0.830 -0.6787 -0.1082 -0.0665
 6501TIP3    H241063   4.048   3.559   0.698  1.1381 -0.6023 -0.7987
 6502TIP3   OH241064   1.245   4.356   8.671 -0.1260 -0.0629 -0.1998
 6502TIP3    H141065   1.252   4.449   8.693  0.5550 -0.0285 -0.5192
 6502TIP3    H241066   1.312   4.343   8.604 -1.0356 -0.5210 -1.0462
 6503TIP3   OH241067   2.665   5.446   0.770  0.2542  0.0348  0.1253
 6503TIP3    H141068   2.627   5.463   0.684 -1.2147 -0.1151  0.7136
 6503TIP3    H241069   2.653   5.528   0.818  2.8405  0.7974 -0.3820
 6504TIP3   OH241070   4.434   0.046   0.388 -0.5330  0.2949 -0.1292
 6504TIP3    H141071   4.346   0.083   0.396 -0.3907  0.6367 -0.1137
 6504TIP3    H241072   4.421  -0.049   0.395 -0.9632  0.3074 -0.6629
 6505TIP3   OH241073   3.816   1.548   7.164  0.1433  0.4790  0.1906
 6505TIP3    H141074   3.767   1.611   7.111 -0.1538  0.2590  0.2020
 6505TIP3    H241075   3.898   1.537   7.118  0.0444  0.5885 -0.0144
 6506TIP3   OH241076   1.668   1.823   1.272 -0.5951  0.2201  0.2610
 6506TIP3    H141077   1.642   1.804   1.182 -1.5103  2.5971 -0.0540
 6506TIP3    H241078   1.585   1.827   1.321 -0.4880  2.6146  0.3677
 6507TIP3   OH241079   2.465   4.704   8.384  0.3821  0.2353 -0.5941
 6507TIP3    H141080   2.401   4.733   8.448  0.7032 -1.3092  0.5036
 6507TIP3    H241081   2.460   4.608   8.387  3.4653 -0.0197  0.4044
 6508TIP3   OH241082   5.116   6.408   0.088  0.1775 -0.0562 -0.1160
 6508TIP3    H141083   5.193   6.415   0.031  0.6953 -0.2317  0.5585
 6508TIP3    H241084   5.139   6.341   0.152 -0.5837 -0.1891  0.0273
 6509TIP3   OH241085   2.908   4.995   2.278  0.3734  0.1797  0.9491
 6509TIP3    H141086   2.857   5.011   2.357  0.1617  1.5218  0.5526
 6509TIP3    H241087   2.943   4.907   2.291  1.5677  0.8982  3.2355
 6510TIP3   OH241088   2.889   2.493   0.648  0.1861 -0.4802 -0.6749
 6510TIP3    H141089   2.926   2.580   0.666  0.7633 -0.4324 -1.9981
 6510TIP3    H241090   2.836   2.474   0.725  0.0352  1.0583 -0.3550
 6511TIP3   OH241091   3.035   6.118   6.332 -0.0009 -0.0621 -0.4429
 6511TIP3    H141092   3.097   6.068   6.279  1.5139  0.8810  0.3498
 6511TIP3    H241093   3.003   6.187   6.274  1.2013  0.6093 -0.3434
 6512TIP3   OH241094   5.177   3.107   0.689  0.0849 -0.3524 -0.2403
 6512TIP3    H141095   5.092   3.125   0.649 -0.1265  0.7505  0.6882
 6512TIP3    H241096   5.161   3.029   0.742 -1.0583  1.2853  1.9700
 6513TIP3   OH241097   1.196   2.317   1.076 -0.0843  0.5551  0.3247
 6513TIP3    H141098   1.111   2.297   1.115 -0.1325 -0.9144 -0.4712
 6513TIP3    H241099   1.224   2.236   1.034  0.9689  1.4576 -0.8336
 6514TIP3   OH241100   0.288   4.062   7.237  0.2650 -0.7572 -0.5856
 6514TIP3    H141101   0.319   4.060   7.146 -1.0893 -0.8741 -1.0685
 6514TIP3    H241102   0.356   4.017   7.286  0.7218 -1.2557 -1.6349
 6515TIP3   OH241103   0.219   3.365   6.082 -0.2469  0.1720 -0.1993
 6515TIP3    H141104   0.159   3.296   6.053 -1.0107  0.2055  1.2328
 6515TIP3    H241105   0.169   3.416   6.145  0.9281  0.8949  0.1815
 6516TIP3   OH241106   2.138   0.325   1.703 -0.1948  0.3035  0.0022
 6516TIP3    H141107   2.225   0.323   1.743 -0.4940 -0.5045  0.6430
 6516TIP3    H241108   2.083   0.368   1.769 -0.5626 -0.4654  0.2120
 6517TIP3   OH241109   3.249   6.629   6.938 -0.4353 -0.5034  0.2623
 6517TIP3    H141110   3.297   6.591   6.865 -0.6844  0.6717 -0.5409
 6517TIP3    H241111   3.179   6.567   6.957  1.0312 -1.9992  1.1154
 6518TIP3   OH241112   5.449   2.824   1.620  0.1063  0.3515 -0.0836
 6518TIP3    H141113   5.435   2.800   1.528  1.0918  0.2101 -0.2135
 6518TIP3    H241114   5.366   2.804   1.663 -0.6719  1.2349 -1.1011
 6519TIP3   OH241115   0.150   3.026   1.440  0.1795 -0.0960 -0.4373
 6519TIP3    H141116   0.103   2.970   1.379  0.5994  0.0611 -0.9115
 6519TIP3    H241117   0.205   2.967   1.490 -0.0768 -0.2127 -0.2944
 6520TIP3   OH241118   0.802   1.995   1.188  0.0220  0.7493 -0.1487
 6520TIP3    H141119   0.740   1.932   1.226 -1.3176  1.9971 -0.1577
 6520TIP3    H241120   0.881   1.945   1.172 -0.7139 -0.7234  0.6460
 6521TIP3   OH241121   5.230   1.640   0.162  0.5929  0.4828 -0.2272
 6521TIP3    H141122   5.292   1.571   0.184  0.5169  0.3509 -0.4260
 6521TIP3    H241123   5.176   1.603   0.091 -0.0543  0.4013  0.2938
 6522TIP3   OH241124   1.922   2.623   8.611 -0.4299 -0.6047 -0.0831
 6522TIP3    H141125   1.896   2.564   8.541 -1.6817  0.0275 -0.1678
 6522TIP3    H241126   1.918   2.711   8.573  2.2842 -0.4420 -0.2355
 6523TIP3   OH241127   2.142   5.403   2.267  0.3782  0.7512 -0.8265
 6523TIP3    H141128   2.070   5.363   2.315  1.3232  1.8169  1.6263
 6523TIP3    H241129   2.123   5.496   2.265  0.7577  0.8306 -1.8905
 6524TIP3   OH241130   5.304   1.457   8.499 -0.1053  0.1490 -0.6190
 6524TIP3    H141131   5.385   1.439   8.451  0.8705  0.3227  0.8932
 6524TIP3    H241132   5.256   1.374   8.496  1.2907 -0.7571  0.5954
 6525TIP3   OH241133   5.912   1.037   7.739 -0.0813  0.1355 -0.2296
 6525TIP3    H141134   5.903   1.097   7.813 -1.8968  0.2268 -0.4918
 6525TIP3    H241135   5.995   0.991   7.756 -1.6655 -1.8223  3.3649
 6526TIP3   OH241136   2.369   0.563   0.146  0.1386 -0.2569  0.2657
 6526TIP3    H141137   2.334   0.488   0.194  0.2890 -0.9901 -0.7267
 6526TIP3    H241138   2.369   0.534   0.054  1.2733  0.5357 -0.0035
 6527TIP3   OH241139   2.467   0.201   1.389 -0.0039  0.4140  0.0715
 6527TIP3    H141140   2.380   0.237   1.372  0.3228  0.8750 -0.6625
 6527TIP3    H241141   2.528   0.264   1.350  0.6815  0.2998  0.9312
 6528TIP3   OH241142   4.982   6.726   7.065 -0.7123 -0.5524  0.0907
 6528TIP3    H141143   4.934   6.735   6.982 -0.2853  1.4271 -0.0032
 6528TIP3    H241144   4.961   6.806   7.113 -0.8895 -1.6274  1.8923
 6529TIP3   OH241145   3.158   2.709   7.896  0.2587 -0.1301  0.0007
 6529TIP3    H141146   3.132   2.782   7.953  0.7184 -0.9672  1.3366
 6529TIP3    H241147   3.116   2.632   7.935  0.7228 -0.7543 -0.6996
 6530TIP3   OH241148   6.347   4.652   1.927 -0.0279  0.6136  0.3143
 6530TIP3    H141149   6.425   4.679   1.975 -0.7287  2.6920  0.3745
 6530TIP3    H241150   6.285   4.725   1.938 -1.8273 -0.7794 -0.0831
 6531TIP3   OH241151   5.953   3.660   8.045  0.7568  0.1896  0.4363
 6531TIP3    H141152   5.897   3.640   8.120  0.9579 -0.3640  0.4470
 6531TIP3    H241153   6.035   3.614   8.063  1.2489  1.0597  0.4588
 6532TIP3   OH241154   1.697   1.235   8.285 -0.1769  0.3874  0.2618
 6532TIP3    H141155   1.672   1.184   8.208  2.2017 -1.1119  0.3717
 6532TIP3    H241156   1.648   1.317   8.276 -3.3001 -1.4084 -0.5129
 6533TIP3   OH241157   1.685   1.481   6.819 -0.1569  0.2100 -0.0013
 6533TIP3    H141158   1.741   1.457   6.746 -1.7002 -0.0892 -1.1557
 6533TIP3    H241159   1.725   1.559   6.857  1.2396 -0.2431 -0.5008
 6534TIP3   OH241160   1.397   5.526   8.167  0.3556  0.0309  0.4923
 6534TIP3    H141161   1.485   5.495   8.143  0.7329  0.3053  1.4823
 6534TIP3    H241162   1.376   5.592   8.102  0.7658 -0.2410  0.0790
 6535TIP3   OH241163   4.150   5.212   8.633 -0.4700  0.0177  0.3118
 6535TIP3    H141164   4.081   5.203   8.699 -0.2273 -2.5980  0.3368
 6535TIP3    H241165   4.216   5.148   8.660  0.6834  0.5020 -1.2403
 6536TIP3   OH241166   6.115   6.429   8.715  0.2056  0.3392  0.1510
 6536TIP3    H141167   6.106   6.512   8.760 -0.3421 -0.6808  2.0115
 6536TIP3    H241168   6.210   6.421   8.699  0.6859 -0.0505  2.7786
 6537TIP3   OH241169   0.464   1.239   0.233  0.8637  0.1160 -0.2619
 6537TIP3    H141170   0.554   1.218   0.257  0.1203 -3.3474  0.0279
 6537TIP3    H241171   0.415   1.158   0.250 -1.7175  0.8009 -3.4061
 6538TIP3   OH241172   4.838   0.473   7.962  0.1242 -0.5074 -0.2900
 6538TIP3    H141173   4.916   0.512   7.922  0.1646 -0.6041 -0.3040
 6538TIP3    H241174   4.767   0.535   7.941  0.0658 -0.7645 -0.8604
 6539TIP3   OH241175   6.747   3.554   7.431  0.0751  0.1390 -0.0178
 6539TIP3    H141176   6.834   3.584   7.402 -0.6297 -0.0811 -2.6075
 6539TIP3    H241177   6.762   3.465   7.463  0.8445  0.2213 -0.1275
 6540TIP3   OH241178   1.657   0.138   7.013  0.2445 -0.0377  0.2754
 6540TIP3    H141179   1.686   0.057   7.054 -2.1373 -1.5551 -0.7692
 6540TIP3    H241180   1.685   0.131   6.922 -1.4542 -0.5590 -0.2395
 6541TIP3   OH241181   1.443   1.694   7.346 -0.1243  0.1792 -0.4097
 6541TIP3    H141182   1.426   1.686   7.252  0.5660  1.1349 -0.6289
 6541TIP3    H241183   1.409   1.780   7.370 -1.7899 -0.7147  0.5868
 6542TIP3   OH241184   0.082   6.627   0.849 -0.3765  0.1381  0.9107
 6542TIP3    H141185   0.152   6.564   0.832 -0.0023  0.3720  1.5757
 6542TIP3    H241186   0.076   6.633   0.944 -1.8559 -0.4836  0.8894
 6543TIP3   OH241187   3.707   4.197   6.863 -0.2518 -0.3222 -0.1713
 6543TIP3    H141188   3.706   4.163   6.773  3.7917 -0.4214 -0.3753
 6543TIP3    H241189   3.755   4.132   6.913  0.6893  1.3688  1.2426
 6544TIP3   OH241190   5.696   1.004   1.776  0.2518  0.4526 -0.2534
 6544TIP3    H141191   5.714   0.972   1.864 -0.4316  1.9413  0.4572
 6544TIP3    H241192   5.674   1.096   1.787  1.3466  0.9961 -2.1382
 6545TIP3   OH241193   3.350   1.203   7.720 -0.5174  0.5294  0.7262
 6545TIP3    H141194   3.318   1.166   7.803 -2.5035 -0.1598 -0.3003
 6545TIP3    H241195   3.382   1.127   7.672 -2.7185  0.3369 -0.5579
 6546TIP3   OH241196   0.427   3.279   1.900  0.1969 -0.2001  0.1105
 6546TIP3    H141197   0.495   3.250   1.960  0.5619 -0.9575 -0.6507
 6546TIP3    H241198   0.409   3.202   1.846 -0.8365  0.1707 -0.0925
 6547TIP3   OH241199   2.390   2.690   0.088 -0.3638 -0.0878 -0.0452
 6547TIP3    H141200   2.449   2.736   0.028  2.1272 -1.8720  0.8783
 6547TIP3    H241201   2.377   2.604   0.048 -1.5469 -0.0681  0.2772
 6548TIP3   OH241202   5.075   4.072   7.289 -0.2577  0.0341 -0.1972
 6548TIP3    H141203   5.020   4.064   7.211 -0.2486 -1.3339 -0.0792
 6548TIP3    H241204   5.016   4.109   7.355 -0.6469 -0.1027 -0.4612
 6549TIP3   OH241205   5.576   2.952   7.030  0.3505  0.0281  0.3744
 6549TIP3    H141206   5.656   2.995   7.061 -0.4883  1.6490  0.4089
 6549TIP3    H241207   5.508   2.981   7.091 -0.5832  0.0726 -0.6583
 6550TIP3   OH241208   2.473   5.555   1.581 -0.7922  0.4356 -0.0740
 6550TIP3    H141209   2.482   5.620   1.511  1.0024 -0.5278 -0.8015
 6550TIP3    H241210   2.494   5.604   1.661  0.6962  0.7546 -0.6301
 6551TIP3   OH241211   1.064   3.817   8.331  0.8762  0.4061  0.1948
 6551TIP3    H141212   0.978   3.781   8.350  1.0729 -0.7404 -0.9050
 6551TIP3    H241213   1.051   3.912   8.329 -0.8041  0.2126 -1.7627
 6552TIP3   OH241214   3.201   0.377   6.542 -0.2427  0.1335  0.0648
 6552TIP3    H141215   3.214   0.373   6.448 -0.2989  1.3519 -0.0120
 6552TIP3    H241216   3.134   0.445   6.555  0.9904  1.2284  1.0537
 6553TIP3   OH241217   5.058   4.820   0.215  0.1710  0.1571  0.0213
 6553TIP3    H141218   5.020   4.893   0.263 -0.0566  0.0382  0.0263
 6553TIP3    H241219   4.983   4.763   0.195  0.3147  0.0295 -0.1627
 6554TIP3   OH241220   0.690   4.891   1.259  0.5589  0.2966  0.1646
 6554TIP3    H141221   0.615   4.882   1.200  2.1224  0.0991 -1.9052
 6554TIP3    H241222   0.653   4.877   1.346 -1.6364 -0.8018 -0.8466
 6555TIP3   OH241223   2.820   2.649   7.356 -0.0803 -0.3238 -0.5554
 6555TIP3    H141224   2.876   2.598   7.415 -1.9669 -0.9365  0.7767
 6555TIP3    H241225   2.784   2.584   7.296  0.4831  0.0534 -1.3268
 6556TIP3   OH241226   2.059   4.942   7.832 -0.2544  0.2575  0.0547
 6556TIP3    H141227   2.000   4.927   7.758  0.3691 -3.2644  0.0971
 6556TIP3    H241228   2.133   4.990   7.794 -0.6294 -0.1523 -1.2434
 6557TIP3   OH241229   2.058   4.327   1.774 -0.1670 -0.0479 -0.1711
 6557TIP3    H141230   2.023   4.247   1.814  0.3939 -0.5602 -0.6820
 6557TIP3    H241231   2.139   4.343   1.821  0.6458 -0.8147 -1.2449
 6558TIP3   OH241232   1.305   1.168   0.193  0.1835  0.1597  0.0948
 6558TIP3    H141233   1.248   1.093   0.210 -0.5517  0.5911 -0.4147
 6558TIP3    H241234   1.366   1.169   0.267 -0.1040 -0.6496  0.3523
 6559TIP3   OH241235   3.736   4.671   8.046  0.1457  0.0434  0.3109
 6559TIP3    H141236   3.818   4.622   8.053  1.2568  1.2602 -2.5379
 6559TIP3    H241237   3.763   4.762   8.049 -1.3034  0.4780  0.7269
 6560TIP3   OH241238   2.066   3.400   0.340 -0.2913 -0.6072  1.0145
 6560TIP3    H141239   2.037   3.423   0.251  1.5561  0.8985  0.7326
 6560TIP3    H241240   2.049   3.479   0.392  1.9006 -0.1646  1.1338
 6561TIP3   OH241241   1.733   2.058   0.818  0.3872 -0.5374  0.1549
 6561TIP3    H141242   1.763   2.107   0.894  1.0311  0.3115 -0.6272
 6561TIP3    H241243   1.698   2.124   0.759 -1.4835 -1.3365  0.3067
 6562TIP3   OH241244   6.229   6.191   7.632 -0.4962  0.0802 -0.1828
 6562TIP3    H141245   6.301   6.230   7.582 -1.0358 -0.1923 -1.1866
 6562TIP3    H241246   6.212   6.255   7.701  0.2196  0.4910 -0.3697
 6563TIP3   OH241247   5.178   2.646   1.661  0.0514 -0.3672 -0.4099
 6563TIP3    H141248   5.229   2.613   1.587 -2.4247 -2.8699 -1.1378
 6563TIP3    H241249   5.160   2.569   1.715 -2.7758  0.3844 -0.1247
 6564TIP3   OH241250   1.537   3.546   7.006 -0.1750  0.4734 -0.5903
 6564TIP3    H141251   1.493   3.559   7.090 -2.2096 -1.6848 -1.2378
 6564TIP3    H241252   1.508   3.620   6.952 -1.2144  0.2913 -0.2944
 6565TIP3   OH241253   2.991   6.275   8.066  0.2220  0.6269 -0.4097
 6565TIP3    H141254   2.903   6.237   8.064  0.1973  0.7074 -1.0768
 6565TIP3    H241255   2.979   6.361   8.106  0.1854  0.1795  0.5710
 6566TIP3   OH241256   5.537   2.634   8.054  0.6582  0.1144 -0.3417
 6566TIP3    H141257   5.527   2.685   8.134 -0.0347  0.2235 -0.4912
 6566TIP3    H241258   5.457   2.651   8.004  0.7936 -0.4564 -0.7673
 6567TIP3   OH241259   3.228   1.226   0.678  0.1495 -0.2168  0.3978
 6567TIP3    H141260   3.293   1.167   0.716 -0.6161 -1.0347  0.4811
 6567TIP3    H241261   3.186   1.269   0.753  0.7318  0.4800  0.3361
 6568TIP3   OH241262   6.626   3.210   0.354  0.2312 -0.9544 -0.1714
 6568TIP3    H141263   6.695   3.231   0.291  0.8997 -1.7007  0.2913
 6568TIP3    H241264   6.670   3.208   0.439 -0.7483  0.4895  0.4069
 6569TIP3   OH241265   2.166   0.709   0.229 -0.1911  0.1624  0.1167
 6569TIP3    H141266   2.111   0.692   0.152  0.6909  1.7529 -0.9090
 6569TIP3    H241267   2.250   0.669   0.208  0.2061  1.0257  0.0234
 6570TIP3   OH241268   1.204   1.833   7.803 -0.0985  0.7059  0.2768
 6570TIP3    H141269   1.277   1.802   7.855  0.3253 -1.1197 -1.3122
 6570TIP3    H241270   1.176   1.914   7.847  1.1930  0.0903  2.3868
 6571TIP3   OH241271   5.095   3.748   0.862 -0.3013  0.2550  0.1025
 6571TIP3    H141272   5.137   3.799   0.930  1.2539 -1.4154  0.4783
 6571TIP3    H241273   5.010   3.724   0.898 -0.5822  1.5612  0.3624
 6572TIP3   OH241274   5.206   6.509   5.947  0.3448 -0.5051  0.1672
 6572TIP3    H141275   5.148   6.561   5.891  1.2147 -1.5340 -1.8127
 6572TIP3    H241276   5.260   6.574   5.991 -0.3741  0.3621 -0.1789
 6573TIP3   OH241277   0.539   1.963   1.845 -0.3862 -0.0315  0.3436
 6573TIP3    H141278   0.484   1.971   1.923  0.4464  0.8379  0.8662
 6573TIP3    H241279   0.493   1.899   1.790 -1.2501 -0.2847  1.3147
 6574TIP3   OH241280   0.330   1.381   1.018  0.4324 -0.0513  0.0682
 6574TIP3    H141281   0.275   1.403   0.943 -0.1312  0.7410  0.6943
 6574TIP3    H241282   0.418   1.405   0.992  0.4410 -0.9616 -0.8006
 6575TIP3   OH241283   3.025   1.018   8.517 -0.0329 -0.1683  0.1900
 6575TIP3    H141284   3.100   1.073   8.541  1.2208 -1.5988 -0.3399
 6575TIP3    H241285   3.025   1.018   8.421 -0.5109 -0.4616  0.1841
 6576TIP3   OH241286   5.178   1.676   2.539  0.3051  0.2363 -0.1193
 6576TIP3    H141287   5.092   1.715   2.523 -0.0747 -0.5516 -0.0477
 6576TIP3    H241288   5.240   1.748   2.526 -0.3632  0.8114 -0.1727
 6577TIP3   OH241289   4.895   6.501   8.666  0.0909 -0.4445 -0.4282
 6577TIP3    H141290   4.980   6.514   8.708 -0.2754  2.4095 -0.3717
 6577TIP3    H241291   4.902   6.546   8.582 -1.2962 -0.3624 -0.5277
 6578TIP3   OH241292   6.314   5.034   1.186 -0.1979 -0.2310  0.2241
 6578TIP3    H141293   6.329   4.998   1.274 -3.8033 -0.8010  0.7566
 6578TIP3    H241294   6.330   4.960   1.127  1.6583 -0.0034  0.3860
 6579TIP3   OH241295   0.996   1.789   7.192 -1.0545 -0.0783  0.3939
 6579TIP3    H141296   0.914   1.800   7.145 -1.7505 -1.5651  1.1770
 6579TIP3    H241297   1.024   1.700   7.170 -0.8029 -0.3801  1.8470
 6580TIP3   OH241298   5.255   1.172   6.695 -0.1273  0.7472  0.3765
 6580TIP3    H141299   5.326   1.115   6.665 -0.9655  0.5302 -1.3178
 6580TIP3    H241300   5.286   1.261   6.675 -0.6729  0.6060 -1.2375
 6581TIP3   OH241301   4.866   6.240   6.975  0.5613 -0.5241  0.2543
 6581TIP3    H141302   4.833   6.301   7.041 -0.3740 -1.6185  0.8449
 6581TIP3    H241303   4.876   6.157   7.022 -0.7380 -1.4990 -1.0786
 6582TIP3   OH241304   5.471   2.052   0.218  0.2144  0.1998 -0.5700
 6582TIP3    H141305   5.546   2.111   0.229  0.1785  0.0437  0.6329
 6582TIP3    H241306   5.504   1.966   0.245  0.1126 -0.2353 -1.8014
 6583TIP3   OH241307   5.353   5.061   8.684  0.0547 -0.1015 -0.2964
 6583TIP3    H141308   5.265   5.098   8.696  0.8443  1.5159  0.7161
 6583TIP3    H241309   5.371   5.073   8.591 -0.9163 -0.7551 -0.5845
 6584TIP3   OH241310   4.659   0.999   1.134  0.4019 -0.0784 -0.9632
 6584TIP3    H141311   4.587   1.062   1.140 -0.7307 -1.4341  0.5746
 6584TIP3    H241312   4.624   0.927   1.082  1.2293 -0.0335 -1.5987
 6585TIP3   OH241313   3.391   5.106   7.690 -0.1182  0.3382  0.1664
 6585TIP3    H141314   3.400   5.192   7.647 -0.9175  0.8410  0.9641
 6585TIP3    H241315   3.298   5.099   7.710  0.4464  1.0830  3.6479
 6586TIP3   OH241316   6.130   5.233   1.256 -0.4469  0.4460  0.1326
 6586TIP3    H141317   6.170   5.160   1.208  0.0389  1.5886 -1.2819
 6586TIP3    H241318   6.089   5.192   1.332 -1.7313 -1.5738 -1.5272
 6587TIP3   OH241319   2.077   0.217   0.273 -0.4240 -0.7825 -0.1775
 6587TIP3    H141320   2.123   0.152   0.327  0.2372 -1.0955 -1.0828
 6587TIP3    H241321   2.063   0.172   0.189  1.6674  0.7928 -1.4677
 6588TIP3   OH241322   3.047   4.916   8.459 -0.5343 -0.2063  0.9102
 6588TIP3    H141323   3.142   4.918   8.469 -0.6726  2.2050  2.8322
 6588TIP3    H241324   3.032   4.930   8.366  1.0531  2.6783  0.9735
 6589TIP3   OH241325   6.076   3.643   2.112 -0.3023  0.6900 -0.0228
 6589TIP3    H141326   6.004   3.672   2.056 -0.2280  1.0152  0.0454
 6589TIP3    H241327   6.033   3.600   2.186 -0.4348  1.0101  0.0888
 6590TIP3   OH241328   2.889   5.260   0.262  0.2183  0.3278 -0.3946
 6590TIP3    H141329   2.960   5.323   0.261 -0.0826  0.6887  0.3215
 6590TIP3    H241330   2.868   5.245   0.170 -0.5999  2.2884 -0.5675
 6591TIP3   OH241331   3.391   2.921   8.220 -0.0226 -0.2418 -0.2634
 6591TIP3    H141332   3.443   2.841   8.223 -1.7834 -1.4208  0.1390
 6591TIP3    H241333   3.451   2.986   8.183  2.2541 -1.0803  1.6785
 6592TIP3   OH241334   5.586   2.054   6.772  0.4000  0.4677  0.1637
 6592TIP3    H141335   5.680   2.070   6.784  0.7390 -1.9337  1.3782
 6592TIP3    H241336   5.554   2.030   6.860 -0.8904 -0.7656 -0.5993
 6593TIP3   OH241337   2.462   2.161   0.376  0.0638 -0.1384  0.1481
 6593TIP3    H141338   2.401   2.145   0.304  1.5216  0.8001 -1.3510
 6593TIP3    H241339   2.528   2.093   0.368  1.3602  1.1642 -0.7235
 6594TIP3   OH241340   2.114   4.662   1.578 -0.7543  0.0276 -0.6223
 6594TIP3    H141341   2.136   4.640   1.487 -0.7868  0.7010 -0.7984
 6594TIP3    H241342   2.183   4.621   1.630 -0.7025 -0.3163 -0.9517
 6595TIP3   OH241343   2.260   4.957   1.199  0.2256  0.1521  0.7139
 6595TIP3    H141344   2.311   4.911   1.266  0.9306 -2.0241 -1.1911
 6595TIP3    H241345   2.313   4.950   1.119 -1.7027  0.4060 -0.6583
 6596TIP3   OH241346   6.821   6.272   7.502 -0.7958 -0.9210  0.1366
 6596TIP3    H141347   6.739   6.297   7.459 -1.2648  1.0060  1.9339
 6596TIP3    H241348   6.883   6.341   7.477 -0.7357 -0.4642  1.4367
 6597TIP3   OH241349   3.614   5.102   7.875  0.2889 -0.1932 -0.0906
 6597TIP3    H141350   3.529   5.135   7.844 -1.1595 -1.5853  2.1014
 6597TIP3    H241351   3.639   5.036   7.811  0.3413  1.0579 -1.4036
 6598TIP3   OH241352   6.596   3.136   8.225  0.0369  0.4665  0.1094
 6598TIP3    H141353   6.572   3.171   8.310 -0.8411  2.0230 -0.7389
 6598TIP3    H241354   6.625   3.047   8.243 -4.0403 -0.7945  1.6076
 6599TIP3   OH241355   4.555   6.175   0.871 -0.4479  0.6916 -0.3955
 6599TIP3    H141356   4.514   6.261   0.884 -2.5553 -0.4790  1.3333
 6599TIP3    H241357   4.506   6.116   0.928  3.5951 -0.9552  1.7709
 6600TIP3   OH241358   0.418   5.245   8.114 -0.6289  0.0646  0.4928
 6600TIP3    H141359   0.481   5.267   8.183 -1.2243 -1.2592  1.5084
 6600TIP3    H241360   0.452   5.163   8.077  1.4294  2.2630 -3.0351
 6601TIP3   OH241361   2.956   1.819   0.366  0.5886 -0.2338 -0.0825
 6601TIP3    H141362   2.881   1.759   0.358 -0.9245  1.5058  0.5244
 6601TIP3    H241363   2.920   1.905   0.346  2.1122  0.8629  1.6356
 6602TIP3   OH241364   3.427   3.032   1.253 -0.1911  0.1092  0.1289
 6602TIP3    H141365   3.371   2.958   1.276 -0.4199  0.9666  2.6666
 6602TIP3    H241366   3.516   3.003   1.274 -0.1400  0.1345 -0.0494
 6603TIP3   OH241367   0.485   1.471   7.746  0.8105  0.0346  0.0002
 6603TIP3    H141368   0.442   1.403   7.797  2.2449 -0.1769  0.9575
 6603TIP3    H241369   0.493   1.545   7.806  0.9030  0.4172 -0.4762
 6604TIP3   OH241370   4.797   4.783   6.363 -0.0668  0.8967 -0.3093
 6604TIP3    H141371   4.756   4.838   6.297 -0.8125 -0.4363 -1.0101
 6604TIP3    H241372   4.725   4.759   6.422 -0.1346 -0.6455 -0.9680
 6605TIP3   OH241373   5.787   5.428   0.451  0.2837 -0.4892 -0.1568
 6605TIP3    H141374   5.821   5.510   0.415  0.2915 -1.1375 -1.6886
 6605TIP3    H241375   5.853   5.400   0.513  1.0961 -0.1954 -0.8751
 6606TIP3   OH241376   4.235   5.768   6.753  0.7394 -0.3850 -0.0507
 6606TIP3    H141377   4.265   5.832   6.689  0.0359  1.3935  1.3168
 6606TIP3    H241378   4.315   5.730   6.789  1.2316  0.8419  0.1908
 6607TIP3   OH241379   5.090   2.570   7.687 -0.2689 -0.0442  0.0808
 6607TIP3    H141380   5.026   2.637   7.664 -0.2358 -0.8622 -2.8044
 6607TIP3    H241381   5.174   2.616   7.688 -0.4425  0.2879 -0.2496
 6608TIP3   OH241382   3.343   2.202   1.444 -0.7430 -0.3668 -0.3773
 6608TIP3    H141383   3.365   2.129   1.386 -2.4974 -0.5485 -0.8794
 6608TIP3    H241384   3.247   2.198   1.452 -0.6026 -0.0099  2.1192
 6609TIP3   OH241385   5.187   1.601   7.933  0.1836  0.2093  0.4662
 6609TIP3    H141386   5.230   1.519   7.908  0.1103  0.0923  0.7146
 6609TIP3    H241387   5.194   1.603   8.029 -1.0963 -0.2164  0.5893
 6610TIP3   OH241388   0.356   0.506   0.866 -0.2816  0.4373  0.4776
 6610TIP3    H141389   0.300   0.478   0.793 -0.2332 -0.1511  0.6553
 6610TIP3    H241390   0.296   0.542   0.931 -0.4696 -0.2662  0.7015
 6611TIP3   OH241391   2.121   5.970   0.771  0.7283 -0.1261  0.1533
 6611TIP3    H141392   2.043   6.020   0.794  0.8833 -0.3608  1.2572
 6611TIP3    H241393   2.098   5.923   0.691 -0.1968 -0.0498  0.3703
 6612TIP3   OH241394   1.282   4.082   7.282  0.0137  0.5339  0.5047
 6612TIP3    H141395   1.255   4.005   7.231  1.0255 -0.1808  1.0172
 6612TIP3    H241396   1.200   4.115   7.319 -0.3036 -1.1175  1.4054
 6613TIP3   OH241397   4.814   0.667   8.740 -0.0493  0.1997 -0.4904
 6613TIP3    H141398   4.876   0.695   8.807 -1.7595  0.8841  0.8912
 6613TIP3    H241399   4.819   0.735   8.672 -1.4913  2.0209  1.1016
 6614TIP3   OH241400   4.630   4.130   8.228  0.2053  0.3574 -0.4528
 6614TIP3    H141401   4.612   4.036   8.228 -0.2741  0.3353  2.9257
 6614TIP3    H241402   4.723   4.137   8.253  0.6724  0.8182 -2.1632
 6615TIP3   OH241403   0.375   4.713   7.689  0.1282  0.0950 -0.5344
 6615TIP3    H141404   0.447   4.774   7.673 -1.4317  1.4197 -3.1089
 6615TIP3    H241405   0.386   4.687   7.781  1.1486  3.9071  0.5946
 6616TIP3   OH241406   0.731   3.042   0.011 -0.1564  0.7550  0.4735
 6616TIP3    H141407   0.655   3.019   0.066 -0.4113  1.0544  0.2455
 6616TIP3    H241408   0.693   3.087  -0.065  0.1616  0.0392 -0.1208
 6617TIP3   OH241409   2.038   2.003   1.726 -0.6776  0.1200 -0.4007
 6617TIP3    H141410   2.093   2.066   1.772  0.2759 -0.8384 -0.1712
 6617TIP3    H241411   1.948   2.033   1.740 -0.2715  1.0530  0.2329
 6618TIP3   OH241412   3.214   0.812   0.584  1.0632 -0.0271 -0.1108
 6618TIP3    H141413   3.266   0.875   0.534  0.7048  0.3846  0.0225
 6618TIP3    H241414   3.210   0.734   0.529  2.5556 -0.3905  0.2630
 6619TIP3   OH241415   1.264   2.616   1.447 -0.1176 -0.1518  0.6144
 6619TIP3    H141416   1.234   2.561   1.520 -0.3909  0.0658  0.6676
 6619TIP3    H241417   1.309   2.690   1.490 -1.2978  0.5911  0.6181
 6620TIP3   OH241418   3.150   4.971   2.131 -0.7765 -0.6326  0.2390
 6620TIP3    H141419   3.164   5.065   2.140  1.0164 -0.9063  0.6027
 6620TIP3    H241420   3.062   4.957   2.166  0.1996  0.4615  3.5254
 6621TIP3   OH241421   4.672   0.925   0.721 -0.6271  0.2366  0.4508
 6621TIP3    H141422   4.706   0.897   0.806 -0.6105  1.1371  0.7575
 6621TIP3    H241423   4.750   0.950   0.671 -0.6860  0.3536  0.4165
 6622TIP3   OH241424   3.197   5.621   1.436  0.3526 -0.1198  0.3552
 6622TIP3    H141425   3.126   5.664   1.388  0.5112  1.5658  1.5113
 6622TIP3    H241426   3.158   5.596   1.520  0.9213  0.1396  0.7066
 6623TIP3   OH241427   4.415   2.861   7.283  0.1666 -0.5955  0.1133
 6623TIP3    H141428   4.410   2.833   7.374 -2.2307  0.2379  0.2938
 6623TIP3    H241429   4.328   2.846   7.247  0.9594 -0.5908 -1.9728
 6624TIP3   OH241430   2.587   3.813   1.643  0.5418 -0.2703 -0.3619
 6624TIP3    H141431   2.630   3.882   1.592  0.5297  0.5081  0.6407
 6624TIP3    H241432   2.659   3.761   1.678  0.7130  0.8395  1.0500
 6625TIP3   OH241433   0.633   5.992   6.454 -0.2470  0.4310  0.1863
 6625TIP3    H141434   0.587   6.055   6.509  0.3569  0.5473  0.5722
 6625TIP3    H241435   0.666   5.926   6.515 -0.5980 -0.0868 -0.1795
 6626TIP3   OH241436   1.058   4.178   2.207  0.1558  0.1676 -0.5462
 6626TIP3    H141437   1.048   4.263   2.249 -1.9175 -1.1010  1.7632
 6626TIP3    H241438   0.993   4.178   2.137 -0.2598  0.2634 -0.1612
 6627TIP3   OH241439   3.620   5.147   8.159 -0.1067 -0.0746 -0.4570
 6627TIP3    H141440   3.603   5.230   8.203 -2.6328 -2.2367  3.2805
 6627TIP3    H241441   3.582   5.158   8.072  0.8373  3.0265 -0.5809
 6628TIP3   OH241442   5.137   5.559   6.164  0.0506  0.0640 -0.3699
 6628TIP3    H141443   5.230   5.570   6.185 -0.1915 -0.2535  0.9848
 6628TIP3    H241444   5.136   5.512   6.081  1.1068 -0.3329 -0.1692
 6629TIP3   OH241445   2.153   6.408   8.431  0.1081 -0.1301 -0.3985
 6629TIP3    H141446   2.077   6.452   8.470  0.4713 -0.0725  0.2712
 6629TIP3    H241447   2.152   6.320   8.470  0.2712 -0.1933 -0.5384
 6630TIP3   OH241448   6.384   1.573   7.313  0.6706 -0.4353  0.5612
 6630TIP3    H141449   6.320   1.627   7.360 -1.2572 -1.7637 -0.3783
 6630TIP3    H241450   6.347   1.563   7.225  1.2647 -2.6806  0.4995
 6631TIP3   OH241451   1.622   5.400   7.843 -0.1610  0.0192 -0.6966
 6631TIP3    H141452   1.529   5.421   7.853 -0.1617 -0.6673  0.9366
 6631TIP3    H241453   1.626   5.305   7.850  0.9422  0.1980  1.9416
 6632TIP3   OH241454   3.248   4.956   1.890  0.3079  0.0790  0.2123
 6632TIP3    H141455   3.235   4.870   1.851  0.3674  0.6170 -1.0288
 6632TIP3    H241456   3.222   4.945   1.982  0.6044 -1.3245  0.1407
 6633TIP3   OH241457   4.240   5.005   8.260 -0.5392 -0.2436 -0.4395
 6633TIP3    H141458   4.248   4.933   8.323 -1.6903  0.6090  0.7346
 6633TIP3    H241459   4.208   4.963   8.180  0.7164 -1.3092 -0.4206
 6634TIP3   OH241460   0.285   3.830   6.698  0.5020 -0.7617  0.3766
 6634TIP3    H141461   0.239   3.771   6.638 -0.5543  1.0032 -0.6424
 6634TIP3    H241462   0.353   3.871   6.644 -0.1362  0.4710  0.4559
 6635TIP3   OH241463   2.692   6.400   8.599 -0.3069 -0.2908 -0.1721
 6635TIP3    H141464   2.759   6.342   8.635 -0.3569 -0.5840 -0.5479
 6635TIP3    H241465   2.610   6.371   8.639 -0.2762 -0.2365 -0.0706
 6636TIP3   OH241466   5.122   1.051   7.303 -0.0353  0.3633  0.8833
 6636TIP3    H141467   5.140   1.030   7.394 -3.7618 -0.1206  1.6652
 6636TIP3    H241468   5.121   0.967   7.258 -2.5053  0.0724  1.3815
 6637TIP3   OH241469   2.096   1.841   0.026  0.1792 -0.7379 -0.0793
 6637TIP3    H141470   2.038   1.871  -0.044  0.2472 -1.3224 -0.3893
 6637TIP3    H241471   2.142   1.920   0.054 -1.1360 -0.1584  0.5268
 6638TIP3   OH241472   3.960   1.956   0.919  0.2506  0.3109 -0.3873
 6638TIP3    H141473   3.959   1.917   0.831 -0.7467 -0.8616  0.1053
 6638TIP3    H241474   4.052   1.976   0.936  0.9049 -2.1940 -0.5522
 6639TIP3   OH241475   0.733   4.991   8.493  0.0867  0.2859  0.2210
 6639TIP3    H141476   0.742   4.918   8.554 -0.0381  0.8069  0.8722
 6639TIP3    H241477   0.638   5.003   8.483  0.0775 -0.8127 -1.3219
 6640TIP3   OH241478   2.580   2.503   7.394 -0.1704  0.5144 -0.1820
 6640TIP3    H141479   2.630   2.539   7.468  1.6802 -1.4812 -0.3231
 6640TIP3    H241480   2.534   2.428   7.432  0.0517  0.0351 -0.8470
 6641TIP3   OH241481   6.234   5.520   1.245 -0.0281  0.1953 -0.0662
 6641TIP3    H141482   6.209   5.428   1.230 -1.1786  0.7157 -1.6403
 6641TIP3    H241483   6.323   5.525   1.212 -0.1706 -0.2358 -0.5426
 6642TIP3   OH241484   3.028   0.442   1.751 -0.1339  0.0026 -0.1832
 6642TIP3    H141485   3.102   0.412   1.804 -1.0521 -1.5908  0.2748
 6642TIP3    H241486   2.961   0.375   1.763 -2.3338  2.2029  0.8157
 6643TIP3   OH241487   6.672   4.457   8.205 -0.2559 -0.3853  0.1166
 6643TIP3    H141488   6.665   4.505   8.123  3.1377 -0.6896 -0.4963
 6643TIP3    H241489   6.687   4.525   8.271  2.3111 -0.3261 -0.4188
 6644TIP3   OH241490   5.141   6.385   6.174  0.2812 -0.0159 -0.0442
 6644TIP3    H141491   5.201   6.436   6.228 -0.3855  0.2866  0.4138
 6644TIP3    H241492   5.158   6.416   6.085  0.3840  0.4971  0.1494
 6645TIP3   OH241493   0.180   1.291   0.435 -0.1868 -0.0842  0.0776
 6645TIP3    H141494   0.127   1.368   0.457  1.1882  0.8440  0.2462
 6645TIP3    H241495   0.194   1.247   0.519 -1.1749 -0.6757 -0.0519
 6646TIP3   OH241496   2.419   3.202   7.283 -0.0662  0.4272 -0.1256
 6646TIP3    H141497   2.465   3.186   7.366 -1.0264 -0.6090  0.2265
 6646TIP3    H241498   2.489   3.210   7.219  0.7427  2.0717  0.8927
 6647TIP3   OH241499   6.797   0.862   8.046 -0.5974  0.0122 -0.1284
 6647TIP3    H141500   6.752   0.935   8.004  0.0169  0.5463  0.1100
 6647TIP3    H241501   6.805   0.888   8.138  0.4796  0.1030 -0.2262
 6648TIP3   OH241502   5.436   5.793   7.025 -0.0456 -0.4727  0.0873
 6648TIP3    H141503   5.459   5.736   7.098  1.3205 -1.4978 -1.0776
 6648TIP3    H241504   5.369   5.745   6.977  0.1017 -0.4817 -0.1152
 6649TIP3   OH241505   1.660   4.076   0.584  0.3183  0.4347  0.0269
 6649TIP3    H141506   1.581   4.057   0.634 -0.1787  1.2323 -0.4376
 6649TIP3    H241507   1.691   3.991   0.554  0.1097  0.0344  0.9091
 6650TIP3   OH241508   6.298   2.009   0.219  0.2463  0.3285 -0.3243
 6650TIP3    H141509   6.369   1.994   0.281  0.2196 -0.5297 -0.4893
 6650TIP3    H241510   6.337   1.992   0.133 -0.3976 -1.2225 -0.3565
 6651TIP3   OH241511   2.055   6.717   8.610 -0.1709  0.0173  0.2853
 6651TIP3    H141512   2.024   6.633   8.644  0.4849 -0.3341  0.0304
 6651TIP3    H241513   2.010   6.727   8.527  1.2922 -1.1007 -0.7021
 6652TIP3   OH241514   6.003   0.654   7.418 -0.4787 -0.4531 -0.5239
 6652TIP3    H141515   5.942   0.727   7.413 -0.0633 -0.0697 -0.1140
 6652TIP3    H241516   6.020   0.630   7.327 -1.2741 -0.6019 -0.6402
 6653TIP3   OH241517   5.285   1.342   0.614  0.7611  0.3292  0.3139
 6653TIP3    H141518   5.194   1.335   0.644  0.2434 -1.1523 -1.4065
 6653TIP3    H241519   5.336   1.299   0.682 -0.0098 -0.2525  0.5413
 6654TIP3   OH241520   5.193   0.764   1.033 -0.3186 -0.4043 -0.6202
 6654TIP3    H141521   5.198   0.858   1.051 -0.9741 -0.2592 -1.1483
 6654TIP3    H241522   5.205   0.723   1.119 -1.8933  0.2362 -0.0545
 6655TIP3   OH241523   6.448   3.876   0.511 -0.4861 -0.5631 -0.0297
 6655TIP3    H141524   6.382   3.935   0.475  1.0086 -0.2436 -2.4639
 6655TIP3    H241525   6.487   3.833   0.435 -0.6974 -3.9247  1.5491
 6656TIP3   OH241526   4.461   5.414   0.356 -0.2561  0.1332 -0.6737
 6656TIP3    H141527   4.521   5.393   0.428  0.2210 -0.2460 -1.1722
 6656TIP3    H241528   4.395   5.345   0.360  0.4398 -0.6007 -1.3305
 6657TIP3   OH241529   0.684   1.540   6.991  0.1729  0.2955  0.7015
 6657TIP3    H141530   0.630   1.597   6.936  0.6436  0.2103  0.1472
 6657TIP3    H241531   0.627   1.466   7.012 -0.0720  0.4253  0.4974
 6658TIP3   OH241532   2.426   6.455   8.480 -0.3637 -0.1661 -0.6041
 6658TIP3    H141533   2.432   6.362   8.501 -1.4560 -0.2735 -0.7449
 6658TIP3    H241534   2.333   6.475   8.482 -0.0651  1.4150  1.4601
 6659TIP3   OH241535   6.026   2.696   0.153 -0.0300  0.7422  0.0275
 6659TIP3    H141536   5.963   2.630   0.180 -0.0105  0.3444 -0.8633
 6659TIP3    H241537   6.094   2.647   0.107  0.5629  1.2531  0.3441
 6660TIP3   OH241538   0.392   2.908   8.123  0.5711  0.0001 -0.6141
 6660TIP3    H141539   0.466   2.891   8.066 -0.0889 -0.2874 -1.4020
 6660TIP3    H241540   0.339   2.828   8.118  1.4775 -0.8981  1.9760
 6661TIP3   OH241541   2.754   6.572   0.308  0.4485 -0.0304  0.2109
 6661TIP3    H141542   2.677   6.532   0.267  0.0077  0.2512  0.7469
 6661TIP3    H241543   2.807   6.602   0.234 -0.4094  0.6170 -0.1656
 6662TIP3   OH241544   6.621   6.412   0.507 -0.0239  0.2262  0.0209
 6662TIP3    H141545   6.629   6.479   0.575  0.2098  0.7527 -0.5165
 6662TIP3    H241546   6.639   6.458   0.426 -0.8544 -0.2812 -0.4630
 6663TIP3   OH241547   0.678   4.961   7.448  0.2116 -0.3510 -0.5380
 6663TIP3    H141548   0.679   4.948   7.353  1.0157  0.3863 -0.6435
 6663TIP3    H241549   0.675   5.056   7.460 -1.9912 -0.4438  0.2014
 6664TIP3   OH241550   3.542   5.371   7.341 -0.2899  0.4410  0.4646
 6664TIP3    H141551   3.534   5.394   7.434 -1.2647 -0.2011  0.5549
 6664TIP3    H241552   3.559   5.277   7.341 -4.0472 -0.4326 -0.0168
 6665TIP3   OH241553   3.621   0.016   8.221 -0.0943  0.3935  0.1719
 6665TIP3    H141554   3.708   0.045   8.248  0.4004 -2.1551  1.6835
 6665TIP3    H241555   3.631  -0.078   8.207 -2.5087  0.1212 -0.1008
 6666TIP3   OH241556   5.762   5.177   7.497 -0.2332 -0.1646 -0.3079
 6666TIP3    H141557   5.780   5.259   7.542 -0.4146 -0.1159 -0.3242
 6666TIP3    H241558   5.848   5.134   7.491 -0.1187  0.0784 -0.4140
 6667TIP3   OH241559   5.695   0.132   0.017  0.3845 -0.1233  0.2163
 6667TIP3    H141560   5.714   0.039   0.028  0.4603  0.0437  1.6516
 6667TIP3    H241561   5.677   0.164   0.106 -1.8001  0.7805 -0.4979
 6668TIP3   OH241562   6.346   0.147   1.195  0.0176 -0.0565  0.1454
 6668TIP3    H141563   6.431   0.131   1.156  0.9857  2.0796  1.2327
 6668TIP3    H241564   6.298   0.198   1.130  0.2046  0.2021  0.2099
 6669TIP3   OH241565   6.743   5.699   0.522 -0.1957 -0.3683  0.2608
 6669TIP3    H141566   6.666   5.756   0.527 -0.4930 -0.8285  0.9880
 6669TIP3    H241567   6.707   5.612   0.503  0.2435 -0.3599 -0.6590
 6670TIP3   OH241568   3.294   4.669   8.299 -0.5370  0.0653 -0.7534
 6670TIP3    H141569   3.200   4.672   8.280 -0.4855  0.6132 -0.9437
 6670TIP3    H241570   3.334   4.726   8.234 -0.0569 -0.2297 -0.7256
 6671TIP3   OH241571   2.896   6.701   1.193 -0.4321 -0.2582  0.0446
 6671TIP3    H141572   2.861   6.788   1.211 -1.9870 -1.3575  3.0976
 6671TIP3    H241573   2.835   6.662   1.131  0.1038  0.6660 -1.0997
 6672TIP3   OH241574   4.879   6.814   7.983 -0.6916  0.6019  0.5948
 6672TIP3    H141575   4.814   6.877   8.014 -2.4530 -0.7740 -0.1024
 6672TIP3    H241576   4.844   6.782   7.900  1.4154  0.5412 -0.3154
 6673TIP3   OH241577   3.758   2.182   1.557  0.1165 -0.3244  0.1645
 6673TIP3    H141578   3.790   2.093   1.546  1.3235  0.0332  0.5530
 6673TIP3    H241579   3.761   2.220   1.470  2.5771  0.2451  0.4011
 6674TIP3   OH241580   1.362   3.253   1.146 -0.3184  0.1211  0.4593
 6674TIP3    H141581   1.353   3.338   1.190  0.3007  0.2550  0.3373
 6674TIP3    H241582   1.274   3.218   1.144 -0.3593  0.0867  1.8774
 6675TIP3   OH241583   4.162   2.294   0.843 -0.9059  0.2937  0.3583
 6675TIP3    H141584   4.209   2.262   0.766  0.1214  0.9341  0.7172
 6675TIP3    H241585   4.070   2.276   0.823 -0.4536 -2.7514  0.4583
 6676TIP3   OH241586   1.729   4.337   8.658 -1.1290 -0.4319 -0.1107
 6676TIP3    H141587   1.805   4.335   8.600 -1.5362  0.0857 -0.6767
 6676TIP3    H241588   1.685   4.253   8.642 -0.0174 -1.3148  1.1635
 6677TIP3   OH241589   5.005   5.755   0.474 -0.1103 -0.4645 -0.1087
 6677TIP3    H141590   4.984   5.759   0.381  0.6161 -0.3484 -0.2726
 6677TIP3    H241591   5.042   5.667   0.486 -3.0508 -1.7547  0.7058
 6678TIP3   OH241592   4.860   1.092   8.525 -0.4725  0.5468 -0.3894
 6678TIP3    H141593   4.860   1.176   8.572 -1.9400  0.3481  0.0270
 6678TIP3    H241594   4.926   1.039   8.571 -0.1925  1.1561 -0.0741
 6679TIP3   OH241595   5.354   2.808   7.952 -0.2445 -0.1169 -0.2039
 6679TIP3    H141596   5.267   2.772   7.963  0.3275 -1.2631  0.7979
 6679TIP3    H241597   5.341   2.889   7.903 -1.9071 -0.0213  0.3537
 6680TIP3   OH241598   5.147   6.064   7.305 -0.1485  0.9253  0.0944
 6680TIP3    H141599   5.150   5.969   7.313 -2.5198  0.7729  0.1244
 6680TIP3    H241600   5.217   6.086   7.244  2.4851 -0.4550  2.4419
 6681TIP3   OH241601   4.037   5.651   7.847 -0.4462  0.1495 -0.9136
 6681TIP3    H141602   4.085   5.667   7.766  0.5322  0.5153 -0.2791
 6681TIP3    H241603   4.070   5.567   7.878  0.5607  0.8716  0.0440
 6682TIP3   OH241604   1.944   3.655   7.417 -0.0549  0.5404  0.2086
 6682TIP3    H141605   1.893   3.710   7.477 -1.2580 -1.0702  0.7298
 6682TIP3    H241606   1.880   3.621   7.355  0.6663 -0.2436 -0.1215
 6683TIP3   OH241607   5.753   5.220   1.243 -0.2401  0.2713 -0.3778
 6683TIP3    H141608   5.764   5.126   1.255 -2.9586  0.1063  1.6586
 6683TIP3    H241609   5.668   5.230   1.201  0.7161  1.8190 -2.1093
 6684TIP3   OH241610   0.601   2.844   0.365 -0.3475  0.3375 -0.4775
 6684TIP3    H141611   0.667   2.805   0.422  0.0161  2.1660  0.4322
 6684TIP3    H241612   0.604   2.791   0.286 -1.4321 -2.8303  1.4035
 6685TIP3   OH241613   2.246   0.905   1.306 -1.2047  0.3645  0.2746
 6685TIP3    H141614   2.196   0.987   1.307  0.2524  1.3207 -0.7400
 6685TIP3    H241615   2.335   0.931   1.330 -0.6582 -0.8773 -0.3151
 6686TIP3   OH241616   0.752   2.914   8.394 -0.3138 -0.4685  0.0686
 6686TIP3    H141617   0.827   2.947   8.444 -0.1590 -0.6317 -0.0556
 6686TIP3    H241618   0.730   2.830   8.434 -1.1292  0.0802  0.8108
 6687TIP3   OH241619   1.724   5.446   1.172 -0.3540 -0.0946  0.6275
 6687TIP3    H141620   1.628   5.443   1.161 -0.3506  1.9261 -0.5082
 6687TIP3    H241621   1.757   5.439   1.082  0.4352  1.5136  0.7661
 6688TIP3   OH241622   3.020   2.185   0.502 -0.3214 -0.3794 -0.2706
 6688TIP3    H141623   3.084   2.115   0.510  1.9622  1.3657 -1.9433
 6688TIP3    H241624   3.057   2.258   0.552 -0.7591  0.7985 -1.5964
 6689TIP3   OH241625   0.904   0.485   8.146 -0.0889  0.5765 -0.5063
 6689TIP3    H141626   0.900   0.416   8.213 -0.3962  0.3792 -0.7273
 6689TIP3    H241627   0.833   0.465   8.086 -0.2088  1.1149 -0.5515
 6690TIP3   OH241628   0.712   5.811   7.517  0.0940 -0.0838 -0.2650
 6690TIP3    H141629   0.619   5.810   7.540 -0.3804 -0.6329 -2.0641
 6690TIP3    H241630   0.719   5.879   7.449  1.0514  0.1031  0.0036
 6691TIP3   OH241631   0.969   4.725   2.080 -0.1958  0.1052 -0.0801
 6691TIP3    H141632   0.905   4.780   2.125 -0.4384  1.4766 -1.9637
 6691TIP3    H241633   0.917   4.665   2.027  0.0682  0.3488 -0.6249
 6692TIP3   OH241634   6.117   0.598   8.045 -0.1198  0.4782 -0.2400
 6692TIP3    H141635   6.105   0.615   7.951  0.3149 -2.0119 -0.8384
 6692TIP3    H241636   6.094   0.680   8.088 -2.2638  1.1257 -2.3976
 6693TIP3   OH241637   4.515   6.193   8.344 -0.5401  0.2149 -0.1905
 6693TIP3    H141638   4.510   6.227   8.254  0.4533  1.5905  0.2351
 6693TIP3    H241639   4.590   6.134   8.343 -2.1951 -2.0156 -0.9014
 6694TIP3   OH241640   6.765   4.853   7.607 -0.5556  0.3252 -0.2254
 6694TIP3    H141641   6.799   4.766   7.627  0.3270  0.6692 -0.1764
 6694TIP3    H241642   6.844   4.906   7.591 -1.1068  0.6116 -2.4143
 6695TIP3   OH241643   1.111   2.874   1.059  0.3448 -0.4842 -0.7155
 6695TIP3    H141644   1.202   2.845   1.053  0.7679  0.1476  1.5663
 6695TIP3    H241645   1.078   2.832   1.139 -1.0307  0.1247 -0.9461
 6696TIP3   OH241646   6.088   1.715   1.761  0.0942 -0.1908 -0.2083
 6696TIP3    H141647   6.007   1.690   1.806 -0.2087 -0.1571 -0.7292
 6696TIP3    H241648   6.066   1.710   1.668 -0.2768  2.8440 -0.3868
 6697TIP3   OH241649   2.759   2.907   7.835  0.2467  0.6254  0.4885
 6697TIP3    H141650   2.833   2.945   7.882  0.0083 -0.6534  2.0126
 6697TIP3    H241651   2.738   2.827   7.885 -0.3295 -0.5678 -1.5624
 6698TIP3   OH241652   2.700   3.114   1.245  0.1402 -0.0498  0.6080
 6698TIP3    H141653   2.642   3.063   1.301 -0.1353  1.0228  1.3238
 6698TIP3    H241654   2.783   3.066   1.246 -1.3134 -3.1121 -2.5668
 6699TIP3   OH241655   0.155   5.273   0.841 -0.4969 -0.5441  0.0348
 6699TIP3    H141656   0.116   5.279   0.929  0.8546 -0.3506  0.6573
 6699TIP3    H241657   0.196   5.187   0.839 -1.6509 -1.0933 -0.9295
 6700TIP3   OH241658   0.891   6.224   1.909  0.1498  0.3515 -0.4081
 6700TIP3    H141659   0.932   6.303   1.943  0.0597  0.8374 -1.3943
 6700TIP3    H241660   0.960   6.182   1.856  0.3117 -0.4241  0.3945
 6701TIP3   OH241661   1.970   1.888   0.797  0.6098 -0.3790 -0.1132
 6701TIP3    H141662   1.899   1.946   0.767  0.3726 -0.7577 -0.2937
 6701TIP3    H241663   2.039   1.948   0.825  0.3825 -0.0051 -0.3339
 6702TIP3   OH241664   3.187   0.484   8.516 -0.4321 -0.5115  0.1655
 6702TIP3    H141665   3.103   0.529   8.522 -0.1863 -0.2069  1.4462
 6702TIP3    H241666   3.251   0.546   8.549  0.7505  0.3101 -3.2739
 6703TIP3   OH241667   1.555   2.144   0.619 -0.0170  0.0782  0.4765
 6703TIP3    H141668   1.573   2.138   0.525 -0.7509  0.2839  0.3169
 6703TIP3    H241669   1.497   2.071   0.637  0.4360 -0.1960  0.8569
 6704TIP3   OH241670   2.230   1.268   2.033 -0.0049  0.0866 -0.4019
 6704TIP3    H141671   2.319   1.237   2.049  0.2174  0.2196 -1.3352
 6704TIP3    H241672   2.216   1.336   2.099  1.1178  1.0761 -1.1414
 6705TIP3   OH241673   3.128   1.618   7.882  0.4191  0.2921  0.6645
 6705TIP3    H141674   3.067   1.555   7.844  0.7965 -0.2331  0.9168
 6705TIP3    H241675   3.134   1.593   7.975  1.1788  0.1916  0.5964
 6706TIP3   OH241676   0.537   1.539   1.925 -0.5492  0.7832  0.5898
 6706TIP3    H141677   0.565   1.452   1.897  0.9387  0.0308  3.9627
 6706TIP3    H241678   0.613   1.595   1.908 -0.0636  0.5556  1.8744
 6707TIP3   OH241679   6.735   3.158   7.513  0.6887  0.7927 -0.0456
 6707TIP3    H141680   6.702   3.150   7.424 -0.9735 -2.3838  0.7094
 6707TIP3    H241681   6.818   3.206   7.504  1.1127 -0.3311 -3.4097
 6708TIP3   OH241682   6.786   1.533   0.067  0.9185 -0.2085 -0.1130
 6708TIP3    H141683   6.829   1.494  -0.009  0.2252  1.9417 -1.7109
 6708TIP3    H241684   6.838   1.611   0.087 -1.6198  2.0549 -1.6420
 6709TIP3   OH241685   2.984   1.288   7.879  0.6871  0.6437  0.4871
 6709TIP3    H141686   2.909   1.239   7.913  1.3939 -0.5259  0.4051
 6709TIP3    H241687   2.973   1.377   7.914 -0.0512  0.1567  1.5168
 6710TIP3   OH241688   5.271   3.840   6.164 -0.2192 -0.2946  0.0824
 6710TIP3    H141689   5.276   3.870   6.073  0.6102 -1.7673 -0.4040
 6710TIP3    H241690   5.203   3.893   6.204 -0.4685  0.5094 -1.3545
 6711TIP3   OH241691   0.684   0.463   7.419  0.4842 -0.5948 -0.0759
 6711TIP3    H141692   0.756   0.417   7.463  0.8659  1.0675  1.1452
 6711TIP3    H241693   0.678   0.547   7.464 -2.4477 -0.7733  0.0672
 6712TIP3   OH241694   0.598   4.184   7.216 -0.7225 -0.3859  0.0599
 6712TIP3    H141695   0.546   4.263   7.232  0.7422  0.3369  1.5974
 6712TIP3    H241696   0.570   4.153   7.130 -5.0453 -1.1386  1.4922
 6713TIP3   OH241697   2.403   0.538   7.543 -0.1647 -0.3503  0.2937
 6713TIP3    H141698   2.376   0.469   7.603 -2.9543 -0.2049 -0.6208
 6713TIP3    H241699   2.436   0.492   7.466 -1.0452 -0.6911  0.1027
 6714TIP3   OH241700   6.341   4.622   6.072  0.3261  0.0577  0.2013
 6714TIP3    H141701   6.295   4.609   6.155  0.8838 -0.2583  0.4631
 6714TIP3    H241702   6.293   4.693   6.029  0.5554  0.8187  1.1692
 6715TIP3   OH241703   2.729   6.615   2.071 -0.4076  0.2597 -0.1237
 6715TIP3    H141704   2.801   6.577   2.021 -0.0489  1.6048 -0.6629
 6715TIP3    H241705   2.661   6.547   2.070 -0.5701  0.3799 -2.7778
 6716TIP3   OH241706   6.263   5.070   6.624  0.6978  0.1264 -0.5009
 6716TIP3    H141707   6.201   5.012   6.579 -0.1315  1.5081 -1.1986
 6716TIP3    H241708   6.211   5.147   6.648  2.0093  1.0726 -0.5900
 6717TIP3   OH241709   5.861   5.874   7.015  0.1389  0.2375 -0.2222
 6717TIP3    H141710   5.873   5.952   6.961  0.0296  1.0226  0.8436
 6717TIP3    H241711   5.946   5.830   7.013 -0.0453 -0.0868 -1.5201
 6718TIP3   OH241712   4.108   6.652   0.203  0.3950  0.0372 -0.0435
 6718TIP3    H141713   4.162   6.616   0.132  0.6574  1.2762 -0.5036
 6718TIP3    H241714   4.138   6.742   0.212  0.7601 -0.2308  2.0521
 6719TIP3   OH241715   4.121   5.172   1.799  0.3555  0.1843 -0.2517
 6719TIP3    H141716   4.137   5.077   1.793  1.5765  0.3406  0.3157
 6719TIP3    H241717   4.034   5.179   1.837 -0.1694 -0.7138 -1.2387
 6720TIP3   OH241718   5.333   4.190   0.269 -0.1736  0.2596  0.7087
 6720TIP3    H141719   5.273   4.236   0.328  1.0369  1.2502  1.2229
 6720TIP3    H241720   5.310   4.098   0.278 -1.5566  0.6016  0.9429
 6721TIP3   OH241721   0.948   2.238   1.199 -0.3002 -0.2500 -0.3798
 6721TIP3    H141722   0.938   2.145   1.181 -0.0972 -0.1716 -0.9037
 6721TIP3    H241723   0.942   2.244   1.295  1.6480 -1.0608 -0.1604
 6722TIP3   OH241724   3.912   6.781   0.969  0.8860 -0.2018  0.1887
 6722TIP3    H141725   3.952   6.694   0.973  0.7838 -0.3887 -1.9977
 6722TIP3    H241726   3.823   6.769   1.002  0.3120 -1.3177 -1.6493
 6723TIP3   OH241727   5.418   1.224   8.178 -0.1405  0.1835 -0.6237
 6723TIP3    H141728   5.336   1.177   8.163 -0.1180 -0.4301  0.9696
 6723TIP3    H241729   5.449   1.247   8.091 -1.0325 -1.2552 -1.3460
 6724TIP3   OH241730   2.044   4.094   1.920  0.7072  0.1120 -0.2720
 6724TIP3    H141731   1.955   4.070   1.945  1.2645 -0.5644  1.1137
 6724TIP3    H241732   2.076   4.146   1.993  1.0635  1.3931 -1.2924
 6725TIP3   OH241733   3.809   2.705   2.504  0.3484  0.4360  0.2745
 6725TIP3    H141734   3.753   2.630   2.521  3.8238 -2.2323  1.0507
 6725TIP3    H241735   3.822   2.704   2.409 -0.7455  1.0376  0.0955
 6726TIP3   OH241736   4.245   6.744   0.842 -0.1737 -0.5517  0.3396
 6726TIP3    H141737   4.209   6.824   0.803 -1.7292 -1.6993 -0.6870
 6726TIP3    H241738   4.339   6.750   0.825 -0.4133  0.5198 -0.7615
 6727TIP3   OH241739   3.518   3.691   8.036 -0.4492  0.2477  0.6635
 6727TIP3    H141740   3.502   3.784   8.023 -0.0775  0.0420 -1.8692
 6727TIP3    H241741   3.603   3.675   7.994  0.1558 -1.0078  2.2689
 6728TIP3   OH241742   4.722   2.377   0.900  0.1091 -0.5487 -0.1946
 6728TIP3    H141743   4.644   2.330   0.869 -0.1592 -0.3824  0.2344
 6728TIP3    H241744   4.705   2.394   0.992  1.5079 -2.2808  0.4320
 6729TIP3   OH241745   6.597   3.274   7.780  0.1349 -0.2125  0.0110
 6729TIP3    H141746   6.659   3.230   7.839 -1.1575 -0.7887  0.9971
 6729TIP3    H241747   6.640   3.273   7.695  0.6660 -2.3506  0.2580
 6730TIP3   OH241748   3.691   2.067   0.261 -0.0086  0.3362 -0.1076
 6730TIP3    H141749   3.724   2.014   0.188 -0.0677 -1.3902  1.0751
 6730TIP3    H241750   3.741   2.038   0.337 -0.1030  1.9531  0.6222
 6731TIP3   OH241751   5.291   3.084   6.887 -0.2988 -0.5274  0.0130
 6731TIP3    H141752   5.309   3.178   6.889 -1.0121 -0.3849 -0.0042
 6731TIP3    H241753   5.294   3.057   6.979  1.1346 -0.7401 -0.0782
 6732TIP3   OH241754   5.981   5.559   1.602  0.2729 -0.2899 -0.0729
 6732TIP3    H141755   5.964   5.475   1.559  4.1926 -2.0559  1.3217
 6732TIP3    H241756   6.045   5.602   1.545  0.5394  0.3895  0.7274
 6733TIP3   OH241757   3.009   3.485   7.684  0.0408 -0.4822 -0.1163
 6733TIP3    H141758   2.972   3.415   7.630  2.6153 -1.6374 -0.5117
 6733TIP3    H241759   3.032   3.553   7.621 -1.0080  0.0989  0.0966
 6734TIP3   OH241760   0.612   1.025   1.267 -0.4091  0.2811 -0.3457
 6734TIP3    H141761   0.686   1.062   1.315 -0.5520 -0.4318  0.4657
 6734TIP3    H241762   0.647   0.946   1.226 -1.0817 -1.0428  1.4812
 6735TIP3   OH241763   5.552   6.725   0.292  0.2105 -0.1938  0.0536
 6735TIP3    H141764   5.615   6.673   0.242  0.5022 -0.4051  0.6279
 6735TIP3    H241765   5.578   6.816   0.275 -0.8066 -0.1665 -1.6127
 6736TIP3   OH241766   0.883   0.244   0.055  0.2487 -1.1636  0.0660
 6736TIP3    H141767   0.964   0.193   0.065  1.8760  1.1477 -0.3906
 6736TIP3    H241768   0.898   0.324   0.106 -1.4701 -0.3615 -0.5947
 6737TIP3   OH241769   5.059   5.937   8.394  0.0500 -0.4402 -0.3452
 6737TIP3    H141770   5.034   5.922   8.485  0.9944 -0.3587 -0.0598
 6737TIP3    H241771   4.983   5.908   8.343 -0.5645 -0.3020  0.4688
 6738TIP3   OH241772   0.245   3.207   8.071 -0.1715 -0.8399 -0.6579
 6738TIP3    H141773   0.214   3.244   8.153  0.8143 -0.3711 -0.4843
 6738TIP3    H241774   0.302   3.135   8.098  1.7296  0.5431 -0.8492
 6739TIP3   OH241775   0.339   0.291   8.618 -0.0993 -0.1650 -0.6338
 6739TIP3    H141776   0.356   0.330   8.532  0.0605  2.3627  0.4511
 6739TIP3    H241777   0.425   0.265   8.650 -0.0847 -0.5465 -0.9688
 6740TIP3   OH241778   0.671   1.370   0.506 -0.0450  0.0157  0.3817
 6740TIP3    H141779   0.715   1.397   0.425  0.1203 -2.3218 -0.3804
 6740TIP3    H241780   0.725   1.407   0.576  1.4670 -0.3161 -0.5713
 6741TIP3   OH241781   5.127   3.566   6.470  0.0661 -0.3008  0.3622
 6741TIP3    H141782   5.132   3.497   6.537 -1.1496 -1.0097 -0.2363
 6741TIP3    H241783   5.033   3.579   6.457  0.2883  0.2587 -0.7687
 6742TIP3   OH241784   2.669   5.069   7.622  0.2302 -0.4199  0.1663
 6742TIP3    H141785   2.597   5.050   7.682 -0.3509  0.3454 -0.2613
 6742TIP3    H241786   2.658   5.006   7.551  0.3602 -0.7145  0.4046
 6743TIP3   OH241787   1.060   1.035   6.378  0.3863 -0.3349  0.2014
 6743TIP3    H141788   1.133   0.975   6.363 -0.9410 -1.7308 -0.9583
 6743TIP3    H241789   0.994   0.983   6.424 -0.6742  0.2658 -0.5735
 6744TIP3   OH241790   2.998   3.581   1.228  0.3401 -0.0813  0.6077
 6744TIP3    H141791   2.962   3.544   1.147  1.3242 -1.1200  0.6113
 6744TIP3    H241792   2.938   3.553   1.297 -1.7590  2.6341  0.0744
 6745TIP3   OH241793   0.220   5.349   7.737 -0.2458  0.0382  0.3714
 6745TIP3    H141794   0.135   5.305   7.739 -0.1430 -0.4808 -2.4546
 6745TIP3    H241795   0.284   5.277   7.734  0.3192  0.4266  2.0737
 6746TIP3   OH241796   1.836   5.032   8.386  0.1509 -0.4384  0.7750
 6746TIP3    H141797   1.770   5.087   8.427 -1.6880 -0.6097 -1.7367
 6746TIP3    H241798   1.788   4.955   8.355  1.4101 -0.4182 -1.4457
 6747TIP3   OH241799   4.668   4.781   6.779  0.0090 -0.3302  0.4348
 6747TIP3    H141800   4.753   4.738   6.768  0.5979  1.1366 -1.1911
 6747TIP3    H241801   4.688   4.861   6.827  0.0890  1.3685 -2.2141
 6748TIP3   OH241802   6.168   4.790   7.039  0.2332 -0.4452 -0.3680
 6748TIP3    H141803   6.156   4.865   7.098  0.2899  0.3947 -1.3849
 6748TIP3    H241804   6.235   4.820   6.977 -0.3469 -1.0259 -1.2916
 6749TIP3   OH241805   4.395   0.737   1.744  0.5523  0.0455 -0.3251
 6749TIP3    H141806   4.382   0.793   1.820 -2.9676  1.4256 -1.7445
 6749TIP3    H241807   4.392   0.648   1.780  3.8943  0.5647  1.6550
 6750TIP3   OH241808   3.594   0.277   0.542 -0.5669  0.3692  0.0984
 6750TIP3    H141809   3.636   0.203   0.586  0.1133  0.6047 -0.1426
 6750TIP3    H241810   3.639   0.354   0.577  0.5441  0.5332 -1.5568
 6751TIP3   OH241811   5.850   2.231   8.392 -0.4752 -0.0508  0.3565
 6751TIP3    H141812   5.788   2.261   8.459  0.0321 -1.2421  1.4042
 6751TIP3    H241813   5.852   2.136   8.403 -1.0983 -0.3928 -2.0193
 6752TIP3   OH241814   6.543   2.792   0.491 -0.0563  0.1326  0.1325
 6752TIP3    H141815   6.584   2.735   0.556 -1.0495 -0.8711 -0.0761
 6752TIP3    H241816   6.615   2.843   0.455  0.4115  1.3907  2.6456
 6753TIP3   OH241817   5.044   0.414   0.007  0.7942  0.2870 -0.3499
 6753TIP3    H141818   5.074   0.449  -0.077 -1.5723  0.5799 -1.1492
 6753TIP3    H241819   4.966   0.466   0.028 -0.2085 -1.5257  0.6700
 6754TIP3   OH241820   6.362   6.131   2.433 -0.5382 -0.1643  0.5766
 6754TIP3    H141821   6.447   6.172   2.417 -1.0338  0.4881 -0.5621
 6754TIP3    H241822   6.379   6.065   2.500  0.7945  0.1793  0.6068
 6755TIP3   OH241823   1.272   2.550   1.702  0.4067  0.1461 -0.2250
 6755TIP3    H141824   1.350   2.515   1.744 -1.2062 -0.8202  2.2197
 6755TIP3    H241825   1.258   2.635   1.743 -0.6968 -0.4086  0.6010
 6756TIP3   OH241826   5.959   3.811   0.158 -0.0116 -0.7779 -0.4291
 6756TIP3    H141827   6.025   3.747   0.186  0.5336 -0.9386 -1.9725
 6756TIP3    H241828   5.886   3.799   0.218  0.3530 -2.3935 -0.2748
 6757TIP3   OH241829   0.552   0.366   7.088  0.0170  0.3288  0.2080
 6757TIP3    H141830   0.605   0.438   7.052 -0.2808 -1.1871 -3.7478
 6757TIP3    H241831   0.610   0.322   7.149  1.6704  1.4922 -0.4376
 6758TIP3   OH241832   5.794   0.841   7.412 -0.2080  0.1777  0.1154
 6758TIP3    H141833   5.750   0.923   7.436 -0.8562 -0.0266 -0.3372
 6758TIP3    H241834   5.747   0.811   7.334  0.3943 -0.3331 -0.0556
 6759TIP3   OH241835   5.424   3.036   1.057 -0.4928 -0.2212  0.1619
 6759TIP3    H141836   5.345   3.089   1.061 -0.1105  0.3971 -0.2207
 6759TIP3    H241837   5.494   3.099   1.041 -0.0187 -0.8304 -0.2336
 6760TIP3   OH241838   6.495   5.497   7.920  0.1219  0.1819 -0.0396
 6760TIP3    H141839   6.474   5.509   8.012  0.8002  0.4177  0.0946
 6760TIP3    H241840   6.440   5.560   7.874 -0.2108  0.0708  0.2067
 6761TIP3   OH241841   1.955   3.682   0.704 -0.1700 -0.0524  0.3058
 6761TIP3    H141842   1.914   3.741   0.766  2.8146  3.0043 -0.3725
 6761TIP3    H241843   2.045   3.713   0.696  0.1853 -1.4486 -4.0419
 6762TIP3   OH241844   5.822   6.638   0.511  0.8158 -0.3598 -0.2552
 6762TIP3    H141845   5.799   6.561   0.458  0.8928  1.1053 -2.5534
 6762TIP3    H241846   5.888   6.605   0.572 -0.7521 -2.5959  0.3889
 6763TIP3   OH241847   5.928   3.409   6.983  0.2735 -0.0850  0.0736
 6763TIP3    H141848   5.838   3.377   6.983  0.2715 -0.3720  2.8620
 6763TIP3    H241849   5.946   3.431   6.892 -2.0365 -1.5777 -0.8460
 6764TIP3   OH241850   4.095   5.947   0.795 -0.1745 -0.1492  0.2948
 6764TIP3    H141851   4.154   5.905   0.857  0.5271  0.4697  0.0516
 6764TIP3    H241852   4.151   6.001   0.741 -1.1514  1.8471  1.1826
 6765TIP3   OH241853   5.074   3.859   8.580  0.1476  0.3405  0.1456
 6765TIP3    H141854   5.047   3.804   8.506 -1.3172  0.2870  0.6821
 6765TIP3    H241855   5.039   3.945   8.559  0.1827  0.4503  0.5314
 6766TIP3   OH241856   3.173   0.918   7.335  0.2833  0.3837  0.1120
 6766TIP3    H141857   3.207   0.867   7.409  0.0934 -0.8216 -0.5922
 6766TIP3    H241858   3.214   1.003   7.343 -0.2737  0.5186  2.0093
 6767TIP3   OH241859   3.529   1.127   8.055 -0.0140 -0.0384  0.2164
 6767TIP3    H141860   3.484   1.207   8.026  1.6483  0.8800  0.0531
 6767TIP3    H241861   3.494   1.059   7.998  1.4956  1.3266 -2.5388
 6768TIP3   OH241862   1.557   1.839   0.855  0.1781 -0.0767  0.0152
 6768TIP3    H141863   1.625   1.906   0.864  0.8376 -1.0144  2.6430
 6768TIP3    H241864   1.590   1.780   0.787  1.5342  0.0195  0.5648
 6769TIP3   OH241865   4.133   1.354   1.189 -0.0645 -0.4873  0.0030
 6769TIP3    H141866   4.183   1.278   1.218 -0.8425 -0.4029  1.6772
 6769TIP3    H241867   4.044   1.337   1.221 -0.9506 -0.2176 -2.1113
 6770TIP3   OH241868   1.281   4.905   7.775 -0.3397 -0.5729  0.3468
 6770TIP3    H141869   1.293   4.999   7.764  0.8236 -0.9151 -1.8032
 6770TIP3    H241870   1.189   4.890   7.752 -0.3384 -0.0436 -0.0236
 6771TIP3   OH241871   3.214   2.376   6.137 -0.0442  0.1777 -0.7168
 6771TIP3    H141872   3.180   2.287   6.125 -1.9808  0.7742  0.0015
 6771TIP3    H241873   3.290   2.380   6.078 -0.5039 -1.6155 -1.5232
 6772TIP3   OH241874   0.635   2.111   7.940 -0.3861  0.3721 -0.0632
 6772TIP3    H141875   0.599   2.031   7.903  2.9180 -0.2271 -2.4260
 6772TIP3    H241876   0.620   2.177   7.873  2.6674  0.0907 -1.1400
 6773TIP3   OH241877   0.070   0.619   8.252 -0.0882 -0.5067  0.4762
 6773TIP3    H141878   0.022   0.666   8.184  0.4178  0.7202  0.9558
 6773TIP3    H241879   0.001   0.574   8.302 -0.6760  0.5615  0.6468
 6774TIP3   OH241880   4.928   1.110   0.949 -0.4731 -0.0309  0.1697
 6774TIP3    H141881   4.874   1.188   0.963 -3.4990 -1.8627 -0.4435
 6774TIP3    H241882   4.986   1.107   1.025  1.2343  3.8118 -0.7325
 6775TIP3   OH241883   2.773   0.119   1.218  0.4716 -0.0359 -0.2755
 6775TIP3    H141884   2.806   0.166   1.295 -2.0441  0.5892  0.4997
 6775TIP3    H241885   2.703   0.063   1.252 -0.1578 -0.3413 -1.9860
 6776TIP3   OH241886   6.257   4.482   7.843  0.2334 -0.3796  0.2677
 6776TIP3    H141887   6.175   4.458   7.802  0.0839 -1.6169  1.2155
 6776TIP3    H241888   6.265   4.576   7.829 -1.0180 -0.3569 -0.3979
 6777TIP3   OH241889   0.060   2.314   8.482  0.0546 -0.2004 -0.1604
 6777TIP3    H141890   0.124   2.287   8.548  0.8705 -0.1737 -0.9231
 6777TIP3    H241891   0.029   2.232   8.444  1.1848 -0.1731 -1.2140
 6778TIP3   OH241892   0.943   3.008   8.560  0.0795  0.1126  0.1189
 6778TIP3    H141893   0.965   3.026   8.651 -1.2438 -0.8241  0.6592
 6778TIP3    H241894   0.960   3.090   8.514  0.1413  0.7955  1.3237
 6779TIP3   OH241895   2.053   3.837   8.365  0.0871  0.2462  0.5940
 6779TIP3    H141896   2.079   3.843   8.273  0.5668 -0.0688  0.7075
 6779TIP3    H241897   2.118   3.890   8.412 -0.9392  1.5326  0.6102
 6780TIP3   OH241898   3.347   2.838   6.209 -0.0101 -0.1904  0.2019
 6780TIP3    H141899   3.416   2.897   6.178 -1.1199  1.5771  0.9259
 6780TIP3    H241900   3.354   2.842   6.304 -1.3866  0.3959  0.3004
 6781TIP3   OH241901   5.098   1.318   1.263  0.1778  0.0987 -0.6963
 6781TIP3    H141902   5.148   1.354   1.336  2.2933 -1.3368 -1.3518
 6781TIP3    H241903   5.015   1.290   1.302  1.1292 -0.3349  1.0853
 6782TIP3   OH241904   0.242   1.938   8.105  0.4846  0.2219 -0.0347
 6782TIP3    H141905   0.255   2.031   8.128 -1.1661  0.3563  0.4901
 6782TIP3    H241906   0.169   1.910   8.161 -0.9663 -0.5968 -2.2386
 6783TIP3   OH241907   2.389   2.182   7.270 -0.0809 -0.7462 -0.0469
 6783TIP3    H141908   2.436   2.182   7.186 -0.4829  0.0111 -0.2852
 6783TIP3    H241909   2.354   2.094   7.278  0.1164 -0.8806 -0.5949
 6784TIP3   OH241910   0.722   4.832   0.586  0.6748 -0.0845  0.5840
 6784TIP3    H141911   0.793   4.846   0.649  1.0181 -2.2027  0.7147
 6784TIP3    H241912   0.765   4.837   0.501  0.4921  1.1671  0.5418
 6785TIP3   OH241913   0.900   4.443   8.309 -0.4745  0.3146 -0.5362
 6785TIP3    H141914   0.934   4.383   8.376 -0.3745  0.2334 -0.6612
 6785TIP3    H241915   0.825   4.397   8.272  1.1367 -0.8917 -2.4680
 6786TIP3   OH241916   5.087   3.675   6.850  0.3647  0.6914 -0.4549
 6786TIP3    H141917   5.097   3.769   6.863 -0.9054  0.8092 -0.1707
 6786TIP3    H241918   5.020   3.668   6.782  0.3715 -0.0081 -0.3944
 6787TIP3   OH241919   0.082   3.686   7.797  0.9316  0.2589  0.7466
 6787TIP3    H141920   0.121   3.599   7.797  1.3106  0.3335  3.3388
 6787TIP3    H241921   0.133   3.736   7.733  1.3142 -1.1521 -0.0867
 6788TIP3   OH241922   6.071   0.443   0.386  0.5440  0.0686  0.3119
 6788TIP3    H141923   5.990   0.414   0.344  1.1764 -0.0788 -0.8475
 6788TIP3    H241924   6.089   0.375   0.451 -0.0177 -0.1364  0.2623
 6789TIP3   OH241925   0.255   0.670   7.797  0.3861 -0.4169  0.6592
 6789TIP3    H141926   0.174   0.628   7.824 -1.0264  1.2918 -0.6359
 6789TIP3    H241927   0.257   0.659   7.702  0.2192  1.8072  0.3272
 6790TIP3   OH241928   1.346   5.616   0.142  0.2715  0.2294 -0.0811
 6790TIP3    H141929   1.386   5.699   0.170  1.7326 -0.5622  0.2643
 6790TIP3    H241930   1.308   5.580   0.222  0.5607  0.0680 -0.0161
 6791TIP3   OH241931   5.091   2.463   8.308  0.0181 -0.0627 -0.4888
 6791TIP3    H141932   5.085   2.454   8.403 -0.7764  0.3643 -0.4861
 6791TIP3    H241933   5.067   2.554   8.291  1.7810  0.3649 -0.9794
 6792TIP3   OH241934   1.035   4.234   7.898 -0.3753 -0.3146  0.5457
 6792TIP3    H141935   1.122   4.266   7.920  0.8887 -0.6665 -3.2991
 6792TIP3    H241936   1.019   4.162   7.959  2.9680 -1.6115  0.0811
 6793TIP3   OH241937   6.039   0.058   1.735 -0.4547  0.9107 -0.2114
 6793TIP3    H141938   6.077   0.110   1.664  0.2854 -0.1953 -0.6572
 6793TIP3    H241939   6.104   0.063   1.805 -0.5934  0.9717 -0.0888
 6794TIP3   OH241940   6.104   6.495   7.678  0.3012  0.0099  0.1378
 6794TIP3    H141941   6.037   6.427   7.683 -0.1473  0.4790  0.4600
 6794TIP3    H241942   6.081   6.547   7.601  0.8242 -0.3837 -0.2953
 6795TIP3   OH241943   4.564   3.183   2.174 -0.1535  0.7874 -0.2557
 6795TIP3    H141944   4.660   3.180   2.171 -0.0970  1.0146  0.7202
 6795TIP3    H241945   4.539   3.099   2.212 -0.2536  1.1772  0.5827
 6796TIP3   OH241946   4.795   1.371   7.275 -0.2004  0.2848 -0.1277
 6796TIP3    H141947   4.791   1.430   7.350 -0.6897 -0.2641  0.2876
 6796TIP3    H241948   4.888   1.347   7.268 -0.1459  0.3745  0.2675
 6797TIP3   OH241949   1.901   5.147   7.936  0.7797  0.3373 -0.1587
 6797TIP3    H141950   1.960   5.074   7.923 -0.5124 -0.5541 -1.3712
 6797TIP3    H241951   1.844   5.146   7.859 -2.1900 -0.1868  1.8813
 6798TIP3   OH241952   5.818   1.429   7.061 -0.2257 -0.4562  0.6241
 6798TIP3    H141953   5.756   1.397   6.995  0.0083  0.2778  0.0374
 6798TIP3    H241954   5.764   1.479   7.122 -0.1965  0.4363 -0.0503
 6799TIP3   OH241955   2.532   1.191   8.183  0.1174  0.0653 -0.3488
 6799TIP3    H141956   2.441   1.206   8.209  0.3898  0.1419  0.6177
 6799TIP3    H241957   2.531   1.104   8.144 -0.3012 -0.1174  0.0516
 6800TIP3   OH241958   2.614   0.491   1.732  0.6184 -0.4028  0.3268
 6800TIP3    H141959   2.613   0.492   1.636 -1.2403  1.9987  0.2760
 6800TIP3    H241960   2.704   0.468   1.755  1.1671 -0.8156 -1.9834
 6801TIP3   OH241961   5.600   1.300   0.737 -0.4833 -0.1814 -0.3716
 6801TIP3    H141962   5.535   1.231   0.753  0.0131 -0.5577  0.0548
 6801TIP3    H241963   5.597   1.353   0.817 -0.2518 -0.2102 -0.3452
 6802TIP3   OH241964   3.389   1.071   1.602 -0.0298  0.0916 -0.1076
 6802TIP3    H141965   3.400   1.140   1.667 -0.5317 -0.5602  0.6917
 6802TIP3    H241966   3.304   1.089   1.562 -0.0778  0.0381 -0.0292
 6803TIP3   OH241967   1.921   1.177   0.235  0.5177  0.2313 -0.7511
 6803TIP3    H141968   1.907   1.095   0.281  1.0960 -0.6641 -2.1043
 6803TIP3    H241969   1.986   1.223   0.288  2.1321 -1.3385 -1.2710
 6804TIP3   OH241970   2.314   2.272   0.098 -0.8602  0.7507 -1.1632
 6804TIP3    H141971   2.280   2.229   0.019  1.1203 -0.9640 -1.1510
 6804TIP3    H241972   2.381   2.332   0.065  1.3997 -1.3946 -0.7829
 6805TIP3   OH241973   4.156   6.024   1.176  0.5029 -0.1199 -0.2339
 6805TIP3    H141974   4.185   6.005   1.087  2.1315  0.2942  0.1819
 6805TIP3    H241975   4.201   5.959   1.230 -1.3441 -1.1075  0.2127
 6806TIP3   OH241976   1.204   4.682   7.982 -0.5798 -0.1608 -0.1607
 6806TIP3    H141977   1.121   4.641   8.008 -0.4274  0.3345  1.1574
 6806TIP3    H241978   1.186   4.776   7.985  0.3972  0.0132  1.5667
 6807TIP3   OH241979   2.272   1.581   8.690 -0.1893  0.2405 -0.4737
 6807TIP3    H141980   2.240   1.493   8.667  1.7635 -0.6494 -0.0315
 6807TIP3    H241981   2.206   1.615   8.751 -0.1561 -1.6401  0.7227
 6808TIP3   OH241982   5.975   6.443   7.962 -0.4075 -0.3779  0.2483
 6808TIP3    H141983   6.037   6.480   7.900  0.7719 -1.7557  0.5556
 6808TIP3    H241984   5.972   6.349   7.940 -0.6723 -0.7230  1.6714
 6809TIP3   OH241985   6.367   2.302   8.527  0.3781 -0.0594 -0.4604
 6809TIP3    H141986   6.381   2.232   8.463  1.7554  0.0695 -0.3304
 6809TIP3    H241987   6.450   2.349   8.530  0.5505 -0.3752  1.8010
 6810TIP3   OH241988   3.606   0.736   7.283 -0.0790  0.3005 -0.3634
 6810TIP3    H141989   3.542   0.756   7.214  0.3042 -1.1122 -1.1825
 6810TIP3    H241990   3.573   0.655   7.323  0.5243  0.2570  0.0540
 6811TIP3   OH241991   6.079   4.725   6.231  0.2496  0.0003  0.2164
 6811TIP3    H141992   6.093   4.631   6.241  0.6874 -0.0380 -0.6428
 6811TIP3    H241993   6.090   4.741   6.137 -0.6325  0.7836  0.2307
 6812TIP3   OH241994   1.403   0.175   0.999 -0.4965  0.5927  0.0564
 6812TIP3    H141995   1.380   0.210   0.913  0.3835  0.9381 -0.0468
 6812TIP3    H241996   1.329   0.200   1.055  0.1181  2.7158 -0.0020
 6813TIP3   OH241997   2.492   3.667   1.938  0.1733  0.4661  0.6533
 6813TIP3    H141998   2.425   3.733   1.921  0.4375  1.1445  2.0188
 6813TIP3    H241999   2.575   3.716   1.937  0.8788 -0.5879 -2.3763
 6814TIP3   OH242000   1.477   2.008   7.098 -0.3366  0.3395 -0.3766
 6814TIP3    H142001   1.486   1.934   7.157  1.9140 -0.1498 -1.2279
 6814TIP3    H242002   1.438   2.077   7.152  0.6288 -0.4174  1.3874
 6815TIP3   OH242003   1.608   5.192   0.828  0.3231 -0.1548  0.6209
 6815TIP3    H142004   1.621   5.117   0.770 -0.4978  0.2186 -0.0721
 6815TIP3    H242005   1.517   5.218   0.813  0.9966  1.9096 -0.3249
 6816TIP3   OH242006   0.411   2.897   7.397  0.1639  0.3018 -0.3245
 6816TIP3    H142007   0.409   2.881   7.491 -1.2362  1.5703 -0.0993
 6816TIP3    H242008   0.319   2.899   7.370  0.5093  0.7281 -1.5680
 6817TIP3   OH242009   3.950   3.693   0.464  0.2324  0.5246  0.1099
 6817TIP3    H142010   3.988   3.739   0.389 -0.6145  0.9432 -0.0677
 6817TIP3    H242011   4.020   3.635   0.494  1.4348  2.0804  0.4955
 6818TIP3   OH242012   6.436   3.323   0.045 -0.2572  0.1651  0.3703
 6818TIP3    H142013   6.515   3.287   0.087 -0.3876 -0.8287 -0.1925
 6818TIP3    H242014   6.464   3.407   0.010  0.4540 -0.0113  0.4996
 6819TIP3   OH242015   1.356   1.627   7.104 -0.4376  0.6792  0.0089
 6819TIP3    H142016   1.300   1.552   7.124 -2.2585  2.1267  0.5593
 6819TIP3    H242017   1.435   1.588   7.066 -1.5639 -1.4728 -0.2730
 6820TIP3   OH242018   0.770   1.671   6.387  0.2122 -0.0480  0.1308
 6820TIP3    H142019   0.800   1.700   6.301  1.3272 -1.8865 -0.1573
 6820TIP3    H242020   0.687   1.626   6.370  1.5779 -2.5481 -0.4454
 6821TIP3   OH242021   4.085   2.525   8.048  0.2461 -0.0704  0.8269
 6821TIP3    H142022   4.174   2.499   8.024  0.7412  1.1852  1.2291
 6821TIP3    H242023   4.078   2.504   8.141  0.6006  1.0630  1.1191
 6822TIP3   OH242024   4.959   6.704   1.063 -0.0283  0.3381 -0.0274
 6822TIP3    H142025   4.876   6.726   1.105 -0.3141 -0.4670 -0.1640
 6822TIP3    H242026   4.969   6.610   1.076 -0.1512  0.0415 -1.7610
 6823TIP3   OH242027   0.549   6.483   0.606  0.8481  0.3717 -0.1557
 6823TIP3    H142028   0.620   6.460   0.547  0.3357 -0.5647 -0.4301
 6823TIP3    H242029   0.495   6.404   0.610  0.9137  0.3886  1.6374
 6824TIP3   OH242030   4.995   5.957   8.679  0.3012  0.5990 -0.8276
 6824TIP3    H142031   5.069   5.955   8.739 -0.3042  0.3615 -0.0786
 6824TIP3    H242032   4.967   6.049   8.678 -1.3696  0.1940  1.3856
 6825TIP3   OH242033   1.079   1.047   7.372 -0.5001  0.1519 -0.0389
 6825TIP3    H142034   1.166   1.078   7.396 -0.3778 -0.1151 -0.1293
 6825TIP3    H242035   1.019   1.097   7.428 -0.3884  1.3579 -0.9603
 6826TIP3   OH242036   3.803   6.271   8.177  0.1030 -0.4174 -0.4284
 6826TIP3    H142037   3.717   6.236   8.200  0.2597 -2.2349 -2.3465
 6826TIP3    H242038   3.865   6.223   8.232  0.0945 -1.2143 -1.0978
 6827TIP3   OH242039   5.769   0.587   1.688  0.3354  0.4347 -0.9251
 6827TIP3    H142040   5.750   0.506   1.736 -0.9353  0.3987 -1.4507
 6827TIP3    H242041   5.853   0.616   1.723  0.3174 -0.5634  0.0088
 6828TIP3   OH242042   3.089   1.282   1.415  0.3407  0.7126  0.1723
 6828TIP3    H142043   3.068   1.206   1.468 -0.0124 -0.2149 -1.2449
 6828TIP3    H242044   3.022   1.283   1.346  1.1908  1.4496 -0.6735
 6829TIP3   OH242045   4.419   3.294   6.344 -0.1987 -0.4636 -0.2646
 6829TIP3    H142046   4.390   3.276   6.434 -1.3377 -0.7046 -0.6705
 6829TIP3    H242047   4.395   3.385   6.329  0.0107 -0.4180 -0.3299
 6830TIP3   OH242048   3.864   5.754   8.444 -0.0135  0.1705  0.3319
 6830TIP3    H142049   3.795   5.818   8.460 -0.1158  0.2007 -0.2158
 6830TIP3    H242050   3.817   5.675   8.416  0.1171 -0.1143  0.9028
 6831TIP3   OH242051   2.655   4.514   8.095 -0.0372 -0.2743  0.4033
 6831TIP3    H142052   2.671   4.604   8.066  0.0183 -0.2761  0.4303
 6831TIP3    H242053   2.665   4.517   8.190 -1.1375 -0.0643  0.5302
 6832TIP3   OH242054   2.410   6.454   0.402  0.0577  0.4411  0.6336
 6832TIP3    H142055   2.372   6.380   0.354  1.9917 -0.7515  0.8431
 6832TIP3    H242056   2.375   6.531   0.357 -0.4549 -0.6016 -0.8737
 6833TIP3   OH242057   6.249   1.620   8.098 -0.1100 -0.4079  0.3158
 6833TIP3    H142058   6.334   1.627   8.142  0.6909 -1.2838 -1.0046
 6833TIP3    H242059   6.269   1.637   8.006 -1.1827 -1.5831 -0.1612
 6834TIP3   OH242060   1.832   0.984   0.426 -0.0314  0.1065  0.0875
 6834TIP3    H142061   1.898   0.928   0.469 -0.5784 -0.0272  0.7751
 6834TIP3    H242062   1.748   0.951   0.459 -0.4701  0.1038 -0.9834
 6835TIP3   OH242063   2.257   1.183   8.439 -0.5944 -0.3234  0.6728
 6835TIP3    H142064   2.258   1.090   8.416  2.5154 -0.5248  1.1510
 6835TIP3    H242065   2.195   1.189   8.512 -0.7030 -2.0590  0.7645
 6836TIP3   OH242066   4.050   1.847   0.167 -0.6058  0.1834 -0.3151
 6836TIP3    H142067   4.001   1.923   0.138 -0.3258  0.1517 -0.8721
 6836TIP3    H242068   4.021   1.776   0.110  1.0381  0.4452 -1.5536
 6837TIP3   OH242069   6.438   2.881   0.019  0.1440  0.2796  0.2160
 6837TIP3    H142070   6.376   2.809   0.019  1.2616 -0.7310 -1.1293
 6837TIP3    H242071   6.447   2.905   0.111  0.3070 -1.8142  0.7919
 6838TIP3   OH242072   1.518   1.385   1.106  0.0960 -0.2804 -0.0852
 6838TIP3    H142073   1.517   1.296   1.142  0.2696 -0.4774 -0.5702
 6838TIP3    H242074   1.552   1.439   1.178  2.8985 -1.0183 -0.7409
 6839TIP3   OH242075   3.219   2.871   1.447  0.6959 -0.1601 -0.3762
 6839TIP3    H142076   3.137   2.839   1.484 -0.3065  3.3524  0.7573
 6839TIP3    H242077   3.284   2.852   1.515  0.1881  0.0549  0.1775
 6840TIP3   OH242078   1.917   6.790   0.989  0.4068 -0.1362  0.0963
 6840TIP3    H142079   1.886   6.725   0.926 -1.7413  0.7045  0.2032
 6840TIP3    H242080   1.969   6.739   1.052 -1.9087 -1.9679  0.6759
 6841TIP3   OH242081   3.308   4.423   1.667  0.6333 -0.5695  0.3715
 6841TIP3    H142082   3.216   4.416   1.641  0.8929 -0.7133 -0.5199
 6841TIP3    H242083   3.307   4.406   1.761 -0.5201  1.5034  0.7875
 6842TIP3   OH242084   2.507   2.680   0.973  0.3027 -0.0346 -0.3938
 6842TIP3    H142085   2.443   2.638   1.030  1.4235 -1.6884 -0.2742
 6842TIP3    H242086   2.478   2.771   0.967 -1.2853 -0.4276  0.7156
 6843TIP3   OH242087   0.315   0.996   2.429  0.2604 -0.1213  0.4209
 6843TIP3    H142088   0.393   0.944   2.408  1.5152  2.2892 -1.4838
 6843TIP3    H242089   0.247   0.932   2.448  2.6890 -2.3595  2.3062
 6844TIP3   OH242090   3.953   1.599   0.857  0.0230  0.4966  0.1487
 6844TIP3    H142091   4.021   1.667   0.855  0.3266  0.1834 -0.8574
 6844TIP3    H242092   3.916   1.600   0.768  0.2052 -0.8252  0.0410
 6845TIP3   OH242093   4.882   2.570   2.279  0.3570  0.0544 -0.0477
 6845TIP3    H142094   4.859   2.498   2.338 -1.6645 -1.4023 -2.3999
 6845TIP3    H242095   4.884   2.530   2.192  0.8824  2.5369 -1.2754
 6846TIP3   OH242096   6.805   1.859   7.624  0.0121 -0.0332  0.0171
 6846TIP3    H142097   6.775   1.948   7.645  1.6302  0.4764  0.3527
 6846TIP3    H242098   6.732   1.819   7.578 -0.8593  1.3904  0.1034
 6847TIP3   OH242099   1.504   5.060   8.267 -0.3677 -0.0616 -0.1517
 6847TIP3    H142100   1.577   5.009   8.232  0.4307  0.2516  0.9805
 6847TIP3    H242101   1.446   4.995   8.307  0.9213 -0.1195  1.7795
 6848TIP3   OH242102   6.366   5.433   1.580  0.3594 -0.1508  0.0479
 6848TIP3    H142103   6.387   5.507   1.637  0.2392 -0.5409  0.6075
 6848TIP3    H242104   6.290   5.463   1.529  1.1986  0.6446 -0.7837
 6849TIP3   OH242105   3.278   3.111   7.678  0.3334  0.0407  0.2717
 6849TIP3    H142106   3.369   3.101   7.647  0.6385  0.5285  0.9989
 6849TIP3    H242107   3.226   3.063   7.613  0.6316  3.2536 -2.6464
 6850TIP3   OH242108   2.820   6.152   8.503  0.0895  0.7613  0.0512
 6850TIP3    H142109   2.811   6.097   8.426  2.0274 -0.6579  0.7603
 6850TIP3    H242110   2.824   6.091   8.576  3.2364  1.6717  0.7861
 6851TIP3   OH242111   0.987   6.805   0.104 -0.1244  0.0895  0.0137
 6851TIP3    H142112   0.965   6.712   0.106 -0.6808  0.1767 -1.1941
 6851TIP3    H242113   1.070   6.809   0.055 -0.9259  0.3475 -1.3802
 6852TIP3   OH242114   1.385   5.863   1.806 -0.3467  0.3591  0.3558
 6852TIP3    H142115   1.355   5.774   1.826  0.7884 -0.7183 -2.2148
 6852TIP3    H242116   1.309   5.918   1.822 -0.7734 -0.8492  3.0647
 6853TIP3   OH242117   4.878   1.716   0.777  0.8342  0.1653 -0.8596
 6853TIP3    H142118   4.944   1.780   0.803 -0.2008  0.9746 -0.1226
 6853TIP3    H242119   4.924   1.656   0.719  2.6248 -0.2269  0.8608
 6854TIP3   OH242120   0.467   3.620   6.842 -0.4591 -0.0142  0.0669
 6854TIP3    H142121   0.560   3.639   6.853 -0.4745  0.5715 -0.7742
 6854TIP3    H242122   0.462   3.575   6.758 -0.8442 -0.7534  0.4787
 6855TIP3   OH242123   5.771   5.682   1.914  0.5861  0.4746 -0.5522
 6855TIP3    H142124   5.780   5.741   1.989  2.5993  1.6107 -1.6005
 6855TIP3    H242125   5.738   5.600   1.951  0.4516  1.3655  1.3844
 6856TIP3   OH242126   1.481   0.459   8.707 -0.3061 -0.1733 -0.4978
 6856TIP3    H142127   1.453   0.477   8.796 -1.5346  0.4130 -0.9743
 6856TIP3    H242128   1.423   0.390   8.676  0.7203 -1.0339 -0.5509
 6857TIP3   OH242129   3.588   5.499   2.286  0.4443 -0.5481  0.6315
 6857TIP3    H142130   3.570   5.497   2.380  1.1688 -2.2334  0.7668
 6857TIP3    H242131   3.609   5.591   2.267 -0.6006 -0.0221  1.9245
 6858TIP3   OH242132   4.883   5.031   0.943  0.2095 -0.1934 -0.2308
 6858TIP3    H142133   4.793   5.001   0.948 -0.0093  0.6492  1.5209
 6858TIP3    H242134   4.932   4.955   0.910 -0.8344 -1.3417  0.7895
 6859TIP3   OH242135   2.090   1.329   0.414  0.4996 -0.3166 -0.1396
 6859TIP3    H142136   2.108   1.274   0.490 -1.2424 -0.1397  0.4423
 6859TIP3    H242137   2.056   1.410   0.451  1.6321  0.6155 -1.0539
 6860TIP3   OH242138   5.828   2.581   7.968  0.1301 -0.0543 -0.5426
 6860TIP3    H142139   5.906   2.634   7.954 -0.0944  0.8334  1.2673
 6860TIP3    H242140   5.776   2.631   8.030 -0.4975 -2.0130  0.5925
 6861TIP3   OH242141   6.487   6.359   1.575  0.0172  0.4711 -0.4006
 6861TIP3    H142142   6.527   6.307   1.644  0.9540 -0.2536 -1.4521
 6861TIP3    H242143   6.393   6.351   1.589  0.1827 -0.3182  0.3085
 6862TIP3   OH242144   4.304   0.531   1.927  0.1534 -0.5002 -0.1317
 6862TIP3    H142145   4.359   0.584   1.984  2.6024 -0.4171 -2.3933
 6862TIP3    H242146   4.230   0.589   1.905 -0.2171 -0.1272  1.8822
 6863TIP3   OH242147   1.683   5.452   8.159 -0.0557  0.2362 -0.1146
 6863TIP3    H142148   1.692   5.492   8.072 -0.3472  1.5431  0.4445
 6863TIP3    H242149   1.738   5.374   8.154  0.3496  0.5627 -1.3070
 6864TIP3   OH242150   2.171   2.864   0.173  0.0990 -0.1726 -0.0774
 6864TIP3    H142151   2.164   2.851   0.267 -0.8083 -1.4906 -0.2917
 6864TIP3    H242152   2.249   2.815   0.148 -0.1449 -0.5498 -0.1144
 6865TIP3   OH242153   3.659   1.694   2.270  0.0859  0.3410  0.1934
 6865TIP3    H142154   3.748   1.706   2.302 -0.4015  1.4268  1.2499
 6865TIP3    H242155   3.653   1.601   2.248  0.5363 -0.4876  3.1595
 6866TIP3   OH242156   5.373   5.155   8.414  0.0871 -0.4826  0.0382
 6866TIP3    H142157   5.342   5.129   8.328  0.1493  0.6133 -0.3336
 6866TIP3    H242158   5.309   5.221   8.443  1.1591  0.6229 -0.0451
 6867TIP3   OH242159   4.205   1.571   8.380  0.2509  0.8380  0.5628
 6867TIP3    H142160   4.284   1.580   8.327  0.9036 -0.0813  1.3596
 6867TIP3    H242161   4.226   1.616   8.462 -0.0124  0.5167  0.8099
 6868TIP3   OH242162   3.047   2.645   1.168 -0.1229  1.0101 -0.6230
 6868TIP3    H142163   2.986   2.649   1.094  0.0976 -0.4779 -0.9212
 6868TIP3    H242164   2.992   2.650   1.245 -0.7504 -1.0571 -0.8779
 6869TIP3   OH242165   0.153   3.759   7.542  0.3706  0.2680 -0.2358
 6869TIP3    H142166   0.205   3.678   7.543 -0.0396 -0.0214 -1.2143
 6869TIP3    H242167   0.194   3.813   7.474 -0.4575  0.1225 -0.8667
 6870TIP3   OH242168   6.820   0.116   7.856  0.4094 -0.6226 -0.0648
 6870TIP3    H142169   6.831   0.024   7.878  1.5617 -0.6301 -0.5854
 6870TIP3    H242170   6.900   0.139   7.810 -0.3599  0.3284 -0.9984
 6871TIP3   OH242171   5.459   1.785   0.252  0.3913  0.2522 -0.0147
 6871TIP3    H142172   5.365   1.766   0.258  0.1562  1.1203 -0.7279
 6871TIP3    H242173   5.501   1.699   0.260 -0.3941 -0.0258  1.4669
 6872TIP3   OH242174   2.218   2.124   7.023 -0.2651 -0.0134  0.0374
 6872TIP3    H142175   2.233   2.030   7.024 -3.1556 -0.6015  2.8990
 6872TIP3    H242176   2.306   2.163   7.028  0.9059 -2.6405  2.3171
 6873TIP3   OH242177   5.323   6.579   0.226 -0.3244  0.1552  0.5447
 6873TIP3    H142178   5.404   6.620   0.257  0.2641 -0.7501  0.2814
 6873TIP3    H242179   5.262   6.651   0.214 -0.2109  0.6537  2.6959
 6874TIP3   OH242180   1.019   2.216   6.643  0.3131 -0.0411 -0.0544
 6874TIP3    H142181   0.949   2.261   6.690 -1.2826 -0.0253 -2.2448
 6874TIP3    H242182   1.017   2.255   6.555  2.0194 -1.1796 -0.6481
 6875TIP3   OH242183   3.864   3.646   1.511 -0.8556  0.4211 -0.1795
 6875TIP3    H142184   3.903   3.731   1.531  0.7313 -0.5632  1.2010
 6875TIP3    H242185   3.897   3.588   1.580  1.1094 -2.1715 -3.0493
 6876TIP3   OH242186   0.422   3.840   1.553 -0.3261  0.3819 -0.0813
 6876TIP3    H142187   0.427   3.879   1.466  1.0231  0.0898 -0.1564
 6876TIP3    H242188   0.379   3.907   1.607 -0.2047  0.9921 -0.7271
 6877TIP3   OH242189   1.295   0.520   0.178 -0.2391  0.3563  0.3090
 6877TIP3    H142190   1.229   0.578   0.139  0.5932 -0.3845 -2.4077
 6877TIP3    H242191   1.363   0.579   0.210 -0.8357  0.9947  0.4339
 6878TIP3   OH242192   5.858   6.391   0.407 -0.0905 -0.2602  0.5190
 6878TIP3    H142193   5.922   6.327   0.437  1.5179  0.4412 -1.2304
 6878TIP3    H242194   5.796   6.339   0.355  0.6825 -0.5747 -0.1230
 6879TIP3   OH242195   3.527   0.636   8.208 -0.2998 -0.2648  0.0913
 6879TIP3    H142196   3.457   0.700   8.220 -0.6880 -0.0435 -2.7440
 6879TIP3    H242197   3.492   0.573   8.145  2.2687  0.2985 -2.0796
 6880TIP3   OH242198   3.029   6.409   1.074  0.4079 -0.1568  0.4073
 6880TIP3    H142199   2.935   6.394   1.079  0.5626 -2.0098 -1.0384
 6880TIP3    H242200   3.057   6.360   0.997  2.3684  1.4712 -0.0086
 6881TIP3   OH242201   4.272   2.842   1.751 -0.4007  0.3991 -0.1035
 6881TIP3    H142202   4.311   2.907   1.809 -3.0242  0.1616  2.1498
 6881TIP3    H242203   4.336   2.771   1.748  0.8416  1.4515  0.5499
 6882TIP3   OH242204   3.393   0.984   8.740  0.3891 -0.2499 -0.0292
 6882TIP3    H142205   3.441   0.944   8.813  2.2256 -1.0890 -1.5965
 6882TIP3    H242206   3.302   0.958   8.753  0.8090 -1.0460  1.5150
 6883TIP3   OH242207   0.629   5.224   7.612  0.6613 -0.2272 -0.0381
 6883TIP3    H142208   0.561   5.238   7.546  0.0909 -0.1519  0.5571
 6883TIP3    H242209   0.663   5.312   7.630 -0.0210 -0.0917  0.6401
 6884TIP3   OH242210   3.903   3.440   0.673 -0.1174  0.2598 -0.8980
 6884TIP3    H142211   3.847   3.430   0.595 -0.0667  0.6780 -0.9927
 6884TIP3    H242212   3.841   3.451   0.745 -0.1823 -1.0990 -0.7244
 6885TIP3   OH242213   0.948   0.303   7.455  0.3159 -0.2564 -0.0785
 6885TIP3    H142214   1.023   0.300   7.395  1.3004 -0.0393  1.0986
 6885TIP3    H242215   0.962   0.230   7.514  2.0930  2.2656  2.9464
 6886TIP3   OH242216   3.710   4.669   0.729  0.1011  0.0854 -0.5687
 6886TIP3    H142217   3.675   4.750   0.767  1.0150  0.5958 -0.7854
 6886TIP3    H242218   3.778   4.698   0.668  1.5740 -0.8770  0.5175
 6887TIP3   OH242219   3.809   2.381   0.037 -0.9811 -0.3082 -0.0998
 6887TIP3    H142220   3.752   2.328  -0.019  0.5587 -1.8507 -0.3075
 6887TIP3    H242221   3.878   2.321   0.064  0.5056  1.4388  0.2050
 6888TIP3   OH242222   4.772   5.002   6.925 -0.1215  0.0198  0.0977
 6888TIP3    H142223   4.862   5.015   6.952 -0.1812  0.1074  0.2547
 6888TIP3    H242224   4.721   5.065   6.976 -0.1623  0.6272 -0.6878
 6889TIP3   OH242225   4.164   3.796   0.301 -0.0558 -1.0062  0.1749
 6889TIP3    H142226   4.083   3.797   0.250  0.2264  0.9359 -0.2956
 6889TIP3    H242227   4.225   3.744   0.249 -0.4702 -0.9892 -0.3308
 6890TIP3   OH242228   6.604   0.346   7.213 -0.3890 -0.6435 -0.1906
 6890TIP3    H142229   6.622   0.322   7.122  1.1417  0.3185 -0.1725
 6890TIP3    H242230   6.511   0.372   7.213  0.0459  1.1368 -1.8984
 6891TIP3   OH242231   0.456   5.035   0.332  0.0154  0.0546  0.0612
 6891TIP3    H142232   0.378   5.021   0.279 -0.6618 -0.9183  1.2462
 6891TIP3    H242233   0.530   5.016   0.274 -0.5627  1.6536 -1.2816
 6892TIP3   OH242234   5.512   5.290   0.928  0.1101  0.1705 -0.5146
 6892TIP3    H142235   5.457   5.316   0.854  0.9575  2.7591 -0.3262
 6892TIP3    H242236   5.601   5.287   0.892  0.5300  1.4800  0.3476
 6893TIP3   OH242237   0.792   0.827   0.029 -0.6516  0.2329  0.4335
 6893TIP3    H142238   0.850   0.856   0.099 -0.9562  0.8188  0.4458
 6893TIP3    H242239   0.838   0.851  -0.052 -1.7695  2.6398  0.4149
 6894TIP3   OH242240   2.895   5.695   0.499  0.1262 -0.2668 -0.0127
 6894TIP3    H142241   2.938   5.688   0.585 -0.8682 -2.1568  0.3857
 6894TIP3    H242242   2.810   5.734   0.519 -0.2818 -1.1167 -0.0555
 6895TIP3   OH242243   1.015   5.825   8.619  0.6624 -1.0319  0.1909
 6895TIP3    H142244   1.032   5.913   8.586  0.8248 -1.5669 -1.2557
 6895TIP3    H242245   0.975   5.838   8.705  0.5444  0.4501 -0.0652
 6896TIP3   OH242246   6.429   6.717   2.036 -0.0845  0.1046  0.0792
 6896TIP3    H142247   6.475   6.662   2.099 -0.3036  0.1900  0.3165
 6896TIP3    H242248   6.383   6.655   1.979 -1.2301  0.0412  1.0230
 6897TIP3   OH242249   5.065   4.092   0.037 -0.2295 -0.3941 -0.0303
 6897TIP3    H142250   4.978   4.062   0.063 -0.6422  0.3231 -0.5484
 6897TIP3    H242251   5.067   4.080  -0.058  0.8656 -1.9714  0.1576
 6898TIP3   OH242252   1.628   4.726   0.806  0.0331  0.2036  1.1300
 6898TIP3    H142253   1.634   4.768   0.721 -2.1591 -1.3361  0.1248
 6898TIP3    H242254   1.717   4.730   0.841  0.6195  2.4954 -0.3726
 6899TIP3   OH242255   2.943   3.856   6.788 -0.3358 -0.6800 -0.0007
 6899TIP3    H142256   2.992   3.776   6.766 -0.6536 -0.8372 -0.1538
 6899TIP3    H242257   2.971   3.878   6.876  1.1616  0.1050 -0.6338
 6900TIP3   OH242258   1.289   3.881   7.472  0.6172 -0.6419 -0.0382
 6900TIP3    H142259   1.271   3.935   7.395  1.0248  2.2042  1.7170
 6900TIP3    H242260   1.361   3.824   7.444  0.7180  0.2674 -1.8015
 6901TIP3   OH242261   1.635   6.337   7.821 -0.4094 -0.4081 -0.1514
 6901TIP3    H142262   1.675   6.329   7.907  0.6395 -1.4278 -0.7012
 6901TIP3    H242263   1.601   6.426   7.818 -0.7417 -0.4578  1.4127
 6902TIP3   OH242264   6.158   1.681   8.440 -0.5048  0.1077 -0.1996
 6902TIP3    H142265   6.144   1.650   8.529  2.7330 -3.3730 -0.6340
 6902TIP3    H242266   6.100   1.628   8.386  0.4747 -0.7807 -0.4204
 6903TIP3   OH242267   2.625   6.177   6.735 -0.2633  0.6320  0.2650
 6903TIP3    H142268   2.598   6.166   6.644  1.8434  3.9864 -0.9652
 6903TIP3    H242269   2.561   6.237   6.772 -2.8686 -2.9291  2.1374
 6904TIP3   OH242270   3.608   6.457   1.287  0.4209  0.4872 -0.3899
 6904TIP3    H142271   3.538   6.411   1.240  0.8223  0.9415 -1.4527
 6904TIP3    H242272   3.685   6.403   1.275  0.2129 -0.1687  1.0388
 6905TIP3   OH242273   5.858   5.357   6.232  0.2104  0.0367 -0.1844
 6905TIP3    H142274   5.918   5.330   6.302 -1.3822 -0.3708  1.0766
 6905TIP3    H242275   5.844   5.450   6.247  2.0142  0.6049 -1.6835
 6906TIP3   OH242276   4.752   6.044   7.776  0.1400 -0.0997  0.0546
 6906TIP3    H142277   4.662   6.076   7.768  0.5537  1.1439  0.1206
 6906TIP3    H242278   4.749   5.980   7.847 -0.5858  0.3949  0.4840
 6907TIP3   OH242279   3.799   0.851   6.700  0.2806  0.2505 -0.4697
 6907TIP3    H142280   3.872   0.793   6.678  0.2091  0.4371 -1.2321
 6907TIP3    H242281   3.811   0.872   6.793  0.8745 -0.1714 -0.4514
 6908TIP3   OH242282   0.111   2.117   1.064 -0.6832  0.2352 -0.2117
 6908TIP3    H142283   0.182   2.065   1.026 -1.1533 -0.4235 -0.2106
 6908TIP3    H242284   0.146   2.150   1.146 -1.3105 -2.5734  1.3138
 6909TIP3   OH242285   3.458   5.660   1.474  0.4008 -0.3632  0.3559
 6909TIP3    H142286   3.469   5.701   1.560  0.5338  0.2458  0.0490
 6909TIP3    H242287   3.365   5.635   1.471 -0.0235  1.1661 -0.0002
 6910TIP3   OH242288   5.112   1.522   8.686 -0.4604 -0.3409 -0.3616
 6910TIP3    H142289   5.038   1.545   8.630 -1.0103 -1.0911  0.0336
 6910TIP3    H242290   5.177   1.486   8.626 -0.8004 -0.5691 -0.6003
 6911TIP3   OH242291   1.108   3.121   7.543 -0.2253  0.1342  0.0981
 6911TIP3    H142292   1.151   3.056   7.598 -0.0671  0.8992  0.8957
 6911TIP3    H242293   1.168   3.196   7.543 -0.9698  0.7445  0.1938
 6912TIP3   OH242294   1.766   0.971   6.233 -0.1476  0.1412  0.2893
 6912TIP3    H142295   1.743   1.007   6.318  0.8112 -0.5459  0.8583
 6912TIP3    H242296   1.862   0.974   6.231 -0.1727  0.8317 -1.0756
 6913TIP3   OH242297   6.328   5.900   8.107  0.6014 -0.6407 -0.1148
 6913TIP3    H142298   6.360   5.904   8.197 -0.6578  0.0328  0.3296
 6913TIP3    H242299   6.347   5.811   8.078  2.7147 -0.3241  0.1455
 6914TIP3   OH242300   4.620   1.091   6.806 -0.6190 -0.3730  0.0459
 6914TIP3    H142301   4.550   1.078   6.742 -1.7276 -0.2251  1.1771
 6914TIP3    H242302   4.582   1.151   6.870  0.9255  0.5528  0.1414
 6915TIP3   OH242303   4.842   0.651   1.373 -0.0185 -0.0348  1.0893
 6915TIP3    H142304   4.847   0.744   1.354  0.5694 -0.1542  0.6231
 6915TIP3    H242305   4.809   0.646   1.463 -0.5691  0.6012  0.9305
 6916TIP3   OH242306   3.039   4.001   0.733  0.1648 -0.0265  0.3737
 6916TIP3    H142307   3.087   3.959   0.804  1.2927  0.2812 -0.1719
 6916TIP3    H242308   2.962   4.039   0.774  1.4832  1.3588  1.7199
 6917TIP3   OH242309   5.154   5.771   7.240  0.0788  0.3586  0.2089
 6917TIP3    H142310   5.063   5.763   7.213  0.1113  0.7846 -0.0359
 6917TIP3    H242311   5.167   5.699   7.302 -0.1529 -0.2831 -0.4757
 6918TIP3   OH242312   6.359   0.375   1.339  0.1556 -0.5942 -0.3968
 6918TIP3    H142313   6.373   0.289   1.299 -0.6067 -1.0069  0.1982
 6918TIP3    H242314   6.277   0.366   1.388 -1.8133  1.4155 -2.9860
 6919TIP3   OH242315   6.016   3.001   6.865  0.1575  0.0415  0.2141
 6919TIP3    H142316   5.961   2.965   6.795  0.0837  1.4281 -0.4824
 6919TIP3    H242317   6.072   3.064   6.821 -2.2279  3.5951  1.7735
 6920TIP3   OH242318   5.735   5.191   8.202  0.1075 -0.1319 -0.3731
 6920TIP3    H142319   5.676   5.259   8.168  1.4276  0.6087 -1.2693
 6920TIP3    H242320   5.820   5.233   8.206  0.8310 -1.5515 -0.2975
 6921TIP3   OH242321   1.088   0.996   1.405  0.2791  0.4622  0.1507
 6921TIP3    H142322   1.151   1.048   1.356  0.8458 -1.1145 -0.8545
 6921TIP3    H242323   1.138   0.961   1.479 -0.0276  1.0882  0.6633
 6922TIP3   OH242324   1.287   6.200   0.216  0.2456  0.2399  0.2517
 6922TIP3    H142325   1.221   6.198   0.285 -0.0599 -1.6044 -0.0378
 6922TIP3    H242326   1.343   6.275   0.237 -0.8763  0.7561  1.4978
 6923TIP3   OH242327   6.803   6.614   1.426 -0.4771  0.1438  0.0587
 6923TIP3    H142328   6.822   6.705   1.402 -0.5492  0.4757  1.1882
 6923TIP3    H242329   6.880   6.565   1.398  0.0818  0.7493  0.4960
 6924TIP3   OH242330   0.398   4.987   1.213  0.0968 -0.4139  0.4217
 6924TIP3    H142331   0.310   4.984   1.174  0.5057 -0.1530 -0.5573
 6924TIP3    H242332   0.402   4.909   1.269 -0.0806 -1.5570 -1.0635
 6925TIP3   OH242333   3.520   6.260   0.236  0.0662 -0.1394 -0.4336
 6925TIP3    H142334   3.431   6.237   0.211 -0.7445 -1.5740  3.2759
 6925TIP3    H242335   3.513   6.350   0.268 -0.0655 -0.2724 -0.0863
 6926TIP3   OH242336   0.205   6.376   7.070 -0.1012 -0.0204 -0.2712
 6926TIP3    H142337   0.273   6.427   7.113 -1.1046  1.3742 -0.2582
 6926TIP3    H242338   0.239   6.361   6.981  0.9732 -0.9206  0.2675
 6927TIP3   OH242339   3.310   0.060   1.429  0.0260 -0.4812  0.0679
 6927TIP3    H142340   3.249   0.005   1.380  0.6072 -1.4020  0.3479
 6927TIP3    H242341   3.361   0.105   1.362  2.1156 -3.1603 -0.3044
 6928TIP3   OH242342   3.131   1.770   6.708 -0.5210 -0.0605 -0.1655
 6928TIP3    H142343   3.223   1.766   6.734 -0.4662 -1.3189 -0.5102
 6928TIP3    H242344   3.082   1.746   6.787 -0.6083  1.1748  0.1863
 6929TIP3   OH242345   2.858   3.366   6.338  0.0186  0.1343 -0.4318
 6929TIP3    H142346   2.915   3.294   6.363  1.2840  1.2812  0.0930
 6929TIP3    H242347   2.883   3.387   6.248  0.6573  0.8176 -0.1094
 6930TIP3   OH242348   0.832   5.879   7.787 -0.3056  0.0538 -0.4994
 6930TIP3    H142349   0.752   5.904   7.833 -0.8712 -3.3872  0.7111
 6930TIP3    H242350   0.801   5.842   7.704 -0.1917 -2.1724  0.3718
 6931TIP3   OH242351   2.408   4.371   1.223 -0.2275  0.2082 -0.4359
 6931TIP3    H142352   2.373   4.359   1.135  0.3397 -1.1174 -0.5086
 6931TIP3    H242353   2.454   4.289   1.242  0.1880  0.7097  0.8533
 6932TIP3   OH242354   2.387   6.008   7.411  0.2274  0.1222 -0.1164
 6932TIP3    H142355   2.471   6.019   7.456  0.7372 -0.8899 -0.7966
 6932TIP3    H242356   2.357   5.920   7.435 -0.1603  0.0961 -0.6679
 6933TIP3   OH242357   4.696   5.958   0.352 -0.3203 -0.5405 -0.1730
 6933TIP3    H142358   4.718   5.957   0.445 -0.1705  2.3244 -0.0982
 6933TIP3    H242359   4.772   5.999   0.310 -1.5020  0.7188 -1.1568
 6934TIP3   OH242360   4.131   1.308   0.639 -0.4463  0.0896 -0.4887
 6934TIP3    H142361   4.205   1.278   0.586  0.8809  1.9277  0.2103
 6934TIP3    H242362   4.154   1.284   0.729 -1.7193 -1.1711 -0.4547
 6935TIP3   OH242363   4.440   2.625   1.766 -0.7134  0.1154 -0.0954
 6935TIP3    H142364   4.455   2.593   1.676 -0.5587  0.4998 -0.2063
 6935TIP3    H242365   4.522   2.607   1.812  0.0453  2.0029 -0.6399
 6936TIP3   OH242366   5.324   4.037   8.588  0.0042 -0.2463 -0.1083
 6936TIP3    H142367   5.332   4.068   8.498 -1.6069 -0.0281 -0.2058
 6936TIP3    H242368   5.248   3.978   8.587  0.0391 -0.3437  1.0786
 6937TIP3   OH242369   1.705   5.177   0.060  0.2428 -0.2291  0.4822
 6937TIP3    H142370   1.616   5.143   0.067 -0.1811  0.9279  1.0382
 6937TIP3    H242371   1.760   5.099   0.052 -0.7915 -0.9735  0.3645
 6938TIP3   OH242372   0.653   0.133   0.652 -0.4203  0.0349 -0.3057
 6938TIP3    H142373   0.601   0.057   0.679  0.0828 -0.6267 -1.1226
 6938TIP3    H242374   0.743   0.101   0.653 -0.0983  0.9190  0.2797
 6939TIP3   OH242375   1.621   3.983   6.581  0.0623  1.2068  0.0516
 6939TIP3    H142376   1.544   3.934   6.611  1.3558  0.2772  2.0446
 6939TIP3    H242377   1.658   3.928   6.511  0.3300  0.3416  0.8472
 6940TIP3   OH242378   2.805   1.816   1.536  0.1154 -0.1186  0.3508
 6940TIP3    H142379   2.762   1.763   1.468 -1.0769 -2.7874  2.9376
 6940TIP3    H242380   2.736   1.870   1.572  0.0592 -0.7394  1.2079
 6941TIP3   OH242381   4.774   2.527   7.977  0.4078 -0.1196 -0.0126
 6941TIP3    H142382   4.797   2.564   8.062  1.5541 -1.7538  0.4257
 6941TIP3    H242383   4.684   2.558   7.962  1.2070  2.7154  0.3232
 6942TIP3   OH242384   3.068   4.672   2.658  0.6399  0.1406 -0.3667
 6942TIP3    H142385   3.127   4.599   2.637 -0.9503 -0.3919 -3.6292
 6942TIP3    H242386   2.980   4.635   2.656 -0.0651  1.5484  1.2259
 6943TIP3   OH242387   1.976   5.276   0.739  0.2838 -0.0602 -0.5343
 6943TIP3    H142388   2.026   5.228   0.805  1.2605  1.2747 -0.2461
 6943TIP3    H242389   2.041   5.303   0.674 -0.2136  0.8795 -0.6605
 6944TIP3   OH242390   3.512   3.224   7.061  0.2424  0.4136  0.0628
 6944TIP3    H142391   3.476   3.294   7.114  1.1229  1.5680 -0.8132
 6944TIP3    H242392   3.536   3.265   6.978  0.5625 -0.9685 -0.5721
 6945TIP3   OH242393   3.543   4.252   2.237 -0.2577 -0.2472  0.7395
 6945TIP3    H142394   3.542   4.342   2.205 -0.0396  0.0155  1.4685
 6945TIP3    H242395   3.454   4.220   2.221  0.4634 -1.0472 -2.6488
 6946TIP3   OH242396   3.271   3.804   7.741 -0.2864 -0.1155 -0.3082
 6946TIP3    H142397   3.278   3.898   7.727 -0.7339  0.1383  0.9602
 6946TIP3    H242398   3.360   3.770   7.727  0.3261  0.7982  1.0838
 6947TIP3   OH242399   6.109   4.389   7.603  0.0111 -0.0343 -0.0791
 6947TIP3    H142400   6.151   4.314   7.560 -0.8754 -0.5504 -0.0897
 6947TIP3    H242401   6.023   4.395   7.561 -0.0737  0.7482  0.1982
 6948TIP3   OH242402   0.699   4.262   0.953  0.1688 -0.4224 -0.1295
 6948TIP3    H142403   0.658   4.306   0.878  1.1938 -0.7247 -0.8849
 6948TIP3    H242404   0.645   4.184   0.967  0.5404 -0.8862 -1.1978
 6949TIP3   OH242405   3.796   5.242   0.917 -0.1025 -0.1795  0.0207
 6949TIP3    H142406   3.873   5.226   0.971 -0.8835  0.5832  1.4082
 6949TIP3    H242407   3.783   5.160   0.869  0.2774 -1.1225  1.4593
 6950TIP3   OH242408   6.496   1.171   1.802  0.0972  0.4207 -0.4512
 6950TIP3    H142409   6.561   1.166   1.732  0.0852  0.4718 -0.4664
 6950TIP3    H242410   6.444   1.091   1.793  1.4545 -0.6906  0.8380
 6951TIP3   OH242411   1.587   0.159   0.381  0.2619 -0.5567 -0.3348
 6951TIP3    H142412   1.532   0.199   0.314 -1.2380 -2.5892 -0.4390
 6951TIP3    H242413   1.653   0.110   0.332  0.6916 -0.0735 -0.2513
 6952TIP3   OH242414   3.503   2.012   1.590  0.1535  0.4391 -0.3110
 6952TIP3    H142415   3.486   2.035   1.682  2.6110  2.1360 -0.1772
 6952TIP3    H242416   3.463   2.083   1.540  0.6227  0.6399 -0.4063
 6953TIP3   OH242417   2.027   4.206   0.571 -0.0224 -0.0797 -0.2782
 6953TIP3    H142418   1.995   4.210   0.661 -0.1667  0.2025 -0.3421
 6953TIP3    H242419   1.992   4.123   0.538  2.7708 -1.9233  0.9568
 6954TIP3   OH242420   3.615   1.885   0.778  0.2407  0.2916 -0.2847
 6954TIP3    H142421   3.535   1.838   0.757 -0.0973  0.6461  0.1683
 6954TIP3    H242422   3.660   1.829   0.841  0.8138 -0.3456 -1.2414
 6955TIP3   OH242423   3.000   6.478   0.526  0.2902  0.7314  0.2430
 6955TIP3    H142424   2.998   6.569   0.555 -2.5204  1.5174 -1.9221
 6955TIP3    H242425   2.915   6.443   0.551  0.9045 -0.9926  0.0664
 6956TIP3   OH242426   1.705   3.606   0.170 -0.0317 -0.5885 -0.3656
 6956TIP3    H142427   1.626   3.658   0.183 -0.2113 -0.3439 -2.1889
 6956TIP3    H242428   1.685   3.521   0.209 -0.6227 -0.0781  0.4848
 6957TIP3   OH242429   0.468   1.684   7.269 -0.2635 -0.0328  0.1366
 6957TIP3    H142430   0.411   1.652   7.198 -1.9349  3.0861 -0.0941
 6957TIP3    H242431   0.549   1.634   7.258 -1.2248 -1.2364 -2.5863
 6958TIP3   OH242432   6.821   4.564   0.671  0.2419  0.4220 -0.5418
 6958TIP3    H142433   6.777   4.538   0.590  0.1698  0.2042 -0.4325
 6958TIP3    H242434   6.750   4.575   0.734  0.3022  0.5407 -0.4943
 6959TIP3   OH242435   4.004   3.978   7.583 -0.2177 -0.3071  0.4977
 6959TIP3    H142436   4.007   3.980   7.678 -1.5832  2.5168  0.5701
 6959TIP3    H242437   4.089   4.011   7.555 -1.0859  2.4762  0.8908
 6960TIP3   OH242438   3.099   1.880   7.953  0.3322  0.0238 -0.0138
 6960TIP3    H142439   3.123   1.805   7.899  0.5494  0.2360 -0.2146
 6960TIP3    H242440   3.177   1.898   8.005 -0.2781 -0.9696  1.3106
 6961TIP3   OH242441   1.091   2.323   1.695  0.4468  0.3067 -0.0913
 6961TIP3    H142442   1.108   2.234   1.724 -0.8332  0.2743  0.6507
 6961TIP3    H242443   1.172   2.371   1.717  0.8522 -0.4960  0.2207
 6962TIP3   OH242444   5.460   0.819   6.977  0.5225  0.4548 -0.3111
 6962TIP3    H142445   5.500   0.791   6.895  1.7036 -0.1680  0.4361
 6962TIP3    H242446   5.381   0.766   6.986  1.2003 -0.5855 -0.3144
 6963TIP3   OH242447   0.244   1.486   6.772 -0.7129  0.3318 -0.0399
 6963TIP3    H142448   0.163   1.537   6.777 -1.5328 -0.9152  0.0933
 6963TIP3    H242449   0.233   1.419   6.840  0.3304 -0.0130 -0.1942
 6964TIP3   OH242450   3.846   3.776   0.749 -0.3151  0.4887  0.1278
 6964TIP3    H142451   3.843   3.741   0.660  2.9096 -0.6778  0.3648
 6964TIP3    H242452   3.820   3.702   0.804 -0.0690  0.5267  0.2919
 6965TIP3   OH242453   6.717   5.353   7.546 -0.2341  0.0143  0.5382
 6965TIP3    H142454   6.752   5.441   7.535 -0.0350  0.0820  1.6004
 6965TIP3    H242455   6.623   5.363   7.537 -0.1671  0.2259  0.0377
 6966TIP3   OH242456   3.707   1.078   8.712 -0.8781  0.0664 -0.1232
 6966TIP3    H142457   3.749   1.023   8.778  0.5359 -0.7716 -1.6429
 6966TIP3    H242458   3.655   1.140   8.763  0.9089  0.0979  1.8306
 6967TIP3   OH242459   0.467   0.239   2.110 -0.1772  0.1246 -0.2473
 6967TIP3    H142460   0.415   0.318   2.096  0.3341  0.5381  0.1166
 6967TIP3    H242461   0.556   0.271   2.122 -0.1255 -0.4165  0.9907
 6968TIP3   OH242462   5.422   2.734   6.602 -0.3062 -0.4882 -0.2605
 6968TIP3    H142463   5.472   2.783   6.668 -1.4343  1.3244 -0.6847
 6968TIP3    H242464   5.450   2.772   6.519 -1.1663 -0.6028 -0.6077
 6969TIP3   OH242465   0.469   1.217   8.205 -0.3437  0.1516 -0.0214
 6969TIP3    H142466   0.480   1.280   8.277  1.7578  1.1535 -1.1295
 6969TIP3    H242467   0.375   1.202   8.201 -0.7390  1.8222  1.4752
 6970TIP3   OH242468   2.472   1.331   0.716  0.2580 -0.1196 -0.3023
 6970TIP3    H142469   2.453   1.412   0.764  1.4442  1.2944 -2.0522
 6970TIP3    H242470   2.492   1.267   0.784 -0.1765  1.2051  1.1381
 6971TIP3   OH242471   5.055   1.320   0.736 -0.4555  0.3362  0.1930
 6971TIP3    H142472   4.967   1.297   0.705 -0.5238  1.4951 -0.5325
 6971TIP3    H242473   5.061   1.280   0.823 -1.7296  0.2940  0.2805
 6972TIP3   OH242474   1.911   0.657   0.342  0.4556  0.5052  0.1897
 6972TIP3    H142475   1.878   0.679   0.429  0.0447  0.7612 -0.0262
 6972TIP3    H242476   2.005   0.675   0.346  0.5670 -0.1927  0.8030
 6973TIP3   OH242477   4.345   4.140   1.921 -0.1082  0.7062 -0.0510
 6973TIP3    H142478   4.275   4.172   1.864  0.1800  0.4429 -0.5559
 6973TIP3    H242479   4.309   4.061   1.960  1.1612 -1.5479 -3.0981
 6974TIP3   OH242480   6.004   5.731   1.068  0.2322  0.0367 -0.4532
 6974TIP3    H142481   6.026   5.741   1.161  0.6040  2.0176 -0.7174
 6974TIP3    H242482   6.078   5.768   1.021 -0.6907  0.6290 -1.4972
 6975TIP3   OH242483   2.019   4.531   7.439  0.2231  0.6868 -0.0780
 6975TIP3    H142484   2.047   4.485   7.360 -0.1074  0.1743  0.0982
 6975TIP3    H242485   1.930   4.561   7.418  0.9111  2.4339 -0.6926
 6976TIP3   OH242486   1.058   6.340   1.615 -0.2393  0.0817  0.3477
 6976TIP3    H142487   1.134   6.382   1.656  0.4781 -1.6929  0.9137
 6976TIP3    H242488   1.065   6.365   1.523  1.4972 -0.6567  0.2288
 6977TIP3   OH242489   4.796   0.218   1.222  0.0232  0.5187  0.6178
 6977TIP3    H142490   4.775   0.130   1.193  0.5586  0.6626 -0.2336
 6977TIP3    H242491   4.711   0.258   1.242 -0.1985 -0.3056  1.4035
 6978TIP3   OH242492   5.241   4.070   0.767 -0.0594 -0.0806 -0.3698
 6978TIP3    H142493   5.247   3.975   0.765  0.3974 -0.1021  0.7510
 6978TIP3    H242494   5.309   4.097   0.830  0.3657  1.0393 -1.2720
 6979TIP3   OH242495   5.946   5.310   1.070  0.0008  0.1835 -0.1599
 6979TIP3    H142496   5.885   5.262   1.126 -0.9080  0.8764 -0.5181
 6979TIP3    H242497   6.028   5.309   1.118 -0.3424 -0.5801  0.4485
 6980TIP3   OH242498   2.500   0.897   1.484  0.3435 -0.0993 -0.7559
 6980TIP3    H142499   2.552   0.935   1.555  0.5881 -1.7113 -0.0106
 6980TIP3    H242500   2.436   0.842   1.529 -0.5391  0.0862 -1.7488
 6981TIP3   OH242501   1.658   0.675   7.845  0.1251 -0.2237 -0.3563
 6981TIP3    H142502   1.751   0.680   7.822  0.4121 -1.9951  0.2558
 6981TIP3    H242503   1.623   0.605   7.789 -0.6897  0.0029 -0.1458
 6982TIP3   OH242504   5.773   5.075   7.140 -0.5942  0.1502 -0.1968
 6982TIP3    H142505   5.752   5.155   7.188  0.7231  1.3743 -1.5542
 6982TIP3    H242506   5.824   5.023   7.203  0.6360  1.4763 -0.0392
 6983TIP3   OH242507   5.849   5.639   8.049  0.2533 -0.1447  0.2065
 6983TIP3    H142508   5.832   5.553   8.087  2.2471 -0.5929  0.1847
 6983TIP3    H242509   5.888   5.690   8.120  1.4950 -0.1195 -0.4683
 6984TIP3   OH242510   6.053   6.585   0.306  0.3905 -0.2901  0.3354
 6984TIP3    H142511   6.117   6.603   0.374 -0.2755 -0.5510  1.0504
 6984TIP3    H242512   5.998   6.515   0.343 -1.5071  1.2378  0.5738
 6985TIP3   OH242513   6.815   4.649   1.930  0.0216  0.1918  0.8760
 6985TIP3    H142514   6.767   4.730   1.945 -0.5898 -0.1029  0.5565
 6985TIP3    H242515   6.878   4.670   1.861 -0.8987  0.1040 -0.0024
 6986TIP3   OH242516   4.690   6.173   7.433  0.1817  0.5167  0.0555
 6986TIP3    H142517   4.628   6.155   7.504  0.2521  1.5534  0.3954
 6986TIP3    H242518   4.692   6.092   7.382  0.2415 -0.3016  1.3123
 6987TIP3   OH242519   4.917   1.935   7.885 -0.2423  0.0971  0.1141
 6987TIP3    H142520   4.987   1.988   7.847 -0.2502 -1.0591 -1.6531
 6987TIP3    H242521   4.850   1.932   7.816  0.0607 -2.7467 -0.1690
 6988TIP3   OH242522   4.902   4.441   7.447 -0.0527  0.3581 -0.5428
 6988TIP3    H142523   4.935   4.354   7.470  1.8132  1.5615  1.7923
 6988TIP3    H242524   4.920   4.450   7.353  0.6501 -1.3662 -0.6031
 6989TIP3   OH242525   6.237   4.602   6.468  0.0491  0.3708 -0.0777
 6989TIP3    H142526   6.187   4.552   6.403  1.6746  0.4852 -1.5072
 6989TIP3    H242527   6.315   4.549   6.484  0.5953  1.2690  0.3067
 6990TIP3   OH242528   2.273   2.103   8.612  0.6103 -0.4831 -0.4846
 6990TIP3    H142529   2.193   2.108   8.560  0.8190  1.8369 -0.6786
 6990TIP3    H242530   2.314   2.021   8.584 -0.8589 -0.8832 -1.6140
 6991TIP3   OH242531   3.166   5.975   6.751 -0.2149  0.2729 -0.3782
 6991TIP3    H142532   3.072   5.996   6.750 -0.0161  1.1704 -0.9107
 6991TIP3    H242533   3.201   6.017   6.673  0.6445 -0.0328 -0.1674
 6992TIP3   OH242534   0.686   4.748   8.606 -0.5012  0.3168  0.4647
 6992TIP3    H142535   0.733   4.679   8.653 -0.4492  0.0082 -0.0373
 6992TIP3    H242536   0.597   4.744   8.641 -0.0827  1.1601  1.7017
 6993TIP3   OH242537   4.125   3.582   0.038 -0.1045 -0.2122 -1.0294
 6993TIP3    H142538   4.216   3.568   0.013 -0.0337 -1.1923 -0.2888
 6993TIP3    H242539   4.083   3.617  -0.041  1.4288  2.7455 -0.6615
 6994TIP3   OH242540   0.405   3.597   6.262 -0.6564  0.1170 -0.3794
 6994TIP3    H142541   0.429   3.542   6.188 -0.2686  1.2989 -1.1629
 6994TIP3    H242542   0.338   3.547   6.308  1.0251 -1.8787  0.0709
 6995TIP3   OH242543   0.089   6.059   2.255 -0.8117 -0.7398  0.5134
 6995TIP3    H142544   0.165   6.062   2.196 -0.9555  0.1802  0.3665
 6995TIP3    H242545   0.111   6.120   2.325 -0.1281 -2.6585  2.0874
 6996TIP3   OH242546   4.279   6.640   0.425  0.2045 -0.4186  0.6588
 6996TIP3    H142547   4.216   6.611   0.359 -0.0194  0.3112  0.5445
 6996TIP3    H242548   4.227   6.696   0.484  0.7751  0.3215  0.4682
 6997TIP3   OH242549   2.056   4.980   8.229 -0.3270 -0.2508 -0.0518
 6997TIP3    H142550   2.085   4.890   8.244  1.0630  0.1819 -0.0003
 6997TIP3    H242551   1.985   4.993   8.291  0.4025 -0.8623  0.9405
 6998TIP3   OH242552   3.753   5.959   0.687 -0.0430 -0.6848 -0.1281
 6998TIP3    H142553   3.658   5.970   0.675 -0.4403 -2.7107  0.6985
 6998TIP3    H242554   3.778   5.896   0.619  0.7019 -0.2606 -0.2557
 6999TIP3   OH242555   1.108   0.927   8.158  0.2372  0.1111  0.2664
 6999TIP3    H142556   1.202   0.916   8.169  0.2390 -2.2746 -1.4098
 6999TIP3    H242557   1.071   0.841   8.177 -1.6465  0.9824  0.8547
 7000TIP3   OH242558   3.950   5.139   8.352 -0.0285 -0.2193 -0.0807
 7000TIP3    H142559   3.916   5.064   8.401 -3.2449 -0.4856 -2.3644
 7000TIP3    H242560   3.873   5.196   8.339  1.9667  2.8240  0.3115
 7001TIP3   OH242561   0.419   2.327   6.107 -0.5042 -0.6339 -0.3106
 7001TIP3    H142562   0.392   2.299   6.194  0.7462 -1.5947 -0.2067
 7001TIP3    H242563   0.460   2.412   6.121  0.8759 -1.3647  0.2643
 7002TIP3   OH242564   3.892   2.670   7.346 -0.3415 -0.8498 -0.5080
 7002TIP3    H142565   3.898   2.686   7.440 -1.3280  0.0186 -0.5681
 7002TIP3    H242566   3.842   2.589   7.339 -0.3594 -0.8589 -0.2828
 7003TIP3   OH242567   2.501   6.815   7.086  0.2380  0.1978  0.3550
 7003TIP3    H142568   2.548   6.888   7.127  1.5306 -1.7730  2.5800
 7003TIP3    H242569   2.570   6.759   7.050 -0.7582  0.1928 -1.7395
 7004TIP3   OH242570   1.987   6.662   0.537 -0.2515 -0.1764 -0.4704
 7004TIP3    H142571   2.080   6.641   0.540 -0.0229  0.8811  1.0716
 7004TIP3    H242572   1.983   6.748   0.494 -0.4577 -0.0334 -0.1742
 7005TIP3   OH242573   3.072   0.570   0.475 -0.2912  0.7060  0.6525
 7005TIP3    H142574   3.061   0.476   0.466  1.1074  0.6994 -3.6227
 7005TIP3    H242575   2.986   0.603   0.499 -0.8923 -1.5723  1.8904
 7006TIP3   OH242576   4.963   4.069   1.045 -0.0898  0.4302  0.1576
 7006TIP3    H142577   5.043   4.017   1.042 -0.4966 -0.4252  2.2873
 7006TIP3    H242578   4.989   4.155   1.011  0.9340 -0.6798 -2.0995
 7007TIP3   OH242579   2.243   1.000   1.682  0.1138 -0.0565 -0.4317
 7007TIP3    H142580   2.164   0.968   1.638  0.5971 -0.2640 -1.1700
 7007TIP3    H242581   2.296   0.921   1.696  0.2960  0.1143 -0.1570
 7008TIP3   OH242582   2.409   1.904   6.892 -0.3753  0.2822  0.2547
 7008TIP3    H142583   2.318   1.901   6.924 -0.4257 -1.2623  0.0496
 7008TIP3    H242584   2.402   1.883   6.799  0.2643 -0.8913  0.4483
 7009TIP3   OH242585   3.915   2.283   6.943 -0.5788 -0.0278  0.4265
 7009TIP3    H142586   3.916   2.226   7.020 -0.1597 -1.1524 -0.3824
 7009TIP3    H242587   3.998   2.264   6.898 -1.2597 -0.1337 -0.8199
 7010TIP3   OH242588   1.540   5.179   7.990  0.2322  0.2693  0.0446
 7010TIP3    H142589   1.567   5.097   7.947  0.4346  0.3874 -0.0551
 7010TIP3    H242590   1.565   5.168   8.081 -1.5872 -0.6127  0.4761
 7011TIP3   OH242591   3.626   6.429   1.780 -0.4885 -0.4778  0.1850
 7011TIP3    H142592   3.717   6.459   1.788 -0.1683 -1.2212 -0.5455
 7011TIP3    H242593   3.596   6.467   1.697 -1.1887  0.5920  0.8943
 7012TIP3   OH242594   0.863   2.862   1.956 -0.3021 -0.3788  0.6741
 7012TIP3    H142595   0.951   2.897   1.967 -0.7892  0.5669  1.8801
 7012TIP3    H242596   0.865   2.778   2.001  0.0745 -0.5235  0.3913
 7013TIP3   OH242597   5.894   4.377   0.785 -0.0021 -0.2107  0.1724
 7013TIP3    H142598   5.825   4.330   0.738 -0.5158  1.1327 -0.4416
 7013TIP3    H242599   5.861   4.382   0.875 -1.0208  0.9187 -0.2247
 7014TIP3   OH242600   5.379   3.888   8.047  0.5973  0.0564  0.4806
 7014TIP3    H142601   5.392   3.794   8.038  0.0542 -0.0520  0.8118
 7014TIP3    H242602   5.318   3.897   8.120 -2.4955  0.4351 -1.9263
 7015TIP3   OH242603   4.654   2.430   8.325  0.1189  0.3195 -0.3304
 7015TIP3    H142604   4.725   2.492   8.342 -1.1901  1.3361  1.8397
 7015TIP3    H242605   4.597   2.475   8.262  1.8500 -0.9720 -3.0320
 7016TIP3   OH242606   3.849   3.093   1.040  0.1142 -0.6958 -0.0268
 7016TIP3    H142607   3.887   3.101   0.953  1.1903  0.9888  0.5641
 7016TIP3    H242608   3.840   3.183   1.071 -0.4376 -1.2558  1.5283
 7017TIP3   OH242609   6.142   2.295   1.529 -0.1854  0.0968  0.5704
 7017TIP3    H142610   6.131   2.390   1.522 -3.4518 -0.1113  1.3423
 7017TIP3    H242611   6.079   2.269   1.597 -0.2773 -2.7579 -0.5043
 7018TIP3   OH242612   0.325   4.662   7.976  0.3423  0.7345  0.0458
 7018TIP3    H142613   0.235   4.629   7.975  1.1657 -1.6994 -0.9457
 7018TIP3    H242614   0.344   4.676   8.069 -0.1664 -1.5706  0.5723
 7019TIP3   OH242615   6.217   1.172   0.250  0.5455  0.0201  0.3594
 7019TIP3    H142616   6.163   1.250   0.257  0.2381 -0.0756 -0.7760
 7019TIP3    H242617   6.280   1.192   0.181 -0.1110 -1.0429 -0.5890
 7020TIP3   OH242618   0.870   0.055   0.871  0.2024 -0.4959  0.4157
 7020TIP3    H142619   0.927   0.076   0.797 -0.8523  0.4343 -0.1756
 7020TIP3    H242620   0.854  -0.039   0.864  0.9366 -0.6009  0.0713
 7021TIP3   OH242621   4.796   5.594   8.120 -0.0786 -0.5617 -0.3835
 7021TIP3    H142622   4.712   5.634   8.140 -0.1365 -1.3920  1.2533
 7021TIP3    H242623   4.775   5.507   8.087  0.1252 -0.6894 -0.1830
 7022TIP3   OH242624   6.734   2.265   0.563 -0.4565 -0.6444 -0.0685
 7022TIP3    H142625   6.786   2.238   0.487 -1.2378  0.0175 -0.8515
 7022TIP3    H242626   6.783   2.338   0.600  0.1694 -1.2665  0.3562
 7023TIP3   OH242627   1.659   3.753   6.439 -0.1459 -0.4752 -0.1701
 7023TIP3    H142628   1.695   3.692   6.375  0.5230 -1.5489  1.1904
 7023TIP3    H242629   1.634   3.698   6.513 -2.1480  0.5683  0.0071
 7024TIP3   OH242630   0.871   5.088   8.105  0.5910  0.0090  0.1996
 7024TIP3    H142631   0.784   5.048   8.112  0.1303  1.1825  2.3192
 7024TIP3    H242632   0.857   5.166   8.052 -0.5243  2.0926  3.3032
 7025TIP3   OH242633   3.396   0.110   8.077 -0.3023 -0.0467  0.1140
 7025TIP3    H142634   3.415   0.093   7.985  1.2721  0.4560  0.3259
 7025TIP3    H242635   3.466   0.065   8.125 -1.4168 -0.7868  1.1079
 7026TIP3   OH242636   4.880   0.034   8.472  0.0169  0.0104  0.5072
 7026TIP3    H142637   4.918   0.074   8.393  1.3992 -1.0417  0.6151
 7026TIP3    H242638   4.858  -0.055   8.445  1.8896 -0.8483  1.6877
 7027TIP3   OH242639   2.856   2.472   0.218  0.3484  0.2939 -0.1218
 7027TIP3    H142640   2.812   2.460   0.303  0.7838 -0.2075  0.0361
 7027TIP3    H242641   2.943   2.505   0.242 -0.1633  1.9956 -0.4592
 7028TIP3   OH242642   0.669   1.828   2.397 -0.0731  0.2516 -0.2717
 7028TIP3    H142643   0.671   1.881   2.317 -0.9577 -0.2767 -0.6542
 7028TIP3    H242644   0.753   1.845   2.439 -0.7003  2.7364  0.1339
 7029TIP3   OH242645   4.160   0.611   7.405 -0.1499 -0.5436  0.0502
 7029TIP3    H142646   4.128   0.529   7.369 -1.0361  0.1859 -0.9164
 7029TIP3    H242647   4.251   0.594   7.429  0.0555 -1.4680 -1.2941
 7030TIP3   OH242648   1.342   0.630   1.482 -0.6658  0.5685 -0.0431
 7030TIP3    H142649   1.385   0.571   1.420 -0.7085 -0.1835  0.6276
 7030TIP3    H242650   1.249   0.608   1.476 -0.5555 -0.2943  1.0762
 7031TIP3   OH242651   4.170   3.904   6.947  0.1904 -0.0586 -0.1651
 7031TIP3    H142652   4.183   3.907   7.042 -0.1275  0.1855 -0.1281
 7031TIP3    H242653   4.242   3.958   6.913  1.9117 -2.2727 -0.2431
 7032TIP3   OH242654   0.879   0.218   7.965  0.4210  0.3916  1.0205
 7032TIP3    H142655   0.812   0.282   7.986  1.2586  1.5380  0.3414
 7032TIP3    H242656   0.854   0.184   7.879 -0.1871 -0.4352  1.5146
 7033TIP3   OH242657   5.831   4.935   2.028  0.2042  0.4817 -0.2018
 7033TIP3    H142658   5.862   4.846   2.042  2.5706  1.4837  1.5461
 7033TIP3    H242659   5.847   4.980   2.111  0.0862  2.7979 -1.3405
 7034TIP3   OH242660   6.096   2.588   1.482  0.4055  0.0073  0.2689
 7034TIP3    H142661   6.084   2.594   1.387 -0.4020  1.7451  0.4413
 7034TIP3    H242662   6.059   2.669   1.516 -0.3932 -1.0835  2.1919
 7035TIP3   OH242663   4.219   1.668   7.647  0.3159 -0.3378  0.3437
 7035TIP3    H142664   4.303   1.696   7.684  1.0464 -0.5119 -1.1207
 7035TIP3    H242665   4.166   1.748   7.644  1.8727  0.7131 -2.4383
 7036TIP3   OH242666   1.570   4.494   2.142 -0.3320 -0.5134 -0.2088
 7036TIP3    H142667   1.549   4.511   2.051  0.2788  1.8036  0.0262
 7036TIP3    H242668   1.486   4.475   2.184 -0.5953 -1.7877 -1.2354
 7037TIP3   OH242669   1.670   0.308   6.544  0.2190 -0.3286  0.0035
 7037TIP3    H142670   1.621   0.300   6.462 -0.0564 -0.3969  0.1721
 7037TIP3    H242671   1.636   0.387   6.585  0.3598 -0.2923  0.0499
 7038TIP3   OH242672   5.013   4.600   1.017 -0.5266 -0.1032 -0.2160
 7038TIP3    H142673   4.988   4.663   0.950 -1.8377 -2.0887 -1.7036
 7038TIP3    H242674   5.097   4.633   1.051 -1.6336  2.9300 -0.1634
 7039TIP3   OH242675   1.151   6.449   0.028  0.0124  0.5163  0.3642
 7039TIP3    H142676   1.101   6.508  -0.028 -0.2421  1.7188  1.7857
 7039TIP3    H242677   1.090   6.379   0.051  0.1186  0.0161 -0.8172
 7040TIP3   OH242678   3.631   2.012   0.533  0.0401 -0.0210 -0.4681
 7040TIP3    H142679   3.639   1.966   0.617  2.9664 -1.1671 -1.2554
 7040TIP3    H242680   3.633   2.104   0.557 -1.0040 -0.2854  0.8103
 7041TIP3   OH242681   2.267   0.074   8.497 -0.1694  0.4176  0.0404
 7041TIP3    H142682   2.331   0.095   8.564 -0.7544  1.1585  0.3830
 7041TIP3    H242683   2.251  -0.020   8.507  1.2810  0.1003 -0.4423
 7042TIP3   OH242684   2.822   4.473   8.422  0.0332  0.3896  0.6091
 7042TIP3    H142685   2.879   4.534   8.469  0.7000  2.3475 -2.4639
 7042TIP3    H242686   2.881   4.413   8.377 -0.0810  2.6448 -2.8784
 7043TIP3   OH242687   4.988   3.032   8.571  0.6657 -0.4995  0.4389
 7043TIP3    H142688   4.903   3.004   8.605  0.1100  0.4810 -0.0868
 7043TIP3    H242689   4.969   3.064   8.483  1.7156 -0.9638  0.0244
 7044TIP3   OH242690   0.014   2.714   0.924 -0.1150  0.3039 -0.3361
 7044TIP3    H142691   0.109   2.727   0.920 -0.0191 -0.5235 -1.0045
 7044TIP3    H242692   0.000   2.656   0.999  0.1994 -1.8234 -1.8461
 7045TIP3   OH242693   1.018   0.271   8.551 -0.5488  0.0476  0.2493
 7045TIP3    H142694   1.009   0.364   8.535 -2.0287 -0.1073  0.0665
 7045TIP3    H242695   0.955   0.251   8.621 -1.5383 -1.1005 -0.9159
 7046TIP3   OH242696   6.629   6.744   2.506  0.6840  0.6619 -0.0255
 7046TIP3    H142697   6.577   6.815   2.467 -0.0002 -0.1902 -0.7074
 7046TIP3    H242698   6.594   6.665   2.466  1.6274 -0.0432  0.5248
 7047TIP3   OH242699   2.177   0.651   1.276 -0.3146 -0.1693 -0.2776
 7047TIP3    H142700   2.175   0.744   1.300 -0.0834 -0.2699  0.1476
 7047TIP3    H242701   2.180   0.605   1.360  0.5204 -0.5335 -0.4936
 7048TIP3   OH242702   4.164   0.183   0.756  0.2979  0.4844  0.2104
 7048TIP3    H142703   4.171   0.157   0.664 -1.6818 -1.6650  0.5678
 7048TIP3    H242704   4.071   0.171   0.777  0.8702 -0.0890  2.7219
 7049TIP3   OH242705   6.711   2.708   6.973  0.4332  0.0696 -0.0196
 7049TIP3    H142706   6.659   2.637   7.011 -2.1951  1.9429  0.2423
 7049TIP3    H242707   6.781   2.724   7.036  0.4775 -1.6112  0.3858
 7050TIP3   OH242708   4.349   5.428   1.889 -0.5009 -0.2607 -0.2396
 7050TIP3    H142709   4.402   5.507   1.899 -0.6669 -0.2114  0.2872
 7050TIP3    H242710   4.322   5.406   1.978 -0.3405 -0.9954 -0.3693
 7051TIP3   OH242711   1.182   4.427   1.447  0.2063 -0.2600  0.4449
 7051TIP3    H142712   1.227   4.470   1.520  0.9272 -0.0358 -0.1193
 7051TIP3    H242713   1.161   4.498   1.386 -0.6093 -0.4127  0.5322
 7052TIP3   OH242714   1.327   5.120   8.591 -0.6381 -0.3582 -0.3496
 7052TIP3    H142715   1.388   5.186   8.559 -2.6774  1.2429 -1.1082
 7052TIP3    H242716   1.252   5.169   8.625 -0.7067 -2.1548  2.5089
 7053TIP3   OH242717   3.252   4.871   6.017  0.1642  0.6340  0.2110
 7053TIP3    H142718   3.200   4.795   6.043 -0.3947  0.9525  0.0538
 7053TIP3    H242719   3.192   4.945   6.028  0.5291  0.9855 -0.1423
 7054TIP3   OH242720   0.855   1.089   6.711 -0.0802 -0.7838 -0.5549
 7054TIP3    H142721   0.846   1.019   6.646 -1.5624 -0.8520 -0.3183
 7054TIP3    H242722   0.799   1.159   6.679 -0.5490 -0.6780  0.4536
 7055TIP3   OH242723   6.031   1.542   1.218 -0.2872  0.0440 -0.3999
 7055TIP3    H142724   5.955   1.543   1.160 -0.7260  0.6198  0.1746
 7055TIP3    H242725   6.073   1.457   1.201 -0.0814  0.4231 -1.9525
 7056TIP3   OH242726   5.131   2.351   1.589  0.1848 -0.7356 -0.6219
 7056TIP3    H142727   5.155   2.267   1.551  0.8646 -1.7769  1.8753
 7056TIP3    H242728   5.071   2.328   1.661  1.0643  0.8127  0.6701
 7057TIP3   OH242729   2.777   3.995   8.022  0.0280  0.1881  0.3995
 7057TIP3    H142730   2.791   4.087   8.000  1.4907  0.1186  0.9050
 7057TIP3    H242731   2.745   3.996   8.112 -0.9500  0.2347  0.0617
 7058TIP3   OH242732   0.569   5.488   1.396  0.3998 -0.3581  0.2899
 7058TIP3    H142733   0.521   5.408   1.417  0.3995 -0.1425  1.1778
 7058TIP3    H242734   0.507   5.543   1.348  0.5811 -1.1085 -0.8441
 7059TIP3   OH242735   3.954   4.074   6.984 -0.0701  0.3740 -0.3558
 7059TIP3    H142736   3.990   4.146   7.035 -1.5407  0.0885  1.1769
 7059TIP3    H242737   4.023   4.008   6.983  0.5928  1.0487 -0.1531
 7060TIP3   OH242738   1.102   4.677   1.383 -0.0275  0.4270 -0.2675
 7060TIP3    H142739   1.032   4.703   1.322 -0.9633  1.8886  1.3336
 7060TIP3    H242740   1.090   4.735   1.458  0.7204 -1.7178  1.5763
 7061TIP3   OH242741   6.257   6.671   0.469  0.0861  0.0125  0.3740
 7061TIP3    H142742   6.197   6.671   0.543  0.7518 -1.1516  0.9417
 7061TIP3    H242743   6.343   6.687   0.509  0.3340  0.2932 -0.2629
 7062TIP3   OH242744   5.172   6.379   7.410 -0.4386  0.2200 -0.2399
 7062TIP3    H142745   5.156   6.413   7.322  0.4468 -1.3257 -1.0349
 7062TIP3    H242746   5.088   6.341   7.437 -0.4569 -0.1313 -0.7935
 7063TIP3   OH242747   2.737   6.553   1.460  0.3960 -0.2215  0.5329
 7063TIP3    H142748   2.788   6.552   1.541  0.0724  0.0257  0.7423
 7063TIP3    H242749   2.717   6.646   1.445  2.4515  0.0356 -1.1001
 7064TIP3   OH242750   1.654   5.593   7.241  0.5976  0.1459 -0.1827
 7064TIP3    H142751   1.703   5.581   7.322  1.1012 -2.1051 -0.7516
 7064TIP3    H242752   1.695   5.533   7.179 -1.7465 -0.5622 -1.1756
 7065TIP3   OH242753   2.236   6.059   1.414  0.3478  0.3155 -0.1273
 7065TIP3    H142754   2.194   6.048   1.329  2.1137  0.6061 -1.0943
 7065TIP3    H242755   2.248   5.970   1.447  1.2166  0.0901 -1.0095
 7066TIP3   OH242756   2.804   1.110   0.646 -0.3112  0.4989  0.3830
 7066TIP3    H142757   2.732   1.076   0.593  0.8191 -0.3901 -0.6251
 7066TIP3    H242758   2.882   1.092   0.595  0.6302  1.6352  1.3664
 7067TIP3   OH242759   1.059   1.564   7.396 -0.7715  0.5256 -0.3083
 7067TIP3    H142760   1.025   1.514   7.471  1.4852 -1.4555 -0.4807
 7067TIP3    H242761   1.153   1.548   7.398 -0.2472  2.9911 -1.7943
 7068TIP3   OH242762   5.205   1.042   0.628  0.2670  0.0058 -0.0192
 7068TIP3    H142763   5.261   1.087   0.564 -0.0548 -0.3093 -0.5289
 7068TIP3    H242764   5.249   1.056   0.712 -0.0005  1.5618 -0.1006
 7069TIP3   OH242765   4.012   3.450   7.001 -0.1436 -0.2248  0.0626
 7069TIP3    H142766   3.965   3.508   7.061 -0.8585 -1.0871  0.3583
 7069TIP3    H242767   4.103   3.477   7.008 -0.3790  0.4225  0.7025
 7070TIP3   OH242768   1.104   0.254   0.461 -0.0787 -0.3716 -0.3060
 7070TIP3    H142769   1.186   0.302   0.475 -0.2607 -0.1693  0.0791
 7070TIP3    H242770   1.130   0.176   0.412  0.1972  0.1982 -1.0880
 7071TIP3   OH242771   4.980   5.255   0.128 -0.3411  0.2609  0.4686
 7071TIP3    H142772   4.974   5.345   0.095  1.9965  0.1122 -0.5893
 7071TIP3    H242773   5.030   5.262   0.208  1.4669 -0.2253 -0.5655
 7072LIG      O42774   5.279   5.014   6.044 -0.0814 -0.3503 -0.3731
 7072LIG     C142775   5.298   4.984   5.903  0.2864 -0.4459 -0.7817
 7072LIG     C242776   5.448   4.954   5.884  0.0417  0.0049 -0.3857
 7072LIG     C342777   5.194   4.878   5.858  0.0946  0.1602  0.7032
 7072LIG     H142778   5.282   5.073   5.839  0.0834 -1.3740 -2.0700
 7072LIG     H242779   5.475   4.969   5.777 -2.3471 -1.0188 -1.2138
 7072LIG     H342780   5.476   4.850   5.911  2.8048  0.1819 -2.1797
 7072LIG     H442781   5.494   5.032   5.948 -2.8477  1.4679  0.0914
 7072LIG     H542782   5.236   4.834   5.765 -2.0808 -0.5950  0.0115
 7072LIG     H642783   5.092   4.917   5.836 -0.9339 -1.9384  1.4766
 7072LIG     H742784   5.176   4.802   5.936 -1.4868 -0.1170  0.0952
 7072LIG     H842785   5.320   5.099   6.064  1.8520 -1.6252  1.6055
   6.83186   6.83186   8.74984
