Title
42785
    1SAPS     N    1   6.918   3.399   6.227  0.1019  0.1549 -0.4680
    1SAPS   HN1    2   6.905   3.297   6.243 -0.2193  0.2648 -0.0078
    1SAPS   HN2    3   6.829   3.433   6.186 -0.5901 -2.0630 -0.9227
    1SAPS   HN3    4   6.995   3.408   6.157 -0.1844  0.7706 -0.7110
    1SAPS   C12    5   6.958   3.459   6.359 -0.5610 -0.0968  0.4387
    1SAPS  H12A    6   6.960   3.567   6.355  0.1846 -0.0212  1.9672
    1SAPS   C13    7   6.855   3.434   6.466 -0.0965  0.1491  0.7773
    1SAPS  O13A    8   6.762   3.353   6.451  0.0836 -0.1537  0.5261
    1SAPS  O13B    9   6.882   3.478   6.577  0.3229 -0.0555 -0.1347
    1SAPS   C11   10   7.100   3.400   6.404  0.4065 -0.3287 -0.0853
    1SAPS  H11A   11   7.105   3.290   6.385  1.2028  0.0809 -2.6265
    1SAPS  H11B   12   7.110   3.425   6.512 -0.1885 -0.0515 -0.0939
    1SAPS     P   13   7.354   3.449   6.388 -0.0204 -0.1696  0.0549
    1SAPS   O13   14   7.375   3.588   6.444 -0.1222  0.2987 -0.6819
    1SAPS   O14   15   7.362   3.337   6.489 -0.3360  0.3194  0.1080
    1SAPS   O12   16   7.206   3.455   6.325 -0.1392  0.2661 -0.2706
    1SAPS   O11   17   7.450   3.423   6.274 -0.2533  0.3410  0.3163
    1SAPS    C1   18   7.474   3.494   6.160 -0.5281  1.1828  0.1487
    1SAPS    HA   19   7.488   3.601   6.185  0.3338  1.3644 -1.0649
    1SAPS    HB   20   7.573   3.465   6.120 -1.5269  0.8965 -2.2820
    1SAPS    C2   21   7.364   3.462   6.060 -0.4223 -0.5361 -0.2187
    1SAPS    HS   22   7.271   3.501   6.108 -0.7020 -1.1308 -0.2740
    1SAPS   O21   23   7.341   3.320   6.047  0.3763  0.1352  0.3058
    1SAPS   C21   24   7.205   3.288   6.026  0.3535 -0.3375  0.7173
    1SAPS   O22   25   7.113   3.373   6.037  0.1622  0.5894  0.0745
    1SAPS   C22   26   7.197   3.139   6.013  0.2259  0.7222  0.5458
    1SAPS   H2R   27   7.281   3.091   6.068  0.3452  0.3960  0.0866
    1SAPS   H2S   28   7.110   3.106   6.073  1.0326 -1.4819  0.5762
    1SAPS    C3   29   7.386   3.518   5.919 -0.2691  0.0710  0.1976
    1SAPS    HX   30   7.472   3.466   5.871 -0.8450  0.0630 -0.8575
    1SAPS    HY   31   7.421   3.621   5.941 -0.6901 -0.4251  3.9469
    1SAPS   O31   32   7.270   3.507   5.831  0.2705  0.0193 -0.7433
    1SAPS   C31   33   7.172   3.599   5.836 -0.7450 -0.2009  0.2118
    1SAPS   O32   34   7.164   3.687   5.921  0.1637  0.3316 -0.7823
    1SAPS   C32   35   7.074   3.581   5.724  0.2568  0.8058  0.6851
    1SAPS   H2X   36   7.125   3.547   5.631 -0.0572 -0.2962  0.9017
    1SAPS   H2Y   37   7.040   3.686   5.709 -0.0743  0.5072 -0.8170
    1SAPS   C23   38   7.180   3.077   5.870 -0.9704  0.4038 -0.2934
    1SAPS   H3R   39   7.115   3.133   5.801 -3.0818 -0.0807  1.1854
    1SAPS   H3S   40   7.141   2.974   5.882 -1.3570  0.6838  1.0583
    1SAPS   C24   41   7.316   3.060   5.802 -0.3486 -0.2509  0.6401
    1SAPS   H4R   42   7.300   2.976   5.731  0.1808  0.3657 -0.2354
    1SAPS   H4S   43   7.386   3.019   5.877 -1.0110 -2.0308  0.3441
    1SAPS   C25   44   7.368   3.183   5.724 -0.0933 -0.2921 -0.4120
    1SAPS   H5R   45   7.432   3.252   5.782 -0.5219  0.0428 -0.3352
    1SAPS   C26   46   7.322   3.221   5.611  0.0608  1.1164  0.6317
    1SAPS   H6R   47   7.345   3.317   5.564 -1.2946  0.7433 -0.8725
    1SAPS   C27   48   7.235   3.148   5.514  0.6143  0.4529  0.1358
    1SAPS   H7R   49   7.240   3.037   5.520  1.6113  0.5182  0.7543
    1SAPS   H7S   50   7.274   3.176   5.414  0.8467 -0.0929  0.0718
    1SAPS   C28   51   7.089   3.172   5.523  0.0544  0.7691  0.0953
    1SAPS   H8R   52   7.054   3.165   5.627 -1.0371 -0.2833 -0.3242
    1SAPS   C29   53   7.001   3.178   5.421  0.5561 -0.5932  0.4127
    1SAPS   H9R   54   6.899   3.204   5.453  0.7523  0.1888  0.4268
    1SAPS  C210   55   7.031   3.164   5.274 -0.2523  0.7628 -0.4310
    1SAPS  H10R   56   7.068   3.059   5.269  0.2393  0.8679  0.6908
    1SAPS  H10S   57   7.127   3.212   5.247  0.1472  0.1108 -0.2135
    1SAPS  C211   58   6.928   3.193   5.171 -0.0656 -0.7240 -0.3955
    1SAPS  H11R   59   6.895   3.298   5.177 -0.5613 -0.8597 -0.7048
    1SAPS  C212   60   6.861   3.118   5.084 -0.1274  1.2861  0.0312
    1SAPS  H12R   61   6.794   3.166   5.011 -0.9811  2.1025  1.3109
    1SAPS  C213   62   6.872   2.964   5.069 -0.1998 -0.0142 -0.4141
    1SAPS  H13R   63   6.800   2.910   5.135 -1.8390  1.8669 -0.5421
    1SAPS  H13S   64   6.970   2.928   5.105  0.3016  3.7911  2.6595
    1SAPS  C214   65   6.853   2.925   4.927 -0.4342 -0.2860  0.7647
    1SAPS  H14R   66   6.763   2.865   4.910 -0.6001  0.1880 -0.1076
    1SAPS  C215   67   6.939   2.937   4.822  0.3523  1.1282 -0.1898
    1SAPS  H15R   68   6.907   2.907   4.722  0.0624  1.0716 -0.0802
    1SAPS  C216   69   7.080   2.983   4.835  0.4183 -0.5978  0.1542
    1SAPS  H16R   70   7.153   2.900   4.824  0.6191 -0.4127  0.0817
    1SAPS  H16S   71   7.087   3.032   4.934 -0.1290 -1.5847  0.6973
    1SAPS  C217   72   7.121   3.083   4.721  0.3375  0.2461  0.0881
    1SAPS  H17R   73   7.106   3.031   4.624  0.7890 -1.6358  0.9957
    1SAPS  H17S   74   7.226   3.110   4.743  1.2575 -0.8182 -2.5845
    1SAPS  C218   75   7.037   3.210   4.718 -0.3981 -0.1729 -0.3029
    1SAPS  H18R   76   7.011   3.244   4.821  0.6510  1.6962 -0.6091
    1SAPS  H18S   77   6.941   3.169   4.680 -0.8026 -0.2788  0.8014
    1SAPS  C219   78   7.080   3.328   4.632 -0.8072 -0.2548 -0.2653
    1SAPS  H19R   79   7.000   3.405   4.633 -0.8302 -0.2320 -1.7252
    1SAPS  H19S   80   7.103   3.301   4.527  1.7635  2.6638 -0.5749
    1SAPS  C220   81   7.208   3.392   4.687 -0.1600 -0.4773  0.0478
    1SAPS  H20R   82   7.302   3.339   4.661 -1.8339 -2.4725 -2.5717
    1SAPS  H20S   83   7.203   3.409   4.797  1.9980 -1.2815  0.3067
    1SAPS  H20T   84   7.229   3.495   4.650  0.4301 -0.6077  0.0167
    1SAPS   C33   85   6.966   3.475   5.759  0.0225 -0.9802  0.2734
    1SAPS   H3X   86   6.912   3.506   5.850  1.7405  0.4527  0.8809
    1SAPS   H3Y   87   7.017   3.385   5.799  2.5763  0.6185  0.9056
    1SAPS   C34   88   6.870   3.447   5.643  0.0051 -0.1449 -0.2841
    1SAPS   H4X   89   6.908   3.392   5.554  1.4083 -0.9334  0.7598
    1SAPS   H4Y   90   6.821   3.543   5.615  0.1650  0.6188  1.9027
    1SAPS   C35   91   6.756   3.354   5.687  0.2929 -0.1374  0.2720
    1SAPS   H5X   92   6.685   3.400   5.760 -0.2398 -0.6171  0.0579
    1SAPS   H5Y   93   6.798   3.260   5.727 -1.5960 -0.8304  0.7306
    1SAPS   C36   94   6.665   3.316   5.571  0.7810 -0.4279  0.3367
    1SAPS   H6X   95   6.726   3.295   5.480  0.2894 -1.6329  0.2653
    1SAPS   H6Y   96   6.598   3.404   5.559 -1.1250 -1.8955 -0.3592
    1SAPS   C37   97   6.579   3.185   5.593 -0.6454 -0.5403  0.6436
    1SAPS   H7X   98   6.523   3.185   5.689  0.9064 -1.0662  1.5939
    1SAPS   H7Y   99   6.667   3.120   5.613 -0.2397 -0.5290 -0.9553
    1SAPS   C38  100   6.481   3.151   5.481 -0.1277 -0.5004 -0.4759
    1SAPS   H8X  101   6.408   3.230   5.456 -0.4845 -0.1673  1.4220
    1SAPS   H8Y  102   6.420   3.070   5.527 -0.0087  0.0933  0.7805
    1SAPS   C39  103   6.552   3.095   5.356 -0.1786 -0.4523  0.1517
    1SAPS   H9X  104   6.614   3.008   5.387  0.5120 -0.2840 -0.7204
    1SAPS   H9Y  105   6.630   3.165   5.320  0.1832  0.3210  2.3180
    1SAPS  C310  106   6.474   3.040   5.236 -0.1501  0.7580 -0.3492
    1SAPS  H10X  107   6.408   2.958   5.272  2.2908 -1.6135 -0.9024
    1SAPS  H10Y  108   6.538   2.988   5.161  0.0241  0.2202  0.1683
    1SAPS  C311  109   6.384   3.147   5.175  0.2451  0.5866 -0.6961
    1SAPS  H11X  110   6.429   3.246   5.199 -0.7787  0.3499  2.7172
    1SAPS  H11Y  111   6.285   3.128   5.222  0.4954  1.1864  0.1112
    1SAPS  C312  112   6.372   3.150   5.029 -0.0448 -0.3734  0.3285
    1SAPS  H12X  113   6.318   3.242   4.998 -1.2207 -1.2656 -0.3742
    1SAPS  H12Y  114   6.305   3.068   4.994 -0.1931 -0.3303  0.5085
    1SAPS  C313  115   6.504   3.144   4.948 -0.0093  0.3141  0.5748
    1SAPS  H13X  116   6.535   3.038   4.945 -0.1222  0.2777  0.6780
    1SAPS  H13Y  117   6.588   3.197   4.999  0.8972 -0.6146  0.0618
    1SAPS  C314  118   6.495   3.184   4.797  0.2665  0.9544  0.4332
    1SAPS  H14X  119   6.448   3.283   4.785 -2.8195 -0.0002  3.0861
    1SAPS  H14Y  120   6.429   3.107   4.752  1.6062  0.8150 -1.3710
    1SAPS  C315  121   6.632   3.170   4.726 -0.3427  0.2083  0.3386
    1SAPS  H15X  122   6.682   3.074   4.749  1.0297  0.5898 -0.8860
    1SAPS  H15Y  123   6.703   3.245   4.766 -2.3888  1.3046  2.1512
    1SAPS  C316  124   6.637   3.177   4.568  0.2530  0.5295 -0.1511
    1SAPS  H16X  125   6.702   3.264   4.545  1.3330 -0.1581  0.2049
    1SAPS  H16Y  126   6.534   3.190   4.529 -0.4903  0.1799  1.5620
    1SAPS  C317  127   6.700   3.057   4.494 -0.0506 -0.0431 -0.7096
    1SAPS  H17X  128   6.796   3.031   4.544 -0.1927  1.0409  0.1572
    1SAPS  H17Y  129   6.724   3.078   4.388 -1.8925  0.8644 -0.9989
    1SAPS  C318  130   6.607   2.939   4.484  1.0840 -0.2378  0.0532
    1SAPS  H18X  131   6.596   2.911   4.591  2.4549  2.8192  1.1109
    1SAPS  H18Y  132   6.645   2.856   4.420  0.6769  0.2848 -0.8977
    1SAPS  H18Z  133   6.512   2.966   4.433 -0.7245  0.1160  3.3770
    2SAPS     N  134   6.262   3.800   6.809 -0.7641  0.2737  0.5586
    2SAPS   HN1  135   6.169   3.788   6.852 -1.2407  2.8527  0.4198
    2SAPS   HN2  136   6.252   3.861   6.725  1.1938  1.4173  1.0768
    2SAPS   HN3  137   6.300   3.714   6.764 -2.1494 -0.1360  0.1180
    2SAPS   C12  138   6.363   3.852   6.910 -0.2239 -0.2500  0.7651
    2SAPS  H12A  139   6.335   3.952   6.938 -0.3164  1.0696 -3.2761
    2SAPS   C13  140   6.379   3.771   7.039  0.3310  1.0667  0.0896
    2SAPS  O13A  141   6.341   3.647   7.037 -0.2514 -0.0513 -0.3949
    2SAPS  O13B  142   6.446   3.821   7.130  0.2271  0.2362 -0.1695
    2SAPS   C11  143   6.496   3.864   6.834 -0.0405 -0.0579 -0.4273
    2SAPS  H11A  144   6.526   3.759   6.809 -0.7729 -0.4942  0.4706
    2SAPS  H11B  145   6.574   3.907   6.901 -0.8998  0.3821  0.3092
    2SAPS     P  146   6.571   3.996   6.600 -0.4607 -0.4066  0.2711
    2SAPS   O13  147   6.491   4.095   6.527  0.1058 -0.4761 -0.5340
    2SAPS   O14  148   6.695   4.045   6.662 -0.4557  1.1447 -0.1789
    2SAPS   O12  149   6.489   3.948   6.717  0.6546  0.1313 -0.2960
    2SAPS   O11  150   6.598   3.868   6.510  0.5154  0.5117  0.1356
    2SAPS    C1  151   6.495   3.781   6.467  0.8373  0.1852  0.6619
    2SAPS    HA  152   6.456   3.721   6.551 -0.3182 -0.0463 -0.0102
    2SAPS    HB  153   6.404   3.833   6.428  1.0585  1.5468  1.8904
    2SAPS    C2  154   6.558   3.682   6.362 -0.0446  0.2864 -0.4297
    2SAPS    HS  155   6.651   3.633   6.399  0.4531  0.7949 -0.9623
    2SAPS   O21  156   6.588   3.765   6.246  0.1900 -0.0859  0.4122
    2SAPS   C21  157   6.682   3.714   6.162 -0.1860 -0.0894  1.0882
    2SAPS   O22  158   6.748   3.613   6.186  0.7668 -0.3255 -0.2082
    2SAPS   C22  159   6.698   3.810   6.036 -0.3302  0.2154 -0.3798
    2SAPS   H2R  160   6.596   3.805   5.993 -0.3606  0.7192 -0.3647
    2SAPS   H2S  161   6.728   3.912   6.066  0.2134  0.2377 -0.9664
    2SAPS    C3  162   6.464   3.566   6.330 -0.1862  0.5412 -0.3463
    2SAPS    HX  163   6.407   3.535   6.420  0.9556 -2.5531 -0.5864
    2SAPS    HY  164   6.525   3.482   6.292  0.0505 -0.1457  1.4512
    2SAPS   O31  165   6.365   3.605   6.232 -0.2354 -0.3626 -0.0824
    2SAPS   C31  166   6.304   3.513   6.156 -0.5739 -0.1737  0.3594
    2SAPS   O32  167   6.335   3.396   6.145 -0.3588  0.2123  0.1731
    2SAPS   C32  168   6.194   3.588   6.070  0.2884 -0.0617  0.1215
    2SAPS   H2X  169   6.165   3.669   6.141 -1.0910 -0.9140  0.5563
    2SAPS   H2Y  170   6.111   3.515   6.071  0.7934 -0.6449  0.2704
    2SAPS   C23  171   6.796   3.759   5.929 -0.5252  0.5360  0.1457
    2SAPS   H3R  172   6.780   3.656   5.890  1.9069 -0.1250  0.7365
    2SAPS   H3S  173   6.896   3.759   5.977 -0.1087 -2.0243 -0.5562
    2SAPS   C24  174   6.823   3.861   5.815 -0.3670  0.5742 -0.1898
    2SAPS   H4R  175   6.927   3.843   5.780 -0.1295 -0.7641  1.0930
    2SAPS   H4S  176   6.830   3.961   5.862 -2.5669  1.4060 -1.5013
    2SAPS   C25  177   6.718   3.858   5.704  0.0529  0.3667 -0.0058
    2SAPS   H5R  178   6.616   3.835   5.739 -0.0821 -0.6580 -1.0250
    2SAPS   C26  179   6.736   3.866   5.567  0.2953  0.5734  0.2550
    2SAPS   H6R  180   6.655   3.863   5.493  0.0303 -0.8285  0.5787
    2SAPS   C27  181   6.874   3.864   5.502 -0.0409  0.1641 -0.7481
    2SAPS   H7R  182   6.956   3.830   5.570 -2.2944  1.3507  2.8317
    2SAPS   H7S  183   6.886   3.971   5.477  0.2469 -0.2398 -2.5207
    2SAPS   C28  184   6.887   3.786   5.370  0.9779 -0.0513 -0.4431
    2SAPS   H8R  185   6.791   3.743   5.340  0.1957  2.6971 -2.3008
    2SAPS   C29  186   6.993   3.758   5.295  0.4822 -0.3811  0.3204
    2SAPS   H9R  187   6.999   3.692   5.208  1.5584 -1.8227  1.4391
    2SAPS  C210  188   7.127   3.824   5.316  0.5774  0.4254  0.0962
    2SAPS  H10R  189   7.127   3.883   5.410  0.6151 -0.9113  0.9585
    2SAPS  H10S  190   7.138   3.887   5.225  0.9153 -0.3509 -0.4128
    2SAPS  C211  191   7.227   3.714   5.326 -0.0208 -0.2051 -0.4755
    2SAPS  H11R  192   7.199   3.633   5.395  0.1978  1.1088  1.2290
    2SAPS  C212  193   7.341   3.709   5.251  0.0218 -0.3613  0.0737
    2SAPS  H12R  194   7.404   3.620   5.259  1.1617  0.5109  1.3506
    2SAPS  C213  195   7.381   3.799   5.139 -0.1332 -0.3538 -0.0009
    2SAPS  H13R  196   7.292   3.807   5.074 -1.1625 -0.3956  1.3598
    2SAPS  H13S  197   7.455   3.746   5.075 -2.0741 -0.6002 -2.1706
    2SAPS  C214  198   7.418   3.940   5.181  0.0840 -0.2154  0.4357
    2SAPS  H14R  199   7.332   4.008   5.192  0.3680  0.1346  0.5038
    2SAPS  C215  200   7.545   3.994   5.169  0.7373 -0.0493  0.3797
    2SAPS  H15R  201   7.550   4.099   5.202 -1.4402 -0.0122  0.7268
    2SAPS  C216  202   7.666   3.918   5.140 -0.3940 -0.6210 -0.0974
    2SAPS  H16R  203   7.644   3.813   5.112 -1.7485 -0.5447  0.6302
    2SAPS  H16S  204   7.733   3.922   5.229 -4.6402  1.3899  3.3424
    2SAPS  C217  205   7.726   3.995   5.022  0.0816  0.2089  0.6074
    2SAPS  H17R  206   7.817   3.950   4.976 -2.4514 -3.5974 -1.1748
    2SAPS  H17S  207   7.749   4.102   5.042  1.6027  0.4887 -2.0998
    2SAPS  C218  208   7.644   3.990   4.892 -1.1184  0.1578  0.0970
    2SAPS  H18R  209   7.556   4.058   4.902 -0.5796  0.7905  0.6477
    2SAPS  H18S  210   7.615   3.884   4.874 -0.5028  0.1485 -0.9466
    2SAPS  C219  211   7.718   4.040   4.763 -0.0434  0.3581  0.3612
    2SAPS  H19R  212   7.817   3.990   4.753  0.3960  1.2336  0.1937
    2SAPS  H19S  213   7.748   4.144   4.791 -0.2342  0.7057 -0.7027
    2SAPS  C220  214   7.630   4.029   4.637 -0.0339 -0.1869 -0.0912
    2SAPS  H20R  215   7.538   4.091   4.649 -1.1099 -1.3633 -1.7637
    2SAPS  H20S  216   7.596   3.924   4.620 -1.7663  0.0186  1.7140
    2SAPS  H20T  217   7.683   4.079   4.554  0.5665  3.6724  2.3383
    2SAPS   C33  218   6.237   3.638   5.932 -0.7331  0.1962 -0.2227
    2SAPS   H3X  219   6.333   3.694   5.943 -0.7797 -0.0276  1.5467
    2SAPS   H3Y  220   6.163   3.709   5.889  1.3033  0.3626 -3.8609
    2SAPS   C34  221   6.265   3.514   5.839  0.4135 -0.1160 -0.0778
    2SAPS   H4X  222   6.170   3.456   5.836  0.1613  0.1678  1.3821
    2SAPS   H4Y  223   6.346   3.451   5.881 -0.5591 -1.6965 -0.4944
    2SAPS   C35  224   6.323   3.552   5.698 -0.3110  0.2267 -0.8065
    2SAPS   H5X  225   6.349   3.458   5.645 -1.1590  0.1450 -1.0930
    2SAPS   H5Y  226   6.419   3.605   5.717  0.3890 -1.1310 -0.4429
    2SAPS   C36  227   6.237   3.643   5.609 -0.1166  0.4002  0.0122
    2SAPS   H6X  228   6.256   3.743   5.652  1.0012  0.4299 -0.5188
    2SAPS   H6Y  229   6.129   3.618   5.609  0.4046 -2.1309 -0.8566
    2SAPS   C37  230   6.292   3.636   5.466  0.4216 -0.2641  0.3397
    2SAPS   H7X  231   6.231   3.701   5.399 -1.9428 -2.3745  0.3180
    2SAPS   H7Y  232   6.279   3.531   5.433 -0.1707 -0.4718  1.2070
    2SAPS   C38  233   6.438   3.677   5.452 -0.4856  0.0330  0.2859
    2SAPS   H8X  234   6.512   3.614   5.505 -0.3661 -0.3871 -0.3714
    2SAPS   H8Y  235   6.453   3.780   5.491 -0.2096 -0.4482  1.4717
    2SAPS   C39  236   6.487   3.668   5.310 -0.2011 -0.9825  0.3956
    2SAPS   H9X  237   6.582   3.721   5.289 -0.6632 -1.0143 -2.1405
    2SAPS   H9Y  238   6.403   3.718   5.257  1.0729  0.7023 -0.1158
    2SAPS  C310  239   6.511   3.518   5.265  0.4103 -0.0751 -0.5120
    2SAPS  H10X  240   6.417   3.462   5.247 -0.7336  2.0896 -1.7407
    2SAPS  H10Y  241   6.578   3.476   5.343 -0.7860  1.4917  1.5057
    2SAPS  C311  242   6.587   3.503   5.134 -0.2125  0.3047  0.4345
    2SAPS  H11X  243   6.618   3.397   5.118 -0.1756  0.1990  1.1997
    2SAPS  H11Y  244   6.685   3.555   5.144  1.1909 -1.3349 -2.8717
    2SAPS  C312  245   6.522   3.554   5.003 -0.2516  0.0684 -0.0189
    2SAPS  H12X  246   6.472   3.652   5.017 -1.1863 -0.3822 -0.1616
    2SAPS  H12Y  247   6.450   3.484   4.954 -0.6352 -0.6454  1.5267
    2SAPS  C313  248   6.620   3.588   4.894 -0.2234 -0.2559  0.7662
    2SAPS  H13X  249   6.684   3.504   4.860  0.4583 -0.1844  1.8186
    2SAPS  H13Y  250   6.683   3.676   4.919  0.1566  0.2802 -1.8365
    2SAPS  C314  251   6.559   3.636   4.763 -0.5032  0.2005  0.0605
    2SAPS  H14X  252   6.485   3.717   4.777  0.7786  1.3090  0.6903
    2SAPS  H14Y  253   6.502   3.544   4.739 -0.2834  0.3464 -1.0584
    2SAPS  C315  254   6.674   3.674   4.660  0.0112  0.0108  0.9020
    2SAPS  H15X  255   6.736   3.582   4.652 -0.4837 -0.3501  1.1835
    2SAPS  H15Y  256   6.734   3.753   4.712 -0.2552  0.5845  0.3550
    2SAPS  C316  257   6.616   3.734   4.532  0.2441  0.6881 -0.1666
    2SAPS  H16X  258   6.547   3.817   4.559  0.3601  2.0533 -3.4851
    2SAPS  H16Y  259   6.556   3.654   4.482  3.5110 -1.2364 -1.3826
    2SAPS  C317  260   6.717   3.797   4.432 -0.1127  0.0984 -0.2086
    2SAPS  H17X  261   6.678   3.774   4.330 -2.6099  1.5522  0.3351
    2SAPS  H17Y  262   6.822   3.763   4.439  0.0269  0.0605 -1.9497
    2SAPS  C318  263   6.723   3.955   4.442 -0.0668  0.3332 -0.4408
    2SAPS  H18X  264   6.624   3.994   4.409 -1.1889 -2.2361 -0.3275
    2SAPS  H18Y  265   6.806   4.004   4.388 -0.4138 -0.2194 -1.5157
    2SAPS  H18Z  266   6.735   3.997   4.544  0.8601  1.4024 -0.9716
    3SAPS     N  267   0.442   3.832   6.937  1.1319  0.1458 -0.4743
    3SAPS   HN1  268   0.445   3.760   6.862  0.5401  0.7784 -1.1142
    3SAPS   HN2  269   0.415   3.791   7.029  0.8679 -1.0216 -1.0557
    3SAPS   HN3  270   0.364   3.895   6.909 -0.2873 -0.7895  1.1846
    3SAPS   C12  271   0.571   3.902   6.936 -0.3349  0.6291 -0.3598
    3SAPS  H12A  272   0.564   3.982   7.008 -1.6150  0.2937 -0.0973
    3SAPS   C13  273   0.697   3.803   6.967  0.1865  0.4427  0.4078
    3SAPS  O13A  274   0.669   3.679   6.995  0.2810  0.4254  0.4113
    3SAPS  O13B  275   0.806   3.854   6.993 -0.1247  0.1573  0.0368
    3SAPS   C11  276   0.598   3.971   6.799 -0.2982  0.2750  0.6667
    3SAPS  H11A  277   0.626   3.899   6.720  1.1846  0.1254  1.2979
    3SAPS  H11B  278   0.690   4.028   6.824 -0.0536 -0.6040  1.8657
    3SAPS     P  279   0.467   4.150   6.633  0.0096  0.4465 -0.2185
    3SAPS   O13  280   0.330   4.124   6.587  0.8645  0.2654 -0.3315
    3SAPS   O14  281   0.502   4.288   6.681 -0.1701  0.0899 -0.4398
    3SAPS   O12  282   0.482   4.055   6.758 -0.8148 -0.3653 -0.0096
    3SAPS   O11  283   0.583   4.082   6.537  0.6402 -0.0117 -0.0144
    3SAPS    C1  284   0.557   3.948   6.477 -0.0092 -0.6645  0.7291
    3SAPS    HA  285   0.639   3.879   6.504  0.8093 -1.0230 -2.3162
    3SAPS    HB  286   0.463   3.903   6.516  0.0369 -0.4870  1.0517
    3SAPS    C2  287   0.572   3.955   6.326  0.6242 -0.5409  0.4885
    3SAPS    HS  288   0.545   3.859   6.276 -2.6103  0.5982 -0.1731
    3SAPS   O21  289   0.698   4.000   6.289 -0.8475 -0.1118 -0.0021
    3SAPS   C21  290   0.791   3.908   6.282 -0.4060 -0.2108 -0.3756
    3SAPS   O22  291   0.779   3.786   6.291 -0.6930 -0.1785 -0.2305
    3SAPS   C22  292   0.930   3.972   6.256  0.3220 -0.5923 -0.1796
    3SAPS   H2R  293   0.936   4.032   6.163  1.9598 -2.1032 -1.1208
    3SAPS   H2S  294   0.943   4.032   6.349 -0.3949 -1.1508  0.2889
    3SAPS    C3  295   0.456   4.046   6.273  0.3128  0.4057  0.1400
    3SAPS    HX  296   0.473   4.143   6.325  1.9360 -1.0217  2.4667
    3SAPS    HY  297   0.356   4.007   6.301  0.4440  1.3460  2.0985
    3SAPS   O31  298   0.473   4.055   6.132 -0.3727 -0.3535 -0.9090
    3SAPS   C31  299   0.366   4.103   6.075  0.1831 -0.5320 -0.3318
    3SAPS   O32  300   0.272   4.160   6.138  0.2031  0.1413 -0.6373
    3SAPS   C32  301   0.379   4.105   5.920 -0.3241 -0.4521 -0.5849
    3SAPS   H2X  302   0.410   4.003   5.890  0.3841 -0.6992  0.9109
    3SAPS   H2Y  303   0.465   4.173   5.901 -0.8603  1.4078  2.7504
    3SAPS   C23  304   1.049   3.866   6.262 -0.5482 -0.3439 -0.1877
    3SAPS   H3R  305   1.054   3.806   6.355  1.0284  0.5659  0.3414
    3SAPS   H3S  306   1.139   3.930   6.263 -0.2304 -0.7412 -1.2078
    3SAPS   C24  307   1.057   3.770   6.144 -0.0784  0.4116 -0.3090
    3SAPS   H4R  308   0.952   3.738   6.126 -0.0131 -0.2578  0.4642
    3SAPS   H4S  309   1.118   3.678   6.155 -0.9007 -0.1902 -0.6417
    3SAPS   C25  310   1.081   3.854   6.020 -0.4084  0.0040  0.7272
    3SAPS   H5R  311   1.146   3.941   6.042 -0.1609 -0.3963  1.6225
    3SAPS   C26  312   1.054   3.832   5.891 -0.7117  0.5103 -0.3947
    3SAPS   H6R  313   1.070   3.919   5.825 -1.1275  1.3311  0.5682
    3SAPS   C27  314   0.967   3.725   5.839  1.0009  0.5370 -0.4062
    3SAPS   H7R  315   1.005   3.635   5.891  1.6242 -0.3068 -2.2570
    3SAPS   H7S  316   0.973   3.710   5.730 -0.5028 -1.5319 -0.2668
    3SAPS   C28  317   0.822   3.749   5.874  0.1267 -0.3115 -0.2466
    3SAPS   H8R  318   0.774   3.668   5.933  1.1368  0.7026  2.1137
    3SAPS   C29  319   0.753   3.861   5.856 -0.2410  0.5753  0.0210
    3SAPS   H9R  320   0.646   3.860   5.880 -0.9109  0.1845 -2.6179
    3SAPS  C210  321   0.787   3.970   5.757 -0.1218  0.0731 -0.8059
    3SAPS  H10R  322   0.872   3.944   5.691 -0.4118  1.7249 -1.9039
    3SAPS  H10S  323   0.816   4.060   5.817 -0.8763 -1.2848  1.7414
    3SAPS  C211  324   0.662   4.001   5.673 -0.1833 -0.2333 -0.2183
    3SAPS  H11R  325   0.612   4.096   5.698  1.7525  0.2321  2.3965
    3SAPS  C212  326   0.613   3.914   5.579 -0.1154  0.1755 -0.3079
    3SAPS  H12R  327   0.521   3.939   5.524  0.8769  3.4175 -0.6992
    3SAPS  C213  328   0.678   3.790   5.527  0.2015  0.5506 -0.4694
    3SAPS  H13R  329   0.788   3.778   5.533  0.2752  0.3108 -2.0612
    3SAPS  H13S  330   0.659   3.785   5.418 -0.0116  0.2562 -0.4201
    3SAPS  C214  331   0.615   3.670   5.593 -0.7165  0.9884  0.2553
    3SAPS  H14R  332   0.542   3.692   5.672 -0.9027  3.0892 -0.4465
    3SAPS  C215  333   0.636   3.540   5.565 -0.2274  0.2603  0.3538
    3SAPS  H15R  334   0.582   3.463   5.624  0.1244  0.7753  1.3806
    3SAPS  C216  335   0.728   3.492   5.447 -0.3441 -1.0351  0.3554
    3SAPS  H16R  336   0.830   3.461   5.478  0.1002 -0.0930 -0.1208
    3SAPS  H16S  337   0.745   3.573   5.373  0.6399 -0.7437  0.8820
    3SAPS  C217  338   0.665   3.380   5.371  0.3500  0.3139 -0.1822
    3SAPS  H17R  339   0.563   3.411   5.339  0.5557  0.2359 -0.9429
    3SAPS  H17S  340   0.654   3.287   5.429 -1.6254 -0.0127 -0.9940
    3SAPS  C218  341   0.747   3.346   5.246 -0.5532  0.1236 -0.2625
    3SAPS  H18R  342   0.840   3.307   5.291 -0.3204  0.5026 -0.4188
    3SAPS  H18S  343   0.778   3.438   5.191  1.5841 -0.0302  0.5977
    3SAPS  C219  344   0.681   3.236   5.161 -0.3071  0.4868  0.6974
    3SAPS  H19R  345   0.763   3.164   5.141 -2.1899 -1.2473 -1.3234
    3SAPS  H19S  346   0.607   3.190   5.232  2.4304 -0.3850  3.1833
    3SAPS  C220  347   0.621   3.283   5.036  0.0290 -0.5431  0.7398
    3SAPS  H20R  348   0.565   3.212   4.971 -0.9385  0.8015  0.0614
    3SAPS  H20S  349   0.688   3.339   4.967 -1.0150  1.7941  1.5260
    3SAPS  H20T  350   0.541   3.354   5.065  1.3732  1.1843  0.3828
    3SAPS   C33  351   0.255   4.154   5.852 -0.6329  0.5473  0.4394
    3SAPS   H3X  352   0.247   4.262   5.876  3.5519  1.1066  0.0340
    3SAPS   H3Y  353   0.165   4.108   5.899  2.1594 -2.1638  3.7421
    3SAPS   C34  354   0.270   4.120   5.702 -0.4278 -0.3394 -0.0459
    3SAPS   H4X  355   0.283   4.012   5.678  0.8954 -0.4016  0.8115
    3SAPS   H4Y  356   0.362   4.170   5.666 -0.1814 -0.2829  0.6535
    3SAPS   C35  357   0.156   4.188   5.617  0.2152  0.5334 -0.2220
    3SAPS   H5X  358   0.067   4.125   5.639  1.1081 -1.1437 -1.1652
    3SAPS   H5Y  359   0.145   4.291   5.656 -2.1196 -0.5652  2.4017
    3SAPS   C36  360   0.191   4.170   5.464 -0.4692  0.2764 -0.1067
    3SAPS   H6X  361   0.170   4.067   5.429  1.0017  1.1893 -4.2047
    3SAPS   H6Y  362   0.299   4.189   5.451 -0.9155  1.6695 -2.2739
    3SAPS   C37  363   0.111   4.270   5.378 -0.2376  0.1609  0.8217
    3SAPS   H7X  364   0.138   4.371   5.415  1.7078  0.8763 -2.1829
    3SAPS   H7Y  365   0.001   4.262   5.390 -0.4877  2.3825  0.5174
    3SAPS   C38  366   0.149   4.257   5.235  0.0753  0.2434  0.8083
    3SAPS   H8X  367   0.103   4.164   5.196  0.0041  0.2862  0.7898
    3SAPS   H8Y  368   0.258   4.264   5.219 -0.2205  0.1575 -1.5638
    3SAPS   C39  369   0.089   4.357   5.137  0.6075  0.1076  0.3106
    3SAPS   H9X  370  -0.022   4.352   5.147  0.4585 -3.5329 -1.4966
    3SAPS   H9Y  371   0.096   4.327   5.030 -1.9997 -2.1673  0.6660
    3SAPS  C310  372   0.139   4.502   5.158  0.4058  0.0043  0.1865
    3SAPS  H10X  373   0.247   4.512   5.137 -0.2243  2.2331 -2.7481
    3SAPS  H10Y  374   0.124   4.529   5.264  0.1863 -2.2731  0.7905
    3SAPS  C311  375   0.064   4.613   5.071 -0.0856 -0.4408 -0.1817
    3SAPS  H11X  376  -0.026   4.631   5.135 -0.9981  2.1497 -2.0427
    3SAPS  H11Y  377   0.026   4.570   4.976  0.3135  0.3901 -0.7250
    3SAPS  C312  378   0.147   4.738   5.051 -0.0520  0.7179  0.4129
    3SAPS  H12X  379   0.236   4.698   4.997  0.1899  0.1796  1.2007
    3SAPS  H12Y  380   0.180   4.770   5.152  0.0517 -1.0082  0.9463
    3SAPS  C313  381   0.078   4.839   4.963  0.1502 -0.0296  0.0644
    3SAPS  H13X  382  -0.015   4.881   5.007  0.9428  0.9912  0.8425
    3SAPS  H13Y  383   0.060   4.801   4.861  0.1610 -1.1261  0.4638
    3SAPS  C314  384   0.161   4.968   4.956  0.3012 -0.0177  0.2831
    3SAPS  H14X  385   0.268   4.951   4.932  0.0969  1.2256 -1.7498
    3SAPS  H14Y  386   0.155   5.021   5.054  1.1569 -1.4844  1.1543
    3SAPS  C315  387   0.111   5.071   4.851  0.1857  0.4646 -0.1185
    3SAPS  H15X  388   0.001   5.086   4.863  0.0659 -0.4798  0.1081
    3SAPS  H15Y  389   0.115   5.024   4.751 -2.4175 -1.0867  0.3813
    3SAPS  C316  390   0.180   5.210   4.854  0.7442  0.4429  0.5787
    3SAPS  H16X  391   0.288   5.185   4.843  1.2143  2.4117  0.2676
    3SAPS  H16Y  392   0.162   5.255   4.954  0.8473 -0.2440  0.9132
    3SAPS  C317  393   0.119   5.306   4.752 -0.6969 -0.3438  0.0781
    3SAPS  H17X  394   0.144   5.410   4.781 -1.6772  0.5722 -2.1437
    3SAPS  H17Y  395   0.008   5.294   4.760 -0.7866 -0.5985 -1.3153
    3SAPS  C318  396   0.151   5.276   4.602  0.0963 -0.3662  0.3687
    3SAPS  H18X  397   0.141   5.168   4.581  0.0215 -0.1554 -0.7248
    3SAPS  H18Y  398   0.257   5.301   4.579  0.6077 -1.6665  1.2193
    3SAPS  H18Z  399   0.091   5.345   4.539  0.1544  0.0952  0.8071
    4SAPS     N  400   6.097   1.554   6.390 -0.8555 -0.1325 -0.0335
    4SAPS   HN1  401   6.055   1.471   6.344 -2.1026  0.1000  0.6332
    4SAPS   HN2  402   6.091   1.636   6.327  1.5944 -1.0193 -1.5728
    4SAPS   HN3  403   6.200   1.539   6.394 -0.3194  2.6593 -0.8708
    4SAPS   C12  404   6.049   1.588   6.518  0.3691  0.2297 -0.0993
    4SAPS  H12A  405   6.106   1.522   6.581 -1.3565 -3.3591 -2.0231
    4SAPS   C13  406   6.073   1.728   6.565  0.6552 -0.4170 -0.1113
    4SAPS  O13A  407   6.178   1.782   6.532 -0.3182 -0.1514 -0.0956
    4SAPS  O13B  408   6.012   1.769   6.668 -0.5803 -0.0059  0.1029
    4SAPS   C11  409   5.900   1.545   6.538  0.5968 -0.0490 -0.1599
    4SAPS  H11A  410   5.871   1.563   6.644 -0.4662 -0.1889 -0.4198
    4SAPS  H11B  411   5.906   1.436   6.519  0.6550 -0.4138  1.7384
    4SAPS     P  412   5.658   1.598   6.454  0.0255 -0.0079 -0.4618
    4SAPS   O13  413   5.621   1.455   6.459 -0.3112 -0.1866 -0.6353
    4SAPS   O14  414   5.610   1.686   6.565 -0.4898 -0.5527  0.5258
    4SAPS   O12  415   5.813   1.613   6.446  0.3966 -0.1847 -0.9435
    4SAPS   O11  416   5.611   1.661   6.318  0.6339 -0.2068  0.1264
    4SAPS    C1  417   5.598   1.598   6.184 -0.5413  0.1771  0.3600
    4SAPS    HA  418   5.552   1.498   6.197  1.3031 -0.7702 -0.1731
    4SAPS    HB  419   5.529   1.666   6.129 -0.3437 -0.2505 -0.4279
    4SAPS    C2  420   5.733   1.589   6.114  1.1785  0.8205  0.0253
    4SAPS    HS  421   5.798   1.544   6.191 -0.5563  0.9692  1.6531
    4SAPS   O21  422   5.769   1.723   6.080  0.8171 -0.1688 -0.3629
    4SAPS   C21  423   5.899   1.755   6.104  0.2035  0.0058 -0.2608
    4SAPS   O22  424   5.977   1.678   6.156 -0.0470 -0.0083  0.7042
    4SAPS   C22  425   5.922   1.906   6.078 -0.0526  0.2599  0.0839
    4SAPS   H2R  426   5.839   1.968   6.118  0.5547 -0.3990  2.5398
    4SAPS   H2S  427   6.013   1.933   6.136  0.6478 -3.5193  0.9926
    4SAPS    C3  428   5.735   1.494   5.988 -0.5512  0.4400  0.3977
    4SAPS    HX  429   5.724   1.392   6.031 -2.2236  0.3383 -0.1685
    4SAPS    HY  430   5.829   1.508   5.931 -0.2881  0.4789  0.8394
    4SAPS   O31  431   5.634   1.517   5.894  0.2444 -0.6349  0.4409
    4SAPS   C31  432   5.522   1.443   5.911 -0.5502 -0.6307  0.5534
    4SAPS   O32  433   5.513   1.358   5.999 -0.4555  0.8161 -0.2346
    4SAPS   C32  434   5.413   1.494   5.816  0.6255  0.1252 -0.1789
    4SAPS   H2X  435   5.426   1.605   5.813 -3.2205  0.7253  0.0397
    4SAPS   H2Y  436   5.312   1.464   5.851  0.6373  1.7617  1.4111
    4SAPS   C23  437   5.936   1.931   5.928  0.1870 -0.1272  0.0409
    4SAPS   H3R  438   5.942   2.041   5.914 -0.8507 -0.2424 -1.4690
    4SAPS   H3S  439   5.838   1.899   5.888  0.7054 -0.7569 -0.7511
    4SAPS   C24  440   6.055   1.846   5.867  0.1659 -0.5330 -0.4718
    4SAPS   H4R  441   6.036   1.737   5.882  0.7661 -0.3997  1.4405
    4SAPS   H4S  442   6.146   1.885   5.916  1.1532 -2.6793 -0.4620
    4SAPS   C25  443   6.071   1.867   5.718  0.4384 -0.8113 -0.3247
    4SAPS   H5R  444   6.151   1.929   5.675 -0.8098 -0.8393 -2.8921
    4SAPS   C26  445   6.017   1.791   5.625 -1.1173  0.2781 -0.5483
    4SAPS   H6R  446   6.052   1.807   5.522 -2.2602 -0.5688 -1.1049
    4SAPS   C27  447   5.923   1.671   5.629 -0.2743  0.2391  0.1327
    4SAPS   H7R  448   5.869   1.670   5.727 -2.6830 -0.0176 -1.1321
    4SAPS   H7S  449   5.979   1.576   5.631  1.4220  1.2010  0.1112
    4SAPS   C28  450   5.829   1.657   5.510  0.4679  0.4414 -0.3755
    4SAPS   H8R  451   5.723   1.678   5.530  0.3186 -1.9189  1.8657
    4SAPS   C29  452   5.852   1.606   5.389  0.2796  0.1808 -0.3666
    4SAPS   H9R  453   5.770   1.606   5.315 -0.1530  1.8857  0.0745
    4SAPS  C210  454   5.983   1.569   5.330 -0.4320 -0.0388 -0.4128
    4SAPS  H10R  455   5.968   1.467   5.289  1.5806 -0.9379  0.8859
    4SAPS  H10S  456   6.058   1.543   5.408 -1.4846  0.5847  0.8428
    4SAPS  C211  457   6.046   1.676   5.244  0.2763 -0.0104  0.4140
    4SAPS  H11R  458   6.056   1.770   5.300  0.9430 -0.6670  1.4307
    4SAPS  C212  459   6.051   1.685   5.106  0.2969 -0.3185  0.1654
    4SAPS  H12R  460   6.096   1.777   5.064  1.7110 -0.5005  1.2141
    4SAPS  C213  461   6.031   1.574   5.008 -0.5166 -0.3333  0.3648
    4SAPS  H13R  462   5.977   1.487   5.050 -0.2823  0.0957  1.5730
    4SAPS  H13S  463   6.130   1.528   4.987  0.3616  0.6015  2.1999
    4SAPS  C214  464   5.964   1.622   4.873 -0.0386  0.4908  0.6224
    4SAPS  H14R  465   5.854   1.618   4.873 -0.0867  1.5040  0.2104
    4SAPS  C215  466   6.025   1.677   4.764  1.2596 -0.5261 -0.3095
    4SAPS  H15R  467   5.961   1.703   4.678 -0.8597 -1.7614  0.8304
    4SAPS  C216  468   6.168   1.703   4.738  0.0653  0.0273  0.4150
    4SAPS  H16R  469   6.240   1.666   4.815  1.3808 -0.7825 -1.1338
    4SAPS  H16S  470   6.196   1.810   4.725  0.8148  0.1375  2.4195
    4SAPS  C217  471   6.201   1.639   4.601  0.7386 -0.5775  0.1904
    4SAPS  H17R  472   6.306   1.669   4.579  0.2274  1.2344  0.1167
    4SAPS  H17S  473   6.126   1.667   4.524  1.2673  0.9881  0.2187
    4SAPS  C218  474   6.209   1.485   4.606  0.8505  0.7404 -0.7361
    4SAPS  H18R  475   6.208   1.436   4.507 -1.0951 -2.0491  0.5288
    4SAPS  H18S  476   6.120   1.446   4.659  2.9919 -1.4828  1.4668
    4SAPS  C219  477   6.332   1.424   4.693 -0.3830 -0.7364 -0.5401
    4SAPS  H19R  478   6.286   1.341   4.751 -2.3640  1.2610  0.9512
    4SAPS  H19S  479   6.357   1.491   4.778  0.3614 -2.4632  0.6548
    4SAPS  C220  480   6.454   1.379   4.615 -0.7026  0.3281 -0.4476
    4SAPS  H20R  481   6.422   1.296   4.548 -0.2074  0.6078 -1.0371
    4SAPS  H20S  482   6.525   1.326   4.682 -1.8043 -0.4759  0.1172
    4SAPS  H20T  483   6.511   1.458   4.562  0.6444  0.2293  0.7845
    4SAPS   C33  484   5.435   1.436   5.675  0.4031  0.3474  0.0816
    4SAPS   H3X  485   5.421   1.325   5.674 -3.7172  0.6894  2.1153
    4SAPS   H3Y  486   5.538   1.461   5.642  0.5642 -0.5014 -0.0874
    4SAPS   C34  487   5.330   1.474   5.563  0.3309  0.3251 -0.4183
    4SAPS   H4X  488   5.314   1.583   5.577  1.1800  0.3908  0.0705
    4SAPS   H4Y  489   5.244   1.409   5.592  0.0972  0.7470 -0.1427
    4SAPS   C35  490   5.373   1.447   5.419 -0.2245  0.8834 -0.6950
    4SAPS   H5X  491   5.433   1.354   5.429 -0.4962  0.0680 -4.7474
    4SAPS   H5Y  492   5.450   1.516   5.379  0.5118 -0.8064 -2.3822
    4SAPS   C36  493   5.246   1.442   5.331  0.0539 -0.2023  0.3964
    4SAPS   H6X  494   5.191   1.538   5.334  0.1257 -0.0742 -1.3329
    4SAPS   H6Y  495   5.179   1.365   5.376 -0.3445 -1.3415 -2.0074
    4SAPS   C37  496   5.283   1.418   5.173 -0.1469 -0.2806 -0.4079
    4SAPS   H7X  497   5.336   1.322   5.153  0.3206  0.2218 -1.6816
    4SAPS   H7Y  498   5.360   1.493   5.149  0.6914 -0.6040  1.1501
    4SAPS   C38  499   5.153   1.419   5.085 -0.3342  0.5144  0.0399
    4SAPS   H8X  500   5.088   1.506   5.110 -3.0817 -1.0335 -1.2552
    4SAPS   H8Y  501   5.095   1.330   5.116 -0.1469 -0.2997 -1.8131
    4SAPS   C39  502   5.187   1.408   4.931  0.4123 -0.8748 -0.1986
    4SAPS   H9X  503   5.273   1.338   4.918  0.9459  0.0803 -2.3376
    4SAPS   H9Y  504   5.241   1.496   4.890  1.9919 -1.3511  0.7846
    4SAPS  C310  505   5.060   1.389   4.845 -0.7029  0.6148  0.2451
    4SAPS  H10X  506   4.999   1.481   4.861  0.3055  1.2530  0.5153
    4SAPS  H10Y  507   4.996   1.304   4.876 -0.2851 -0.7252 -2.2991
    4SAPS  C311  508   5.083   1.366   4.697  0.1731 -0.0906 -0.7389
    4SAPS  H11X  509   4.985   1.369   4.644 -0.0412 -1.6505 -0.4976
    4SAPS  H11Y  510   5.133   1.271   4.667  2.7386  0.1861  2.2434
    4SAPS  C312  511   5.172   1.479   4.631  0.0454 -0.2025 -0.4212
    4SAPS  H12X  512   5.281   1.477   4.653  0.8213 -3.2800 -3.7052
    4SAPS  H12Y  513   5.141   1.580   4.666 -1.6907 -0.0611 -2.1691
    4SAPS  C313  514   5.162   1.467   4.479 -0.3536 -1.0515  0.2220
    4SAPS  H13X  515   5.064   1.496   4.435  0.2387  2.9792  1.1250
    4SAPS  H13Y  516   5.172   1.359   4.457 -0.1235 -1.0902  0.5212
    4SAPS  C314  517   5.267   1.560   4.405  0.1862  0.6172 -0.1664
    4SAPS  H14X  518   5.368   1.516   4.407 -0.0175  0.1397 -0.2486
    4SAPS  H14Y  519   5.266   1.653   4.467  2.7268 -1.7488  3.8807
    4SAPS  C315  520   5.220   1.609   4.261 -0.3054  0.4908  0.0992
    4SAPS  H15X  521   5.126   1.666   4.278  1.5062  3.4893  0.7769
    4SAPS  H15Y  522   5.205   1.511   4.210  0.8539  0.3197  0.0660
    4SAPS  C316  523   5.319   1.708   4.185 -0.6729  0.1356  0.1034
    4SAPS  H16X  524   5.336   1.788   4.260 -1.7141  1.1595 -0.7364
    4SAPS  H16Y  525   5.266   1.744   4.095  1.5175  0.3227 -1.1857
    4SAPS  C317  526   5.440   1.629   4.146  0.3147  0.9405 -0.1343
    4SAPS  H17X  527   5.408   1.531   4.106 -1.9664  2.3592 -1.9948
    4SAPS  H17Y  528   5.507   1.617   4.234  2.0313 -1.5535 -1.6680
    4SAPS  C318  529   5.516   1.699   4.040 -0.1990  0.0105  0.9258
    4SAPS  H18X  530   5.602   1.637   4.003 -0.6487 -1.3552  2.0606
    4SAPS  H18Y  531   5.543   1.795   4.089  3.7256 -0.1612 -0.5259
    4SAPS  H18Z  532   5.455   1.721   3.951  1.5870  3.4260  0.3614
    5SAPS     N  533   1.868   4.415   6.429  0.0822  0.7846  0.2287
    5SAPS   HN1  534   1.835   4.503   6.385  0.3515  1.8363  1.9995
    5SAPS   HN2  535   1.971   4.420   6.448  0.1051  0.5184  0.1759
    5SAPS   HN3  536   1.843   4.329   6.376 -2.6510  1.8977 -0.4512
    5SAPS   C12  537   1.811   4.404   6.562 -0.5512 -0.3326 -0.2216
    5SAPS  H12A  538   1.815   4.299   6.588 -1.5553 -0.2426  0.3477
    5SAPS   C13  539   1.891   4.480   6.667 -0.0112 -0.6721  0.1261
    5SAPS  O13A  540   2.013   4.512   6.642  0.1201  0.0553 -0.1940
    5SAPS  O13B  541   1.851   4.473   6.785 -0.5750  0.1920  0.0718
    5SAPS   C11  542   1.664   4.451   6.560 -0.3967 -0.2401 -0.3627
    5SAPS  H11A  543   1.652   4.558   6.536 -0.9277 -0.0287  0.7591
    5SAPS  H11B  544   1.638   4.444   6.668  2.9997  3.0763  0.8642
    5SAPS     P  545   1.434   4.391   6.464  0.1332 -0.0067  0.2265
    5SAPS   O13  546   1.387   4.278   6.381  0.5121 -0.3826  0.7691
    5SAPS   O14  547   1.377   4.416   6.597 -0.0347  0.3141 -0.2178
    5SAPS   O12  548   1.593   4.371   6.470 -0.0637  0.2740  0.4435
    5SAPS   O11  549   1.411   4.530   6.386 -0.5980  0.1078 -0.5596
    5SAPS    C1  550   1.278   4.551   6.334  0.1195 -0.0639 -0.2311
    5SAPS    HA  551   1.207   4.477   6.376  3.2507 -2.6453  0.9336
    5SAPS    HB  552   1.240   4.653   6.356 -0.3757 -0.6826  1.9707
    5SAPS    C2  553   1.278   4.529   6.177 -0.0569 -0.2413  0.0806
    5SAPS    HS  554   1.359   4.454   6.165  0.2328  0.1619 -0.5266
    5SAPS   O21  555   1.297   4.655   6.115 -0.1196  0.9688  0.2670
    5SAPS   C21  556   1.424   4.689   6.094 -0.4435  0.5939 -0.3913
    5SAPS   O22  557   1.517   4.615   6.120  0.1193  0.0213  0.0896
    5SAPS   C22  558   1.438   4.824   6.030 -0.2383  0.0872  0.0842
    5SAPS   H2R  559   1.457   4.907   6.101  2.4955  0.0470 -0.5133
    5SAPS   H2S  560   1.529   4.810   5.968 -2.0935 -3.5552 -2.1479
    5SAPS    C3  561   1.144   4.465   6.124  0.6247  0.0305 -0.2339
    5SAPS    HX  562   1.070   4.546   6.139  0.6894  0.1102 -0.3503
    5SAPS    HY  563   1.115   4.380   6.190  0.0751  1.0746  0.9063
    5SAPS   O31  564   1.142   4.454   5.978 -0.7563  0.5636 -0.0977
    5SAPS   C31  565   1.196   4.338   5.931 -0.5442 -0.2594 -0.0474
    5SAPS   O32  566   1.239   4.246   6.004  0.4493  0.0202  0.4237
    5SAPS   C32  567   1.184   4.332   5.781  0.1534 -0.5630  0.8426
    5SAPS   H2X  568   1.267   4.395   5.741  0.3341 -0.6876  1.0232
    5SAPS   H2Y  569   1.085   4.373   5.750  1.9825  1.7961 -2.6441
    5SAPS   C23  570   1.322   4.871   5.943  0.9748  0.0087  0.1426
    5SAPS   H3R  571   1.233   4.877   6.010 -0.4519 -2.9887 -1.2946
    5SAPS   H3S  572   1.313   4.791   5.867  1.9395  0.6324 -0.6617
    5SAPS   C24  573   1.349   5.000   5.871 -0.0849  1.3306  0.6002
    5SAPS   H4R  574   1.451   4.985   5.831 -1.0897 -1.7370 -1.1670
    5SAPS   H4S  575   1.357   5.073   5.955  1.7913  1.4488  0.3512
    5SAPS   C25  576   1.249   5.050   5.770 -0.2876 -0.5128 -0.5187
    5SAPS   H5R  577   1.156   5.084   5.819  0.9205  3.2466 -0.5363
    5SAPS   C26  578   1.268   5.084   5.639  0.2073 -0.0742  0.0415
    5SAPS   H6R  579   1.178   5.104   5.578  1.1340  3.1064 -0.4737
    5SAPS   C27  580   1.395   5.064   5.565 -0.5557  0.2722 -0.0164
    5SAPS   H7R  581   1.404   4.956   5.541  0.0003  0.6431 -1.5884
    5SAPS   H7S  582   1.482   5.093   5.627 -0.0728 -0.0915 -0.5123
    5SAPS   C28  583   1.402   5.148   5.440  0.6303 -0.3454  0.3178
    5SAPS   H8R  584   1.455   5.243   5.454  0.8540 -0.4851  0.4332
    5SAPS   C29  585   1.340   5.108   5.319 -0.2490 -0.4787 -1.0946
    5SAPS   H9R  586   1.363   5.166   5.229  2.1633 -1.7972 -1.4014
    5SAPS  C210  587   1.275   4.977   5.290  0.1694 -0.1207 -0.0384
    5SAPS  H10R  588   1.231   4.934   5.382  1.1309 -0.5505  0.2347
    5SAPS  H10S  589   1.351   4.907   5.248  0.3970  0.1322 -0.0507
    5SAPS  C211  590   1.174   4.994   5.184 -0.7098  0.1513  0.1637
    5SAPS  H11R  591   1.166   5.092   5.135  2.2225  0.0888 -0.5698
    5SAPS  C212  592   1.089   4.901   5.135 -0.3213 -0.0819 -0.5343
    5SAPS  H12R  593   1.029   4.920   5.044 -2.5868 -3.1003  0.1689
    5SAPS  C213  594   1.082   4.749   5.165  0.2691 -0.5016  0.0333
    5SAPS  H13R  595   0.979   4.718   5.140 -0.4815  2.1056 -0.4261
    5SAPS  H13S  596   1.103   4.727   5.272  1.7430 -3.3770 -0.7444
    5SAPS  C214  597   1.189   4.683   5.086  0.1269  0.1690 -0.7472
    5SAPS  H14R  598   1.292   4.720   5.086  0.4865 -0.7869 -0.4818
    5SAPS  C215  599   1.160   4.577   5.011 -0.5090 -1.0250  0.3567
    5SAPS  H15R  600   1.245   4.546   4.949  0.4672  1.2326  0.4797
    5SAPS  C216  601   1.033   4.519   4.970  0.2587 -0.2721 -1.1002
    5SAPS  H16R  602   0.945   4.550   5.030  0.5140 -1.4341 -0.0917
    5SAPS  H16S  603   1.039   4.411   4.995  1.8007  0.4331  2.1518
    5SAPS  C217  604   0.994   4.538   4.821  0.4959  0.3608  0.1680
    5SAPS  H17R  605   0.903   4.483   4.792 -0.7092  2.5749 -0.5196
    5SAPS  H17S  606   1.077   4.522   4.748 -0.3890 -0.1393 -0.7560
    5SAPS  C218  607   0.939   4.682   4.806 -0.2301  0.0446  0.2090
    5SAPS  H18R  608   1.010   4.752   4.856  0.4182  0.4631 -1.2333
    5SAPS  H18S  609   0.844   4.695   4.861  0.0372  0.8824  0.4964
    5SAPS  C219  610   0.926   4.730   4.656 -0.5695  0.6174 -0.5011
    5SAPS  H19R  611   0.871   4.652   4.599 -0.6488 -0.4576  0.9608
    5SAPS  H19S  612   1.033   4.734   4.626 -0.4094  0.3758  0.0183
    5SAPS  C220  613   0.855   4.861   4.643 -0.2333  0.7056  0.0711
    5SAPS  H20R  614   0.841   4.886   4.536  2.5235  1.9848 -0.0657
    5SAPS  H20S  615   0.919   4.936   4.695  0.6741 -0.7949  1.2260
    5SAPS  H20T  616   0.757   4.847   4.694  0.1492 -3.3124  0.0460
    5SAPS   C33  617   1.205   4.186   5.729 -0.2591  0.1623 -0.0925
    5SAPS   H3X  618   1.148   4.115   5.793 -0.7438  1.3540  0.8204
    5SAPS   H3Y  619   1.313   4.159   5.728 -0.2692 -0.0456  1.5670
    5SAPS   C34  620   1.171   4.173   5.577  0.2172  0.1174  0.0836
    5SAPS   H4X  621   1.233   4.249   5.526  0.5921 -0.3863 -0.2266
    5SAPS   H4Y  622   1.066   4.196   5.549  0.6079  0.1072 -1.4692
    5SAPS   C35  623   1.191   4.028   5.535  0.1986 -0.0102 -0.0883
    5SAPS   H5X  624   1.157   3.950   5.607  1.2913 -0.5473 -0.1402
    5SAPS   H5Y  625   1.301   4.013   5.526  0.2206 -0.1869  0.4314
    5SAPS   C36  626   1.143   3.995   5.393  0.2119  0.4348  0.6796
    5SAPS   H6X  627   1.041   4.038   5.389 -0.0557  0.1157  3.0104
    5SAPS   H6Y  628   1.140   3.887   5.366  0.3454  1.1512 -2.6488
    5SAPS   C37  629   1.239   4.051   5.281 -0.0738  0.0121  0.3035
    5SAPS   H7X  630   1.336   3.997   5.283 -0.9368 -1.8621 -2.6805
    5SAPS   H7Y  631   1.257   4.158   5.306 -0.3673  0.4831 -1.4024
    5SAPS   C38  632   1.177   4.051   5.142 -0.0910  0.4872  0.0823
    5SAPS   H8X  633   1.102   4.132   5.143  2.1808  2.7443 -0.7053
    5SAPS   H8Y  634   1.122   3.958   5.119  1.9284 -0.4249 -1.4495
    5SAPS   C39  635   1.278   4.108   5.036 -0.1244 -0.3828 -0.3539
    5SAPS   H9X  636   1.352   4.030   5.009 -2.1251 -2.0038 -1.3216
    5SAPS   H9Y  637   1.340   4.189   5.081  1.0372 -1.3224 -0.1929
    5SAPS  C310  638   1.220   4.156   4.903  0.0818  0.2330  0.0352
    5SAPS  H10X  639   1.154   4.245   4.915  0.3209  0.3057  0.9693
    5SAPS  H10Y  640   1.153   4.077   4.865  1.2471  0.9349 -3.8767
    5SAPS  C311  641   1.331   4.189   4.799  1.0018 -0.4137  0.1796
    5SAPS  H11X  642   1.382   4.093   4.777  3.3803  0.9800 -0.6617
    5SAPS  H11Y  643   1.400   4.258   4.852 -0.0312 -0.6364  1.9178
    5SAPS  C312  644   1.282   4.258   4.666 -0.1248 -0.5684 -0.3631
    5SAPS  H12X  645   1.377   4.278   4.611  0.6308  1.3932  1.5440
    5SAPS  H12Y  646   1.240   4.359   4.678  0.2593 -0.4795  0.2792
    5SAPS  C313  647   1.187   4.177   4.579  0.9813  0.4483  0.1514
    5SAPS  H13X  648   1.086   4.190   4.625  1.3773  0.4357  1.0477
    5SAPS  H13Y  649   1.225   4.074   4.590  0.5861  0.4879  2.4416
    5SAPS  C314  650   1.178   4.208   4.427 -0.1959  0.1800 -0.3106
    5SAPS  H14X  651   1.284   4.211   4.394 -0.2788 -1.6932 -0.8340
    5SAPS  H14Y  652   1.147   4.314   4.410  0.9225  0.5397 -0.1547
    5SAPS  C315  653   1.089   4.106   4.358 -0.2293  0.4061  0.0902
    5SAPS  H15X  654   1.079   4.138   4.252 -0.3566  1.0586  0.2942
    5SAPS  H15Y  655   0.989   4.101   4.406  1.2741 -1.0566  3.3555
    5SAPS  C316  656   1.147   3.959   4.352 -0.0714 -0.3197 -0.3781
    5SAPS  H16X  657   1.170   3.920   4.453 -1.0867 -2.4126 -0.8799
    5SAPS  H16Y  658   1.244   3.972   4.298 -0.9063 -0.3363 -1.9499
    5SAPS  C317  659   1.052   3.860   4.285 -0.1038 -0.4220  0.3362
    5SAPS  H17X  660   1.101   3.761   4.281 -1.6689 -1.2171  0.3685
    5SAPS  H17Y  661   1.042   3.889   4.178  0.5561  1.0165  0.6416
    5SAPS  C318  662   0.922   3.851   4.357  0.8429  0.4108  0.6218
    5SAPS  H18X  663   0.854   3.936   4.335 -1.5581 -1.1177  1.7594
    5SAPS  H18Y  664   0.942   3.826   4.463 -0.6124  0.0058  0.8290
    5SAPS  H18Z  665   0.875   3.753   4.331  0.6213 -0.0367  2.5549
    6SAPS     N  666   3.172   3.338   6.416 -0.5918  0.2022  0.6560
    6SAPS   HN1  667   3.158   3.272   6.337  0.7775  1.2676 -0.5405
    6SAPS   HN2  668   3.196   3.432   6.378  0.8443 -0.9589 -1.5247
    6SAPS   HN3  669   3.252   3.306   6.474  1.0879 -1.1042 -2.1994
    6SAPS   C12  670   3.057   3.329   6.498  0.1380 -0.8231 -0.6638
    6SAPS  H12A  671   2.976   3.362   6.434  0.0993 -2.4477 -1.5226
    6SAPS   C13  672   3.035   3.185   6.538 -0.3425 -0.7036 -0.5518
    6SAPS  O13A  673   3.115   3.091   6.505  0.4920  0.0323 -0.4447
    6SAPS  O13B  674   2.936   3.157   6.611 -0.1057 -0.1947  0.8335
    6SAPS   C11  675   3.077   3.425   6.620 -0.2604 -0.4206 -0.8713
    6SAPS  H11A  676   3.178   3.414   6.665 -0.9698 -4.4867  0.0969
    6SAPS  H11B  677   3.009   3.388   6.699  0.8396  2.2607  1.4994
    6SAPS     P  678   3.158   3.663   6.555 -0.0811  0.2097  0.1521
    6SAPS   O13  679   3.219   3.706   6.679 -0.1325 -1.0968 -0.5425
    6SAPS   O14  680   3.244   3.587   6.452  0.5813  0.3449 -0.0501
    6SAPS   O12  681   3.039   3.559   6.587  0.5512 -0.0481  0.0454
    6SAPS   O11  682   3.074   3.783   6.493 -0.7006  0.3893 -0.3140
    6SAPS    C1  683   2.993   3.774   6.375  0.2553 -0.6008  0.3868
    6SAPS    HA  684   2.956   3.671   6.353 -3.5121  0.5040  0.8966
    6SAPS    HB  685   2.894   3.822   6.387  0.5260  0.8505 -2.2779
    6SAPS    C2  686   3.054   3.834   6.242  0.5906 -0.0800 -0.3003
    6SAPS    HS  687   3.138   3.766   6.218  2.9687  1.8664  1.9507
    6SAPS   O21  688   3.102   3.963   6.277  0.0175  0.4749 -0.7101
    6SAPS   C21  689   3.206   3.992   6.208 -0.0725 -0.6009 -0.6639
    6SAPS   O22  690   3.262   3.924   6.125 -0.7402  0.2794 -0.3700
    6SAPS   C22  691   3.258   4.127   6.251  0.0857 -0.0126  0.1031
    6SAPS   H2R  692   3.165   4.186   6.267  0.5251  0.8305 -0.3318
    6SAPS   H2S  693   3.304   4.127   6.352 -0.0998 -0.1567  0.1878
    6SAPS    C3  694   2.942   3.844   6.133 -0.3479 -0.0316 -0.3036
    6SAPS    HX  695   2.867   3.922   6.157  0.3641  0.5144  0.1624
    6SAPS    HY  696   2.883   3.750   6.139 -0.9959  0.4374  1.3560
    6SAPS   O31  697   2.975   3.880   5.997 -0.2161 -0.1560  0.3084
    6SAPS   C31  698   3.044   3.780   5.932 -0.2110  0.2324  0.4121
    6SAPS   O32  699   3.066   3.669   5.980 -0.2029  0.3537 -0.5414
    6SAPS   C32  700   3.099   3.831   5.802  0.0391 -0.1585 -1.0895
    6SAPS   H2X  701   3.193   3.775   5.786 -1.3966 -2.3819 -2.2736
    6SAPS   H2Y  702   3.126   3.938   5.817 -0.3621 -0.0058 -1.4233
    6SAPS   C23  703   3.341   4.195   6.143 -0.5436  0.1325  0.5126
    6SAPS   H3R  704   3.293   4.171   6.045 -1.6913  1.1659  0.8014
    6SAPS   H3S  705   3.446   4.159   6.148 -0.6769 -0.0479  3.2155
    6SAPS   C24  706   3.325   4.348   6.162 -0.2286  0.2549 -0.2616
    6SAPS   H4R  707   3.365   4.380   6.261  1.4560 -2.2043 -0.0591
    6SAPS   H4S  708   3.219   4.376   6.147 -0.7024 -1.4871 -0.3321
    6SAPS   C25  709   3.401   4.425   6.052 -0.5008 -1.0534  0.0603
    6SAPS   H5R  710   3.511   4.424   6.054 -0.4221  0.5675  2.8213
    6SAPS   C26  711   3.350   4.506   5.960  0.1917 -0.8710 -0.7126
    6SAPS   H6R  712   3.419   4.572   5.905  0.8819 -0.2293  0.8486
    6SAPS   C27  713   3.208   4.536   5.932  0.2572  0.0781 -0.6282
    6SAPS   H7R  714   3.213   4.636   5.883  1.1624  0.6100  0.4992
    6SAPS   H7S  715   3.160   4.533   6.032  1.4360 -0.3253 -0.0481
    6SAPS   C28  716   3.131   4.425   5.865 -0.3002 -0.5105  0.6696
    6SAPS   H8R  717   3.086   4.361   5.942 -1.2698  2.1864  2.4873
    6SAPS   C29  718   3.115   4.409   5.729  0.0163 -0.1785 -0.1456
    6SAPS   H9R  719   3.054   4.329   5.683 -1.9471  0.6042  0.9420
    6SAPS  C210  720   3.173   4.509   5.627  0.4669 -0.6171  0.6479
    6SAPS  H10R  721   3.190   4.455   5.531 -0.4503 -0.3702  0.3429
    6SAPS  H10S  722   3.273   4.532   5.669 -0.1971  1.7023  1.0707
    6SAPS  C211  723   3.089   4.623   5.600  0.5475 -0.0148  0.0078
    6SAPS  H11R  724   3.057   4.665   5.697  1.5816 -0.9914  0.8030
    6SAPS  C212  725   3.076   4.686   5.474  0.2504  0.1224 -1.5220
    6SAPS  H12R  726   3.005   4.770   5.472  1.8000  1.5222 -0.3646
    6SAPS  C213  727   3.142   4.649   5.343 -0.7352  0.2996  0.3201
    6SAPS  H13R  728   3.142   4.540   5.320  0.7350 -0.4144  3.3121
    6SAPS  H13S  729   3.247   4.686   5.341 -1.2117  1.7028 -1.1650
    6SAPS  C214  730   3.062   4.718   5.238 -0.6501  0.3788 -0.2721
    6SAPS  H14R  731   2.956   4.736   5.260 -0.9444  0.9654 -2.0502
    6SAPS  C215  732   3.109   4.766   5.120  0.3393 -0.3157  0.1108
    6SAPS  H15R  733   3.025   4.805   5.061 -0.6394 -1.5532  0.6502
    6SAPS  C216  734   3.251   4.770   5.057 -0.1377  0.1319  0.2074
    6SAPS  H16R  735   3.317   4.764   5.146 -2.4109 -0.5126  1.9483
    6SAPS  H16S  736   3.259   4.873   5.015  2.5033 -1.0957 -2.7409
    6SAPS  C217  737   3.291   4.674   4.949 -0.0489 -0.0286  0.1009
    6SAPS  H17R  738   3.286   4.578   5.005 -1.6884 -0.2292 -0.3565
    6SAPS  H17S  739   3.395   4.692   4.914  0.6973  1.4524  2.7593
    6SAPS  C218  740   3.188   4.668   4.831 -0.3385  0.1131  0.0286
    6SAPS  H18R  741   3.085   4.658   4.870 -1.1515 -1.7117 -2.3593
    6SAPS  H18S  742   3.212   4.576   4.773 -0.3501  0.2633 -0.2147
    6SAPS  C219  743   3.190   4.789   4.735  0.3998 -0.4453  0.0868
    6SAPS  H19R  744   3.285   4.782   4.679 -0.5051 -2.1127 -1.3774
    6SAPS  H19S  745   3.194   4.886   4.789 -1.9450 -1.2551  1.9032
    6SAPS  C220  746   3.080   4.806   4.631 -0.4281 -0.1997  0.0209
    6SAPS  H20R  747   2.993   4.846   4.687 -2.0561  0.4339 -2.7616
    6SAPS  H20S  748   3.044   4.717   4.574  0.9246 -1.5792  1.2091
    6SAPS  H20T  749   3.115   4.887   4.564  0.8120 -1.6897 -1.2288
    6SAPS   C33  750   3.004   3.796   5.683  0.3067 -0.2627 -0.0087
    6SAPS   H3X  751   2.907   3.845   5.707 -0.2207 -1.8610  1.2807
    6SAPS   H3Y  752   2.980   3.688   5.693 -2.1416  0.3151  1.3366
    6SAPS   C34  753   3.053   3.839   5.547 -0.9508  0.0670  0.1636
    6SAPS   H4X  754   3.140   3.774   5.523 -2.0247 -1.7114  0.9378
    6SAPS   H4Y  755   3.082   3.946   5.536 -1.0567  0.0530 -0.2733
    6SAPS   C35  756   2.953   3.817   5.433  0.0087 -0.7365 -0.6218
    6SAPS   H5X  757   2.853   3.854   5.466  0.0605  0.1177 -1.4045
    6SAPS   H5Y  758   2.942   3.707   5.422  0.2006 -0.7940 -0.2834
    6SAPS   C36  759   3.009   3.872   5.301 -0.1737  0.1026 -0.3005
    6SAPS   H6X  760   3.100   3.816   5.271  0.0112 -0.0607  0.5379
    6SAPS   H6Y  761   3.033   3.980   5.303  0.1992  0.0189 -0.0758
    6SAPS   C37  762   2.898   3.862   5.197  0.4483 -0.3037  0.3107
    6SAPS   H7X  763   2.809   3.915   5.237 -0.3582 -1.2970 -0.1156
    6SAPS   H7Y  764   2.875   3.755   5.178  4.8037 -1.1564 -1.3919
    6SAPS   C38  765   2.945   3.935   5.073  0.3801  0.9568 -0.6444
    6SAPS   H8X  766   3.054   3.915   5.061  0.1141  0.5473 -2.6657
    6SAPS   H8Y  767   2.937   4.044   5.094 -1.4543  0.4207  1.8924
    6SAPS   C39  768   2.863   3.897   4.945  0.4093  0.7374 -0.0132
    6SAPS   H9X  769   2.755   3.916   4.961  0.1630 -1.6515  1.6952
    6SAPS   H9Y  770   2.870   3.791   4.915 -2.0335  0.9499 -1.6023
    6SAPS  C310  771   2.918   3.984   4.828 -0.2664  0.1477 -0.6928
    6SAPS  H10X  772   2.908   4.088   4.864 -0.9934 -0.1956  0.1375
    6SAPS  H10Y  773   2.848   3.976   4.741 -2.4892 -1.1637  1.0943
    6SAPS  C311  774   3.055   3.957   4.777 -0.4841 -0.6098 -0.0589
    6SAPS  H11X  775   3.126   4.000   4.851 -1.2320  0.6493 -0.0522
    6SAPS  H11Y  776   3.077   4.023   4.691  1.6908 -1.6133 -0.3327
    6SAPS  C312  777   3.088   3.808   4.745 -0.2948  0.1494  0.2237
    6SAPS  H12X  778   3.011   3.778   4.670  1.6968 -0.0268 -1.8764
    6SAPS  H12Y  779   3.081   3.738   4.831  1.0873  0.1364  0.3440
    6SAPS  C313  780   3.231   3.795   4.675  0.3236 -0.8665  0.0411
    6SAPS  H13X  781   3.312   3.787   4.750 -0.2543 -0.3172  0.7389
    6SAPS  H13Y  782   3.249   3.879   4.605  0.5034 -2.4801 -1.9748
    6SAPS  C314  783   3.226   3.673   4.582 -0.5442  0.8549 -0.2065
    6SAPS  H14X  784   3.321   3.662   4.526 -0.3599 -0.0233  0.2567
    6SAPS  H14Y  785   3.156   3.684   4.496 -0.5473  0.3810 -0.2684
    6SAPS  C315  786   3.204   3.542   4.655  0.4009  0.1467 -0.2166
    6SAPS  H15X  787   3.097   3.530   4.683  0.8370 -1.4744  0.9630
    6SAPS  H15Y  788   3.272   3.537   4.743  1.2786 -0.3449 -0.9101
    6SAPS  C316  789   3.220   3.413   4.579  0.0706  0.8866 -0.0576
    6SAPS  H16X  790   3.147   3.415   4.495  0.5439  0.2753 -0.4933
    6SAPS  H16Y  791   3.186   3.321   4.633  1.1695  0.3330 -0.2749
    6SAPS  C317  792   3.360   3.396   4.533  0.6644 -0.1133 -0.5446
    6SAPS  H17X  793   3.434   3.396   4.615 -1.1243  0.8895  1.1602
    6SAPS  H17Y  794   3.380   3.477   4.460  1.3403 -0.0827 -0.3308
    6SAPS  C318  795   3.370   3.270   4.443 -0.5152 -0.5775  0.1056
    6SAPS  H18X  796   3.318   3.183   4.489  0.5699 -1.4056 -0.1984
    6SAPS  H18Y  797   3.473   3.239   4.418 -1.2695 -2.6629 -0.6020
    6SAPS  H18Z  798   3.308   3.280   4.351 -0.7170 -1.2778  0.1653
    7SAPS     N  799   5.709   4.679   6.617  0.2534  0.4996 -0.2691
    7SAPS   HN1  800   5.785   4.648   6.682 -0.9243  0.4743  1.1392
    7SAPS   HN2  801   5.733   4.768   6.567  1.4830  0.1623 -0.3310
    7SAPS   HN3  802   5.619   4.700   6.664  0.0308  0.1287 -0.5200
    7SAPS   C12  803   5.679   4.569   6.505  0.1982 -0.1989 -0.4033
    7SAPS  H12A  804   5.768   4.551   6.447 -0.6051 -1.3500 -1.3394
    7SAPS   C13  805   5.634   4.430   6.567 -0.2223  0.3449  0.4234
    7SAPS  O13A  806   5.594   4.412   6.683  0.8793 -0.5548 -0.4281
    7SAPS  O13B  807   5.632   4.339   6.479  0.0517  0.0763  0.3544
    7SAPS   C11  808   5.567   4.622   6.404  0.1716  1.1994 -0.4624
    7SAPS  H11A  809   5.550   4.535   6.337  0.1710  0.4373  0.4901
    7SAPS  H11B  810   5.601   4.704   6.337  2.9961  0.0730 -0.5244
    7SAPS     P  811   5.301   4.662   6.436 -0.0900 -0.1952 -0.0339
    7SAPS   O13  812   5.236   4.548   6.505  0.1870 -0.2361  0.8029
    7SAPS   O14  813   5.241   4.798   6.444  0.2367 -0.1497  0.1887
    7SAPS   O12  814   5.453   4.664   6.480  0.2798 -0.0422 -0.0030
    7SAPS   O11  815   5.314   4.629   6.277 -0.1173 -0.0949 -0.8186
    7SAPS    C1  816   5.208   4.560   6.217  0.3059  0.5783 -0.0289
    7SAPS    HA  817   5.208   4.457   6.260  0.3602  1.3285  1.8827
    7SAPS    HB  818   5.106   4.599   6.240 -0.5129 -2.5353  2.3097
    7SAPS    C2  819   5.226   4.554   6.060  0.1212  0.1805  0.1534
    7SAPS    HS  820   5.152   4.482   6.020 -0.3090 -0.8441  2.6040
    7SAPS   O21  821   5.364   4.522   6.013 -0.4206 -0.2902 -0.8387
    7SAPS   C21  822   5.402   4.403   6.057 -0.1253 -1.4084  0.4294
    7SAPS   O22  823   5.334   4.317   6.110 -0.4479 -0.0478  0.2851
    7SAPS   C22  824   5.547   4.399   6.034  0.1663 -1.1296  0.2005
    7SAPS   H2R  825   5.594   4.485   5.981  1.8095 -3.3565 -2.2551
    7SAPS   H2S  826   5.598   4.391   6.132 -0.9812  1.1198  1.0345
    7SAPS    C3  827   5.176   4.686   5.995 -1.0060 -0.2162 -0.5133
    7SAPS    HX  828   5.230   4.765   6.051 -0.5674  0.1366 -1.4188
    7SAPS    HY  829   5.070   4.699   6.027 -1.3609 -1.4417 -1.1130
    7SAPS   O31  830   5.181   4.684   5.851  0.0538 -0.3425 -0.0989
    7SAPS   C31  831   5.138   4.795   5.790 -0.4413  0.0523  0.6945
    7SAPS   O32  832   5.094   4.896   5.843 -0.9283 -0.2666 -0.3420
    7SAPS   C32  833   5.166   4.774   5.636 -1.0474 -0.0426  0.1922
    7SAPS   H2X  834   5.091   4.694   5.617  0.1330 -1.1951  0.2551
    7SAPS   H2Y  835   5.264   4.722   5.627 -1.4556 -0.5724 -1.4959
    7SAPS   C23  836   5.576   4.274   5.939  0.6472  0.1144 -0.6832
    7SAPS   H3R  837   5.546   4.186   6.000  1.4189  0.3556  0.0679
    7SAPS   H3S  838   5.686   4.266   5.934  0.8457  1.9635  0.0347
    7SAPS   C24  839   5.502   4.272   5.808  0.7456 -0.2557  0.0867
    7SAPS   H4R  840   5.541   4.363   5.759  0.6968 -0.2067  0.1378
    7SAPS   H4S  841   5.393   4.282   5.830  1.3064  0.2746  3.0353
    7SAPS   C25  842   5.517   4.154   5.720 -0.2467  0.9337 -0.1621
    7SAPS   H5R  843   5.520   4.061   5.778 -1.3619  1.3201  0.5463
    7SAPS   C26  844   5.539   4.156   5.583  0.7261  0.4220 -0.5847
    7SAPS   H6R  845   5.533   4.063   5.525  1.4579 -0.7080  1.0718
    7SAPS   C27  846   5.544   4.288   5.500  0.1277 -0.0720 -0.1041
    7SAPS   H7R  847   5.578   4.260   5.398 -0.6575  0.6691 -0.5797
    7SAPS   H7S  848   5.636   4.339   5.534  0.6297 -1.7532  1.2209
    7SAPS   C28  849   5.416   4.367   5.498 -0.7212  0.1392 -0.3310
    7SAPS   H8R  850   5.405   4.453   5.565  0.4594  1.3851 -1.6602
    7SAPS   C29  851   5.311   4.341   5.420 -0.0918 -0.8662  0.0937
    7SAPS   H9R  852   5.225   4.406   5.438  0.7681  0.8016 -1.5046
    7SAPS  C210  853   5.302   4.237   5.315 -0.0100 -0.3589  0.2860
    7SAPS  H10R  854   5.403   4.211   5.277  1.0036  1.2712  1.7025
    7SAPS  H10S  855   5.259   4.279   5.222  0.3232 -0.0198  0.2822
    7SAPS  C211  856   5.226   4.108   5.349  0.2370 -0.6511 -0.6105
    7SAPS  H11R  857   5.197   4.101   5.455 -1.1440 -0.5987 -0.9583
    7SAPS  C212  858   5.176   4.018   5.266 -0.7076  0.0372  0.4354
    7SAPS  H12R  859   5.121   3.932   5.306 -0.3879 -0.7302 -0.7263
    7SAPS  C213  860   5.189   4.020   5.116 -0.2387 -0.0970 -0.1895
    7SAPS  H13R  861   5.278   4.074   5.079 -1.3611  2.2567  0.3161
    7SAPS  H13S  862   5.092   4.073   5.100 -1.0649 -1.3165  0.6223
    7SAPS  C214  863   5.172   3.890   5.042  0.0872 -0.5038 -0.0840
    7SAPS  H14R  864   5.203   3.802   5.101  1.6296 -0.6267 -1.0230
    7SAPS  C215  865   5.141   3.882   4.908  0.1349  0.2428 -0.3622
    7SAPS  H15R  866   5.124   3.784   4.860  2.3474  0.6654 -2.1828
    7SAPS  C216  867   5.127   3.998   4.811 -0.0518  0.3584  0.1092
    7SAPS  H16R  868   5.211   4.067   4.831  0.3830  0.3677 -1.5958
    7SAPS  H16S  869   5.040   4.059   4.844  1.2657  1.3986  1.8132
    7SAPS  C217  870   5.131   3.959   4.662  0.4013 -0.1280  0.3585
    7SAPS  H17R  871   5.227   3.909   4.639 -0.8371 -1.7860 -1.5562
    7SAPS  H17S  872   5.150   4.053   4.607  1.9219 -0.2556  0.6342
    7SAPS  C218  873   5.010   3.873   4.609 -0.0896  0.1137 -0.1320
    7SAPS  H18R  874   4.914   3.928   4.618 -1.0946 -1.3514 -1.3106
    7SAPS  H18S  875   5.005   3.775   4.661 -0.6995  0.0213 -0.3622
    7SAPS  C219  876   5.027   3.829   4.460 -0.1458 -0.4142  0.2973
    7SAPS  H19R  877   4.933   3.778   4.429 -0.0732  0.0103 -0.6654
    7SAPS  H19S  878   5.116   3.762   4.448 -0.7591 -1.3857  1.0355
    7SAPS  C220  879   5.038   3.945   4.356 -0.0434 -0.5990 -0.4426
    7SAPS  H20R  880   5.028   3.909   4.251 -2.0901 -2.1221  0.2182
    7SAPS  H20S  881   5.137   3.995   4.368  0.3863 -1.8602  1.8692
    7SAPS  H20T  882   4.959   4.021   4.372 -0.0462 -0.4401 -1.1517
    7SAPS   C33  883   5.155   4.893   5.544 -0.4336  0.0794  0.6014
    7SAPS   H3X  884   5.236   4.964   5.568  1.1904 -1.2097 -0.7697
    7SAPS   H3Y  885   5.054   4.937   5.553 -2.0169 -2.7644 -1.4261
    7SAPS   C34  886   5.163   4.857   5.386  0.8375 -0.6923 -0.5173
    7SAPS   H4X  887   5.142   4.948   5.326 -0.8724 -0.8450 -0.1905
    7SAPS   H4Y  888   5.076   4.789   5.373  1.6878 -1.5099 -2.5010
    7SAPS   C35  889   5.293   4.773   5.346 -0.3755 -0.0890 -0.0515
    7SAPS   H5X  890   5.274   4.736   5.243  0.3484  2.7194 -1.3132
    7SAPS   H5Y  891   5.315   4.693   5.420 -2.3029 -0.5686  0.0560
    7SAPS   C36  892   5.424   4.859   5.331 -0.0094 -0.3854  0.0468
    7SAPS   H6X  893   5.455   4.871   5.437  1.3995 -1.3168 -0.2401
    7SAPS   H6Y  894   5.396   4.963   5.303 -3.6838 -0.9502  1.0814
    7SAPS   C37  895   5.517   4.791   5.228 -0.3468 -0.1203  0.4171
    7SAPS   H7X  896   5.600   4.865   5.221  0.2192 -0.4362  2.7029
    7SAPS   H7Y  897   5.467   4.785   5.129  1.2100 -0.7472 -0.3605
    7SAPS   C38  898   5.578   4.659   5.283  0.1668  0.1364  0.1498
    7SAPS   H8X  899   5.496   4.612   5.342  0.1012  1.2303  0.9649
    7SAPS   H8Y  900   5.663   4.685   5.348  0.8381 -1.2891 -0.1148
    7SAPS   C39  901   5.650   4.564   5.191  0.1973  0.1456  0.7329
    7SAPS   H9X  902   5.691   4.497   5.270  0.3655  2.0994  2.3638
    7SAPS   H9Y  903   5.728   4.617   5.133 -0.1494  0.7383  0.8019
    7SAPS  C310  904   5.567   4.477   5.102  0.1087 -0.7063  0.6314
    7SAPS  H10X  905   5.538   4.531   5.010 -1.9673 -0.2863  1.4784
    7SAPS  H10Y  906   5.474   4.449   5.156 -0.6083  1.1305  0.4252
    7SAPS  C311  907   5.635   4.341   5.067  0.4479  0.4927 -0.2616
    7SAPS  H11X  908   5.654   4.289   5.162  0.1909  2.5610  0.9926
    7SAPS  H11Y  909   5.736   4.367   5.026  0.7938  1.1167  0.9436
    7SAPS  C312  910   5.549   4.261   4.972 -0.4960 -0.9637 -0.5189
    7SAPS  H12X  911   5.548   4.296   4.867 -1.4475  1.0658  0.1092
    7SAPS  H12Y  912   5.448   4.275   5.017  0.4670 -0.2056  1.5411
    7SAPS  C313  913   5.578   4.109   4.978 -0.0271 -0.0442 -0.3137
    7SAPS  H13X  914   5.505   4.070   4.904  0.4291  2.4034 -2.1805
    7SAPS  H13Y  915   5.553   4.072   5.079 -1.2316 -3.4547 -1.7172
    7SAPS  C314  916   5.720   4.085   4.936 -0.4957  1.0351  0.2704
    7SAPS  H14X  917   5.796   4.132   5.002  0.6424  0.1949 -0.3995
    7SAPS  H14Y  918   5.738   4.123   4.833  2.9555 -0.9442 -0.0101
    7SAPS  C315  919   5.751   3.936   4.916  0.6692  0.2540 -0.2606
    7SAPS  H15X  920   5.735   3.897   5.019  1.8710  0.0440 -0.1371
    7SAPS  H15Y  921   5.858   3.921   4.891  0.4743 -1.2515 -0.2747
    7SAPS  C316  922   5.678   3.859   4.816 -0.0777  0.5955 -0.1095
    7SAPS  H16X  923   5.567   3.857   4.824 -0.0144  1.6592  1.4643
    7SAPS  H16Y  924   5.708   3.752   4.820 -1.7839  0.0690 -0.3983
    7SAPS  C317  925   5.723   3.899   4.680 -0.2497 -0.2072  1.3948
    7SAPS  H17X  926   5.831   3.884   4.658 -0.4418  0.2259  0.0205
    7SAPS  H17Y  927   5.718   4.010   4.674 -1.2469 -0.1189  3.1384
    7SAPS  C318  928   5.641   3.836   4.574 -0.2897  0.1612 -0.3380
    7SAPS  H18X  929   5.687   3.857   4.476 -2.2369 -0.9429 -1.5463
    7SAPS  H18Y  930   5.543   3.888   4.574 -0.9891 -1.0850 -1.6306
    7SAPS  H18Z  931   5.622   3.726   4.574 -2.1924  0.3698  2.4376
    8SAPS     N  932   5.506   6.719   6.777 -0.5709 -0.1793 -0.1511
    8SAPS   HN1  933   5.443   6.753   6.701 -0.9060 -1.4137 -0.4469
    8SAPS   HN2  934   5.597   6.693   6.735 -1.4134  0.2804 -2.4218
    8SAPS   HN3  935   5.464   6.632   6.816 -2.2767  0.8924  0.5339
    8SAPS   C12  936   5.519   6.823   6.885  0.1272 -0.2000  0.1024
    8SAPS  H12A  937   5.425   6.857   6.925  1.0835  1.0026  1.4370
    8SAPS   C13  938   5.605   6.765   7.004  0.4870  0.3379 -0.2797
    8SAPS  O13A  939   5.638   6.643   7.006 -0.4088  0.6830 -0.0712
    8SAPS  O13B  940   5.608   6.831   7.111  0.1299 -0.2841 -0.4871
    8SAPS   C11  941   5.591   6.948   6.831  0.7479 -0.1396  0.3225
    8SAPS  H11A  942   5.691   6.917   6.795  0.1725 -0.5085 -1.0467
    8SAPS  H11B  943   5.622   7.020   6.909  0.8477  0.2547 -0.0743
    8SAPS     P  944   5.511   7.160   6.678  0.5929  0.0429 -0.0965
    8SAPS   O13  945   5.380   7.206   6.726  0.5167  0.2114 -0.0141
    8SAPS   O14  946   5.627   7.242   6.715  0.6234  0.0122  0.4127
    8SAPS   O12  947   5.536   7.006   6.716  0.4666  0.1270 -0.9181
    8SAPS   O11  948   5.505   7.141   6.520  0.5093  0.4321 -0.9360
    8SAPS    C1  949   5.501   7.016   6.455 -0.0100  0.7290  0.1633
    8SAPS    HA  950   5.449   6.938   6.514  1.3768  0.4277  1.0361
    8SAPS    HB  951   5.436   7.024   6.365  0.3247  0.7311 -0.0798
    8SAPS    C2  952   5.641   6.957   6.411 -0.3717 -0.1470 -0.1326
    8SAPS    HS  953   5.694   6.937   6.506  0.8295 -2.1738 -1.1613
    8SAPS   O21  954   5.715   7.051   6.337 -0.4839  0.1156 -0.3701
    8SAPS   C21  955   5.849   7.036   6.348 -0.2753  0.1616 -0.3610
    8SAPS   O22  956   5.905   6.953   6.420  0.1485 -0.0511 -0.6300
    8SAPS   C22  957   5.925   7.126   6.243  0.3245  0.8697  0.8743
    8SAPS   H2R  958   6.023   7.156   6.285 -0.3070  0.8109  2.4556
    8SAPS   H2S  959   5.936   7.057   6.157 -0.3775 -1.8555  2.8169
    8SAPS    C3  960   5.633   6.820   6.335 -0.2238  0.4316 -0.8065
    8SAPS    HX  961   5.566   6.758   6.398 -0.2455  2.6748  1.5582
    8SAPS    HY  962   5.726   6.760   6.346 -0.1443  0.9715  2.3340
    8SAPS   O31  963   5.572   6.836   6.205 -0.4998 -0.9605  0.0319
    8SAPS   C31  964   5.649   6.828   6.103 -0.8638  0.0657  0.3062
    8SAPS   O32  965   5.773   6.821   6.102  0.9060  0.1577 -0.1817
    8SAPS   C32  966   5.558   6.837   5.983  0.1937  0.4077  0.2101
    8SAPS   H2X  967   5.488   6.922   6.002 -0.3638 -0.4681  2.3103
    8SAPS   H2Y  968   5.492   6.747   5.982  0.3628  0.2707 -1.3614
    8SAPS   C23  969   5.846   7.251   6.195 -0.2434 -0.2063 -0.0696
    8SAPS   H3R  970   5.924   7.323   6.163  0.4993 -0.8520  0.2710
    8SAPS   H3S  971   5.796   7.300   6.281  1.7545  1.9356 -0.0361
    8SAPS   C24  972   5.753   7.232   6.080  0.1221 -0.1890 -0.3583
    8SAPS   H4R  973   5.692   7.139   6.078 -0.1385 -0.0934 -3.7579
    8SAPS   H4S  974   5.806   7.235   5.982 -3.1258  0.8956 -2.2193
    8SAPS   C25  975   5.664   7.361   6.065 -0.5467 -0.0887  0.2564
    8SAPS   H5R  976   5.714   7.449   6.107  0.9927 -0.2879 -1.0147
    8SAPS   C26  977   5.556   7.373   5.986  0.3981  0.7470  0.5075
    8SAPS   H6R  978   5.496   7.464   5.995 -0.2431  0.4873 -0.8858
    8SAPS   C27  979   5.501   7.264   5.905  0.0953  0.4912 -0.1965
    8SAPS   H7R  980   5.584   7.209   5.856 -1.1361 -1.3434 -0.3240
    8SAPS   H7S  981   5.453   7.316   5.819  0.3131  3.2236  1.2291
    8SAPS   C28  982   5.408   7.176   5.977  0.6237  0.6523 -0.6713
    8SAPS   H8R  983   5.422   7.172   6.086 -1.4133  1.0027 -0.3707
    8SAPS   C29  984   5.306   7.111   5.924  0.5899  0.0534 -1.0227
    8SAPS   H9R  985   5.256   7.048   5.998 -1.6851  2.2681 -0.5578
    8SAPS  C210  986   5.245   7.117   5.784  0.1540  0.2600  0.4023
    8SAPS  H10R  987   5.313   7.059   5.718  1.2533  1.9414  0.0139
    8SAPS  H10S  988   5.238   7.219   5.740  1.7144 -0.1746 -0.9471
    8SAPS  C211  989   5.107   7.056   5.775 -0.1424  0.3735 -0.2653
    8SAPS  H11R  990   5.044   7.073   5.864  1.6055  0.3408  1.0248
    8SAPS  C212  991   5.068   6.998   5.662  0.0650  0.0012  0.2708
    8SAPS  H12R  992   4.960   6.976   5.659 -0.2862  0.6130  3.6044
    8SAPS  C213  993   5.142   6.966   5.536 -0.0229 -0.0583  0.0453
    8SAPS  H13R  994   5.239   7.018   5.538 -0.6002  1.0409  1.2915
    8SAPS  H13S  995   5.083   7.019   5.459  0.3229 -1.1412 -0.9892
    8SAPS  C214  996   5.153   6.817   5.512  0.1677  0.0521 -0.1520
    8SAPS  H14R  997   5.157   6.753   5.602 -1.1975 -0.2521 -0.2927
    8SAPS  C215  998   5.142   6.762   5.392  0.2604 -0.1076  0.4105
    8SAPS  H15R  999   5.146   6.653   5.381 -2.5677 -0.3862  1.3878
    8SAPS  C216 1000   5.122   6.844   5.261 -0.4699  0.1433  0.5202
    8SAPS  H16R 1001   5.181   6.809   5.173 -1.2158  1.7503 -0.6646
    8SAPS  H16S 1002   5.159   6.948   5.266 -0.4965  0.1821 -0.0315
    8SAPS  C217 1003   4.977   6.833   5.212  0.8361  0.2636  0.1011
    8SAPS  H17R 1004   4.947   6.909   5.136 -2.4788  0.0980  1.0832
    8SAPS  H17S 1005   4.909   6.852   5.298 -0.5921 -1.9313 -0.4621
    8SAPS  C218 1006   4.929   6.696   5.157 -0.6913  0.3183 -0.6661
    8SAPS  H18R 1007   4.819   6.697   5.147 -0.7715  1.4358  0.1467
    8SAPS  H18S 1008   4.961   6.615   5.226 -0.4551  0.5245 -0.5317
    8SAPS  C219 1009   4.976   6.674   5.017 -0.3556  0.2319  0.0603
    8SAPS  H19R 1010   5.081   6.637   5.009 -0.8515 -0.8590 -1.9561
    8SAPS  H19S 1011   4.972   6.769   4.961 -1.0508  1.0348  1.4320
    8SAPS  C220 1012   4.893   6.559   4.953 -0.1281 -0.1044 -0.2459
    8SAPS  H20R 1013   4.895   6.479   5.030 -0.5401 -0.2624 -0.3962
    8SAPS  H20S 1014   4.952   6.519   4.868  0.5280 -0.4478  0.3563
    8SAPS  H20T 1015   4.791   6.594   4.928 -0.4483  1.0535  2.3519
    8SAPS   C33 1016   5.644   6.847   5.857 -0.2805 -0.6893 -0.1235
    8SAPS   H3X 1017   5.714   6.762   5.847 -2.1237 -1.9984 -6.4527
    8SAPS   H3Y 1018   5.705   6.940   5.865 -0.3529 -0.5946 -0.6087
    8SAPS   C34 1019   5.562   6.873   5.735  0.9155 -0.3034 -0.3714
    8SAPS   H4X 1020   5.459   6.911   5.751  0.3018 -1.3768 -1.5601
    8SAPS   H4Y 1021   5.547   6.769   5.699  0.2206 -0.8719  1.4791
    8SAPS   C35 1022   5.636   6.969   5.637 -0.2463  0.4543 -0.4674
    8SAPS   H5X 1023   5.743   6.942   5.625  0.0232 -1.5609  4.2108
    8SAPS   H5Y 1024   5.635   7.069   5.686  1.5807  0.9372 -1.3365
    8SAPS   C36 1025   5.563   6.971   5.500  0.4271  0.2319  0.1498
    8SAPS   H6X 1026   5.592   7.063   5.445  0.6775  0.4750  0.6834
    8SAPS   H6Y 1027   5.452   6.978   5.512  0.3549  0.4757 -0.6507
    8SAPS   C37 1028   5.587   6.850   5.414  0.0944 -0.0900  0.5549
    8SAPS   H7X 1029   5.573   6.757   5.473 -2.4024 -0.6022 -0.7122
    8SAPS   H7Y 1030   5.693   6.853   5.382 -0.1004 -0.5908 -0.1530
    8SAPS   C38 1031   5.498   6.867   5.292  0.3198  0.3184  0.6524
    8SAPS   H8X 1032   5.518   6.969   5.253  0.4703 -0.3472 -1.0672
    8SAPS   H8Y 1033   5.395   6.869   5.333  0.8524  0.6750  2.0428
    8SAPS   C39 1034   5.540   6.765   5.184  1.1425 -0.0466  0.8658
    8SAPS   H9X 1035   5.550   6.664   5.232 -1.1039  0.3905  2.4505
    8SAPS   H9Y 1036   5.641   6.789   5.146 -0.2335  1.8382 -1.8490
    8SAPS  C310 1037   5.441   6.739   5.071 -0.1018  0.0645  0.3957
    8SAPS  H10X 1038   5.344   6.700   5.109  0.5455 -2.4408 -0.3175
    8SAPS  H10Y 1039   5.495   6.668   5.004 -0.4073 -0.7286  0.9760
    8SAPS  C311 1040   5.412   6.867   4.994  0.2629 -0.6312 -0.3018
    8SAPS  H11X 1041   5.504   6.897   4.939  0.3638  4.2694  2.0408
    8SAPS  H11Y 1042   5.386   6.945   5.068  0.5948 -0.7128 -0.0994
    8SAPS  C312 1043   5.310   6.830   4.881 -0.5183  0.8398 -0.0675
    8SAPS  H12X 1044   5.338   6.903   4.801  0.4286  0.1049 -0.4203
    8SAPS  H12Y 1045   5.209   6.858   4.916 -0.4304  0.5538  0.4200
    8SAPS  C313 1046   5.322   6.696   4.808 -0.1628  0.5838 -0.0308
    8SAPS  H13X 1047   5.304   6.611   4.877 -0.2446 -0.2028 -1.0057
    8SAPS  H13Y 1048   5.427   6.690   4.771  0.0561  1.7589  0.3667
    8SAPS  C314 1049   5.222   6.687   4.690  0.4076 -0.4256  0.3007
    8SAPS  H14X 1050   5.253   6.771   4.624 -2.2787 -0.3533 -1.0068
    8SAPS  H14Y 1051   5.122   6.726   4.720  0.5868  1.6799 -1.5420
    8SAPS  C315 1052   5.223   6.550   4.629 -0.5297 -0.1792 -0.1383
    8SAPS  H15X 1053   5.159   6.483   4.690 -0.6291  0.8327  0.8975
    8SAPS  H15Y 1054   5.330   6.522   4.619  0.2001  1.9596  0.9799
    8SAPS  C316 1055   5.165   6.547   4.483 -0.5779  0.1242  0.7701
    8SAPS  H16X 1056   5.169   6.442   4.446  0.7140  1.5579 -3.8522
    8SAPS  H16Y 1057   5.250   6.597   4.431 -0.5057  2.7211  3.1551
    8SAPS  C317 1058   5.030   6.605   4.455 -0.4891 -1.0173 -0.1030
    8SAPS  H17X 1059   4.993   6.590   4.351 -0.6006  0.2159 -0.2585
    8SAPS  H17Y 1060   5.027   6.716   4.456 -0.3379 -0.9624 -1.9982
    8SAPS  C318 1061   4.922   6.550   4.557  0.6282 -0.2241 -0.0906
    8SAPS  H18X 1062   4.949   6.589   4.657 -0.3980 -3.6568  1.7142
    8SAPS  H18Y 1063   4.919   6.439   4.566  1.6411 -0.2445  0.1845
    8SAPS  H18Z 1064   4.824   6.596   4.534  1.1213  0.9367  0.0598
    9SAPS     N 1065   2.054   4.669   6.856 -0.1254  0.2867 -0.6686
    9SAPS   HN1 1066   2.072   4.604   6.936 -1.1614  0.2279 -0.4735
    9SAPS   HN2 1067   2.009   4.622   6.775 -0.9554  0.5502 -0.3681
    9SAPS   HN3 1068   2.150   4.691   6.823 -0.9225 -0.4041 -3.7946
    9SAPS   C12 1069   1.984   4.787   6.902  0.0156  0.1142 -0.1135
    9SAPS  H12A 1070   1.884   4.772   6.940  0.0877 -0.5129 -0.1658
    9SAPS   C13 1071   2.054   4.864   7.014  0.1032 -0.4489 -0.4423
    9SAPS  O13A 1072   2.149   4.814   7.079  0.6428 -0.4129  0.3755
    9SAPS  O13B 1073   2.018   4.983   7.033 -0.1909  0.3638 -0.5310
    9SAPS   C11 1074   1.958   4.889   6.778 -0.0606  0.5912 -0.7317
    9SAPS  H11A 1075   2.058   4.929   6.750  0.0004  1.4387  0.6127
    9SAPS  H11B 1076   1.900   4.972   6.823 -0.0454  0.1870  0.0637
    9SAPS     P 1077   1.875   4.900   6.533 -0.1397 -0.0771 -0.0163
    9SAPS   O13 1078   1.778   4.830   6.448 -0.1648  0.3846 -0.5580
    9SAPS   O14 1079   1.843   5.042   6.558 -0.4121 -0.3368  0.6655
    9SAPS   O12 1080   1.889   4.828   6.673 -0.2743 -0.2771 -0.1091
    9SAPS   O11 1081   2.026   4.890   6.474  0.1371  0.1530 -0.1442
    9SAPS    C1 1082   2.079   4.763   6.446  0.3436  0.8180  0.3830
    9SAPS    HA 1083   2.176   4.745   6.497 -0.0363 -0.8409  0.5570
    9SAPS    HB 1084   2.015   4.677   6.474 -0.4286  0.3394 -2.5579
    9SAPS    C2 1085   2.119   4.753   6.295  0.0074 -0.1666 -0.6161
    9SAPS    HS 1086   2.036   4.707   6.238 -0.7631 -1.4805  1.4369
    9SAPS   O21 1087   2.236   4.672   6.288  0.4963 -0.8724 -0.4565
    9SAPS   C21 1088   2.208   4.545   6.289  0.1230  0.1869  0.8869
    9SAPS   O22 1089   2.100   4.489   6.306 -0.7149 -0.1305 -0.0374
    9SAPS   C22 1090   2.333   4.457   6.259  0.3012 -0.3549  0.6431
    9SAPS   H2R 1091   2.412   4.489   6.331 -1.3721  0.9701  1.9828
    9SAPS   H2S 1092   2.295   4.354   6.274 -0.4033 -0.6364 -2.4434
    9SAPS    C3 1093   2.151   4.890   6.230 -0.1419 -0.2525 -0.2586
    9SAPS    HX 1094   2.228   4.935   6.296 -1.8773  0.8404  1.1210
    9SAPS    HY 1095   2.065   4.960   6.230  0.6616  0.7729  1.0498
    9SAPS   O31 1096   2.194   4.875   6.092  0.2841 -0.4630 -0.4544
    9SAPS   C31 1097   2.308   4.932   6.056 -0.0251  0.4099 -0.0361
    9SAPS   O32 1098   2.382   4.995   6.126 -0.1183  0.3520 -0.6260
    9SAPS   C32 1099   2.336   4.900   5.910 -0.2947  0.6019  0.0064
    9SAPS   H2X 1100   2.243   4.902   5.849 -0.3781 -1.7261 -0.0315
    9SAPS   H2Y 1101   2.372   4.795   5.897 -1.1916  0.3436 -0.4178
    9SAPS   C23 1102   2.389   4.477   6.110  0.1672 -0.6500 -0.6240
    9SAPS   H3R 1103   2.484   4.420   6.116  0.1150 -0.6486  0.5151
    9SAPS   H3S 1104   2.417   4.581   6.082 -3.5804  0.6319 -0.0910
    9SAPS   C24 1105   2.294   4.440   5.999 -0.4010  0.2389  0.0606
    9SAPS   H4R 1106   2.234   4.526   5.962  0.2817  0.7485  0.1211
    9SAPS   H4S 1107   2.234   4.364   6.054  0.9973 -1.4233 -0.6156
    9SAPS   C25 1108   2.349   4.357   5.877 -0.3126  0.2038 -0.3355
    9SAPS   H5R 1109   2.415   4.277   5.912  0.9897  0.4262 -2.1637
    9SAPS   C26 1110   2.298   4.359   5.749 -0.5195 -0.5059 -0.0472
    9SAPS   H6R 1111   2.355   4.296   5.680 -1.5719  0.4004 -1.8097
    9SAPS   C27 1112   2.198   4.450   5.678  0.0961 -0.6051 -0.2038
    9SAPS   H7R 1113   2.261   4.514   5.612  0.5504 -1.9494 -1.1197
    9SAPS   H7S 1114   2.148   4.526   5.742 -1.0236 -1.3509 -0.1831
    9SAPS   C28 1115   2.090   4.380   5.600  0.2253  0.0787 -0.4215
    9SAPS   H8R 1116   2.075   4.273   5.623 -0.1980  0.0194 -0.9600
    9SAPS   C29 1117   2.002   4.448   5.526 -0.6676  0.1280  0.8385
    9SAPS   H9R 1118   1.926   4.381   5.483 -1.2639  1.3179 -0.0452
    9SAPS  C210 1119   1.995   4.597   5.495 -0.1593  0.1157 -1.0614
    9SAPS  H10R 1120   2.026   4.654   5.585 -1.1390  1.9720 -1.8558
    9SAPS  H10S 1121   1.888   4.624   5.484 -0.7234 -2.0176 -1.2226
    9SAPS  C211 1122   2.089   4.617   5.379  0.0569 -0.2875 -0.1061
    9SAPS  H11R 1123   2.191   4.625   5.419 -0.7873 -1.7824  2.5630
    9SAPS  C212 1124   2.061   4.668   5.253  0.1156 -0.6482 -0.6667
    9SAPS  H12R 1125   2.152   4.692   5.195  0.6307 -0.2271  0.2955
    9SAPS  C213 1126   1.921   4.678   5.187  0.5513 -0.5750 -0.1048
    9SAPS  H13R 1127   1.931   4.721   5.085 -1.1041  1.1551  0.4234
    9SAPS  H13S 1128   1.863   4.752   5.245  0.5658 -0.9540  0.4015
    9SAPS  C214 1129   1.836   4.550   5.177 -0.4309 -1.0095 -0.5413
    9SAPS  H14R 1130   1.804   4.499   5.269  0.1312 -0.4640 -0.0343
    9SAPS  C215 1131   1.802   4.480   5.061 -0.0164 -0.2692 -0.2594
    9SAPS  H15R 1132   1.739   4.393   5.083 -1.0406  0.7470  1.0340
    9SAPS  C216 1133   1.836   4.510   4.923 -0.3888 -0.4824  0.2132
    9SAPS  H16R 1134   1.928   4.458   4.888  0.1064 -0.6641  1.7009
    9SAPS  H16S 1135   1.848   4.620   4.914 -1.5112 -0.1777  1.9662
    9SAPS  C217 1136   1.723   4.441   4.827  0.3192 -0.4183  0.2283
    9SAPS  H17R 1137   1.627   4.481   4.867  0.4806  0.2592 -0.0406
    9SAPS  H17S 1138   1.734   4.334   4.857 -1.5223 -0.3559  1.2818
    9SAPS  C218 1139   1.749   4.462   4.680 -0.0578 -0.8775  0.1142
    9SAPS  H18R 1140   1.855   4.436   4.664  1.4134  4.1009  0.0033
    9SAPS  H18S 1141   1.740   4.570   4.653  0.8372 -0.3695  1.7204
    9SAPS  C219 1142   1.652   4.375   4.595 -0.1380 -0.8662  0.0656
    9SAPS  H19R 1143   1.555   4.360   4.646 -0.4196  1.1349  0.2000
    9SAPS  H19S 1144   1.703   4.280   4.567 -0.5296 -0.3325 -2.7969
    9SAPS  C220 1145   1.618   4.433   4.459  0.4117  0.3708  0.9495
    9SAPS  H20R 1146   1.556   4.524   4.476 -2.8958 -1.2098 -1.5962
    9SAPS  H20S 1147   1.558   4.356   4.408  1.5596 -1.0243  1.6381
    9SAPS  H20T 1148   1.710   4.457   4.401 -0.1826  1.9189  0.5865
    9SAPS   C33 1149   2.448   4.990   5.849 -0.5622  0.5409 -0.1560
    9SAPS   H3X 1150   2.541   4.979   5.908  0.3249 -3.0902 -1.9539
    9SAPS   H3Y 1151   2.418   5.096   5.867  1.0583  0.7979  1.2896
    9SAPS   C34 1152   2.474   4.988   5.703 -0.8814 -0.4667  0.5127
    9SAPS   H4X 1153   2.516   4.887   5.684  2.0328  0.5334  1.1317
    9SAPS   H4Y 1154   2.559   5.059   5.691 -1.7322  0.5876  0.5810
    9SAPS   C35 1155   2.343   5.017   5.616  0.2035  0.4106 -0.5774
    9SAPS   H5X 1156   2.296   5.111   5.651  1.7045  0.9207  0.1414
    9SAPS   H5Y 1157   2.265   4.940   5.633 -0.4878  1.1159 -0.4962
    9SAPS   C36 1158   2.376   5.030   5.466 -0.5181 -0.7190 -0.8679
    9SAPS   H6X 1159   2.399   4.938   5.408 -1.1589 -0.3760 -1.6856
    9SAPS   H6Y 1160   2.473   5.084   5.455 -0.8851  0.3632  0.9290
    9SAPS   C37 1161   2.262   5.098   5.384  0.6598 -0.2457 -0.3167
    9SAPS   H7X 1162   2.260   5.204   5.417 -1.4274 -0.6857  1.1879
    9SAPS   H7Y 1163   2.170   5.051   5.423  0.5192 -0.8412 -1.3164
    9SAPS   C38 1164   2.265   5.090   5.227 -0.4030  0.0823 -0.1061
    9SAPS   H8X 1165   2.241   4.985   5.199 -2.0198  0.4627 -0.2616
    9SAPS   H8Y 1166   2.370   5.116   5.203 -0.3661 -0.5900 -0.6838
    9SAPS   C39 1167   2.168   5.195   5.168  0.3540 -0.2040  0.5787
    9SAPS   H9X 1168   2.201   5.297   5.197 -0.5289  0.1618  0.3340
    9SAPS   H9Y 1169   2.062   5.177   5.197 -0.1486  0.0344 -1.0430
    9SAPS  C310 1170   2.171   5.179   5.017 -0.6892 -0.5761  0.2979
    9SAPS  H10X 1171   2.267   5.212   4.973  0.2400 -1.8013  1.3121
    9SAPS  H10Y 1172   2.085   5.245   4.993 -0.7644 -0.3666  1.1236
    9SAPS  C311 1173   2.133   5.043   4.966  0.3467  0.5028  0.0861
    9SAPS  H11X 1174   2.068   4.998   5.044  0.9180  0.0163  0.2972
    9SAPS  H11Y 1175   2.224   4.979   4.961  0.6361  0.7766  1.4164
    9SAPS  C312 1176   2.068   5.046   4.827 -0.1120  0.1774  0.0894
    9SAPS  H12X 1177   1.993   5.128   4.824  0.4124  0.6714  0.3471
    9SAPS  H12Y 1178   2.010   4.954   4.805 -0.9353  0.6787  0.1091
    9SAPS  C313 1179   2.174   5.065   4.724 -0.1487  0.3406  0.1338
    9SAPS  H13X 1180   2.240   4.976   4.728  2.1958  1.9823  0.0722
    9SAPS  H13Y 1181   2.237   5.153   4.748 -0.2209  0.8072 -1.2889
    9SAPS  C314 1182   2.130   5.067   4.577 -0.1996 -0.2477  0.0993
    9SAPS  H14X 1183   2.094   4.968   4.542  1.8832 -0.9321 -0.2890
    9SAPS  H14Y 1184   2.220   5.081   4.513  0.2265 -0.4627  0.6432
    9SAPS  C315 1185   2.032   5.183   4.539  0.2540 -0.0074 -0.4057
    9SAPS  H15X 1186   2.058   5.271   4.602 -0.2031 -0.0281 -0.1870
    9SAPS  H15Y 1187   1.932   5.143   4.566  0.8113 -3.5435 -2.9098
    9SAPS  C316 1188   2.035   5.232   4.396  0.1147 -0.3641  0.1689
    9SAPS  H16X 1189   1.968   5.319   4.375  0.5605 -0.6286 -2.8656
    9SAPS  H16Y 1190   1.999   5.148   4.333  1.6610 -0.2880 -0.8547
    9SAPS  C317 1191   2.172   5.278   4.335  0.6057  0.3294  0.1110
    9SAPS  H17X 1192   2.164   5.323   4.234  3.6171  0.4616 -0.1414
    9SAPS  H17Y 1193   2.232   5.186   4.321  0.3005  0.4330 -2.3160
    9SAPS  C318 1194   2.245   5.399   4.400  0.1649 -0.1675 -0.3606
    9SAPS  H18X 1195   2.273   5.386   4.507  2.6029  0.0612 -0.9106
    9SAPS  H18Y 1196   2.180   5.489   4.392  0.6337  0.0469 -2.1572
    9SAPS  H18Z 1197   2.336   5.410   4.337  0.7033  0.1473  0.4626
   10SAPS     N 1198   2.909   2.892   6.470 -0.5349 -0.4010  0.2989
   10SAPS   HN1 1199   2.973   2.810   6.467  1.4324  1.0515  0.8970
   10SAPS   HN2 1200   2.966   2.978   6.483 -1.6845  0.6504 -1.2887
   10SAPS   HN3 1201   2.856   2.884   6.560 -1.6496  0.8655 -0.2169
   10SAPS   C12 1202   2.825   2.904   6.349 -0.7965 -0.6779  0.6278
   10SAPS  H12A 1203   2.836   2.812   6.294 -0.9801  0.7518 -1.9743
   10SAPS   C13 1204   2.673   2.934   6.376 -0.6062 -0.3564  0.5896
   10SAPS  O13A 1205   2.636   2.927   6.494 -0.1389 -0.1985 -0.1315
   10SAPS  O13B 1206   2.605   2.992   6.285  0.3591  0.0714 -0.7169
   10SAPS   C11 1207   2.897   3.002   6.252 -0.4022  0.0769  0.5179
   10SAPS  H11A 1208   2.894   3.100   6.304 -1.7236  0.8523 -0.9062
   10SAPS  H11B 1209   2.835   2.999   6.160  0.1804 -1.7175  0.1453
   10SAPS     P 1210   3.134   3.044   6.139 -0.0819  0.3004 -0.0049
   10SAPS   O13 1211   3.163   3.172   6.203 -0.1742 -0.3987 -0.6662
   10SAPS   O14 1212   3.239   2.959   6.085 -0.2392  0.5199  0.4406
   10SAPS   O12 1213   3.033   2.958   6.221 -0.1688 -0.3014 -0.1392
   10SAPS   O11 1214   3.043   3.075   6.012 -0.4211  0.0547  0.1771
   10SAPS    C1 1215   3.008   3.212   5.983 -0.5457  0.2608 -0.0321
   10SAPS    HA 1216   2.954   3.264   6.065 -0.8449  0.4636 -0.3537
   10SAPS    HB 1217   3.098   3.270   5.952  0.1825  0.0865  1.6121
   10SAPS    C2 1218   2.897   3.215   5.873  0.4145  0.1894  0.9781
   10SAPS    HS 1219   2.802   3.163   5.899  0.0695 -0.5509 -1.5431
   10SAPS   O21 1220   2.944   3.159   5.751 -0.6824 -0.0128  0.4172
   10SAPS   C21 1221   2.864   3.131   5.652 -0.3619 -0.8338  0.0724
   10SAPS   O22 1222   2.746   3.152   5.653  0.6133 -0.1559  0.0049
   10SAPS   C22 1223   2.936   3.090   5.520 -0.3631  0.3162 -0.1426
   10SAPS   H2R 1224   3.035   3.140   5.528 -1.0244  1.8606 -1.1483
   10SAPS   H2S 1225   2.949   2.980   5.526  1.5903  0.4944 -0.4429
   10SAPS    C3 1226   2.858   3.371   5.857 -0.2740  0.1060  0.3629
   10SAPS    HX 1227   2.948   3.427   5.891  0.1699 -1.6971  2.3480
   10SAPS    HY 1228   2.789   3.389   5.943 -0.9237 -1.1954  0.1306
   10SAPS   O31 1229   2.802   3.410   5.729 -0.3829 -0.1799 -0.0473
   10SAPS   C31 1230   2.689   3.484   5.729 -0.1177 -0.0577 -0.3842
   10SAPS   O32 1231   2.635   3.535   5.825 -0.3582  0.3127 -1.0061
   10SAPS   C32 1232   2.627   3.485   5.597 -0.2599  0.2494 -0.2410
   10SAPS   H2X 1233   2.525   3.440   5.605  0.0582 -0.3401  0.7798
   10SAPS   H2Y 1234   2.667   3.406   5.530 -0.6063  1.4312 -1.9028
   10SAPS   C23 1235   2.861   3.132   5.390  0.7356 -0.2814  0.2015
   10SAPS   H3R 1236   2.935   3.125   5.306  1.2470 -0.1720  0.6356
   10SAPS   H3S 1237   2.820   3.235   5.402 -2.1818 -1.5749  2.4615
   10SAPS   C24 1238   2.752   3.027   5.358  0.2648 -0.0709  0.2158
   10SAPS   H4R 1239   2.672   3.071   5.294 -0.1106 -1.4364 -0.2998
   10SAPS   H4S 1240   2.704   3.014   5.458 -0.1396 -0.9140 -0.0728
   10SAPS   C25 1241   2.801   2.899   5.307 -0.8234  0.1667 -0.2111
   10SAPS   H5R 1242   2.874   2.855   5.376 -0.4156  1.4486  0.2028
   10SAPS   C26 1243   2.782   2.846   5.185 -0.5623  0.4304 -0.9434
   10SAPS   H6R 1244   2.817   2.744   5.166 -1.6126  0.4155 -3.1025
   10SAPS   C27 1245   2.709   2.910   5.070 -0.7444  0.1505 -0.7609
   10SAPS   H7R 1246   2.666   3.005   5.108  1.7496  0.1967  2.3534
   10SAPS   H7S 1247   2.630   2.833   5.055  2.4567 -3.8694  0.8450
   10SAPS   C28 1248   2.791   2.927   4.941 -0.0165  0.0727 -0.7496
   10SAPS   H8R 1249   2.820   3.031   4.919 -1.1904  0.8136  1.0085
   10SAPS   C29 1250   2.814   2.832   4.856  0.4026  0.2522 -0.4963
   10SAPS   H9R 1251   2.864   2.856   4.760 -2.7742  0.2880 -2.2958
   10SAPS  C210 1252   2.794   2.682   4.862 -0.5005 -0.4774 -1.0457
   10SAPS  H10R 1253   2.798   2.654   4.970  0.3749  1.0004 -0.6550
   10SAPS  H10S 1254   2.874   2.627   4.809  2.2160  0.7380  1.4794
   10SAPS  C211 1255   2.662   2.627   4.811 -0.2782  0.1670 -0.1017
   10SAPS  H11R 1256   2.591   2.588   4.886 -1.3985  0.6672 -0.8746
   10SAPS  C212 1257   2.620   2.598   4.687 -0.0411 -0.1070 -0.5914
   10SAPS  H12R 1258   2.519   2.560   4.666  1.5020 -4.8580 -0.5972
   10SAPS  C213 1259   2.695   2.620   4.561 -0.5805 -0.0438  0.0240
   10SAPS  H13R 1260   2.713   2.729   4.555 -2.8932  0.4688  1.0469
   10SAPS  H13S 1261   2.632   2.596   4.473  0.5490 -0.2846 -0.7405
   10SAPS  C214 1262   2.825   2.538   4.545 -0.2208 -0.4453  0.1263
   10SAPS  H14R 1263   2.861   2.495   4.639 -1.5339 -1.4464  0.1975
   10SAPS  C215 1264   2.865   2.489   4.425  0.1577 -0.2055  0.3103
   10SAPS  H15R 1265   2.953   2.423   4.418 -0.5483 -1.1737  0.4550
   10SAPS  C216 1266   2.795   2.528   4.289  0.3101 -0.2200  0.9863
   10SAPS  H16R 1267   2.737   2.622   4.296  0.5493  0.1695 -1.4793
   10SAPS  H16S 1268   2.717   2.456   4.257 -0.9072  0.8760  1.4110
   10SAPS  C217 1269   2.893   2.553   4.166  0.3328  0.1265  0.1485
   10SAPS  H17R 1270   2.975   2.620   4.198  1.0876 -0.8090  0.1947
   10SAPS  H17S 1271   2.834   2.604   4.087 -1.7773 -0.5000  1.2415
   10SAPS  C218 1272   2.958   2.421   4.120  0.2212 -0.5905  0.2227
   10SAPS  H18R 1273   2.993   2.364   4.208  1.8916  2.2017  1.5030
   10SAPS  H18S 1274   3.044   2.457   4.061 -0.4603  2.6154  0.9945
   10SAPS  C219 1275   2.873   2.342   4.017 -0.0425  0.1495 -0.0435
   10SAPS  H19R 1276   2.848   2.404   3.929 -0.6226 -0.0478 -0.0228
   10SAPS  H19S 1277   2.776   2.322   4.068 -0.1041 -0.5652 -0.4282
   10SAPS  C220 1278   2.948   2.213   3.975 -0.2462  0.2539  0.4149
   10SAPS  H20R 1279   2.868   2.151   3.929 -2.3266  2.4038  0.9740
   10SAPS  H20S 1280   2.977   2.152   4.063 -2.2741  1.1252  1.7459
   10SAPS  H20T 1281   3.025   2.238   3.899 -0.9060  0.4462 -0.2001
   10SAPS   C33 1282   2.643   3.620   5.534  0.6084 -0.8441 -0.5879
   10SAPS   H3X 1283   2.752   3.641   5.529  0.1792  1.9732  0.4478
   10SAPS   H3Y 1284   2.578   3.697   5.579  0.2627 -0.0447 -2.3801
   10SAPS   C34 1285   2.610   3.640   5.384 -0.2595  0.4767 -0.2825
   10SAPS   H4X 1286   2.692   3.614   5.314 -0.1464  1.0834 -0.3865
   10SAPS   H4Y 1287   2.604   3.750   5.366 -0.1577  0.6501  0.6854
   10SAPS   C35 1288   2.487   3.572   5.336  0.0567 -0.4697  0.1220
   10SAPS   H5X 1289   2.407   3.578   5.412  2.0026 -0.6043  2.2870
   10SAPS   H5Y 1290   2.510   3.467   5.310  1.2617 -0.0988 -0.4161
   10SAPS   C36 1291   2.442   3.626   5.192  0.4254  0.2085 -0.2744
   10SAPS   H6X 1292   2.422   3.733   5.211  1.0377  0.3366 -0.3370
   10SAPS   H6Y 1293   2.350   3.580   5.151  0.4720  1.6604 -2.1150
   10SAPS   C37 1294   2.538   3.608   5.081 -0.3658 -0.4149  0.7555
   10SAPS   H7X 1295   2.572   3.504   5.061  2.0422  0.2238  1.2298
   10SAPS   H7Y 1296   2.624   3.672   5.109 -1.9629  1.0798  2.5474
   10SAPS   C38 1297   2.474   3.668   4.951 -0.8503 -0.5137 -0.0630
   10SAPS   H8X 1298   2.468   3.779   4.950 -0.9862 -0.5253 -0.6634
   10SAPS   H8Y 1299   2.370   3.628   4.943 -0.2695 -2.6438  2.1622
   10SAPS   C39 1300   2.561   3.643   4.822 -0.6920  0.4500  0.0480
   10SAPS   H9X 1301   2.582   3.535   4.812  3.0247  0.7958  2.1709
   10SAPS   H9Y 1302   2.663   3.686   4.830 -1.2421  2.3402 -1.9780
   10SAPS  C310 1303   2.490   3.692   4.697 -0.7081 -0.0868  0.0930
   10SAPS  H10X 1304   2.476   3.802   4.703 -0.4334  0.1101 -2.1047
   10SAPS  H10Y 1305   2.386   3.655   4.682 -0.8389  1.2539 -3.0558
   10SAPS  C311 1306   2.570   3.658   4.573  0.4271 -0.8563 -0.3077
   10SAPS  H11X 1307   2.514   3.696   4.485  0.0023 -3.4431 -1.2368
   10SAPS  H11Y 1308   2.573   3.548   4.561  2.2392 -0.9628  0.7004
   10SAPS  C312 1309   2.717   3.704   4.574 -0.0589 -0.1271  0.2167
   10SAPS  H12X 1310   2.782   3.648   4.645 -0.8295 -0.0249  1.0160
   10SAPS  H12Y 1311   2.726   3.805   4.619  0.1018  0.6581 -1.5120
   10SAPS  C313 1312   2.776   3.705   4.436 -0.2635  0.0487 -0.1515
   10SAPS  H13X 1313   2.863   3.772   4.451  0.2590 -0.4506 -0.9248
   10SAPS  H13Y 1314   2.718   3.755   4.356  1.6027 -0.6749 -2.0479
   10SAPS  C314 1315   2.831   3.573   4.387 -0.2853 -0.1955  0.4019
   10SAPS  H14X 1316   2.741   3.516   4.356  0.2377 -1.6977  1.5450
   10SAPS  H14Y 1317   2.879   3.528   4.477  0.0891  1.7475  1.2199
   10SAPS  C315 1318   2.932   3.589   4.269  0.2558  0.1832 -1.3256
   10SAPS  H15X 1319   3.007   3.668   4.292 -1.2154  0.9011  1.6075
   10SAPS  H15Y 1320   2.877   3.631   4.182 -0.9754 -1.4894 -1.4121
   10SAPS  C316 1321   2.993   3.456   4.230  0.7932 -0.2163  0.6306
   10SAPS  H16X 1322   3.039   3.396   4.311  2.1089 -0.3182 -0.1678
   10SAPS  H16Y 1323   3.079   3.480   4.165  0.5302 -0.4294  0.1970
   10SAPS  C317 1324   2.905   3.358   4.150  0.6175 -0.0680  0.0450
   10SAPS  H17X 1325   2.850   3.413   4.070  1.9161 -0.1168 -0.9136
   10SAPS  H17Y 1326   2.826   3.320   4.218 -0.7399 -0.5833 -1.7368
   10SAPS  C318 1327   2.990   3.245   4.088 -0.0208  0.0834  0.1542
   10SAPS  H18X 1328   3.033   3.282   3.992 -1.1609 -1.4728 -0.9871
   10SAPS  H18Y 1329   2.933   3.154   4.061 -0.2691  0.3312 -0.1617
   10SAPS  H18Z 1330   3.078   3.215   4.150  0.6401 -2.3693 -1.8193
   11SAPS     N 1331   3.415   3.007   1.702  0.1699 -0.0458 -0.3691
   11SAPS   HN1 1332   3.420   3.098   1.752 -0.5008 -0.2091  0.0212
   11SAPS   HN2 1333   3.484   3.020   1.626  1.4772 -1.9375  0.4156
   11SAPS   HN3 1334   3.316   3.011   1.668  0.9379  5.3635 -2.9102
   11SAPS   C12 1335   3.462   2.881   1.770  0.7017  0.2368 -0.6605
   11SAPS  H12A 1336   3.424   2.899   1.870  1.2778  1.0727 -0.5775
   11SAPS   C13 1337   3.395   2.749   1.730 -0.0675 -0.1167  0.5829
   11SAPS  O13A 1338   3.330   2.748   1.620  0.0818  0.2637  0.0394
   11SAPS  O13B 1339   3.429   2.642   1.779 -0.3260 -0.4171 -0.2256
   11SAPS   C11 1340   3.621   2.875   1.770  0.0579  0.5462  0.2267
   11SAPS  H11A 1341   3.645   2.861   1.663  0.1340  2.1775  0.0151
   11SAPS  H11B 1342   3.651   2.785   1.828  0.0967  0.7503  0.5267
   11SAPS     P 1343   3.796   3.070   1.746 -1.0540  0.1753  0.4302
   11SAPS   O13 1344   3.830   3.003   1.620  0.7404 -0.0565  0.3857
   11SAPS   O14 1345   3.755   3.207   1.749  0.7604  0.1928  0.4449
   11SAPS   O12 1346   3.684   2.995   1.815  0.0229 -1.0898  0.0237
   11SAPS   O11 1347   3.925   3.034   1.843  0.3551  0.4649 -0.5114
   11SAPS    C1 1348   3.940   2.905   1.912  0.2001  0.1127 -0.8090
   11SAPS    HA 1349   3.857   2.836   1.885  0.2928  0.0817 -1.0216
   11SAPS    HB 1350   4.036   2.863   1.876 -0.8031 -1.5196 -1.7280
   11SAPS    C2 1351   3.940   2.907   2.063  0.2735  0.3200  0.1393
   11SAPS    HS 1352   3.864   2.982   2.092  1.3203  1.8110 -0.8562
   11SAPS   O21 1353   4.073   2.950   2.104 -0.2268  0.4229  0.2438
   11SAPS   C21 1354   4.100   3.081   2.131 -0.7511 -0.2412  0.0373
   11SAPS   O22 1355   4.015   3.165   2.105 -0.5271  0.0610 -0.5947
   11SAPS   C22 1356   4.237   3.113   2.199 -0.6152 -0.0817 -0.1073
   11SAPS   H2R 1357   4.258   3.019   2.255  0.3595  0.6759  0.8275
   11SAPS   H2S 1358   4.308   3.116   2.113  0.2482 -2.0298  0.4864
   11SAPS    C3 1359   3.906   2.769   2.123  0.0322 -0.5185  0.7610
   11SAPS    HX 1360   3.991   2.716   2.075  0.0279 -0.8496  1.1044
   11SAPS    HY 1361   3.809   2.731   2.084  0.9432 -3.0646  0.7627
   11SAPS   O31 1362   3.921   2.759   2.267  0.2341  0.4404  0.1006
   11SAPS   C31 1363   3.798   2.763   2.326 -0.2197  0.4035 -0.2545
   11SAPS   O32 1364   3.693   2.777   2.263 -0.0639  0.1884  0.2409
   11SAPS   C32 1365   3.817   2.766   2.471  0.0795  0.3382  0.3929
   11SAPS   H2X 1366   3.925   2.774   2.497  0.2972  0.8839 -0.6260
   11SAPS   H2Y 1367   3.787   2.666   2.507 -0.2156  0.4808  0.5455
   11SAPS   C23 1368   4.226   3.235   2.288 -0.8199 -0.0108  0.1262
   11SAPS   H3R 1369   4.125   3.239   2.335 -1.0567 -1.0430 -0.2560
   11SAPS   H3S 1370   4.251   3.334   2.245  0.6768  0.0129  0.9935
   11SAPS   C24 1371   4.328   3.229   2.403 -0.0788 -0.4303 -0.4447
   11SAPS   H4R 1372   4.428   3.209   2.359 -0.3021  2.0715 -2.3717
   11SAPS   H4S 1373   4.297   3.139   2.460 -0.6311  0.2897  0.4229
   11SAPS   C25 1374   4.331   3.358   2.491 -0.4684 -0.6264  0.3995
   11SAPS   H5R 1375   4.243   3.422   2.480 -1.6244 -2.1320  0.5317
   11SAPS   C26 1376   4.427   3.385   2.576 -0.4058  0.2429  0.1111
   11SAPS   H6R 1377   4.436   3.487   2.618 -1.3656  0.4645 -0.2141
   11SAPS   C27 1378   4.555   3.300   2.592 -0.4936 -0.0013  0.4672
   11SAPS   H7R 1379   4.565   3.215   2.521  2.1763  0.2439  0.4283
   11SAPS   H7S 1380   4.552   3.255   2.693  0.4013  0.6585  0.7977
   11SAPS   C28 1381   4.675   3.391   2.578  0.6361  0.3829 -0.4100
   11SAPS   H8R 1382   4.669   3.460   2.492  1.9473  1.0889  0.0290
   11SAPS   C29 1383   4.775   3.399   2.669 -0.4415  0.1455 -0.5846
   11SAPS   H9R 1384   4.854   3.474   2.660  0.3566 -0.6026  0.0100
   11SAPS  C210 1385   4.806   3.309   2.783 -0.1149  0.9637 -0.3824
   11SAPS  H10R 1386   4.723   3.244   2.816  0.4562  1.1994  1.6339
   11SAPS  H10S 1387   4.841   3.367   2.871  1.8092  1.2164 -1.2372
   11SAPS  C211 1388   4.898   3.206   2.741 -0.2077 -0.2675 -0.0117
   11SAPS  H11R 1389   4.929   3.205   2.635 -1.0478  0.7848 -0.2813
   11SAPS  C212 1390   4.969   3.130   2.830  0.3604  0.4629 -0.0403
   11SAPS  H12R 1391   5.036   3.055   2.785  2.2408  1.7112  0.5809
   11SAPS  C213 1392   4.963   3.140   2.981 -0.1413  0.5168  0.8920
   11SAPS  H13R 1393   4.984   3.038   3.019  0.5821  0.5565  0.6050
   11SAPS  H13S 1394   4.857   3.161   3.006 -0.9056  0.7348 -2.1054
   11SAPS  C214 1395   5.061   3.234   3.039  0.0822  0.0271 -0.1633
   11SAPS  H14R 1396   5.134   3.260   2.960  0.9443 -2.4316 -0.2588
   11SAPS  C215 1397   5.077   3.271   3.169  0.1281  0.4430  0.4078
   11SAPS  H15R 1398   5.171   3.326   3.187  0.8987 -1.1629  1.5536
   11SAPS  C216 1399   4.993   3.235   3.287 -0.2312 -0.7094 -0.6938
   11SAPS  H16R 1400   4.891   3.208   3.251 -1.1241  2.6419 -1.0694
   11SAPS  H16S 1401   4.989   3.322   3.357  2.4866 -0.5568 -0.6136
   11SAPS  C217 1402   5.045   3.107   3.357  0.2757 -0.8513 -0.1836
   11SAPS  H17R 1403   5.141   3.130   3.408  0.2930  1.0883 -1.0088
   11SAPS  H17S 1404   5.062   3.013   3.300  0.3499 -0.0170 -1.5755
   11SAPS  C218 1405   4.950   3.064   3.474  0.5138  0.4709  0.2102
   11SAPS  H18R 1406   4.996   2.971   3.511  1.8864  0.3758 -1.6063
   11SAPS  H18S 1407   4.849   3.039   3.433  0.8339  0.3001 -0.4912
   11SAPS  C219 1408   4.936   3.166   3.595  0.1671  0.1348 -0.3392
   11SAPS  H19R 1409   4.900   3.265   3.560  4.5059  2.1923  0.4672
   11SAPS  H19S 1410   5.037   3.192   3.632 -1.1629  3.1225  1.6030
   11SAPS  C220 1411   4.856   3.105   3.717 -0.1789  0.2104 -0.3335
   11SAPS  H20R 1412   4.887   3.004   3.749 -1.6504  0.0395  0.6872
   11SAPS  H20S 1413   4.749   3.101   3.688  0.0290 -1.6425 -0.9592
   11SAPS  H20T 1414   4.856   3.178   3.802 -1.5304 -2.0338  1.7295
   11SAPS   C33 1415   3.748   2.890   2.537 -0.1255 -0.1788  0.1374
   11SAPS   H3X 1416   3.749   2.854   2.643  0.3101 -1.5193 -0.3019
   11SAPS   H3Y 1417   3.642   2.906   2.510 -0.6363 -1.8934  0.9874
   11SAPS   C34 1418   3.828   3.015   2.511 -0.0544 -1.0719 -0.8562
   11SAPS   H4X 1419   3.774   3.096   2.564  2.3341  0.8152 -1.1399
   11SAPS   H4Y 1420   3.827   3.046   2.404 -1.3510  1.1965 -0.2651
   11SAPS   C35 1421   3.973   3.032   2.561  0.2952  0.1902 -0.5727
   11SAPS   H5X 1422   3.993   3.141   2.570 -3.1415  0.8022  1.3147
   11SAPS   H5Y 1423   4.045   2.988   2.488  1.6617 -3.2854  2.5048
   11SAPS   C36 1424   3.982   2.979   2.708  0.8387  0.2687 -0.6999
   11SAPS   H6X 1425   3.960   2.874   2.737  0.3067  1.1035  2.2232
   11SAPS   H6Y 1426   3.912   3.043   2.765 -0.0308 -1.4663  0.2597
   11SAPS   C37 1427   4.120   3.011   2.764 -0.5952  0.2066  0.0246
   11SAPS   H7X 1428   4.156   3.113   2.738  1.3447 -0.1899  0.9723
   11SAPS   H7Y 1429   4.185   2.944   2.704  0.6264  3.2006 -2.3104
   11SAPS   C38 1430   4.135   2.972   2.910  0.4089 -0.6349  0.8178
   11SAPS   H8X 1431   4.094   2.869   2.920  0.6439 -0.9125 -0.8406
   11SAPS   H8Y 1432   4.068   3.043   2.963  0.1831 -1.2771  1.4112
   11SAPS   C39 1433   4.275   2.953   2.960  0.7617  0.5424  0.1910
   11SAPS   H9X 1434   4.314   2.858   2.916 -1.4642 -0.1058 -0.4883
   11SAPS   H9Y 1435   4.263   2.947   3.070 -1.5073  1.0559  0.0038
   11SAPS  C310 1436   4.371   3.060   2.916 -1.0414  0.0442 -0.2470
   11SAPS  H10X 1437   4.334   3.161   2.941  1.0856  1.1158 -1.1669
   11SAPS  H10Y 1438   4.386   3.072   2.806  1.1626  0.3591  0.0426
   11SAPS  C311 1439   4.506   3.046   2.988 -0.6059  0.7255  0.1468
   11SAPS  H11X 1440   4.579   3.082   2.912 -1.4015 -1.9998 -2.0884
   11SAPS  H11Y 1441   4.543   2.942   3.003 -0.2617  0.8734  0.3478
   11SAPS  C312 1442   4.532   3.126   3.114 -0.7037 -0.7678  0.7323
   11SAPS  H12X 1443   4.505   3.233   3.107  1.5900 -0.2152 -0.6347
   11SAPS  H12Y 1444   4.640   3.134   3.139 -0.1832 -0.6401 -1.3629
   11SAPS  C313 1445   4.460   3.062   3.233 -0.5536 -0.7186 -0.1160
   11SAPS  H13X 1446   4.477   2.952   3.228  0.1087 -0.6211 -0.1041
   11SAPS  H13Y 1447   4.353   3.091   3.233  0.0599  1.8154 -0.4474
   11SAPS  C314 1448   4.506   3.130   3.365  0.2931  0.3339 -0.6640
   11SAPS  H14X 1449   4.521   3.239   3.350  2.4438  0.1621 -0.0567
   11SAPS  H14Y 1450   4.609   3.092   3.379  0.0490 -0.5508 -1.1541
   11SAPS  C315 1451   4.416   3.089   3.491 -0.1076 -0.2961  0.0598
   11SAPS  H15X 1452   4.418   2.978   3.489 -1.5908 -0.3376 -0.4974
   11SAPS  H15Y 1453   4.308   3.110   3.475 -0.1518  0.0724  0.7878
   11SAPS  C316 1454   4.468   3.157   3.616  0.4330 -0.5281  0.4090
   11SAPS  H16X 1455   4.416   3.256   3.622  0.8174 -0.3820  1.7304
   11SAPS  H16Y 1456   4.571   3.193   3.597  0.3903 -0.7942 -0.3556
   11SAPS  C317 1457   4.474   3.056   3.736  0.2194 -0.0437  0.1605
   11SAPS  H17X 1458   4.554   2.983   3.710  0.0355  0.5800 -2.3839
   11SAPS  H17Y 1459   4.374   3.009   3.741 -1.7513  3.7356 -0.3847
   11SAPS  C318 1460   4.512   3.123   3.866 -0.0159  0.5029 -0.2759
   11SAPS  H18X 1461   4.567   3.056   3.936 -0.6280 -0.1948 -0.4448
   11SAPS  H18Y 1462   4.421   3.157   3.921 -0.1478 -1.0750  0.5510
   11SAPS  H18Z 1463   4.583   3.208   3.852 -0.3288  0.9053  0.5066
   12SAPS     N 1464   3.865   0.467   1.520  0.1779 -0.0606 -0.2990
   12SAPS   HN1 1465   3.922   0.447   1.604 -1.1549 -0.6406  0.5127
   12SAPS   HN2 1466   3.936   0.498   1.452  0.7115  1.8719  1.0588
   12SAPS   HN3 1467   3.803   0.547   1.546 -0.5981 -0.9702  0.7682
   12SAPS   C12 1468   3.801   0.348   1.481  0.1013  0.3025  0.3437
   12SAPS  H12A 1469   3.722   0.374   1.412  0.1325 -0.5657 -0.0366
   12SAPS   C13 1470   3.888   0.235   1.416 -0.4514  0.6507 -0.5070
   12SAPS  O13A 1471   4.012   0.246   1.396 -0.5000  0.7675  0.1854
   12SAPS  O13B 1472   3.832   0.127   1.391  0.1900 -0.1046 -0.4253
   12SAPS   C11 1473   3.738   0.282   1.607 -0.3002 -0.1574 -0.0845
   12SAPS  H11A 1474   3.813   0.256   1.685 -2.9862 -1.6599  2.1551
   12SAPS  H11B 1475   3.697   0.185   1.572 -1.7364 -0.5753  2.5127
   12SAPS     P 1476   3.564   0.329   1.805 -0.6214  0.3992  0.0592
   12SAPS   O13 1477   3.462   0.430   1.839  0.3628  0.4311  0.2029
   12SAPS   O14 1478   3.524   0.191   1.810  0.1261 -0.0710 -0.4444
   12SAPS   O12 1479   3.632   0.366   1.665 -0.1989  0.1099  0.0625
   12SAPS   O11 1480   3.685   0.359   1.904 -0.3509  0.6780 -0.1847
   12SAPS    C1 1481   3.771   0.473   1.887 -0.3429  0.2632 -0.2362
   12SAPS    HA 1482   3.874   0.432   1.877 -1.3299 -2.9000  1.0283
   12SAPS    HB 1483   3.740   0.534   1.800  0.0061 -0.3623 -0.8121
   12SAPS    C2 1484   3.756   0.564   2.014  0.1263 -0.0926  0.3867
   12SAPS    HS 1485   3.802   0.663   1.991  0.0840  0.2222  1.5939
   12SAPS   O21 1486   3.830   0.507   2.124  0.1779  0.4713  0.5161
   12SAPS   C21 1487   3.909   0.583   2.197  0.0862 -0.7883  1.1784
   12SAPS   O22 1488   3.923   0.703   2.185 -0.0247 -0.0416 -0.2853
   12SAPS   C22 1489   3.969   0.490   2.291 -0.1998  0.4559 -0.8151
   12SAPS   H2R 1490   3.902   0.403   2.306 -0.8588  1.1213  0.1561
   12SAPS   H2S 1491   4.063   0.451   2.244  1.1266  2.1337  0.3430
   12SAPS    C3 1492   3.609   0.590   2.054  0.0028 -1.2688 -0.3618
   12SAPS    HX 1493   3.567   0.499   2.103 -0.5714 -0.7714  0.0893
   12SAPS    HY 1494   3.559   0.626   1.962  2.4101  0.4630 -1.0868
   12SAPS   O31 1495   3.615   0.705   2.151  0.2344 -0.1215  0.2799
   12SAPS   C31 1496   3.513   0.711   2.228  0.2945  0.5654 -0.3471
   12SAPS   O32 1497   3.416   0.636   2.230 -0.2691 -0.2292  0.1348
   12SAPS   C32 1498   3.536   0.834   2.321 -0.3756  0.5346  0.5758
   12SAPS   H2X 1499   3.436   0.849   2.367 -0.0261 -0.3516  1.6533
   12SAPS   H2Y 1500   3.571   0.920   2.260 -0.3789  0.0306 -0.1609
   12SAPS   C23 1501   4.005   0.561   2.419  0.0825 -0.0409  0.8434
   12SAPS   H3R 1502   3.962   0.663   2.426 -0.0245 -0.0457  0.3389
   12SAPS   H3S 1503   4.114   0.581   2.421 -0.0112  0.3740  2.2443
   12SAPS   C24 1504   3.956   0.491   2.548 -0.1788  0.8785  1.1754
   12SAPS   H4R 1505   3.846   0.474   2.536  0.0729  0.2810 -0.5540
   12SAPS   H4S 1506   3.978   0.551   2.639  0.2312  0.6920  1.2011
   12SAPS   C25 1507   4.018   0.352   2.564 -0.7221  1.1985 -1.1722
   12SAPS   H5R 1508   4.036   0.301   2.468 -1.4229  1.1105 -1.2642
   12SAPS   C26 1509   4.058   0.286   2.682  0.3596  0.5473 -0.3644
   12SAPS   H6R 1510   4.117   0.194   2.688  0.5444  0.7600  2.6437
   12SAPS   C27 1511   4.070   0.352   2.817  0.3107 -0.4486  0.9083
   12SAPS   H7R 1512   4.001   0.439   2.815  0.3522 -0.4013 -1.2159
   12SAPS   H7S 1513   4.178   0.375   2.810  0.5670 -1.9832 -1.8042
   12SAPS   C28 1514   4.033   0.266   2.935 -0.0573  0.2504  0.0399
   12SAPS   H8R 1515   3.936   0.214   2.936 -0.5620  1.1408 -0.8175
   12SAPS   C29 1516   4.102   0.258   3.053  0.2394 -0.2144  0.3548
   12SAPS   H9R 1517   4.072   0.181   3.126 -1.7321 -0.9538 -1.1367
   12SAPS  C210 1518   4.229   0.336   3.085  0.0479  0.1852  0.6151
   12SAPS  H10R 1519   4.252   0.411   3.006 -0.5376  0.2732  0.5214
   12SAPS  H10S 1520   4.316   0.267   3.088  0.1934  0.3967  1.8408
   12SAPS  C211 1521   4.205   0.419   3.207  1.0950  0.1978 -0.3491
   12SAPS  H11R 1522   4.153   0.515   3.196 -1.0838 -1.0123 -1.2253
   12SAPS  C212 1523   4.246   0.380   3.332 -0.1428  0.4282 -0.1537
   12SAPS  H12R 1524   4.232   0.455   3.411 -0.8225 -1.1136  1.2442
   12SAPS  C213 1525   4.303   0.248   3.367 -0.4815  0.5394 -0.3028
   12SAPS  H13R 1526   4.411   0.253   3.339 -0.5000 -1.9458 -1.0516
   12SAPS  H13S 1527   4.272   0.156   3.314  1.4476 -1.9501  2.5341
   12SAPS  C214 1528   4.283   0.227   3.513  0.2916 -1.0587 -0.6230
   12SAPS  H14R 1529   4.180   0.204   3.542  0.3616  1.6832  2.3494
   12SAPS  C215 1530   4.382   0.239   3.609  0.2026  0.6527 -0.2347
   12SAPS  H15R 1531   4.365   0.219   3.715  1.2439  1.2547  0.0629
   12SAPS  C216 1532   4.529   0.281   3.584  0.3422  0.8559 -0.8655
   12SAPS  H16R 1533   4.538   0.370   3.518 -2.8690  1.0738 -1.1864
   12SAPS  H16S 1534   4.596   0.200   3.549  2.9924  2.8589 -0.7726
   12SAPS  C217 1535   4.593   0.323   3.715  0.1447 -0.3201 -0.5646
   12SAPS  H17R 1536   4.701   0.341   3.696  1.1107 -3.4027  1.2635
   12SAPS  H17S 1537   4.590   0.244   3.793 -1.6434  1.5448  1.3907
   12SAPS  C218 1538   4.532   0.459   3.763 -0.2423 -0.4963  0.1987
   12SAPS  H18R 1539   4.433   0.451   3.813 -1.1497 -0.1181 -1.4481
   12SAPS  H18S 1540   4.523   0.518   3.669  1.5254  1.1346  0.9612
   12SAPS  C219 1541   4.623   0.543   3.857 -0.3134  0.6145  0.3823
   12SAPS  H19R 1542   4.697   0.596   3.793 -1.4168 -0.7201 -2.1298
   12SAPS  H19S 1543   4.679   0.478   3.928  0.4426  1.4473  0.5679
   12SAPS  C220 1544   4.553   0.630   3.963 -0.8321 -0.0861  1.0413
   12SAPS  H20R 1545   4.491   0.707   3.912 -0.3724 -0.3798  0.0364
   12SAPS  H20S 1546   4.641   0.674   4.014  0.2443 -0.1944 -0.6684
   12SAPS  H20T 1547   4.484   0.567   4.023 -0.7857 -4.3362 -2.8815
   12SAPS   C33 1548   3.648   0.801   2.424  0.6047 -0.2031  0.4772
   12SAPS   H3X 1549   3.669   0.889   2.490  0.5137 -0.6952  1.1759
   12SAPS   H3Y 1550   3.735   0.776   2.361  0.9141  0.5654  0.5836
   12SAPS   C34 1551   3.617   0.682   2.518  0.3468 -0.0900 -0.0803
   12SAPS   H4X 1552   3.708   0.665   2.579 -0.1387  0.4931  0.8274
   12SAPS   H4Y 1553   3.603   0.590   2.457  1.1774 -0.9650  1.0281
   12SAPS   C35 1554   3.485   0.695   2.600  0.0713  0.1607  0.2217
   12SAPS   H5X 1555   3.472   0.593   2.642 -1.1935  0.8512  1.6083
   12SAPS   H5Y 1556   3.404   0.717   2.528  1.3335  1.2601 -0.9255
   12SAPS   C36 1557   3.501   0.797   2.708  0.2992  0.6436 -0.2952
   12SAPS   H6X 1558   3.395   0.830   2.722 -0.2150 -1.1518  0.2526
   12SAPS   H6Y 1559   3.564   0.887   2.693  0.1882  1.2953  2.4872
   12SAPS   C37 1560   3.556   0.728   2.838 -0.1983  0.5392  1.2499
   12SAPS   H7X 1561   3.646   0.672   2.805 -0.5857 -1.1093  2.7742
   12SAPS   H7Y 1562   3.489   0.645   2.870 -0.4996 -0.5827 -1.9018
   12SAPS   C38 1563   3.593   0.836   2.939  0.5447 -0.5731 -0.0877
   12SAPS   H8X 1564   3.498   0.892   2.955  0.5006 -0.2068 -1.5047
   12SAPS   H8Y 1565   3.652   0.920   2.897 -1.2362  1.2668  0.8697
   12SAPS   C39 1566   3.649   0.783   3.072  0.5507 -0.0838  0.4991
   12SAPS   H9X 1567   3.568   0.735   3.130  0.5189  0.2822  0.7633
   12SAPS   H9Y 1568   3.689   0.868   3.132  2.6757  0.9709 -2.1824
   12SAPS  C310 1569   3.764   0.677   3.050  0.3951 -0.6744  0.5326
   12SAPS  H10X 1570   3.841   0.726   2.986  0.1851  0.0001  0.7845
   12SAPS  H10Y 1571   3.712   0.600   2.990 -1.7974  1.7212 -0.8891
   12SAPS  C311 1572   3.836   0.615   3.173 -0.3891 -0.3349 -0.1707
   12SAPS  H11X 1573   3.922   0.676   3.208 -1.8602  1.6144  0.1779
   12SAPS  H11Y 1574   3.887   0.518   3.151 -0.1748  0.0343 -1.3258
   12SAPS  C312 1575   3.743   0.588   3.293  0.5468  0.5046 -0.4523
   12SAPS  H12X 1576   3.653   0.533   3.257 -0.3516  2.1731 -0.8451
   12SAPS  H12Y 1577   3.698   0.685   3.322  1.2867  0.6425  0.2770
   12SAPS  C313 1578   3.831   0.539   3.421 -0.0952 -0.4478  0.2018
   12SAPS  H13X 1579   3.784   0.564   3.519  0.2782  1.6698 -0.1201
   12SAPS  H13Y 1580   3.923   0.601   3.429 -2.9619  4.1366  1.6238
   12SAPS  C314 1581   3.868   0.393   3.424  0.2017  0.8108 -0.0205
   12SAPS  H14X 1582   3.976   0.375   3.406 -0.4984 -2.6094 -1.5394
   12SAPS  H14Y 1583   3.836   0.342   3.331  0.4236 -1.0737  0.8976
   12SAPS  C315 1584   3.817   0.322   3.548  0.2210 -0.1508  0.7082
   12SAPS  H15X 1585   3.791   0.216   3.528  0.7472 -0.7880  3.1320
   12SAPS  H15Y 1586   3.721   0.373   3.572 -0.4072 -0.4262 -1.0447
   12SAPS  C316 1587   3.913   0.342   3.668  0.3727 -0.5625  0.1784
   12SAPS  H16X 1588   4.011   0.299   3.638 -0.0708 -1.1554 -0.4280
   12SAPS  H16Y 1589   3.884   0.290   3.762 -0.8168 -1.2222 -0.5280
   12SAPS  C317 1590   3.941   0.489   3.710  0.2957  0.4785  0.0226
   12SAPS  H17X 1591   3.847   0.535   3.746  1.1299  0.7930  1.9329
   12SAPS  H17Y 1592   3.986   0.550   3.629 -1.5143 -0.8945 -2.1305
   12SAPS  C318 1593   4.042   0.505   3.818 -0.3402  0.5417  0.1889
   12SAPS  H18X 1594   4.058   0.613   3.839  1.0326  0.7833 -1.8204
   12SAPS  H18Y 1595   4.136   0.455   3.785 -1.8465 -1.8231 -0.8394
   12SAPS  H18Z 1596   4.007   0.451   3.909  0.2478  1.3712  0.9290
   13SAPS     N 1597   5.320   2.406   1.354 -0.0010  0.5265 -0.2898
   13SAPS   HN1 1598   5.223   2.373   1.370 -0.1435  0.7185 -0.7486
   13SAPS   HN2 1599   5.377   2.327   1.317  0.2308  1.0136 -1.0071
   13SAPS   HN3 1600   5.377   2.433   1.437  0.6816 -2.4791  0.3288
   13SAPS   C12 1601   5.320   2.516   1.241  0.0467 -0.4989  0.2085
   13SAPS  H12A 1602   5.417   2.563   1.236 -1.3792  2.5973 -0.6720
   13SAPS   C13 1603   5.300   2.467   1.101 -0.1028  0.1833  0.4152
   13SAPS  O13A 1604   5.300   2.346   1.070 -0.2637  0.1784  0.1660
   13SAPS  O13B 1605   5.292   2.559   1.017  0.0963  0.3082  0.0152
   13SAPS   C11 1606   5.213   2.617   1.295  0.3576 -0.4819 -0.3179
   13SAPS  H11A 1607   5.236   2.713   1.244  1.3005 -1.1323 -1.1570
   13SAPS  H11B 1608   5.218   2.621   1.406 -1.8482 -0.3481 -0.1863
   13SAPS     P 1609   4.953   2.660   1.280 -0.0474  0.3003 -0.1577
   13SAPS   O13 1610   4.990   2.786   1.208 -0.2049 -0.3187 -0.9749
   13SAPS   O14 1611   4.834   2.585   1.227 -0.3772  0.8693  0.1305
   13SAPS   O12 1612   5.083   2.569   1.253  0.4479  0.4604  0.2321
   13SAPS   O11 1613   4.944   2.685   1.438  0.9185  0.2902  0.1914
   13SAPS    C1 1614   4.912   2.579   1.532  0.0460  0.1542 -0.0930
   13SAPS    HA 1615   4.806   2.548   1.528 -0.7424  2.7702 -1.0023
   13SAPS    HB 1616   4.968   2.487   1.502 -1.2190 -0.6512 -0.0685
   13SAPS    C2 1617   4.952   2.594   1.681 -0.1362 -0.1593 -0.3813
   13SAPS    HS 1618   4.918   2.505   1.739  1.8910 -1.9914 -1.8081
   13SAPS   O21 1619   4.896   2.704   1.748  0.7202  0.0698 -0.6412
   13SAPS   C21 1620   4.765   2.701   1.755 -0.4196  0.4625  0.1456
   13SAPS   O22 1621   4.696   2.605   1.722  0.2670  0.2916  0.5233
   13SAPS   C22 1622   4.710   2.834   1.802  1.0019  0.3468  0.0223
   13SAPS   H2R 1623   4.694   2.891   1.707 -2.3389  0.6164  0.6190
   13SAPS   H2S 1624   4.610   2.806   1.842  1.3267  0.8584  1.2259
   13SAPS    C3 1625   5.104   2.606   1.681 -0.7182 -0.2685 -0.7574
   13SAPS    HX 1626   5.142   2.686   1.614  0.4568  1.2619  1.5839
   13SAPS    HY 1627   5.150   2.515   1.638 -0.4596 -0.8730  0.7186
   13SAPS   O31 1628   5.159   2.616   1.819 -0.0811  0.2706 -1.0300
   13SAPS   C31 1629   5.211   2.729   1.850 -0.7881 -0.1645 -0.3303
   13SAPS   O32 1630   5.227   2.829   1.780 -0.6582 -0.3876 -0.3643
   13SAPS   C32 1631   5.248   2.732   1.996 -0.3829 -0.0076  0.1731
   13SAPS   H2X 1632   5.324   2.810   2.017 -0.4921 -0.0491  0.7341
   13SAPS   H2Y 1633   5.277   2.628   2.023 -1.1715 -0.9382 -2.2655
   13SAPS   C23 1634   4.792   2.920   1.899 -0.1489 -0.1138  0.4455
   13SAPS   H3R 1635   4.882   2.976   1.865  1.0812 -2.5337 -0.5671
   13SAPS   H3S 1636   4.825   2.842   1.971  0.8142  1.0825  1.3460
   13SAPS   C24 1637   4.711   3.040   1.964 -0.2371  0.8790 -0.2363
   13SAPS   H4R 1638   4.622   2.991   2.009 -0.5204 -0.0305 -1.7274
   13SAPS   H4S 1639   4.673   3.108   1.885 -0.0811 -0.8380 -1.8572
   13SAPS   C25 1640   4.772   3.128   2.062 -0.1255 -0.3873  0.2267
   13SAPS   H5R 1641   4.833   3.208   2.016 -0.0833 -0.5070  0.0766
   13SAPS   C26 1642   4.775   3.120   2.202 -0.5203 -0.1059 -0.8707
   13SAPS   H6R 1643   4.824   3.204   2.254  0.7450 -0.6852 -1.0895
   13SAPS   C27 1644   4.699   3.018   2.294  0.0798 -0.2131 -0.6062
   13SAPS   H7R 1645   4.718   2.920   2.246  0.4934 -0.4285 -0.0018
   13SAPS   H7S 1646   4.590   3.038   2.283 -0.0488 -0.2228  0.5887
   13SAPS   C28 1647   4.748   3.013   2.433  0.6601 -0.2364  0.3847
   13SAPS   H8R 1648   4.852   3.047   2.444  0.7639  0.3600 -2.0457
   13SAPS   C29 1649   4.680   2.975   2.540  0.3814 -0.4399  0.3523
   13SAPS   H9R 1650   4.735   2.984   2.635  1.2765  1.5227 -0.3070
   13SAPS  C210 1651   4.531   2.947   2.547  0.1063  0.3739 -0.8395
   13SAPS  H10R 1652   4.477   2.989   2.459 -1.2834 -0.1491 -0.2648
   13SAPS  H10S 1653   4.493   3.013   2.628  1.1273  2.0262 -1.6377
   13SAPS  C211 1654   4.508   2.804   2.591 -0.1372 -0.1784 -0.7386
   13SAPS  H11R 1655   4.572   2.761   2.670  0.5457  2.0185 -0.0133
   13SAPS  C212 1656   4.402   2.730   2.552 -0.2933 -0.0223  0.3124
   13SAPS  H12R 1657   4.389   2.631   2.597 -0.3054 -1.0089 -1.7971
   13SAPS  C213 1658   4.297   2.774   2.454 -0.4309 -0.3621 -0.3063
   13SAPS  H13R 1659   4.290   2.885   2.459  0.2760 -0.3571  1.2292
   13SAPS  H13S 1660   4.200   2.738   2.493 -0.5790 -0.7676 -1.0205
   13SAPS  C214 1661   4.320   2.746   2.305  0.1183 -0.0917  0.2343
   13SAPS  H14R 1662   4.377   2.821   2.249  1.1303  1.2490  2.8833
   13SAPS  C215 1663   4.256   2.644   2.249 -0.6816 -0.2061  0.4554
   13SAPS  H15R 1664   4.275   2.619   2.144  1.6335 -0.8418  0.9783
   13SAPS  C216 1665   4.177   2.537   2.320 -0.8387 -0.0997  0.7425
   13SAPS  H16R 1666   4.101   2.490   2.254 -1.8656  1.2378  0.9331
   13SAPS  H16S 1667   4.117   2.589   2.398 -1.3509  0.4149  0.0120
   13SAPS  C217 1668   4.264   2.426   2.386  0.1783 -0.8120  0.3278
   13SAPS  H17R 1669   4.316   2.473   2.473  0.1350 -0.2140  0.0403
   13SAPS  H17S 1670   4.341   2.388   2.315  1.5401  0.4424  1.0838
   13SAPS  C218 1671   4.183   2.303   2.433  0.3549 -0.4776 -0.7093
   13SAPS  H18R 1672   4.094   2.271   2.374 -2.0729  0.7347  2.0924
   13SAPS  H18S 1673   4.147   2.321   2.536  0.3849 -1.4114 -0.5261
   13SAPS  C219 1674   4.277   2.179   2.451 -0.1069  0.1947  0.0552
   13SAPS  H19R 1675   4.371   2.201   2.506 -0.8031  3.5709  0.1239
   13SAPS  H19S 1676   4.304   2.154   2.346 -1.3649  2.2972 -0.8505
   13SAPS  C220 1677   4.216   2.060   2.526 -0.1497 -0.3804  0.1268
   13SAPS  H20R 1678   4.281   1.971   2.507 -2.6097 -2.4256  0.6564
   13SAPS  H20S 1679   4.118   2.031   2.483 -1.2011  0.5404  1.7849
   13SAPS  H20T 1680   4.206   2.083   2.634 -1.4831  1.2465 -0.3160
   13SAPS   C33 1681   5.125   2.772   2.078 -0.1071  0.1924  0.3463
   13SAPS   H3X 1682   5.025   2.739   2.041 -0.4452  1.1868  0.3347
   13SAPS   H3Y 1683   5.115   2.881   2.062  0.7776  0.2072 -0.1468
   13SAPS   C34 1684   5.145   2.720   2.221 -0.0366 -0.3033  0.3073
   13SAPS   H4X 1685   5.238   2.758   2.269 -0.6160  0.4270  0.8834
   13SAPS   H4Y 1686   5.152   2.609   2.216  0.5898 -0.3754  2.0447
   13SAPS   C35 1687   5.018   2.754   2.299 -0.1866 -0.3008  0.0271
   13SAPS   H5X 1688   4.922   2.723   2.252 -0.7211 -1.8966  2.0109
   13SAPS   H5Y 1689   5.012   2.864   2.300 -1.2628 -0.3073 -1.4856
   13SAPS   C36 1690   5.023   2.683   2.432 -0.4531 -0.1427 -0.0877
   13SAPS   H6X 1691   5.131   2.688   2.459 -0.0753 -2.6735 -0.8515
   13SAPS   H6Y 1692   4.987   2.578   2.427 -1.1145 -0.0104  1.3810
   13SAPS   C37 1693   4.948   2.753   2.550 -0.2217 -0.4354 -0.1213
   13SAPS   H7X 1694   4.840   2.753   2.523  0.2615  1.5482 -2.5027
   13SAPS   H7Y 1695   4.982   2.859   2.552 -0.6509 -0.2818  2.4153
   13SAPS   C38 1696   4.963   2.683   2.684  0.7123 -0.1303 -0.3816
   13SAPS   H8X 1697   5.072   2.690   2.708  0.6917  1.3903 -0.6301
   13SAPS   H8Y 1698   4.930   2.579   2.666  0.3969 -0.2295  0.6637
   13SAPS   C39 1699   4.872   2.745   2.797  0.3400  0.5310 -0.6662
   13SAPS   H9X 1700   4.767   2.743   2.763 -0.2192  1.1540  0.9282
   13SAPS   H9Y 1701   4.898   2.853   2.809 -1.4714  1.0974 -1.4532
   13SAPS  C310 1702   4.893   2.682   2.943  0.2093  0.6459 -0.8666
   13SAPS  H10X 1703   4.993   2.701   2.988  1.0263 -0.2408 -2.2248
   13SAPS  H10Y 1704   4.886   2.571   2.933  1.2513  0.5695 -0.8309
   13SAPS  C311 1705   4.791   2.749   3.044  1.0531  0.1217 -0.0651
   13SAPS  H11X 1706   4.688   2.737   3.003  0.5450  0.2641  1.1213
   13SAPS  H11Y 1707   4.813   2.856   3.024 -1.3764  0.4754 -1.1804
   13SAPS  C312 1708   4.804   2.693   3.185  0.2354  0.1251 -0.2707
   13SAPS  H12X 1709   4.900   2.719   3.235  0.0742  1.3437 -0.5526
   13SAPS  H12Y 1710   4.791   2.584   3.174 -2.1000 -0.1671  3.5812
   13SAPS  C313 1711   4.687   2.731   3.273  0.2520 -0.1336 -0.7871
   13SAPS  H13X 1712   4.592   2.701   3.224 -0.5349 -0.6727  1.0042
   13SAPS  H13Y 1713   4.686   2.837   3.306  0.0766 -0.3665 -0.0204
   13SAPS  C314 1714   4.681   2.653   3.414  0.2465  0.8504 -0.6182
   13SAPS  H14X 1715   4.747   2.566   3.393  0.3329  0.7499  0.0541
   13SAPS  H14Y 1716   4.573   2.629   3.429  0.2161  1.0644 -0.4827
   13SAPS  C315 1717   4.725   2.725   3.542 -0.1016  0.5030 -0.0428
   13SAPS  H15X 1718   4.654   2.807   3.567 -0.1950  0.4373 -0.0954
   13SAPS  H15Y 1719   4.821   2.775   3.517 -0.6155  1.1668 -0.7101
   13SAPS  C316 1720   4.742   2.644   3.671  0.2656  1.2549 -0.3397
   13SAPS  H16X 1721   4.775   2.707   3.756 -0.7995  0.4355  0.7257
   13SAPS  H16Y 1722   4.808   2.555   3.667 -0.5682  0.5764  0.3805
   13SAPS  C317 1723   4.605   2.589   3.719  0.3741 -0.1863  0.1830
   13SAPS  H17X 1724   4.567   2.528   3.634 -0.3946  0.7203 -0.1423
   13SAPS  H17Y 1725   4.530   2.671   3.729  0.5615  0.2230 -1.4287
   13SAPS  C318 1726   4.608   2.509   3.853  0.9682  0.2588  0.2542
   13SAPS  H18X 1727   4.682   2.426   3.848  1.5655  0.4671  3.5021
   13SAPS  H18Y 1728   4.510   2.460   3.869  0.2052  1.7122  0.2362
   13SAPS  H18Z 1729   4.627   2.576   3.940 -1.8641  0.9745  0.4036
   14SAPS     N 1730   6.836   3.181   2.417  0.0808 -0.0448 -0.3675
   14SAPS   HN1 1731   6.923   3.178   2.360  0.1551 -0.2731 -0.2401
   14SAPS   HN2 1732   6.855   3.166   2.517 -1.2475 -2.6406 -0.4361
   14SAPS   HN3 1733   6.761   3.113   2.394  0.5762 -1.0485  0.8938
   14SAPS   C12 1734   6.772   3.317   2.400  0.0815  0.0020  0.5614
   14SAPS  H12A 1735   6.699   3.318   2.480 -1.2839  0.6287 -0.6665
   14SAPS   C13 1736   6.859   3.449   2.411 -0.5414 -0.2669  0.2844
   14SAPS  O13A 1737   6.971   3.430   2.463 -0.3278 -0.0781  0.7498
   14SAPS  O13B 1738   6.799   3.561   2.415  0.0799 -0.0190 -0.1464
   14SAPS   C11 1739   6.693   3.339   2.271 -0.0468 -0.1434  0.7832
   14SAPS  H11A 1740   6.761   3.356   2.185  0.2951  0.5209  1.1797
   14SAPS  H11B 1741   6.636   3.435   2.276 -0.9170 -0.7138  2.5359
   14SAPS     P 1742   6.618   3.120   2.132  0.1630  0.0877  0.0534
   14SAPS   O13 1743   6.565   3.181   2.004  0.4525  0.7762 -0.1973
   14SAPS   O14 1744   6.757   3.083   2.130 -0.1662  0.1920  0.2287
   14SAPS   O12 1745   6.601   3.228   2.251 -0.0283  0.4159  0.0447
   14SAPS   O11 1746   6.522   2.996   2.179  0.4785  0.6970  0.5508
   14SAPS    C1 1747   6.392   3.011   2.230 -0.0834 -0.0812 -0.0240
   14SAPS    HA 1748   6.342   3.104   2.197 -0.2475 -0.0359  0.3514
   14SAPS    HB 1749   6.331   2.926   2.191 -1.1830  0.9300 -0.5653
   14SAPS    C2 1750   6.395   3.014   2.379  0.7590 -1.1161  0.2746
   14SAPS    HS 1751   6.447   3.106   2.413 -3.3315  1.7158 -0.4366
   14SAPS   O21 1752   6.451   2.899   2.434 -0.1839  0.7987 -0.0691
   14SAPS   C21 1753   6.587   2.894   2.450  0.1849  0.8316 -0.5873
   14SAPS   O22 1754   6.662   2.985   2.430 -0.0364 -0.3106  0.3395
   14SAPS   C22 1755   6.624   2.756   2.496 -0.1483  0.3947  0.2143
   14SAPS   H2R 1756   6.544   2.683   2.470  0.6451 -1.5479  2.8263
   14SAPS   H2S 1757   6.712   2.715   2.443 -2.9372 -1.1201 -3.7449
   14SAPS    C3 1758   6.254   3.037   2.443 -1.1534 -0.0722  1.0576
   14SAPS    HX 1759   6.184   2.963   2.398  1.2807 -0.9507 -1.6802
   14SAPS    HY 1760   6.226   3.141   2.415 -0.9696 -0.2224  0.2645
   14SAPS   O31 1761   6.256   3.030   2.583  0.1421  0.4466  0.5898
   14SAPS   C31 1762   6.142   3.068   2.637 -0.1449 -0.3783  0.6881
   14SAPS   O32 1763   6.052   3.117   2.573  0.2649 -0.5821 -0.0951
   14SAPS   C32 1764   6.154   3.037   2.783  0.0067  0.1296  0.1982
   14SAPS   H2X 1765   6.257   3.066   2.812 -0.0450  1.6782 -1.0489
   14SAPS   H2Y 1766   6.143   2.927   2.791 -1.0310  0.0139 -2.1064
   14SAPS   C23 1767   6.653   2.749   2.648 -0.3092 -0.0415  0.3687
   14SAPS   H3R 1768   6.748   2.806   2.657  0.3539 -1.4594  5.1309
   14SAPS   H3S 1769   6.675   2.643   2.676 -2.4104 -0.1231  1.9151
   14SAPS   C24 1770   6.535   2.815   2.735  0.1085  0.3061 -0.1152
   14SAPS   H4R 1771   6.506   2.915   2.694  1.0665  0.5991 -0.1115
   14SAPS   H4S 1772   6.561   2.836   2.841  0.0340 -2.1274  0.4263
   14SAPS   C25 1773   6.417   2.727   2.741  1.0574  0.0154  0.1400
   14SAPS   H5R 1774   6.353   2.723   2.652 -0.5379 -2.7244  1.2663
   14SAPS   C26 1775   6.388   2.630   2.834  0.2466 -0.8640  0.2045
   14SAPS   H6R 1776   6.298   2.569   2.818  0.7464 -0.7522 -4.4949
   14SAPS   C27 1777   6.453   2.598   2.966  0.0163  0.0423  0.3585
   14SAPS   H7R 1778   6.563   2.580   2.958 -0.1594 -0.6260 -0.7506
   14SAPS   H7S 1779   6.408   2.508   3.011  1.6432 -0.4302  1.1159
   14SAPS   C28 1780   6.417   2.714   3.051 -0.1960  0.0358  0.0945
   14SAPS   H8R 1781   6.386   2.807   3.001 -1.0453 -0.4587 -0.3232
   14SAPS   C29 1782   6.419   2.716   3.189 -0.2129 -0.4773  0.4218
   14SAPS   H9R 1783   6.379   2.802   3.245  2.1820  0.7924  0.3199
   14SAPS  C210 1784   6.462   2.598   3.279  0.0971  0.0019  0.1535
   14SAPS  H10R 1785   6.506   2.510   3.226 -3.1252 -2.3665  1.1293
   14SAPS  H10S 1786   6.371   2.541   3.307  0.8232 -0.0214  2.6993
   14SAPS  C211 1787   6.561   2.633   3.390  0.3468 -0.6244 -0.0145
   14SAPS  H11R 1788   6.666   2.609   3.368 -0.3669 -2.5306 -1.6639
   14SAPS  C212 1789   6.520   2.652   3.515 -0.1550  0.6254  0.2677
   14SAPS  H12R 1790   6.599   2.664   3.591 -0.3654 -1.1550  0.8244
   14SAPS  C213 1791   6.375   2.666   3.549 -1.1345 -0.3120  0.1530
   14SAPS  H13R 1792   6.359   2.617   3.647 -1.5927 -2.1060 -0.7675
   14SAPS  H13S 1793   6.308   2.603   3.487 -0.9588 -2.4571  2.0231
   14SAPS  C214 1794   6.322   2.807   3.564 -0.6635  0.2980  0.1568
   14SAPS  H14R 1795   6.372   2.872   3.637  1.5189 -0.4795 -0.5448
   14SAPS  C215 1796   6.228   2.858   3.479  0.1070  0.2238 -0.0405
   14SAPS  H15R 1797   6.199   2.964   3.481  1.4737  0.7501 -2.6819
   14SAPS  C216 1798   6.149   2.788   3.372  0.2033  0.3520 -0.2899
   14SAPS  H16R 1799   6.197   2.698   3.328 -0.2442 -0.7742  1.3969
   14SAPS  H16S 1800   6.148   2.860   3.288  0.2529  1.9940  1.0700
   14SAPS  C217 1801   6.015   2.752   3.434 -1.0387  0.7904  0.2774
   14SAPS  H17R 1802   5.973   2.840   3.486  0.0792  1.1313  0.6339
   14SAPS  H17S 1803   6.030   2.676   3.514  0.7562  1.2028  0.3845
   14SAPS  C218 1804   5.924   2.703   3.315 -0.2114 -1.0832  0.3324
   14SAPS  H18R 1805   5.982   2.616   3.276  0.4449  0.3245 -2.0681
   14SAPS  H18S 1806   5.923   2.772   3.228 -1.3281  0.8077  1.7728
   14SAPS  C219 1807   5.786   2.673   3.366 -0.5794 -0.0254  0.6614
   14SAPS  H19R 1808   5.749   2.769   3.409 -0.8550  0.3805 -0.4666
   14SAPS  H19S 1809   5.789   2.592   3.443  1.8759 -1.7208 -1.0627
   14SAPS  C220 1810   5.673   2.643   3.266 -0.1022 -0.4347 -0.5058
   14SAPS  H20R 1811   5.581   2.656   3.326 -0.2074  0.4362 -0.8436
   14SAPS  H20S 1812   5.682   2.535   3.242  0.8059 -0.4851  0.0231
   14SAPS  H20T 1813   5.672   2.701   3.171 -1.7651 -1.6624 -1.3020
   14SAPS   C33 1814   6.043   3.093   2.873  0.2487 -0.0109 -0.2177
   14SAPS   H3X 1815   5.943   3.069   2.831 -0.4419  2.7993 -0.3945
   14SAPS   H3Y 1816   6.048   3.204   2.882  1.1050 -0.0209 -0.4983
   14SAPS   C34 1817   6.046   3.038   3.018 -0.0198 -0.2682  0.7931
   14SAPS   H4X 1818   6.152   3.055   3.050  0.0283  2.6588 -0.5762
   14SAPS   H4Y 1819   6.029   2.929   3.022  1.9635 -0.5907  2.1772
   14SAPS   C35 1820   5.932   3.098   3.110 -1.1770  0.5865  0.1753
   14SAPS   H5X 1821   5.955   3.206   3.119  1.1556  0.3135 -1.5431
   14SAPS   H5Y 1822   5.940   3.040   3.205 -0.8178  0.1450 -0.1171
   14SAPS   C36 1823   5.787   3.093   3.059 -0.4483  0.6851 -0.7129
   14SAPS   H6X 1824   5.751   2.993   3.025 -1.9932  1.1225 -0.4422
   14SAPS   H6Y 1825   5.768   3.159   2.971 -2.4639  2.1317  0.7329
   14SAPS   C37 1826   5.683   3.140   3.159  0.0516 -0.5770  0.0889
   14SAPS   H7X 1827   5.585   3.148   3.108  0.8424  3.4612 -1.1910
   14SAPS   H7Y 1828   5.725   3.240   3.186  2.8863 -1.1514 -1.7686
   14SAPS   C38 1829   5.683   3.054   3.279 -0.1709 -0.2079 -0.0064
   14SAPS   H8X 1830   5.775   3.058   3.340 -1.0051  0.0055  1.2621
   14SAPS   H8Y 1831   5.666   2.948   3.253  0.9742 -0.8420  1.6743
   14SAPS   C39 1832   5.573   3.098   3.382  0.0493 -0.3601  0.5851
   14SAPS   H9X 1833   5.470   3.074   3.348  1.4095 -0.1555 -4.4681
   14SAPS   H9Y 1834   5.587   3.207   3.396 -1.3426  0.0034 -0.6096
   14SAPS  C310 1835   5.595   3.028   3.511 -0.4276 -0.4786  0.1860
   14SAPS  H10X 1836   5.689   3.075   3.549  0.6331 -0.9210 -1.7755
   14SAPS  H10Y 1837   5.612   2.922   3.485 -1.4080 -0.0992 -2.3401
   14SAPS  C311 1838   5.490   3.044   3.619 -0.5366 -0.7958  0.2495
   14SAPS  H11X 1839   5.400   2.996   3.575 -0.0612 -0.2181 -1.4277
   14SAPS  H11Y 1840   5.473   3.153   3.627 -1.8377 -0.7983 -1.9415
   14SAPS  C312 1841   5.540   2.981   3.752 -0.9773  0.0336  0.2579
   14SAPS  H12X 1842   5.630   3.042   3.776 -0.9746  0.2286 -0.2206
   14SAPS  H12Y 1843   5.563   2.874   3.735 -2.4700 -0.0561 -1.5904
   14SAPS  C313 1844   5.446   3.003   3.873  0.1294  0.4927  0.0193
   14SAPS  H13X 1845   5.423   3.112   3.875  1.7795  0.8674  2.0118
   14SAPS  H13Y 1846   5.503   2.991   3.967 -0.7646  0.0836  0.5241
   14SAPS  C314 1847   5.326   2.910   3.866  0.3135  0.5546 -0.5577
   14SAPS  H14X 1848   5.366   2.811   3.894 -1.4101 -0.3626 -1.1790
   14SAPS  H14Y 1849   5.287   2.912   3.762 -0.1098 -0.2249 -0.4232
   14SAPS  C315 1850   5.211   2.941   3.968 -0.0423 -0.7081 -0.0222
   14SAPS  H15X 1851   5.176   3.045   3.955  1.0938 -0.3611 -0.4757
   14SAPS  H15Y 1852   5.265   2.957   4.064 -0.5355  3.6135 -0.2842
   14SAPS  C316 1853   5.112   2.828   3.964  0.9953  0.0585 -0.4389
   14SAPS  H16X 1854   5.169   2.738   3.994  2.6953  1.4043  0.5865
   14SAPS  H16Y 1855   5.069   2.813   3.863  1.7177 -1.6391 -0.5346
   14SAPS  C317 1856   4.987   2.864   4.054 -0.4804  0.1528 -0.0911
   14SAPS  H17X 1857   4.931   2.950   4.012 -0.5829  0.8566  1.4352
   14SAPS  H17Y 1858   5.035   2.906   4.145  1.3060  0.2442 -1.0358
   14SAPS  C318 1859   4.883   2.755   4.099 -0.1887  0.4560 -0.0174
   14SAPS  H18X 1860   4.825   2.727   4.009 -1.5040  0.3316  0.8504
   14SAPS  H18Y 1861   4.812   2.797   4.172 -1.0150  1.5021 -1.3738
   14SAPS  H18Z 1862   4.934   2.663   4.133 -1.2716  0.3333  1.3207
   15SAPS     N 1863   4.851   4.352   1.733  0.5108  0.1522  0.2616
   15SAPS   HN1 1864   4.881   4.261   1.773 -2.0603 -1.5343 -1.3889
   15SAPS   HN2 1865   4.902   4.392   1.651  0.2517  0.0008  0.0290
   15SAPS   HN3 1866   4.863   4.420   1.811 -0.2401  0.2831  0.2617
   15SAPS   C12 1867   4.705   4.326   1.708 -0.5324  0.3725 -0.5166
   15SAPS  H12A 1868   4.655   4.368   1.794  0.1213  0.3970 -0.1477
   15SAPS   C13 1869   4.648   4.402   1.586  0.5651  0.1156 -0.4812
   15SAPS  O13A 1870   4.710   4.486   1.528  0.0665 -0.5748 -0.0352
   15SAPS  O13B 1871   4.523   4.390   1.568 -0.4165  0.9244  0.1264
   15SAPS   C11 1872   4.680   4.173   1.691  0.1171  0.7006  0.5052
   15SAPS  H11A 1873   4.729   4.138   1.597  2.2233 -0.3367  1.9117
   15SAPS  H11B 1874   4.571   4.160   1.678  0.4365 -3.5561  0.6687
   15SAPS     P 1875   4.663   3.961   1.829  0.5031 -0.2037  0.3299
   15SAPS   O13 1876   4.590   3.908   1.713 -0.1726 -0.0489 -0.4710
   15SAPS   O14 1877   4.747   3.870   1.912 -0.3556 -0.2270  0.4454
   15SAPS   O12 1878   4.735   4.094   1.796  0.6784 -0.2742  0.1773
   15SAPS   O11 1879   4.547   4.007   1.922  0.0514 -0.1739 -0.6344
   15SAPS    C1 1880   4.561   4.134   1.990 -0.1181 -0.5324  0.3179
   15SAPS    HA 1881   4.660   4.182   2.003 -0.3947 -0.3255  1.8721
   15SAPS    HB 1882   4.493   4.208   1.943 -0.8526 -2.1535 -1.2828
   15SAPS    C2 1883   4.510   4.122   2.137  0.7043  0.2269  0.4084
   15SAPS    HS 1884   4.508   4.227   2.172  0.2604  0.3205  0.1156
   15SAPS   O21 1885   4.592   4.027   2.211  0.2779 -0.5741  0.0250
   15SAPS   C21 1886   4.704   4.088   2.259 -0.1630  0.4200  0.2709
   15SAPS   O22 1887   4.738   4.202   2.239  0.4347 -0.1478 -1.2806
   15SAPS   C22 1888   4.779   3.997   2.360  0.2313 -0.3948 -0.0608
   15SAPS   H2R 1889   4.828   3.915   2.304 -0.7676 -1.8539  1.1316
   15SAPS   H2S 1890   4.864   4.054   2.405  0.5443 -1.0374  0.1786
   15SAPS    C3 1891   4.359   4.075   2.146 -0.0199  0.1088 -0.1816
   15SAPS    HX 1892   4.356   3.989   2.076 -0.0008  2.2270 -2.9673
   15SAPS    HY 1893   4.302   4.157   2.098 -0.6989  0.9410  1.9222
   15SAPS   O31 1894   4.308   4.048   2.275 -0.0726  0.3640  0.2161
   15SAPS   C31 1895   4.349   3.929   2.328  0.4686  1.1484  0.8184
   15SAPS   O32 1896   4.410   3.845   2.262  0.5449 -0.6004 -0.1575
   15SAPS   C32 1897   4.299   3.897   2.467 -0.3428  0.0857 -0.0951
   15SAPS   H2X 1898   4.200   3.847   2.460  1.0436 -2.8011 -0.7090
   15SAPS   H2Y 1899   4.277   3.991   2.521 -1.7053 -0.5854  0.5744
   15SAPS   C23 1900   4.694   3.940   2.475  0.3368 -1.0073  0.3224
   15SAPS   H3R 1901   4.606   3.889   2.430  0.8254 -0.7276 -0.9712
   15SAPS   H3S 1902   4.652   4.021   2.538  1.1129 -0.9113  0.7340
   15SAPS   C24 1903   4.776   3.864   2.569 -0.0526  0.3834  0.3451
   15SAPS   H4R 1904   4.724   3.841   2.664  1.5656  1.9579  1.6970
   15SAPS   H4S 1905   4.862   3.929   2.598 -0.6370  0.9197  0.9194
   15SAPS   C25 1906   4.818   3.732   2.501  0.7703  0.6313 -0.6013
   15SAPS   H5R 1907   4.747   3.683   2.432  1.9229 -0.2695 -1.1819
   15SAPS   C26 1908   4.940   3.676   2.496 -0.1939  0.3159  0.0799
   15SAPS   H6R 1909   4.948   3.586   2.434 -1.6029  0.8658 -0.9677
   15SAPS   C27 1910   5.058   3.721   2.585 -0.0386 -0.5649  0.4220
   15SAPS   H7R 1911   5.114   3.629   2.612  0.2542 -0.0193  1.7254
   15SAPS   H7S 1912   5.007   3.751   2.679 -3.2257  0.5546 -1.5078
   15SAPS   C28 1913   5.141   3.837   2.541 -0.4293 -0.2106  0.3228
   15SAPS   H8R 1914   5.149   3.853   2.432  0.7035  0.8073  0.5406
   15SAPS   C29 1915   5.229   3.913   2.616  1.1076  0.0336 -0.5067
   15SAPS   H9R 1916   5.275   4.005   2.578  0.5715  0.5284  0.0428
   15SAPS  C210 1917   5.230   3.893   2.764  0.2222  0.2032  0.3698
   15SAPS  H10R 1918   5.333   3.875   2.803  0.1152 -0.6938  0.2651
   15SAPS  H10S 1919   5.170   3.807   2.799 -0.8499  1.3740  1.5161
   15SAPS  C211 1920   5.159   4.012   2.836  0.7817 -0.2609 -0.1793
   15SAPS  H11R 1921   5.192   4.109   2.795 -0.6565 -0.6521 -2.4466
   15SAPS  C212 1922   5.058   4.002   2.927 -0.1412 -0.2136 -0.1548
   15SAPS  H12R 1923   5.038   4.098   2.976  1.2207  0.9793 -1.7902
   15SAPS  C213 1924   5.007   3.872   2.986  0.1194 -0.3666  0.0844
   15SAPS  H13R 1925   4.991   3.812   2.895 -0.3549  0.6432 -0.5070
   15SAPS  H13S 1926   4.908   3.887   3.034  0.0560  0.3646 -0.2586
   15SAPS  C214 1927   5.106   3.797   3.081  0.5873  0.2624  0.5128
   15SAPS  H14R 1928   5.212   3.822   3.065  1.5092 -0.4041  4.5009
   15SAPS  C215 1929   5.080   3.706   3.175 -0.7199 -0.0040 -0.4220
   15SAPS  H15R 1930   5.166   3.667   3.231 -0.8426 -1.6013 -1.3092
   15SAPS  C216 1931   4.951   3.648   3.219  0.4384  0.6363 -0.1220
   15SAPS  H16R 1932   4.896   3.715   3.290 -1.8612 -1.0146 -0.2464
   15SAPS  H16S 1933   4.977   3.554   3.273  0.1340 -0.0762 -1.1957
   15SAPS  C217 1934   4.840   3.608   3.119 -0.5562  0.1282  0.2980
   15SAPS  H17R 1935   4.870   3.520   3.058 -0.4717 -0.3503  1.0187
   15SAPS  H17S 1936   4.841   3.695   3.051  1.1218  2.3757  2.9952
   15SAPS  C218 1937   4.700   3.585   3.171  0.3621  0.7696 -0.7544
   15SAPS  H18R 1938   4.682   3.662   3.249  0.2772 -0.9566  1.0195
   15SAPS  H18S 1939   4.679   3.490   3.224 -2.9463  0.7054 -1.9527
   15SAPS  C219 1940   4.599   3.597   3.055  1.3511  0.3887 -0.5268
   15SAPS  H19R 1941   4.639   3.548   2.964  0.0985 -1.2791 -0.2326
   15SAPS  H19S 1942   4.591   3.706   3.036  0.3222  0.7287  1.5927
   15SAPS  C220 1943   4.457   3.547   3.086  0.2521 -0.0825 -0.1194
   15SAPS  H20R 1944   4.449   3.436   3.083 -1.2958 -0.0098 -3.4865
   15SAPS  H20S 1945   4.388   3.593   3.012  0.2847 -1.7217 -1.2145
   15SAPS  H20T 1946   4.414   3.588   3.180  0.1718  1.9247 -0.9711
   15SAPS   C33 1947   4.385   3.810   2.565 -0.1804 -0.1871 -0.0978
   15SAPS   H3X 1948   4.469   3.877   2.595  0.1915 -1.1770  1.2015
   15SAPS   H3Y 1949   4.414   3.717   2.511  1.2511 -0.0267  0.3508
   15SAPS   C34 1950   4.319   3.773   2.704 -0.1631 -0.2236  1.4492
   15SAPS   H4X 1951   4.385   3.700   2.756  0.1870 -0.9663  0.0194
   15SAPS   H4Y 1952   4.222   3.727   2.675 -0.8715  1.3874  1.1618
   15SAPS   C35 1953   4.287   3.890   2.791 -0.7666 -0.0073 -0.0913
   15SAPS   H5X 1954   4.241   3.966   2.725 -1.0882 -1.6107 -1.8148
   15SAPS   H5Y 1955   4.386   3.923   2.829 -0.0155 -1.9360 -0.2234
   15SAPS   C36 1956   4.197   3.864   2.905  0.0132  0.0436 -0.0550
   15SAPS   H6X 1957   4.226   3.767   2.950  1.2964 -0.0291 -0.9820
   15SAPS   H6Y 1958   4.091   3.869   2.872  0.0373 -1.4697 -0.4038
   15SAPS   C37 1959   4.220   3.964   3.010 -0.1231  0.0706  0.0556
   15SAPS   H7X 1960   4.205   4.066   2.969 -0.8492 -0.9505 -2.3768
   15SAPS   H7Y 1961   4.324   3.950   3.044 -0.5011  0.1623  1.3128
   15SAPS   C38 1962   4.135   3.958   3.140  0.1709  0.2265  0.2337
   15SAPS   H8X 1963   4.174   3.872   3.198 -1.1068  0.6898  1.8756
   15SAPS   H8Y 1964   4.028   3.943   3.114  0.2456 -1.1481  0.6584
   15SAPS   C39 1965   4.157   4.071   3.239 -0.5773 -0.2821  0.5498
   15SAPS   H9X 1966   4.132   4.170   3.197  2.5679  0.2713 -0.3247
   15SAPS   H9Y 1967   4.263   4.079   3.272 -0.0396 -0.8613 -0.9344
   15SAPS  C310 1968   4.085   4.061   3.369 -0.4529 -0.4810  0.0816
   15SAPS  H10X 1969   3.976   4.057   3.345 -0.2656 -2.0948 -0.7103
   15SAPS  H10Y 1970   4.104   4.147   3.436  2.7411 -0.2549 -0.9383
   15SAPS  C311 1971   4.108   3.931   3.444 -1.0588  0.6985 -0.4414
   15SAPS  H11X 1972   4.219   3.917   3.445 -1.1058  0.2667  0.7215
   15SAPS  H11Y 1973   4.075   3.841   3.388 -0.3866 -0.5199  1.0546
   15SAPS  C312 1974   4.046   3.939   3.586 -0.8202 -0.5518 -0.0563
   15SAPS  H12X 1975   4.077   3.852   3.647  0.2577  0.5261  0.9652
   15SAPS  H12Y 1976   3.936   3.938   3.569 -1.1155  1.7374  1.3118
   15SAPS  C313 1977   4.067   4.064   3.667  0.3792  0.5301 -0.4418
   15SAPS  H13X 1978   4.017   4.155   3.626 -0.5963  0.0822 -0.2803
   15SAPS  H13Y 1979   4.174   4.087   3.686  0.3108  0.5758 -0.1077
   15SAPS  C314 1980   4.005   4.040   3.808  1.3197 -0.0795  0.5110
   15SAPS  H14X 1981   3.903   4.000   3.790  0.9928  0.9001  0.1338
   15SAPS  H14Y 1982   3.998   4.137   3.862 -2.5881  0.3311 -0.4095
   15SAPS  C315 1983   4.091   3.959   3.896  0.5637 -0.1398  0.1538
   15SAPS  H15X 1984   4.161   4.037   3.934  0.0056  1.7761 -2.4438
   15SAPS  H15Y 1985   4.150   3.891   3.831 -1.5043 -2.2154  0.3191
   15SAPS  C316 1986   4.019   3.896   4.018 -1.5021  0.0808  0.1720
   15SAPS  H16X 1987   3.950   3.821   3.975  0.6250 -1.0558 -1.4154
   15SAPS  H16Y 1988   3.979   3.978   4.083 -2.0312 -0.2406  0.2570
   15SAPS  C317 1989   4.122   3.807   4.091 -0.5329 -0.1695 -0.4938
   15SAPS  H17X 1990   4.216   3.864   4.104 -0.6095 -0.2831  0.7449
   15SAPS  H17Y 1991   4.137   3.725   4.018  2.8937 -1.4219  1.4221
   15SAPS  C318 1992   4.067   3.765   4.227  0.3779  0.3232 -0.6450
   15SAPS  H18X 1993   4.077   3.842   4.307  1.5418  0.4241 -0.8673
   15SAPS  H18Y 1994   4.117   3.674   4.265  0.5036 -0.2098 -2.0466
   15SAPS  H18Z 1995   3.960   3.738   4.219  0.5001 -0.0275 -1.1285
   16SAPS     N 1996   6.307   5.202   2.077 -0.7301 -0.5546  0.3077
   16SAPS   HN1 1997   6.254   5.198   1.988  0.4549 -1.9564 -0.3878
   16SAPS   HN2 1998   6.241   5.167   2.150 -0.9801  1.0224  0.8682
   16SAPS   HN3 1999   6.349   5.295   2.099  0.4775 -0.9168 -0.3405
   16SAPS   C12 2000   6.427   5.109   2.076 -0.5835 -0.6264  0.3910
   16SAPS  H12A 2001   6.406   5.013   2.030 -1.4476  1.5630 -4.3858
   16SAPS   C13 2002   6.550   5.165   1.988  0.2344 -0.7111  0.5718
   16SAPS  O13A 2003   6.537   5.281   1.932  0.2811  0.4814 -0.1894
   16SAPS  O13B 2004   6.659   5.109   1.987 -0.4813  0.0597 -0.2256
   16SAPS   C11 2005   6.490   5.095   2.218  0.4664  0.2285  0.3726
   16SAPS  H11A 2006   6.538   5.190   2.249  1.9995  0.3085 -2.0495
   16SAPS  H11B 2007   6.563   5.012   2.207 -1.5294 -1.5553 -0.1828
   16SAPS     P 2008   6.396   4.963   2.419  0.7622  0.1341 -0.2158
   16SAPS   O13 2009   6.257   4.960   2.484 -0.3062  0.1406  0.2724
   16SAPS   O14 2010   6.448   4.839   2.358 -0.3175  0.0555  0.2756
   16SAPS   O12 2011   6.381   5.073   2.314 -0.2968 -0.1481  0.0397
   16SAPS   O11 2012   6.509   5.029   2.514 -0.3059 -0.9122 -0.2978
   16SAPS    C1 2013   6.510   5.164   2.550 -0.5392  0.3421  0.0424
   16SAPS    HA 2014   6.586   5.219   2.491  1.1278 -0.7793  1.0549
   16SAPS    HB 2015   6.415   5.218   2.529 -0.2449  0.1865 -1.8621
   16SAPS    C2 2016   6.554   5.177   2.698  0.0914 -0.1220 -0.3550
   16SAPS    HS 2017   6.499   5.107   2.765  0.2569  1.3288  1.3673
   16SAPS   O21 2018   6.521   5.306   2.751  0.0299  0.0605 -0.0540
   16SAPS   C21 2019   6.398   5.332   2.786 -0.2219  0.3048 -0.5094
   16SAPS   O22 2020   6.303   5.256   2.783  0.0006  0.4017  0.3468
   16SAPS   C22 2021   6.395   5.460   2.856  0.0371  0.6083 -0.4426
   16SAPS   H2R 2022   6.480   5.523   2.821  2.4540 -1.3333  1.5071
   16SAPS   H2S 2023   6.296   5.505   2.838 -0.6647 -1.4284 -2.0500
   16SAPS    C3 2024   6.708   5.155   2.710 -0.2296  0.0405  0.5656
   16SAPS    HX 2025   6.757   5.244   2.665  0.5396 -1.3795 -1.5915
   16SAPS    HY 2026   6.731   5.064   2.651  1.3321  1.2059 -0.7077
   16SAPS   O31 2027   6.749   5.139   2.848  0.2833 -0.5600 -0.0069
   16SAPS   C31 2028   6.880   5.136   2.864 -0.2051  0.9857  0.3007
   16SAPS   O32 2029   6.964   5.132   2.774 -0.0633  0.7152  0.2204
   16SAPS   C32 2030   6.921   5.130   3.014  0.3060  0.0669 -0.1584
   16SAPS   H2X 2031   6.920   5.234   3.056  2.5579 -0.1267  0.5388
   16SAPS   H2Y 2032   7.024   5.090   3.021  0.0837 -1.0655 -2.5242
   16SAPS   C23 2033   6.400   5.450   3.011 -0.0040 -0.0783 -1.0006
   16SAPS   H3R 2034   6.322   5.388   3.060 -0.5459  0.1844 -1.5094
   16SAPS   H3S 2035   6.366   5.549   3.046 -1.1385 -0.9688  0.5184
   16SAPS   C24 2036   6.538   5.431   3.073  0.6940 -0.3387  0.0963
   16SAPS   H4R 2037   6.615   5.379   3.013 -2.3764 -1.7609 -2.9721
   16SAPS   H4S 2038   6.520   5.373   3.166 -0.4554 -0.1936 -0.0194
   16SAPS   C25 2039   6.602   5.568   3.110 -0.4980 -0.3153 -1.0122
   16SAPS   H5R 2040   6.630   5.628   3.021 -0.4485 -0.2376 -0.9449
   16SAPS   C26 2041   6.628   5.606   3.237  0.2611 -0.2168 -0.9050
   16SAPS   H6R 2042   6.671   5.707   3.250 -1.0999  0.3142 -0.3047
   16SAPS   C27 2043   6.597   5.539   3.373 -1.0068 -0.2928  0.0967
   16SAPS   H7R 2044   6.626   5.609   3.454  1.9271  0.4142 -1.4375
   16SAPS   H7S 2045   6.668   5.454   3.379  1.2562  1.2838 -2.5061
   16SAPS   C28 2046   6.460   5.505   3.409  0.0333  0.5920  0.2531
   16SAPS   H8R 2047   6.391   5.496   3.323  2.3926 -2.9220 -1.5158
   16SAPS   C29 2048   6.411   5.493   3.530 -0.0351 -0.2259  0.7698
   16SAPS   H9R 2049   6.306   5.460   3.530  0.0668 -0.5946 -0.2221
   16SAPS  C210 2050   6.474   5.513   3.668 -1.0278 -0.2087  0.1808
   16SAPS  H10R 2051   6.400   5.562   3.734 -0.7403 -0.9954  1.1200
   16SAPS  H10S 2052   6.558   5.586   3.669 -1.5767  0.4404  1.9586
   16SAPS  C211 2053   6.510   5.379   3.724  0.0268  0.3138  0.2201
   16SAPS  H11R 2054   6.552   5.308   3.650  1.7991  3.6382 -2.2110
   16SAPS  C212 2055   6.515   5.345   3.853 -0.1977  0.0190  0.2125
   16SAPS  H12R 2056   6.555   5.244   3.869  0.8241  0.4259  0.2952
   16SAPS  C213 2057   6.477   5.430   3.978  0.0620 -0.0495 -0.1438
   16SAPS  H13R 2058   6.494   5.540   3.967  0.2046 -0.2792 -2.9287
   16SAPS  H13S 2059   6.560   5.412   4.050  0.4398  2.4198  0.1424
   16SAPS  C214 2060   6.340   5.397   4.028 -0.0004  0.3669  0.3600
   16SAPS  H14R 2061   6.303   5.300   3.990  1.1170  0.2191 -0.3977
   16SAPS  C215 2062   6.256   5.467   4.100 -0.0418 -0.2801  0.2245
   16SAPS  H15R 2063   6.161   5.427   4.140  0.1981 -0.1508  0.9503
   16SAPS  C216 2064   6.301   5.602   4.164  0.1119 -0.2787  0.1802
   16SAPS  H16R 2065   6.210   5.659   4.191 -1.3415 -2.9215  1.2114
   16SAPS  H16S 2066   6.348   5.674   4.094 -0.1442  2.4436  2.6353
   16SAPS  C217 2067   6.396   5.579   4.286 -0.3006  0.1440  0.2977
   16SAPS  H17R 2068   6.481   5.516   4.251  1.0015  1.9381  0.1325
   16SAPS  H17S 2069   6.341   5.527   4.368  1.2946 -1.0457  0.6645
   16SAPS  C218 2070   6.457   5.703   4.358 -0.1434  0.3783 -0.1087
   16SAPS  H18R 2071   6.497   5.666   4.455 -1.6327 -1.4641 -0.1422
   16SAPS  H18S 2072   6.375   5.772   4.386 -1.4859  0.6215 -4.0591
   16SAPS  C219 2073   6.557   5.774   4.272 -0.4323  0.3467 -0.0319
   16SAPS  H19R 2074   6.527   5.799   4.168  0.1960 -2.1272 -0.8780
   16SAPS  H19S 2075   6.654   5.722   4.260 -1.0119 -0.2774 -2.3853
   16SAPS  C220 2076   6.596   5.907   4.331 -0.1824  0.0468 -0.2115
   16SAPS  H20R 2077   6.525   5.992   4.325 -1.3630 -0.9432 -0.7758
   16SAPS  H20S 2078   6.689   5.937   4.278  0.4476  2.2901  1.9737
   16SAPS  H20T 2079   6.619   5.907   4.440  1.4101  1.4154 -0.5028
   16SAPS   C33 2080   6.825   5.046   3.107 -0.3146  0.1888  0.6718
   16SAPS   H3X 2081   6.888   5.029   3.197  2.6015 -0.1933 -1.3148
   16SAPS   H3Y 2082   6.803   4.948   3.060 -1.6352  0.7230  0.1317
   16SAPS   C34 2083   6.695   5.121   3.141 -0.0452  0.2919 -0.2471
   16SAPS   H4X 2084   6.624   5.143   3.059  0.4230 -0.1587 -0.7868
   16SAPS   H4Y 2085   6.736   5.217   3.179 -1.8028  1.1483 -0.4244
   16SAPS   C35 2086   6.624   5.038   3.249  0.5438 -0.2308  0.5764
   16SAPS   H5X 2087   6.703   5.026   3.326  1.1542  3.4342  0.6750
   16SAPS   H5Y 2088   6.591   4.937   3.215  0.1912 -0.5328  1.7598
   16SAPS   C36 2089   6.503   5.104   3.319  0.3757  0.6528  1.3098
   16SAPS   H6X 2090   6.428   5.138   3.244  1.1547 -0.4046  0.0056
   16SAPS   H6Y 2091   6.541   5.194   3.372  2.7870 -1.5382  3.5425
   16SAPS   C37 2092   6.437   5.023   3.433 -0.0850  0.3113 -0.7870
   16SAPS   H7X 2093   6.518   4.995   3.504 -0.0411 -0.2098 -1.0358
   16SAPS   H7Y 2094   6.384   4.930   3.403  0.3674 -1.6324  3.6450
   16SAPS   C38 2095   6.346   5.106   3.521  0.9349  0.8061 -0.0788
   16SAPS   H8X 2096   6.296   5.185   3.463  0.3762  0.3210 -0.2646
   16SAPS   H8Y 2097   6.420   5.162   3.582  1.4199  0.0703  0.0320
   16SAPS   C39 2098   6.263   5.017   3.613  0.3987  0.7398  0.1787
   16SAPS   H9X 2099   6.327   4.942   3.665 -0.0072  2.4618  3.4246
   16SAPS   H9Y 2100   6.192   4.968   3.544 -0.8534  2.7619 -0.0650
   16SAPS  C310 2101   6.187   5.095   3.716 -0.1527 -0.9341 -0.5788
   16SAPS  H10X 2102   6.115   5.172   3.681  1.6786  1.1804  0.0718
   16SAPS  H10Y 2103   6.264   5.153   3.771 -1.2326 -0.7038  0.7357
   16SAPS  C311 2104   6.110   5.004   3.811 -0.1962  0.3915  0.1863
   16SAPS  H11X 2105   6.172   4.930   3.866 -1.8636 -0.7034  0.6651
   16SAPS  H11Y 2106   6.033   4.946   3.756  1.2916 -1.3116 -0.1914
   16SAPS  C312 2107   6.055   5.079   3.933 -0.0682 -0.2775  0.0072
   16SAPS  H12X 2108   5.980   5.146   3.887  0.1352 -0.6708 -0.9211
   16SAPS  H12Y 2109   6.144   5.131   3.975  0.7519 -0.6061 -1.2656
   16SAPS  C313 2110   5.990   4.998   4.039 -0.4168 -0.4957  0.1049
   16SAPS  H13X 2111   6.059   4.926   4.090  1.0122 -0.4382 -1.6613
   16SAPS  H13Y 2112   5.920   4.932   3.985  0.4548 -1.2702 -0.1122
   16SAPS  C314 2113   5.925   5.078   4.161 -0.3577  0.4176  0.1257
   16SAPS  H14X 2114   5.877   5.171   4.123  0.3051  0.9322  0.5123
   16SAPS  H14Y 2115   6.009   5.111   4.226 -0.4829 -1.5524  1.3604
   16SAPS  C315 2116   5.829   4.993   4.244  0.4789  0.3936 -0.4001
   16SAPS  H15X 2117   5.741   4.950   4.192  0.9887 -0.0832 -0.8822
   16SAPS  H15Y 2118   5.790   5.072   4.312 -0.3819 -1.1543  0.9708
   16SAPS  C316 2119   5.900   4.885   4.335 -0.0492  0.9523  1.0254
   16SAPS  H16X 2120   5.974   4.936   4.400 -0.2867  2.8968 -0.1566
   16SAPS  H16Y 2121   5.968   4.827   4.268 -0.5218 -0.9703  2.1243
   16SAPS  C317 2122   5.814   4.777   4.413  0.3759  0.3612  0.4624
   16SAPS  H17X 2123   5.762   4.835   4.492 -0.9741  0.6995 -0.6404
   16SAPS  H17Y 2124   5.867   4.696   4.468 -1.0081 -0.9398 -0.0431
   16SAPS  C318 2125   5.719   4.702   4.317  0.9367 -0.2152 -0.1144
   16SAPS  H18X 2126   5.780   4.670   4.230  2.1114  0.1836  0.5366
   16SAPS  H18Y 2127   5.634   4.770   4.295  0.8282 -0.4563 -0.4521
   16SAPS  H18Z 2128   5.674   4.618   4.374 -0.8026 -0.1404 -1.3004
   17SAPS     N 2129   3.165   4.543   1.541  0.2305 -0.2305  0.3996
   17SAPS   HN1 2130   3.113   4.458   1.512 -2.2222  0.4814  2.4037
   17SAPS   HN2 2131   3.118   4.623   1.494  1.5203  0.8076  0.8112
   17SAPS   HN3 2132   3.267   4.540   1.518  0.3156 -1.6069  0.8543
   17SAPS   C12 2133   3.145   4.555   1.685 -0.3508  0.1625 -0.4757
   17SAPS  H12A 2134   3.222   4.493   1.730 -0.0976  1.7542  1.3909
   17SAPS   C13 2135   3.180   4.707   1.731  0.6172  0.4603  0.5557
   17SAPS  O13A 2136   3.200   4.797   1.642  0.1060  0.2379 -0.3132
   17SAPS  O13B 2137   3.185   4.730   1.849  0.0290 -0.1097 -0.0866
   17SAPS   C11 2138   2.992   4.514   1.726  0.0782 -0.6868  0.7698
   17SAPS  H11A 2139   2.963   4.420   1.675  1.0771 -0.0250 -1.1369
   17SAPS  H11B 2140   2.925   4.596   1.692  0.7426  1.0199  3.3247
   17SAPS     P 2141   2.988   4.369   1.950 -0.3988  0.0700 -0.1297
   17SAPS   O13 2142   2.883   4.269   1.911  0.0445  0.1096 -0.2703
   17SAPS   O14 2143   3.132   4.324   1.931  0.8406  1.0000  0.1006
   17SAPS   O12 2144   2.972   4.499   1.871  0.4235 -0.4691  0.5036
   17SAPS   O11 2145   2.961   4.412   2.100 -0.3721 -0.3990 -0.0181
   17SAPS    C1 2146   3.049   4.498   2.163 -0.3448 -0.2746  0.1226
   17SAPS    HA 2147   3.136   4.441   2.202  0.2985  0.8890  0.4530
   17SAPS    HB 2148   3.088   4.578   2.096 -0.1346  1.2409  1.9650
   17SAPS    C2 2149   2.990   4.556   2.291  0.5637 -0.9783 -0.0024
   17SAPS    HS 2150   2.896   4.606   2.260  0.7590 -0.2292  0.5683
   17SAPS   O21 2151   3.082   4.648   2.335  0.5476 -0.8574  0.2591
   17SAPS   C21 2152   3.033   4.754   2.396  0.3216 -0.1089 -0.0363
   17SAPS   O22 2153   2.913   4.776   2.412  0.1302 -0.1062 -0.3458
   17SAPS   C22 2154   3.144   4.861   2.425 -0.0210  0.2822  0.2642
   17SAPS   H2R 2155   3.247   4.820   2.421 -0.7812 -2.0049  2.0381
   17SAPS   H2S 2156   3.146   4.946   2.354  1.9923  0.8034  0.8873
   17SAPS    C3 2157   2.975   4.453   2.405 -0.0009 -0.6144  0.1116
   17SAPS    HX 2158   3.081   4.426   2.422 -0.2283 -2.7350 -1.3694
   17SAPS    HY 2159   2.926   4.358   2.372  1.3615 -1.2759 -0.0667
   17SAPS   O31 2160   2.912   4.507   2.526  0.4924  0.9563 -0.1300
   17SAPS   C31 2161   2.778   4.516   2.500 -0.6788 -0.6970  0.5871
   17SAPS   O32 2162   2.725   4.476   2.399  0.0425 -0.0791 -0.7349
   17SAPS   C32 2163   2.712   4.597   2.616  0.1121 -0.7112  0.3724
   17SAPS   H2X 2164   2.605   4.571   2.628 -0.2779 -0.3137 -1.8156
   17SAPS   H2Y 2165   2.710   4.704   2.586 -0.0557 -0.7550  0.2281
   17SAPS   C23 2166   3.128   4.939   2.562  0.1880 -0.0704  0.0652
   17SAPS   H3R 2167   3.021   4.952   2.587  0.3761  0.9461  0.3757
   17SAPS   H3S 2168   3.172   5.039   2.540  2.7168 -1.2695 -0.7266
   17SAPS   C24 2169   3.209   4.885   2.673 -0.1898  0.5840 -0.8109
   17SAPS   H4R 2170   3.198   4.954   2.760 -3.0233  0.3860 -0.9130
   17SAPS   H4S 2171   3.317   4.879   2.652 -0.3551 -1.3231 -1.3051
   17SAPS   C25 2172   3.177   4.739   2.701  0.1337  0.7481  0.2071
   17SAPS   H5R 2173   3.191   4.671   2.615 -1.9070 -0.3348  0.6740
   17SAPS   C26 2174   3.140   4.688   2.817 -0.1860 -0.2424 -0.4125
   17SAPS   H6R 2175   3.115   4.582   2.831 -1.2827  0.1520  0.8164
   17SAPS   C27 2176   3.144   4.751   2.952  0.1552  0.0334  0.0150
   17SAPS   H7R 2177   3.090   4.687   3.025 -1.4796  1.5216  0.1587
   17SAPS   H7S 2178   3.086   4.845   2.958  0.8084  0.6048 -1.9018
   17SAPS   C28 2179   3.280   4.773   2.993  0.5167 -0.1780  0.3039
   17SAPS   H8R 2180   3.355   4.804   2.918 -0.9343  3.4474  0.1631
   17SAPS   C29 2181   3.330   4.736   3.117  1.0823 -0.1725  0.3175
   17SAPS   H9R 2182   3.436   4.757   3.138  0.9456  1.6063 -0.5655
   17SAPS  C210 2183   3.259   4.672   3.234  0.4039  0.0101  0.2278
   17SAPS  H10R 2184   3.334   4.626   3.302 -0.0541 -1.0915  0.0051
   17SAPS  H10S 2185   3.200   4.588   3.191 -0.7434  1.3955 -1.0419
   17SAPS  C211 2186   3.160   4.758   3.307 -0.2088  0.4357  0.6631
   17SAPS  H11R 2187   3.111   4.835   3.245  0.6725  0.8366  0.4499
   17SAPS  C212 2188   3.145   4.761   3.440 -0.1987 -0.1180 -0.8323
   17SAPS  H12R 2189   3.072   4.832   3.482  0.1800  1.2619 -2.4316
   17SAPS  C213 2190   3.206   4.654   3.531 -0.2938 -0.4931 -0.2383
   17SAPS  H13R 2191   3.305   4.696   3.558 -0.3006  0.2281 -1.2832
   17SAPS  H13S 2192   3.217   4.557   3.478 -0.4298  0.3196 -1.8054
   17SAPS  C214 2193   3.127   4.622   3.657 -0.4296  0.3951  0.0255
   17SAPS  H14R 2194   3.087   4.519   3.657  0.9402 -0.1911 -1.4058
   17SAPS  C215 2195   3.115   4.707   3.760 -0.3775 -0.3735 -0.2079
   17SAPS  H15R 2196   3.040   4.684   3.837 -0.5224  1.7462  0.3545
   17SAPS  C216 2197   3.187   4.840   3.781  0.3025  0.2042 -0.6190
   17SAPS  H16R 2198   3.112   4.916   3.810 -0.0986 -0.5181  0.3135
   17SAPS  H16S 2199   3.244   4.868   3.690  0.8122  1.1397 -0.0257
   17SAPS  C217 2200   3.288   4.855   3.904  0.5578  0.7386 -0.4989
   17SAPS  H17R 2201   3.313   4.963   3.905 -1.7464  1.3140 -0.0886
   17SAPS  H17S 2202   3.380   4.793   3.891  1.1735  0.7570  2.7975
   17SAPS  C218 2203   3.218   4.808   4.038 -0.2889 -0.5692 -0.1873
   17SAPS  H18R 2204   3.204   4.697   4.038 -2.9631 -0.2921  0.3837
   17SAPS  H18S 2205   3.113   4.839   4.050 -0.2247  0.4105 -1.8146
   17SAPS  C219 2206   3.306   4.839   4.163  0.6517 -0.5783  0.1665
   17SAPS  H19R 2207   3.352   4.940   4.154 -2.2238  0.8321  0.2459
   17SAPS  H19S 2208   3.394   4.770   4.167  1.7929  0.8328  0.2981
   17SAPS  C220 2209   3.236   4.836   4.302  0.3567 -0.1492 -0.1690
   17SAPS  H20R 2210   3.316   4.853   4.378  0.5569  0.5361 -0.5212
   17SAPS  H20S 2211   3.194   4.734   4.312  1.0703 -0.4854 -0.5644
   17SAPS  H20T 2212   3.166   4.922   4.308  1.6962  1.1372 -2.1131
   17SAPS   C33 2213   2.791   4.582   2.752 -0.0353 -0.0885  0.2683
   17SAPS   H3X 2214   2.779   4.674   2.813  1.7982  0.8752 -0.7391
   17SAPS   H3Y 2215   2.902   4.577   2.748  0.0419  1.5279 -0.5719
   17SAPS   C34 2216   2.735   4.470   2.846 -0.0988 -0.2487 -0.9090
   17SAPS   H4X 2217   2.735   4.381   2.780  0.9762  1.9362 -4.0875
   17SAPS   H4Y 2218   2.630   4.502   2.866  0.3067  1.6145 -1.5532
   17SAPS   C35 2219   2.811   4.451   2.984 -0.0054 -0.2427 -0.2917
   17SAPS   H5X 2220   2.912   4.435   2.941  0.9658  0.4301  1.6323
   17SAPS   H5Y 2221   2.767   4.367   3.042 -0.7289  2.6876  3.8572
   17SAPS   C36 2222   2.806   4.574   3.082  0.7523  0.0694  0.2896
   17SAPS   H6X 2223   2.699   4.603   3.097  0.4235 -0.6379 -0.5878
   17SAPS   H6Y 2224   2.864   4.655   3.032  1.3178  1.3836  2.8943
   17SAPS   C37 2225   2.868   4.549   3.220  0.5899 -0.4522  0.5519
   17SAPS   H7X 2226   2.891   4.643   3.274  2.9446 -0.2909 -0.6095
   17SAPS   H7Y 2227   2.964   4.495   3.216 -0.2017 -1.9338  0.9317
   17SAPS   C38 2228   2.778   4.461   3.302 -0.4253  0.1990  0.2225
   17SAPS   H8X 2229   2.737   4.374   3.247  1.5262 -1.3611  1.1041
   17SAPS   H8Y 2230   2.682   4.514   3.317 -0.5503 -0.3724  1.6549
   17SAPS   C39 2231   2.836   4.426   3.446 -0.0157 -1.0115  0.8337
   17SAPS   H9X 2232   2.862   4.519   3.500  0.2759 -0.1593 -0.7272
   17SAPS   H9Y 2233   2.930   4.375   3.416  0.4393  0.9121 -1.2527
   17SAPS  C310 2234   2.747   4.331   3.521 -0.7888 -0.6893  0.5817
   17SAPS  H10X 2235   2.745   4.239   3.460 -0.9344  0.5908 -1.4597
   17SAPS  H10Y 2236   2.640   4.359   3.531 -0.4202  0.8902  0.4760
   17SAPS  C311 2237   2.797   4.300   3.664  0.2940  0.1276  0.5307
   17SAPS  H11X 2238   2.790   4.397   3.718  0.7213  0.4540  0.0056
   17SAPS  H11Y 2239   2.900   4.260   3.649 -0.1748 -1.0229  0.2785
   17SAPS  C312 2240   2.715   4.197   3.730  0.2561  0.6194 -0.4096
   17SAPS  H12X 2241   2.709   4.105   3.667 -0.5183  0.4797 -0.1377
   17SAPS  H12Y 2242   2.614   4.237   3.752  2.3175  4.8411  2.5349
   17SAPS  C313 2243   2.768   4.169   3.877  0.0003  0.1579 -0.1997
   17SAPS  H13X 2244   2.786   4.267   3.926  0.8843  0.3091 -0.8146
   17SAPS  H13Y 2245   2.866   4.117   3.867 -0.5386 -0.4540 -2.8238
   17SAPS  C314 2246   2.676   4.084   3.967  0.0304  0.0223  0.2710
   17SAPS  H14X 2247   2.578   4.137   3.963  0.6559  1.2000 -0.0231
   17SAPS  H14Y 2248   2.730   4.087   4.063  2.4833 -2.7132 -0.9007
   17SAPS  C315 2249   2.665   3.938   3.920 -0.7383  0.7282  0.0660
   17SAPS  H15X 2250   2.759   3.906   3.870 -0.2201  0.8380  0.9534
   17SAPS  H15Y 2251   2.584   3.931   3.843 -0.7136  0.9243  0.0225
   17SAPS  C316 2252   2.635   3.845   4.041  0.5587 -0.2127 -0.5452
   17SAPS  H16X 2253   2.713   3.863   4.118  1.6575 -0.3957 -1.5771
   17SAPS  H16Y 2254   2.647   3.739   4.009  1.1927  0.3348 -2.2502
   17SAPS  C317 2255   2.491   3.862   4.094  0.7201  0.4300 -0.2820
   17SAPS  H17X 2256   2.439   3.879   3.998  1.8357  1.7943 -0.6544
   17SAPS  H17Y 2257   2.489   3.954   4.156  0.4327  0.9542 -1.0686
   17SAPS  C318 2258   2.426   3.739   4.165  0.1442  0.5024  0.0387
   17SAPS  H18X 2259   2.361   3.775   4.248 -0.5650  2.5933 -1.3313
   17SAPS  H18Y 2260   2.503   3.669   4.205 -0.8789  0.1218  1.4343
   17SAPS  H18Z 2261   2.370   3.680   4.089 -0.9905  3.5770 -1.7213
   18SAPS     N 2262   0.181   0.968   1.801 -0.3931 -0.7966  0.0346
   18SAPS   HN1 2263   0.256   0.900   1.822  1.3523  0.4107 -1.9437
   18SAPS   HN2 2264   0.104   0.924   1.746 -1.0604 -0.7003  0.8644
   18SAPS   HN3 2265   0.221   1.044   1.742  0.1763 -0.3396  0.9817
   18SAPS   C12 2266   0.108   1.006   1.925 -0.0029  1.1040  0.0913
   18SAPS  H12A 2267   0.095   0.917   1.986 -0.5058  1.0674 -0.0681
   18SAPS   C13 2268   0.185   1.107   2.009 -0.2336 -0.0691 -0.0704
   18SAPS  O13A 2269   0.301   1.142   1.976  0.5779 -0.0178  0.0732
   18SAPS  O13B 2270   0.135   1.135   2.123  0.0228 -0.0190 -0.3112
   18SAPS   C11 2271  -0.033   1.062   1.880  0.0419  0.2635  0.8165
   18SAPS  H11A 2272  -0.014   1.149   1.814  1.0902  0.1262  0.9297
   18SAPS  H11B 2273  -0.079   1.088   1.978 -0.4718  1.6858  0.2230
   18SAPS     P 2274  -0.266   0.915   1.853  0.0888  0.1483  0.3320
   18SAPS   O13 2275  -0.340   0.893   1.726 -0.1115  0.0649  0.1980
   18SAPS   O14 2276  -0.250   0.786   1.927 -0.4682  0.3693  0.0050
   18SAPS   O12 2277  -0.120   0.961   1.814 -0.8093 -0.6310 -0.2972
   18SAPS   O11 2278  -0.336   1.019   1.938 -0.1721  0.0283  0.6274
   18SAPS    C1 2279  -0.386   1.141   1.881 -0.0848 -0.1457  0.1809
   18SAPS    HA 2280  -0.400   1.131   1.772 -1.3328 -1.5316  0.4263
   18SAPS    HB 2281  -0.482   1.168   1.929  1.8797  0.6373  4.1223
   18SAPS    C2 2282  -0.294   1.265   1.910  0.3084 -0.7168  0.8597
   18SAPS    HS 2283  -0.203   1.261   1.845 -0.5080  1.3594 -0.4831
   18SAPS   O21 2284  -0.266   1.270   2.056  0.2742  0.5323  0.6153
   18SAPS   C21 2285  -0.170   1.358   2.084  0.2281 -0.5381 -0.0707
   18SAPS   O22 2286  -0.099   1.413   2.000  0.1873 -0.6287 -0.5317
   18SAPS   C22 2287  -0.148   1.364   2.228  0.2702  0.6604  0.9430
   18SAPS   H2R 2288  -0.060   1.429   2.245  0.8013  1.3449 -3.4542
   18SAPS   H2S 2289  -0.230   1.430   2.265 -1.0395 -0.7401  0.6263
   18SAPS    C3 2290  -0.369   1.399   1.866 -0.2241 -0.4997 -0.4522
   18SAPS    HX 2291  -0.390   1.388   1.758 -0.1618 -0.7800 -0.4370
   18SAPS    HY 2292  -0.310   1.493   1.873 -0.8113 -0.1322 -0.3766
   18SAPS   O31 2293  -0.494   1.407   1.938 -0.2717  0.1161 -0.8445
   18SAPS   C31 2294  -0.493   1.477   2.048 -0.4952 -0.2606 -0.2238
   18SAPS   O32 2295  -0.396   1.538   2.094 -0.4660  0.7630 -0.3955
   18SAPS   C32 2296  -0.628   1.473   2.118 -0.8864 -0.5256 -1.1149
   18SAPS   H2X 2297  -0.703   1.401   2.078 -2.7726 -0.4505  1.9766
   18SAPS   H2Y 2298  -0.676   1.573   2.115 -0.4749 -0.3194 -0.8770
   18SAPS   C23 2299  -0.127   1.228   2.303  0.5373 -0.1556 -0.0959
   18SAPS   H3R 2300  -0.032   1.177   2.277  0.0832 -1.1740  0.2061
   18SAPS   H3S 2301  -0.206   1.156   2.274  0.7430 -0.7396  0.7435
   18SAPS   C24 2302  -0.139   1.235   2.458 -0.8978  0.4185  0.0949
   18SAPS   H4R 2303  -0.045   1.280   2.495  0.9448 -1.6499 -1.8143
   18SAPS   H4S 2304  -0.140   1.129   2.491  0.8100  0.4837  0.4229
   18SAPS   C25 2305  -0.240   1.316   2.527  0.0828 -0.3767 -0.2685
   18SAPS   H5R 2306  -0.287   1.391   2.461  1.4616  0.5679 -0.2116
   18SAPS   C26 2307  -0.280   1.325   2.659 -0.7828 -0.1209  0.5154
   18SAPS   H6R 2308  -0.366   1.384   2.694 -0.9630  0.1968 -0.4375
   18SAPS   C27 2309  -0.234   1.214   2.753  0.8634 -0.6004  0.7625
   18SAPS   H7R 2310  -0.240   1.116   2.701  1.7059 -0.4937  0.4556
   18SAPS   H7S 2311  -0.314   1.197   2.829 -0.9015 -2.9661 -1.4134
   18SAPS   C28 2312  -0.095   1.223   2.804  0.0803  0.4678 -0.1988
   18SAPS   H8R 2313  -0.016   1.231   2.727  1.3238 -0.3560  0.9303
   18SAPS   C29 2314  -0.050   1.185   2.921 -0.0514  0.9006 -0.7929
   18SAPS   H9R 2315   0.053   1.194   2.959 -0.0187  3.9871 -1.3670
   18SAPS  C210 2316  -0.145   1.157   3.040  0.3133  0.3482 -0.0720
   18SAPS  H10R 2317  -0.111   1.068   3.097  2.2447  1.2691  0.3061
   18SAPS  H10S 2318  -0.251   1.149   3.008 -0.4235  1.0178  2.0402
   18SAPS  C211 2319  -0.148   1.277   3.132 -0.3115 -1.1095  0.0324
   18SAPS  H11R 2320  -0.205   1.360   3.089  0.5726 -0.4304  0.1451
   18SAPS  C212 2321  -0.088   1.292   3.256 -0.6063 -0.3205  0.2096
   18SAPS  H12R 2322  -0.119   1.388   3.299 -1.8669 -0.8043  0.4255
   18SAPS  C213 2323   0.003   1.198   3.338 -0.1738 -0.0229  0.2424
   18SAPS  H13R 2324   0.112   1.217   3.327 -0.1725  0.0064  0.3066
   18SAPS  H13S 2325  -0.003   1.095   3.296  2.5773  0.3159 -1.1710
   18SAPS  C214 2326  -0.048   1.197   3.475  0.6172  0.0627 -0.4193
   18SAPS  H14R 2327  -0.155   1.177   3.492  0.6826  0.5236  0.6216
   18SAPS  C215 2328   0.017   1.196   3.591 -0.0060 -0.0052 -0.9073
   18SAPS  H15R 2329  -0.031   1.194   3.690  0.6979  0.0582 -0.5572
   18SAPS  C216 2330   0.168   1.212   3.627  0.1468  0.5373 -0.1442
   18SAPS  H16R 2331   0.186   1.318   3.652 -2.1124  0.4928  2.1566
   18SAPS  H16S 2332   0.235   1.182   3.544 -1.0456 -3.1644  0.0196
   18SAPS  C217 2333   0.205   1.120   3.750  0.1400  0.3605  0.0106
   18SAPS  H17R 2334   0.316   1.110   3.745  0.7425  4.7179  0.7730
   18SAPS  H17S 2335   0.162   1.022   3.721 -2.9152  1.9868 -1.5308
   18SAPS  C218 2336   0.170   1.179   3.887  0.4657 -0.0608 -0.0667
   18SAPS  H18R 2337   0.183   1.094   3.958  2.4580  0.4256  0.2105
   18SAPS  H18S 2338   0.062   1.206   3.887  0.7445  1.1741 -1.5028
   18SAPS  C219 2339   0.240   1.312   3.926  0.4482 -0.3312  0.0250
   18SAPS  H19R 2340   0.220   1.389   3.849 -0.4898 -0.9228 -0.3453
   18SAPS  H19S 2341   0.347   1.284   3.927  0.3786 -0.6981 -1.3249
   18SAPS  C220 2342   0.198   1.372   4.065 -0.1546 -0.0001 -0.3597
   18SAPS  H20R 2343   0.239   1.300   4.139  2.6414  2.2279  0.4286
   18SAPS  H20S 2344   0.089   1.374   4.085  0.0302  0.4910  0.6496
   18SAPS  H20T 2345   0.247   1.469   4.087 -0.8923  0.4299 -0.6140
   18SAPS   C33 2346  -0.605   1.438   2.269 -0.1010 -0.1860 -0.4786
   18SAPS   H3X 2347  -0.699   1.466   2.321  0.8855  0.4464  1.0025
   18SAPS   H3Y 2348  -0.517   1.490   2.312 -0.1991 -0.5912  0.2185
   18SAPS   C34 2349  -0.580   1.287   2.285 -0.0849  0.8087  0.8191
   18SAPS   H4X 2350  -0.488   1.256   2.232 -0.5049  0.7091  0.1313
   18SAPS   H4Y 2351  -0.663   1.237   2.231 -0.3431  2.4389 -0.3659
   18SAPS   C35 2352  -0.582   1.242   2.427 -0.1284  0.6778  0.2150
   18SAPS   H5X 2353  -0.522   1.319   2.480  0.5273 -0.7870  1.6953
   18SAPS   H5Y 2354  -0.521   1.149   2.437 -2.0976 -0.8283 -1.0375
   18SAPS   C36 2355  -0.725   1.232   2.483 -0.7837 -0.2742  0.2690
   18SAPS   H6X 2356  -0.775   1.154   2.421 -0.0451 -1.7542  1.4708
   18SAPS   H6Y 2357  -0.778   1.324   2.451  0.3495 -0.2422 -1.6183
   18SAPS   C37 2358  -0.731   1.214   2.630  0.5919 -0.0739  0.6202
   18SAPS   H7X 2359  -0.681   1.116   2.645 -1.3256 -1.1850  0.0282
   18SAPS   H7Y 2360  -0.839   1.201   2.649  0.3545  0.0959 -0.5612
   18SAPS   C38 2361  -0.674   1.341   2.704 -0.3554 -0.4537  0.0207
   18SAPS   H8X 2362  -0.706   1.435   2.654  0.5241 -0.8228 -1.2951
   18SAPS   H8Y 2363  -0.565   1.330   2.686  0.0953  2.8780  0.1744
   18SAPS   C39 2364  -0.699   1.345   2.855 -0.0916  0.3904 -0.2253
   18SAPS   H9X 2365  -0.631   1.412   2.912  1.2092 -1.2724  0.2591
   18SAPS   H9Y 2366  -0.690   1.242   2.893 -1.1401 -0.0067 -1.0123
   18SAPS  C310 2367  -0.840   1.392   2.898 -0.2683  0.2100  0.1006
   18SAPS  H10X 2368  -0.906   1.329   2.834 -0.8373  0.3634  0.5320
   18SAPS  H10Y 2369  -0.854   1.496   2.862 -1.0676  0.0139 -0.1810
   18SAPS  C311 2370  -0.864   1.408   3.048 -0.5191  0.1972 -0.2651
   18SAPS  H11X 2371  -0.819   1.504   3.081  1.1683 -0.2718 -1.0750
   18SAPS  H11Y 2372  -0.821   1.321   3.103 -0.2458 -1.8142 -3.4426
   18SAPS  C312 2373  -1.013   1.429   3.073  0.1166 -0.2426  0.5198
   18SAPS  H12X 2374  -1.051   1.332   3.036 -1.3094 -0.1212  1.5831
   18SAPS  H12Y 2375  -1.049   1.519   3.017 -0.3625 -0.3830  0.5999
   18SAPS  C313 2376  -1.059   1.442   3.216 -0.7364  0.8551  0.0307
   18SAPS  H13X 2377  -1.159   1.488   3.230 -0.0118  1.7915  2.7155
   18SAPS  H13Y 2378  -0.990   1.520   3.254  1.7078 -0.8293 -0.6792
   18SAPS  C314 2379  -1.043   1.325   3.315  1.1026 -0.1537 -0.3453
   18SAPS  H14X 2380  -0.944   1.277   3.302  0.5654 -1.3127 -0.2765
   18SAPS  H14Y 2381  -1.119   1.247   3.290  1.3394 -0.2437 -0.7970
   18SAPS  C315 2382  -1.038   1.369   3.468  0.2535  0.3656 -0.3296
   18SAPS  H15X 2383  -1.082   1.290   3.532 -0.5217 -0.3610 -1.7132
   18SAPS  H15Y 2384  -1.100   1.460   3.486  1.7067  1.3588 -0.1975
   18SAPS  C316 2385  -0.897   1.386   3.508 -0.5726 -0.2392 -0.0404
   18SAPS  H16X 2386  -0.847   1.435   3.422  2.9770 -0.1853  1.8732
   18SAPS  H16Y 2387  -0.849   1.286   3.517  2.2764  1.2550  4.1974
   18SAPS  C317 2388  -0.880   1.474   3.634 -0.4752 -0.2052  0.7013
   18SAPS  H17X 2389  -0.976   1.518   3.668 -0.7443 -1.6095  1.8750
   18SAPS  H17Y 2390  -0.809   1.555   3.609  0.0211 -0.8342  0.0137
   18SAPS  C318 2391  -0.822   1.397   3.751  0.7239  0.8180 -0.6560
   18SAPS  H18X 2392  -0.899   1.331   3.796  1.9380  0.6719  1.3156
   18SAPS  H18Y 2393  -0.802   1.476   3.826 -0.3302 -0.1286  0.6783
   18SAPS  H18Z 2394  -0.729   1.343   3.722  1.0291  0.5271  0.7994
   19SAPS     N 2395   4.360   6.103   1.943  0.3855 -0.0867 -0.1966
   19SAPS   HN1 2396   4.314   6.131   2.032  2.0818 -0.8877  0.9865
   19SAPS   HN2 2397   4.286   6.091   1.871 -1.5459  1.0869  1.5022
   19SAPS   HN3 2398   4.423   6.023   1.966 -0.0127 -0.8591 -1.7079
   19SAPS   C12 2399   4.445   6.217   1.888  0.8473  0.2167  0.7787
   19SAPS  H12A 2400   4.492   6.174   1.801 -0.7311  1.6803 -0.8664
   19SAPS   C13 2401   4.361   6.334   1.827 -0.0207 -0.3734  0.1456
   19SAPS  O13A 2402   4.254   6.351   1.890  0.3128  0.1217 -0.4419
   19SAPS  O13B 2403   4.425   6.432   1.778  0.3286  0.2538  0.1022
   19SAPS   C11 2404   4.541   6.255   2.005  0.1882 -0.2653  0.0043
   19SAPS  H11A 2405   4.483   6.303   2.087 -0.5329 -0.5819 -0.3177
   19SAPS  H11B 2406   4.610   6.328   1.957 -0.0695  0.3209  0.5008
   19SAPS     P 2407   4.713   6.139   2.163  0.0706 -0.0601  0.0255
   19SAPS   O13 2408   4.725   5.999   2.219 -0.6010 -0.2219  0.3414
   19SAPS   O14 2409   4.839   6.208   2.120  0.5559 -0.1321  0.0377
   19SAPS   O12 2410   4.611   6.143   2.050  0.1279  0.1031  0.6938
   19SAPS   O11 2411   4.639   6.215   2.279  0.1279  0.6847  0.5124
   19SAPS    C1 2412   4.718   6.272   2.386  0.6541  0.2145 -0.0538
   19SAPS    HA 2413   4.662   6.272   2.482  1.0851  0.1867  0.2006
   19SAPS    HB 2414   4.816   6.222   2.406  1.7584  2.8697  1.7809
   19SAPS    C2 2415   4.748   6.419   2.350  0.0343  1.2734 -0.1863
   19SAPS    HS 2416   4.769   6.423   2.241  0.2255 -0.9937 -0.2852
   19SAPS   O21 2417   4.876   6.449   2.417  0.2480 -0.2990  0.0787
   19SAPS   C21 2418   4.937   6.556   2.372 -0.9147  0.4270 -1.0940
   19SAPS   O22 2419   4.896   6.632   2.285 -0.6545  0.1637  0.6446
   19SAPS   C22 2420   5.063   6.581   2.467 -0.1296 -0.1385  0.0640
   19SAPS   H2R 2421   5.020   6.580   2.569  1.4198  0.2293  0.7341
   19SAPS   H2S 2422   5.128   6.493   2.449  1.5629  1.1472 -0.3500
   19SAPS    C3 2423   4.630   6.515   2.385  0.8656  0.2419  0.0909
   19SAPS    HX 2424   4.530   6.480   2.350 -0.2621  3.3778 -0.1781
   19SAPS    HY 2425   4.653   6.617   2.347  1.1345  0.8222  1.7219
   19SAPS   O31 2426   4.607   6.522   2.532 -0.4576 -0.0304 -0.2205
   19SAPS   C31 2427   4.674   6.616   2.602  0.2362 -0.1771 -1.2505
   19SAPS   O32 2428   4.758   6.687   2.563  0.6600 -0.0021  0.1845
   19SAPS   C32 2429   4.609   6.627   2.739  1.0307 -0.3815 -0.2306
   19SAPS   H2X 2430   4.519   6.562   2.749  0.0001  1.1850  1.0656
   19SAPS   H2Y 2431   4.562   6.727   2.734  1.5748 -0.1182 -0.1843
   19SAPS   C23 2432   5.151   6.704   2.446 -0.4844  1.0274 -0.4650
   19SAPS   H3R 2433   5.212   6.708   2.353  2.0189  0.8127  1.0873
   19SAPS   H3S 2434   5.233   6.690   2.520  0.2718 -2.6238 -1.7894
   19SAPS   C24 2435   5.076   6.833   2.483 -0.4102  0.3702  0.5487
   19SAPS   H4R 2436   5.059   6.845   2.592  1.0863  1.3357  0.7140
   19SAPS   H4S 2437   4.977   6.821   2.434  0.3510 -0.6655 -0.8274
   19SAPS   C25 2438   5.138   6.961   2.425  0.3374 -0.0536  0.0936
   19SAPS   H5R 2439   5.177   6.950   2.323 -0.2567  1.7887 -0.3548
   19SAPS   C26 2440   5.150   7.087   2.477 -0.4988  0.0138  0.3446
   19SAPS   H6R 2441   5.200   7.170   2.425  1.2974 -1.9770 -1.3332
   19SAPS   C27 2442   5.088   7.116   2.610  0.6063  0.5271 -0.4014
   19SAPS   H7R 2443   4.999   7.050   2.627  0.5343  0.3257 -1.4890
   19SAPS   H7S 2444   5.048   7.219   2.603  0.1966  0.3095 -1.5249
   19SAPS   C28 2445   5.185   7.114   2.725 -0.0816  0.0351 -0.0488
   19SAPS   H8R 2446   5.272   7.180   2.708 -1.3372  1.5402 -1.0129
   19SAPS   C29 2447   5.173   7.047   2.843 -0.5872  0.4866 -0.0918
   19SAPS   H9R 2448   5.254   7.071   2.914 -0.5667  0.2862 -0.0462
   19SAPS  C210 2449   5.054   6.969   2.902  0.0816  0.0238  0.1358
   19SAPS  H10R 2450   4.957   6.989   2.851  0.6949  1.3622 -0.5780
   19SAPS  H10S 2451   5.039   7.011   3.004  2.5930 -0.7530  0.8959
   19SAPS  C211 2452   5.086   6.820   2.919 -0.0250 -0.0845  0.1899
   19SAPS  H11R 2453   5.059   6.744   2.845  0.2172  0.1569 -0.1459
   19SAPS  C212 2454   5.158   6.781   3.025  0.4026  0.8557 -0.3748
   19SAPS  H12R 2455   5.177   6.674   3.045 -3.0238 -0.0047 -1.1091
   19SAPS  C213 2456   5.197   6.867   3.144  0.0754  0.0896  0.0564
   19SAPS  H13R 2457   5.108   6.887   3.207 -1.8175 -3.0870 -1.3653
   19SAPS  H13S 2458   5.245   6.962   3.112 -1.6319  0.5757 -1.2216
   19SAPS  C214 2459   5.300   6.793   3.228 -0.5701  0.5998  0.2016
   19SAPS  H14R 2460   5.362   6.718   3.176  2.3502  2.6920  0.4041
   19SAPS  C215 2461   5.323   6.810   3.364 -0.0687 -0.2375  0.3214
   19SAPS  H15R 2462   5.401   6.756   3.419  1.9126  1.3326 -0.7970
   19SAPS  C216 2463   5.250   6.911   3.454  1.0130  0.2297  0.1845
   19SAPS  H16R 2464   5.209   6.852   3.539 -1.0475 -1.8943 -2.1164
   19SAPS  H16S 2465   5.173   6.973   3.403  1.1322  0.6544  0.5160
   19SAPS  C217 2466   5.341   7.016   3.515 -0.0457 -0.9476 -0.2041
   19SAPS  H17R 2467   5.272   7.090   3.562  1.6652 -0.4983  1.7234
   19SAPS  H17S 2468   5.402   7.054   3.430 -1.3539  3.4820  0.5680
   19SAPS  C218 2469   5.444   6.968   3.618  0.5064 -0.0539  0.5761
   19SAPS  H18R 2470   5.503   6.887   3.570 -0.0480 -0.0594 -0.1160
   19SAPS  H18S 2471   5.381   6.922   3.698 -0.7012  0.0989 -0.2577
   19SAPS  C219 2472   5.534   7.084   3.660 -0.3355  0.7768  0.2176
   19SAPS  H19R 2473   5.465   7.154   3.712 -3.2257 -1.8064  0.1270
   19SAPS  H19S 2474   5.582   7.136   3.574  1.7279 -1.9496 -0.4013
   19SAPS  C220 2475   5.641   7.046   3.762 -0.1020  0.4479 -0.4733
   19SAPS  H20R 2476   5.720   7.115   3.799  1.5093 -2.0504  1.0589
   19SAPS  H20S 2477   5.705   6.963   3.724  0.3126  1.0963 -1.2207
   19SAPS  H20T 2478   5.583   7.023   3.854 -2.8504  0.2614 -2.1482
   19SAPS   C33 2479   4.707   6.605   2.861  0.4755 -0.1636 -0.3064
   19SAPS   H3X 2480   4.783   6.685   2.850  1.2281 -1.1042 -2.7627
   19SAPS   H3Y 2481   4.754   6.505   2.857  0.2592 -0.3567  1.2606
   19SAPS   C34 2482   4.642   6.623   3.000 -0.0431  0.4504  0.0904
   19SAPS   H4X 2483   4.543   6.573   3.004  0.4888 -0.6523  0.0642
   19SAPS   H4Y 2484   4.622   6.732   3.004 -1.0593  0.2667  0.2161
   19SAPS   C35 2485   4.730   6.595   3.118 -0.0445 -0.0045  1.2801
   19SAPS   H5X 2486   4.822   6.657   3.129  1.2550 -0.9996 -2.3513
   19SAPS   H5Y 2487   4.781   6.496   3.115 -0.3920 -0.1691  0.5386
   19SAPS   C36 2488   4.654   6.597   3.251 -0.0444  0.2517  0.2126
   19SAPS   H6X 2489   4.554   6.552   3.232  0.5120  0.2176 -3.2137
   19SAPS   H6Y 2490   4.629   6.702   3.276 -2.3695 -0.1721 -0.0533
   19SAPS   C37 2491   4.724   6.527   3.367  0.3501  0.0560  1.0759
   19SAPS   H7X 2492   4.826   6.569   3.382  0.1084  1.1340 -0.1397
   19SAPS   H7Y 2493   4.730   6.416   3.363  0.0456 -0.0586  2.9698
   19SAPS   C38 2494   4.646   6.561   3.497 -0.0105 -0.4255  0.2563
   19SAPS   H8X 2495   4.542   6.523   3.494  0.1648 -1.0471  1.3052
   19SAPS   H8Y 2496   4.652   6.671   3.514 -0.7323 -0.7508  3.2491
   19SAPS   C39 2497   4.719   6.508   3.624  0.0468 -0.0217  0.0199
   19SAPS   H9X 2498   4.827   6.533   3.623 -0.5246  2.8833  1.1255
   19SAPS   H9Y 2499   4.708   6.398   3.622 -1.3177  0.0882 -2.1527
   19SAPS  C310 2500   4.647   6.543   3.759  0.2260  0.1874  0.5368
   19SAPS  H10X 2501   4.693   6.480   3.839  0.6437 -0.2708 -0.0483
   19SAPS  H10Y 2502   4.544   6.507   3.741  0.3242 -1.3830  2.7103
   19SAPS  C311 2503   4.658   6.691   3.800 -0.9249 -0.1031  0.3355
   19SAPS  H11X 2504   4.639   6.762   3.717  1.0326 -0.8330 -0.8039
   19SAPS  H11Y 2505   4.755   6.710   3.852 -1.8851 -0.4095  2.3571
   19SAPS  C312 2506   4.559   6.710   3.917 -0.5534  0.3205 -0.8875
   19SAPS  H12X 2507   4.582   6.633   3.993 -2.3858  0.6761  0.0847
   19SAPS  H12Y 2508   4.452   6.702   3.887 -1.1382  1.5157  0.7513
   19SAPS  C313 2509   4.574   6.853   3.971  0.0669  0.5227 -0.4326
   19SAPS  H13X 2510   4.542   6.926   3.893  1.0451  1.8757  0.3707
   19SAPS  H13Y 2511   4.678   6.861   4.010  0.3655 -0.9662 -0.8507
   19SAPS  C314 2512   4.471   6.881   4.091 -0.8597  0.2477 -0.7383
   19SAPS  H14X 2513   4.367   6.849   4.066 -0.0204 -1.2458 -2.5580
   19SAPS  H14Y 2514   4.454   6.986   4.123 -1.6797 -0.4612  1.3331
   19SAPS  C315 2515   4.514   6.800   4.219  0.3769 -0.2272 -0.1743
   19SAPS  H15X 2516   4.567   6.703   4.202  0.9762  0.1436 -0.4668
   19SAPS  H15Y 2517   4.419   6.772   4.270 -0.4618 -0.7573 -1.9635
   19SAPS  C316 2518   4.611   6.878   4.308 -0.3163 -0.5365  0.3961
   19SAPS  H16X 2519   4.560   6.972   4.339 -0.1817 -0.4484  0.3535
   19SAPS  H16Y 2520   4.701   6.910   4.251  0.0490 -0.3043  1.0897
   19SAPS  C317 2521   4.643   6.795   4.430 -0.5358  0.3906  0.2263
   19SAPS  H17X 2522   4.708   6.711   4.397  0.1056  0.4826  1.2047
   19SAPS  H17Y 2523   4.550   6.754   4.474  0.3692 -2.6409 -0.4810
   19SAPS  C318 2524   4.726   6.880   4.528 -0.3796 -0.1991  0.8417
   19SAPS  H18X 2525   4.830   6.900   4.493 -0.3464  1.9228  1.9917
   19SAPS  H18Y 2526   4.742   6.820   4.621 -1.2179 -1.2160  0.3444
   19SAPS  H18Z 2527   4.685   6.979   4.557  1.2675  1.4064 -1.8494
   20SAPS     N 2528   1.627   1.058   2.263  0.0975 -0.3070 -0.2568
   20SAPS   HN1 2529   1.717   1.012   2.289 -0.5306 -0.8719  1.0882
   20SAPS   HN2 2530   1.591   1.112   2.344 -1.7727  0.3450 -1.4568
   20SAPS   HN3 2531   1.567   0.977   2.237 -2.0650  1.8684 -2.4668
   20SAPS   C12 2532   1.659   1.147   2.144  0.0046 -0.0842 -0.0479
   20SAPS  H12A 2533   1.732   1.218   2.179  1.0508 -0.3304 -1.6346
   20SAPS   C13 2534   1.705   1.074   2.016 -0.0507 -0.6751  0.5699
   20SAPS  O13A 2535   1.722   0.948   2.017 -0.1381 -0.5092  0.3381
   20SAPS  O13B 2536   1.714   1.142   1.912 -0.7118 -0.1931 -0.6520
   20SAPS   C11 2537   1.521   1.224   2.112  0.1307  1.1035  0.2053
   20SAPS  H11A 2538   1.453   1.151   2.064  1.3199 -0.1107  0.2927
   20SAPS  H11B 2539   1.540   1.302   2.035 -0.6176 -0.1168 -1.2556
   20SAPS     P 2540   1.323   1.320   2.260  0.3337 -0.2383  0.0845
   20SAPS   O13 2541   1.250   1.350   2.138 -0.0987 -0.4665  0.1393
   20SAPS   O14 2542   1.270   1.208   2.339 -0.5303 -0.8419 -0.1799
   20SAPS   O12 2543   1.474   1.275   2.236 -0.0508 -0.0046  0.6740
   20SAPS   O11 2544   1.335   1.451   2.344  0.7321  0.1544  0.3231
   20SAPS    C1 2545   1.447   1.499   2.418 -1.1590  0.3191 -0.6263
   20SAPS    HA 2546   1.543   1.450   2.393  0.1972  1.7591  1.4248
   20SAPS    HB 2547   1.454   1.607   2.390 -1.3923  0.6632  0.5690
   20SAPS    C2 2548   1.430   1.488   2.573 -0.5425  0.5021 -0.6983
   20SAPS    HS 2549   1.392   1.383   2.578  0.3126  0.2345  2.2175
   20SAPS   O21 2550   1.340   1.590   2.619  0.4857  0.5174 -0.2286
   20SAPS   C21 2551   1.249   1.560   2.716 -1.0526  0.6207  0.3034
   20SAPS   O22 2552   1.233   1.445   2.760  0.4576 -0.1175 -0.1828
   20SAPS   C22 2553   1.197   1.698   2.760  0.2498 -0.2889 -0.3661
   20SAPS   H2R 2554   1.265   1.771   2.808 -0.6725  0.2517  0.1405
   20SAPS   H2S 2555   1.137   1.739   2.676 -2.2788 -0.9816  1.0045
   20SAPS    C3 2556   1.558   1.501   2.664 -0.6527 -0.5034 -0.5885
   20SAPS    HX 2557   1.602   1.603   2.658 -1.7572 -0.0325 -1.0599
   20SAPS    HY 2558   1.636   1.441   2.612  1.4120  1.4427  0.0693
   20SAPS   O31 2559   1.542   1.469   2.802 -0.1704 -0.0425 -0.0416
   20SAPS   C31 2560   1.542   1.347   2.844  0.1071  0.3002  0.8524
   20SAPS   O32 2561   1.560   1.249   2.774  0.2650 -0.2946  0.3234
   20SAPS   C32 2562   1.498   1.329   2.990 -0.2728 -0.5727 -0.1150
   20SAPS   H2X 2563   1.536   1.229   3.021  0.1443 -0.7803 -1.2506
   20SAPS   H2Y 2564   1.389   1.345   3.003 -0.2080  0.4956 -0.7682
   20SAPS   C23 2565   1.089   1.675   2.877 -0.1957  0.0608  0.7702
   20SAPS   H3R 2566   1.001   1.615   2.844 -1.5898  2.1632  0.4632
   20SAPS   H3S 2567   1.047   1.778   2.882 -1.2616 -0.2283 -1.1658
   20SAPS   C24 2568   1.146   1.647   3.016  1.1872  0.3001  0.1222
   20SAPS   H4R 2569   1.067   1.695   3.078 -0.4124 -0.3449 -1.3186
   20SAPS   H4S 2570   1.247   1.688   3.032  1.7888 -0.9035 -0.4347
   20SAPS   C25 2571   1.139   1.501   3.061 -0.2331  0.0476 -0.4621
   20SAPS   H5R 2572   1.199   1.441   2.991  1.9872  2.4852 -0.8066
   20SAPS   C26 2573   1.063   1.443   3.158  0.1066  0.4092 -0.3695
   20SAPS   H6R 2574   1.090   1.338   3.179 -2.0364  0.3896  2.8616
   20SAPS   C27 2575   0.964   1.504   3.251 -0.1723 -0.3059 -0.2482
   20SAPS   H7R 2576   0.871   1.445   3.260  0.5801 -1.5499 -0.3318
   20SAPS   H7S 2577   0.938   1.607   3.219 -1.4448 -0.6011 -0.2115
   20SAPS   C28 2578   1.015   1.503   3.398  0.0208 -0.3352  0.3634
   20SAPS   H8R 2579   1.114   1.458   3.416 -0.6220 -2.3996 -0.9274
   20SAPS   C29 2580   0.959   1.578   3.495 -0.2688  0.2848 -0.1055
   20SAPS   H9R 2581   0.999   1.565   3.597  0.0256 -0.5292 -0.3173
   20SAPS  C210 2582   0.843   1.667   3.492  0.1602 -0.5487 -0.2122
   20SAPS  H10R 2583   0.771   1.631   3.569 -1.4491  0.0437 -1.3680
   20SAPS  H10S 2584   0.786   1.653   3.397 -1.2106  0.5556  0.4130
   20SAPS  C211 2585   0.886   1.812   3.512 -0.0496 -0.6753 -0.4025
   20SAPS  H11R 2586   0.920   1.878   3.431 -1.0657  1.4449  0.8006
   20SAPS  C212 2587   0.900   1.858   3.640  0.3065  0.7220  0.1024
   20SAPS  H12R 2588   0.920   1.966   3.651 -1.3547  1.6542 -4.0439
   20SAPS  C213 2589   0.881   1.785   3.771 -0.4105 -0.1174 -0.1497
   20SAPS  H13R 2590   0.795   1.715   3.771 -1.5940  1.0325  3.9489
   20SAPS  H13S 2591   0.836   1.856   3.844  1.4571 -1.3898  2.4160
   20SAPS  C214 2592   0.991   1.711   3.842  0.0275  0.0137 -0.5887
   20SAPS  H14R 2593   0.987   1.601   3.851 -0.0680  0.0597 -0.0226
   20SAPS  C215 2594   1.085   1.775   3.910  0.3396 -0.1529 -0.0883
   20SAPS  H15R 2595   1.162   1.715   3.961 -1.1560 -0.2664  2.1709
   20SAPS  C216 2596   1.106   1.924   3.929 -0.1957  0.6007  0.1706
   20SAPS  H16R 2597   1.045   1.983   3.857 -0.6167 -1.2338 -1.0652
   20SAPS  H16S 2598   1.208   1.965   3.919  0.6150 -1.3952 -0.1896
   20SAPS  C217 2599   1.056   1.958   4.069  0.7982  0.4522 -0.1165
   20SAPS  H17R 2600   0.948   1.938   4.083  1.2489 -0.0025  3.6790
   20SAPS  H17S 2601   1.066   2.065   4.099 -2.2786  1.0397 -0.8227
   20SAPS  C218 2602   1.115   1.880   4.194  0.0553  0.4190  0.4851
   20SAPS  H18R 2603   1.060   1.784   4.195  1.1948 -0.2813 -0.6911
   20SAPS  H18S 2604   1.093   1.946   4.281 -2.0718  0.1532  0.2189
   20SAPS  C219 2605   1.264   1.870   4.184 -0.3652  0.6388  0.0766
   20SAPS  H19R 2606   1.307   1.966   4.148 -0.0983 -0.0126 -1.4035
   20SAPS  H19S 2607   1.310   1.786   4.127  0.2259 -0.2634  1.8058
   20SAPS  C220 2608   1.323   1.852   4.327  0.0785  0.1837  0.7253
   20SAPS  H20R 2609   1.294   1.931   4.399 -1.3040  0.0603  0.3424
   20SAPS  H20S 2610   1.432   1.860   4.308 -0.2662  1.4631 -0.9871
   20SAPS  H20T 2611   1.311   1.748   4.363  1.2519 -0.7856 -1.4764
   20SAPS   C33 2612   1.552   1.452   3.078 -0.2938  0.4786  0.3064
   20SAPS   H3X 2613   1.527   1.545   3.023  0.5099  0.5470  0.0473
   20SAPS   H3Y 2614   1.662   1.444   3.081 -0.3565 -0.0847  1.8769
   20SAPS   C34 2615   1.498   1.448   3.219 -0.3998 -0.2624  0.5561
   20SAPS   H4X 2616   1.563   1.368   3.262  1.1522  0.1833 -0.8424
   20SAPS   H4Y 2617   1.391   1.418   3.213 -0.2451 -0.5630 -3.6529
   20SAPS   C35 2618   1.525   1.582   3.293 -0.9711 -0.0024  0.5400
   20SAPS   H5X 2619   1.474   1.662   3.236  1.1623  2.4719  1.8703
   20SAPS   H5Y 2620   1.634   1.605   3.299 -1.1371  1.1416 -0.5623
   20SAPS   C36 2621   1.484   1.588   3.438 -0.5000  0.5840  0.1284
   20SAPS   H6X 2622   1.374   1.573   3.451 -0.4467 -0.1802 -0.2298
   20SAPS   H6Y 2623   1.504   1.690   3.476 -0.7838  0.4976  0.5177
   20SAPS   C37 2624   1.560   1.492   3.527 -0.3272  0.6119 -0.2948
   20SAPS   H7X 2625   1.606   1.414   3.462 -1.4224  0.3898 -0.8270
   20SAPS   H7Y 2626   1.489   1.427   3.584  0.0563 -1.0786 -1.6372
   20SAPS   C38 2627   1.658   1.558   3.635  0.3092 -0.5735 -0.2954
   20SAPS   H8X 2628   1.688   1.661   3.606 -3.8636  0.9482  0.1305
   20SAPS   H8Y 2629   1.756   1.507   3.622  0.1850 -0.8819 -0.0414
   20SAPS   C39 2630   1.605   1.539   3.780 -0.9309  0.4614 -0.2380
   20SAPS   H9X 2631   1.495   1.550   3.770 -1.3600  1.3889  3.8119
   20SAPS   H9Y 2632   1.651   1.626   3.832 -1.3147 -0.0005  0.8948
   20SAPS  C310 2633   1.631   1.402   3.843 -0.2721  0.5264  0.0952
   20SAPS  H10X 2634   1.737   1.370   3.827 -0.4080 -0.8992  1.7179
   20SAPS  H10Y 2635   1.568   1.328   3.790 -0.8475  1.5413 -0.6703
   20SAPS  C311 2636   1.577   1.392   3.987  0.0420 -0.2067 -0.0142
   20SAPS  H11X 2637   1.471   1.424   3.994  0.4298  1.7511 -1.9434
   20SAPS  H11Y 2638   1.639   1.452   4.057 -1.9157 -0.0109  1.6588
   20SAPS  C312 2639   1.579   1.244   4.035  0.2069  0.2533  0.3234
   20SAPS  H12X 2640   1.673   1.197   3.999  0.7768  0.5190  1.4119
   20SAPS  H12Y 2641   1.487   1.201   3.991  0.3204 -0.5232  0.8212
   20SAPS  C313 2642   1.569   1.222   4.192 -0.2810  0.1170 -0.5327
   20SAPS  H13X 2643   1.670   1.219   4.237  0.2886  2.4423 -1.5546
   20SAPS  H13Y 2644   1.529   1.118   4.194  1.3807 -0.5501  0.6550
   20SAPS  C314 2645   1.475   1.321   4.270 -0.5465  0.4072  0.1473
   20SAPS  H14X 2646   1.476   1.430   4.244 -0.3583  0.0500 -1.4585
   20SAPS  H14Y 2647   1.492   1.312   4.379  0.8293 -0.7297 -0.1418
   20SAPS  C315 2648   1.328   1.288   4.228  0.3232 -0.2357  0.1136
   20SAPS  H15X 2649   1.293   1.190   4.266 -0.6224  0.1292  0.2130
   20SAPS  H15Y 2650   1.325   1.286   4.117  0.7118  4.2190 -0.1446
   20SAPS  C316 2651   1.224   1.399   4.273  0.8099 -0.0117  0.5383
   20SAPS  H16X 2652   1.258   1.496   4.231  3.9819 -1.8951 -1.6402
   20SAPS  H16Y 2653   1.236   1.385   4.382  2.3950 -0.2116  0.3638
   20SAPS  C317 2654   1.082   1.369   4.231 -0.5236 -1.1318  0.0884
   20SAPS  H17X 2655   1.013   1.439   4.284  0.4843 -2.8248  3.9554
   20SAPS  H17Y 2656   1.062   1.275   4.287 -3.3774  0.0035  1.1366
   20SAPS  C318 2657   1.042   1.352   4.080  0.1629  0.0687 -0.1691
   20SAPS  H18X 2658   0.933   1.328   4.075  0.5768 -2.1326  0.4017
   20SAPS  H18Y 2659   1.090   1.263   4.034 -1.0244 -0.4481 -0.4618
   20SAPS  H18Z 2660   1.072   1.441   4.020 -0.4673  1.3056  1.2875
   21CHL1    C3 2661   3.737   2.016   5.913 -0.0225  0.2817  0.1273
   21CHL1    H3 2662   3.709   1.909   5.921  0.5421  0.2347  1.7719
   21CHL1    O3 2663   3.771   2.052   6.043 -0.2086 -0.1299  0.0529
   21CHL1   H3' 2664   3.772   2.148   6.040  2.4558  0.0356  2.2601
   21CHL1    C4 2665   3.859   2.031   5.820 -0.9775 -0.2104 -0.1042
   21CHL1   H4A 2666   3.886   2.136   5.847  1.7103 -0.5718 -1.1178
   21CHL1   H4B 2667   3.927   1.958   5.868  0.2745  0.0076 -1.5001
   21CHL1    C5 2668   3.839   2.017   5.673 -0.1337  0.6369 -0.4701
   21CHL1    C6 2669   3.915   1.928   5.598 -0.5268 -0.7433 -0.0253
   21CHL1    H6 2670   3.994   1.867   5.643 -2.1732 -2.4708  0.6699
   21CHL1    C7 2671   3.893   1.912   5.451 -0.4428 -0.1577  0.3974
   21CHL1   H7A 2672   3.992   1.933   5.407 -1.6590  1.1875 -1.9100
   21CHL1   H7B 2673   3.855   1.809   5.435 -0.5596  0.2710 -2.7250
   21CHL1    C8 2674   3.799   2.008   5.388 -0.0702  0.1122 -0.3163
   21CHL1    H8 2675   3.849   2.106   5.374 -0.5034  0.8301  2.4875
   21CHL1   C14 2676   3.763   1.962   5.249  0.1531 -0.4257 -0.1497
   21CHL1   H14 2677   3.705   1.869   5.266  1.4481 -1.4047 -0.8759
   21CHL1   C15 2678   3.874   1.927   5.153 -1.0029  0.7114  0.3348
   21CHL1  H15A 2679   3.952   2.006   5.165  1.1861 -1.4182  0.8962
   21CHL1  H15B 2680   3.917   1.830   5.186 -1.6261  0.0955 -0.6227
   21CHL1   C16 2681   3.808   1.918   5.021  0.5656 -0.0109  0.5598
   21CHL1  H16A 2682   3.857   1.981   4.944  1.9533  0.3144  1.6758
   21CHL1  H16B 2683   3.819   1.812   4.990  1.3537 -0.0261  0.8679
   21CHL1   C17 2684   3.661   1.974   5.033  0.2753  0.1755 -0.0177
   21CHL1   H17 2685   3.595   1.887   5.049  0.0797  0.0245 -1.5873
   21CHL1   C13 2686   3.664   2.046   5.173  0.4704 -0.3461  0.8527
   21CHL1   C18 2687   3.716   2.183   5.142 -0.1904 -0.6132  0.4891
   21CHL1  H18A 2688   3.742   2.243   5.231 -0.9514 -0.4032  0.5712
   21CHL1  H18B 2689   3.805   2.190   5.076 -1.4051 -2.0659 -1.4112
   21CHL1  H18C 2690   3.644   2.250   5.090  1.5430  1.9421  1.1888
   21CHL1   C12 2691   3.537   2.058   5.260 -0.4607 -0.2108  0.2767
   21CHL1  H12A 2692   3.455   2.116   5.212 -0.9488 -0.3341  0.9462
   21CHL1  H12B 2693   3.501   1.953   5.266 -1.5493  0.0792 -0.6495
   21CHL1   C11 2694   3.570   2.111   5.402 -0.1727  0.3122 -0.0239
   21CHL1  H11A 2695   3.589   2.220   5.394 -0.0463  0.3729  0.9471
   21CHL1  H11B 2696   3.473   2.091   5.453  0.0384  0.0746  0.2871
   21CHL1    C9 2697   3.673   2.029   5.474  0.5722 -0.8722 -0.8528
   21CHL1    H9 2698   3.632   1.929   5.502 -0.8278 -0.3025 -0.8048
   21CHL1   C10 2699   3.715   2.090   5.612  0.3748  1.1501 -0.1120
   21CHL1   C19 2700   3.741   2.240   5.604 -0.0278  0.5590 -0.5316
   21CHL1  H19A 2701   3.812   2.249   5.518 -0.2443 -2.7625 -1.2152
   21CHL1  H19B 2702   3.651   2.297   5.573 -0.4915 -0.8935 -2.0249
   21CHL1  H19C 2703   3.776   2.286   5.698 -0.1714 -1.4431  0.5585
   21CHL1    C1 2704   3.588   2.075   5.707 -0.3519  0.4155 -0.4090
   21CHL1   H1A 2705   3.504   2.139   5.673  0.0677  1.0454 -0.2866
   21CHL1   H1B 2706   3.560   1.968   5.697  1.5652 -0.1965  0.2390
   21CHL1    C2 2707   3.617   2.094   5.856 -0.3833  0.0780 -0.3149
   21CHL1   H2A 2708   3.529   2.062   5.915  0.4788 -0.9656  0.4508
   21CHL1   H2B 2709   3.642   2.202   5.865  0.4704 -0.1541  0.2282
   21CHL1   C20 2710   3.601   2.040   4.906  0.1447 -0.2612 -1.0058
   21CHL1   H20 2711   3.678   2.119   4.888 -0.2005  0.9030  2.0587
   21CHL1   C21 2712   3.463   2.110   4.920  0.1182  0.2808 -0.8419
   21CHL1  H21A 2713   3.427   2.139   5.021  2.4514  2.4007 -0.5209
   21CHL1  H21B 2714   3.393   2.034   4.879 -0.1281  0.1680 -0.2183
   21CHL1  H21C 2715   3.459   2.198   4.852  0.6057  1.0773  0.1332
   21CHL1   C22 2716   3.597   1.929   4.799 -0.1538  0.6285 -0.3127
   21CHL1  H22A 2717   3.700   1.888   4.797  0.7182  2.7527 -0.7319
   21CHL1  H22B 2718   3.527   1.847   4.827 -1.8403  2.1590  0.1920
   21CHL1   C23 2719   3.570   1.971   4.655 -0.0153 -0.7640 -0.1494
   21CHL1  H23A 2720   3.461   1.978   4.637 -0.2007 -1.6501  0.5512
   21CHL1  H23B 2721   3.604   2.075   4.638 -0.8336 -0.5793 -0.7367
   21CHL1   C24 2722   3.627   1.866   4.556 -0.6281 -0.2143 -0.7192
   21CHL1  H24A 2723   3.735   1.851   4.575 -0.8212 -0.9064 -0.0976
   21CHL1  H24B 2724   3.582   1.765   4.569  1.4903 -0.9580  1.5432
   21CHL1   C25 2725   3.605   1.888   4.412 -0.7037 -0.1514 -0.4819
   21CHL1   H25 2726   3.606   1.998   4.396  2.7033 -0.1755 -1.2933
   21CHL1   C26 2727   3.718   1.828   4.325 -0.3310  0.8664 -0.7310
   21CHL1  H26A 2728   3.707   1.815   4.215  1.7164  2.6900 -1.2117
   21CHL1  H26B 2729   3.814   1.881   4.340 -0.3632  0.7452 -0.0881
   21CHL1  H26C 2730   3.736   1.721   4.351  4.0552  1.2471 -1.3638
   21CHL1   C27 2731   3.460   1.847   4.371 -0.2047 -0.1743 -0.5356
   21CHL1  H27A 2732   3.467   1.737   4.358  1.2493  0.0037 -1.4459
   21CHL1  H27B 2733   3.384   1.870   4.449 -0.0849 -0.3283 -0.3725
   21CHL1  H27C 2734   3.437   1.898   4.275  0.6105  0.0551 -0.6109
   22CHL1    C3 2735   0.232   1.680   6.010  0.6775 -0.5309 -0.0051
   22CHL1    H3 2736   0.328   1.624   6.005  0.7554 -0.5651  1.5763
   22CHL1    O3 2737   0.206   1.725   6.139 -0.1392  0.0241 -0.6226
   22CHL1   H3' 2738   0.282   1.701   6.194 -0.6733  0.2823  0.2369
   22CHL1    C4 2739   0.235   1.804   5.918  0.3696 -0.5938  0.2165
   22CHL1   H4A 2740   0.137   1.854   5.927  1.1769  1.2903 -0.8415
   22CHL1   H4B 2741   0.320   1.871   5.945 -0.4668 -0.3419  2.4062
   22CHL1    C5 2742   0.241   1.779   5.767 -0.4677 -0.1843 -0.3247
   22CHL1    C6 2743   0.325   1.854   5.691 -0.1109  0.2295 -0.0418
   22CHL1    H6 2744   0.393   1.928   5.735  1.3721 -0.4917 -1.0359
   22CHL1    C7 2745   0.334   1.831   5.545  0.3674  0.2969  0.3508
   22CHL1   H7A 2746   0.330   1.918   5.477  0.5788 -1.8360 -2.5810
   22CHL1   H7B 2747   0.432   1.780   5.532  0.8746  1.5225 -0.7786
   22CHL1    C8 2748   0.226   1.736   5.485  0.3952  0.7564 -0.3425
   22CHL1    H8 2749   0.139   1.804   5.475  0.3395  1.1605  2.1714
   22CHL1   C14 2750   0.268   1.685   5.349  0.0014  0.2141 -0.0658
   22CHL1   H14 2751   0.358   1.622   5.363 -0.0024  0.5770  1.8821
   22CHL1   C15 2752   0.317   1.793   5.244  0.1572  0.0992  0.4259
   22CHL1  H15A 2753   0.247   1.878   5.250  1.4863  1.3246 -0.6800
   22CHL1  H15B 2754   0.423   1.824   5.255  0.5177 -0.1180 -1.8842
   22CHL1   C16 2755   0.305   1.715   5.110 -0.1493  0.2279  0.2911
   22CHL1  H16A 2756   0.234   1.769   5.044  1.5188  1.6580 -0.3909
   22CHL1  H16B 2757   0.406   1.711   5.065 -0.2353 -1.2318  0.1809
   22CHL1   C17 2758   0.228   1.577   5.140 -0.2959 -0.5536  0.1730
   22CHL1   H17 2759   0.309   1.501   5.137 -0.3425 -0.5908 -0.3431
   22CHL1   C13 2760   0.159   1.601   5.278 -0.0011  1.0103  0.3365
   22CHL1   C18 2761   0.031   1.679   5.256  0.5658 -0.1734  0.2674
   22CHL1  H18A 2762  -0.051   1.611   5.225  0.8152  0.3179 -1.5556
   22CHL1  H18B 2763  -0.005   1.743   5.340 -2.5806  0.9708 -1.7529
   22CHL1  H18C 2764   0.044   1.752   5.174  0.8702 -2.1510 -1.5351
   22CHL1   C12 2765   0.149   1.473   5.368 -0.2849 -0.2710  0.2288
   22CHL1  H12A 2766   0.086   1.392   5.327  0.3697  0.5627 -2.6852
   22CHL1  H12B 2767   0.247   1.426   5.391 -0.2499  0.4010  1.5188
   22CHL1   C11 2768   0.098   1.518   5.504 -0.2398  0.1180 -0.4640
   22CHL1  H11A 2769   0.002   1.572   5.486  0.1513  0.7555 -0.6690
   22CHL1  H11B 2770   0.076   1.435   5.575  0.1924  2.1392  2.1812
   22CHL1    C9 2771   0.191   1.621   5.574 -0.3954  0.3553  0.3051
   22CHL1    H9 2772   0.281   1.560   5.597 -2.6375 -3.0838  0.6337
   22CHL1   C10 2773   0.145   1.663   5.720 -0.0444 -0.2580  0.0005
   22CHL1   C19 2774   0.007   1.730   5.718 -0.5370 -0.2494 -0.3001
   22CHL1  H19A 2775  -0.080   1.662   5.703  0.4765 -1.9750  1.2283
   22CHL1  H19B 2776  -0.015   1.798   5.804  0.5746 -1.1239  0.7020
   22CHL1  H19C 2777   0.004   1.799   5.631 -0.8175 -1.7489 -1.5033
   22CHL1    C1 2778   0.150   1.547   5.818  0.1113 -0.1082  0.2890
   22CHL1   H1A 2779   0.072   1.476   5.784  1.2682 -1.3991  0.2658
   22CHL1   H1B 2780   0.246   1.496   5.798  0.4571  0.2757  0.9307
   22CHL1    C2 2781   0.123   1.582   5.961 -0.1244 -0.2037 -0.7792
   22CHL1   H2A 2782   0.132   1.497   6.032  2.4893  0.6894  0.0985
   22CHL1   H2B 2783   0.020   1.616   5.982 -0.2497 -1.1556  0.2171
   22CHL1   C20 2784   0.136   1.539   5.024 -0.0617  0.2217  0.3347
   22CHL1   H20 2785   0.062   1.617   4.997 -1.6846 -1.1894  0.5388
   22CHL1   C21 2786   0.040   1.416   5.051  0.8476 -0.0896 -0.6072
   22CHL1  H21A 2787   0.113   1.332   5.041  1.0523  0.2606 -2.4032
   22CHL1  H21B 2788  -0.047   1.410   4.982  0.6110 -1.1830 -0.2340
   22CHL1  H21C 2789  -0.010   1.430   5.149  1.1691 -0.5878 -0.3661
   22CHL1   C22 2790   0.206   1.517   4.893  0.5189  0.9745 -0.2278
   22CHL1  H22A 2791   0.293   1.584   4.880  0.8961  0.8798  1.5308
   22CHL1  H22B 2792   0.251   1.415   4.889  0.0612  0.7910 -2.6508
   22CHL1   C23 2793   0.104   1.517   4.771  0.0687 -0.5336 -0.4192
   22CHL1  H23A 2794   0.021   1.444   4.778 -1.2216  1.0039  1.5508
   22CHL1  H23B 2795   0.068   1.622   4.771  2.4781  0.3997  1.5963
   22CHL1   C24 2796   0.182   1.504   4.636 -0.0235 -0.3797  0.4463
   22CHL1  H24A 2797   0.262   1.581   4.637  0.6281 -1.0180  2.8667
   22CHL1  H24B 2798   0.250   1.416   4.637  2.3183  1.2431 -2.1048
   22CHL1   C25 2799   0.102   1.515   4.502 -0.3415  0.7978  0.2864
   22CHL1   H25 2800   0.035   1.604   4.498 -0.8304  0.6279  3.0675
   22CHL1   C26 2801   0.202   1.525   4.386  0.3207  0.1437 -0.6317
   22CHL1  H26A 2802   0.147   1.551   4.294 -0.8639 -0.0603  0.0033
   22CHL1  H26B 2803   0.290   1.592   4.401  0.3151  0.1650 -0.6953
   22CHL1  H26C 2804   0.247   1.425   4.367  1.1507  0.4336 -0.2697
   22CHL1   C27 2805   0.005   1.399   4.500  0.7526  0.3063 -0.3152
   22CHL1  H27A 2806  -0.038   1.396   4.397 -0.3639  1.2743  0.0996
   22CHL1  H27B 2807   0.048   1.298   4.514 -0.3099 -0.0622  0.3856
   22CHL1  H27C 2808  -0.074   1.416   4.576  0.1734 -2.0472 -0.3003
   23CHL1    C3 2809   4.651   0.806   5.456  0.2730 -0.1516  0.4483
   23CHL1    H3 2810   4.572   0.728   5.444  1.6154 -1.6503  0.9030
   23CHL1    O3 2811   4.705   0.791   5.589  0.1388  0.5758  0.4534
   23CHL1   H3' 2812   4.774   0.856   5.601  0.4799  0.4369 -0.6702
   23CHL1    C4 2813   4.754   0.762   5.347 -0.0575  0.2647  0.3804
   23CHL1   H4A 2814   4.844   0.825   5.366 -0.3740  0.4508  1.3056
   23CHL1   H4B 2815   4.793   0.660   5.367 -1.6379 -0.2830  0.8002
   23CHL1    C5 2816   4.716   0.788   5.202 -0.7891  0.0695  0.0846
   23CHL1    C6 2817   4.718   0.683   5.114 -0.8804  0.0049 -0.2999
   23CHL1    H6 2818   4.761   0.595   5.163  3.2048  1.2234 -1.3113
   23CHL1    C7 2819   4.685   0.694   4.965  1.0004  0.5893  0.0652
   23CHL1   H7A 2820   4.766   0.659   4.897  0.4208 -0.0463 -0.3121
   23CHL1   H7B 2821   4.582   0.655   4.947  1.1854  0.2198 -0.2071
   23CHL1    C8 2822   4.656   0.847   4.925  0.5808  0.2101 -0.2357
   23CHL1    H8 2823   4.753   0.895   4.899  0.9993 -1.7438 -2.7383
   23CHL1   C14 2824   4.562   0.848   4.799  0.2996  0.1027 -0.1505
   23CHL1   H14 2825   4.467   0.801   4.833  1.6569 -1.5658  1.5826
   23CHL1   C15 2826   4.608   0.768   4.676 -0.2327  0.1057 -0.3637
   23CHL1  H15A 2827   4.718   0.779   4.668 -0.1270 -0.7712 -0.1521
   23CHL1  H15B 2828   4.579   0.661   4.674 -0.6585  0.1148  1.9582
   23CHL1   C16 2829   4.543   0.846   4.561 -0.2400 -0.3531  0.2149
   23CHL1  H16A 2830   4.617   0.863   4.480 -0.8648  0.8303 -0.1432
   23CHL1  H16B 2831   4.455   0.785   4.533 -0.6174 -1.3597  3.2228
   23CHL1   C17 2832   4.476   0.974   4.617  0.4063 -0.0734 -1.3028
   23CHL1   H17 2833   4.369   0.953   4.637  1.0885 -1.4819  1.4304
   23CHL1   C13 2834   4.542   0.996   4.753  0.0444  0.8818  0.0370
   23CHL1   C18 2835   4.672   1.083   4.735 -0.1722 -0.1554 -0.6072
   23CHL1  H18A 2836   4.730   1.049   4.647  0.9754 -1.1090  0.4890
   23CHL1  H18B 2837   4.646   1.191   4.737  1.7204  0.3111  0.2062
   23CHL1  H18C 2838   4.741   1.081   4.822 -0.8028 -2.0956 -0.1080
   23CHL1   C12 2839   4.455   1.054   4.866 -0.5998 -0.8442 -0.1368
   23CHL1  H12A 2840   4.424   1.159   4.847  3.0493  0.2592 -0.8665
   23CHL1  H12B 2841   4.361   0.994   4.869 -1.0298 -0.1526  0.5638
   23CHL1   C11 2842   4.524   1.052   4.998  0.3938  0.5121 -0.0536
   23CHL1  H11A 2843   4.593   1.138   5.008  0.9435  0.0692 -0.0250
   23CHL1  H11B 2844   4.434   1.085   5.055 -1.6084 -1.8879 -1.5798
   23CHL1    C9 2845   4.585   0.922   5.042  0.7001  0.2824  0.2500
   23CHL1    H9 2846   4.502   0.853   5.068  1.8179 -1.0075  0.4847
   23CHL1   C10 2847   4.660   0.927   5.176  0.2871 -0.5742 -0.3283
   23CHL1   C19 2848   4.776   1.027   5.160 -0.7097 -0.2887  0.9579
   23CHL1  H19A 2849   4.849   1.020   5.243 -0.2052 -0.5994  0.4941
   23CHL1  H19B 2850   4.837   1.004   5.070  1.5985 -0.5256  2.5023
   23CHL1  H19C 2851   4.738   1.132   5.163 -1.5890 -0.5744  0.3736
   23CHL1    C1 2852   4.567   0.969   5.288 -0.0421  0.0689  0.3319
   23CHL1   H1A 2853   4.550   1.079   5.277 -2.7371 -0.2004  1.2263
   23CHL1   H1B 2854   4.471   0.923   5.260  0.0730  0.5266 -0.8678
   23CHL1    C2 2855   4.608   0.948   5.436 -0.0971  0.2044 -0.9139
   23CHL1   H2A 2856   4.517   0.964   5.497  1.0608  0.8427  0.6835
   23CHL1   H2B 2857   4.681   1.027   5.464 -1.5529  1.4547 -0.5009
   23CHL1   C20 2858   4.491   1.083   4.513 -0.3546 -0.0764 -0.8623
   23CHL1   H20 2859   4.596   1.105   4.481 -0.4803  0.6709 -0.7815
   23CHL1   C21 2860   4.420   1.217   4.547 -0.6830 -0.2317  0.3671
   23CHL1  H21A 2861   4.409   1.277   4.454  0.0170  1.9545  1.6169
   23CHL1  H21B 2862   4.489   1.274   4.613  0.6631 -1.9857  0.5391
   23CHL1  H21C 2863   4.319   1.215   4.592 -1.0272 -1.9716 -0.4105
   23CHL1   C22 2864   4.426   1.037   4.382 -0.2717  0.4241  0.3213
   23CHL1  H22A 2865   4.423   1.121   4.309 -1.8141  0.1275  0.0112
   23CHL1  H22B 2866   4.492   0.968   4.324 -2.3953 -0.1209 -1.6059
   23CHL1   C23 2867   4.289   0.965   4.378 -0.0036 -0.0014 -0.3622
   23CHL1  H23A 2868   4.303   0.867   4.429  4.6246  0.5015 -0.2488
   23CHL1  H23B 2869   4.217   1.022   4.440  0.9022  1.2088 -0.3712
   23CHL1   C24 2870   4.219   0.952   4.245 -0.1925  0.0947 -0.3565
   23CHL1  H24A 2871   4.290   0.916   4.167  0.9318  0.6439  0.3920
   23CHL1  H24B 2872   4.133   0.881   4.246  0.7868 -1.1194  0.1681
   23CHL1   C25 2873   4.161   1.086   4.187  0.7480 -0.3842 -0.7667
   23CHL1   H25 2874   4.230   1.172   4.205 -2.1198  1.8206  0.6415
   23CHL1   C26 2875   4.133   1.076   4.037 -0.5873 -0.0774  0.8965
   23CHL1  H26A 2876   4.067   1.157   3.997  0.0143 -1.6204 -3.8181
   23CHL1  H26B 2877   4.223   1.063   3.973 -0.6113  0.5766  0.7260
   23CHL1  H26C 2878   4.083   0.978   4.022 -0.1239 -0.1257 -0.4378
   23CHL1   C27 2879   4.031   1.140   4.258 -0.9250  0.5547 -0.5350
   23CHL1  H27A 2880   3.942   1.074   4.260  0.0273 -0.7636  0.8482
   23CHL1  H27B 2881   4.051   1.150   4.367 -0.8629  0.3185 -0.5237
   23CHL1  H27C 2882   4.001   1.243   4.229 -2.9283  1.1602  3.0846
   24CHL1    C3 2883   6.373   2.285   5.812  0.3006 -0.2886 -0.4426
   24CHL1    H3 2884   6.343   2.392   5.813  2.0090  0.2206  1.2175
   24CHL1    O3 2885   6.387   2.242   5.949 -0.3830 -0.2491 -0.3792
   24CHL1   H3' 2886   6.482   2.249   5.964 -0.2470  1.1166 -1.6725
   24CHL1    C4 2887   6.262   2.203   5.747 -1.2069 -0.7808 -0.5867
   24CHL1   H4A 2888   6.286   2.095   5.758  1.9048 -0.1708 -0.4441
   24CHL1   H4B 2889   6.165   2.217   5.799 -1.6129 -2.2221 -0.9166
   24CHL1    C5 2890   6.257   2.227   5.598  0.0011 -0.5426 -0.5384
   24CHL1    C6 2891   6.149   2.270   5.531 -0.2120 -0.0164  0.3469
   24CHL1    H6 2892   6.055   2.287   5.584 -2.0361 -0.2807 -2.6004
   24CHL1    C7 2893   6.142   2.279   5.379 -0.3413 -0.7444 -0.0596
   24CHL1   H7A 2894   6.048   2.229   5.346 -1.2724  1.1226 -0.3458
   24CHL1   H7B 2895   6.139   2.382   5.337 -0.7614 -0.6089  0.2957
   24CHL1    C8 2896   6.252   2.197   5.314 -0.1248 -0.5974  0.3392
   24CHL1    H8 2897   6.232   2.088   5.323 -2.6898 -0.1185  1.2984
   24CHL1   C14 2898   6.253   2.220   5.160 -0.0623  0.1507 -0.9123
   24CHL1   H14 2899   6.259   2.327   5.132  1.7125 -0.1792 -1.8915
   24CHL1   C15 2900   6.122   2.175   5.091  0.1040  0.5057  0.7098
   24CHL1  H15A 2901   6.092   2.075   5.128  0.7483  1.2476  3.4308
   24CHL1  H15B 2902   6.039   2.248   5.094 -1.2375 -0.8694 -0.9559
   24CHL1   C16 2903   6.172   2.160   4.940 -0.1116  0.1296 -0.4839
   24CHL1  H16A 2904   6.153   2.060   4.896  2.1354 -1.4166  1.7565
   24CHL1  H16B 2905   6.129   2.233   4.868  2.0148  2.8677  0.8297
   24CHL1   C17 2906   6.322   2.188   4.936 -0.5106  0.4776 -0.0154
   24CHL1   H17 2907   6.345   2.295   4.917  1.2327  0.0596 -0.4367
   24CHL1   C13 2908   6.366   2.150   5.082 -0.1489 -0.5264 -0.1914
   24CHL1   C18 2909   6.371   2.003   5.104  0.0550 -0.3636  0.1722
   24CHL1  H18A 2910   6.455   1.963   5.043  1.2015  1.9043  0.1467
   24CHL1  H18B 2911   6.377   1.976   5.211 -1.0281  0.2780  0.4127
   24CHL1  H18C 2912   6.281   1.956   5.060 -0.3404  1.6210 -1.2965
   24CHL1   C12 2913   6.504   2.206   5.135  0.2730 -0.3568 -0.5873
   24CHL1  H12A 2914   6.586   2.152   5.083  1.2114 -1.2242  1.7023
   24CHL1  H12B 2915   6.516   2.315   5.116  0.1406  0.0525  1.5037
   24CHL1   C11 2916   6.517   2.199   5.291  0.5248 -0.3468 -0.7989
   24CHL1  H11A 2917   6.542   2.092   5.306  0.6007 -0.2343 -0.1145
   24CHL1  H11B 2918   6.605   2.263   5.311  0.9024 -0.7021 -1.3157
   24CHL1    C9 2919   6.387   2.240   5.375 -0.1794  0.4242 -0.2734
   24CHL1    H9 2920   6.396   2.350   5.380 -0.7996  0.4354  0.9595
   24CHL1   C10 2921   6.388   2.193   5.522  0.1435 -0.0495  0.4612
   24CHL1   C19 2922   6.409   2.046   5.540  0.2272  0.6942  0.3071
   24CHL1  H19A 2923   6.397   2.009   5.644 -2.4019  0.3339 -0.0615
   24CHL1  H19B 2924   6.341   1.984   5.477  2.5896 -3.4123  1.4269
   24CHL1  H19C 2925   6.510   2.014   5.508 -0.5097 -2.6387  0.9251
   24CHL1    C1 2926   6.501   2.282   5.590  0.5948 -0.7422 -0.3097
   24CHL1   H1A 2927   6.601   2.258   5.546 -0.0898  1.7663 -3.6332
   24CHL1   H1B 2928   6.479   2.386   5.560 -2.0346 -0.8925  0.8241
   24CHL1    C2 2929   6.504   2.265   5.744 -0.1870  0.3400  0.3616
   24CHL1   H2A 2930   6.579   2.330   5.793  0.0255  0.6968 -0.4228
   24CHL1   H2B 2931   6.546   2.163   5.759 -1.5783 -0.6341 -1.7695
   24CHL1   C20 2932   6.384   2.110   4.814  0.3174  0.4055  0.1941
   24CHL1   H20 2933   6.346   2.006   4.830 -0.9003  1.0240  1.5480
   24CHL1   C21 2934   6.534   2.092   4.817  0.2432 -0.1991  0.2022
   24CHL1  H21A 2935   6.595   2.185   4.820 -0.8383  0.7206 -2.7575
   24CHL1  H21B 2936   6.562   2.034   4.726  1.3166  0.4404  0.0964
   24CHL1  H21C 2937   6.575   2.029   4.898 -0.8752 -1.2365 -0.0178
   24CHL1   C22 2938   6.328   2.156   4.672  0.0586  0.4209  0.6214
   24CHL1  H22A 2939   6.218   2.169   4.681 -0.1301 -0.1180 -0.6506
   24CHL1  H22B 2940   6.379   2.252   4.649 -2.7441  1.8888  0.0420
   24CHL1   C23 2941   6.352   2.060   4.555  0.2656 -0.1892  0.6163
   24CHL1  H23A 2942   6.461   2.050   4.531  0.7750  3.0143  1.1548
   24CHL1  H23B 2943   6.310   1.960   4.577 -0.3272  0.1430  1.0013
   24CHL1   C24 2944   6.280   2.116   4.423  0.2043  0.6223  0.3823
   24CHL1  H24A 2945   6.175   2.101   4.458  0.4046  0.8997  1.1427
   24CHL1  H24B 2946   6.290   2.225   4.404 -0.6255  0.8243  1.0117
   24CHL1   C25 2947   6.304   2.018   4.307  0.6482  0.3355 -0.1620
   24CHL1   H25 2948   6.405   1.975   4.323 -0.2320 -1.9008 -0.2797
   24CHL1   C26 2949   6.182   1.918   4.298 -0.0111 -0.1359  0.8672
   24CHL1  H26A 2950   6.092   1.980   4.315 -2.4483 -1.6650 -4.4273
   24CHL1  H26B 2951   6.186   1.879   4.194 -0.9355  0.1301  0.7318
   24CHL1  H26C 2952   6.185   1.838   4.376 -2.1009 -0.2237  0.9088
   24CHL1   C27 2953   6.310   2.102   4.174  0.6049 -0.1701 -0.3930
   24CHL1  H27A 2954   6.391   2.178   4.181 -0.3368  0.8775 -0.6022
   24CHL1  H27B 2955   6.331   2.039   4.085 -1.2171 -0.4924 -0.6491
   24CHL1  H27C 2956   6.213   2.149   4.146  0.7035  0.2037 -0.1228
   25CHL1    C3 2957   2.278   5.446   6.039 -0.1752  0.6218 -0.1004
   25CHL1    H3 2958   2.278   5.368   5.959  1.2064 -3.0541  3.1434
   25CHL1    O3 2959   2.279   5.385   6.160 -0.7924  0.0487 -0.0768
   25CHL1   H3' 2960   2.369   5.375   6.191 -0.9956 -1.6479  0.0698
   25CHL1    C4 2961   2.403   5.534   6.027  0.4650  0.0679 -0.0830
   25CHL1   H4A 2962   2.413   5.605   6.111 -1.7206 -1.5906  1.6789
   25CHL1   H4B 2963   2.494   5.469   6.027  1.3469  1.2665  0.1787
   25CHL1    C5 2964   2.402   5.625   5.905  1.0663  0.0472 -0.6154
   25CHL1    C6 2965   2.504   5.627   5.823 -0.6775 -0.4056  0.2053
   25CHL1    H6 2966   2.596   5.574   5.850  0.6827  0.9903 -1.5290
   25CHL1    C7 2967   2.524   5.708   5.698  0.4544  0.2784  0.2584
   25CHL1   H7A 2968   2.625   5.753   5.701  0.1407  1.0293 -0.2089
   25CHL1   H7B 2969   2.517   5.630   5.619 -1.4309 -0.5727  1.2000
   25CHL1    C8 2970   2.413   5.811   5.676 -0.1174  0.2752 -0.3165
   25CHL1    H8 2971   2.443   5.898   5.738  0.8274 -0.4785  0.3011
   25CHL1   C14 2972   2.410   5.838   5.531 -0.5248  0.2418 -0.0497
   25CHL1   H14 2973   2.375   5.746   5.480  0.1465 -1.3913  2.3132
   25CHL1   C15 2974   2.547   5.887   5.458  0.3653  0.2637  0.2429
   25CHL1  H15A 2975   2.603   5.953   5.528  0.5874  0.1449  0.1780
   25CHL1  H15B 2976   2.612   5.798   5.446  0.1537  0.3007 -1.4036
   25CHL1   C16 2977   2.504   5.943   5.322 -0.1402  0.3395 -0.1844
   25CHL1  H16A 2978   2.550   6.044   5.310  3.4552 -1.1025  0.3191
   25CHL1  H16B 2979   2.554   5.890   5.238  0.6515  2.1626 -0.9382
   25CHL1   C17 2980   2.351   5.943   5.329 -0.5519  0.5849  0.7634
   25CHL1   H17 2981   2.303   5.851   5.291 -1.6804  2.2454 -2.1644
   25CHL1   C13 2982   2.312   5.942   5.484 -0.4739 -0.2677  0.3334
   25CHL1   C18 2983   2.351   6.081   5.542 -0.2736 -0.1962  0.2633
   25CHL1  H18A 2984   2.443   6.124   5.497 -0.7626 -0.3431 -0.9228
   25CHL1  H18B 2985   2.269   6.156   5.541  1.5197  1.8973 -1.2708
   25CHL1  H18C 2986   2.358   6.068   5.652  0.1269  1.5642  0.4755
   25CHL1   C12 2987   2.171   5.906   5.527  0.5852  0.1280 -0.4077
   25CHL1  H12A 2988   2.101   5.991   5.516 -3.6153 -2.9292  0.3997
   25CHL1  H12B 2989   2.137   5.822   5.464 -1.0423  0.0012  0.5873
   25CHL1   C11 2990   2.177   5.874   5.680 -0.4712 -0.4058 -0.3866
   25CHL1  H11A 2991   2.192   5.970   5.733 -0.6174 -1.3214  1.3736
   25CHL1  H11B 2992   2.071   5.849   5.701 -0.8700  2.1002  0.9125
   25CHL1    C9 2993   2.278   5.761   5.725  0.1260 -0.6946  1.1582
   25CHL1    H9 2994   2.250   5.672   5.664 -1.8704  0.8589 -0.3559
   25CHL1   C10 2995   2.267   5.702   5.872  0.0283 -0.0213 -0.3111
   25CHL1   C19 2996   2.265   5.821   5.971  0.4419 -0.7748 -0.1364
   25CHL1  H19A 2997   2.177   5.886   5.958  1.7537  1.1050 -0.0241
   25CHL1  H19B 2998   2.255   5.790   6.077  1.3637 -0.7270 -0.0264
   25CHL1  H19C 2999   2.358   5.882   5.970  0.9124 -1.0538  4.3311
   25CHL1    C1 3000   2.141   5.606   5.899  0.2173 -0.1809  0.3203
   25CHL1   H1A 3001   2.050   5.670   5.893  1.2511  1.1940 -1.6851
   25CHL1   H1B 3002   2.139   5.544   5.808 -1.2029 -1.4010  1.1340
   25CHL1    C2 3003   2.147   5.528   6.026 -0.4382 -0.7152 -0.1902
   25CHL1   H2A 3004   2.073   5.446   6.038  1.0849 -2.6438 -2.8247
   25CHL1   H2B 3005   2.134   5.595   6.114  0.3801 -2.0199  0.9681
   25CHL1   C20 3006   2.283   6.049   5.241 -0.1095  0.1483 -0.1249
   25CHL1   H20 3007   2.299   6.150   5.285  0.9088 -0.0113 -0.1088
   25CHL1   C21 3008   2.128   6.034   5.229  0.1287 -0.8131 -1.0792
   25CHL1  H21A 3009   2.075   6.056   5.324 -1.3794  2.2103 -2.4713
   25CHL1  H21B 3010   2.090   5.930   5.216  0.1958 -1.2507  1.6337
   25CHL1  H21C 3011   2.073   6.100   5.159 -2.0929 -0.5242  0.8349
   25CHL1   C22 3012   2.342   6.049   5.096  0.2056 -0.1584  0.6575
   25CHL1  H22A 3013   2.451   6.071   5.101  0.1884 -0.1222  0.8979
   25CHL1  H22B 3014   2.329   5.944   5.062 -1.8299  0.2975 -0.1413
   25CHL1   C23 3015   2.281   6.151   4.997  0.5283  0.2284  0.5104
   25CHL1  H23A 3016   2.183   6.106   4.970  0.8045 -1.6179  2.3026
   25CHL1  H23B 3017   2.265   6.248   5.048  1.6135  1.2678 -1.0555
   25CHL1   C24 3018   2.363   6.159   4.873 -0.1174  0.3689  0.1124
   25CHL1  H24A 3019   2.472   6.180   4.884 -0.1788  0.2874  0.9437
   25CHL1  H24B 3020   2.363   6.056   4.830 -0.8705 -0.3181  1.6883
   25CHL1   C25 3021   2.311   6.239   4.743  0.4806 -0.4986  0.2147
   25CHL1   H25 3022   2.200   6.231   4.753  0.4409  0.6469  0.8092
   25CHL1   C26 3023   2.342   6.383   4.758 -0.2223 -0.0471 -0.1708
   25CHL1  H26A 3024   2.294   6.440   4.676 -0.4800  2.2332  1.4796
   25CHL1  H26B 3025   2.308   6.422   4.856 -0.5173  0.1087 -0.3319
   25CHL1  H26C 3026   2.451   6.402   4.750 -0.0169 -1.4022 -0.9125
   25CHL1   C27 3027   2.353   6.174   4.610  0.7048 -0.1669 -0.8883
   25CHL1  H27A 3028   2.456   6.211   4.588  0.1309  1.2275 -1.3410
   25CHL1  H27B 3029   2.356   6.065   4.633  2.0757 -0.2609 -1.4111
   25CHL1  H27C 3030   2.282   6.202   4.529  1.1132  2.0077 -0.5514
   26CHL1    C3 3031   0.519   2.537   5.846  0.0092 -0.5570 -0.2003
   26CHL1    H3 3032   0.627   2.526   5.822  0.2635  1.4909 -0.1241
   26CHL1    O3 3033   0.511   2.527   5.985 -0.6568 -0.1076  0.0611
   26CHL1   H3' 3034   0.551   2.447   6.020 -1.4931 -0.2738  0.6584
   26CHL1    C4 3035   0.465   2.677   5.793 -0.4708  0.7538  0.2776
   26CHL1   H4A 3036   0.363   2.681   5.837 -0.5148  0.2397  0.2266
   26CHL1   H4B 3037   0.531   2.756   5.833  0.6443 -0.4679  0.9086
   26CHL1    C5 3038   0.472   2.673   5.638 -0.0650 -0.0732  0.3613
   26CHL1    C6 3039   0.541   2.766   5.575 -0.3544 -0.2903 -0.2078
   26CHL1    H6 3040   0.579   2.849   5.637 -0.1278 -0.0772 -0.6262
   26CHL1    C7 3041   0.566   2.775   5.430  0.6750  0.2886 -0.1963
   26CHL1   H7A 3042   0.564   2.874   5.380  1.4937 -0.6356 -2.2134
   26CHL1   H7B 3043   0.659   2.718   5.406  0.5566  0.0176 -0.0214
   26CHL1    C8 3044   0.454   2.695   5.359 -0.1716  0.9687 -0.3148
   26CHL1    H8 3045   0.353   2.741   5.370 -0.4059 -0.0929  3.5754
   26CHL1   C14 3046   0.482   2.682   5.213 -0.2120  0.3794  0.3016
   26CHL1   H14 3047   0.574   2.621   5.197 -0.4215 -0.3270  1.6710
   26CHL1   C15 3048   0.509   2.813   5.130  0.1759  0.2489 -0.2743
   26CHL1  H15A 3049   0.432   2.882   5.169 -0.0085  0.4566 -0.9911
   26CHL1  H15B 3050   0.602   2.870   5.154  0.1791 -0.5483  1.8063
   26CHL1   C16 3051   0.482   2.767   4.986 -0.0754 -0.0302 -0.1072
   26CHL1  H16A 3052   0.392   2.822   4.951  0.0841  0.2313 -0.1055
   26CHL1  H16B 3053   0.566   2.803   4.924 -2.3906  2.3666 -2.0372
   26CHL1   C17 3054   0.431   2.615   4.984  0.4294  0.2385 -0.1495
   26CHL1   H17 3055   0.516   2.547   4.963  0.3571 -0.4310  1.6135
   26CHL1   C13 3056   0.380   2.594   5.132  0.0020 -0.8166 -0.0477
   26CHL1   C18 3057   0.239   2.652   5.144  0.2544  0.2896 -0.2693
   26CHL1  H18A 3058   0.243   2.759   5.113  0.7701  0.5248  0.5783
   26CHL1  H18B 3059   0.164   2.597   5.084  1.4237  0.4002 -1.8721
   26CHL1  H18C 3060   0.198   2.647   5.248  0.3848  1.8069 -0.1157
   26CHL1   C12 3061   0.390   2.453   5.188  0.1018 -0.3102 -0.9744
   26CHL1  H12A 3062   0.336   2.374   5.132 -0.8124 -0.1398 -0.3478
   26CHL1  H12B 3063   0.496   2.420   5.190  0.0246 -0.5455 -0.8010
   26CHL1   C11 3064   0.352   2.446   5.340  0.0546 -0.1982  0.7591
   26CHL1  H11A 3065   0.241   2.459   5.345 -0.2540 -2.4567  0.7465
   26CHL1  H11B 3066   0.382   2.347   5.379 -0.6465 -0.0263  1.8004
   26CHL1    C9 3067   0.440   2.548   5.416  0.2218 -0.1913  0.1068
   26CHL1    H9 3068   0.543   2.509   5.403  0.5405  0.8959 -0.6289
   26CHL1   C10 3069   0.404   2.549   5.567 -0.6408 -0.2648 -0.2094
   26CHL1   C19 3070   0.246   2.567   5.583 -0.7645  0.3221 -0.2120
   26CHL1  H19A 3071   0.203   2.481   5.529  0.2657 -0.5118  0.2464
   26CHL1  H19B 3072   0.214   2.563   5.690  3.1323 -0.7175  1.0806
   26CHL1  H19C 3073   0.225   2.662   5.531 -2.4946  0.7987  1.2560
   26CHL1    C1 3074   0.446   2.416   5.629 -0.3636  0.3307 -0.1893
   26CHL1   H1A 3075   0.380   2.331   5.600 -0.0877 -0.3520  1.1055
   26CHL1   H1B 3076   0.550   2.393   5.598 -0.0157  1.9307 -0.2924
   26CHL1    C2 3077   0.436   2.424   5.781  0.5691 -0.5665 -0.8423
   26CHL1   H2A 3078   0.463   2.324   5.823 -2.6272  0.0836  3.3770
   26CHL1   H2B 3079   0.330   2.440   5.811  0.9002 -0.6869  0.4350
   26CHL1   C20 3080   0.342   2.592   4.872  0.6161 -0.9780  0.0368
   26CHL1   H20 3081   0.254   2.660   4.882  1.0162 -0.2776 -1.0125
   26CHL1   C21 3082   0.305   2.445   4.864  0.0330 -0.3562  0.5181
   26CHL1  H21A 3083   0.245   2.410   4.951 -0.4972 -0.2008  0.2213
   26CHL1  H21B 3084   0.398   2.386   4.857  2.1531  2.5150  2.1577
   26CHL1  H21C 3085   0.239   2.430   4.776 -2.1364  1.2195  1.7774
   26CHL1   C22 3086   0.405   2.632   4.740  0.3243 -0.6177 -0.0455
   26CHL1  H22A 3087   0.334   2.589   4.666  2.0755  0.4323 -2.4462
   26CHL1  H22B 3088   0.399   2.743   4.739 -2.0486 -0.7004 -0.5060
   26CHL1   C23 3089   0.539   2.572   4.698  0.8720  0.3228 -0.4489
   26CHL1  H23A 3090   0.616   2.601   4.772 -1.9946 -0.9735  3.3842
   26CHL1  H23B 3091   0.534   2.461   4.694  1.5099  0.2579  0.2703
   26CHL1   C24 3092   0.575   2.633   4.566  0.4342  0.9764 -0.5012
   26CHL1  H24A 3093   0.518   2.587   4.483 -1.0590  0.3898  0.8098
   26CHL1  H24B 3094   0.538   2.738   4.560 -1.3122  0.3606 -0.9877
   26CHL1   C25 3095   0.721   2.625   4.518  0.1125  0.0572  0.2911
   26CHL1   H25 3096   0.763   2.523   4.537 -1.6401 -0.6413  0.6066
   26CHL1   C26 3097   0.733   2.641   4.359  0.4019 -0.1540 -0.4685
   26CHL1  H26A 3098   0.669   2.567   4.305 -0.1574 -0.5316  0.6732
   26CHL1  H26B 3099   0.690   2.741   4.338 -2.7296 -1.0302  1.1543
   26CHL1  H26C 3100   0.840   2.635   4.327  0.3305 -1.5424 -0.5355
   26CHL1   C27 3101   0.806   2.737   4.587 -0.6048 -0.3348 -0.2602
   26CHL1  H27A 3102   0.905   2.750   4.540 -0.7481  0.4167 -0.3653
   26CHL1  H27B 3103   0.757   2.836   4.589  0.5484  0.2472 -0.1029
   26CHL1  H27C 3104   0.829   2.719   4.695  0.7727 -0.0342 -0.4884
   27CHL1    C3 3105   4.689   2.067   5.710 -0.0968  0.4045  0.0346
   27CHL1    H3 3106   4.792   2.080   5.668  0.3447 -0.6006  0.7893
   27CHL1    O3 3107   4.693   2.063   5.852  0.4560  0.0498  0.4948
   27CHL1   H3' 3108   4.775   2.017   5.874  1.1263  1.2163  0.5119
   27CHL1    C4 3109   4.590   2.173   5.678  0.2141  0.1629  0.5213
   27CHL1   H4A 3110   4.485   2.146   5.701 -0.2352  3.0999  2.5314
   27CHL1   H4B 3111   4.599   2.266   5.738 -0.0129 -0.7519  2.0291
   27CHL1    C5 3112   4.583   2.189   5.524 -0.6374 -0.6429 -0.2434
   27CHL1    C6 3113   4.619   2.305   5.472  0.4316 -0.5591 -0.3402
   27CHL1    H6 3114   4.649   2.389   5.537 -1.6607 -0.9111  1.1902
   27CHL1    C7 3115   4.635   2.325   5.321  0.5253 -0.2062 -0.0533
   27CHL1   H7A 3116   4.583   2.420   5.294 -0.0441 -0.7795 -1.0387
   27CHL1   H7B 3117   4.744   2.325   5.302  0.5678 -3.2120 -0.3447
   27CHL1    C8 3118   4.560   2.223   5.227  0.0126  0.6754 -0.1240
   27CHL1    H8 3119   4.449   2.235   5.223 -0.4710 -2.8428 -3.5192
   27CHL1   C14 3120   4.625   2.228   5.092  0.6454  0.2988  0.7390
   27CHL1   H14 3121   4.735   2.215   5.103  1.1850  0.2520 -3.2570
   27CHL1   C15 3122   4.602   2.359   5.013  0.0288  0.6477  0.6918
   27CHL1  H15A 3123   4.499   2.402   5.013 -0.1048  0.5112 -2.4965
   27CHL1  H15B 3124   4.661   2.447   5.045 -2.0888  2.5540 -0.3439
   27CHL1   C16 3125   4.625   2.314   4.862  0.3158 -0.2114  0.5032
   27CHL1  H16A 3126   4.537   2.336   4.798  0.9307 -0.8716 -0.5979
   27CHL1  H16B 3127   4.715   2.360   4.818  1.1084  1.2883  3.4134
   27CHL1   C17 3128   4.649   2.163   4.868 -0.6198 -0.2103  0.2002
   27CHL1   H17 3129   4.759   2.159   4.887 -0.7359 -0.4563  0.8559
   27CHL1   C13 3130   4.581   2.116   5.000  0.3733 -0.5509  0.5871
   27CHL1   C18 3131   4.427   2.117   4.986 -0.0596 -0.3216 -0.0490
   27CHL1  H18A 3132   4.404   2.018   4.941  1.0611 -0.6615  0.0915
   27CHL1  H18B 3133   4.376   2.126   5.084 -2.7771  1.2449 -1.4820
   27CHL1  H18C 3134   4.396   2.203   4.924 -0.1505 -0.0289  0.3992
   27CHL1   C12 3135   4.622   1.986   5.054  0.8200 -0.8752 -0.9807
   27CHL1  H12A 3136   4.598   1.903   4.984  0.7185 -2.6878  1.1145
   27CHL1  H12B 3137   4.733   1.996   5.063  0.4632  4.4195  1.0491
   27CHL1   C11 3138   4.562   1.963   5.194  0.1690 -0.1524 -0.1826
   27CHL1  H11A 3139   4.452   1.949   5.189  0.0995  0.4737 -0.4649
   27CHL1  H11B 3140   4.604   1.868   5.232 -0.6928 -0.2363  0.5841
   27CHL1    C9 3141   4.593   2.085   5.292 -0.3818 -0.5181 -0.7238
   27CHL1    H9 3142   4.704   2.083   5.288 -0.2734  0.8324  0.5550
   27CHL1   C10 3143   4.556   2.067   5.441 -0.6977 -0.7889 -0.0119
   27CHL1   C19 3144   4.411   2.029   5.438 -0.1654  0.3569 -0.5680
   27CHL1  H19A 3145   4.366   2.022   5.539 -0.0502  0.8853 -0.4778
   27CHL1  H19B 3146   4.361   2.106   5.374  0.4532  0.9408 -0.3534
   27CHL1  H19C 3147   4.409   1.926   5.395  1.2425  0.7388 -1.6197
   27CHL1    C1 3148   4.647   1.953   5.483 -1.6459 -0.6373 -0.5143
   27CHL1   H1A 3149   4.599   1.861   5.442  2.2454 -2.0772 -2.2583
   27CHL1   H1B 3150   4.753   1.958   5.451 -1.2452 -0.2175  0.8062
   27CHL1    C2 3151   4.649   1.936   5.636 -0.0469 -0.2839  0.0705
   27CHL1   H2A 3152   4.714   1.853   5.671 -1.4494 -2.1192 -1.4361
   27CHL1   H2B 3153   4.543   1.921   5.667  0.3966 -0.8210  1.3994
   27CHL1   C20 3154   4.639   2.082   4.740 -0.0401  0.0800 -0.1533
   27CHL1   H20 3155   4.681   1.981   4.758  0.2143  0.3930  1.1035
   27CHL1   C21 3156   4.745   2.135   4.643 -0.1163 -0.0690  0.0474
   27CHL1  H21A 3157   4.709   2.230   4.599  2.1040  0.4522 -0.7744
   27CHL1  H21B 3158   4.760   2.065   4.559  2.0800  1.2211 -0.7165
   27CHL1  H21C 3159   4.842   2.152   4.696  0.2010 -2.4705  0.3698
   27CHL1   C22 3160   4.500   2.090   4.664  1.1162  0.9654 -0.3398
   27CHL1  H22A 3161   4.431   2.010   4.702  0.9214  2.1359  1.9657
   27CHL1  H22B 3162   4.452   2.187   4.690  1.4087  0.8902  0.5106
   27CHL1   C23 3163   4.507   2.056   4.518  0.7361  0.3484 -0.2812
   27CHL1  H23A 3164   4.559   2.132   4.456 -1.0624  0.6232 -1.5328
   27CHL1  H23B 3165   4.571   1.965   4.513 -2.9400 -2.4173 -0.6559
   27CHL1   C24 3166   4.367   2.019   4.452  0.2136 -0.0218  0.0257
   27CHL1  H24A 3167   4.323   1.925   4.492  0.2601  0.3275  0.9143
   27CHL1  H24B 3168   4.292   2.094   4.485  0.9618  0.5048  0.5645
   27CHL1   C25 3169   4.356   2.016   4.296  0.1370  0.6264  0.4506
   27CHL1   H25 3170   4.376   2.113   4.245 -0.6656 -0.7460 -2.6832
   27CHL1   C26 3171   4.454   1.912   4.244  0.3548 -0.0863 -0.4641
   27CHL1  H26A 3172   4.405   1.813   4.238 -0.6692  0.3903 -0.1279
   27CHL1  H26B 3173   4.481   1.937   4.139  0.3105 -0.9282 -0.6812
   27CHL1  H26C 3174   4.550   1.908   4.301  0.4489  2.6315 -0.2736
   27CHL1   C27 3175   4.213   1.978   4.259 -0.5487  0.1198  0.1060
   27CHL1  H27A 3176   4.196   1.997   4.150 -1.1207  1.3391  0.3979
   27CHL1  H27B 3177   4.148   2.044   4.319  0.7573 -0.1966  1.9282
   27CHL1  H27C 3178   4.195   1.870   4.278 -0.4550  0.0077 -0.4285
   28CHL1    C3 3179   3.426   1.340   5.981  0.5174 -0.1506  0.1785
   28CHL1    H3 3180   3.419   1.450   5.966  0.2993 -0.0681  0.8559
   28CHL1    O3 3181   3.456   1.323   6.116  0.0933 -0.7894 -0.5129
   28CHL1   H3' 3182   3.534   1.268   6.110  1.4198  0.7781  1.0220
   28CHL1    C4 3183   3.284   1.287   5.955 -0.2111 -0.1706 -0.8072
   28CHL1   H4A 3184   3.298   1.182   5.990  3.9562  0.4826  0.0993
   28CHL1   H4B 3185   3.222   1.348   6.024  0.1018 -0.6090 -0.1272
   28CHL1    C5 3186   3.249   1.295   5.811 -1.1309  0.5072  0.2429
   28CHL1    C6 3187   3.131   1.345   5.771  0.0267  0.7137 -0.5771
   28CHL1    H6 3188   3.064   1.373   5.855  1.1610 -1.1318  1.0219
   28CHL1    C7 3189   3.079   1.331   5.634 -0.1717 -0.6748  0.5516
   28CHL1   H7A 3190   2.981   1.279   5.641  0.0104 -1.2531 -0.9589
   28CHL1   H7B 3191   3.077   1.433   5.590 -1.5506 -0.4535  1.0533
   28CHL1    C8 3192   3.179   1.254   5.535 -0.2792  0.0531 -0.1392
   28CHL1    H8 3193   3.159   1.147   5.557 -0.9302  0.4344  1.2290
   28CHL1   C14 3194   3.147   1.287   5.389 -0.4873  0.4340  0.7344
   28CHL1   H14 3195   3.163   1.395   5.370 -0.1022  0.0177 -1.6959
   28CHL1   C15 3196   2.994   1.261   5.349 -0.1358 -0.2702  0.0623
   28CHL1  H15A 3197   2.948   1.169   5.388 -1.2909  0.1771 -0.2037
   28CHL1  H15B 3198   2.936   1.350   5.382  1.3182  0.9583 -0.5521
   28CHL1   C16 3199   3.005   1.248   5.198  0.3424 -0.1019 -0.0158
   28CHL1  H16A 3200   2.957   1.153   5.168  1.8358 -0.7863 -0.3113
   28CHL1  H16B 3201   2.952   1.340   5.164  1.1120  1.9106  3.6470
   28CHL1   C17 3202   3.155   1.244   5.153  0.2954  0.3712  0.3864
   28CHL1   H17 3203   3.191   1.345   5.125  1.9698 -0.6072 -1.2429
   28CHL1   C13 3204   3.229   1.205   5.288  0.8930 -0.5658  0.1370
   28CHL1   C18 3205   3.208   1.055   5.307 -0.1883  0.2846 -0.8551
   28CHL1  H18A 3206   3.259   1.012   5.396 -0.5316 -0.4764 -1.0131
   28CHL1  H18B 3207   3.099   1.031   5.305 -0.1810  0.2936 -2.5849
   28CHL1  H18C 3208   3.255   1.012   5.216 -0.5134  2.2686 -2.0093
   28CHL1   C12 3209   3.371   1.249   5.311 -0.1746 -0.6390 -0.0171
   28CHL1  H12A 3210   3.441   1.200   5.240  0.4877 -0.5762  0.5828
   28CHL1  H12B 3211   3.387   1.355   5.282  1.8903 -0.9894 -0.3546
   28CHL1   C11 3212   3.418   1.215   5.453 -0.2529 -0.5608  0.1277
   28CHL1  H11A 3213   3.431   1.105   5.459  1.5628 -0.4011 -0.4851
   28CHL1  H11B 3214   3.521   1.255   5.457  0.1066 -0.9176 -3.0335
   28CHL1    C9 3215   3.327   1.278   5.564  0.1152 -0.0974 -0.0572
   28CHL1    H9 3216   3.348   1.385   5.544 -1.1621  0.0151 -0.8402
   28CHL1   C10 3217   3.364   1.236   5.714  0.6951 -0.3800  0.3414
   28CHL1   C19 3218   3.360   1.084   5.733 -0.7916  0.7970  0.1611
   28CHL1  H19A 3219   3.264   1.044   5.693  0.6822 -2.3525 -0.5242
   28CHL1  H19B 3220   3.440   1.040   5.670 -0.1864  1.9001  0.1328
   28CHL1  H19C 3221   3.369   1.054   5.839  0.1696 -1.0845 -0.4155
   28CHL1    C1 3222   3.507   1.296   5.745  0.0833  0.7862  1.0916
   28CHL1   H1A 3223   3.578   1.233   5.688 -0.7486  2.0652 -1.5268
   28CHL1   H1B 3224   3.510   1.400   5.707  0.7791 -0.4351 -2.6878
   28CHL1    C2 3225   3.540   1.286   5.893 -0.2277  0.0224  0.0745
   28CHL1   H2A 3226   3.629   1.352   5.901 -1.8812  2.6754 -1.7664
   28CHL1   H2B 3227   3.566   1.185   5.931 -0.8276 -0.5719 -1.0397
   28CHL1   C20 3228   3.183   1.157   5.021  0.0880  0.1825  0.3675
   28CHL1   H20 3229   3.159   1.053   5.052  0.6218 -0.4680 -1.2968
   28CHL1   C21 3230   3.331   1.156   4.982  0.1051  0.2201  0.1692
   28CHL1  H21A 3231   3.393   1.132   5.072  0.7589  0.8851 -0.0977
   28CHL1  H21B 3232   3.359   1.251   4.932  0.1653 -0.4897 -1.1834
   28CHL1  H21C 3233   3.364   1.083   4.905 -1.3233  1.8934 -2.1410
   28CHL1   C22 3234   3.091   1.200   4.907  0.0637 -0.8906  0.2258
   28CHL1  H22A 3235   2.988   1.205   4.949  0.0013 -1.0135  0.0884
   28CHL1  H22B 3236   3.127   1.298   4.869  0.8295 -1.6320 -1.0408
   28CHL1   C23 3237   3.092   1.117   4.779  0.1910 -0.4335 -0.1061
   28CHL1  H23A 3238   3.195   1.124   4.737  0.1588 -2.0772 -0.5240
   28CHL1  H23B 3239   3.065   1.012   4.806 -0.1278  0.2783  2.6813
   28CHL1   C24 3240   2.989   1.168   4.682  0.5198  0.3857 -0.2130
   28CHL1  H24A 3241   2.892   1.124   4.716  0.7691 -0.6651 -0.8248
   28CHL1  H24B 3242   2.971   1.277   4.690 -0.4059  0.1429  1.8748
   28CHL1   C25 3243   2.994   1.115   4.535  0.4240  1.7316  0.2837
   28CHL1   H25 3244   2.996   1.004   4.545  3.3344  1.5480 -1.1618
   28CHL1   C26 3245   2.859   1.155   4.470  0.3025 -0.2731 -0.0773
   28CHL1  H26A 3246   2.824   1.261   4.466  0.9565 -0.0724 -0.7688
   28CHL1  H26B 3247   2.863   1.123   4.364  0.1000 -1.0157  0.1327
   28CHL1  H26C 3248   2.778   1.091   4.511  0.7974 -2.3267 -2.1454
   28CHL1   C27 3249   3.112   1.165   4.458 -0.6394 -0.3840  0.4943
   28CHL1  H27A 3250   3.094   1.151   4.349 -0.5972 -0.1203  0.4524
   28CHL1  H27B 3251   3.125   1.275   4.456 -2.3392 -0.1677  0.1023
   28CHL1  H27C 3252   3.203   1.111   4.491  0.1978  1.3509  1.1389
   29CHL1    C3 3253   3.423   2.887   5.530  0.0051 -0.3914 -0.0748
   29CHL1    H3 3254   3.465   2.785   5.523 -0.6487 -0.8204  1.8234
   29CHL1    O3 3255   3.411   2.938   5.664  0.4128  0.2710 -0.0228
   29CHL1   H3' 3256   3.321   2.918   5.692  0.4044 -3.8689 -2.1324
   29CHL1    C4 3257   3.507   2.990   5.445 -0.1473 -0.0797 -0.1684
   29CHL1   H4A 3258   3.461   3.089   5.470 -1.7544 -0.7824 -0.1807
   29CHL1   H4B 3259   3.609   2.990   5.490 -0.3674 -1.2028  0.3598
   29CHL1    C5 3260   3.499   2.973   5.301 -0.0298 -0.1871  0.5765
   29CHL1    C6 3261   3.611   2.961   5.225  0.3834 -0.0828  0.5822
   29CHL1    H6 3262   3.706   2.977   5.278  2.6412 -0.7308 -2.9214
   29CHL1    C7 3263   3.602   2.945   5.076 -0.0472  0.7178  0.2279
   29CHL1   H7A 3264   3.669   3.021   5.032 -2.9740  1.9946 -2.3623
   29CHL1   H7B 3265   3.649   2.848   5.049  0.2773  0.8923  0.1542
   29CHL1    C8 3266   3.464   2.960   5.011 -0.1949 -0.5593  1.2501
   29CHL1    H8 3267   3.455   3.069   4.989 -2.0779 -1.2101 -1.8824
   29CHL1   C14 3268   3.463   2.878   4.885  0.8785 -0.0748  0.2826
   29CHL1   H14 3269   3.472   2.770   4.908 -4.0683 -0.5673  0.9474
   29CHL1   C15 3270   3.576   2.894   4.784 -0.2555 -0.2611 -0.2936
   29CHL1  H15A 3271   3.621   2.996   4.781 -0.8475 -0.0237 -2.7222
   29CHL1  H15B 3272   3.660   2.826   4.808  0.0719  0.4690  0.7330
   29CHL1   C16 3273   3.513   2.848   4.644 -0.1185 -0.2126 -0.2067
   29CHL1  H16A 3274   3.516   2.942   4.585 -1.4837 -0.1403 -0.2064
   29CHL1  H16B 3275   3.582   2.781   4.590 -1.9848 -0.6165 -2.2229
   29CHL1   C17 3276   3.372   2.810   4.678  0.7855  1.2850  0.0357
   29CHL1   H17 3277   3.374   2.703   4.708 -2.0934  0.7023 -1.4450
   29CHL1   C13 3278   3.334   2.892   4.801  0.5962 -0.4240 -0.0329
   29CHL1   C18 3279   3.303   3.037   4.750  0.3560  0.4539  0.4877
   29CHL1  H18A 3280   3.205   3.031   4.698  0.9138 -0.6800 -0.4592
   29CHL1  H18B 3281   3.299   3.122   4.821  1.4929 -0.6547  1.9515
   29CHL1  H18C 3282   3.379   3.066   4.675  1.2382 -0.7453  0.8957
   29CHL1   C12 3283   3.211   2.844   4.895 -0.1541  0.8691  0.6153
   29CHL1  H12A 3284   3.114   2.859   4.842 -0.7882 -0.7033  1.2949
   29CHL1  H12B 3285   3.229   2.737   4.917 -0.3136  0.6453 -0.2626
   29CHL1   C11 3286   3.211   2.919   5.025 -0.3796 -0.1104  0.7209
   29CHL1  H11A 3287   3.194   3.028   5.009  0.6340 -0.0042  0.3334
   29CHL1  H11B 3288   3.134   2.880   5.095  1.0930 -0.9644  1.9290
   29CHL1    C9 3289   3.352   2.905   5.102 -0.1075 -0.3203 -0.4597
   29CHL1    H9 3290   3.388   2.801   5.116 -0.6175 -0.4564 -0.1526
   29CHL1   C10 3291   3.357   2.962   5.242  0.2421 -0.3186 -0.0128
   29CHL1   C19 3292   3.293   3.098   5.233  0.0512 -0.3367  0.1036
   29CHL1  H19A 3293   3.345   3.163   5.161 -1.2737  1.7251  0.9157
   29CHL1  H19B 3294   3.185   3.087   5.209 -0.8072 -0.4591  3.4175
   29CHL1  H19C 3295   3.289   3.150   5.331  0.7623  2.3217 -1.2127
   29CHL1    C1 3296   3.273   2.863   5.330 -0.7593 -0.7147  0.1527
   29CHL1   H1A 3297   3.164   2.864   5.311 -0.6087 -2.5290 -1.1040
   29CHL1   H1B 3298   3.302   2.757   5.309 -1.0548 -0.1922 -3.6135
   29CHL1    C2 3299   3.282   2.894   5.482  0.1966 -0.4384 -0.6944
   29CHL1   H2A 3300   3.219   2.818   5.532 -2.2591  1.6794 -0.4104
   29CHL1   H2B 3301   3.235   2.993   5.496 -1.3120 -1.3398  0.9502
   29CHL1   C20 3302   3.275   2.814   4.557 -0.0937  0.0528  0.1625
   29CHL1   H20 3303   3.214   2.907   4.554 -1.5173 -0.7240  2.2074
   29CHL1   C21 3304   3.180   2.700   4.580  0.0530  0.1194 -0.3084
   29CHL1  H21A 3305   3.229   2.600   4.586 -0.8308 -0.2467  1.7232
   29CHL1  H21B 3306   3.103   2.687   4.500  0.7421 -0.8643 -0.8467
   29CHL1  H21C 3307   3.123   2.727   4.671  0.1457 -0.8417  0.0462
   29CHL1   C22 3308   3.344   2.793   4.416  0.5949  1.0893 -0.0260
   29CHL1  H22A 3309   3.424   2.869   4.407  2.3822 -0.7477 -0.4028
   29CHL1  H22B 3310   3.386   2.691   4.403  0.0710  1.0367 -1.6024
   29CHL1   C23 3311   3.253   2.805   4.287 -0.1204 -0.0030 -0.0722
   29CHL1  H23A 3312   3.169   2.736   4.307  0.5424 -1.0400 -0.7395
   29CHL1  H23B 3313   3.200   2.902   4.284  1.3844  0.9469  1.6376
   29CHL1   C24 3314   3.323   2.772   4.160 -0.3189 -0.5738  0.2546
   29CHL1  H24A 3315   3.389   2.855   4.125  2.9059 -2.3139  1.7981
   29CHL1  H24B 3316   3.408   2.701   4.172  1.1755  0.9692 -0.7458
   29CHL1   C25 3317   3.231   2.731   4.047  1.2047 -0.1969 -0.0263
   29CHL1   H25 3318   3.178   2.649   4.101 -1.8738  0.6125 -1.5505
   29CHL1   C26 3319   3.116   2.828   4.009 -0.0191 -0.2038 -0.3749
   29CHL1  H26A 3320   3.034   2.768   3.965 -0.2935 -0.6086  0.6604
   29CHL1  H26B 3321   3.081   2.889   4.095  0.8631  0.5148 -0.5056
   29CHL1  H26C 3322   3.139   2.905   3.932 -0.1793 -2.4668 -2.8113
   29CHL1   C27 3323   3.293   2.667   3.926  0.1927  0.3237 -0.6547
   29CHL1  H27A 3324   3.347   2.737   3.859 -1.2144  0.2328 -1.9530
   29CHL1  H27B 3325   3.357   2.582   3.958  0.3948 -0.3517 -2.7020
   29CHL1  H27C 3326   3.215   2.623   3.860 -1.5366 -1.8787  2.5343
   30CHL1    C3 3327   3.727   4.582   5.740 -0.8780  0.7068 -0.8753
   30CHL1    H3 3328   3.713   4.688   5.711 -0.5855  1.1043  0.3889
   30CHL1    O3 3329   3.710   4.572   5.878 -1.1719  0.0712 -0.2242
   30CHL1   H3' 3330   3.743   4.485   5.901  2.5373  1.0846 -1.0585
   30CHL1    C4 3331   3.631   4.486   5.666 -0.4771  0.0016 -0.2984
   30CHL1   H4A 3332   3.660   4.384   5.700 -0.2998  0.9891  2.8743
   30CHL1   H4B 3333   3.526   4.491   5.702 -0.5606  0.4450 -0.5934
   30CHL1    C5 3334   3.647   4.496   5.514 -0.1324 -0.0702 -0.6897
   30CHL1    C6 3335   3.553   4.544   5.435 -0.1871  0.1453  0.3746
   30CHL1    H6 3336   3.454   4.577   5.472 -0.7925  1.0309 -1.8667
   30CHL1    C7 3337   3.570   4.550   5.284  0.0399  0.9759 -0.2789
   30CHL1   H7A 3338   3.481   4.512   5.230  0.0281  3.0949 -1.8998
   30CHL1   H7B 3339   3.585   4.654   5.248  2.5996  0.3218 -1.3208
   30CHL1    C8 3340   3.696   4.478   5.228  0.6895  0.2533 -0.1880
   30CHL1    H8 3341   3.675   4.369   5.231  0.4191  0.2958 -0.4621
   30CHL1   C14 3342   3.729   4.524   5.089  0.2474  0.7404  0.5840
   30CHL1   H14 3343   3.742   4.634   5.089 -0.2075  0.8239 -1.5650
   30CHL1   C15 3344   3.621   4.513   4.981 -0.0015  0.4032 -0.0743
   30CHL1  H15A 3345   3.570   4.420   5.016  3.4269 -0.9123  1.8851
   30CHL1  H15B 3346   3.553   4.601   4.980  0.0103  0.4218 -1.1348
   30CHL1   C16 3347   3.687   4.492   4.845 -0.2696 -0.6239  0.1902
   30CHL1  H16A 3348   3.658   4.400   4.791 -1.8792 -0.7933  1.2748
   30CHL1  H16B 3349   3.658   4.577   4.780 -0.6422  0.3651  1.5832
   30CHL1   C17 3350   3.840   4.500   4.878 -0.8203  0.1060 -0.2282
   30CHL1   H17 3351   3.870   4.607   4.885 -0.0687 -0.1971  1.8099
   30CHL1   C13 3352   3.851   4.458   5.029  0.0084 -0.3067  0.2305
   30CHL1   C18 3353   3.826   4.305   5.041 -0.2908 -0.6107 -0.6646
   30CHL1  H18A 3354   3.824   4.263   5.144  0.6702 -0.4589 -0.5720
   30CHL1  H18B 3355   3.734   4.270   4.991 -0.5697 -0.3045 -0.3721
   30CHL1  H18C 3356   3.917   4.259   4.996  1.1941  0.7338  0.8288
   30CHL1   C12 3357   3.970   4.496   5.111  0.4021 -0.4573 -0.0777
   30CHL1  H12A 3358   4.069   4.457   5.079  1.0955 -0.1333  1.6055
   30CHL1  H12B 3359   3.983   4.606   5.104 -1.7260  0.0391  2.3910
   30CHL1   C11 3360   3.947   4.459   5.256  0.0336 -0.4696  0.2898
   30CHL1  H11A 3361   3.957   4.349   5.272  1.2973 -0.0505  3.0740
   30CHL1  H11B 3362   4.026   4.505   5.320 -1.5662  0.4023  1.7364
   30CHL1    C9 3363   3.814   4.508   5.318 -1.0189 -0.2014 -0.0526
   30CHL1    H9 3364   3.818   4.619   5.311 -0.9849 -0.2862 -1.8794
   30CHL1   C10 3365   3.788   4.466   5.468 -0.5841  0.0837  0.2122
   30CHL1   C19 3366   3.816   4.316   5.480 -0.0726  0.1112 -0.2820
   30CHL1  H19A 3367   3.921   4.283   5.467 -0.0822  0.3556 -0.9977
   30CHL1  H19B 3368   3.775   4.262   5.568 -0.4321 -0.4006 -0.7556
   30CHL1  H19C 3369   3.768   4.258   5.399 -0.6249  1.9323 -1.3102
   30CHL1    C1 3370   3.889   4.550   5.555 -0.5403  0.6619 -0.4594
   30CHL1   H1A 3371   3.985   4.498   5.539 -1.1403 -0.8473  0.6169
   30CHL1   H1B 3372   3.891   4.656   5.522 -3.1218  0.4197 -1.7280
   30CHL1    C2 3373   3.869   4.537   5.708 -0.5197  0.1224 -0.1523
   30CHL1   H2A 3374   3.947   4.611   5.737 -1.4247  2.0339 -2.2634
   30CHL1   H2B 3375   3.883   4.435   5.747 -0.0367  0.3397  0.2500
   30CHL1   C20 3376   3.935   4.425   4.775  0.0266  0.4004 -0.0131
   30CHL1   H20 3377   3.928   4.316   4.797  0.5402  0.0818 -1.3619
   30CHL1   C21 3378   4.080   4.466   4.801 -0.2931  0.1017  0.5730
   30CHL1  H21A 3379   4.088   4.545   4.879  2.8468  0.3047  0.1600
   30CHL1  H21B 3380   4.124   4.508   4.708  0.8007  2.3375  1.9995
   30CHL1  H21C 3381   4.143   4.378   4.826 -1.4155 -0.7612  0.4527
   30CHL1   C22 3382   3.886   4.448   4.632 -0.8932 -0.5132  0.0493
   30CHL1  H22A 3383   3.963   4.403   4.566 -2.0724 -1.2965 -0.8282
   30CHL1  H22B 3384   3.794   4.391   4.607  0.1126 -1.3151 -2.1404
   30CHL1   C23 3385   3.884   4.596   4.574 -0.1358 -0.1175  0.7242
   30CHL1  H23A 3386   3.792   4.654   4.598 -0.6164 -0.0461 -1.1098
   30CHL1  H23B 3387   3.976   4.648   4.607  0.1156 -1.1451  1.6914
   30CHL1   C24 3388   3.906   4.601   4.416  0.4427  0.1089  0.1743
   30CHL1  H24A 3389   3.935   4.704   4.385 -0.0807  1.2785  3.1934
   30CHL1  H24B 3390   3.998   4.545   4.387  2.0136  2.7338 -0.2748
   30CHL1   C25 3391   3.791   4.539   4.331 -0.2424  0.3458  0.3283
   30CHL1   H25 3392   3.793   4.431   4.358  1.6473  0.8634  2.6183
   30CHL1   C26 3393   3.654   4.609   4.347 -0.1264  0.4649 -0.5366
   30CHL1  H26A 3394   3.620   4.586   4.450 -0.7332  0.4162 -0.7442
   30CHL1  H26B 3395   3.674   4.718   4.348 -0.3227  0.5011 -0.3968
   30CHL1  H26C 3396   3.586   4.583   4.263 -0.7234 -0.2389  0.1424
   30CHL1   C27 3397   3.834   4.530   4.183 -0.0379  0.1106 -0.1732
   30CHL1  H27A 3398   3.926   4.467   4.179  0.7152  1.1171  0.6277
   30CHL1  H27B 3399   3.756   4.480   4.123 -0.0596 -0.5364  0.3889
   30CHL1  H27C 3400   3.860   4.627   4.133 -1.8639  0.1552 -1.1071
   31CHL1    C3 3401   3.914   3.350   5.649 -0.4380  0.3984 -0.2973
   31CHL1    H3 3402   4.017   3.374   5.617 -0.3036  0.8236  0.4278
   31CHL1    O3 3403   3.910   3.324   5.789 -0.5886  0.1229  0.1292
   31CHL1   H3' 3404   3.821   3.326   5.824 -0.4069 -0.2858  0.6111
   31CHL1    C4 3405   3.830   3.471   5.613  0.9485 -0.0572 -0.0430
   31CHL1   H4A 3406   3.728   3.449   5.652  0.5628  0.2430 -0.8602
   31CHL1   H4B 3407   3.870   3.557   5.671  0.7364  0.4700 -0.6609
   31CHL1    C5 3408   3.812   3.494   5.469  0.5294 -0.0042 -0.0224
   31CHL1    C6 3409   3.847   3.610   5.417  0.2593 -0.3699 -0.2841
   31CHL1    H6 3410   3.884   3.693   5.479 -5.3570  1.9169  0.5465
   31CHL1    C7 3411   3.840   3.637   5.269 -0.5363 -0.6310 -1.0534
   31CHL1   H7A 3412   3.797   3.739   5.255  0.5193 -0.1820 -1.1769
   31CHL1   H7B 3413   3.945   3.640   5.231  0.1385 -1.7699  0.6207
   31CHL1    C8 3414   3.756   3.546   5.181  0.1764  0.0946  0.2556
   31CHL1    H8 3415   3.647   3.564   5.195  0.2020  0.0632  0.5002
   31CHL1   C14 3416   3.793   3.558   5.036  0.0701  0.1840  0.1672
   31CHL1   H14 3417   3.899   3.535   5.015 -0.1671 -2.2481  1.2558
   31CHL1   C15 3418   3.765   3.688   4.955 -0.2035 -0.0820 -0.4429
   31CHL1  H15A 3419   3.671   3.728   4.999  0.4414  1.2302 -0.2085
   31CHL1  H15B 3420   3.856   3.749   4.974  0.3317 -0.6157 -1.2709
   31CHL1   C16 3421   3.767   3.649   4.809  0.1786 -0.0440  0.4887
   31CHL1  H16A 3422   3.680   3.676   4.746  2.2050  1.4199 -1.8100
   31CHL1  H16B 3423   3.858   3.695   4.765  0.2572  0.9325  1.6305
   31CHL1   C17 3424   3.772   3.497   4.797 -0.8174  0.1903 -1.2577
   31CHL1   H17 3425   3.880   3.473   4.803 -0.8007  0.5592  2.8497
   31CHL1   C13 3426   3.729   3.451   4.946 -0.4138  0.0227  0.3054
   31CHL1   C18 3427   3.572   3.447   4.960 -0.2907  0.3123  0.0314
   31CHL1  H18A 3428   3.526   3.401   5.049 -2.1337  1.6389 -0.1847
   31CHL1  H18B 3429   3.525   3.547   4.964 -2.7201 -0.8082  1.3453
   31CHL1  H18C 3430   3.522   3.386   4.881  0.2145  1.3327 -1.1219
   31CHL1   C12 3431   3.786   3.315   4.988  0.2348 -0.3498  0.8177
   31CHL1  H12A 3432   3.738   3.236   4.927  1.2745 -1.3289  1.2374
   31CHL1  H12B 3433   3.894   3.296   4.976 -0.0129 -1.3140  0.0074
   31CHL1   C11 3434   3.757   3.285   5.135  0.4338  0.1565  0.0221
   31CHL1  H11A 3435   3.648   3.271   5.152  0.1153  2.2929  0.0499
   31CHL1  H11B 3436   3.811   3.191   5.161 -0.2733  0.0965  1.3966
   31CHL1    C9 3437   3.803   3.403   5.233  0.5957 -0.0435  0.8824
   31CHL1    H9 3438   3.912   3.390   5.215  0.2614  0.3364 -1.7370
   31CHL1   C10 3439   3.772   3.376   5.385  0.2777 -0.0551 -0.4051
   31CHL1   C19 3440   3.619   3.352   5.403 -0.4690  0.5664  0.4378
   31CHL1  H19A 3441   3.585   3.364   5.508 -0.0317  3.6096  0.3301
   31CHL1  H19B 3442   3.554   3.424   5.347 -2.0607 -1.6900 -0.7716
   31CHL1  H19C 3443   3.590   3.262   5.345  1.2083  1.0041 -1.1923
   31CHL1    C1 3444   3.843   3.243   5.428 -0.4661  0.2271  0.4435
   31CHL1   H1A 3445   3.788   3.155   5.388  0.9015 -0.7852  0.7330
   31CHL1   H1B 3446   3.943   3.262   5.382  0.6889  1.0971  3.1439
   31CHL1    C2 3447   3.868   3.226   5.577  0.6145 -0.1993  0.1047
   31CHL1   H2A 3448   3.931   3.137   5.597  0.7711  0.2979  1.9767
   31CHL1   H2B 3449   3.769   3.201   5.622 -0.6061  2.3718 -0.9503
   31CHL1   C20 3450   3.710   3.439   4.667 -0.2109  0.3990 -0.2709
   31CHL1   H20 3451   3.608   3.481   4.651 -0.1625  0.9489  0.7385
   31CHL1   C21 3452   3.712   3.281   4.677  0.4017  0.0907  0.6426
   31CHL1  H21A 3453   3.632   3.248   4.747  0.5029  0.7322  1.0694
   31CHL1  H21B 3454   3.818   3.258   4.699  0.5111  1.4470  1.6652
   31CHL1  H21C 3455   3.683   3.237   4.579 -0.8606  0.5677  0.7809
   31CHL1   C22 3456   3.790   3.480   4.545  0.3005 -0.0408 -0.0400
   31CHL1  H22A 3457   3.835   3.578   4.571  2.5739 -0.8106 -0.8857
   31CHL1  H22B 3458   3.874   3.410   4.528  1.9620  2.0596 -0.8661
   31CHL1   C23 3459   3.702   3.483   4.411  0.7102  0.2309  0.5491
   31CHL1  H23A 3460   3.670   3.377   4.398  0.1495  0.4625 -0.0174
   31CHL1  H23B 3461   3.612   3.545   4.432  0.8578  0.4473  0.5384
   31CHL1   C24 3462   3.773   3.523   4.287 -0.0568  0.2673 -0.3010
   31CHL1  H24A 3463   3.786   3.633   4.278  2.1667  0.3774  2.5799
   31CHL1  H24B 3464   3.875   3.482   4.298 -0.9216 -1.9302 -0.0664
   31CHL1   C25 3465   3.709   3.481   4.157  0.2136  0.5450  0.1753
   31CHL1   H25 3466   3.694   3.371   4.167  0.1406  0.7436  2.7548
   31CHL1   C26 3467   3.571   3.544   4.133  0.2569 -0.1295 -0.2618
   31CHL1  H26A 3468   3.487   3.489   4.181 -0.4314 -0.8861 -2.2285
   31CHL1  H26B 3469   3.574   3.645   4.180  2.1847 -0.4526  0.3593
   31CHL1  H26C 3470   3.556   3.537   4.023 -1.6499 -2.0564  0.0548
   31CHL1   C27 3471   3.801   3.529   4.034 -0.0589  0.0723  0.1522
   31CHL1  H27A 3472   3.893   3.467   4.039 -0.4520 -0.4492  1.6964
   31CHL1  H27B 3473   3.762   3.521   3.931 -1.3020 -1.2780  0.6853
   31CHL1  H27C 3474   3.830   3.635   4.050  1.5767 -0.4421  0.7840
   32CHL1    C3 3475   5.625   0.753   5.668  0.0886  0.3093  0.2714
   32CHL1    H3 3476   5.729   0.778   5.640 -0.2647 -0.6349 -2.1349
   32CHL1    O3 3477   5.608   0.804   5.798  0.6294  0.2697  0.3159
   32CHL1   H3' 3478   5.516   0.793   5.823  0.3859  2.3312  0.4901
   32CHL1    C4 3479   5.530   0.814   5.562 -0.1043 -0.5512  0.2835
   32CHL1   H4A 3480   5.429   0.783   5.598 -0.0236 -0.5893  0.4806
   32CHL1   H4B 3481   5.538   0.924   5.571  1.7656 -0.3267 -2.8580
   32CHL1    C5 3482   5.551   0.771   5.423  0.0742  0.0480 -0.3336
   32CHL1    C6 3483   5.584   0.852   5.326 -0.0502  0.0617  0.3376
   32CHL1    H6 3484   5.607   0.956   5.354  1.6414 -0.2387  0.1498
   32CHL1    C7 3485   5.613   0.804   5.191 -0.1818 -0.0595 -0.5805
   32CHL1   H7A 3486   5.569   0.878   5.120  2.5037  2.0596 -0.2417
   32CHL1   H7B 3487   5.722   0.801   5.171  0.5616  0.4263  2.8125
   32CHL1    C8 3488   5.558   0.670   5.158  0.0438  0.1845  0.1235
   32CHL1    H8 3489   5.447   0.672   5.148 -0.1186 -1.6364  1.0705
   32CHL1   C14 3490   5.616   0.622   5.026 -0.7703 -0.6976 -0.1640
   32CHL1   H14 3491   5.725   0.609   5.042 -0.1709  1.5736 -1.8293
   32CHL1   C15 3492   5.609   0.707   4.894 -0.2905  0.6443 -0.5646
   32CHL1  H15A 3493   5.505   0.743   4.878 -0.5706 -0.4933 -1.4183
   32CHL1  H15B 3494   5.686   0.788   4.898  0.6837 -0.2849  0.1027
   32CHL1   C16 3495   5.645   0.605   4.784 -0.1223  0.5050  0.4012
   32CHL1  H16A 3496   5.580   0.623   4.696 -1.0441 -1.1396  0.7045
   32CHL1  H16B 3497   5.751   0.623   4.755  0.0118  0.1008  0.6156
   32CHL1   C17 3498   5.640   0.458   4.846  0.4057  0.1145 -0.1348
   32CHL1   H17 3499   5.743   0.431   4.878  0.3830  0.3684  0.1615
   32CHL1   C13 3500   5.565   0.478   4.982 -0.4670 -0.2935  0.0658
   32CHL1   C18 3501   5.416   0.483   4.951  0.6252 -0.9665 -0.5543
   32CHL1  H18A 3502   5.378   0.383   4.921 -2.0549 -0.5767  1.2202
   32CHL1  H18B 3503   5.357   0.513   5.040 -1.0093 -0.8358 -1.6298
   32CHL1  H18C 3504   5.380   0.553   4.872 -1.4188 -2.1747 -0.7727
   32CHL1   C12 3505   5.609   0.380   5.094 -0.2347  0.1444  0.6051
   32CHL1  H12A 3506   5.584   0.275   5.070 -0.9702  0.1477  1.3341
   32CHL1  H12B 3507   5.719   0.377   5.112 -0.4829 -1.4540  2.1038
   32CHL1   C11 3508   5.544   0.425   5.233  0.2071 -0.1284  0.0237
   32CHL1  H11A 3509   5.433   0.428   5.224  0.1188 -1.7738  0.2551
   32CHL1  H11B 3510   5.563   0.345   5.308 -2.7039 -0.5032  0.4710
   32CHL1    C9 3511   5.590   0.566   5.278 -0.2309 -0.6351  1.2234
   32CHL1    H9 3512   5.702   0.564   5.277 -0.0337  2.6094 -1.5239
   32CHL1   C10 3513   5.545   0.617   5.416 -0.3051  0.2548 -0.8819
   32CHL1   C19 3514   5.395   0.573   5.437 -0.3866 -0.5539 -0.3202
   32CHL1  H19A 3515   5.339   0.591   5.343 -3.7443 -0.2289  1.5706
   32CHL1  H19B 3516   5.388   0.466   5.464 -0.3767 -0.6394 -0.6562
   32CHL1  H19C 3517   5.341   0.639   5.509 -0.3494  0.8940 -1.5692
   32CHL1    C1 3518   5.631   0.539   5.525  0.5836 -0.1490 -0.2185
   32CHL1   H1A 3519   5.590   0.436   5.532 -1.4301  0.6020 -0.2026
   32CHL1   H1B 3520   5.738   0.545   5.496  0.2987  0.7864 -1.1412
   32CHL1    C2 3521   5.605   0.603   5.672 -0.0365  0.5436  0.3126
   32CHL1   H2A 3522   5.684   0.552   5.731 -0.4674 -0.7607 -0.1951
   32CHL1   H2B 3523   5.509   0.563   5.711  0.8538 -3.1571 -0.8637
   32CHL1   C20 3524   5.592   0.342   4.750  0.5820 -0.8964  0.0486
   32CHL1   H20 3525   5.484   0.347   4.725  0.8510  1.0887 -0.9376
   32CHL1   C21 3526   5.623   0.207   4.811  0.1197  0.6899  0.4759
   32CHL1  H21A 3527   5.598   0.127   4.739 -0.9443  0.5822  0.9442
   32CHL1  H21B 3528   5.549   0.201   4.894 -1.1166  3.1862 -0.3342
   32CHL1  H21C 3529   5.723   0.194   4.857  1.4203  1.4238 -1.9451
   32CHL1   C22 3530   5.663   0.357   4.609 -0.1596  0.1738 -0.8633
   32CHL1  H22A 3531   5.629   0.456   4.573 -1.1294  0.7779  1.4791
   32CHL1  H22B 3532   5.772   0.362   4.630 -0.7465  2.3101  2.4931
   32CHL1   C23 3533   5.635   0.255   4.503  0.3109 -0.2846  0.9313
   32CHL1  H23A 3534   5.681   0.303   4.414  1.2625  1.0267  2.1067
   32CHL1  H23B 3535   5.692   0.163   4.526  1.5136  0.8344  2.5897
   32CHL1   C24 3536   5.483   0.226   4.485 -0.9089 -0.7978  0.8908
   32CHL1  H24A 3537   5.429   0.204   4.579  0.0766 -1.6050  1.2887
   32CHL1  H24B 3538   5.434   0.314   4.439  1.5722 -0.0704 -0.5408
   32CHL1   C25 3539   5.463   0.103   4.392 -0.2082  0.3869 -0.3161
   32CHL1   H25 3540   5.503   0.017   4.448  0.1589  2.3902  2.7190
   32CHL1   C26 3541   5.315   0.087   4.382  0.0811 -0.4941  0.1857
   32CHL1  H26A 3542   5.276   0.171   4.321 -0.3035 -0.9895 -0.2589
   32CHL1  H26B 3543   5.304  -0.013   4.335  1.6047  1.0118 -3.7739
   32CHL1  H26C 3544   5.268   0.087   4.483  0.4529  0.4030  0.3646
   32CHL1   C27 3545   5.523   0.120   4.255 -0.4628 -0.8558 -0.0510
   32CHL1  H27A 3546   5.512   0.222   4.213  0.6743 -0.9643 -0.6612
   32CHL1  H27B 3547   5.631   0.095   4.260 -0.3873 -1.3210 -2.6103
   32CHL1  H27C 3548   5.484   0.043   4.185 -2.1741  2.2455 -2.8231
   33CHL1    C3 3549   4.158   0.660   5.601 -0.5182  0.1143 -1.2638
   33CHL1    H3 3550   4.047   0.664   5.607 -0.5888 -1.3967 -1.1573
   33CHL1    O3 3551   4.199   0.672   5.733 -0.0985 -0.3687 -0.1676
   33CHL1   H3' 3552   4.295   0.680   5.732  0.0978 -2.2771 -0.2236
   33CHL1    C4 3553   4.210   0.529   5.550 -0.6370  0.3638 -0.4736
   33CHL1   H4A 3554   4.320   0.522   5.566 -0.7873  1.0512  0.9490
   33CHL1   H4B 3555   4.172   0.441   5.606  3.1015 -1.6529 -0.7512
   33CHL1    C5 3556   4.184   0.510   5.398 -0.2776 -0.7319  0.0146
   33CHL1    C6 3557   4.135   0.400   5.342 -0.5309 -0.2658  0.4758
   33CHL1    H6 3558   4.107   0.316   5.406  0.4878 -0.2310  0.9894
   33CHL1    C7 3559   4.116   0.379   5.192  0.5412  0.0851 -0.2506
   33CHL1   H7A 3560   4.173   0.289   5.163 -2.4360 -1.6168 -1.2522
   33CHL1   H7B 3561   4.007   0.361   5.186  0.4740  0.0693  0.8954
   33CHL1    C8 3562   4.158   0.494   5.101  0.2295 -1.0483 -1.0231
   33CHL1    H8 3563   4.266   0.474   5.085  0.8981 -0.6945  2.3655
   33CHL1   C14 3564   4.086   0.498   4.968 -0.9815  0.4477 -0.6675
   33CHL1   H14 3565   3.979   0.519   4.991 -0.4548 -0.7092  3.5791
   33CHL1   C15 3566   4.080   0.361   4.893  0.8294  0.1164  0.5684
   33CHL1  H15A 3567   4.181   0.315   4.886  0.5162 -0.3468 -1.4572
   33CHL1  H15B 3568   4.010   0.282   4.930  1.7123 -0.5344  0.9067
   33CHL1   C16 3569   4.042   0.414   4.750  0.7097  0.0640 -0.6776
   33CHL1  H16A 3570   4.115   0.365   4.682  1.5106 -0.0211  0.2259
   33CHL1  H16B 3571   3.936   0.383   4.735  0.7042 -0.1718 -0.1709
   33CHL1   C17 3572   4.045   0.561   4.751 -0.8779 -0.0034  0.3417
   33CHL1   H17 3573   3.940   0.594   4.769 -1.0531  1.7373 -3.0291
   33CHL1   C13 3574   4.137   0.602   4.871 -0.0545  0.4698  0.8704
   33CHL1   C18 3575   4.289   0.573   4.839  0.4315  0.2264 -0.1583
   33CHL1  H18A 3576   4.346   0.585   4.934  0.9101  1.2359 -0.5618
   33CHL1  H18B 3577   4.302   0.472   4.795 -0.1295  1.1495 -2.5430
   33CHL1  H18C 3578   4.327   0.644   4.763  0.2404 -0.7719 -1.2179
   33CHL1   C12 3579   4.117   0.738   4.933  0.0384  0.1695 -0.2356
   33CHL1  H12A 3580   4.171   0.817   4.876  0.8500  2.4840  3.3997
   33CHL1  H12B 3581   4.010   0.765   4.937 -0.3021 -1.2464  0.5863
   33CHL1   C11 3582   4.179   0.747   5.075  0.3678 -0.1260  0.3641
   33CHL1  H11A 3583   4.290   0.754   5.067  0.1470  4.4399 -1.6008
   33CHL1  H11B 3584   4.139   0.843   5.115  0.9391 -0.0033  0.6481
   33CHL1    C9 3585   4.143   0.628   5.172 -0.4613 -0.5182 -0.7476
   33CHL1    H9 3586   4.033   0.627   5.190 -0.7123  1.9097 -1.8317
   33CHL1   C10 3587   4.213   0.633   5.313 -0.2536 -0.2936  0.2243
   33CHL1   C19 3588   4.363   0.622   5.299  0.0911 -0.0796 -0.4168
   33CHL1  H19A 3589   4.397   0.533   5.242 -0.9478 -0.0953 -1.0342
   33CHL1  H19B 3590   4.411   0.709   5.250  1.6582  0.1803  1.4800
   33CHL1  H19C 3591   4.415   0.618   5.397  0.8284 -1.0055 -0.8316
   33CHL1    C1 3592   4.171   0.764   5.389 -0.1409 -0.1007 -0.1189
   33CHL1   H1A 3593   4.196   0.853   5.327 -2.7628  0.2257 -0.8227
   33CHL1   H1B 3594   4.060   0.758   5.389 -0.2658 -0.7183  4.0597
   33CHL1    C2 3595   4.220   0.778   5.530 -0.0332 -0.2451 -0.2057
   33CHL1   H2A 3596   4.174   0.872   5.567 -1.9256  0.0214 -2.9239
   33CHL1   H2B 3597   4.330   0.789   5.528  0.0321 -0.4731  1.4637
   33CHL1   C20 3598   4.076   0.613   4.611  0.5345  0.2248  0.1520
   33CHL1   H20 3599   4.174   0.570   4.581 -0.1685 -0.8492 -0.7034
   33CHL1   C21 3600   4.106   0.763   4.622 -0.1945  0.2263 -0.0144
   33CHL1  H21A 3601   4.102   0.802   4.518  2.4313 -0.3846 -0.4100
   33CHL1  H21B 3602   4.208   0.782   4.663 -0.3497  0.2171  0.3744
   33CHL1  H21C 3603   4.027   0.820   4.676  0.3311 -1.3726  2.5737
   33CHL1   C22 3604   3.974   0.569   4.505 -0.0442 -0.3307 -0.1855
   33CHL1  H22A 3605   3.955   0.461   4.517 -1.5702  0.0403  0.9876
   33CHL1  H22B 3606   3.872   0.612   4.516 -0.4296 -0.8452 -1.5315
   33CHL1   C23 3607   4.031   0.589   4.365 -0.2542  0.4714 -0.2601
   33CHL1  H23A 3608   4.036   0.696   4.336  0.4748  0.3204 -0.7167
   33CHL1  H23B 3609   4.134   0.547   4.368 -0.7217 -0.6454  1.2895
   33CHL1   C24 3610   3.955   0.525   4.253 -0.7779  0.3895  0.0176
   33CHL1  H24A 3611   4.019   0.521   4.163  0.0247  1.7319  0.5007
   33CHL1  H24B 3612   3.935   0.418   4.276 -1.0187  0.1169 -1.4045
   33CHL1   C25 3613   3.820   0.593   4.214  0.0811 -0.3453 -0.5007
   33CHL1   H25 3614   3.780   0.598   4.318  2.7035 -1.4067  0.6572
   33CHL1   C26 3615   3.836   0.732   4.150  0.1691  0.8872 -0.3988
   33CHL1  H26A 3616   3.734   0.774   4.139 -0.2776 -0.2700 -0.8168
   33CHL1  H26B 3617   3.906   0.802   4.199  1.7142 -0.7524 -0.1592
   33CHL1  H26C 3618   3.880   0.732   4.048  0.6139  1.8624 -0.2113
   33CHL1   C27 3619   3.730   0.505   4.130  0.5376  0.1914  0.5180
   33CHL1  H27A 3620   3.628   0.549   4.126 -0.5110 -1.8235  2.4321
   33CHL1  H27B 3621   3.764   0.508   4.025 -1.7290 -0.6644 -0.3002
   33CHL1  H27C 3622   3.737   0.397   4.158  1.0590 -0.7596 -2.8930
   34CHL1    C3 3623   4.668   2.849   5.535 -0.1453 -0.0855  0.4495
   34CHL1    H3 3624   4.698   2.953   5.512 -1.1408  0.1911  0.3715
   34CHL1    O3 3625   4.749   2.814   5.648 -0.0824  0.5567 -0.4897
   34CHL1   H3' 3626   4.720   2.867   5.722  0.4215  0.1172  0.0335
   34CHL1    C4 3627   4.517   2.863   5.575  0.0296 -0.1501  0.5308
   34CHL1   H4A 3628   4.475   2.779   5.634  0.1037  1.7035  3.4185
   34CHL1   H4B 3629   4.514   2.954   5.640  0.7492  0.2443  0.0253
   34CHL1    C5 3630   4.415   2.879   5.459 -0.1607 -0.1152  0.1801
   34CHL1    C6 3631   4.330   2.981   5.454 -0.0402 -0.8882  0.6135
   34CHL1    H6 3632   4.307   3.044   5.542 -0.9589 -0.4273  0.0651
   34CHL1    C7 3633   4.237   3.010   5.339 -0.6562  0.0266  0.7115
   34CHL1   H7A 3634   4.136   3.045   5.370 -0.5207  1.1817 -0.1071
   34CHL1   H7B 3635   4.276   3.097   5.282  0.9884  0.4678  2.4127
   34CHL1    C8 3636   4.217   2.889   5.239  0.1533  0.2009 -0.4316
   34CHL1    H8 3637   4.149   2.812   5.281 -1.0651  0.1524 -2.3524
   34CHL1   C14 3638   4.168   2.940   5.103 -0.1971 -0.1676 -0.3446
   34CHL1   H14 3639   4.245   3.009   5.063  2.0854 -1.0898  2.1792
   34CHL1   C15 3640   4.048   3.036   5.092  0.7946  0.5952  0.7861
   34CHL1  H15A 3641   3.967   2.975   5.137  1.2244  0.6331  1.6153
   34CHL1  H15B 3642   4.061   3.140   5.130 -0.0827  1.3085 -0.7332
   34CHL1   C16 3643   4.023   3.040   4.936 -0.4361 -0.5690 -0.3494
   34CHL1  H16A 3644   3.913   3.021   4.935 -0.7300  0.9031  0.7660
   34CHL1  H16B 3645   4.036   3.139   4.888 -1.6513 -1.0271 -1.6784
   34CHL1   C17 3646   4.108   2.924   4.871 -0.1394 -0.0305 -0.4125
   34CHL1   H17 3647   4.196   2.970   4.822  0.6351  0.1493  1.0885
   34CHL1   C13 3648   4.168   2.836   4.989 -0.0334 -0.3295  0.0894
   34CHL1   C18 3649   4.068   2.723   5.022 -0.3608 -0.1095 -0.5298
   34CHL1  H18A 3650   4.098   2.632   4.966 -1.0452 -1.6719  1.5361
   34CHL1  H18B 3651   4.070   2.702   5.131  0.4419 -2.7961 -0.9963
   34CHL1  H18C 3652   3.964   2.753   4.996 -0.5275  0.1546  0.3902
   34CHL1   C12 3653   4.309   2.789   4.965  0.1592  0.1769 -1.0683
   34CHL1  H12A 3654   4.319   2.710   4.888  1.7977 -1.5704  0.8288
   34CHL1  H12B 3655   4.371   2.872   4.925 -1.7045  2.5352  0.5723
   34CHL1   C11 3656   4.368   2.723   5.099  0.0160  0.6975 -0.0344
   34CHL1  H11A 3657   4.305   2.636   5.125  0.3101  1.1076  2.2419
   34CHL1  H11B 3658   4.474   2.690   5.085  0.1604 -0.6589  3.3768
   34CHL1    C9 3659   4.358   2.822   5.219 -0.3100  0.0969 -0.3044
   34CHL1    H9 3660   4.408   2.914   5.181  0.2054 -0.1135 -0.1275
   34CHL1   C10 3661   4.437   2.777   5.350 -1.0631  0.5370  0.4165
   34CHL1   C19 3662   4.372   2.641   5.394 -0.2718  0.3502  0.3805
   34CHL1  H19A 3663   4.401   2.563   5.320 -1.8353  1.0621 -1.0517
   34CHL1  H19B 3664   4.410   2.608   5.493 -0.3558  1.3922  0.7755
   34CHL1  H19C 3665   4.261   2.645   5.391 -0.5332 -3.3938 -0.1714
   34CHL1    C1 3666   4.589   2.755   5.319 -0.3449 -0.7078 -0.9221
   34CHL1   H1A 3667   4.598   2.670   5.247  2.1636 -1.6789  0.4065
   34CHL1   H1B 3668   4.614   2.843   5.257  0.5011 -0.5898 -0.4225
   34CHL1    C2 3669   4.688   2.742   5.435 -0.4084  0.1548 -0.3802
   34CHL1   H2A 3670   4.793   2.747   5.399 -0.8189  0.1317 -1.6217
   34CHL1   H2B 3671   4.670   2.643   5.483  1.1849 -0.5132 -1.0832
   34CHL1   C20 3672   4.041   2.865   4.751 -0.0793 -0.5826  0.3867
   34CHL1   H20 3673   3.949   2.811   4.783 -0.1893 -1.4302 -1.2719
   34CHL1   C21 3674   4.126   2.754   4.684  0.6781 -0.2049 -0.2004
   34CHL1  H21A 3675   4.154   2.669   4.750 -1.2668 -0.8751 -0.1935
   34CHL1  H21B 3676   4.223   2.791   4.643  2.7314 -3.9246  0.8542
   34CHL1  H21C 3677   4.073   2.710   4.597  0.0823 -1.6779  0.8678
   34CHL1   C22 3678   3.979   2.965   4.644 -0.5321  0.4059 -0.6330
   34CHL1  H22A 3679   3.927   3.049   4.694 -1.8302  0.1689 -1.5182
   34CHL1  H22B 3680   4.059   3.013   4.585 -1.4219  2.6905 -0.0911
   34CHL1   C23 3681   3.875   2.909   4.543  0.0286 -0.5844  0.4971
   34CHL1  H23A 3682   3.902   2.806   4.512 -1.4326 -0.9415  0.3336
   34CHL1  H23B 3683   3.778   2.900   4.596 -0.3954 -1.2838 -0.3660
   34CHL1   C24 3684   3.845   2.996   4.417  1.0723  0.5918  0.8670
   34CHL1  H24A 3685   3.786   3.086   4.445  0.0514 -0.0165  0.7191
   34CHL1  H24B 3686   3.946   3.025   4.380  0.4594 -0.7839 -2.1564
   34CHL1   C25 3687   3.766   2.920   4.305  0.3628 -1.1856 -0.5381
   34CHL1   H25 3688   3.686   2.861   4.354  0.4658 -0.5901  0.3697
   34CHL1   C26 3689   3.718   3.031   4.210 -0.1132 -0.4361  0.4776
   34CHL1  H26A 3690   3.659   2.976   4.135 -0.5136  0.2978  0.2448
   34CHL1  H26B 3691   3.663   3.108   4.269 -0.4881  1.0889 -1.7304
   34CHL1  H26C 3692   3.801   3.084   4.157 -1.6335  2.0663  0.4195
   34CHL1   C27 3693   3.857   2.814   4.241 -0.2767 -0.0324  0.2295
   34CHL1  H27A 3694   3.943   2.863   4.192 -2.4672  3.0000 -0.8685
   34CHL1  H27B 3695   3.885   2.740   4.319  0.3543 -0.2942 -0.2351
   34CHL1  H27C 3696   3.804   2.760   4.159 -1.2711  0.3903  0.5768
   35CHL1    C3 3697   5.533   2.609   5.738  0.3545  0.2860  0.0132
   35CHL1    H3 3698   5.572   2.513   5.780  1.0916  0.8514  0.6734
   35CHL1    O3 3699   5.499   2.687   5.856  0.3106 -0.6909  0.0913
   35CHL1   H3' 3700   5.583   2.703   5.899  1.3415  1.8990 -2.5307
   35CHL1    C4 3701   5.646   2.677   5.655  0.2816 -0.4276 -0.1584
   35CHL1   H4A 3702   5.600   2.774   5.629  0.1257 -0.7861 -1.2386
   35CHL1   H4B 3703   5.733   2.713   5.715  0.0363 -0.5944  0.3018
   35CHL1    C5 3704   5.673   2.605   5.527 -0.6097 -0.3310  0.0693
   35CHL1    C6 3705   5.797   2.576   5.489  0.4592  0.5144 -0.5209
   35CHL1    H6 3706   5.875   2.606   5.561  1.0725  0.5901 -1.2103
   35CHL1    C7 3707   5.828   2.515   5.358 -0.5263 -0.9017  0.5751
   35CHL1   H7A 3708   5.923   2.555   5.318 -0.5044 -0.3975  1.1239
   35CHL1   H7B 3709   5.843   2.405   5.365 -0.0190 -0.9408 -0.8183
   35CHL1    C8 3710   5.717   2.538   5.253 -0.4334  0.1935  0.2735
   35CHL1    H8 3711   5.723   2.645   5.225  3.1206 -0.1152 -0.5631
   35CHL1   C14 3712   5.744   2.459   5.131 -0.1386  0.3225  0.3280
   35CHL1   H14 3713   5.764   2.350   5.146  1.8177  0.6833  0.5579
   35CHL1   C15 3714   5.875   2.487   5.059  0.4357  0.4355 -0.8884
   35CHL1  H15A 3715   5.885   2.595   5.036 -0.0651  0.7236  0.1547
   35CHL1  H15B 3716   5.960   2.451   5.120 -0.7547  0.5764  0.9470
   35CHL1   C16 3717   5.847   2.412   4.919 -0.4667 -0.2083 -0.6930
   35CHL1  H16A 3718   5.903   2.474   4.846 -0.9752  0.0680 -0.8527
   35CHL1  H16B 3719   5.887   2.308   4.916  0.1583 -0.0875  1.8283
   35CHL1   C17 3720   5.694   2.410   4.903  0.2218 -0.0858 -0.9292
   35CHL1   H17 3721   5.660   2.306   4.919 -0.4514  0.3986  1.0146
   35CHL1   C13 3722   5.632   2.474   5.019  0.4762 -0.0490  0.2489
   35CHL1   C18 3723   5.604   2.630   4.995  0.5468  0.2103 -0.3789
   35CHL1  H18A 3724   5.511   2.641   4.936 -1.8768  0.5381  3.2092
   35CHL1  H18B 3725   5.572   2.683   5.087 -0.3393 -0.5413 -0.2433
   35CHL1  H18C 3726   5.694   2.677   4.949  0.4832  0.6523 -0.0551
   35CHL1   C12 3727   5.504   2.406   5.079  0.0976  0.6440  0.8220
   35CHL1  H12A 3728   5.420   2.421   5.009  1.2634  0.4872 -0.6711
   35CHL1  H12B 3729   5.532   2.299   5.087 -0.8172  0.1207 -1.8677
   35CHL1   C11 3730   5.473   2.465   5.213 -0.6715  1.1112 -0.4331
   35CHL1  H11A 3731   5.419   2.561   5.200  0.6514  2.0555  0.6867
   35CHL1  H11B 3732   5.402   2.396   5.262 -0.0452 -0.2220 -1.3247
   35CHL1    C9 3733   5.587   2.487   5.315  0.4773 -0.4260  0.6329
   35CHL1    H9 3734   5.607   2.385   5.355  0.1410 -1.2150 -1.0895
   35CHL1   C10 3735   5.547   2.572   5.442 -0.4292  0.1107  0.2538
   35CHL1   C19 3736   5.478   2.704   5.388  0.0304 -0.2907  0.3342
   35CHL1  H19A 3737   5.484   2.785   5.464 -0.0686 -1.4685  1.6410
   35CHL1  H19B 3738   5.534   2.745   5.301  0.1387  1.5146  1.2183
   35CHL1  H19C 3739   5.375   2.690   5.350  0.2212  1.1304 -0.7647
   35CHL1    C1 3740   5.446   2.498   5.529 -0.5100  0.5252  0.0151
   35CHL1   H1A 3741   5.354   2.468   5.475  0.0139 -2.0425  0.4505
   35CHL1   H1B 3742   5.496   2.405   5.562  2.1856  1.1220 -2.0158
   35CHL1    C2 3743   5.405   2.584   5.653  0.2811 -0.5597  0.3407
   35CHL1   H2A 3744   5.317   2.549   5.711  0.2564  0.0165  0.6557
   35CHL1   H2B 3745   5.372   2.689   5.634 -3.5521 -1.5168  0.8764
   35CHL1   C20 3746   5.647   2.456   4.765  0.5037  0.1546 -0.0027
   35CHL1   H20 3747   5.667   2.565   4.764 -1.4145  0.5490  1.1191
   35CHL1   C21 3748   5.497   2.427   4.741  0.4670 -0.0468 -0.2141
   35CHL1  H21A 3749   5.478   2.318   4.749  0.6643 -0.0218  0.6473
   35CHL1  H21B 3750   5.455   2.469   4.647 -0.0118 -0.9925 -0.4256
   35CHL1  H21C 3751   5.435   2.468   4.824  1.2039 -0.6917  0.6665
   35CHL1   C22 3752   5.731   2.390   4.654  0.5443  0.1254  0.0185
   35CHL1  H22A 3753   5.841   2.397   4.665  0.6278  1.2041 -1.2468
   35CHL1  H22B 3754   5.707   2.282   4.643  2.6923 -0.2553 -1.4519
   35CHL1   C23 3755   5.697   2.426   4.511  0.4646  0.2087 -0.3193
   35CHL1  H23A 3756   5.598   2.385   4.483 -0.5378  0.5704  2.4077
   35CHL1  H23B 3757   5.674   2.534   4.500  0.2975  0.2317  0.2554
   35CHL1   C24 3758   5.802   2.391   4.406  0.5445  0.7507 -0.0119
   35CHL1  H24A 3759   5.760   2.437   4.314  0.5971 -0.5859 -0.7443
   35CHL1  H24B 3760   5.899   2.440   4.427 -0.8585  2.2127  3.7203
   35CHL1   C25 3761   5.833   2.241   4.363 -0.7179 -0.4704  0.4126
   35CHL1   H25 3762   5.879   2.196   4.454 -0.6468  1.8470  1.5843
   35CHL1   C26 3763   5.708   2.174   4.323  0.3976  0.3736  0.1064
   35CHL1  H26A 3764   5.662   2.227   4.237  0.6711 -1.2113 -1.0626
   35CHL1  H26B 3765   5.716   2.070   4.285  2.8168  0.3163  0.5643
   35CHL1  H26C 3766   5.636   2.194   4.405  3.1225  1.2585  2.4512
   35CHL1   C27 3767   5.951   2.237   4.246 -0.5428 -0.6346 -0.5027
   35CHL1  H27A 3768   6.041   2.281   4.293 -1.8705 -1.2712  3.0103
   35CHL1  H27B 3769   5.976   2.130   4.226 -0.7230 -0.1553 -3.8170
   35CHL1  H27C 3770   5.909   2.284   4.155 -0.7198  0.6903  0.2378
   36CHL1    C3 3771   3.277   1.733   5.887  0.3002  0.5174 -1.0590
   36CHL1    H3 3772   3.277   1.624   5.865  0.6695  0.8633 -2.9053
   36CHL1    O3 3773   3.318   1.750   6.022  0.1956  0.1851 -0.5216
   36CHL1   H3' 3774   3.252   1.696   6.066 -0.7268  1.6968  0.0317
   36CHL1    C4 3775   3.377   1.803   5.796 -0.5426  0.0062  0.2882
   36CHL1   H4A 3776   3.358   1.911   5.815 -0.4160  0.0458  0.1925
   36CHL1   H4B 3777   3.481   1.783   5.830  0.0965  2.2829 -0.1569
   36CHL1    C5 3778   3.345   1.771   5.649  0.3907  0.0271  0.0724
   36CHL1    C6 3779   3.434   1.715   5.568 -0.0090  0.3443 -0.7570
   36CHL1    H6 3780   3.533   1.686   5.604 -0.4858 -0.3423  0.0400
   36CHL1    C7 3781   3.401   1.705   5.420 -1.1940 -0.0640  0.0890
   36CHL1   H7A 3782   3.485   1.741   5.356  2.7141 -0.3734  4.4785
   36CHL1   H7B 3783   3.396   1.598   5.390 -0.1018  0.6761 -3.1253
   36CHL1    C8 3784   3.270   1.768   5.381  0.1201 -0.5415  0.6426
   36CHL1    H8 3785   3.273   1.877   5.364 -0.6002 -0.3745  1.5459
   36CHL1   C14 3786   3.229   1.707   5.251  0.3742 -0.1920  0.0483
   36CHL1   H14 3787   3.210   1.598   5.267  0.2343 -0.2377 -0.4384
   36CHL1   C15 3788   3.331   1.695   5.141 -0.3834  0.0796  0.6042
   36CHL1  H15A 3789   3.383   1.793   5.134 -1.5764  0.8606  2.1379
   36CHL1  H15B 3790   3.399   1.610   5.159 -0.1742  0.3170  0.9343
   36CHL1   C16 3791   3.251   1.657   5.017 -0.3061 -0.3382  1.1809
   36CHL1  H16A 3792   3.264   1.723   4.928 -1.6004 -1.1755  0.3241
   36CHL1  H16B 3793   3.262   1.547   5.001 -0.7719 -0.3203  0.6766
   36CHL1   C17 3794   3.098   1.678   5.054 -0.9779  0.4151  0.1368
   36CHL1   H17 3795   3.050   1.582   5.081 -4.1642  0.9953 -2.7352
   36CHL1   C13 3796   3.101   1.769   5.182 -0.1615  0.3022  0.0140
   36CHL1   C18 3797   3.127   1.912   5.141 -0.3042 -0.1984 -0.2218
   36CHL1  H18A 3798   3.132   1.980   5.228 -0.5307  0.4185 -0.6770
   36CHL1  H18B 3799   3.223   1.921   5.086  0.5716 -1.9132  0.9614
   36CHL1  H18C 3800   3.040   1.949   5.082  0.1082 -1.9207 -2.0283
   36CHL1   C12 3801   2.987   1.743   5.281 -0.6770  0.3724  0.0375
   36CHL1  H12A 3802   2.889   1.791   5.263  0.0601  2.3836  1.0704
   36CHL1  H12B 3803   2.972   1.634   5.293  2.7238 -0.5431 -2.3844
   36CHL1   C11 3804   3.024   1.801   5.415 -0.0183  0.3341 -0.2416
   36CHL1  H11A 3805   3.045   1.910   5.406 -1.3281  0.6830  0.6565
   36CHL1  H11B 3806   2.933   1.796   5.479  0.7070  0.8701  0.8618
   36CHL1    C9 3807   3.160   1.757   5.477 -0.6654 -0.0997  0.2350
   36CHL1    H9 3808   3.139   1.651   5.501 -1.1706 -0.2848 -0.9716
   36CHL1   C10 3809   3.204   1.816   5.612  0.2496 -0.3095 -0.1507
   36CHL1   C19 3810   3.200   1.972   5.607  0.0136  0.8043  0.0874
   36CHL1  H19A 3811   3.260   2.012   5.522  0.6821 -2.9611 -1.4101
   36CHL1  H19B 3812   3.094   2.001   5.592  0.2715  0.8294 -1.9847
   36CHL1  H19C 3813   3.224   2.011   5.708 -2.3962 -1.9511  1.8819
   36CHL1    C1 3814   3.099   1.767   5.712  0.0674  0.0109  0.1155
   36CHL1   H1A 3815   3.001   1.818   5.702  0.7170  0.8274 -3.3177
   36CHL1   H1B 3816   3.093   1.656   5.705  0.3018 -0.0836  1.2208
   36CHL1    C2 3817   3.136   1.789   5.862  0.3177  0.1552 -0.9804
   36CHL1   H2A 3818   3.059   1.737   5.922  0.3459  0.4142 -0.7177
   36CHL1   H2B 3819   3.134   1.895   5.896 -1.9510 -0.5387  1.3813
   36CHL1   C20 3820   3.014   1.725   4.930 -0.6001  0.2468 -0.4864
   36CHL1   H20 3821   3.062   1.812   4.881  2.3583 -1.7335 -1.4151
   36CHL1   C21 3822   2.875   1.765   4.984 -0.6888  0.1629  0.2959
   36CHL1  H21A 3823   2.874   1.865   5.034  0.7830  0.1408  0.4151
   36CHL1  H21B 3824   2.831   1.688   5.050 -0.8804 -0.5833 -0.6810
   36CHL1  H21C 3825   2.817   1.780   4.890  1.5473 -0.1638 -1.2036
   36CHL1   C22 3826   3.000   1.621   4.818 -0.4944  0.7485 -0.1985
   36CHL1  H22A 3827   3.091   1.558   4.817 -0.6622  0.2834  2.9041
   36CHL1  H22B 3828   2.927   1.548   4.858  2.0065 -1.7163  0.1727
   36CHL1   C23 3829   2.955   1.674   4.683 -1.4333  0.6142  0.7108
   36CHL1  H23A 3830   2.845   1.692   4.684 -1.2300  2.0842 -0.1347
   36CHL1  H23B 3831   3.005   1.771   4.661  1.8613 -0.8652  0.9991
   36CHL1   C24 3832   2.996   1.572   4.572 -0.3972 -0.4871 -0.1604
   36CHL1  H24A 3833   3.103   1.545   4.564  0.4057  2.4958 -0.7193
   36CHL1  H24B 3834   2.940   1.478   4.589 -0.6003 -0.5608 -1.1752
   36CHL1   C25 3835   2.945   1.611   4.430 -0.7318 -0.1312  0.7582
   36CHL1   H25 3836   2.988   1.713   4.420  2.3601 -1.3187  0.9376
   36CHL1   C26 3837   3.006   1.528   4.321 -0.2945  0.6128  0.5588
   36CHL1  H26A 3838   2.966   1.425   4.334 -2.4086  1.0856 -1.5874
   36CHL1  H26B 3839   2.983   1.549   4.215  0.5975 -1.4764 -0.1025
   36CHL1  H26C 3840   3.115   1.524   4.342 -0.1437  1.2753 -0.0995
   36CHL1   C27 3841   2.793   1.604   4.416 -0.0510 -0.1051 -0.4164
   36CHL1  H27A 3842   2.742   1.691   4.464  2.7461  1.1706  0.4210
   36CHL1  H27B 3843   2.772   1.607   4.306 -0.5919 -1.5659 -0.3755
   36CHL1  H27C 3844   2.751   1.506   4.448 -1.2747  0.8030  0.8661
   37CHL1    C3 3845   5.343   5.834   5.997 -0.2942  0.3677  0.6524
   37CHL1    H3 3846   5.440   5.797   6.036  0.4218  1.7884  0.2838
   37CHL1    O3 3847   5.260   5.855   6.113  0.5236 -0.0913 -0.4175
   37CHL1   H3' 3848   5.232   5.768   6.143 -2.9554  0.0875 -2.5787
   37CHL1    C4 3849   5.362   5.967   5.923  0.6400 -0.5419 -0.3950
   37CHL1   H4A 3850   5.271   6.029   5.933  1.8382  0.9707  2.2059
   37CHL1   H4B 3851   5.431   6.016   5.995  2.2715 -0.5100 -1.9032
   37CHL1    C5 3852   5.424   5.949   5.785 -0.6467 -1.1694 -0.1992
   37CHL1    C6 3853   5.539   6.007   5.753 -0.0460  0.8697  0.1938
   37CHL1    H6 3854   5.595   6.085   5.807 -0.6218  0.7482  0.9933
   37CHL1    C7 3855   5.599   5.986   5.614 -0.8337 -1.0704  0.4250
   37CHL1   H7A 3856   5.654   6.076   5.580 -2.1255  0.1447  1.4643
   37CHL1   H7B 3857   5.675   5.906   5.632 -0.7878 -0.7131  2.0359
   37CHL1    C8 3858   5.495   5.955   5.505 -0.2109  0.0401  0.3921
   37CHL1    H8 3859   5.425   6.041   5.501 -1.0038 -0.4139  2.6596
   37CHL1   C14 3860   5.568   5.930   5.370  0.1519  0.2449 -0.0198
   37CHL1   H14 3861   5.645   5.851   5.386 -0.5021 -0.6332 -1.0338
   37CHL1   C15 3862   5.642   6.050   5.317 -0.0381  0.0590 -0.2838
   37CHL1  H15A 3863   5.567   6.131   5.324 -3.6646 -2.8071 -2.2294
   37CHL1  H15B 3864   5.732   6.071   5.379  0.9036 -0.3204 -1.4837
   37CHL1   C16 3865   5.653   6.017   5.167 -0.3841  0.1360 -0.1246
   37CHL1  H16A 3866   5.620   6.105   5.108 -2.8517 -0.8310 -0.2849
   37CHL1  H16B 3867   5.758   5.996   5.137 -1.0161  0.5884 -2.8640
   37CHL1   C17 3868   5.569   5.891   5.133  0.2748  0.5364  0.1465
   37CHL1   H17 3869   5.634   5.801   5.142 -0.8974 -0.3771 -0.3208
   37CHL1   C13 3870   5.478   5.883   5.251 -0.1563  0.4137  0.0885
   37CHL1   C18 3871   5.365   5.988   5.228  0.3456  0.2175  0.0673
   37CHL1  H18A 3872   5.302   5.959   5.141  2.1847  0.9034 -1.5642
   37CHL1  H18B 3873   5.306   5.992   5.322  1.5914  1.0706  0.8433
   37CHL1  H18C 3874   5.399   6.090   5.199 -0.1445 -0.1770 -2.0404
   37CHL1   C12 3875   5.417   5.749   5.301  0.1823  0.2254  0.4448
   37CHL1  H12A 3876   5.343   5.705   5.229 -0.5845 -0.4237  1.5939
   37CHL1  H12B 3877   5.500   5.676   5.315 -0.3389 -0.3241  0.7176
   37CHL1   C11 3878   5.341   5.761   5.440 -0.3370  0.2033  0.4782
   37CHL1  H11A 3879   5.250   5.821   5.421 -0.6767 -1.2215 -3.0878
   37CHL1  H11B 3880   5.313   5.662   5.481 -0.4550  0.1745  0.3245
   37CHL1    C9 3881   5.418   5.834   5.552 -0.2311  0.2536  0.2189
   37CHL1    H9 3882   5.497   5.760   5.579 -0.2164  0.2737  0.2306
   37CHL1   C10 3883   5.347   5.860   5.691 -0.6178 -0.1188 -0.4542
   37CHL1   C19 3884   5.215   5.940   5.666  0.5139  0.8261  0.2204
   37CHL1  H19A 3885   5.161   5.965   5.760 -0.7359 -2.1449  0.3957
   37CHL1  H19B 3886   5.237   6.030   5.605  0.8585 -0.3043 -1.3967
   37CHL1  H19C 3887   5.144   5.872   5.615 -2.0184  2.3349  1.5500
   37CHL1    C1 3888   5.325   5.729   5.765  0.4231 -0.1255 -0.3339
   37CHL1   H1A 3889   5.250   5.663   5.714 -0.9421 -0.5099  2.0510
   37CHL1   H1B 3890   5.420   5.672   5.777  1.8251  1.5879 -2.4944
   37CHL1    C2 3891   5.268   5.735   5.909  0.2616 -0.4465  0.6378
   37CHL1   H2A 3892   5.252   5.631   5.945 -2.0371 -0.4516 -0.1865
   37CHL1   H2B 3893   5.162   5.767   5.896  0.0756 -0.8677  1.0796
   37CHL1   C20 3894   5.522   5.880   4.984 -0.1160  0.9173  0.2018
   37CHL1   H20 3895   5.445   5.958   4.967 -0.4528  0.7942  1.1319
   37CHL1   C21 3896   5.456   5.741   4.949 -0.4780 -0.3782 -0.1945
   37CHL1  H21A 3897   5.410   5.741   4.848  0.0111 -0.0335 -0.4221
   37CHL1  H21B 3898   5.375   5.719   5.022  2.3449 -1.1540  2.9446
   37CHL1  H21C 3899   5.526   5.655   4.958  1.0227  0.9357  1.4671
   37CHL1   C22 3900   5.633   5.917   4.879  0.3327 -0.1505 -0.2245
   37CHL1  H22A 3901   5.583   5.917   4.779  0.9957  0.5701 -0.5730
   37CHL1  H22B 3902   5.649   6.026   4.895  0.0749  0.3188 -2.6731
   37CHL1   C23 3903   5.757   5.825   4.872  0.1468 -1.0170  0.2954
   37CHL1  H23A 3904   5.797   5.805   4.974 -1.9728 -3.0123  0.8194
   37CHL1  H23B 3905   5.731   5.730   4.820  0.3460 -0.2790 -1.2025
   37CHL1   C24 3906   5.874   5.897   4.797  0.5771  0.1233 -0.4945
   37CHL1  H24A 3907   5.846   5.944   4.701 -2.8719  1.8206  1.1855
   37CHL1  H24B 3908   5.893   5.985   4.863 -0.6270 -0.4432  0.6423
   37CHL1   C25 3909   5.995   5.802   4.789  0.5282 -0.0326  0.6752
   37CHL1   H25 3910   5.988   5.717   4.859 -0.7011  1.6233  2.6792
   37CHL1   C26 3911   6.011   5.739   4.647 -0.3548  0.4085 -0.2293
   37CHL1  H26A 3912   6.096   5.668   4.647  0.1390  0.9347 -2.2882
   37CHL1  H26B 3913   5.921   5.680   4.618 -0.3364  1.3480 -2.3356
   37CHL1  H26C 3914   6.033   5.806   4.562  0.6800  1.8411  1.1162
   37CHL1   C27 3915   6.130   5.882   4.809 -0.4403 -0.1607  0.2073
   37CHL1  H27A 3916   6.129   5.929   4.910 -2.5169 -0.2876  0.2871
   37CHL1  H27B 3917   6.208   5.803   4.807 -0.3136 -0.0287 -0.1298
   37CHL1  H27C 3918   6.151   5.955   4.728 -1.0400 -0.1688  0.0396
   38CHL1    C3 3919   6.423   0.326   6.022 -0.1672 -0.5654  0.0507
   38CHL1    H3 3920   6.501   0.251   5.998 -2.0855 -2.5912 -0.1613
   38CHL1    O3 3921   6.449   0.394   6.141 -0.6982 -0.2575 -0.4198
   38CHL1   H3' 3922   6.380   0.460   6.146 -0.3066  0.1985 -0.8724
   38CHL1    C4 3923   6.406   0.428   5.905 -0.4100  0.0818  0.6587
   38CHL1   H4A 3924   6.318   0.489   5.935 -0.9834 -0.6662  0.5281
   38CHL1   H4B 3925   6.507   0.474   5.904  1.2038 -3.1535  1.4566
   38CHL1    C5 3926   6.383   0.355   5.773  0.7904  0.6326 -0.3375
   38CHL1    C6 3927   6.457   0.373   5.667 -0.1482 -0.1332  0.4262
   38CHL1    H6 3928   6.543   0.439   5.681 -0.8419  0.8726  0.0126
   38CHL1    C7 3929   6.437   0.321   5.530 -0.1015 -0.2223  0.2429
   38CHL1   H7A 3930   6.448   0.402   5.455  0.6419  1.6939  2.3033
   38CHL1   H7B 3931   6.504   0.235   5.509 -0.1004 -0.0663 -0.4186
   38CHL1    C8 3932   6.285   0.276   5.515  0.7491 -0.1821  0.7579
   38CHL1    H8 3933   6.221   0.367   5.514 -1.6087 -1.7390  1.4949
   38CHL1   C14 3934   6.273   0.211   5.378 -0.0678  0.0787  0.7861
   38CHL1   H14 3935   6.345   0.126   5.371  0.7450  0.8704 -5.2056
   38CHL1   C15 3936   6.308   0.293   5.253  0.2729  0.0711  0.1610
   38CHL1  H15A 3937   6.259   0.391   5.269  1.0291  0.4654  0.1295
   38CHL1  H15B 3938   6.416   0.305   5.228  0.6246  0.3310  1.7256
   38CHL1   C16 3939   6.241   0.204   5.135 -0.3478 -0.5928  0.4399
   38CHL1  H16A 3940   6.198   0.279   5.065  0.8049  0.8392  1.2103
   38CHL1  H16B 3941   6.323   0.155   5.078 -0.7170 -1.0890  0.3279
   38CHL1   C17 3942   6.146   0.098   5.204 -1.0264 -0.9588 -0.5328
   38CHL1   H17 3943   6.216   0.013   5.217  1.5557  1.0484 -0.3645
   38CHL1   C13 3944   6.130   0.158   5.353  0.0676 -0.1096  0.2011
   38CHL1   C18 3945   6.024   0.265   5.350  0.3684  0.4445  0.2237
   38CHL1  H18A 3946   6.017   0.318   5.448  1.2625  0.0760  0.4911
   38CHL1  H18B 3947   6.035   0.332   5.262 -0.5390  0.2278 -0.0712
   38CHL1  H18C 3948   5.927   0.213   5.333  0.7602  0.1726 -1.3618
   38CHL1   C12 3949   6.096   0.061   5.462 -0.1742  0.5117  0.2599
   38CHL1  H12A 3950   5.999   0.008   5.463 -0.4823  1.0690  1.8048
   38CHL1  H12B 3951   6.170  -0.020   5.474  1.2682  2.1600  3.6563
   38CHL1   C11 3952   6.110   0.125   5.603  0.2600  0.0260  0.3175
   38CHL1  H11A 3953   6.026   0.194   5.623 -0.0063 -0.1517 -0.1640
   38CHL1  H11B 3954   6.106   0.046   5.681  1.9187  0.0700  0.4821
   38CHL1    C9 3955   6.243   0.189   5.636 -0.2733  0.6691 -0.0866
   38CHL1    H9 3956   6.319   0.107   5.635 -1.1098 -0.1239 -0.0335
   38CHL1   C10 3957   6.256   0.267   5.766  0.7957 -0.7319  0.3277
   38CHL1   C19 3958   6.129   0.359   5.773 -0.4123 -0.6958  0.1722
   38CHL1  H19A 3959   6.033   0.306   5.788 -0.4388 -0.5534  0.5144
   38CHL1  H19B 3960   6.123   0.421   5.865 -1.9391 -1.6386  0.7329
   38CHL1  H19C 3961   6.112   0.418   5.680  0.5696  0.5599  0.7593
   38CHL1    C1 3962   6.276   0.173   5.898 -0.7724 -0.2171 -0.6443
   38CHL1   H1A 3963   6.181   0.115   5.900 -0.6983 -0.3619 -1.1998
   38CHL1   H1B 3964   6.360   0.101   5.891 -1.0753 -0.7602  0.8758
   38CHL1    C2 3965   6.299   0.247   6.033  0.0566  0.2401 -0.4762
   38CHL1   H2A 3966   6.309   0.163   6.106 -1.0659 -0.3967 -1.0273
   38CHL1   H2B 3967   6.216   0.314   6.062 -1.1402 -0.7298 -1.5558
   38CHL1   C20 3968   6.021   0.057   5.124 -0.8247  0.0204 -0.5308
   38CHL1   H20 3969   5.950   0.140   5.101 -0.8255  0.6746  1.5911
   38CHL1   C21 3970   5.934  -0.046   5.200 -0.0885 -0.0449 -0.3806
   38CHL1  H21A 3971   5.858  -0.092   5.133 -1.4198  1.2913  0.1365
   38CHL1  H21B 3972   5.874   0.015   5.272  1.7254  0.9626  0.3450
   38CHL1  H21C 3973   6.000  -0.109   5.263  0.4854  0.3693 -0.5558
   38CHL1   C22 3974   6.068  -0.011   4.986  0.3649  0.3570 -0.3630
   38CHL1  H22A 3975   6.153   0.046   4.941  2.7990 -1.4445  1.6315
   38CHL1  H22B 3976   6.126  -0.105   5.003 -1.5032 -1.1467 -1.8973
   38CHL1   C23 3977   5.944  -0.033   4.898  0.3423 -0.2238  0.0763
   38CHL1  H23A 3978   5.882  -0.116   4.937 -1.4343  0.9974 -0.0435
   38CHL1  H23B 3979   5.870   0.050   4.904 -1.3692 -1.7546  1.0753
   38CHL1   C24 3980   5.977  -0.058   4.750  0.4577  0.8613 -0.1199
   38CHL1  H24A 3981   6.030   0.036   4.721  0.4683  0.0110 -3.2293
   38CHL1  H24B 3982   6.049  -0.143   4.744 -0.9872 -0.3194 -1.7295
   38CHL1   C25 3983   5.856  -0.083   4.658  0.0166 -0.3800 -0.2217
   38CHL1   H25 3984   5.795   0.010   4.666  1.1457  0.2533  1.7480
   38CHL1   C26 3985   5.898  -0.099   4.509  0.5385  0.0243  0.0713
   38CHL1  H26A 3986   5.931  -0.204   4.494 -3.0797 -0.9437 -2.5862
   38CHL1  H26B 3987   5.812  -0.083   4.440 -0.9161  1.9249  2.1479
   38CHL1  H26C 3988   5.984  -0.033   4.486  0.8600 -0.0351  1.0561
   38CHL1   C27 3989   5.764  -0.196   4.705 -0.6257 -0.2849  0.1044
   38CHL1  H27A 3990   5.718  -0.168   4.802  1.8002  0.4929  1.0949
   38CHL1  H27B 3991   5.686  -0.220   4.630 -1.5533  1.6453  0.4083
   38CHL1  H27C 3992   5.825  -0.289   4.712  0.0960 -0.0484 -2.2585
   39CHL1    C3 3993   0.617   6.738   5.813 -0.1840 -0.3761  0.2571
   39CHL1    H3 3994   0.524   6.799   5.804  1.2503  1.6903 -1.6313
   39CHL1    O3 3995   0.650   6.723   5.953  0.1503  0.0633 -0.0642
   39CHL1   H3' 3996   0.566   6.696   5.989  0.1123 -0.5951 -0.6366
   39CHL1    C4 3997   0.604   6.590   5.750 -0.6503 -0.1963  0.2208
   39CHL1   H4A 3998   0.687   6.530   5.793 -1.0965 -0.0561  1.3187
   39CHL1   H4B 3999   0.511   6.554   5.798 -1.6593  0.2586 -1.3322
   39CHL1    C5 4000   0.591   6.579   5.600 -0.9202 -0.9395  0.0093
   39CHL1    C6 4001   0.499   6.510   5.535  0.5020  0.0319 -0.0874
   39CHL1    H6 4002   0.424   6.449   5.587  1.0043  0.0816  0.7015
   39CHL1    C7 4003   0.491   6.499   5.383 -0.3208 -0.2879 -0.1363
   39CHL1   H7A 4004   0.480   6.391   5.357  0.7087 -0.3790 -0.2242
   39CHL1   H7B 4005   0.398   6.552   5.354 -0.4256 -0.0944  0.5306
   39CHL1    C8 4006   0.616   6.549   5.306 -0.2534  0.1545  0.4686
   39CHL1    H8 4007   0.693   6.469   5.298 -0.1364  0.4383 -2.0052
   39CHL1   C14 4008   0.568   6.588   5.171  0.0216  0.1184 -0.0319
   39CHL1   H14 4009   0.485   6.661   5.186  1.1271  0.9979  2.3151
   39CHL1   C15 4010   0.498   6.471   5.092  0.2155 -0.6977 -0.2567
   39CHL1  H15A 4011   0.558   6.378   5.106  0.7245 -0.3283  0.0719
   39CHL1  H15B 4012   0.398   6.461   5.138  0.7047 -0.5267  0.8690
   39CHL1   C16 4013   0.514   6.516   4.947 -0.2730 -0.6702 -0.0456
   39CHL1  H16A 4014   0.570   6.436   4.895  1.6722  0.4423  0.2577
   39CHL1  H16B 4015   0.416   6.539   4.898 -0.6838 -1.1030  0.5559
   39CHL1   C17 4016   0.603   6.653   4.944  0.1752 -0.5114  0.6002
   39CHL1   H17 4017   0.532   6.737   4.944  0.7371  0.0458 -1.9221
   39CHL1   C13 4018   0.678   6.647   5.082  0.0457 -0.6503 -0.3281
   39CHL1   C18 4019   0.794   6.553   5.069 -0.3403  0.4553  0.5033
   39CHL1  H18A 4020   0.873   6.602   5.007 -0.8921 -0.0872 -0.6464
   39CHL1  H18B 4021   0.835   6.528   5.170 -0.6704  0.7214  0.7057
   39CHL1  H18C 4022   0.766   6.458   5.020  1.2372  1.1218 -1.8564
   39CHL1   C12 4023   0.722   6.777   5.142  0.6295  0.0913 -0.1671
   39CHL1  H12A 4024   0.805   6.826   5.087  0.1817 -0.8020 -1.6822
   39CHL1  H12B 4025   0.633   6.843   5.143  0.3400 -0.2305 -1.7099
   39CHL1   C11 4026   0.769   6.761   5.286 -0.0555 -0.5579 -0.5058
   39CHL1  H11A 4027   0.874   6.726   5.287 -1.1264 -4.0785 -0.1920
   39CHL1  H11B 4028   0.770   6.866   5.323  1.0585 -0.6918 -0.1434
   39CHL1    C9 4029   0.666   6.679   5.372 -0.1492 -0.7589  0.0615
   39CHL1    H9 4030   0.578   6.747   5.367  0.4135 -0.0204  0.0297
   39CHL1   C10 4031   0.696   6.667   5.525 -0.0579  1.3734 -0.2506
   39CHL1   C19 4032   0.831   6.595   5.534 -0.5393 -0.6345 -0.0510
   39CHL1  H19A 4033   0.853   6.569   5.640  0.5472 -1.8637 -0.5642
   39CHL1  H19B 4034   0.832   6.500   5.476  2.5735 -0.7630  0.0484
   39CHL1  H19C 4035   0.912   6.661   5.498 -2.5684  1.7830 -0.4862
   39CHL1    C1 4036   0.722   6.808   5.589 -0.4301 -0.1042  0.6662
   39CHL1   H1A 4037   0.814   6.859   5.553 -1.4580  2.5575  1.5141
   39CHL1   H1B 4038   0.628   6.861   5.564 -1.2166 -1.1782  1.2630
   39CHL1    C2 4039   0.737   6.805   5.746 -0.3612 -0.5381 -0.4474
   39CHL1   H2A 4040   0.766   6.902   5.793  2.0430 -2.1198  1.5488
   39CHL1   H2B 4041   0.822   6.741   5.777 -1.4257 -1.2783  1.0878
   39CHL1   C20 4042   0.688   6.671   4.814  0.4599 -0.4602 -0.7489
   39CHL1   H20 4043   0.775   6.603   4.807  1.1212  0.2410  0.3897
   39CHL1   C21 4044   0.757   6.813   4.818  0.4584  0.8258  0.0758
   39CHL1  H21A 4045   0.686   6.899   4.828 -0.8141 -0.2898  1.0732
   39CHL1  H21B 4046   0.831   6.844   4.741  1.5759 -0.4640  0.6006
   39CHL1  H21C 4047   0.832   6.808   4.900  0.2303 -1.5625  0.1851
   39CHL1   C22 4048   0.605   6.648   4.684  0.0141 -0.2670  0.5919
   39CHL1  H22A 4049   0.671   6.660   4.596 -0.4645 -2.2612 -0.0989
   39CHL1  H22B 4050   0.572   6.542   4.692  0.1378 -0.4131 -0.7253
   39CHL1   C23 4051   0.484   6.743   4.660  0.2335 -0.2422  0.8391
   39CHL1  H23A 4052   0.417   6.745   4.748  1.9109  1.1822  2.1489
   39CHL1  H23B 4053   0.522   6.847   4.659 -0.6506  0.1128 -1.5952
   39CHL1   C24 4054   0.416   6.716   4.523 -0.2813  0.4554  0.8177
   39CHL1  H24A 4055   0.497   6.706   4.448 -1.4642  0.6591 -0.5273
   39CHL1  H24B 4056   0.369   6.617   4.540  2.8661 -1.5414 -1.2818
   39CHL1   C25 4057   0.317   6.824   4.472  0.0881  0.3333 -0.7653
   39CHL1   H25 4058   0.240   6.848   4.548 -1.4170 -0.8299 -1.8721
   39CHL1   C26 4059   0.387   6.957   4.439  0.7619 -0.2019 -0.4211
   39CHL1  H26A 4060   0.448   6.947   4.346  0.0649 -0.6271 -0.8435
   39CHL1  H26B 4061   0.312   7.036   4.417  0.1709 -0.3290  1.0819
   39CHL1  H26C 4062   0.447   6.996   4.524  1.6842 -0.8852 -0.7351
   39CHL1   C27 4063   0.236   6.772   4.354 -0.3115 -0.1427 -0.2597
   39CHL1  H27A 4064   0.157   6.844   4.326 -1.0269 -1.1065 -0.7945
   39CHL1  H27B 4065   0.291   6.764   4.258 -1.9059 -0.5897 -1.1752
   39CHL1  H27C 4066   0.191   6.671   4.370 -1.5701  0.0351 -2.3141
   40CHL1    C3 4067   5.170   2.038   5.589 -0.6622  0.5647  0.4313
   40CHL1    H3 4068   5.077   2.096   5.569 -1.1452 -0.4937 -0.4728
   40CHL1    O3 4069   5.203   2.031   5.724  0.0474 -0.3697 -0.1677
   40CHL1   H3' 4070   5.299   2.037   5.724  0.0050  3.1122  2.0494
   40CHL1    C4 4071   5.154   1.899   5.540 -0.2740 -0.9099  0.4925
   40CHL1   H4A 4072   5.241   1.837   5.568  0.1025  1.0986  4.4383
   40CHL1   H4B 4073   5.062   1.859   5.588 -2.0211 -1.4060 -2.8950
   40CHL1    C5 4074   5.128   1.897   5.390  0.0179  0.6670 -0.6089
   40CHL1    C6 4075   5.017   1.838   5.342 -0.3577  0.3947  0.3639
   40CHL1    H6 4076   4.944   1.785   5.404  0.7339  1.2455  2.4791
   40CHL1    C7 4077   4.993   1.833   5.197 -0.7467  0.0659  0.5630
   40CHL1   H7A 4078   4.945   1.739   5.161 -2.8179  0.2658  2.5576
   40CHL1   H7B 4079   4.909   1.903   5.175 -0.2967  0.0397 -1.3835
   40CHL1    C8 4080   5.112   1.857   5.094 -0.0975  0.9881 -0.2150
   40CHL1    H8 4081   5.173   1.765   5.097 -1.8886 -0.2176  0.3282
   40CHL1   C14 4082   5.060   1.889   4.952 -0.1015 -0.1586 -0.5311
   40CHL1   H14 4083   5.006   1.985   4.967  1.1931  0.3475  1.1254
   40CHL1   C15 4084   4.962   1.794   4.890 -0.1017 -0.1132 -0.3766
   40CHL1  H15A 4085   4.999   1.692   4.915  1.3415  0.6546  0.7323
   40CHL1  H15B 4086   4.865   1.816   4.939  0.4379 -0.1074  0.7231
   40CHL1   C16 4087   4.957   1.824   4.742  0.6915  0.2318  0.1096
   40CHL1  H16A 4088   4.988   1.741   4.675  4.4729  1.4684  0.0878
   40CHL1  H16B 4089   4.858   1.871   4.723  1.0242  0.6847 -0.5716
   40CHL1   C17 4090   5.068   1.940   4.719 -0.3224  0.1181  0.3105
   40CHL1   H17 4091   5.019   2.038   4.736  1.0642  1.0936 -1.0707
   40CHL1   C13 4092   5.159   1.921   4.843 -0.3145  0.3876 -0.8611
   40CHL1   C18 4093   5.250   1.800   4.822 -0.6346  0.0968 -0.0498
   40CHL1  H18A 4094   5.326   1.784   4.902 -1.1855 -0.9961  0.2759
   40CHL1  H18B 4095   5.194   1.704   4.830 -0.9722  0.4210  2.5511
   40CHL1  H18C 4096   5.305   1.812   4.727 -1.7652 -3.0964 -1.2301
   40CHL1   C12 4097   5.236   2.042   4.891 -0.1007 -0.6575  0.4427
   40CHL1  H12A 4098   5.315   2.076   4.820  0.2531  0.8911  1.5217
   40CHL1  H12B 4099   5.165   2.127   4.885  2.4311  1.5104 -3.4737
   40CHL1   C11 4100   5.287   2.033   5.036  0.4048  0.1126 -1.2665
   40CHL1  H11A 4101   5.362   1.951   5.038 -0.4291 -0.6686  1.1480
   40CHL1  H11B 4102   5.341   2.120   5.080 -3.3255  0.1598  4.1242
   40CHL1    C9 4103   5.182   1.984   5.146 -0.3136  0.2978  0.4107
   40CHL1    H9 4104   5.111   2.068   5.156  2.1535  2.5770  0.0323
   40CHL1   C10 4105   5.230   1.976   5.297  0.3474  0.3819 -0.2992
   40CHL1   C19 4106   5.370   1.908   5.295 -0.6350 -0.1537  0.5438
   40CHL1  H19A 4107   5.447   1.985   5.273 -0.0098  0.2697  3.6410
   40CHL1  H19B 4108   5.399   1.865   5.394 -0.4500 -0.5083  0.3346
   40CHL1  H19C 4109   5.368   1.830   5.216  1.9380 -0.6655  0.8750
   40CHL1    C1 4110   5.233   2.120   5.364 -0.4347 -0.6327  0.0413
   40CHL1   H1A 4111   5.294   2.193   5.308 -2.4671  2.4443  1.5352
   40CHL1   H1B 4112   5.132   2.163   5.347 -0.5257 -1.8666 -3.2548
   40CHL1    C2 4113   5.280   2.114   5.512  0.0677 -0.1125  0.1061
   40CHL1   H2A 4114   5.275   2.221   5.543 -1.3174 -0.1602  0.1157
   40CHL1   H2B 4115   5.379   2.068   5.530  0.7521  1.1098 -0.3801
   40CHL1   C20 4116   5.131   1.934   4.576  0.0380 -0.2622 -0.6723
   40CHL1   H20 4117   5.174   1.833   4.555  1.0696 -0.1821  0.8335
   40CHL1   C21 4118   5.235   2.044   4.554  0.0033  0.9724  0.2825
   40CHL1  H21A 4119   5.278   2.029   4.452  1.9541  1.0839  1.0590
   40CHL1  H21B 4120   5.325   2.036   4.619  0.7273  2.6038 -0.4586
   40CHL1  H21C 4121   5.183   2.143   4.559 -2.5351 -0.3463  2.1638
   40CHL1   C22 4122   5.016   1.945   4.471 -1.2488 -0.8241  0.6376
   40CHL1  H22A 4123   4.951   1.855   4.479  0.1183 -1.8320  0.7888
   40CHL1  H22B 4124   4.963   2.042   4.485  0.3296 -0.2461  3.5521
   40CHL1   C23 4125   5.060   1.957   4.327 -0.1211  0.3126  0.0793
   40CHL1  H23A 4126   5.124   2.046   4.311 -2.5187  2.1680  0.3204
   40CHL1  H23B 4127   5.126   1.869   4.310 -1.2936 -0.7945  1.0440
   40CHL1   C24 4128   4.934   1.950   4.232  0.2331  0.4398  0.2855
   40CHL1  H24A 4129   4.918   1.842   4.213 -0.4785  0.8683 -1.7359
   40CHL1  H24B 4130   4.837   1.987   4.270 -0.0780  0.3738 -0.4418
   40CHL1   C25 4131   4.960   2.021   4.095 -0.8159  0.3545  0.7791
   40CHL1   H25 4132   5.001   2.123   4.113 -1.0313  0.5016  0.4399
   40CHL1   C26 4133   5.075   1.942   4.019  0.7088 -0.0863 -0.1949
   40CHL1  H26A 4134   5.086   1.977   3.914  0.1368  3.0398  0.6738
   40CHL1  H26B 4135   5.170   1.961   4.073 -1.3254 -0.4051  3.8797
   40CHL1  H26C 4136   5.057   1.833   4.026 -1.1358  0.2990  2.8346
   40CHL1   C27 4137   4.840   2.011   4.005 -0.4885  0.1033  0.5984
   40CHL1  H27A 4138   4.849   2.063   3.907  1.7557 -0.5913  0.3697
   40CHL1  H27B 4139   4.812   1.908   3.976  0.9715 -0.6012  1.5339
   40CHL1  H27C 4140   4.750   2.052   4.056 -1.8329  0.6301 -2.0496
   41CHL1    C3 4141   3.578   4.018   5.820 -0.5542 -0.4245 -0.5011
   41CHL1    H3 4142   3.630   4.116   5.813 -1.6522  0.3117  1.0649
   41CHL1    O3 4143   3.577   3.990   5.959  0.5576  0.5237  0.5173
   41CHL1   H3' 4144   3.566   3.896   5.975  0.5383  0.3870 -0.2534
   41CHL1    C4 4145   3.429   4.021   5.777 -0.9945  0.7907 -0.5875
   41CHL1   H4A 4146   3.381   3.922   5.797 -1.1029  0.8924 -0.3403
   41CHL1   H4B 4147   3.375   4.102   5.831 -0.7341  0.9627 -0.5822
   41CHL1    C5 4148   3.412   4.050   5.632 -0.1895 -0.5440  0.9763
   41CHL1    C6 4149   3.330   4.149   5.585 -0.5246  0.5261 -0.2901
   41CHL1    H6 4150   3.281   4.215   5.658  1.3126  2.2004 -0.5065
   41CHL1    C7 4151   3.316   4.186   5.443  0.1324  0.2017 -0.4215
   41CHL1   H7A 4152   3.212   4.210   5.411  0.1145 -0.5163 -0.9208
   41CHL1   H7B 4153   3.372   4.282   5.434  2.6226 -1.0108  1.1773
   41CHL1    C8 4154   3.375   4.079   5.342  0.3960  0.4694 -0.4879
   41CHL1    H8 4155   3.299   3.998   5.331 -2.1917  2.2927  2.1336
   41CHL1   C14 4156   3.392   4.140   5.204  0.6681  0.5948 -0.4560
   41CHL1   H14 4157   3.457   4.228   5.224  0.4536  0.3902  1.2036
   41CHL1   C15 4158   3.259   4.192   5.142  0.3278  0.2893  0.4373
   41CHL1  H15A 4159   3.178   4.116   5.143 -0.5553  1.1744 -1.3373
   41CHL1  H15B 4160   3.230   4.286   5.193  1.1769  2.0894 -2.2228
   41CHL1   C16 4161   3.303   4.227   4.994 -0.0564  0.3163  0.1550
   41CHL1  H16A 4162   3.230   4.187   4.920  0.2706  0.4849 -0.2626
   41CHL1  H16B 4163   3.307   4.335   4.970 -0.1790  0.6417  1.5348
   41CHL1   C17 4164   3.441   4.149   4.971 -0.2408  0.0428  1.2071
   41CHL1   H17 4165   3.523   4.222   4.986  0.7099 -0.5640 -0.7488
   41CHL1   C13 4166   3.459   4.051   5.092  0.4116 -0.5604 -0.3114
   41CHL1   C18 4167   3.387   3.919   5.070 -0.0265  0.0079  0.1222
   41CHL1  H18A 4168   3.404   3.859   5.162  1.6123 -0.7211 -0.6266
   41CHL1  H18B 4169   3.278   3.939   5.078 -0.2323  0.4969 -2.9155
   41CHL1  H18C 4170   3.427   3.856   4.988  0.7902 -0.1230  0.6180
   41CHL1   C12 4171   3.594   4.018   5.150 -0.0318 -0.3851  1.0122
   41CHL1  H12A 4172   3.648   3.942   5.089 -0.9309  0.4650 -0.9244
   41CHL1  H12B 4173   3.648   4.114   5.161 -1.8479  0.8189 -0.0263
   41CHL1   C11 4174   3.591   3.960   5.291 -0.8145 -1.1259 -0.5058
   41CHL1  H11A 4175   3.564   3.852   5.289  1.8838 -1.8921 -0.1350
   41CHL1  H11B 4176   3.691   3.962   5.339 -1.2984  1.1795  0.5164
   41CHL1    C9 4177   3.505   4.019   5.399 -0.2716 -0.4500 -0.0251
   41CHL1    H9 4178   3.565   4.112   5.412  0.3038 -0.8533  0.2651
   41CHL1   C10 4179   3.496   3.957   5.545 -0.2036  0.1186 -0.4358
   41CHL1   C19 4180   3.441   3.811   5.534  0.0635  0.2696 -0.0633
   41CHL1  H19A 4181   3.439   3.765   5.635  2.4342  1.5973  0.6690
   41CHL1  H19B 4182   3.354   3.812   5.465 -1.0845 -0.8920  1.3103
   41CHL1  H19C 4183   3.530   3.757   5.495  1.8254  0.9248  2.8026
   41CHL1    C1 4184   3.647   3.948   5.593  1.1812  0.3312 -0.7138
   41CHL1   H1A 4185   3.713   3.877   5.540  0.0188  0.7739 -2.8639
   41CHL1   H1B 4186   3.700   4.045   5.581  0.4228  1.1637  1.8735
   41CHL1    C2 4187   3.654   3.916   5.745 -0.1795 -0.2322  0.1714
   41CHL1   H2A 4188   3.761   3.904   5.775 -0.0797  0.5159  0.1158
   41CHL1   H2B 4189   3.611   3.813   5.749 -1.9035  0.4695  0.0591
   41CHL1   C20 4190   3.442   4.103   4.822  0.1228 -0.5678  0.3577
   41CHL1   H20 4191   3.359   4.032   4.801 -0.2116  0.2421 -1.2394
   41CHL1   C21 4192   3.571   4.029   4.790  0.7515 -0.2128  0.4317
   41CHL1  H21A 4193   3.584   4.004   4.683  2.1135  0.3993  0.4346
   41CHL1  H21B 4194   3.576   3.932   4.845 -0.3111 -0.0943  0.7638
   41CHL1  H21C 4195   3.661   4.086   4.822  1.4096 -0.7331 -0.4446
   41CHL1   C22 4196   3.428   4.222   4.718 -0.3510  1.1166  0.2212
   41CHL1  H22A 4197   3.441   4.318   4.773  1.4710  0.6675  0.6563
   41CHL1  H22B 4198   3.511   4.223   4.643  0.9831  1.8245  1.6431
   41CHL1   C23 4199   3.295   4.228   4.646  0.6985 -0.0028 -0.0443
   41CHL1  H23A 4200   3.277   4.128   4.600  1.9181  0.3751 -1.4282
   41CHL1  H23B 4201   3.212   4.247   4.717  0.4355 -0.3030 -0.2668
   41CHL1   C24 4202   3.293   4.332   4.533 -0.3055  0.4031  0.0562
   41CHL1  H24A 4203   3.356   4.419   4.562 -0.7441 -0.1399  2.9848
   41CHL1  H24B 4204   3.326   4.298   4.433  1.8240 -2.2324  1.5088
   41CHL1   C25 4205   3.146   4.383   4.520  0.0894 -0.2481  0.3448
   41CHL1   H25 4206   3.118   4.417   4.622 -0.6700 -0.3047  0.1625
   41CHL1   C26 4207   3.158   4.508   4.437  0.0632 -0.2165  0.1891
   41CHL1  H26A 4208   3.225   4.586   4.479 -0.9959 -0.6957  2.9872
   41CHL1  H26B 4209   3.175   4.492   4.328  0.3811 -2.0161  0.4806
   41CHL1  H26C 4210   3.056   4.553   4.438 -0.0457 -0.4277 -0.5405
   41CHL1   C27 4211   3.045   4.285   4.464 -0.7278  0.4555  0.1265
   41CHL1  H27A 4212   2.949   4.341   4.463 -1.0595 -0.0901  0.5833
   41CHL1  H27B 4213   3.074   4.262   4.360  0.5471  0.1772  0.5218
   41CHL1  H27C 4214   3.037   4.201   4.536  3.7379 -1.0829 -0.8753
   42CHL1    C3 4215   1.408   5.369   6.011  0.4658 -0.3163  0.2514
   42CHL1    H3 4216   1.464   5.273   6.007  2.3679  0.6932  1.1969
   42CHL1    O3 4217   1.334   5.366   6.135 -0.0750 -0.0441 -0.3832
   42CHL1   H3' 4218   1.284   5.447   6.124  1.0422  0.5498 -1.3116
   42CHL1    C4 4219   1.510   5.484   6.020  0.0427 -0.2471  0.3530
   42CHL1   H4A 4220   1.456   5.577   6.049  0.4974 -0.3706  1.6938
   42CHL1   H4B 4221   1.577   5.463   6.107  0.4732 -0.9121 -0.1230
   42CHL1    C5 4222   1.591   5.496   5.897 -0.7373 -0.0521  0.0376
   42CHL1    C6 4223   1.726   5.487   5.902 -0.7546 -0.0541 -0.1512
   42CHL1    H6 4224   1.782   5.463   5.993  0.0893 -0.0167 -0.6497
   42CHL1    C7 4225   1.809   5.513   5.773  0.1977  0.7134 -0.1303
   42CHL1   H7A 4226   1.898   5.578   5.787  0.2245  0.1476  3.0498
   42CHL1   H7B 4227   1.851   5.412   5.753  0.2956  0.1073  2.7390
   42CHL1    C8 4228   1.727   5.561   5.645 -0.0793  0.8066 -0.1925
   42CHL1    H8 4229   1.711   5.670   5.638 -0.1158  0.8299  0.2035
   42CHL1   C14 4230   1.814   5.531   5.524  0.4349  0.5666 -0.3330
   42CHL1   H14 4231   1.829   5.421   5.523 -0.9943  0.3471 -0.4573
   42CHL1   C15 4232   1.957   5.582   5.530 -0.7414  0.5631  0.8297
   42CHL1  H15A 4233   1.968   5.690   5.554 -1.2416  1.0088 -0.7945
   42CHL1  H15B 4234   2.015   5.520   5.602 -3.6341 -2.6606  0.6493
   42CHL1   C16 4235   2.009   5.547   5.383 -0.0882  0.1103 -0.7084
   42CHL1  H16A 4236   2.067   5.635   5.349 -0.7196  0.4739 -0.8621
   42CHL1  H16B 4237   2.080   5.462   5.383  0.8737  0.8413  2.0175
   42CHL1   C17 4238   1.877   5.529   5.296  0.0425 -0.2919 -0.1747
   42CHL1   H17 4239   1.861   5.419   5.296 -0.9151 -0.5339  6.1758
   42CHL1   C13 4240   1.755   5.570   5.388  1.0482 -0.5785 -0.5537
   42CHL1   C18 4241   1.745   5.719   5.377  0.3914 -0.4554 -0.4863
   42CHL1  H18A 4242   1.676   5.769   5.448  1.9754  1.2198 -0.0429
   42CHL1  H18B 4243   1.843   5.773   5.375 -0.2939  0.9371  1.2904
   42CHL1  H18C 4244   1.711   5.751   5.276  0.8314  1.3992 -0.0958
   42CHL1   C12 4245   1.614   5.499   5.373  0.0540 -0.0665  0.2637
   42CHL1  H12A 4246   1.552   5.542   5.292  2.8692  2.2926 -0.8049
   42CHL1  H12B 4247   1.633   5.389   5.365  0.3204 -0.3404  3.4398
   42CHL1   C11 4248   1.524   5.522   5.503 -0.8281 -0.3722 -0.1398
   42CHL1  H11A 4249   1.501   5.630   5.514 -2.7269 -0.7549  0.0495
   42CHL1  H11B 4250   1.432   5.464   5.478 -1.6785  1.0074 -0.3326
   42CHL1    C9 4251   1.589   5.492   5.639 -0.7869 -0.2607 -0.4520
   42CHL1    H9 4252   1.619   5.385   5.638  0.9076  0.1508  1.3493
   42CHL1   C10 4253   1.503   5.518   5.764  0.4410  0.2128 -0.3089
   42CHL1   C19 4254   1.444   5.662   5.761 -0.3827 -0.1056  0.5550
   42CHL1  H19A 4255   1.365   5.671   5.683  1.1490 -0.0586 -1.0727
   42CHL1  H19B 4256   1.409   5.684   5.864  0.2345  0.7267  0.6004
   42CHL1  H19C 4257   1.531   5.727   5.736 -0.6761  0.2874  0.5595
   42CHL1    C1 4258   1.388   5.402   5.765 -0.1256 -0.3076  0.6748
   42CHL1   H1A 4259   1.323   5.418   5.676  1.2107 -0.7560 -0.4261
   42CHL1   H1B 4260   1.443   5.306   5.753  0.0402 -0.3419  1.6702
   42CHL1    C2 4261   1.306   5.384   5.895 -0.1715  1.1393  0.7335
   42CHL1   H2A 4262   1.240   5.294   5.889  1.5284 -0.1724  0.8711
   42CHL1   H2B 4263   1.243   5.475   5.903 -0.6631  1.0111 -1.1558
   42CHL1   C20 4264   1.885   5.586   5.150  0.3700 -0.4292  0.1505
   42CHL1   H20 4265   1.896   5.697   5.151 -2.3060 -0.1067  0.7415
   42CHL1   C21 4266   1.752   5.557   5.077 -0.3441 -0.4222  0.4830
   42CHL1  H21A 4267   1.749   5.618   4.984 -0.8097 -0.4483  0.4785
   42CHL1  H21B 4268   1.669   5.602   5.136  0.4129  0.4804  0.8854
   42CHL1  H21C 4269   1.737   5.449   5.053 -1.7147 -0.0093 -0.6509
   42CHL1   C22 4270   2.003   5.512   5.072 -0.0914 -0.3093 -0.2162
   42CHL1  H22A 4271   2.097   5.519   5.130 -0.6971 -0.4562  0.8019
   42CHL1  H22B 4272   1.973   5.405   5.079  1.0793 -0.5392  2.5684
   42CHL1   C23 4273   2.036   5.570   4.937  0.7415  0.0429  0.1172
   42CHL1  H23A 4274   1.994   5.491   4.871 -1.3908 -1.2011  2.7678
   42CHL1  H23B 4275   1.979   5.664   4.918 -1.8368 -1.7889 -2.1430
   42CHL1   C24 4276   2.182   5.574   4.916 -0.3198  0.3612 -0.4760
   42CHL1  H24A 4277   2.230   5.640   4.992 -0.2282 -0.1761 -0.0650
   42CHL1  H24B 4278   2.232   5.476   4.933  0.0868  0.7816  0.9358
   42CHL1   C25 4279   2.227   5.621   4.774 -0.1758 -0.1916  0.2131
   42CHL1   H25 4280   2.153   5.576   4.704 -0.6824 -1.6056  1.6225
   42CHL1   C26 4281   2.215   5.773   4.743 -0.1720  0.9896  0.4175
   42CHL1  H26A 4282   2.262   5.786   4.643 -1.5251  0.1067 -0.3498
   42CHL1  H26B 4283   2.110   5.808   4.738 -0.0298  1.2662 -1.0281
   42CHL1  H26C 4284   2.269   5.839   4.815 -0.1318 -0.0870  1.3956
   42CHL1   C27 4285   2.373   5.578   4.742 -0.6484 -0.2352  0.0045
   42CHL1  H27A 4286   2.438   5.619   4.823  0.7346  0.7189 -1.5259
   42CHL1  H27B 4287   2.384   5.467   4.738 -0.1318 -0.2967  1.9026
   42CHL1  H27C 4288   2.406   5.609   4.641 -1.0281 -2.1440 -0.7493
   43CHL1    C3 4289   4.413   0.040   6.032 -0.0721 -0.1739 -0.3680
   43CHL1    H3 4290   4.506   0.034   5.972  0.1106 -2.2727  0.0642
   43CHL1    O3 4291   4.444   0.097   6.158 -0.7643  0.1671 -0.0694
   43CHL1   H3' 4292   4.357   0.111   6.197 -0.0133  1.7303  1.1239
   43CHL1    C4 4293   4.302   0.119   5.963 -0.3874  0.6274  0.3338
   43CHL1   H4A 4294   4.213   0.115   6.029 -0.9297  0.2474 -0.4062
   43CHL1   H4B 4295   4.333   0.226   5.960 -0.7986  0.9095  3.2196
   43CHL1    C5 4296   4.278   0.061   5.825  0.0265  0.0545 -0.6007
   43CHL1    C6 4297   4.290   0.137   5.716  0.0107 -0.8077 -0.2925
   43CHL1    H6 4298   4.324   0.242   5.716  1.3514 -1.2118  0.4948
   43CHL1    C7 4299   4.258   0.085   5.574  1.4815  0.2691 -0.5798
   43CHL1   H7A 4300   4.204   0.164   5.519 -0.0043 -0.1006  0.3099
   43CHL1   H7B 4301   4.349   0.063   5.514  0.9118 -1.3811 -0.8894
   43CHL1    C8 4302   4.177  -0.051   5.579  0.0589 -0.2569 -0.4991
   43CHL1    H8 4303   4.068  -0.035   5.596 -0.3245 -2.3185 -0.7131
   43CHL1   C14 4304   4.177  -0.114   5.443 -0.0308 -0.1866 -0.0506
   43CHL1   H14 4305   4.284  -0.131   5.418  0.1544 -0.0069  0.5897
   43CHL1   C15 4306   4.126  -0.032   5.322 -0.5004  0.1078  0.0549
   43CHL1  H15A 4307   4.027   0.014   5.343  0.1971  0.7295  2.2031
   43CHL1  H15B 4308   4.188   0.053   5.288 -1.1928 -0.1209 -1.9477
   43CHL1   C16 4309   4.102  -0.134   5.210  0.0396 -0.4537 -0.4430
   43CHL1  H16A 4310   4.010  -0.118   5.150 -0.0693  0.0408 -0.1555
   43CHL1  H16B 4311   4.184  -0.130   5.135 -1.7893  1.8525 -2.5151
   43CHL1   C17 4312   4.111  -0.272   5.278 -0.0130  0.2072  0.0304
   43CHL1   H17 4313   4.215  -0.311   5.270  0.5105  0.9750  2.1150
   43CHL1   C13 4314   4.106  -0.250   5.432 -0.0244 -0.7656 -0.2584
   43CHL1   C18 4315   3.962  -0.236   5.479  0.1797 -1.0820 -0.3473
   43CHL1  H18A 4316   3.958  -0.206   5.585  0.8409 -1.4797 -0.2023
   43CHL1  H18B 4317   3.904  -0.163   5.418 -0.5069 -1.5342 -0.2445
   43CHL1  H18C 4318   3.911  -0.334   5.475  1.7319 -1.9254 -0.3071
   43CHL1   C12 4319   4.193  -0.343   5.520 -0.2245 -0.4657  0.5131
   43CHL1  H12A 4320   4.150  -0.446   5.517  1.0298 -0.9879 -0.9124
   43CHL1  H12B 4321   4.293  -0.351   5.473  1.1728  1.5865  2.8959
   43CHL1   C11 4322   4.209  -0.290   5.666  0.1551 -0.0248  0.8470
   43CHL1  H11A 4323   4.109  -0.312   5.708 -1.5051  0.9771 -2.2569
   43CHL1  H11B 4324   4.279  -0.350   5.728  0.8592  1.2117  1.2841
   43CHL1    C9 4325   4.246  -0.138   5.682  0.3718  0.7600  0.3486
   43CHL1    H9 4326   4.352  -0.136   5.648 -0.2619 -2.0180 -2.3391
   43CHL1   C10 4327   4.235  -0.087   5.827  0.3303 -0.3735  0.4826
   43CHL1   C19 4328   4.093  -0.102   5.878 -0.6174 -0.3463  0.0606
   43CHL1  H19A 4329   4.069  -0.052   5.973 -1.1736  2.1893 -1.3358
   43CHL1  H19B 4330   4.020  -0.056   5.808  0.7466  0.8648 -0.6082
   43CHL1  H19C 4331   4.061  -0.207   5.893 -0.6430 -0.0722  2.1124
   43CHL1    C1 4332   4.338  -0.162   5.918  0.3597  0.4385 -0.3516
   43CHL1   H1A 4333   4.296  -0.264   5.931 -1.2790  1.1484  0.1732
   43CHL1   H1B 4334   4.433  -0.185   5.865  0.3009 -0.1608 -0.1981
   43CHL1    C2 4335   4.371  -0.096   6.053 -0.1978  0.1790  0.1655
   43CHL1   H2A 4336   4.456  -0.153   6.098 -1.4210 -0.7040  1.4430
   43CHL1   H2B 4337   4.275  -0.108   6.107 -0.7639  1.2469 -0.5581
   43CHL1   C20 4338   4.022  -0.377   5.207 -0.7766 -0.5043  0.5051
   43CHL1   H20 4339   3.915  -0.348   5.220 -0.9295 -0.2966 -0.9906
   43CHL1   C21 4340   4.037  -0.516   5.271  0.4485  0.1947 -0.5755
   43CHL1  H21A 4341   3.979  -0.510   5.365  2.2868  0.5154  0.5900
   43CHL1  H21B 4342   4.143  -0.530   5.300  0.8246 -0.2807 -2.0605
   43CHL1  H21C 4343   4.001  -0.609   5.220  0.6256  0.8543 -1.9598
   43CHL1   C22 4344   4.058  -0.380   5.062  0.0070  0.1453 -0.4744
   43CHL1  H22A 4345   4.015  -0.290   5.015 -1.2886 -0.9869 -1.5490
   43CHL1  H22B 4346   4.165  -0.370   5.036 -0.2845  2.1958 -1.0646
   43CHL1   C23 4347   4.014  -0.509   4.990 -0.7043  0.2339 -0.5918
   43CHL1  H23A 4348   4.075  -0.600   5.004 -1.7273 -0.3474  0.3014
   43CHL1  H23B 4349   3.909  -0.545   5.004 -0.6395  0.0216 -0.6504
   43CHL1   C24 4350   4.031  -0.472   4.843  0.8882 -0.1226 -0.3068
   43CHL1  H24A 4351   3.978  -0.376   4.823 -0.8580 -1.2266 -1.2259
   43CHL1  H24B 4352   4.139  -0.463   4.822  1.3217 -3.4864 -0.0677
   43CHL1   C25 4353   3.971  -0.566   4.736  0.1485  0.7036  0.1596
   43CHL1   H25 4354   3.872  -0.602   4.772  0.8085 -0.8366  0.5234
   43CHL1   C26 4355   3.958  -0.501   4.605 -0.8405 -0.2938  0.4118
   43CHL1  H26A 4356   4.056  -0.463   4.570 -0.7558 -2.4436 -2.0055
   43CHL1  H26B 4357   3.932  -0.585   4.536  0.0512  0.7040 -1.2042
   43CHL1  H26C 4358   3.880  -0.423   4.594 -1.0770 -0.3287  1.7320
   43CHL1   C27 4359   4.067  -0.683   4.727  0.2440  0.8539  0.2838
   43CHL1  H27A 4360   4.030  -0.752   4.647  1.6973 -1.3378  1.4035
   43CHL1  H27B 4361   4.167  -0.656   4.689  1.2504 -0.0897  2.1233
   43CHL1  H27C 4362   4.085  -0.747   4.816  0.5610  0.4234 -0.0839
   44CHL1    C3 4363   2.356   2.350   5.817  0.1452  0.2056 -0.6127
   44CHL1    H3 4364   2.310   2.449   5.835 -1.3801  0.2949 -4.1583
   44CHL1    O3 4365   2.432   2.318   5.934  0.2095 -0.0407  0.1205
   44CHL1   H3' 4366   2.456   2.403   5.971  0.8807 -1.0782  2.2775
   44CHL1    C4 4367   2.249   2.249   5.806 -0.2413  0.2423 -0.0915
   44CHL1   H4A 4368   2.291   2.148   5.826 -0.8866  0.0902  0.5308
   44CHL1   H4B 4369   2.190   2.264   5.899  2.0482 -0.3422  1.5443
   44CHL1    C5 4370   2.165   2.260   5.680 -0.3396 -0.5645 -0.6523
   44CHL1    C6 4371   2.029   2.259   5.689 -0.3584  0.3467 -0.3129
   44CHL1    H6 4372   1.995   2.267   5.793  1.6944  1.8571  0.3071
   44CHL1    C7 4373   1.922   2.276   5.579 -0.5583  0.1265 -1.3430
   44CHL1   H7A 4374   1.849   2.192   5.581  1.8674 -2.1155  1.1903
   44CHL1   H7B 4375   1.889   2.382   5.577  0.1519  0.3550 -1.1881
   44CHL1    C8 4376   1.995   2.251   5.444  0.6560 -0.2144  0.2865
   44CHL1    H8 4377   1.997   2.140   5.434 -0.5738 -0.0709 -2.6090
   44CHL1   C14 4378   1.913   2.308   5.326  0.9719  0.3878 -0.1506
   44CHL1   H14 4379   1.918   2.416   5.352  0.3625  0.3641  0.0821
   44CHL1   C15 4380   1.758   2.286   5.312  0.5717 -0.0605  0.5322
   44CHL1  H15A 4381   1.720   2.185   5.338  0.3469  0.7280  3.6275
   44CHL1  H15B 4382   1.702   2.353   5.381  0.7776 -1.4887  2.1379
   44CHL1   C16 4383   1.731   2.317   5.162  0.4320  0.0969  0.6718
   44CHL1  H16A 4384   1.706   2.218   5.117 -0.4346  0.5663  0.1100
   44CHL1  H16B 4385   1.650   2.390   5.141  2.0897  2.0035  0.5693
   44CHL1   C17 4386   1.866   2.362   5.103 -0.0731 -0.0731  0.2954
   44CHL1   H17 4387   1.886   2.469   5.125  0.0096  0.0740 -0.4768
   44CHL1   C13 4388   1.978   2.291   5.183  0.0766 -0.2814 -0.4603
   44CHL1   C18 4389   1.995   2.140   5.149 -0.2854 -0.0172 -0.3619
   44CHL1  H18A 4390   1.898   2.103   5.110  0.1557 -0.5427 -0.9859
   44CHL1  H18B 4391   2.070   2.130   5.067 -0.2757  3.3819 -0.9139
   44CHL1  H18C 4392   2.020   2.080   5.239 -2.0251  1.3588  1.1180
   44CHL1   C12 4393   2.126   2.360   5.181  0.3169  0.3446 -0.2315
   44CHL1  H12A 4394   2.167   2.352   5.078  0.7382  2.1102 -0.2163
   44CHL1  H12B 4395   2.122   2.466   5.212  0.0699  0.1340  0.4819
   44CHL1   C11 4396   2.211   2.306   5.291  0.2119  0.1490 -0.1452
   44CHL1  H11A 4397   2.241   2.201   5.267 -0.0916 -0.4946  1.9813
   44CHL1  H11B 4398   2.304   2.366   5.302 -0.0018  0.2299  1.6242
   44CHL1    C9 4399   2.139   2.314   5.440  0.0618  0.3129 -0.0022
   44CHL1    H9 4400   2.120   2.422   5.455  0.5785  0.7035 -1.8715
   44CHL1   C10 4401   2.241   2.282   5.551  0.0308 -0.2433  0.0715
   44CHL1   C19 4402   2.313   2.151   5.522 -0.4276  0.5314 -0.7869
   44CHL1  H19A 4403   2.247   2.069   5.486  1.4300 -1.0629 -0.7056
   44CHL1  H19B 4404   2.397   2.163   5.450  1.4596 -0.9703  1.0463
   44CHL1  H19C 4405   2.376   2.112   5.605 -0.4505 -2.3301 -1.9961
   44CHL1    C1 4406   2.349   2.392   5.568  0.0245 -0.1272 -0.1839
   44CHL1   H1A 4407   2.414   2.399   5.478 -1.0834  0.8804 -0.9441
   44CHL1   H1B 4408   2.293   2.487   5.582 -0.5763 -0.5195  0.1466
   44CHL1    C2 4409   2.442   2.371   5.688 -0.2388  0.1368  0.2620
   44CHL1   H2A 4410   2.504   2.461   5.702  1.5543 -0.9178 -0.5300
   44CHL1   H2B 4411   2.525   2.297   5.687 -0.4324 -0.2053  2.8188
   44CHL1   C20 4412   1.868   2.344   4.950 -0.2991  0.3377  0.4798
   44CHL1   H20 4413   1.891   2.238   4.924 -0.6236  0.3889 -0.0375
   44CHL1   C21 4414   1.975   2.436   4.880 -0.5104  0.5842  0.0919
   44CHL1  H21A 4415   1.971   2.542   4.914 -0.1534  0.5155  0.3459
   44CHL1  H21B 4416   1.963   2.433   4.770 -0.6405 -1.6398  0.1333
   44CHL1  H21C 4417   2.077   2.399   4.902 -0.1041  0.9581 -1.0687
   44CHL1   C22 4418   1.738   2.368   4.877 -0.1629 -0.0464  1.2222
   44CHL1  H22A 4419   1.758   2.346   4.770  0.7855 -1.4351  1.6458
   44CHL1  H22B 4420   1.662   2.294   4.910 -0.2462 -1.0989 -1.1270
   44CHL1   C23 4421   1.675   2.510   4.893 -0.1461  0.0557  0.9825
   44CHL1  H23A 4422   1.692   2.530   5.001  0.5276 -0.3998  0.9691
   44CHL1  H23B 4423   1.728   2.586   4.832  0.6661  0.3540  2.0248
   44CHL1   C24 4424   1.528   2.496   4.860 -0.0553 -1.4299 -0.1765
   44CHL1  H24A 4425   1.515   2.486   4.750 -3.1345 -0.9192  0.0397
   44CHL1  H24B 4426   1.480   2.411   4.914 -3.6232  1.4431  1.6606
   44CHL1   C25 4427   1.458   2.628   4.915  0.3162 -0.0139 -0.2477
   44CHL1   H25 4428   1.359   2.613   4.867  0.6154 -0.8496 -0.6268
   44CHL1   C26 4429   1.434   2.623   5.068 -0.3405  0.3976 -0.4578
   44CHL1  H26A 4430   1.358   2.694   5.109  1.0585  0.8340  1.4981
   44CHL1  H26B 4431   1.397   2.521   5.093  0.3841  0.0446 -0.8241
   44CHL1  H26C 4432   1.528   2.648   5.122 -1.4670  0.5985  1.5063
   44CHL1   C27 4433   1.509   2.766   4.875  0.4248 -0.4725 -0.2903
   44CHL1  H27A 4434   1.428   2.833   4.909 -1.1739 -0.8558 -3.0222
   44CHL1  H27B 4435   1.603   2.799   4.926  0.0409  1.6154 -0.8268
   44CHL1  H27C 4436   1.518   2.769   4.764  0.7179 -2.1370 -0.3282
   45CHL1    C3 4437   3.423   2.465   5.835  0.2779  0.1817 -0.5209
   45CHL1    H3 4438   3.488   2.377   5.817 -0.6937 -0.4881 -0.8913
   45CHL1    O3 4439   3.460   2.538   5.951 -0.5553  0.4818 -0.0100
   45CHL1   H3' 4440   3.406   2.617   5.956  0.9648  1.7292 -1.7938
   45CHL1    C4 4441   3.422   2.563   5.713  0.4726 -0.4404  0.0997
   45CHL1   H4A 4442   3.373   2.660   5.735  1.2113  0.3794 -1.6879
   45CHL1   H4B 4443   3.527   2.595   5.694  0.7547 -1.2505  0.2272
   45CHL1    C5 4444   3.358   2.512   5.594  0.6853  0.0667 -0.0955
   45CHL1    C6 4445   3.429   2.499   5.480 -0.4382  0.3858 -0.6627
   45CHL1    H6 4446   3.536   2.525   5.481 -0.0960 -0.9445 -1.2739
   45CHL1    C7 4447   3.379   2.462   5.344  0.5619 -0.3240  0.5996
   45CHL1   H7A 4448   3.407   2.547   5.278 -0.5371 -0.1351  0.3613
   45CHL1   H7B 4449   3.411   2.369   5.291 -1.9303  0.1980 -2.0999
   45CHL1    C8 4450   3.225   2.457   5.349  0.2196  0.5169 -0.2579
   45CHL1    H8 4451   3.178   2.557   5.346  0.7311  0.8157  0.8899
   45CHL1   C14 4452   3.185   2.378   5.219  0.0342  0.1989 -0.1884
   45CHL1   H14 4453   3.215   2.272   5.233 -0.7995  0.2844  3.2225
   45CHL1   C15 4454   3.247   2.426   5.088  0.0710 -1.0231 -0.3520
   45CHL1  H15A 4455   3.244   2.536   5.106 -4.2160 -1.1497  0.5607
   45CHL1  H15B 4456   3.348   2.387   5.063  0.8242  0.8277 -0.3877
   45CHL1   C16 4457   3.139   2.381   4.991  0.0790 -0.4789  0.3629
   45CHL1  H16A 4458   3.101   2.473   4.942  0.5322 -0.7779 -0.5762
   45CHL1  H16B 4459   3.197   2.320   4.920 -0.4857 -1.1843  0.4904
   45CHL1   C17 4460   3.030   2.305   5.067  0.1589 -0.0610 -0.0978
   45CHL1   H17 4461   3.066   2.200   5.069 -0.3187 -0.2451 -0.9307
   45CHL1   C13 4462   3.035   2.363   5.205  0.4221  0.6728  0.0709
   45CHL1   C18 4463   2.963   2.499   5.202  0.0508 -0.8645 -0.1430
   45CHL1  H18A 4464   2.941   2.541   5.302  1.1868  1.1881 -0.6955
   45CHL1  H18B 4465   3.029   2.568   5.146  0.1325  0.9158  2.0279
   45CHL1  H18C 4466   2.867   2.492   5.147 -1.1957  0.0035  1.8127
   45CHL1   C12 4467   2.989   2.277   5.330  0.4425  0.1542 -0.1998
   45CHL1  H12A 4468   2.879   2.267   5.343  0.1855 -1.7247 -2.9659
   45CHL1  H12B 4469   3.038   2.178   5.318  1.9089  0.8769 -0.4306
   45CHL1   C11 4470   3.029   2.326   5.473  0.0014 -0.1763  0.1227
   45CHL1  H11A 4471   2.956   2.407   5.496  0.5666 -0.0867  1.7256
   45CHL1  H11B 4472   3.024   2.262   5.564  1.2510 -0.6424 -0.1212
   45CHL1    C9 4473   3.179   2.379   5.473 -0.2834 -0.4575  0.1220
   45CHL1    H9 4474   3.244   2.289   5.469  0.3649  0.0536 -1.6926
   45CHL1   C10 4475   3.215   2.457   5.608  0.0692 -0.3611 -0.2618
   45CHL1   C19 4476   3.112   2.574   5.626  0.3849 -0.8169  0.0813
   45CHL1  H19A 4477   3.152   2.645   5.701  0.5117 -0.2209 -0.5385
   45CHL1  H19B 4478   3.092   2.627   5.530 -0.9414 -0.7972  0.3433
   45CHL1  H19C 4479   3.014   2.532   5.660 -0.3860 -0.4387 -1.5671
   45CHL1    C1 4480   3.217   2.358   5.729  0.1627 -0.1077 -0.4769
   45CHL1   H1A 4481   3.113   2.333   5.760  1.9654 -0.4942  7.2753
   45CHL1   H1B 4482   3.288   2.275   5.711 -0.8032 -0.7013 -1.7359
   45CHL1    C2 4483   3.278   2.418   5.860  0.3015 -0.0658 -0.0608
   45CHL1   H2A 4484   3.277   2.333   5.931  1.8725 -1.1749 -1.2873
   45CHL1   H2B 4485   3.217   2.502   5.900  0.9718 -0.8402  2.7741
   45CHL1   C20 4486   2.902   2.294   4.975 -0.1627  0.3003 -0.6375
   45CHL1   H20 4487   2.871   2.397   4.948 -0.6640 -0.8429 -5.3428
   45CHL1   C21 4488   2.807   2.205   5.065 -0.3604  0.1282 -0.2459
   45CHL1  H21A 4489   2.785   2.269   5.153  0.8961  2.1363 -1.3207
   45CHL1  H21B 4490   2.857   2.113   5.101  0.8240  1.3181  1.3203
   45CHL1  H21C 4491   2.710   2.186   5.015  0.0342 -0.8341 -0.6833
   45CHL1   C22 4492   2.933   2.215   4.843 -1.0620 -0.1658 -0.3450
   45CHL1  H22A 4493   2.991   2.279   4.773 -2.1054  0.9124 -0.2617
   45CHL1  H22B 4494   3.002   2.129   4.857 -0.4829 -0.0652 -2.2775
   45CHL1   C23 4495   2.825   2.161   4.756  0.4020  0.1664 -0.6825
   45CHL1  H23A 4496   2.773   2.084   4.818  1.1562  1.9162  2.2839
   45CHL1  H23B 4497   2.750   2.233   4.719  0.0543  0.4239  0.4925
   45CHL1   C24 4498   2.881   2.113   4.619 -0.8979 -0.2423 -0.3196
   45CHL1  H24A 4499   2.945   2.196   4.581 -0.5569 -0.2018  0.3227
   45CHL1  H24B 4500   2.939   2.019   4.635 -1.3748 -0.4225  0.3939
   45CHL1   C25 4501   2.765   2.084   4.513 -0.7808  0.0154  0.2189
   45CHL1   H25 4502   2.694   2.169   4.503 -0.2495  0.7301  2.1798
   45CHL1   C26 4503   2.835   2.066   4.371 -0.3445  0.3750  0.4115
   45CHL1  H26A 4504   2.878   1.964   4.359 -1.6945 -0.1098 -0.4313
   45CHL1  H26B 4505   2.759   2.078   4.291 -1.9854  0.7200  1.9595
   45CHL1  H26C 4506   2.917   2.141   4.363  1.7931 -1.6090  1.9199
   45CHL1   C27 4507   2.677   1.962   4.536 -0.0014  1.0542  0.3480
   45CHL1  H27A 4508   2.757   1.886   4.532  0.9149  2.0348 -0.9790
   45CHL1  H27B 4509   2.606   1.956   4.621 -0.7872 -1.0574 -0.4128
   45CHL1  H27C 4510   2.621   1.946   4.441  0.2938 -0.4228  0.4101
   46CHL1    C3 4511   1.926   3.142   5.622 -0.1233 -0.2835 -0.0000
   46CHL1    H3 4512   1.996   3.069   5.575  0.7582  0.3157  0.3669
   46CHL1    O3 4513   1.911   3.126   5.766 -0.2278  0.0215 -0.4788
   46CHL1   H3' 4514   1.828   3.169   5.785  0.7768  2.0880 -0.4622
   46CHL1    C4 4515   1.973   3.287   5.598 -0.0694 -0.0356  0.5591
   46CHL1   H4A 4516   1.903   3.357   5.647 -1.5905 -1.7264  0.8859
   46CHL1   H4B 4517   2.075   3.300   5.640 -0.1908 -0.6405  1.0554
   46CHL1    C5 4518   1.976   3.328   5.452  0.0860 -0.3990 -0.4481
   46CHL1    C6 4519   2.085   3.382   5.396 -0.1057 -0.0850 -0.2649
   46CHL1    H6 4520   2.174   3.399   5.459 -0.8611  2.0778  0.3028
   46CHL1    C7 4521   2.101   3.430   5.256 -0.3938 -0.5976  0.0813
   46CHL1   H7A 4522   2.160   3.523   5.247 -0.7198 -0.2990  0.9302
   46CHL1   H7B 4523   2.177   3.364   5.209  1.9332  1.2270  1.0893
   46CHL1    C8 4524   1.967   3.432   5.179  0.5288 -0.0721  0.7231
   46CHL1    H8 4525   1.908   3.521   5.209  0.4656  0.1830 -0.1260
   46CHL1   C14 4526   2.003   3.438   5.028  0.1796  0.0379 -0.1204
   46CHL1   H14 4527   2.069   3.352   5.003 -0.7974 -0.2567 -1.8023
   46CHL1   C15 4528   2.076   3.565   4.988  0.4707  0.1841 -0.3841
   46CHL1  H15A 4529   2.044   3.650   5.051  0.6731  0.2410 -0.3579
   46CHL1  H15B 4530   2.186   3.548   4.998  0.4623  1.0275  1.7220
   46CHL1   C16 4531   2.048   3.573   4.842  0.5704 -0.4339 -0.4371
   46CHL1  H16A 4532   2.001   3.670   4.818 -1.8513 -0.2819  3.8062
   46CHL1  H16B 4533   2.145   3.569   4.789  1.8755  2.1855  1.5299
   46CHL1   C17 4534   1.953   3.455   4.801  0.3492 -0.0341 -1.1258
   46CHL1   H17 4535   2.012   3.362   4.786  0.0637 -0.1631 -1.4641
   46CHL1   C13 4536   1.886   3.424   4.940  0.0461 -0.6680  0.8813
   46CHL1   C18 4537   1.778   3.534   4.965  0.0104  0.1092  0.0984
   46CHL1  H18A 4538   1.823   3.632   4.939  1.9345 -0.4636  1.0484
   46CHL1  H18B 4539   1.693   3.520   4.895  1.4526  0.8850 -1.9120
   46CHL1  H18C 4540   1.744   3.542   5.070  1.8578  0.1625  0.7352
   46CHL1   C12 4541   1.821   3.282   4.957  0.3935 -0.4565  1.1540
   46CHL1  H12A 4542   1.734   3.261   4.891  1.1922 -2.2229  0.6265
   46CHL1  H12B 4543   1.893   3.199   4.949  1.2799 -0.0300  3.6886
   46CHL1   C11 4544   1.783   3.269   5.112  0.1061  0.1517  0.6016
   46CHL1  H11A 4545   1.699   3.338   5.135 -0.2001  0.0634 -0.2475
   46CHL1  H11B 4546   1.746   3.165   5.124  0.2631  0.0786  0.4482
   46CHL1    C9 4547   1.892   3.302   5.214  0.4257  0.1155 -0.5038
   46CHL1    H9 4548   1.957   3.212   5.204 -0.9207 -0.7159 -2.5841
   46CHL1   C10 4549   1.851   3.294   5.368  0.6570 -0.8439  0.1298
   46CHL1   C19 4550   1.732   3.390   5.390 -0.4670 -0.3269 -0.2469
   46CHL1  H19A 4551   1.752   3.483   5.332 -0.6279  0.2503  0.6036
   46CHL1  H19B 4552   1.631   3.352   5.361 -1.0837  0.7486  0.4128
   46CHL1  H19C 4553   1.719   3.422   5.495  1.5461  4.6250 -1.2089
   46CHL1    C1 4554   1.805   3.153   5.412 -0.5636  0.2543 -0.2691
   46CHL1   H1A 4555   1.714   3.130   5.353 -0.5537  0.2708 -0.2915
   46CHL1   H1B 4556   1.889   3.093   5.370  1.2035  2.8039 -0.6424
   46CHL1    C2 4557   1.794   3.127   5.554 -0.7482  0.4790  0.0684
   46CHL1   H2A 4558   1.757   3.026   5.582  0.0052  0.1635 -0.0533
   46CHL1   H2B 4559   1.730   3.203   5.605 -0.7820  0.9863 -0.7088
   46CHL1   C20 4560   1.876   3.489   4.676  0.9351  0.1112  0.1581
   46CHL1   H20 4561   1.821   3.582   4.699 -0.2749 -1.1745  2.9284
   46CHL1   C21 4562   1.747   3.395   4.646 -0.9552 -0.4373  0.3069
   46CHL1  H21A 4563   1.785   3.292   4.626 -0.8357 -0.4196  0.4385
   46CHL1  H21B 4564   1.687   3.438   4.563 -1.1980  0.3621  0.8913
   46CHL1  H21C 4565   1.684   3.396   4.738 -2.4146 -0.4293 -0.6513
   46CHL1   C22 4566   1.966   3.498   4.548  0.0791 -0.7136 -0.4461
   46CHL1  H22A 4567   2.053   3.559   4.583  0.6672 -3.4274  3.5701
   46CHL1  H22B 4568   2.013   3.400   4.529  0.2747 -1.0105  1.3708
   46CHL1   C23 4569   1.902   3.561   4.423  0.1142 -0.7721 -0.2288
   46CHL1  H23A 4570   1.809   3.508   4.391 -0.5470  0.7301 -0.8590
   46CHL1  H23B 4571   1.883   3.665   4.457  1.6119 -0.8550  0.9766
   46CHL1   C24 4572   1.998   3.559   4.303 -0.2655 -0.2017 -0.3028
   46CHL1  H24A 4573   2.092   3.616   4.315 -0.9467  1.2927 -1.5945
   46CHL1  H24B 4574   2.023   3.451   4.292 -1.0748 -0.4546  0.2170
   46CHL1   C25 4575   1.954   3.616   4.166 -0.3419  0.2638 -0.1009
   46CHL1   H25 4576   1.860   3.557   4.155 -0.1975 -0.1139  0.6391
   46CHL1   C26 4577   1.930   3.769   4.162 -0.2949 -0.5036 -0.9479
   46CHL1  H26A 4578   1.850   3.788   4.236  0.7402 -0.3183  0.1564
   46CHL1  H26B 4579   2.020   3.818   4.205 -2.6509  2.2837  1.2058
   46CHL1  H26C 4580   1.919   3.804   4.057  0.2141  3.0620  0.0503
   46CHL1   C27 4581   2.059   3.569   4.067  0.0851  0.3487 -0.2466
   46CHL1  H27A 4582   2.086   3.462   4.084 -2.0400  0.0241  1.5533
   46CHL1  H27B 4583   2.012   3.584   3.967 -4.0900  1.9712  1.7405
   46CHL1  H27C 4584   2.148   3.635   4.064  1.1347 -1.0446 -0.9291
   47CHL1    C3 4585   4.648   3.831   5.691  0.3559  0.2055  0.6757
   47CHL1    H3 4586   4.628   3.725   5.716 -1.8304  0.4744  0.2334
   47CHL1    O3 4587   4.666   3.911   5.807  0.5665  0.4815  0.1548
   47CHL1   H3' 4588   4.750   3.879   5.839  0.6326 -0.0916 -0.5801
   47CHL1    C4 4589   4.771   3.839   5.603 -0.1566 -0.3632  0.0421
   47CHL1   H4A 4590   4.788   3.948   5.598 -0.6963 -0.2722  0.0690
   47CHL1   H4B 4591   4.851   3.799   5.668 -2.2924  0.6135  3.5299
   47CHL1    C5 4592   4.764   3.779   5.466  0.3688  0.0205  0.9198
   47CHL1    C6 4593   4.859   3.692   5.420 -0.0058  0.1250 -0.5577
   47CHL1    H6 4594   4.946   3.657   5.478 -0.0773  0.4679 -0.2401
   47CHL1    C7 4595   4.867   3.631   5.283  0.5075 -0.6698 -0.7411
   47CHL1   H7A 4596   4.968   3.630   5.237  1.1863  0.6649  0.5986
   47CHL1   H7B 4597   4.840   3.524   5.284  0.4114 -0.6497 -1.1511
   47CHL1    C8 4598   4.772   3.706   5.188 -0.3709  0.0319  0.1913
   47CHL1    H8 4599   4.823   3.801   5.161 -1.1285  0.3925  0.0184
   47CHL1   C14 4600   4.752   3.614   5.073  0.3240 -0.9372 -0.4945
   47CHL1   H14 4601   4.680   3.536   5.104  0.7904 -1.5220 -0.8756
   47CHL1   C15 4602   4.866   3.548   5.001 -0.5326  0.4124 -0.0122
   47CHL1  H15A 4603   4.944   3.620   4.966 -0.3013 -0.7947 -2.1450
   47CHL1  H15B 4604   4.911   3.470   5.066 -1.1938  1.9624  2.4880
   47CHL1   C16 4605   4.806   3.478   4.883 -0.3217 -0.3576  0.2152
   47CHL1  H16A 4606   4.883   3.503   4.807  0.6766  1.5010  1.7457
   47CHL1  H16B 4607   4.796   3.368   4.884  1.0522 -0.5338 -1.5115
   47CHL1   C17 4608   4.669   3.550   4.859 -0.9143 -0.1544  0.4689
   47CHL1   H17 4609   4.594   3.479   4.899 -0.3636 -0.3869  1.1056
   47CHL1   C13 4610   4.670   3.671   4.958 -0.0705  0.2552  0.1116
   47CHL1   C18 4611   4.751   3.785   4.882  0.1932  0.1780  0.0003
   47CHL1  H18A 4612   4.772   3.857   4.964  0.8187  0.6622 -0.5681
   47CHL1  H18B 4613   4.843   3.740   4.838  0.4942  1.0144 -0.2462
   47CHL1  H18C 4614   4.696   3.842   4.804  0.8098  1.0876  0.2209
   47CHL1   C12 4615   4.538   3.722   5.013  0.5972 -0.2582 -0.2158
   47CHL1  H12A 4616   4.486   3.788   4.940  0.1996 -1.4431 -1.0334
   47CHL1  H12B 4617   4.481   3.631   5.041 -0.4947  0.5441  0.2680
   47CHL1   C11 4618   4.547   3.813   5.140  0.0892 -0.0205  0.2285
   47CHL1  H11A 4619   4.591   3.903   5.092 -1.3295 -0.2229 -1.5580
   47CHL1  H11B 4620   4.448   3.840   5.183 -0.3828 -0.0696 -0.8022
   47CHL1    C9 4621   4.637   3.740   5.251  0.1094 -0.2137  0.2545
   47CHL1    H9 4622   4.590   3.643   5.278  2.5564 -1.3555  0.6322
   47CHL1   C10 4623   4.644   3.820   5.380  0.2352 -0.5386 -0.6685
   47CHL1   C19 4624   4.669   3.971   5.343  0.9482  0.4105 -0.4302
   47CHL1  H19A 4625   4.766   3.978   5.288 -0.0129 -0.4921 -2.3338
   47CHL1  H19B 4626   4.591   4.025   5.286 -1.1556  0.8949  2.6866
   47CHL1  H19C 4627   4.686   4.036   5.432 -2.3736 -1.3089  1.6452
   47CHL1    C1 4628   4.524   3.820   5.478  0.0186  0.3199  0.2877
   47CHL1   H1A 4629   4.452   3.877   5.414 -1.4635 -1.9490 -0.1807
   47CHL1   H1B 4630   4.488   3.716   5.494  2.0229 -0.5169 -0.3764
   47CHL1    C2 4631   4.527   3.896   5.615 -0.6069  0.3281  0.5411
   47CHL1   H2A 4632   4.440   3.892   5.684 -0.6952  2.7121  0.6395
   47CHL1   H2B 4633   4.543   4.005   5.606  1.7832  0.0244  0.6543
   47CHL1   C20 4634   4.632   3.583   4.710 -0.1647  0.0742  0.1223
   47CHL1   H20 4635   4.722   3.643   4.684  0.6362 -1.1321  0.0175
   47CHL1   C21 4636   4.499   3.668   4.698 -0.3512  0.6280 -0.0190
   47CHL1  H21A 4637   4.476   3.681   4.590 -2.4738  2.6667  0.5861
   47CHL1  H21B 4638   4.511   3.772   4.736 -2.4042  1.5108 -1.5872
   47CHL1  H21C 4639   4.411   3.622   4.749 -0.2472  1.7692  1.2543
   47CHL1   C22 4640   4.634   3.459   4.617 -0.7425 -0.2128 -0.1058
   47CHL1  H22A 4641   4.736   3.414   4.618  0.4594  2.3120 -0.6236
   47CHL1  H22B 4642   4.563   3.386   4.661 -1.5146  0.7623  0.3010
   47CHL1   C23 4643   4.593   3.478   4.471  0.2589  0.4573 -0.1797
   47CHL1  H23A 4644   4.482   3.477   4.480  0.3784  0.8297  2.1551
   47CHL1  H23B 4645   4.624   3.579   4.436  0.8848  0.7023  1.0107
   47CHL1   C24 4646   4.655   3.381   4.375  0.4013 -0.1925  0.1803
   47CHL1  H24A 4647   4.630   3.282   4.417 -0.3756  1.1663  3.1193
   47CHL1  H24B 4648   4.593   3.389   4.283 -0.1947  0.7619  0.6524
   47CHL1   C25 4649   4.806   3.376   4.351  0.0204  0.3422  0.5648
   47CHL1   H25 4650   4.866   3.369   4.444  2.2155  1.2797 -0.7184
   47CHL1   C26 4651   4.834   3.263   4.248  0.1152 -0.2015  0.6296
   47CHL1  H26A 4652   4.770   3.174   4.269 -0.0507 -0.7848 -1.9907
   47CHL1  H26B 4653   4.813   3.288   4.142  2.6362 -2.5253 -0.5660
   47CHL1  H26C 4654   4.941   3.232   4.245  0.3236  0.4066  1.4446
   47CHL1   C27 4655   4.858   3.504   4.287  0.2856  0.1165 -0.0143
   47CHL1  H27A 4656   4.800   3.529   4.196  2.2157  0.1943 -1.2786
   47CHL1  H27B 4657   4.844   3.590   4.357  0.8813  1.4072 -1.4302
   47CHL1  H27C 4658   4.967   3.505   4.265  0.1526 -1.5832 -0.8827
   48CHL1    C3 4659   2.005   3.767   5.799 -0.6683  0.5866 -0.4409
   48CHL1    H3 4660   1.903   3.811   5.794 -1.1553 -0.4504 -0.0355
   48CHL1    O3 4661   1.997   3.679   5.906  0.5671 -0.6140 -0.4627
   48CHL1   H3' 4662   1.943   3.604   5.876  0.0276 -0.2307 -0.4601
   48CHL1    C4 4663   2.043   3.688   5.670  0.4411 -0.0423  0.2867
   48CHL1   H4A 4664   2.135   3.627   5.682 -1.0981 -2.2907  1.3114
   48CHL1   H4B 4665   1.958   3.616   5.668  1.3790 -1.1975  1.0235
   48CHL1    C5 4666   2.058   3.777   5.549 -0.3824  0.0070 -0.4562
   48CHL1    C6 4667   1.983   3.767   5.445  0.0108 -1.0759 -0.1252
   48CHL1    H6 4668   1.914   3.682   5.434 -1.3011  0.1274 -1.7800
   48CHL1    C7 4669   2.004   3.848   5.319 -0.1172 -0.4630 -0.0689
   48CHL1   H7A 4670   2.009   3.790   5.225 -1.2110  0.9039 -0.9910
   48CHL1   H7B 4671   1.920   3.919   5.312 -1.6764 -2.1036  1.0623
   48CHL1    C8 4672   2.140   3.921   5.315  0.5070  0.2987 -0.6490
   48CHL1    H8 4673   2.217   3.846   5.290 -0.1962  0.1589 -2.6180
   48CHL1   C14 4674   2.127   4.026   5.205 -0.2890 -0.1737 -0.4936
   48CHL1   H14 4675   2.038   4.086   5.233 -1.0795 -1.2757 -0.5842
   48CHL1   C15 4676   2.094   3.982   5.063 -0.1989  0.9603  0.3603
   48CHL1  H15A 4677   2.167   3.908   5.025 -1.9495 -0.7752  0.2372
   48CHL1  H15B 4678   1.994   3.935   5.055  0.8345 -1.2344 -0.2776
   48CHL1   C16 4679   2.118   4.111   4.991 -0.4391  0.2091  0.6433
   48CHL1  H16A 4680   2.182   4.083   4.904  0.1606 -0.2233  1.2144
   48CHL1  H16B 4681   2.020   4.156   4.964 -0.4789 -0.2322  0.0157
   48CHL1   C17 4682   2.177   4.218   5.085  0.4490 -0.1241  0.2782
   48CHL1   H17 4683   2.102   4.280   5.139  0.8308  0.3137  0.3120
   48CHL1   C13 4684   2.237   4.136   5.200  0.1056  0.2250 -0.3182
   48CHL1   C18 4685   2.361   4.064   5.156 -0.2649  0.0468 -0.3557
   48CHL1  H18A 4686   2.355   4.007   5.061 -0.6633 -2.6686  1.1882
   48CHL1  H18B 4687   2.449   4.131   5.149  0.1680 -0.4934 -0.1808
   48CHL1  H18C 4688   2.375   3.992   5.240 -2.9788  1.4408  1.4355
   48CHL1   C12 4689   2.263   4.192   5.336  0.2592  0.3643  0.1613
   48CHL1  H12A 4690   2.349   4.261   5.341  0.4735  0.1556 -0.5565
   48CHL1  H12B 4691   2.175   4.253   5.366 -0.5858  0.0652 -1.6044
   48CHL1   C11 4692   2.278   4.094   5.452 -0.3466  0.5556  0.0480
   48CHL1  H11A 4693   2.375   4.044   5.429 -1.7163 -1.2319 -2.1800
   48CHL1  H11B 4694   2.285   4.148   5.549  0.9892 -1.5137  1.2140
   48CHL1    C9 4695   2.160   3.993   5.454  0.2146 -0.4736  0.1065
   48CHL1    H9 4696   2.067   4.051   5.471 -0.0058 -1.0875  1.0514
   48CHL1   C10 4697   2.156   3.896   5.569 -0.1905  0.4521 -0.3722
   48CHL1   C19 4698   2.298   3.843   5.562 -0.3816 -0.2537 -0.5509
   48CHL1  H19A 4699   2.341   3.804   5.468  1.6507  0.3546  0.0817
   48CHL1  H19B 4700   2.372   3.918   5.598 -0.6577  1.1693 -2.7613
   48CHL1  H19C 4701   2.304   3.756   5.631  0.7759  0.6398  0.5325
   48CHL1    C1 4702   2.138   3.961   5.708  0.5588  0.0816  0.1017
   48CHL1   H1A 4703   2.230   4.022   5.723  1.1363 -1.0142  1.3155
   48CHL1   H1B 4704   2.067   4.047   5.706  1.6832  1.0175 -0.5733
   48CHL1    C2 4705   2.119   3.865   5.828  0.4793 -0.9533 -0.6977
   48CHL1   H2A 4706   2.098   3.912   5.927 -1.1733 -1.4559 -0.7934
   48CHL1   H2B 4707   2.217   3.813   5.835  0.3842 -1.2765 -1.6316
   48CHL1   C20 4708   2.267   4.311   5.010 -0.9923 -0.4076  1.0086
   48CHL1   H20 4709   2.346   4.254   4.957  1.4620  0.8472  3.0737
   48CHL1   C21 4710   2.323   4.422   5.107 -0.1792 -0.1678 -0.3475
   48CHL1  H21A 4711   2.358   4.509   5.048 -0.2233 -0.7270 -1.2153
   48CHL1  H21B 4712   2.245   4.450   5.181 -0.1403  0.3953 -0.5169
   48CHL1  H21C 4713   2.408   4.382   5.165 -1.7816 -0.2085  2.1209
   48CHL1   C22 4714   2.183   4.385   4.901 -0.5230 -0.0643  0.2298
   48CHL1  H22A 4715   2.110   4.325   4.843  2.3836 -1.5091 -2.2104
   48CHL1  H22B 4716   2.125   4.456   4.964 -1.4768  0.2098 -0.9242
   48CHL1   C23 4717   2.270   4.464   4.795 -0.6928  0.3084  0.8394
   48CHL1  H23A 4718   2.323   4.549   4.845  1.3291 -1.0603  1.1571
   48CHL1  H23B 4719   2.347   4.403   4.744 -1.9424  0.4170 -1.2738
   48CHL1   C24 4720   2.180   4.532   4.692 -0.4248 -0.2938 -0.7114
   48CHL1  H24A 4721   2.124   4.462   4.628  0.6342  0.4299 -2.5113
   48CHL1  H24B 4722   2.119   4.594   4.762 -0.0174 -2.1119  1.3925
   48CHL1   C25 4723   2.248   4.630   4.593 -0.1618  0.3738  0.0696
   48CHL1   H25 4724   2.302   4.710   4.647  1.5479 -1.2175  0.8461
   48CHL1   C26 4725   2.355   4.548   4.517  0.4063  0.1301  0.4777
   48CHL1  H26A 4726   2.294   4.466   4.472 -1.5594  0.9868  1.4572
   48CHL1  H26B 4727   2.397   4.604   4.431 -2.3264  0.8468 -0.5048
   48CHL1  H26C 4728   2.435   4.509   4.583  0.3915 -0.8301 -0.0577
   48CHL1   C27 4729   2.139   4.688   4.502  0.0708 -0.1221  0.2470
   48CHL1  H27A 4730   2.078   4.757   4.564  1.5218  0.3749  1.1650
   48CHL1  H27B 4731   2.181   4.759   4.429 -0.1674 -0.9521 -0.7186
   48CHL1  H27C 4732   2.069   4.608   4.469 -0.7196  0.9252 -0.7257
   49CHL1    C3 4733   5.831   5.019   2.908 -0.2588 -0.4123 -0.0826
   49CHL1    H3 4734   5.727   4.980   2.897 -0.4793 -0.6385  2.1691
   49CHL1    O3 4735   5.889   5.023   2.772  0.7243 -0.4728 -0.0367
   49CHL1   H3' 4736   5.982   5.000   2.774  0.6195 -1.3400 -2.3385
   49CHL1    C4 4737   5.833   5.152   2.975 -0.7625  0.5516  0.5858
   49CHL1   H4A 4738   5.943   5.172   2.974 -0.6797  0.3320  2.1349
   49CHL1   H4B 4739   5.796   5.233   2.908 -1.3593 -1.4461 -1.6439
   49CHL1    C5 4740   5.781   5.159   3.112 -0.3430 -0.3259  0.9938
   49CHL1    C6 4741   5.700   5.254   3.154 -0.2390 -0.1807 -0.7182
   49CHL1    H6 4742   5.666   5.332   3.083 -3.0092  1.0063  1.7106
   49CHL1    C7 4743   5.647   5.251   3.295 -0.4656 -0.4219  0.0811
   49CHL1   H7A 4744   5.672   5.346   3.348 -0.8559 -0.0008 -0.4805
   49CHL1   H7B 4745   5.536   5.259   3.288 -0.5096 -0.2898  0.8451
   49CHL1    C8 4746   5.690   5.143   3.398  0.1808 -0.4057  0.5101
   49CHL1    H8 4747   5.772   5.194   3.452  0.8094  0.0938 -0.8731
   49CHL1   C14 4748   5.580   5.123   3.501 -0.3732  0.0145  0.0425
   49CHL1   H14 4749   5.497   5.081   3.440  0.2405 -0.0769 -0.7502
   49CHL1   C15 4750   5.521   5.249   3.572  0.5613 -0.2604  0.0142
   49CHL1  H15A 4751   5.593   5.331   3.590 -0.2181  0.3635  0.3749
   49CHL1  H15B 4752   5.424   5.288   3.533  0.9622  0.4923 -0.2384
   49CHL1   C16 4753   5.474   5.190   3.704  0.4249  0.5241 -0.2025
   49CHL1  H16A 4754   5.538   5.234   3.784 -1.0245  0.4746  1.0527
   49CHL1  H16B 4755   5.365   5.207   3.719  0.0762  1.6338 -3.3339
   49CHL1   C17 4756   5.513   5.038   3.704 -0.0201  0.4444  0.2516
   49CHL1   H17 4757   5.430   4.987   3.650  0.9060 -0.5229 -0.3114
   49CHL1   C13 4758   5.627   5.033   3.610 -0.5473 -0.1222  0.4868
   49CHL1   C18 4759   5.752   5.088   3.685  0.4225 -0.8408  0.0410
   49CHL1  H18A 4760   5.741   5.196   3.709  2.2054 -0.6406  0.0936
   49CHL1  H18B 4761   5.781   5.037   3.779  4.8341  0.8393 -0.1618
   49CHL1  H18C 4762   5.847   5.084   3.627  0.2171  0.4349 -0.4182
   49CHL1   C12 4763   5.660   4.891   3.549  0.2972  0.4434  0.0966
   49CHL1  H12A 4764   5.709   4.822   3.621  0.3646  0.0260 -0.3411
   49CHL1  H12B 4765   5.570   4.841   3.507  1.2448 -1.5286  0.3059
   49CHL1   C11 4766   5.764   4.906   3.434 -0.1652  0.3706 -0.4065
   49CHL1  H11A 4767   5.856   4.940   3.487  0.4045 -2.9224  0.9675
   49CHL1  H11B 4768   5.790   4.808   3.388 -0.2466 -0.1459  0.5980
   49CHL1    C9 4769   5.726   5.014   3.327 -0.1193 -0.7354 -0.0947
   49CHL1    H9 4770   5.630   4.979   3.284 -0.3128  0.1477 -0.4144
   49CHL1   C10 4771   5.830   5.044   3.207  0.3483  0.5229  0.5536
   49CHL1   C19 4772   5.971   5.080   3.276  0.2696 -0.0018 -0.2840
   49CHL1  H19A 4773   6.044   5.107   3.197 -0.3557  0.2074 -0.7988
   49CHL1  H19B 4774   5.956   5.169   3.341  1.7615 -0.4885  0.8142
   49CHL1  H19C 4775   6.005   5.001   3.347  1.0313  0.1788 -0.4394
   49CHL1    C1 4776   5.843   4.906   3.128  0.8924 -0.2934 -0.3614
   49CHL1   H1A 4777   5.872   4.825   3.197  1.3252  0.1816  0.0179
   49CHL1   H1B 4778   5.747   4.865   3.090  1.7738 -1.7008 -1.1298
   49CHL1    C2 4779   5.911   4.915   2.988 -0.6057 -0.3928  0.4764
   49CHL1   H2A 4780   5.897   4.814   2.942 -0.0953 -0.6851  0.9454
   49CHL1   H2B 4781   6.017   4.947   2.995 -0.3945 -0.4455 -1.8450
   49CHL1   C20 4782   5.519   4.971   3.845  0.4827  0.0631  0.7567
   49CHL1   H20 4783   5.618   4.986   3.893  0.8993 -0.2876  0.0251
   49CHL1   C21 4784   5.501   4.819   3.830  0.5380  0.9422 -0.0455
   49CHL1  H21A 4785   5.575   4.768   3.765  0.9511  0.9591  0.3968
   49CHL1  H21B 4786   5.402   4.793   3.788 -0.0258  1.0237  1.1923
   49CHL1  H21C 4787   5.507   4.781   3.934 -1.3535  2.1255  0.5453
   49CHL1   C22 4788   5.409   5.033   3.940  0.5867  0.1200  0.3013
   49CHL1  H22A 4789   5.414   5.144   3.936 -0.4323  0.3171  2.8521
   49CHL1  H22B 4790   5.308   4.997   3.911 -0.3499  2.8385 -0.0256
   49CHL1   C23 4791   5.429   5.009   4.094  0.3319 -0.3538  0.2875
   49CHL1  H23A 4792   5.410   4.906   4.130 -1.6876  0.5088  1.8180
   49CHL1  H23B 4793   5.534   5.042   4.111  0.1910  0.1922  0.1161
   49CHL1   C24 4794   5.336   5.103   4.176 -1.3633  0.1029 -0.2029
   49CHL1  H24A 4795   5.379   5.205   4.172  0.1755 -0.4703  0.8080
   49CHL1  H24B 4796   5.232   5.100   4.138 -1.1407  0.1291 -0.8396
   49CHL1   C25 4797   5.340   5.077   4.334  0.4043  1.2191  0.1592
   49CHL1   H25 4798   5.311   4.972   4.359  2.6402  0.5808  0.2651
   49CHL1   C26 4799   5.478   5.111   4.402 -0.6442 -0.9895 -0.1863
   49CHL1  H26A 4800   5.482   5.096   4.512  1.0190 -0.3931 -0.1449
   49CHL1  H26B 4801   5.564   5.059   4.354  1.0770 -0.3096  1.9810
   49CHL1  H26C 4802   5.482   5.219   4.378 -3.8518 -1.1696 -2.0549
   49CHL1   C27 4803   5.231   5.165   4.397 -0.5063  0.7543 -0.1717
   49CHL1  H27A 4804   5.231   5.167   4.508 -2.6439 -0.7858 -0.0745
   49CHL1  H27B 4805   5.241   5.268   4.357 -2.7139  1.0935  0.0217
   49CHL1  H27C 4806   5.127   5.134   4.373 -0.4774 -1.6857  2.3119
   50CHL1    C3 4807   0.393   2.700   2.927 -0.2449 -0.6881 -0.4522
   50CHL1    H3 4808   0.289   2.697   2.965 -0.2260  0.1065 -0.3192
   50CHL1    O3 4809   0.390   2.775   2.811 -0.2515 -0.2098 -0.6787
   50CHL1   H3' 4810   0.475   2.818   2.802  0.6476 -1.9683 -1.0004
   50CHL1    C4 4811   0.480   2.760   3.041 -0.4030  0.4494  0.8590
   50CHL1   H4A 4812   0.580   2.789   3.003  0.5444 -0.3189  2.6453
   50CHL1   H4B 4813   0.444   2.865   3.050  0.6608  1.0379 -1.1520
   50CHL1    C5 4814   0.493   2.676   3.167 -0.6884 -0.3930  0.1087
   50CHL1    C6 4815   0.467   2.724   3.291 -0.0857 -0.1195 -0.6602
   50CHL1    H6 4816   0.441   2.829   3.307  3.9602  1.4410 -2.7466
   50CHL1    C7 4817   0.486   2.642   3.412  0.2527 -0.9728 -0.4372
   50CHL1   H7A 4818   0.545   2.694   3.490 -2.2150  0.8384  0.3401
   50CHL1   H7B 4819   0.389   2.624   3.463  0.5578  2.3480  1.6182
   50CHL1    C8 4820   0.544   2.500   3.391  0.0791  0.1723  0.3626
   50CHL1    H8 4821   0.654   2.514   3.376 -0.2964  0.5972 -2.4913
   50CHL1   C14 4822   0.509   2.411   3.507  0.1632 -0.5477  0.0664
   50CHL1   H14 4823   0.398   2.402   3.503  0.0912  0.4775 -0.3856
   50CHL1   C15 4824   0.537   2.457   3.658  0.2878  0.1388  0.2015
   50CHL1  H15A 4825   0.631   2.514   3.666  2.5908 -3.3410  0.0967
   50CHL1  H15B 4826   0.458   2.530   3.687 -2.9404 -2.4552 -1.3438
   50CHL1   C16 4827   0.536   2.325   3.744 -0.3384 -0.3931 -0.3886
   50CHL1  H16A 4828   0.637   2.311   3.788 -0.1275 -1.9861 -1.3079
   50CHL1  H16B 4829   0.451   2.325   3.816  1.4362  1.9131  1.8957
   50CHL1   C17 4830   0.516   2.212   3.643  0.1297 -0.4746  0.2349
   50CHL1   H17 4831   0.406   2.197   3.637  0.2552 -1.4351  0.0700
   50CHL1   C13 4832   0.559   2.270   3.502  0.0071  0.2373 -0.1854
   50CHL1   C18 4833   0.712   2.269   3.500 -0.4126  0.2701 -0.2497
   50CHL1  H18A 4834   0.748   2.316   3.594  2.6052  2.0808 -2.1366
   50CHL1  H18B 4835   0.751   2.165   3.501  1.2949  0.8786 -0.0471
   50CHL1  H18C 4836   0.747   2.333   3.417 -0.9630  2.7271  1.3144
   50CHL1   C12 4837   0.482   2.214   3.382 -0.3841  0.8115  0.1208
   50CHL1  H12A 4838   0.504   2.107   3.367 -0.8921  0.6514  0.4761
   50CHL1  H12B 4839   0.371   2.220   3.392 -0.4861 -0.3750 -0.2304
   50CHL1   C11 4840   0.522   2.285   3.247  0.0565  0.8123  0.4371
   50CHL1  H11A 4841   0.632   2.281   3.231  0.9338  5.1592  3.5474
   50CHL1  H11B 4842   0.473   2.236   3.160  0.4982  0.5640  0.3261
   50CHL1    C9 4843   0.484   2.434   3.259 -0.1299 -0.4979 -0.8487
   50CHL1    H9 4844   0.375   2.432   3.279 -0.0838 -0.5096 -0.5871
   50CHL1   C10 4845   0.523   2.524   3.141  0.7014 -0.2964 -0.4452
   50CHL1   C19 4846   0.670   2.517   3.106  0.3272 -0.5305  0.2930
   50CHL1  H19A 4847   0.748   2.533   3.184 -0.2551  2.7002  0.3702
   50CHL1  H19B 4848   0.693   2.414   3.071  0.3344 -0.7163  0.8368
   50CHL1  H19C 4849   0.684   2.590   3.023 -1.6479  1.9308  1.9729
   50CHL1    C1 4850   0.440   2.472   3.016 -0.4507  0.0839  0.3236
   50CHL1   H1A 4851   0.480   2.374   2.982  0.3322  0.8041 -0.8877
   50CHL1   H1B 4852   0.330   2.465   3.033 -0.7371  0.8107 -1.1026
   50CHL1    C2 4853   0.445   2.558   2.891 -0.1424  0.3045  0.4203
   50CHL1   H2A 4854   0.382   2.515   2.810  0.0841 -1.3462  1.0768
   50CHL1   H2B 4855   0.547   2.572   2.851 -0.8634  0.0601 -1.6235
   50CHL1   C20 4856   0.576   2.086   3.702 -0.5821  0.5149  0.2486
   50CHL1   H20 4857   0.686   2.101   3.698 -0.6276  1.3083 -4.5293
   50CHL1   C21 4858   0.548   1.961   3.617 -0.3361 -0.1438  0.0663
   50CHL1  H21A 4859   0.592   1.984   3.518 -0.0151  2.7617  0.7902
   50CHL1  H21B 4860   0.445   1.922   3.600 -0.4640 -0.0632  0.6427
   50CHL1  H21C 4861   0.609   1.874   3.649 -2.0659 -1.1996  0.6726
   50CHL1   C22 4862   0.544   2.045   3.849  0.0772 -0.2222  0.1337
   50CHL1  H22A 4863   0.604   1.956   3.877 -0.0280  0.0541  1.2892
   50CHL1  H22B 4864   0.578   2.130   3.913 -1.8043 -0.3959  1.4381
   50CHL1   C23 4865   0.397   2.011   3.873 -0.7066 -0.2753  0.4819
   50CHL1  H23A 4866   0.326   2.089   3.839  1.4064  1.8889  0.7792
   50CHL1  H23B 4867   0.374   1.923   3.809 -0.0234  0.3698 -0.6840
   50CHL1   C24 4868   0.362   1.999   4.018  0.3689  0.1771  0.5380
   50CHL1  H24A 4869   0.450   1.953   4.069 -0.3347 -0.9721  0.7606
   50CHL1  H24B 4870   0.358   2.095   4.074 -0.0201  1.2122 -1.1965
   50CHL1   C25 4871   0.235   1.912   4.047 -0.0909  0.6372 -0.7144
   50CHL1   H25 4872   0.157   1.934   3.971 -0.0029  2.4023 -0.3405
   50CHL1   C26 4873   0.264   1.762   4.034  0.1041  0.5717 -0.1783
   50CHL1  H26A 4874   0.173   1.703   4.058  0.2305  0.8953  1.1987
   50CHL1  H26B 4875   0.293   1.730   3.932 -1.2766  0.2324 -0.4886
   50CHL1  H26C 4876   0.345   1.732   4.103  1.2932  2.4001 -0.7043
   50CHL1   C27 4877   0.181   1.947   4.190  0.0657 -0.6448  0.2002
   50CHL1  H27A 4878   0.104   1.870   4.215  1.0489 -1.7954 -0.2104
   50CHL1  H27B 4879   0.265   1.943   4.262  0.5844 -0.5004 -0.3881
   50CHL1  H27C 4880   0.137   2.049   4.184 -1.0355 -1.1630 -0.9415
   51CHL1    C3 4881   3.809   4.573   2.614 -0.0823  0.2363 -0.3563
   51CHL1    H3 4882   3.895   4.505   2.594  1.7550  2.0006  1.1308
   51CHL1    O3 4883   3.764   4.626   2.485 -0.2955  0.6271 -0.3672
   51CHL1   H3' 4884   3.754   4.551   2.427 -1.4522 -0.2654  0.9378
   51CHL1    C4 4885   3.693   4.485   2.668 -0.2457  0.5971 -0.2920
   51CHL1   H4A 4886   3.596   4.535   2.685  0.0520  1.5389 -1.2669
   51CHL1   H4B 4887   3.671   4.395   2.605  0.2226 -0.0785  0.4863
   51CHL1    C5 4888   3.728   4.441   2.810  0.0587  0.0927 -0.3477
   51CHL1    C6 4889   3.726   4.307   2.836 -0.4905  0.2011 -0.2337
   51CHL1    H6 4890   3.691   4.245   2.752  0.7192 -2.2224  0.9456
   51CHL1    C7 4891   3.749   4.249   2.973  0.5066  0.0726 -0.0431
   51CHL1   H7A 4892   3.697   4.152   2.988  0.7216  0.0213  0.3682
   51CHL1   H7B 4893   3.857   4.229   2.989  1.4307  3.7168 -0.7428
   51CHL1    C8 4894   3.719   4.359   3.083  0.1342  0.5725  0.1731
   51CHL1    H8 4895   3.610   4.381   3.084 -0.0716 -0.3640  1.8647
   51CHL1   C14 4896   3.768   4.310   3.215  0.7619 -0.2002 -0.5536
   51CHL1   H14 4897   3.879   4.309   3.212  0.8346 -0.1919  1.1181
   51CHL1   C15 4898   3.736   4.165   3.266 -0.1223  0.4633 -0.3726
   51CHL1  H15A 4899   3.633   4.136   3.238 -0.5072  2.2328 -0.9380
   51CHL1  H15B 4900   3.806   4.089   3.225 -1.4749 -1.5550  0.8467
   51CHL1   C16 4901   3.751   4.182   3.418  0.0481  0.1288 -0.2270
   51CHL1  H16A 4902   3.651   4.152   3.457 -0.2664 -0.7326 -1.6466
   51CHL1  H16B 4903   3.832   4.119   3.461  0.8683  0.1917 -1.6291
   51CHL1   C17 4904   3.784   4.334   3.455  0.5149  0.6612  1.0492
   51CHL1   H17 4905   3.894   4.338   3.443  0.9526 -2.2743  2.9102
   51CHL1   C13 4906   3.732   4.408   3.330  0.6985  0.0524 -0.5925
   51CHL1   C18 4907   3.580   4.420   3.353 -0.5057  0.1997  0.3621
   51CHL1  H18A 4908   3.555   4.514   3.407  1.0148  1.1660 -0.5197
   51CHL1  H18B 4909   3.531   4.436   3.254  2.6271  2.8158 -0.9707
   51CHL1  H18C 4910   3.535   4.329   3.397  0.6541 -1.3325 -1.4707
   51CHL1   C12 4911   3.804   4.548   3.305  0.2279  0.6024  0.0816
   51CHL1  H12A 4912   3.783   4.625   3.383  0.4141  1.4277 -0.6583
   51CHL1  H12B 4913   3.915   4.549   3.301  0.2460  0.4083  0.5745
   51CHL1   C11 4914   3.774   4.598   3.159  0.3859  0.8372 -0.0287
   51CHL1  H11A 4915   3.669   4.631   3.170 -0.0140 -0.3936 -0.0504
   51CHL1  H11B 4916   3.829   4.690   3.129  0.1506  0.3230 -2.1388
   51CHL1    C9 4917   3.789   4.494   3.042 -0.0262 -0.2717 -0.2339
   51CHL1    H9 4918   3.899   4.475   3.036 -0.1107 -0.3662 -2.1247
   51CHL1   C10 4919   3.748   4.551   2.908  0.3971 -0.5101 -0.5739
   51CHL1   C19 4920   3.622   4.634   2.921 -0.1183 -0.0804  0.0523
   51CHL1  H19A 4921   3.576   4.670   2.827 -0.7918 -1.2907 -0.1043
   51CHL1  H19B 4922   3.555   4.569   2.982  0.5148  0.1698  1.0454
   51CHL1  H19C 4923   3.627   4.720   2.991  0.5407 -1.5741  1.9451
   51CHL1    C1 4924   3.859   4.645   2.853 -0.0101  0.3143  0.6860
   51CHL1   H1A 4925   3.874   4.730   2.923  1.2196  0.2798  0.4897
   51CHL1   H1B 4926   3.956   4.594   2.868  0.0112  0.5511  1.3969
   51CHL1    C2 4927   3.850   4.692   2.702  0.0060  0.2229 -0.3627
   51CHL1   H2A 4928   3.948   4.740   2.680 -0.3068  0.2569 -1.8377
   51CHL1   H2B 4929   3.765   4.762   2.688 -1.1567 -1.2756 -1.0680
   51CHL1   C20 4930   3.745   4.387   3.599 -0.0660 -0.1200  0.6944
   51CHL1   H20 4931   3.676   4.473   3.586  0.4326  0.3110  0.8630
   51CHL1   C21 4932   3.870   4.454   3.662  1.0152 -0.4719  0.2050
   51CHL1  H21A 4933   3.954   4.383   3.676  0.0495 -1.2432  2.5325
   51CHL1  H21B 4934   3.836   4.488   3.762  1.8171 -0.2460  0.4040
   51CHL1  H21C 4935   3.899   4.546   3.607 -0.5230  1.3422  2.2309
   51CHL1   C22 4936   3.680   4.288   3.699 -0.4001  0.5127  0.5336
   51CHL1  H22A 4937   3.607   4.222   3.647  1.1883  0.3745 -1.6686
   51CHL1  H22B 4938   3.760   4.232   3.753 -1.2919 -0.1418  1.1961
   51CHL1   C23 4939   3.599   4.363   3.813 -0.2220  1.3895  0.1240
   51CHL1  H23A 4940   3.664   4.443   3.856  0.7956  1.9320 -2.2549
   51CHL1  H23B 4941   3.525   4.427   3.760  0.5899  3.1454  1.0164
   51CHL1   C24 4942   3.521   4.267   3.902 -0.2249 -0.3851  0.0018
   51CHL1  H24A 4943   3.479   4.197   3.827 -0.9248  1.4965 -1.4449
   51CHL1  H24B 4944   3.592   4.216   3.971  0.4027 -0.1432 -0.4584
   51CHL1   C25 4945   3.401   4.320   3.981  0.0414 -0.1134  0.3167
   51CHL1   H25 4946   3.351   4.249   4.051  0.4038  1.5797  2.4089
   51CHL1   C26 4947   3.435   4.441   4.065 -0.2715  0.4632 -0.1875
   51CHL1  H26A 4948   3.526   4.428   4.127 -0.3770 -0.6232 -0.2300
   51CHL1  H26B 4949   3.444   4.531   4.001  0.3281 -0.7786 -1.9294
   51CHL1  H26C 4950   3.355   4.448   4.142 -0.1814  0.0056 -0.0450
   51CHL1   C27 4951   3.288   4.351   3.889  0.3174  0.1913  0.1497
   51CHL1  H27A 4952   3.203   4.376   3.957 -0.3100 -2.5691  0.4918
   51CHL1  H27B 4953   3.318   4.428   3.814  0.4846  0.9588  0.9816
   51CHL1  H27C 4954   3.255   4.255   3.843  0.3322  0.2366  0.0435
   52CHL1    C3 4955   3.275   4.153   2.586  0.3346  0.5976  0.4340
   52CHL1    H3 4956   3.259   4.043   2.585 -1.3840  0.8282  0.6276
   52CHL1    O3 4957   3.288   4.194   2.454 -0.2410 -0.7165 -0.5295
   52CHL1   H3' 4958   3.302   4.289   2.456 -1.0258 -0.5963 -0.6076
   52CHL1    C4 4959   3.160   4.226   2.648 -0.0978 -1.0088 -0.5559
   52CHL1   H4A 4960   3.170   4.336   2.632 -1.6396 -0.8679 -0.8052
   52CHL1   H4B 4961   3.068   4.204   2.589 -1.2018  0.0578  0.7044
   52CHL1    C5 4962   3.142   4.193   2.793  0.9791  0.0676  0.2404
   52CHL1    C6 4963   3.025   4.144   2.843 -0.8547 -0.2292 -0.2621
   52CHL1    H6 4964   2.933   4.140   2.782 -0.7162 -1.6183 -0.4286
   52CHL1    C7 4965   3.013   4.106   2.990 -0.7283 -0.3317  0.1365
   52CHL1   H7A 4966   2.929   4.144   3.053  0.0089  0.0415  0.9149
   52CHL1   H7B 4967   3.020   3.995   3.001  0.3068 -0.0865  2.8119
   52CHL1    C8 4968   3.128   4.150   3.086  0.3441  0.0699 -0.2435
   52CHL1    H8 4969   3.121   4.254   3.124  0.9378 -0.5995  1.8302
   52CHL1   C14 4970   3.122   4.077   3.221 -0.4350  0.2325  0.0689
   52CHL1   H14 4971   3.137   3.968   3.204  1.1823  0.5571 -0.8005
   52CHL1   C15 4972   2.989   4.092   3.294  0.1294 -0.3411  0.0907
   52CHL1  H15A 4973   2.956   4.198   3.300  0.7500 -0.2469  2.9014
   52CHL1  H15B 4974   2.907   4.026   3.258  0.8648 -2.4247  2.0074
   52CHL1   C16 4975   3.033   4.055   3.438  0.6314  0.9662 -0.1386
   52CHL1  H16A 4976   3.015   4.146   3.498  1.7226  1.5226 -0.6263
   52CHL1  H16B 4977   2.962   3.989   3.493 -0.4414  0.2570 -2.2376
   52CHL1   C17 4978   3.182   4.019   3.441 -0.2786  0.9317  0.3623
   52CHL1   H17 4979   3.192   3.914   3.406  1.8509  1.1035  0.3155
   52CHL1   C13 4980   3.235   4.107   3.322  0.2082  0.6621 -0.1208
   52CHL1   C18 4981   3.233   4.260   3.367 -0.8020 -0.0915  0.0252
   52CHL1  H18A 4982   3.247   4.329   3.281 -0.8572  0.6714  0.6211
   52CHL1  H18B 4983   3.135   4.286   3.413 -2.3600 -0.0670 -2.9884
   52CHL1  H18C 4984   3.318   4.272   3.437 -1.1327  1.3648  0.2048
   52CHL1   C12 4985   3.371   4.071   3.255  0.2682 -0.2410 -0.3028
   52CHL1  H12A 4986   3.458   4.092   3.321  0.2938 -0.2217 -0.3429
   52CHL1  H12B 4987   3.370   3.961   3.238  1.3886 -0.0377 -1.9194
   52CHL1   C11 4988   3.388   4.136   3.117 -0.3283 -0.4776 -0.0849
   52CHL1  H11A 4989   3.402   4.245   3.130 -1.3693 -0.3024 -0.2794
   52CHL1  H11B 4990   3.480   4.090   3.076 -0.0429  1.6334 -1.9491
   52CHL1    C9 4991   3.265   4.121   3.020  0.1554  0.8963 -0.1284
   52CHL1    H9 4992   3.261   4.014   2.992  2.2395  0.9207 -0.6591
   52CHL1   C10 4993   3.283   4.191   2.875 -0.0323  0.1772 -0.5358
   52CHL1   C19 4994   3.321   4.340   2.911 -0.4118  0.5649 -0.4302
   52CHL1  H19A 4995   3.313   4.406   2.821  1.3924  0.3161 -0.8134
   52CHL1  H19B 4996   3.243   4.373   2.983  0.1084 -1.2594  1.0176
   52CHL1  H19C 4997   3.424   4.355   2.948 -0.1379  0.1496 -1.0191
   52CHL1    C1 4998   3.404   4.125   2.796 -0.3078 -0.5047  0.3571
   52CHL1   H1A 4999   3.502   4.145   2.845 -0.7701  1.4796  0.5551
   52CHL1   H1B 5000   3.374   4.019   2.804 -3.9030  0.2986 -0.8194
   52CHL1    C2 5001   3.406   4.178   2.653 -0.2460  0.0754 -0.6906
   52CHL1   H2A 5002   3.493   4.134   2.600  1.2058  2.2084 -0.2611
   52CHL1   H2B 5003   3.422   4.288   2.652 -0.6604  0.1532 -2.9505
   52CHL1   C20 5004   3.241   4.040   3.582 -0.2071 -0.6054  0.6914
   52CHL1   H20 5005   3.241   4.149   3.605 -0.7596 -0.3268 -0.5168
   52CHL1   C21 5006   3.384   3.995   3.587 -0.1151  0.5873  0.4258
   52CHL1  H21A 5007   3.423   4.008   3.690  0.3223 -0.9196  0.4804
   52CHL1  H21B 5008   3.459   4.032   3.515 -0.8910 -0.2522 -0.8729
   52CHL1  H21C 5009   3.382   3.885   3.571  0.1545  0.6716 -0.2197
   52CHL1   C22 5010   3.158   3.976   3.690  0.5245 -0.0198 -0.4254
   52CHL1  H22A 5011   3.065   4.036   3.706 -0.8810 -1.7126 -1.8638
   52CHL1  H22B 5012   3.110   3.878   3.672 -0.1409 -0.1217  1.6149
   52CHL1   C23 5013   3.222   3.957   3.832  0.3739 -0.2746 -0.0926
   52CHL1  H23A 5014   3.274   3.859   3.825 -1.7696 -1.4125 -1.1215
   52CHL1  H23B 5015   3.294   4.039   3.856  1.2910 -0.0864 -3.0991
   52CHL1   C24 5016   3.105   3.959   3.929 -0.2070  0.4391 -0.6083
   52CHL1  H24A 5017   3.066   4.063   3.925  2.6153  1.6273  0.2209
   52CHL1  H24B 5018   3.021   3.894   3.899  0.3065 -0.9846  0.8820
   52CHL1   C25 5019   3.151   3.934   4.083 -0.0803  0.1975  0.2864
   52CHL1   H25 5020   3.231   4.009   4.098 -0.0153  0.3355 -0.6979
   52CHL1   C26 5021   3.037   3.974   4.184  0.3302  0.5887 -0.5611
   52CHL1  H26A 5022   2.954   3.901   4.172  0.7781  0.1223 -0.8341
   52CHL1  H26B 5023   3.081   3.980   4.286  0.3010  2.3852 -0.6240
   52CHL1  H26C 5024   3.003   4.076   4.158  1.5913  2.1240  3.0983
   52CHL1   C27 5025   3.206   3.792   4.110  0.4738  0.0367 -0.2251
   52CHL1  H27A 5026   3.287   3.771   4.037  0.5759  1.2696 -0.4969
   52CHL1  H27B 5027   3.261   3.791   4.207  0.7052 -0.0171 -0.3557
   52CHL1  H27C 5028   3.124   3.717   4.111 -0.8734  1.4305  1.7092
   53CHL1    C3 5029   3.226   5.512   2.732  0.2336 -0.0128 -0.5473
   53CHL1    H3 5030   3.197   5.617   2.753 -1.5698 -0.4560 -0.6432
   53CHL1    O3 5031   3.276   5.507   2.596 -0.0848  0.0574 -0.4782
   53CHL1   H3' 5032   3.196   5.481   2.549 -0.4228  1.0647 -0.4780
   53CHL1    C4 5033   3.337   5.468   2.824 -0.7001  0.2548  0.0222
   53CHL1   H4A 5034   3.370   5.367   2.793  0.4522  0.9327 -1.0574
   53CHL1   H4B 5035   3.424   5.536   2.812  0.5994 -1.0103  1.7436
   53CHL1    C5 5036   3.291   5.460   2.968  0.3632  0.1419  0.2942
   53CHL1    C6 5037   3.362   5.522   3.062 -0.4735 -0.3709 -0.6244
   53CHL1    H6 5038   3.442   5.594   3.038 -1.8673  0.7400 -2.2667
   53CHL1    C7 5039   3.327   5.513   3.207 -0.6078 -0.1290  0.7788
   53CHL1   H7A 5040   3.414   5.513   3.276 -0.7253 -0.5363  0.9291
   53CHL1   H7B 5041   3.264   5.600   3.234 -0.3458  0.5085 -0.5492
   53CHL1    C8 5042   3.240   5.389   3.239 -0.8403  0.0368  0.6873
   53CHL1    H8 5043   3.309   5.303   3.228  0.2997  0.8498  1.3336
   53CHL1   C14 5044   3.194   5.395   3.381  0.3212  0.0098 -0.3967
   53CHL1   H14 5045   3.131   5.486   3.381 -2.2664 -1.6553 -1.6109
   53CHL1   C15 5046   3.298   5.398   3.494  0.1952  0.0080  0.0492
   53CHL1  H15A 5047   3.367   5.312   3.480 -0.1839 -0.3441  0.3332
   53CHL1  H15B 5048   3.355   5.493   3.488  1.7057 -0.8689  0.1919
   53CHL1   C16 5049   3.206   5.380   3.617  0.0325 -0.1391  0.1732
   53CHL1  H16A 5050   3.250   5.305   3.687 -1.1032 -0.2912  0.7417
   53CHL1  H16B 5051   3.204   5.481   3.663  1.4186  2.8174 -5.4141
   53CHL1   C17 5052   3.068   5.334   3.569  0.1757  0.6721 -0.4809
   53CHL1   H17 5053   2.996   5.417   3.552  0.3578  0.7537 -0.8466
   53CHL1   C13 5054   3.093   5.291   3.421  0.2946  0.3622  0.4489
   53CHL1   C18 5055   3.156   5.145   3.424 -0.0484  0.1952 -0.3481
   53CHL1  H18A 5056   3.229   5.128   3.506 -3.3144  1.9693  3.2418
   53CHL1  H18B 5057   3.071   5.077   3.445 -1.2409  2.2764  2.0273
   53CHL1  H18C 5058   3.203   5.117   3.327  0.4813  1.5497 -0.5025
   53CHL1   C12 5059   2.967   5.290   3.329  0.2688 -0.3715 -0.4843
   53CHL1  H12A 5060   2.890   5.214   3.353  1.5507 -1.5143  0.1449
   53CHL1  H12B 5061   2.918   5.387   3.353  2.0498  0.0361  1.7722
   53CHL1   C11 5062   3.010   5.280   3.181  0.1445 -0.5011 -0.2069
   53CHL1  H11A 5063   3.033   5.174   3.156  1.2837 -0.1060 -0.8908
   53CHL1  H11B 5064   2.922   5.318   3.124  0.4389  0.3797 -0.0973
   53CHL1    C9 5065   3.123   5.378   3.139  0.4520  0.0630 -0.4762
   53CHL1    H9 5066   3.075   5.479   3.140  0.7575  0.2096 -0.3283
   53CHL1   C10 5067   3.166   5.369   2.991  0.1234 -0.3167 -0.3560
   53CHL1   C19 5068   3.193   5.223   2.962  0.3724 -0.2202  0.2392
   53CHL1  H19A 5069   3.223   5.214   2.855 -2.9547  0.4214 -0.8694
   53CHL1  H19B 5070   3.275   5.178   3.022 -1.2602  1.0234  3.6229
   53CHL1  H19C 5071   3.103   5.159   2.970 -0.0078  0.3386  0.4430
   53CHL1    C1 5072   3.055   5.417   2.889 -0.0952 -0.3723 -0.3423
   53CHL1   H1A 5073   2.968   5.349   2.898 -0.0013 -0.4766 -0.2302
   53CHL1   H1B 5074   3.031   5.517   2.932 -2.2450  0.3255 -2.8875
   53CHL1    C2 5075   3.100   5.434   2.738  0.0161 -0.5494  0.1860
   53CHL1   H2A 5076   3.010   5.474   2.686  0.4321  1.5123  0.9393
   53CHL1   H2B 5077   3.131   5.333   2.704  0.0028 -1.1107  1.7477
   53CHL1   C20 5078   3.001   5.232   3.666  0.1107 -0.4351 -1.1219
   53CHL1   H20 5079   3.050   5.132   3.660 -1.7699 -1.3586 -1.9480
   53CHL1   C21 5080   2.852   5.201   3.626  0.3653  0.7739 -0.2332
   53CHL1  H21A 5081   2.785   5.289   3.624 -1.2286 -0.3980 -1.0777
   53CHL1  H21B 5082   2.802   5.127   3.693  1.3529 -1.0137 -1.3918
   53CHL1  H21C 5083   2.846   5.144   3.531 -0.7301 -0.9041  0.7731
   53CHL1   C22 5084   2.989   5.278   3.815  0.3924 -0.5743 -0.7303
   53CHL1  H22A 5085   3.079   5.338   3.838  0.2436 -0.4101 -0.5797
   53CHL1  H22B 5086   2.902   5.347   3.823  3.0477  3.0250 -0.4305
   53CHL1   C23 5087   2.974   5.157   3.915 -0.4174 -0.3882  0.7036
   53CHL1  H23A 5088   2.883   5.102   3.882 -1.4877  1.1790  0.9539
   53CHL1  H23B 5089   3.065   5.093   3.910  0.5475  0.7287  2.6499
   53CHL1   C24 5090   2.956   5.201   4.059 -0.2578 -0.5294  0.4745
   53CHL1  H24A 5091   3.044   5.265   4.081 -0.3851 -0.5204  0.9581
   53CHL1  H24B 5092   2.871   5.271   4.073  0.6008  0.6916 -0.2278
   53CHL1   C25 5093   2.940   5.080   4.153  0.2265  0.3413  0.3091
   53CHL1   H25 5094   3.024   5.010   4.133  0.6681  0.3238  2.0698
   53CHL1   C26 5095   2.962   5.121   4.297 -0.4428  0.3230  0.1786
   53CHL1  H26A 5096   2.976   5.030   4.359  0.5753 -0.9459 -1.8149
   53CHL1  H26B 5097   3.058   5.175   4.310  0.6693 -1.4925 -0.0016
   53CHL1  H26C 5098   2.875   5.178   4.337 -1.9514 -0.7597 -1.4098
   53CHL1   C27 5099   2.805   5.000   4.121 -0.5788  0.3294  0.4409
   53CHL1  H27A 5100   2.723   5.073   4.135  0.7397  1.5872  2.0010
   53CHL1  H27B 5101   2.797   4.962   4.017 -0.2069  0.9613  0.1685
   53CHL1  H27C 5102   2.789   4.916   4.191  3.0880  0.1200  1.2430
   54CHL1    C3 5103   4.790   6.150   2.828  0.2081 -0.7812  0.2392
   54CHL1    H3 5104   4.863   6.234   2.833 -0.6893  0.0709 -0.3183
   54CHL1    O3 5105   4.753   6.136   2.691  0.8466 -0.4574  0.5070
   54CHL1   H3' 5106   4.715   6.049   2.676 -0.3841  0.4280 -2.2045
   54CHL1    C4 5107   4.851   6.023   2.872  0.2433 -0.3681  0.5567
   54CHL1   H4A 5108   4.785   5.938   2.843 -0.1292 -0.5622  1.8951
   54CHL1   H4B 5109   4.942   6.003   2.811  0.7460  0.5115  0.9923
   54CHL1    C5 5110   4.887   6.016   3.018  0.9434 -0.6096 -0.2610
   54CHL1    C6 5111   5.017   5.998   3.057  0.5478 -0.2567  0.3985
   54CHL1    H6 5112   5.097   5.979   2.984 -0.0407 -1.5805  0.0645
   54CHL1    C7 5113   5.066   5.975   3.201  0.0765  0.2677  0.0922
   54CHL1   H7A 5114   5.122   5.880   3.213 -1.7581 -0.8813 -0.1048
   54CHL1   H7B 5115   5.130   6.061   3.231  4.2930 -1.8372 -2.0472
   54CHL1    C8 5116   4.945   5.968   3.296  0.1201 -0.3001  0.5756
   54CHL1    H8 5117   4.899   5.868   3.280 -1.1231  0.5414 -1.5179
   54CHL1   C14 5118   5.000   5.995   3.432 -0.6537 -0.6020 -0.3431
   54CHL1   H14 5119   5.037   6.100   3.426 -1.9868 -0.0820  0.1981
   54CHL1   C15 5120   5.125   5.923   3.492  0.1844  0.1436  0.4065
   54CHL1  H15A 5121   5.116   5.813   3.484  0.3850  0.1965 -0.9019
   54CHL1  H15B 5122   5.222   5.935   3.438 -0.0922  2.7044  0.3384
   54CHL1   C16 5123   5.130   5.971   3.638  0.1329  0.2940 -0.0775
   54CHL1  H16A 5124   5.151   5.889   3.711  0.1870  0.7453  0.4163
   54CHL1  H16B 5125   5.210   6.046   3.652  0.0465  0.2276  0.8371
   54CHL1   C17 5126   4.991   6.040   3.666 -0.3409  0.4845  0.7505
   54CHL1   H17 5127   5.003   6.150   3.654  0.6874  0.3366  0.3089
   54CHL1   C13 5128   4.895   6.001   3.553  0.1493  0.0121 -0.3148
   54CHL1   C18 5129   4.840   5.867   3.589 -0.5056 -0.4852  0.1519
   54CHL1  H18A 5130   4.746   5.880   3.647 -0.9779 -1.5047 -0.3599
   54CHL1  H18B 5131   4.822   5.807   3.498  0.8020 -0.3628 -0.2036
   54CHL1  H18C 5132   4.899   5.821   3.671 -2.2097 -0.0389  1.6984
   54CHL1   C12 5133   4.784   6.100   3.518  0.1866  0.5946  0.6017
   54CHL1  H12A 5134   4.703   6.108   3.593  0.0595  1.4428  0.3870
   54CHL1  H12B 5135   4.836   6.196   3.498 -0.2159  0.7307  0.2029
   54CHL1   C11 5136   4.722   6.069   3.379 -0.8588 -0.6919 -0.4575
   54CHL1  H11A 5137   4.661   5.976   3.370 -0.6105 -0.7828 -1.2806
   54CHL1  H11B 5138   4.650   6.148   3.348 -0.2802 -1.3410 -3.8730
   54CHL1    C9 5139   4.829   6.065   3.259  0.7801 -0.7979  0.5962
   54CHL1    H9 5140   4.873   6.167   3.261 -0.3373 -0.3082  1.2059
   54CHL1   C10 5141   4.771   6.043   3.117 -0.1647 -0.0783  0.0749
   54CHL1   C19 5142   4.679   5.919   3.120 -0.2797 -0.1666  0.2798
   54CHL1  H19A 5143   4.639   5.887   3.021 -1.8856  0.8261  0.5746
   54CHL1  H19B 5144   4.735   5.830   3.156  3.1263  1.7458  0.1333
   54CHL1  H19C 5145   4.591   5.928   3.187 -2.2537 -2.4500 -1.8308
   54CHL1    C1 5146   4.697   6.178   3.064  0.2357  0.1803  0.7681
   54CHL1   H1A 5147   4.615   6.190   3.138 -1.5617  0.3675 -1.1960
   54CHL1   H1B 5148   4.764   6.264   3.089 -2.0348  2.2528  0.1478
   54CHL1    C2 5149   4.670   6.180   2.911  0.3541  0.0972 -0.3980
   54CHL1   H2A 5150   4.624   6.277   2.882 -0.6362 -0.3951 -0.5340
   54CHL1   H2B 5151   4.587   6.108   2.889  0.2405 -0.3398  1.2674
   54CHL1   C20 5152   4.964   6.038   3.811 -0.5285  0.0485 -0.2875
   54CHL1   H20 5153   4.961   5.934   3.849 -2.6538 -1.0556 -3.0984
   54CHL1   C21 5154   4.821   6.092   3.849 -0.0684  0.4854  1.1047
   54CHL1  H21A 5155   4.739   6.021   3.823 -0.3962  0.8584  1.0960
   54CHL1  H21B 5156   4.806   6.189   3.797 -1.1038  0.1330  0.7143
   54CHL1  H21C 5157   4.815   6.113   3.958  1.8744  1.1538  1.1093
   54CHL1   C22 5158   5.055   6.119   3.896 -0.0909 -0.7534  0.6892
   54CHL1  H22A 5159   5.156   6.108   3.851 -1.2104 -0.7110 -1.9524
   54CHL1  H22B 5160   5.042   6.229   3.903 -0.5147 -0.8144  0.9231
   54CHL1   C23 5161   5.066   6.063   4.031  0.5809 -0.2393  0.3884
   54CHL1  H23A 5162   4.986   6.113   4.091 -0.0977 -0.6986 -0.1166
   54CHL1  H23B 5163   5.051   5.953   4.037  2.5689 -0.4774  1.5986
   54CHL1   C24 5164   5.199   6.069   4.109  0.3285  0.0313 -0.0996
   54CHL1  H24A 5165   5.286   6.027   4.054 -0.4453 -2.3708  0.3954
   54CHL1  H24B 5166   5.221   6.175   4.137  2.4145 -0.1903 -0.7765
   54CHL1   C25 5167   5.182   5.988   4.244 -0.2658  0.6313 -0.7281
   54CHL1   H25 5168   5.142   5.889   4.212 -3.4663  0.8572  2.0334
   54CHL1   C26 5169   5.326   5.974   4.309  0.6234  0.9032  0.4311
   54CHL1  H26A 5170   5.379   6.071   4.307 -0.1017  1.2885 -0.9086
   54CHL1  H26B 5171   5.316   5.936   4.413 -2.0572 -1.8224 -0.6449
   54CHL1  H26C 5172   5.375   5.888   4.258 -1.9156  0.0382 -0.7496
   54CHL1   C27 5173   5.078   6.058   4.332  0.5616 -0.3840 -0.2150
   54CHL1  H27A 5174   4.975   6.041   4.295  0.5192 -2.0268  0.6055
   54CHL1  H27B 5175   5.089   6.023   4.436  2.0734 -1.2104 -0.6258
   54CHL1  H27C 5176   5.095   6.168   4.341 -0.6143 -0.2092 -0.0232
   55CHL1    C3 5177   3.082   2.608   2.318 -0.3356 -0.4192  0.2271
   55CHL1    H3 5178   3.006   2.548   2.373 -0.4544 -0.0979  0.4123
   55CHL1    O3 5179   3.049   2.603   2.178  0.0172 -0.1352 -0.8725
   55CHL1   H3' 5180   3.128   2.638   2.136  0.0934 -0.6704 -1.1813
   55CHL1    C4 5181   3.076   2.760   2.373 -0.1985  0.1162  0.0495
   55CHL1   H4A 5182   3.118   2.833   2.299 -2.1886 -0.1649 -1.4422
   55CHL1   H4B 5183   2.970   2.793   2.375 -0.4865 -0.8049  0.3973
   55CHL1    C5 5184   3.140   2.765   2.513  0.3017  0.0687 -0.6049
   55CHL1    C6 5185   3.071   2.804   2.625 -0.6932  0.3862 -0.2896
   55CHL1    H6 5186   2.971   2.849   2.618 -1.6506 -1.3170  1.5054
   55CHL1    C7 5187   3.125   2.810   2.761  0.1919  0.3566 -0.1792
   55CHL1   H7A 5188   3.110   2.905   2.816 -0.0602  0.8143 -1.0123
   55CHL1   H7B 5189   3.074   2.728   2.816  1.8298 -0.9120 -0.5003
   55CHL1    C8 5190   3.273   2.803   2.761  0.2315 -0.3789  0.6878
   55CHL1    H8 5191   3.303   2.901   2.717  1.4020 -2.4028 -3.5425
   55CHL1   C14 5192   3.330   2.781   2.907 -0.1950  0.2485  0.2053
   55CHL1   H14 5193   3.298   2.684   2.950 -0.2202  1.3141  2.7770
   55CHL1   C15 5194   3.277   2.880   3.012  0.6317 -1.0211  0.1867
   55CHL1  H15A 5195   3.286   2.986   2.982 -0.6329 -0.1839  2.4930
   55CHL1  H15B 5196   3.171   2.854   3.035  0.5132 -1.1085 -0.4424
   55CHL1   C16 5197   3.371   2.851   3.130  0.5266  0.0042 -0.9483
   55CHL1  H16A 5198   3.404   2.943   3.183  4.6138 -1.7098 -0.2207
   55CHL1  H16B 5199   3.313   2.789   3.202  0.2188  0.7483 -0.5302
   55CHL1   C17 5200   3.501   2.785   3.067  0.0156 -0.1355 -0.7132
   55CHL1   H17 5201   3.483   2.680   3.099 -1.9499 -0.1341 -1.6427
   55CHL1   C13 5202   3.480   2.772   2.917 -0.5161  0.4697 -0.2795
   55CHL1   C18 5203   3.535   2.899   2.852 -0.1858 -0.2367 -0.1066
   55CHL1  H18A 5204   3.537   2.900   2.741  1.0648  0.6473 -0.0975
   55CHL1  H18B 5205   3.480   2.992   2.880  0.0021 -0.3448  0.6523
   55CHL1  H18C 5206   3.639   2.921   2.882 -0.4433  0.6151  0.1796
   55CHL1   C12 5207   3.528   2.645   2.839 -0.1916  0.4706  0.6634
   55CHL1  H12A 5208   3.638   2.643   2.831 -0.2977  0.7123 -5.1038
   55CHL1  H12B 5209   3.505   2.547   2.886  1.2857  0.8081  2.1982
   55CHL1   C11 5210   3.477   2.656   2.691  0.1247 -0.4726  0.4986
   55CHL1  H11A 5211   3.544   2.731   2.644  0.2793 -0.9185 -0.0050
   55CHL1  H11B 5212   3.493   2.556   2.643 -0.1272  0.1149 -0.8560
   55CHL1    C9 5213   3.327   2.688   2.677  0.3149 -0.8392  0.5985
   55CHL1    H9 5214   3.279   2.594   2.711  1.7001 -2.0520 -0.6094
   55CHL1   C10 5215   3.281   2.695   2.530 -0.4861 -0.5521 -0.2616
   55CHL1   C19 5216   3.376   2.790   2.442  0.1510  0.0267  0.2537
   55CHL1  H19A 5217   3.477   2.743   2.443 -0.3673 -1.1157  2.0149
   55CHL1  H19B 5218   3.342   2.796   2.336 -0.8081  0.0886  0.5529
   55CHL1  H19C 5219   3.389   2.895   2.476 -0.1580  0.5815 -1.2452
   55CHL1    C1 5220   3.281   2.544   2.477 -0.1915 -0.4497  0.0725
   55CHL1   H1A 5221   3.380   2.493   2.475 -0.4210 -0.9264 -2.4776
   55CHL1   H1B 5222   3.208   2.485   2.537 -0.7945  0.8959  0.6931
   55CHL1    C2 5223   3.225   2.539   2.333 -0.1905 -0.3231 -0.0147
   55CHL1   H2A 5224   3.211   2.432   2.305 -3.0522  0.3293 -1.4560
   55CHL1   H2B 5225   3.293   2.578   2.254 -1.7631  0.4139 -1.0540
   55CHL1   C20 5226   3.642   2.826   3.121 -0.1016 -0.2979  0.3946
   55CHL1   H20 5227   3.671   2.927   3.085 -1.3438  0.2000  0.7449
   55CHL1   C21 5228   3.749   2.722   3.072 -0.0484 -0.0759  0.5060
   55CHL1  H21A 5229   3.847   2.749   3.118  0.1895  2.1820 -1.1471
   55CHL1  H21B 5230   3.766   2.741   2.964  1.1696 -0.9994  0.5090
   55CHL1  H21C 5231   3.717   2.616   3.078 -1.3624  0.2380 -0.5732
   55CHL1   C22 5232   3.658   2.824   3.276 -0.0695 -0.4407 -0.7747
   55CHL1  H22A 5233   3.761   2.862   3.294  0.7329 -2.4554 -0.8465
   55CHL1  H22B 5234   3.586   2.897   3.320  0.1346 -1.6831  1.8468
   55CHL1   C23 5235   3.625   2.697   3.356 -0.2704 -0.0913  0.2815
   55CHL1  H23A 5236   3.520   2.661   3.344 -0.4504  0.4880  0.1056
   55CHL1  H23B 5237   3.693   2.617   3.319 -0.9255 -0.9637  0.9115
   55CHL1   C24 5238   3.649   2.707   3.508  0.1335  0.0390 -0.3150
   55CHL1  H24A 5239   3.727   2.784   3.527 -0.4782  0.1037  2.2292
   55CHL1  H24B 5240   3.556   2.737   3.560  0.0564 -1.7179  0.6413
   55CHL1   C25 5241   3.678   2.573   3.581  0.0370  1.0443  0.1669
   55CHL1   H25 5242   3.742   2.511   3.514  0.7733  0.5024  1.3374
   55CHL1   C26 5243   3.760   2.590   3.711  0.4020 -0.0215  0.4852
   55CHL1  H26A 5244   3.853   2.650   3.700  0.6041 -0.3414  0.4711
   55CHL1  H26B 5245   3.697   2.642   3.787 -0.7483 -0.5731 -0.0797
   55CHL1  H26C 5246   3.790   2.488   3.743 -0.3910  0.2715  2.2871
   55CHL1   C27 5247   3.557   2.497   3.627 -0.0030 -0.0956  0.2576
   55CHL1  H27A 5248   3.502   2.551   3.707 -0.4872  1.2399 -0.9365
   55CHL1  H27B 5249   3.483   2.479   3.546  0.6620 -2.0862  0.0547
   55CHL1  H27C 5250   3.582   2.399   3.674  1.5274  1.3183  2.6094
   56CHL1    C3 5251   0.027   3.674   2.704 -0.2086 -0.6936  0.2427
   56CHL1    H3 5252  -0.056   3.747   2.717  0.4384  0.2296 -0.6362
   56CHL1    O3 5253   0.056   3.680   2.565  0.3063  0.3444 -0.3640
   56CHL1   H3' 5254   0.028   3.600   2.519  0.0264  0.2118  0.0245
   56CHL1    C4 5255   0.149   3.706   2.782 -0.4681 -0.9067 -0.1254
   56CHL1   H4A 5256   0.238   3.645   2.756 -0.3016  0.2489 -2.5311
   56CHL1   H4B 5257   0.177   3.809   2.751  0.1584 -0.8038  0.7302
   56CHL1    C5 5258   0.124   3.693   2.936 -0.5492 -0.6047  0.0788
   56CHL1    C6 5259   0.164   3.791   3.018 -0.7025  0.4228 -0.5594
   56CHL1    H6 5260   0.217   3.879   2.978 -0.5002  0.2293 -0.7203
   56CHL1    C7 5261   0.162   3.791   3.173  0.6264  0.0227  0.1689
   56CHL1   H7A 5262   0.260   3.829   3.209  1.8226 -0.6627 -2.1891
   56CHL1   H7B 5263   0.077   3.856   3.204 -0.3153 -1.0399 -0.1059
   56CHL1    C8 5264   0.134   3.646   3.236 -0.7260 -0.3292  0.6574
   56CHL1    H8 5265   0.221   3.579   3.216 -1.0487  0.0696 -2.6630
   56CHL1   C14 5266   0.084   3.659   3.377  0.3741 -0.4542  0.3494
   56CHL1   H14 5267  -0.011   3.716   3.371 -0.9112 -2.6556 -1.6213
   56CHL1   C15 5268   0.165   3.740   3.480 -0.6584 -0.3414  0.6109
   56CHL1  H15A 5269   0.269   3.725   3.445 -1.1372 -0.2042 -0.9613
   56CHL1  H15B 5270   0.140   3.847   3.470  0.5561 -0.0870  0.1542
   56CHL1   C16 5271   0.136   3.684   3.617  0.8927 -0.3341 -0.2563
   56CHL1  H16A 5272   0.220   3.640   3.675 -1.5518 -1.9447  2.2599
   56CHL1  H16B 5273   0.103   3.762   3.688  2.1224 -0.9498  1.0492
   56CHL1   C17 5274   0.025   3.574   3.596 -0.3404 -0.6018  0.3248
   56CHL1   H17 5275  -0.075   3.624   3.598  0.2613  0.6354  1.5836
   56CHL1   C13 5276   0.052   3.527   3.445  0.5130  0.2632  0.5908
   56CHL1   C18 5277   0.174   3.437   3.449  0.3099 -0.2519  0.3517
   56CHL1  H18A 5278   0.142   3.334   3.472  1.4209 -0.3362  1.6913
   56CHL1  H18B 5279   0.225   3.430   3.351 -2.1584  0.2675 -1.0459
   56CHL1  H18C 5280   0.250   3.481   3.518  1.5912  2.3737 -2.4770
   56CHL1   C12 5281  -0.065   3.462   3.368  0.6740 -0.1527 -1.2617
   56CHL1  H12A 5282  -0.089   3.361   3.409  0.8836 -0.0203 -0.7995
   56CHL1  H12B 5283  -0.158   3.520   3.386 -0.1504 -1.5185 -0.9295
   56CHL1   C11 5284  -0.034   3.453   3.217  0.3945 -0.2080 -0.1390
   56CHL1  H11A 5285   0.032   3.365   3.203 -0.7446 -1.3879  1.4854
   56CHL1  H11B 5286  -0.122   3.431   3.152 -1.0267 -0.7824  1.8910
   56CHL1    C9 5287   0.026   3.581   3.151  0.8792  0.1607  0.2458
   56CHL1    H9 5288  -0.055   3.657   3.157  1.3513  0.7015 -0.1593
   56CHL1   C10 5289   0.055   3.565   2.998 -0.3132  0.0976  0.2341
   56CHL1   C19 5290   0.160   3.457   2.983  0.2697 -0.1158 -0.6702
   56CHL1  H19A 5291   0.180   3.434   2.876  0.1724 -1.2443 -0.4489
   56CHL1  H19B 5292   0.263   3.481   3.015 -0.3876  0.0236  1.5255
   56CHL1  H19C 5293   0.120   3.365   3.030 -3.1897  1.4673 -0.1603
   56CHL1    C1 5294  -0.064   3.536   2.907  0.5029 -0.5708 -0.6349
   56CHL1   H1A 5295  -0.095   3.433   2.938 -1.7867  0.7261  1.8575
   56CHL1   H1B 5296  -0.148   3.605   2.931 -0.1152 -1.7029  0.6066
   56CHL1    C2 5297  -0.037   3.540   2.752  0.0758 -0.0447  0.4574
   56CHL1   H2A 5298  -0.130   3.519   2.695  1.6877 -2.7257 -1.4081
   56CHL1   H2B 5299   0.029   3.453   2.733  0.9255  0.6155  0.3403
   56CHL1   C20 5300   0.022   3.469   3.712  0.1606 -0.7411 -0.0531
   56CHL1   H20 5301   0.122   3.420   3.713  0.5683  0.0727  0.3099
   56CHL1   C21 5302  -0.086   3.362   3.679 -0.4474  0.1338  0.3471
   56CHL1  H21A 5303  -0.172   3.422   3.642  0.2252  1.3201  0.6402
   56CHL1  H21B 5304  -0.112   3.304   3.771 -1.2213  0.2389  0.2062
   56CHL1  H21C 5305  -0.053   3.293   3.599 -0.6076  3.1029 -2.4990
   56CHL1   C22 5306   0.000   3.531   3.862 -0.3496  0.0777  0.5714
   56CHL1  H22A 5307   0.092   3.588   3.887 -0.3292  0.4074 -0.2270
   56CHL1  H22B 5308  -0.081   3.604   3.843 -0.7120 -0.8449 -1.8827
   56CHL1   C23 5309  -0.030   3.431   3.972  0.5025  0.6707  0.3162
   56CHL1  H23A 5310  -0.136   3.401   3.964 -0.3999  3.7890 -0.8075
   56CHL1  H23B 5311   0.031   3.338   3.970 -1.6433 -0.7960 -0.5630
   56CHL1   C24 5312  -0.020   3.497   4.105  0.1950 -0.0700 -0.0405
   56CHL1  H24A 5313   0.080   3.539   4.126  0.1017 -0.5285  1.3800
   56CHL1  H24B 5314  -0.090   3.583   4.114  0.1925 -0.0479 -0.2642
   56CHL1   C25 5315  -0.058   3.405   4.220  0.3867 -0.0800  0.0889
   56CHL1   H25 5316  -0.167   3.386   4.209  0.3626 -0.2263  0.5749
   56CHL1   C26 5317   0.031   3.280   4.214 -0.4456  0.0349 -0.6888
   56CHL1  H26A 5318   0.029   3.222   4.309 -1.9856  4.6762  2.5353
   56CHL1  H26B 5319   0.002   3.214   4.130  1.8686 -0.1235 -1.4301
   56CHL1  H26C 5320   0.138   3.305   4.203 -0.5137  0.3460 -0.6782
   56CHL1   C27 5321  -0.043   3.491   4.350 -0.0577 -0.5260  0.1097
   56CHL1  H27A 5322  -0.093   3.589   4.332  1.1257  0.3140  1.1758
   56CHL1  H27B 5323  -0.103   3.447   4.432 -2.0947  2.3638  0.3290
   56CHL1  H27C 5324   0.062   3.506   4.384 -0.0909 -1.4250  0.6238
   57CHL1    C3 5325   1.139   2.986   2.652  0.9249  0.0673 -0.0560
   57CHL1    H3 5326   1.192   3.077   2.687  0.3460  1.1890 -1.9520
   57CHL1    O3 5327   1.115   2.976   2.518 -0.4846 -0.0431  0.3741
   57CHL1   H3' 5328   1.050   2.906   2.511 -2.1052  1.4744 -0.6558
   57CHL1    C4 5329   1.223   2.861   2.682  0.3905  0.9607 -0.2486
   57CHL1   H4A 5330   1.188   2.776   2.619  2.1183 -0.0148  0.0385
   57CHL1   H4B 5331   1.325   2.875   2.640  0.0188 -0.7614 -1.8691
   57CHL1    C5 5332   1.221   2.823   2.831  0.7109 -0.4364  0.4301
   57CHL1    C6 5333   1.338   2.811   2.898  0.5335  0.3008 -0.2753
   57CHL1    H6 5334   1.429   2.810   2.836  0.0297  0.9835 -1.0551
   57CHL1    C7 5335   1.351   2.774   3.048 -0.3350  0.1496 -0.3829
   57CHL1   H7A 5336   1.431   2.698   3.065 -0.7959 -0.1347  0.5971
   57CHL1   H7B 5337   1.384   2.868   3.096 -1.3278  0.3132  0.0057
   57CHL1    C8 5338   1.220   2.724   3.115 -0.4364 -0.8599  0.6042
   57CHL1    H8 5339   1.198   2.628   3.063  0.2288 -1.0504  0.6646
   57CHL1   C14 5340   1.228   2.714   3.264  0.7112 -0.1398 -0.5921
   57CHL1   H14 5341   1.237   2.814   3.312  1.7645 -0.3945 -0.2498
   57CHL1   C15 5342   1.345   2.628   3.329  0.2543 -0.4081  1.1013
   57CHL1  H15A 5343   1.353   2.546   3.255  0.9146 -0.2514  0.9940
   57CHL1  H15B 5344   1.439   2.687   3.333  0.1094  0.0046 -0.7559
   57CHL1   C16 5345   1.282   2.586   3.472 -0.7043  0.5920  0.9207
   57CHL1  H16A 5346   1.297   2.476   3.474 -1.2454  0.2171 -4.0041
   57CHL1  H16B 5347   1.334   2.626   3.562 -1.2343  0.2980  1.3602
   57CHL1   C17 5348   1.135   2.634   3.474  0.4858 -0.4350 -1.1298
   57CHL1   H17 5349   1.149   2.739   3.508  4.0381 -0.5815 -1.7507
   57CHL1   C13 5350   1.094   2.663   3.328  1.1847  0.0621 -0.4888
   57CHL1   C18 5351   1.054   2.527   3.254  0.0400  0.4265 -1.1085
   57CHL1  H18A 5352   1.131   2.455   3.290 -1.2185  0.5533  2.2290
   57CHL1  H18B 5353   0.955   2.490   3.287  0.6908 -0.2127  0.2225
   57CHL1  H18C 5354   1.042   2.531   3.144 -1.4392  0.7146 -0.9518
   57CHL1   C12 5355   0.984   2.767   3.288  0.1389 -0.5876 -0.4044
   57CHL1  H12A 5356   0.889   2.724   3.326  1.3610 -1.0907  2.3864
   57CHL1  H12B 5357   0.997   2.864   3.340  1.3886 -0.8379 -0.2193
   57CHL1   C11 5358   0.973   2.791   3.135  0.4961 -0.2644 -0.3759
   57CHL1  H11A 5359   0.927   2.698   3.096 -1.8946  1.2898 -1.5483
   57CHL1  H11B 5360   0.902   2.872   3.106  1.3994  1.2160  1.3858
   57CHL1    C9 5361   1.102   2.814   3.064  0.3247 -0.3477  0.2366
   57CHL1    H9 5362   1.129   2.917   3.095  2.7101 -0.7132 -0.4185
   57CHL1   C10 5363   1.087   2.810   2.913 -0.2375 -0.6562 -0.5194
   57CHL1   C19 5364   1.007   2.689   2.864  0.3249  0.2904  0.5621
   57CHL1  H19A 5365   1.046   2.591   2.899 -1.8801 -1.0585 -0.5300
   57CHL1  H19B 5366   0.899   2.697   2.888  0.5290  1.8032  1.1139
   57CHL1  H19C 5367   1.018   2.677   2.754  0.8368 -0.9204  0.7342
   57CHL1    C1 5368   1.005   2.941   2.867 -0.5065  0.1340  0.5529
   57CHL1   H1A 5369   0.904   2.934   2.913 -0.9179  0.5495 -0.2507
   57CHL1   H1B 5370   1.051   3.027   2.919 -1.8216  0.7112  0.8020
   57CHL1    C2 5371   0.999   2.975   2.712 -0.0012 -0.2283 -0.0916
   57CHL1   H2A 5372   0.951   3.075   2.703 -0.2086  0.2368  4.1502
   57CHL1   H2B 5373   0.940   2.894   2.663  1.3746 -0.9468 -0.6056
   57CHL1   C20 5374   1.048   2.562   3.568 -0.1978  0.1148 -0.2511
   57CHL1   H20 5375   1.001   2.477   3.514 -1.1394 -0.0747  0.8219
   57CHL1   C21 5376   0.937   2.659   3.618 -0.8261 -0.0259  0.8386
   57CHL1  H21A 5377   0.864   2.606   3.682 -1.3197  1.5438  1.6278
   57CHL1  H21B 5378   0.876   2.704   3.537  0.9948  0.8794 -0.1016
   57CHL1  H21C 5379   0.979   2.747   3.671  0.2005 -1.0720  1.8414
   57CHL1   C22 5380   1.117   2.497   3.691 -0.0321 -0.2892  0.5080
   57CHL1  H22A 5381   1.202   2.435   3.657 -0.5320 -0.2088 -0.9910
   57CHL1  H22B 5382   1.171   2.583   3.736  0.2609 -0.3771  0.3256
   57CHL1   C23 5383   1.025   2.418   3.788 -0.4125  0.2109 -0.2770
   57CHL1  H23A 5384   0.968   2.486   3.855  2.0867  1.8014  0.3723
   57CHL1  H23B 5385   0.965   2.350   3.724 -0.9416 -2.1548  2.5132
   57CHL1   C24 5386   1.109   2.332   3.886 -0.4328 -0.0308 -0.6057
   57CHL1  H24A 5387   1.032   2.288   3.954 -2.9279  0.4672 -2.9023
   57CHL1  H24B 5388   1.162   2.252   3.830  1.8777  1.2622 -0.3495
   57CHL1   C25 5389   1.211   2.420   3.968 -0.4114 -0.1324  0.2079
   57CHL1   H25 5390   1.268   2.483   3.897 -1.5099 -0.2355 -0.7901
   57CHL1   C26 5391   1.123   2.515   4.058 -0.4534  0.0805  0.3354
   57CHL1  H26A 5392   1.051   2.454   4.116 -0.1483 -0.4754  0.1437
   57CHL1  H26B 5393   1.184   2.583   4.122  0.3432 -0.4228  0.1327
   57CHL1  H26C 5394   1.057   2.579   3.997 -0.2855 -0.2170 -0.1630
   57CHL1   C27 5395   1.309   2.326   4.041  0.8302  0.2950 -0.1492
   57CHL1  H27A 5396   1.371   2.392   4.105  0.2780 -0.1701  0.8905
   57CHL1  H27B 5397   1.252   2.265   4.114  2.5927  0.7020  1.6451
   57CHL1  H27C 5398   1.377   2.267   3.975  2.4872  2.0466 -0.0829
   58CHL1    C3 5399   6.045   3.857   2.851  0.7630  0.8473 -0.1282
   58CHL1    H3 5400   6.110   3.774   2.819  0.5880  0.9958 -0.8946
   58CHL1    O3 5401   6.025   3.945   2.738  0.5039 -0.0587  0.6509
   58CHL1   H3' 5402   5.931   3.959   2.724  0.7401  0.3149 -0.8053
   58CHL1    C4 5403   5.912   3.800   2.911  0.7030 -0.0424  0.4926
   58CHL1   H4A 5404   5.848   3.885   2.944 -0.3393 -1.3002  1.8136
   58CHL1   H4B 5405   5.864   3.755   2.821  1.9863  0.3917 -0.4448
   58CHL1    C5 5406   5.936   3.713   3.029  0.1729  0.0025  0.1222
   58CHL1    C6 5407   5.901   3.581   3.021 -0.6933  0.3470 -0.6204
   58CHL1    H6 5408   5.876   3.532   2.926  1.3974 -3.2736  0.4998
   58CHL1    C7 5409   5.922   3.487   3.135 -0.5702  0.1198  0.6419
   58CHL1   H7A 5410   5.833   3.426   3.158 -2.6157  0.8022 -4.2854
   58CHL1   H7B 5411   6.009   3.424   3.106 -0.4927  0.8777 -0.8865
   58CHL1    C8 5412   5.959   3.565   3.266  0.2926  0.1501 -0.2214
   58CHL1    H8 5413   5.863   3.606   3.303  0.8325 -0.0063  1.4575
   58CHL1   C14 5414   6.006   3.464   3.366  0.6031  0.2118 -0.1680
   58CHL1   H14 5415   6.103   3.421   3.331  0.8303 -0.5243  1.2706
   58CHL1   C15 5416   5.920   3.337   3.399 -0.2871 -0.3197 -0.0292
   58CHL1  H15A 5417   5.816   3.376   3.404  0.2204  0.8636  3.7816
   58CHL1  H15B 5418   5.931   3.258   3.320  2.5921  0.1007 -0.1554
   58CHL1   C16 5419   5.972   3.286   3.528  0.2811 -0.0393 -0.0249
   58CHL1  H16A 5420   5.887   3.271   3.597 -0.4377 -1.6991 -1.2193
   58CHL1  H16B 5421   6.022   3.188   3.543 -2.2694 -1.2883  0.8539
   58CHL1   C17 5422   6.061   3.396   3.592 -0.5328  0.8247 -0.4518
   58CHL1   H17 5423   6.167   3.369   3.572  0.0053  3.4806 -1.7024
   58CHL1   C13 5424   6.031   3.521   3.507 -0.1966 -1.1291 -1.0382
   58CHL1   C18 5425   5.896   3.583   3.564  0.1323 -0.6234 -0.5247
   58CHL1  H18A 5426   5.873   3.665   3.492 -1.5742 -1.8231 -1.4089
   58CHL1  H18B 5427   5.812   3.511   3.560  0.2842 -0.7651 -1.4757
   58CHL1  H18C 5428   5.903   3.610   3.672  1.7010 -1.5048 -0.3689
   58CHL1   C12 5429   6.139   3.634   3.498 -0.6312 -0.7097 -0.2917
   58CHL1  H12A 5430   6.134   3.684   3.597 -3.6529 -2.4225  0.5505
   58CHL1  H12B 5431   6.232   3.578   3.472  0.4069  0.5472  0.5532
   58CHL1   C11 5432   6.111   3.735   3.385  0.1642 -0.4700  0.0960
   58CHL1  H11A 5433   6.027   3.794   3.428  1.3420 -0.2571  2.2057
   58CHL1  H11B 5434   6.201   3.799   3.368  1.2592 -1.4422  1.8941
   58CHL1    C9 5435   6.059   3.674   3.250 -0.3772 -0.3692  0.5062
   58CHL1    H9 5436   6.149   3.624   3.210  0.0578 -0.7634  1.9450
   58CHL1   C10 5437   6.021   3.785   3.141  0.8059  0.1512 -0.0193
   58CHL1   C19 5438   5.941   3.903   3.207 -0.0663 -0.5215  0.2007
   58CHL1  H19A 5439   6.004   3.960   3.279  0.2306 -1.6435  0.8626
   58CHL1  H19B 5440   5.892   3.971   3.135 -2.8632 -0.5193  1.9243
   58CHL1  H19C 5441   5.859   3.856   3.266 -1.3897  0.1680 -1.0335
   58CHL1    C1 5442   6.151   3.834   3.075 -0.0122 -0.1740  0.5273
   58CHL1   H1A 5443   6.212   3.883   3.154  0.2612 -0.3757  0.4440
   58CHL1   H1B 5444   6.220   3.751   3.048 -1.0793 -1.3078  1.1699
   58CHL1    C2 5445   6.130   3.931   2.956 -0.2255  0.3644  0.6700
   58CHL1   H2A 5446   6.221   3.971   2.908  1.3529 -2.0607  1.4654
   58CHL1   H2B 5447   6.062   4.011   2.995 -2.4916 -0.8372 -0.6145
   58CHL1   C20 5448   6.054   3.410   3.746 -0.4220  0.0022  0.3436
   58CHL1   H20 5449   5.947   3.428   3.766 -0.7826 -0.0098 -1.4232
   58CHL1   C21 5450   6.149   3.518   3.799  0.0728 -0.5444  0.6572
   58CHL1  H21A 5451   6.245   3.514   3.745  0.9351 -1.4969  2.1818
   58CHL1  H21B 5452   6.170   3.489   3.905  2.1493 -0.5153  0.2961
   58CHL1  H21C 5453   6.100   3.618   3.791  0.1795 -0.6420 -2.1364
   58CHL1   C22 5454   6.102   3.276   3.812  0.0185  0.6320  0.2335
   58CHL1  H22A 5455   6.191   3.238   3.758 -1.3691 -0.6938 -1.2259
   58CHL1  H22B 5456   6.137   3.303   3.914 -0.0707 -1.0052  0.7226
   58CHL1   C23 5457   6.002   3.162   3.848 -0.0545  0.2117  0.1871
   58CHL1  H23A 5458   5.902   3.208   3.863 -0.1530  0.7441 -1.7800
   58CHL1  H23B 5459   5.999   3.094   3.760  1.5691 -0.5539  0.6877
   58CHL1   C24 5460   6.062   3.075   3.962  0.2949 -0.3059 -1.4770
   58CHL1  H24A 5461   6.165   3.039   3.943 -0.3056 -2.0070 -1.6664
   58CHL1  H24B 5462   6.052   3.137   4.054 -1.8232 -0.3867 -1.6072
   58CHL1   C25 5463   5.969   2.946   3.995  0.1922 -0.0196 -0.2963
   58CHL1   H25 5464   5.865   2.982   4.007 -0.0568 -1.2010  1.5652
   58CHL1   C26 5465   5.979   2.857   3.873  0.0936  0.3832  0.4700
   58CHL1  H26A 5466   5.934   2.756   3.886  0.5595 -0.1044 -1.4725
   58CHL1  H26B 5467   5.951   2.900   3.775 -1.2297 -0.2692  0.5456
   58CHL1  H26C 5468   6.087   2.839   3.855 -0.5151 -0.3873 -3.0763
   58CHL1   C27 5469   5.992   2.868   4.123  0.2999  0.4593  0.3605
   58CHL1  H27A 5470   6.010   2.931   4.212 -0.4487 -0.6918  1.3660
   58CHL1  H27B 5471   5.906   2.800   4.144  1.2713 -0.4149  1.6528
   58CHL1  H27C 5472   6.091   2.821   4.105  1.2095  2.5211 -0.3498
   59CHL1    C3 5473   4.023   6.737   2.617  0.4372 -0.5443 -0.8882
   59CHL1    H3 5474   4.052   6.844   2.624  0.1594 -0.5377  0.4531
   59CHL1    O3 5475   4.030   6.701   2.482  0.2278 -0.3798  0.1601
   59CHL1   H3' 5476   4.009   6.608   2.493  1.3933 -0.3525  4.2329
   59CHL1    C4 5477   4.131   6.659   2.694  0.1564  0.5958  0.3508
   59CHL1   H4A 5478   4.100   6.553   2.681  2.2471 -0.0851  0.5884
   59CHL1   H4B 5479   4.230   6.658   2.644 -0.4394 -0.0966 -0.8737
   59CHL1    C5 5480   4.141   6.692   2.839 -0.1762 -0.0560  0.7534
   59CHL1    C6 5481   4.255   6.736   2.897  0.2045 -0.1689 -0.4225
   59CHL1    H6 5482   4.350   6.733   2.843  1.4402  0.7704  1.5694
   59CHL1    C7 5483   4.267   6.759   3.049 -0.0512  0.8616 -0.2441
   59CHL1   H7A 5484   4.364   6.722   3.090  0.3904 -0.1033 -2.0359
   59CHL1   H7B 5485   4.284   6.866   3.070  2.9863  0.3828  0.2562
   59CHL1    C8 5486   4.145   6.701   3.122 -1.0287  0.1621  0.1726
   59CHL1    H8 5487   4.146   6.591   3.137  0.7545  0.1296 -0.0156
   59CHL1   C14 5488   4.149   6.767   3.263  0.0130 -0.1419  0.4206
   59CHL1   H14 5489   4.130   6.873   3.236 -2.0317 -0.9265 -1.5525
   59CHL1   C15 5490   4.273   6.773   3.353 -0.4501 -0.2230 -0.1147
   59CHL1  H15A 5491   4.326   6.676   3.343  0.2177  0.1331 -0.1155
   59CHL1  H15B 5492   4.352   6.847   3.328  1.8977 -1.9041  1.7540
   59CHL1   C16 5493   4.230   6.797   3.496  0.3469 -0.6212 -0.2398
   59CHL1  H16A 5494   4.252   6.710   3.561  1.1450 -0.2904 -0.0504
   59CHL1  H16B 5495   4.286   6.887   3.530 -1.6249  0.2257  1.0160
   59CHL1   C17 5496   4.071   6.824   3.482  0.2275  0.1346 -0.2157
   59CHL1   H17 5497   4.062   6.931   3.454 -1.1842 -0.2764 -1.4366
   59CHL1   C13 5498   4.032   6.742   3.354  1.1525 -0.5728  0.1605
   59CHL1   C18 5499   4.024   6.584   3.390  0.0940  0.5117 -0.2289
   59CHL1  H18A 5500   3.937   6.569   3.458 -0.1534 -0.0884 -0.6752
   59CHL1  H18B 5501   4.013   6.527   3.296  2.7102  1.1866 -1.0391
   59CHL1  H18C 5502   4.120   6.545   3.431 -0.9038 -0.3254  1.4522
   59CHL1   C12 5503   3.896   6.786   3.282  0.3815 -0.4024 -0.7142
   59CHL1  H12A 5504   3.816   6.733   3.339  0.5707  0.7344  0.6499
   59CHL1  H12B 5505   3.888   6.896   3.292  2.8219 -0.1170 -1.3099
   59CHL1   C11 5506   3.890   6.733   3.144  0.4394 -0.0785  0.5477
   59CHL1  H11A 5507   3.889   6.622   3.144  1.2503 -0.0893  1.0191
   59CHL1  H11B 5508   3.799   6.771   3.093  0.4162 -0.2242  0.4784
   59CHL1    C9 5509   4.013   6.753   3.057  0.5192  0.1081  0.4941
   59CHL1    H9 5510   4.031   6.860   3.034 -0.5426  0.9358  3.1322
   59CHL1   C10 5511   4.005   6.684   2.914  0.0153 -0.6896  1.8927
   59CHL1   C19 5512   3.974   6.532   2.912  0.2366 -0.2406 -0.5326
   59CHL1  H19A 5513   3.970   6.478   2.815 -0.4038 -2.0578  0.4489
   59CHL1  H19B 5514   4.052   6.480   2.971 -0.0102 -0.9042 -0.7759
   59CHL1  H19C 5515   3.875   6.517   2.961  0.4767  2.6905  1.0439
   59CHL1    C1 5516   3.888   6.757   2.834 -0.7239  0.5605  0.0669
   59CHL1   H1A 5517   3.796   6.719   2.883 -0.2307  0.3680  0.8553
   59CHL1   H1B 5518   3.893   6.867   2.851 -2.8868  1.0914 -2.1546
   59CHL1    C2 5519   3.883   6.730   2.684 -0.5451 -0.4805  0.3932
   59CHL1   H2A 5520   3.816   6.800   2.632  0.4679 -0.0576 -0.3746
   59CHL1   H2B 5521   3.853   6.623   2.678 -1.1614 -0.4285  1.9439
   59CHL1   C20 5522   3.996   6.798   3.612  0.5712  1.3088  0.1442
   59CHL1   H20 5523   3.972   6.690   3.623 -0.2688  1.4925  0.1348
   59CHL1   C21 5524   3.861   6.873   3.605  0.4348 -0.9491 -0.7004
   59CHL1  H21A 5525   3.806   6.854   3.700 -0.5465  3.0517 -0.2622
   59CHL1  H21B 5526   3.793   6.839   3.524  1.0221 -1.9751 -0.7818
   59CHL1  H21C 5527   3.877   6.983   3.607  0.3751 -0.9271  1.8031
   59CHL1   C22 5528   4.069   6.840   3.748 -0.7206 -0.0401  0.2303
   59CHL1  H22A 5529   4.177   6.812   3.742 -0.7715  0.0780 -2.2819
   59CHL1  H22B 5530   4.070   6.950   3.763  2.2570  0.2608 -1.3558
   59CHL1   C23 5531   4.013   6.764   3.875  0.4157  0.0009  0.3476
   59CHL1  H23A 5532   3.912   6.800   3.907 -0.1347 -1.6187  0.5169
   59CHL1  H23B 5533   4.018   6.658   3.843 -0.4684 -0.0476  0.3256
   59CHL1   C24 5534   4.099   6.776   4.002 -0.7194  0.0080 -0.5882
   59CHL1  H24A 5535   4.195   6.725   3.979 -1.1510 -1.2809  0.2963
   59CHL1  H24B 5536   4.125   6.883   4.019 -0.6737 -0.3219  1.8070
   59CHL1   C25 5537   4.040   6.716   4.134 -0.0849 -0.3804  0.3992
   59CHL1   H25 5538   3.942   6.758   4.164 -0.2689 -0.5196  0.0025
   59CHL1   C26 5539   4.008   6.566   4.123 -0.1672 -0.1649 -0.0751
   59CHL1  H26A 5540   4.009   6.525   4.226 -0.8639  0.6882  0.2899
   59CHL1  H26B 5541   3.911   6.550   4.070  0.3104 -0.4638 -0.8682
   59CHL1  H26C 5542   4.083   6.512   4.063 -0.0136 -0.8532  0.7228
   59CHL1   C27 5543   4.128   6.744   4.255  0.1549 -0.6019 -0.7607
   59CHL1  H27A 5544   4.090   6.702   4.351 -0.6104 -1.2705 -1.3491
   59CHL1  H27B 5545   4.223   6.690   4.234 -0.0062 -0.5265 -1.7223
   59CHL1  H27C 5546   4.137   6.854   4.266 -1.2098 -0.4476 -1.0141
   60CHL1    C3 5547   6.873   6.541   2.989  0.8283  0.4894 -0.0803
   60CHL1    H3 5548   6.832   6.439   3.007 -1.0152  1.6827  3.6116
   60CHL1    O3 5549   6.863   6.570   2.852  0.2442 -0.2069 -0.0063
   60CHL1   H3' 5550   6.952   6.595   2.826 -0.2501  1.2586 -0.3985
   60CHL1    C4 5551   6.776   6.638   3.057  0.3312 -0.0127 -0.8310
   60CHL1   H4A 5552   6.807   6.741   3.030  0.1971  0.1457 -0.3874
   60CHL1   H4B 5553   6.678   6.623   3.009  0.9987  1.2028 -2.6970
   60CHL1    C5 5554   6.783   6.634   3.206  0.6743  0.4222 -1.0724
   60CHL1    C6 5555   6.665   6.604   3.273  0.4932  0.0690 -0.2074
   60CHL1    H6 5556   6.569   6.601   3.219  1.1246 -0.7305 -1.3206
   60CHL1    C7 5557   6.667   6.593   3.422  0.5702  0.0693  0.1403
   60CHL1   H7A 5558   6.582   6.652   3.463 -0.7648 -1.4687 -0.3167
   60CHL1   H7B 5559   6.653   6.487   3.453  0.7646  0.4662  1.6827
   60CHL1    C8 5560   6.795   6.643   3.491  0.1289 -0.1573  0.0658
   60CHL1    H8 5561   6.784   6.753   3.486  0.1567 -0.1357  0.4870
   60CHL1   C14 5562   6.791   6.611   3.645 -0.2619  0.2863 -0.9632
   60CHL1   H14 5563   6.796   6.500   3.647  2.7380  0.3411  1.7501
   60CHL1   C15 5564   6.659   6.636   3.713 -0.6091  0.3523 -0.1431
   60CHL1  H15A 5565   6.634   6.742   3.689  0.9492  0.8049  0.1080
   60CHL1  H15B 5566   6.588   6.558   3.681  0.4276  1.1255 -5.2362
   60CHL1   C16 5567   6.695   6.640   3.861  0.0094  0.2360  0.0219
   60CHL1  H16A 5568   6.661   6.735   3.906 -0.0132 -0.7791  2.2678
   60CHL1  H16B 5569   6.647   6.556   3.916 -1.3022 -0.1591 -1.6291
   60CHL1   C17 5570   6.851   6.611   3.867  0.2704  0.2354  0.6214
   60CHL1   H17 5571   6.873   6.503   3.880  0.3183  0.2465  0.6309
   60CHL1   C13 5572   6.909   6.659   3.728 -0.1197  0.0551 -0.0435
   60CHL1   C18 5573   6.911   6.812   3.732  0.1419 -0.2469 -0.2995
   60CHL1  H18A 5574   6.825   6.861   3.781  0.4265 -0.5990  0.5718
   60CHL1  H18B 5575   7.003   6.857   3.776  0.9975 -0.4673 -1.7703
   60CHL1  H18C 5576   6.933   6.841   3.627 -0.8704  0.8893 -0.2123
   60CHL1   C12 5577   7.028   6.595   3.654  0.0897 -0.0005  0.1034
   60CHL1  H12A 5578   7.117   6.635   3.708 -1.7230  2.2251  1.6379
   60CHL1  H12B 5579   7.024   6.484   3.660  2.4236 -0.1960 -0.6609
   60CHL1   C11 5580   7.040   6.623   3.506  0.5328  0.2566  0.2577
   60CHL1  H11A 5581   7.074   6.729   3.504  0.9579  0.1558  1.3673
   60CHL1  H11B 5582   7.130   6.569   3.468  1.4343  0.6838  1.7111
   60CHL1    C9 5583   6.914   6.596   3.420 -0.4220 -0.1237  0.0648
   60CHL1    H9 5584   6.904   6.485   3.415  1.8170 -0.4780  1.5924
   60CHL1   C10 5585   6.922   6.640   3.272 -0.1333 -0.0908  0.1639
   60CHL1   C19 5586   6.978   6.790   3.263  0.8518 -0.0703 -0.2558
   60CHL1  H19A 5587   6.972   6.826   3.158  1.8404  2.1052  0.3802
   60CHL1  H19B 5588   6.912   6.849   3.330 -1.0694  1.8486 -3.5426
   60CHL1  H19C 5589   7.083   6.796   3.300  0.8511  0.4894 -0.3413
   60CHL1    C1 5590   7.027   6.548   3.199 -0.0995  0.0641 -0.5285
   60CHL1   H1A 5591   7.128   6.590   3.220  1.1560 -2.0476 -1.9678
   60CHL1   H1B 5592   7.015   6.441   3.228  0.7702 -0.2633 -1.3384
   60CHL1    C2 5593   7.016   6.569   3.046 -0.2204 -0.3541 -0.0767
   60CHL1   H2A 5594   7.085   6.494   3.001 -0.7399 -2.2225  2.0341
   60CHL1   H2B 5595   7.040   6.672   3.013  0.0697  0.0378  1.3125
   60CHL1   C20 5596   6.914   6.678   3.989  0.3148  0.6723  0.2853
   60CHL1   H20 5597   6.908   6.789   3.979 -0.8596  0.9178  2.9778
   60CHL1   C21 5598   7.059   6.637   4.001  0.3311  0.0421 -0.0987
   60CHL1  H21A 5599   7.123   6.720   3.964  1.2539 -0.2201  0.8684
   60CHL1  H21B 5600   7.078   6.540   3.950  0.0928  0.0251 -0.1544
   60CHL1  H21C 5601   7.090   6.621   4.106  0.5934 -1.7549 -0.4209
   60CHL1   C22 5602   6.845   6.668   4.127  0.4523  0.0933 -0.1685
   60CHL1  H22A 5603   6.903   6.723   4.204 -0.3224  0.4379  0.1820
   60CHL1  H22B 5604   6.742   6.708   4.127  0.3541 -0.1547 -0.2067
   60CHL1   C23 5605   6.838   6.519   4.180 -0.4554 -0.0270  0.2150
   60CHL1  H23A 5606   6.807   6.461   4.091 -1.6877  0.2247  0.4633
   60CHL1  H23B 5607   6.935   6.478   4.216 -0.1529  1.3915  1.1223
   60CHL1   C24 5608   6.740   6.523   4.298  0.0127 -0.3423  0.0553
   60CHL1  H24A 5609   6.800   6.578   4.373  2.6968 -0.9455 -1.5322
   60CHL1  H24B 5610   6.662   6.594   4.263  1.3035  1.1489  0.0860
   60CHL1   C25 5611   6.660   6.401   4.357 -0.1769  0.6326  0.2038
   60CHL1   H25 5612   6.732   6.343   4.419  3.8102  2.3631 -2.3637
   60CHL1   C26 5613   6.534   6.439   4.437 -0.3240  0.5751  0.2558
   60CHL1  H26A 5614   6.493   6.360   4.503 -0.9686  2.5563  2.3222
   60CHL1  H26B 5615   6.546   6.531   4.498 -0.1279  0.1276  0.9084
   60CHL1  H26C 5616   6.461   6.460   4.356  1.3734  0.1724 -1.4625
   60CHL1   C27 5617   6.611   6.309   4.247  0.0232  0.0787 -0.4639
   60CHL1  H27A 5618   6.700   6.270   4.193 -0.5449 -0.9991 -0.6412
   60CHL1  H27B 5619   6.556   6.221   4.287  1.0221 -0.3002  0.1250
   60CHL1  H27C 5620   6.561   6.372   4.171 -0.2544 -1.2360 -1.4115
   61CHL1    C3 5621   0.667   3.072   3.167  0.2800 -0.1231 -0.4216
   61CHL1    H3 5622   0.669   2.962   3.179 -0.4175 -0.0994 -0.0512
   61CHL1    O3 5623   0.705   3.085   3.032 -0.0004  0.2581 -0.2124
   61CHL1   H3' 5624   0.723   3.179   3.020  1.4836 -0.1368 -1.4859
   61CHL1    C4 5625   0.526   3.131   3.186 -0.0455  0.6750 -0.1901
   61CHL1   H4A 5626   0.514   3.235   3.148 -3.5013  0.4744  0.0546
   61CHL1   H4B 5627   0.464   3.067   3.119 -2.8057  2.0638  0.8931
   61CHL1    C5 5628   0.486   3.115   3.335 -0.8168 -0.0422 -0.7799
   61CHL1    C6 5629   0.369   3.055   3.368 -0.4390  0.9364 -0.1263
   61CHL1    H6 5630   0.301   3.022   3.287 -0.0104 -2.6370  0.8254
   61CHL1    C7 5631   0.322   3.043   3.511 -0.5836  0.1284 -0.5775
   61CHL1   H7A 5632   0.214   3.065   3.523 -0.2454  1.8019 -0.4050
   61CHL1   H7B 5633   0.322   2.940   3.554 -1.1851  1.2125  2.2922
   61CHL1    C8 5634   0.397   3.128   3.606 -0.2046  0.3653  0.5292
   61CHL1    H8 5635   0.372   3.235   3.590  0.8499  0.7211  1.2051
   61CHL1   C14 5636   0.374   3.078   3.749  0.3904 -0.8477  0.2753
   61CHL1   H14 5637   0.400   2.970   3.753 -0.2873 -1.1480 -2.0338
   61CHL1   C15 5638   0.225   3.071   3.793  0.3470 -0.3426  0.2027
   61CHL1  H15A 5639   0.175   3.165   3.758  0.4536  0.8284  2.9506
   61CHL1  H15B 5640   0.165   2.988   3.750 -2.4653  2.0556 -0.8378
   61CHL1   C16 5641   0.230   3.058   3.947  0.1920  1.2806  1.0790
   61CHL1  H16A 5642   0.145   3.115   3.990 -0.9145 -0.9819  2.1084
   61CHL1  H16B 5643   0.208   2.952   3.975 -0.3543  0.0894 -3.0952
   61CHL1   C17 5644   0.379   3.087   3.993  0.1040  0.2378  0.2621
   61CHL1   H17 5645   0.427   2.986   3.990 -1.5806 -0.5972 -1.7844
   61CHL1   C13 5646   0.447   3.156   3.870  0.0994  0.1793  0.2387
   61CHL1   C18 5647   0.415   3.318   3.865  0.2417  0.1954  0.0868
   61CHL1  H18A 5648   0.304   3.323   3.854  0.1794 -2.3182 -0.9961
   61CHL1  H18B 5649   0.454   3.374   3.953 -0.7058  1.0633 -0.0315
   61CHL1  H18C 5650   0.456   3.361   3.771 -0.5799  0.3781 -0.2050
   61CHL1   C12 5651   0.596   3.136   3.848  0.2598  0.7976 -0.0472
   61CHL1  H12A 5652   0.650   3.201   3.919 -0.8060  1.3566  0.2622
   61CHL1  H12B 5653   0.612   3.031   3.882  0.1267  1.1006  0.9737
   61CHL1   C11 5654   0.641   3.171   3.706  0.7229 -0.6735  0.1219
   61CHL1  H11A 5655   0.663   3.279   3.689  0.0715 -0.1857  2.1359
   61CHL1  H11B 5656   0.731   3.115   3.676 -0.0582 -2.3641  0.8257
   61CHL1    C9 5657   0.552   3.111   3.588 -0.3020 -0.5982  0.2000
   61CHL1    H9 5658   0.566   3.002   3.598 -1.2291 -0.6722  0.8404
   61CHL1   C10 5659   0.589   3.158   3.442  0.0534  0.4024 -0.4230
   61CHL1   C19 5660   0.601   3.311   3.438  0.0177 -1.1880 -0.2047
   61CHL1  H19A 5661   0.507   3.348   3.484  0.4974  0.7797 -0.7192
   61CHL1  H19B 5662   0.686   3.347   3.499 -0.4746  1.4593 -0.9814
   61CHL1  H19C 5663   0.605   3.350   3.334 -0.1192  2.1966  0.9487
   61CHL1    C1 5664   0.734   3.098   3.411  0.4770 -0.7589  0.6290
   61CHL1   H1A 5665   0.794   3.169   3.472  0.1190 -0.2470  0.3892
   61CHL1   H1B 5666   0.742   2.990   3.435 -0.4679 -0.8839  0.3901
   61CHL1    C2 5667   0.771   3.127   3.264 -0.2367  0.5341  0.7851
   61CHL1   H2A 5668   0.860   3.065   3.243 -0.6937 -0.0130  0.4618
   61CHL1   H2B 5669   0.793   3.235   3.245 -0.9999  1.0258  2.4341
   61CHL1   C20 5670   0.389   3.138   4.137  0.2870 -0.1397  1.0140
   61CHL1   H20 5671   0.340   3.238   4.140  1.9390  0.8221 -1.1833
   61CHL1   C21 5672   0.542   3.157   4.169 -0.2496 -0.0448 -0.5233
   61CHL1  H21A 5673   0.597   3.063   4.147 -0.9898 -0.2958 -1.3589
   61CHL1  H21B 5674   0.562   3.191   4.273 -0.4400 -0.0154 -0.4946
   61CHL1  H21C 5675   0.586   3.233   4.101  3.2013 -2.0824 -0.7913
   61CHL1   C22 5676   0.328   3.054   4.250  0.2688  0.0305  0.2572
   61CHL1  H22A 5677   0.332   3.114   4.344 -1.7631  1.7323 -0.6620
   61CHL1  H22B 5678   0.219   3.051   4.226 -0.1455  1.4079  1.7765
   61CHL1   C23 5679   0.380   2.906   4.250  0.0282 -0.5595 -0.3498
   61CHL1  H23A 5680   0.343   2.865   4.153 -1.4518  0.3044 -0.1855
   61CHL1  H23B 5681   0.490   2.902   4.262 -0.0040 -0.8598 -0.1243
   61CHL1   C24 5682   0.311   2.832   4.367  0.4688  0.1231 -0.0527
   61CHL1  H24A 5683   0.351   2.729   4.358 -0.8243 -0.3498 -0.4768
   61CHL1  H24B 5684   0.345   2.878   4.463 -0.8035  0.0277  0.4611
   61CHL1   C25 5685   0.160   2.798   4.369 -0.0313 -0.4690  0.4332
   61CHL1   H25 5686   0.110   2.894   4.396  0.4328 -0.8068  2.7509
   61CHL1   C26 5687   0.100   2.735   4.241  0.1767  0.0458 -0.3606
   61CHL1  H26A 5688   0.103   2.795   4.148  1.4653 -2.4460 -2.0744
   61CHL1  H26B 5689   0.166   2.651   4.208 -1.1465 -1.0736 -0.2655
   61CHL1  H26C 5690  -0.004   2.703   4.264 -0.2930 -1.3424 -3.7584
   61CHL1   C27 5691   0.129   2.715   4.492  0.0595 -0.4212 -0.9176
   61CHL1  H27A 5692   0.027   2.673   4.506 -0.1459  0.3967  0.2417
   61CHL1  H27B 5693   0.183   2.619   4.482  2.1969  0.6344 -0.1071
   61CHL1  H27C 5694   0.163   2.766   4.585 -0.7681 -0.7536 -0.4161
   62CHL1    C3 5695   2.146   0.758   2.859 -0.1203  0.1336 -0.4046
   62CHL1    H3 5696   2.090   0.848   2.891 -1.4521 -0.8269  0.0653
   62CHL1    O3 5697   2.132   0.724   2.725 -0.4955 -0.6226 -0.0096
   62CHL1   H3' 5698   2.041   0.694   2.717 -1.1692  1.3310 -0.1577
   62CHL1    C4 5699   2.291   0.789   2.898 -0.4402 -0.3847  0.1231
   62CHL1   H4A 5700   2.359   0.707   2.867  1.5089  0.7558  1.1975
   62CHL1   H4B 5701   2.324   0.874   2.834  0.2657 -2.2744 -2.1428
   62CHL1    C5 5702   2.321   0.815   3.042 -0.4112 -0.0414  0.3059
   62CHL1    C6 5703   2.385   0.924   3.079  0.8020 -0.1600 -0.6918
   62CHL1    H6 5704   2.414   0.988   2.994 -0.0460  1.2376  0.0243
   62CHL1    C7 5705   2.420   0.967   3.214 -0.1586 -0.8709 -0.4503
   62CHL1   H7A 5706   2.530   0.983   3.217  0.0479 -2.1373  2.7475
   62CHL1   H7B 5707   2.374   1.065   3.239 -0.7157 -1.1727 -0.2794
   62CHL1    C8 5708   2.391   0.855   3.317 -0.2143 -0.6124  0.4634
   62CHL1    H8 5709   2.471   0.778   3.314 -1.5601 -2.0576 -0.4629
   62CHL1   C14 5710   2.367   0.910   3.454  0.3082 -0.6192 -0.4069
   62CHL1   H14 5711   2.266   0.955   3.466  0.1068 -1.3438  0.6888
   62CHL1   C15 5712   2.472   1.012   3.505 -0.2117  0.3164 -0.2297
   62CHL1  H15A 5713   2.579   0.988   3.487 -0.3591 -0.1380 -0.5036
   62CHL1  H15B 5714   2.457   1.111   3.456  0.5697  0.1221 -0.9054
   62CHL1   C16 5715   2.444   1.010   3.660  0.8888 -0.0738  0.2528
   62CHL1  H16A 5716   2.544   0.999   3.707  2.4388  1.3899 -2.4996
   62CHL1  H16B 5717   2.394   1.103   3.695  0.7313 -0.2771  0.5841
   62CHL1   C17 5718   2.350   0.887   3.683 -0.6206  0.2381  0.0678
   62CHL1   H17 5719   2.248   0.929   3.674 -1.2156 -1.1986 -0.1453
   62CHL1   C13 5720   2.355   0.797   3.561 -0.7591  0.2862  0.1431
   62CHL1   C18 5721   2.490   0.717   3.558  0.2524  0.0893  0.6983
   62CHL1  H18A 5722   2.513   0.667   3.655  4.0901  0.2059 -0.0372
   62CHL1  H18B 5723   2.488   0.631   3.488 -1.0678 -0.3286  1.2027
   62CHL1  H18C 5724   2.572   0.789   3.544  0.6284  0.1853  2.9605
   62CHL1   C12 5725   2.229   0.704   3.528 -0.5080 -0.2974 -0.5001
   62CHL1  H12A 5726   2.229   0.618   3.598  1.0172 -1.3511 -1.7460
   62CHL1  H12B 5727   2.135   0.754   3.561  0.2360 -0.0594  1.4169
   62CHL1   C11 5728   2.224   0.665   3.380 -0.6282 -0.0039 -0.2236
   62CHL1  H11A 5729   2.299   0.583   3.374 -0.4222  0.2804 -2.8773
   62CHL1  H11B 5730   2.124   0.621   3.359 -0.4154 -0.7716  0.3148
   62CHL1    C9 5731   2.264   0.775   3.281 -0.4725 -0.7424 -0.1140
   62CHL1    H9 5732   2.179   0.847   3.278  3.2065  4.0903 -0.6054
   62CHL1   C10 5733   2.271   0.709   3.136  1.1047 -0.0002  0.7247
   62CHL1   C19 5734   2.385   0.601   3.126  0.5526  0.0918 -1.0131
   62CHL1  H19A 5735   2.401   0.575   3.019 -0.1342 -0.3569 -1.0116
   62CHL1  H19B 5736   2.472   0.656   3.169 -1.8155  0.8814  3.3486
   62CHL1  H19C 5737   2.352   0.514   3.187  0.1329  0.7526 -0.2783
   62CHL1    C1 5738   2.126   0.657   3.090  0.0018  0.1747 -0.9850
   62CHL1   H1A 5739   2.118   0.559   3.141  0.2669  1.3611  1.4575
   62CHL1   H1B 5740   2.041   0.721   3.121 -0.1650 -0.1935 -0.6720
   62CHL1    C2 5741   2.101   0.635   2.940  0.3863 -0.2603 -0.4381
   62CHL1   H2A 5742   1.991   0.619   2.930  0.2144  1.1079 -0.9259
   62CHL1   H2B 5743   2.146   0.543   2.896 -0.4936 -0.5570 -0.7476
   62CHL1   C20 5744   2.368   0.818   3.828 -0.4474  0.7947 -0.1129
   62CHL1   H20 5745   2.466   0.766   3.825 -1.3795 -1.1684  0.9838
   62CHL1   C21 5746   2.250   0.722   3.854  0.4223  0.2977 -0.2820
   62CHL1  H21A 5747   2.150   0.759   3.825 -0.7125 -1.6790  0.8964
   62CHL1  H21B 5748   2.245   0.687   3.959  2.1292  0.1786 -0.2080
   62CHL1  H21C 5749   2.278   0.628   3.800  1.8474  0.4625  0.1311
   62CHL1   C22 5750   2.385   0.919   3.945  0.0798 -0.2423 -0.1512
   62CHL1  H22A 5751   2.392   0.868   4.044 -1.2047  0.5464  0.3736
   62CHL1  H22B 5752   2.485   0.966   3.936 -0.4457  0.9758  0.2607
   62CHL1   C23 5753   2.279   1.028   3.977  0.1425  0.4262  0.2253
   62CHL1  H23A 5754   2.248   1.073   3.880  0.2973  0.8026  0.3465
   62CHL1  H23B 5755   2.189   0.977   4.017  0.2443  0.3716  0.3819
   62CHL1   C24 5756   2.318   1.155   4.058  0.2115 -0.4058 -0.8412
   62CHL1  H24A 5757   2.321   1.128   4.166 -1.3310  0.8736 -0.4440
   62CHL1  H24B 5758   2.421   1.193   4.040  0.6401 -0.5616  1.0125
   62CHL1   C25 5759   2.239   1.281   4.035  0.2326 -1.0072  0.3500
   62CHL1   H25 5760   2.214   1.292   3.927  3.3455  1.1194 -0.2983
   62CHL1   C26 5761   2.105   1.283   4.113 -0.6448  0.1498 -0.2104
   62CHL1  H26A 5762   2.127   1.314   4.218 -1.7990  1.9784 -0.4579
   62CHL1  H26B 5763   2.033   1.362   4.084  0.1317  1.1377  0.4637
   62CHL1  H26C 5764   2.050   1.187   4.121 -3.0527  1.2922 -1.9993
   62CHL1   C27 5765   2.312   1.414   4.062 -0.6805 -0.2971 -0.5807
   62CHL1  H27A 5766   2.252   1.505   4.039  1.3191  0.7949 -1.6994
   62CHL1  H27B 5767   2.353   1.426   4.165  1.2584  0.6023 -1.4175
   62CHL1  H27C 5768   2.405   1.422   4.003 -0.4419  0.1537 -0.1476
   63CHL1    C3 5769   6.416   6.421   2.843 -0.3360 -0.4885  0.5601
   63CHL1    H3 5770   6.517   6.404   2.887 -1.3894 -2.0030  2.5363
   63CHL1    O3 5771   6.388   6.338   2.729  0.3944 -0.1745 -0.3118
   63CHL1   H3' 5772   6.300   6.363   2.699  1.0930  1.7666 -0.9428
   63CHL1    C4 5773   6.320   6.369   2.958  0.5984  0.1268  1.0837
   63CHL1   H4A 5774   6.225   6.366   2.901  2.1986  0.0639 -1.8269
   63CHL1   H4B 5775   6.349   6.263   2.975  2.7967  0.4017 -0.4309
   63CHL1    C5 5776   6.300   6.454   3.085  0.0218 -0.5953  0.5486
   63CHL1    C6 5777   6.311   6.406   3.210  1.0760  0.2494  0.5811
   63CHL1    H6 5778   6.337   6.300   3.223  0.2740 -0.2686 -1.7067
   63CHL1    C7 5779   6.287   6.489   3.328 -1.1389 -0.1521  0.2384
   63CHL1   H7A 5780   6.220   6.443   3.405 -2.7432 -0.0438 -1.0399
   63CHL1   H7B 5781   6.384   6.519   3.375 -0.8378 -1.6951  0.6384
   63CHL1    C8 5782   6.220   6.628   3.294  0.1453 -0.0816 -0.0669
   63CHL1    H8 5783   6.112   6.611   3.278 -0.1960  2.0348 -0.2767
   63CHL1   C14 5784   6.225   6.727   3.411 -0.0689  0.3788 -0.3862
   63CHL1   H14 5785   6.334   6.742   3.423  0.0774 -0.7324 -0.1991
   63CHL1   C15 5786   6.204   6.674   3.554  0.1108  0.0339  0.3151
   63CHL1  H15A 5787   6.106   6.626   3.574  0.3956  0.7632  4.2033
   63CHL1  H15B 5788   6.283   6.601   3.579 -1.5025 -1.6188  0.7858
   63CHL1   C16 5789   6.206   6.803   3.636  0.4573  0.1523 -0.7564
   63CHL1  H16A 5790   6.119   6.802   3.705  0.3709 -1.4527 -0.8629
   63CHL1  H16B 5791   6.303   6.814   3.688  1.4660 -1.8084 -2.1069
   63CHL1   C17 5792   6.194   6.929   3.539  0.1171 -0.1317 -0.6787
   63CHL1   H17 5793   6.297   6.972   3.533 -0.2739  0.5658 -3.4732
   63CHL1   C13 5794   6.168   6.868   3.399 -0.0291 -0.5966  0.6895
   63CHL1   C18 5795   6.018   6.850   3.373  0.1777  0.5592 -0.3098
   63CHL1  H18A 5796   5.999   6.766   3.302  1.4675 -0.0680  0.0600
   63CHL1  H18B 5797   5.954   6.846   3.464  0.3398  0.5721 -0.1944
   63CHL1  H18C 5798   5.993   6.945   3.322 -0.1758  1.1776  0.9836
   63CHL1   C12 5799   6.245   6.933   3.280  0.1256  0.1987 -0.6388
   63CHL1  H12A 5800   6.201   7.032   3.256 -2.3815 -0.6435  0.2256
   63CHL1  H12B 5801   6.347   6.942   3.323 -0.7883 -0.3926  1.8609
   63CHL1   C11 5802   6.228   6.840   3.152 -0.1261  0.1780  0.1197
   63CHL1  H11A 5803   6.120   6.847   3.126  0.2462 -0.1761 -1.6126
   63CHL1  H11B 5804   6.280   6.887   3.066 -1.5405 -0.4457 -1.1122
   63CHL1    C9 5805   6.282   6.699   3.166 -0.5542  0.3384 -0.3854
   63CHL1    H9 5806   6.391   6.698   3.186 -0.5897 -2.7383  0.1439
   63CHL1   C10 5807   6.266   6.601   3.047  0.3600  0.1784  0.1058
   63CHL1   C19 5808   6.117   6.602   2.998  0.5405  0.2204  1.0691
   63CHL1  H19A 5809   6.058   6.553   3.079 -0.1284 -0.1823  0.3556
   63CHL1  H19B 5810   6.084   6.707   2.981  1.3420  0.2214 -0.7420
   63CHL1  H19C 5811   6.098   6.549   2.902 -1.7230 -2.0972  2.6894
   63CHL1    C1 5812   6.355   6.658   2.935 -0.0244  0.4089 -0.2477
   63CHL1   H1A 5813   6.322   6.761   2.912  2.2550  1.1424 -0.5484
   63CHL1   H1B 5814   6.457   6.671   2.978  1.1048  0.7494 -2.8427
   63CHL1    C2 5815   6.379   6.572   2.811 -0.0913  0.0200  0.1756
   63CHL1   H2A 5816   6.444   6.624   2.737  0.1126  1.0578  1.0526
   63CHL1   H2B 5817   6.280   6.567   2.763  0.6821 -0.1047 -1.4626
   63CHL1   C20 5818   6.108   7.041   3.592  0.2664  0.3881 -0.6752
   63CHL1   H20 5819   6.005   7.001   3.589  0.8282 -1.5134  1.8439
   63CHL1   C21 5820   6.103   7.158   3.484  0.1984 -0.3773 -0.2760
   63CHL1  H21A 5821   6.192   7.225   3.476 -1.6619  2.3273  0.3553
   63CHL1  H21B 5822   6.018   7.222   3.515 -1.0609 -1.5419 -1.2047
   63CHL1  H21C 5823   6.073   7.118   3.385  0.1035  2.7035 -1.6057
   63CHL1   C22 5824   6.148   7.084   3.738  0.2181  0.2805  0.7280
   63CHL1  H22A 5825   6.179   6.991   3.790 -2.9125 -1.7389 -0.7326
   63CHL1  H22B 5826   6.228   7.162   3.738 -1.5328  2.1668 -0.6766
   63CHL1   C23 5827   6.023   7.133   3.811  0.5336  0.4402 -0.2403
   63CHL1  H23A 5828   5.993   7.224   3.753  0.0617  0.1307 -0.4936
   63CHL1  H23B 5829   5.943   7.058   3.792  1.0621  0.2182 -1.7650
   63CHL1   C24 5830   6.038   7.154   3.963  0.0919  0.7942  0.2655
   63CHL1  H24A 5831   6.103   7.069   3.991 -0.2918  0.4955  0.2531
   63CHL1  H24B 5832   6.101   7.245   3.979 -1.3011  1.3552  3.2793
   63CHL1   C25 5833   5.906   7.162   4.038  0.3388 -0.7117  1.0266
   63CHL1   H25 5834   5.842   7.076   4.007 -1.0437 -0.5512  3.1855
   63CHL1   C26 5835   5.924   7.145   4.184  0.4435  0.1196  0.7158
   63CHL1  H26A 5836   5.965   7.044   4.203 -0.8721 -0.4261  0.7784
   63CHL1  H26B 5837   5.991   7.217   4.235  0.6675  0.1107  0.4343
   63CHL1  H26C 5838   5.823   7.147   4.231  0.6925  0.8869  1.2479
   63CHL1   C27 5839   5.833   7.294   3.997  0.1095  0.6497 -0.1778
   63CHL1  H27A 5840   5.826   7.314   3.888  0.7601  2.2173  0.0474
   63CHL1  H27B 5841   5.731   7.288   4.040  0.5170 -2.1867  0.6428
   63CHL1  H27C 5842   5.894   7.376   4.042  0.1484 -0.9550  2.9905
   64CHL1    C3 5843   5.797   6.386   2.703  0.1006 -0.3122  0.0715
   64CHL1    H3 5844   5.885   6.452   2.715 -0.4723  0.2925  1.0213
   64CHL1    O3 5845   5.764   6.360   2.568  0.1446 -0.0100 -0.4303
   64CHL1   H3' 5846   5.702   6.424   2.532 -0.2767 -0.4411 -0.4818
   64CHL1    C4 5847   5.823   6.256   2.784  0.2240  0.3347 -0.2062
   64CHL1   H4A 5848   5.755   6.175   2.753 -1.1351  0.9190  1.1098
   64CHL1   H4B 5849   5.926   6.230   2.750 -0.0511  0.4234 -1.1338
   64CHL1    C5 5850   5.835   6.270   2.937 -0.8507  0.2291 -0.1353
   64CHL1    C6 5851   5.941   6.223   3.002 -0.9496  0.9714 -0.3816
   64CHL1    H6 5852   6.010   6.162   2.943 -1.6174  0.7401 -0.9456
   64CHL1    C7 5853   5.953   6.231   3.150 -0.0820 -0.1080 -0.5938
   64CHL1   H7A 5854   5.969   6.130   3.193  2.2045  0.4855  0.1355
   64CHL1   H7B 5855   6.047   6.286   3.174 -0.2264 -0.0016 -0.2663
   64CHL1    C8 5856   5.833   6.297   3.227  0.3407  0.5563  0.2101
   64CHL1    H8 5857   5.762   6.213   3.238  0.5182  0.6614  2.6687
   64CHL1   C14 5858   5.877   6.338   3.365 -0.0250  0.2124  1.2219
   64CHL1   H14 5859   5.949   6.422   3.356 -1.4829  1.2945 -1.8488
   64CHL1   C15 5860   5.939   6.232   3.466 -0.1183 -0.1254 -0.3516
   64CHL1  H15A 5861   5.882   6.137   3.457  1.0965 -0.7981 -1.3321
   64CHL1  H15B 5862   6.045   6.205   3.443 -0.1778  1.4562 -2.8137
   64CHL1   C16 5863   5.917   6.287   3.604  0.2446  0.0956 -0.4681
   64CHL1  H16A 5864   5.858   6.215   3.665  1.2123  0.2919  0.7212
   64CHL1  H16B 5865   6.010   6.307   3.661  0.6917 -1.3192 -0.6749
   64CHL1   C17 5866   5.832   6.420   3.581 -0.2181 -0.0266 -0.5339
   64CHL1   H17 5867   5.910   6.497   3.565  1.1528 -1.4059 -0.7263
   64CHL1   C13 5868   5.759   6.405   3.448  0.2196  0.0639  1.0654
   64CHL1   C18 5869   5.628   6.312   3.459 -0.6081  0.0544 -0.7957
   64CHL1  H18A 5870   5.650   6.227   3.528 -0.7968 -0.0024 -0.8057
   64CHL1  H18B 5871   5.535   6.362   3.492 -0.8254 -1.2279  0.6621
   64CHL1  H18C 5872   5.605   6.264   3.362 -0.0497 -0.3210 -0.7480
   64CHL1   C12 5873   5.708   6.530   3.369 -0.1335  0.1857  0.5994
   64CHL1  H12A 5874   5.622   6.585   3.412  1.5560  0.8121  3.4451
   64CHL1  H12B 5875   5.781   6.614   3.356 -1.4177  1.4470  1.3092
   64CHL1   C11 5876   5.664   6.485   3.223  0.1016  0.4920  0.3692
   64CHL1  H11A 5877   5.561   6.445   3.223 -0.6417  2.3125  0.0672
   64CHL1  H11B 5878   5.639   6.581   3.175  1.5038  0.8657  0.3265
   64CHL1    C9 5879   5.768   6.408   3.142 -0.3775  0.7203 -0.3781
   64CHL1    H9 5880   5.854   6.477   3.131  0.0097  0.5723  1.4126
   64CHL1   C10 5881   5.729   6.366   3.001  0.5765 -0.6261  0.1982
   64CHL1   C19 5882   5.598   6.282   3.004 -0.4272  0.4919 -0.4229
   64CHL1  H19A 5883   5.615   6.190   3.064  0.6315  0.6537 -0.4670
   64CHL1  H19B 5884   5.518   6.347   3.048 -1.2257 -0.1844 -0.8500
   64CHL1  H19C 5885   5.563   6.255   2.902 -2.6216  1.8691 -0.1054
   64CHL1    C1 5886   5.706   6.497   2.912 -0.0579 -0.3242  0.1953
   64CHL1   H1A 5887   5.625   6.560   2.955  0.8952 -0.0840  1.7407
   64CHL1   H1B 5888   5.803   6.550   2.910 -0.1155 -0.2461 -0.8659
   64CHL1    C2 5889   5.676   6.467   2.767  0.4618  0.5396  1.0005
   64CHL1   H2A 5890   5.668   6.558   2.705 -2.0191 -0.1769  0.1766
   64CHL1   H2B 5891   5.585   6.406   2.749  0.2087  1.1298  0.2561
   64CHL1   C20 5892   5.747   6.463   3.704 -1.0384 -0.3379  0.6963
   64CHL1   H20 5893   5.679   6.379   3.730 -0.2846 -1.2557 -0.2170
   64CHL1   C21 5894   5.658   6.580   3.675  0.7137 -0.0679  0.1690
   64CHL1  H21A 5895   5.573   6.549   3.611  1.8606 -0.3646 -1.2825
   64CHL1  H21B 5896   5.724   6.654   3.624  1.0560  0.5575  1.4811
   64CHL1  H21C 5897   5.625   6.626   3.770  2.2021  0.8508  0.2827
   64CHL1   C22 5898   5.842   6.488   3.826 -0.0593  0.0579  0.3410
   64CHL1  H22A 5899   5.888   6.392   3.857 -0.2059 -0.8915 -2.2138
   64CHL1  H22B 5900   5.916   6.558   3.782 -0.8514  2.2353  2.2034
   64CHL1   C23 5901   5.779   6.557   3.947 -0.2033 -0.6329 -0.6389
   64CHL1  H23A 5902   5.797   6.666   3.932  2.3319 -1.1139 -1.5202
   64CHL1  H23B 5903   5.670   6.533   3.949 -0.6004  1.0782  0.8041
   64CHL1   C24 5904   5.843   6.511   4.087 -0.2977 -0.1279  0.1005
   64CHL1  H24A 5905   5.784   6.569   4.162  0.1163  1.0803 -0.4956
   64CHL1  H24B 5906   5.831   6.401   4.092  0.4113 -0.2201 -0.2147
   64CHL1   C25 5907   5.992   6.559   4.105  0.3057  0.3951 -0.1471
   64CHL1   H25 5908   6.054   6.533   4.017  1.0297  0.1841  0.4136
   64CHL1   C26 5909   6.002   6.704   4.123  0.2719  0.1482 -0.2441
   64CHL1  H26A 5910   5.956   6.756   4.036  0.0535 -0.2895 -0.3887
   64CHL1  H26B 5911   5.938   6.739   4.207 -1.0520  1.0429 -1.5755
   64CHL1  H26C 5912   6.107   6.740   4.138  0.9131 -2.3890  2.2839
   64CHL1   C27 5913   6.042   6.490   4.233 -0.3356  0.2744 -0.3114
   64CHL1  H27A 5914   5.977   6.508   4.321 -0.3246  1.3121 -0.5095
   64CHL1  H27B 5915   6.032   6.379   4.222 -0.5051  0.1878  0.6322
   64CHL1  H27C 5916   6.147   6.520   4.248 -0.8428  1.3922  1.1512
   65CHL1    C3 5917   2.588   1.852   2.785 -0.0524 -0.0459 -1.0077
   65CHL1    H3 5918   2.639   1.755   2.800  1.8871  0.9376 -0.9406
   65CHL1    O3 5919   2.498   1.845   2.679 -0.5889  0.2434 -0.6844
   65CHL1   H3' 5920   2.420   1.798   2.710 -0.8091  0.4338 -0.9401
   65CHL1    C4 5921   2.510   1.899   2.907  0.0688  0.2294  0.5371
   65CHL1   H4A 5922   2.447   1.990   2.897 -1.2406 -0.9021 -2.5284
   65CHL1   H4B 5923   2.423   1.832   2.921 -0.0123  0.2475  0.1384
   65CHL1    C5 5924   2.601   1.919   3.026 -0.1939  0.5428 -0.0182
   65CHL1    C6 5925   2.578   1.850   3.138 -0.8189  0.2307 -0.5258
   65CHL1    H6 5926   2.503   1.770   3.151 -1.1502  0.3843 -1.4532
   65CHL1    C7 5927   2.663   1.870   3.260  0.3212  0.0425 -0.3642
   65CHL1   H7A 5928   2.603   1.877   3.353  0.3888 -0.2881 -0.2933
   65CHL1   H7B 5929   2.719   1.774   3.269  0.3590  0.1719  1.0612
   65CHL1    C8 5930   2.749   1.998   3.259  0.7670 -0.4575  0.1609
   65CHL1    H8 5931   2.677   2.080   3.282  0.5408 -0.4225 -0.6279
   65CHL1   C14 5932   2.864   1.994   3.370 -0.6894  0.2753  0.0476
   65CHL1   H14 5933   2.940   1.920   3.338 -1.0570  0.5572 -1.5801
   65CHL1   C15 5934   2.816   1.950   3.505 -0.2775 -0.5772  1.0093
   65CHL1  H15A 5935   2.727   2.007   3.537 -0.7133 -1.0408  0.6387
   65CHL1  H15B 5936   2.790   1.842   3.512  1.1221 -1.0825 -0.7307
   65CHL1   C16 5937   2.931   2.012   3.594 -0.3203  1.2056 -0.2626
   65CHL1  H16A 5938   2.900   2.077   3.679  1.9040  0.6790  1.0350
   65CHL1  H16B 5939   2.974   1.920   3.640  0.7922  1.5625 -0.5721
   65CHL1   C17 5940   3.031   2.090   3.498  0.0965  0.5011  0.6699
   65CHL1   H17 5941   3.104   2.015   3.460 -1.1281  0.3425 -1.5427
   65CHL1   C13 5942   2.944   2.127   3.372  0.5821 -0.0228 -0.3043
   65CHL1   C18 5943   2.849   2.244   3.412  0.1047 -0.0188 -0.6245
   65CHL1  H18A 5944   2.905   2.338   3.428 -1.2191  0.8395 -0.9266
   65CHL1  H18B 5945   2.771   2.275   3.339  1.7110  1.7722 -1.6706
   65CHL1  H18C 5946   2.791   2.222   3.504 -0.8704  3.8957 -0.1622
   65CHL1   C12 5947   3.008   2.153   3.230 -0.6257 -0.0395 -0.3311
   65CHL1  H12A 5948   3.077   2.240   3.230  0.8578 -1.1386 -1.8838
   65CHL1  H12B 5949   3.065   2.058   3.219  0.7122  0.8442 -1.3558
   65CHL1   C11 5950   2.905   2.152   3.118  0.0102 -0.3533 -0.2367
   65CHL1  H11A 5951   2.849   2.245   3.141  0.2401  0.1685 -1.6875
   65CHL1  H11B 5952   2.940   2.172   3.015 -1.8408  0.7479 -0.6971
   65CHL1    C9 5953   2.813   2.022   3.123  0.1551 -0.6644 -0.4161
   65CHL1    H9 5954   2.883   1.936   3.114  3.0047  1.0551  2.7296
   65CHL1   C10 5955   2.712   2.019   3.003 -0.3472  0.0467 -0.3735
   65CHL1   C19 5956   2.651   2.166   2.982  0.0092 -0.9076  0.0986
   65CHL1  H19A 5957   2.732   2.234   2.948 -0.6983  0.1664  0.5061
   65CHL1  H19B 5958   2.566   2.166   2.909  0.7420  0.3554 -0.8055
   65CHL1  H19C 5959   2.609   2.206   3.077 -0.8764  3.8369 -1.9640
   65CHL1    C1 5960   2.790   1.984   2.874 -0.3242  0.3903 -0.6858
   65CHL1   H1A 5961   2.858   2.067   2.846 -1.2283  1.1390 -0.7208
   65CHL1   H1B 5962   2.862   1.901   2.884 -1.0448 -0.0859  0.8119
   65CHL1    C2 5963   2.696   1.953   2.757  0.1950  0.0854  0.1586
   65CHL1   H2A 5964   2.757   1.920   2.671  1.0552  1.8149  0.0687
   65CHL1   H2B 5965   2.654   2.051   2.726 -0.3129 -0.1329  0.1556
   65CHL1   C20 5966   3.109   2.196   3.577 -0.3014  0.3857 -0.6587
   65CHL1   H20 5967   3.038   2.268   3.622 -0.6594 -1.1354  1.3611
   65CHL1   C21 5968   3.213   2.262   3.482 -0.0154 -0.2075 -0.7753
   65CHL1  H21A 5969   3.274   2.339   3.534  0.7916  1.1342 -3.5179
   65CHL1  H21B 5970   3.165   2.310   3.394 -0.9440  0.4227  0.0512
   65CHL1  H21C 5971   3.286   2.183   3.456  2.2683  0.2718  3.3541
   65CHL1   C22 5972   3.191   2.138   3.699  0.2108  0.3758  0.1113
   65CHL1  H22A 5973   3.134   2.072   3.768  1.7660 -0.7097  0.4192
   65CHL1  H22B 5974   3.275   2.075   3.664  0.3007  0.1709  0.6762
   65CHL1   C23 5975   3.274   2.242   3.784  0.1546  0.1066  0.2442
   65CHL1  H23A 5976   3.353   2.290   3.722  0.2030 -1.5724 -1.0655
   65CHL1  H23B 5977   3.197   2.321   3.801 -0.4927  0.2755 -2.9255
   65CHL1   C24 5978   3.340   2.185   3.907  0.5294 -0.3630  0.2612
   65CHL1  H24A 5979   3.385   2.266   3.969 -0.5908  1.3385 -1.0679
   65CHL1  H24B 5980   3.258   2.141   3.967 -1.0994  1.8736 -0.1759
   65CHL1   C25 5981   3.456   2.088   3.883  0.0308 -0.4420  0.0496
   65CHL1   H25 5982   3.423   2.006   3.816 -0.7979  0.9290 -1.2835
   65CHL1   C26 5983   3.569   2.153   3.795 -0.4349  0.1748 -0.0802
   65CHL1  H26A 5984   3.524   2.153   3.694  0.2414 -0.2472 -0.3840
   65CHL1  H26B 5985   3.592   2.255   3.834 -0.1399 -0.9862  3.1289
   65CHL1  H26C 5986   3.657   2.088   3.777  0.8289  2.3097 -2.1678
   65CHL1   C27 5987   3.515   2.046   4.018  1.0781 -0.4310 -0.6522
   65CHL1  H27A 5988   3.610   1.994   3.992  0.1052 -2.5751 -0.0922
   65CHL1  H27B 5989   3.539   2.132   4.085  3.7911  1.2603 -3.5049
   65CHL1  H27C 5990   3.452   1.970   4.068  0.4109  0.9096  0.6435
   66CHL1    C3 5991   6.426   3.543   2.566 -0.2838  0.1643  0.3902
   66CHL1    H3 5992   6.537   3.539   2.562 -0.3170 -1.7670  0.2351
   66CHL1    O3 5993   6.371   3.582   2.442 -0.0191 -0.1233  0.6177
   66CHL1   H3' 5994   6.294   3.636   2.464  0.2279  0.3147  0.4212
   66CHL1    C4 5995   6.378   3.398   2.602  0.4747 -0.2394  0.6073
   66CHL1   H4A 5996   6.269   3.380   2.613  0.4952  0.4388  2.1873
   66CHL1   H4B 5997   6.413   3.340   2.514  1.6788  1.0883  0.1749
   66CHL1    C5 5998   6.427   3.355   2.742  0.7151 -0.0618 -0.2130
   66CHL1    C6 5999   6.491   3.241   2.757 -0.1416 -0.0539 -0.1498
   66CHL1    H6 6000   6.499   3.168   2.676  1.8465 -0.5111  0.4067
   66CHL1    C7 6001   6.543   3.189   2.892  0.0548 -0.3032 -0.4318
   66CHL1   H7A 6002   6.542   3.078   2.894  0.1436 -0.3182 -0.9395
   66CHL1   H7B 6003   6.649   3.220   2.901 -0.0015 -0.5799  1.5865
   66CHL1    C8 6004   6.459   3.245   3.008  0.3872  0.0604 -0.9563
   66CHL1    H8 6005   6.357   3.203   2.990  0.6831 -1.5370  0.7050
   66CHL1   C14 6006   6.524   3.218   3.141 -0.4677  0.1075 -0.7214
   66CHL1   H14 6007   6.629   3.254   3.134 -0.0247 -1.2393 -1.1375
   66CHL1   C15 6008   6.530   3.069   3.173 -0.4696 -0.0958 -0.4259
   66CHL1  H15A 6009   6.437   3.011   3.153 -0.7601 -0.7844  2.4148
   66CHL1  H15B 6010   6.611   3.020   3.116  0.6691 -0.2063  1.2041
   66CHL1   C16 6011   6.560   3.071   3.325 -0.0161 -0.2400  0.0744
   66CHL1  H16A 6012   6.495   2.990   3.366 -1.9387 -0.0161 -2.2435
   66CHL1  H16B 6013   6.661   3.033   3.348 -0.4209 -1.1613  0.4005
   66CHL1   C17 6014   6.530   3.212   3.372 -0.3433  1.4617 -0.1093
   66CHL1   H17 6015   6.630   3.258   3.387 -0.3385  0.5369  3.8221
   66CHL1   C13 6016   6.455   3.276   3.256  0.1349  0.1917  0.0548
   66CHL1   C18 6017   6.304   3.235   3.257  0.2087  0.4037  0.1413
   66CHL1  H18A 6018   6.243   3.246   3.164  0.9771 -0.5701 -0.5029
   66CHL1  H18B 6019   6.301   3.130   3.293  1.4025 -0.4805 -2.1326
   66CHL1  H18C 6020   6.246   3.282   3.339  0.5368 -1.9150  1.7888
   66CHL1   C12 6021   6.470   3.426   3.246  0.1072 -0.7217  0.5314
   66CHL1  H12A 6022   6.423   3.474   3.334  0.2440  0.2045  0.1067
   66CHL1  H12B 6023   6.577   3.454   3.253 -0.1115 -0.4016  4.4622
   66CHL1   C11 6024   6.408   3.480   3.112 -0.1039  0.0856 -0.0764
   66CHL1  H11A 6025   6.299   3.471   3.130  0.3055 -1.3141  2.0991
   66CHL1  H11B 6026   6.426   3.589   3.105 -3.5803  0.8826  1.2720
   66CHL1    C9 6027   6.453   3.397   2.991  0.5163  0.0743 -0.3910
   66CHL1    H9 6028   6.558   3.433   2.990  0.0759  1.4859  0.1104
   66CHL1   C10 6029   6.393   3.446   2.858 -0.4548  0.0748 -0.4182
   66CHL1   C19 6030   6.237   3.449   2.871  0.0482 -1.3852  0.0498
   66CHL1  H19A 6031   6.209   3.540   2.927 -1.0082 -0.6955 -1.5243
   66CHL1  H19B 6032   6.190   3.473   2.774  0.9015  1.1541  0.1880
   66CHL1  H19C 6033   6.192   3.365   2.928  0.6916 -0.8139  1.4349
   66CHL1    C1 6034   6.452   3.586   2.819 -0.1521  0.1013  0.3597
   66CHL1   H1A 6035   6.425   3.658   2.899 -1.3646  2.1076 -1.7422
   66CHL1   H1B 6036   6.563   3.583   2.810 -0.1735 -0.6104  0.2937
   66CHL1    C2 6037   6.403   3.643   2.682  0.2761 -0.0112 -0.6293
   66CHL1   H2A 6038   6.453   3.740   2.662 -1.9547  1.7508  1.7980
   66CHL1   H2B 6039   6.294   3.661   2.692 -0.0643 -1.7150 -0.9086
   66CHL1   C20 6040   6.468   3.200   3.512 -0.5414 -0.1971 -0.7848
   66CHL1   H20 6041   6.375   3.140   3.503 -0.3947 -0.2322 -2.2656
   66CHL1   C21 6042   6.430   3.340   3.558 -0.2566  0.7413  0.1358
   66CHL1  H21A 6043   6.358   3.390   3.491 -0.3032  1.6891  0.8619
   66CHL1  H21B 6044   6.519   3.406   3.554  0.1697  0.3433  2.0039
   66CHL1  H21C 6045   6.373   3.342   3.654  0.3741 -0.4181  0.5574
   66CHL1   C22 6046   6.562   3.125   3.616  0.0102  0.8044 -0.2878
   66CHL1  H22A 6047   6.573   3.018   3.588  1.6661  0.9560 -0.2927
   66CHL1  H22B 6048   6.662   3.170   3.599  0.7484 -0.0075  1.6383
   66CHL1   C23 6049   6.539   3.133   3.768 -0.0007 -0.0691 -0.3872
   66CHL1  H23A 6050   6.564   3.232   3.812 -0.5137 -1.1707  2.6722
   66CHL1  H23B 6051   6.432   3.110   3.783  0.1465 -1.1875 -0.9345
   66CHL1   C24 6052   6.627   3.037   3.851  0.1518  0.4141 -0.7613
   66CHL1  H24A 6053   6.589   2.938   3.818 -1.0990  0.6418 -0.0670
   66CHL1  H24B 6054   6.736   3.025   3.833  0.2312 -1.5796  0.7279
   66CHL1   C25 6055   6.615   3.051   4.008  0.4590  0.1437 -0.5635
   66CHL1   H25 6056   6.622   3.160   4.024 -2.3769  0.6669 -2.1553
   66CHL1   C26 6057   6.481   3.013   4.070  0.1382  0.1671  0.1226
   66CHL1  H26A 6058   6.474   3.057   4.172 -1.3913 -2.1347  1.0895
   66CHL1  H26B 6059   6.406   3.060   4.003  1.3371  0.4364 -1.0890
   66CHL1  H26C 6060   6.477   2.902   4.079 -0.0712  0.0567 -1.1435
   66CHL1   C27 6061   6.732   2.995   4.091 -0.5140  0.3476 -0.2128
   66CHL1  H27A 6062   6.833   3.030   4.060 -0.4605  1.3132  0.9695
   66CHL1  H27B 6063   6.732   2.884   4.093  0.6764  0.3191 -0.5833
   66CHL1  H27C 6064   6.721   3.035   4.194  0.7222  0.3492 -0.0635
   67CHL1    C3 6065   6.872   0.656   2.680  0.0438  0.0599 -0.3227
   67CHL1    H3 6066   6.972   0.693   2.712  0.2925 -1.5297  0.8305
   67CHL1    O3 6067   6.873   0.631   2.537  0.3938  0.2402  0.4573
   67CHL1   H3' 6068   6.962   0.654   2.508  0.6513 -1.4470 -0.2292
   67CHL1    C4 6069   6.839   0.526   2.751  0.2186  1.0068  0.1150
   67CHL1   H4A 6070   6.739   0.489   2.720  0.6183 -0.4861  0.5447
   67CHL1   H4B 6071   6.910   0.448   2.718  0.9307  0.2475  3.0776
   67CHL1    C5 6072   6.845   0.536   2.903  0.3299 -0.4598  0.7110
   67CHL1    C6 6073   6.935   0.481   2.972 -0.1876  0.3545 -0.4553
   67CHL1    H6 6074   7.008   0.427   2.911  1.0095 -0.2812  1.4489
   67CHL1    C7 6075   6.951   0.485   3.129  0.4050 -0.8360  0.1058
   67CHL1   H7A 6076   6.954   0.384   3.176 -3.3971 -0.5932  1.1694
   67CHL1   H7B 6077   7.044   0.541   3.151  0.1739 -1.2709  2.3968
   67CHL1    C8 6078   6.835   0.553   3.191  0.0394 -0.2683 -0.1903
   67CHL1    H8 6079   6.747   0.485   3.196 -0.8598  0.7430 -1.5380
   67CHL1   C14 6080   6.869   0.596   3.334  0.6982  0.2239  0.5770
   67CHL1   H14 6081   6.950   0.670   3.313  1.0594 -0.1134  0.7736
   67CHL1   C15 6082   6.925   0.494   3.425 -0.1285  0.3813 -0.2134
   67CHL1  H15A 6083   6.845   0.417   3.432  0.0305  0.3371  1.7562
   67CHL1  H15B 6084   7.024   0.449   3.401  0.3886 -0.6309  3.2807
   67CHL1   C16 6085   6.918   0.560   3.569 -0.0129 -0.5206 -0.3877
   67CHL1  H16A 6086   6.864   0.496   3.642  0.3591  0.5103  0.8097
   67CHL1  H16B 6087   7.021   0.581   3.603 -0.0296 -0.7847 -0.1767
   67CHL1   C17 6088   6.835   0.687   3.545 -0.3492  0.1214  0.0755
   67CHL1   H17 6089   6.904   0.773   3.527  0.4612 -0.2308  1.3772
   67CHL1   C13 6090   6.757   0.669   3.411 -0.0975  0.0077 -0.1601
   67CHL1   C18 6091   6.641   0.580   3.453  1.1509  0.0826  0.5648
   67CHL1  H18A 6092   6.663   0.492   3.517 -0.3604 -1.1892 -0.5797
   67CHL1  H18B 6093   6.566   0.641   3.508 -0.3603 -1.7185  0.5784
   67CHL1  H18C 6094   6.598   0.526   3.366  1.3036  1.0402 -0.1322
   67CHL1   C12 6095   6.703   0.784   3.316  0.5949  0.2957 -0.3087
   67CHL1  H12A 6096   6.603   0.816   3.352  0.2218 -1.3750  0.1984
   67CHL1  H12B 6097   6.771   0.872   3.314 -1.2802  1.8208  0.0604
   67CHL1   C11 6098   6.675   0.738   3.174  0.1812 -0.5814  0.2721
   67CHL1  H11A 6099   6.587   0.672   3.193 -0.0497 -0.8099 -1.4408
   67CHL1  H11B 6100   6.632   0.817   3.109  2.0281  0.1381 -0.1433
   67CHL1    C9 6101   6.789   0.671   3.105  0.0640 -0.0650  0.0733
   67CHL1    H9 6102   6.867   0.749   3.092 -1.3866  1.2684 -1.2667
   67CHL1   C10 6103   6.754   0.643   2.955  0.7818 -0.7264  0.4364
   67CHL1   C19 6104   6.604   0.593   2.939  0.0973 -0.3822 -0.4320
   67CHL1  H19A 6105   6.530   0.669   2.974 -0.9912 -1.7813  0.4357
   67CHL1  H19B 6106   6.581   0.571   2.833  0.1387 -0.2987 -0.4579
   67CHL1  H19C 6107   6.604   0.500   3.001  0.6679  1.8889  3.3139
   67CHL1    C1 6108   6.763   0.779   2.877  0.4232  0.0660 -0.0402
   67CHL1   H1A 6109   6.681   0.843   2.917  0.3328 -0.5672  0.8106
   67CHL1   H1B 6110   6.852   0.831   2.917 -0.1275  1.0319 -0.0363
   67CHL1    C2 6111   6.768   0.776   2.717 -0.0858  0.2117 -0.3550
   67CHL1   H2A 6112   6.801   0.867   2.663 -1.8779  1.0095 -0.1809
   67CHL1   H2B 6113   6.673   0.739   2.673  0.6607 -1.0427 -0.9995
   67CHL1   C20 6114   6.765   0.746   3.668 -0.6913 -0.2484 -0.9225
   67CHL1   H20 6115   6.673   0.692   3.696 -0.3723 -0.2300  0.2103
   67CHL1   C21 6116   6.708   0.887   3.637 -0.2055 -0.3119 -0.1478
   67CHL1  H21A 6117   6.654   0.934   3.722  3.4157 -1.1364  2.9210
   67CHL1  H21B 6118   6.640   0.893   3.550 -2.1221 -1.2717  1.2098
   67CHL1  H21C 6119   6.788   0.959   3.609 -2.5163  2.1163 -0.8406
   67CHL1   C22 6120   6.866   0.766   3.787 -0.7950  0.9884 -1.0382
   67CHL1  H22A 6121   6.943   0.685   3.786 -3.1349 -1.3660 -1.4501
   67CHL1  H22B 6122   6.917   0.864   3.779 -1.3452  1.6189  1.9787
   67CHL1   C23 6123   6.784   0.775   3.918 -0.3715  0.1955  0.5653
   67CHL1  H23A 6124   6.712   0.860   3.914  0.6759  1.0775 -0.2332
   67CHL1  H23B 6125   6.712   0.693   3.940 -0.7241  0.1050 -0.8446
   67CHL1   C24 6126   6.883   0.787   4.034 -0.1766 -0.1965  0.3870
   67CHL1  H24A 6127   6.934   0.688   4.042 -0.0498 -0.2096 -0.4777
   67CHL1  H24B 6128   6.960   0.866   4.025 -0.5713  0.3377  1.5599
   67CHL1   C25 6129   6.817   0.803   4.175 -0.2292  0.2920  1.0809
   67CHL1   H25 6130   6.753   0.894   4.172 -1.4695 -0.5734  0.2533
   67CHL1   C26 6131   6.734   0.676   4.202  0.1424  0.1300  0.5983
   67CHL1  H26A 6132   6.797   0.586   4.181 -0.7527 -0.6840  1.2955
   67CHL1  H26B 6133   6.707   0.662   4.309 -1.0388 -3.0561 -0.0067
   67CHL1  H26C 6134   6.645   0.666   4.137  0.1454  0.2091  0.5829
   67CHL1   C27 6135   6.919   0.834   4.289  0.2289  0.2409  0.9390
   67CHL1  H27A 6136   6.864   0.871   4.378  0.3330  0.0339  1.0883
   67CHL1  H27B 6137   6.988   0.748   4.306 -0.6244 -0.9078 -1.0157
   67CHL1  H27C 6138   6.983   0.918   4.256 -0.0273 -0.6981 -2.3894
   68CHL1    C3 6139   2.827   0.706   2.822  0.1192  0.2479  0.4333
   68CHL1    H3 6140   2.871   0.619   2.874  0.1220 -1.1026 -1.7232
   68CHL1    O3 6141   2.753   0.650   2.712 -0.6341 -0.0497  0.5622
   68CHL1   H3' 6142   2.789   0.693   2.634 -1.3110 -3.8983 -2.2091
   68CHL1    C4 6143   2.724   0.785   2.911  0.2245  0.0242 -0.7830
   68CHL1   H4A 6144   2.685   0.864   2.843 -1.1864  0.1701  0.1680
   68CHL1   H4B 6145   2.647   0.713   2.943  1.7131 -1.9430 -1.4200
   68CHL1    C5 6146   2.800   0.835   3.034  0.0404  0.5456  1.1477
   68CHL1    C6 6147   2.750   0.799   3.151  0.3332  0.5566 -0.1715
   68CHL1    H6 6148   2.661   0.735   3.142  0.6786  0.1214 -0.5487
   68CHL1    C7 6149   2.814   0.831   3.283 -0.5291 -0.1383 -0.5154
   68CHL1   H7A 6150   2.732   0.839   3.358 -0.9219 -0.1465 -0.9457
   68CHL1   H7B 6151   2.875   0.741   3.304 -0.3956 -0.2033 -1.1637
   68CHL1    C8 6152   2.901   0.957   3.270 -0.1249  0.2810  0.1272
   68CHL1    H8 6153   2.833   1.045   3.260  1.3835  1.2689 -2.5931
   68CHL1   C14 6154   2.994   0.968   3.390 -0.1119 -0.7941  0.2035
   68CHL1   H14 6155   3.073   0.890   3.389  1.7164  0.9621  0.8256
   68CHL1   C15 6156   2.924   0.967   3.528 -0.5119  0.6449 -0.2362
   68CHL1  H15A 6157   2.821   1.008   3.528 -0.5838  0.4914  1.0351
   68CHL1  H15B 6158   2.925   0.864   3.570  1.6727  0.7794  0.1379
   68CHL1   C16 6159   3.012   1.057   3.621 -0.8439 -0.2119  0.6145
   68CHL1  H16A 6160   2.959   1.153   3.641 -2.6591 -0.2410 -3.2369
   68CHL1  H16B 6161   3.039   1.009   3.718  1.6000  0.7655  0.4801
   68CHL1   C17 6162   3.137   1.091   3.538 -0.0989  0.2720  0.4417
   68CHL1   H17 6163   3.211   1.009   3.554 -0.0238  0.7184  2.7173
   68CHL1   C13 6164   3.092   1.088   3.390 -0.0712  0.8840 -0.2779
   68CHL1   C18 6165   3.013   1.218   3.359  0.3534 -0.5276  0.6189
   68CHL1  H18A 6166   3.088   1.300   3.363  1.7143 -1.5274 -2.2433
   68CHL1  H18B 6167   2.972   1.206   3.257  0.9745  0.2227  0.2653
   68CHL1  H18C 6168   2.941   1.244   3.440  0.5199 -0.8315  0.8669
   68CHL1   C12 6169   3.197   1.063   3.282  1.0836  0.4829  0.0043
   68CHL1  H12A 6170   3.252   1.158   3.267  1.3005  0.2578 -0.6591
   68CHL1  H12B 6171   3.254   0.974   3.317 -2.2086 -0.8714  2.4868
   68CHL1   C11 6172   3.125   1.035   3.137  0.2998 -0.0306 -0.6024
   68CHL1  H11A 6173   3.097   1.130   3.086  2.5689  1.6413  1.0345
   68CHL1  H11B 6174   3.196   0.977   3.074 -1.0819  0.3227 -2.5752
   68CHL1    C9 6175   2.999   0.944   3.145 -0.2408 -0.3253 -0.2729
   68CHL1    H9 6176   3.040   0.842   3.162 -0.9542 -0.3930  1.1508
   68CHL1   C10 6177   2.920   0.928   3.007 -0.1951 -0.1546  0.1009
   68CHL1   C19 6178   2.873   1.067   2.957  0.6594 -0.4384  0.3442
   68CHL1  H19A 6179   2.801   1.062   2.872 -1.6859  1.4801  2.0600
   68CHL1  H19B 6180   2.805   1.110   3.034  0.1405  0.6331 -0.6767
   68CHL1  H19C 6181   2.951   1.135   2.918 -1.0478  0.9473 -0.7872
   68CHL1    C1 6182   3.017   0.860   2.892  0.0580  0.0570 -0.1824
   68CHL1   H1A 6183   3.076   0.943   2.847  0.2374  0.0338  0.0084
   68CHL1   H1B 6184   3.080   0.788   2.949  0.1348 -0.1561 -0.5338
   68CHL1    C2 6185   2.943   0.790   2.773 -0.5658  0.2983 -0.3492
   68CHL1   H2A 6186   3.025   0.736   2.721  0.5983  1.5184  0.1479
   68CHL1   H2B 6187   2.899   0.861   2.701  0.4447 -1.4395 -2.8168
   68CHL1   C20 6188   3.220   1.210   3.587 -0.3852 -0.3465  0.1793
   68CHL1   H20 6189   3.169   1.307   3.573 -0.1832 -0.2799 -0.0866
   68CHL1   C21 6190   3.370   1.224   3.537  0.0035  0.2165  0.0554
   68CHL1  H21A 6191   3.380   1.259   3.432  1.3922  0.7027  0.3266
   68CHL1  H21B 6192   3.429   1.131   3.545  1.1536  0.5471 -3.0889
   68CHL1  H21C 6193   3.423   1.299   3.600 -0.0127 -0.9715  1.5443
   68CHL1   C22 6194   3.232   1.211   3.744 -1.1095  0.5599  0.3042
   68CHL1  H22A 6195   3.289   1.301   3.775 -1.8950  1.0094  0.4872
   68CHL1  H22B 6196   3.130   1.217   3.788 -1.6704  2.5009 -1.0852
   68CHL1   C23 6197   3.292   1.087   3.811 -0.1560  0.3875  0.2200
   68CHL1  H23A 6198   3.247   0.998   3.762  1.3703  0.1895 -0.9013
   68CHL1  H23B 6199   3.403   1.080   3.814 -0.1605 -1.0604 -1.4890
   68CHL1   C24 6200   3.247   1.087   3.957 -0.4242  0.1521 -0.1813
   68CHL1  H24A 6201   3.286   1.181   4.001  0.3130  0.0053 -0.5106
   68CHL1  H24B 6202   3.138   1.082   3.980  0.1741 -1.3087  2.7950
   68CHL1   C25 6203   3.301   0.967   4.037  0.0117 -0.4887  0.1103
   68CHL1   H25 6204   3.409   0.952   4.013 -0.8437 -3.1815 -2.7612
   68CHL1   C26 6205   3.271   0.992   4.185  0.0580 -0.2922 -0.0271
   68CHL1  H26A 6206   3.166   0.972   4.214  0.4462  0.4361  2.0083
   68CHL1  H26B 6207   3.320   0.924   4.257  0.8918 -0.9290 -1.1551
   68CHL1  H26C 6208   3.292   1.096   4.218  1.2718 -1.0747  1.8139
   68CHL1   C27 6209   3.228   0.841   3.987 -0.6076  0.3369 -0.3162
   68CHL1  H27A 6210   3.120   0.848   4.011 -0.4911  3.4639 -0.3391
   68CHL1  H27B 6211   3.229   0.831   3.876  1.0745 -0.3460 -0.2632
   68CHL1  H27C 6212   3.277   0.757   4.041 -2.0971  0.4903  1.3543
   69CHL1    C3 6213   1.432   6.422   3.293 -0.2842 -0.0447 -0.6301
   69CHL1    H3 6214   1.344   6.487   3.310 -0.5863 -0.6829  0.3593
   69CHL1    O3 6215   1.501   6.464   3.175  0.3854 -0.0633  0.0123
   69CHL1   H3' 6216   1.586   6.437   3.210 -0.6312  0.0650  2.9294
   69CHL1    C4 6217   1.534   6.444   3.408  0.1413 -0.3261 -0.1005
   69CHL1   H4A 6218   1.633   6.401   3.386  1.1545  1.6202  0.4181
   69CHL1   H4B 6219   1.557   6.553   3.410  3.2276 -0.8145  3.6696
   69CHL1    C5 6220   1.485   6.408   3.544 -0.5687  0.2162 -0.2481
   69CHL1    C6 6221   1.484   6.498   3.647  0.2156 -0.1167 -0.7003
   69CHL1    H6 6222   1.534   6.595   3.633  0.3759 -0.0605  0.2025
   69CHL1    C7 6223   1.451   6.452   3.788  0.0148  0.3827 -0.0985
   69CHL1   H7A 6224   1.530   6.476   3.862 -1.0636  0.4644  1.0586
   69CHL1   H7B 6225   1.358   6.505   3.816 -1.2341 -2.0257  0.5606
   69CHL1    C8 6226   1.413   6.300   3.802 -0.1808  0.2367 -0.5515
   69CHL1    H8 6227   1.504   6.236   3.809  1.2081  2.2573  1.1514
   69CHL1   C14 6228   1.337   6.283   3.935 -0.1870 -0.5947  0.0051
   69CHL1   H14 6229   1.240   6.337   3.926  0.6573  0.6418 -2.6970
   69CHL1   C15 6230   1.388   6.339   4.068  0.0998 -0.2649  0.5177
   69CHL1  H15A 6231   1.496   6.323   4.087  0.3052 -0.2140 -0.5358
   69CHL1  H15B 6232   1.360   6.447   4.069  0.9265 -0.0492  0.9581
   69CHL1   C16 6233   1.314   6.254   4.171 -0.4362  0.5764  0.7113
   69CHL1  H16A 6234   1.386   6.191   4.227 -0.7476 -0.8995 -0.4745
   69CHL1  H16B 6235   1.261   6.320   4.243 -0.1892 -0.1720  1.5979
   69CHL1   C17 6236   1.215   6.165   4.092 -0.1563  0.2882  0.7465
   69CHL1   H17 6237   1.121   6.218   4.068 -0.4523 -0.8701 -0.8141
   69CHL1   C13 6238   1.286   6.142   3.961 -0.1059 -0.4076  0.0303
   69CHL1   C18 6239   1.410   6.048   3.986 -0.3888  0.1101 -0.1077
   69CHL1  H18A 6240   1.469   6.043   3.892 -1.9693  1.0302 -1.2019
   69CHL1  H18B 6241   1.479   6.073   4.069  0.0938 -1.4017 -0.0305
   69CHL1  H18C 6242   1.378   5.943   4.001 -1.6539  0.2801 -1.3823
   69CHL1   C12 6243   1.203   6.101   3.834  0.0467  0.0640 -0.7025
   69CHL1  H12A 6244   1.170   5.996   3.848 -1.0852  0.6451  1.4633
   69CHL1  H12B 6245   1.109   6.162   3.831  0.2385  0.5361  1.5049
   69CHL1   C11 6246   1.277   6.111   3.702 -1.0028  0.5053 -0.0249
   69CHL1  H11A 6247   1.360   6.037   3.705  0.0878  1.7190  1.0215
   69CHL1  H11B 6248   1.204   6.076   3.625 -2.0568  1.1514  0.6624
   69CHL1    C9 6249   1.332   6.252   3.676  0.0342 -0.0351 -0.1287
   69CHL1    H9 6250   1.238   6.310   3.680 -0.8065 -1.4273  1.5157
   69CHL1   C10 6251   1.416   6.267   3.549 -0.0822 -0.2594 -0.0162
   69CHL1   C19 6252   1.534   6.165   3.543  0.1743 -0.0208  0.2489
   69CHL1  H19A 6253   1.496   6.062   3.524 -1.5433  0.6608 -0.2935
   69CHL1  H19B 6254   1.593   6.194   3.454 -2.0129  0.4847 -1.1192
   69CHL1  H19C 6255   1.596   6.170   3.635  0.0250 -2.3453  0.5319
   69CHL1    C1 6256   1.324   6.244   3.428 -1.0391  0.4869  0.0919
   69CHL1   H1A 6257   1.301   6.136   3.422 -0.8475  0.4683 -0.3960
   69CHL1   H1B 6258   1.230   6.301   3.437 -0.6965  0.9774  0.6656
   69CHL1    C2 6259   1.387   6.282   3.288  0.5224  0.4798 -0.2077
   69CHL1   H2A 6260   1.311   6.264   3.210  1.6250 -0.1880 -1.1497
   69CHL1   H2B 6261   1.473   6.216   3.262 -0.9185 -0.5908 -2.5662
   69CHL1   C20 6262   1.181   6.035   4.180  0.2209 -0.0289  0.5436
   69CHL1   H20 6263   1.278   5.988   4.207  0.1108  0.3417  1.6615
   69CHL1   C21 6264   1.100   5.936   4.096 -0.0200  0.3788  0.2403
   69CHL1  H21A 6265   1.039   5.992   4.021 -0.2227  1.7156  1.3746
   69CHL1  H21B 6266   1.045   5.866   4.163 -0.5859  0.5006 -0.0846
   69CHL1  H21C 6267   1.169   5.880   4.030 -0.4915 -1.0842  0.9356
   69CHL1   C22 6268   1.104   6.071   4.301  1.0822  0.1994  0.3608
   69CHL1  H22A 6269   1.077   5.977   4.353  1.7780 -0.6136 -0.7220
   69CHL1  H22B 6270   1.160   6.134   4.373 -0.0591  0.8669  0.6922
   69CHL1   C23 6271   0.962   6.145   4.290 -0.5510  0.1388  0.3403
   69CHL1  H23A 6272   0.977   6.239   4.232 -3.1312  0.1913 -0.4043
   69CHL1  H23B 6273   0.887   6.081   4.239  0.0052  1.2609 -2.0726
   69CHL1   C24 6274   0.899   6.184   4.429  0.4446 -0.5471  0.5730
   69CHL1  H24A 6275   0.887   6.086   4.481  0.2330 -0.8899 -0.1054
   69CHL1  H24B 6276   0.971   6.245   4.486  1.3933  1.0958 -2.2020
   69CHL1   C25 6277   0.766   6.251   4.401 -0.5278 -0.2210 -0.5451
   69CHL1   H25 6278   0.722   6.182   4.326  0.9706 -0.5499 -1.1679
   69CHL1   C26 6279   0.668   6.240   4.522 -0.9791 -0.1395 -0.3842
   69CHL1  H26A 6280   0.644   6.134   4.545 -1.6223 -0.8520 -3.8913
   69CHL1  H26B 6281   0.709   6.286   4.615 -1.0496  0.0844 -0.4639
   69CHL1  H26C 6282   0.573   6.290   4.495 -1.8790 -1.8093 -0.4488
   69CHL1   C27 6283   0.777   6.399   4.369 -0.1485  0.5807 -0.4919
   69CHL1  H27A 6284   0.810   6.449   4.463 -0.2261  0.1411 -0.2248
   69CHL1  H27B 6285   0.843   6.418   4.282 -0.4335 -3.1996 -1.7127
   69CHL1  H27C 6286   0.674   6.439   4.368 -1.4765 -2.5541 -1.0108
   70CHL1    C3 6287   2.975   1.649   2.617  0.5616 -0.2922  0.0911
   70CHL1    H3 6288   2.924   1.745   2.638  0.2006 -0.8709  2.1177
   70CHL1    O3 6289   2.957   1.623   2.480 -0.3633  0.0773  0.3462
   70CHL1   H3' 6290   2.966   1.529   2.468 -1.3755  0.0644 -0.4857
   70CHL1    C4 6291   3.122   1.680   2.644 -0.0398 -0.2995 -0.3724
   70CHL1   H4A 6292   3.184   1.596   2.608  0.6377 -0.6050  1.4157
   70CHL1   H4B 6293   3.156   1.765   2.582 -0.1504  0.8392  1.0820
   70CHL1    C5 6294   3.149   1.701   2.787 -0.8860  0.2592  0.5585
   70CHL1    C6 6295   3.225   1.801   2.822  0.7531 -1.2859  0.6620
   70CHL1    H6 6296   3.277   1.858   2.743 -0.5763  1.0406  1.3659
   70CHL1    C7 6297   3.260   1.835   2.961  0.0449  0.4647  0.4373
   70CHL1   H7A 6298   3.367   1.863   2.967  0.2229  0.7118 -2.4316
   70CHL1   H7B 6299   3.193   1.921   2.984  0.8570  0.4087  3.4137
   70CHL1    C8 6300   3.221   1.716   3.066 -0.3754 -0.9640  0.1276
   70CHL1    H8 6301   3.290   1.630   3.053  1.3045  0.4497 -0.5999
   70CHL1   C14 6302   3.221   1.762   3.214  0.2607  0.5190  0.5835
   70CHL1   H14 6303   3.136   1.833   3.223 -1.8341 -1.4383 -2.0548
   70CHL1   C15 6304   3.344   1.836   3.257 -0.3930 -0.7244 -0.1587
   70CHL1  H15A 6305   3.440   1.804   3.211  0.0902  1.4648 -0.7964
   70CHL1  H15B 6306   3.346   1.945   3.235  0.8423 -0.7273 -0.1570
   70CHL1   C16 6307   3.352   1.829   3.409  0.0299  0.9143  0.2023
   70CHL1  H16A 6308   3.454   1.794   3.436 -1.0285 -1.3608  1.5611
   70CHL1  H16B 6309   3.332   1.924   3.462 -0.6623 -0.0036  1.6342
   70CHL1   C17 6310   3.236   1.726   3.444  0.2299 -0.7076 -0.4571
   70CHL1   H17 6311   3.150   1.793   3.464  1.0534  0.1434  0.3016
   70CHL1   C13 6312   3.201   1.653   3.319 -0.6378 -0.0000 -0.3068
   70CHL1   C18 6313   3.317   1.546   3.303 -0.3496  0.3801  0.2692
   70CHL1  H18A 6314   3.418   1.585   3.281 -0.1230 -1.2667 -1.9738
   70CHL1  H18B 6315   3.328   1.470   3.383  1.6649  0.9389  0.5583
   70CHL1  H18C 6316   3.281   1.487   3.216 -1.0363  0.4385  0.5074
   70CHL1   C12 6317   3.063   1.593   3.288  0.3032 -0.0136 -0.3629
   70CHL1  H12A 6318   3.052   1.513   3.364  1.7078 -0.8354 -0.9715
   70CHL1  H12B 6319   2.985   1.670   3.303  0.3119  0.4345 -2.3320
   70CHL1   C11 6320   3.044   1.555   3.139 -0.7394  0.4024 -0.1861
   70CHL1  H11A 6321   3.113   1.468   3.139 -0.7707  0.3756 -0.9466
   70CHL1  H11B 6322   2.946   1.511   3.113 -0.0851 -1.2197 -0.0403
   70CHL1    C9 6323   3.085   1.664   3.030 -0.6422  0.4573  0.4966
   70CHL1    H9 6324   3.007   1.743   3.032 -0.9715  0.3374 -2.7375
   70CHL1   C10 6325   3.082   1.603   2.884 -0.4352  0.3572  0.0576
   70CHL1   C19 6326   3.170   1.468   2.872 -0.1481  0.6711 -0.3260
   70CHL1  H19A 6327   3.272   1.503   2.895 -0.7633  1.3589  1.5129
   70CHL1  H19B 6328   3.120   1.399   2.943 -2.6970  3.1533  0.4870
   70CHL1  H19C 6329   3.162   1.435   2.766 -1.5099  0.3518 -0.1522
   70CHL1    C1 6330   2.927   1.574   2.849 -1.4407  0.1070 -0.1658
   70CHL1   H1A 6331   2.885   1.487   2.903 -0.4244 -0.4499 -0.2545
   70CHL1   H1B 6332   2.859   1.657   2.878 -2.1948 -0.0834 -1.2993
   70CHL1    C2 6333   2.908   1.541   2.702  0.1331 -0.0927  1.0566
   70CHL1   H2A 6334   2.798   1.531   2.685  0.2959  1.3198 -1.2783
   70CHL1   H2B 6335   2.960   1.449   2.669  1.5964  1.0113  0.1815
   70CHL1   C20 6336   3.255   1.642   3.581  0.3034  0.0036  0.6097
   70CHL1   H20 6337   3.314   1.551   3.556 -0.0672 -0.1967  0.4482
   70CHL1   C21 6338   3.108   1.602   3.633  0.6156  0.8258  0.0537
   70CHL1  H21A 6339   3.034   1.553   3.567 -0.4115 -0.2209  1.8996
   70CHL1  H21B 6340   3.058   1.693   3.674  0.7626  1.0323 -0.2191
   70CHL1  H21C 6341   3.135   1.543   3.723 -0.8522 -0.4227 -0.2831
   70CHL1   C22 6342   3.331   1.716   3.694  0.0989  0.9577  0.3823
   70CHL1  H22A 6343   3.417   1.772   3.652  0.0473  0.8338  0.1059
   70CHL1  H22B 6344   3.264   1.797   3.729  0.3960  0.0657  3.2787
   70CHL1   C23 6345   3.374   1.622   3.807  0.8032  0.5291  0.7638
   70CHL1  H23A 6346   3.299   1.635   3.888  1.5452  0.8889  1.4124
   70CHL1  H23B 6347   3.362   1.517   3.773  0.8586  0.7171  0.1473
   70CHL1   C24 6348   3.505   1.649   3.869 -0.6547 -0.7693  0.1541
   70CHL1  H24A 6349   3.517   1.759   3.871  1.3761 -0.9363 -0.1277
   70CHL1  H24B 6350   3.494   1.624   3.977  0.4294 -2.9536 -0.1816
   70CHL1   C25 6351   3.630   1.585   3.807 -0.7408 -0.7675 -0.0807
   70CHL1   H25 6352   3.640   1.607   3.699  0.4672  0.0326  0.1725
   70CHL1   C26 6353   3.759   1.642   3.880 -0.5944 -0.2511  0.1080
   70CHL1  H26A 6354   3.855   1.593   3.856 -1.2331 -1.4355 -0.1205
   70CHL1  H26B 6355   3.758   1.752   3.862  1.1114 -0.1494  0.4997
   70CHL1  H26C 6356   3.750   1.627   3.990  0.9523  1.3179  0.4931
   70CHL1   C27 6357   3.633   1.432   3.827 -0.0275 -1.2136  0.3644
   70CHL1  H27A 6358   3.540   1.392   3.782 -0.4387  1.1313 -1.0104
   70CHL1  H27B 6359   3.716   1.387   3.768  1.9642  3.0597 -0.4504
   70CHL1  H27C 6360   3.644   1.396   3.932  1.0989 -0.8414  0.3868
   71CHL1    C3 6361   2.021   1.036   2.624 -0.2195 -0.2955  0.2821
   71CHL1    H3 6362   2.066   0.937   2.646 -0.0899 -0.5943 -1.2659
   71CHL1    O3 6363   2.023   1.064   2.483 -0.0845 -0.1083 -0.9319
   71CHL1   H3' 6364   1.984   1.151   2.491 -2.7899 -1.1816 -1.0962
   71CHL1    C4 6365   1.879   1.037   2.677 -0.3164  0.2122 -0.9203
   71CHL1   H4A 6366   1.827   1.126   2.638 -0.7262  0.2864 -0.2202
   71CHL1   H4B 6367   1.825   0.950   2.633  0.3505 -0.4273 -0.4932
   71CHL1    C5 6368   1.874   1.039   2.827 -0.1495 -0.3319 -0.2685
   71CHL1    C6 6369   1.805   0.948   2.896 -0.6439 -0.2634  0.7129
   71CHL1    H6 6370   1.735   0.879   2.845 -2.5543 -0.0320  2.8482
   71CHL1    C7 6371   1.807   0.933   3.043 -0.0658 -0.3796  0.7909
   71CHL1   H7A 6372   1.702   0.928   3.079 -0.2558  1.2638  0.5508
   71CHL1   H7B 6373   1.858   0.839   3.070  2.4318  0.3776 -0.9508
   71CHL1    C8 6374   1.860   1.064   3.113  0.5240  0.6159 -0.0462
   71CHL1    H8 6375   1.787   1.145   3.093 -1.1270 -0.6350  0.6487
   71CHL1   C14 6376   1.874   1.035   3.259  0.5284 -0.7659 -0.4953
   71CHL1   H14 6377   1.946   0.950   3.268 -0.0719 -1.1215  1.3453
   71CHL1   C15 6378   1.749   0.987   3.334 -0.0408 -0.3108 -0.1195
   71CHL1  H15A 6379   1.661   1.053   3.313 -0.3986 -1.2972 -1.9881
   71CHL1  H15B 6380   1.719   0.884   3.304  1.6285 -0.3710 -1.7884
   71CHL1   C16 6381   1.787   1.000   3.482  0.1191  0.1910  0.4090
   71CHL1  H16A 6382   1.713   1.051   3.546 -0.2047  1.0407 -0.6205
   71CHL1  H16B 6383   1.789   0.902   3.535  3.4043  1.8794  3.8873
   71CHL1   C17 6384   1.921   1.084   3.482 -0.0257  0.1853 -0.4714
   71CHL1   H17 6385   2.006   1.014   3.491 -0.9090 -0.8277  0.3589
   71CHL1   C13 6386   1.932   1.148   3.338  0.2864 -0.6561 -0.2510
   71CHL1   C18 6387   1.850   1.284   3.331 -0.6057  0.0922  0.3865
   71CHL1  H18A 6388   1.748   1.264   3.368  0.0961 -1.6066  1.5252
   71CHL1  H18B 6389   1.894   1.366   3.391  1.3135 -2.0724  2.1090
   71CHL1  H18C 6390   1.848   1.319   3.225  1.7082  0.3426  0.3728
   71CHL1   C12 6391   2.071   1.190   3.289 -0.4880 -0.0142  0.2683
   71CHL1  H12A 6392   2.102   1.286   3.335  1.3681  0.2414 -1.4341
   71CHL1  H12B 6393   2.145   1.113   3.319  1.7651  1.8372 -0.2618
   71CHL1   C11 6394   2.068   1.211   3.135 -0.7863  0.4951 -0.3468
   71CHL1  H11A 6395   2.025   1.311   3.115  1.1186  1.5730  0.6014
   71CHL1  H11B 6396   2.173   1.218   3.099 -0.6804  2.5525  0.2625
   71CHL1    C9 6397   1.995   1.107   3.050 -0.3074  0.2683  0.1779
   71CHL1    H9 6398   2.057   1.016   3.041  1.9881  1.5449  1.9521
   71CHL1   C10 6399   1.972   1.140   2.896 -0.1759 -1.0097  0.0103
   71CHL1   C19 6400   1.925   1.283   2.880  0.2006 -1.4835  0.2762
   71CHL1  H19A 6401   1.883   1.299   2.778  1.0733 -1.4457 -0.0937
   71CHL1  H19B 6402   1.849   1.312   2.955 -0.2672 -1.5803 -0.1557
   71CHL1  H19C 6403   1.996   1.366   2.901 -0.6239 -0.3649 -1.1450
   71CHL1    C1 6404   2.110   1.147   2.826  0.0490 -0.1890 -0.2414
   71CHL1   H1A 6405   2.167   1.229   2.873 -0.0194 -0.2892  0.0199
   71CHL1   H1B 6406   2.163   1.054   2.858  2.1391  0.5099 -1.4720
   71CHL1    C2 6407   2.106   1.154   2.676  0.1101 -0.0725  0.1721
   71CHL1   H2A 6408   2.206   1.141   2.630 -0.8222 -1.2150 -1.6418
   71CHL1   H2B 6409   2.060   1.250   2.647 -0.1665  0.1757  1.3702
   71CHL1   C20 6410   1.943   1.167   3.619  0.4425 -0.3087 -0.1618
   71CHL1   H20 6411   1.861   1.240   3.635  0.5809 -0.2057  0.0802
   71CHL1   C21 6412   2.071   1.250   3.596 -0.3458 -0.3914 -0.2652
   71CHL1  H21A 6413   2.113   1.277   3.696  0.5660 -0.1575 -0.6987
   71CHL1  H21B 6414   2.064   1.343   3.537  0.3246  0.1708  0.5119
   71CHL1  H21C 6415   2.152   1.184   3.558  0.7643  0.3763  0.6789
   71CHL1   C22 6416   1.959   1.075   3.744  0.1339  0.0327 -0.5049
   71CHL1  H22A 6417   2.030   0.991   3.727  1.3381  0.6854  1.0495
   71CHL1  H22B 6418   2.009   1.129   3.827  0.0885  0.0219 -0.4701
   71CHL1   C23 6419   1.840   1.000   3.807  0.0207 -0.0527  0.5045
   71CHL1  H23A 6420   1.756   1.071   3.824  0.5488  0.8677 -0.5645
   71CHL1  H23B 6421   1.797   0.924   3.739  0.2209  1.4763 -1.4166
   71CHL1   C24 6422   1.884   0.923   3.930  0.6998 -0.5757 -0.5526
   71CHL1  H24A 6423   1.991   0.895   3.917  0.7782 -1.1461  1.0809
   71CHL1  H24B 6424   1.898   0.995   4.013 -0.0382  0.0658 -0.9695
   71CHL1   C25 6425   1.781   0.818   3.973  0.0445 -0.2403 -0.2011
   71CHL1   H25 6426   1.757   0.754   3.886  0.0958 -0.5205 -0.0119
   71CHL1   C26 6427   1.842   0.721   4.076 -0.1581 -1.0747 -0.9225
   71CHL1  H26A 6428   1.847   0.773   4.174  0.9212 -0.1997 -1.4255
   71CHL1  H26B 6429   1.774   0.633   4.081 -1.0684 -0.3267  1.9196
   71CHL1  H26C 6430   1.939   0.679   4.040  0.3333  0.6153 -1.6566
   71CHL1   C27 6431   1.655   0.876   4.023 -0.0292 -0.0042 -0.1211
   71CHL1  H27A 6432   1.652   0.935   4.117  2.7508 -0.8642  0.5984
   71CHL1  H27B 6433   1.611   0.935   3.940  0.5002  2.2006  1.0865
   71CHL1  H27C 6434   1.584   0.793   4.047  0.1785  0.2812  1.5940
   72CHL1    C3 6435   0.313   5.263   3.356 -0.3112  0.1614  1.0613
   72CHL1    H3 6436   0.323   5.358   3.413  4.2864 -0.2475  1.3066
   72CHL1    O3 6437   0.377   5.284   3.233  0.5775  0.2917 -0.1943
   72CHL1   H3' 6438   0.349   5.208   3.180 -1.3849  1.5866 -1.1306
   72CHL1    C4 6439   0.375   5.140   3.429  0.0968  0.2790 -0.0653
   72CHL1   H4A 6440   0.375   5.062   3.350  1.1054  1.8656 -1.7158
   72CHL1   H4B 6441   0.482   5.158   3.455  0.2420 -0.5413 -0.0826
   72CHL1    C5 6442   0.294   5.099   3.552 -0.0323  0.3721  0.1305
   72CHL1    C6 6443   0.342   5.086   3.676 -0.7348 -0.2305  0.5286
   72CHL1    H6 6444   0.449   5.105   3.688 -0.6048 -0.1636 -0.6176
   72CHL1    C7 6445   0.259   5.045   3.793  0.6274  0.5727 -0.2258
   72CHL1   H7A 6446   0.317   4.995   3.873 -2.4196 -3.1609 -0.0454
   72CHL1   H7B 6447   0.230   5.128   3.861  0.3735 -1.3316  2.1292
   72CHL1    C8 6448   0.133   4.969   3.745  0.1894 -0.1185  0.6968
   72CHL1    H8 6449   0.159   4.870   3.700  1.1319  0.1310  0.6711
   72CHL1   C14 6450   0.043   4.955   3.863  0.2603 -0.1013 -0.3543
   72CHL1   H14 6451   0.031   5.058   3.903  2.0766 -0.8709  2.5034
   72CHL1   C15 6452   0.091   4.885   3.991 -0.3379  0.5898 -0.0247
   72CHL1  H15A 6453   0.129   4.788   3.952 -1.1507  1.7122 -4.0398
   72CHL1  H15B 6454   0.172   4.928   4.053 -0.2276 -0.3225  0.4926
   72CHL1   C16 6455  -0.036   4.863   4.073  1.0840  0.4744  0.7398
   72CHL1  H16A 6456  -0.044   4.761   4.116  3.5418  0.6178  1.6857
   72CHL1  H16B 6457  -0.049   4.931   4.160 -1.9468 -0.0001  0.7592
   72CHL1   C17 6458  -0.158   4.901   3.977  0.1712 -0.1034 -0.8932
   72CHL1   H17 6459  -0.178   5.007   4.006 -0.2451 -0.2919 -0.4894
   72CHL1   C13 6460  -0.105   4.911   3.832 -0.6027 -0.6308 -0.3783
   72CHL1   C18 6461  -0.108   4.772   3.770  0.0052 -0.4209  0.5830
   72CHL1  H18A 6462  -0.038   4.703   3.821  1.0774  0.1745 -0.0532
   72CHL1  H18B 6463  -0.211   4.730   3.774 -0.7161  1.1118 -0.6113
   72CHL1  H18C 6464  -0.076   4.777   3.664  1.9163  0.8482  1.1669
   72CHL1   C12 6465  -0.182   5.024   3.751  0.1089  0.1090 -0.1883
   72CHL1  H12A 6466  -0.285   4.991   3.726 -0.2035  0.3309  0.7317
   72CHL1  H12B 6467  -0.186   5.118   3.811  0.3506  0.4568 -0.7131
   72CHL1   C11 6468  -0.101   5.059   3.629  0.4863 -0.0389  0.9965
   72CHL1  H11A 6469  -0.126   4.975   3.561 -0.5003 -0.1643  1.4937
   72CHL1  H11B 6470  -0.138   5.149   3.575 -0.2376 -2.4070 -2.8072
   72CHL1    C9 6471   0.061   5.076   3.655  0.8380  0.3934  0.1687
   72CHL1    H9 6472   0.071   5.177   3.700 -0.1688  0.4724  0.2446
   72CHL1   C10 6473   0.143   5.088   3.522 -0.3452 -0.2324  0.1083
   72CHL1   C19 6474   0.124   4.966   3.433  0.4840  0.2604 -0.2587
   72CHL1  H19A 6475   0.173   4.970   3.333 -0.6338  1.8087 -0.7692
   72CHL1  H19B 6476   0.151   4.873   3.488 -1.0945 -0.2471 -0.3071
   72CHL1  H19C 6477   0.017   4.950   3.410  0.9319 -0.1051 -2.3066
   72CHL1    C1 6478   0.088   5.212   3.443 -0.0359 -0.1898 -0.1406
   72CHL1   H1A 6479  -0.019   5.198   3.415  0.0301 -0.1899 -0.4000
   72CHL1   H1B 6480   0.102   5.305   3.502 -0.1012  2.2192 -3.5913
   72CHL1    C2 6481   0.171   5.243   3.315  0.4303 -0.0327 -0.2256
   72CHL1   H2A 6482   0.127   5.335   3.270 -1.9831 -0.9840  0.0542
   72CHL1   H2B 6483   0.170   5.156   3.246 -0.8345 -1.1027  1.0852
   72CHL1   C20 6484  -0.283   4.818   3.997  0.2145  0.2959 -0.3656
   72CHL1   H20 6485  -0.260   4.713   3.969  3.6867  1.0852 -0.8740
   72CHL1   C21 6486  -0.401   4.862   3.911  0.0849 -0.8226  0.0060
   72CHL1  H21A 6487  -0.416   4.971   3.928  2.5966 -0.3552 -0.3780
   72CHL1  H21B 6488  -0.488   4.799   3.936  1.2333 -2.1302  0.8548
   72CHL1  H21C 6489  -0.391   4.835   3.804  1.7119  1.2133 -0.4269
   72CHL1   C22 6490  -0.330   4.826   4.150 -0.1334  0.6136  0.3305
   72CHL1  H22A 6491  -0.423   4.767   4.167 -0.6616  0.0484 -3.6317
   72CHL1  H22B 6492  -0.250   4.797   4.222  2.1559 -0.2325 -2.3731
   72CHL1   C23 6493  -0.396   4.962   4.192  0.4069  0.5277 -0.5197
   72CHL1  H23A 6494  -0.307   5.028   4.187  0.6040  0.7736  3.3666
   72CHL1  H23B 6495  -0.470   5.005   4.121 -3.2464  2.0464  3.8091
   72CHL1   C24 6496  -0.478   4.943   4.322 -0.3449 -0.2651  0.1125
   72CHL1  H24A 6497  -0.564   4.875   4.304 -0.0987  0.1286 -3.3240
   72CHL1  H24B 6498  -0.420   4.886   4.397  0.7592 -0.7274 -1.0365
   72CHL1   C25 6499  -0.517   5.076   4.383 -0.3479 -0.2272 -0.4139
   72CHL1   H25 6500  -0.427   5.129   4.420 -1.4908  2.8363 -1.6762
   72CHL1   C26 6501  -0.567   5.185   4.278 -0.8069  0.2356  0.7764
   72CHL1  H26A 6502  -0.603   5.271   4.338  1.0938 -0.2533  2.8019
   72CHL1  H26B 6503  -0.482   5.215   4.213 -2.6880 -0.7885 -2.3352
   72CHL1  H26C 6504  -0.641   5.145   4.206  1.1007 -0.6085 -0.8103
   72CHL1   C27 6505  -0.628   5.060   4.488 -0.2806  0.2492  0.4670
   72CHL1  H27A 6506  -0.586   4.992   4.565 -0.6010  0.2765  0.6637
   72CHL1  H27B 6507  -0.663   5.160   4.521 -2.0348  0.6003 -2.1396
   72CHL1  H27C 6508  -0.715   5.009   4.441 -0.6093  1.3086 -0.1093
   73CHL1    C3 6509   2.222   5.884   3.226 -0.7978 -0.1002 -0.2096
   73CHL1    H3 6510   2.239   5.991   3.254  0.6912 -0.0655 -1.1215
   73CHL1    O3 6511   2.286   5.872   3.102 -0.4831 -0.6004  0.1373
   73CHL1   H3' 6512   2.221   5.910   3.041  1.2657  1.0411 -0.8076
   73CHL1    C4 6513   2.300   5.801   3.330 -0.8687  0.0524  0.5772
   73CHL1   H4A 6514   2.326   5.705   3.281  0.6567  0.7881 -0.1327
   73CHL1   H4B 6515   2.398   5.849   3.349 -1.0407  0.7476 -0.2006
   73CHL1    C5 6516   2.234   5.776   3.461 -0.0499  0.2945  1.1500
   73CHL1    C6 6517   2.317   5.792   3.568  0.6183 -0.4370  0.0439
   73CHL1    H6 6518   2.424   5.801   3.542  1.1909 -1.8693  1.7357
   73CHL1    C7 6519   2.269   5.793   3.709 -0.2402  0.2722 -0.0767
   73CHL1   H7A 6520   2.338   5.727   3.766 -2.2075 -0.6476  1.3573
   73CHL1   H7B 6521   2.269   5.892   3.758 -0.1199 -0.2291  0.9588
   73CHL1    C8 6522   2.126   5.731   3.717 -0.1599 -0.5427 -0.8789
   73CHL1    H8 6523   2.135   5.622   3.701  3.6021 -1.2781  3.8571
   73CHL1   C14 6524   2.082   5.751   3.864  1.0775  0.6591 -0.8980
   73CHL1   H14 6525   2.080   5.861   3.883  0.8306  0.6707 -0.9844
   73CHL1   C15 6526   2.166   5.695   3.979  0.7102 -0.7776 -0.3966
   73CHL1  H15A 6527   2.200   5.593   3.954 -2.0244 -1.7856 -0.3153
   73CHL1  H15B 6528   2.251   5.766   3.989  0.0387  0.0415 -0.3469
   73CHL1   C16 6529   2.071   5.686   4.102 -0.0618  0.5857  0.2489
   73CHL1  H16A 6530   2.068   5.578   4.132 -1.8363  0.3989 -0.5094
   73CHL1  H16B 6531   2.101   5.752   4.186  1.7271  1.9924 -1.4072
   73CHL1   C17 6532   1.931   5.716   4.051 -0.3511 -1.6193 -0.3148
   73CHL1   H17 6533   1.924   5.826   4.066  4.8101 -1.3938  3.2014
   73CHL1   C13 6534   1.937   5.708   3.892 -0.3435 -0.5140  0.2308
   73CHL1   C18 6535   1.922   5.561   3.857 -0.1363  0.2335  0.9022
   73CHL1  H18A 6536   1.948   5.536   3.752 -1.7113  0.0551  0.5286
   73CHL1  H18B 6537   1.989   5.498   3.920  0.7083  1.4664  1.2609
   73CHL1  H18C 6538   1.815   5.531   3.864 -0.2947  0.8162  0.9953
   73CHL1   C12 6539   1.854   5.804   3.802  0.1572  0.6178  0.7462
   73CHL1  H12A 6540   1.746   5.790   3.822  0.4232  0.1118  1.9507
   73CHL1  H12B 6541   1.881   5.910   3.825 -0.3928  0.5060  1.9902
   73CHL1   C11 6542   1.882   5.784   3.652 -0.1535 -0.2540  0.3693
   73CHL1  H11A 6543   1.855   5.682   3.617  1.5874 -0.5911 -0.0820
   73CHL1  H11B 6544   1.819   5.858   3.598 -0.7794 -0.8589  0.2584
   73CHL1    C9 6545   2.032   5.807   3.619 -0.3202  0.2452 -0.1142
   73CHL1    H9 6546   2.043   5.917   3.626 -4.0949  0.8995 -1.7991
   73CHL1   C10 6547   2.079   5.773   3.479 -0.6793  0.0605  0.4973
   73CHL1   C19 6548   2.027   5.632   3.434 -0.3091  0.4069 -0.9657
   73CHL1  H19A 6549   2.046   5.563   3.519 -0.4099  1.3509 -0.1574
   73CHL1  H19B 6550   1.918   5.626   3.411 -0.5165  0.7201 -0.0954
   73CHL1  H19C 6551   2.081   5.589   3.348 -0.3315 -0.8872 -0.3613
   73CHL1    C1 6552   2.026   5.880   3.375 -0.2902  0.2352 -0.0047
   73CHL1   H1A 6553   1.916   5.866   3.381 -0.2876 -0.1610 -0.7887
   73CHL1   H1B 6554   2.055   5.981   3.412 -1.4629  0.1324  1.2673
   73CHL1    C2 6555   2.072   5.861   3.235  0.7223 -0.0609 -0.1809
   73CHL1   H2A 6556   2.022   5.933   3.167  2.5327  1.3731 -0.0634
   73CHL1   H2B 6557   2.035   5.768   3.188 -1.2578 -0.3175  1.6776
   73CHL1   C20 6558   1.809   5.647   4.124 -0.1843 -0.1338  0.4999
   73CHL1   H20 6559   1.818   5.540   4.097  0.1073  0.6926 -3.2881
   73CHL1   C21 6560   1.682   5.707   4.076  0.2145  0.4265  0.1003
   73CHL1  H21A 6561   1.595   5.678   4.138 -2.0352  1.7573 -2.2584
   73CHL1  H21B 6562   1.661   5.664   3.976 -1.0935  1.2360  0.0058
   73CHL1  H21C 6563   1.668   5.817   4.073  0.1214  0.4033 -0.3225
   73CHL1   C22 6564   1.818   5.654   4.280  0.3029  0.0295  0.9992
   73CHL1  H22A 6565   1.924   5.648   4.314 -0.1985  0.8930  2.8484
   73CHL1  H22B 6566   1.775   5.750   4.316 -0.3867 -0.8475  2.6513
   73CHL1   C23 6567   1.728   5.547   4.350  0.1946 -0.5018 -0.0268
   73CHL1  H23A 6568   1.627   5.542   4.305  0.8372 -1.2368 -1.4569
   73CHL1  H23B 6569   1.764   5.444   4.330  1.3400 -0.0589 -0.3520
   73CHL1   C24 6570   1.725   5.567   4.507  0.2591  0.4503 -0.1562
   73CHL1  H24A 6571   1.829   5.563   4.545  0.0831  0.2991  0.3116
   73CHL1  H24B 6572   1.684   5.666   4.536  1.1875  0.3096  1.8127
   73CHL1   C25 6573   1.637   5.464   4.585 -0.2992  0.2771 -1.2795
   73CHL1   H25 6574   1.547   5.447   4.522 -0.0777 -2.9627 -0.8928
   73CHL1   C26 6575   1.696   5.321   4.599  0.0619  0.4706 -0.0211
   73CHL1  H26A 6576   1.608   5.255   4.616 -0.4316  1.5676  1.9191
   73CHL1  H26B 6577   1.744   5.301   4.501  0.4965 -2.0238  0.6180
   73CHL1  H26C 6578   1.778   5.312   4.672 -1.0762  0.5598  1.3115
   73CHL1   C27 6579   1.588   5.524   4.717  0.0240  0.0988  0.1236
   73CHL1  H27A 6580   1.682   5.542   4.773  0.1660  0.0091 -0.0856
   73CHL1  H27B 6581   1.526   5.616   4.703 -0.4042 -0.2594 -0.3992
   73CHL1  H27C 6582   1.538   5.446   4.777 -0.2542  0.2525  0.0918
   74CHL1    C3 6583   2.662   6.298   3.053  0.0171  0.4508  0.4566
   74CHL1    H3 6584   2.578   6.371   3.062 -1.8114 -1.3511 -0.9667
   74CHL1    O3 6585   2.708   6.298   2.915 -0.2981 -0.4259 -0.2448
   74CHL1   H3' 6586   2.722   6.391   2.897 -0.9919 -0.8255 -3.5588
   74CHL1    C4 6587   2.777   6.346   3.138  0.4078 -0.0719  0.0806
   74CHL1   H4A 6588   2.858   6.274   3.113 -0.5596 -1.9205  1.9285
   74CHL1   H4B 6589   2.810   6.447   3.105  1.1225  0.0408  1.0894
   74CHL1    C5 6590   2.734   6.338   3.284  0.2737 -0.3095 -0.0678
   74CHL1    C6 6591   2.752   6.442   3.373  0.6078  0.2937  0.6460
   74CHL1    H6 6592   2.793   6.539   3.340  0.1811  0.2783  0.0406
   74CHL1    C7 6593   2.728   6.430   3.517  0.2248 -0.0260 -0.2781
   74CHL1   H7A 6594   2.818   6.470   3.568 -0.3865  0.2469  0.6202
   74CHL1   H7B 6595   2.645   6.504   3.522  1.1153  1.0833 -1.4077
   74CHL1    C8 6596   2.714   6.289   3.563 -0.0402  0.3959 -0.3210
   74CHL1    H8 6597   2.815   6.242   3.566 -0.6514 -0.9579  0.4744
   74CHL1   C14 6598   2.667   6.290   3.706 -0.3264 -0.3491  0.2120
   74CHL1   H14 6599   2.573   6.349   3.708 -0.3606 -0.3891 -0.0876
   74CHL1   C15 6600   2.770   6.357   3.803 -0.4719  0.0075  0.3638
   74CHL1  H15A 6601   2.875   6.325   3.784 -0.9475 -0.4051 -1.8620
   74CHL1  H15B 6602   2.772   6.466   3.781  0.3249 -0.1377 -0.3762
   74CHL1   C16 6603   2.709   6.321   3.938 -0.6468 -0.1980 -1.0505
   74CHL1  H16A 6604   2.790   6.286   4.006 -2.5194 -2.0732  0.3191
   74CHL1  H16B 6605   2.660   6.408   3.985  1.4207  1.1082 -1.1870
   74CHL1   C17 6606   2.614   6.200   3.915  0.0264 -0.1787  0.6032
   74CHL1   H17 6607   2.508   6.231   3.913 -1.2214 -4.0281 -1.3036
   74CHL1   C13 6608   2.636   6.159   3.772  0.1908  1.1638  0.8649
   74CHL1   C18 6609   2.767   6.075   3.761 -0.0057  0.2702  0.3911
   74CHL1  H18A 6610   2.734   5.977   3.802  1.4180 -0.3121  0.2217
   74CHL1  H18B 6611   2.804   6.059   3.657 -2.1474 -0.3929 -0.3298
   74CHL1  H18C 6612   2.841   6.108   3.836 -0.9942 -1.1356  2.0606
   74CHL1   C12 6613   2.524   6.095   3.685 -0.9523  0.3874 -0.4819
   74CHL1  H12A 6614   2.490   5.999   3.730  1.4332 -0.0080  0.6002
   74CHL1  H12B 6615   2.442   6.170   3.684  0.1135  1.6250  1.0362
   74CHL1   C11 6616   2.566   6.081   3.536  0.3809  0.8770  0.9385
   74CHL1  H11A 6617   2.642   6.001   3.524  0.1764  0.9235 -0.8197
   74CHL1  H11B 6618   2.473   6.048   3.484  0.7521  0.9930  0.1898
   74CHL1    C9 6619   2.621   6.207   3.471 -0.5349 -0.9913 -0.0101
   74CHL1    H9 6620   2.531   6.271   3.466  0.6285  0.6459 -0.8450
   74CHL1   C10 6621   2.679   6.201   3.331  0.1215  0.3437 -0.1457
   74CHL1   C19 6622   2.796   6.095   3.340 -0.6978  0.3174 -0.0915
   74CHL1  H19A 6623   2.858   6.101   3.432 -0.7290  3.8165 -0.1847
   74CHL1  H19B 6624   2.739   6.001   3.323 -1.1500  0.8544 -1.7471
   74CHL1  H19C 6625   2.871   6.114   3.261  2.1155  0.1198  2.3500
   74CHL1    C1 6626   2.564   6.156   3.237 -0.1150 -0.1142  0.4205
   74CHL1   H1A 6627   2.536   6.051   3.260  1.1921 -0.1204  2.1713
   74CHL1   H1B 6628   2.474   6.218   3.254 -0.0343 -0.6517  3.2630
   74CHL1    C2 6629   2.605   6.161   3.086  0.6464  0.7702 -0.2487
   74CHL1   H2A 6630   2.519   6.131   3.022  0.0206  0.4157  0.7268
   74CHL1   H2B 6631   2.684   6.087   3.062 -1.2993 -1.2721 -0.6644
   74CHL1   C20 6632   2.628   6.096   4.030 -0.2366 -0.7485  0.3478
   74CHL1   H20 6633   2.729   6.052   4.034 -0.5114 -1.3465  0.9455
   74CHL1   C21 6634   2.530   5.977   4.014 -0.7848  1.0228 -0.4464
   74CHL1  H21A 6635   2.551   5.920   3.921 -1.9714 -0.7181  0.3078
   74CHL1  H21B 6636   2.426   6.015   4.021 -0.6036  1.7083 -1.2190
   74CHL1  H21C 6637   2.549   5.898   4.089 -2.4181  0.1226 -0.9279
   74CHL1   C22 6638   2.617   6.159   4.172 -0.5492 -0.4685  0.3075
   74CHL1  H22A 6639   2.621   6.270   4.186 -0.8217 -0.5056  0.7171
   74CHL1  H22B 6640   2.508   6.148   4.191 -0.9017 -0.8485 -1.7452
   74CHL1   C23 6641   2.692   6.090   4.291 -0.3357 -0.7844  0.1549
   74CHL1  H23A 6642   2.661   6.125   4.391  1.2172 -0.5191  0.5680
   74CHL1  H23B 6643   2.657   5.984   4.294 -2.3756 -0.1340  0.9947
   74CHL1   C24 6644   2.846   6.100   4.270  0.1231 -0.3413 -1.1570
   74CHL1  H24A 6645   2.875   6.053   4.174 -2.5639 -0.9947 -1.7285
   74CHL1  H24B 6646   2.894   6.200   4.270  1.3593 -0.8815  0.2452
   74CHL1   C25 6647   2.924   6.028   4.384  0.0933  0.2359  0.7787
   74CHL1   H25 6648   2.885   6.064   4.482  0.5324 -0.2868  1.1524
   74CHL1   C26 6649   2.900   5.873   4.367  0.2653  0.5489 -0.2167
   74CHL1  H26A 6650   2.791   5.848   4.374  0.4229  0.2584  1.7460
   74CHL1  H26B 6651   2.924   5.836   4.265  2.9484 -2.9796  1.4802
   74CHL1  H26C 6652   2.953   5.811   4.442  0.7593 -0.7209 -1.5476
   74CHL1   C27 6653   3.071   6.053   4.370 -0.1522 -0.2310 -0.5565
   74CHL1  H27A 6654   3.124   6.003   4.454  0.5224  0.2155 -0.7068
   74CHL1  H27B 6655   3.103   6.023   4.269  2.3775  1.9046 -0.4951
   74CHL1  H27C 6656   3.104   6.158   4.385  2.8738 -0.9652 -1.4906
   75CHL1    C3 6657   3.496   6.042   2.656 -0.9120 -0.1038 -0.5692
   75CHL1    H3 6658   3.510   6.151   2.668 -0.9148 -0.4323  4.5503
   75CHL1    O3 6659   3.468   6.010   2.523  0.3388  0.2808  0.8651
   75CHL1   H3' 6660   3.438   5.919   2.528  1.2697  0.0272  2.5253
   75CHL1    C4 6661   3.634   5.984   2.686  0.2466  0.3406  0.0027
   75CHL1   H4A 6662   3.629   5.873   2.676 -2.9042  0.1354  2.2408
   75CHL1   H4B 6663   3.705   6.024   2.611 -1.6638 -0.4449 -2.3411
   75CHL1    C5 6664   3.669   6.017   2.834  0.0188  0.3493 -0.2373
   75CHL1    C6 6665   3.793   6.062   2.863  0.3833 -0.3119  0.0551
   75CHL1    H6 6666   3.859   6.081   2.778 -0.3322  2.1831 -0.0133
   75CHL1    C7 6667   3.849   6.097   2.999  0.0314 -0.0280 -0.0947
   75CHL1   H7A 6668   3.944   6.043   3.017  1.1638  1.8720 -0.2225
   75CHL1   H7B 6669   3.864   6.206   3.008 -0.3020  0.0524 -0.4420
   75CHL1    C8 6670   3.751   6.046   3.111  0.7066  0.2469  0.6486
   75CHL1    H8 6671   3.779   5.938   3.119  0.0199  0.0682  0.7504
   75CHL1   C14 6672   3.772   6.111   3.244 -1.0526 -0.5031 -0.1117
   75CHL1   H14 6673   3.745   6.218   3.231  0.4785 -0.1527 -0.6602
   75CHL1   C15 6674   3.916   6.119   3.297  0.1693 -0.5718  0.3441
   75CHL1  H15A 6675   3.971   6.028   3.263 -0.8538 -0.3211 -2.1319
   75CHL1  H15B 6676   3.960   6.209   3.250 -0.5173 -0.8701 -0.9139
   75CHL1   C16 6677   3.907   6.135   3.443  0.6643  0.1902 -0.0680
   75CHL1  H16A 6678   3.964   6.056   3.497 -0.5124 -0.1591  0.6818
   75CHL1  H16B 6679   3.949   6.228   3.488 -0.5345 -0.0710  1.6908
   75CHL1   C17 6680   3.755   6.132   3.478 -0.1797  0.1804 -0.6569
   75CHL1   H17 6681   3.721   6.237   3.467 -1.1873  0.1291  1.4563
   75CHL1   C13 6682   3.693   6.054   3.361  0.4642  0.5395  1.2876
   75CHL1   C18 6683   3.724   5.902   3.378 -0.9345  0.1426  0.1445
   75CHL1  H18A 6684   3.831   5.878   3.395  0.1991  1.8827 -3.4570
   75CHL1  H18B 6685   3.665   5.876   3.468  1.0439 -1.0839  1.1370
   75CHL1  H18C 6686   3.687   5.854   3.285 -2.1485  0.2117  0.5695
   75CHL1   C12 6687   3.545   6.081   3.320 -0.1878 -0.2388 -0.5570
   75CHL1  H12A 6688   3.474   6.057   3.402  1.1861  2.6127  1.6505
   75CHL1  H12B 6689   3.541   6.192   3.318 -1.4036 -0.2719 -1.6553
   75CHL1   C11 6690   3.501   6.019   3.184  0.0833  0.0589 -0.2077
   75CHL1  H11A 6691   3.488   5.909   3.197  0.2395 -0.0110 -0.6319
   75CHL1  H11B 6692   3.404   6.062   3.151 -1.2159 -1.8794  0.8571
   75CHL1    C9 6693   3.603   6.057   3.068  0.3999 -0.4678 -0.7101
   75CHL1    H9 6694   3.573   6.163   3.053  0.7981 -0.3577 -0.7353
   75CHL1   C10 6695   3.562   5.985   2.936  0.0454 -0.1601 -0.7077
   75CHL1   C19 6696   3.561   5.828   2.963 -0.0843 -1.2619  0.3462
   75CHL1  H19A 6697   3.567   5.784   2.861 -1.1970  4.4449 -2.5575
   75CHL1  H19B 6698   3.629   5.796   3.045  0.7152  1.1730  0.6946
   75CHL1  H19C 6699   3.459   5.808   3.001 -0.7202 -0.7271 -1.0075
   75CHL1    C1 6700   3.425   6.040   2.890  0.5544 -0.7610 -0.1720
   75CHL1   H1A 6701   3.342   6.003   2.954  0.0895  0.8330  0.1847
   75CHL1   H1B 6702   3.427   6.151   2.888 -1.1948 -0.5741  2.9539
   75CHL1    C2 6703   3.388   5.995   2.748 -0.1974  0.1709 -0.0558
   75CHL1   H2A 6704   3.290   6.040   2.722 -1.3091 -0.8429  2.1606
   75CHL1   H2B 6705   3.375   5.886   2.729  0.6926 -0.1850  1.2790
   75CHL1   C20 6706   3.731   6.090   3.625 -0.1794  0.2580  0.2205
   75CHL1   H20 6707   3.770   5.986   3.633 -0.4425  0.0211 -1.2472
   75CHL1   C21 6708   3.582   6.096   3.653  0.8241 -0.5765 -0.0843
   75CHL1  H21A 6709   3.558   6.070   3.758 -0.4445  1.4187  0.1647
   75CHL1  H21B 6710   3.549   6.012   3.588  1.0474 -1.0352  0.3956
   75CHL1  H21C 6711   3.541   6.196   3.625  0.2886 -1.1881 -1.5918
   75CHL1   C22 6712   3.815   6.180   3.723 -0.0828  0.5015  0.0254
   75CHL1  H22A 6713   3.919   6.156   3.693 -0.3829 -0.8947  0.0003
   75CHL1  H22B 6714   3.789   6.286   3.702  0.0590  0.0377 -2.9817
   75CHL1   C23 6715   3.811   6.122   3.868  0.7904 -0.3221  0.6033
   75CHL1  H23A 6716   3.701   6.125   3.882  0.5246 -2.0285 -0.7208
   75CHL1  H23B 6717   3.838   6.014   3.872 -0.0856 -0.5881 -0.1506
   75CHL1   C24 6718   3.870   6.207   3.982  0.7152 -0.6397  0.3186
   75CHL1  H24A 6719   3.976   6.175   3.971  2.0278  3.1898  0.2275
   75CHL1  H24B 6720   3.841   6.314   3.980  0.4239 -0.6788  1.4426
   75CHL1   C25 6721   3.831   6.153   4.120  1.1915 -0.5379  0.8290
   75CHL1   H25 6722   3.727   6.115   4.107  0.6331  0.7945  1.1652
   75CHL1   C26 6723   3.909   6.036   4.170  0.4591  0.2388  0.2579
   75CHL1  H26A 6724   3.870   6.017   4.272 -0.3138  2.1624  0.3561
   75CHL1  H26B 6725   3.881   5.947   4.109  3.6773  0.4799 -1.8266
   75CHL1  H26C 6726   4.017   6.059   4.159  1.0885 -2.1077  0.8642
   75CHL1   C27 6727   3.827   6.260   4.221 -0.0827 -0.9780 -0.3116
   75CHL1  H27A 6728   3.769   6.347   4.184 -0.1143 -0.4799  0.8480
   75CHL1  H27B 6729   3.781   6.222   4.314 -0.6951  2.0746  0.7643
   75CHL1  H27C 6730   3.934   6.285   4.240 -0.6297 -0.1733  2.0953
   76CHL1    C3 6731   1.136   0.912   2.796 -0.2125  0.8444  0.0489
   76CHL1    H3 6732   1.032   0.949   2.807 -1.1165 -1.1050 -1.3372
   76CHL1    O3 6733   1.170   0.908   2.657  0.1193 -0.1812  0.3919
   76CHL1   H3' 6734   1.149   0.994   2.621  1.9601 -0.2564 -0.9863
   76CHL1    C4 6735   1.249   1.002   2.858  0.3123 -0.2102 -0.9183
   76CHL1   H4A 6736   1.348   0.969   2.820 -0.3867 -0.8799 -2.1890
   76CHL1   H4B 6737   1.241   1.106   2.819  1.6848 -0.0037 -0.7272
   76CHL1    C5 6738   1.237   1.004   3.011  0.7546  0.1049 -0.2020
   76CHL1    C6 6739   1.220   1.113   3.083  0.2177 -0.4716  0.2501
   76CHL1    H6 6740   1.217   1.209   3.030 -2.3473  0.9226  2.7170
   76CHL1    C7 6741   1.228   1.119   3.230  0.6505 -0.2047  0.1644
   76CHL1   H7A 6742   1.284   1.206   3.271 -2.6023  2.3197 -0.3482
   76CHL1   H7B 6743   1.121   1.119   3.260  0.9753 -1.2652  1.4375
   76CHL1    C8 6744   1.278   0.983   3.299  0.3203 -0.6288  0.3205
   76CHL1    H8 6745   1.389   0.993   3.299  0.1273  3.0479  0.1731
   76CHL1   C14 6746   1.236   0.977   3.443 -0.0574 -0.0945 -0.5604
   76CHL1   H14 6747   1.128   0.950   3.436  0.6572 -2.9996 -2.5477
   76CHL1   C15 6748   1.261   1.107   3.524  0.2985 -0.4108 -0.2712
   76CHL1  H15A 6749   1.363   1.149   3.509 -0.0765 -0.2072 -2.5965
   76CHL1  H15B 6750   1.186   1.181   3.490  1.1856 -0.3636 -2.2618
   76CHL1   C16 6751   1.238   1.062   3.669  0.3117  0.0539 -0.1154
   76CHL1  H16A 6752   1.321   1.094   3.735  1.7150 -1.7239 -0.8941
   76CHL1  H16B 6753   1.146   1.097   3.720  1.3912  1.0268  1.2371
   76CHL1   C17 6754   1.236   0.902   3.658 -0.3538 -0.4110  0.1221
   76CHL1   H17 6755   1.129   0.875   3.645 -0.8093  1.8762 -1.3751
   76CHL1   C13 6756   1.297   0.866   3.521 -0.9180 -0.6775  0.3837
   76CHL1   C18 6757   1.452   0.884   3.528  0.5929  0.4332 -0.1118
   76CHL1  H18A 6758   1.502   0.810   3.594  0.3319  0.1990 -0.1746
   76CHL1  H18B 6759   1.496   0.854   3.430 -1.8861 -2.9674 -0.3761
   76CHL1  H18C 6760   1.470   0.989   3.559  0.0694 -0.1752  2.4373
   76CHL1   C12 6761   1.257   0.733   3.447  0.0446  0.0028  0.2845
   76CHL1  H12A 6762   1.298   0.642   3.495 -0.2290  0.2528  0.9987
   76CHL1  H12B 6763   1.147   0.719   3.458 -0.3417 -2.0240 -3.9518
   76CHL1   C11 6764   1.287   0.738   3.300  0.6231  0.1445  0.0046
   76CHL1  H11A 6765   1.397   0.727   3.293  0.9073  0.4856  2.7468
   76CHL1  H11B 6766   1.244   0.642   3.264 -2.1166  1.3793 -0.2885
   76CHL1    C9 6767   1.229   0.863   3.224 -0.1013 -0.3811  0.1883
   76CHL1    H9 6768   1.120   0.853   3.242 -0.4163 -0.5661 -1.6174
   76CHL1   C10 6769   1.255   0.865   3.077  0.6466 -0.0507  0.2454
   76CHL1   C19 6770   1.401   0.818   3.048 -0.5281 -0.6112  0.5015
   76CHL1  H19A 6771   1.421   0.809   2.939  1.1759 -0.7535  0.7891
   76CHL1  H19B 6772   1.469   0.894   3.092  0.4248 -0.6224 -0.8777
   76CHL1  H19C 6773   1.427   0.715   3.080  0.0952  0.0951  2.4205
   76CHL1    C1 6774   1.158   0.767   3.013  0.0586 -0.0032 -0.8205
   76CHL1   H1A 6775   1.185   0.663   3.044 -0.4067 -0.1152 -0.7762
   76CHL1   H1B 6776   1.058   0.794   3.053  1.3815  1.3510  1.8634
   76CHL1    C2 6777   1.154   0.773   2.857  0.3491 -0.5978 -0.0651
   76CHL1   H2A 6778   1.064   0.718   2.822  0.6261 -0.1252 -1.5974
   76CHL1   H2B 6779   1.247   0.724   2.822  0.7838  0.0289  0.2047
   76CHL1   C20 6780   1.291   0.834   3.776  0.6577 -0.2779 -0.6478
   76CHL1   H20 6781   1.397   0.868   3.780  0.6047 -0.0206 -1.3775
   76CHL1   C21 6782   1.284   0.687   3.752 -0.2503 -0.2488  0.0269
   76CHL1  H21A 6783   1.184   0.654   3.715 -1.2264  2.6795 -0.1707
   76CHL1  H21B 6784   1.305   0.628   3.844 -1.1394  1.6928  1.5318
   76CHL1  H21C 6785   1.371   0.668   3.687 -0.7272  0.8154 -0.9503
   76CHL1   C22 6786   1.215   0.873   3.905 -0.3736  0.1505  0.1741
   76CHL1  H22A 6787   1.221   0.982   3.924 -0.7471  0.1201  0.4892
   76CHL1  H22B 6788   1.107   0.848   3.895 -0.3925 -0.6823  1.9875
   76CHL1   C23 6789   1.272   0.808   4.035 -0.1803 -0.3751  0.3915
   76CHL1  H23A 6790   1.235   0.704   4.035  1.6245 -1.0474 -0.0766
   76CHL1  H23B 6791   1.383   0.798   4.032 -0.3389 -2.4984  0.5170
   76CHL1   C24 6792   1.244   0.888   4.162 -0.0723  0.5374  0.2204
   76CHL1  H24A 6793   1.283   0.992   4.159  4.6487 -0.8917  2.7266
   76CHL1  H24B 6794   1.133   0.887   4.172 -0.1559 -0.4705 -0.6393
   76CHL1   C25 6795   1.317   0.826   4.285 -0.2340 -0.7177  0.8592
   76CHL1   H25 6796   1.427   0.821   4.268 -0.4375 -1.7488 -0.3201
   76CHL1   C26 6797   1.287   0.915   4.404 -0.1873 -0.1087 -0.2547
   76CHL1  H26A 6798   1.179   0.902   4.426 -0.7565 -1.9592 -3.4269
   76CHL1  H26B 6799   1.353   0.901   4.491  0.6209  0.2402 -0.7956
   76CHL1  H26C 6800   1.302   1.022   4.375 -1.3838  0.1558  0.0718
   76CHL1   C27 6801   1.269   0.685   4.316  0.7653 -0.4778 -0.4079
   76CHL1  H27A 6802   1.162   0.675   4.288  0.0059  0.8395  1.8072
   76CHL1  H27B 6803   1.323   0.613   4.251  1.4564  1.6695 -2.3948
   76CHL1  H27C 6804   1.288   0.664   4.423 -0.7845  2.2783  0.5203
   77SOPE     N 6805   5.846   2.199   6.572 -0.3944 -0.1540 -0.2582
   77SOPE   HN1 6806   5.823   2.099   6.583  0.9737 -0.6019 -1.2484
   77SOPE   HN2 6807   5.847   2.238   6.669 -0.6902  0.4369 -0.4842
   77SOPE   HN3 6808   5.765   2.246   6.527 -0.7593 -0.1430  0.3947
   77SOPE   C12 6809   5.985   2.214   6.504  0.3118 -0.0625  0.0376
   77SOPE  H12A 6810   6.034   2.119   6.534  1.1226  0.6090  0.8716
   77SOPE  H12B 6811   6.036   2.303   6.545 -0.4844  0.9182 -1.0124
   77SOPE   C11 6812   5.949   2.218   6.359 -0.3950  0.9364 -0.1460
   77SOPE  H11A 6813   5.901   2.120   6.340  1.4690  0.2180 -1.4342
   77SOPE  H11B 6814   6.034   2.196   6.291  1.1962 -0.7269  2.2568
   77SOPE     P 6815   5.917   2.450   6.244 -0.5021 -0.2129 -0.2122
   77SOPE   O13 6816   6.010   2.507   6.348 -0.1467 -0.4677 -0.5280
   77SOPE   O14 6817   5.814   2.540   6.191 -0.1349  0.2669 -0.2397
   77SOPE   O12 6818   5.854   2.324   6.312  0.1671  0.4875 -0.1049
   77SOPE   O11 6819   6.003   2.397   6.126 -1.0789  0.2643 -0.5343
   77SOPE    C1 6820   5.944   2.329   6.015  0.3963  0.5242  0.2499
   77SOPE    HA 6821   5.848   2.279   6.038  0.4117  0.4519  0.1622
   77SOPE    HB 6822   6.017   2.248   5.993 -0.2432 -0.3291  1.1635
   77SOPE    C2 6823   5.912   2.415   5.897 -0.5043 -0.1647  0.7080
   77SOPE    HS 6824   5.826   2.484   5.907 -1.1284 -0.5935 -1.2389
   77SOPE   O21 6825   5.913   2.337   5.776 -0.2008 -0.0324 -0.7753
   77SOPE   C21 6826   5.795   2.272   5.751 -0.1151  0.0919 -1.3839
   77SOPE   O22 6827   5.695   2.281   5.820  0.2982  0.4361 -0.3669
   77SOPE   C22 6828   5.809   2.198   5.615 -0.6583 -0.1194 -0.0450
   77SOPE   H2R 6829   5.904   2.140   5.615 -0.6490 -0.2048  2.5898
   77SOPE   H2S 6830   5.814   2.278   5.538  2.0005 -0.2768 -0.1040
   77SOPE    C3 6831   6.046   2.498   5.883  0.5449  0.8570 -0.4703
   77SOPE    HX 6832   6.127   2.423   5.890  0.6751  1.1494  2.8565
   77SOPE    HY 6833   6.056   2.564   5.971 -0.2021  0.0638  0.2334
   77SOPE   O31 6834   6.052   2.562   5.756  0.0426  0.1042 -0.1032
   77SOPE   C31 6835   6.172   2.615   5.741  0.1494  0.2108 -0.0374
   77SOPE   O32 6836   6.253   2.618   5.832 -0.1664  0.2745 -0.0725
   77SOPE   C32 6837   6.178   2.681   5.600 -0.0148  0.7553  0.3303
   77SOPE   H2X 6838   6.138   2.784   5.596  1.3517  1.2622 -1.5068
   77SOPE   H2Y 6839   6.114   2.618   5.535 -0.4400 -0.1171  1.5511
   77SOPE   C23 6840   5.700   2.097   5.582 -0.4649  0.1317 -0.8188
   77SOPE   H3R 6841   5.598   2.142   5.572 -0.1854  0.5926 -1.7306
   77SOPE   H3S 6842   5.701   2.023   5.665  1.2519  2.5647  1.4886
   77SOPE   C24 6843   5.731   2.014   5.461 -0.8944  0.0191  0.5144
   77SOPE   H4R 6844   5.823   1.953   5.465 -2.0576 -1.7444  1.8885
   77SOPE   H4S 6845   5.644   1.946   5.454 -0.3704 -0.5551 -0.7002
   77SOPE   C25 6846   5.737   2.095   5.327 -0.8476 -0.7244 -0.2836
   77SOPE   H5R 6847   5.635   2.137   5.315 -0.5883 -0.4808 -1.7603
   77SOPE   H5S 6848   5.815   2.174   5.332  0.0096 -1.6076  2.6363
   77SOPE   C26 6849   5.787   2.017   5.204  0.3437  0.1990  0.4588
   77SOPE   H6R 6850   5.863   2.069   5.142  1.1935 -1.2238  0.2610
   77SOPE   H6S 6851   5.857   1.937   5.237  1.2641 -0.8594 -3.4347
   77SOPE   C27 6852   5.677   1.955   5.118 -0.5366 -0.0035 -0.0088
   77SOPE   H7R 6853   5.643   1.864   5.171  0.7383 -1.0132 -0.8365
   77SOPE   H7S 6854   5.590   2.021   5.095 -1.0065 -0.3444  0.7731
   77SOPE   C28 6855   5.730   1.899   4.983 -0.0256 -1.0324  0.3444
   77SOPE   H8R 6856   5.809   1.823   4.995  2.8266  1.8139  0.8284
   77SOPE   H8S 6857   5.647   1.850   4.926  0.0913 -0.3270 -0.4678
   77SOPE   C29 6858   5.791   2.005   4.899  0.3578  0.0519  0.5130
   77SOPE   H91 6859   5.879   2.055   4.942  0.8772  0.7217 -1.2335
   77SOPE  C210 6860   5.760   2.054   4.778  0.7407 -0.2017  0.1307
   77SOPE  H101 6861   5.827   2.130   4.736 -0.8415  1.0316 -0.2653
   77SOPE  C211 6862   5.649   1.998   4.695  0.4980  0.2995 -0.0338
   77SOPE  H11R 6863   5.626   2.080   4.623  1.0057  4.2105  3.8122
   77SOPE  H11S 6864   5.555   1.977   4.750  0.6242  1.5154  0.7015
   77SOPE  C212 6865   5.671   1.862   4.618 -0.1762  0.4479 -0.6974
   77SOPE  H12R 6866   5.582   1.869   4.553 -0.1505  1.3826 -0.6409
   77SOPE  H12S 6867   5.658   1.771   4.681  0.3785  0.3672 -0.6902
   77SOPE  C213 6868   5.781   1.849   4.521 -0.5100 -0.9502 -0.0028
   77SOPE  H13R 6869   5.878   1.850   4.574 -0.0244  0.5090 -0.8651
   77SOPE  H13S 6870   5.792   1.934   4.450  0.4462 -0.2926  0.9049
   77SOPE  C214 6871   5.783   1.725   4.429  0.0583  0.4930 -0.2272
   77SOPE  H14R 6872   5.691   1.742   4.370  0.0626  1.1138 -0.0596
   77SOPE  H14S 6873   5.773   1.636   4.495 -0.0521  0.6029 -0.0951
   77SOPE  C215 6874   5.891   1.713   4.318 -0.3805 -0.1588 -0.2502
   77SOPE  H15R 6875   5.993   1.726   4.361  0.9272 -0.1214 -3.0873
   77SOPE  H15S 6876   5.876   1.793   4.243 -0.1489  0.6381  0.5370
   77SOPE  C216 6877   5.889   1.583   4.234 -0.1573 -0.3714 -0.2681
   77SOPE  H16R 6878   5.789   1.573   4.186 -0.4715  1.1128  0.0497
   77SOPE  H16S 6879   5.902   1.491   4.295  2.2195  0.0339 -0.0810
   77SOPE  C217 6880   5.995   1.587   4.114  0.2902 -0.8535  0.0106
   77SOPE  H17R 6881   6.009   1.484   4.075  1.7243 -1.2999  1.5985
   77SOPE  H17S 6882   6.096   1.612   4.153 -0.6289 -0.0905  2.0575
   77SOPE  C218 6883   5.953   1.672   3.998  0.3385  0.3310 -0.5421
   77SOPE  H18R 6884   5.860   1.623   3.960 -0.0379  0.5544  0.0720
   77SOPE  H18S 6885   6.022   1.676   3.912  0.8255 -1.1182 -0.2502
   77SOPE  H18T 6886   5.925   1.777   4.019 -1.4474  0.2352 -2.1077
   77SOPE   C33 6887   6.325   2.679   5.552  0.4717 -0.3166  0.6940
   77SOPE   H3X 6888   6.369   2.577   5.547  2.0760  0.3530  0.5984
   77SOPE   H3Y 6889   6.393   2.727   5.625 -0.0754  0.7556  0.5095
   77SOPE   C34 6890   6.350   2.747   5.419  0.4078 -0.3456 -0.4338
   77SOPE   H4X 6891   6.455   2.783   5.415  0.1428  0.6307  0.6718
   77SOPE   H4Y 6892   6.289   2.839   5.407  0.8430 -0.1283 -0.9655
   77SOPE   C35 6893   6.320   2.657   5.301 -0.2020  0.5369 -0.1220
   77SOPE   H5X 6894   6.214   2.629   5.316  0.1539  0.6282  3.3425
   77SOPE   H5Y 6895   6.377   2.562   5.292  0.5065  1.1263 -2.7555
   77SOPE   C36 6896   6.330   2.720   5.160 -0.8876  0.5884  0.6058
   77SOPE   H6X 6897   6.436   2.737   5.131 -0.5023  1.7299  2.5274
   77SOPE   H6Y 6898   6.288   2.822   5.170 -0.1917  0.6411  4.5155
   77SOPE   C37 6899   6.264   2.635   5.056  0.6822  0.0454 -0.2910
   77SOPE   H7X 6900   6.155   2.623   5.073  0.8068  1.1686  1.6965
   77SOPE   H7Y 6901   6.310   2.534   5.062  0.5272  0.0532  2.2310
   77SOPE   C38 6902   6.287   2.679   4.911  0.8798  0.8843  1.1094
   77SOPE   H8X 6903   6.396   2.679   4.889  0.7183 -0.7501  0.1491
   77SOPE   H8Y 6904   6.251   2.782   4.889  2.0356  1.3198  1.1427
   77SOPE   C39 6905   6.225   2.585   4.813  0.1368 -0.3997 -0.5551
   77SOPE   H9X 6906   6.118   2.616   4.813  0.3416  0.3896  1.2012
   77SOPE   H9Y 6907   6.238   2.487   4.862  0.8601  0.6632  1.4966
   77SOPE  C310 6908   6.270   2.587   4.666 -0.2723  0.2229 -0.6509
   77SOPE  H10X 6909   6.370   2.539   4.659 -0.4041 -0.2022  0.2428
   77SOPE  H10Y 6910   6.294   2.692   4.640  2.1472 -0.9412 -3.8018
   77SOPE  C311 6911   6.175   2.530   4.561  0.7546 -0.7000  0.0216
   77SOPE  H11X 6912   6.074   2.575   4.569 -0.3924 -2.9512 -1.1020
   77SOPE  H11Y 6913   6.164   2.422   4.585  1.0885 -0.1823  2.8971
   77SOPE  C312 6914   6.217   2.544   4.414 -0.0267  0.7681 -0.3230
   77SOPE  H12X 6915   6.134   2.502   4.352  0.7124  1.0766 -1.5469
   77SOPE  H12Y 6916   6.309   2.482   4.404 -0.6634 -0.2432 -0.0707
   77SOPE  C313 6917   6.242   2.691   4.378  0.3469 -0.0458 -0.0829
   77SOPE  H13X 6918   6.312   2.735   4.452  1.5002 -0.6987 -0.7612
   77SOPE  H13Y 6919   6.150   2.754   4.374 -0.7399 -1.6374 -1.0207
   77SOPE  C314 6920   6.315   2.708   4.240  0.5724 -0.4884  0.2926
   77SOPE  H14X 6921   6.320   2.814   4.207 -0.3455 -0.1518  1.2002
   77SOPE  H14Y 6922   6.249   2.664   4.162  0.2834  0.0194  0.2520
   77SOPE  C315 6923   6.449   2.639   4.227 -0.1429 -0.1267  0.2411
   77SOPE  H15X 6924   6.448   2.549   4.291 -0.3549 -0.1868  0.1544
   77SOPE  H15Y 6925   6.524   2.704   4.277 -0.0646  0.0171 -0.0644
   77SOPE  C316 6926   6.492   2.599   4.085  0.5620  0.3171 -0.3677
   77SOPE  H16X 6927   6.446   2.675   4.018  1.1384  1.4646  0.5282
   77SOPE  H16Y 6928   6.452   2.498   4.058  0.3129  0.3003  0.0506
   77SOPE  C317 6929   6.640   2.594   4.060  0.5250 -0.2013  0.0562
   77SOPE  H17X 6930   6.677   2.504   4.113  0.5532 -0.4865 -0.4379
   77SOPE  H17Y 6931   6.686   2.686   4.101  1.8610 -1.2744  1.0248
   77SOPE  C318 6932   6.677   2.588   3.916 -1.1008 -0.2309  0.7293
   77SOPE  H18X 6933   6.788   2.596   3.911 -0.8415 -2.1620  2.1026
   77SOPE  H18Y 6934   6.646   2.678   3.859  2.8000  0.2949 -0.9066
   77SOPE  H18Z 6935   6.643   2.495   3.865  0.1768 -0.2377 -0.1706
   78SOPE     N 6936   4.450   2.917   6.386 -0.3837 -0.3215  0.2355
   78SOPE   HN1 6937   4.547   2.880   6.375 -1.3485 -3.0957  0.2440
   78SOPE   HN2 6938   4.393   2.830   6.382 -1.3033  0.2369  0.8021
   78SOPE   HN3 6939   4.424   2.962   6.296 -0.9397 -1.4069 -0.1637
   78SOPE   C12 6940   4.427   3.023   6.481  0.4039  0.4638  0.1537
   78SOPE  H12A 6941   4.459   2.989   6.582  0.7955 -1.1906 -0.4981
   78SOPE  H12B 6942   4.317   3.038   6.491  0.3167  0.1574 -0.3282
   78SOPE   C11 6943   4.499   3.162   6.447 -0.0763  0.1507 -0.5328
   78SOPE  H11A 6944   4.480   3.249   6.513  2.5231 -0.3721  1.0444
   78SOPE  H11B 6945   4.453   3.201   6.353 -1.9924  0.5238  0.5062
   78SOPE     P 6946   4.725   3.271   6.372  0.0708 -0.1894 -0.1917
   78SOPE   O13 6947   4.858   3.273   6.442  0.1293 -0.3206 -0.0328
   78SOPE   O14 6948   4.645   3.391   6.396 -0.2700  0.6954  0.2141
   78SOPE   O12 6949   4.643   3.148   6.425  0.0782 -0.1085  0.1406
   78SOPE   O11 6950   4.746   3.250   6.222 -0.1777  0.7879  0.2137
   78SOPE    C1 6951   4.654   3.194   6.128 -0.6521  0.1095  0.0212
   78SOPE    HA 6952   4.554   3.241   6.140 -0.9101 -0.5370  0.4731
   78SOPE    HB 6953   4.642   3.086   6.152 -0.3035  0.2006  0.6275
   78SOPE    C2 6954   4.701   3.202   5.982 -0.0415  0.5403 -0.2864
   78SOPE    HS 6955   4.617   3.151   5.930 -1.9091  1.6680  1.4668
   78SOPE   O21 6956   4.832   3.141   5.960  0.2332  0.0727 -0.2553
   78SOPE   C21 6957   4.827   3.014   5.929 -0.5611 -0.1324  0.1828
   78SOPE   O22 6958   4.725   2.950   5.919 -0.2372  0.1923 -0.2033
   78SOPE   C22 6959   4.964   2.955   5.895 -0.5845 -0.3697  0.2196
   78SOPE   H2R 6960   4.953   2.860   5.838 -0.4313  0.9014 -2.0433
   78SOPE   H2S 6961   5.017   2.950   5.992  0.1932 -0.0230 -0.1748
   78SOPE    C3 6962   4.707   3.352   5.940 -0.6219  0.0527 -0.7436
   78SOPE    HX 6963   4.794   3.393   5.997 -0.8655 -2.6361  1.7857
   78SOPE    HY 6964   4.612   3.406   5.960  0.1406  1.1602  0.1011
   78SOPE   O31 6965   4.748   3.372   5.804  0.0034 -0.0216  0.0551
   78SOPE   C31 6966   4.644   3.362   5.717 -0.6025  0.4339  0.1517
   78SOPE   O32 6967   4.526   3.346   5.743 -0.9258 -0.5817 -0.7392
   78SOPE   C32 6968   4.708   3.367   5.573  0.5168  0.3090 -0.0283
   78SOPE   H2X 6969   4.808   3.320   5.579  0.3783 -0.0181 -0.2518
   78SOPE   H2Y 6970   4.710   3.473   5.541  0.7648 -0.5250 -3.1067
   78SOPE   C23 6971   5.047   3.056   5.804  0.2382 -0.2150  0.4070
   78SOPE   H3R 6972   5.151   3.020   5.784 -0.3321 -0.6488 -2.0930
   78SOPE   H3S 6973   5.051   3.157   5.850 -1.8891 -0.4097  1.0955
   78SOPE   C24 6974   4.988   3.064   5.666  0.1911 -0.0486  0.2840
   78SOPE   H4R 6975   4.975   2.961   5.626 -3.6150 -0.3655  1.9401
   78SOPE   H4S 6976   4.885   3.103   5.674 -1.0614 -3.3373  2.3070
   78SOPE   C25 6977   5.068   3.142   5.554 -0.2121  0.4269  0.2171
   78SOPE   H5R 6978   5.043   3.248   5.576 -1.7513  0.3180 -0.8258
   78SOPE   H5S 6979   5.175   3.114   5.562  0.4725  1.6910 -2.9573
   78SOPE   C26 6980   5.018   3.091   5.423 -0.1068  0.0149  0.2942
   78SOPE   H6R 6981   5.057   2.990   5.400  1.7372  0.3916  1.4472
   78SOPE   H6S 6982   4.908   3.087   5.414  0.0861 -1.8507 -1.9208
   78SOPE   C27 6983   5.056   3.190   5.316 -0.2167 -0.6077 -0.1488
   78SOPE   H7R 6984   5.007   3.287   5.341  0.1539 -0.8952  1.8591
   78SOPE   H7S 6985   5.165   3.197   5.336 -0.1767 -0.2531 -0.4665
   78SOPE   C28 6986   5.025   3.146   5.175 -0.2728  0.0524 -0.0556
   78SOPE   H8R 6987   4.915   3.154   5.168 -0.2178  2.2550  0.6091
   78SOPE   H8S 6988   5.050   3.227   5.102 -1.6460  0.0420 -0.5505
   78SOPE   C29 6989   5.086   3.018   5.117  0.3397 -0.4404 -0.7223
   78SOPE   H91 6990   5.195   3.028   5.103  0.3367  2.7060  0.6284
   78SOPE  C210 6991   5.024   2.901   5.093  0.1567  0.1992  0.2470
   78SOPE  H101 6992   5.083   2.822   5.042 -1.0447 -1.5013  1.3652
   78SOPE  C211 6993   4.875   2.874   5.096 -0.3584  0.0592 -0.0431
   78SOPE  H11R 6994   4.818   2.969   5.085  0.4866  0.8619  2.0360
   78SOPE  H11S 6995   4.850   2.842   5.199  0.9130 -0.2443  0.1870
   78SOPE  C212 6996   4.824   2.775   4.994 -0.1989  0.4390  0.4384
   78SOPE  H12R 6997   4.715   2.769   5.019 -0.3934 -1.4307 -0.6200
   78SOPE  H12S 6998   4.875   2.677   5.007  2.3110  1.4784 -0.9014
   78SOPE  C213 6999   4.840   2.818   4.847  0.1510  0.3480  1.3076
   78SOPE  H13R 7000   4.948   2.834   4.826 -0.0096 -0.1886 -0.0312
   78SOPE  H13S 7001   4.792   2.917   4.831 -0.4421 -0.4497 -3.7486
   78SOPE  C214 7002   4.805   2.723   4.727  0.0232  0.4995  0.2878
   78SOPE  H14R 7003   4.843   2.621   4.754 -0.2374  0.2289 -0.3455
   78SOPE  H14S 7004   4.860   2.768   4.641 -1.3444  1.3594 -0.1699
   78SOPE  C215 7005   4.657   2.708   4.700  0.7563  0.4789  0.6390
   78SOPE  H15R 7006   4.613   2.800   4.657  0.2141  0.1239  0.4130
   78SOPE  H15S 7007   4.595   2.691   4.790 -0.2637  2.2532  0.3143
   78SOPE  C216 7008   4.618   2.592   4.599 -0.0772  0.0500  0.3068
   78SOPE  H16R 7009   4.640   2.494   4.646 -0.2900  0.3762  1.0972
   78SOPE  H16S 7010   4.672   2.596   4.502  0.2838 -1.0921  0.4509
   78SOPE  C217 7011   4.461   2.599   4.562 -0.5824 -0.4953  0.5294
   78SOPE  H17R 7012   4.435   2.703   4.534  1.3118  0.7679  3.0443
   78SOPE  H17S 7013   4.404   2.558   4.649  0.4402 -1.2610  0.8626
   78SOPE  C218 7014   4.414   2.511   4.438 -0.3462 -0.1902 -0.2656
   78SOPE  H18R 7015   4.481   2.529   4.351 -1.0280 -2.9245 -1.4601
   78SOPE  H18S 7016   4.311   2.548   4.417  0.6684  1.8260 -2.0974
   78SOPE  H18T 7017   4.423   2.405   4.470  1.0018  0.5184  1.8495
   78SOPE   C33 7018   4.617   3.293   5.469  1.2067  0.2110 -0.4382
   78SOPE   H3X 7019   4.518   3.336   5.496  1.2395 -0.9520  1.7968
   78SOPE   H3Y 7020   4.613   3.186   5.498  2.4446  0.4053  0.5697
   78SOPE   C34 7021   4.641   3.312   5.317 -0.1032 -0.0783  0.0052
   78SOPE   H4X 7022   4.742   3.288   5.278 -0.2307 -2.4965  1.0029
   78SOPE   H4Y 7023   4.614   3.413   5.277 -0.2879 -0.7991 -1.7850
   78SOPE   C35 7024   4.556   3.218   5.237 -0.4640 -0.3122  0.0176
   78SOPE   H5X 7025   4.450   3.237   5.264 -0.5340  2.2004 -1.6715
   78SOPE   H5Y 7026   4.596   3.117   5.262  1.1184  0.1347 -0.5685
   78SOPE   C36 7027   4.577   3.244   5.092 -0.1426 -0.0695  0.4217
   78SOPE   H6X 7028   4.683   3.237   5.060  0.2565  1.3737  1.3023
   78SOPE   H6Y 7029   4.563   3.354   5.078  0.3027 -0.1859 -1.0844
   78SOPE   C37 7030   4.501   3.156   5.000  0.1197  0.6091  1.1511
   78SOPE   H7X 7031   4.393   3.171   5.019 -0.2083 -1.1137  0.8270
   78SOPE   H7Y 7032   4.533   3.051   5.019 -1.6941  0.2180  2.3462
   78SOPE   C38 7033   4.526   3.177   4.848 -0.5869 -0.4285  0.0972
   78SOPE   H8X 7034   4.635   3.196   4.833  0.1606 -2.9291  1.7679
   78SOPE   H8Y 7035   4.475   3.269   4.813  0.5415  0.2185  0.1230
   78SOPE   C39 7036   4.486   3.057   4.763 -0.8949 -0.3815 -0.3234
   78SOPE   H9X 7037   4.380   3.051   4.796 -1.3898 -4.4755 -2.0076
   78SOPE   H9Y 7038   4.549   2.972   4.797  1.4206  1.2870 -0.1796
   78SOPE  C310 7039   4.495   3.106   4.614  0.6444  0.0610  0.3813
   78SOPE  H10X 7040   4.600   3.123   4.582  0.9207 -1.0498  0.6563
   78SOPE  H10Y 7041   4.449   3.206   4.601 -0.3395 -0.2455  1.2944
   78SOPE  C311 7042   4.428   3.012   4.517 -0.4792  0.1273 -0.2190
   78SOPE  H11X 7043   4.318   3.014   4.526 -0.3986 -1.3571  1.7581
   78SOPE  H11Y 7044   4.467   2.910   4.538 -0.6931 -0.0599 -0.7216
   78SOPE  C312 7045   4.465   3.049   4.376 -0.6335 -0.2578  0.3812
   78SOPE  H12X 7046   4.572   3.031   4.349 -0.9142 -1.3626 -0.0261
   78SOPE  H12Y 7047   4.454   3.159   4.363  0.5716  0.0009  1.2951
   78SOPE  C313 7048   4.371   2.983   4.282 -0.0602  0.5480  0.1856
   78SOPE  H13X 7049   4.398   3.008   4.177 -2.0284 -2.2717 -1.1322
   78SOPE  H13Y 7050   4.269   3.014   4.313 -0.1661  0.7427 -0.3544
   78SOPE  C314 7051   4.373   2.826   4.271  0.0220 -0.0250 -0.1060
   78SOPE  H14X 7052   4.329   2.791   4.367 -1.0440 -1.3816 -1.0415
   78SOPE  H14Y 7053   4.477   2.791   4.260 -0.6680 -1.5601 -2.4286
   78SOPE  C315 7054   4.296   2.754   4.151 -0.0452 -0.6911  0.0117
   78SOPE  H15X 7055   4.189   2.784   4.158 -0.2864 -0.7011 -2.6850
   78SOPE  H15Y 7056   4.300   2.647   4.183  0.7431 -0.6573  0.0464
   78SOPE  C316 7057   4.345   2.792   4.003  0.1273 -0.2643 -1.0986
   78SOPE  H16X 7058   4.456   2.786   3.998  0.3446  1.3668  0.6953
   78SOPE  H16Y 7059   4.325   2.901   3.995  0.4485  0.1397  2.3020
   78SOPE  C317 7060   4.272   2.717   3.892 -1.1113  0.1274 -0.2097
   78SOPE  H17X 7061   4.313   2.613   3.890  0.7490  0.8182 -2.0679
   78SOPE  H17Y 7062   4.302   2.760   3.793 -0.4997 -2.9916 -1.5154
   78SOPE  C318 7063   4.122   2.727   3.898  0.1000  0.2390 -0.5075
   78SOPE  H18X 7064   4.070   2.658   3.828 -1.3900  0.2376  0.5605
   78SOPE  H18Y 7065   4.093   2.832   3.876  1.5590  1.0353  1.0950
   78SOPE  H18Z 7066   4.080   2.703   3.998  1.1747 -1.1292 -0.3534
   79SOPE     N 7067   6.627   1.142   6.692  0.4767 -0.0754 -0.3444
   79SOPE   HN1 7068   6.535   1.185   6.716 -0.7454 -2.8589  0.4938
   79SOPE   HN2 7069   6.671   1.119   6.783  0.9982  2.7215  0.2036
   79SOPE   HN3 7070   6.677   1.223   6.652  0.2054  0.3178  0.0961
   79SOPE   C12 7071   6.618   1.030   6.592 -0.2067  0.0425  0.7037
   79SOPE  H12A 7072   6.531   0.967   6.617 -1.6546  2.0958  1.1185
   79SOPE  H12B 7073   6.714   0.975   6.585  0.7414  1.0933  3.8216
   79SOPE   C11 7074   6.598   1.106   6.459  0.6145  0.2330 -0.1985
   79SOPE  H11A 7075   6.607   1.037   6.373 -1.1076  0.0884 -0.2869
   79SOPE  H11B 7076   6.690   1.168   6.446  1.0996 -0.4634 -0.0956
   79SOPE     P 7077   6.344   1.129   6.428  0.1804  0.1632 -0.3723
   79SOPE   O13 7078   6.261   1.229   6.354 -0.3765 -0.4416 -0.0785
   79SOPE   O14 7079   6.282   1.091   6.558  0.4737 -0.4331 -0.3791
   79SOPE   O12 7080   6.487   1.193   6.455  0.1955  0.6405  0.2652
   79SOPE   O11 7081   6.376   1.003   6.344  0.2677 -0.5319  0.4184
   79SOPE    C1 7082   6.283   0.957   6.242  0.3351  0.4076 -0.1371
   79SOPE    HA 7083   6.179   0.991   6.260 -0.4283 -1.3112 -1.0552
   79SOPE    HB 7084   6.284   0.847   6.257 -1.0901  0.5923  1.4978
   79SOPE    C2 7085   6.318   0.988   6.090 -0.5286  0.0660  0.4627
   79SOPE    HS 7086   6.258   0.919   6.028  1.6646 -0.2123 -1.4746
   79SOPE   O21 7087   6.464   0.965   6.068  0.1155 -0.2124  0.1048
   79SOPE   C21 7088   6.490   0.834   6.045 -0.6561 -0.0489  0.1871
   79SOPE   O22 7089   6.413   0.744   6.058 -0.5199 -0.2422 -0.0608
   79SOPE   C22 7090   6.639   0.819   6.012 -0.0279  0.3883 -0.2969
   79SOPE   H2R 7091   6.672   0.718   6.046  0.0322  1.3504  2.8641
   79SOPE   H2S 7092   6.685   0.899   6.074  0.6090  1.0779 -1.6159
   79SOPE    C3 7093   6.274   1.123   6.031  0.2539 -0.7901 -0.0868
   79SOPE    HX 7094   6.352   1.197   6.060  3.0639 -3.0060 -1.4798
   79SOPE    HY 7095   6.178   1.156   6.076  0.0721  0.2069 -1.1653
   79SOPE   O31 7096   6.259   1.112   5.889 -0.2442  0.3518 -0.6451
   79SOPE   C31 7097   6.367   1.151   5.817 -0.0668  0.3725 -0.1924
   79SOPE   O32 7098   6.470   1.197   5.867  0.2004 -0.3300  0.3392
   79SOPE   C32 7099   6.347   1.135   5.669  0.1729 -0.5409 -0.0266
   79SOPE   H2X 7100   6.407   1.047   5.638 -2.5125 -1.9902 -1.3763
   79SOPE   H2Y 7101   6.390   1.227   5.622  0.0624  0.3293  1.5144
   79SOPE   C23 7102   6.684   0.850   5.868  0.1934  0.3051  0.6054
   79SOPE   H3R 7103   6.790   0.881   5.859 -0.0297  0.5267 -2.1625
   79SOPE   H3S 7104   6.625   0.937   5.832  3.7523  2.0154 -1.6415
   79SOPE   C24 7105   6.641   0.740   5.770 -0.5082  0.8179 -0.9332
   79SOPE   H4R 7106   6.704   0.651   5.785 -0.5502  0.7717 -1.0272
   79SOPE   H4S 7107   6.538   0.706   5.792  0.5237 -1.6475  0.3481
   79SOPE   C25 7108   6.637   0.784   5.622 -0.1498 -0.0547  0.2662
   79SOPE   H5R 7109   6.567   0.870   5.609 -1.7873 -1.5124 -1.0897
   79SOPE   H5S 7110   6.737   0.823   5.593  0.9676 -2.2328  1.0512
   79SOPE   C26 7111   6.591   0.675   5.523 -0.9935  0.2035 -0.3779
   79SOPE   H6R 7112   6.656   0.585   5.524 -1.0670  0.1585  0.5412
   79SOPE   H6S 7113   6.492   0.632   5.551 -1.2561  0.3570 -1.0411
   79SOPE   C27 7114   6.574   0.739   5.386  0.2731  0.0023  0.3889
   79SOPE   H7R 7115   6.504   0.823   5.409  0.9261  0.6550  0.0191
   79SOPE   H7S 7116   6.666   0.785   5.346 -0.4501  1.2931  0.1526
   79SOPE   C28 7117   6.515   0.632   5.285 -0.7367 -0.4810 -0.0352
   79SOPE   H8R 7118   6.589   0.550   5.274 -0.5646 -0.1048 -1.8634
   79SOPE   H8S 7119   6.425   0.599   5.341 -0.8018  1.1812  0.8894
   79SOPE   C29 7120   6.461   0.692   5.158  0.3541  0.5103 -0.2773
   79SOPE   H91 7121   6.416   0.793   5.160 -1.5183 -0.2991  1.6669
   79SOPE  C210 7122   6.464   0.635   5.040  0.6339  0.7721  0.1266
   79SOPE  H101 7123   6.420   0.691   4.957 -1.7961  0.8414  1.3828
   79SOPE  C211 7124   6.519   0.498   5.015  0.0861 -0.7351 -0.6088
   79SOPE  H11R 7125   6.515   0.430   5.103 -0.7519  0.2924  0.1670
   79SOPE  H11S 7126   6.624   0.495   4.977 -0.6470  2.5148 -3.3796
   79SOPE  C212 7127   6.434   0.439   4.907  0.8825 -0.1565 -0.6432
   79SOPE  H12R 7128   6.400   0.507   4.826 -0.8809 -0.0355  0.1414
   79SOPE  H12S 7129   6.340   0.403   4.955 -0.4613 -0.6822 -3.4640
   79SOPE  C213 7130   6.494   0.308   4.841 -0.2741  0.3288  0.3504
   79SOPE  H13R 7131   6.551   0.250   4.915  1.5381  2.8839  1.0916
   79SOPE  H13S 7132   6.582   0.331   4.777  0.8716  0.4000  1.8954
   79SOPE  C214 7133   6.390   0.231   4.767 -0.0359 -0.0925 -0.1252
   79SOPE  H14R 7134   6.357   0.300   4.685 -0.8891  0.5122  0.7070
   79SOPE  H14S 7135   6.311   0.194   4.835 -0.9471 -1.1540 -1.6817
   79SOPE  C215 7136   6.445   0.106   4.708 -0.6995  0.0366  0.2134
   79SOPE  H15R 7137   6.469   0.040   4.794 -0.4393 -2.0774 -1.4032
   79SOPE  H15S 7138   6.546   0.132   4.670 -0.0474  0.3534  2.0618
   79SOPE  C216 7139   6.362   0.026   4.607 -0.3712 -0.8038 -0.0406
   79SOPE  H16R 7140   6.322   0.098   4.533 -0.4248 -1.8065 -1.0264
   79SOPE  H16S 7141   6.279  -0.026   4.659  0.9259 -1.7953  1.1155
   79SOPE  C217 7142   6.440  -0.083   4.531  0.0322 -0.1209  0.1988
   79SOPE  H17R 7143   6.514  -0.130   4.600 -0.3524  0.6468  1.1565
   79SOPE  H17S 7144   6.495  -0.032   4.449 -1.8495 -1.4606 -1.9965
   79SOPE  C218 7145   6.346  -0.188   4.461  0.3790 -0.1726 -0.4829
   79SOPE  H18R 7146   6.261  -0.129   4.420  0.3876 -0.9220 -1.6285
   79SOPE  H18S 7147   6.307  -0.270   4.525 -0.6570 -0.5671 -1.5854
   79SOPE  H18T 7148   6.404  -0.237   4.379 -1.4048 -0.4576 -1.6231
   79SOPE   C33 7149   6.194   1.133   5.626  0.0032  0.0783 -1.2269
   79SOPE   H3X 7150   6.154   1.234   5.649  2.4728  0.2498  3.5194
   79SOPE   H3Y 7151   6.130   1.065   5.686  1.2156 -0.2262 -0.2386
   79SOPE   C34 7152   6.179   1.096   5.479 -0.0465 -0.1087  0.0132
   79SOPE   H4X 7153   6.070   1.082   5.464  0.1879 -1.7767 -0.3181
   79SOPE   H4Y 7154   6.226   0.995   5.471  1.4570  0.7025 -2.5014
   79SOPE   C35 7155   6.240   1.196   5.378  0.0335  0.0188 -0.1048
   79SOPE   H5X 7156   6.349   1.212   5.390  0.7745 -3.7598 -0.5005
   79SOPE   H5Y 7157   6.192   1.294   5.396 -1.1394 -0.6365  0.4746
   79SOPE   C36 7158   6.211   1.159   5.231 -0.3981  0.0439 -0.1306
   79SOPE   H6X 7159   6.264   1.236   5.172  1.7839  0.0282  1.6631
   79SOPE   H6Y 7160   6.101   1.170   5.219 -0.1430  0.2567 -3.1130
   79SOPE   C37 7161   6.266   1.026   5.185 -0.5236 -0.1569  0.6414
   79SOPE   H7X 7162   6.200   0.942   5.213 -1.4345  0.1598 -0.4807
   79SOPE   H7Y 7163   6.367   1.004   5.226  0.3501 -2.1500 -2.2729
   79SOPE   C38 7164   6.265   1.032   5.026 -0.2526 -0.4244  0.3956
   79SOPE   H8X 7165   6.313   0.934   5.005 -3.3119 -1.9492  0.0314
   79SOPE   H8Y 7166   6.327   1.115   4.986 -1.5888 -0.0368 -0.9703
   79SOPE   C39 7167   6.125   1.035   4.965 -0.6588  0.2382 -0.1809
   79SOPE   H9X 7168   6.083   1.133   4.996  1.9361  1.0374  1.0034
   79SOPE   H9Y 7169   6.074   0.950   5.015  0.7626 -0.4594  0.1151
   79SOPE  C310 7170   6.126   1.020   4.816  1.1274  0.4622  0.0917
   79SOPE  H10X 7171   6.192   0.932   4.796  0.6538  0.0101  0.4946
   79SOPE  H10Y 7172   6.168   1.112   4.769  2.0143 -0.6326 -1.3443
   79SOPE  C311 7173   5.992   0.981   4.761 -0.2462 -0.2522  0.7627
   79SOPE  H11X 7174   5.914   1.060   4.763  0.4283  0.6468  5.9443
   79SOPE  H11Y 7175   5.943   0.899   4.818 -0.9288  0.2920  0.9743
   79SOPE  C312 7176   6.009   0.927   4.620  0.1594  0.2064 -0.2250
   79SOPE  H12X 7177   6.076   0.838   4.630  0.0285  0.0510 -0.6994
   79SOPE  H12Y 7178   6.069   0.983   4.545  1.0254  1.7036  1.5332
   79SOPE  C313 7179   5.880   0.871   4.566  0.4459  0.5079 -0.1006
   79SOPE  H13X 7180   5.820   0.962   4.546  0.2706  0.9939  2.3221
   79SOPE  H13Y 7181   5.826   0.824   4.651 -1.8739  1.2485 -1.0652
   79SOPE  C314 7182   5.893   0.782   4.444 -0.4855  0.4496  1.0200
   79SOPE  H14X 7183   5.974   0.706   4.450  0.3339  1.0075 -1.5583
   79SOPE  H14Y 7184   5.920   0.836   4.350  0.8737 -1.8844 -0.0252
   79SOPE  C315 7185   5.761   0.718   4.393  0.1115  0.4286 -0.5587
   79SOPE  H15X 7186   5.663   0.771   4.394 -0.2298 -0.2034 -0.1940
   79SOPE  H15Y 7187   5.752   0.625   4.454  1.0090  0.6475 -0.0641
   79SOPE  C316 7188   5.781   0.666   4.249  0.3185  0.3416 -0.3073
   79SOPE  H16X 7189   5.713   0.582   4.223  1.2472 -0.1222 -1.3150
   79SOPE  H16Y 7190   5.886   0.630   4.245 -0.0305 -0.9029  1.1088
   79SOPE  C317 7191   5.767   0.775   4.137  0.7428 -0.1784 -0.1383
   79SOPE  H17X 7192   5.817   0.737   4.045 -0.7601  2.2496 -2.1149
   79SOPE  H17Y 7193   5.825   0.866   4.164 -0.1890  0.3111  0.2671
   79SOPE  C318 7194   5.621   0.808   4.109  0.0679  0.6089 -0.1755
   79SOPE  H18X 7195   5.573   0.708   4.101  0.4007  0.6023 -4.1857
   79SOPE  H18Y 7196   5.611   0.857   4.009  2.2550  0.7565 -0.3625
   79SOPE  H18Z 7197   5.582   0.871   4.191 -1.6649  0.1567 -0.6088
   80SOPE     N 7198   4.828   2.603   6.470 -0.4368  0.0170  0.6802
   80SOPE   HN1 7199   4.766   2.679   6.436 -1.3893 -0.4393  1.3610
   80SOPE   HN2 7200   4.925   2.630   6.497 -1.3242  2.8695  1.3366
   80SOPE   HN3 7201   4.842   2.533   6.394  1.3646  1.4742 -0.4208
   80SOPE   C12 7202   4.754   2.550   6.582 -0.6693  0.3811 -0.7087
   80SOPE  H12A 7203   4.712   2.620   6.657 -0.2438 -0.2383  0.1238
   80SOPE  H12B 7204   4.816   2.471   6.630 -1.6317 -0.8727 -1.4515
   80SOPE   C11 7205   4.635   2.474   6.515  0.1139  0.4590  0.4219
   80SOPE  H11A 7206   4.573   2.411   6.582 -2.5274  1.1528 -1.2139
   80SOPE  H11B 7207   4.688   2.400   6.451 -0.0913  0.6519  0.0197
   80SOPE     P 7208   4.415   2.541   6.380 -0.3528  0.1110  0.5472
   80SOPE   O13 7209   4.345   2.668   6.346 -0.4118  0.9527  0.2719
   80SOPE   O14 7210   4.342   2.452   6.471  0.4213 -0.5661 -0.0694
   80SOPE   O12 7211   4.555   2.563   6.438  0.4487 -0.3139 -0.5930
   80SOPE   O11 7212   4.437   2.465   6.245 -0.0129  0.2640 -0.1369
   80SOPE    C1 7213   4.537   2.511   6.144  0.7635 -0.5765 -0.1364
   80SOPE    HA 7214   4.587   2.420   6.105 -1.9168 -2.2015  0.0304
   80SOPE    HB 7215   4.622   2.576   6.176 -0.4065  1.1493 -0.4197
   80SOPE    C2 7216   4.480   2.598   6.026  0.3093 -0.0612  0.4061
   80SOPE    HS 7217   4.437   2.696   6.057 -1.0914 -1.0328  1.6650
   80SOPE   O21 7218   4.381   2.515   5.956 -0.3952 -1.2839 -0.1113
   80SOPE   C21 7219   4.308   2.571   5.863 -0.1561 -0.7974 -0.2518
   80SOPE   O22 7220   4.301   2.692   5.843  0.1317 -0.6347  0.1026
   80SOPE   C22 7221   4.224   2.467   5.788 -0.1612 -0.1161 -1.5586
   80SOPE   H2R 7222   4.184   2.402   5.869 -0.0589  2.1241  0.3999
   80SOPE   H2S 7223   4.294   2.404   5.729 -0.8858 -0.1522 -2.4170
   80SOPE    C3 7224   4.594   2.633   5.923  0.1216  0.3035 -0.5776
   80SOPE    HX 7225   4.663   2.708   5.969  2.7394 -1.7342 -0.9122
   80SOPE    HY 7226   4.558   2.684   5.831 -1.9306 -0.2620 -0.1218
   80SOPE   O31 7227   4.663   2.511   5.882 -0.2507  0.4460 -0.3009
   80SOPE   C31 7228   4.780   2.487   5.943  0.0414  1.0606 -0.5698
   80SOPE   O32 7229   4.841   2.568   6.013 -0.4678 -0.3102  0.1505
   80SOPE   C32 7230   4.846   2.355   5.905 -0.1882 -0.6127  1.2051
   80SOPE   H2X 7231   4.800   2.308   5.815 -0.6415 -1.8596  2.0523
   80SOPE   H2Y 7232   4.831   2.285   5.990  1.8686 -2.5552  0.0650
   80SOPE   C23 7233   4.114   2.533   5.700  0.4836 -0.2449 -0.2182
   80SOPE   H3R 7234   4.149   2.617   5.636  2.5464 -1.2347 -0.4669
   80SOPE   H3S 7235   4.026   2.560   5.762 -0.3743 -1.5392 -0.8225
   80SOPE   C24 7236   4.047   2.429   5.600 -0.2568  0.8171  0.5651
   80SOPE   H4R 7237   4.036   2.328   5.644 -0.6057  0.4974 -0.2468
   80SOPE   H4S 7238   3.948   2.469   5.569  0.8506  2.4411 -1.1523
   80SOPE   C25 7239   4.120   2.419   5.467 -0.4439  0.2036  0.2297
   80SOPE   H5R 7240   4.112   2.510   5.404 -0.6271  1.7051  2.3191
   80SOPE   H5S 7241   4.228   2.398   5.485  0.0121  0.0667 -2.3024
   80SOPE   C26 7242   4.068   2.289   5.390 -0.6347 -0.9385  0.2754
   80SOPE   H6R 7243   4.087   2.204   5.460  2.1774 -0.1569  0.5910
   80SOPE   H6S 7244   3.960   2.288   5.362  0.1505  0.8522 -3.3931
   80SOPE   C27 7245   4.151   2.281   5.260 -0.4518  0.2241  0.2676
   80SOPE   H7R 7246   4.252   2.319   5.282 -0.9630  0.7483  1.8317
   80SOPE   H7S 7247   4.163   2.173   5.234 -1.7108  0.2424 -0.5172
   80SOPE   C28 7248   4.087   2.368   5.148  0.1858 -0.3148  0.3142
   80SOPE   H8R 7249   3.986   2.329   5.123  0.9544 -2.3388  0.1093
   80SOPE   H8S 7250   4.087   2.474   5.182  2.0920  0.8990 -2.9549
   80SOPE   C29 7251   4.182   2.365   5.028 -0.4303 -0.4345  0.4389
   80SOPE   H91 7252   4.283   2.404   5.047 -0.3823  0.5237 -1.5456
   80SOPE  C210 7253   4.155   2.327   4.902  0.9548 -0.3560  0.0045
   80SOPE  H101 7254   4.239   2.307   4.833  1.3539 -0.1733  0.4334
   80SOPE  C211 7255   4.022   2.284   4.851  0.0758  0.1703  0.2883
   80SOPE  H11R 7256   3.932   2.299   4.914 -1.2185 -1.6319 -1.0562
   80SOPE  H11S 7257   4.024   2.175   4.831 -2.1356 -0.3055  2.2178
   80SOPE  C212 7258   3.996   2.360   4.719 -0.3485  0.0329 -0.0241
   80SOPE  H12R 7259   3.986   2.469   4.739 -2.4085 -0.1332  0.0789
   80SOPE  H12S 7260   3.891   2.338   4.689 -0.4793  0.9472 -0.2673
   80SOPE  C213 7261   4.092   2.338   4.602  0.0149 -1.0004  0.3934
   80SOPE  H13R 7262   4.113   2.230   4.588 -2.1697 -1.3258 -0.7557
   80SOPE  H13S 7263   4.191   2.388   4.616 -0.0352  0.3030 -3.0161
   80SOPE  C214 7264   4.040   2.385   4.469  0.4732 -0.2458  0.2350
   80SOPE  H14R 7265   4.118   2.394   4.390  1.7866  2.1464  1.6819
   80SOPE  H14S 7266   4.011   2.492   4.476 -0.2687 -0.4140 -0.2316
   80SOPE  C215 7267   3.934   2.302   4.401 -0.8213  0.4519  0.7799
   80SOPE  H15R 7268   3.855   2.291   4.478 -1.2218 -2.5906  0.0661
   80SOPE  H15S 7269   3.974   2.202   4.371 -1.3707 -0.0460  1.6653
   80SOPE  C216 7270   3.873   2.385   4.282 -0.3682 -0.0583 -0.0943
   80SOPE  H16R 7271   3.954   2.414   4.212 -0.4244  2.5538  0.7889
   80SOPE  H16S 7272   3.817   2.477   4.310 -1.3576 -0.7548  0.2619
   80SOPE  C217 7273   3.777   2.301   4.196  0.6440  0.9186 -0.1243
   80SOPE  H17R 7274   3.718   2.248   4.274  1.3349  2.4952  1.5303
   80SOPE  H17S 7275   3.825   2.224   4.131  0.2773 -0.5921  1.3126
   80SOPE  C218 7276   3.699   2.383   4.091 -0.2452  0.8496 -0.2223
   80SOPE  H18R 7277   3.761   2.459   4.039 -2.0731  1.3574 -1.7819
   80SOPE  H18S 7278   3.621   2.433   4.152 -0.0986  1.2078 -0.3301
   80SOPE  H18T 7279   3.644   2.315   4.022  0.0102  0.9821 -0.5603
   80SOPE   C33 7280   5.000   2.352   5.872 -0.0257  0.7486  0.1032
   80SOPE   H3X 7281   5.052   2.254   5.872  1.0859  1.3013  1.5672
   80SOPE   H3Y 7282   5.056   2.412   5.947  1.8044 -0.3448 -0.3293
   80SOPE   C34 7283   5.038   2.393   5.735  0.6014 -0.0916 -0.5327
   80SOPE   H4X 7284   4.980   2.326   5.667  0.5587  1.1778 -1.7989
   80SOPE   H4Y 7285   5.146   2.382   5.709  0.8884  0.9838  0.1655
   80SOPE   C35 7286   5.000   2.538   5.689 -0.0352  0.7352 -0.0127
   80SOPE   H5X 7287   5.034   2.601   5.774 -0.4929 -0.8148  1.3708
   80SOPE   H5Y 7288   4.889   2.549   5.680  0.0617 -0.0182 -3.3631
   80SOPE   C36 7289   5.049   2.585   5.557  0.1398 -0.5327 -0.4403
   80SOPE   H6X 7290   5.160   2.591   5.556  0.0921  1.0535 -0.1811
   80SOPE   H6Y 7291   5.009   2.688   5.543 -0.4650 -0.8567 -1.1360
   80SOPE   C37 7292   4.995   2.503   5.442 -0.1066  0.3561 -0.4092
   80SOPE   H7X 7293   4.884   2.514   5.442 -0.4861 -2.5379 -1.9900
   80SOPE   H7Y 7294   5.005   2.394   5.460  0.0417  0.4800  0.2957
   80SOPE   C38 7295   5.067   2.532   5.309 -0.9343 -0.2938 -0.2149
   80SOPE   H8X 7296   5.172   2.503   5.333 -0.9798 -1.2369 -1.0834
   80SOPE   H8Y 7297   5.063   2.641   5.289 -2.1017 -0.4726 -1.0055
   80SOPE   C39 7298   5.010   2.451   5.197  0.0491  0.5252  0.4334
   80SOPE   H9X 7299   4.902   2.477   5.185 -0.3593 -0.8207  1.0861
   80SOPE   H9Y 7300   5.004   2.342   5.217 -0.5495  0.3377 -0.6789
   80SOPE  C310 7301   5.080   2.463   5.057  0.6266  0.2872 -0.8978
   80SOPE  H10X 7302   5.184   2.424   5.063  0.7170  0.5144 -0.9646
   80SOPE  H10Y 7303   5.088   2.573   5.045  3.4379  0.0995 -1.4568
   80SOPE  C311 7304   5.006   2.413   4.932  0.1110 -0.7397 -0.1113
   80SOPE  H11X 7305   4.897   2.430   4.946  0.6392  1.7108  1.7988
   80SOPE  H11Y 7306   5.020   2.303   4.936  1.4322 -0.5495  1.0260
   80SOPE  C312 7307   5.069   2.470   4.798 -0.0844 -0.2538  0.1609
   80SOPE  H12X 7308   5.178   2.484   4.815 -0.1368  2.8525 -1.5069
   80SOPE  H12Y 7309   5.033   2.573   4.780 -3.0957 -0.8388  2.0772
   80SOPE  C313 7310   5.038   2.390   4.671  0.9435  0.6455 -0.4986
   80SOPE  H13X 7311   4.928   2.391   4.655  0.5187 -0.9723  1.8192
   80SOPE  H13Y 7312   5.060   2.283   4.688  1.7235 -0.3889 -6.2026
   80SOPE  C314 7313   5.107   2.447   4.543 -0.0694  1.0129  0.7421
   80SOPE  H14X 7314   5.213   2.422   4.562 -0.1546  1.3864  1.7485
   80SOPE  H14Y 7315   5.098   2.556   4.528 -0.8201  0.6885 -1.6589
   80SOPE  C315 7316   5.050   2.375   4.424 -0.2105 -0.4187 -0.0761
   80SOPE  H15X 7317   5.016   2.274   4.455 -0.0572 -0.2421  0.6973
   80SOPE  H15Y 7318   5.124   2.355   4.344  0.6397 -4.2469  1.4699
   80SOPE  C316 7319   4.952   2.469   4.352  0.5861 -0.3891 -1.0239
   80SOPE  H16X 7320   5.012   2.557   4.319 -1.6879  0.9090 -1.8723
   80SOPE  H16Y 7321   4.882   2.513   4.426  0.9834  0.6744 -1.2590
   80SOPE  C317 7322   4.867   2.414   4.239  0.3104  0.0976 -0.6568
   80SOPE  H17X 7323   4.936   2.364   4.169 -1.1799 -1.5434 -1.0220
   80SOPE  H17Y 7324   4.825   2.498   4.179  0.2368 -0.4200 -1.3374
   80SOPE  C318 7325   4.758   2.327   4.302 -0.2948  0.3535  0.0128
   80SOPE  H18X 7326   4.795   2.251   4.373 -0.3923  2.2736  2.2437
   80SOPE  H18Y 7327   4.699   2.272   4.226 -0.2309  1.0094 -0.5203
   80SOPE  H18Z 7328   4.693   2.388   4.370  0.3239  1.0885 -0.0420
   81SOPE     N 7329   5.837   4.201   6.370 -0.3050 -0.9611  0.4308
   81SOPE   HN1 7330   5.737   4.173   6.373 -0.7384  0.1889 -1.6348
   81SOPE   HN2 7331   5.834   4.298   6.332 -0.8438 -0.8209  0.8116
   81SOPE   HN3 7332   5.886   4.143   6.300  0.5905  0.2155  0.0556
   81SOPE   C12 7333   5.901   4.191   6.504  0.4879 -0.1927  0.1010
   81SOPE  H12A 7334   5.838   4.251   6.572 -0.2000 -0.2527 -0.4680
   81SOPE  H12B 7335   6.007   4.223   6.494 -0.1970  1.7520 -1.7449
   81SOPE   C11 7336   5.884   4.048   6.554  0.4846 -0.1184 -0.4656
   81SOPE  H11A 7337   5.774   4.034   6.563  0.2203 -1.3516 -4.1638
   81SOPE  H11B 7338   5.930   4.039   6.655  1.4255 -1.3208 -0.9745
   81SOPE     P 7339   6.049   3.850   6.478  0.1408 -0.1882 -0.0634
   81SOPE   O13 7340   5.975   3.718   6.460 -0.2973  0.2374  0.2693
   81SOPE   O14 7341   6.128   3.881   6.599 -0.1040 -0.0953 -0.0437
   81SOPE   O12 7342   5.939   3.963   6.454  0.5335  0.3391  0.3401
   81SOPE   O11 7343   6.147   3.884   6.359 -0.5490 -0.2434  0.2560
   81SOPE    C1 7344   6.157   4.009   6.302  0.2401  0.0198  0.0992
   81SOPE    HA 7345   6.243   4.060   6.353  0.2455  0.9719 -0.8154
   81SOPE    HB 7346   6.075   4.080   6.326  0.5855 -0.7764  4.4690
   81SOPE    C2 7347   6.181   3.998   6.140  0.3975  0.8108 -0.6033
   81SOPE    HS 7348   6.165   4.098   6.093  2.0042  1.1950 -0.3747
   81SOPE   O21 7349   6.090   3.907   6.078 -0.1724 -0.3257 -0.0045
   81SOPE   C21 7350   5.967   3.941   6.095  0.9755  0.9940  0.6881
   81SOPE   O22 7351   5.922   4.044   6.143  0.0001  0.4753  0.4543
   81SOPE   C22 7352   5.881   3.830   6.034 -0.7961 -0.3391 -0.1539
   81SOPE   H2R 7353   5.844   3.780   6.126  1.7460 -0.1346  1.0673
   81SOPE   H2S 7354   5.951   3.753   5.994  1.4417  0.6094  1.6738
   81SOPE    C3 7355   6.329   3.955   6.098 -0.3474 -0.1179  0.3084
   81SOPE    HX 7356   6.350   3.855   6.141 -0.1569 -0.9859 -1.6925
   81SOPE    HY 7357   6.407   4.023   6.140 -0.0683  0.1042 -0.5542
   81SOPE   O31 7358   6.349   3.942   5.956  0.3121 -0.2764  0.3152
   81SOPE   C31 7359   6.365   4.058   5.892 -0.1587  0.9192  0.2353
   81SOPE   O32 7360   6.337   4.167   5.941  0.1588  0.0358  0.6575
   81SOPE   C32 7361   6.420   4.039   5.750  0.2453 -0.7464 -0.6559
   81SOPE   H2X 7362   6.390   3.942   5.706  1.4310 -0.8288 -1.3109
   81SOPE   H2Y 7363   6.530   4.046   5.762  0.0044  0.5879  1.3939
   81SOPE   C23 7364   5.772   3.868   5.949  0.0521  0.1790  0.2349
   81SOPE   H3R 7365   5.701   3.934   6.003  0.4004  0.1189  0.7723
   81SOPE   H3S 7366   5.722   3.773   5.920 -2.4355  1.0775  1.2243
   81SOPE   C24 7367   5.822   3.945   5.824  0.0478 -0.5538  0.1801
   81SOPE   H4R 7368   5.732   3.953   5.759 -0.8756  4.0611  1.6115
   81SOPE   H4S 7369   5.850   4.047   5.859  1.4137 -1.0443  0.5455
   81SOPE   C25 7370   5.945   3.891   5.754 -0.9465  0.1594  0.3794
   81SOPE   H5R 7371   6.030   3.924   5.817 -2.9280 -0.6826  3.7131
   81SOPE   H5S 7372   5.958   3.781   5.762 -0.8182  0.1026 -0.4556
   81SOPE   C26 7373   5.968   3.922   5.598 -0.2923 -0.5767  0.0935
   81SOPE   H6R 7374   6.070   3.885   5.574  0.7227  1.7656  0.4580
   81SOPE   H6S 7375   5.887   3.859   5.557 -2.3137  1.9492 -0.0803
   81SOPE   C27 7376   5.951   4.066   5.546 -0.0132  0.0112 -0.2515
   81SOPE   H7R 7377   5.844   4.090   5.565  0.0005  0.2443 -0.4667
   81SOPE   H7S 7378   6.011   4.139   5.604 -0.1585 -0.5480  0.6210
   81SOPE   C28 7379   5.972   4.085   5.395 -0.0278  0.0900 -0.2275
   81SOPE   H8R 7380   5.916   3.998   5.352  1.1694 -0.2493 -1.1480
   81SOPE   H8S 7381   5.934   4.181   5.356  0.4408  0.9654  1.3848
   81SOPE   C29 7382   6.117   4.080   5.375  0.3291 -1.0464 -0.0340
   81SOPE   H91 7383   6.172   4.149   5.441 -1.3657  1.9582 -1.5297
   81SOPE  C210 7384   6.170   3.987   5.294  0.0046 -0.6933 -0.0262
   81SOPE  H101 7385   6.275   3.986   5.260 -0.2199 -1.8481 -0.7301
   81SOPE  C211 7386   6.098   3.875   5.217 -0.8131 -0.6618 -0.8145
   81SOPE  H11R 7387   6.009   3.837   5.272  0.1012 -0.2424  1.0262
   81SOPE  H11S 7388   6.156   3.782   5.201 -0.5652 -0.1123 -3.4529
   81SOPE  C212 7389   6.062   3.931   5.081  0.2694  0.0331  0.1844
   81SOPE  H12R 7390   5.981   4.006   5.094 -0.0683 -0.4922  1.2223
   81SOPE  H12S 7391   6.012   3.853   5.019 -0.0568 -0.8686  1.5312
   81SOPE  C213 7392   6.180   3.979   4.993  0.1123 -0.0662 -0.0824
   81SOPE  H13R 7393   6.254   3.896   4.990  0.4348  0.2146  0.1147
   81SOPE  H13S 7394   6.224   4.069   5.040 -3.6477  0.7196  2.3609
   81SOPE  C214 7395   6.137   4.024   4.852  0.1811 -0.4548  0.1553
   81SOPE  H14R 7396   6.100   4.128   4.860  0.1988 -0.4764  0.5251
   81SOPE  H14S 7397   6.048   3.968   4.816  1.2612 -0.8871 -1.9860
   81SOPE  C215 7398   6.258   4.027   4.754  0.0315  0.1388  0.1841
   81SOPE  H15R 7399   6.270   3.919   4.734  1.8003  0.4227 -0.4847
   81SOPE  H15S 7400   6.339   4.077   4.812  0.3596  0.5095 -0.5809
   81SOPE  C216 7401   6.232   4.099   4.622  0.0330 -0.3040 -0.1628
   81SOPE  H16R 7402   6.207   4.204   4.645 -1.7198 -0.5956 -0.6447
   81SOPE  H16S 7403   6.140   4.051   4.583  0.2452 -0.8127 -0.0551
   81SOPE  C217 7404   6.346   4.078   4.522 -0.2495  0.2257  0.5606
   81SOPE  H17R 7405   6.366   3.973   4.492  2.1622  1.0959 -1.2508
   81SOPE  H17S 7406   6.438   4.131   4.556 -0.5084  2.1559 -1.4534
   81SOPE  C218 7407   6.303   4.138   4.388  0.1878 -1.2193  0.5408
   81SOPE  H18R 7408   6.394   4.136   4.324  0.9824 -0.5993  1.6147
   81SOPE  H18S 7409   6.271   4.243   4.404  0.7453 -1.0477  0.5455
   81SOPE  H18T 7410   6.218   4.082   4.343  0.6207 -3.5225  2.3407
   81SOPE   C33 7411   6.379   4.158   5.652 -0.3400 -0.5860 -0.0607
   81SOPE   H3X 7412   6.424   4.251   5.693 -0.5230 -0.9635  1.0354
   81SOPE   H3Y 7413   6.269   4.173   5.642 -0.2959  0.3791  0.7666
   81SOPE   C34 7414   6.443   4.131   5.509 -0.5363  0.2206  0.0322
   81SOPE   H4X 7415   6.387   4.042   5.472 -2.3326  1.4344 -0.2880
   81SOPE   H4Y 7416   6.548   4.100   5.528 -0.5362 -0.2477 -0.6910
   81SOPE   C35 7417   6.432   4.249   5.406 -0.0919 -0.1126  0.1921
   81SOPE   H5X 7418   6.511   4.322   5.433 -0.9262  2.3174 -3.2181
   81SOPE   H5Y 7419   6.338   4.306   5.422 -0.4085 -0.6485  0.2772
   81SOPE   C36 7420   6.451   4.211   5.260 -0.5026 -0.5765 -0.1972
   81SOPE   H6X 7421   6.469   4.307   5.208  1.1836 -0.9567 -0.3680
   81SOPE   H6Y 7422   6.358   4.166   5.219  2.0263 -4.8692 -1.8579
   81SOPE   C37 7423   6.572   4.118   5.236  0.4612 -0.4915 -0.5790
   81SOPE   H7X 7424   6.556   4.012   5.268  2.6237 -0.0177  2.5464
   81SOPE   H7Y 7425   6.657   4.153   5.298  0.9460 -0.5968 -1.1660
   81SOPE   C38 7426   6.632   4.123   5.097 -0.2353  0.5077  0.0975
   81SOPE   H8X 7427   6.644   4.230   5.068 -1.5268  0.3687 -1.0695
   81SOPE   H8Y 7428   6.568   4.082   5.016 -0.2526 -1.3587  1.0051
   81SOPE   C39 7429   6.764   4.047   5.083 -0.0773 -0.3015 -0.1797
   81SOPE   H9X 7430   6.750   3.949   5.133  1.9816 -0.3165  0.4346
   81SOPE   H9Y 7431   6.845   4.094   5.143  0.4783 -1.1679 -0.2349
   81SOPE  C310 7432   6.811   4.034   4.944 -0.1228 -0.2081 -0.6302
   81SOPE  H10X 7433   6.816   4.124   4.879  0.9991  0.6789  0.6179
   81SOPE  H10Y 7434   6.735   3.971   4.894 -0.2426  0.0822 -0.8191
   81SOPE  C311 7435   6.955   3.983   4.941 -0.7089 -0.0572  0.1045
   81SOPE  H11X 7436   6.961   3.913   5.027  0.7413  1.6428  1.4736
   81SOPE  H11Y 7437   7.024   4.068   4.962 -0.0608 -1.0530  2.2563
   81SOPE  C312 7438   6.990   3.911   4.813  0.8291  0.3173 -0.2786
   81SOPE  H12X 7439   6.909   3.855   4.761  0.4071  1.7305 -1.1843
   81SOPE  H12Y 7440   7.066   3.836   4.842  0.1253 -0.2977  0.0110
   81SOPE  C313 7441   7.059   3.996   4.709  0.6692 -0.8371 -0.0284
   81SOPE  H13X 7442   7.137   4.057   4.758 -0.9292  0.3156  1.1595
   81SOPE  H13Y 7443   6.987   4.063   4.658 -0.7070 -0.7338  1.9616
   81SOPE  C314 7444   7.115   3.915   4.596 -0.1969 -0.0302 -0.5270
   81SOPE  H14X 7445   7.190   3.984   4.552  0.4230  0.7533  1.6405
   81SOPE  H14Y 7446   7.034   3.886   4.525 -1.5596  2.2134  0.0050
   81SOPE  C315 7447   7.197   3.791   4.639 -0.4489  0.2661  0.0054
   81SOPE  H15X 7448   7.124   3.713   4.671 -0.9076  0.2562 -1.0142
   81SOPE  H15Y 7449   7.261   3.805   4.728  0.9337 -1.0993 -0.7186
   81SOPE  C316 7450   7.289   3.738   4.531 -0.1001 -0.1419 -0.5392
   81SOPE  H16X 7451   7.344   3.665   4.594 -1.5416 -0.6430  0.1704
   81SOPE  H16Y 7452   7.364   3.809   4.490 -0.1959 -0.4647 -1.2830
   81SOPE  C317 7453   7.216   3.662   4.421 -0.3343 -0.0782 -0.2254
   81SOPE  H17X 7454   7.148   3.732   4.368  1.7109  1.5428 -0.8031
   81SOPE  H17Y 7455   7.163   3.575   4.465  1.9418 -1.1673  0.4779
   81SOPE  C318 7456   7.317   3.610   4.321  0.0245 -0.0946  0.4114
   81SOPE  H18X 7457   7.401   3.546   4.353 -0.1933 -0.7370 -0.2659
   81SOPE  H18Y 7458   7.351   3.695   4.259 -0.2061 -0.6664 -0.5183
   81SOPE  H18Z 7459   7.256   3.549   4.251 -0.8209  1.7657 -0.5414
   82SOPE     N 7460   4.343   4.691   6.528 -0.0339  1.2000 -0.1322
   82SOPE   HN1 7461   4.407   4.718   6.606 -1.6808  0.7293  1.4590
   82SOPE   HN2 7462   4.254   4.744   6.532 -0.0162  1.1538  1.6004
   82SOPE   HN3 7463   4.314   4.592   6.543  1.5262  1.0901  2.8706
   82SOPE   C12 7464   4.420   4.730   6.402  0.1959 -0.0694 -0.4030
   82SOPE  H12A 7465   4.520   4.681   6.400 -0.2462 -1.2044  2.0099
   82SOPE  H12B 7466   4.437   4.839   6.413 -0.7514  0.1000 -0.5103
   82SOPE   C11 7467   4.342   4.706   6.274  0.8797 -0.6847 -0.9484
   82SOPE  H11A 7468   4.397   4.759   6.193  1.3576  1.7540  0.8813
   82SOPE  H11B 7469   4.243   4.755   6.283 -0.3470 -2.5931 -2.8950
   82SOPE     P 7470   4.428   4.465   6.200  0.4066 -0.3850 -0.0544
   82SOPE   O13 7471   4.361   4.330   6.219  0.0990  0.5969 -0.1434
   82SOPE   O14 7472   4.556   4.490   6.264 -0.3059 -0.7948  0.7952
   82SOPE   O12 7473   4.325   4.567   6.254  0.6977  0.1705 -0.7494
   82SOPE   O11 7474   4.421   4.497   6.048  0.6376  0.1800  0.1644
   82SOPE    C1 7475   4.308   4.494   5.960 -0.6040 -0.3621 -0.8090
   82SOPE    HA 7476   4.222   4.540   6.013 -0.3955 -1.1682  0.2755
   82SOPE    HB 7477   4.268   4.394   5.932  1.2819 -1.6482  0.8377
   82SOPE    C2 7478   4.329   4.591   5.841  0.0947 -0.2106  0.2271
   82SOPE    HS 7479   4.229   4.600   5.793  0.6507  1.0743 -0.7437
   82SOPE   O21 7480   4.426   4.535   5.745  0.2509 -0.2802 -0.6834
   82SOPE   C21 7481   4.364   4.471   5.644 -0.4096 -0.2935 -0.6497
   82SOPE   O22 7482   4.245   4.471   5.630  0.4312 -0.2186 -0.0065
   82SOPE   C22 7483   4.467   4.421   5.546  0.3550 -0.1575  0.1784
   82SOPE   H2R 7484   4.533   4.357   5.609  0.1786  0.9536  1.5305
   82SOPE   H2S 7485   4.528   4.510   5.519 -0.3754  0.4689  0.5676
   82SOPE    C3 7486   4.357   4.734   5.884  0.1175  0.0232  0.4676
   82SOPE    HX 7487   4.460   4.735   5.926 -0.2529 -0.6930  1.4066
   82SOPE    HY 7488   4.291   4.758   5.969  1.8581 -0.2394  1.9563
   82SOPE   O31 7489   4.351   4.825   5.772  0.2371  0.2747  0.4652
   82SOPE   C31 7490   4.225   4.867   5.741 -0.0937  0.7470 -0.2870
   82SOPE   O32 7491   4.120   4.822   5.788 -0.3916 -0.4626 -0.4113
   82SOPE   C32 7492   4.236   4.986   5.647  0.0921 -0.0549 -0.0991
   82SOPE   H2X 7493   4.346   5.005   5.640 -0.0637  1.1203  0.3433
   82SOPE   H2Y 7494   4.185   5.068   5.703  0.2577 -0.3585  0.5149
   82SOPE   C23 7495   4.412   4.344   5.426 -0.0259  0.4144  0.5101
   82SOPE   H3R 7496   4.305   4.314   5.431  0.2349 -0.5059  0.7858
   82SOPE   H3S 7497   4.475   4.255   5.407 -0.6693 -0.1576  1.0146
   82SOPE   C24 7498   4.428   4.442   5.310  0.8889  0.1508 -0.2625
   82SOPE   H4R 7499   4.361   4.528   5.332 -0.4994 -0.8770 -0.3790
   82SOPE   H4S 7500   4.528   4.482   5.281  0.3264  1.1892 -0.8346
   82SOPE   C25 7501   4.370   4.370   5.179 -0.2463 -1.0356  0.1878
   82SOPE   H5R 7502   4.259   4.357   5.180 -0.8508  2.7429  2.1707
   82SOPE   H5S 7503   4.399   4.430   5.091 -0.8475  0.7307  1.1362
   82SOPE   C26 7504   4.439   4.236   5.150  0.6736 -0.5138  0.3649
   82SOPE   H6R 7505   4.549   4.239   5.140  0.5253  1.6183 -1.0482
   82SOPE   H6S 7506   4.403   4.160   5.224 -1.8426 -0.3097 -0.5481
   82SOPE   C27 7507   4.382   4.169   5.022  0.4421  0.4565  0.1021
   82SOPE   H7R 7508   4.413   4.062   5.020  1.4759  0.7357 -1.9475
   82SOPE   H7S 7509   4.273   4.176   5.039  0.2644 -3.7325  1.7087
   82SOPE   C28 7510   4.420   4.232   4.885 -0.0276  0.2862 -0.4585
   82SOPE   H8R 7511   4.361   4.185   4.803 -0.4082 -1.3738  0.7236
   82SOPE   H8S 7512   4.382   4.336   4.885  1.4542  0.8453 -0.1360
   82SOPE   C29 7513   4.566   4.230   4.856  0.0439 -0.0913  0.9998
   82SOPE   H91 7514   4.628   4.280   4.932 -0.4161  0.2160  1.1722
   82SOPE  C210 7515   4.620   4.153   4.759 -0.1634 -0.6769  0.6667
   82SOPE  H101 7516   4.729   4.138   4.752  0.0420  0.9298 -0.1027
   82SOPE  C211 7517   4.529   4.089   4.660  0.2592 -0.3315  0.2532
   82SOPE  H11R 7518   4.460   4.162   4.614 -2.1322 -0.5794  3.1253
   82SOPE  H11S 7519   4.468   4.011   4.710 -0.3693  1.0472  1.7122
   82SOPE  C212 7520   4.621   4.029   4.559 -0.0347 -0.3490  0.8729
   82SOPE  H12R 7521   4.658   3.931   4.595  2.8007 -1.1459 -3.3373
   82SOPE  H12S 7522   4.707   4.094   4.532 -0.0446 -0.1754  1.2532
   82SOPE  C213 7523   4.550   4.002   4.427  0.8752  0.3198  0.5364
   82SOPE  H13R 7524   4.515   4.099   4.385 -1.7347 -0.2608  1.1929
   82SOPE  H13S 7525   4.455   3.952   4.454  0.7763  0.1383 -0.1152
   82SOPE  C214 7526   4.631   3.907   4.333 -0.1964 -0.0044  0.1974
   82SOPE  H14R 7527   4.650   3.810   4.384 -0.5139 -1.9040 -3.0412
   82SOPE  H14S 7528   4.727   3.957   4.307 -0.1234 -0.7843 -1.0851
   82SOPE  C215 7529   4.550   3.889   4.199 -0.1990  0.1826 -0.1818
   82SOPE  H15R 7530   4.554   3.985   4.143 -2.3412  0.7307  0.5142
   82SOPE  H15S 7531   4.445   3.856   4.210  0.2201 -1.5860 -1.1888
   82SOPE  C216 7532   4.619   3.790   4.104  0.5371 -0.3265  0.7886
   82SOPE  H16R 7533   4.555   3.782   4.014 -0.2317 -0.2823  1.3152
   82SOPE  H16S 7534   4.615   3.688   4.148  0.9813 -1.2178 -1.1195
   82SOPE  C217 7535   4.762   3.821   4.063 -0.2396  0.5044 -0.0210
   82SOPE  H17R 7536   4.829   3.811   4.152 -1.0929  0.2886  0.6050
   82SOPE  H17S 7537   4.779   3.925   4.029 -0.8773  1.3097  1.9668
   82SOPE  C218 7538   4.798   3.722   3.954 -0.8723  0.3875 -0.4848
   82SOPE  H18R 7539   4.815   3.621   3.998 -0.2884 -0.0840 -1.7358
   82SOPE  H18S 7540   4.900   3.749   3.917  0.5602 -0.6657  2.3484
   82SOPE  H18T 7541   4.725   3.725   3.871 -0.8606  1.4976 -0.4635
   82SOPE   C33 7542   4.184   4.951   5.509 -0.2472  0.1666  0.8220
   82SOPE   H3X 7543   4.220   5.024   5.434 -2.5408  0.4462 -0.0833
   82SOPE   H3Y 7544   4.074   4.955   5.518 -0.2637  4.2941  0.3780
   82SOPE   C34 7545   4.219   4.802   5.456  0.0535  0.0602  0.2030
   82SOPE   H4X 7546   4.172   4.721   5.516  0.0506  0.1043  0.2596
   82SOPE   H4Y 7547   4.329   4.793   5.466  0.3856  0.4053 -2.4322
   82SOPE   C35 7548   4.180   4.784   5.307  0.0485  0.1406  0.3076
   82SOPE   H5X 7549   4.070   4.797   5.301 -0.2742 -2.1591  0.3189
   82SOPE   H5Y 7550   4.195   4.680   5.271 -0.8302 -0.1956  0.8781
   82SOPE   C36 7551   4.241   4.880   5.204  0.4898 -0.3530 -0.0426
   82SOPE   H6X 7552   4.350   4.859   5.197  0.4558 -0.3063 -0.7226
   82SOPE   H6Y 7553   4.226   4.987   5.229  1.3456 -0.2862  0.2495
   82SOPE   C37 7554   4.176   4.862   5.062  0.0754  0.9954 -0.0899
   82SOPE   H7X 7555   4.093   4.934   5.048 -1.7630 -1.0525 -0.2501
   82SOPE   H7Y 7556   4.130   4.761   5.063  1.9245  0.1124 -0.4104
   82SOPE   C38 7557   4.283   4.880   4.949  0.7815 -0.2797 -0.0262
   82SOPE   H8X 7558   4.367   4.808   4.964 -0.8563 -2.6065 -1.2421
   82SOPE   H8Y 7559   4.317   4.985   4.943 -2.5732  0.8755 -0.6316
   82SOPE   C39 7560   4.214   4.843   4.822  0.4666 -0.1824 -0.3576
   82SOPE   H9X 7561   4.113   4.889   4.821  1.2877  1.8583  1.5354
   82SOPE   H9Y 7562   4.185   4.736   4.823 -1.1112  0.1684 -2.1583
   82SOPE  C310 7563   4.293   4.873   4.694  0.3075  0.0217 -0.9621
   82SOPE  H10X 7564   4.398   4.836   4.701 -0.0753 -1.3439 -2.0400
   82SOPE  H10Y 7565   4.298   4.983   4.676  1.7271  0.5981  2.2013
   82SOPE  C311 7566   4.232   4.805   4.572 -0.1013 -0.4520 -0.2189
   82SOPE  H11X 7567   4.128   4.843   4.581  0.2203 -0.0295  2.4633
   82SOPE  H11Y 7568   4.223   4.696   4.591 -1.9960 -0.3241 -0.1718
   82SOPE  C312 7569   4.292   4.834   4.440 -0.0368 -0.0320 -0.6794
   82SOPE  H12X 7570   4.399   4.803   4.438  0.0946  0.3383  0.2567
   82SOPE  H12Y 7571   4.284   4.942   4.417  1.5853  0.2595 -0.0144
   82SOPE  C313 7572   4.216   4.768   4.315  0.5042  0.0309 -0.4748
   82SOPE  H13X 7573   4.112   4.807   4.319  0.6580  0.3546  1.9215
   82SOPE  H13Y 7574   4.215   4.660   4.342  1.9265  0.5161  1.8477
   82SOPE  C314 7575   4.267   4.807   4.183  0.0233  0.3288  0.6785
   82SOPE  H14X 7576   4.369   4.763   4.190 -1.2112 -2.8204  0.4155
   82SOPE  H14Y 7577   4.282   4.917   4.185  1.7734  0.1171  1.2850
   82SOPE  C315 7578   4.192   4.758   4.062 -0.4292 -0.6228 -0.0379
   82SOPE  H15X 7579   4.090   4.799   4.045 -0.6456 -1.2253 -0.2238
   82SOPE  H15Y 7580   4.170   4.651   4.084  1.9863 -1.3783 -0.9480
   82SOPE  C316 7581   4.290   4.763   3.939 -0.6455 -0.3987  0.3055
   82SOPE  H16X 7582   4.391   4.804   3.960 -0.8960 -0.3715  1.5392
   82SOPE  H16Y 7583   4.249   4.823   3.855  2.5784 -1.1600 -1.9746
   82SOPE  C317 7584   4.317   4.624   3.888 -0.4194  1.1061 -0.2235
   82SOPE  H17X 7585   4.346   4.551   3.966 -1.5687  1.6226  0.7137
   82SOPE  H17Y 7586   4.391   4.639   3.806  1.3552  0.3487  1.1608
   82SOPE  C318 7587   4.196   4.553   3.820 -0.4461 -0.5378 -0.1983
   82SOPE  H18X 7588   4.225   4.452   3.785 -1.0902 -0.7889 -0.0339
   82SOPE  H18Y 7589   4.173   4.618   3.732  1.4112  1.9600  1.0326
   82SOPE  H18Z 7590   4.101   4.552   3.878 -0.0403 -0.8882  0.4588
   83SOPE     N 7591   3.063   5.286   1.879  0.4201  0.1056  0.6078
   83SOPE   HN1 7592   2.986   5.227   1.840  0.1986 -0.3799  1.7199
   83SOPE   HN2 7593   3.141   5.294   1.811 -0.1519 -0.9668 -0.2017
   83SOPE   HN3 7594   3.096   5.237   1.965 -2.1604 -2.3782  0.3143
   83SOPE   C12 7595   3.020   5.425   1.911  0.4192 -0.0551  0.1076
   83SOPE  H12A 7596   2.972   5.482   1.828 -0.4484  0.5820  1.0241
   83SOPE  H12B 7597   3.112   5.476   1.947  0.5575  0.1211 -0.4849
   83SOPE   C11 7598   2.920   5.424   2.033 -0.1713 -0.0713  0.0038
   83SOPE  H11A 7599   2.895   5.531   2.051  1.7779  0.1952  1.4892
   83SOPE  H11B 7600   2.976   5.385   2.120 -1.9497  0.3127  1.3661
   83SOPE     P 7601   2.663   5.391   1.991  0.0305 -0.2196 -0.4166
   83SOPE   O13 7602   2.604   5.291   1.900 -0.3919  0.2336  0.3006
   83SOPE   O14 7603   2.654   5.533   1.954 -0.2898 -0.4705  0.0784
   83SOPE   O12 7604   2.811   5.342   2.014  0.2663 -0.8914 -0.8142
   83SOPE   O11 7605   2.587   5.367   2.129 -0.0760 -0.1191 -0.2891
   83SOPE    C1 7606   2.626   5.286   2.246  0.0120 -0.3842  0.4454
   83SOPE    HA 7607   2.688   5.196   2.226  1.0585 -0.1212  2.3402
   83SOPE    HB 7608   2.539   5.242   2.301 -0.7438 -0.3148 -0.6563
   83SOPE    C2 7609   2.702   5.375   2.351  0.7970  0.2218 -0.2113
   83SOPE    HS 7610   2.797   5.404   2.303  0.7436  1.4769  0.4184
   83SOPE   O21 7611   2.720   5.308   2.477 -0.2271 -0.4449  0.3020
   83SOPE   C21 7612   2.820   5.224   2.487 -0.0725  0.1015  0.1553
   83SOPE   O22 7613   2.898   5.195   2.395 -0.9309  0.7657 -0.2124
   83SOPE   C22 7614   2.835   5.183   2.632  0.5714  0.6353  0.3380
   83SOPE   H2R 7615   2.798   5.259   2.705  0.9765  1.3503 -0.1896
   83SOPE   H2S 7616   2.941   5.166   2.657  0.4750  1.1001  1.1148
   83SOPE    C3 7617   2.631   5.504   2.390  0.5560 -0.1524 -0.2434
   83SOPE    HX 7618   2.526   5.475   2.413  0.2157  1.7604  0.7432
   83SOPE    HY 7619   2.613   5.558   2.295 -2.2073 -2.3307 -1.1213
   83SOPE   O31 7620   2.687   5.589   2.491  0.2368  0.0413  0.5467
   83SOPE   C31 7621   2.804   5.653   2.461 -0.2564  0.1178  0.2632
   83SOPE   O32 7622   2.851   5.655   2.349 -0.6086 -0.1104 -0.0350
   83SOPE   C32 7623   2.841   5.717   2.589 -0.0011 -0.6672  0.1095
   83SOPE   H2X 7624   2.859   5.638   2.666  1.1189  1.4401  2.1234
   83SOPE   H2Y 7625   2.763   5.788   2.623  1.4552  0.2039  1.7939
   83SOPE   C23 7626   2.758   5.050   2.646  0.4676 -1.1889 -0.3000
   83SOPE   H3R 7627   2.790   4.980   2.566  0.2973 -1.9322  0.2695
   83SOPE   H3S 7628   2.647   5.056   2.639  0.3058  1.6165  2.5281
   83SOPE   C24 7629   2.794   4.980   2.775 -0.3144  1.2503  0.4012
   83SOPE   H4R 7630   2.740   4.883   2.780 -3.8384  2.8851 -1.7297
   83SOPE   H4S 7631   2.902   4.961   2.791 -0.5971  0.8763  2.0717
   83SOPE   C25 7632   2.747   5.054   2.900 -0.4149  0.2208 -0.1600
   83SOPE   H5R 7633   2.807   5.146   2.913 -0.7469  0.4068  0.0887
   83SOPE   H5S 7634   2.641   5.087   2.899 -1.0028 -1.3881  1.9635
   83SOPE   C26 7635   2.758   4.971   3.032  0.1287 -0.1523  0.0980
   83SOPE   H6R 7636   2.740   4.867   2.997 -0.6943 -1.3082  3.5647
   83SOPE   H6S 7637   2.863   4.982   3.068 -0.1146 -1.9647  1.5316
   83SOPE   C27 7638   2.669   5.023   3.147 -0.7238  0.4060  0.1564
   83SOPE   H7R 7639   2.704   5.128   3.146  1.4085 -0.2309  0.6137
   83SOPE   H7S 7640   2.566   5.019   3.106 -0.2760  2.0426 -1.2369
   83SOPE   C28 7641   2.707   4.955   3.288 -0.5012  0.1988 -0.5928
   83SOPE   H8R 7642   2.673   4.849   3.283  0.3029 -0.1086  0.1881
   83SOPE   H8S 7643   2.814   4.952   3.316 -1.0699 -0.8912  1.6951
   83SOPE   C29 7644   2.638   5.011   3.413  0.2363  0.1722  0.5143
   83SOPE   H91 7645   2.597   5.111   3.393 -1.8890 -1.0335 -1.5789
   83SOPE  C210 7646   2.619   4.951   3.533  0.4973  0.0811  0.0093
   83SOPE  H101 7647   2.574   5.007   3.616  1.6202 -0.9930  1.3878
   83SOPE  C211 7648   2.677   4.817   3.555 -0.1605  0.0179 -0.0243
   83SOPE  H11R 7649   2.710   4.771   3.459 -2.2849 -1.0960 -0.3030
   83SOPE  H11S 7650   2.595   4.747   3.584 -1.3238  1.6945  0.8773
   83SOPE  C212 7651   2.795   4.804   3.656  0.6414 -0.9261 -0.8996
   83SOPE  H12R 7652   2.876   4.874   3.628  0.6714 -1.4432 -2.1916
   83SOPE  H12S 7653   2.845   4.704   3.649  1.5161 -0.6045  0.4764
   83SOPE  C213 7654   2.753   4.821   3.801  0.6440  0.4090  0.3524
   83SOPE  H13R 7655   2.668   4.893   3.810  3.0454  3.6615 -0.9055
   83SOPE  H13S 7656   2.849   4.845   3.850  1.7660 -1.3960 -0.8605
   83SOPE  C214 7657   2.703   4.685   3.852 -0.2413 -0.1918 -0.0846
   83SOPE  H14R 7658   2.779   4.618   3.807  1.2041  1.2034  0.2000
   83SOPE  H14S 7659   2.604   4.653   3.813 -0.7699  0.6851  0.4820
   83SOPE  C215 7660   2.703   4.666   4.002 -0.2128  1.0675  0.5402
   83SOPE  H15R 7661   2.636   4.732   4.061  0.0566 -0.0727  2.1753
   83SOPE  H15S 7662   2.803   4.698   4.040  0.3765  0.5352 -0.5014
   83SOPE  C216 7663   2.685   4.521   4.060 -0.0450  0.3986 -0.0736
   83SOPE  H16R 7664   2.775   4.473   4.015  0.5789  1.6419 -0.2169
   83SOPE  H16S 7665   2.600   4.471   4.010  2.2238 -2.5921 -1.2343
   83SOPE  C217 7666   2.681   4.509   4.211  0.9266 -0.1346 -0.2088
   83SOPE  H17R 7667   2.593   4.569   4.242 -0.5160 -1.7119 -1.0870
   83SOPE  H17S 7668   2.768   4.568   4.247  0.8290 -0.3501  0.3857
   83SOPE  C218 7669   2.659   4.376   4.271 -0.1702  0.7093  0.3566
   83SOPE  H18R 7670   2.748   4.325   4.228  0.2090  3.1667 -2.1026
   83SOPE  H18S 7671   2.562   4.333   4.237 -0.1300 -0.1377  1.2542
   83SOPE  H18T 7672   2.662   4.382   4.381  1.4437  0.1110  0.3684
   83SOPE   C33 7673   2.973   5.793   2.577 -0.1616 -0.3235 -0.2096
   83SOPE   H3X 7674   2.975   5.859   2.488 -1.1989 -0.1986 -0.1454
   83SOPE   H3Y 7675   3.057   5.722   2.558 -0.8209 -1.1786  0.0004
   83SOPE   C34 7676   3.004   5.882   2.699  0.6306  0.8860 -0.7679
   83SOPE   H4X 7677   2.935   5.969   2.685 -3.6161 -2.0220  0.2197
   83SOPE   H4Y 7678   3.110   5.912   2.695  0.3895  2.2604  1.3920
   83SOPE   C35 7679   2.969   5.821   2.836  0.2141  0.4828 -0.0729
   83SOPE   H5X 7680   2.970   5.710   2.833 -1.1755  0.4574 -0.0770
   83SOPE   H5Y 7681   2.864   5.845   2.861  0.5313 -1.2877  3.5403
   83SOPE   C36 7682   3.043   5.875   2.954  0.3862 -0.5786 -0.0223
   83SOPE   H6X 7683   3.033   5.986   2.955 -0.7162 -0.6540 -0.4170
   83SOPE   H6Y 7684   3.150   5.852   2.940 -0.0675 -1.7041 -2.0228
   83SOPE   C37 7685   3.004   5.813   3.094 -0.7126 -0.2135 -0.3225
   83SOPE   H7X 7686   3.013   5.702   3.093 -1.1495 -0.2965  1.7742
   83SOPE   H7Y 7687   2.900   5.844   3.120 -0.5779 -0.0365  0.0081
   83SOPE   C38 7688   3.092   5.872   3.208  0.0893 -0.1536  0.0615
   83SOPE   H8X 7689   3.095   5.981   3.186 -0.3979 -0.3475 -1.0021
   83SOPE   H8Y 7690   3.200   5.847   3.202 -0.0887 -0.7921 -0.4731
   83SOPE   C39 7691   3.055   5.830   3.354  0.2379 -0.6655 -0.6381
   83SOPE   H9X 7692   3.078   5.723   3.372 -0.4494 -0.3762  2.4592
   83SOPE   H9Y 7693   2.944   5.832   3.357  0.0431  2.3369 -3.6715
   83SOPE  C310 7694   3.115   5.908   3.467  0.1157 -0.3039 -0.7354
   83SOPE  H10X 7695   3.059   6.002   3.483  2.8278  1.5093 -1.2547
   83SOPE  H10Y 7696   3.222   5.931   3.451  0.7111 -2.3833 -0.0537
   83SOPE  C311 7697   3.094   5.837   3.599 -0.3544  0.0485 -0.6367
   83SOPE  H11X 7698   3.149   5.740   3.594  2.4572  1.3355  1.9232
   83SOPE  H11Y 7699   2.984   5.829   3.609 -0.0973 -2.9080  1.2111
   83SOPE  C312 7700   3.128   5.916   3.727  0.1977 -0.3295 -0.7754
   83SOPE  H12X 7701   3.096   6.020   3.703  1.1676  0.3074  0.5326
   83SOPE  H12Y 7702   3.236   5.928   3.752 -0.2111  2.3813  0.0417
   83SOPE  C313 7703   3.060   5.872   3.856  0.0630 -0.2289 -0.6124
   83SOPE  H13X 7704   2.955   5.848   3.831 -0.2799  2.2872 -1.8561
   83SOPE  H13Y 7705   3.066   5.958   3.926 -0.7541  1.3558 -2.4338
   83SOPE  C314 7706   3.119   5.743   3.913  0.4007 -0.1800 -0.4904
   83SOPE  H14X 7707   3.229   5.727   3.925  0.0143 -3.6711 -0.7342
   83SOPE  H14Y 7708   3.085   5.649   3.865 -1.2632 -0.7199  1.6028
   83SOPE  C315 7709   3.076   5.734   4.061 -0.4437  0.6785  0.1438
   83SOPE  H15X 7710   2.966   5.738   4.074 -0.5699 -2.3720  0.6855
   83SOPE  H15Y 7711   3.115   5.826   4.110 -0.9434  0.4291  1.0388
   83SOPE  C316 7712   3.133   5.605   4.125  0.9276 -1.0366 -0.6208
   83SOPE  H16X 7713   3.243   5.614   4.122  0.8807 -0.5474 -2.0051
   83SOPE  H16Y 7714   3.098   5.520   4.063 -1.1829  0.4045 -1.5499
   83SOPE  C317 7715   3.090   5.590   4.271 -0.0800  1.1024 -0.1891
   83SOPE  H17X 7716   2.982   5.607   4.291 -0.1553 -1.7467  2.5892
   83SOPE  H17Y 7717   3.138   5.671   4.329  0.6100 -1.0449  2.4016
   83SOPE  C318 7718   3.125   5.450   4.337 -0.7538  0.1362 -0.3056
   83SOPE  H18X 7719   3.043   5.384   4.301 -0.2634  0.8288 -2.8873
   83SOPE  H18Y 7720   3.121   5.459   4.448  3.1994  0.0589 -0.0333
   83SOPE  H18Z 7721   3.225   5.421   4.298 -0.6914 -0.5730  0.3579
   84SOPE     N 7722   3.718   3.663   1.746 -0.4067  0.1949  0.0934
   84SOPE   HN1 7723   3.659   3.726   1.805 -0.4034  0.3360 -0.0525
   84SOPE   HN2 7724   3.718   3.568   1.787  0.3108  0.5544  0.9589
   84SOPE   HN3 7725   3.815   3.699   1.742 -0.8955  1.5734 -0.0547
   84SOPE   C12 7726   3.657   3.649   1.606 -0.4613  0.3135 -0.7363
   84SOPE  H12A 7727   3.720   3.578   1.548  1.3878  0.4176  1.0098
   84SOPE  H12B 7728   3.655   3.750   1.559 -0.8696  1.7000  2.0465
   84SOPE   C11 7729   3.518   3.598   1.625  0.1387  0.3262  0.4900
   84SOPE  H11A 7730   3.467   3.598   1.526  0.2439 -0.2400  0.4296
   84SOPE  H11B 7731   3.456   3.676   1.674 -0.5615 -1.5563  2.7790
   84SOPE     P 7732   3.384   3.385   1.691 -0.0179  0.2280 -0.5083
   84SOPE   O13 7733   3.407   3.258   1.775 -0.0525 -0.3511 -0.1683
   84SOPE   O14 7734   3.331   3.368   1.552  0.2001  0.2259 -0.3221
   84SOPE   O12 7735   3.517   3.469   1.684  0.2435 -0.0658 -0.1180
   84SOPE   O11 7736   3.284   3.481   1.770  0.8442  0.8055  0.5083
   84SOPE    C1 7737   3.313   3.524   1.900 -0.1115 -0.8472  0.5507
   84SOPE    HA 7738   3.318   3.635   1.896  1.7258 -0.9380 -2.0020
   84SOPE    HB 7739   3.416   3.502   1.934  0.9391  3.5845  0.8888
   84SOPE    C2 7740   3.218   3.482   2.016  0.1280  0.3696 -0.2224
   84SOPE    HS 7741   3.222   3.558   2.097  0.3895  0.9387 -0.7604
   84SOPE   O21 7742   3.280   3.351   2.053  0.3718  0.0182  0.0242
   84SOPE   C21 7743   3.365   3.363   2.148 -0.3332 -0.0576  0.0630
   84SOPE   O22 7744   3.421   3.467   2.179  0.4310  0.1553 -0.6502
   84SOPE   C22 7745   3.388   3.229   2.223  0.1105 -0.8686  1.0852
   84SOPE   H2R 7746   3.484   3.249   2.275  1.9412 -0.5324 -2.1804
   84SOPE   H2S 7747   3.402   3.149   2.147  1.7788  1.2217 -0.9387
   84SOPE    C3 7748   3.071   3.457   1.965 -0.3854 -0.0246  0.5750
   84SOPE    HX 7749   3.083   3.402   1.870 -0.6970  2.9532 -1.3350
   84SOPE    HY 7750   3.019   3.551   1.935 -2.4195 -1.2728  0.0004
   84SOPE   O31 7751   2.997   3.382   2.060  0.2831  0.2933  0.5809
   84SOPE   C31 7752   2.937   3.448   2.152  0.4140 -1.0685  0.5778
   84SOPE   O32 7753   2.938   3.573   2.171 -0.4135  0.0895 -0.2078
   84SOPE   C32 7754   2.870   3.352   2.248  0.2530  1.0532  0.2072
   84SOPE   H2X 7755   2.894   3.245   2.226 -1.8760  0.1251  1.9983
   84SOPE   H2Y 7756   2.761   3.350   2.229  0.0214  2.4677  1.3013
   84SOPE   C23 7757   3.283   3.190   2.326  0.4319 -0.9148  0.2007
   84SOPE   H3R 7758   3.295   3.080   2.337  0.3055 -1.3194 -2.8987
   84SOPE   H3S 7759   3.179   3.222   2.304  0.0139 -0.8088  2.1204
   84SOPE   C24 7760   3.324   3.249   2.460 -0.1114  0.0246  0.2210
   84SOPE   H4R 7761   3.355   3.355   2.444 -0.9517  0.5601  1.9566
   84SOPE   H4S 7762   3.242   3.258   2.534  0.2452 -3.2363  1.1587
   84SOPE   C25 7763   3.429   3.161   2.538 -0.2430  0.0898  0.2113
   84SOPE   H5R 7764   3.368   3.082   2.588 -1.6271 -0.3918 -2.0919
   84SOPE   H5S 7765   3.493   3.124   2.455  0.8676 -0.3247  1.2081
   84SOPE   C26 7766   3.515   3.241   2.635 -0.5862 -0.2487  0.3634
   84SOPE   H6R 7767   3.586   3.166   2.676  1.3123  1.9309  1.2646
   84SOPE   H6S 7768   3.565   3.313   2.567  1.2848 -1.5629  0.2579
   84SOPE   C27 7769   3.444   3.311   2.748  0.4771 -0.5313 -0.1616
   84SOPE   H7R 7770   3.376   3.386   2.701 -0.0867 -0.3256  0.9716
   84SOPE   H7S 7771   3.390   3.243   2.816  0.8210  0.8048  1.5060
   84SOPE   C28 7772   3.554   3.389   2.836 -0.2113  0.8735  1.4255
   84SOPE   H8R 7773   3.633   3.316   2.865  1.0679  0.9083 -1.5259
   84SOPE   H8S 7774   3.607   3.464   2.772  0.6847  1.0763  2.3764
   84SOPE   C29 7775   3.488   3.462   2.954 -0.1571 -0.1057  0.7503
   84SOPE   H91 7776   3.453   3.565   2.933 -1.4924 -0.8456 -0.8764
   84SOPE  C210 7777   3.469   3.414   3.081  0.5669  0.3043 -0.3330
   84SOPE  H101 7778   3.410   3.461   3.160  1.1316  0.1137  0.2122
   84SOPE  C211 7779   3.512   3.273   3.129 -0.5001  0.4417 -0.3326
   84SOPE  H11R 7780   3.550   3.204   3.050 -1.0419  0.5390 -0.6834
   84SOPE  H11S 7781   3.437   3.205   3.175  0.7578  0.8501  2.5185
   84SOPE  C212 7782   3.615   3.286   3.239  0.0675  0.0022  0.5563
   84SOPE  H12R 7783   3.692   3.361   3.210 -1.3363  1.9623  1.6515
   84SOPE  H12S 7784   3.670   3.190   3.252  0.2305  0.0386  0.1439
   84SOPE  C213 7785   3.548   3.338   3.369  0.0500 -0.1329 -0.0061
   84SOPE  H13R 7786   3.458   3.281   3.401  1.0399 -1.3037  0.7805
   84SOPE  H13S 7787   3.516   3.444   3.354 -1.3909 -0.4803  0.5297
   84SOPE  C214 7788   3.646   3.315   3.492  0.0061 -0.0512  0.5928
   84SOPE  H14R 7789   3.628   3.386   3.576 -1.2540  0.1224  0.2079
   84SOPE  H14S 7790   3.748   3.344   3.459  0.3684 -0.9320  0.9192
   84SOPE  C215 7791   3.652   3.174   3.548  0.0026 -0.1586  1.2837
   84SOPE  H15R 7792   3.687   3.117   3.459  2.7995  1.1550  1.4414
   84SOPE  H15S 7793   3.547   3.146   3.573 -0.0792  0.3935  1.5780
   84SOPE  C216 7794   3.753   3.164   3.665  0.6715 -0.3866  0.3722
   84SOPE  H16R 7795   3.761   3.257   3.724  0.1216 -0.7594  1.0534
   84SOPE  H16S 7796   3.854   3.151   3.622  0.5354 -2.5190  0.5764
   84SOPE  C217 7797   3.727   3.051   3.774  0.5588 -0.0824  0.2371
   84SOPE  H17R 7798   3.803   3.054   3.854  1.1906  0.1948 -0.3617
   84SOPE  H17S 7799   3.756   2.958   3.721 -0.2545 -1.4494  2.0853
   84SOPE  C218 7800   3.588   3.047   3.828 -0.3117 -0.2162 -0.5045
   84SOPE  H18R 7801   3.515   3.016   3.750 -0.5986 -1.4374  0.2119
   84SOPE  H18S 7802   3.561   3.144   3.875  0.5306 -1.4311  2.7147
   84SOPE  H18T 7803   3.580   2.970   3.907 -2.9514  0.0885 -0.3826
   84SOPE   C33 7804   2.891   3.394   2.396  0.1342 -0.0441  0.6317
   84SOPE   H3X 7805   2.833   3.486   2.419 -0.3428 -0.0777 -0.3766
   84SOPE   H3Y 7806   2.999   3.420   2.404 -0.4480  2.0287  3.1382
   84SOPE   C34 7807   2.869   3.278   2.494  0.9085  0.0753 -0.7528
   84SOPE   H4X 7808   2.938   3.195   2.467  1.3200  0.0614  0.2944
   84SOPE   H4Y 7809   2.767   3.236   2.483  0.9084  0.0379 -0.6080
   84SOPE   C35 7810   2.901   3.316   2.641  0.2456 -0.1373  0.1749
   84SOPE   H5X 7811   2.836   3.401   2.672 -0.2667 -1.0147  1.6009
   84SOPE   H5Y 7812   3.012   3.328   2.635  0.3807 -1.4682 -0.4067
   84SOPE   C36 7813   2.880   3.196   2.736 -0.8161 -0.6378  1.6953
   84SOPE   H6X 7814   2.947   3.112   2.709 -0.9031 -0.7456  1.8177
   84SOPE   H6Y 7815   2.773   3.167   2.731 -0.4188 -2.1802 -2.9814
   84SOPE   C37 7816   2.908   3.246   2.879  0.2469  0.1719  0.0945
   84SOPE   H7X 7817   2.844   3.334   2.902 -0.5502  0.5193 -2.9346
   84SOPE   H7Y 7818   3.018   3.258   2.889  0.5551 -2.4856  0.7441
   84SOPE   C38 7819   2.878   3.131   2.981 -0.2328 -0.6726 -0.2706
   84SOPE   H8X 7820   2.934   3.039   2.954  1.8202 -0.0599  1.6192
   84SOPE   H8Y 7821   2.770   3.108   2.976 -0.4638 -0.1802  1.6588
   84SOPE   C39 7822   2.927   3.165   3.129 -0.4635  0.3617  0.5223
   84SOPE   H9X 7823   2.865   3.254   3.154  0.4948  1.1398  0.2163
   84SOPE   H9Y 7824   3.035   3.191   3.121 -0.0228 -1.6111 -0.4030
   84SOPE  C310 7825   2.901   3.045   3.224  0.2675 -0.8174  0.3143
   84SOPE  H10X 7826   2.939   2.954   3.172  0.5652 -0.2392 -0.4847
   84SOPE  H10Y 7827   2.791   3.028   3.227  0.1174 -0.2190 -1.3150
   84SOPE  C311 7828   2.956   3.055   3.364  0.1558 -0.4360  0.1339
   84SOPE  H11X 7829   3.057   3.101   3.358 -0.8818  1.8758 -0.5537
   84SOPE  H11Y 7830   2.955   2.960   3.423 -1.8009  0.0325  0.9538
   84SOPE  C312 7831   2.865   3.154   3.436  0.0650 -0.2002 -0.9765
   84SOPE  H12X 7832   2.762   3.112   3.438  2.0375 -5.8732 -2.0025
   84SOPE  H12Y 7833   2.855   3.250   3.381 -2.0608  1.7552  2.4214
   84SOPE  C313 7834   2.907   3.174   3.584  0.6122  0.0390 -0.1261
   84SOPE  H13X 7835   3.014   3.205   3.586  0.4680  0.7836 -2.2837
   84SOPE  H13Y 7836   2.892   3.081   3.644 -2.2821  0.3751 -0.2386
   84SOPE  C314 7837   2.826   3.290   3.655 -0.5574 -0.5382  0.4799
   84SOPE  H14X 7838   2.864   3.379   3.601  1.0778 -0.8127  1.0964
   84SOPE  H14Y 7839   2.873   3.298   3.756  3.1370 -1.5985 -0.9748
   84SOPE  C315 7840   2.673   3.285   3.662  0.5563  0.0874 -0.2043
   84SOPE  H15X 7841   2.636   3.183   3.638 -2.5793  0.9357  0.5466
   84SOPE  H15Y 7842   2.629   3.354   3.587 -0.6428 -1.5685 -1.0801
   84SOPE  C316 7843   2.614   3.317   3.801  0.2577 -0.0848  0.3299
   84SOPE  H16X 7844   2.639   3.424   3.821 -3.7638  0.8826  1.0955
   84SOPE  H16Y 7845   2.655   3.252   3.881 -1.7642 -2.0660 -0.1707
   84SOPE  C317 7846   2.462   3.305   3.807  0.4053 -0.0935 -0.0516
   84SOPE  H17X 7847   2.435   3.300   3.915  1.2069 -1.1950  0.1142
   84SOPE  H17Y 7848   2.446   3.211   3.752 -0.5295  0.3383 -0.5369
   84SOPE  C318 7849   2.405   3.428   3.730 -0.2733 -0.1655 -0.4446
   84SOPE  H18X 7850   2.417   3.410   3.621  0.2572 -1.3413 -0.2074
   84SOPE  H18Y 7851   2.455   3.522   3.762 -1.3976  0.0978  0.6108
   84SOPE  H18Z 7852   2.297   3.445   3.746 -0.0296  0.8808  0.1938
   85SOPE     N 7853   5.324   5.586   2.348 -0.1598  0.4043  0.3346
   85SOPE   HN1 7854   5.404   5.547   2.293 -0.1366  0.1586  0.5447
   85SOPE   HN2 7855   5.242   5.523   2.350  0.7260 -0.7492  1.0292
   85SOPE   HN3 7856   5.307   5.680   2.306  0.0939  1.3026  2.1141
   85SOPE   C12 7857   5.366   5.610   2.488  0.0255 -0.2708  0.0916
   85SOPE  H12A 7858   5.415   5.515   2.521 -0.1278 -2.2896 -4.7469
   85SOPE  H12B 7859   5.278   5.639   2.550  0.2203  1.0635 -0.2375
   85SOPE   C11 7860   5.469   5.724   2.492 -0.4053 -0.0233  0.3123
   85SOPE  H11A 7861   5.502   5.758   2.593  3.4869  0.0220 -0.8203
   85SOPE  H11B 7862   5.419   5.804   2.434  1.3383 -0.0340 -1.2819
   85SOPE     P 7863   5.711   5.621   2.469 -0.0395  0.1672  0.1742
   85SOPE   O13 7864   5.825   5.675   2.391  0.3824  0.0550 -0.3866
   85SOPE   O14 7865   5.695   5.472   2.464  0.5513 -0.4195  0.4875
   85SOPE   O12 7866   5.583   5.692   2.410 -0.3619  0.8146  0.0572
   85SOPE   O11 7867   5.717   5.681   2.609 -0.7161  0.3562  0.0310
   85SOPE    C1 7868   5.826   5.769   2.649  0.0333  0.6815  0.6199
   85SOPE    HA 7869   5.815   5.870   2.605  0.4973  0.3820 -0.1956
   85SOPE    HB 7870   5.923   5.732   2.608 -0.0272  0.7543  0.4116
   85SOPE    C2 7871   5.834   5.783   2.804  0.0874  0.1928  0.4234
   85SOPE    HS 7872   5.913   5.859   2.823  0.4597 -0.0121 -0.2788
   85SOPE   O21 7873   5.849   5.658   2.870  0.6057  0.2542 -1.0779
   85SOPE   C21 7874   5.974   5.601   2.866  0.3446  0.0393  0.1879
   85SOPE   O22 7875   6.067   5.646   2.798 -0.0103  0.1079 -0.2063
   85SOPE   C22 7876   5.984   5.476   2.947 -0.4004 -0.3265  0.8591
   85SOPE   H2R 7877   6.054   5.403   2.901 -2.2583 -0.8786 -1.3028
   85SOPE   H2S 7878   5.885   5.427   2.944 -0.9476  0.7953 -0.3511
   85SOPE    C3 7879   5.700   5.841   2.851  0.0037  0.0362 -0.3997
   85SOPE    HX 7880   5.619   5.792   2.792 -2.1122 -0.2684  2.5643
   85SOPE    HY 7881   5.711   5.949   2.828  0.7876 -0.1177 -0.7925
   85SOPE   O31 7882   5.670   5.833   2.993  0.6463  0.4594  0.8360
   85SOPE   C31 7883   5.547   5.883   3.017 -0.2880  0.7952 -0.3168
   85SOPE   O32 7884   5.482   5.934   2.929 -0.1231  0.0569 -0.4302
   85SOPE   C32 7885   5.502   5.853   3.165  0.2208 -0.2615 -0.1087
   85SOPE   H2X 7886   5.451   5.754   3.167 -1.0646  0.3380  2.7214
   85SOPE   H2Y 7887   5.420   5.923   3.192 -0.2311 -0.0904 -1.8329
   85SOPE   C23 7888   6.030   5.520   3.090  0.6039  0.3919  0.1777
   85SOPE   H3R 7889   6.137   5.548   3.076  0.7834  0.2374  1.1640
   85SOPE   H3S 7890   6.050   5.426   3.146  0.7227 -0.1262 -0.7098
   85SOPE   C24 7891   5.943   5.609   3.177 -0.0226  0.3667  0.1988
   85SOPE   H4R 7892   5.913   5.700   3.121 -0.0072 -0.1167 -0.6155
   85SOPE   H4S 7893   5.842   5.566   3.190 -0.0409  0.6863  1.1430
   85SOPE   C25 7894   6.016   5.648   3.308 -0.3684  0.4222 -0.4428
   85SOPE   H5R 7895   6.111   5.688   3.267  0.0282  0.3631  0.3933
   85SOPE   H5S 7896   5.955   5.730   3.351 -2.8464 -0.6117 -1.7840
   85SOPE   C26 7897   6.051   5.538   3.413 -0.3710  0.2300 -0.0563
   85SOPE   H6R 7898   6.116   5.457   3.374  0.2070  1.1978 -1.1544
   85SOPE   H6S 7899   6.121   5.600   3.474  1.9206  0.6229 -2.8845
   85SOPE   C27 7900   5.930   5.480   3.476  0.6689  0.8348 -0.7755
   85SOPE   H7R 7901   5.840   5.544   3.484 -1.3740 -2.0048  0.7530
   85SOPE   H7S 7902   5.905   5.395   3.409 -0.6361  0.5809 -0.0081
   85SOPE   C28 7903   5.956   5.417   3.619 -0.2365 -0.7753 -0.9216
   85SOPE   H8R 7904   5.856   5.374   3.643 -0.5243 -0.1527 -0.9645
   85SOPE   H8S 7905   6.030   5.335   3.610  0.3204 -0.4109  0.1792
   85SOPE   C29 7906   6.015   5.521   3.715 -0.0297 -0.2390  0.7974
   85SOPE   H91 7907   6.116   5.565   3.702 -1.1231  2.2301 -0.0086
   85SOPE  C210 7908   5.957   5.560   3.832 -1.0135  0.4836 -0.3035
   85SOPE  H101 7909   6.010   5.630   3.899 -0.0750 -1.1210  0.6842
   85SOPE  C211 7910   5.816   5.521   3.876 -0.5655 -0.6460 -0.6721
   85SOPE  H11R 7911   5.757   5.457   3.807 -0.1652 -2.6761  0.7563
   85SOPE  H11S 7912   5.757   5.614   3.872 -0.1794 -0.3966 -0.6235
   85SOPE  C212 7913   5.815   5.462   4.019  0.0998  0.3110  0.7412
   85SOPE  H12R 7914   5.870   5.532   4.086 -0.5112 -0.0004  1.5729
   85SOPE  H12S 7915   5.859   5.360   4.018 -1.1888 -0.2633  0.5876
   85SOPE  C213 7916   5.678   5.451   4.074  0.1378  0.2455 -0.0362
   85SOPE  H13R 7917   5.614   5.403   3.996  0.7952 -0.1473 -0.3415
   85SOPE  H13S 7918   5.633   5.552   4.084  1.8378  0.9907  0.4250
   85SOPE  C214 7919   5.654   5.379   4.209 -0.2221 -0.5037  0.2566
   85SOPE  H14R 7920   5.688   5.274   4.197 -1.4684 -1.1084  1.7088
   85SOPE  H14S 7921   5.545   5.372   4.229  0.4154 -2.7916  4.0914
   85SOPE  C215 7922   5.744   5.448   4.324  0.7548  1.3097 -0.1104
   85SOPE  H15R 7923   5.736   5.558   4.337 -1.4116  1.3376 -1.2840
   85SOPE  H15S 7924   5.849   5.414   4.310  1.2149  2.5823  0.1690
   85SOPE  C216 7925   5.698   5.399   4.464 -0.5774 -0.1512 -0.0327
   85SOPE  H16R 7926   5.709   5.288   4.463 -0.9135 -0.1829 -1.2393
   85SOPE  H16S 7927   5.592   5.423   4.483 -0.6682 -0.2568 -0.4054
   85SOPE  C217 7928   5.790   5.461   4.571  0.2352 -0.6215  0.3631
   85SOPE  H17R 7929   5.758   5.568   4.565  2.1446 -0.0828 -1.2257
   85SOPE  H17S 7930   5.899   5.443   4.560  0.3592 -1.2664  2.2526
   85SOPE  C218 7931   5.759   5.413   4.707  0.1906  0.3706  0.5252
   85SOPE  H18R 7932   5.762   5.301   4.708  0.2088  0.3464 -0.7306
   85SOPE  H18S 7933   5.654   5.440   4.729  0.2533  0.7262  0.3813
   85SOPE  H18T 7934   5.818   5.457   4.791  1.4574 -0.6445  0.2025
   85SOPE   C33 7935   5.623   5.848   3.268  0.6831 -0.1814 -0.1702
   85SOPE   H3X 7936   5.669   5.949   3.275 -0.2053  0.4541 -2.3983
   85SOPE   H3Y 7937   5.699   5.774   3.237 -1.1773 -1.7658 -1.2071
   85SOPE   C34 7938   5.579   5.792   3.400 -0.0408  0.5720 -0.3930
   85SOPE   H4X 7939   5.572   5.681   3.405 -0.9511  0.6676  3.4648
   85SOPE   H4Y 7940   5.474   5.820   3.418  0.7389  1.8719  2.6930
   85SOPE   C35 7941   5.665   5.823   3.526 -0.3668  0.0510 -0.0507
   85SOPE   H5X 7942   5.680   5.933   3.531  0.4568  0.0159 -1.2475
   85SOPE   H5Y 7943   5.769   5.785   3.519 -0.4126  0.1240 -1.4497
   85SOPE   C36 7944   5.610   5.788   3.659 -0.4381  0.3812 -0.1093
   85SOPE   H6X 7945   5.685   5.820   3.734 -0.2916 -0.4438  0.1129
   85SOPE   H6Y 7946   5.621   5.677   3.669  0.1197  0.5504  1.5668
   85SOPE   C37 7947   5.471   5.839   3.691  0.3859  0.2252  0.7497
   85SOPE   H7X 7948   5.391   5.795   3.627 -0.6747  0.3524  1.9308
   85SOPE   H7Y 7949   5.463   5.948   3.675  3.1337  0.1268 -2.0923
   85SOPE   C38 7950   5.429   5.796   3.832  0.5669 -0.3490  0.3001
   85SOPE   H8X 7951   5.357   5.871   3.868  0.3903 -0.2946 -0.1547
   85SOPE   H8Y 7952   5.519   5.802   3.898  1.0495  1.0060 -0.4316
   85SOPE   C39 7953   5.356   5.657   3.841  1.0395  0.3322 -1.2730
   85SOPE   H9X 7954   5.420   5.571   3.812 -0.7658 -0.6329 -2.6133
   85SOPE   H9Y 7955   5.292   5.669   3.751 -0.3872 -0.7756 -0.4346
   85SOPE  C310 7956   5.261   5.636   3.958 -0.4562 -0.3999 -0.7154
   85SOPE  H10X 7957   5.219   5.734   3.987  0.3728 -0.4626  0.7912
   85SOPE  H10Y 7958   5.320   5.598   4.043 -1.6163 -0.7006 -0.0241
   85SOPE  C311 7959   5.154   5.525   3.935 -0.3829  0.3780 -0.1429
   85SOPE  H11X 7960   5.100   5.535   3.839 -0.5612  2.9723  0.1394
   85SOPE  H11Y 7961   5.082   5.554   4.015 -0.8605  1.1967 -0.8557
   85SOPE  C312 7962   5.215   5.380   3.947  0.0392  0.0619  0.1529
   85SOPE  H12X 7963   5.264   5.363   4.046  1.9295 -1.2507 -0.9527
   85SOPE  H12Y 7964   5.297   5.371   3.873 -0.7174 -0.1524 -0.6756
   85SOPE  C313 7965   5.108   5.264   3.928 -0.5343 -0.1259  0.3150
   85SOPE  H13X 7966   5.169   5.173   3.910  1.0368  0.7695  0.9535
   85SOPE  H13Y 7967   5.058   5.284   3.830  1.3842 -0.1415 -0.7164
   85SOPE  C314 7968   5.006   5.253   4.035 -0.1026 -0.0714 -0.1890
   85SOPE  H14X 7969   4.949   5.344   4.062  0.6289 -0.2826  2.3353
   85SOPE  H14Y 7970   5.064   5.232   4.127  0.5213 -3.2279 -1.1590
   85SOPE  C315 7971   4.927   5.125   4.011  0.3868 -0.7064  0.5007
   85SOPE  H15X 7972   4.873   5.109   4.107 -1.5822  1.1421 -0.2228
   85SOPE  H15Y 7973   5.002   5.043   4.000  0.6832 -0.0603 -4.4975
   85SOPE  C316 7974   4.819   5.126   3.903 -0.4292 -0.0314 -0.2753
   85SOPE  H16X 7975   4.775   5.228   3.892 -1.6491 -0.5426 -0.3435
   85SOPE  H16Y 7976   4.741   5.056   3.941  1.1761 -0.6227  2.2073
   85SOPE  C317 7977   4.867   5.069   3.777 -0.3857  0.2156  0.3336
   85SOPE  H17X 7978   4.921   4.976   3.802 -0.5543  0.1449  0.4371
   85SOPE  H17Y 7979   4.930   5.144   3.725 -0.6470 -1.3282 -2.3863
   85SOPE  C318 7980   4.756   5.052   3.667  0.1189  1.0185  0.0869
   85SOPE  H18X 7981   4.804   4.996   3.585  2.2508  2.1278  0.5004
   85SOPE  H18Y 7982   4.715   5.148   3.629 -1.0229  0.2714 -0.6120
   85SOPE  H18Z 7983   4.668   4.994   3.703  0.8036 -0.3901 -0.4222
   86SOPE     N 7984   0.405   1.161   2.222  0.6498 -0.0840  0.1472
   86SOPE   HN1 7985   0.450   1.068   2.228  0.6689 -0.2074 -1.4462
   86SOPE   HN2 7986   0.354   1.179   2.311 -0.2025 -0.8309 -0.1719
   86SOPE   HN3 7987   0.330   1.149   2.150  0.3177 -1.4508  0.6999
   86SOPE   C12 7988   0.507   1.267   2.198  0.7002 -0.5496  0.3761
   86SOPE  H12A 7989   0.551   1.278   2.300 -2.7294  0.2153  1.9192
   86SOPE  H12B 7990   0.447   1.359   2.184 -1.0413 -1.2360  2.6236
   86SOPE   C11 7991   0.612   1.235   2.100 -0.6545 -0.2608  0.5815
   86SOPE  H11A 7992   0.673   1.326   2.083  0.4097 -0.3742  3.3077
   86SOPE  H11B 7993   0.579   1.208   1.998  1.4840 -0.6345 -0.0548
   86SOPE     P 7994   0.821   1.160   2.244  0.1676  0.1931 -0.3320
   86SOPE   O13 7995   0.868   1.296   2.226  0.3282  0.2387 -0.3762
   86SOPE   O14 7996   0.926   1.057   2.239 -0.2989 -0.4594  0.1524
   86SOPE   O12 7997   0.701   1.131   2.140  0.2145  0.1627  0.2468
   86SOPE   O11 7998   0.743   1.140   2.382 -0.0223 -0.4008 -0.1850
   86SOPE    C1 7999   0.742   1.024   2.455 -0.1384 -0.4727  0.9652
   86SOPE    HA 8000   0.844   0.994   2.488 -0.4364 -1.5698  0.9378
   86SOPE    HB 8001   0.693   0.948   2.390  0.0614  3.5728 -4.7033
   86SOPE    C2 8002   0.666   1.050   2.593 -0.1539  0.2918 -0.3987
   86SOPE    HS 8003   0.560   1.045   2.563 -0.3802 -0.6722  0.4976
   86SOPE   O21 8004   0.713   1.170   2.645 -0.0973 -0.7554  0.4668
   86SOPE   C21 8005   0.623   1.250   2.704 -0.0915  0.5703 -0.0624
   86SOPE   O22 8006   0.505   1.224   2.716 -0.1183  0.4180 -0.4427
   86SOPE   C22 8007   0.682   1.386   2.755  0.7231 -0.2775  0.1505
   86SOPE   H2R 8008   0.602   1.423   2.823 -0.1936  1.5816 -1.7878
   86SOPE   H2S 8009   0.682   1.464   2.675 -0.6781  1.2158  1.5332
   86SOPE    C3 8010   0.695   0.936   2.691 -0.0625 -0.6203  0.5053
   86SOPE    HX 8011   0.802   0.943   2.718 -0.3147  4.4750  1.0955
   86SOPE    HY 8012   0.674   0.845   2.631  0.6931  1.1881 -2.7139
   86SOPE   O31 8013   0.604   0.935   2.808 -0.5303  0.7384  0.0416
   86SOPE   C31 8014   0.482   0.875   2.793  0.0801 -0.0317  0.1065
   86SOPE   O32 8015   0.445   0.809   2.693  0.0976  0.2517  0.3713
   86SOPE   C32 8016   0.408   0.903   2.932 -0.3028 -0.5848  0.7788
   86SOPE   H2X 8017   0.368   1.007   2.933  1.7340  0.2835  2.8646
   86SOPE   H2Y 8018   0.492   0.907   3.005  0.8251 -1.7891 -0.3922
   86SOPE   C23 8019   0.818   1.382   2.822 -0.6729 -0.0870  0.0593
   86SOPE   H3R 8020   0.840   1.476   2.877 -1.1385  1.2111 -1.8548
   86SOPE   H3S 8021   0.893   1.371   2.741 -0.4524 -0.6666  0.3379
   86SOPE   C24 8022   0.833   1.256   2.903  0.9198  0.4089  0.0540
   86SOPE   H4R 8023   0.827   1.170   2.832  1.1371 -0.0064  0.5329
   86SOPE   H4S 8024   0.937   1.269   2.941  1.0974  1.2879 -0.7011
   86SOPE   C25 8025   0.739   1.239   3.024  0.1373 -0.0382 -0.1445
   86SOPE   H5R 8026   0.738   1.337   3.076  0.0064 -0.2866  0.3301
   86SOPE   H5S 8027   0.636   1.217   2.988 -0.5517  1.5971  0.7205
   86SOPE   C26 8028   0.781   1.128   3.124 -0.1677  0.0316  0.4853
   86SOPE   H6R 8029   0.807   1.039   3.063  0.6561  0.8045 -0.3187
   86SOPE   H6S 8030   0.882   1.144   3.168 -1.0405  0.3014  2.5300
   86SOPE   C27 8031   0.682   1.082   3.234 -0.1418 -0.0747 -0.1903
   86SOPE   H7R 8032   0.646   1.167   3.295  0.6351  1.3030 -1.5808
   86SOPE   H7S 8033   0.589   1.043   3.188 -1.4669  1.3757  1.1167
   86SOPE   C28 8034   0.746   0.978   3.328  0.2991 -0.5799 -0.0329
   86SOPE   H8R 8035   0.661   0.942   3.388  0.5473  0.0739  0.7296
   86SOPE   H8S 8036   0.775   0.886   3.273  0.0993 -1.7464  1.7586
   86SOPE   C29 8037   0.860   1.041   3.413 -0.4226 -0.1017  0.2499
   86SOPE   H91 8038   0.955   1.068   3.365 -0.0504 -0.7367  0.6265
   86SOPE  C210 8039   0.854   1.073   3.545  0.0882 -0.6290 -0.7026
   86SOPE  H101 8040   0.928   1.135   3.599 -2.1026  0.3467  1.3323
   86SOPE  C211 8041   0.731   1.056   3.631 -0.2708  0.2299  0.6411
   86SOPE  H11R 8042   0.713   0.946   3.637 -1.2904  0.2549 -1.1420
   86SOPE  H11S 8043   0.643   1.107   3.586  0.5811  0.9413 -0.2650
   86SOPE  C212 8044   0.745   1.109   3.777  0.1976  0.5397 -0.3585
   86SOPE  H12R 8045   0.733   1.219   3.785  0.9219  0.5287  1.4950
   86SOPE  H12S 8046   0.840   1.080   3.827 -1.4409 -1.0685  2.0896
   86SOPE  C213 8047   0.644   1.048   3.874 -0.0688  0.1953 -0.4303
   86SOPE  H13R 8048   0.659   0.939   3.890 -1.9344 -0.3379 -2.0040
   86SOPE  H13S 8049   0.540   1.059   3.835 -0.1840  0.8762  0.0424
   86SOPE  C214 8050   0.639   1.115   4.013 -0.5072 -0.3298 -0.3353
   86SOPE  H14R 8051   0.624   1.224   4.002  1.3432 -0.1340 -1.4799
   86SOPE  H14S 8052   0.740   1.107   4.059  0.0883 -0.5740 -1.6340
   86SOPE  C215 8053   0.517   1.067   4.099 -0.5056 -0.0750 -0.8566
   86SOPE  H15R 8054   0.523   0.957   4.088 -2.5913 -0.4770  1.3867
   86SOPE  H15S 8055   0.431   1.100   4.037  0.7147  0.6868 -2.2159
   86SOPE  C216 8056   0.511   1.115   4.247 -0.1524  0.2485  0.3883
   86SOPE  H16R 8057   0.489   1.222   4.231 -0.1812 -0.0681 -2.0734
   86SOPE  H16S 8058   0.597   1.099   4.316  0.1456 -0.6716 -0.1752
   86SOPE  C217 8059   0.389   1.046   4.323  0.9133 -0.8430 -0.6609
   86SOPE  H17R 8060   0.404   0.936   4.326  0.3006 -0.9129  1.1392
   86SOPE  H17S 8061   0.305   1.065   4.253  1.4349 -1.7269 -1.5659
   86SOPE  C218 8062   0.357   1.100   4.460  0.3344  0.1665 -0.7119
   86SOPE  H18R 8063   0.273   1.040   4.501  0.8778  0.3812  0.7567
   86SOPE  H18S 8064   0.325   1.206   4.454  0.6489  0.4153  1.3935
   86SOPE  H18T 8065   0.440   1.109   4.533 -0.3778 -1.1178  0.3078
   86SOPE   C33 8066   0.310   0.791   2.969  0.6157 -0.5337 -0.2022
   86SOPE   H3X 8067   0.357   0.692   2.956 -0.3220 -0.9517 -0.4435
   86SOPE   H3Y 8068   0.222   0.803   2.903  0.8170 -0.1280 -0.4036
   86SOPE   C34 8069   0.263   0.821   3.112 -0.6913 -0.4198 -0.2613
   86SOPE   H4X 8070   0.163   0.775   3.126 -0.5787 -0.6854 -0.3082
   86SOPE   H4Y 8071   0.250   0.930   3.123  1.8200 -0.1723  1.0897
   86SOPE   C35 8072   0.364   0.761   3.208  0.3983 -0.0760 -0.0027
   86SOPE   H5X 8073   0.468   0.790   3.179  0.4862 -1.3400 -1.0451
   86SOPE   H5Y 8074   0.352   0.651   3.206 -0.7058  0.0175  0.6333
   86SOPE   C36 8075   0.337   0.821   3.353 -0.6031 -0.1119  0.6336
   86SOPE   H6X 8076   0.227   0.805   3.354 -0.3000 -2.5658  0.2337
   86SOPE   H6Y 8077   0.363   0.929   3.348  0.2020 -0.3373 -0.5654
   86SOPE   C37 8078   0.404   0.749   3.463  0.2859 -0.1403 -0.1569
   86SOPE   H7X 8079   0.506   0.790   3.479  0.4380 -0.5935  0.0536
   86SOPE   H7Y 8080   0.420   0.641   3.442  1.9798 -0.2035  1.2095
   86SOPE   C38 8081   0.336   0.774   3.599  0.6947 -0.5955  0.1694
   86SOPE   H8X 8082   0.229   0.744   3.597 -0.5725  3.3829 -0.0057
   86SOPE   H8Y 8083   0.312   0.881   3.612 -0.8616 -0.3253 -3.6424
   86SOPE   C39 8084   0.409   0.720   3.713 -0.0664 -0.5344  0.5962
   86SOPE   H9X 8085   0.502   0.777   3.735  0.7820 -2.2076  1.4799
   86SOPE   H9Y 8086   0.438   0.613   3.702  1.4933 -0.1691  0.8270
   86SOPE  C310 8087   0.333   0.733   3.842 -0.2034 -0.0602  0.0663
   86SOPE  H10X 8088   0.247   0.663   3.838  0.3532 -0.8483  1.2760
   86SOPE  H10Y 8089   0.293   0.835   3.862 -2.6140  0.1165 -4.3415
   86SOPE  C311 8090   0.413   0.687   3.960 -0.5787  0.1770 -0.5862
   86SOPE  H11X 8091   0.507   0.745   3.965 -0.8398  0.6840 -1.5007
   86SOPE  H11Y 8092   0.444   0.581   3.946 -1.5617 -0.2637  0.4058
   86SOPE  C312 8093   0.340   0.691   4.091 -0.0320  0.4252 -0.1565
   86SOPE  H12X 8094   0.244   0.636   4.083  0.2897 -0.3091  0.8344
   86SOPE  H12Y 8095   0.304   0.795   4.106 -1.2175  0.0785 -0.5069
   86SOPE  C313 8096   0.430   0.652   4.204  0.1973  0.1170  0.4727
   86SOPE  H13X 8097   0.499   0.739   4.216 -0.9903  0.7751  3.2847
   86SOPE  H13Y 8098   0.485   0.557   4.187 -0.7738 -0.3400 -0.2117
   86SOPE  C314 8099   0.348   0.648   4.333 -0.0674 -0.4609  0.4036
   86SOPE  H14X 8100   0.279   0.561   4.324 -1.0643  0.2709  0.7762
   86SOPE  H14Y 8101   0.283   0.737   4.338 -0.1794 -0.3190 -2.1678
   86SOPE  C315 8102   0.436   0.635   4.453 -0.4756 -0.0037 -0.3693
   86SOPE  H15X 8103   0.369   0.656   4.540  2.3524  0.2870  1.9035
   86SOPE  H15Y 8104   0.526   0.698   4.469  0.1269 -0.8340 -0.4347
   86SOPE  C316 8105   0.496   0.488   4.467 -0.0294 -0.5540 -0.0690
   86SOPE  H16X 8106   0.564   0.472   4.381 -1.6630  0.7048 -1.6788
   86SOPE  H16Y 8107   0.414   0.414   4.459  0.7136 -1.2429 -1.6440
   86SOPE  C317 8108   0.576   0.472   4.592 -0.3766  0.2822  0.0893
   86SOPE  H17X 8109   0.525   0.508   4.684 -2.5036 -0.6500 -0.6637
   86SOPE  H17Y 8110   0.668   0.535   4.586 -0.3713  0.2431 -0.2385
   86SOPE  C318 8111   0.621   0.320   4.615 -0.2677 -0.4682  0.3084
   86SOPE  H18X 8112   0.670   0.309   4.714 -2.1701 -1.0643  1.2299
   86SOPE  H18Y 8113   0.680   0.275   4.532 -3.2747  0.6707 -2.6881
   86SOPE  H18Z 8114   0.524   0.266   4.616 -0.7162  0.2795 -0.5522
   87SOPE     N 8115   1.293   0.733   2.265 -0.3881 -0.6134  0.2169
   87SOPE   HN1 8116   1.307   0.816   2.204  1.8999 -0.6870  0.5464
   87SOPE   HN2 8117   1.192   0.737   2.289  0.2364  0.3202  2.9720
   87SOPE   HN3 8118   1.352   0.746   2.350  0.9975 -0.9648 -0.6490
   87SOPE   C12 8119   1.341   0.607   2.200  0.0074 -0.3095 -0.1161
   87SOPE  H12A 8120   1.432   0.636   2.143 -0.9485  1.0055 -1.0227
   87SOPE  H12B 8121   1.275   0.580   2.115  0.8872  1.0150 -1.2497
   87SOPE   C11 8122   1.382   0.503   2.302  0.3507 -0.5726  0.5212
   87SOPE  H11A 8123   1.293   0.468   2.357  0.4491 -1.9129 -0.1400
   87SOPE  H11B 8124   1.448   0.549   2.379  1.3811  1.0594 -1.2395
   87SOPE     P 8125   1.598   0.372   2.243  0.1090 -0.2187 -0.2765
   87SOPE   O13 8126   1.659   0.505   2.214 -0.3205  0.6893  0.6485
   87SOPE   O14 8127   1.643   0.249   2.176  0.8721 -0.0362  0.1138
   87SOPE   O12 8128   1.440   0.387   2.237 -0.6736 -0.8078 -0.1720
   87SOPE   O11 8129   1.601   0.353   2.400 -0.2085 -0.4019  0.9828
   87SOPE    C1 8130   1.524   0.244   2.455  0.4492 -0.3173 -0.0653
   87SOPE    HA 8131   1.576   0.146   2.451  0.0372 -0.5799  0.8004
   87SOPE    HB 8132   1.434   0.232   2.391 -0.4831  1.8328  0.7482
   87SOPE    C2 8133   1.471   0.273   2.597  0.0617 -0.4169 -0.1153
   87SOPE    HS 8134   1.409   0.365   2.604 -0.2298 -0.7069  1.6989
   87SOPE   O21 8135   1.589   0.276   2.682 -0.5091  0.3735 -0.1703
   87SOPE   C21 8136   1.579   0.359   2.781 -0.1136  0.2904  0.2554
   87SOPE   O22 8137   1.489   0.442   2.798 -1.1601  0.1254 -0.2209
   87SOPE   C22 8138   1.691   0.327   2.885 -0.4859 -0.2505 -0.2230
   87SOPE   H2R 8139   1.774   0.295   2.818  1.7611 -0.8560  2.6180
   87SOPE   H2S 8140   1.660   0.235   2.938 -0.5554  0.1484  0.4511
   87SOPE    C3 8141   1.368   0.167   2.633  0.2086  0.5739  0.1149
   87SOPE    HX 8142   1.415   0.067   2.621 -1.9974 -0.8064  2.2504
   87SOPE    HY 8143   1.274   0.178   2.576  1.1032  2.2591 -1.1375
   87SOPE   O31 8144   1.336   0.190   2.774  0.3607  0.0612 -0.3751
   87SOPE   C31 8145   1.232   0.278   2.776 -0.8065 -0.8048  0.2407
   87SOPE   O32 8146   1.168   0.325   2.684 -0.4481 -0.0997 -0.2689
   87SOPE   C32 8147   1.178   0.281   2.921 -0.3675  0.3761 -0.2583
   87SOPE   H2X 8148   1.141   0.180   2.950 -0.6993  0.2819 -0.9787
   87SOPE   H2Y 8149   1.092   0.351   2.918  0.1219  1.0968  1.5296
   87SOPE   C23 8150   1.730   0.444   2.977  0.3314 -0.3086  0.6255
   87SOPE   H3R 8151   1.652   0.522   2.960  0.8665  0.6416  2.2766
   87SOPE   H3S 8152   1.829   0.483   2.946 -0.6997  1.7885 -0.1873
   87SOPE   C24 8153   1.731   0.407   3.123 -0.3114  0.0929  0.1946
   87SOPE   H4R 8154   1.642   0.353   3.160  0.9100 -1.0470  1.6029
   87SOPE   H4S 8155   1.824   0.349   3.139  0.0242  0.6065  0.1471
   87SOPE   C25 8156   1.733   0.535   3.212 -0.2126 -0.2038 -0.1324
   87SOPE   H5R 8157   1.829   0.588   3.194 -0.4388  0.2074 -0.1529
   87SOPE   H5S 8158   1.641   0.590   3.181  0.7296  2.1087  0.9241
   87SOPE   C26 8159   1.721   0.496   3.359  0.5398  0.6157 -0.5786
   87SOPE   H6R 8160   1.653   0.409   3.369  0.6013  0.6879  0.7032
   87SOPE   H6S 8161   1.817   0.457   3.400 -0.4439 -0.6204  0.6541
   87SOPE   C27 8162   1.669   0.610   3.448 -0.6331 -0.8428  0.6809
   87SOPE   H7R 8163   1.730   0.700   3.423  0.0066 -1.3165  0.4810
   87SOPE   H7S 8164   1.561   0.625   3.431 -0.4304  0.7926  0.6806
   87SOPE   C28 8165   1.698   0.586   3.597  0.2334  0.6199 -0.4456
   87SOPE   H8R 8166   1.648   0.668   3.654  1.5190  0.7534  0.5383
   87SOPE   H8S 8167   1.661   0.486   3.625  2.5453  0.0983  1.0811
   87SOPE   C29 8168   1.845   0.588   3.618  0.6686  0.0735  0.3228
   87SOPE   H91 8169   1.902   0.655   3.552  1.8653 -2.4751 -1.4137
   87SOPE  C210 8170   1.914   0.508   3.704 -0.6175 -0.1571 -0.2382
   87SOPE  H101 8171   2.022   0.526   3.694 -0.5544 -0.1930  0.3681
   87SOPE  C211 8172   1.856   0.401   3.794  0.0238 -0.6268  0.3724
   87SOPE  H11R 8173   1.745   0.412   3.798  0.1060  0.7479 -0.4741
   87SOPE  H11S 8174   1.901   0.413   3.895 -0.3724  1.4255  0.3493
   87SOPE  C212 8175   1.870   0.258   3.743  0.3723 -0.0993 -0.2582
   87SOPE  H12R 8176   1.827   0.188   3.818 -1.2715  0.1585 -0.9076
   87SOPE  H12S 8177   1.979   0.247   3.726  0.3114 -1.6871  0.1928
   87SOPE  C213 8178   1.797   0.223   3.617 -0.3162  0.4382  0.3172
   87SOPE  H13R 8179   1.868   0.246   3.535  0.6671  0.5312  1.1778
   87SOPE  H13S 8180   1.700   0.277   3.608 -0.2364  0.4689 -0.4022
   87SOPE  C214 8181   1.760   0.071   3.610  0.4240 -0.5984  0.2115
   87SOPE  H14R 8182   1.687   0.075   3.527 -0.4897  0.4933  1.0444
   87SOPE  H14S 8183   1.703   0.045   3.702 -1.4295  0.4443 -0.5976
   87SOPE  C215 8184   1.864  -0.031   3.580  0.3140  0.4056  0.5364
   87SOPE  H15R 8185   1.915  -0.049   3.677 -0.8505  1.8090  1.4413
   87SOPE  H15S 8186   1.945   0.010   3.515  0.2047 -1.5001 -0.9010
   87SOPE  C216 8187   1.804  -0.159   3.527 -0.2197  0.9501  0.4227
   87SOPE  H16R 8188   1.728  -0.149   3.446 -2.2752 -1.4873  1.8841
   87SOPE  H16S 8189   1.736  -0.188   3.610 -0.8442  0.6114 -0.1991
   87SOPE  C217 8190   1.900  -0.275   3.497  0.2064  0.3811  0.2191
   87SOPE  H17R 8191   1.839  -0.367   3.509  0.4081  0.1658 -0.3584
   87SOPE  H17S 8192   1.980  -0.277   3.573  1.5092 -2.0123 -1.1040
   87SOPE  C218 8193   1.953  -0.271   3.359  0.2917  0.3048  0.6258
   87SOPE  H18R 8194   2.036  -0.197   3.350 -0.7059  1.5794  1.6022
   87SOPE  H18S 8195   1.885  -0.243   3.276 -1.0977 -0.0508  1.6213
   87SOPE  H18T 8196   2.008  -0.362   3.325 -0.0129  0.4980 -0.4078
   87SOPE   C33 8197   1.288   0.316   3.024  0.1889  0.4865 -0.1493
   87SOPE   H3X 8198   1.308   0.422   2.998  0.2026 -0.0791 -2.7809
   87SOPE   H3Y 8199   1.369   0.240   3.016  0.1633  0.4908 -0.4473
   87SOPE   C34 8200   1.229   0.303   3.166 -0.2504 -0.2018 -0.3901
   87SOPE   H4X 8201   1.187   0.201   3.177 -0.0416 -0.6000 -2.7682
   87SOPE   H4Y 8202   1.149   0.380   3.165  0.0517  0.1573 -2.9990
   87SOPE   C35 8203   1.324   0.337   3.278 -0.4735  0.1311  0.5152
   87SOPE   H5X 8204   1.367   0.439   3.269  0.6003 -0.1849  1.7137
   87SOPE   H5Y 8205   1.408   0.269   3.255 -0.4939 -0.2321  1.4532
   87SOPE   C36 8206   1.271   0.315   3.420  0.0416 -0.6851  0.0535
   87SOPE   H6X 8207   1.250   0.207   3.431 -0.1704 -0.6508 -0.0181
   87SOPE   H6Y 8208   1.174   0.368   3.429  0.0775 -0.1747 -1.9997
   87SOPE   C37 8209   1.373   0.353   3.540  0.3205  0.6188  0.4644
   87SOPE   H7X 8210   1.419   0.454   3.539 -2.2474  1.8658 -0.3158
   87SOPE   H7Y 8211   1.451   0.275   3.529  2.3570  2.6585 -0.1274
   87SOPE   C38 8212   1.311   0.338   3.680 -0.6590  0.5426 -0.0697
   87SOPE   H8X 8213   1.267   0.236   3.680 -1.0936  0.7265 -0.5084
   87SOPE   H8Y 8214   1.218   0.397   3.693 -0.8565  0.0922  0.6309
   87SOPE   C39 8215   1.410   0.357   3.787  0.1092 -0.0670 -0.7558
   87SOPE   H9X 8216   1.470   0.448   3.766  0.7834 -1.0444 -3.6228
   87SOPE   H9Y 8217   1.479   0.270   3.783 -1.7120 -1.5746 -0.5647
   87SOPE  C310 8218   1.348   0.359   3.930 -0.0455 -0.3079  0.9319
   87SOPE  H10X 8219   1.295   0.263   3.942 -1.2891 -0.1615 -2.4060
   87SOPE  H10Y 8220   1.274   0.442   3.933 -0.8958 -1.0393  0.6313
   87SOPE  C311 8221   1.455   0.375   4.038  0.3763  0.9689 -0.3205
   87SOPE  H11X 8222   1.407   0.391   4.137  1.2759 -1.8592  0.6832
   87SOPE  H11Y 8223   1.525   0.458   4.016  2.8235 -0.2857  2.0731
   87SOPE  C312 8224   1.538   0.236   4.046 -0.2873 -0.4069 -0.5438
   87SOPE  H12X 8225   1.617   0.228   3.969 -0.7275 -2.0342 -0.8691
   87SOPE  H12Y 8226   1.467   0.152   4.027 -1.5414  0.7147 -0.9404
   87SOPE  C313 8227   1.599   0.214   4.183  0.2526  0.3711 -0.1343
   87SOPE  H13X 8228   1.521   0.209   4.261 -0.1944 -0.0344 -0.6040
   87SOPE  H13Y 8229   1.675   0.293   4.205  0.5911  0.0156 -0.0093
   87SOPE  C314 8230   1.682   0.085   4.194  0.1152  0.6936 -0.3477
   87SOPE  H14X 8231   1.624  -0.010   4.200 -0.4052  1.0922  1.7834
   87SOPE  H14Y 8232   1.742   0.093   4.287 -0.7157  0.2897  0.2379
   87SOPE  C315 8233   1.796   0.066   4.096  0.1325 -0.0654  0.1708
   87SOPE  H15X 8234   1.863   0.155   4.101  0.6192 -0.2782 -1.6963
   87SOPE  H15Y 8235   1.761   0.054   3.991 -2.9415 -0.3006  1.1148
   87SOPE  C316 8236   1.894  -0.056   4.129 -0.2707  0.5671 -0.4088
   87SOPE  H16X 8237   1.927  -0.038   4.234  0.5624 -1.9322 -0.1788
   87SOPE  H16Y 8238   1.977  -0.040   4.056 -0.4456 -1.1026 -1.0091
   87SOPE  C317 8239   1.832  -0.198   4.117  0.3495  0.5201 -0.1266
   87SOPE  H17X 8240   1.760  -0.211   4.200 -0.2301  1.5435 -0.4433
   87SOPE  H17Y 8241   1.912  -0.272   4.137 -1.4975 -1.0285  2.0690
   87SOPE  C318 8242   1.756  -0.237   3.987 -0.7752  0.4451 -0.3011
   87SOPE  H18X 8243   1.716  -0.339   4.005  0.8353  0.0986  1.6148
   87SOPE  H18Y 8244   1.816  -0.228   3.894 -1.2804  0.8630 -0.5934
   87SOPE  H18Z 8245   1.668  -0.172   3.967 -0.4172  0.9438 -0.2829
   88SOPE     N 8246   1.998   1.507   1.956  0.2006 -0.3078 -0.3408
   88SOPE   HN1 8247   2.007   1.560   1.867  1.3349 -0.4124 -0.3036
   88SOPE   HN2 8248   2.094   1.492   1.994 -0.0314  1.0884  0.8755
   88SOPE   HN3 8249   1.962   1.411   1.939  0.3149 -0.9271  2.4741
   88SOPE   C12 8250   1.900   1.586   2.036 -0.3932  0.0143 -1.3538
   88SOPE  H12A 8251   1.800   1.549   2.007 -1.0362  0.9647 -0.4280
   88SOPE  H12B 8252   1.921   1.693   2.015 -3.3098  0.8991 -0.3237
   88SOPE   C11 8253   1.907   1.559   2.188  0.4903  0.6545 -0.2137
   88SOPE  H11A 8254   1.841   1.631   2.240 -0.0513  0.6451 -0.8700
   88SOPE  H11B 8255   2.006   1.586   2.230 -0.6649  3.8227  0.7276
   88SOPE     P 8256   1.876   1.389   2.377 -0.3223 -0.2074  0.2054
   88SOPE   O13 8257   2.008   1.337   2.396 -0.6527  0.6724  0.1924
   88SOPE   O14 8258   1.767   1.302   2.404 -0.4661 -0.5676 -0.0313
   88SOPE   O12 8259   1.871   1.423   2.221 -0.1384  0.2200 -0.2319
   88SOPE   O11 8260   1.855   1.528   2.444  0.3959  0.0610 -0.5537
   88SOPE    C1 8261   1.961   1.581   2.529 -0.6425  0.0748  0.4965
   88SOPE    HA 8262   2.055   1.605   2.475 -0.4232  0.5849  1.0912
   88SOPE    HB 8263   1.993   1.512   2.610  0.2673 -0.2018 -0.0892
   88SOPE    C2 8264   1.922   1.718   2.592 -0.7291 -0.0023 -0.4113
   88SOPE    HS 8265   2.017   1.772   2.612 -1.3197 -0.1279  3.5022
   88SOPE   O21 8266   1.860   1.706   2.719 -0.2350  0.4183  0.5454
   88SOPE   C21 8267   1.941   1.680   2.823  0.2309 -0.0543 -0.5152
   88SOPE   O22 8268   2.057   1.650   2.808  0.5149  0.4053 -0.3141
   88SOPE   C22 8269   1.871   1.687   2.953 -0.3881  0.5816 -0.3633
   88SOPE   H2R 8270   1.829   1.584   2.962  0.3708  0.3211  0.2418
   88SOPE   H2S 8271   1.789   1.763   2.950  0.4186  1.5624  1.1336
   88SOPE    C3 8272   1.823   1.792   2.493  0.6830 -0.2523 -0.2009
   88SOPE    HX 8273   1.725   1.741   2.478  1.0934 -0.5940 -1.9130
   88SOPE    HY 8274   1.872   1.795   2.393 -0.9472  1.0515 -1.0141
   88SOPE   O31 8275   1.790   1.928   2.549 -0.1669  0.5459  0.2764
   88SOPE   C31 8276   1.669   1.970   2.574  0.4588 -0.1771  0.4266
   88SOPE   O32 8277   1.567   1.932   2.523 -0.4282 -0.3807  0.1818
   88SOPE   C32 8278   1.669   2.085   2.672  0.0463 -0.1782 -0.1994
   88SOPE   H2X 8279   1.582   2.153   2.662 -0.7904 -0.7591  2.3442
   88SOPE   H2Y 8280   1.770   2.132   2.666  0.3475 -0.6299  0.9827
   88SOPE   C23 8281   1.964   1.729   3.072 -1.2427  0.2969  0.1319
   88SOPE   H3R 8282   1.901   1.769   3.154 -0.9661 -1.5206  1.3088
   88SOPE   H3S 8283   2.035   1.807   3.040  1.4751 -2.7509 -1.9656
   88SOPE   C24 8284   2.041   1.604   3.128 -0.3112 -0.0429  0.1201
   88SOPE   H4R 8285   1.976   1.527   3.174  0.0109  0.3141  1.1889
   88SOPE   H4S 8286   2.086   1.562   3.036  0.7732  1.4400 -0.0730
   88SOPE   C25 8287   2.148   1.641   3.232  0.0659 -0.7972  0.8387
   88SOPE   H5R 8288   2.212   1.552   3.247  1.6234  0.3627  1.4131
   88SOPE   H5S 8289   2.212   1.721   3.188  0.7581 -1.4390  0.6630
   88SOPE   C26 8290   2.099   1.686   3.375 -0.5887  0.8326 -0.1760
   88SOPE   H6R 8291   2.036   1.777   3.365 -0.7307  0.8451  0.7040
   88SOPE   H6S 8292   2.035   1.599   3.403  1.3426 -0.7443 -0.4334
   88SOPE   C27 8293   2.213   1.691   3.488  0.0665  0.5791  0.0255
   88SOPE   H7R 8294   2.257   1.590   3.479 -0.8149  0.1578  0.2994
   88SOPE   H7S 8295   2.300   1.756   3.466 -1.3558  1.7509 -2.5831
   88SOPE   C28 8296   2.161   1.713   3.629  0.3276  0.0606 -0.2739
   88SOPE   H8R 8297   2.144   1.820   3.655 -2.0160 -0.7601  1.9464
   88SOPE   H8S 8298   2.063   1.662   3.629  0.7532 -0.8099  1.3852
   88SOPE   C29 8299   2.242   1.646   3.736 -0.6020  0.2469  0.2404
   88SOPE   H91 8300   2.194   1.567   3.797  0.4628 -0.0167  0.7589
   88SOPE  C210 8301   2.370   1.673   3.770 -0.4703 -0.7192 -0.0712
   88SOPE  H101 8302   2.407   1.616   3.857  2.2761 -0.1797 -0.7758
   88SOPE  C211 8303   2.438   1.791   3.708  0.2123 -0.3257 -0.3159
   88SOPE  H11R 8304   2.376   1.883   3.701 -1.1517 -1.0238  1.7879
   88SOPE  H11S 8305   2.476   1.763   3.607  2.6704 -0.9340  0.7061
   88SOPE  C212 8306   2.560   1.842   3.772 -0.6110 -0.5597 -1.1912
   88SOPE  H12R 8307   2.539   1.890   3.870  1.0793 -0.1865 -0.9914
   88SOPE  H12S 8308   2.605   1.928   3.719 -1.2294  0.1490 -0.5897
   88SOPE  C213 8309   2.677   1.745   3.804 -0.3646 -0.8046 -0.0169
   88SOPE  H13R 8310   2.722   1.700   3.713  0.2295  1.5457 -0.9487
   88SOPE  H13S 8311   2.633   1.665   3.868 -2.7308 -0.3538 -0.9412
   88SOPE  C214 8312   2.793   1.806   3.884  1.0155 -0.6701  0.5752
   88SOPE  H14R 8313   2.759   1.856   3.978 -1.3097  1.4901 -1.2657
   88SOPE  H14S 8314   2.843   1.888   3.828 -0.7545  1.1503  1.5401
   88SOPE  C215 8315   2.894   1.703   3.925 -0.5109 -0.4411 -0.5401
   88SOPE  H15R 8316   2.919   1.634   3.841  0.9558 -0.9221  0.2664
   88SOPE  H15S 8317   2.856   1.647   4.013  0.5073  0.0595  0.2358
   88SOPE  C216 8318   3.032   1.766   3.961 -0.1431  0.3460  0.3769
   88SOPE  H16R 8319   3.061   1.841   3.884  1.0307 -1.4382 -1.0155
   88SOPE  H16S 8320   3.108   1.685   3.968  0.7399  1.1911  0.8537
   88SOPE  C217 8321   3.030   1.829   4.100  0.2176  0.6809 -0.6764
   88SOPE  H17R 8322   2.993   1.751   4.171  1.1130 -0.1233 -1.0633
   88SOPE  H17S 8323   2.961   1.915   4.097  0.6504  1.0130 -1.1648
   88SOPE  C218 8324   3.173   1.869   4.148  0.0657  0.4690 -0.4827
   88SOPE  H18R 8325   3.210   1.963   4.102  0.2820 -0.2405 -1.8078
   88SOPE  H18S 8326   3.242   1.783   4.143  0.4505  0.4806  2.8625
   88SOPE  H18T 8327   3.154   1.893   4.254 -0.1459  1.1810 -0.6740
   88SOPE   C33 8328   1.670   2.017   2.819 -0.0412 -0.3252  0.6441
   88SOPE   H3X 8329   1.706   2.092   2.892 -0.5400  0.4524  0.1058
   88SOPE   H3Y 8330   1.742   1.932   2.816 -0.0609 -0.3842 -3.2392
   88SOPE   C34 8331   1.538   1.958   2.867 -0.1176  0.2391  0.3488
   88SOPE   H4X 8332   1.507   1.879   2.795 -0.3345  2.0983 -1.7027
   88SOPE   H4Y 8333   1.471   2.046   2.865  0.5338  0.8288  2.1638
   88SOPE   C35 8334   1.545   1.903   3.014  0.1014 -0.0672  0.1474
   88SOPE   H5X 8335   1.574   1.795   3.012 -2.5046 -0.8496  0.7642
   88SOPE   H5Y 8336   1.439   1.915   3.046  0.5823  0.6892  1.5185
   88SOPE   C36 8337   1.646   1.969   3.112 -0.4059  0.0935 -0.4120
   88SOPE   H6X 8338   1.615   2.075   3.124  0.8659  0.1588  4.0527
   88SOPE   H6Y 8339   1.748   1.961   3.069 -0.1404 -0.2419  0.2668
   88SOPE   C37 8340   1.648   1.908   3.256  0.3408  0.2723  0.1292
   88SOPE   H7X 8341   1.652   1.797   3.261 -1.4959  0.2038  0.9944
   88SOPE   H7Y 8342   1.557   1.938   3.312  0.2328 -0.5610  0.4164
   88SOPE   C38 8343   1.769   1.971   3.331  0.6328 -0.0982  0.0059
   88SOPE   H8X 8344   1.755   2.081   3.321  1.3035  0.3470  2.9378
   88SOPE   H8Y 8345   1.858   1.947   3.270 -0.7467 -2.0200 -1.3979
   88SOPE   C39 8346   1.789   1.930   3.482  0.1505 -0.0028  0.4661
   88SOPE   H9X 8347   1.780   1.820   3.492  1.6162  0.0582  3.6348
   88SOPE   H9Y 8348   1.691   1.965   3.523 -0.5724 -2.4564  1.0167
   88SOPE  C310 8349   1.906   1.997   3.558 -0.6545  0.2564 -0.0086
   88SOPE  H10X 8350   1.917   2.100   3.519  2.0226 -0.2702 -0.8693
   88SOPE  H10Y 8351   2.001   1.950   3.526 -0.3845 -0.1052  1.2637
   88SOPE  C311 8352   1.918   1.975   3.703  0.1704 -0.6381 -0.3946
   88SOPE  H11X 8353   1.929   1.868   3.732 -1.6148 -0.8277 -0.2884
   88SOPE  H11Y 8354   1.820   2.004   3.748  0.8775  0.9254  0.1981
   88SOPE  C312 8355   2.031   2.062   3.756  0.0473 -0.3554 -0.6905
   88SOPE  H12X 8356   1.991   2.166   3.763 -1.8115 -1.0389 -0.4981
   88SOPE  H12Y 8357   2.127   2.061   3.701  0.4117  2.7225 -0.2841
   88SOPE  C313 8358   2.062   2.035   3.904 -0.7722  0.4324  0.4400
   88SOPE  H13X 8359   2.082   1.926   3.914  1.7493  0.9331  1.6420
   88SOPE  H13Y 8360   1.974   2.061   3.966 -1.3044 -1.4768  0.5519
   88SOPE  C314 8361   2.184   2.113   3.964  0.3106 -0.2164 -0.3331
   88SOPE  H14X 8362   2.156   2.220   3.972 -0.6870 -0.4642 -0.2694
   88SOPE  H14Y 8363   2.266   2.103   3.890 -2.0957 -0.1338 -3.2208
   88SOPE  C315 8364   2.228   2.038   4.088  0.0723  0.2292  0.7945
   88SOPE  H15X 8365   2.140   1.987   4.131 -0.5837  0.4674 -0.2155
   88SOPE  H15Y 8366   2.253   2.113   4.166  0.8828 -1.1974  1.9414
   88SOPE  C316 8367   2.346   1.942   4.064  0.1652 -0.4622 -0.4183
   88SOPE  H16X 8368   2.437   2.001   4.038 -0.5502  1.5930  1.4659
   88SOPE  H16Y 8369   2.320   1.871   3.983  1.7997 -0.0699 -1.3367
   88SOPE  C317 8370   2.379   1.864   4.186  0.0265  0.7176  0.4945
   88SOPE  H17X 8371   2.299   1.810   4.241  1.0645  0.4822  1.8002
   88SOPE  H17Y 8372   2.419   1.930   4.266 -0.2476  0.6008  0.7277
   88SOPE  C318 8373   2.481   1.750   4.154 -0.9351  0.1259  1.2131
   88SOPE  H18X 8374   2.443   1.697   4.064  0.0070  0.8345  0.3818
   88SOPE  H18Y 8375   2.494   1.689   4.246  1.6909  2.6586  2.7034
   88SOPE  H18Z 8376   2.577   1.787   4.112  0.1576 -2.8323  0.8162
   89SAPC     N 8377   3.374   1.334   6.487  0.3630  0.1395  0.7893
   89SAPC   C12 8378   3.281   1.289   6.373  0.3657  0.5457 -0.2244
   89SAPC  H12A 8379   3.270   1.182   6.379  0.2089  0.5308 -0.7238
   89SAPC  H12B 8380   3.323   1.310   6.276 -1.1690  3.0415 -0.4314
   89SAPC   C13 8381   3.316   1.292   6.616  0.5005 -0.4998 -0.9041
   89SAPC  H13A 8382   3.392   1.315   6.689 -0.2675  0.0194 -0.2551
   89SAPC  H13B 8383   3.228   1.352   6.637  0.9058  0.0210 -0.6857
   89SAPC  H13C 8384   3.285   1.188   6.619 -0.6138 -0.2549 -2.3507
   89SAPC   C14 8385   3.506   1.264   6.476  0.1301  0.3484 -0.2562
   89SAPC  H14A 8386   3.505   1.156   6.474  2.1741  0.2865 -1.9807
   89SAPC  H14B 8387   3.531   1.283   6.373 -1.8730  1.0877 -0.6472
   89SAPC  H14C 8388   3.577   1.303   6.548 -1.6471  1.9566  0.7306
   89SAPC   C15 8389   3.385   1.483   6.489  0.6491  0.2939  0.8592
   89SAPC  H15A 8390   3.431   1.520   6.399 -1.8873  0.0216 -0.6435
   89SAPC  H15B 8391   3.283   1.515   6.476  0.5798 -0.8719 -2.2252
   89SAPC  H15C 8392   3.422   1.527   6.580  0.4453  2.4496 -0.0435
   89SAPC   C11 8393   3.129   1.338   6.375 -0.8654 -0.0757  0.1094
   89SAPC  H11A 8394   3.076   1.302   6.466  0.6705 -0.8516  0.7290
   89SAPC  H11B 8395   3.073   1.287   6.294 -0.7747  0.9278 -0.6151
   89SAPC     P 8396   3.052   1.543   6.235 -0.1694  0.1403 -0.2008
   89SAPC   O13 8397   2.978   1.665   6.279  0.4060  1.1460  0.0001
   89SAPC   O14 8398   3.162   1.569   6.139 -0.6097  0.1865 -0.0725
   89SAPC   O12 8399   3.106   1.478   6.366 -0.4334  0.1185  0.2951
   89SAPC   O11 8400   2.948   1.444   6.168  0.2220 -0.7578 -0.1453
   89SAPC    C1 8401   2.823   1.427   6.231 -0.3643  0.4310  0.0683
   89SAPC    HA 8402   2.827   1.441   6.341 -1.4891 -0.6167  0.2647
   89SAPC    HB 8403   2.749   1.499   6.191 -0.0520  1.3449  1.0887
   89SAPC    C2 8404   2.761   1.279   6.217  0.0803  0.6976 -0.2594
   89SAPC    HS 8405   2.812   1.219   6.295 -0.5571  0.5771  0.0667
   89SAPC   O21 8406   2.761   1.222   6.085 -0.0052 -0.5045  0.3999
   89SAPC   C21 8407   2.875   1.154   6.062  0.0938 -0.1817  0.1889
   89SAPC   O22 8408   2.965   1.126   6.144 -0.1700  0.7178 -0.0115
   89SAPC   C22 8409   2.877   1.090   5.924 -0.0845 -0.8479  0.5076
   89SAPC   H2R 8410   2.782   1.106   5.868  1.3203  0.5557 -1.5749
   89SAPC   H2S 8411   2.957   1.149   5.875 -1.2441 -0.2017 -0.6576
   89SAPC    C3 8412   2.608   1.282   6.261 -0.2328  0.2017 -0.4024
   89SAPC    HX 8413   2.560   1.378   6.232  0.1126  0.0807 -1.4162
   89SAPC    HY 8414   2.618   1.271   6.371 -0.5751  2.6319 -0.0777
   89SAPC   O31 8415   2.537   1.170   6.212 -0.1729  0.0575 -0.4294
   89SAPC   C31 8416   2.454   1.183   6.119 -0.2298  0.0236 -0.4197
   89SAPC   O32 8417   2.413   1.290   6.066  0.1474 -0.5972 -0.3150
   89SAPC   C32 8418   2.412   1.043   6.074  0.5424  0.2758 -0.3314
   89SAPC   H2X 8419   2.332   0.995   6.134  1.9610  1.4718  2.6871
   89SAPC   H2Y 8420   2.504   0.983   6.062 -0.0863 -0.4881 -1.5547
   89SAPC   C23 8421   2.906   0.938   5.928  0.2857  0.6886 -0.0944
   89SAPC   H3R 8422   2.816   0.884   5.963  0.3107  0.0180 -1.0449
   89SAPC   H3S 8423   2.987   0.919   6.002  1.0501 -0.0086 -1.0940
   89SAPC   C24 8424   2.951   0.877   5.797 -0.3721 -0.4328  0.7043
   89SAPC   H4R 8425   3.013   0.789   5.824  2.5159  1.2078 -0.1161
   89SAPC   H4S 8426   3.025   0.945   5.749  2.1503 -3.6630 -0.3613
   89SAPC   C25 8427   2.846   0.838   5.693 -0.0788 -0.1913 -0.4210
   89SAPC   H5R 8428   2.750   0.891   5.701 -0.8504 -1.4572 -0.9397
   89SAPC   C26 8429   2.856   0.761   5.589 -0.4470  0.1974  1.1883
   89SAPC   H6R 8430   2.764   0.755   5.529  1.0676 -0.7793 -1.2008
   89SAPC   C27 8431   2.983   0.692   5.540  0.7784  0.6327  0.7764
   89SAPC   H7R 8432   3.064   0.715   5.613 -0.3535  0.7127  2.0674
   89SAPC   H7S 8433   3.023   0.730   5.444 -1.5327 -0.5153 -0.7275
   89SAPC   C28 8434   2.953   0.543   5.517  0.5368 -0.5741  0.0026
   89SAPC   H8R 8435   2.945   0.489   5.612  2.1305  0.0296  0.5030
   89SAPC   C29 8436   2.928   0.482   5.403  0.5157  0.4145 -0.1548
   89SAPC   H9R 8437   2.909   0.374   5.401 -0.4283  0.5794 -0.9827
   89SAPC  C210 8438   2.924   0.550   5.270 -0.9051 -0.8820  0.2331
   89SAPC  H10R 8439   3.003   0.508   5.203  2.3027  2.9300  1.2569
   89SAPC  H10S 8440   2.949   0.658   5.281 -2.2276 -0.5445  0.1061
   89SAPC  C211 8441   2.777   0.539   5.216  0.3707  0.0260  1.0298
   89SAPC  H11R 8442   2.693   0.533   5.286  0.3689 -2.9901  0.9200
   89SAPC  C212 8443   2.754   0.510   5.085  0.5102 -0.4349 -0.1453
   89SAPC  H12R 8444   2.649   0.488   5.062  0.0903  0.1971  1.0627
   89SAPC  C213 8445   2.856   0.509   4.973 -0.1215  0.4511 -0.1898
   89SAPC  H13R 8446   2.930   0.583   5.011 -0.1447  0.3704  0.0143
   89SAPC  H13S 8447   2.812   0.553   4.881  1.4472  0.5094 -0.9522
   89SAPC  C214 8448   2.918   0.384   4.923 -0.2074 -0.1830 -0.3037
   89SAPC  H14R 8449   2.955   0.315   5.001 -0.0059 -0.2395 -0.4481
   89SAPC  C215 8450   2.905   0.330   4.802  0.8154 -0.3464  0.3672
   89SAPC  H15R 8451   2.949   0.234   4.773 -0.8858 -1.4290  1.2254
   89SAPC  C216 8452   2.841   0.402   4.687  0.4247 -0.1145  0.3636
   89SAPC  H16R 8453   2.894   0.374   4.593  0.1818  3.0756 -0.8540
   89SAPC  H16S 8454   2.852   0.512   4.693 -1.4217  0.0723  1.0212
   89SAPC  C217 8455   2.687   0.370   4.678 -0.1703 -0.2600 -1.2578
   89SAPC  H17R 8456   2.634   0.395   4.772 -0.8733 -0.8160 -1.4909
   89SAPC  H17S 8457   2.670   0.261   4.671  1.4091 -0.7389  1.2644
   89SAPC  C218 8458   2.614   0.433   4.558  0.1166 -0.0209  0.3843
   89SAPC  H18R 8459   2.677   0.412   4.469 -0.3680  1.5807 -0.3871
   89SAPC  H18S 8460   2.628   0.542   4.577  1.0814  0.0855 -0.8081
   89SAPC  C219 8461   2.465   0.394   4.547  0.6398  0.4510  0.7874
   89SAPC  H19R 8462   2.427   0.471   4.476 -1.3341  1.1929  2.5428
   89SAPC  H19S 8463   2.419   0.404   4.648  2.4793 -0.1898  1.7391
   89SAPC  C220 8464   2.453   0.258   4.481 -0.0382 -0.4873 -0.0042
   89SAPC  H20R 8465   2.466   0.169   4.547 -6.1847 -1.7723  0.0464
   89SAPC  H20S 8466   2.535   0.261   4.406  1.1197 -1.0092  1.1988
   89SAPC  H20T 8467   2.362   0.240   4.419  1.0788  2.8203 -2.9072
   89SAPC   C33 8468   2.357   1.067   5.931 -0.3240 -0.7989  0.3755
   89SAPC   H3X 8469   2.268   1.133   5.930 -0.2445 -0.6899 -0.5135
   89SAPC   H3Y 8470   2.326   0.964   5.901  1.0203 -0.7606 -1.2461
   89SAPC   C34 8471   2.445   1.126   5.815  0.1384 -0.6516  0.2651
   89SAPC   H4X 8472   2.535   1.062   5.807  0.8979  0.2036  1.6585
   89SAPC   H4Y 8473   2.476   1.228   5.845 -1.6695  0.4886 -1.4454
   89SAPC   C35 8474   2.358   1.130   5.691 -0.4144  0.8188  0.5787
   89SAPC   H5X 8475   2.274   1.203   5.702  0.1879  1.2792  2.5076
   89SAPC   H5Y 8476   2.311   1.029   5.692  1.2311  0.0331  0.5666
   89SAPC   C36 8477   2.438   1.156   5.562 -0.2183  0.6517 -0.0095
   89SAPC   H6X 8478   2.500   1.246   5.582 -0.4084  0.4822  1.4530
   89SAPC   H6Y 8479   2.373   1.172   5.474  0.6767  0.0369 -0.7992
   89SAPC   C37 8480   2.520   1.033   5.522 -0.0989 -0.2047 -0.1106
   89SAPC   H7X 8481   2.448   0.949   5.538  0.9606 -1.2336 -0.6031
   89SAPC   H7Y 8482   2.609   1.011   5.584  0.4793  2.9580  0.2985
   89SAPC   C38 8483   2.575   1.048   5.383  0.2399 -0.4987 -0.5169
   89SAPC   H8X 8484   2.645   1.134   5.376 -0.2530 -0.2057 -4.4637
   89SAPC   H8Y 8485   2.493   1.057   5.309  0.5933 -0.9538 -0.9825
   89SAPC   C39 8486   2.672   0.926   5.347  0.0797 -0.0130 -1.3306
   89SAPC   H9X 8487   2.627   0.830   5.381  0.6954  0.5206  1.1760
   89SAPC   H9Y 8488   2.759   0.948   5.412 -1.0960  2.2273 -0.3869
   89SAPC  C310 8489   2.730   0.923   5.208 -0.0624 -0.6755 -0.2813
   89SAPC  H10X 8490   2.802   0.839   5.201  0.0263 -0.8348  1.9018
   89SAPC  H10Y 8491   2.778   1.022   5.191 -0.9598 -0.4576 -1.7269
   89SAPC  C311 8492   2.631   0.902   5.094 -0.0976  0.1298  0.7752
   89SAPC  H11X 8493   2.544   0.968   5.113 -1.3724 -1.4442  0.5718
   89SAPC  H11Y 8494   2.599   0.797   5.111 -0.6960  0.0327 -0.7914
   89SAPC  C312 8495   2.688   0.926   4.956 -0.7759  0.0803  0.3552
   89SAPC  H12X 8496   2.776   0.859   4.945 -2.5526 -2.7182  1.8776
   89SAPC  H12Y 8497   2.731   1.028   4.961  0.7393 -0.5881  2.2163
   89SAPC  C313 8498   2.596   0.907   4.838  0.1222 -0.4199 -0.1083
   89SAPC  H13X 8499   2.523   0.991   4.828  2.0295  1.4449  0.7479
   89SAPC  H13Y 8500   2.531   0.820   4.861  0.3293 -0.5651 -0.0704
   89SAPC  C314 8501   2.672   0.899   4.708  0.3091 -0.2821 -0.0641
   89SAPC  H14X 8502   2.759   0.831   4.718  2.1729  1.8706 -0.7840
   89SAPC  H14Y 8503   2.729   0.994   4.694 -0.2059  0.1351  0.6098
   89SAPC  C315 8504   2.591   0.854   4.588  0.7920 -0.6130  0.5337
   89SAPC  H15X 8505   2.564   0.747   4.600 -1.2182  0.0435  2.8424
   89SAPC  H15Y 8506   2.652   0.862   4.496  1.0121 -1.0900  0.6355
   89SAPC  C316 8507   2.474   0.958   4.571  0.9613 -0.0022 -0.3324
   89SAPC  H16X 8508   2.517   1.057   4.597  0.6483  0.5748 -1.8861
   89SAPC  H16Y 8509   2.401   0.929   4.650 -0.2997  2.3366 -0.5610
   89SAPC  C317 8510   2.419   0.973   4.430 -0.3519  0.5604  0.1406
   89SAPC  H17X 8511   2.498   1.021   4.369  0.1632  0.1818  0.5038
   89SAPC  H17Y 8512   2.351   1.060   4.420  0.0136  0.6219 -2.3526
   89SAPC  C318 8513   2.365   0.839   4.367  0.3185 -0.8535 -0.2088
   89SAPC  H18X 8514   2.313   0.864   4.273  1.2385 -0.5986 -0.6649
   89SAPC  H18Y 8515   2.290   0.786   4.429  0.7308 -2.3064 -0.9081
   89SAPC  H18Z 8516   2.455   0.778   4.341  0.7890 -1.1656  1.9151
   90SAPC     N 8517   5.479   5.395   6.585 -0.3239 -0.0717 -1.1156
   90SAPC   C12 8518   5.431   5.275   6.496  0.1556  0.1856  0.2540
   90SAPC  H12A 8519   5.350   5.310   6.434 -1.2473  2.3348  3.0640
   90SAPC  H12B 8520   5.373   5.215   6.565  1.3966  0.4802  1.6192
   90SAPC   C13 8521   5.557   5.486   6.510  0.1850  0.1556  0.0217
   90SAPC  H13A 8522   5.499   5.522   6.426 -0.4745  1.3212  0.9447
   90SAPC  H13B 8523   5.596   5.565   6.572  0.5753 -1.2351  1.5984
   90SAPC  H13C 8524   5.636   5.433   6.458  0.0920 -0.0665  0.1072
   90SAPC   C14 8525   5.351   5.451   6.646  0.3932  0.1011 -0.3540
   90SAPC  H14A 8526   5.295   5.374   6.698  1.2580 -0.2455  0.0719
   90SAPC  H14B 8527   5.391   5.511   6.726  3.1825 -1.4847 -0.4294
   90SAPC  H14C 8528   5.289   5.499   6.571 -2.6873 -0.9903  1.2918
   90SAPC   C15 8529   5.570   5.336   6.694  0.1878  0.2399  0.3719
   90SAPC  H15A 8530   5.648   5.274   6.651  0.9165  0.0566  1.8880
   90SAPC  H15B 8531   5.613   5.423   6.741  0.6789 -0.2673  0.8750
   90SAPC  H15C 8532   5.516   5.280   6.769  0.4743  0.8415  1.0343
   90SAPC   C11 8533   5.536   5.200   6.413 -0.2212 -0.2804 -0.0948
   90SAPC  H11A 8534   5.618   5.263   6.372  0.0882 -1.2480 -1.0068
   90SAPC  H11B 8535   5.503   5.153   6.318 -0.1310 -0.7547  0.1046
   90SAPC     P 8536   5.733   5.061   6.530 -0.2663  0.1166  0.3789
   90SAPC   O13 8537   5.777   5.132   6.650 -0.2140 -0.1777  0.0180
   90SAPC   O14 8538   5.762   4.912   6.523  0.1513 -0.4893  0.5705
   90SAPC   O12 8539   5.582   5.085   6.493  0.0030 -0.1086 -0.1840
   90SAPC   O11 8540   5.801   5.136   6.414 -0.2910  0.3332  0.0516
   90SAPC    C1 8541   5.904   5.064   6.343 -0.3173 -0.4881 -0.3549
   90SAPC    HA 8542   5.986   5.134   6.319 -0.4262 -0.1837  0.1361
   90SAPC    HB 8543   5.952   4.988   6.408  2.8510  1.9772  0.4162
   90SAPC    C2 8544   5.859   5.019   6.207  0.3256 -0.3002 -0.4647
   90SAPC    HS 8545   5.951   4.986   6.154 -0.5117 -0.9659 -1.5628
   90SAPC   O21 8546   5.796   5.126   6.136 -0.0825 -0.3964 -0.4112
   90SAPC   C21 8547   5.880   5.204   6.076  0.4135  0.3228  0.0844
   90SAPC   O22 8548   6.000   5.204   6.083 -0.2183  0.0222 -0.3344
   90SAPC   C22 8549   5.806   5.299   5.975  0.0058 -0.5403 -0.6708
   90SAPC   H2R 8550   5.846   5.402   5.990 -3.5991  1.0792 -1.0759
   90SAPC   H2S 8551   5.822   5.258   5.873  1.3994  1.7323 -1.4443
   90SAPC    C3 8552   5.768   4.890   6.202  0.1471 -0.1553  0.5031
   90SAPC    HX 8553   5.676   4.936   6.244 -1.5003  0.6564 -3.5448
   90SAPC    HY 8554   5.810   4.817   6.274 -0.2533  0.8005  1.7447
   90SAPC   O31 8555   5.757   4.842   6.069 -0.6206  0.0404 -0.1355
   90SAPC   C31 8556   5.638   4.839   6.025 -0.1822 -0.0986  0.0370
   90SAPC   O32 8557   5.537   4.882   6.073  0.3547  0.2301  0.3374
   90SAPC   C32 8558   5.646   4.771   5.886 -0.0825 -0.1828  0.3429
   90SAPC   H2X 8559   5.536   4.759   5.871 -0.2006 -0.6019  1.3838
   90SAPC   H2Y 8560   5.694   4.671   5.896  0.7323  0.0448 -1.0898
   90SAPC   C23 8561   5.649   5.309   5.994 -0.3725  0.4481  0.2683
   90SAPC   H3R 8562   5.621   5.340   6.097 -0.6902  1.0951 -0.0082
   90SAPC   H3S 8563   5.609   5.206   5.978 -0.9122  0.4724  1.3873
   90SAPC   C24 8564   5.576   5.411   5.905  0.1284  1.1939 -0.2951
   90SAPC   H4R 8565   5.468   5.401   5.929  0.1504 -0.5696 -0.8137
   90SAPC   H4S 8566   5.599   5.386   5.799  1.0904 -0.4961  0.2839
   90SAPC   C25 8567   5.614   5.553   5.930  0.2516  1.1647 -0.4858
   90SAPC   H5R 8568   5.592   5.587   6.032 -0.1076 -0.2518 -0.0706
   90SAPC   C26 8569   5.678   5.636   5.841 -0.7653 -0.2169 -0.6292
   90SAPC   H6R 8570   5.706   5.735   5.880  0.6964 -1.3304  1.2774
   90SAPC   C27 8571   5.723   5.607   5.705  0.2361  0.7014  0.0902
   90SAPC   H7R 8572   5.645   5.628   5.629 -0.4159  2.1450  1.0961
   90SAPC   H7S 8573   5.742   5.499   5.690 -1.1833  0.4620 -0.0951
   90SAPC   C28 8574   5.854   5.670   5.664  0.3143 -0.1506 -0.0148
   90SAPC   H8R 8575   5.855   5.780   5.670 -0.1100 -0.1117 -0.5759
   90SAPC   C29 8576   5.952   5.617   5.595 -0.5965  0.8171 -0.0816
   90SAPC   H9R 8577   6.035   5.685   5.569  0.3296  1.1506  3.2864
   90SAPC  C210 8578   5.965   5.470   5.556  0.3088 -0.0655  0.0612
   90SAPC  H10R 8579   6.026   5.464   5.464  1.1710  0.3817  0.5916
   90SAPC  H10S 8580   5.863   5.431   5.533 -0.0857  1.2438 -0.4745
   90SAPC  C211 8581   6.021   5.381   5.664 -0.4705 -0.1988  0.0322
   90SAPC  H11R 8582   6.025   5.417   5.769  1.3450 -1.4456  0.4309
   90SAPC  C212 8583   6.077   5.263   5.632  0.1093  0.4770  0.1242
   90SAPC  H12R 8584   6.132   5.203   5.705  0.8783 -1.3340 -1.8348
   90SAPC  C213 8585   6.092   5.200   5.497 -0.8564 -0.2834  0.1662
   90SAPC  H13R 8586   6.194   5.158   5.492  0.0969  1.9572 -0.1923
   90SAPC  H13S 8587   6.083   5.268   5.410  0.7187 -0.2597 -0.0065
   90SAPC  C214 8588   5.988   5.093   5.477 -0.1117  0.5923 -0.0806
   90SAPC  H14R 8589   5.930   5.063   5.565 -1.8948  1.0229 -1.0650
   90SAPC  C215 8590   5.964   5.034   5.358 -0.0277 -0.4134 -0.2718
   90SAPC  H15R 8591   5.885   4.958   5.351  0.3228 -0.8239  0.1533
   90SAPC  C216 8592   6.019   5.066   5.222  0.2961 -0.1234  0.5361
   90SAPC  H16R 8593   6.053   4.972   5.173 -0.8589 -0.9229  1.2143
   90SAPC  H16S 8594   6.116   5.117   5.208 -0.2618  0.4255 -1.6625
   90SAPC  C217 8595   5.913   5.129   5.125 -0.3309 -0.3470  0.0331
   90SAPC  H17R 8596   5.817   5.076   5.144  1.0002 -1.9713  3.0360
   90SAPC  H17S 8597   5.941   5.102   5.021 -2.5788  0.9943 -0.9936
   90SAPC  C218 8598   5.898   5.276   5.149  0.2098  0.3309 -0.0335
   90SAPC  H18R 8599   6.001   5.315   5.132 -0.1852  1.5365  0.2266
   90SAPC  H18S 8600   5.888   5.305   5.255  2.4783  2.8537 -0.3867
   90SAPC  C219 8601   5.789   5.350   5.070  0.5076 -0.1552 -0.7398
   90SAPC  H19R 8602   5.690   5.314   5.102 -0.6043  1.4658 -2.1534
   90SAPC  H19S 8603   5.785   5.317   4.964 -0.0131 -2.7094  0.0158
   90SAPC  C220 8604   5.789   5.496   5.095 -0.3783  0.0089 -0.4717
   90SAPC  H20R 8605   5.892   5.539   5.093 -0.6977  0.7715 -0.7499
   90SAPC  H20S 8606   5.735   5.518   5.189 -0.5274 -0.2445 -0.4986
   90SAPC  H20T 8607   5.724   5.547   5.021 -1.3059 -0.2913  0.1267
   90SAPC   C33 8608   5.691   4.868   5.776  0.9124  1.1778  0.9405
   90SAPC   H3X 8609   5.700   4.811   5.681 -0.7613  1.1967  0.7516
   90SAPC   H3Y 8610   5.787   4.921   5.795  1.6137  0.2607  0.0716
   90SAPC   C34 8611   5.576   4.973   5.753 -0.2934 -0.7087 -0.1142
   90SAPC   H4X 8612   5.554   5.037   5.841  0.8171 -0.4315 -0.0238
   90SAPC   H4Y 8613   5.482   4.921   5.723 -0.3157  0.4857 -2.2399
   90SAPC   C35 8614   5.617   5.074   5.643  0.0530  0.5036 -0.0865
   90SAPC   H5X 8615   5.647   5.025   5.548  0.2323  1.8368 -0.7393
   90SAPC   H5Y 8616   5.709   5.129   5.674  0.9231  0.4462 -2.3885
   90SAPC   C36 8617   5.523   5.183   5.609 -0.3234 -0.2076 -0.5645
   90SAPC   H6X 8618   5.512   5.252   5.695 -0.2977 -0.4203 -0.3909
   90SAPC   H6Y 8619   5.425   5.145   5.572 -1.0599  0.2687  0.8356
   90SAPC   C37 8620   5.585   5.263   5.495  0.8226 -0.4386 -0.3554
   90SAPC   H7X 8621   5.643   5.204   5.422  0.3232 -0.5658 -0.6579
   90SAPC   H7Y 8622   5.662   5.329   5.541  0.5800  1.2780 -2.2316
   90SAPC   C38 8623   5.483   5.343   5.418  0.3649  0.2680  0.3307
   90SAPC   H8X 8624   5.534   5.419   5.354  2.3591  0.4173  1.9983
   90SAPC   H8Y 8625   5.415   5.401   5.483  0.8900 -1.2439  2.3210
   90SAPC   C39 8626   5.395   5.260   5.325  0.3024  0.0900  0.2464
   90SAPC   H9X 8627   5.332   5.187   5.382  1.7236 -2.6868 -1.5004
   90SAPC   H9Y 8628   5.460   5.206   5.253 -0.2354  0.2734 -0.3828
   90SAPC  C310 8629   5.295   5.343   5.249  0.4526 -0.4767  0.4236
   90SAPC  H10X 8630   5.248   5.424   5.308  1.8530  0.8263 -0.1949
   90SAPC  H10Y 8631   5.214   5.273   5.219 -0.0579  0.7896 -1.2918
   90SAPC  C311 8632   5.346   5.407   5.120 -0.2786  0.1606  0.5536
   90SAPC  H11X 8633   5.444   5.453   5.144  0.1298 -0.6547  0.4902
   90SAPC  H11Y 8634   5.277   5.479   5.072 -0.7790 -2.0054 -2.2548
   90SAPC  C312 8635   5.379   5.298   5.013  0.4749 -0.6310 -0.5173
   90SAPC  H12X 8636   5.292   5.230   5.013 -0.3247  0.3238  0.8545
   90SAPC  H12Y 8637   5.463   5.236   5.049  0.3734 -1.0455 -0.9968
   90SAPC  C313 8638   5.409   5.359   4.871 -0.0202 -0.1892  0.6827
   90SAPC  H13X 8639   5.460   5.271   4.826 -0.0547 -0.3652  0.9929
   90SAPC  H13Y 8640   5.478   5.446   4.864 -1.4140  0.9235  0.4455
   90SAPC  C314 8641   5.286   5.398   4.784  0.5432  0.1046  0.0204
   90SAPC  H14X 8642   5.224   5.467   4.845  0.7526  2.5691 -2.3339
   90SAPC  H14Y 8643   5.226   5.309   4.755  0.2707  1.0281 -2.5135
   90SAPC  C315 8644   5.329   5.463   4.656 -0.7393 -0.1913  0.0141
   90SAPC  H15X 8645   5.395   5.405   4.588 -1.3184  1.1117 -1.7329
   90SAPC  H15Y 8646   5.395   5.550   4.676  0.4527 -1.2463  0.8407
   90SAPC  C316 8647   5.203   5.509   4.574 -0.0480 -0.1823 -0.4347
   90SAPC  H16X 8648   5.151   5.591   4.629 -1.5251 -2.4795  1.8549
   90SAPC  H16Y 8649   5.125   5.431   4.564 -0.3368  0.3386 -2.6434
   90SAPC  C317 8650   5.226   5.560   4.428  0.0799  0.4244 -0.5386
   90SAPC  H17X 8651   5.265   5.479   4.363 -0.8547  0.4179 -1.1096
   90SAPC  H17Y 8652   5.310   5.631   4.439  1.3363 -1.1311  0.3440
   90SAPC  C318 8653   5.112   5.620   4.366 -0.1288  0.2601 -0.1786
   90SAPC  H18X 8654   5.131   5.626   4.257 -1.1791 -3.9705 -0.7714
   90SAPC  H18Y 8655   5.093   5.725   4.399  0.5549 -0.0006  1.1557
   90SAPC  H18Z 8656   5.021   5.557   4.376  2.1496 -3.4102 -0.6758
   91SAPC     N 8657   0.264   5.636   6.936  0.2590  0.0665  0.0886
   91SAPC   C12 8658   0.407   5.588   6.949  1.0270  0.3408 -0.9023
   91SAPC  H12A 8659   0.419   5.507   6.878 -2.7490 -2.5484  1.3261
   91SAPC  H12B 8660   0.420   5.548   7.048  0.8959 -1.0188 -1.4135
   91SAPC   C13 8661   0.168   5.521   6.970  0.7777 -0.3196  0.3311
   91SAPC  H13A 8662   0.064   5.544   6.952  0.7247 -0.9728 -0.2522
   91SAPC  H13B 8663   0.193   5.436   6.908  1.2208  0.1104 -0.0894
   91SAPC  H13C 8664   0.180   5.488   7.072  1.4718 -0.0486  0.3439
   91SAPC   C14 8665   0.234   5.746   7.035  0.1812  0.0780  0.0602
   91SAPC  H14A 8666   0.307   5.823   7.015 -0.3752  1.1333  1.8733
   91SAPC  H14B 8667   0.139   5.793   7.017  2.0290  3.3056 -2.4078
   91SAPC  H14C 8668   0.241   5.720   7.140  2.8719  1.2135  0.2376
   91SAPC   C15 8669   0.236   5.680   6.794  0.0839 -0.3793 -0.5627
   91SAPC  H15A 8670   0.131   5.704   6.788  0.1621  0.9974  1.9583
   91SAPC  H15B 8671   0.298   5.768   6.778  1.0475 -0.9295  0.0145
   91SAPC  H15C 8672   0.263   5.605   6.721 -0.6818 -0.1151 -1.1209
   91SAPC   C11 8673   0.514   5.698   6.929  0.0373  0.0420 -0.0282
   91SAPC  H11A 8674   0.614   5.650   6.936  0.2693  0.5984  0.5991
   91SAPC  H11B 8675   0.513   5.776   7.008  1.6164 -1.8914  2.0435
   91SAPC     P 8676   0.562   5.899   6.774  0.0331 -0.1176 -0.0921
   91SAPC   O13 8677   0.451   5.995   6.799  0.8215  0.4219 -0.6996
   91SAPC   O14 8678   0.691   5.919   6.841  0.0262 -0.3656 -0.2506
   91SAPC   O12 8679   0.514   5.748   6.797  0.5534  0.2069  0.7610
   91SAPC   O11 8680   0.596   5.909   6.617 -0.0658 -0.3261 -0.1460
   91SAPC    C1 8681   0.495   5.886   6.521 -0.4111 -0.5103 -0.5725
   91SAPC    HA 8682   0.469   5.778   6.511  0.0897 -0.8361  1.2657
   91SAPC    HB 8683   0.402   5.942   6.546 -1.0884 -2.1060  0.7234
   91SAPC    C2 8684   0.549   5.937   6.381  0.2120 -0.0790 -0.0691
   91SAPC    HS 8685   0.458   5.959   6.322  0.7636 -1.3154 -1.4621
   91SAPC   O21 8686   0.637   5.840   6.322  0.2952 -0.4728  0.3069
   91SAPC   C21 8687   0.573   5.730   6.292  0.3536  0.2420 -0.5567
   91SAPC   O22 8688   0.450   5.715   6.287 -0.4040 -0.3569 -0.4509
   91SAPC   C22 8689   0.668   5.614   6.253 -1.2612 -0.1237 -0.1428
   91SAPC   H2R 8690   0.660   5.586   6.145 -0.3333  0.7576 -0.4548
   91SAPC   H2S 8691   0.773   5.633   6.283 -0.3626 -4.9848  0.6343
   91SAPC    C3 8692   0.621   6.077   6.392 -1.2407 -0.0623  0.3579
   91SAPC    HX 8693   0.724   6.063   6.429  0.2419  0.7700 -3.0392
   91SAPC    HY 8694   0.556   6.131   6.464 -1.4497 -0.9482  0.8396
   91SAPC   O31 8695   0.624   6.150   6.261 -0.9842  0.2784 -0.0794
   91SAPC   C31 8696   0.718   6.242   6.266 -0.1470  0.0209  0.7637
   91SAPC   O32 8697   0.787   6.270   6.368 -0.9213  0.0783  0.4426
   91SAPC   C32 8698   0.734   6.316   6.132  0.3687  0.0812 -0.2320
   91SAPC   H2X 8699   0.665   6.402   6.119 -1.7782 -1.4801  0.2263
   91SAPC   H2Y 8700   0.712   6.255   6.042  1.0636 -1.0144  0.3175
   91SAPC   C23 8701   0.649   5.486   6.336 -0.3824  0.6622 -0.0593
   91SAPC   H3R 8702   0.543   5.473   6.366 -0.4278 -1.5644 -1.0451
   91SAPC   H3S 8703   0.708   5.504   6.429 -1.1517  1.0984  0.3613
   91SAPC   C24 8704   0.695   5.355   6.269 -0.0087  0.9647  0.0357
   91SAPC   H4R 8705   0.613   5.329   6.198  0.1969 -1.3622  0.5788
   91SAPC   H4S 8706   0.686   5.275   6.345 -1.2781  0.9810 -0.0732
   91SAPC   C25 8707   0.838   5.378   6.214  0.1737  1.3886 -0.1876
   91SAPC   H5R 8708   0.902   5.410   6.299 -1.5998 -1.0578  2.2528
   91SAPC   C26 8709   0.888   5.373   6.090 -0.1841 -0.1146 -0.0235
   91SAPC   H6R 8710   0.993   5.398   6.068  0.4762  0.3090  3.1408
   91SAPC   C27 8711   0.817   5.335   5.958 -0.5430  0.3959  0.2170
   91SAPC   H7R 8712   0.863   5.393   5.875  1.0729  0.3921  1.0659
   91SAPC   H7S 8713   0.710   5.364   5.969 -1.7462 -3.5217  0.5800
   91SAPC   C28 8714   0.830   5.183   5.936  0.4441  0.6054 -0.1045
   91SAPC   H8R 8715   0.842   5.133   6.034 -3.2280 -0.9222 -0.2949
   91SAPC   C29 8716   0.844   5.114   5.821  0.1650  0.0961 -0.4378
   91SAPC   H9R 8717   0.851   5.004   5.820  0.9595 -0.0951 -6.4579
   91SAPC  C210 8718   0.844   5.164   5.682 -0.0946  0.1985 -0.4437
   91SAPC  H10R 8719   0.936   5.127   5.632  1.7253  0.4270  2.4914
   91SAPC  H10S 8720   0.869   5.271   5.692  1.8956 -0.0579 -2.0042
   91SAPC  C211 8721   0.716   5.135   5.605 -0.5567 -0.7065 -0.9188
   91SAPC  H11R 8722   0.622   5.100   5.648  0.4072 -0.8865  1.1994
   91SAPC  C212 8723   0.715   5.141   5.466  0.3333 -0.2538  0.0801
   91SAPC  H12R 8724   0.616   5.125   5.420 -0.0270  1.0925  0.3292
   91SAPC  C213 8725   0.826   5.179   5.372 -0.1360  0.7058 -0.2427
   91SAPC  H13R 8726   0.817   5.122   5.277  0.3808  0.2401 -0.0159
   91SAPC  H13S 8727   0.922   5.144   5.416 -1.4446 -0.8696  1.5009
   91SAPC  C214 8728   0.838   5.327   5.351  0.7288 -0.5001  0.4393
   91SAPC  H14R 8729   0.793   5.388   5.430  0.1274  0.7717 -0.8521
   91SAPC  C215 8730   0.894   5.387   5.245  0.6780  0.1626  0.0191
   91SAPC  H15R 8731   0.907   5.496   5.257 -0.6314  0.6256 -2.2850
   91SAPC  C216 8732   0.951   5.311   5.124 -0.4848 -0.3028 -0.3373
   91SAPC  H16R 8733   0.877   5.314   5.040  1.3963 -0.5434 -2.0729
   91SAPC  H16S 8734   0.962   5.202   5.144 -2.6154 -0.1574  2.1179
   91SAPC  C217 8735   1.084   5.371   5.097  0.7248 -0.3957  0.8130
   91SAPC  H17R 8736   1.163   5.358   5.174 -0.8853  0.6200  2.7111
   91SAPC  H17S 8737   1.073   5.479   5.075 -1.6233  0.1257  3.9079
   91SAPC  C218 8738   1.133   5.312   4.963 -0.1948  0.4823  0.3601
   91SAPC  H18R 8739   1.062   5.337   4.882  1.3248  0.1905 -1.1347
   91SAPC  H18S 8740   1.126   5.201   4.970  0.1552  0.1255 -3.1311
   91SAPC  C219 8741   1.281   5.343   4.923 -0.1010 -0.0992 -0.0704
   91SAPC  H19R 8742   1.343   5.314   5.010 -0.7625 -0.3995  0.3069
   91SAPC  H19S 8743   1.305   5.450   4.905 -1.0677  0.3284  1.0319
   91SAPC  C220 8744   1.327   5.268   4.798  0.0945  0.4667  0.5532
   91SAPC  H20R 8745   1.265   5.311   4.716 -0.0830 -1.7663 -0.5527
   91SAPC  H20S 8746   1.297   5.162   4.815 -0.1488  0.4645  0.1082
   91SAPC  H20T 8747   1.435   5.280   4.773  0.2453  0.2688  1.0952
   91SAPC   C33 8748   0.885   6.356   6.124  0.4550  0.4328  0.0357
   91SAPC   H3X 8749   0.956   6.271   6.116  2.8918  2.1284  2.2032
   91SAPC   H3Y 8750   0.924   6.419   6.206 -0.0862  2.3454 -1.1256
   91SAPC   C34 8751   0.913   6.438   5.999 -0.1249 -0.0805  0.4706
   91SAPC   H4X 8752   0.866   6.539   5.998 -1.5815 -0.6990 -1.7978
   91SAPC   H4Y 8753   0.878   6.380   5.911  0.8851  1.1008 -0.7606
   91SAPC   C35 8754   1.062   6.458   5.975 -0.1816 -0.4551 -0.1266
   91SAPC   H5X 8755   1.121   6.465   6.069 -0.4402  2.0132 -0.1007
   91SAPC   H5Y 8756   1.068   6.563   5.940 -1.0312  0.2178  1.6292
   91SAPC   C36 8757   1.137   6.375   5.868  0.4632  0.6179  0.7909
   91SAPC   H6X 8758   1.241   6.410   5.852  0.1216  1.1297 -0.4442
   91SAPC   H6Y 8759   1.084   6.394   5.772  1.4976 -1.5359 -0.2828
   91SAPC   C37 8760   1.151   6.227   5.909  0.0659 -0.0501  0.2534
   91SAPC   H7X 8761   1.051   6.184   5.887 -0.2177  1.9062 -2.8564
   91SAPC   H7Y 8762   1.170   6.214   6.018 -0.4346 -0.9717  0.2352
   91SAPC   C38 8763   1.258   6.156   5.834  0.1767  0.9664 -0.0130
   91SAPC   H8X 8764   1.248   6.051   5.869  0.9879  0.4231 -1.3292
   91SAPC   H8Y 8765   1.361   6.184   5.865  0.1961  0.7280  0.1423
   91SAPC   C39 8766   1.253   6.141   5.677 -0.2997  0.3986 -0.0695
   91SAPC   H9X 8767   1.252   6.243   5.634  0.4222  0.2629 -0.4177
   91SAPC   H9Y 8768   1.151   6.104   5.651  0.8075 -1.4967 -2.0027
   91SAPC  C310 8769   1.376   6.063   5.625 -0.0012  0.4955  1.1689
   91SAPC  H10X 8770   1.398   5.971   5.682 -1.0736 -1.0297 -0.7537
   91SAPC  H10Y 8771   1.458   6.134   5.650  0.5407  0.7847 -1.1883
   91SAPC  C311 8772   1.374   6.027   5.474  0.8568 -0.1600  0.5035
   91SAPC  H11X 8773   1.287   6.079   5.429 -0.3510 -1.3540  1.3708
   91SAPC  H11Y 8774   1.373   5.916   5.472  1.3243 -0.1611 -0.9643
   91SAPC  C312 8775   1.495   6.071   5.401  0.0410 -0.2030 -0.3329
   91SAPC  H12X 8776   1.586   6.037   5.455 -1.1968 -1.1371  1.2455
   91SAPC  H12Y 8777   1.501   6.181   5.387  2.8016 -0.2121  0.1830
   91SAPC  C313 8778   1.498   6.003   5.260  0.0456 -0.0007  1.0076
   91SAPC  H13X 8779   1.402   6.028   5.211  0.1037  0.6457  1.2142
   91SAPC  H13Y 8780   1.502   5.893   5.274  2.8398 -0.2906 -1.1749
   91SAPC  C314 8781   1.612   6.053   5.169  0.1382  0.5578  0.3048
   91SAPC  H14X 8782   1.707   6.018   5.215 -0.6303 -0.9351  0.8486
   91SAPC  H14Y 8783   1.604   6.162   5.152 -0.9139  0.8771  2.5025
   91SAPC  C315 8784   1.601   5.977   5.034 -0.3952  0.2424 -0.2355
   91SAPC  H15X 8785   1.516   6.018   4.976 -0.1920  1.2742  0.1765
   91SAPC  H15Y 8786   1.576   5.870   5.054 -0.3504  0.2938  0.0956
   91SAPC  C316 8787   1.731   5.975   4.954 -0.2974 -0.7074 -0.2108
   91SAPC  H16X 8788   1.791   5.895   5.002 -0.1622  0.2772  1.3212
   91SAPC  H16Y 8789   1.783   6.072   4.962 -0.2130 -0.8947  2.0270
   91SAPC  C317 8790   1.709   5.955   4.804 -0.3490 -0.2969  0.2317
   91SAPC  H17X 8791   1.639   6.031   4.762  2.4966  1.5017 -1.7150
   91SAPC  H17Y 8792   1.669   5.856   4.774  0.9615 -1.1248  1.0950
   91SAPC  C318 8793   1.832   5.981   4.716 -0.1698  0.0510 -0.5268
   91SAPC  H18X 8794   1.805   5.957   4.611 -0.8901  0.3562 -0.4176
   91SAPC  H18Y 8795   1.914   5.915   4.753  1.3536  1.7198 -0.7608
   91SAPC  H18Z 8796   1.858   6.087   4.737  1.2788 -0.9768  4.2078
   92SAPC     N 8797   0.895   3.555   6.609  0.1932  0.0790 -0.3346
   92SAPC   C12 8798   0.935   3.578   6.463  0.1087  0.0950  0.4364
   92SAPC  H12A 8799   1.021   3.644   6.455  0.2009 -0.0830 -0.1070
   92SAPC  H12B 8800   0.867   3.654   6.428  0.8522  1.0445  0.9898
   92SAPC   C13 8801   0.751   3.530   6.623  0.6311  0.5562 -0.3793
   92SAPC  H13A 8802   0.684   3.603   6.578 -1.5745 -1.6405 -0.8839
   92SAPC  H13B 8803   0.709   3.442   6.577 -0.7375  2.4244 -3.0184
   92SAPC  H13C 8804   0.731   3.531   6.729  2.7314  1.5088  0.0445
   92SAPC   C14 8805   0.956   3.429   6.672  0.1963 -0.7515  0.8906
   92SAPC  H14A 8806   1.063   3.438   6.686  0.7311 -1.4545 -1.9857
   92SAPC  H14B 8807   0.899   3.394   6.756 -3.6884  0.5160 -0.9829
   92SAPC  H14C 8808   0.947   3.353   6.596  0.3470 -2.8074  2.8270
   92SAPC   C15 8809   0.928   3.672   6.701 -0.0448 -0.7864 -0.8507
   92SAPC  H15A 8810   0.882   3.759   6.657  0.6022 -0.4491 -0.8663
   92SAPC  H15B 8811   0.905   3.658   6.805  0.1952  1.3638 -0.4768
   92SAPC  H15C 8812   1.036   3.675   6.697 -0.0543 -1.0419 -1.5448
   92SAPC   C11 8813   0.948   3.459   6.363 -0.0549  1.1017  0.5770
   92SAPC  H11A 8814   0.980   3.504   6.266 -1.9585  0.7506 -0.2686
   92SAPC  H11B 8815   0.845   3.425   6.339  0.6402  0.6626 -2.2058
   92SAPC     P 8816   1.179   3.335   6.379  0.0845 -0.0197  0.1640
   92SAPC   O13 8817   1.253   3.436   6.459  0.2161  0.2788 -0.6140
   92SAPC   O14 8818   1.215   3.190   6.393 -0.3346  0.1828 -0.1245
   92SAPC   O12 8819   1.024   3.348   6.409 -0.3339  0.6593  0.0132
   92SAPC   O11 8820   1.185   3.383   6.235  0.4056  0.1135 -0.2062
   92SAPC    C1 8821   1.285   3.336   6.148 -0.0468 -0.0042  0.8370
   92SAPC    HA 8822   1.386   3.376   6.169  0.3888 -0.4228 -0.3670
   92SAPC    HB 8823   1.281   3.225   6.150 -3.2675  0.0191  1.6537
   92SAPC    C2 8824   1.247   3.379   6.003  0.4816  0.9430  0.3400
   92SAPC    HS 8825   1.254   3.489   6.009  1.4769  0.8236  2.0365
   92SAPC   O21 8826   1.102   3.355   5.965  0.1431  0.6692  0.3992
   92SAPC   C21 8827   1.072   3.230   5.952  0.4601  0.5599  0.2824
   92SAPC   O22 8828   1.140   3.138   5.969 -0.0428  0.3994 -0.1714
   92SAPC   C22 8829   0.925   3.218   5.932  0.3464 -0.0454 -0.2235
   92SAPC   H2R 8830   0.903   3.109   5.936  1.8589 -0.3504  0.2588
   92SAPC   H2S 8831   0.868   3.261   6.017 -0.9014 -0.4197 -0.8362
   92SAPC    C3 8832   1.344   3.340   5.892  0.3235  0.5986  1.0654
   92SAPC    HX 8833   1.368   3.231   5.897 -1.1902  0.0011 -2.0069
   92SAPC    HY 8834   1.437   3.397   5.911  1.4366 -0.6037 -0.5036
   92SAPC   O31 8835   1.287   3.367   5.756 -0.2308  0.2758 -0.0533
   92SAPC   C31 8836   1.372   3.358   5.660 -0.3450 -0.2985 -0.0314
   92SAPC   O32 8837   1.491   3.325   5.670 -0.1772  0.3672 -0.3389
   92SAPC   C32 8838   1.308   3.375   5.527  0.4804 -0.2617  0.5334
   92SAPC   H2X 8839   1.255   3.282   5.496  0.4839 -0.4595  1.1120
   92SAPC   H2Y 8840   1.387   3.394   5.452  2.3470  0.8298  2.6594
   92SAPC   C23 8841   0.874   3.288   5.801  0.7991  0.1141 -0.0672
   92SAPC   H3R 8842   0.907   3.394   5.810 -2.0440  0.9102  2.8830
   92SAPC   H3S 8843   0.764   3.294   5.812  0.7015 -1.5577  0.1441
   92SAPC   C24 8844   0.909   3.224   5.671 -0.2095  0.4162 -0.2439
   92SAPC   H4R 8845   1.018   3.225   5.649  0.0503 -1.9286  0.6531
   92SAPC   H4S 8846   0.869   3.277   5.582  0.8395  2.1234  0.2406
   92SAPC   C25 8847   0.854   3.081   5.673 -0.4660 -0.8162  0.3727
   92SAPC   H5R 8848   0.785   3.057   5.755  0.6774 -0.1925  1.5534
   92SAPC   C26 8849   0.900   2.987   5.595 -0.2416  0.2006 -0.0117
   92SAPC   H6R 8850   0.844   2.892   5.601 -2.6219  1.4112 -1.4663
   92SAPC   C27 8851   1.002   2.996   5.488 -0.2234  0.2969 -0.1834
   92SAPC   H7R 8852   0.993   3.089   5.428 -1.7126 -0.5034 -1.2752
   92SAPC   H7S 8853   0.987   2.917   5.412 -0.9978 -0.2416  0.5150
   92SAPC   C28 8854   1.139   2.987   5.551  0.3753  0.2336 -0.0686
   92SAPC   H8R 8855   1.147   2.966   5.658  1.3659 -0.2770 -0.2336
   92SAPC   C29 8856   1.259   2.989   5.488 -0.3612  0.0853  0.3524
   92SAPC   H9R 8857   1.340   2.966   5.558 -1.6868 -0.6153  1.7203
   92SAPC  C210 8858   1.280   2.987   5.342 -0.4460 -0.5012  0.8027
   92SAPC  H10R 8859   1.186   3.015   5.290 -0.8834 -0.6930  1.4740
   92SAPC  H10S 8860   1.311   2.887   5.307 -0.9073 -0.1930 -0.5406
   92SAPC  C211 8861   1.386   3.100   5.315 -0.5338 -0.7132 -0.1105
   92SAPC  H11R 8862   1.407   3.169   5.398 -0.2374 -0.6459 -0.2398
   92SAPC  C212 8863   1.435   3.138   5.192 -0.6788  0.4536 -0.2265
   92SAPC  H12R 8864   1.515   3.213   5.200 -0.8046  0.4627  1.1859
   92SAPC  C213 8865   1.416   3.064   5.059 -1.1287 -0.2758 -0.0993
   92SAPC  H13R 8866   1.413   2.957   5.086 -0.8009  0.6647  4.5508
   92SAPC  H13S 8867   1.513   3.073   5.006  0.3826 -0.6240  2.4225
   92SAPC  C214 8868   1.290   3.121   4.991 -0.1148  0.3543  0.1116
   92SAPC  H14R 8869   1.208   3.112   5.064  0.9297 -1.3901  1.1367
   92SAPC  C215 8870   1.285   3.161   4.866  0.5751 -0.3453  0.0849
   92SAPC  H15R 8871   1.193   3.216   4.842  1.5125  1.5474  0.6025
   92SAPC  C216 8872   1.391   3.144   4.757  0.2007 -0.5529 -0.4652
   92SAPC  H16R 8873   1.442   3.046   4.775 -0.9457 -1.1865 -0.5915
   92SAPC  H16S 8874   1.469   3.220   4.777 -0.7431  0.3290 -0.0334
   92SAPC  C217 8875   1.344   3.154   4.614 -0.0127  0.0062  0.2553
   92SAPC  H17R 8876   1.267   3.074   4.606  0.3515 -0.2473 -0.8993
   92SAPC  H17S 8877   1.425   3.126   4.544 -1.3571  0.0391 -1.3603
   92SAPC  C218 8878   1.299   3.295   4.563  0.1433  0.6082 -0.0908
   92SAPC  H18R 8879   1.388   3.361   4.574 -0.1428  0.8145  1.2466
   92SAPC  H18S 8880   1.229   3.341   4.636 -0.3722 -0.6306  0.2354
   92SAPC  C219 8881   1.240   3.297   4.420 -0.8247  0.4432  0.4057
   92SAPC  H19R 8882   1.171   3.383   4.406 -0.4287  0.7539  0.3542
   92SAPC  H19S 8883   1.172   3.209   4.413 -2.8958  1.9157  1.1612
   92SAPC  C220 8884   1.340   3.284   4.303 -0.4267 -0.8178  0.4264
   92SAPC  H20R 8885   1.393   3.186   4.300  1.6711  0.1683  2.2457
   92SAPC  H20S 8886   1.404   3.375   4.308 -1.9963  0.3401  0.1209
   92SAPC  H20T 8887   1.282   3.289   4.209 -1.5402 -0.3412  1.1120
   92SAPC   C33 8888   1.197   3.489   5.518  0.5878  0.0633  0.6173
   92SAPC   H3X 8889   1.235   3.591   5.540  0.3989 -0.2803  2.7517
   92SAPC   H3Y 8890   1.110   3.466   5.582  0.5240 -2.3113 -0.2034
   92SAPC   C34 8891   1.144   3.513   5.372 -0.2919  1.0118  0.3946
   92SAPC   H4X 8892   1.054   3.577   5.363 -2.0735 -1.4177  0.0162
   92SAPC   H4Y 8893   1.121   3.415   5.325 -1.2452  2.2670 -1.8970
   92SAPC   C35 8894   1.255   3.592   5.295 -0.3170 -0.1176  0.0072
   92SAPC   H5X 8895   1.358   3.562   5.327 -0.6444 -1.9911 -0.5497
   92SAPC   H5Y 8896   1.235   3.699   5.313 -1.0076 -0.2395 -0.0339
   92SAPC   C36 8897   1.254   3.572   5.142  0.4200  0.0723  0.0706
   92SAPC   H6X 8898   1.156   3.607   5.104  0.5673 -0.5560 -0.9300
   92SAPC   H6Y 8899   1.248   3.465   5.113 -0.9403  0.0702  0.3079
   92SAPC   C37 8900   1.365   3.643   5.063  0.1311 -0.0482  0.0477
   92SAPC   H7X 8901   1.458   3.584   5.077 -0.4328 -1.6216 -2.2474
   92SAPC   H7Y 8902   1.384   3.745   5.102  0.7123  0.2205 -0.9098
   92SAPC   C38 8903   1.333   3.636   4.912 -0.3047  0.1472 -0.2362
   92SAPC   H8X 8904   1.251   3.710   4.899 -0.3991  0.7127  2.7765
   92SAPC   H8Y 8905   1.305   3.531   4.891  0.8407 -1.0685  3.4701
   92SAPC   C39 8906   1.442   3.702   4.835 -0.0854 -0.1247  0.3894
   92SAPC   H9X 8907   1.539   3.652   4.857  1.0521  2.0768  0.7289
   92SAPC   H9Y 8908   1.464   3.805   4.871  1.7485 -0.9335  1.7854
   92SAPC  C310 8909   1.416   3.706   4.684 -0.5874  0.1556  0.5921
   92SAPC  H10X 8910   1.325   3.770   4.675  0.3464  1.3660 -0.6554
   92SAPC  H10Y 8911   1.406   3.604   4.642  0.0209  0.9760 -1.6790
   92SAPC  C311 8912   1.528   3.769   4.594 -0.4826 -0.8722 -0.8533
   92SAPC  H11X 8913   1.620   3.708   4.599  1.6444  2.1907  1.4762
   92SAPC  H11Y 8914   1.555   3.870   4.631 -0.8942 -1.0403 -0.0655
   92SAPC  C312 8915   1.484   3.780   4.450  0.1032  0.1332 -0.0296
   92SAPC  H12X 8916   1.546   3.837   4.378 -2.9251  1.2257 -1.9543
   92SAPC  H12Y 8917   1.382   3.822   4.453  0.0214 -0.1082  0.7731
   92SAPC  C313 8918   1.473   3.640   4.395  0.4480 -0.1499  0.5121
   92SAPC  H13X 8919   1.375   3.595   4.421  1.4278 -1.2929  2.4886
   92SAPC  H13Y 8920   1.540   3.561   4.435  0.6138 -1.1583 -1.6135
   92SAPC  C314 8921   1.503   3.632   4.240  0.4628 -0.4446 -1.1520
   92SAPC  H14X 8922   1.541   3.532   4.211  0.8579 -0.2569 -1.2885
   92SAPC  H14Y 8923   1.572   3.715   4.215 -1.1235  1.1113 -0.6294
   92SAPC  C315 8924   1.372   3.666   4.166 -0.8059  1.1041 -0.2387
   92SAPC  H15X 8925   1.322   3.742   4.228 -3.6490 -1.8691  1.4191
   92SAPC  H15Y 8926   1.310   3.574   4.176 -0.7880  0.9374 -1.5183
   92SAPC  C316 8927   1.379   3.725   4.025  0.3904 -0.0785  0.2317
   92SAPC  H16X 8928   1.431   3.646   3.968 -0.7087 -1.6936  1.3842
   92SAPC  H16Y 8929   1.433   3.822   4.015  2.8780 -1.6252 -3.1050
   92SAPC  C317 8930   1.236   3.762   3.964 -0.0997 -0.2457 -0.6218
   92SAPC  H17X 8931   1.186   3.843   4.022  0.6558 -0.5411  0.4804
   92SAPC  H17Y 8932   1.162   3.682   3.985  1.4424 -1.1941  1.5099
   92SAPC  C318 8933   1.243   3.795   3.821 -0.4580  0.1284  0.0500
   92SAPC  H18X 8934   1.144   3.793   3.771 -0.1037 -0.7373 -0.6391
   92SAPC  H18Y 8935   1.300   3.720   3.762 -1.7314 -0.7546 -0.0757
   92SAPC  H18Z 8936   1.294   3.893   3.806  1.3077 -0.3606  2.2079
   93SAPC     N 8937   3.114   4.126   6.692 -0.3284 -0.3274  0.0452
   93SAPC   C12 8938   3.021   4.092   6.576 -0.1524 -1.0227  0.3921
   93SAPC  H12A 8939   3.069   4.023   6.507  0.9428 -2.2251  2.2513
   93SAPC  H12B 8940   2.998   4.189   6.534 -0.0546 -1.1910 -0.0564
   93SAPC   C13 8941   3.054   4.245   6.759 -0.0359  0.5221  0.8437
   93SAPC  H13A 8942   3.053   4.326   6.689  0.1001  0.0408  0.2783
   93SAPC  H13B 8943   2.952   4.232   6.792 -0.6984 -1.2150 -1.6312
   93SAPC  H13C 8944   3.113   4.282   6.842  2.0941 -1.8082  0.5065
   93SAPC   C14 8945   3.126   4.022   6.789  0.6249 -0.2691 -0.4646
   93SAPC  H14A 8946   3.040   4.005   6.852  0.0190  0.3299 -1.1075
   93SAPC  H14B 8947   3.138   3.925   6.743  2.1429  0.3276 -1.3870
   93SAPC  H14C 8948   3.206   4.037   6.860  0.2066 -1.4092  0.2852
   93SAPC   C15 8949   3.248   4.171   6.632  0.5047 -0.3285 -0.7614
   93SAPC  H15A 8950   3.290   4.101   6.561 -0.5821 -2.9254  1.0452
   93SAPC  H15B 8951   3.236   4.266   6.582 -1.7262  0.1052  0.4656
   93SAPC  H15C 8952   3.321   4.187   6.710  0.2247 -1.2667 -0.3000
   93SAPC   C11 8953   2.880   4.026   6.605 -0.4043  0.3578 -0.5763
   93SAPC  H11A 8954   2.911   3.933   6.658 -0.3860  1.1136  0.7583
   93SAPC  H11B 8955   2.832   4.005   6.506 -0.4345 -0.9437 -0.3102
   93SAPC     P 8956   2.690   4.206   6.617 -0.3308  0.3497 -0.1791
   93SAPC   O13 8957   2.560   4.140   6.577 -0.1879  0.2776  0.1820
   93SAPC   O14 8958   2.678   4.321   6.704  0.1165  0.0676  0.0954
   93SAPC   O12 8959   2.787   4.102   6.689 -0.4191 -0.1620  0.2712
   93SAPC   O11 8960   2.769   4.238   6.484  0.1283 -0.0866 -0.2418
   93SAPC    C1 8961   2.718   4.322   6.381  0.2936  0.4671  0.5745
   93SAPC    HA 8962   2.614   4.359   6.395 -0.3064 -0.5374 -0.9600
   93SAPC    HB 8963   2.772   4.418   6.373 -1.1546  1.2173 -0.7549
   93SAPC    C2 8964   2.720   4.255   6.242 -0.4075  0.2036 -0.4647
   93SAPC    HS 8965   2.810   4.193   6.223 -0.0476  0.9224 -1.1998
   93SAPC   O21 8966   2.712   4.353   6.137 -0.0329  0.0437  0.2294
   93SAPC   C21 8967   2.815   4.430   6.122  0.1641 -0.1077 -0.4241
   93SAPC   O22 8968   2.918   4.421   6.187 -0.0247  0.4785  0.2855
   93SAPC   C22 8969   2.776   4.536   6.015 -0.0861  0.5937 -0.7218
   93SAPC   H2R 8970   2.666   4.553   6.025 -0.5038 -1.5395 -1.1769
   93SAPC   H2S 8971   2.842   4.625   6.020  1.0672 -0.1726 -1.6908
   93SAPC    C3 8972   2.593   4.162   6.223 -0.1747  0.5024 -0.0408
   93SAPC    HX 8973   2.506   4.209   6.275  0.4547  1.1435  0.4562
   93SAPC    HY 8974   2.607   4.067   6.280  0.5731 -1.1659 -2.8327
   93SAPC   O31 8975   2.560   4.142   6.084  0.1346 -0.7030  0.1556
   93SAPC   C31 8976   2.573   4.020   6.037 -0.1585 -0.0418 -0.8202
   93SAPC   O32 8977   2.598   3.924   6.102  0.2207 -0.4772  0.4589
   93SAPC   C32 8978   2.513   4.011   5.899 -0.1988 -0.4740  0.2834
   93SAPC   H2X 8979   2.409   4.045   5.918  0.7393  1.4108  2.6328
   93SAPC   H2Y 8980   2.517   3.907   5.862  0.6226 -0.9992  1.7398
   93SAPC   C23 8981   2.792   4.473   5.871 -1.0240  0.4050  0.1055
   93SAPC   H3R 8982   2.822   4.367   5.884 -1.9856  0.0528 -0.4328
   93SAPC   H3S 8983   2.876   4.526   5.821 -0.0874  1.7853  2.9362
   93SAPC   C24 8984   2.668   4.478   5.791  0.2834 -0.0311  0.0703
   93SAPC   H4R 8985   2.581   4.450   5.854 -0.1938  1.2382  0.0128
   93SAPC   H4S 8986   2.678   4.403   5.709 -2.0458  2.0430 -2.3119
   93SAPC   C25 8987   2.644   4.613   5.731  0.3192 -0.0847  0.0032
   93SAPC   H5R 8988   2.620   4.694   5.802 -0.4704  0.3580 -0.7437
   93SAPC   C26 8989   2.636   4.644   5.599 -0.3884 -0.2603  0.3299
   93SAPC   H6R 8990   2.647   4.753   5.584 -0.9451 -0.3139 -0.5104
   93SAPC   C27 8991   2.641   4.560   5.472 -0.2253  0.0727  0.3730
   93SAPC   H7R 8992   2.636   4.451   5.492  1.9215  0.2365  2.1513
   93SAPC   H7S 8993   2.738   4.591   5.428  0.1574  1.4068  2.0769
   93SAPC   C28 8994   2.528   4.603   5.384  0.3354 -0.1531  0.8017
   93SAPC   H8R 8995   2.432   4.559   5.411  0.1504 -0.4629 -0.3149
   93SAPC   C29 8996   2.538   4.699   5.286  0.3374 -0.0101  0.9293
   93SAPC   H9R 8997   2.449   4.735   5.233  0.2379 -0.4104  0.8189
   93SAPC  C210 8998   2.665   4.761   5.239  0.0598 -0.4425  0.2375
   93SAPC  H10R 8999   2.720   4.712   5.156  2.8753  2.6180  0.0955
   93SAPC  H10S 9000   2.740   4.763   5.321  2.1603 -1.5573 -1.5548
   93SAPC  C211 9001   2.654   4.907   5.203 -0.3545 -0.7327  0.6207
   93SAPC  H11R 9002   2.635   4.975   5.287 -1.1790 -1.2276  0.8458
   93SAPC  C212 9003   2.701   4.956   5.080  0.5237 -0.0973 -0.4949
   93SAPC  H12R 9004   2.671   5.055   5.042 -1.4558 -0.9321 -1.2710
   93SAPC  C213 9005   2.745   4.870   4.970  0.0192  0.3632  1.2383
   93SAPC  H13R 9006   2.802   4.785   5.014 -1.0382 -1.3106 -0.4700
   93SAPC  H13S 9007   2.822   4.918   4.906  0.3176 -0.4453  0.9716
   93SAPC  C214 9008   2.625   4.808   4.894  0.7629  0.8668 -0.4581
   93SAPC  H14R 9009   2.557   4.748   4.957  3.4031 -2.0408 -0.1442
   93SAPC  C215 9010   2.593   4.807   4.765 -0.0721  0.1038  0.3207
   93SAPC  H15R 9011   2.505   4.753   4.724 -0.2832 -0.0724  1.0007
   93SAPC  C216 9012   2.671   4.874   4.658 -0.4907  0.3198 -0.5380
   93SAPC  H16R 9013   2.751   4.811   4.613  0.6516  1.0639  0.4128
   93SAPC  H16S 9014   2.720   4.967   4.693 -0.9987  0.2786  0.3132
   93SAPC  C217 9015   2.565   4.919   4.556  0.2448  0.7648 -0.1529
   93SAPC  H17R 9016   2.481   4.966   4.611 -1.2090 -0.5669 -1.1387
   93SAPC  H17S 9017   2.536   4.844   4.480  1.1217  0.8271 -0.5583
   93SAPC  C218 9018   2.615   5.032   4.465 -0.1750 -0.2916 -0.0529
   93SAPC  H18R 9019   2.548   5.059   4.381 -1.4487 -2.9740 -0.0046
   93SAPC  H18S 9020   2.714   5.006   4.421 -0.0363 -1.3339  0.8310
   93SAPC  C219 9021   2.636   5.172   4.530 -0.5157 -0.0966  0.2217
   93SAPC  H19R 9022   2.703   5.230   4.462  0.7364 -0.0323  1.4763
   93SAPC  H19S 9023   2.684   5.157   4.629  0.5138 -0.0417 -0.2559
   93SAPC  C220 9024   2.514   5.257   4.550 -0.0101 -1.0122 -0.1011
   93SAPC  H20R 9025   2.468   5.281   4.452 -0.1663 -1.7897 -0.2282
   93SAPC  H20S 9026   2.544   5.347   4.607  1.1506 -0.9009 -0.8520
   93SAPC  H20T 9027   2.452   5.204   4.625  0.1204  1.2122  1.6844
   93SAPC   C33 9028   2.591   4.101   5.796 -0.7449 -0.8045 -0.5736
   93SAPC   H3X 9029   2.614   4.203   5.834 -1.0939 -1.4942  1.6255
   93SAPC   H3Y 9030   2.536   4.111   5.700 -0.0990 -1.6725 -1.0416
   93SAPC   C34 9031   2.737   4.046   5.768  0.1534  0.6515  0.0033
   93SAPC   H4X 9032   2.728   3.945   5.722 -0.1536  0.0956  1.2584
   93SAPC   H4Y 9033   2.799   4.033   5.859  0.6394  0.0780 -0.4038
   93SAPC   C35 9034   2.831   4.122   5.673  0.2605 -0.5398  0.4276
   93SAPC   H5X 9035   2.933   4.078   5.678  0.5054  0.1713  2.9435
   93SAPC   H5Y 9036   2.862   4.215   5.725  0.5320 -1.4330  1.9203
   93SAPC   C36 9037   2.779   4.142   5.530  0.1179  0.2050 -0.4176
   93SAPC   H6X 9038   2.675   4.180   5.534 -0.8144 -1.7499 -3.1512
   93SAPC   H6Y 9039   2.788   4.047   5.473 -1.6783  0.1048 -0.5749
   93SAPC   C37 9040   2.876   4.236   5.451 -0.0958 -0.3953 -0.6244
   93SAPC   H7X 9041   2.981   4.203   5.459  0.2101  0.7694  0.4248
   93SAPC   H7Y 9042   2.864   4.337   5.494 -0.6873 -0.6241 -0.2196
   93SAPC   C38 9043   2.842   4.245   5.301 -0.3582  1.3362 -0.0573
   93SAPC   H8X 9044   2.733   4.259   5.282 -0.5146  3.0331  1.6873
   93SAPC   H8Y 9045   2.880   4.150   5.259  0.2538  0.9764  1.2709
   93SAPC   C39 9046   2.917   4.359   5.219 -0.0501 -0.7519  0.6254
   93SAPC   H9X 9047   3.025   4.352   5.243  0.8603  1.8337 -2.0839
   93SAPC   H9Y 9048   2.881   4.457   5.256  0.4953  0.0208 -0.8158
   93SAPC  C310 9049   2.904   4.349   5.061  0.4930 -0.6724 -0.5148
   93SAPC  H10X 9050   2.965   4.262   5.025  0.6028 -0.8860  0.1664
   93SAPC  H10Y 9051   2.940   4.443   5.014 -1.0746  0.1785 -0.0580
   93SAPC  C311 9052   2.764   4.321   5.016  0.0612  0.0442 -0.4370
   93SAPC  H11X 9053   2.698   4.395   5.067 -0.6682 -0.9719  0.1218
   93SAPC  H11Y 9054   2.737   4.218   5.049  0.0179 -0.7971 -2.9081
   93SAPC  C312 9055   2.744   4.351   4.868 -0.0184  0.0266 -0.1118
   93SAPC  H12X 9056   2.813   4.298   4.799 -0.3193 -1.2713  0.5608
   93SAPC  H12Y 9057   2.751   4.461   4.851 -0.6685  0.0093 -0.5540
   93SAPC  C313 9058   2.606   4.319   4.817  0.7278  0.1532 -0.7935
   93SAPC  H13X 9059   2.581   4.383   4.729 -1.3720  0.9520  0.3212
   93SAPC  H13Y 9060   2.535   4.365   4.889  1.7812  0.5350  0.0285
   93SAPC  C314 9061   2.582   4.167   4.793 -0.8340 -0.2935  0.5714
   93SAPC  H14X 9062   2.571   4.103   4.883  1.6890 -0.4908  0.8120
   93SAPC  H14Y 9063   2.675   4.136   4.742 -1.1332  0.3259 -0.3896
   93SAPC  C315 9064   2.461   4.151   4.701 -1.1308  0.7111 -0.3904
   93SAPC  H15X 9065   2.369   4.198   4.741 -0.6549  1.1337  0.2203
   93SAPC  H15Y 9066   2.443   4.042   4.693 -0.0724  0.4935  0.0235
   93SAPC  C316 9067   2.503   4.186   4.561 -0.1195 -0.5124  0.4284
   93SAPC  H16X 9068   2.612   4.169   4.545  0.4190  2.1246  0.8717
   93SAPC  H16Y 9069   2.503   4.294   4.535 -0.9488 -0.5412  0.2839
   93SAPC  C317 9070   2.431   4.107   4.457  0.6292 -0.1500 -0.0657
   93SAPC  H17X 9071   2.473   4.006   4.476  1.5554  0.4182  1.0169
   93SAPC  H17Y 9072   2.475   4.140   4.360 -0.1250  3.2194  0.6082
   93SAPC  C318 9073   2.283   4.125   4.460  0.3902 -0.1274 -0.1012
   93SAPC  H18X 9074   2.231   4.106   4.556  2.0671 -1.2086  0.6174
   93SAPC  H18Y 9075   2.233   4.057   4.388 -0.0219  0.2376 -0.1666
   93SAPC  H18Z 9076   2.261   4.231   4.433  1.0310 -0.2565 -1.1891
   94SAPC     N 9077   1.924   2.947   6.208 -0.0088 -0.4273  0.2124
   94SAPC   C12 9078   1.866   3.004   6.080 -0.3355 -0.1091  0.5159
   94SAPC  H12A 9079   1.954   3.024   6.020  0.6696 -2.4642  1.0924
   94SAPC  H12B 9080   1.826   3.102   6.100 -0.4046  0.4244 -1.9526
   94SAPC   C13 9081   1.978   3.055   6.297  0.6445 -0.7768  0.5683
   94SAPC  H13A 9082   1.986   3.009   6.394  1.3310 -0.9859  0.4133
   94SAPC  H13B 9083   2.069   3.097   6.256  1.8421 -2.6906  1.1447
   94SAPC  H13C 9084   1.902   3.131   6.308  1.0928 -0.3946  1.1004
   94SAPC   C14 9085   1.821   2.878   6.289 -0.3087 -0.1634  0.1077
   94SAPC  H14A 9086   1.845   2.865   6.394 -0.1380  2.9764  0.5388
   94SAPC  H14B 9087   1.726   2.930   6.286 -0.0292  0.4972  1.6148
   94SAPC  H14C 9088   1.802   2.778   6.254  1.6682 -0.5051 -0.0702
   94SAPC   C15 9089   2.035   2.853   6.192  0.0373  1.0224 -0.1461
   94SAPC  H15A 9090   2.133   2.897   6.177  1.2580 -1.1630  0.8453
   94SAPC  H15B 9091   2.037   2.800   6.287  0.4937 -0.5419 -0.9936
   94SAPC  H15C 9092   2.021   2.770   6.124  2.4484 -1.2741  1.8860
   94SAPC   C11 9093   1.780   2.915   5.995  0.9089 -0.3208 -0.3141
   94SAPC  H11A 9094   1.835   2.819   5.995 -0.4616 -1.1307  0.4284
   94SAPC  H11B 9095   1.774   2.940   5.887 -0.5906 -0.1754 -0.2083
   94SAPC     P 9096   1.549   2.998   6.076  0.0064  0.1230  0.0709
   94SAPC   O13 9097   1.502   2.980   6.216 -0.5622  1.1037  0.2756
   94SAPC   O14 9098   1.599   3.134   6.046 -0.5093 -0.0016 -0.1594
   94SAPC   O12 9099   1.656   2.887   6.049 -0.0842 -0.2821  0.6761
   94SAPC   O11 9100   1.437   2.958   5.983 -0.3066 -0.1949 -0.5947
   94SAPC    C1 9101   1.460   2.901   5.859 -0.0070  0.0395  0.0417
   94SAPC    HA 9102   1.427   2.975   5.783 -2.3955  0.5704  1.5109
   94SAPC    HB 9103   1.568   2.877   5.843  0.2285 -0.5917  2.2981
   94SAPC    C2 9104   1.375   2.778   5.826 -0.7353  0.1204 -0.0621
   94SAPC    HS 9105   1.407   2.685   5.877  0.2058  1.6610  2.3714
   94SAPC   O21 9106   1.372   2.763   5.684 -0.0216  0.4470  0.6338
   94SAPC   C21 9107   1.479   2.694   5.644  0.7041 -0.4472 -0.6310
   94SAPC   O22 9108   1.563   2.654   5.721  0.1823 -0.3999  0.5128
   94SAPC   C22 9109   1.486   2.675   5.495  0.2853 -0.3080 -0.0826
   94SAPC   H2R 9110   1.411   2.602   5.458 -0.6442  1.0612 -1.0397
   94SAPC   H2S 9111   1.441   2.769   5.455 -2.1893 -0.9504  0.9996
   94SAPC    C3 9112   1.229   2.800   5.878 -0.1185  0.9675  0.0758
   94SAPC    HX 9113   1.218   2.910   5.893 -0.8270  0.9726 -0.4411
   94SAPC    HY 9114   1.228   2.745   5.974 -0.3625 -0.2562 -0.6105
   94SAPC   O31 9115   1.130   2.744   5.787 -0.7056  0.2582  0.1320
   94SAPC   C31 9116   1.108   2.613   5.795 -0.1970 -0.4356  0.0340
   94SAPC   O32 9117   1.184   2.533   5.852 -0.2669 -0.0579  0.5698
   94SAPC   C32 9118   0.989   2.573   5.726 -0.4379  0.5436  0.3478
   94SAPC   H2X 9119   0.917   2.658   5.729 -0.1764  0.8004 -0.4310
   94SAPC   H2Y 9120   0.929   2.495   5.776 -2.2804  1.3132 -0.5512
   94SAPC   C23 9121   1.627   2.639   5.444 -0.7023 -0.4319  0.0967
   94SAPC   H3R 9122   1.608   2.590   5.346 -1.3478  1.6918 -0.8819
   94SAPC   H3S 9123   1.689   2.573   5.509  1.7447  1.3065 -0.3515
   94SAPC   C24 9124   1.712   2.765   5.415  0.1911  0.2452  0.7450
   94SAPC   H4R 9125   1.817   2.730   5.408  0.1527  0.3164 -0.5493
   94SAPC   H4S 9126   1.717   2.835   5.501  1.2194  0.5005  0.4892
   94SAPC   C25 9127   1.668   2.850   5.298  0.9549 -0.1556  0.0663
   94SAPC   H5R 9128   1.580   2.916   5.306  3.1731  2.7753  2.0639
   94SAPC   C26 9129   1.731   2.867   5.179 -0.0430 -0.1345  0.4475
   94SAPC   H6R 9130   1.691   2.934   5.101 -0.7980  0.0883  1.0081
   94SAPC   C27 9131   1.858   2.797   5.139 -0.0372  0.3758  0.4157
   94SAPC   H7R 9132   1.834   2.745   5.044 -2.9803  1.3472  0.5217
   94SAPC   H7S 9133   1.886   2.713   5.206 -0.2040 -1.8500 -2.1528
   94SAPC   C28 9134   1.970   2.893   5.105 -0.5972  0.6911 -0.1864
   94SAPC   H8R 9135   2.012   2.949   5.191  2.7651 -0.7709 -0.7038
   94SAPC   C29 9136   1.991   2.935   4.978  0.4457 -0.4448 -0.1437
   94SAPC   H9R 9137   2.080   2.995   4.955  0.0679 -0.1132 -0.7627
   94SAPC  C210 9138   1.922   2.881   4.854  0.4385 -0.2601 -0.0239
   94SAPC  H10R 9139   1.813   2.896   4.869  0.1880 -2.1469  0.3011
   94SAPC  H10S 9140   1.946   2.775   4.832 -0.3339 -0.2931 -0.7245
   94SAPC  C211 9141   1.961   2.953   4.729  0.1816  0.0179 -0.2056
   94SAPC  H11R 9142   2.053   3.014   4.731 -1.7651  3.1739  0.5702
   94SAPC  C212 9143   1.891   2.945   4.614 -0.5489  0.2417 -0.2498
   94SAPC  H12R 9144   1.931   3.011   4.535  0.1729  0.8658  0.6063
   94SAPC  C213 9145   1.762   2.873   4.578 -0.1312 -0.8789 -0.7168
   94SAPC  H13R 9146   1.675   2.939   4.598 -1.6657 -3.0733  0.2891
   94SAPC  H13S 9147   1.743   2.794   4.654  0.8604 -0.0764  0.4052
   94SAPC  C214 9148   1.765   2.809   4.438  0.8508  0.2487 -0.5573
   94SAPC  H14R 9149   1.863   2.766   4.414  1.2981  0.4552  0.8071
   94SAPC  C215 9150   1.661   2.812   4.353 -0.0955  0.1045  0.4364
   94SAPC  H15R 9151   1.674   2.749   4.264  2.4005  1.0430  0.0465
   94SAPC  C216 9152   1.520   2.858   4.375  0.1159  0.3075  0.0072
   94SAPC  H16R 9153   1.497   2.952   4.320 -0.2137  2.2909  3.2926
   94SAPC  H16S 9154   1.502   2.880   4.482  2.2278 -0.1549  0.5028
   94SAPC  C217 9155   1.423   2.749   4.324 -0.0430 -0.2302 -0.1906
   94SAPC  H17R 9156   1.442   2.655   4.380 -2.1539 -1.1524 -0.9283
   94SAPC  H17S 9157   1.448   2.721   4.219  1.2758 -0.2405  0.1111
   94SAPC  C218 9158   1.275   2.798   4.330 -0.3954  0.0181 -0.5456
   94SAPC  H18R 9159   1.230   2.776   4.231  0.9058  1.3018 -1.4789
   94SAPC  H18S 9160   1.270   2.907   4.352 -3.0707 -0.3864  1.3314
   94SAPC  C219 9161   1.182   2.741   4.443 -0.1932  0.3939  0.5254
   94SAPC  H19R 9162   1.187   2.631   4.435 -0.5323  0.3817  0.4940
   94SAPC  H19S 9163   1.078   2.776   4.426  0.2832  1.8737  0.5110
   94SAPC  C220 9164   1.232   2.768   4.591  0.1843  0.1424  0.0641
   94SAPC  H20R 9165   1.343   2.771   4.596  0.1214  0.4082  1.8581
   94SAPC  H20S 9166   1.187   2.695   4.661 -2.0329  1.9861  0.6800
   94SAPC  H20T 9167   1.203   2.872   4.617  0.3835  0.1088  0.4283
   94SAPC   C33 9168   1.013   2.536   5.577  0.4134 -0.6248 -0.1757
   94SAPC   H3X 9169   0.925   2.478   5.540 -0.4125 -1.5963  2.9423
   94SAPC   H3Y 9170   1.106   2.475   5.568  0.4876 -0.7566  1.2674
   94SAPC   C34 9171   1.023   2.664   5.484  0.4147  0.7746 -0.2443
   94SAPC   H4X 9172   1.099   2.737   5.520  2.0579  0.0151 -2.0003
   94SAPC   H4Y 9173   0.923   2.712   5.484 -0.1899 -0.3319 -2.6049
   94SAPC   C35 9174   1.069   2.636   5.337 -0.0951 -0.3866  0.3968
   94SAPC   H5X 9175   1.152   2.563   5.347  0.9092  0.7736  0.6380
   94SAPC   H5Y 9176   1.086   2.733   5.286 -3.0425 -0.6987 -1.4637
   94SAPC   C36 9177   0.955   2.559   5.260  0.2203  0.3638 -0.1335
   94SAPC   H6X 9178   0.855   2.606   5.270 -0.1516  0.2308 -2.6535
   94SAPC   H6Y 9179   0.933   2.458   5.303 -3.9010  1.7651  1.5151
   94SAPC   C37 9180   0.987   2.562   5.109 -0.3228  0.2808 -0.9617
   94SAPC   H7X 9181   1.093   2.532   5.102 -0.7595 -1.1327 -2.2229
   94SAPC   H7Y 9182   0.970   2.667   5.079  1.7489  1.3977  1.4901
   94SAPC   C38 9183   0.896   2.465   5.030  0.2373 -0.2468 -1.0339
   94SAPC   H8X 9184   0.794   2.511   5.028  0.5931  0.5545 -1.4605
   94SAPC   H8Y 9185   0.895   2.369   5.085  1.6646 -0.7939 -1.9145
   94SAPC   C39 9186   0.933   2.439   4.885  0.0280  0.2926  0.0188
   94SAPC   H9X 9187   0.951   2.539   4.841 -0.4151  0.9295  1.2361
   94SAPC   H9Y 9188   0.849   2.387   4.833 -0.0397 -0.8430  1.1954
   94SAPC  C310 9189   1.059   2.347   4.872  0.3573  0.1765  0.2027
   94SAPC  H10X 9190   1.063   2.267   4.950  1.5333  0.8052  0.8113
   94SAPC  H10Y 9191   1.151   2.404   4.897 -1.0798  1.7673  2.1438
   94SAPC  C311 9192   1.079   2.276   4.730  0.2534 -0.2809 -0.2754
   94SAPC  H11X 9193   1.013   2.187   4.724  2.2691 -1.7526 -2.2139
   94SAPC  H11Y 9194   1.185   2.247   4.715  0.0305 -1.1706 -0.1530
   94SAPC  C312 9195   1.041   2.376   4.608  0.0620  0.3453 -0.4240
   94SAPC  H12X 9196   1.088   2.471   4.642  0.0603  0.1615  0.1144
   94SAPC  H12Y 9197   0.934   2.404   4.614 -0.1972 -0.3825 -1.3816
   94SAPC  C313 9198   1.089   2.343   4.464 -0.1115  0.2871 -0.4393
   94SAPC  H13X 9199   1.200   2.341   4.470 -0.1116 -2.5681  0.0522
   94SAPC  H13Y 9200   1.057   2.429   4.401 -0.0805  1.8516  1.5463
   94SAPC  C314 9201   1.034   2.211   4.419 -0.4009 -0.5184 -0.0200
   94SAPC  H14X 9202   1.056   2.126   4.487  1.2023 -0.0140  0.1282
   94SAPC  H14Y 9203   1.076   2.191   4.319 -1.5814 -3.1833 -0.0485
   94SAPC  C315 9204   0.881   2.216   4.399  0.0929  0.6572 -0.6806
   94SAPC  H15X 9205   0.828   2.272   4.479 -0.3895  0.1858 -0.6634
   94SAPC  H15Y 9206   0.819   2.125   4.379  0.1755  0.2789  0.6989
   94SAPC  C316 9207   0.833   2.289   4.268  0.5344 -0.1786 -0.3106
   94SAPC  H16X 9208   0.884   2.247   4.179  1.1090 -0.2554  0.0459
   94SAPC  H16Y 9209   0.858   2.397   4.270 -1.3520  0.3195 -1.2375
   94SAPC  C317 9210   0.683   2.279   4.237 -0.5529 -0.5471  0.0561
   94SAPC  H17X 9211   0.623   2.352   4.296 -0.0255 -0.6565  0.7391
   94SAPC  H17Y 9212   0.637   2.180   4.256 -0.6840 -0.4273  0.3743
   94SAPC  C318 9213   0.666   2.314   4.089  0.2289  0.0519 -0.0629
   94SAPC  H18X 9214   0.728   2.255   4.018 -0.3854 -0.0080 -0.5618
   94SAPC  H18Y 9215   0.702   2.418   4.076 -0.4233  0.4563  1.1960
   94SAPC  H18Z 9216   0.565   2.301   4.045  0.1439 -3.4021  0.8342
   95SAPC     N 9217   6.078   3.436   1.826  0.5332 -0.4566 -0.1153
   95SAPC   C12 9218   5.996   3.365   1.928 -0.3408  0.2972 -0.7472
   95SAPC  H12A 9219   5.931   3.434   1.980  0.1294  0.7973 -0.8060
   95SAPC  H12B 9220   6.062   3.337   2.010  0.1557  1.1005 -0.8569
   95SAPC   C13 9221   5.990   3.494   1.718 -0.7949  0.0357 -0.4403
   95SAPC  H13A 9222   5.942   3.578   1.765 -0.7449  0.0556 -0.4243
   95SAPC  H13B 9223   6.049   3.540   1.640  0.8358 -1.3936 -0.1019
   95SAPC  H13C 9224   5.920   3.418   1.685 -1.8770  0.6703  0.3367
   95SAPC   C14 9225   6.156   3.544   1.891 -0.5175 -0.2090 -0.3223
   95SAPC  H14A 9226   6.221   3.590   1.818 -1.7016  1.6963 -0.2300
   95SAPC  H14B 9227   6.098   3.629   1.923  2.4381  1.5795  0.6258
   95SAPC  H14C 9228   6.217   3.506   1.971 -1.7170 -1.1640  0.1805
   95SAPC   C15 9229   6.171   3.343   1.762  0.0089  0.5859  0.5059
   95SAPC  H15A 9230   6.250   3.394   1.709 -0.5965 -0.7334 -1.8105
   95SAPC  H15B 9231   6.213   3.270   1.828  0.1062 -1.3001 -1.5067
   95SAPC  H15C 9232   6.113   3.292   1.686  1.4473 -1.4968  0.7200
   95SAPC   C11 9233   5.919   3.250   1.874  0.1571 -0.5430  0.9021
   95SAPC  H11A 9234   5.879   3.191   1.960 -0.6787 -1.3683 -0.0221
   95SAPC  H11B 9235   5.984   3.177   1.822 -0.0472 -0.2222  0.1867
   95SAPC     P 9236   5.677   3.357   1.866 -0.2831 -0.2330  0.2351
   95SAPC   O13 9237   5.723   3.472   1.940 -0.1350 -0.0180 -0.4164
   95SAPC   O14 9238   5.563   3.373   1.769  0.2807  0.1415 -0.4062
   95SAPC   O12 9239   5.803   3.294   1.790  0.0161  0.7725 -0.2199
   95SAPC   O11 9240   5.630   3.253   1.969  0.3419  0.0595 -0.0028
   95SAPC    C1 9241   5.574   3.127   1.920 -0.4034 -0.2791 -0.5396
   95SAPC    HA 9242   5.488   3.143   1.852 -0.0515  1.4039 -0.6396
   95SAPC    HB 9243   5.639   3.063   1.857  1.7071 -2.3478  3.3247
   95SAPC    C2 9244   5.528   3.047   2.050  0.2292 -0.6905  0.2989
   95SAPC    HS 9245   5.473   2.956   2.016 -2.5894  1.4758 -1.3464
   95SAPC   O21 9246   5.442   3.120   2.141  0.3747  0.5370 -0.0373
   95SAPC   C21 9247   5.324   3.132   2.085  0.3008  0.3862 -0.5014
   95SAPC   O22 9248   5.290   3.087   1.975 -0.1156 -0.0149 -0.2808
   95SAPC   C22 9249   5.233   3.218   2.177  0.2211  0.3855 -0.0272
   95SAPC   H2R 9250   5.263   3.324   2.164  0.5230  0.1322 -1.6527
   95SAPC   H2S 9251   5.133   3.198   2.132  0.5578 -0.4907 -0.4112
   95SAPC    C3 9252   5.648   2.996   2.130  0.2961  0.5849 -0.1483
   95SAPC    HX 9253   5.712   3.085   2.148 -0.3690  1.4565 -1.8977
   95SAPC    HY 9254   5.703   2.932   2.058 -0.2443 -0.8117  0.6436
   95SAPC   O31 9255   5.611   2.915   2.247  0.1046 -0.3718 -0.6910
   95SAPC   C31 9256   5.602   2.990   2.355  0.0767 -0.4189  0.7702
   95SAPC   O32 9257   5.643   3.105   2.370  0.5160  0.0382  0.2129
   95SAPC   C32 9258   5.523   2.902   2.458 -0.1248  0.1443 -0.2289
   95SAPC   H2X 9259   5.573   2.804   2.472  0.1694 -0.0509 -2.3153
   95SAPC   H2Y 9260   5.432   2.877   2.399 -2.0272 -0.0108  2.5855
   95SAPC   C23 9261   5.237   3.172   2.326  0.1170 -0.2450 -0.8109
   95SAPC   H3R 9262   5.342   3.181   2.361 -0.9777 -0.1283  2.8443
   95SAPC   H3S 9263   5.202   3.067   2.331 -1.5224  0.2665 -0.9048
   95SAPC   C24 9264   5.146   3.261   2.414 -0.1479 -0.0682 -0.4789
   95SAPC   H4R 9265   5.124   3.208   2.509  1.2580  0.7462  0.3268
   95SAPC   H4S 9266   5.043   3.268   2.373 -0.7112 -1.5340  0.5984
   95SAPC   C25 9267   5.199   3.396   2.449 -0.4935 -0.1051 -0.1047
   95SAPC   H5R 9268   5.159   3.465   2.373 -2.7226 -0.2222  0.8668
   95SAPC   C26 9269   5.262   3.443   2.564  0.5245  0.4634 -0.2858
   95SAPC   H6R 9270   5.302   3.545   2.559  0.3371  0.6594  1.6565
   95SAPC   C27 9271   5.294   3.383   2.696 -0.2527  0.2321  0.5328
   95SAPC   H7R 9272   5.265   3.276   2.700 -0.5511  0.2373 -1.0764
   95SAPC   H7S 9273   5.227   3.421   2.776  0.1824 -0.3021  1.1719
   95SAPC   C28 9274   5.439   3.381   2.740  0.0554 -0.0585 -0.4164
   95SAPC   H8R 9275   5.502   3.306   2.691  1.8342  0.6119  0.7243
   95SAPC   C29 9276   5.497   3.463   2.830 -0.7059  0.0812 -0.0701
   95SAPC   H9R 9277   5.604   3.444   2.843 -0.2530  1.7263 -1.0278
   95SAPC  C210 9278   5.445   3.578   2.914 -0.3381  0.2085 -0.9722
   95SAPC  H10R 9279   5.363   3.537   2.977 -0.7047  0.5149 -1.2490
   95SAPC  H10S 9280   5.410   3.655   2.842  0.8701 -0.1531 -1.9778
   95SAPC  C211 9281   5.548   3.633   3.003 -0.3084  0.0584 -0.0929
   95SAPC  H11R 9282   5.626   3.699   2.962  0.5830  1.5929  3.6212
   95SAPC  C212 9283   5.558   3.627   3.130  0.3792 -0.2404 -0.6019
   95SAPC  H12R 9284   5.637   3.688   3.176 -0.1881  0.8697 -1.0694
   95SAPC  C213 9285   5.465   3.547   3.220  0.6464  0.5397 -0.8530
   95SAPC  H13R 9286   5.431   3.461   3.159  2.8101 -1.0903  0.0941
   95SAPC  H13S 9287   5.370   3.601   3.240  0.4504  0.1189 -0.6480
   95SAPC  C214 9288   5.524   3.507   3.354 -0.5244 -0.2794  0.3217
   95SAPC  H14R 9289   5.631   3.486   3.363 -0.1315  0.1873 -2.4087
   95SAPC  C215 9290   5.454   3.477   3.462  0.4980 -0.5275  0.7657
   95SAPC  H15R 9291   5.510   3.468   3.557  1.1530 -1.7839  0.2768
   95SAPC  C216 9292   5.303   3.484   3.481 -0.1118 -0.3807  0.1149
   95SAPC  H16R 9293   5.245   3.466   3.388 -0.2127 -0.1878  0.1414
   95SAPC  H16S 9294   5.279   3.587   3.514  3.0571  0.6822 -0.5590
   95SAPC  C217 9295   5.236   3.386   3.568  0.7908 -0.2378 -0.7537
   95SAPC  H17R 9296   5.260   3.281   3.539  2.8598  1.1670 -4.8295
   95SAPC  H17S 9297   5.127   3.387   3.546  0.7463 -1.9089 -0.7639
   95SAPC  C218 9298   5.271   3.412   3.716  0.5475 -0.3900  0.0834
   95SAPC  H18R 9299   5.366   3.467   3.732 -0.4217  0.9701  1.5334
   95SAPC  H18S 9300   5.283   3.306   3.748  1.2429  0.0713  1.4498
   95SAPC  C219 9301   5.159   3.489   3.785  0.2613 -0.4038 -0.3767
   95SAPC  H19R 9302   5.058   3.447   3.770  0.6135 -0.7205 -2.1120
   95SAPC  H19S 9303   5.150   3.586   3.732  2.3410  1.2515  2.0535
   95SAPC  C220 9304   5.177   3.526   3.935 -0.2468 -0.1140  0.3946
   95SAPC  H20R 9305   5.208   3.441   4.000  1.8390 -0.8902 -1.5188
   95SAPC  H20S 9306   5.085   3.571   3.978 -0.6044 -2.0321  1.8275
   95SAPC  H20T 9307   5.261   3.596   3.947 -1.1034  0.8028  1.2702
   95SAPC   C33 9308   5.489   2.968   2.594  0.1170  0.3347 -0.2779
   95SAPC   H3X 9309   5.432   3.061   2.573 -0.9908 -0.6934 -2.1739
   95SAPC   H3Y 9310   5.586   2.990   2.642  0.6041 -2.6703  0.3094
   95SAPC   C34 9311   5.399   2.887   2.696 -0.5561  0.5965  0.7533
   95SAPC   H4X 9312   5.425   2.779   2.688  0.4558  0.8836 -0.0861
   95SAPC   H4Y 9313   5.291   2.895   2.672 -0.6205  1.1127  1.2046
   95SAPC   C35 9314   5.411   2.944   2.840 -0.2075 -0.8059 -0.6819
   95SAPC   H5X 9315   5.385   3.051   2.837  0.2443 -0.6984 -2.4254
   95SAPC   H5Y 9316   5.513   2.928   2.881 -1.1332 -0.5993  1.8050
   95SAPC   C36 9317   5.319   2.864   2.936 -0.0583  0.2700  1.0111
   95SAPC   H6X 9318   5.360   2.760   2.932 -0.8348 -0.0066 -2.3227
   95SAPC   H6Y 9319   5.216   2.869   2.896  0.7316 -0.2836 -1.2510
   95SAPC   C37 9320   5.317   2.908   3.076 -0.1647  0.2770 -0.0744
   95SAPC   H7X 9321   5.291   3.015   3.092 -1.7427 -0.2618  1.2321
   95SAPC   H7Y 9322   5.421   2.903   3.116  0.1767  2.8818 -0.4558
   95SAPC   C38 9323   5.223   2.828   3.169 -0.3664 -0.2373 -0.2614
   95SAPC   H8X 9324   5.218   2.734   3.109 -0.7254 -0.1568 -0.3664
   95SAPC   H8Y 9325   5.116   2.858   3.168 -0.2074  0.3327 -0.6615
   95SAPC   C39 9326   5.277   2.814   3.308 -0.1370 -0.0573 -0.6080
   95SAPC   H9X 9327   5.264   2.911   3.360  0.8992 -0.2926  0.1162
   95SAPC   H9Y 9328   5.387   2.798   3.303 -0.3752 -2.2525 -0.0609
   95SAPC  C310 9329   5.209   2.698   3.384  0.2168  0.4685 -0.2750
   95SAPC  H10X 9330   5.253   2.607   3.337  0.5841  0.8240 -0.6162
   95SAPC  H10Y 9331   5.099   2.700   3.366 -0.0378  0.3527  1.1128
   95SAPC  C311 9332   5.231   2.710   3.538 -0.2465 -0.7543  0.1536
   95SAPC  H11X 9333   5.181   2.799   3.581 -0.1285 -1.7404  2.4418
   95SAPC  H11Y 9334   5.339   2.719   3.564 -0.5912 -0.1887  1.4740
   95SAPC  C312 9335   5.160   2.595   3.607  0.5222  0.0785 -0.6352
   95SAPC  H12X 9336   5.173   2.507   3.540 -2.7858  0.4788 -1.9741
   95SAPC  H12Y 9337   5.050   2.606   3.614  0.0244 -2.5462 -2.6327
   95SAPC  C313 9338   5.213   2.550   3.747 -0.2829  0.0578  0.2185
   95SAPC  H13X 9339   5.139   2.584   3.822 -0.2079  0.4545  0.1156
   95SAPC  H13Y 9340   5.304   2.613   3.755 -0.9939  1.1974 -0.3753
   95SAPC  C314 9341   5.236   2.395   3.759 -0.0410  0.1756  1.1286
   95SAPC  H14X 9342   5.298   2.365   3.672 -2.7870  1.1514 -1.3253
   95SAPC  H14Y 9343   5.138   2.343   3.752 -0.7425  1.6306 -0.6401
   95SAPC  C315 9344   5.301   2.351   3.885 -0.0167 -0.0659  0.2890
   95SAPC  H15X 9345   5.242   2.392   3.970 -1.5722  0.0162 -0.7859
   95SAPC  H15Y 9346   5.400   2.401   3.896  0.4106 -0.5500 -1.1396
   95SAPC  C316 9347   5.320   2.200   3.908  0.5972 -0.3354 -0.1474
   95SAPC  H16X 9348   5.363   2.144   3.822  2.7043  2.4242 -1.0484
   95SAPC  H16Y 9349   5.218   2.157   3.915 -0.4323  1.8817 -0.7020
   95SAPC  C317 9350   5.406   2.174   4.029 -0.2107 -0.2701 -0.2862
   95SAPC  H17X 9351   5.506   2.223   4.034 -0.0177 -0.6827 -0.1186
   95SAPC  H17Y 9352   5.415   2.064   4.040  0.8608 -0.0915  0.7938
   95SAPC  C318 9353   5.343   2.223   4.162 -0.1594  0.8023 -0.6445
   95SAPC  H18X 9354   5.421   2.213   4.240 -1.6397 -2.9926  0.5284
   95SAPC  H18Y 9355   5.259   2.155   4.184 -0.0442  0.6553 -0.6589
   95SAPC  H18Z 9356   5.303   2.327   4.153  0.8743  1.0704 -3.3096
   96SAPC     N 9357   5.001   1.863   1.172  0.4609 -0.5529  0.4052
   96SAPC   C12 9358   5.135   1.792   1.186 -0.1620 -0.0298 -0.3892
   96SAPC  H12A 9359   5.208   1.867   1.161 -1.0568  1.2974  0.7458
   96SAPC  H12B 9360   5.140   1.712   1.114 -1.4017 -0.3150 -0.1817
   96SAPC   C13 9361   4.993   1.982   1.266 -0.5861  0.5050 -0.3279
   96SAPC  H13A 9362   5.054   2.064   1.229 -0.6671  0.5405 -0.3836
   96SAPC  H13B 9363   4.889   2.006   1.284 -0.1311  1.4504  1.2237
   96SAPC  H13C 9364   5.034   1.951   1.361  0.8623  1.8395 -0.4780
   96SAPC   C14 9365   4.979   1.908   1.031  0.9177  0.1931  0.8694
   96SAPC  H14A 9366   5.061   1.970   0.997  0.1043  1.1318  0.5493
   96SAPC  H14B 9367   4.971   1.835   0.952  0.5902  1.0788  0.0561
   96SAPC  H14C 9368   4.896   1.974   1.009  1.7114  0.5158 -1.4958
   96SAPC   C15 9369   4.884   1.771   1.199 -0.8608 -0.3603 -0.2682
   96SAPC  H15A 9370   4.789   1.821   1.205 -0.2914  0.6670  0.5445
   96SAPC  H15B 9371   4.882   1.695   1.122  0.1471  0.0516 -0.7169
   96SAPC  H15C 9372   4.893   1.719   1.293  0.1647 -1.1399 -0.7777
   96SAPC   C11 9373   5.169   1.726   1.323 -1.0886 -0.2611 -0.3436
   96SAPC  H11A 9374   5.255   1.655   1.328 -0.6832 -0.3453 -4.7562
   96SAPC  H11B 9375   5.083   1.657   1.337 -0.5008 -1.5233 -2.4355
   96SAPC     P 9376   5.298   1.929   1.414  0.1808  0.3493  0.1981
   96SAPC   O13 9377   5.339   1.957   1.275  0.5518  0.0467  0.0695
   96SAPC   O14 9378   5.246   2.048   1.485 -0.2203 -0.3030 -0.3227
   96SAPC   O12 9379   5.184   1.826   1.422 -0.0566  0.0547  0.1046
   96SAPC   O11 9380   5.415   1.857   1.493 -0.0196 -0.0434 -0.5623
   96SAPC    C1 9381   5.385   1.783   1.613  0.2317 -0.8438  0.5597
   96SAPC    HA 9382   5.283   1.739   1.619  0.1744 -0.6440  1.1560
   96SAPC    HB 9383   5.452   1.695   1.608  1.1757 -0.0760 -1.6792
   96SAPC    C2 9384   5.421   1.859   1.746 -0.7453 -0.0720  0.4129
   96SAPC    HS 9385   5.412   1.786   1.829  1.9578  3.1737  3.9393
   96SAPC   O21 9386   5.331   1.970   1.778 -0.0435  0.6910  0.3779
   96SAPC   C21 9387   5.206   1.935   1.786 -0.1149  0.1692  0.4453
   96SAPC   O22 9388   5.169   1.820   1.799  0.6656 -0.4006  0.4831
   96SAPC   C22 9389   5.108   2.058   1.781  0.6444  0.1814  0.1830
   96SAPC   H2R 9390   5.131   2.127   1.697 -1.7867 -1.3087 -1.8160
   96SAPC   H2S 9391   5.011   2.017   1.746  0.6725  0.6993 -0.5175
   96SAPC    C3 9392   5.568   1.912   1.742 -0.3263  0.3661  0.4803
   96SAPC    HX 9393   5.570   1.984   1.658 -1.3708 -2.0064 -1.7380
   96SAPC    HY 9394   5.625   1.826   1.701 -0.9043  0.4883 -0.6161
   96SAPC   O31 9395   5.624   1.940   1.870  0.2558  0.1801 -0.4487
   96SAPC   C31 9396   5.618   2.065   1.910 -0.0547 -0.6949 -0.1426
   96SAPC   O32 9397   5.558   2.155   1.854 -0.3005  0.3085  0.6638
   96SAPC   C32 9398   5.698   2.085   2.042  0.8241  0.0216 -0.1780
   96SAPC   H2X 9399   5.751   2.182   2.033  0.5574  0.2012  0.1517
   96SAPC   H2Y 9400   5.764   1.998   2.061  0.4640 -0.5114 -1.2622
   96SAPC   C23 9401   5.091   2.133   1.920 -0.1425 -0.4906  0.4044
   96SAPC   H3R 9402   5.112   2.061   2.002  2.6715 -0.4923 -0.1872
   96SAPC   H3S 9403   4.986   2.167   1.925 -0.7775 -2.2336 -0.6323
   96SAPC   C24 9404   5.179   2.258   1.931 -1.1843 -0.3594 -0.4008
   96SAPC   H4R 9405   5.159   2.311   1.836 -0.4943 -0.6732 -0.7265
   96SAPC   H4S 9406   5.284   2.224   1.922 -1.4204 -0.5650 -2.8545
   96SAPC   C25 9407   5.169   2.350   2.046  0.6898 -0.1723  0.7495
   96SAPC   H5R 9408   5.198   2.452   2.017  0.1215 -0.4504 -0.9004
   96SAPC   C26 9409   5.121   2.327   2.170 -0.0579 -0.1929 -0.5835
   96SAPC   H6R 9410   5.111   2.418   2.232 -2.9985 -2.0784  1.9974
   96SAPC   C27 9411   5.049   2.205   2.226 -0.5367  0.0583  0.6646
   96SAPC   H7R 9412   5.045   2.211   2.336 -1.3144  0.5841  0.6226
   96SAPC   H7S 9413   5.108   2.115   2.201 -0.2574  0.9382 -2.3096
   96SAPC   C28 9414   4.902   2.187   2.185 -0.1515 -0.2077 -0.8402
   96SAPC   H8R 9415   4.871   2.232   2.090 -1.1105 -0.6470 -0.7499
   96SAPC   C29 9416   4.814   2.108   2.264 -0.3863  0.1252 -0.0560
   96SAPC   H9R 9417   4.709   2.104   2.232 -0.6659  1.1262  0.6749
   96SAPC  C210 9418   4.851   2.027   2.385  0.1661  0.2928  0.6781
   96SAPC  H10R 9419   4.760   2.029   2.449 -0.3366  1.6170 -0.0163
   96SAPC  H10S 9420   4.936   2.071   2.440  0.7620  0.0628 -0.0402
   96SAPC  C211 9421   4.861   1.884   2.344 -0.9300 -0.5105  0.7831
   96SAPC  H11R 9422   4.768   1.836   2.314 -2.8234  2.1755  1.9013
   96SAPC  C212 9423   4.977   1.815   2.338 -0.2366 -0.0902  0.1753
   96SAPC  H12R 9424   4.977   1.707   2.316  1.6590 -0.2713  0.9032
   96SAPC  C213 9425   5.117   1.863   2.368 -0.2871 -0.0818 -0.6435
   96SAPC  H13R 9426   5.116   1.971   2.393  1.1409 -0.1363 -0.2599
   96SAPC  H13S 9427   5.188   1.851   2.283  1.6665  1.6519  0.6452
   96SAPC  C214 9428   5.171   1.789   2.489  1.1787 -0.1225 -0.0845
   96SAPC  H14R 9429   5.193   1.856   2.574 -0.8030 -3.1714  3.1009
   96SAPC  C215 9430   5.205   1.660   2.497 -0.0757 -0.5450  0.0875
   96SAPC  H15R 9431   5.232   1.624   2.598  2.2535 -1.9721 -0.9444
   96SAPC  C216 9432   5.198   1.550   2.393  0.3385  0.1116  0.2826
   96SAPC  H16R 9433   5.207   1.603   2.296 -0.9627 -0.1826 -0.0172
   96SAPC  H16S 9434   5.099   1.500   2.394  1.3092 -1.8878  0.3493
   96SAPC  C217 9435   5.316   1.454   2.402  0.6350 -1.0121  0.9890
   96SAPC  H17R 9436   5.308   1.384   2.488  2.0480 -0.1491  1.8532
   96SAPC  H17S 9437   5.406   1.518   2.393 -0.5126  0.5947  0.3704
   96SAPC  C218 9438   5.321   1.363   2.277  0.0155 -0.5572 -0.2048
   96SAPC  H18R 9439   5.413   1.301   2.282  2.1499  1.9198 -3.7842
   96SAPC  H18S 9440   5.320   1.440   2.197  0.0976  0.2408  0.5492
   96SAPC  C219 9441   5.206   1.269   2.270  0.7355  1.1311 -0.1746
   96SAPC  H19R 9442   5.128   1.282   2.347 -0.7063 -1.5280 -1.0749
   96SAPC  H19S 9443   5.243   1.166   2.290  3.7071  2.1960  0.2832
   96SAPC  C220 9444   5.145   1.285   2.128 -0.4119 -0.1247 -0.3301
   96SAPC  H20R 9445   5.046   1.236   2.120 -0.7404  0.2870  0.9378
   96SAPC  H20S 9446   5.221   1.272   2.049 -0.3255 -1.0709 -0.0976
   96SAPC  H20T 9447   5.124   1.394   2.118 -0.8010 -0.2785 -1.2700
   96SAPC   C33 9448   5.587   2.098   2.147  0.4214  0.1516 -0.8183
   96SAPC   H3X 9449   5.502   2.164   2.121 -1.4090 -1.7604 -0.0338
   96SAPC   H3Y 9450   5.627   2.132   2.245 -1.0081 -1.5358  0.4159
   96SAPC   C34 9451   5.536   1.958   2.193 -0.1017  0.0913  0.7954
   96SAPC   H4X 9452   5.611   1.877   2.180  0.4067  0.4884  1.1912
   96SAPC   H4Y 9453   5.453   1.918   2.131 -0.0826 -1.1626  1.5476
   96SAPC   C35 9454   5.478   1.963   2.339 -0.4280 -0.3615 -0.0184
   96SAPC   H5X 9455   5.414   1.873   2.351 -2.3061  0.8477 -0.4723
   96SAPC   H5Y 9456   5.416   2.055   2.348 -3.2189 -2.2725  2.6117
   96SAPC   C36 9457   5.582   1.968   2.451 -0.3202 -0.4754 -0.5412
   96SAPC   H6X 9458   5.624   2.071   2.454  0.1135 -0.6772  1.1375
   96SAPC   H6Y 9459   5.659   1.892   2.423  0.2391  0.0236 -0.3829
   96SAPC   C37 9460   5.523   1.908   2.584 -0.0877 -0.2270  0.3056
   96SAPC   H7X 9461   5.499   1.801   2.572 -1.3111  0.1831 -1.1839
   96SAPC   H7Y 9462   5.427   1.962   2.597 -0.1417  0.5191 -2.5731
   96SAPC   C38 9463   5.608   1.936   2.712  0.0666 -0.4977  0.0111
   96SAPC   H8X 9464   5.651   2.038   2.711  1.3448 -1.0064  0.4322
   96SAPC   H8Y 9465   5.700   1.873   2.708  0.9686  0.8378 -2.6586
   96SAPC   C39 9466   5.533   1.892   2.836  0.2582  0.0712  0.4389
   96SAPC   H9X 9467   5.476   1.800   2.813  0.6121 -0.2801  0.9528
   96SAPC   H9Y 9468   5.451   1.957   2.874  0.0656 -0.2002  0.4850
   96SAPC  C310 9469   5.621   1.872   2.949  0.4334  0.4000 -0.0366
   96SAPC  H10X 9470   5.654   1.969   2.990  1.2874 -0.1161  0.5404
   96SAPC  H10Y 9471   5.711   1.817   2.916  1.0732  1.1113  0.4948
   96SAPC  C311 9472   5.557   1.787   3.066 -0.4197 -0.1226  0.2549
   96SAPC  H11X 9473   5.553   1.678   3.047 -2.0253 -0.2326  0.9890
   96SAPC  H11Y 9474   5.448   1.809   3.079 -0.6785 -1.4733  0.4698
   96SAPC  C312 9475   5.633   1.801   3.198 -0.2377  0.6366  0.8079
   96SAPC  H12X 9476   5.641   1.909   3.223 -1.2362  1.1377 -0.8704
   96SAPC  H12Y 9477   5.731   1.751   3.189 -1.0369 -1.0914  1.2363
   96SAPC  C313 9478   5.580   1.718   3.320  0.6412  0.1866 -0.5557
   96SAPC  H13X 9479   5.654   1.714   3.403  0.3940 -1.1199 -0.3747
   96SAPC  H13Y 9480   5.564   1.612   3.290  0.1170 -0.3471  1.4472
   96SAPC  C314 9481   5.450   1.768   3.381  0.4270 -0.1232 -0.1052
   96SAPC  H14X 9482   5.381   1.696   3.333  0.4639 -0.3782  0.2218
   96SAPC  H14Y 9483   5.424   1.874   3.359  1.3196  0.4850  1.6162
   96SAPC  C315 9484   5.438   1.752   3.536  0.8367 -0.2660  0.3721
   96SAPC  H15X 9485   5.515   1.816   3.584  2.8427 -3.9366  2.4988
   96SAPC  H15Y 9486   5.452   1.648   3.573  1.9788 -0.4635 -0.5536
   96SAPC  C316 9487   5.294   1.795   3.572 -0.1120 -0.5696 -0.3279
   96SAPC  H16X 9488   5.226   1.718   3.529 -1.8432  0.3070  0.6985
   96SAPC  H16Y 9489   5.261   1.889   3.522  0.0822  0.2981  1.1015
   96SAPC  C317 9490   5.261   1.794   3.721  0.1766  0.0047  0.7670
   96SAPC  H17X 9491   5.194   1.882   3.727  1.5115  1.1613 -0.7871
   96SAPC  H17Y 9492   5.341   1.810   3.797  1.7597 -0.6069 -0.7125
   96SAPC  C318 9493   5.183   1.665   3.766  0.2554  0.2656 -0.8633
   96SAPC  H18X 9494   5.236   1.579   3.720  1.1106 -0.8162  1.8870
   96SAPC  H18Y 9495   5.075   1.667   3.742 -0.7946  1.0159  3.0915
   96SAPC  H18Z 9496   5.200   1.656   3.876  0.6366  0.8192 -0.8713
   97SAPC     N 9497   6.272   1.775   1.301  0.0683  0.1371 -0.1748
   97SAPC   C12 9498   6.318   1.922   1.291  0.1648  0.8111  0.4611
   97SAPC  H12A 9499   6.237   1.991   1.313 -1.4002 -1.0668  0.8676
   97SAPC  H12B 9500   6.355   1.936   1.191  1.0496 -3.2463  0.0509
   97SAPC   C13 9501   6.220   1.742   1.440  0.1542 -0.2899  0.4102
   97SAPC  H13A 9502   6.149   1.819   1.465  0.2743 -0.6962  2.0723
   97SAPC  H13B 9503   6.172   1.646   1.441 -0.8825  0.0839 -2.5484
   97SAPC  H13C 9504   6.304   1.749   1.508 -0.4613 -0.0221  1.1612
   97SAPC   C14 9505   6.169   1.756   1.199 -0.4546 -0.2519 -0.2677
   97SAPC  H14A 9506   6.209   1.759   1.099 -0.2979  0.2709 -0.1939
   97SAPC  H14B 9507   6.135   1.654   1.196 -1.1799 -0.0089 -0.4460
   97SAPC  H14C 9508   6.082   1.813   1.228  1.0088  0.7797  2.5632
   97SAPC   C15 9509   6.382   1.676   1.263  0.0285 -0.2003 -0.2266
   97SAPC  H15A 9510   6.472   1.691   1.322  0.7257 -2.5776 -0.5992
   97SAPC  H15B 9511   6.353   1.572   1.264 -0.1756 -0.2067 -2.4571
   97SAPC  H15C 9512   6.429   1.699   1.169 -1.9066 -0.8960 -1.4149
   97SAPC   C11 9513   6.436   1.963   1.381 -0.2621  0.3291  0.3160
   97SAPC  H11A 9514   6.453   2.071   1.366  1.8277 -0.2212 -1.9493
   97SAPC  H11B 9515   6.530   1.914   1.347 -0.7089 -0.7718  0.5996
   97SAPC     P 9516   6.346   2.056   1.607  0.0444  0.1689  0.0246
   97SAPC   O13 9517   6.466   2.110   1.681 -0.0595  0.2110 -0.1254
   97SAPC   O14 9518   6.269   2.152   1.530  0.2069  0.0379  0.0095
   97SAPC   O12 9519   6.407   1.945   1.521 -0.2815  0.7107 -0.0897
   97SAPC   O11 9520   6.254   1.989   1.715  0.5591 -0.4002  0.1445
   97SAPC    C1 9521   6.270   1.850   1.758 -0.1316  0.1005 -0.0567
   97SAPC    HA 9522   6.179   1.794   1.726 -1.5149  2.4834 -0.5160
   97SAPC    HB 9523   6.353   1.794   1.712 -1.0755 -1.6344  0.2429
   97SAPC    C2 9524   6.292   1.821   1.907 -1.0866 -0.2822  0.1816
   97SAPC    HS 9525   6.313   1.712   1.918  0.3854 -0.2017 -1.4648
   97SAPC   O21 9526   6.190   1.859   1.989  0.0473  0.0377 -0.2346
   97SAPC   C21 9527   6.082   1.775   1.978 -0.2016  0.3994 -0.4534
   97SAPC   O22 9528   6.072   1.680   1.903 -0.2774  0.0585 -0.0856
   97SAPC   C22 9529   5.980   1.803   2.092  0.6855  0.1513 -0.4018
   97SAPC   H2R 9530   5.968   1.914   2.089 -0.9781  0.0264  0.1572
   97SAPC   H2S 9531   5.879   1.769   2.059 -0.1656  2.5333 -0.4870
   97SAPC    C3 9532   6.424   1.889   1.959 -0.3626 -0.1193 -0.7619
   97SAPC    HX 9533   6.414   1.998   1.976 -0.6911 -0.0538 -1.3565
   97SAPC    HY 9534   6.503   1.878   1.882  1.6830  1.7596  0.9665
   97SAPC   O31 9535   6.458   1.827   2.085  0.3604 -0.3362  0.7421
   97SAPC   C31 9536   6.415   1.890   2.200 -0.5148 -0.3461 -0.0349
   97SAPC   O32 9537   6.338   1.983   2.195 -0.4407 -0.1420  0.0371
   97SAPC   C32 9538   6.447   1.807   2.320 -0.3594 -0.7066  0.0977
   97SAPC   H2X 9539   6.557   1.795   2.330 -0.4689 -1.5905  0.3236
   97SAPC   H2Y 9540   6.407   1.707   2.292 -1.1118 -1.0489  2.1861
   97SAPC   C23 9541   6.029   1.750   2.229 -0.0045 -0.3219  0.0785
   97SAPC   H3R 9542   6.119   1.797   2.274 -0.3815 -1.2685  1.9341
   97SAPC   H3S 9543   6.045   1.641   2.215  0.7978 -0.3162  0.8280
   97SAPC   C24 9544   5.921   1.771   2.335 -0.1725  0.1355 -0.7572
   97SAPC   H4R 9545   5.870   1.868   2.317 -0.3132  0.0564 -0.7842
   97SAPC   H4S 9546   5.967   1.783   2.435 -0.0921 -1.4014 -0.5856
   97SAPC   C25 9547   5.811   1.665   2.327  0.0846  0.2076 -0.5444
   97SAPC   H5R 9548   5.720   1.671   2.265  0.2154  3.0182 -0.5497
   97SAPC   C26 9549   5.815   1.558   2.416 -0.1891  0.2078  0.0304
   97SAPC   H6R 9550   5.750   1.471   2.394  0.8629  0.0177 -2.7735
   97SAPC   C27 9551   5.913   1.532   2.524 -0.4110  0.2272  0.0947
   97SAPC   H7R 9552   6.010   1.583   2.506 -1.9302  2.9821 -0.9532
   97SAPC   H7S 9553   5.927   1.422   2.530 -0.8645  0.2271  1.3650
   97SAPC   C28 9554   5.859   1.588   2.657 -0.8362  0.8537  0.0616
   97SAPC   H8R 9555   5.918   1.676   2.686 -1.3714  1.2860 -0.1468
   97SAPC   C29 9556   5.762   1.529   2.738 -0.0065  0.2271  0.3554
   97SAPC   H9R 9557   5.741   1.579   2.833 -0.5363  2.0087 -0.6684
   97SAPC  C210 9558   5.697   1.395   2.704  0.1461  0.2840  0.6111
   97SAPC  H10R 9559   5.763   1.324   2.651  2.1443 -0.4095  3.7601
   97SAPC  H10S 9560   5.621   1.405   2.623  0.7194  1.2227  0.1630
   97SAPC  C211 9561   5.637   1.312   2.814 -0.3990 -0.4573 -0.0533
   97SAPC  H11R 9562   5.704   1.243   2.867 -1.0029 -0.0121  1.3308
   97SAPC  C212 9563   5.510   1.320   2.857 -0.1291  0.2112 -0.1641
   97SAPC  H12R 9564   5.484   1.265   2.949  1.0697 -0.6934 -0.3539
   97SAPC  C213 9565   5.402   1.416   2.814 -0.3466  0.0685 -0.4653
   97SAPC  H13R 9566   5.404   1.434   2.705  0.8080  1.1080 -0.2931
   97SAPC  H13S 9567   5.430   1.514   2.859  0.4160  0.4425 -1.7273
   97SAPC  C214 9568   5.265   1.362   2.855 -0.8178 -0.1160  0.2187
   97SAPC  H14R 9569   5.232   1.288   2.781 -0.0956 -0.6525  0.4271
   97SAPC  C215 9570   5.192   1.390   2.961  0.4998 -0.7771  0.1877
   97SAPC  H15R 9571   5.093   1.342   2.955  0.0209  0.3459 -2.2945
   97SAPC  C216 9572   5.204   1.499   3.067 -0.6197  0.1208  1.0568
   97SAPC  H16R 9573   5.119   1.570   3.074 -1.3900  0.2038 -4.4929
   97SAPC  H16S 9574   5.299   1.554   3.057 -0.5247 -0.0088  1.2244
   97SAPC  C217 9575   5.204   1.434   3.214  0.0567 -0.5639  0.7421
   97SAPC  H17R 9576   5.246   1.492   3.299 -0.0229  0.4415  0.1118
   97SAPC  H17S 9577   5.259   1.337   3.208 -0.5181 -0.8337 -1.0433
   97SAPC  C218 9578   5.064   1.395   3.244 -0.4329  0.2395 -0.3582
   97SAPC  H18R 9579   5.058   1.289   3.276 -0.6750 -0.6163 -2.9901
   97SAPC  H18S 9580   5.003   1.404   3.151 -0.4947  1.9346 -0.1883
   97SAPC  C219 9581   4.996   1.480   3.359  0.4766  0.1905  0.8274
   97SAPC  H19R 9582   4.887   1.460   3.352  0.7765 -1.2885 -0.0677
   97SAPC  H19S 9583   5.010   1.587   3.336  1.4407  0.1362  1.1113
   97SAPC  C220 9584   5.044   1.455   3.495  0.2018 -0.1423 -0.0846
   97SAPC  H20R 9585   5.042   1.346   3.515 -1.7516 -0.7499 -3.0206
   97SAPC  H20S 9586   4.985   1.505   3.575  0.3111 -4.3872  3.0359
   97SAPC  H20T 9587   5.148   1.492   3.508 -1.0137  2.8806  2.5769
   97SAPC   C33 9588   6.371   1.846   2.453 -0.4286  0.4518  0.3551
   97SAPC   H3X 9589   6.265   1.814   2.442 -0.3205  0.3612 -0.4316
   97SAPC   H3Y 9590   6.382   1.954   2.474  0.0841  0.3721  0.5099
   97SAPC   C34 9591   6.438   1.773   2.573  0.3191  0.6367  0.0485
   97SAPC   H4X 9592   6.547   1.793   2.563  0.5245 -0.4717 -0.0183
   97SAPC   H4Y 9593   6.429   1.663   2.559  1.1621  0.8719 -3.2547
   97SAPC   C35 9594   6.398   1.811   2.717  0.2798 -0.0137  0.4299
   97SAPC   H5X 9595   6.432   1.913   2.746 -1.1510  1.0734 -1.4714
   97SAPC   H5Y 9596   6.458   1.750   2.787 -0.8133 -0.1327  1.2915
   97SAPC   C36 9597   6.249   1.789   2.746  0.6237  0.6582  0.0099
   97SAPC   H6X 9598   6.218   1.690   2.707 -0.9014  0.6689  1.0937
   97SAPC   H6Y 9599   6.179   1.863   2.700 -1.2638 -1.2868 -0.4071
   97SAPC   C37 9600   6.226   1.791   2.896  1.0740  0.1549  0.0551
   97SAPC   H7X 9601   6.269   1.884   2.938 -1.1454  1.1340  0.2646
   97SAPC   H7Y 9602   6.269   1.705   2.953  0.3252  0.4859  1.1466
   97SAPC   C38 9603   6.072   1.802   2.930 -0.2251 -0.3443 -0.4068
   97SAPC   H8X 9604   6.034   1.699   2.916 -0.0565 -0.4516 -0.0781
   97SAPC   H8Y 9605   6.013   1.866   2.861 -0.2626 -1.7083 -1.6947
   97SAPC   C39 9606   6.043   1.865   3.071 -0.2211 -0.4764  0.0367
   97SAPC   H9X 9607   5.932   1.864   3.081 -0.2503  1.1337  0.2314
   97SAPC   H9Y 9608   6.075   1.972   3.071  1.4442 -0.9431 -0.4510
   97SAPC  C310 9609   6.103   1.792   3.189  0.1621 -0.0564  0.3237
   97SAPC  H10X 9610   6.211   1.819   3.186  0.2174 -0.3623 -1.6044
   97SAPC  H10Y 9611   6.097   1.682   3.178  1.3754  0.0236 -1.5046
   97SAPC  C311 9612   6.030   1.823   3.325 -0.2447  0.0396  0.1147
   97SAPC  H11X 9613   5.944   1.754   3.339  0.8197 -1.0949  1.3106
   97SAPC  H11Y 9614   5.999   1.930   3.321 -0.4220  0.0463  1.3112
   97SAPC  C312 9615   6.121   1.803   3.449 -0.4072  0.3549 -0.4431
   97SAPC  H12X 9616   6.213   1.866   3.443 -0.0020 -0.3667 -2.7001
   97SAPC  H12Y 9617   6.154   1.697   3.454 -0.9245  0.1100 -1.8265
   97SAPC  C313 9618   6.033   1.833   3.573  0.1241 -0.5967  0.1508
   97SAPC  H13X 9619   6.090   1.779   3.652 -2.3961 -0.9652  1.8340
   97SAPC  H13Y 9620   5.946   1.767   3.553  1.0623 -1.2807 -1.9018
   97SAPC  C314 9621   6.004   1.979   3.580  0.5034  0.4349 -0.1104
   97SAPC  H14X 9622   5.961   2.018   3.485  0.6240 -2.4653 -1.4633
   97SAPC  H14Y 9623   6.092   2.044   3.601  0.0886  0.8830  0.2738
   97SAPC  C315 9624   5.905   2.017   3.696 -0.5352 -0.0630 -0.9781
   97SAPC  H15X 9625   5.881   2.126   3.694  0.8397  0.2972  0.0976
   97SAPC  H15Y 9626   5.967   1.989   3.784  0.0845 -0.8289 -1.6491
   97SAPC  C316 9627   5.781   1.929   3.692 -1.1743  0.2196  0.9409
   97SAPC  H16X 9628   5.815   1.829   3.726  0.3455  0.4243  0.1077
   97SAPC  H16Y 9629   5.741   1.920   3.588  0.5941  0.2924  0.2257
   97SAPC  C317 9630   5.667   1.979   3.783 -0.1298 -0.4257 -0.1530
   97SAPC  H17X 9631   5.592   1.898   3.789 -1.9920  1.2980  0.7042
   97SAPC  H17Y 9632   5.631   2.068   3.726  0.8774 -0.0346 -0.1990
   97SAPC  C318 9633   5.714   2.021   3.926 -0.1254  0.0489  0.0433
   97SAPC  H18X 9634   5.756   1.938   3.987 -0.6723  1.8615  3.1366
   97SAPC  H18Y 9635   5.628   2.055   3.987 -1.3169  0.1688 -1.6409
   97SAPC  H18Z 9636   5.788   2.104   3.922  0.4232 -0.4089  0.4542
   98SAPC     N 9637   5.644   3.457   2.314  0.2605 -0.1010 -0.1567
   98SAPC   C12 9638   5.705   3.496   2.448  0.0240 -0.4596 -0.3256
   98SAPC  H12A 9639   5.808   3.525   2.429 -0.3354  0.5281 -0.8174
   98SAPC  H12B 9640   5.714   3.408   2.510  1.0888 -2.2510 -2.8729
   98SAPC   C13 9641   5.509   3.383   2.321 -1.0242  0.0502 -0.8383
   98SAPC  H13A 9642   5.444   3.418   2.400  1.3351  1.6278  0.5423
   98SAPC  H13B 9643   5.459   3.380   2.226 -1.9406 -0.1084 -0.3626
   98SAPC  H13C 9644   5.537   3.283   2.350 -3.0898 -0.5443 -0.7107
   98SAPC   C14 9645   5.634   3.576   2.224 -0.2237 -0.6474 -0.4810
   98SAPC  H14A 9646   5.584   3.561   2.129  0.0950 -0.1320 -0.7298
   98SAPC  H14B 9647   5.574   3.651   2.274 -2.8070 -1.6240 -1.9282
   98SAPC  H14C 9648   5.735   3.611   2.214  0.1735 -2.1287 -2.0380
   98SAPC   C15 9649   5.739   3.362   2.248  0.1180  0.3782 -0.7205
   98SAPC  H15A 9650   5.838   3.399   2.227  1.2101 -1.5413  0.7195
   98SAPC  H15B 9651   5.741   3.265   2.296 -0.6405 -0.2709 -1.9362
   98SAPC  H15C 9652   5.691   3.342   2.152 -0.2545  0.5495 -0.5724
   98SAPC   C11 9653   5.633   3.610   2.525 -0.0493  0.0265 -0.2514
   98SAPC  H11A 9654   5.677   3.622   2.626  1.9784  0.9535 -1.1688
   98SAPC  H11B 9655   5.523   3.600   2.524 -0.3469  2.6382 -0.4412
   98SAPC     P 9656   5.791   3.812   2.452 -0.1016  0.0373 -0.3792
   98SAPC   O13 9657   5.909   3.720   2.442 -0.5902 -0.0483 -0.3056
   98SAPC   O14 9658   5.784   3.912   2.346 -0.4589  0.1420  0.2005
   98SAPC   O12 9659   5.651   3.733   2.456  0.6177  0.1142  0.0359
   98SAPC   O11 9660   5.793   3.884   2.588 -0.7650  0.1428  0.3911
   98SAPC    C1 9661   5.669   3.942   2.640 -0.2015  0.3541  0.5389
   98SAPC    HA 9662   5.578   3.921   2.581  0.4936  0.0417 -0.4477
   98SAPC    HB 9663   5.653   3.892   2.738  2.0457 -0.7797  0.3998
   98SAPC    C2 9664   5.690   4.090   2.656 -0.2568 -0.4052 -0.2937
   98SAPC    HS 9665   5.700   4.134   2.554  1.0328  0.7291  0.2824
   98SAPC   O21 9666   5.802   4.105   2.749 -0.5160  0.0868 -0.1231
   98SAPC   C21 9667   5.853   4.231   2.760  0.2904  0.2836  0.5442
   98SAPC   O22 9668   5.814   4.327   2.692 -0.4962  0.8453 -0.3758
   98SAPC   C22 9669   5.958   4.230   2.866  0.7718 -0.1403 -0.2558
   98SAPC   H2R 9670   5.935   4.154   2.943  0.1091 -0.4908 -0.7847
   98SAPC   H2S 9671   6.056   4.211   2.817  0.6583 -0.6799 -0.2733
   98SAPC    C3 9672   5.561   4.152   2.722 -0.0414  0.3589  0.3756
   98SAPC    HX 9673   5.484   4.152   2.642  2.9745  0.7005 -2.7941
   98SAPC    HY 9674   5.577   4.259   2.746 -2.7203  1.1746 -1.0659
   98SAPC   O31 9675   5.514   4.076   2.838 -0.0983 -0.5829  0.1535
   98SAPC   C31 9676   5.550   4.121   2.960  0.2927  0.4142  0.1623
   98SAPC   O32 9677   5.630   4.207   2.980 -0.1379  0.1102 -0.0424
   98SAPC   C32 9678   5.499   4.018   3.071  0.4108 -0.4858  0.1616
   98SAPC   H2X 9679   5.588   3.952   3.066  2.0152  1.5431  0.4604
   98SAPC   H2Y 9680   5.408   3.965   3.034  0.4532 -1.4958  1.4505
   98SAPC   C23 9681   5.966   4.363   2.944  0.3559  0.1081 -0.3212
   98SAPC   H3R 9682   5.878   4.371   3.011  0.4402 -0.1614 -0.1715
   98SAPC   H3S 9683   5.960   4.455   2.883 -0.1865  0.0316 -0.3857
   98SAPC   C24 9684   6.092   4.368   3.036  0.1966 -0.5658  0.3838
   98SAPC   H4R 9685   6.092   4.268   3.085 -1.1220 -1.2309 -0.8760
   98SAPC   H4S 9686   6.067   4.448   3.108  0.5192 -0.8671  0.8387
   98SAPC   C25 9687   6.224   4.409   2.980  0.9019  0.4444  0.1421
   98SAPC   H5R 9688   6.227   4.505   2.926 -0.3780 -0.0028 -0.7826
   98SAPC   C26 9689   6.343   4.353   2.990  0.4222  0.3082  0.2163
   98SAPC   H6R 9690   6.423   4.410   2.939 -0.6508  1.1080 -0.6132
   98SAPC   C27 9691   6.382   4.220   3.047  0.1521  0.1579  0.4502
   98SAPC   H7R 9692   6.437   4.164   2.968 -0.5580  2.0933 -1.5047
   98SAPC   H7S 9693   6.291   4.160   3.066  1.0254 -1.1108  0.7340
   98SAPC   C28 9694   6.471   4.229   3.169  0.3881  0.0456 -0.0095
   98SAPC   H8R 9695   6.578   4.228   3.141 -0.1029 -1.6362 -2.1278
   98SAPC   C29 9696   6.427   4.227   3.300 -1.0048 -0.6555  0.1166
   98SAPC   H9R 9697   6.502   4.229   3.380 -1.5638  2.0150  0.6359
   98SAPC  C210 9698   6.283   4.230   3.352 -0.5034  0.0225  0.0776
   98SAPC  H10R 9699   6.212   4.220   3.268  0.3122 -0.5057 -0.5640
   98SAPC  H10S 9700   6.267   4.325   3.408  0.7060  1.7661 -2.3260
   98SAPC  C211 9701   6.255   4.116   3.447 -0.2573 -0.7047  0.2852
   98SAPC  H11R 9702   6.333   4.044   3.478  1.5097  1.5909  1.5053
   98SAPC  C212 9703   6.128   4.107   3.498  0.2378  0.6415 -0.5347
   98SAPC  H12R 9704   6.118   4.027   3.573 -0.2968  2.8063  1.8559
   98SAPC  C213 9705   6.014   4.199   3.479  0.4420 -0.5145  0.0998
   98SAPC  H13R 9706   6.018   4.239   3.375  1.8755 -2.0856 -0.4901
   98SAPC  H13S 9707   6.030   4.290   3.540 -0.8901  0.4324 -0.8925
   98SAPC  C214 9708   5.872   4.142   3.506 -1.3736  0.1639 -0.7578
   98SAPC  H14R 9709   5.808   4.136   3.417 -0.9546  0.2326 -1.0708
   98SAPC  C215 9710   5.827   4.107   3.631 -0.0766  0.0066  0.1098
   98SAPC  H15R 9711   5.729   4.058   3.624  0.5658 -1.3907  0.4720
   98SAPC  C216 9712   5.908   4.109   3.761 -0.2021  0.6610 -0.9234
   98SAPC  H16R 9713   5.995   4.177   3.759 -0.9885  1.6860 -1.1845
   98SAPC  H16S 9714   5.958   4.010   3.769  3.2780  2.2797 -0.7930
   98SAPC  C217 9715   5.839   4.121   3.902 -0.4707  0.6388  0.6799
   98SAPC  H17R 9716   5.750   4.054   3.893  0.4921 -0.3964 -1.8421
   98SAPC  H17S 9717   5.787   4.220   3.911 -2.7992 -0.3332 -0.9418
   98SAPC  C218 9718   5.925   4.081   4.020  0.5221 -0.1829 -0.1192
   98SAPC  H18R 9719   6.029   4.121   4.022  0.8606 -0.9924 -1.1119
   98SAPC  H18S 9720   5.929   3.971   4.015  1.5137 -0.2772  1.7525
   98SAPC  C219 9721   5.851   4.122   4.151  0.6845 -0.4166  0.6008
   98SAPC  H19R 9722   5.826   4.229   4.141 -1.6126 -1.0559 -1.7766
   98SAPC  H19S 9723   5.919   4.102   4.236 -3.8136 -1.3145  4.3814
   98SAPC  C220 9724   5.722   4.035   4.186  0.1927  0.2615 -0.6335
   98SAPC  H20R 9725   5.741   3.928   4.161  1.1937  0.1150  0.6613
   98SAPC  H20S 9726   5.639   4.080   4.126  0.5549  1.0818 -0.5253
   98SAPC  H20T 9727   5.702   4.052   4.294  0.1515 -0.1591 -0.5696
   98SAPC   C33 9728   5.478   4.075   3.216 -0.7810  0.6306  0.3604
   98SAPC   H3X 9729   5.370   4.103   3.222 -0.4500  1.5481  3.2134
   98SAPC   H3Y 9730   5.543   4.162   3.236 -0.5260  0.3562  0.7225
   98SAPC   C34 9731   5.515   3.970   3.321  0.2539 -0.5353  0.3028
   98SAPC   H4X 9732   5.625   3.988   3.327  0.0026  2.0533 -1.3553
   98SAPC   H4Y 9733   5.492   3.869   3.279  0.6205  0.8406 -3.6549
   98SAPC   C35 9734   5.458   3.989   3.457  0.3692 -0.0392  0.1265
   98SAPC   H5X 9735   5.352   4.022   3.453  0.7864  1.7406  1.9188
   98SAPC   H5Y 9736   5.503   4.079   3.503 -1.6179  1.5816 -0.9200
   98SAPC   C36 9737   5.476   3.861   3.548 -0.0275 -0.1509  0.6315
   98SAPC   H6X 9738   5.586   3.847   3.553  0.2087  0.7231 -1.2207
   98SAPC   H6Y 9739   5.426   3.781   3.489 -2.2097  1.3661  0.3228
   98SAPC   C37 9740   5.415   3.871   3.686 -0.3954 -0.0700 -0.8322
   98SAPC   H7X 9741   5.424   3.771   3.731 -1.4187 -0.6520 -1.8463
   98SAPC   H7Y 9742   5.303   3.872   3.684 -0.3887  0.8314 -1.4081
   98SAPC   C38 9743   5.453   3.983   3.771 -0.3442  0.1223  0.1271
   98SAPC   H8X 9744   5.415   4.076   3.724 -0.3429 -0.1439 -0.4074
   98SAPC   H8Y 9745   5.564   3.989   3.772 -0.2607 -0.4552 -1.7573
   98SAPC   C39 9746   5.411   3.976   3.920  0.2488 -1.0809 -0.3615
   98SAPC   H9X 9747   5.301   3.975   3.910  0.0724  2.9020 -0.3868
   98SAPC   H9Y 9748   5.435   4.079   3.951  0.5654 -1.9058  2.3712
   98SAPC  C310 9749   5.459   3.854   3.998 -0.6508 -0.2200 -0.4960
   98SAPC  H10X 9750   5.569   3.845   3.993 -0.4644  0.9847  0.8681
   98SAPC  H10Y 9751   5.411   3.765   3.952 -0.1828 -1.2245  0.9012
   98SAPC  C311 9752   5.405   3.841   4.143  0.5714  0.0961 -0.2853
   98SAPC  H11X 9753   5.295   3.846   4.138  0.4933 -1.4185 -0.4103
   98SAPC  H11Y 9754   5.436   3.931   4.201 -0.4106 -1.1056  2.2564
   98SAPC  C312 9755   5.459   3.713   4.210 -0.7032  0.8092 -0.3139
   98SAPC  H12X 9756   5.567   3.724   4.231 -0.8687 -0.1125  1.2438
   98SAPC  H12Y 9757   5.460   3.628   4.138  2.4232 -0.2738  0.8381
   98SAPC  C313 9758   5.373   3.666   4.331  0.1129 -0.0095 -1.3932
   98SAPC  H13X 9759   5.267   3.664   4.298 -0.2775 -0.1640 -0.1929
   98SAPC  H13Y 9760   5.372   3.750   4.404 -0.5749 -0.9842 -0.2496
   98SAPC  C314 9761   5.435   3.544   4.403  0.0545 -0.1367  0.2387
   98SAPC  H14X 9762   5.424   3.563   4.512 -1.0429  0.3123  0.0680
   98SAPC  H14Y 9763   5.545   3.553   4.391  0.2109 -3.1284 -1.4476
   98SAPC  C315 9764   5.386   3.404   4.360  0.5368  0.1524  0.4659
   98SAPC  H15X 9765   5.477   3.346   4.333 -0.4764 -1.1853 -0.2050
   98SAPC  H15Y 9766   5.327   3.396   4.266  1.7534 -3.4437 -0.1534
   98SAPC  C316 9767   5.317   3.327   4.477  0.4598 -0.3968  0.2371
   98SAPC  H16X 9768   5.392   3.307   4.557 -0.2377  0.7823  1.2184
   98SAPC  H16Y 9769   5.267   3.232   4.446  2.4786 -2.1968  2.1804
   98SAPC  C317 9770   5.206   3.402   4.548  0.4050 -0.2528  0.5532
   98SAPC  H17X 9771   5.118   3.409   4.480  0.9247 -0.8304 -0.1956
   98SAPC  H17Y 9772   5.239   3.503   4.581 -1.7451  0.1264  1.7250
   98SAPC  C318 9773   5.163   3.333   4.677 -0.9476  1.3344  0.0858
   98SAPC  H18X 9774   5.111   3.238   4.654 -0.4070  0.5782  1.8278
   98SAPC  H18Y 9775   5.107   3.399   4.746 -1.3133 -0.4411  1.5607
   98SAPC  H18Z 9776   5.251   3.302   4.738 -1.5213  0.3431  0.4240
   99SAPC     N 9777   5.689   6.518   1.948  0.2439 -0.7136 -0.5596
   99SAPC   C12 9778   5.744   6.649   2.005 -0.5379 -0.5355  0.2122
   99SAPC  H12A 9779   5.667   6.724   1.995 -0.4884 -0.4806  0.2420
   99SAPC  H12B 9780   5.823   6.686   1.941 -0.0652  2.7316  2.4639
   99SAPC   C13 9781   5.632   6.538   1.809  0.2540  0.2981 -0.1903
   99SAPC  H13A 9782   5.544   6.599   1.813  1.2756  1.8186  0.1180
   99SAPC  H13B 9783   5.707   6.596   1.757 -1.5402  2.8644 -0.0785
   99SAPC  H13C 9784   5.609   6.440   1.770 -0.2291  0.6930 -0.9291
   99SAPC   C14 9785   5.792   6.420   1.944  0.8229  0.1699  0.0502
   99SAPC  H14A 9786   5.736   6.330   1.921 -1.2231  0.8720  1.9838
   99SAPC  H14B 9787   5.864   6.439   1.865  0.5684 -2.4750 -0.9425
   99SAPC  H14C 9788   5.853   6.411   2.032  2.3410 -0.4028 -1.0029
   99SAPC   C15 9789   5.576   6.476   2.038 -0.4123 -0.2843  0.5765
   99SAPC  H15A 9790   5.559   6.371   2.019  0.3029 -0.7748  2.4390
   99SAPC  H15B 9791   5.604   6.501   2.140 -1.6674 -0.8725  1.0811
   99SAPC  H15C 9792   5.487   6.532   2.011 -1.9636 -2.9746 -0.2365
   99SAPC   C11 9793   5.790   6.648   2.148  0.2383  0.4745  0.7660
   99SAPC  H11A 9794   5.718   6.596   2.214 -1.0982 -1.8656 -2.2758
   99SAPC  H11B 9795   5.794   6.756   2.175  0.5552 -0.2278  3.9157
   99SAPC     P 9796   6.045   6.671   2.172  0.5495 -0.0785  0.3899
   99SAPC   O13 9797   6.167   6.593   2.151 -0.4327  0.3485  1.0930
   99SAPC   O14 9798   6.035   6.789   2.081 -0.3374  0.3080 -0.3513
   99SAPC   O12 9799   5.914   6.586   2.159 -0.2695  0.2309  0.3788
   99SAPC   O11 9800   6.044   6.721   2.323 -0.4332  0.0785 -0.0802
   99SAPC    C1 9801   5.987   6.637   2.423  0.0509  0.2519  0.0851
   99SAPC    HA 9802   5.907   6.692   2.477 -1.0679  0.1992 -1.4724
   99SAPC    HB 9803   5.933   6.546   2.389  0.8913  0.3469 -1.5884
   99SAPC    C2 9804   6.088   6.604   2.528  0.5665 -1.0183 -0.1618
   99SAPC    HS 9805   6.041   6.548   2.611  2.6289 -2.1224  0.3438
   99SAPC   O21 9806   6.144   6.726   2.571  0.0846  0.2566  0.2119
   99SAPC   C21 9807   6.071   6.796   2.645  0.2051  0.4322  0.1984
   99SAPC   O22 9808   5.967   6.755   2.699  0.0893  0.5542  0.1240
   99SAPC   C22 9809   6.140   6.933   2.666  0.0413  1.5900  0.1429
   99SAPC   H2R 9810   6.247   6.908   2.651 -0.5669 -1.9442  0.7255
   99SAPC   H2S 9811   6.102   7.003   2.588  0.5182  0.8447 -0.7761
   99SAPC    C3 9812   6.211   6.517   2.478  0.4926  0.3470  0.3916
   99SAPC    HX 9813   6.278   6.512   2.567  0.1925 -0.8296  0.5666
   99SAPC    HY 9814   6.275   6.563   2.400  2.1930  0.4746  1.7774
   99SAPC   O31 9815   6.153   6.396   2.425  0.3177  0.0665 -0.6039
   99SAPC   C31 9816   6.122   6.306   2.523 -0.3231 -0.0251  0.0363
   99SAPC   O32 9817   6.122   6.331   2.644 -0.0405  0.2303  0.3032
   99SAPC   C32 9818   6.065   6.180   2.467  0.7371  0.5587 -0.1680
   99SAPC   H2X 9819   6.094   6.168   2.360 -0.3736 -0.8847 -0.3259
   99SAPC   H2Y 9820   5.958   6.211   2.462  0.8371  1.1720  1.2298
   99SAPC   C23 9821   6.117   6.975   2.816 -0.1021 -0.4790  0.9571
   99SAPC   H3R 9822   6.197   7.047   2.845  1.3115 -1.8707  0.6254
   99SAPC   H3S 9823   6.144   6.886   2.876  0.6964 -0.8097  0.1494
   99SAPC   C24 9824   5.982   7.041   2.838 -0.6570 -0.9457  0.0713
   99SAPC   H4R 9825   5.975   7.046   2.949  1.5246 -1.4526  0.2859
   99SAPC   H4S 9826   5.906   6.970   2.799  0.1470 -1.7913  0.0223
   99SAPC   C25 9827   5.961   7.180   2.788  0.2075 -0.3618  0.2649
   99SAPC   H5R 9828   5.890   7.195   2.705 -1.2636  1.1370  1.7208
   99SAPC   C26 9829   6.022   7.294   2.840 -0.2287 -0.0272  0.1632
   99SAPC   H6R 9830   5.994   7.394   2.807  0.9967  0.0408 -0.7437
   99SAPC   C27 9831   6.111   7.298   2.954 -0.3350  0.0761 -0.6932
   99SAPC   H7R 9832   6.156   7.201   2.984 -0.8263  0.2256  0.6280
   99SAPC   H7S 9833   6.042   7.310   3.040  0.4493 -1.1109  0.1334
   99SAPC   C28 9834   6.213   7.410   2.947 -0.2728 -0.3744 -0.0093
   99SAPC   H8R 9835   6.259   7.426   2.848 -1.9257 -0.0214 -0.7636
   99SAPC   C29 9836   6.249   7.500   3.039 -0.4413 -0.4487 -0.3946
   99SAPC   H9R 9837   6.334   7.561   3.005 -2.2008  1.4442 -1.5769
   99SAPC  C210 9838   6.197   7.502   3.182  0.0252 -0.1628 -0.1116
   99SAPC  H10R 9839   6.109   7.434   3.181 -1.1551  1.3086 -1.5802
   99SAPC  H10S 9840   6.171   7.604   3.215 -0.8328 -1.2228  2.7481
   99SAPC  C211 9841   6.289   7.437   3.274  0.0262 -0.7002  0.1899
   99SAPC  H11R 9842   6.353   7.360   3.228  5.0355  1.7079  2.4546
   99SAPC  C212 9843   6.303   7.460   3.407 -0.6510  0.3680  0.6191
   99SAPC  H12R 9844   6.379   7.401   3.462  0.5444  2.6800  1.5742
   99SAPC  C213 9845   6.214   7.544   3.491 -0.4439 -0.9970 -0.1886
   99SAPC  H13R 9846   6.130   7.491   3.541 -1.9606  1.1683 -0.2918
   99SAPC  H13S 9847   6.158   7.614   3.426 -0.5898 -1.0223 -0.0914
   99SAPC  C214 9848   6.280   7.644   3.586 -0.2230  0.2233  0.4617
   99SAPC  H14R 9849   6.320   7.730   3.530  1.1315 -0.8407 -0.2621
   99SAPC  C215 9850   6.302   7.640   3.714  0.2772  0.4847  0.3667
   99SAPC  H15R 9851   6.354   7.721   3.768 -3.2128  2.4082  1.1684
   99SAPC  C216 9852   6.267   7.520   3.800  0.2822 -0.1730  0.4459
   99SAPC  H16R 9853   6.336   7.487   3.881 -1.1189  0.0049  1.7612
   99SAPC  H16S 9854   6.253   7.427   3.740  0.6613 -1.4384  2.2149
   99SAPC  C217 9855   6.135   7.543   3.870  0.1991 -0.8534  0.5162
   99SAPC  H17R 9856   6.104   7.447   3.916 -1.9812 -0.1313  0.6514
   99SAPC  H17S 9857   6.057   7.576   3.798 -1.4660  0.5467  2.7961
   99SAPC  C218 9858   6.141   7.645   3.991  0.2492 -0.3433  0.3020
   99SAPC  H18R 9859   6.044   7.683   4.030  1.2777  2.5822  0.2330
   99SAPC  H18S 9860   6.194   7.735   3.955 -1.6707  0.9861  0.6233
   99SAPC  C219 9861   6.211   7.590   4.118  1.0095 -0.4797 -0.5584
   99SAPC  H19R 9862   6.307   7.554   4.076  0.7822  0.2430 -1.7374
   99SAPC  H19S 9863   6.155   7.507   4.166 -0.0375  1.6461  2.1573
   99SAPC  C220 9864   6.237   7.701   4.224 -0.0898 -0.0289  0.0171
   99SAPC  H20R 9865   6.289   7.664   4.315  1.2570  0.2246 -0.6157
   99SAPC  H20S 9866   6.141   7.747   4.254 -0.4368  0.5290 -1.8378
   99SAPC  H20T 9867   6.293   7.781   4.170 -0.3148 -0.9429 -1.6257
   99SAPC   C33 9868   6.091   6.056   2.537 -0.1965 -0.2585 -0.2853
   99SAPC   H3X 9869   6.037   5.971   2.490 -0.4110 -0.7784  0.8660
   99SAPC   H3Y 9870   6.038   6.053   2.634 -0.7615  1.9916 -0.4732
   99SAPC   C34 9871   6.235   6.014   2.555 -0.0969 -0.9803  0.3911
   99SAPC   H4X 9872   6.301   6.103   2.559  1.5508 -1.9831 -1.9481
   99SAPC   H4Y 9873   6.269   5.959   2.464  1.7604 -0.6884  0.8700
   99SAPC   C35 9874   6.257   5.924   2.675 -0.4870  0.2132  0.1988
   99SAPC   H5X 9875   6.353   5.871   2.661  0.0283  1.2787 -0.4104
   99SAPC   H5Y 9876   6.179   5.845   2.681  0.4774 -0.9469 -1.8103
   99SAPC   C36 9877   6.256   6.007   2.806 -0.2926  0.2315  0.0298
   99SAPC   H6X 9878   6.161   6.063   2.819 -0.8419 -0.6408 -0.1519
   99SAPC   H6Y 9879   6.345   6.072   2.793  0.5844 -1.0152 -0.3987
   99SAPC   C37 9880   6.289   5.913   2.924  0.5511  0.5991  0.3174
   99SAPC   H7X 9881   6.391   5.869   2.911  0.8141  0.5933  2.1980
   99SAPC   H7Y 9882   6.220   5.827   2.919  1.0262  0.1290  1.5070
   99SAPC   C38 9883   6.295   5.984   3.057 -0.0066 -0.5515  0.2147
   99SAPC   H8X 9884   6.191   6.023   3.070  0.2791 -0.4430  2.6261
   99SAPC   H8Y 9885   6.369   6.066   3.045  0.8684 -1.0799  1.7467
   99SAPC   C39 9886   6.337   5.895   3.174  0.2860  0.1056 -0.3577
   99SAPC   H9X 9887   6.446   5.876   3.175 -0.0397 -2.1858  1.0006
   99SAPC   H9Y 9888   6.290   5.795   3.159 -0.7301 -0.0510  3.0499
   99SAPC  C310 9889   6.296   5.958   3.310 -0.8737 -0.1999  0.5996
   99SAPC  H10X 9890   6.185   5.967   3.315 -0.9770  0.6962 -1.8626
   99SAPC  H10Y 9891   6.330   6.063   3.313 -1.3091 -0.0606  0.7951
   99SAPC  C311 9892   6.352   5.879   3.430  0.0985 -0.3628 -0.8374
   99SAPC  H11X 9893   6.463   5.871   3.419  0.3882  0.9468  0.6810
   99SAPC  H11Y 9894   6.304   5.779   3.429  2.8524 -1.7996 -0.1789
   99SAPC  C312 9895   6.311   5.962   3.547  0.8741  0.2737  0.4114
   99SAPC  H12X 9896   6.203   5.985   3.560  0.6310  0.1572 -1.2252
   99SAPC  H12Y 9897   6.361   6.061   3.542  0.7107  0.4030  1.2355
   99SAPC  C313 9898   6.335   5.881   3.676 -0.3379 -0.4960  0.7361
   99SAPC  H13X 9899   6.443   5.883   3.699 -0.0250  0.1975 -0.6662
   99SAPC  H13Y 9900   6.308   5.773   3.669 -2.3914 -0.0300  0.8147
   99SAPC  C314 9901   6.251   5.939   3.788  0.7390 -0.2626  0.3082
   99SAPC  H14X 9902   6.146   5.904   3.779  0.5779  0.2077  0.3019
   99SAPC  H14Y 9903   6.251   6.050   3.785  2.1568 -0.2490  0.4020
   99SAPC  C315 9904   6.314   5.906   3.928  0.6366  0.2660 -0.3028
   99SAPC  H15X 9905   6.411   5.961   3.930 -0.2359  1.9336 -1.6569
   99SAPC  H15Y 9906   6.344   5.799   3.936  0.2405  0.2169  0.7372
   99SAPC  C316 9907   6.224   5.935   4.056  0.7191  0.1108  0.1618
   99SAPC  H16X 9908   6.280   5.909   4.149 -3.8076 -1.6955  2.6808
   99SAPC  H16Y 9909   6.143   5.859   4.059  1.9347 -1.2361  0.5165
   99SAPC  C317 9910   6.159   6.068   4.068 -0.9357 -0.2898 -0.1128
   99SAPC  H17X 9911   6.086   6.075   4.151 -1.0380  1.6536 -0.3264
   99SAPC  H17Y 9912   6.103   6.094   3.976 -0.3194  2.8089  0.2697
   99SAPC  C318 9913   6.263   6.180   4.099  0.1860 -0.2108 -0.6768
   99SAPC  H18X 9914   6.214   6.272   4.138  1.5269  0.0325  0.5248
   99SAPC  H18Y 9915   6.322   6.215   4.012  0.6341 -0.2450 -0.3887
   99SAPC  H18Z 9916   6.338   6.146   4.173 -0.1131 -1.0224 -0.7353
  100SAPC     N 9917   2.924   6.268   1.606  0.1301  0.5742 -0.2369
  100SAPC   C12 9918   2.984   6.187   1.719 -0.0142 -0.3584  0.3553
  100SAPC  H12A 9919   3.091   6.202   1.722  0.1633 -0.1229 -3.2464
  100SAPC  H12B 9920   2.970   6.084   1.689 -1.2254 -0.4488  1.1863
  100SAPC   C13 9921   3.000   6.239   1.487 -0.1141  0.1659  0.4900
  100SAPC  H13A 9922   2.948   6.266   1.396  2.0734  0.0885 -0.8679
  100SAPC  H13B 9923   3.098   6.283   1.494 -0.1168  0.2849 -0.1649
  100SAPC  H13C 9924   3.018   6.132   1.486 -0.4000 -0.0877  4.8707
  100SAPC   C14 9925   2.782   6.233   1.595 -0.2052  0.5014 -0.3338
  100SAPC  H14A 9926   2.767   6.129   1.571  1.4651  0.1328  0.1015
  100SAPC  H14B 9927   2.726   6.241   1.687 -0.6335 -2.5934 -0.2014
  100SAPC  H14C 9928   2.732   6.293   1.520  2.8475  0.7875 -2.3300
  100SAPC   C15 9929   2.939   6.414   1.635  0.0993  0.4140 -0.1300
  100SAPC  H15A 9930   2.899   6.469   1.551  0.8827 -0.2179 -0.9278
  100SAPC  H15B 9931   2.878   6.442   1.720  0.7220 -0.3767  0.5874
  100SAPC  H15C 9932   3.044   6.437   1.643  0.3850 -0.6431 -0.6584
  100SAPC   C11 9933   2.934   6.209   1.869 -0.6436  0.0240  0.7073
  100SAPC  H11A 9934   2.963   6.122   1.932  2.2103 -0.2299 -0.7956
  100SAPC  H11B 9935   2.823   6.216   1.873 -0.6571  0.6445 -0.3284
  100SAPC     P 9936   3.131   6.344   1.980  0.3654 -0.3917 -0.5030
  100SAPC   O13 9937   3.181   6.223   2.049  0.1290 -0.3380 -0.0897
  100SAPC   O14 9938   3.212   6.389   1.863  0.3850  0.2684 -0.6836
  100SAPC   O12 9939   2.983   6.324   1.943  0.4006 -0.2047  0.8723
  100SAPC   O11 9940   3.107   6.450   2.081 -0.1969 -0.5955  0.4444
  100SAPC    C1 9941   3.080   6.418   2.217 -0.1936 -0.6832 -0.2117
  100SAPC    HA 9942   3.017   6.498   2.261  0.6870  0.0032 -0.1714
  100SAPC    HB 9943   3.024   6.322   2.222  0.8298 -1.2929 -0.0829
  100SAPC    C2 9944   3.203   6.419   2.310  0.8076  0.1743  0.5640
  100SAPC    HS 9945   3.248   6.317   2.302  0.7822  0.2524 -0.7061
  100SAPC   O21 9946   3.165   6.456   2.443 -0.1809 -0.2279 -0.7906
  100SAPC   C21 9947   3.122   6.352   2.515  0.1049  0.0242  0.7066
  100SAPC   O22 9948   3.106   6.240   2.475  0.8598 -0.0482 -0.3968
  100SAPC   C22 9949   3.102   6.397   2.660  0.1337  0.2995 -0.0472
  100SAPC   H2R 9950   3.202   6.418   2.704 -0.3744 -0.1695  1.3672
  100SAPC   H2S 9951   3.058   6.499   2.655  0.7944  0.6222  0.5771
  100SAPC    C3 9952   3.309   6.513   2.248  0.8704 -0.1875 -0.2079
  100SAPC    HX 9953   3.259   6.611   2.265  0.2275 -0.4199 -0.7098
  100SAPC    HY 9954   3.322   6.494   2.140  0.5628 -2.0884  0.0550
  100SAPC   O31 9955   3.445   6.496   2.302  0.0157  0.0175 -0.4686
  100SAPC   C31 9956   3.505   6.606   2.353  0.2000  0.6863 -0.8094
  100SAPC   O32 9957   3.465   6.721   2.351  0.0983  0.1537 -0.1718
  100SAPC   C32 9958   3.632   6.571   2.423 -0.6112 -0.2580  0.3589
  100SAPC   H2X 9959   3.671   6.670   2.455 -1.0951  1.2236 -3.2036
  100SAPC   H2Y 9960   3.710   6.522   2.361 -2.0146 -1.0237 -0.8821
  100SAPC   C23 9961   3.007   6.307   2.749 -0.4242 -0.4532 -0.2767
  100SAPC   H3R 9962   2.987   6.210   2.699 -0.5107 -0.9739  0.7316
  100SAPC   H3S 9963   2.916   6.368   2.767 -0.0168  0.2430 -0.5171
  100SAPC   C24 9964   3.058   6.278   2.890  0.4870  0.2400  0.5575
  100SAPC   H4R 9965   3.149   6.214   2.892 -0.0149 -0.4782  0.6056
  100SAPC   H4S 9966   2.972   6.226   2.937 -0.5261  0.6177 -0.8091
  100SAPC   C25 9967   3.102   6.409   2.964  1.3442 -0.0070  0.1971
  100SAPC   H5R 9968   3.097   6.503   2.907  1.2287 -0.0204  0.1828
  100SAPC   C26 9969   3.117   6.425   3.095 -0.2302 -0.1182 -0.1150
  100SAPC   H6R 9970   3.150   6.523   3.132  4.1101 -0.5804 -2.1820
  100SAPC   C27 9971   3.109   6.316   3.200 -0.2032 -1.1147 -0.2110
  100SAPC   H7R 9972   3.075   6.218   3.159  0.0130 -1.4212  0.3445
  100SAPC   H7S 9973   3.031   6.349   3.271  0.8232  1.8720 -0.3664
  100SAPC   C28 9974   3.232   6.287   3.274  0.2007  0.3492 -0.4242
  100SAPC   H8R 9975   3.323   6.279   3.213  0.0486 -2.4482 -0.4045
  100SAPC   C29 9976   3.247   6.264   3.407 -0.4892  0.0360  0.3553
  100SAPC   H9R 9977   3.351   6.255   3.443 -1.0397 -0.4375  1.9062
  100SAPC  C210 9978   3.136   6.274   3.509  0.3055  0.2017 -0.5779
  100SAPC  H10R 9979   3.154   6.201   3.590  0.2442 -0.8122 -1.4608
  100SAPC  H10S 9980   3.040   6.248   3.459 -0.8205  0.3357  1.4072
  100SAPC  C211 9981   3.124   6.414   3.559 -1.0500  0.1234 -0.1336
  100SAPC  H11R 9982   3.078   6.495   3.499  0.5340  3.2907  2.5948
  100SAPC  C212 9983   3.171   6.453   3.681  0.3311  0.1971  0.5373
  100SAPC  H12R 9984   3.153   6.552   3.726  1.1084  0.3357  0.5479
  100SAPC  C213 9985   3.223   6.359   3.785 -0.7541 -0.0413  0.1790
  100SAPC  H13R 9986   3.290   6.422   3.847 -0.2390  0.7763 -1.1687
  100SAPC  H13S 9987   3.291   6.286   3.735 -0.9129 -0.4945  0.6105
  100SAPC  C214 9988   3.122   6.289   3.871  0.1271  1.0960 -0.1879
  100SAPC  H14R 9989   3.053   6.225   3.814 -0.0886  0.8620  0.3314
  100SAPC  C215 9990   3.101   6.301   4.003  0.5941 -0.1565  0.5360
  100SAPC  H15R 9991   3.009   6.250   4.033  0.1400  1.0002  1.1552
  100SAPC  C216 9992   3.169   6.387   4.102  0.4461  0.1000  0.0758
  100SAPC  H16R 9993   3.274   6.395   4.069  0.1125  0.0911 -1.0480
  100SAPC  H16S 9994   3.162   6.339   4.202 -1.5526  3.1110  1.5413
  100SAPC  C217 9995   3.106   6.532   4.107  1.2969  0.1779 -0.2172
  100SAPC  H17R 9996   3.102   6.588   4.011  1.2590  0.0887 -0.2678
  100SAPC  H17S 9997   3.175   6.599   4.162  1.5663 -2.1920  2.5376
  100SAPC  C218 9998   2.960   6.526   4.169  0.0824  0.3027 -0.2852
  100SAPC  H18R 9999   2.985   6.488   4.270  3.5120 -1.5202 -1.6296
  100SAPC  H18S10000   2.904   6.449   4.111 -1.0948  0.3039  0.8288
  100SAPC  C21910001   2.883   6.663   4.179 -0.6497  0.0937  0.2444
  100SAPC  H19R10002   2.945   6.744   4.221  3.5354 -3.1347  1.0032
  100SAPC  H19S10003   2.806   6.643   4.256 -1.1395  0.2102 -0.2029
  100SAPC  C22010004   2.812   6.706   4.052 -0.4031  0.3982 -0.3895
  100SAPC  H20R10005   2.718   6.760   4.071  0.1182  2.2990 -2.7429
  100SAPC  H20S10006   2.796   6.614   3.991  2.6853 -0.2570 -0.4087
  100SAPC  H20T10007   2.884   6.760   3.987  1.0702 -0.8501  0.1267
  100SAPC   C3310008   3.604   6.489   2.549 -0.5060  0.0557 -0.6194
  100SAPC   H3X10009   3.702   6.463   2.593 -0.3666  1.1887 -0.2306
  100SAPC   H3Y10010   3.552   6.393   2.531 -1.5743  0.5053  0.0021
  100SAPC   C3410011   3.524   6.566   2.657 -0.3504  0.6950  0.2765
  100SAPC   H4X10012   3.418   6.567   2.625 -0.0145  0.8749 -0.9103
  100SAPC   H4Y10013   3.568   6.668   2.663 -1.5644  1.1428  2.7643
  100SAPC   C3510014   3.536   6.505   2.800 -0.4026 -0.0674 -0.0204
  100SAPC   H5X10015   3.638   6.465   2.818  0.1343  1.0332 -0.5311
  100SAPC   H5Y10016   3.479   6.410   2.806 -1.3659  0.5381  0.7791
  100SAPC   C3610017   3.496   6.600   2.913  0.0815 -0.0263  0.6780
  100SAPC   H6X10018   3.386   6.609   2.901 -0.1381 -0.1011  2.4736
  100SAPC   H6Y10019   3.544   6.699   2.902 -1.3405  0.7010  0.8399
  100SAPC   C3710020   3.529   6.538   3.054  0.1583 -0.1929  0.9836
  100SAPC   H7X10021   3.637   6.513   3.064  0.3394  0.4276  0.6388
  100SAPC   H7Y10022   3.471   6.443   3.055 -0.1240 -0.1333 -1.8508
  100SAPC   C3810023   3.488   6.626   3.180  0.2003 -0.1186  0.4875
  100SAPC   H8X10024   3.382   6.657   3.169  0.6364  1.9865  1.6039
  100SAPC   H8Y10025   3.550   6.718   3.167 -0.5159  0.4559  1.0676
  100SAPC   C3910026   3.527   6.566   3.311 -0.0076 -0.0877  0.9445
  100SAPC   H9X10027   3.637   6.547   3.305 -0.1912 -0.8163 -0.8000
  100SAPC   H9Y10028   3.490   6.461   3.316  0.0738 -0.1792 -0.1390
  100SAPC  C31010029   3.499   6.639   3.442  0.6632 -0.0193 -0.3666
  100SAPC  H10X10030   3.389   6.640   3.455  0.9075 -1.1909  2.2562
  100SAPC  H10Y10031   3.547   6.736   3.415  1.5119 -0.4860 -0.5849
  100SAPC  C31110032   3.565   6.562   3.558  0.3758 -0.2022 -0.0260
  100SAPC  H11X10033   3.676   6.565   3.550  0.3678 -0.4945 -0.2604
  100SAPC  H11Y10034   3.534   6.455   3.558  0.5924 -0.2806 -1.8151
  100SAPC  C31210035   3.521   6.626   3.690  0.3248  0.5532 -0.2273
  100SAPC  H12X10036   3.411   6.622   3.701  0.2458  0.1869 -1.0702
  100SAPC  H12Y10037   3.565   6.728   3.684  1.3585  0.5185  3.6883
  100SAPC  C31310038   3.608   6.570   3.809  0.7560  0.0471 -0.6895
  100SAPC  H13X10039   3.711   6.612   3.808  0.5385  1.1140  3.4575
  100SAPC  H13Y10040   3.612   6.459   3.806  0.9985 -0.0385  1.3128
  100SAPC  C31410041   3.520   6.602   3.939  0.1451 -0.5482  0.4049
  100SAPC  H14X10042   3.418   6.559   3.924 -1.2950  2.5107  0.7140
  100SAPC  H14Y10043   3.495   6.709   3.955  1.8677 -0.4208  2.8382
  100SAPC  C31510044   3.577   6.549   4.072  1.3923 -0.2314  0.1572
  100SAPC  H15X10045   3.679   6.588   4.094  0.6580  1.5594  0.5849
  100SAPC  H15Y10046   3.567   6.439   4.061  1.4044 -0.0709 -1.8708
  100SAPC  C31610047   3.488   6.590   4.193  0.3507  0.2446 -0.5441
  100SAPC  H16X10048   3.384   6.576   4.158  0.0181 -1.2158  0.8453
  100SAPC  H16Y10049   3.490   6.697   4.223 -1.2982 -0.0607  0.8420
  100SAPC  C31710050   3.517   6.499   4.313 -0.2993 -0.4418  0.9780
  100SAPC  H17X10051   3.530   6.393   4.285  1.1397 -0.3660  1.2984
  100SAPC  H17Y10052   3.429   6.493   4.381 -1.5197  1.3156 -0.3464
  100SAPC  C31810053   3.634   6.552   4.397 -0.6825  0.1618  0.6838
  100SAPC  H18X10054   3.616   6.537   4.505 -0.4783  0.6336  0.7836
  100SAPC  H18Y10055   3.649   6.660   4.379  0.5845  0.2540  2.0830
  100SAPC  H18Z10056   3.732   6.500   4.382 -0.2554  0.5509  2.0199
  101OSM      N10057   0.422   0.704   6.974  0.0360 -0.7139  0.8746
  101OSM    C1510058   0.420   0.842   7.032  0.4973 -0.6174 -0.2983
  101OSM   H15A10059   0.328   0.874   7.079 -0.7845 -2.4602 -1.4234
  101OSM   H15B10060   0.425   0.909   6.948 -0.0794 -0.5552 -0.2932
  101OSM   H15C10061   0.491   0.861   7.110 -2.2237 -0.2743  2.2845
  101OSM    C1410062   0.554   0.682   6.902 -0.2789  0.1402 -0.0765
  101OSM   H14A10063   0.556   0.587   6.850 -0.6891  0.1337 -0.0801
  101OSM   H14B10064   0.631   0.673   6.977 -1.8153  0.4080  1.6080
  101OSM   H14C10065   0.576   0.758   6.828  0.9754 -0.8924 -0.8108
  101OSM    C1310066   0.419   0.611   7.089  0.1408 -0.4711  0.1534
  101OSM   H13A10067   0.438   0.514   7.045  4.9817  0.7372 -1.1163
  101OSM   H13B10068   0.330   0.621   7.149 -0.9607  0.1380 -1.5096
  101OSM   H13C10069   0.507   0.632   7.148  1.4060  0.5975 -1.9780
  101OSM    C1210070   0.304   0.686   6.876 -0.2436 -0.1981  0.8061
  101OSM   H12A10071   0.212   0.712   6.925 -0.1568 -0.1932  0.9692
  101OSM   H12B10072   0.289   0.581   6.859  1.6511 -0.6332  1.5093
  101OSM    C1110073   0.291   0.771   6.740  0.1989  0.0132  0.6928
  101OSM   H11A10074   0.202   0.731   6.687  0.3094 -0.6390  0.9935
  101OSM   H11B10075   0.385   0.753   6.684  0.9559  1.6959  1.3411
  101OSM      P10076   0.138   0.984   6.828  0.1808 -0.3720  0.1201
  101OSM    O1310077   0.083   0.890   6.933 -0.2344  0.1149  0.5283
  101OSM    O1410078   0.157   1.123   6.882  0.0476  0.6666  0.0921
  101OSM    O1110079   0.044   0.989   6.701  0.0517  0.7849 -0.0769
  101OSM    O1210080   0.275   0.915   6.766 -0.3363 -0.0891 -0.1183
  101OSM    C1S10081   0.075   1.088   6.600  0.3059  0.2943 -0.2465
  101OSM    H1S10082   0.145   1.169   6.629 -1.8678  2.0078  0.5855
  101OSM    H1T10083  -0.021   1.138   6.575  0.7448  0.6006 -1.3630
  101OSM     NF10084   0.176   1.138   6.380 -0.8548  0.7229 -0.0571
  101OSM    HNF10085   0.106   1.166   6.316 -0.6742  2.4782  0.4785
  101OSM    C2S10086   0.131   1.035   6.469  0.4780 -0.5683 -0.1664
  101OSM    H2S10087   0.217   0.969   6.494 -0.2874 -1.3223  0.5643
  101OSM    C3S10088   0.034   0.935   6.401  0.5391 -0.3957  0.7827
  101OSM    H3S10089  -0.058   0.987   6.364 -0.2673 -1.5865  1.0758
  101OSM     O310090  -0.004   0.835   6.490 -0.2248  0.3760  0.0807
  101OSM    HO310091   0.022   0.872   6.575  0.0642  2.2225 -0.7666
  101OSM    C4S10092   0.093   0.879   6.278 -0.0411  0.7819  0.6924
  101OSM    H4S10093   0.064   0.945   6.195 -0.0998 -0.1330 -0.0291
  101OSM    C5S10094   0.158   0.763   6.257 -0.4340  0.1639  0.0514
  101OSM    H5S10095   0.175   0.693   6.340  1.2390 -1.5779 -1.6716
  101OSM    C6S10096   0.205   0.698   6.128 -0.1221  0.1507  0.2207
  101OSM    H6S10097   0.155   0.600   6.112  0.2309  0.0478 -0.2726
  101OSM    H6T10098   0.313   0.677   6.138  0.4155  2.8017  0.6142
  101OSM    C7S10099   0.183   0.770   5.995 -0.3951  0.6453 -0.4998
  101OSM    H7S10100   0.245   0.862   6.001 -1.6587  1.5814 -1.4080
  101OSM    H7T10101   0.080   0.807   5.979 -0.3803  0.1429 -1.9165
  101OSM    C8S10102   0.220   0.691   5.865  0.0826  0.2843  0.3111
  101OSM    H8S10103   0.157   0.599   5.869 -0.3738  0.3039  7.4143
  101OSM    H8T10104   0.329   0.675   5.854  0.1107  0.6843 -0.0217
  101OSM    C9S10105   0.188   0.773   5.742 -0.4134 -0.0535 -0.1800
  101OSM    H9S10106   0.266   0.852   5.742 -0.1236 -0.2931  1.4222
  101OSM    H9T10107   0.088   0.821   5.753  0.0023  0.8967 -0.5264
  101OSM   C10S10108   0.185   0.685   5.619  0.2537  0.4429 -0.3362
  101OSM   H10S10109   0.104   0.610   5.625 -1.2385  2.0619  0.6875
  101OSM   H10T10110   0.284   0.635   5.609  0.2255 -0.7203  3.5423
  101OSM   C11S10111   0.156   0.761   5.483  0.3893 -0.3418 -0.8088
  101OSM   H11S10112   0.236   0.834   5.457  0.5092 -0.2585 -0.2227
  101OSM   H11T10113   0.069   0.827   5.505 -0.7584 -1.1663 -2.5973
  101OSM   C12S10114   0.116   0.658   5.381 -0.0334 -0.6738  0.2892
  101OSM   H12S10115   0.033   0.595   5.419  0.6690 -0.7502  1.7687
  101OSM   H12T10116   0.205   0.594   5.364  0.2493 -1.0708  2.8805
  101OSM   C13S10117   0.073   0.711   5.250  0.1678  0.2802  1.0150
  101OSM   H13S10118   0.156   0.773   5.208 -0.1946 -0.6061 -1.1729
  101OSM   H13T10119  -0.018   0.773   5.269 -0.5170  0.0550 -1.1946
  101OSM   C14S10120   0.046   0.595   5.153 -0.0643  0.1587  0.7987
  101OSM   H14S10121  -0.031   0.528   5.196  0.2733 -2.1010 -1.8694
  101OSM   H14T10122   0.127   0.521   5.137 -3.0207 -3.3616  0.9182
  101OSM   C15S10123  -0.009   0.634   5.013  0.0933 -0.4020  0.2787
  101OSM   H15S10124   0.045   0.726   4.982  0.9651 -1.5586 -1.8817
  101OSM   H15T10125  -0.118   0.655   5.020 -0.5192 -2.3859 -1.9127
  101OSM   C16S10126   0.024   0.529   4.909 -0.2569 -0.3310 -0.1884
  101OSM   H16S10127  -0.008   0.432   4.951 -2.0477 -0.0363 -0.7351
  101OSM   H16T10128   0.133   0.538   4.889 -0.4842 -0.1336 -1.4813
  101OSM   C17S10129  -0.061   0.534   4.775  0.0620 -0.3192 -0.1773
  101OSM   H17S10130  -0.170   0.518   4.789  0.2734 -0.3953  1.6345
  101OSM   H17T10131  -0.034   0.453   4.704 -0.1978  0.3607 -1.0727
  101OSM   C18S10132  -0.026   0.660   4.698  0.2939  0.5706 -0.1528
  101OSM   H18S10133  -0.050   0.756   4.748 -1.1426  1.5224 -2.4843
  101OSM   H18T10134  -0.067   0.649   4.595  2.5909  0.0404 -1.0668
  101OSM   H18U10135   0.085   0.661   4.686  0.2354  0.4772 -0.7377
  101OSM    C1F10136   0.292   1.212   6.388  1.3012 -0.5970 -0.4067
  101OSM     OF10137   0.366   1.195   6.485 -0.3134  0.7359  1.1125
  101OSM    C2F10138   0.317   1.311   6.287  0.1021 -0.5563  0.2646
  101OSM    H2F10139   0.296   1.413   6.327 -1.6469 -1.2974  1.3574
  101OSM    H2G10140   0.244   1.300   6.203  1.1674 -0.5456 -0.6955
  101OSM    C3F10141   0.462   1.310   6.219  0.1845  0.8822  0.2065
  101OSM    H3F10142   0.456   1.206   6.178  1.9771 -0.5699  3.2426
  101OSM    H3G10143   0.555   1.322   6.279  0.1710  0.0945  0.3968
  101OSM    C4F10144   0.480   1.411   6.103  0.3108 -0.0781  0.2280
  101OSM    H4F10145   0.478   1.513   6.148  0.1387  0.6856 -1.4320
  101OSM    H4G10146   0.402   1.410   6.023  1.2374 -1.1727 -0.7019
  101OSM    C5F10147   0.623   1.415   6.038  0.4748 -0.1239  0.2929
  101OSM    H5F10148   0.627   1.331   5.965  0.6022  0.1660 -0.0328
  101OSM    H5G10149   0.688   1.397   6.127  0.6716  1.8401  0.5963
  101OSM    C6F10150   0.659   1.556   5.981  0.1638 -0.1971 -0.2282
  101OSM    H6F10151   0.766   1.557   5.951  0.0848 -0.8887 -0.5572
  101OSM    H6G10152   0.647   1.628   6.065  1.7087 -0.2196  0.0505
  101OSM    C7F10153   0.578   1.601   5.862  0.1204 -0.1650 -0.2128
  101OSM    H7F10154   0.544   1.706   5.878  0.5318  0.0020 -0.4308
  101OSM    H7G10155   0.486   1.539   5.858 -0.0538  0.0229  0.6899
  101OSM    C8F10156   0.643   1.592   5.721 -0.2627 -0.8566 -0.9010
  101OSM    H8F10157   0.719   1.673   5.719 -1.2317  0.1353  0.2421
  101OSM    H8G10158   0.567   1.635   5.651 -1.0512 -0.5527  0.1176
  101OSM    C9F10159   0.704   1.462   5.676  0.3391  0.8460  0.3567
  101OSM    H9F10160   0.755   1.402   5.752  0.4129  0.5335  0.0600
  101OSM   C10F10161   0.708   1.408   5.550 -0.0397 -0.8628  0.8571
  101OSM   H10F10162   0.762   1.312   5.544 -0.1397 -0.8182 -1.9837
  101OSM   C11F10163   0.674   1.472   5.414 -0.5513  0.4291  0.1956
  101OSM   H11F10164   0.643   1.578   5.431 -0.6207  0.1216  2.2887
  101OSM   H11G10165   0.604   1.413   5.351 -1.0794  0.4662  0.7310
  101OSM   C12F10166   0.806   1.455   5.330 -0.2254 -0.1576 -0.7091
  101OSM   H12F10167   0.828   1.350   5.304 -1.8147 -0.5679 -0.5027
  101OSM   H12G10168   0.891   1.506   5.380 -0.1148 -0.1671 -0.8887
  101OSM   C13F10169   0.801   1.546   5.203  0.7276 -0.4926  0.5248
  101OSM   H13F10170   0.906   1.555   5.167  0.8987  1.9655  1.4652
  101OSM   H13G10171   0.770   1.648   5.234  0.2282 -0.7269  0.8012
  101OSM   C14F10172   0.713   1.487   5.088 -0.0352 -0.7010 -0.3166
  101OSM   H14F10173   0.614   1.459   5.128  1.4059 -0.1867  4.0928
  101OSM   H14G10174   0.767   1.394   5.057  0.0697 -0.0844 -2.1192
  101OSM   C15F10175   0.700   1.592   4.975  0.1481 -0.0676 -0.6134
  101OSM   H15F10176   0.798   1.632   4.942 -0.5952 -0.3845 -3.4693
  101OSM   H15G10177   0.625   1.667   5.008 -0.3932 -0.4852 -0.8735
  101OSM   C16F10178   0.628   1.523   4.855 -0.2030  0.3464 -0.1066
  101OSM   H16F10179   0.530   1.478   4.881 -0.8102  2.1368  0.8440
  101OSM   H16G10180   0.690   1.445   4.804  0.2340  0.3779  0.3681
  101OSM   C17F10181   0.593   1.626   4.737 -0.8137  0.2335  0.0986
  101OSM   H17F10182   0.547   1.710   4.792 -1.2580 -1.0488  1.7538
  101OSM   H17G10183   0.517   1.574   4.675  0.0260  0.8401 -1.5006
  101OSM   C18F10184   0.714   1.669   4.649  0.3802 -0.8249 -0.2553
  101OSM   H18F10185   0.789   1.587   4.637  1.1325 -1.1410  4.5433
  101OSM   H18G10186   0.770   1.752   4.698  0.7788  0.4882 -2.7851
  101OSM   H18H10187   0.678   1.708   4.552  2.4771  2.2114  0.0372
  102OSM      N10188   0.214   1.657   6.621 -0.0952  0.1559 -0.2339
  102OSM    C1510189   0.115   1.605   6.723  0.1637  0.0670  0.0170
  102OSM   H15A10190   0.063   1.695   6.751 -1.4766 -0.7787 -0.1922
  102OSM   H15B10191   0.170   1.563   6.806 -1.2561  2.1519  2.1177
  102OSM   H15C10192   0.052   1.525   6.686  2.4636 -2.5484  1.3690
  102OSM    C1410193   0.288   1.779   6.672 -0.5400  0.2631  0.0405
  102OSM   H14A10194   0.363   1.815   6.604  0.6312  1.3881  1.8361
  102OSM   H14B10195   0.341   1.753   6.763 -1.8895  1.1310  1.1209
  102OSM   H14C10196   0.227   1.863   6.700 -0.7634 -0.0409  0.4870
  102OSM    C1310197   0.315   1.551   6.585 -0.2228 -0.3708 -0.5732
  102OSM   H13A10198   0.396   1.588   6.523  0.3545 -1.8650 -0.7572
  102OSM   H13B10199   0.260   1.468   6.544  0.3462 -1.0800  0.0736
  102OSM   H13C10200   0.360   1.521   6.679  0.0453  2.6523  0.3822
  102OSM    C1210201   0.149   1.689   6.480  0.0767 -0.4027  0.5921
  102OSM   H12A10202   0.224   1.712   6.406 -2.9773  2.1970 -1.9814
  102OSM   H12B10203   0.094   1.779   6.502 -1.3663 -1.0923 -0.1015
  102OSM    C1110204   0.042   1.593   6.418 -0.2799 -0.1762  0.0443
  102OSM   H11A10205   0.091   1.499   6.384 -0.9766 -1.1333  1.5274
  102OSM   H11B10206   0.005   1.647   6.329  1.3614  0.5399 -0.2359
  102OSM      P10207  -0.163   1.456   6.514  0.1438  0.1412 -0.3479
  102OSM    O1310208  -0.116   1.345   6.601  0.5222 -1.0299 -0.9753
  102OSM    O1410209  -0.297   1.507   6.533 -0.4862 -0.3876  0.0242
  102OSM    O1110210  -0.153   1.411   6.361  0.1579 -0.1326  0.3830
  102OSM    O1210211  -0.062   1.569   6.512  0.2910  0.0262  0.1207
  102OSM    C1S10212  -0.263   1.425   6.273  0.7774  0.2831  0.0479
  102OSM    H1S10213  -0.297   1.531   6.262 -1.5753 -0.4220 -0.0052
  102OSM    H1T10214  -0.349   1.359   6.295 -0.6487  1.6556 -1.1214
  102OSM     NF10215  -0.333   1.410   6.037  0.0211 -0.1451 -0.4837
  102OSM    HNF10216  -0.381   1.333   5.997  0.1041  0.5560 -2.0397
  102OSM    C2S10217  -0.218   1.386   6.129 -0.2847  0.3381  0.8545
  102OSM    H2S10218  -0.134   1.455   6.110  0.7725 -1.1218  0.0274
  102OSM    C3S10219  -0.162   1.242   6.117  0.3034 -0.7691 -0.0373
  102OSM    H3S10220  -0.239   1.165   6.140 -1.7081  0.3653 -2.5004
  102OSM     O310221  -0.055   1.216   6.211 -0.2380 -0.0962 -0.9670
  102OSM    HO310222  -0.070   1.279   6.282  0.3430 -0.8310 -0.1609
  102OSM    C4S10223  -0.113   1.210   5.975 -0.2196  0.1876  0.1055
  102OSM    H4S10224  -0.194   1.197   5.902 -0.3900  0.2280  0.2861
  102OSM    C5S10225   0.016   1.203   5.928 -0.2380  0.2791  0.3234
  102OSM    H5S10226   0.103   1.237   5.985  0.1223  1.8124 -1.0494
  102OSM    C6S10227   0.044   1.181   5.785  0.5781 -0.3887  0.5321
  102OSM    H6S10228   0.100   1.087   5.767  0.9888  0.1293 -1.0116
  102OSM    H6T10229   0.110   1.265   5.757  0.6942  0.0291  1.9810
  102OSM    C7S10230  -0.071   1.165   5.679  0.2496  0.0561  0.1130
  102OSM    H7S10231  -0.146   1.247   5.672 -0.3401 -0.5396 -0.7837
  102OSM    H7T10232  -0.131   1.073   5.695 -1.2061  1.1187  0.9861
  102OSM    C8S10233  -0.020   1.148   5.533  0.2052  1.0079  0.1315
  102OSM    H8S10234   0.045   1.061   5.510 -0.1898  0.6051  0.5100
  102OSM    H8T10235   0.040   1.236   5.504  2.2792 -0.0543  0.9922
  102OSM    C9S10236  -0.134   1.125   5.434  0.0075 -0.1693  0.7897
  102OSM    H9S10237  -0.200   1.212   5.414  1.8930  0.8405 -1.3702
  102OSM    H9T10238  -0.200   1.048   5.480 -1.3806 -0.0285 -0.8585
  102OSM   C10S10239  -0.088   1.107   5.286 -0.4415  0.7226 -0.2411
  102OSM   H10S10240  -0.010   1.028   5.289 -0.5188  0.6858  1.8198
  102OSM   H10T10241  -0.030   1.198   5.258  0.3562 -0.4526 -2.7611
  102OSM   C11S10242  -0.209   1.080   5.190 -0.3215 -0.1164  0.0503
  102OSM   H11S10243  -0.276   1.168   5.207 -0.2323  0.3545 -1.8280
  102OSM   H11T10244  -0.266   0.993   5.228  0.3375 -0.3064  0.6166
  102OSM   C12S10245  -0.170   1.048   5.042 -0.3902  0.6377 -0.0616
  102OSM   H12S10246  -0.077   0.987   5.043 -0.1717  0.8067 -2.6957
  102OSM   H12T10247  -0.150   1.140   4.984  0.3755 -0.1226 -1.0409
  102OSM   C13S10248  -0.269   0.978   4.955 -0.4075 -0.3781 -0.0977
  102OSM   H13S10249  -0.369   1.018   4.980  0.5649  0.8410  2.1772
  102OSM   H13T10250  -0.287   0.877   4.999 -0.1691  0.3682  1.8425
  102OSM   C14S10251  -0.236   0.978   4.813  0.2194  1.1371 -0.2215
  102OSM   H14S10252  -0.130   0.948   4.799 -0.2620 -0.2585 -1.0206
  102OSM   H14T10253  -0.246   1.076   4.761  1.0290  1.7524  0.7420
  102OSM   C15S10254  -0.330   0.882   4.731  0.2441  0.7808  0.1649
  102OSM   H15S10255  -0.437   0.911   4.738 -0.5304 -1.3622 -1.6153
  102OSM   H15T10256  -0.314   0.781   4.775 -2.5418 -1.2349 -2.9336
  102OSM   C16S10257  -0.295   0.885   4.583  0.1788 -0.3593  0.1634
  102OSM   H16S10258  -0.191   0.848   4.566  0.6376  0.3724  1.2735
  102OSM   H16T10259  -0.302   0.991   4.550  0.3731  0.2291  1.8994
  102OSM   C17S10260  -0.396   0.814   4.501 -0.1056  0.7994 -0.1911
  102OSM   H17S10261  -0.385   0.824   4.391 -0.6522 -3.8623 -0.8463
  102OSM   H17T10262  -0.492   0.864   4.527  0.0656 -0.0649  2.4594
  102OSM   C18S10263  -0.407   0.664   4.530 -0.1136  0.6713  0.4062
  102OSM   H18S10264  -0.305   0.629   4.506 -0.8748 -0.4270 -1.4238
  102OSM   H18T10265  -0.476   0.616   4.457  2.3732 -0.9920 -0.9512
  102OSM   H18U10266  -0.447   0.644   4.632 -1.6110  1.1137 -0.0642
  102OSM    C1F10267  -0.369   1.529   5.983 -0.0104  0.6374 -0.9339
  102OSM     OF10268  -0.325   1.639   6.026 -0.3151  0.3569 -0.2148
  102OSM    C2F10269  -0.456   1.521   5.865  0.0964  0.3318 -0.3878
  102OSM    H2F10270  -0.560   1.509   5.902  0.2683 -0.6909 -0.1950
  102OSM    H2G10271  -0.424   1.427   5.815  2.7089 -0.2170  2.0241
  102OSM    C3F10272  -0.444   1.638   5.766  0.0960 -0.7893  0.0618
  102OSM    H3F10273  -0.339   1.665   5.740 -0.8001  0.7538 -2.3188
  102OSM    H3G10274  -0.493   1.729   5.808  1.0217  1.9110 -4.0593
  102OSM    C4F10275  -0.505   1.608   5.630 -0.2690 -0.0516 -0.4128
  102OSM    H4F10276  -0.562   1.698   5.599 -2.1462 -1.0193  0.0473
  102OSM    H4G10277  -0.589   1.534   5.628  1.1350 -1.7639 -2.9172
  102OSM    C5F10278  -0.391   1.569   5.526  0.4448  0.2605  0.4488
  102OSM    H5F10279  -0.332   1.485   5.569 -0.2328 -1.1863 -1.3189
  102OSM    H5G10280  -0.325   1.658   5.525 -1.1569  1.4922 -0.4932
  102OSM    C6F10281  -0.438   1.532   5.379  0.6082  0.3840  0.3220
  102OSM    H6F10282  -0.519   1.602   5.349  1.0850  0.8231  0.0266
  102OSM    H6G10283  -0.489   1.436   5.400  2.1840 -0.5236  0.1960
  102OSM    C7F10284  -0.326   1.526   5.283 -0.1609  0.4066 -0.0272
  102OSM    H7F10285  -0.243   1.471   5.332 -1.1260 -0.4698  0.6810
  102OSM    H7G10286  -0.293   1.631   5.270  0.4354  0.2533  0.2214
  102OSM    C8F10287  -0.361   1.455   5.147  0.0637  0.2684 -0.3283
  102OSM    H8F10288  -0.409   1.367   5.195  1.1529 -0.3262 -0.2900
  102OSM    H8G10289  -0.273   1.414   5.093 -2.7507 -3.0822 -2.8128
  102OSM    C9F10290  -0.455   1.535   5.061  0.4578 -0.6226 -0.4020
  102OSM    H9F10291  -0.560   1.518   5.087  0.5819 -0.5929  0.1348
  102OSM   C10F10292  -0.419   1.638   4.982  0.0391 -0.1651  0.2550
  102OSM   H10F10293  -0.492   1.703   4.932  1.4702  2.8848  1.8797
  102OSM   C11F10294  -0.277   1.686   4.956  1.0456 -0.2376  1.0711
  102OSM   H11F10295  -0.196   1.657   5.027  0.8566  2.1778  2.3746
  102OSM   H11G10296  -0.287   1.796   4.968 -2.2741  0.1449 -2.8670
  102OSM   C12F10297  -0.231   1.668   4.809 -0.3603 -0.2762  0.0518
  102OSM   H12F10298  -0.216   1.558   4.801 -0.0309 -0.4289  2.2048
  102OSM   H12G10299  -0.134   1.722   4.807  0.3122 -1.3215  1.9867
  102OSM   C13F10300  -0.323   1.720   4.701 -0.3756  0.0371 -0.2315
  102OSM   H13F10301  -0.354   1.824   4.723 -4.1253 -0.8562 -0.5875
  102OSM   H13G10302  -0.417   1.660   4.699 -0.6249  0.4196 -1.9787
  102OSM   C14F10303  -0.254   1.717   4.568  0.0156  0.1067 -0.1107
  102OSM   H14F10304  -0.212   1.620   4.534  0.4597 -0.2983  1.4774
  102OSM   H14G10305  -0.157   1.770   4.570 -0.1505  0.7259 -3.5064
  102OSM   C15F10306  -0.339   1.760   4.454  0.6955  0.3711 -0.2850
  102OSM   H15F10307  -0.354   1.869   4.470 -1.8560 -0.0081  0.4052
  102OSM   H15G10308  -0.439   1.712   4.442 -0.1986  1.9859  0.3161
  102OSM   C16F10309  -0.268   1.747   4.320 -0.2959 -0.7702 -0.2986
  102OSM   H16F10310  -0.269   1.645   4.278  2.0117 -0.8697 -0.2660
  102OSM   H16G10311  -0.161   1.765   4.345 -0.3763 -0.8674  0.1325
  102OSM   C17F10312  -0.320   1.836   4.214  0.6495  0.1242  0.0722
  102OSM   H17F10313  -0.343   1.942   4.240 -1.8885 -0.2917 -0.2782
  102OSM   H17G10314  -0.415   1.788   4.184  1.0422 -1.2479  0.9484
  102OSM   C18F10315  -0.226   1.833   4.090 -0.5572  0.2435  0.7147
  102OSM   H18F10316  -0.229   1.733   4.042  0.7659  0.2182  0.6396
  102OSM   H18G10317  -0.119   1.853   4.113  0.0739 -1.0125 -0.9509
  102OSM   H18H10318  -0.263   1.910   4.018  1.3513  0.5468  0.0014
  103OSM      N10319   6.820   3.095   6.685 -0.8609 -0.1392  0.1326
  103OSM    C1510320   6.824   3.231   6.735  0.3546  0.2068 -0.2979
  103OSM   H15A10321   6.885   3.242   6.823 -0.9262  0.8589  0.5272
  103OSM   H15B10322   6.722   3.264   6.745  0.6579  0.7728  1.2141
  103OSM   H15C10323   6.863   3.301   6.662 -2.6718  1.0651 -1.2561
  103OSM    C1410324   6.963   3.062   6.664  0.2574  0.1007  0.4911
  103OSM   H14A10325   6.970   2.957   6.637  1.2417 -0.5089  2.8284
  103OSM   H14B10326   7.028   3.062   6.750  0.0861  1.3385  0.6317
  103OSM   H14C10327   7.018   3.117   6.591 -0.5658 -1.1931 -1.1726
  103OSM    C1310328   6.763   3.009   6.794 -0.5352  0.2661  0.1739
  103OSM   H13A10329   6.826   3.006   6.882  1.2131  0.3732 -1.0188
  103OSM   H13B10330   6.760   2.908   6.756  2.0278  0.0533  0.3653
  103OSM   H13C10331   6.661   3.038   6.815 -0.5349  1.6390 -1.4696
  103OSM    C1210332   6.751   3.094   6.558 -0.0216  0.3898  0.1641
  103OSM   H12A10333   6.769   3.179   6.495  1.5861 -0.4601 -0.5735
  103OSM   H12B10334   6.644   3.101   6.572 -0.2260 -0.5397 -0.8425
  103OSM    C1110335   6.771   2.958   6.487  0.4367 -0.1920 -0.6246
  103OSM   H11A10336   6.699   2.950   6.403 -1.9775 -0.9472  1.4199
  103OSM   H11B10337   6.740   2.883   6.563  1.3508 -0.2366 -0.2824
  103OSM      P10338   6.961   3.002   6.299  0.5034 -0.1127 -0.2649
  103OSM    O1310339   6.900   3.134   6.264  0.3881  0.3145 -0.3101
  103OSM    O1410340   7.109   3.000   6.308 -0.3935 -0.3638  0.1829
  103OSM    O1110341   6.927   2.894   6.184  0.1325 -0.0757  0.0163
  103OSM    O1210342   6.901   2.935   6.436  0.4334 -0.4683  0.4772
  103OSM    C1S10343   6.795   2.878   6.141  0.4351 -0.6297  0.2492
  103OSM    H1S10344   6.732   2.957   6.189  0.2301 -0.5713 -0.1187
  103OSM    H1T10345   6.757   2.780   6.176  0.5167 -0.9342 -0.5040
  103OSM     NF10346   6.632   2.888   5.960  0.5581 -0.0905 -0.4035
  103OSM    HNF10347   6.582   2.823   5.903 -1.6359  0.3443  0.8969
  103OSM    C2S10348   6.775   2.889   5.989  0.2148  0.9034 -0.1778
  103OSM    H2S10349   6.817   2.990   5.968 -0.2539  0.8289 -1.5701
  103OSM    C3S10350   6.873   2.782   5.917  0.5800 -0.0886 -0.2544
  103OSM    H3S10351   6.849   2.683   5.961  2.6356 -0.7349 -0.4802
  103OSM     O310352   7.011   2.796   5.958  0.1241  0.1232  0.6128
  103OSM    HO310353   7.015   2.857   6.032  2.8625 -0.2385  0.8990
  103OSM    C4S10354   6.846   2.760   5.766 -0.0533 -0.0925  0.1754
  103OSM    H4S10355   6.776   2.676   5.755  1.4159 -1.7803  2.8180
  103OSM    C5S10356   6.919   2.817   5.663  0.1426 -0.1775  0.2031
  103OSM    H5S10357   6.999   2.889   5.685 -0.8584  1.7407 -1.9374
  103OSM    C6S10358   6.885   2.786   5.513 -0.6871 -0.4984  0.4117
  103OSM    H6S10359   6.973   2.766   5.449  0.3361  1.3429  1.1668
  103OSM    H6T10360   6.838   2.876   5.469  0.5520 -0.0645 -0.0542
  103OSM    C7S10361   6.794   2.667   5.490  0.3587 -0.0772  0.2216
  103OSM    H7S10362   6.697   2.682   5.540 -0.9357  3.1518 -2.8883
  103OSM    H7T10363   6.845   2.574   5.525  0.9216 -0.1047 -0.6277
  103OSM    C8S10364   6.779   2.653   5.338 -0.2432 -0.3441  0.0917
  103OSM    H8S10365   6.884   2.652   5.301 -0.5369  0.6232 -0.8172
  103OSM    H8T10366   6.722   2.738   5.294 -1.2460 -0.6252  0.8145
  103OSM    C9S10367   6.722   2.514   5.308  0.2850 -0.1572 -0.1888
  103OSM    H9S10368   6.612   2.525   5.319  0.4233  2.3969 -0.7077
  103OSM    H9T10369   6.755   2.435   5.378 -0.1617  1.0092  1.4076
  103OSM   C10S10370   6.758   2.471   5.166 -0.1322  0.6451 -0.3246
  103OSM   H10S10371   6.746   2.361   5.154  1.7903  0.3624  0.1196
  103OSM   H10T10372   6.866   2.484   5.144  0.0878 -1.2170 -0.5139
  103OSM   C11S10373   6.684   2.554   5.065  0.0615  0.7859 -0.2868
  103OSM   H11S10374   6.707   2.663   5.067 -0.3847  0.9259  3.2694
  103OSM   H11T10375   6.578   2.532   5.091  0.0351  0.2874 -0.8012
  103OSM   C12S10376   6.698   2.487   4.926  0.0762  0.2481 -0.3672
  103OSM   H12S10377   6.622   2.549   4.873  1.3462  2.8804  0.6934
  103OSM   H12T10378   6.657   2.386   4.944 -0.2706  0.8319  2.6293
  103OSM   C13S10379   6.835   2.494   4.854  0.2904 -0.1873 -0.3411
  103OSM   H13S10380   6.903   2.410   4.881 -0.2593 -1.0119 -1.4500
  103OSM   H13T10381   6.886   2.586   4.889 -2.0620  0.4018  1.8269
  103OSM   C14S10382   6.832   2.489   4.702 -0.4142 -0.0228 -0.1137
  103OSM   H14S10383   6.936   2.483   4.661  0.0018 -2.8380  1.1400
  103OSM   H14T10384   6.790   2.581   4.656  0.4594  1.5910  2.1621
  103OSM   C15S10385   6.745   2.370   4.654  0.3435 -0.3903  0.3652
  103OSM   H15S10386   6.640   2.405   4.658  0.2489 -0.7431  1.3849
  103OSM   H15T10387   6.761   2.296   4.736  0.6028  0.3904  1.0348
  103OSM   C16S10388   6.781   2.330   4.514  0.2426 -0.1618  0.0347
  103OSM   H16S10389   6.870   2.385   4.479 -2.1067  2.5397 -2.1683
  103OSM   H16T10390   6.693   2.360   4.453 -1.5156 -1.0164  2.0295
  103OSM   C17S10391   6.816   2.183   4.517 -0.2469  0.7386  0.0726
  103OSM   H17S10392   6.739   2.121   4.567  0.2645 -1.8563 -2.1087
  103OSM   H17T10393   6.918   2.175   4.561 -0.1551 -1.0982 -0.4035
  103OSM   C18S10394   6.819   2.105   4.388 -0.2791 -0.2335 -0.1317
  103OSM   H18S10395   6.727   2.113   4.325 -1.0719  1.7855  1.1989
  103OSM   H18T10396   6.839   1.996   4.396 -0.8761 -0.2574  1.1654
  103OSM   H18U10397   6.898   2.154   4.327  1.6365 -1.8064  0.9388
  103OSM    C1F10398   6.560   2.993   5.993 -0.3312 -0.0992  1.2797
  103OSM     OF10399   6.598   3.087   6.059  0.5980  0.6499 -0.3086
  103OSM    C2F10400   6.420   2.982   5.938  0.1186  0.5412 -0.2838
  103OSM    H2F10401   6.352   2.909   5.987 -1.2388 -0.5278 -3.5021
  103OSM    H2G10402   6.420   2.946   5.833  0.3380  1.9460 -0.7882
  103OSM    C3F10403   6.350   3.123   5.951  0.1915 -0.1880  0.0816
  103OSM    H3F10404   6.399   3.199   5.888 -1.4827 -1.2358 -2.6813
  103OSM    H3G10405   6.345   3.168   6.052  3.0951 -1.5479  0.9188
  103OSM    C4F10406   6.198   3.134   5.916 -0.3061  1.3108  0.6668
  103OSM    H4F10407   6.166   3.241   5.919 -0.9976  1.1416 -0.3999
  103OSM    H4G10408   6.148   3.075   5.995 -0.7271 -0.5243 -0.9018
  103OSM    C5F10409   6.154   3.074   5.787 -0.3922  0.0612  0.5374
  103OSM    H5F10410   6.162   2.965   5.807 -0.3518 -0.3784 -1.6574
  103OSM    H5G10411   6.223   3.090   5.701 -3.6588 -0.3579 -2.3400
  103OSM    C6F10412   6.009   3.112   5.743 -0.2338 -1.4139 -0.0485
  103OSM    H6F10413   5.995   3.213   5.701 -1.3119 -1.2803  0.6030
  103OSM    H6G10414   5.942   3.110   5.832 -0.2000  0.5448  0.0627
  103OSM    C7F10415   5.950   3.012   5.645  0.0680 -0.6872 -0.4149
  103OSM    H7F10416   5.840   3.030   5.644 -0.4789 -3.5446 -0.8858
  103OSM    H7G10417   5.969   2.905   5.667  0.9179 -0.5765 -0.5740
  103OSM    C8F10418   5.993   3.022   5.503 -0.3654 -0.7035 -0.0253
  103OSM    H8F10419   6.102   3.006   5.491 -0.1361  1.2773 -1.1279
  103OSM    H8G10420   5.975   3.128   5.476 -0.5393  0.1629  3.1294
  103OSM    C9F10421   5.912   2.928   5.411 -0.5071  0.3935  0.4227
  103OSM    H9F10422   5.845   2.853   5.455 -1.6793  1.0207 -0.2449
  103OSM   C10F10423   5.932   2.931   5.276  0.0566 -0.1792 -0.5655
  103OSM   H10F10424   5.873   2.863   5.213  0.9032 -1.4709 -0.0238
  103OSM   C11F10425   6.039   3.021   5.210  0.2031 -0.6536  0.0650
  103OSM   H11F10426   6.132   2.964   5.193  0.0385 -0.8388 -0.2338
  103OSM   H11G10427   6.072   3.111   5.266  0.7645  0.4305 -1.8992
  103OSM   C12F10428   5.998   3.068   5.070  0.1728  0.5287  0.1260
  103OSM   H12F10429   6.084   3.126   5.029 -0.5727  0.5861 -1.4258
  103OSM   H12G10430   5.913   3.139   5.074  0.3484  0.7099  0.8169
  103OSM   C13F10431   5.990   2.956   4.968 -0.9062 -0.1093 -0.4042
  103OSM   H13F10432   5.931   2.870   5.005 -2.5137  0.5474 -1.3660
  103OSM   H13G10433   6.092   2.917   4.945 -0.8556 -0.6760  0.6862
  103OSM   C14F10434   5.924   2.993   4.834  0.4080 -0.2576  0.1540
  103OSM   H14F10435   5.970   3.089   4.801  2.3695 -1.5965 -1.2453
  103OSM   H14G10436   5.815   3.008   4.852  0.5405 -0.5875  1.3224
  103OSM   C15F10437   5.935   2.875   4.733 -0.1969 -0.8023 -0.4948
  103OSM   H15F10438   5.927   2.779   4.788  2.1060 -0.1762  1.0542
  103OSM   H15G10439   6.042   2.874   4.704 -0.2931 -0.4996 -0.8689
  103OSM   C16F10440   5.839   2.883   4.619 -0.3117  0.3987 -0.4195
  103OSM   H16F10441   5.844   2.981   4.568 -1.2608  0.1572 -1.0066
  103OSM   H16G10442   5.740   2.878   4.669 -1.0128  1.4458 -1.6346
  103OSM   C17F10443   5.852   2.775   4.510  0.6839 -0.2274  0.4481
  103OSM   H17F10444   5.836   2.675   4.556 -0.4349  0.7776  2.3805
  103OSM   H17G10445   5.953   2.773   4.465 -0.1775 -0.8126 -1.5716
  103OSM   C18F10446   5.754   2.793   4.390 -0.2227 -0.4348  0.0258
  103OSM   H18F10447   5.784   2.887   4.340 -0.4094 -0.7541 -0.6935
  103OSM   H18G10448   5.651   2.810   4.426 -0.9728  2.2334 -2.9816
  103OSM   H18H10449   5.759   2.710   4.317 -1.5922  1.5879 -2.5002
  104OSM      N10450   6.542   1.879   6.393  0.3445  0.4268 -0.4983
  104OSM    C1510451   6.471   1.879   6.526  0.1369 -0.2048  0.9800
  104OSM   H15A10452   6.506   1.796   6.586  1.8291  0.1462  0.5440
  104OSM   H15B10453   6.364   1.878   6.509  0.2302  0.4023  0.3058
  104OSM   H15C10454   6.490   1.968   6.584  0.7898 -1.6109  3.0427
  104OSM    C1410455   6.690   1.878   6.407 -0.1809 -0.1443  0.0820
  104OSM   H14A10456   6.733   1.885   6.308 -1.7397 -2.8663 -0.9144
  104OSM   H14B10457   6.728   1.785   6.446  1.6581  0.3483 -0.4642
  104OSM   H14C10458   6.723   1.961   6.468 -1.7659  1.2453 -0.8697
  104OSM    C1310459   6.502   1.748   6.334 -0.0630  0.0092 -0.3203
  104OSM   H13A10460   6.537   1.730   6.234  1.4443 -1.2184  0.3923
  104OSM   H13B10461   6.394   1.748   6.335 -0.1188  1.5916  1.8046
  104OSM   H13C10462   6.535   1.669   6.400  0.0142 -0.2437 -0.6556
  104OSM    C1210463   6.491   1.990   6.297 -0.2135 -0.9495 -0.0391
  104OSM   H12A10464   6.384   2.005   6.302 -0.0252  0.9849 -0.9092
  104OSM   H12B10465   6.513   1.962   6.195  1.7317  0.6547 -0.1313
  104OSM    C1110466   6.551   2.142   6.315  0.5950 -0.4593 -0.5614
  104OSM   H11A10467   6.505   2.208   6.239  0.6391  1.2656  0.8371
  104OSM   H11B10468   6.657   2.119   6.294  1.1396  1.8465 -0.5647
  104OSM      P10469   6.645   2.287   6.496  0.1902  0.3696 -0.2419
  104OSM    O1310470   6.579   2.396   6.573 -0.1627 -0.1361 -0.4726
  104OSM    O1410471   6.757   2.220   6.568 -0.3123 -0.5350  0.3475
  104OSM    O1110472   6.691   2.354   6.352  0.3074 -0.0286  0.1826
  104OSM    O1210473   6.535   2.184   6.452 -0.1221 -0.2681 -0.4304
  104OSM    C1S10474   6.824   2.368   6.307 -0.4070 -0.2650 -0.1139
  104OSM    H1S10475   6.899   2.333   6.382  0.0115 -1.5742 -1.0860
  104OSM    H1T10476   6.833   2.477   6.288 -1.2851 -0.2048 -0.1894
  104OSM     NF10477   6.998   2.300   6.151 -0.2136  0.2073  0.0845
  104OSM    HNF10478   7.035   2.390   6.129 -1.0266  0.3639 -0.7337
  104OSM    C2S10479   6.855   2.294   6.173 -1.0840  0.6425  0.4034
  104OSM    H2S10480   6.819   2.190   6.182 -0.1646  0.3049  0.3045
  104OSM    C3S10481   6.779   2.365   6.057 -0.6261 -0.5264 -0.5428
  104OSM    H3S10482   6.796   2.474   6.072  2.8276 -0.9386 -0.7413
  104OSM     O310483   6.633   2.361   6.077 -0.0938  0.1008  0.2508
  104OSM    HO310484   6.631   2.368   6.173 -1.3689  0.6032  0.1960
  104OSM    C4S10485   6.820   2.322   5.917 -0.5989  0.6023  0.3225
  104OSM    H4S10486   6.854   2.408   5.858 -0.0544 -1.1156 -2.0248
  104OSM    C5S10487   6.815   2.197   5.866 -0.1948  0.0789 -0.0703
  104OSM    H5S10488   6.796   2.115   5.937 -1.1418  0.7837  0.5058
  104OSM    C6S10489   6.872   2.157   5.732  0.2639 -0.1299 -0.5010
  104OSM    H6S10490   6.785   2.147   5.663 -1.1207  1.4742  0.9221
  104OSM    H6T10491   6.927   2.061   5.742 -0.2406 -0.3154  0.6138
  104OSM    C7S10492   6.988   2.242   5.664 -0.3176 -0.5888 -0.5915
  104OSM    H7S10493   7.066   2.262   5.740 -0.8143  0.9419 -0.4383
  104OSM    H7T10494   6.953   2.343   5.634 -0.4982 -0.1474  1.0045
  104OSM    C8S10495   7.049   2.172   5.546 -0.6493  0.7715 -0.3139
  104OSM    H8S10496   7.085   2.071   5.575 -2.1301  1.0971  3.1001
  104OSM    H8T10497   7.142   2.225   5.514 -0.3080 -0.1568 -0.9056
  104OSM    C9S10498   6.951   2.170   5.439  0.2033 -0.2855 -0.6081
  104OSM    H9S10499   6.882   2.257   5.432 -1.3048 -1.4109 -0.4186
  104OSM    H9T10500   6.891   2.078   5.453 -0.1372  0.1674  1.1869
  104OSM   C10S10501   7.019   2.158   5.299 -0.4159  0.3375 -0.1210
  104OSM   H10S10502   7.105   2.095   5.330 -1.2536 -0.3236  0.9505
  104OSM   H10T10503   7.056   2.259   5.269 -2.0044  1.4619  1.4988
  104OSM   C11S10504   6.934   2.080   5.203  0.2943 -0.1931 -0.7876
  104OSM   H11S10505   6.834   2.125   5.189  0.3322  0.6280  1.2739
  104OSM   H11T10506   6.925   1.973   5.234  0.5317 -1.0081 -3.2667
  104OSM   C12S10507   6.996   2.061   5.069 -0.0749  0.1557  0.4862
  104OSM   H12S10508   7.092   2.004   5.075 -1.5236 -2.9547 -2.4873
  104OSM   H12T10509   7.025   2.150   5.009 -0.0483  0.3595  0.8016
  104OSM   C13S10510   6.903   1.989   4.971  0.2255  0.1542  0.1971
  104OSM   H13S10511   6.807   2.043   4.987  0.2810  0.8554 -1.6637
  104OSM   H13T10512   6.896   1.884   5.007 -2.2926  0.3352  0.4431
  104OSM   C14S10513   6.946   1.990   4.828  0.2748 -0.3094  0.2733
  104OSM   H14S10514   6.956   2.097   4.800 -1.0892 -0.4217 -0.7462
  104OSM   H14T10515   6.861   1.943   4.774  0.9964 -0.8711 -0.3917
  104OSM   C15S10516   7.079   1.914   4.789  1.2146 -0.0277 -0.0815
  104OSM   H15S10517   7.056   1.808   4.813  4.0677 -0.8362 -0.6060
  104OSM   H15T10518   7.158   1.954   4.855 -0.8558  0.0023  2.5764
  104OSM   C16S10519   7.121   1.922   4.640 -0.4259 -0.3921  0.4772
  104OSM   H16S10520   7.118   2.026   4.603  0.0981 -0.3475  0.5534
  104OSM   H16T10521   7.049   1.862   4.580 -1.2911  1.4799 -0.4191
  104OSM   C17S10522   7.265   1.874   4.623  0.3967 -0.2235 -0.0725
  104OSM   H17S10523   7.280   1.771   4.662  1.9589 -0.8140 -2.0813
  104OSM   H17T10524   7.329   1.929   4.695  0.5670  0.5043 -0.7722
  104OSM   C18S10525   7.325   1.880   4.482  0.1837 -0.3204 -0.1506
  104OSM   H18S10526   7.313   1.977   4.430 -2.3028 -0.8209 -0.6596
  104OSM   H18T10527   7.283   1.802   4.415  1.0216  0.1617 -1.2615
  104OSM   H18U10528   7.434   1.871   4.501 -0.2413 -2.7427  1.6823
  104OSM    C1F10529   7.085   2.210   6.192  0.0913  0.0648 -0.3665
  104OSM     OF10530   7.066   2.091   6.194  0.8732 -0.1542  0.4071
  104OSM    C2F10531   7.221   2.268   6.234  0.1122  0.6435 -0.8614
  104OSM    H2F10532   7.209   2.301   6.340 -2.2552 -2.6422  0.0486
  104OSM    H2G10533   7.228   2.371   6.193  1.2638  0.8833 -0.1328
  104OSM    C3F10534   7.330   2.170   6.224 -0.2561 -0.4226  0.1714
  104OSM    H3F10535   7.335   2.082   6.291 -0.4680  0.8390  1.9040
  104OSM    H3G10536   7.428   2.223   6.230 -1.5277  2.1208 -0.2221
  104OSM    C4F10537   7.341   2.089   6.087  0.3088 -0.0822  0.2288
  104OSM    H4F10538   7.333   2.166   6.008  1.5222  0.7842  0.9189
  104OSM    H4G10539   7.253   2.023   6.072  0.0960  0.4607 -0.9796
  104OSM    C5F10540   7.465   1.999   6.075  0.5017 -0.0880 -0.2542
  104OSM    H5F10541   7.449   1.894   6.110  0.8619 -0.3837 -0.9622
  104OSM    H5G10542   7.544   2.040   6.141  0.1442  1.1643 -0.5877
  104OSM    C6F10543   7.526   1.992   5.931 -0.1353 -0.6872  0.0347
  104OSM    H6F10544   7.528   2.086   5.873  0.5000  0.0622  1.2284
  104OSM    H6G10545   7.464   1.920   5.874 -0.7486  1.4382 -2.0818
  104OSM    C7F10546   7.674   1.944   5.944  0.5553  0.4385 -0.6470
  104OSM    H7F10547   7.680   1.848   5.999  0.6303  1.1195  0.5688
  104OSM    H7G10548   7.710   2.022   6.014 -1.9938 -0.1813  1.5426
  104OSM    C8F10549   7.750   1.939   5.807  0.6210 -0.0153 -0.8234
  104OSM    H8F10550   7.684   1.874   5.746 -0.6312  1.3548 -0.9944
  104OSM    H8G10551   7.846   1.889   5.830 -0.2589 -2.3975 -2.0179
  104OSM    C9F10552   7.761   2.081   5.747 -0.2321 -0.2587  0.3530
  104OSM    H9F10553   7.836   2.140   5.802 -0.8942  0.2871  0.6810
  104OSM   C10F10554   7.704   2.140   5.638  0.1660 -0.2486  0.0015
  104OSM   H10F10555   7.730   2.244   5.614  0.7252 -0.6157 -1.0337
  104OSM   C11F10556   7.603   2.084   5.539  0.1866 -0.1718  0.5618
  104OSM   H11F10557   7.510   2.138   5.565 -0.6101 -1.1371 -0.2279
  104OSM   H11G10558   7.578   1.977   5.559 -2.0951  0.1953 -0.0512
  104OSM   C12F10559   7.638   2.104   5.386  0.0118 -0.3919 -0.6209
  104OSM   H12F10560   7.719   2.039   5.346 -0.9047 -0.5698 -2.2830
  104OSM   H12G10561   7.674   2.208   5.375  0.5933 -0.6541 -1.2642
  104OSM   C13F10562   7.510   2.078   5.307 -0.1747 -0.6113  0.2291
  104OSM   H13F10563   7.439   2.160   5.334  1.5157  1.3509 -1.0660
  104OSM   H13G10564   7.461   1.984   5.342 -1.0331  0.0317  0.8202
  104OSM   C14F10565   7.530   2.094   5.154  0.4501  0.1016  0.4290
  104OSM   H14F10566   7.584   2.188   5.130  1.3543 -0.3844  0.5211
  104OSM   H14G10567   7.426   2.107   5.117  0.6609  0.0126 -0.2104
  104OSM   C15F10568   7.589   1.973   5.087  0.0871 -0.0764 -0.1557
  104OSM   H15F10569   7.547   1.884   5.139  0.7721  1.0254  2.4189
  104OSM   H15G10570   7.696   1.978   5.118 -0.4132  1.5872  1.4537
  104OSM   C16F10571   7.587   1.967   4.931 -0.2827 -0.4224  0.6085
  104OSM   H16F10572   7.482   1.949   4.900 -0.6327  2.0873  0.0804
  104OSM   H16G10573   7.639   1.879   4.888  0.8921  0.6334 -0.2185
  104OSM   C17F10574   7.637   2.097   4.864 -0.0202  0.2684  0.1775
  104OSM   H17F10575   7.725   2.133   4.921 -0.1666 -0.9312  1.2097
  104OSM   H17G10576   7.561   2.177   4.873  0.7922  0.8958  1.7776
  104OSM   C18F10577   7.664   2.085   4.720 -0.6915 -0.6307  0.6227
  104OSM   H18F10578   7.572   2.058   4.662  0.6953  0.5269 -2.3275
  104OSM   H18G10579   7.743   2.012   4.691  0.4547  0.5212  0.7520
  104OSM   H18H10580   7.702   2.179   4.674 -1.0162 -1.6096 -1.8189
  105OSM      N10581   1.423   2.102   6.654 -0.7071 -0.3195  0.4535
  105OSM    C1510582   1.429   2.236   6.581 -0.7280  0.4561  0.3730
  105OSM   H15A10583   1.360   2.225   6.498  0.8076 -2.2210 -0.6780
  105OSM   H15B10584   1.525   2.257   6.537 -0.9631 -0.8645 -0.8406
  105OSM   H15C10585   1.396   2.318   6.643 -2.3035 -0.9111  1.4225
  105OSM    C1410586   1.451   1.997   6.551  0.1402 -0.3675  0.0449
  105OSM   H14A10587   1.541   2.015   6.495  1.3840 -0.1459  2.0295
  105OSM   H14B10588   1.368   1.996   6.481 -0.0609  0.9690  0.2544
  105OSM   H14C10589   1.450   1.898   6.593 -0.4146 -0.1499  0.5544
  105OSM    C1310590   1.535   2.095   6.761  0.8632 -0.0424 -0.4527
  105OSM   H13A10591   1.537   2.192   6.808  0.7633  1.1147 -2.6918
  105OSM   H13B10592   1.634   2.089   6.717  0.4156  0.8318 -1.6284
  105OSM   H13C10593   1.514   2.006   6.819  0.0045  1.7271  2.1232
  105OSM    C1210594   1.294   2.081   6.722  0.6193 -0.8182  0.3873
  105OSM   H12A10595   1.302   2.143   6.809 -1.2087  2.6277 -1.7094
  105OSM   H12B10596   1.289   1.977   6.752  3.2742 -0.7443  1.3836
  105OSM    C1110597   1.164   2.122   6.653  0.6942 -0.8493  0.0712
  105OSM   H11A10598   1.159   2.233   6.653  0.0377 -0.8699  0.4558
  105OSM   H11B10599   1.080   2.086   6.716 -2.7770  0.9747 -3.0747
  105OSM      P10600   1.120   1.921   6.499  0.2914 -0.1915  0.4585
  105OSM    O1310601   1.155   1.856   6.626  0.6707 -0.5810 -0.8954
  105OSM    O1410602   0.994   1.887   6.435  0.3899 -0.5811  0.2278
  105OSM    O1110603   1.237   1.891   6.399 -0.4779  0.0546 -0.1102
  105OSM    O1210604   1.139   2.076   6.517 -0.5471 -0.1403  0.6403
  105OSM    C1S10605   1.269   1.752   6.373 -0.7989  0.0377  0.0934
  105OSM    H1S10606   1.200   1.681   6.422  1.0520 -0.4582  2.1641
  105OSM    H1T10607   1.371   1.731   6.411  0.0130  0.8934 -1.4835
  105OSM     NF10608   1.290   1.585   6.186  0.0205 -0.0174  0.6121
  105OSM    HNF10609   1.375   1.554   6.146 -0.0681  1.2210 -0.6211
  105OSM    C2S10610   1.276   1.727   6.217  0.1231 -0.4304 -0.3854
  105OSM    H2S10611   1.181   1.764   6.172  0.1627  2.8127  1.8794
  105OSM    C3S10612   1.374   1.821   6.140 -0.4702  0.0949 -0.8514
  105OSM    H3S10613   1.475   1.785   6.169 -0.6542 -0.2981 -0.6885
  105OSM     O310614   1.383   1.958   6.189 -0.4773 -0.0268 -0.2068
  105OSM    HO310615   1.323   1.962   6.264  1.4938  0.2142  1.4348
  105OSM    C4S10616   1.364   1.805   5.992 -0.2636  0.2809 -0.7340
  105OSM    H4S10617   1.448   1.742   5.960  2.0817  3.4277 -1.2773
  105OSM    C5S10618   1.271   1.866   5.912  0.1535  0.2877 -0.1450
  105OSM    H5S10619   1.189   1.917   5.964 -1.0582 -2.7335  1.1665
  105OSM    C6S10620   1.266   1.848   5.757 -1.4956 -0.7566  0.3391
  105OSM    H6S10621   1.365   1.882   5.720 -1.3565 -0.6094  0.8326
  105OSM    H6T10622   1.184   1.904   5.708 -1.1092 -0.2984  0.2062
  105OSM    C7S10623   1.246   1.696   5.722 -0.7675  0.4378  0.1232
  105OSM    H7S10624   1.145   1.680   5.766 -0.9917  2.6170  0.5117
  105OSM    H7T10625   1.330   1.630   5.753 -1.6729 -1.5634 -1.4691
  105OSM    C8S10626   1.231   1.676   5.567 -0.6405  0.6690 -0.0935
  105OSM    H8S10627   1.326   1.716   5.525  0.1216 -0.5028  0.4452
  105OSM    H8T10628   1.155   1.743   5.521 -0.2675  0.7031 -0.6651
  105OSM    C9S10629   1.205   1.530   5.520 -0.6548 -0.7137 -0.1071
  105OSM    H9S10630   1.119   1.499   5.583 -1.3485  3.1597  1.1396
  105OSM    H9T10631   1.296   1.470   5.541  0.4713  0.9913  0.0794
  105OSM   C10S10632   1.160   1.521   5.372  0.0078  0.0538  0.5384
  105OSM   H10S10633   1.085   1.601   5.356 -0.2442 -0.6130 -2.1230
  105OSM   H10T10634   1.099   1.432   5.345  1.2014 -0.6864  0.2365
  105OSM   C11S10635   1.269   1.546   5.270  0.2912  0.3559 -0.4972
  105OSM   H11S10636   1.343   1.464   5.276  1.0345  1.0738  0.6972
  105OSM   H11T10637   1.319   1.639   5.305  0.3146 -0.0800  0.6931
  105OSM   C12S10638   1.218   1.555   5.121  0.5625 -0.6252  0.0986
  105OSM   H12S10639   1.283   1.617   5.056  3.1317 -0.4640  2.6413
  105OSM   H12T10640   1.122   1.611   5.115  0.0040 -1.5487  0.2246
  105OSM   C13S10641   1.198   1.421   5.048  0.1979 -0.6605  0.5571
  105OSM   H13S10642   1.096   1.386   5.073  0.7616 -0.2994  3.7828
  105OSM   H13T10643   1.261   1.336   5.084 -0.9017 -1.0328  1.6660
  105OSM   C14S10644   1.229   1.434   4.894 -0.0577  0.0857 -0.9235
  105OSM   H14S10645   1.309   1.511   4.886  0.7516 -0.6802 -0.3340
  105OSM   H14T10646   1.134   1.455   4.840  0.3663 -1.9775 -2.6249
  105OSM   C15S10647   1.280   1.305   4.838  0.0108  0.6972  0.4558
  105OSM   H15S10648   1.217   1.219   4.870  0.6627  0.2749  0.6220
  105OSM   H15T10649   1.381   1.278   4.875  1.0595  1.2634 -1.7960
  105OSM   C16S10650   1.297   1.305   4.685 -0.0062 -0.3667 -0.1759
  105OSM   H16S10651   1.348   1.398   4.650 -0.6594  0.0999  0.1105
  105OSM   H16T10652   1.193   1.300   4.646  0.3754 -0.4772 -1.2346
  105OSM   C17S10653   1.384   1.181   4.637 -0.2667  0.0071  0.2542
  105OSM   H17S10654   1.375   1.166   4.527  1.8967 -1.0247  0.1731
  105OSM   H17T10655   1.325   1.097   4.680  0.2743 -0.6863 -0.3203
  105OSM   C18S10656   1.533   1.186   4.676  0.2520  0.3465  0.5707
  105OSM   H18S10657   1.552   1.189   4.785  3.0751 -0.4507  0.1857
  105OSM   H18T10658   1.573   1.278   4.627  0.4604 -0.3531 -0.6374
  105OSM   H18U10659   1.590   1.095   4.646  1.0524  0.6537  1.1163
  105OSM    C1F10660   1.195   1.496   6.191  0.5521 -0.0613  0.3370
  105OSM     OF10661   1.089   1.511   6.247  0.1818 -0.0541  0.2190
  105OSM    C2F10662   1.228   1.363   6.136  0.4271  0.0984  0.7572
  105OSM    H2F10663   1.160   1.293   6.189  1.1871 -1.4767 -0.2659
  105OSM    H2G10664   1.332   1.334   6.163 -0.2539 -1.4266  1.8986
  105OSM    C3F10665   1.213   1.361   5.980 -0.1464  0.3653  0.6858
  105OSM    H3F10666   1.246   1.267   5.930 -0.2278  1.0616 -0.7440
  105OSM    H3G10667   1.267   1.445   5.931  1.0875 -0.5186  0.5130
  105OSM    C4F10668   1.068   1.369   5.928 -0.7671  0.1205 -0.1840
  105OSM    H4F10669   1.064   1.386   5.818 -1.7108  0.2050 -0.1424
  105OSM    H4G10670   1.009   1.443   5.985 -0.7492  0.0561 -0.0826
  105OSM    C5F10671   1.001   1.234   5.955  0.0895  0.4928  0.5706
  105OSM    H5F10672   0.893   1.257   5.969 -0.0443  2.6123 -2.8311
  105OSM    H5G10673   1.043   1.188   6.047  1.0363 -0.6861 -0.4167
  105OSM    C6F10674   1.005   1.122   5.852  0.1888  0.1799  1.2670
  105OSM    H6F10675   0.952   1.034   5.894  0.7468  0.0731  1.7616
  105OSM    H6G10676   1.110   1.095   5.828 -0.6305 -2.4410  0.2928
  105OSM    C7F10677   0.922   1.163   5.723  0.3988  0.0607 -0.2442
  105OSM    H7F10678   0.971   1.255   5.683 -0.8172  0.1309 -1.6928
  105OSM    H7G10679   0.817   1.189   5.749  0.3039  1.3660 -1.7318
  105OSM    C8F10680   0.936   1.065   5.615  0.6546  0.2846  0.3701
  105OSM    H8F10681   1.046   1.055   5.599  0.7671 -0.3817  1.4898
  105OSM    H8G10682   0.896   1.107   5.520  0.6610 -1.0942 -0.2559
  105OSM    C9F10683   0.875   0.930   5.655 -0.7045  0.6506 -0.6771
  105OSM    H9F10684   0.765   0.921   5.655 -0.8876  2.3556  0.8515
  105OSM   C10F10685   0.943   0.813   5.680 -0.4166  1.3101  0.5393
  105OSM   H10F10686   0.890   0.719   5.702  0.2170  0.4259 -1.4596
  105OSM   C11F10687   1.093   0.791   5.681  0.0244 -0.9618 -0.9193
  105OSM   H11F10688   1.123   0.721   5.762 -1.6630 -1.2919 -0.5290
  105OSM   H11G10689   1.163   0.870   5.715  1.5435 -1.8902 -1.7943
  105OSM   C12F10690   1.127   0.725   5.548  0.1500 -0.5696  0.3589
  105OSM   H12F10691   1.067   0.634   5.526  0.9778 -1.0579  0.0405
  105OSM   H12G10692   1.223   0.670   5.565 -0.3540 -1.9017 -0.8747
  105OSM   C13F10693   1.147   0.833   5.431  0.1400  0.1653  0.7661
  105OSM   H13F10694   1.226   0.902   5.467  0.9460 -0.1915 -0.2683
  105OSM   H13G10695   1.054   0.893   5.423 -0.6508 -1.1760 -0.8651
  105OSM   C14F10696   1.180   0.774   5.291 -0.6681  0.2211  0.4103
  105OSM   H14F10697   1.092   0.720   5.249 -1.1754  2.5268 -1.7554
  105OSM   H14G10698   1.269   0.707   5.295 -0.5957  0.1779 -1.0786
  105OSM   C15F10699   1.203   0.871   5.185  0.0332 -0.8968 -0.0640
  105OSM   H15F10700   1.302   0.915   5.212  0.8012 -3.3708  1.4988
  105OSM   H15G10701   1.124   0.947   5.200 -0.5867 -1.1019 -2.0285
  105OSM   C16F10702   1.199   0.823   5.040 -0.0116  0.8027  0.2004
  105OSM   H16F10703   1.108   0.764   5.015 -0.2116  1.3473 -0.3808
  105OSM   H16G10704   1.280   0.750   5.017  1.5360  2.3640  0.5093
  105OSM   C17F10705   1.202   0.936   4.945  0.1341  0.5527 -0.0308
  105OSM   H17F10706   1.298   0.990   4.959  1.6262 -1.7313 -0.7943
  105OSM   H17G10707   1.119   0.997   4.986 -0.2904 -0.2872  0.3845
  105OSM   C18F10708   1.174   0.897   4.799 -0.3863 -0.1856  0.2096
  105OSM   H18F10709   1.077   0.844   4.787  0.6754 -1.6959 -2.7850
  105OSM   H18G10710   1.246   0.827   4.752 -0.6395  1.3378 -2.7603
  105OSM   H18H10711   1.161   0.993   4.744  0.7228  0.4038  0.9264
  106OSM      N10712   6.246   0.537   6.962  0.4736 -0.4669 -0.0298
  106OSM    C1510713   6.330   0.533   7.084  0.3665 -0.0475 -0.0723
  106OSM   H15A10714   6.261   0.488   7.153 -0.3248 -1.7607 -1.7913
  106OSM   H15B10715   6.372   0.625   7.122 -1.7040  0.9066  0.0202
  106OSM   H15C10716   6.415   0.468   7.068 -0.6213 -1.4746  0.2757
  106OSM    C1410717   6.197   0.397   6.931 -0.4657 -0.3463  0.0832
  106OSM   H14A10718   6.142   0.357   7.015  1.7983  1.3216  2.5379
  106OSM   H14B10719   6.287   0.338   6.917  0.5963  0.4725  2.7848
  106OSM   H14C10720   6.137   0.394   6.842 -1.8665  1.5930  0.8802
  106OSM    C1310721   6.121   0.613   6.993  0.2616  0.6136  0.6249
  106OSM   H13A10722   6.052   0.552   7.049 -2.2293  2.2958 -0.4267
  106OSM   H13B10723   6.067   0.642   6.904  2.2465  2.4803 -0.0562
  106OSM   H13C10724   6.135   0.700   7.056  1.0523  0.5781  0.5111
  106OSM    C1210725   6.336   0.595   6.851  0.4853 -0.1683 -0.5488
  106OSM   H12A10726   6.359   0.697   6.877  1.0713 -0.4873  0.2133
  106OSM   H12B10727   6.272   0.621   6.768 -2.1034 -0.1448  1.3660
  106OSM    C1110728   6.464   0.517   6.804  0.4139  0.1628  0.4362
  106OSM   H11A10729   6.537   0.519   6.887 -1.3649  3.8342  2.1088
  106OSM   H11B10730   6.510   0.572   6.719  0.7825 -1.8165 -0.7090
  106OSM      P10731   6.505   0.250   6.786  0.2229 -0.1354  0.0671
  106OSM    O1310732   6.630   0.273   6.860  0.4875 -0.0249 -0.1608
  106OSM    O1410733   6.404   0.162   6.854 -0.0646 -0.0589 -0.1044
  106OSM    O1110734   6.543   0.188   6.642 -0.1218  0.3807  0.0672
  106OSM    O1210735   6.429   0.388   6.760 -0.1819  0.8624  0.2782
  106OSM    C1S10736   6.601   0.272   6.538 -0.2639 -0.2599 -0.8157
  106OSM    H1S10737   6.683   0.329   6.586 -3.5776  3.1166  1.3753
  106OSM    H1T10738   6.533   0.354   6.507  1.0321  1.1676 -0.0162
  106OSM     NF10739   6.676   0.281   6.304 -0.0803 -0.1168 -0.1154
  106OSM    HNF10740   6.617   0.292   6.224 -1.4147 -1.5030  0.6027
  106OSM    C2S10741   6.630   0.191   6.412 -0.5413  0.0884  0.4334
  106OSM    H2S10742   6.719   0.130   6.440 -1.0780 -0.3404  1.2547
  106OSM    C3S10743   6.528   0.083   6.374 -0.3950 -0.3938  0.0750
  106OSM    H3S10744   6.436   0.136   6.340 -0.1437  0.2232  0.3371
  106OSM     O310745   6.481   0.003   6.482 -0.2275 -0.2133 -0.3470
  106OSM    HO310746   6.536   0.040   6.551  1.0586 -1.0371 -0.9035
  106OSM    C4S10747   6.587  -0.014   6.269  0.6647  0.1764  0.4291
  106OSM    H4S10748   6.659  -0.084   6.312  0.4275  0.2731  0.9919
  106OSM    C5S10749   6.536  -0.042   6.147  0.1764 -0.4093  0.1590
  106OSM    H5S10750   6.452   0.022   6.115  0.0257 -1.0877 -0.8139
  106OSM    C6S10751   6.578  -0.158   6.067  0.0713 -0.2831  0.4351
  106OSM    H6S10752   6.512  -0.246   6.086 -2.6558  1.7727  1.0780
  106OSM    H6T10753   6.677  -0.200   6.095 -0.3145 -2.1570 -0.7753
  106OSM    C7S10754   6.566  -0.133   5.921  0.6279 -1.0865  0.0572
  106OSM    H7S10755   6.632  -0.045   5.908 -1.4301  0.7060  1.0402
  106OSM    H7T10756   6.466  -0.105   5.882  1.5162  0.5385 -1.1311
  106OSM    C8S10757   6.618  -0.254   5.838  0.0579 -1.2026 -0.3557
  106OSM    H8S10758   6.543  -0.332   5.862  1.9520 -2.7566  0.9445
  106OSM    H8T10759   6.720  -0.285   5.870  0.2335 -0.6090 -0.3324
  106OSM    C9S10760   6.624  -0.231   5.685 -0.5298  0.0263 -0.7570
  106OSM    H9S10761   6.672  -0.327   5.653 -1.0623 -0.3326 -0.5017
  106OSM    H9T10762   6.693  -0.149   5.658  0.7604 -1.1334 -1.1157
  106OSM   C10S10763   6.483  -0.221   5.622  0.0360 -0.3605  0.4377
  106OSM   H10S10764   6.453  -0.115   5.631  1.9219  0.1057  1.7814
  106OSM   H10T10765   6.408  -0.280   5.679 -1.8592  1.1873 -0.3437
  106OSM   C11S10766   6.484  -0.258   5.475  0.3511 -0.0224  0.4594
  106OSM   H11S10767   6.572  -0.206   5.431 -0.3484  1.2900  0.5375
  106OSM   H11T10768   6.397  -0.215   5.421  0.7565  1.7486  1.1318
  106OSM   C12S10769   6.511  -0.404   5.445  0.1897 -0.2476  0.5417
  106OSM   H12S10770   6.432  -0.469   5.489  0.4613 -1.0917 -0.1815
  106OSM   H12T10771   6.606  -0.437   5.492  0.0268 -0.0167  1.0525
  106OSM   C13S10772   6.519  -0.441   5.296 -0.4148 -0.5260  0.1191
  106OSM   H13S10773   6.583  -0.379   5.230 -0.9784  1.3379  1.2521
  106OSM   H13T10774   6.417  -0.427   5.254 -0.0620  0.5753 -0.4167
  106OSM   C14S10775   6.573  -0.586   5.275  0.6212  0.3104 -0.5614
  106OSM   H14S10776   6.513  -0.656   5.337  2.6641 -1.7049 -0.7167
  106OSM   H14T10777   6.676  -0.571   5.314  0.3103 -0.2736  0.5263
  106OSM   C15S10778   6.580  -0.631   5.133 -0.0635  0.2954  0.3367
  106OSM   H15S10779   6.611  -0.550   5.063  2.0715  0.6854  1.6499
  106OSM   H15T10780   6.478  -0.663   5.102 -0.4100  0.5112  1.2014
  106OSM   C16S10781   6.680  -0.741   5.108 -0.5829  0.0143 -0.0639
  106OSM   H16S10782   6.651  -0.828   5.170  0.6605 -0.9617 -0.7961
  106OSM   H16T10783   6.779  -0.697   5.134 -0.4596 -1.1266  1.5055
  106OSM   C17S10784   6.675  -0.785   4.961 -0.7292 -0.2940  0.0737
  106OSM   H17S10785   6.770  -0.836   4.933 -1.4468 -0.3812 -2.4503
  106OSM   H17T10786   6.652  -0.696   4.900 -3.3254 -0.1679  1.1176
  106OSM   C18S10787   6.562  -0.880   4.932  0.0359  0.1053 -0.5479
  106OSM   H18S10788   6.584  -0.917   4.830  3.4841  0.6722 -0.1347
  106OSM   H18T10789   6.469  -0.819   4.940  0.7923  1.2485 -0.1516
  106OSM   H18U10790   6.565  -0.957   5.012  3.1085  0.0690 -0.5707
  106OSM    C1F10791   6.788   0.350   6.294 -0.2338  0.1037  0.0279
  106OSM     OF10792   6.879   0.350   6.383  0.5101  0.1694 -0.1346
  106OSM    C2F10793   6.792   0.433   6.167 -0.0221 -0.0742  0.2346
  106OSM    H2F10794   6.863   0.518   6.182  0.5119 -0.8055  2.2101
  106OSM    H2G10795   6.691   0.474   6.149 -0.1424 -0.8248 -0.9265
  106OSM    C3F10796   6.843   0.334   6.059 -0.2198  0.0498  0.5760
  106OSM    H3F10797   6.790   0.236   6.061  1.1505 -0.7022  1.4112
  106OSM    H3G10798   6.951   0.320   6.079 -0.6914 -1.7251  2.1994
  106OSM    C4F10799   6.836   0.387   5.914  0.3211  0.4127 -0.7968
  106OSM    H4F10800   6.892   0.482   5.898 -0.3754  0.6394 -2.0438
  106OSM    H4G10801   6.729   0.409   5.898 -0.3395 -1.9554  0.0573
  106OSM    C5F10802   6.872   0.285   5.806 -0.4788  0.8932 -0.1608
  106OSM    H5F10803   6.830   0.184   5.823 -3.1759  1.9116 -0.2684
  106OSM    H5G10804   6.982   0.293   5.797 -0.5164  5.0950  0.9845
  106OSM    C6F10805   6.821   0.323   5.670  0.0891 -0.0806 -0.1468
  106OSM    H6F10806   6.837   0.432   5.656  0.4169 -0.1666 -0.4996
  106OSM    H6G10807   6.712   0.309   5.660 -0.0443  0.8228 -0.0463
  106OSM    C7F10808   6.906   0.269   5.552 -0.1239  0.9215 -0.4597
  106OSM    H7F10809   6.917   0.159   5.566  1.0645  0.8633 -1.6834
  106OSM    H7G10810   7.003   0.318   5.574  0.2602  0.7622 -1.7488
  106OSM    C8F10811   6.852   0.304   5.414 -0.0513  0.2894 -0.3816
  106OSM    H8F10812   6.848   0.414   5.399  3.1110  0.2863 -2.0051
  106OSM    H8G10813   6.748   0.266   5.405  0.0640  0.3630 -2.2334
  106OSM    C9F10814   6.949   0.238   5.315 -0.0865  0.2482  0.2621
  106OSM    H9F10815   7.055   0.218   5.337 -0.7664 -1.0130  2.7010
  106OSM   C10F10816   6.914   0.199   5.189 -0.7614  1.3059  0.8668
  106OSM   H10F10817   6.979   0.136   5.127 -0.7587  0.9823  1.1947
  106OSM   C11F10818   6.775   0.198   5.131  0.3267  0.5604  0.6137
  106OSM   H11F10819   6.776   0.180   5.022 -1.1056 -0.3656  0.7262
  106OSM   H11G10820   6.709   0.281   5.163  1.1953  1.1310  0.9778
  106OSM   C12F10821   6.691   0.074   5.184  0.0371 -0.4982  0.3397
  106OSM   H12F10822   6.646   0.090   5.284 -3.0318  0.6093 -1.1102
  106OSM   H12G10823   6.760  -0.013   5.177 -1.0695 -1.3789  0.0223
  106OSM   C13F10824   6.577   0.046   5.092  0.1166 -0.6340 -0.1526
  106OSM   H13F10825   6.619   0.019   4.992  0.8743  0.2151 -0.0853
  106OSM   H13G10826   6.522   0.142   5.082  0.3328 -0.6169 -1.3647
  106OSM   C14F10827   6.500  -0.076   5.155 -0.1846  0.9102 -0.0332
  106OSM   H14F10828   6.433  -0.044   5.238  1.0511  1.9413  0.6010
  106OSM   H14G10829   6.576  -0.147   5.194  0.9330  2.0186 -0.1122
  106OSM   C15F10830   6.419  -0.157   5.048 -0.1398  0.0619  0.1907
  106OSM   H15F10831   6.344  -0.086   5.006 -1.0417 -1.6369 -1.1993
  106OSM   H15G10832   6.370  -0.240   5.102  0.1217  2.0826  3.8177
  106OSM   C16F10833   6.515  -0.226   4.950 -0.2129 -0.1250 -0.1977
  106OSM   H16F10834   6.593  -0.286   5.001  0.4939 -0.7365 -1.9301
  106OSM   H16G10835   6.563  -0.145   4.891 -0.8746  1.2203  1.0587
  106OSM   C17F10836   6.438  -0.326   4.850 -0.4306 -0.5111  0.1938
  106OSM   H17F10837   6.379  -0.270   4.774  1.0892  0.4826 -0.2880
  106OSM   H17G10838   6.370  -0.381   4.918 -0.6639  0.2836  0.6171
  106OSM   C18F10839   6.528  -0.426   4.779  0.0233 -0.4211  0.2592
  106OSM   H18F10840   6.476  -0.485   4.700  0.4770  0.6354 -0.8577
  106OSM   H18G10841   6.575  -0.494   4.853 -1.1132 -0.5288  0.8999
  106OSM   H18H10842   6.616  -0.378   4.730 -0.0688 -0.2875  0.2242
  107OSM      N10843   6.233   5.968   6.870  0.1309 -1.0391 -0.0218
  107OSM    C1510844   6.118   5.865   6.871  0.1940 -0.2750 -0.4342
  107OSM   H15A10845   6.107   5.826   6.971 -0.6886  1.2256  0.0865
  107OSM   H15B10846   6.133   5.781   6.805  4.8904  0.3724 -0.5167
  107OSM   H15C10847   6.025   5.917   6.852  0.8827  1.2699  0.2568
  107OSM    C1410848   6.213   6.075   6.967 -0.4176  0.2565  0.1176
  107OSM   H14A10849   6.138   6.145   6.935 -1.1452  0.0657  1.3547
  107OSM   H14B10850   6.308   6.127   6.969 -0.2901  0.0171  0.3996
  107OSM   H14C10851   6.190   6.056   7.070 -0.5178  2.1337  0.4763
  107OSM    C1310852   6.358   5.898   6.923 -0.5767 -0.4470  0.2313
  107OSM   H13A10853   6.383   5.838   6.836  0.4785  0.6391 -0.2630
  107OSM   H13B10854   6.340   5.845   7.014  0.5174  0.1889  0.8453
  107OSM   H13C10855   6.438   5.968   6.944 -0.6582 -0.6331  1.1956
  107OSM    C1210856   6.257   6.037   6.735 -0.2978 -0.3347 -0.0869
  107OSM   H12A10857   6.317   6.126   6.745 -0.4466  0.1155 -2.5553
  107OSM   H12B10858   6.167   6.080   6.692  0.4829  1.3809 -0.0935
  107OSM    C1110859   6.313   5.953   6.617  0.1787 -0.2605 -0.4324
  107OSM   H11A10860   6.394   5.884   6.651  0.8238  0.2777 -0.8741
  107OSM   H11B10861   6.353   6.025   6.543 -0.1844  0.7975  0.3722
  107OSM      P10862   6.111   5.935   6.460  0.4985 -0.1006 -0.2164
  107OSM    O1310863   6.004   5.832   6.429 -0.0065 -0.0469 -0.3333
  107OSM    O1410864   6.061   6.068   6.514 -0.1838  0.0993  0.0521
  107OSM    O1110865   6.198   5.958   6.334 -0.4272  0.2540  0.3313
  107OSM    O1210866   6.210   5.865   6.565 -0.5876  0.3833  0.6175
  107OSM    C1S10867   6.316   5.871   6.306 -0.1235 -0.9925  0.3643
  107OSM    H1S10868   6.313   5.785   6.376 -3.1102 -0.7742  0.6342
  107OSM    H1T10869   6.408   5.930   6.319  1.0812 -2.1827 -2.0470
  107OSM     NF10870   6.395   5.697   6.135 -0.1148  0.3258 -0.2992
  107OSM    HNF10871   6.469   5.695   6.069 -0.1276 -1.6263 -0.3085
  107OSM    C2S10872   6.320   5.816   6.157 -0.9609 -1.2919 -0.2876
  107OSM    H2S10873   6.213   5.792   6.137 -2.1683  2.5402  0.7767
  107OSM    C3S10874   6.350   5.940   6.062  0.1406  0.4397 -0.3302
  107OSM    H3S10875   6.452   5.977   6.088  1.2342 -0.0296 -3.5262
  107OSM     O310876   6.262   6.046   6.067 -0.0432 -0.4672  0.2253
  107OSM    HO310877   6.209   6.026   6.145  0.2084 -2.0844  0.0048
  107OSM    C4S10878   6.376   5.895   5.916 -0.0205 -0.0890 -0.1805
  107OSM    H4S10879   6.484   5.884   5.897  0.1093 -0.2652  0.6141
  107OSM    C5S10880   6.286   5.873   5.819 -0.1061  0.0717  0.8654
  107OSM    H5S10881   6.182   5.903   5.842 -0.3283 -0.2819  0.3279
  107OSM    C6S10882   6.310   5.803   5.686  0.0132 -0.3764 -0.3728
  107OSM    H6S10883   6.271   5.860   5.599 -1.0459  0.5327  0.6525
  107OSM    H6T10884   6.270   5.699   5.687  0.2720 -0.4768 -0.1887
  107OSM    C7S10885   6.463   5.780   5.650 -0.0111 -0.5964 -0.2755
  107OSM    H7S10886   6.519   5.733   5.734 -0.0590 -1.0235 -0.4818
  107OSM    H7T10887   6.504   5.883   5.648 -0.8093 -0.2671 -0.1594
  107OSM    C8S10888   6.471   5.713   5.511  1.2563 -0.4955  0.0743
  107OSM    H8S10889   6.405   5.767   5.440  1.7578  0.0372  0.0071
  107OSM    H8T10890   6.425   5.613   5.525  0.5098  0.0587  1.9361
  107OSM    C9S10891   6.606   5.702   5.450 -0.1481  0.1418  0.2790
  107OSM    H9S10892   6.640   5.598   5.468  1.6198  0.6214 -0.1301
  107OSM    H9T10893   6.683   5.773   5.487  1.9608 -1.3766 -0.9738
  107OSM   C10S10894   6.599   5.725   5.295 -0.5298 -0.2347  0.3658
  107OSM   H10S10895   6.574   5.833   5.288  0.2748  0.1617  2.6398
  107OSM   H10T10896   6.517   5.673   5.242 -1.0666  0.2307  0.7273
  107OSM   C11S10897   6.740   5.689   5.235  0.1304  0.4297 -0.4167
  107OSM   H11S10898   6.742   5.578   5.225  1.9866  0.4553 -0.8037
  107OSM   H11T10899   6.816   5.717   5.311  0.7811 -0.2653 -0.7948
  107OSM   C12S10900   6.785   5.753   5.109  0.3263  1.0223 -0.0762
  107OSM   H12S10901   6.777   5.862   5.128 -3.3887  0.8118  0.2862
  107OSM   H12T10902   6.714   5.730   5.027 -0.8585  0.6773  1.0255
  107OSM   C13S10903   6.922   5.710   5.076  0.0731 -0.3198  0.0204
  107OSM   H13S10904   6.933   5.602   5.054  0.2017 -0.2467 -0.2707
  107OSM   H13T10905   6.986   5.741   5.162  3.9649 -0.9210 -2.4077
  107OSM   C14S10906   6.961   5.777   4.944 -0.1996  0.0290 -0.0576
  107OSM   H14S10907   7.068   5.766   4.919 -0.3521 -1.7434 -0.0606
  107OSM   H14T10908   6.947   5.886   4.960  1.9991  0.4018 -0.4323
  107OSM   C15S10909   6.890   5.726   4.817  0.3637 -0.5366 -0.5439
  107OSM   H15S10910   6.787   5.766   4.822  0.3363 -0.7256  0.7137
  107OSM   H15T10911   6.889   5.615   4.814 -0.2213 -0.9109  4.5886
  107OSM   C16S10912   6.957   5.767   4.682 -0.3705  0.2710 -0.4017
  107OSM   H16S10913   7.061   5.727   4.683 -0.5424 -0.1910  0.6105
  107OSM   H16T10914   6.972   5.876   4.670  2.9632  0.2973  2.3690
  107OSM   C17S10915   6.894   5.701   4.563 -0.3376 -0.7445  0.8020
  107OSM   H17S10916   6.786   5.727   4.562  0.1513  1.4690  1.0146
  107OSM   H17T10917   6.919   5.593   4.573  2.9612 -0.1425  0.1923
  107OSM   C18S10918   6.959   5.765   4.436 -0.0971  0.0651  0.6376
  107OSM   H18S10919   6.960   5.875   4.446  0.2597 -0.0990  2.8238
  107OSM   H18T10920   6.890   5.748   4.350 -3.0612  0.1935  2.8080
  107OSM   H18U10921   7.063   5.726   4.426  0.4517  1.3133  1.3796
  107OSM    C1F10922   6.366   5.580   6.198  0.2164 -0.1321  0.9198
  107OSM     OF10923   6.289   5.577   6.292 -0.1216  0.2938 -0.3547
  107OSM    C2F10924   6.428   5.456   6.147 -0.0111  0.0746  0.1926
  107OSM    H2F10925   6.476   5.407   6.234  0.3945  2.7818  1.5950
  107OSM    H2G10926   6.504   5.483   6.071 -0.0990  0.9784  0.4199
  107OSM    C3F10927   6.333   5.347   6.085  0.6157  0.0117  0.0384
  107OSM    H3F10928   6.266   5.306   6.164 -0.9196  0.0459 -1.2047
  107OSM    H3G10929   6.394   5.260   6.051  0.2803 -0.0075 -0.5144
  107OSM    C4F10930   6.256   5.379   5.957 -0.3260 -0.9897 -0.0462
  107OSM    H4F10931   6.191   5.468   5.975  2.3385  0.8541  1.1766
  107OSM    H4G10932   6.184   5.297   5.937 -2.1429  0.6706 -0.6310
  107OSM    C5F10933   6.354   5.412   5.838 -0.4537 -0.7640 -0.5577
  107OSM    H5F10934   6.437   5.481   5.862 -1.2149 -0.0961  0.2293
  107OSM    H5G10935   6.306   5.457   5.748  0.2607  0.4304 -0.3667
  107OSM    C6F10936   6.419   5.293   5.767  0.6568  0.0606 -0.4710
  107OSM    H6F10937   6.336   5.220   5.757 -0.7322  1.5240 -0.0699
  107OSM    H6G10938   6.498   5.256   5.836 -0.5816 -2.5490 -0.3496
  107OSM    C7F10939   6.470   5.320   5.623 -0.0586  0.3703 -0.0876
  107OSM    H7F10940   6.544   5.403   5.625 -1.1831  1.4679 -1.5130
  107OSM    H7G10941   6.387   5.362   5.563  1.2542  0.2693 -2.0800
  107OSM    C8F10942   6.510   5.192   5.556 -0.4045  0.0908 -0.7715
  107OSM    H8F10943   6.426   5.145   5.499  0.1807 -0.6139 -1.0705
  107OSM    H8G10944   6.534   5.116   5.634 -0.1286 -0.3983 -1.3271
  107OSM    C9F10945   6.629   5.205   5.469 -0.0784 -0.3781 -0.3424
  107OSM    H9F10946   6.729   5.208   5.515 -1.7806  1.4653  3.6658
  107OSM   C10F10947   6.622   5.234   5.339  0.1129  0.7640 -0.1223
  107OSM   H10F10948   6.717   5.229   5.284  0.6654 -0.5475  0.8878
  107OSM   C11F10949   6.503   5.256   5.255  0.0582  0.2658 -0.0797
  107OSM   H11F10950   6.504   5.355   5.207 -1.1001  0.4328  0.2110
  107OSM   H11G10951   6.410   5.248   5.315 -1.1986 -2.0141 -2.1408
  107OSM   C12F10952   6.480   5.153   5.143  0.3033 -0.0713  0.1544
  107OSM   H12F10953   6.376   5.174   5.113  0.0041 -1.1573  0.3923
  107OSM   H12G10954   6.478   5.050   5.184 -1.4091 -0.5725 -1.0981
  107OSM   C13F10955   6.576   5.166   5.023 -0.5074  0.3440  0.1320
  107OSM   H13F10956   6.682   5.146   5.046 -0.2381  1.2793 -0.2620
  107OSM   H13G10957   6.571   5.269   4.980  0.0164  0.7213  0.9377
  107OSM   C14F10958   6.538   5.057   4.914  0.0626 -0.4292  0.0589
  107OSM   H14F10959   6.428   5.052   4.900  0.0571 -0.5757  0.1477
  107OSM   H14G10960   6.568   4.957   4.952  0.3044 -0.5768 -0.4947
  107OSM   C15F10961   6.614   5.078   4.781 -0.1265  0.1409  0.1591
  107OSM   H15F10962   6.698   5.144   4.811 -1.1318  0.8451  1.5432
  107OSM   H15G10963   6.549   5.138   4.713 -1.5797 -0.5563  0.8664
  107OSM   C16F10964   6.649   4.954   4.715  0.0255  0.3967  0.4872
  107OSM   H16F10965   6.551   4.917   4.679 -0.8010  1.5647  1.4451
  107OSM   H16G10966   6.689   4.874   4.780 -0.7836  0.5196  1.1439
  107OSM   C17F10967   6.737   4.980   4.597  0.2230 -0.5637  0.2208
  107OSM   H17F10968   6.818   5.048   4.630 -0.1922 -0.5342  1.2065
  107OSM   H17G10969   6.687   5.046   4.523  2.4390  0.2942 -0.5678
  107OSM   C18F10970   6.774   4.859   4.517  0.0970 -0.0486 -0.6701
  107OSM   H18F10971   6.834   4.883   4.426  0.6730  0.8025 -0.0803
  107OSM   H18G10972   6.682   4.812   4.477 -0.0149 -0.0871 -0.3640
  107OSM   H18H10973   6.825   4.783   4.580 -1.0386 -0.4417 -0.2040
  108OSM      N10974   2.548   5.195   6.792  0.0318 -0.3012 -0.0089
  108OSM    C1510975   2.569   5.233   6.647 -0.2666 -0.3736  0.1505
  108OSM   H15A10976   2.663   5.284   6.639 -0.3420 -0.1157  0.7776
  108OSM   H15B10977   2.499   5.313   6.628  2.3318  2.2473  0.8070
  108OSM   H15C10978   2.566   5.154   6.574  1.6548 -0.9584  0.6386
  108OSM    C1410979   2.421   5.118   6.796 -0.0146 -0.4547  1.1625
  108OSM   H14A10980   2.404   5.071   6.892 -0.7201  0.8724  1.7106
  108OSM   H14B10981   2.405   5.044   6.719 -4.0395 -1.2213  2.5344
  108OSM   H14C10982   2.336   5.181   6.778  1.3842  1.3725  0.6048
  108OSM    C1310983   2.659   5.103   6.837 -0.4653 -0.1854  0.1994
  108OSM   H13A10984   2.668   5.010   6.782 -0.9470  0.1970 -0.5424
  108OSM   H13B10985   2.645   5.076   6.941 -0.3194  2.5846  1.0024
  108OSM   H13C10986   2.755   5.152   6.843 -1.8058  2.5105  1.2209
  108OSM    C1210987   2.549   5.315   6.885  0.1740 -0.1014  0.6823
  108OSM   H12A10988   2.650   5.345   6.912  0.2875  0.8372 -0.7017
  108OSM   H12B10989   2.507   5.281   6.978 -2.6269 -0.7117 -0.7111
  108OSM    C1110990   2.483   5.446   6.838  0.4902 -0.0216  0.0768
  108OSM   H11A10991   2.467   5.495   6.936  2.2872  0.3577  0.2200
  108OSM   H11B10992   2.386   5.426   6.788  0.4205  0.9003 -0.1713
  108OSM      P10993   2.564   5.668   6.734  0.0833  0.4628  0.0426
  108OSM    O1310994   2.443   5.723   6.805  0.3841  0.6163 -0.6023
  108OSM    O1410995   2.688   5.732   6.778  0.1891 -0.0711  0.5388
  108OSM    O1110996   2.549   5.677   6.577 -0.1921  0.3656 -0.0848
  108OSM    O1210997   2.568   5.513   6.756  0.1681 -0.1040  0.4278
  108OSM    C1S10998   2.602   5.571   6.498  0.3518  0.7325 -0.4705
  108OSM    H1S10999   2.530   5.487   6.511  2.0389 -0.5744  0.8361
  108OSM    H1T11000   2.698   5.531   6.536 -0.1210 -0.9693 -0.9748
  108OSM     NF11001   2.704   5.495   6.282 -0.1422 -0.2020  0.8368
  108OSM    HNF11002   2.789   5.521   6.236 -1.0238  4.8927  1.5994
  108OSM    C2S11003   2.621   5.602   6.342  0.4058  0.4003  0.6236
  108OSM    H2S11004   2.516   5.583   6.313  0.1204 -1.9711  2.8151
  108OSM    C3S11005   2.681   5.751   6.324  0.3090  0.0352 -0.1524
  108OSM    H3S11006   2.789   5.757   6.353  0.9698 -0.6709 -2.2965
  108OSM     O311007   2.614   5.857   6.398  0.0013 -0.1809  0.1721
  108OSM    HO311008   2.566   5.812   6.467 -0.8052 -1.3009 -1.0745
  108OSM    C4S11009   2.670   5.769   6.180 -0.0405 -0.2595 -0.6394
  108OSM    H4S11010   2.581   5.825   6.147  0.8842 -0.0218 -2.8863
  108OSM    C5S11011   2.774   5.755   6.100 -0.3244 -0.8018  0.6052
  108OSM    H5S11012   2.875   5.729   6.135  0.2676  2.2389  1.4811
  108OSM    C6S11013   2.773   5.792   5.961 -1.0232 -0.3253  0.4316
  108OSM    H6S11014   2.675   5.839   5.936 -0.9322  0.0584  0.7940
  108OSM    H6T11015   2.783   5.694   5.910  1.2871  1.1830 -2.3450
  108OSM    C7S11016   2.882   5.886   5.910  0.2725 -0.0848 -0.9683
  108OSM    H7S11017   2.984   5.851   5.937  0.0394  0.2577  0.4512
  108OSM    H7T11018   2.854   5.980   5.962 -0.3471  0.5515 -2.3952
  108OSM    C8S11019   2.874   5.906   5.759  0.1449 -0.2146  0.0365
  108OSM    H8S11020   2.929   6.000   5.737 -0.3317  0.6118  2.0577
  108OSM    H8T11021   2.771   5.936   5.730  0.1906 -0.1570 -0.0662
  108OSM    C9S11022   2.929   5.780   5.691  0.0065  0.5746 -0.1103
  108OSM    H9S11023   2.869   5.687   5.685  0.1583  0.5453 -1.7868
  108OSM    H9T11024   3.028   5.767   5.739  0.8035  0.1064 -1.7938
  108OSM   C10S11025   2.965   5.797   5.542 -0.1802 -0.0024 -0.1134
  108OSM   H10S11026   3.022   5.892   5.549 -0.1251 -0.1616  2.7182
  108OSM   H10T11027   2.871   5.827   5.490 -0.2574  0.6212  0.3633
  108OSM   C11S11028   3.051   5.682   5.485  0.2635  0.1115  0.0313
  108OSM   H11S11029   3.002   5.586   5.509 -0.7574  0.6274  0.0716
  108OSM   H11T11030   3.152   5.681   5.533 -0.9187  1.3740  2.7637
  108OSM   C12S11031   3.062   5.694   5.325 -0.0108 -0.1696 -0.5493
  108OSM   H12S11032   3.093   5.799   5.303  0.3695 -0.2217 -0.2597
  108OSM   H12T11033   2.956   5.668   5.304  0.3132 -2.7857  0.7522
  108OSM   C13S11034   3.162   5.598   5.262 -0.3555 -0.1128  0.0320
  108OSM   H13S11035   3.164   5.503   5.318  1.0421  0.1157  0.4096
  108OSM   H13T11036   3.259   5.648   5.284 -1.6426  2.3478  0.4890
  108OSM   C14S11037   3.132   5.561   5.120  0.0788 -0.2255  0.6563
  108OSM   H14S11038   3.022   5.550   5.114 -0.4153  1.6276  4.0352
  108OSM   H14T11039   3.170   5.459   5.096  1.7991 -0.0557  2.3863
  108OSM   C15S11040   3.192   5.659   5.014 -0.0160  0.2775  0.0925
  108OSM   H15S11041   3.301   5.661   5.037 -0.0604  0.0855  0.3191
  108OSM   H15T11042   3.131   5.751   5.026  0.6244  0.5059  1.7963
  108OSM   C16S11043   3.202   5.613   4.865  0.3959 -0.0526  0.3848
  108OSM   H16S11044   3.107   5.632   4.810  0.0924  0.7318  1.1694
  108OSM   H16T11045   3.241   5.509   4.861 -1.7371 -1.0368  2.6790
  108OSM   C17S11046   3.285   5.704   4.774  0.2950 -0.2505  0.3110
  108OSM   H17S11047   3.388   5.691   4.814  0.8349 -0.3015 -1.0572
  108OSM   H17T11048   3.259   5.811   4.784  0.6450 -0.1701  0.3582
  108OSM   C18S11049   3.277   5.665   4.620  0.6302  0.3542  0.0475
  108OSM   H18S11050   3.180   5.699   4.577  0.4667  0.9430  0.8638
  108OSM   H18T11051   3.284   5.555   4.607 -0.7346  0.3566 -1.0378
  108OSM   H18U11052   3.354   5.713   4.556  2.4160 -2.5948 -0.2231
  108OSM    C1F11053   2.650   5.375   6.260  0.4989 -0.0564  0.0493
  108OSM     OF11054   2.529   5.355   6.290 -0.3917 -0.2867  0.2886
  108OSM    C2F11055   2.734   5.276   6.196 -0.3001  0.5879  0.2727
  108OSM    H2F11056   2.686   5.183   6.232 -0.7971  0.1461 -1.4067
  108OSM    H2G11057   2.835   5.278   6.243  0.7789 -1.5657 -1.7008
  108OSM    C3F11058   2.739   5.254   6.037 -1.3244 -1.3675  0.3180
  108OSM    H3F11059   2.636   5.237   5.999 -0.9673 -0.0538 -1.4025
  108OSM    H3G11060   2.801   5.164   6.015  0.6542  0.5139 -2.5364
  108OSM    C4F11061   2.808   5.377   5.969 -0.4555 -0.0106  0.8234
  108OSM    H4F11062   2.778   5.475   6.011 -1.4229  0.8588 -1.6878
  108OSM    H4G11063   2.779   5.384   5.862  0.7087 -1.4049  0.3981
  108OSM    C5F11064   2.958   5.354   5.958 -0.4330 -0.0028 -0.2514
  108OSM    H5F11065   2.969   5.270   5.886  0.2103 -1.1176  1.0859
  108OSM    H5G11066   2.994   5.322   6.058 -0.3026 -1.1658 -0.6528
  108OSM    C6F11067   3.035   5.476   5.920  0.3230 -0.4443  0.9708
  108OSM    H6F11068   3.016   5.565   5.984  0.0617 -1.6676  2.6721
  108OSM    H6G11069   3.016   5.503   5.814 -2.1691 -0.4195  1.3612
  108OSM    C7F11070   3.190   5.463   5.939  0.1705 -0.1565 -0.5360
  108OSM    H7F11071   3.210   5.422   6.040 -3.1951  2.4006  1.3852
  108OSM    H7G11072   3.233   5.565   5.931  1.6416 -0.6484  0.6622
  108OSM    C8F11073   3.268   5.381   5.833  0.6766 -0.3397  0.2457
  108OSM    H8F11074   3.237   5.276   5.855  0.8734 -0.6467 -0.8878
  108OSM    H8G11075   3.373   5.400   5.863  0.7317 -1.9893  1.2226
  108OSM    C9F11076   3.239   5.427   5.688  0.1939  0.0880  0.0101
  108OSM    H9F11077   3.133   5.427   5.659  0.2989 -0.3231 -0.3908
  108OSM   C10F11078   3.332   5.449   5.595 -0.4988 -0.0148  0.5054
  108OSM   H10F11079   3.309   5.494   5.497  0.5593  3.5314  1.7525
  108OSM   C11F11080   3.482   5.431   5.619 -0.3532 -0.2895 -0.0564
  108OSM   H11F11081   3.514   5.328   5.645 -1.2906 -0.2546  1.3520
  108OSM   H11G11082   3.517   5.492   5.705 -1.8862  0.5745  0.0059
  108OSM   C12F11083   3.561   5.486   5.502 -0.1148 -0.7189  0.0296
  108OSM   H12F11084   3.667   5.492   5.536 -0.6954  1.2811  1.7176
  108OSM   H12G11085   3.534   5.591   5.479 -0.2832 -0.8101 -0.1894
  108OSM   C13F11086   3.549   5.403   5.373  0.2164 -0.6476  0.2856
  108OSM   H13F11087   3.441   5.382   5.364  0.3147 -1.7543  1.4274
  108OSM   H13G11088   3.589   5.302   5.396 -0.0159 -0.6727  0.5887
  108OSM   C14F11089   3.604   5.470   5.245  0.7998 -0.2013  0.0310
  108OSM   H14F11090   3.715   5.464   5.243  1.0451  2.6072 -0.0650
  108OSM   H14G11091   3.587   5.580   5.249 -1.0016 -0.4677  0.8330
  108OSM   C15F11092   3.536   5.426   5.110  0.4647  0.2624 -0.8458
  108OSM   H15F11093   3.428   5.443   5.129  0.6664  0.6904 -0.0471
  108OSM   H15G11094   3.555   5.317   5.097 -0.8486  0.2227 -2.8473
  108OSM   C16F11095   3.594   5.504   4.993  0.1351 -0.0293 -0.0021
  108OSM   H16F11096   3.656   5.591   5.021  1.6011 -1.5153  1.6167
  108OSM   H16G11097   3.505   5.550   4.945 -1.3394 -1.4820  1.2188
  108OSM   C17F11098   3.678   5.418   4.894  0.4607 -0.0482  0.1496
  108OSM   H17F11099   3.681   5.475   4.799  1.8173 -0.2795  0.0433
  108OSM   H17G11100   3.628   5.321   4.872  1.3775 -0.1748 -1.5448
  108OSM   C18F11101   3.825   5.385   4.927  0.0712  0.1120 -0.1997
  108OSM   H18F11102   3.822   5.306   5.005  0.5795 -1.0310 -1.3051
  108OSM   H18G11103   3.881   5.468   4.975 -0.2854  0.2924 -0.0924
  108OSM   H18H11104   3.875   5.344   4.837 -0.9376  1.6500 -1.5159
  109OSM      N11105   5.699   0.634   6.467  0.1110 -0.0158  0.3113
  109OSM    C1511106   5.598   0.529   6.443 -0.2971 -0.1546  0.5185
  109OSM   H15A11107   5.657   0.446   6.404  1.4611  1.6293 -0.8638
  109OSM   H15B11108   5.526   0.557   6.368 -0.0082 -2.9322 -0.9421
  109OSM   H15C11109   5.540   0.504   6.530  0.3485  1.5545  1.4854
  109OSM    C1411110   5.795   0.592   6.571  0.4142 -0.0608  0.0292
  109OSM   H14A11111   5.871   0.663   6.598  0.8959 -0.8451  0.7811
  109OSM   H14B11112   5.860   0.512   6.538 -1.0383 -0.6754 -1.4946
  109OSM   H14C11113   5.743   0.558   6.659 -0.6080  0.3264 -0.4066
  109OSM    C1311114   5.768   0.638   6.338 -0.0772 -0.3271 -0.4569
  109OSM   H13A11115   5.847   0.711   6.330  0.7028 -1.1773 -0.7729
  109OSM   H13B11116   5.692   0.661   6.265  0.0380  0.2857 -0.3908
  109OSM   H13C11117   5.805   0.544   6.299  0.5462 -0.1033 -0.4163
  109OSM    C1211118   5.621   0.762   6.505 -0.7969 -0.2211  0.4781
  109OSM   H12A11119   5.558   0.733   6.587 -0.0217  3.1057  2.4299
  109OSM   H12B11120   5.553   0.786   6.424 -0.4055  1.1380  0.5294
  109OSM    C1111121   5.704   0.886   6.541 -0.0737  0.0791 -0.1423
  109OSM   H11A11122   5.775   0.857   6.622 -1.2286 -1.4045  0.3838
  109OSM   H11B11123   5.641   0.975   6.562  1.2347  0.9964  0.0055
  109OSM      P11124   5.900   1.016   6.418  0.1466  0.4122  0.4046
  109OSM    O1311125   5.866   1.159   6.428  0.3464 -0.2226  0.0754
  109OSM    O1411126   6.011   0.965   6.503 -0.0075 -0.4989 -0.0469
  109OSM    O1111127   5.953   0.980   6.271 -0.2168  0.3989 -0.2239
  109OSM    O1211128   5.778   0.922   6.429 -0.0998 -0.7008 -0.0425
  109OSM    C1S11129   5.863   0.996   6.168 -0.1649 -0.0255 -0.1151
  109OSM    H1S11130   5.820   1.098   6.160 -0.0866  0.0546  0.4992
  109OSM    H1T11131   5.780   0.921   6.175  0.1204 -0.3097  0.2563
  109OSM     NF11132   5.828   0.994   5.927 -0.0676  0.2756  0.3510
  109OSM    HNF11133   5.760   0.924   5.907 -1.5742  1.2936  1.6146
  109OSM    C2S11134   5.922   0.961   6.032 -0.5902 -0.0654 -0.1462
  109OSM    H2S11135   6.015   1.021   6.020 -0.7323  0.1330 -0.2575
  109OSM    C3S11136   5.948   0.806   6.027 -0.1858  0.0685  0.1157
  109OSM    H3S11137   5.844   0.772   6.045  0.9139 -1.6611  4.5696
  109OSM     O311138   6.028   0.757   6.130 -0.1292 -0.2988 -0.2461
  109OSM    HO311139   6.000   0.816   6.201 -0.9550  0.5069 -1.2185
  109OSM    C4S11140   5.998   0.774   5.886  0.1409  0.1763  0.6235
  109OSM    H4S11141   5.916   0.771   5.813 -0.8647 -1.8094  1.7513
  109OSM    C5S11142   6.122   0.747   5.851 -0.2885 -0.0387 -0.1492
  109OSM    H5S11143   6.204   0.770   5.920 -0.7488  1.9350 -0.1979
  109OSM    C6S11144   6.167   0.715   5.715 -0.6671  0.0582 -0.4429
  109OSM    H6S11145   6.234   0.626   5.719  0.9317  1.2629  1.2188
  109OSM    H6T11146   6.220   0.810   5.692  1.1858 -0.7520  0.2583
  109OSM    C7S11147   6.073   0.721   5.595  0.0481  0.1037  0.1883
  109OSM    H7S11148   6.025   0.820   5.580  1.6600  0.4492 -4.0567
  109OSM    H7T11149   5.993   0.647   5.618 -2.2689  1.3358 -3.0492
  109OSM    C8S11150   6.132   0.695   5.456 -0.1556  0.1386  0.0869
  109OSM    H8S11151   6.183   0.597   5.470  0.8319  0.4340 -1.2837
  109OSM    H8T11152   6.209   0.767   5.420 -0.8551  2.0012  2.0974
  109OSM    C9S11153   6.030   0.685   5.340  0.0485 -0.0354  0.3247
  109OSM    H9S11154   5.970   0.778   5.327 -1.0605 -1.0755 -3.2596
  109OSM    H9T11155   5.959   0.606   5.374  0.6831 -1.3654 -1.2626
  109OSM   C10S11156   6.092   0.632   5.217  0.5070 -0.0041 -0.2262
  109OSM   H10S11157   6.147   0.541   5.249 -0.3235 -0.3549  0.2349
  109OSM   H10T11158   6.167   0.708   5.188  1.2038 -0.9199 -0.8660
  109OSM   C11S11159   5.987   0.581   5.114 -0.5243  1.1278 -0.3876
  109OSM   H11S11160   5.920   0.667   5.096 -0.8501  0.8292 -0.6253
  109OSM   H11T11161   5.922   0.500   5.155  0.8216  0.1861 -0.0360
  109OSM   C12S11162   6.043   0.512   4.991  0.5638 -0.1984 -1.1171
  109OSM   H12S11163   5.979   0.427   4.959  2.6577 -2.1156 -0.4610
  109OSM   H12T11164   6.140   0.466   5.019  1.1536  0.8545 -1.3629
  109OSM   C13S11165   6.061   0.615   4.873 -0.2432  0.4103 -0.5272
  109OSM   H13S11166   6.128   0.692   4.916  1.9668  0.2473 -3.3517
  109OSM   H13T11167   5.970   0.674   4.847  0.7702  2.2285 -0.0912
  109OSM   C14S11168   6.117   0.557   4.738 -0.6148 -0.8723  0.3281
  109OSM   H14S11169   6.206   0.495   4.763  1.0441  1.6296  0.8974
  109OSM   H14T11170   6.164   0.635   4.674 -0.0805 -2.3711 -1.1888
  109OSM   C15S11171   6.021   0.469   4.659  0.2638 -0.0654  0.0044
  109OSM   H15S11172   5.939   0.536   4.623 -0.1466  1.5963  3.5867
  109OSM   H15T11173   5.966   0.412   4.737 -1.7548  0.0925 -1.2026
  109OSM   C16S11174   6.079   0.375   4.553 -0.1130  0.1011 -0.3893
  109OSM   H16S11175   6.010   0.309   4.495 -0.5915  0.9274 -0.7788
  109OSM   H16T11176   6.138   0.302   4.612 -0.5607  1.0952  1.3571
  109OSM   C17S11177   6.172   0.440   4.446 -0.1720  0.6695 -0.0714
  109OSM   H17S11178   6.243   0.504   4.502 -0.5384  1.4611 -0.5057
  109OSM   H17T11179   6.113   0.508   4.381 -0.7223  0.6484  0.4015
  109OSM   C18S11180   6.261   0.349   4.358  0.3392  0.0175 -0.0023
  109OSM   H18S11181   6.322   0.397   4.278 -1.0540 -0.1646 -1.2211
  109OSM   H18T11182   6.200   0.276   4.300  0.2545 -1.1745  1.5490
  109OSM   H18U11183   6.330   0.299   4.429  2.0582  0.6326 -1.1642
  109OSM    C1F11184   5.827   1.126   5.880  0.6800  0.1107  0.1556
  109OSM     OF11185   5.895   1.205   5.941  0.3915  0.2893 -0.0900
  109OSM    C2F11186   5.730   1.162   5.770  0.2410  0.2709 -0.2937
  109OSM    H2F11187   5.715   1.272   5.766  1.4300  0.5011  0.9266
  109OSM    H2G11188   5.639   1.105   5.797  0.5790 -0.1225  0.0180
  109OSM    C3F11189   5.779   1.130   5.625  0.1513 -0.3982  0.4330
  109OSM    H3F11190   5.777   1.019   5.622 -0.1343 -0.3742 -0.2749
  109OSM    H3G11191   5.885   1.163   5.615  0.1225 -0.9056 -2.4451
  109OSM    C4F11192   5.700   1.204   5.516 -0.0999 -0.2996  0.0214
  109OSM    H4F11193   5.711   1.308   5.554  3.5352 -0.7558  0.6083
  109OSM    H4G11194   5.595   1.168   5.515  0.0898 -0.8666 -0.0549
  109OSM    C5F11195   5.764   1.171   5.387  0.0212 -0.2790  0.0975
  109OSM    H5F11196   5.816   1.073   5.377 -0.2270 -0.3855 -0.1724
  109OSM    H5G11197   5.847   1.245   5.389  1.4979 -1.8781 -0.1412
  109OSM    C6F11198   5.685   1.205   5.264 -0.0385  0.1391 -0.4717
  109OSM    H6F11199   5.652   1.310   5.281  1.2072  0.4785 -0.0657
  109OSM    H6G11200   5.598   1.138   5.247 -1.2937  1.3139  0.9957
  109OSM    C7F11201   5.771   1.204   5.133  0.4211 -0.6064 -0.1951
  109OSM    H7F11202   5.869   1.162   5.164 -0.6398 -1.6443  1.9566
  109OSM    H7G11203   5.785   1.303   5.084  0.4272 -0.3588  0.2993
  109OSM    C8F11204   5.719   1.108   5.023 -0.3313  0.0259  0.2631
  109OSM    H8F11205   5.747   1.002   5.043 -1.9508 -0.1453  1.9449
  109OSM    H8G11206   5.782   1.144   4.939  0.0410  2.3063  1.4384
  109OSM    C9F11207   5.577   1.127   4.984 -0.1846 -0.3546 -0.3714
  109OSM    H9F11208   5.501   1.089   5.054  0.7142 -0.9942  0.2898
  109OSM   C10F11209   5.530   1.187   4.869  0.8007  0.6094 -0.6293
  109OSM   H10F11210   5.421   1.203   4.867  0.4829 -0.5139  2.2962
  109OSM   C11F11211   5.610   1.255   4.756  0.1564 -0.2129  0.1446
  109OSM   H11F11212   5.720   1.256   4.770  0.0530  1.4655  0.9945
  109OSM   H11G11213   5.579   1.361   4.763 -2.6188 -1.0116  1.3402
  109OSM   C12F11214   5.550   1.204   4.620  0.7029  0.5416  0.3496
  109OSM   H12F11215   5.441   1.227   4.619  0.4872 -0.3411  1.3593
  109OSM   H12G11216   5.552   1.093   4.623  1.2894  0.5602  0.6222
  109OSM   C13F11217   5.607   1.264   4.491 -0.6391 -0.3212  0.4430
  109OSM   H13F11218   5.716   1.258   4.509 -0.4501 -0.1171 -0.5885
  109OSM   H13G11219   5.581   1.372   4.502 -0.0415 -0.1501  0.2061
  109OSM   C14F11220   5.576   1.195   4.353  0.2766  0.1609 -0.5960
  109OSM   H14F11221   5.575   1.088   4.381  0.7021  0.4679  0.6598
  109OSM   H14G11222   5.655   1.216   4.278  0.2537  2.4175 -0.0849
  109OSM   C15F11223   5.440   1.229   4.296  0.1359  0.4458 -0.5423
  109OSM   H15F11224   5.432   1.334   4.261 -1.4385 -0.4858 -3.3419
  109OSM   H15G11225   5.366   1.218   4.378 -0.0802 -2.1234 -1.0131
  109OSM   C16F11226   5.387   1.120   4.199  0.5684 -0.7254  0.0022
  109OSM   H16F11227   5.365   1.024   4.250  2.5686 -0.1825  2.0534
  109OSM   H16G11228   5.472   1.093   4.133  2.0991 -0.7312  1.8839
  109OSM   C17F11229   5.281   1.165   4.100  0.6495  0.0533  0.2396
  109OSM   H17F11230   5.314   1.256   4.046 -1.5981  0.0883 -1.1978
  109OSM   H17G11231   5.189   1.198   4.153  2.1918  0.5209  2.8151
  109OSM   C18F11232   5.255   1.061   3.994  0.5169 -0.2960  0.1119
  109OSM   H18F11233   5.348   1.027   3.944  1.6252  3.0039 -0.3580
  109OSM   H18G11234   5.192   1.110   3.918  0.6179 -0.6129 -0.1764
  109OSM   H18H11235   5.191   0.983   4.038 -0.6203  0.5373 -0.0162
  110OSM      N11236   1.957   3.911   7.059 -0.6190  0.0067  0.1104
  110OSM    C1511237   2.062   3.978   6.970  0.3138 -0.0582 -0.0079
  110OSM   H15A11238   2.112   3.901   6.913  1.0969 -0.5511  1.2940
  110OSM   H15B11239   2.135   4.026   7.033 -1.1609  1.6591  0.4546
  110OSM   H15C11240   2.029   4.055   6.902  1.1797  0.6292  0.3238
  110OSM    C1411241   2.000   3.775   7.096  0.7040  0.4787  0.4264
  110OSM   H14A11242   1.922   3.714   7.139  1.9359 -0.0946  1.9622
  110OSM   H14B11243   2.075   3.777   7.173  0.4005  3.1811  0.7685
  110OSM   H14C11244   2.031   3.722   7.008  1.5641  0.6741  0.6037
  110OSM    C1311245   1.936   3.994   7.184  0.6710  0.0647  0.2017
  110OSM   H13A11246   1.873   3.942   7.255  0.9825  0.0874  0.4982
  110OSM   H13B11247   1.886   4.089   7.170 -0.6955 -0.5862  0.5054
  110OSM   H13C11248   2.028   4.000   7.240  0.4529 -2.4147  0.9537
  110OSM    C1211249   1.820   3.926   6.991  0.2272 -0.1567 -0.1480
  110OSM   H12A11250   1.806   4.031   6.971  0.4752  0.1695  1.2728
  110OSM   H12B11251   1.748   3.899   7.067  0.8788 -0.8342  0.2446
  110OSM    C1111252   1.781   3.845   6.865  0.3057  0.6140 -0.2506
  110OSM   H11A11253   1.682   3.880   6.828  0.1392  0.8420  0.4112
  110OSM   H11B11254   1.775   3.743   6.906 -0.4570  1.0117  0.6609
  110OSM      P11255   1.867   3.967   6.652 -0.0231 -0.1873 -0.0714
  110OSM    O1311256   1.871   4.097   6.720 -0.3088 -0.6847 -0.2632
  110OSM    O1411257   1.978   3.938   6.554  0.4837  0.0614 -0.1758
  110OSM    O1111258   1.728   3.944   6.583 -0.1462 -0.1105  0.2646
  110OSM    O1211259   1.878   3.859   6.762 -0.0888  0.3323  0.2793
  110OSM    C1S11260   1.675   4.045   6.500 -0.2561  0.4372 -0.2062
  110OSM    H1S11261   1.742   4.133   6.496 -0.3954  0.7779  2.8600
  110OSM    H1T11262   1.579   4.082   6.540 -0.9176  1.1067 -2.2791
  110OSM     NF11263   1.631   4.086   6.259 -0.3492  0.4106  0.1303
  110OSM    HNF11264   1.535   4.088   6.230 -0.6262  0.0035  0.9632
  110OSM    C2S11265   1.662   3.981   6.354 -0.7648 -0.6160 -0.4562
  110OSM    H2S11266   1.767   3.955   6.328 -0.7158  2.2256 -3.8987
  110OSM    C3S11267   1.579   3.851   6.361  0.3329  0.0693 -0.5041
  110OSM    H3S11268   1.477   3.876   6.397  0.9662  1.0007  0.7035
  110OSM     O311269   1.631   3.756   6.458 -0.4874 -0.3547 -0.1083
  110OSM    HO311270   1.688   3.810   6.513  0.1894 -1.8184  0.6758
  110OSM    C4S11271   1.578   3.783   6.229 -0.3394 -0.7043  0.2363
  110OSM    H4S11272   1.668   3.728   6.198 -0.5491 -2.0498  1.8950
  110OSM    C5S11273   1.465   3.769   6.152  0.1206  0.1982 -1.0616
  110OSM    H5S11274   1.368   3.811   6.185 -0.1366 -1.8763  1.0587
  110OSM    C6S11275   1.479   3.702   6.016  0.3905 -0.0541 -0.0860
  110OSM    H6S11276   1.397   3.630   5.999 -0.8427  1.4417 -0.7842
  110OSM    H6T11277   1.577   3.650   6.007  0.4854 -0.3633  2.1197
  110OSM    C7S11278   1.472   3.817   5.919 -0.2743 -0.3727  0.6439
  110OSM    H7S11279   1.555   3.890   5.927 -1.5121  1.3401 -1.1476
  110OSM    H7T11280   1.384   3.882   5.939 -0.1886 -0.6295  1.9233
  110OSM    C8S11281   1.469   3.774   5.768  0.3919 -0.1136  0.6206
  110OSM    H8S11282   1.454   3.861   5.701  2.4273 -0.1322  0.0638
  110OSM    H8T11283   1.377   3.712   5.761 -0.7335  1.2384  2.6564
  110OSM    C9S11284   1.591   3.703   5.717 -0.2416 -0.1504  0.5555
  110OSM    H9S11285   1.624   3.618   5.781  0.3550 -1.2024 -1.1044
  110OSM    H9T11286   1.671   3.777   5.739  0.1581 -0.5769  0.5439
  110OSM   C10S11287   1.585   3.678   5.563  0.0673  0.8357 -0.6462
  110OSM   H10S11288   1.505   3.612   5.523 -0.5998  1.3096 -0.1080
  110OSM   H10T11289   1.675   3.615   5.545 -0.9909 -1.1907  0.8485
  110OSM   C11S11290   1.591   3.805   5.473 -0.0892 -0.4264  0.0648
  110OSM   H11S11291   1.667   3.866   5.526 -0.1362  0.6147 -1.0206
  110OSM   H11T11292   1.491   3.854   5.476 -0.0788 -0.4612  1.4311
  110OSM   C12S11293   1.644   3.767   5.333  1.1233 -0.7171  0.4276
  110OSM   H12S11294   1.583   3.684   5.293 -0.8076 -1.6017  4.7138
  110OSM   H12T11295   1.749   3.734   5.323  0.8972 -0.8605 -1.9808
  110OSM   C13S11296   1.625   3.884   5.238  0.9656 -0.7033  0.2085
  110OSM   H13S11297   1.681   3.969   5.285  1.6523 -1.8711  1.5656
  110OSM   H13T11298   1.521   3.916   5.216  1.3885  0.2869 -0.4377
  110OSM   C14S11299   1.694   3.869   5.103  0.0438 -0.1126 -0.0976
  110OSM   H14S11300   1.638   3.787   5.054 -0.4912 -0.5033  1.1349
  110OSM   H14T11301   1.798   3.831   5.114 -0.6102 -1.3875  2.5061
  110OSM   C15S11302   1.704   3.996   5.014  0.3716  0.4679 -0.2018
  110OSM   H15S11303   1.770   4.076   5.054 -0.1451  1.0966 -0.6085
  110OSM   H15T11304   1.605   4.035   4.983  0.2801  0.8687  0.5567
  110OSM   C16S11305   1.769   3.955   4.882  0.2472 -0.0717 -0.3011
  110OSM   H16S11306   1.708   3.875   4.835 -0.4912  0.4496 -0.2585
  110OSM   H16T11307   1.868   3.909   4.898  0.1842 -0.3871 -0.8038
  110OSM   C17S11308   1.783   4.066   4.783 -0.0603 -0.0189  0.1796
  110OSM   H17S11309   1.831   4.155   4.830 -2.5319  2.7051 -2.0333
  110OSM   H17T11310   1.682   4.105   4.757 -0.5568 -0.3388  1.5052
  110OSM   C18S11311   1.859   4.019   4.657 -0.5981 -0.2097 -0.3405
  110OSM   H18S11312   1.880   4.107   4.593 -1.0141 -0.6733 -1.1396
  110OSM   H18T11313   1.807   3.938   4.600  0.2917 -1.1086  0.0811
  110OSM   H18U11314   1.955   3.979   4.695 -1.8667 -1.4620  1.7468
  110OSM    C1F11315   1.716   4.178   6.222  0.0647  0.0381  0.1056
  110OSM     OF11316   1.823   4.198   6.273 -0.3869 -0.7009  0.0434
  110OSM    C2F11317   1.657   4.274   6.122  0.2179 -0.3194  0.0693
  110OSM    H2F11318   1.726   4.361   6.123 -0.3123  0.0988  0.8441
  110OSM    H2G11319   1.554   4.309   6.146  0.8786  1.6888  0.1022
  110OSM    C3F11320   1.638   4.200   5.986 -0.5835 -0.1267 -0.1458
  110OSM    H3F11321   1.619   4.275   5.906 -0.5469 -0.9030 -0.9025
  110OSM    H3G11322   1.550   4.133   5.984 -0.5961 -0.1217 -2.5073
  110OSM    C4F11323   1.761   4.126   5.931 -0.1570  0.2580  0.4924
  110OSM    H4F11324   1.797   4.037   5.988 -0.7821  0.6118  1.4590
  110OSM    H4G11325   1.847   4.196   5.941 -0.2298  0.2112  1.5098
  110OSM    C5F11326   1.765   4.086   5.781 -0.3173  0.2881 -0.4050
  110OSM    H5F11327   1.688   4.012   5.754  1.3534 -1.1722 -1.3570
  110OSM    H5G11328   1.858   4.028   5.765 -0.0651  0.6413 -0.2548
  110OSM    C6F11329   1.764   4.198   5.675  0.3713  0.5724 -0.4536
  110OSM    H6F11330   1.854   4.184   5.611  0.4015 -1.2297 -0.0657
  110OSM    H6G11331   1.779   4.296   5.725  0.2763  0.5823 -0.4450
  110OSM    C7F11332   1.629   4.203   5.598 -0.1279  0.8252  0.2526
  110OSM    H7F11333   1.556   4.254   5.665  0.1193 -1.3840  2.3414
  110OSM    H7G11334   1.579   4.105   5.583 -1.4187  1.5942 -0.7005
  110OSM    C8F11335   1.645   4.285   5.468  0.3189 -0.2290 -0.5609
  110OSM    H8F11336   1.730   4.242   5.411  2.2106  0.6015  1.4285
  110OSM    H8G11337   1.693   4.382   5.495  2.3237 -0.3047 -3.4515
  110OSM    C9F11338   1.504   4.288   5.416  0.0340 -0.1873 -1.2051
  110OSM    H9F11339   1.452   4.193   5.435  0.6128  0.0463  2.2668
  110OSM   C10F11340   1.431   4.394   5.369 -0.0230  0.2758 -0.3700
  110OSM   H10F11341   1.324   4.380   5.350  0.1841  1.0101 -2.2215
  110OSM   C11F11342   1.474   4.539   5.343 -1.1075 -0.5416  0.2376
  110OSM   H11F11343   1.454   4.564   5.236 -0.0474 -2.1158 -0.3607
  110OSM   H11G11344   1.583   4.557   5.360 -1.4470  2.5398 -0.2552
  110OSM   C12F11345   1.399   4.634   5.434 -0.0141  0.2508 -0.0498
  110OSM   H12F11346   1.290   4.634   5.412 -0.3263 -0.4558  1.3618
  110OSM   H12G11347   1.429   4.739   5.414  0.5367  0.1720  0.3262
  110OSM   C13F11348   1.446   4.621   5.580 -0.6332 -0.3144 -1.0155
  110OSM   H13F11349   1.449   4.514   5.611 -3.5582  0.0039  0.7728
  110OSM   H13G11350   1.371   4.645   5.658  0.8025  1.8217 -0.2248
  110OSM   C14F11351   1.585   4.693   5.610 -0.4306  1.1756 -0.2797
  110OSM   H14F11352   1.575   4.801   5.631  1.6588  1.3473  0.1032
  110OSM   H14G11353   1.655   4.680   5.524 -0.5662 -2.7062  0.0124
  110OSM   C15F11354   1.644   4.625   5.732  0.0732  0.3913 -0.1091
  110OSM   H15F11355   1.682   4.527   5.698 -0.7454  0.0372 -0.0354
  110OSM   H15G11356   1.570   4.599   5.810  0.2741 -1.5307 -0.5209
  110OSM   C16F11357   1.761   4.706   5.781 -0.1732 -0.1465  0.2168
  110OSM   H16F11358   1.722   4.796   5.835 -0.8910  0.3487 -1.1060
  110OSM   H16G11359   1.826   4.750   5.702 -1.5043  0.6648 -0.4633
  110OSM   C17F11360   1.842   4.622   5.878 -0.4728  0.6204  0.3185
  110OSM   H17F11361   1.872   4.525   5.833 -2.6021  1.0578 -2.2824
  110OSM   H17G11362   1.779   4.591   5.964  1.4260  0.3116  1.6632
  110OSM   C18F11363   1.958   4.691   5.935 -0.3365  0.4950 -0.2916
  110OSM   H18F11364   2.013   4.627   6.008 -0.9988 -0.7700 -0.8612
  110OSM   H18G11365   1.951   4.785   5.994  1.1429  1.2506 -1.2580
  110OSM   H18H11366   2.031   4.720   5.856 -0.3396 -0.7336 -0.7679
  111OSM      N11367   3.781   3.487   6.432 -0.2085 -0.0809  0.4213
  111OSM    C1511368   3.924   3.522   6.464 -0.0699 -0.2895 -0.0265
  111OSM   H15A11369   3.970   3.594   6.399  0.6486 -2.0234 -1.5402
  111OSM   H15B11370   3.988   3.435   6.457  0.3329  0.1149 -3.2917
  111OSM   H15C11371   3.943   3.552   6.566 -1.3673  3.4692 -0.7434
  111OSM    C1411372   3.737   3.394   6.539  0.2134 -0.7355  0.4321
  111OSM   H14A11373   3.787   3.299   6.531 -0.7965 -1.2848  0.4999
  111OSM   H14B11374   3.630   3.378   6.537 -0.1157  1.2972 -1.6273
  111OSM   H14C11375   3.756   3.430   6.639 -1.4555  1.8823 -0.0949
  111OSM    C1311376   3.698   3.610   6.451 -0.2269  0.1651  0.3154
  111OSM   H13A11377   3.672   3.627   6.555  1.9192 -3.2849  1.5849
  111OSM   H13B11378   3.604   3.605   6.399 -0.7723 -0.3162  1.3254
  111OSM   H13C11379   3.740   3.703   6.415  1.7850 -0.1544  1.6899
  111OSM    C1211380   3.758   3.431   6.302  0.7678 -0.3449  0.4282
  111OSM   H12A11381   3.768   3.506   6.225  1.9908 -1.6894 -0.8097
  111OSM   H12B11382   3.654   3.401   6.297  0.8331 -0.3919 -2.9730
  111OSM    C1111383   3.836   3.302   6.257  0.4774  0.1504 -0.6611
  111OSM   H11A11384   3.944   3.325   6.266  0.0864  1.6473  0.6089
  111OSM   H11B11385   3.813   3.276   6.151 -2.2484  1.0081 -0.3495
  111OSM      P11386   3.689   3.093   6.329 -0.0829 -0.2196  0.1068
  111OSM    O1311387   3.717   2.986   6.429  0.3962  0.3199  0.3859
  111OSM    O1411388   3.566   3.167   6.338  0.1657  0.1782  0.1701
  111OSM    O1111389   3.712   3.036   6.190 -0.7044  0.2182  0.0812
  111OSM    O1211390   3.809   3.188   6.339  0.0615 -0.3844 -0.0463
  111OSM    C1S11391   3.622   3.078   6.083  0.9641 -0.2487  0.1463
  111OSM    H1S11392   3.619   3.189   6.076  0.2422 -0.2737  0.0196
  111OSM    H1T11393   3.523   3.028   6.087  1.5205 -1.8913 -3.0195
  111OSM     NF11394   3.598   3.109   5.848  0.1874  0.4248 -0.0556
  111OSM    HNF11395   3.545   3.059   5.780 -0.7104  1.8744 -0.4565
  111OSM    C2S11396   3.680   3.039   5.941  0.2317  0.2046  0.4568
  111OSM    H2S11397   3.782   3.080   5.931 -0.2415  1.3301  0.0213
  111OSM    C3S11398   3.696   2.883   5.918  0.1455  0.0755 -0.4222
  111OSM    H3S11399   3.596   2.837   5.930  0.8789 -2.0294 -1.9090
  111OSM     O311400   3.774   2.819   6.017 -0.3276 -0.9227  0.0165
  111OSM    HO311401   3.769   2.884   6.088  2.0963  1.0658 -1.4651
  111OSM    C4S11402   3.745   2.850   5.777  0.3558 -0.7634 -0.1785
  111OSM    H4S11403   3.675   2.791   5.716 -0.1389  0.3811 -0.7469
  111OSM    C5S11404   3.863   2.873   5.722  0.2142  0.1139 -0.0699
  111OSM    H5S11405   3.951   2.921   5.768  0.2459  1.0059 -1.0193
  111OSM    C6S11406   3.906   2.828   5.586 -0.3683  0.0302  0.1899
  111OSM    H6S11407   4.003   2.775   5.577 -1.4306 -1.9311 -0.2795
  111OSM    H6T11408   3.910   2.921   5.524  2.9309  1.1317  1.8472
  111OSM    C7S11409   3.809   2.730   5.514  0.8794 -0.3433 -0.1882
  111OSM    H7S11410   3.709   2.777   5.507  2.0480  2.1225 -2.3359
  111OSM    H7T11411   3.790   2.640   5.577 -1.1949 -0.6970 -1.2519
  111OSM    C8S11412   3.856   2.696   5.375  0.5736 -0.2725 -0.9024
  111OSM    H8S11413   3.944   2.629   5.379 -0.0865 -1.0927  0.7116
  111OSM    H8T11414   3.885   2.787   5.318 -0.2470  1.2531  1.0027
  111OSM    C9S11415   3.733   2.632   5.307  0.0298  0.8718  0.6821
  111OSM    H9S11416   3.644   2.698   5.302 -0.5791 -0.0332 -0.7846
  111OSM    H9T11417   3.697   2.538   5.353  1.0286 -0.6727 -1.5251
  111OSM   C10S11418   3.766   2.585   5.164 -0.0151  0.0716 -0.0077
  111OSM   H10S11419   3.841   2.503   5.150  0.7914  0.6776  0.6659
  111OSM   H10T11420   3.817   2.671   5.116 -0.7063 -1.1084 -3.0404
  111OSM   C11S11421   3.648   2.550   5.078  0.3338  0.0069 -0.4342
  111OSM   H11S11422   3.576   2.634   5.078  0.3824  0.0564 -1.1147
  111OSM   H11T11423   3.596   2.463   5.123  2.4921 -0.9072  0.4711
  111OSM   C12S11424   3.687   2.506   4.939 -0.1594 -0.4070 -0.1739
  111OSM   H12S11425   3.731   2.404   4.939 -0.5327 -0.5688 -0.2853
  111OSM   H12T11426   3.762   2.582   4.906 -0.2940  0.9112  2.2678
  111OSM   C13S11427   3.570   2.487   4.840  0.7845 -0.5206  0.1453
  111OSM   H13S11428   3.524   2.584   4.811  1.7355 -0.4490 -1.2481
  111OSM   H13T11429   3.489   2.429   4.888  0.3134  1.0167  1.2774
  111OSM   C14S11430   3.606   2.413   4.709  0.1787 -0.1836  0.0277
  111OSM   H14S11431   3.663   2.326   4.749  1.5739  0.4074 -0.6092
  111OSM   H14T11432   3.670   2.483   4.651  0.0911  1.9856  2.3732
  111OSM   C15S11433   3.474   2.393   4.631 -0.0314  0.2483  0.2572
  111OSM   H15S11434   3.430   2.495   4.621  1.2709  0.8724  0.7854
  111OSM   H15T11435   3.414   2.330   4.700  0.2501 -0.8370 -0.4660
  111OSM   C16S11436   3.509   2.331   4.499  0.1010  0.1734 -0.8472
  111OSM   H16S11437   3.572   2.242   4.520  2.0497  1.6753 -0.0084
  111OSM   H16T11438   3.572   2.407   4.448 -0.3165 -0.0941 -1.7853
  111OSM   C17S11439   3.396   2.287   4.414  0.9401 -0.2819  0.0224
  111OSM   H17S11440   3.315   2.234   4.468 -0.8849  1.6929 -0.6438
  111OSM   H17T11441   3.434   2.207   4.347  2.7896 -0.5535  1.3301
  111OSM   C18S11442   3.322   2.402   4.341  0.4738 -0.3305  0.5745
  111OSM   H18S11443   3.265   2.356   4.257  1.3836  0.7161 -0.6468
  111OSM   H18T11444   3.395   2.469   4.292  0.0752 -1.1908 -1.3157
  111OSM   H18U11445   3.257   2.458   4.412  0.3753 -1.0488  1.0665
  111OSM    C1F11446   3.577   3.240   5.834 -0.8029  0.0933  0.4050
  111OSM     OF11447   3.662   3.325   5.862  0.1490 -0.0402  0.6340
  111OSM    C2F11448   3.452   3.282   5.767  0.1627  0.2464 -0.0363
  111OSM    H2F11449   3.372   3.243   5.835 -1.5323  0.1664 -1.9915
  111OSM    H2G11450   3.440   3.233   5.668  3.4363 -1.1032  0.1314
  111OSM    C3F11451   3.424   3.434   5.759  0.4709  0.6411 -0.9109
  111OSM    H3F11452   3.517   3.480   5.719 -0.0767  2.0769 -0.5617
  111OSM    H3G11453   3.412   3.468   5.864 -0.7545 -1.2517 -0.3876
  111OSM    C4F11454   3.291   3.464   5.686 -0.1344 -0.4076 -0.6884
  111OSM    H4F11455   3.274   3.573   5.704  3.2459  0.3389 -1.4523
  111OSM    H4G11456   3.213   3.397   5.730 -0.9189  0.1645 -1.1698
  111OSM    C5F11457   3.296   3.450   5.533 -0.3234  0.0545  0.2685
  111OSM    H5F11458   3.326   3.346   5.508  1.2337  0.0900  1.7650
  111OSM    H5G11459   3.371   3.523   5.494 -0.9353 -0.3183 -1.7194
  111OSM    C6F11460   3.159   3.488   5.475  0.2891  0.3253 -0.3442
  111OSM    H6F11461   3.109   3.559   5.543 -1.0504 -0.8182 -0.0786
  111OSM    H6G11462   3.089   3.402   5.478 -0.7460  1.1672  0.1949
  111OSM    C7F11463   3.174   3.554   5.338 -0.4263 -0.5404 -0.2240
  111OSM    H7F11464   3.215   3.656   5.353  0.6652 -1.2101  1.6127
  111OSM    H7G11465   3.074   3.561   5.288 -0.6735 -2.4994 -0.0632
  111OSM    C8F11466   3.259   3.475   5.242 -0.3469  0.2413  0.0809
  111OSM    H8F11467   3.237   3.366   5.253  1.6754 -0.2365 -0.1907
  111OSM    H8G11468   3.366   3.481   5.270 -0.0638 -0.6695 -0.7511
  111OSM    C9F11469   3.242   3.527   5.102 -0.0524 -0.5441 -0.1375
  111OSM    H9F11470   3.318   3.600   5.072  1.0271 -1.5759  0.0194
  111OSM   C10F11471   3.151   3.483   5.009 -0.9720 -0.4537 -0.1723
  111OSM   H10F11472   3.150   3.545   4.918  0.9120 -1.2857 -0.8142
  111OSM   C11F11473   3.041   3.393   5.018  0.4916  0.0664 -0.0401
  111OSM   H11F11474   3.020   3.367   5.124  0.0419  0.6296  0.0116
  111OSM   H11G11475   3.063   3.297   4.967 -0.2218  0.2337 -0.6767
  111OSM   C12F11476   2.921   3.456   4.950  0.0189  0.0531  0.9517
  111OSM   H12F11477   2.948   3.505   4.855 -2.5559 -2.6518 -1.3733
  111OSM   H12G11478   2.890   3.534   5.023 -0.2527 -0.4477  1.3828
  111OSM   C13F11479   2.798   3.361   4.933 -0.6196 -0.5461  0.3469
  111OSM   H13F11480   2.700   3.412   4.922 -0.6350 -0.9656 -1.7750
  111OSM   H13G11481   2.781   3.290   5.017 -1.9963 -1.4166 -0.6259
  111OSM   C14F11482   2.814   3.271   4.803 -0.5936 -0.3498 -1.0573
  111OSM   H14F11483   2.720   3.214   4.789 -2.2553  1.6990  0.8500
  111OSM   H14G11484   2.908   3.212   4.811 -0.2591  0.2889  0.0029
  111OSM   C15F11485   2.825   3.332   4.661 -0.4935 -0.7011 -0.1853
  111OSM   H15F11486   2.927   3.373   4.645 -1.2305  0.7200 -1.4849
  111OSM   H15G11487   2.761   3.420   4.638 -0.2330 -0.5004 -0.1511
  111OSM   C16F11488   2.806   3.235   4.540  0.1999  0.5374  0.4202
  111OSM   H16F11489   2.825   3.293   4.447 -1.8046  1.6588  0.6508
  111OSM   H16G11490   2.699   3.204   4.535  0.6159 -0.8949 -0.4416
  111OSM   C17F11491   2.896   3.116   4.549 -0.0160  0.0220  0.0690
  111OSM   H17F11492   2.870   3.068   4.645 -1.1049  0.7099  0.1385
  111OSM   H17G11493   3.005   3.140   4.548 -0.0319  0.2655  1.8293
  111OSM   C18F11494   2.860   3.031   4.431  0.1204  0.3327 -0.3114
  111OSM   H18F11495   2.931   2.948   4.412  0.3396  0.4234  0.0987
  111OSM   H18G11496   2.863   3.086   4.334  0.1545 -2.2530 -1.8663
  111OSM   H18H11497   2.764   2.979   4.450  1.2002 -1.8688 -0.4966
  112OSM      N11498   1.572   6.815   6.482 -0.3362  0.2746 -0.3199
  112OSM    C1511499   1.605   6.761   6.343  0.2885  0.1250  0.0527
  112OSM   H15A11500   1.632   6.834   6.268 -0.3597 -1.0955 -1.4353
  112OSM   H15B11501   1.523   6.710   6.295  1.7529 -2.2340 -0.1593
  112OSM   H15C11502   1.684   6.687   6.343  0.8525  0.6708  1.9594
  112OSM    C1411503   1.542   6.696   6.571 -0.4165 -0.2706 -0.4730
  112OSM   H14A11504   1.629   6.632   6.565  1.5913  2.1831  0.5078
  112OSM   H14B11505   1.448   6.646   6.554 -0.7531 -0.3436  1.4077
  112OSM   H14C11506   1.539   6.722   6.676 -1.5485  1.0763 -0.8101
  112OSM    C1311507   1.693   6.889   6.534  0.0764  0.8998  0.1459
  112OSM   H13A11508   1.767   6.820   6.572 -1.4735 -0.0511  1.6015
  112OSM   H13B11509   1.675   6.952   6.620  0.4180 -0.6413  1.3825
  112OSM   H13C11510   1.728   6.957   6.457  1.9840  2.4827  2.2480
  112OSM    C1211511   1.451   6.909   6.481  0.7904  0.1339 -0.0176
  112OSM   H12A11512   1.422   6.933   6.582  0.7691 -1.1684  0.3113
  112OSM   H12B11513   1.361   6.863   6.441  1.6335 -0.4350 -1.3612
  112OSM    C1111514   1.453   7.048   6.405 -0.3536  0.3957 -0.0217
  112OSM   H11A11515   1.349   7.086   6.392 -0.5823 -0.5628 -1.2007
  112OSM   H11B11516   1.488   7.033   6.300 -0.8966  0.1833 -0.1799
  112OSM      P11517   1.483   7.269   6.531 -0.1003 -0.3573 -0.1950
  112OSM    O1311518   1.365   7.219   6.611  0.1741  0.0626 -0.0354
  112OSM    O1411519   1.589   7.345   6.598  0.5703 -0.3701  0.5550
  112OSM    O1111520   1.430   7.344   6.403  0.1480  0.3288  0.5220
  112OSM    O1211521   1.544   7.138   6.465  0.0226  0.2952  0.1017
  112OSM    C1S11522   1.515   7.376   6.299 -0.2130 -0.1322  0.7199
  112OSM    H1S11523   1.618   7.340   6.320 -0.0623 -1.1851 -1.5879
  112OSM    H1T11524   1.529   7.484   6.323  0.4084 -1.0510  5.4631
  112OSM     NF11525   1.557   7.370   6.068  0.3137 -0.3015 -0.2858
  112OSM    HNF11526   1.573   7.465   6.044  0.5459  0.4202  2.3586
  112OSM    C2S11527   1.453   7.348   6.165  0.2046 -0.1604 -0.3012
  112OSM    H2S11528   1.433   7.239   6.165  0.1920 -0.2390  2.5864
  112OSM    C3S11529   1.316   7.432   6.137 -1.2134 -0.0412 -0.1662
  112OSM    H3S11530   1.341   7.539   6.116  0.0858 -0.0848  1.0279
  112OSM     O311531   1.238   7.440   6.252  0.2482 -0.2637 -0.2515
  112OSM    HO311532   1.301   7.427   6.323  3.5238 -2.2778 -3.1927
  112OSM    C4S11533   1.242   7.362   6.032  0.1128  0.3453 -0.1409
  112OSM    H4S11534   1.169   7.282   6.053 -0.3124  0.3469 -1.5131
  112OSM    C5S11535   1.262   7.392   5.901 -0.3450  0.3768  0.0532
  112OSM    H5S11536   1.331   7.476   5.885  1.5336 -0.8999  1.0878
  112OSM    C6S11537   1.202   7.325   5.779  0.2917 -0.3067  0.3922
  112OSM    H6S11538   1.230   7.218   5.764 -1.0691 -0.7610  0.9457
  112OSM    H6T11539   1.248   7.372   5.690  0.5455 -2.0968 -0.4730
  112OSM    C7S11540   1.054   7.336   5.749 -0.2731  0.0600 -0.3426
  112OSM    H7S11541   1.041   7.441   5.716  0.6999 -0.1132 -1.3369
  112OSM    H7T11542   0.996   7.319   5.842  1.0734 -3.4729  0.0183
  112OSM    C8S11543   1.011   7.231   5.636  0.2190 -0.3840  0.1486
  112OSM    H8S11544   1.016   7.131   5.682  1.0044 -0.3482  0.1657
  112OSM    H8T11545   1.089   7.247   5.558  1.3808 -1.2239  1.0975
  112OSM    C9S11546   0.869   7.270   5.588 -0.3813  0.1689 -0.2341
  112OSM    H9S11547   0.878   7.378   5.564 -2.2561  0.3288 -0.3560
  112OSM    H9T11548   0.804   7.260   5.677  1.0594 -1.9354  0.6541
  112OSM   C10S11549   0.824   7.196   5.464 -0.0668  0.5834 -0.4017
  112OSM   H10S11550   0.714   7.201   5.445 -0.3340 -2.2473  0.0140
  112OSM   H10T11551   0.843   7.088   5.480  1.5097  1.1550  2.1491
  112OSM   C11S11552   0.899   7.251   5.341  0.3383 -0.1453  0.4083
  112OSM   H11S11553   1.005   7.221   5.337  1.2023  2.7830 -1.3917
  112OSM   H11T11554   0.893   7.361   5.326 -1.9390 -0.0802  1.3332
  112OSM   C12S11555   0.829   7.188   5.218 -0.2011 -0.1542 -0.3076
  112OSM   H12S11556   0.718   7.194   5.224 -0.3729 -2.7917  0.4908
  112OSM   H12T11557   0.854   7.081   5.233 -0.2448  0.1845  2.6864
  112OSM   C13S11558   0.879   7.245   5.086  0.3692  0.0469 -0.5261
  112OSM   H13S11559   0.990   7.240   5.077  0.2793 -0.7703 -1.2234
  112OSM   H13T11560   0.844   7.351   5.079 -1.2239 -0.5421 -2.0190
  112OSM   C14S11561   0.828   7.169   4.964  0.5132 -0.7459 -0.7383
  112OSM   H14S11562   0.718   7.164   4.974  0.3248 -0.0012 -2.2060
  112OSM   H14T11563   0.855   7.061   4.967 -0.8926 -1.0948 -0.2464
  112OSM   C15S11564   0.900   7.221   4.838 -0.1362  0.2207 -0.2320
  112OSM   H15S11565   0.865   7.172   4.745 -0.3199  0.7017 -0.4205
  112OSM   H15T11566   1.006   7.194   4.854 -0.4893 -1.2571 -0.2639
  112OSM   C16S11567   0.879   7.374   4.822 -0.3242 -0.0564  0.1337
  112OSM   H16S11568   0.923   7.426   4.909  1.6693 -2.8280  0.9259
  112OSM   H16T11569   0.768   7.381   4.828 -0.2449  0.3021  1.3827
  112OSM   C17S11570   0.953   7.445   4.703 -0.0771 -0.4643  0.0220
  112OSM   H17S11571   0.907   7.546   4.701  0.1062 -0.3712 -2.1936
  112OSM   H17T11572   0.924   7.393   4.609 -0.9073 -0.1223  0.0877
  112OSM   C18S11573   1.107   7.467   4.721  0.0621  0.3705  0.1820
  112OSM   H18S11574   1.125   7.507   4.823  1.4795 -2.1955  1.0178
  112OSM   H18T11575   1.150   7.529   4.639 -0.6383  2.5307  1.3649
  112OSM   H18U11576   1.160   7.370   4.728  0.9859  0.9047  0.7781
  112OSM    C1F11577   1.662   7.295   6.045  0.3936  0.7279 -0.4186
  112OSM     OF11578   1.683   7.204   6.127 -0.2428 -0.1951  0.3659
  112OSM    C2F11579   1.751   7.329   5.931  0.1066  0.2916  0.2827
  112OSM    H2F11580   1.859   7.331   5.960  0.3084  0.1605 -0.4260
  112OSM    H2G11581   1.710   7.426   5.895 -1.8414 -0.2733  0.8539
  112OSM    C3F11582   1.743   7.215   5.821  0.3503 -0.3853  0.3017
  112OSM    H3F11583   1.730   7.115   5.865  2.7361 -0.8576  0.0904
  112OSM    H3G11584   1.839   7.214   5.765 -0.1428  0.7256 -0.6217
  112OSM    C4F11585   1.625   7.247   5.723 -0.5253 -0.6400 -0.5859
  112OSM    H4F11586   1.630   7.349   5.678  2.8230  0.0101  0.9967
  112OSM    H4G11587   1.538   7.246   5.792  0.3368  0.5854  0.5500
  112OSM    C5F11588   1.616   7.145   5.614  0.3874  0.4423  0.0399
  112OSM    H5F11589   1.646   7.042   5.644 -0.6297  0.1414  0.0909
  112OSM    H5G11590   1.701   7.176   5.551 -1.4973  1.9253 -1.9426
  112OSM    C6F11591   1.480   7.134   5.546  0.1860  0.3361 -0.4445
  112OSM    H6F11592   1.401   7.154   5.621  1.0385 -0.5419  0.7208
  112OSM    H6G11593   1.463   7.037   5.495 -3.6752  0.3107  0.6038
  112OSM    C7F11594   1.480   7.252   5.446  0.2383 -0.3587  0.3323
  112OSM    H7F11595   1.586   7.257   5.412  0.5796 -0.1469  1.4058
  112OSM    H7G11596   1.467   7.344   5.506  0.2390 -1.3961  1.9984
  112OSM    C8F11597   1.374   7.238   5.340 -0.3736  0.4818  0.4850
  112OSM    H8F11598   1.283   7.218   5.400 -0.7457 -1.9810 -0.7837
  112OSM    H8G11599   1.389   7.142   5.287 -1.0332 -0.0684  1.2664
  112OSM    C9F11600   1.363   7.357   5.251  0.3036 -0.2135  0.2275
  112OSM    H9F11601   1.317   7.440   5.307 -1.0418 -1.2348  0.6840
  112OSM   C10F11602   1.395   7.375   5.119 -0.1528  0.1116  0.0777
  112OSM   H10F11603   1.377   7.470   5.067 -0.3330 -0.3714 -0.7584
  112OSM   C11F11604   1.452   7.274   5.025 -0.1091 -0.2280 -0.3874
  112OSM   H11F11605   1.485   7.181   5.078  0.4986 -0.7400 -1.6223
  112OSM   H11G11606   1.548   7.316   4.987  1.1885 -2.7334 -0.1140
  112OSM   C12F11607   1.372   7.250   4.904 -0.2108 -0.1249  0.6535
  112OSM   H12F11608   1.353   7.345   4.849  0.9881  0.5506  1.3774
  112OSM   H12G11609   1.273   7.206   4.928 -0.1132 -1.3119 -0.9194
  112OSM   C13F11610   1.462   7.161   4.814 -0.3118 -0.0119  0.4768
  112OSM   H13F11611   1.489   7.080   4.885  0.4039  0.1675  0.4120
  112OSM   H13G11612   1.558   7.209   4.787 -0.0638 -0.2665  0.8835
  112OSM   C14F11613   1.387   7.092   4.706 -0.0801 -0.4760  0.2956
  112OSM   H14F11614   1.379   7.171   4.629  2.4136 -0.7449 -0.3160
  112OSM   H14G11615   1.286   7.067   4.744 -0.1449 -1.0995 -0.2616
  112OSM   C15F11616   1.446   6.971   4.628 -0.3971 -0.4662  0.2541
  112OSM   H15F11617   1.511   7.018   4.551 -0.7589 -2.4228 -1.3344
  112OSM   H15G11618   1.364   6.915   4.578 -0.4976  0.5097 -0.7097
  112OSM   C16F11619   1.527   6.885   4.721  0.1686  0.3150 -0.6043
  112OSM   H16F11620   1.461   6.866   4.808  0.4344 -2.3592 -0.9039
  112OSM   H16G11621   1.621   6.929   4.761 -1.2417 -0.3873  4.0615
  112OSM   C17F11622   1.574   6.748   4.643  0.1079 -0.1692 -0.7179
  112OSM   H17F11623   1.483   6.693   4.610 -0.0681 -1.2031  1.3409
  112OSM   H17G11624   1.629   6.690   4.720 -0.0525  0.1817 -0.3407
  112OSM   C18F11625   1.641   6.777   4.511  0.3566  0.1782 -0.0577
  112OSM   H18F11626   1.662   6.682   4.459  1.8436  1.7331 -2.4627
  112OSM   H18G11627   1.732   6.840   4.515  0.3051  0.2423  0.1207
  112OSM   H18H11628   1.567   6.834   4.451 -0.3234 -1.3005 -0.6515
  113OSM      N11629   4.428   1.033   6.629 -0.3088 -0.4222 -0.4945
  113OSM    C1511630   4.567   0.989   6.593 -0.2500  0.4415 -0.4209
  113OSM   H15A11631   4.564   0.895   6.539  0.3693 -0.8820  1.6973
  113OSM   H15B11632   4.622   0.971   6.684 -1.4727 -0.8849  0.0934
  113OSM   H15C11633   4.615   1.067   6.536 -1.1508  0.6392 -0.9162
  113OSM    C1411634   4.384   0.943   6.734 -0.6991  0.2237  0.6154
  113OSM   H14A11635   4.463   0.922   6.804  0.3235 -2.4144 -1.1789
  113OSM   H14B11636   4.347   0.847   6.703 -0.1204 -0.2710  1.4119
  113OSM   H14C11637   4.308   0.983   6.799 -0.7866  1.2812 -0.1109
  113OSM    C1311638   4.430   1.177   6.681 -0.2603  0.5726 -0.5949
  113OSM   H13A11639   4.447   1.178   6.787 -3.7254  4.6161  0.2092
  113OSM   H13B11640   4.329   1.212   6.664 -1.5308 -1.2658  2.4733
  113OSM   H13C11641   4.501   1.247   6.639 -0.8125  3.0056  2.2222
  113OSM    C1211642   4.350   1.030   6.499 -0.5373 -0.5214 -0.0079
  113OSM   H12A11643   4.361   1.119   6.438  1.0041 -0.4411  0.3676
  113OSM   H12B11644   4.248   1.022   6.534 -0.1148 -4.1530  0.7694
  113OSM    C1111645   4.363   0.912   6.402 -0.0061 -0.0358 -0.3474
  113OSM   H11A11646   4.471   0.891   6.387 -0.3369 -1.7518 -0.5475
  113OSM   H11B11647   4.331   0.928   6.297 -1.2203 -1.4957 -0.2409
  113OSM      P11648   4.130   0.788   6.424  0.5587 -0.0748 -0.0318
  113OSM    O1311649   4.102   0.645   6.428  0.1159  0.4759 -0.1920
  113OSM    O1411650   4.063   0.875   6.524  0.3341 -0.1641  0.0382
  113OSM    O1111651   4.098   0.847   6.274  0.0141  0.4595 -0.3643
  113OSM    O1211652   4.289   0.801   6.457  0.5849  0.0221  0.0742
  113OSM    C1S11653   4.127   0.774   6.162 -0.5077  0.8222  0.9432
  113OSM    H1S11654   4.133   0.666   6.187  0.3683  0.4626 -0.7316
  113OSM    H1T11655   4.223   0.811   6.121  0.4711 -0.8038  1.6744
  113OSM     NF11656   4.037   0.661   5.968  0.0243  0.0515  0.0099
  113OSM    HNF11657   4.108   0.673   5.899 -0.8079 -1.6176 -1.2093
  113OSM    C2S11658   4.016   0.776   6.051  0.0626  0.0124  0.3865
  113OSM    H2S11659   3.911   0.773   6.088 -0.2453  0.1396 -0.4416
  113OSM    C3S11660   4.035   0.908   5.977 -0.5559  0.3250 -0.7848
  113OSM    H3S11661   4.141   0.908   5.943  0.2756 -0.6298  1.6458
  113OSM     O311662   4.018   1.022   6.060 -0.5785 -0.0481 -0.2184
  113OSM    HO311663   4.041   0.984   6.146  1.3942  0.0023 -0.6685
  113OSM    C4S11664   3.960   0.928   5.844  0.9575  0.5106  0.1358
  113OSM    H4S11665   3.997   0.866   5.761 -0.1138  0.2951 -0.1962
  113OSM    C5S11666   3.845   0.990   5.822  0.0045 -0.8384 -0.1734
  113OSM    H5S11667   3.793   1.038   5.907  0.8263  0.3555 -0.3226
  113OSM    C6S11668   3.761   1.004   5.695  0.5664 -0.0785 -0.2811
  113OSM    H6S11669   3.761   1.113   5.673  1.2454  0.1072  0.5728
  113OSM    H6T11670   3.656   0.971   5.708  1.4713 -3.1458  0.2223
  113OSM    C7S11671   3.819   0.937   5.569  0.1444 -0.4794 -0.5368
  113OSM    H7S11672   3.803   0.828   5.581  2.5035 -0.8708 -0.3588
  113OSM    H7T11673   3.925   0.968   5.555 -0.3077  0.2700 -2.6645
  113OSM    C8S11674   3.751   0.981   5.437  0.7749  0.0030  0.5386
  113OSM    H8S11675   3.782   1.087   5.432  2.3683 -0.4675 -0.6165
  113OSM    H8T11676   3.641   0.985   5.442  0.8108  1.4599  0.5369
  113OSM    C9S11677   3.797   0.917   5.303 -0.0498  0.3444  0.0912
  113OSM    H9S11678   3.781   0.807   5.302  1.5957  0.0714 -1.6777
  113OSM    H9T11679   3.903   0.943   5.284 -0.6007  1.9165 -1.1137
  113OSM   C10S11680   3.710   0.971   5.183  0.6699 -0.1416  0.5304
  113OSM   H10S11681   3.721   1.081   5.168  0.4182 -0.1079  0.5827
  113OSM   H10T11682   3.601   0.962   5.206  0.3896 -0.4339 -0.8385
  113OSM   C11S11683   3.738   0.890   5.055 -0.3744  0.0615 -0.1731
  113OSM   H11S11684   3.717   0.781   5.067 -1.4344  0.0909 -1.4980
  113OSM   H11T11685   3.843   0.890   5.021 -0.4116  0.2065 -0.2879
  113OSM   C12S11686   3.650   0.950   4.945  0.2033  0.9992  0.0055
  113OSM   H12S11687   3.690   1.051   4.925 -0.1927  0.8881 -1.3840
  113OSM   H12T11688   3.544   0.960   4.977 -0.7611 -2.2411 -1.7019
  113OSM   C13S11689   3.643   0.867   4.819 -0.1715 -0.0808 -0.3463
  113OSM   H13S11690   3.560   0.794   4.833  0.0718 -0.7245 -1.9974
  113OSM   H13T11691   3.739   0.812   4.807 -1.5039 -1.8795 -5.4073
  113OSM   C14S11692   3.624   0.944   4.686  0.2791  0.0479  0.0530
  113OSM   H14S11693   3.698   1.026   4.680  2.5247 -1.7902  1.1139
  113OSM   H14T11694   3.522   0.986   4.675 -0.0899 -0.7730  0.2072
  113OSM   C15S11695   3.633   0.838   4.570  0.0920 -0.5580  0.0214
  113OSM   H15S11696   3.577   0.744   4.588  0.3253 -0.6971  0.0266
  113OSM   H15T11697   3.738   0.802   4.562  0.6537  1.0248 -0.2629
  113OSM   C16S11698   3.599   0.890   4.429  0.5396 -0.5230 -0.6172
  113OSM   H16S11699   3.496   0.931   4.431  0.3964 -0.8638 -0.9735
  113OSM   H16T11700   3.597   0.807   4.355 -0.9634 -0.9053 -0.1869
  113OSM   C17S11701   3.697   1.006   4.391  0.4547  0.2056 -0.3051
  113OSM   H17S11702   3.803   0.974   4.399  0.5767  0.3146 -1.4183
  113OSM   H17T11703   3.670   1.083   4.467  4.3682 -0.1513  1.6970
  113OSM   C18S11704   3.662   1.051   4.252  0.4817 -0.8002 -0.1818
  113OSM   H18S11705   3.556   1.083   4.250  1.1947  1.9718  0.9477
  113OSM   H18T11706   3.676   0.974   4.173 -0.2845  0.7577 -1.9267
  113OSM   H18U11707   3.721   1.139   4.216  1.9169 -0.8340  1.8843
  113OSM    C1F11708   3.989   0.542   5.990 -0.7963 -0.0772 -0.3261
  113OSM     OF11709   3.929   0.516   6.092 -0.6768  0.2738 -0.3180
  113OSM    C2F11710   4.014   0.437   5.891 -0.1168  0.4013 -0.5072
  113OSM    H2F11711   4.074   0.357   5.940 -1.4035  0.1034  0.6567
  113OSM    H2G11712   4.067   0.478   5.803  1.4005 -2.3875 -1.0189
  113OSM    C3F11713   3.883   0.368   5.834  0.4560  0.0350  0.4218
  113OSM    H3F11714   3.831   0.450   5.780 -0.8724 -1.6096 -0.8995
  113OSM    H3G11715   3.824   0.327   5.918  1.0660  0.4685  1.0756
  113OSM    C4F11716   3.931   0.264   5.729 -0.0755 -0.6557  0.4599
  113OSM    H4F11717   3.999   0.189   5.776 -1.0067 -0.6909  1.8020
  113OSM    H4G11718   3.988   0.316   5.649 -0.3969  1.7516  1.7110
  113OSM    C5F11719   3.828   0.187   5.654 -0.3800 -0.1402  0.5099
  113OSM    H5F11720   3.761   0.141   5.729 -1.0978 -0.7384 -0.4829
  113OSM    H5G11721   3.873   0.107   5.592 -2.1186 -0.1490 -0.7992
  113OSM    C6F11722   3.728   0.261   5.554 -0.2492  0.7037  0.9139
  113OSM    H6F11723   3.651   0.322   5.606 -1.4744 -0.3820  0.4294
  113OSM    H6G11724   3.678   0.186   5.488 -1.3662 -0.9165  3.4257
  113OSM    C7F11725   3.802   0.357   5.462  0.3956 -1.1546 -0.4907
  113OSM    H7F11726   3.871   0.312   5.388 -0.5308 -0.8249 -1.5768
  113OSM    H7G11727   3.859   0.429   5.526 -0.2675  0.2601 -1.4621
  113OSM    C8F11728   3.697   0.449   5.383 -0.6077  0.1168  0.1972
  113OSM    H8F11729   3.758   0.535   5.349  2.8757 -1.6996  1.3558
  113OSM    H8G11730   3.634   0.482   5.469  0.3031  0.3449  0.7921
  113OSM    C9F11731   3.607   0.379   5.282  0.0873 -0.0491 -0.3752
  113OSM    H9F11732   3.533   0.311   5.326 -0.5527  0.0565 -1.2589
  113OSM   C10F11733   3.626   0.384   5.149 -0.0066 -0.1187  0.0034
  113OSM   H10F11734   3.542   0.340   5.092 -0.1476 -1.7666  1.3856
  113OSM   C11F11735   3.718   0.478   5.067  0.2591 -0.1603 -0.4571
  113OSM   H11F11736   3.814   0.428   5.042  1.2830  1.3194  0.3574
  113OSM   H11G11737   3.754   0.570   5.118 -1.3401  0.3126 -0.1191
  113OSM   C12F11738   3.641   0.532   4.946 -0.4652 -0.5699  0.1618
  113OSM   H12F11739   3.695   0.617   4.899 -1.3437  1.0511  1.9697
  113OSM   H12G11740   3.537   0.568   4.966 -0.7736 -1.3297 -0.0180
  113OSM   C13F11741   3.621   0.430   4.831  0.5297 -0.4111  0.2721
  113OSM   H13F11742   3.581   0.334   4.869  0.3504  0.7439  3.3060
  113OSM   H13G11743   3.720   0.407   4.787  0.3112  2.5076 -2.0434
  113OSM   C14F11744   3.510   0.464   4.732 -0.0345  0.0665  0.8231
  113OSM   H14F11745   3.534   0.559   4.681 -1.2607 -0.0899 -0.0945
  113OSM   H14G11746   3.411   0.475   4.782 -0.4929 -0.5598  0.0926
  113OSM   C15F11747   3.487   0.356   4.625  0.4078 -0.1394 -0.0036
  113OSM   H15F11748   3.463   0.266   4.687 -0.7962  0.9598  1.1996
  113OSM   H15G11749   3.580   0.341   4.567 -0.0178  1.3694 -1.1365
  113OSM   C16F11750   3.373   0.389   4.525 -0.5533  0.1763 -0.7200
  113OSM   H16F11751   3.391   0.488   4.477 -0.2518  0.9209  0.8586
  113OSM   H16G11752   3.273   0.388   4.573 -0.2376  0.0043 -0.0520
  113OSM   C17F11753   3.362   0.284   4.414  0.5270 -0.6149  0.1649
  113OSM   H17F11754   3.255   0.267   4.391  0.6395  0.4477 -1.3065
  113OSM   H17G11755   3.398   0.187   4.456 -1.9147 -2.6850 -2.1726
  113OSM   C18F11756   3.442   0.333   4.287  0.5186  0.2242  0.3865
  113OSM   H18F11757   3.403   0.277   4.200 -0.2491 -0.9136  1.4355
  113OSM   H18G11758   3.550   0.315   4.305  0.7085  0.8406 -0.0831
  113OSM   H18H11759   3.432   0.443   4.272 -0.7179  0.1517  0.5607
  114OSM      N11760   3.254   6.331   7.334 -0.1847  0.6420  0.1955
  114OSM    C1511761   3.368   6.242   7.284 -0.2226 -0.5864  0.0210
  114OSM   H15A11762   3.416   6.296   7.204 -0.1881  1.2611  1.2479
  114OSM   H15B11763   3.332   6.144   7.254 -1.2310 -0.3374  0.3938
  114OSM   H15C11764   3.445   6.230   7.358 -0.2683 -1.9783 -0.1304
  114OSM    C1411765   3.200   6.288   7.464  0.2358 -0.9798 -0.4312
  114OSM   H14A11766   3.174   6.183   7.470 -2.5824 -0.3478  0.0523
  114OSM   H14B11767   3.117   6.344   7.504 -1.4557 -3.2578 -0.5051
  114OSM   H14C11768   3.276   6.312   7.537 -0.7446 -0.0687  0.3251
  114OSM    C1311769   3.300   6.468   7.343 -0.0492  0.3436 -0.1137
  114OSM   H13A11770   3.339   6.502   7.248 -1.5676 -1.8724 -1.6378
  114OSM   H13B11771   3.377   6.479   7.418 -0.4196  1.5977  0.1076
  114OSM   H13C11772   3.214   6.525   7.375 -0.2174 -0.8183  1.6454
  114OSM    C1211773   3.142   6.331   7.224 -0.1812  0.1591 -0.3623
  114OSM   H12A11774   3.052   6.382   7.255 -0.8078 -1.1250 -0.0097
  114OSM   H12B11775   3.105   6.229   7.216 -1.5962  0.5414  0.7704
  114OSM    C1111776   3.168   6.381   7.080 -0.0498 -1.3785 -0.6323
  114OSM   H11A11777   3.194   6.488   7.084  1.3378 -1.7159  1.8000
  114OSM   H11B11778   3.066   6.366   7.037 -0.4688 -1.3826  0.3257
  114OSM      P11779   3.227   6.162   6.950 -0.2655  0.0566 -0.0809
  114OSM    O1311780   3.351   6.086   6.917  0.1580 -0.3860 -0.4262
  114OSM    O1411781   3.136   6.093   7.049 -0.5572 -0.2044 -0.6747
  114OSM    O1111782   3.149   6.198   6.812  0.1830 -0.0502  0.4539
  114OSM    O1211783   3.265   6.301   7.015  0.1592 -0.0304  0.0192
  114OSM    C1S11784   3.182   6.326   6.753  1.4407  0.2153  0.1188
  114OSM    H1S11785   3.281   6.366   6.783  0.9596  1.8989 -0.4596
  114OSM    H1T11786   3.104   6.390   6.799  1.5443 -1.1380  2.3203
  114OSM     NF11787   3.234   6.466   6.562 -0.3489 -0.5250 -0.2292
  114OSM    HNF11788   3.174   6.545   6.555  0.3031  0.1815  1.5957
  114OSM    C2S11789   3.168   6.345   6.604  0.1094  0.2671  0.0313
  114OSM    H2S11790   3.227   6.266   6.552  0.2760 -0.3757  1.1816
  114OSM    C3S11791   3.021   6.319   6.554 -0.6985 -0.2448  0.1153
  114OSM    H3S11792   2.959   6.401   6.597 -0.4418  0.1773 -0.3033
  114OSM     O311793   2.973   6.193   6.591  0.2746 -0.6648 -0.3692
  114OSM    HO311794   3.037   6.162   6.655  1.5290  1.4982 -0.4643
  114OSM    C4S11795   3.011   6.355   6.402 -0.4451 -0.3123  0.1395
  114OSM    H4S11796   3.031   6.461   6.379 -2.3423 -0.3938 -2.4126
  114OSM    C5S11797   2.997   6.265   6.302  0.6144 -0.1323  0.2155
  114OSM    H5S11798   2.967   6.162   6.326  0.9767 -0.5459 -1.0171
  114OSM    C6S11799   3.006   6.282   6.157  0.3869 -0.4224 -0.0403
  114OSM    H6S11800   2.985   6.387   6.129  3.3091  0.2233 -0.1680
  114OSM    H6T11801   2.942   6.205   6.109 -0.6280  0.5030 -0.2094
  114OSM    C7S11802   3.149   6.265   6.105 -0.5928 -0.2569 -0.0453
  114OSM    H7S11803   3.182   6.162   6.131 -1.8793  0.0624  3.3716
  114OSM    H7T11804   3.214   6.335   6.161 -2.2546  1.6714 -0.4146
  114OSM    C8S11805   3.165   6.294   5.957  0.1089  0.4994  0.7804
  114OSM    H8S11806   3.120   6.388   5.919 -1.2490  0.4233  2.1057
  114OSM    H8T11807   3.102   6.214   5.913  1.1601 -1.6258  2.8722
  114OSM    C9S11808   3.309   6.292   5.902 -0.0349  0.1041 -0.5399
  114OSM    H9S11809   3.358   6.196   5.929 -0.1494  0.3139  0.4585
  114OSM    H9T11810   3.370   6.373   5.947  0.7409 -0.0377 -1.3070
  114OSM   C10S11811   3.318   6.319   5.752  0.3087  0.4812 -0.1437
  114OSM   H10S11812   3.242   6.396   5.726  0.7778  0.4767 -1.5856
  114OSM   H10T11813   3.289   6.232   5.692 -1.6178  1.1063 -0.1674
  114OSM   C11S11814   3.454   6.346   5.693 -0.3727  0.0863 -0.5123
  114OSM   H11S11815   3.534   6.284   5.739  0.4508  0.2857 -1.6136
  114OSM   H11T11816   3.477   6.452   5.719 -1.0754  0.2010 -0.3558
  114OSM   C12S11817   3.456   6.332   5.546  0.5768  0.5399  0.6644
  114OSM   H12S11818   3.382   6.400   5.500 -0.2315 -0.8045 -0.0973
  114OSM   H12T11819   3.431   6.228   5.516  0.1256  0.6426  0.6820
  114OSM   C13S11820   3.606   6.370   5.506  0.0783 -0.2670 -0.5325
  114OSM   H13S11821   3.670   6.309   5.573 -2.4796 -0.3476  2.0420
  114OSM   H13T11822   3.621   6.480   5.519  0.0437 -0.0018 -2.4591
  114OSM   C14S11823   3.638   6.332   5.358  0.5380 -0.2776 -0.0388
  114OSM   H14S11824   3.660   6.224   5.366 -0.7757 -0.4418  2.1105
  114OSM   H14T11825   3.735   6.374   5.324 -0.1238  0.2534 -1.3389
  114OSM   C15S11826   3.534   6.370   5.255 -0.0539  0.4604  0.1129
  114OSM   H15S11827   3.498   6.473   5.275 -0.2707  0.9194 -2.4071
  114OSM   H15T11828   3.452   6.296   5.263 -1.1611  1.5066 -1.1114
  114OSM   C16S11829   3.593   6.367   5.106 -0.3522  0.0997 -0.9856
  114OSM   H16S11830   3.596   6.261   5.072  0.7210 -0.3679  0.4588
  114OSM   H16T11831   3.698   6.404   5.105 -0.7234  1.1732 -2.1178
  114OSM   C17S11832   3.520   6.448   5.000  0.2738  0.2094 -0.4992
  114OSM   H17S11833   3.495   6.546   5.047  3.5169  1.1583 -0.5254
  114OSM   H17T11834   3.432   6.393   4.961  0.7605  0.0151 -1.3512
  114OSM   C18S11835   3.611   6.468   4.877  0.0282 -0.2219  0.4844
  114OSM   H18S11836   3.643   6.370   4.834  0.1564 -0.1713  0.4628
  114OSM   H18T11837   3.707   6.515   4.906 -0.8449  1.3832  0.9076
  114OSM   H18U11838   3.561   6.522   4.794  0.5146  2.6833  1.9440
  114OSM    C1F11839   3.367   6.484   6.555  0.2234  0.0638 -0.9622
  114OSM     OF11840   3.439   6.391   6.591  0.0745  0.1303  0.0158
  114OSM    C2F11841   3.421   6.622   6.532 -0.1836 -0.2616  0.2474
  114OSM    H2F11842   3.481   6.645   6.622  1.7091  0.5163 -1.1357
  114OSM    H2G11843   3.336   6.693   6.533 -0.5065 -0.5257 -2.0081
  114OSM    C3F11844   3.519   6.633   6.409  0.7831 -0.7469 -0.7226
  114OSM    H3F11845   3.603   6.563   6.431  2.0977  0.1944 -2.5030
  114OSM    H3G11846   3.552   6.739   6.396  2.2853 -1.3156 -1.8076
  114OSM    C4F11847   3.433   6.595   6.282  0.1101 -0.5951 -0.2761
  114OSM    H4F11848   3.353   6.671   6.271 -0.4589 -1.3208 -1.3677
  114OSM    H4G11849   3.384   6.495   6.290 -1.7657  0.3428  0.4864
  114OSM    C5F11850   3.515   6.588   6.149  0.2388  0.0828 -1.3335
  114OSM    H5F11851   3.588   6.671   6.148  0.6164 -0.0016  2.6921
  114OSM    H5G11852   3.438   6.601   6.070 -1.4908  0.5955  0.3470
  114OSM    C6F11853   3.601   6.465   6.143 -0.0264  0.1514  0.0674
  114OSM    H6F11854   3.555   6.371   6.180  0.5018  0.2457  0.9975
  114OSM    H6G11855   3.685   6.482   6.214  0.3974 -1.5129  0.0147
  114OSM    C7F11856   3.647   6.429   6.010 -0.5023 -0.5650  0.3104
  114OSM    H7F11857   3.557   6.452   5.949 -0.5787  1.3276  1.0597
  114OSM    H7G11858   3.664   6.320   5.996  0.8480 -0.2261 -0.9239
  114OSM    C8F11859   3.773   6.503   5.974 -0.5033 -0.3020 -0.9614
  114OSM    H8F11860   3.851   6.441   6.023  0.5445 -0.8508 -3.1539
  114OSM    H8G11861   3.768   6.610   6.004 -0.1752  0.4985 -3.5254
  114OSM    C9F11862   3.798   6.495   5.822  0.6051 -0.3209  0.8222
  114OSM    H9F11863   3.727   6.564   5.773 -0.9997 -0.0339  3.3310
  114OSM   C10F11864   3.891   6.435   5.749 -0.2648 -0.0096  0.4962
  114OSM   H10F11865   3.880   6.436   5.640 -1.1381 -3.6029  0.4140
  114OSM   C11F11866   4.010   6.353   5.804 -0.3703 -0.1074 -1.1042
  114OSM   H11F11867   4.011   6.355   5.915 -0.1513 -0.1917 -1.1029
  114OSM   H11G11868   4.106   6.401   5.771  0.4970 -0.0144  1.3479
  114OSM   C12F11869   3.994   6.206   5.772 -0.0203 -0.1680  0.1500
  114OSM   H12F11870   3.900   6.173   5.822 -0.5575  1.1420  0.0204
  114OSM   H12G11871   4.081   6.145   5.805  1.1176  0.8185 -0.9493
  114OSM   C13F11872   3.986   6.183   5.621 -0.0196 -1.3260 -0.1508
  114OSM   H13F11873   4.069   6.240   5.573  1.1318 -2.3959  0.5228
  114OSM   H13G11874   3.897   6.230   5.574  1.2801 -0.0397 -1.4548
  114OSM   C14F11875   3.985   6.033   5.574 -0.5531 -0.7762  0.1022
  114OSM   H14F11876   3.900   5.980   5.622  0.5796 -0.2405  2.8750
  114OSM   H14G11877   4.067   5.976   5.622  0.6207  0.6140 -0.2017
  114OSM   C15F11878   3.980   6.023   5.424 -0.0481 -0.1044 -0.7421
  114OSM   H15F11879   4.069   6.080   5.388 -1.4449  2.8066  0.0706
  114OSM   H15G11880   3.887   6.074   5.392 -0.8554 -0.6783  0.6209
  114OSM   C16F11881   3.973   5.872   5.375 -0.2154  0.1322  0.5402
  114OSM   H16F11882   3.890   5.813   5.418  1.1271 -2.0343  0.3108
  114OSM   H16G11883   4.060   5.820   5.420 -0.6143 -0.5438  0.5389
  114OSM   C17F11884   3.954   5.873   5.222  0.2403 -0.1013  0.1143
  114OSM   H17F11885   4.045   5.915   5.176 -0.1872  3.0236  1.8271
  114OSM   H17G11886   3.875   5.945   5.193 -1.7960 -2.2144  0.0125
  114OSM   C18F11887   3.937   5.736   5.155 -0.3664  0.7990 -0.1358
  114OSM   H18F11888   4.029   5.673   5.151  0.1024  1.4236  0.4772
  114OSM   H18G11889   3.890   5.738   5.055  0.9312 -2.0837 -0.9350
  114OSM   H18H11890   3.864   5.676   5.214 -0.8839  2.7643  1.3549
  115OSM      N11891   3.391   2.781   6.367  0.0454 -0.4388  0.2160
  115OSM    C1511892   3.388   2.927   6.388  0.5075 -0.1455 -0.3739
  115OSM   H15A11893   3.470   2.971   6.444 -1.0541  1.1684  0.9581
  115OSM   H15B11894   3.310   2.964   6.452  1.3310 -1.5183  1.5228
  115OSM   H15C11895   3.374   2.978   6.294 -0.8918 -0.7893 -0.5377
  115OSM    C1411896   3.519   2.734   6.304  0.1718 -0.5058 -0.5478
  115OSM   H14A11897   3.524   2.627   6.288  2.2069 -0.8713  1.7984
  115OSM   H14B11898   3.596   2.753   6.378 -1.0009  0.8423  0.3967
  115OSM   H14C11899   3.544   2.793   6.218  0.6069  1.5128  0.8803
  115OSM    C1311900   3.388   2.723   6.510 -0.6374 -0.5322  0.3113
  115OSM   H13A11901   3.453   2.774   6.580 -0.4270 -1.0290  0.4840
  115OSM   H13B11902   3.429   2.622   6.511 -0.1175 -0.3278  0.2376
  115OSM   H13C11903   3.288   2.726   6.549 -0.3632  2.1673  1.0032
  115OSM    C1211904   3.266   2.746   6.281 -0.3748  0.1623 -0.7606
  115OSM   H12A11905   3.268   2.796   6.185  0.1282 -0.8815 -1.3209
  115OSM   H12B11906   3.180   2.785   6.333 -0.2829  0.6258 -0.9488
  115OSM    C1111907   3.231   2.599   6.250  0.3243 -0.0802 -0.3229
  115OSM   H11A11908   3.312   2.551   6.191 -0.8556 -2.0463 -0.4136
  115OSM   H11B11909   3.144   2.595   6.181  0.1269  0.3018 -0.1019
  115OSM      P11910   3.084   2.533   6.450  0.2308 -0.4088 -0.2636
  115OSM    O1311911   3.088   2.438   6.566 -0.6619 -0.3790 -0.1133
  115OSM    O1411912   3.051   2.673   6.476  0.2993  0.0375  0.0613
  115OSM    O1111913   2.976   2.481   6.345  0.1619 -0.5116 -0.4742
  115OSM    O1211914   3.219   2.522   6.374  0.7997 -0.0761  0.3159
  115OSM    C1S11915   2.905   2.565   6.253  0.3930 -0.0252  1.0319
  115OSM    H1S11916   2.943   2.667   6.229  0.9391 -1.2472 -4.4339
  115OSM    H1T11917   2.799   2.575   6.285 -0.0840 -2.6648  0.4881
  115OSM     NF11918   2.818   2.608   6.025 -0.2076 -0.2792 -0.2560
  115OSM    HNF11919   2.720   2.619   6.040  0.1004  3.3067  0.1073
  115OSM    C2S11920   2.886   2.504   6.106  1.2745  0.0747 -0.2881
  115OSM    H2S11921   2.985   2.476   6.065  1.9091 -0.5880  1.6086
  115OSM    C3S11922   2.803   2.369   6.123  0.6605 -0.0912  0.0233
  115OSM    H3S11923   2.696   2.398   6.138  1.0342  1.7834 -0.6175
  115OSM     O311924   2.820   2.299   6.247  0.4084  0.0334  0.3186
  115OSM    HO311925   2.869   2.365   6.295 -1.4009 -0.4256  3.0829
  115OSM    C4S11926   2.801   2.293   5.993  0.3355  0.7031 -0.4837
  115OSM    H4S11927   2.706   2.301   5.938  0.9436  0.4843 -1.5983
  115OSM    C5S11928   2.897   2.204   5.953  0.6282 -0.1100 -0.0435
  115OSM    H5S11929   2.984   2.179   6.015  1.3114 -2.5842 -1.8412
  115OSM    C6S11930   2.908   2.123   5.825  0.1152  0.2867  0.7736
  115OSM    H6S11931   2.885   2.016   5.843 -2.0796  0.2970 -1.3465
  115OSM    H6T11932   3.008   2.142   5.781 -0.2550 -1.5247 -1.0405
  115OSM    C7S11933   2.808   2.161   5.711  0.2918 -0.4337  0.7994
  115OSM    H7S11934   2.834   2.264   5.678  0.9787 -1.3311 -1.6946
  115OSM    H7T11935   2.703   2.164   5.746  0.3785 -2.6862  1.4066
  115OSM    C8S11936   2.798   2.046   5.595 -0.4356 -0.2433  0.3682
  115OSM    H8S11937   2.781   1.942   5.632  0.8496 -0.0416  1.6043
  115OSM    H8T11938   2.896   2.055   5.545 -0.6553  0.5655  0.0793
  115OSM    C9S11939   2.685   2.063   5.500  0.2144  0.5983 -0.2622
  115OSM    H9S11940   2.688   2.159   5.443  2.9885  0.5021 -0.4166
  115OSM    H9T11941   2.594   2.057   5.562  0.0995  1.6916 -0.3133
  115OSM   C10S11942   2.671   1.955   5.393 -0.4787 -0.2678  0.2842
  115OSM   H10S11943   2.682   1.856   5.442  0.3109 -0.8928 -1.0864
  115OSM   H10T11944   2.762   1.975   5.332  0.0818 -0.9041  0.8973
  115OSM   C11S11945   2.552   1.970   5.300  0.0078  0.5716 -0.1427
  115OSM   H11S11946   2.545   2.080   5.282 -0.9599  1.1277  2.9753
  115OSM   H11T11947   2.462   1.928   5.349  0.1668 -0.7003 -0.8998
  115OSM   C12S11948   2.576   1.905   5.158 -0.2770 -0.4358  0.0811
  115OSM   H12S11949   2.592   1.802   5.196  0.9295  0.3084  1.7147
  115OSM   H12T11950   2.666   1.925   5.096 -0.7950 -1.2439 -0.9581
  115OSM   C13S11951   2.453   1.914   5.068 -0.5073  0.4137  0.7765
  115OSM   H13S11952   2.360   1.919   5.129 -1.9659 -0.0281 -1.3001
  115OSM   H13T11953   2.431   1.819   5.016 -0.3640  0.0318  1.4055
  115OSM   C14S11954   2.461   2.045   4.981  0.9165 -0.0543  0.6036
  115OSM   H14S11955   2.555   2.035   4.922  1.5767 -0.1869  1.6483
  115OSM   H14T11956   2.475   2.130   5.051  2.1156 -0.0364  0.3773
  115OSM   C15S11957   2.335   2.068   4.899 -0.5572 -0.0095  0.5873
  115OSM   H15S11958   2.242   2.052   4.957 -0.4708 -3.4142 -0.0105
  115OSM   H15T11959   2.334   1.992   4.817 -0.6773  0.3533  0.2492
  115OSM   C16S11960   2.325   2.212   4.832  0.5743  0.7686 -0.3918
  115OSM   H16S11961   2.359   2.277   4.914  1.8700 -0.1668 -0.1497
  115OSM   H16T11962   2.215   2.224   4.816 -0.0563 -0.5817  2.2506
  115OSM   C17S11963   2.400   2.243   4.706  0.2365 -0.4665  0.2224
  115OSM   H17S11964   2.503   2.204   4.719  0.0177 -1.6376 -1.2859
  115OSM   H17T11965   2.412   2.353   4.695  2.5965 -0.6089  0.9926
  115OSM   C18S11966   2.336   2.178   4.578 -0.0852 -0.0534 -0.5509
  115OSM   H18S11967   2.339   2.068   4.591  2.7297 -0.1688 -1.4736
  115OSM   H18T11968   2.401   2.206   4.492  0.2265  0.6146 -0.1093
  115OSM   H18U11969   2.230   2.208   4.562 -0.2298 -0.5227 -0.4919
  115OSM    C1F11970   2.903   2.695   5.978  0.4103 -0.1641  0.5542
  115OSM     OF11971   3.021   2.677   5.998  0.4040 -0.1376 -0.5823
  115OSM    C2F11972   2.853   2.810   5.895  0.3724  0.0039  0.1089
  115OSM    H2F11973   2.920   2.895   5.921  0.3030 -0.9732  4.2393
  115OSM    H2G11974   2.756   2.845   5.937  0.1018  1.4557 -1.5794
  115OSM    C3F11975   2.817   2.777   5.739 -0.4196 -0.5915 -0.2498
  115OSM    H3F11976   2.910   2.783   5.678 -0.2045 -0.4743  0.0909
  115OSM    H3G11977   2.750   2.859   5.704 -0.9304  0.6615  3.3218
  115OSM    C4F11978   2.750   2.640   5.725  0.6238 -0.9474 -0.3838
  115OSM    H4F11979   2.652   2.634   5.778  0.5071 -0.1778 -0.4923
  115OSM    H4G11980   2.820   2.571   5.776  2.4171  1.3249  0.3917
  115OSM    C5F11981   2.736   2.585   5.587  0.4922 -1.3513 -0.9002
  115OSM    H5F11982   2.709   2.478   5.598  0.5306 -1.2625  0.1509
  115OSM    H5G11983   2.834   2.589   5.535  0.7206 -3.5816 -0.7163
  115OSM    C6F11984   2.627   2.659   5.498  0.1013  0.7251 -0.2831
  115OSM    H6F11985   2.644   2.769   5.499 -1.9716  1.0770  0.8913
  115OSM    H6G11986   2.534   2.658   5.559 -1.1424  0.6013 -2.1185
  115OSM    C7F11987   2.616   2.603   5.357 -0.7194  0.0873 -0.1325
  115OSM    H7F11988   2.621   2.494   5.373 -1.2372  0.2857  1.5737
  115OSM    H7G11989   2.708   2.629   5.299  0.0713 -1.2024  0.5038
  115OSM    C8F11990   2.492   2.649   5.276  0.5897  0.2961  0.0399
  115OSM    H8F11991   2.498   2.757   5.254  2.6739  0.2863  0.3547
  115OSM    H8G11992   2.413   2.629   5.352 -0.1988  1.7419 -0.3716
  115OSM    C9F11993   2.459   2.570   5.158 -0.3819  0.2304 -0.3243
  115OSM    H9F11994   2.518   2.477   5.164  0.2826  0.6158 -0.8016
  115OSM   C10F11995   2.373   2.586   5.053  0.7457  0.1941  0.2093
  115OSM   H10F11996   2.363   2.503   4.981 -0.8627  0.6510 -0.1219
  115OSM   C11F11997   2.284   2.700   5.020  0.0095 -0.8508  0.7099
  115OSM   H11F11998   2.286   2.782   5.095  0.3250 -0.5900  0.4136
  115OSM   H11G11999   2.179   2.664   5.016  0.1206 -1.0430 -1.7930
  115OSM   C12F12000   2.307   2.779   4.887  0.3355  0.0962  0.1785
  115OSM   H12F12001   2.414   2.808   4.879  0.8493 -1.9789 -1.2055
  115OSM   H12G12002   2.260   2.879   4.899 -0.0547 -0.1378  0.6288
  115OSM   C13F12003   2.264   2.700   4.759  0.1325 -0.1388  0.3391
  115OSM   H13F12004   2.155   2.678   4.769  0.0037  0.2836 -0.1087
  115OSM   H13G12005   2.307   2.598   4.769  1.5778  0.5270  1.1502
  115OSM   C14F12006   2.291   2.766   4.624  0.0764  0.3076  1.0002
  115OSM   H14F12007   2.399   2.752   4.600 -0.1956 -1.1596  0.5029
  115OSM   H14G12008   2.268   2.874   4.633 -2.0941  0.1358 -1.3382
  115OSM   C15F12009   2.199   2.702   4.509  0.4039  0.9556  0.5803
  115OSM   H15F12010   2.091   2.702   4.534 -0.3773  0.6799 -2.4094
  115OSM   H15G12011   2.227   2.595   4.491 -1.1109  0.8364 -1.3852
  115OSM   C16F12012   2.195   2.771   4.371  0.0126 -0.7004  0.1263
  115OSM   H16F12013   2.149   2.868   4.400  1.6234 -0.5331  2.4712
  115OSM   H16G12014   2.120   2.715   4.311  0.0758 -2.1827  1.3814
  115OSM   C17F12015   2.332   2.792   4.299 -0.1635  0.0911  0.4247
  115OSM   H17F12016   2.394   2.844   4.375  0.7602  0.0285 -0.2741
  115OSM   H17G12017   2.327   2.855   4.207 -2.0875 -1.5363 -0.6750
  115OSM   C18F12018   2.406   2.666   4.249 -0.2020 -0.4651 -0.4162
  115OSM   H18F12019   2.360   2.616   4.161  0.4157 -3.8414  1.0167
  115OSM   H18G12020   2.426   2.586   4.323 -0.9514  0.6351  1.0343
  115OSM   H18H12021   2.510   2.698   4.224  0.0743  0.8117  2.0368
  116OSM      N12022   4.525   6.590   6.921 -0.6827 -0.3077 -0.0072
  116OSM    C1512023   4.436   6.706   6.958 -0.0361 -0.3847  0.2640
  116OSM   H15A12024   4.348   6.709   6.895 -0.0362  1.0326  0.3007
  116OSM   H15B12025   4.488   6.799   6.939  0.6684 -0.9772 -0.8277
  116OSM   H15C12026   4.405   6.697   7.061 -0.5837  0.2679  0.1657
  116OSM    C1412027   4.649   6.592   7.003 -0.1649  0.3095 -0.5216
  116OSM   H14A12028   4.694   6.494   7.004 -1.2111 -0.1903  0.0110
  116OSM   H14B12029   4.635   6.619   7.107  0.1495 -0.2867 -0.3164
  116OSM   H14C12030   4.713   6.673   6.972 -0.3272  0.6867  0.1053
  116OSM    C1312031   4.439   6.468   6.938  0.0513  0.5982 -1.1097
  116OSM   H13A12032   4.350   6.474   6.876 -0.7448 -1.5101 -0.2739
  116OSM   H13B12033   4.419   6.451   7.043  1.8563 -1.3699 -1.0423
  116OSM   H13C12034   4.491   6.387   6.891  0.3305 -0.8748  1.5361
  116OSM    C1212035   4.564   6.598   6.771  0.3820 -0.0927 -0.4392
  116OSM   H12A12036   4.626   6.687   6.773  0.4505 -0.1296 -0.8617
  116OSM   H12B12037   4.477   6.614   6.710 -1.4130 -1.2728  1.6432
  116OSM    C1112038   4.651   6.481   6.721 -0.6003 -0.3918 -0.4939
  116OSM   H11A12039   4.733   6.470   6.795 -0.1522 -0.7448 -1.0399
  116OSM   H11B12040   4.700   6.513   6.626  2.2941 -0.7814  0.7535
  116OSM      P12041   4.477   6.334   6.607  0.3172 -0.0051  0.3987
  116OSM    O1312042   4.408   6.204   6.639 -0.1270 -0.0389  0.2575
  116OSM    O1412043   4.387   6.454   6.589 -0.2145 -0.0201 -0.4978
  116OSM    O1112044   4.557   6.306   6.472  0.2863  0.6321  1.4164
  116OSM    O1212045   4.593   6.350   6.714 -0.4753 -0.2502  0.5022
  116OSM    C1S12046   4.669   6.222   6.458  0.0588  0.1920 -0.0080
  116OSM    H1S12047   4.641   6.121   6.495  1.1831  0.3017  1.2246
  116OSM    H1T12048   4.747   6.252   6.531 -0.4060  0.4911  0.3738
  116OSM     NF12049   4.794   6.101   6.289 -0.0926  0.0870 -0.2767
  116OSM    HNF12050   4.892   6.113   6.297 -0.2043  2.2871 -1.5132
  116OSM    C2S12051   4.712   6.215   6.308  0.2260  0.5833 -0.2245
  116OSM    H2S12052   4.624   6.207   6.240  0.7920  2.2831 -1.2179
  116OSM    C3S12053   4.772   6.351   6.262  0.3080  0.5254  0.9780
  116OSM    H3S12054   4.860   6.385   6.321  1.0732  0.2814 -0.0016
  116OSM     O312055   4.669   6.448   6.273 -0.2671  0.4967 -0.1575
  116OSM    HO312056   4.600   6.402   6.321 -0.8477  0.3692 -1.0702
  116OSM    C4S12057   4.815   6.337   6.116  0.2973 -0.3288 -0.4918
  116OSM    H4S12058   4.734   6.325   6.042  1.5279  1.4288 -2.2482
  116OSM    C5S12059   4.942   6.342   6.067 -0.3545 -1.0412 -0.3142
  116OSM    H5S12060   5.026   6.349   6.137 -0.9845  1.4693  0.2711
  116OSM    C6S12061   4.985   6.328   5.918  0.0183 -0.0266  0.3122
  116OSM    H6S12062   5.029   6.231   5.884  0.4178  0.1496  0.3248
  116OSM    H6T12063   5.041   6.418   5.885  0.3883  0.0538  1.1310
  116OSM    C7S12064   4.872   6.334   5.815 -0.0323  0.1063  0.6566
  116OSM    H7S12065   4.814   6.428   5.822 -0.8457 -0.2588 -0.9001
  116OSM    H7T12066   4.804   6.246   5.825  0.4156 -0.0891  2.4755
  116OSM    C8S12067   4.930   6.350   5.673 -0.1354  0.7305 -0.0487
  116OSM    H8S12068   4.999   6.264   5.667 -0.9297  0.1805 -1.7510
  116OSM    H8T12069   4.987   6.443   5.650  0.2138  0.5766  0.1798
  116OSM    C9S12070   4.837   6.329   5.555 -0.6537  0.3845 -0.8607
  116OSM    H9S12071   4.771   6.418   5.544  0.7227  1.3056 -2.0420
  116OSM    H9T12072   4.763   6.251   5.584 -0.6336  0.3730 -0.8413
  116OSM   C10S12073   4.916   6.288   5.433  0.0206  0.1272 -0.1417
  116OSM   H10S12074   5.017   6.252   5.463 -0.0173  1.4891  1.7719
  116OSM   H10T12075   4.943   6.374   5.368  1.8146  0.9127  1.5499
  116OSM   C11S12076   4.837   6.192   5.337 -0.1881 -1.4717 -0.5354
  116OSM   H11S12077   4.747   6.243   5.295 -0.8011 -0.1240  2.1595
  116OSM   H11T12078   4.789   6.109   5.394 -0.4436  0.3597  2.1148
  116OSM   C12S12079   4.913   6.148   5.212 -0.1032 -0.1941  0.1467
  116OSM   H12S12080   4.988   6.075   5.251 -2.4736 -1.2147  3.2198
  116OSM   H12T12081   4.969   6.231   5.163  1.0678 -2.1501 -2.0063
  116OSM   C13S12082   4.830   6.078   5.100 -0.0336  0.1237  0.5533
  116OSM   H13S12083   4.739   6.136   5.074 -0.9046 -1.1332  0.6817
  116OSM   H13T12084   4.807   5.978   5.144  0.6648 -1.1482 -1.7750
  116OSM   C14S12085   4.920   6.068   4.963 -0.4419  0.1558 -0.2585
  116OSM   H14S12086   4.942   6.173   4.932  0.9290 -0.6613 -2.1817
  116OSM   H14T12087   4.844   6.015   4.902 -2.3677  0.1637  1.9762
  116OSM   C15S12088   5.051   5.998   4.969 -0.4298 -0.2922  0.2643
  116OSM   H15S12089   5.064   5.921   5.048  0.3214  2.9221  3.5664
  116OSM   H15T12090   5.129   6.077   4.983  0.3541 -0.8319 -0.8882
  116OSM   C16S12091   5.089   5.931   4.835 -0.5018  0.4380 -0.7406
  116OSM   H16S12092   5.031   5.837   4.820 -1.8847  0.9996  0.9095
  116OSM   H16T12093   5.195   5.897   4.837 -1.1741 -1.8448  0.9030
  116OSM   C17S12094   5.053   6.018   4.708  0.0574 -0.0508  0.5115
  116OSM   H17S12095   4.943   6.031   4.709 -0.1412 -1.3907 -0.4796
  116OSM   H17T12096   5.072   5.963   4.612  1.1340  0.7474  0.2488
  116OSM   C18S12097   5.121   6.154   4.685  0.1507 -0.5853 -0.6044
  116OSM   H18S12098   5.111   6.213   4.779  1.4881 -2.3851  0.7204
  116OSM   H18T12099   5.076   6.212   4.601 -0.5324  0.3732  0.3886
  116OSM   H18U12100   5.231   6.144   4.680  0.0120 -3.5849  0.6933
  116OSM    C1F12101   4.758   5.973   6.280  0.2164  0.0202  0.1682
  116OSM     OF12102   4.648   5.942   6.325 -0.0137  0.3180 -0.4671
  116OSM    C2F12103   4.865   5.880   6.230  0.5924  0.5303 -0.5349
  116OSM    H2F12104   4.919   5.829   6.314  0.2747  0.0047 -0.6485
  116OSM    H2G12105   4.934   5.935   6.162 -0.6796  0.6944 -1.7182
  116OSM    C3F12106   4.799   5.771   6.141  0.3260 -0.3113 -0.0707
  116OSM    H3F12107   4.704   5.747   6.194 -0.2452 -0.5828 -1.1942
  116OSM    H3G12108   4.863   5.680   6.143  0.4224 -0.2471 -0.2408
  116OSM    C4F12109   4.778   5.802   5.991 -0.7017  0.4822 -0.6486
  116OSM    H4F12110   4.780   5.911   5.972  1.4446  0.7881  0.9624
  116OSM    H4G12111   4.680   5.760   5.960 -1.2009  1.8990 -1.0451
  116OSM    C5F12112   4.889   5.735   5.903  0.5330  0.0073 -0.1140
  116OSM    H5F12113   4.931   5.636   5.928 -0.0053 -0.4175 -0.8590
  116OSM    H5G12114   4.973   5.808   5.909  0.1458  0.4749 -0.2511
  116OSM    C6F12115   4.834   5.732   5.752 -0.1520 -1.2858 -0.2532
  116OSM    H6F12116   4.805   5.832   5.714  0.8061  0.4145  3.0371
  116OSM    H6G12117   4.734   5.683   5.757 -1.1789  0.8060  1.9100
  116OSM    C7F12118   4.921   5.654   5.653  0.0244 -0.8705 -0.2831
  116OSM    H7F12119   4.937   5.556   5.703  0.2812 -0.8712 -0.3672
  116OSM    H7G12120   5.021   5.702   5.652 -0.9990  1.3696 -0.6359
  116OSM    C8F12121   4.872   5.638   5.511 -0.0249 -0.1939  0.2518
  116OSM    H8F12122   4.769   5.595   5.519 -1.4398  3.2116  3.4168
  116OSM    H8G12123   4.937   5.556   5.474 -0.1214 -0.6233  1.0132
  116OSM    C9F12124   4.883   5.770   5.425  0.4057  0.3299 -0.0401
  116OSM    H9F12125   4.822   5.857   5.451 -0.9153 -0.0760 -1.5896
  116OSM   C10F12126   4.965   5.785   5.319  0.1264 -0.4061  0.4186
  116OSM   H10F12127   4.951   5.880   5.264  0.7718 -0.5408  0.0082
  116OSM   C11F12128   5.044   5.683   5.251  0.2788  0.5256  0.4121
  116OSM   H11F12129   5.107   5.634   5.327  0.6698  0.4555  0.0426
  116OSM   H11G12130   5.107   5.735   5.176 -0.3512  0.8596  0.0978
  116OSM   C12F12131   4.971   5.576   5.166  0.1370  0.7485 -0.0609
  116OSM   H12F12132   4.891   5.534   5.230  0.8413 -0.7411 -0.1230
  116OSM   H12G12133   5.037   5.489   5.149  0.0214  0.7438 -0.5019
  116OSM   C13F12134   4.919   5.632   5.034 -0.0265  0.0696  0.3185
  116OSM   H13F12135   5.011   5.671   4.986 -1.2561  0.6830 -1.7089
  116OSM   H13G12136   4.859   5.723   5.057 -0.4577 -0.6420  2.2529
  116OSM   C14F12137   4.840   5.535   4.950 -0.0873  0.9567 -0.2775
  116OSM   H14F12138   4.741   5.510   4.995  0.4029 -1.2954 -0.2900
  116OSM   H14G12139   4.897   5.441   4.933  1.8708  1.7158  1.6371
  116OSM   C15F12140   4.812   5.589   4.806  0.1409 -0.3814 -0.4209
  116OSM   H15F12141   4.742   5.516   4.759  0.0988 -0.5727 -0.0585
  116OSM   H15G12142   4.907   5.589   4.748  2.0426  0.1830  2.5195
  116OSM   C16F12143   4.734   5.725   4.801 -0.3777  0.0758  0.0896
  116OSM   H16F12144   4.791   5.798   4.862  0.2161 -1.5089  1.5084
  116OSM   H16G12145   4.630   5.719   4.838 -0.9250 -0.5789 -1.4364
  116OSM   C17F12146   4.723   5.779   4.655 -0.0652  0.2379 -0.4395
  116OSM   H17F12147   4.681   5.705   4.584  1.4373  0.6306 -1.8106
  116OSM   H17G12148   4.826   5.801   4.620  0.6658 -2.3000 -0.1117
  116OSM   C18F12149   4.640   5.907   4.641 -0.8174 -0.2140  0.1502
  116OSM   H18F12150   4.684   5.996   4.691 -1.1715  0.2138 -0.2864
  116OSM   H18G12151   4.538   5.899   4.685 -1.2767  0.9582 -0.6421
  116OSM   H18H12152   4.637   5.950   4.538  0.6307  2.0865  0.9875
  117OSM      N12153   1.417   2.718   6.577  0.2230 -0.4086 -0.3018
  117OSM    C1512154   1.305   2.777   6.647 -0.0937 -0.1849  0.0054
  117OSM   H15A12155   1.274   2.872   6.607  1.9267  0.0662 -1.0982
  117OSM   H15B12156   1.319   2.787   6.754  1.0142  0.1038 -0.1563
  117OSM   H15C12157   1.212   2.724   6.632 -0.3643 -0.4902  2.3531
  117OSM    C1412158   1.531   2.816   6.585 -0.1533  0.0044  0.3845
  117OSM   H14A12159   1.574   2.823   6.684 -0.2999 -0.5670  0.4963
  117OSM   H14B12160   1.496   2.912   6.550 -2.9456 -1.4610 -1.2018
  117OSM   H14C12161   1.617   2.785   6.528  1.1912  1.1984  1.6716
  117OSM    C1312162   1.448   2.585   6.632 -0.2820  0.1948  0.4522
  117OSM   H13A12163   1.474   2.589   6.737 -0.4677  0.2124  0.4995
  117OSM   H13B12164   1.526   2.547   6.569 -0.3220 -0.3486  0.7153
  117OSM   H13C12165   1.360   2.522   6.636 -0.5573  0.3993 -1.4738
  117OSM    C1212166   1.379   2.699   6.432  0.0768 -0.0374  0.9227
  117OSM   H12A12167   1.375   2.796   6.385 -1.6923 -0.7084 -0.4213
  117OSM   H12B12168   1.278   2.664   6.419 -0.3693  1.9667 -1.8616
  117OSM    C1112169   1.473   2.613   6.347 -0.0002  0.0703 -0.3865
  117OSM   H11A12170   1.454   2.628   6.239 -0.9145 -0.2779 -0.2842
  117OSM   H11B12171   1.443   2.507   6.363 -0.1634  0.1073 -0.4466
  117OSM      P12172   1.713   2.524   6.381  0.0598  0.3255 -0.5189
  117OSM    O1312173   1.841   2.587   6.399 -0.3398 -0.5986  0.0459
  117OSM    O1412174   1.674   2.410   6.471  0.3243 -0.1879 -0.4663
  117OSM    O1112175   1.698   2.471   6.238 -0.3471 -0.1122  0.1057
  117OSM    O1212176   1.612   2.636   6.386 -0.4005 -0.2154 -0.0629
  117OSM    C1S12177   1.740   2.540   6.120  0.1527 -0.2244 -0.2012
  117OSM    H1S12178   1.847   2.568   6.137  0.3703 -1.4118  0.4974
  117OSM    H1T12179   1.679   2.632   6.113  0.3798 -0.0973 -0.5582
  117OSM     NF12180   1.770   2.547   5.880  0.3327  0.3041  0.4908
  117OSM    HNF12181   1.702   2.597   5.828 -2.1688 -1.4586  1.8691
  117OSM    C2S12182   1.721   2.465   5.988 -0.4676  0.5989 -0.2049
  117OSM    H2S12183   1.778   2.370   6.000  1.0377  1.6184  1.1291
  117OSM    C3S12184   1.570   2.426   5.976  0.4397  0.1077  0.7011
  117OSM    H3S12185   1.510   2.520   5.981 -0.4132 -0.2389 -1.6141
  117OSM     O312186   1.502   2.356   6.088 -0.3433 -0.1175 -0.3756
  117OSM    HO312187   1.568   2.365   6.158 -0.2365 -0.0692 -0.4813
  117OSM    C4S12188   1.544   2.357   5.845  0.1875 -0.8935 -0.2469
  117OSM    H4S12189   1.509   2.422   5.764 -1.1383 -1.7488 -0.4018
  117OSM    C5S12190   1.547   2.230   5.826  0.0818  0.4707  0.1531
  117OSM    H5S12191   1.590   2.156   5.896  1.0523  0.7188 -0.1563
  117OSM    C6S12192   1.507   2.165   5.697  0.4161  0.2600 -0.5901
  117OSM    H6S12193   1.434   2.085   5.723 -0.0171  0.5545 -0.8815
  117OSM    H6T12194   1.587   2.119   5.636  0.9523  2.9175 -2.0504
  117OSM    C7S12195   1.440   2.265   5.598 -0.1365  0.2995 -0.2833
  117OSM    H7S12196   1.518   2.336   5.563  1.4166 -1.4638 -0.5445
  117OSM    H7T12197   1.357   2.301   5.662  0.2031  2.4017 -0.9501
  117OSM    C8S12198   1.386   2.205   5.470  0.2732 -0.1586  0.2326
  117OSM    H8S12199   1.333   2.116   5.510  2.6249 -1.1727  1.3344
  117OSM    H8T12200   1.471   2.174   5.405  0.3029 -3.0753  1.4954
  117OSM    C9S12201   1.294   2.302   5.405 -0.5921 -0.8284 -0.1652
  117OSM    H9S12202   1.348   2.396   5.380  1.6588 -2.0206 -0.1100
  117OSM    H9T12203   1.212   2.323   5.477  1.0634 -0.0343  1.5829
  117OSM   C10S12204   1.239   2.246   5.280  0.7208 -0.1825  0.0779
  117OSM   H10S12205   1.312   2.223   5.200  0.0067 -0.3917 -0.5276
  117OSM   H10T12206   1.177   2.322   5.228 -1.3213 -1.2437  0.8288
  117OSM   C11S12207   1.160   2.118   5.307  0.5187 -0.0652 -0.5354
  117OSM   H11S12208   1.081   2.127   5.384 -1.9072 -0.5089 -2.8326
  117OSM   H11T12209   1.224   2.034   5.343  0.6344  0.5491  0.7374
  117OSM   C12S12210   1.083   2.062   5.183 -0.3423 -0.3961  0.3924
  117OSM   H12S12211   1.005   2.134   5.154  0.8529  1.5146  1.6934
  117OSM   H12T12212   1.020   1.976   5.214 -2.2226  0.3582 -1.1857
  117OSM   C13S12213   1.166   2.022   5.065  0.2684 -0.0627  0.1257
  117OSM   H13S12214   1.238   1.942   5.093  0.0200 -0.9387 -1.5649
  117OSM   H13T12215   1.232   2.104   5.029  0.9389 -0.6697 -0.0585
  117OSM   C14S12216   1.076   1.969   4.951  1.0832  0.1552 -0.7989
  117OSM   H14S12217   1.014   2.034   4.885  4.5851  1.4713 -3.0828
  117OSM   H14T12218   1.009   1.896   5.001  0.0466  2.2880  1.1377
  117OSM   C15S12219   1.152   1.901   4.839  0.5172  0.0810  0.1790
  117OSM   H15S12220   1.219   1.831   4.893  1.1668 -1.1371 -2.1040
  117OSM   H15T12221   1.210   1.974   4.779  1.0964 -1.1079 -0.7384
  117OSM   C16S12222   1.067   1.814   4.751 -0.5103 -0.1099  0.1231
  117OSM   H16S12223   0.996   1.877   4.693  0.0576  0.0640 -0.3918
  117OSM   H16T12224   1.004   1.744   4.809  0.4978  0.3512  1.8491
  117OSM   C17S12225   1.152   1.730   4.651  0.0321  0.6496 -0.1199
  117OSM   H17S12226   1.226   1.675   4.714  0.6314  0.4698 -0.9506
  117OSM   H17T12227   1.211   1.793   4.580 -1.0226  0.7837 -0.8906
  117OSM   C18S12228   1.079   1.632   4.573  0.7415  1.0626  0.7064
  117OSM   H18S12229   1.037   1.557   4.643 -0.6394 -0.6135 -1.7660
  117OSM   H18T12230   1.140   1.567   4.506  0.6689 -2.8904  4.0766
  117OSM   H18U12231   0.993   1.679   4.521  0.7635 -0.2066 -0.5234
  117OSM    C1F12232   1.893   2.568   5.848 -0.7199 -0.1177  0.3967
  117OSM     OF12233   1.988   2.507   5.903 -0.2423 -0.1564 -0.0542
  117OSM    C2F12234   1.912   2.658   5.737  0.5820  0.0234  0.7764
  117OSM    H2F12235   1.872   2.758   5.763  4.5140  1.6084  1.5254
  117OSM    H2G12236   1.861   2.622   5.645 -0.4777  0.5580  1.1468
  117OSM    C3F12237   2.061   2.680   5.703 -0.7360 -0.2444  0.4936
  117OSM    H3F12238   2.123   2.587   5.706 -0.2483 -0.0446 -1.7216
  117OSM    H3G12239   2.111   2.747   5.776  2.6275 -1.3379 -0.6376
  117OSM    C4F12240   2.082   2.748   5.571  0.2349  0.5546  0.2127
  117OSM    H4F12241   1.997   2.818   5.560 -1.9596 -1.9672  0.0436
  117OSM    H4G12242   2.072   2.686   5.479 -0.1679 -1.5300  1.5861
  117OSM    C5F12243   2.212   2.833   5.559 -0.1686  0.3953  0.7917
  117OSM    H5F12244   2.306   2.776   5.568  1.4828  2.6280 -1.1448
  117OSM    H5G12245   2.206   2.905   5.643  0.3703  0.0480  1.1317
  117OSM    C6F12246   2.223   2.899   5.415  0.3942  0.2120 -0.7364
  117OSM    H6F12247   2.121   2.907   5.371 -0.0476 -2.9641 -0.5913
  117OSM    H6G12248   2.265   2.819   5.351  0.7313 -0.2808  0.0766
  117OSM    C7F12249   2.312   3.024   5.402 -0.2132 -0.2855 -0.7052
  117OSM    H7F12250   2.410   3.016   5.454  0.0222 -0.7068 -1.2004
  117OSM    H7G12251   2.249   3.110   5.434 -2.9090 -2.5086  0.3057
  117OSM    C8F12252   2.336   3.058   5.247 -0.0366  0.2068  0.0812
  117OSM    H8F12253   2.239   3.077   5.197  2.0084  0.3232 -4.2825
  117OSM    H8G12254   2.382   2.964   5.209  1.0748  1.2145 -1.1318
  117OSM    C9F12255   2.428   3.173   5.228 -0.1427  0.0481 -0.1499
  117OSM    H9F12256   2.439   3.235   5.318 -3.3472 -1.1004  1.1827
  117OSM   C10F12257   2.471   3.206   5.103  0.1208 -0.1816 -1.0543
  117OSM   H10F12258   2.542   3.289   5.098 -0.0749  0.0557 -0.0094
  117OSM   C11F12259   2.446   3.134   4.971  0.3972 -0.6522 -0.3859
  117OSM   H11F12260   2.366   3.059   4.992 -0.6999  0.1717 -1.5000
  117OSM   H11G12261   2.539   3.090   4.928  1.1870  0.0360  0.5825
  117OSM   C12F12262   2.393   3.229   4.864  0.7252  0.7409 -0.5026
  117OSM   H12F12263   2.458   3.319   4.852  0.6991  0.7033 -0.9756
  117OSM   H12G12264   2.293   3.268   4.894  0.7840 -1.0808  2.3200
  117OSM   C13F12265   2.375   3.144   4.739  0.2994  0.2723  0.3612
  117OSM   H13F12266   2.280   3.087   4.740  0.9634 -0.9658 -1.4459
  117OSM   H13G12267   2.450   3.062   4.733  0.9909  0.9224 -0.1203
  117OSM   C14F12268   2.375   3.224   4.614  0.1773  0.7928  0.2325
  117OSM   H14F12269   2.455   3.299   4.622 -0.1615  1.0668  1.1479
  117OSM   H14G12270   2.278   3.278   4.609 -0.4033 -0.0614  1.6535
  117OSM   C15F12271   2.391   3.129   4.495 -0.1019 -0.0204 -0.0767
  117OSM   H15F12272   2.311   3.053   4.510 -0.7466  0.9024  1.3377
  117OSM   H15G12273   2.489   3.077   4.490  0.3361  0.7307  0.5263
  117OSM   C16F12274   2.362   3.192   4.364  0.0657  0.0101  0.3101
  117OSM   H16F12275   2.261   3.239   4.375  0.3035  0.6721 -0.3032
  117OSM   H16G12276   2.355   3.121   4.279 -1.9036  0.3467  0.1452
  117OSM   C17F12277   2.454   3.305   4.324 -1.1690  0.6512  0.0779
  117OSM   H17F12278   2.557   3.273   4.297 -1.1061  1.1967 -0.3335
  117OSM   H17G12279   2.459   3.375   4.410  2.5915 -0.6782  1.1258
  117OSM   C18F12280   2.397   3.371   4.200 -0.1660 -0.1118 -1.3464
  117OSM   H18F12281   2.467   3.455   4.178 -0.8898  0.6948 -0.6773
  117OSM   H18G12282   2.299   3.415   4.228 -0.2384 -1.1417  0.1807
  117OSM   H18H12283   2.375   3.300   4.118 -1.3207 -0.1949 -0.9872
  118OSM      N12284   4.102   1.931   6.532  0.5909  0.2844  0.0529
  118OSM    C1512285   3.993   1.911   6.638 -0.4406 -0.0867 -0.2949
  118OSM   H15A12286   3.894   1.942   6.609 -0.4399 -1.2225 -1.5895
  118OSM   H15B12287   4.026   1.965   6.725  0.8770 -0.3627 -0.6024
  118OSM   H15C12288   3.989   1.806   6.662  2.0897 -0.4259 -1.0656
  118OSM    C1412289   4.086   2.069   6.478 -0.0884 -0.5838  0.3412
  118OSM   H14A12290   4.164   2.093   6.407  0.2104 -0.7270  0.6165
  118OSM   H14B12291   4.106   2.142   6.556  0.2816  0.9915 -1.1776
  118OSM   H14C12292   3.990   2.088   6.434 -0.6201 -2.4384  0.6194
  118OSM    C1312293   4.238   1.905   6.592 -0.2591 -0.1554  0.1981
  118OSM   H13A12294   4.245   1.985   6.665 -0.4106  0.8237 -0.8245
  118OSM   H13B12295   4.324   1.915   6.528 -0.8375  4.3050 -0.2117
  118OSM   H13C12296   4.237   1.805   6.633 -0.7450 -0.5250 -0.6943
  118OSM    C1212297   4.081   1.823   6.420  0.3145  0.0109  0.4540
  118OSM   H12A12298   4.154   1.825   6.341  0.1434 -1.8010  0.2029
  118OSM   H12B12299   3.983   1.842   6.378 -0.4570  0.1327  2.2314
  118OSM    C1112300   4.068   1.679   6.469  0.0885  0.6642  0.0961
  118OSM   H11A12301   4.024   1.618   6.386 -1.3803  2.0344 -0.1899
  118OSM   H11B12302   3.999   1.674   6.556 -1.9772 -0.3571 -1.5060
  118OSM      P12303   4.294   1.555   6.418  0.5190 -0.2635  0.3332
  118OSM    O1312304   4.304   1.638   6.297 -0.0299  0.1530  0.0001
  118OSM    O1412305   4.418   1.531   6.492 -0.4215 -0.8719 -0.0462
  118OSM    O1112306   4.222   1.422   6.388 -0.3598 -0.1701  0.3499
  118OSM    O1212307   4.194   1.628   6.510 -0.4839 -0.2115  0.2693
  118OSM    C1S12308   4.148   1.383   6.270 -0.3261 -0.4638  0.0612
  118OSM    H1S12309   4.106   1.476   6.226 -1.8918 -1.0532  0.2636
  118OSM    H1T12310   4.061   1.321   6.298 -0.5873 -1.1682 -2.1408
  118OSM     NF12311   4.125   1.293   6.035  1.2964  0.2605  0.0121
  118OSM    HNF12312   4.087   1.202   6.021 -0.1430  0.6220  1.3783
  118OSM    C2S12313   4.221   1.317   6.145 -0.4174  0.0074  0.0857
  118OSM    H2S12314   4.289   1.396   6.107 -1.2384  1.3125  1.2203
  118OSM    C3S12315   4.306   1.197   6.188 -0.0930  0.0367  0.0016
  118OSM    H3S12316   4.243   1.109   6.216  0.1160 -0.3979 -0.8630
  118OSM     O312317   4.388   1.235   6.299  0.0246 -0.2030  0.3000
  118OSM    HO312318   4.337   1.298   6.351  1.1316  0.1848  0.9278
  118OSM    C4S12319   4.395   1.166   6.075  0.7628 -0.2003 -0.4403
  118OSM    H4S12320   4.471   1.241   6.048  0.6009 -1.0703 -3.7746
  118OSM    C5S12321   4.399   1.058   6.000 -0.5431  0.3328  0.1398
  118OSM    H5S12322   4.343   0.967   6.026 -2.2453  1.5947  1.0684
  118OSM    C6S12323   4.498   1.043   5.888 -0.5721 -0.2209 -0.1676
  118OSM    H6S12324   4.452   0.976   5.813 -0.5220 -0.8735  0.3750
  118OSM    H6T12325   4.599   1.003   5.913 -0.0049  0.4833 -1.2618
  118OSM    C7S12326   4.530   1.171   5.807  0.4619 -0.9046 -0.2384
  118OSM    H7S12327   4.604   1.150   5.727  0.6988 -0.3786 -0.1588
  118OSM    H7T12328   4.592   1.232   5.876 -0.3495 -0.5947  0.2330
  118OSM    C8S12329   4.407   1.250   5.747 -0.0619 -0.1930 -0.0250
  118OSM    H8S12330   4.450   1.337   5.694  0.2864  0.3394  1.1062
  118OSM    H8T12331   4.350   1.284   5.836  0.9614 -0.2275  0.6552
  118OSM    C9S12332   4.318   1.167   5.644 -0.3541  0.2916 -0.3212
  118OSM    H9S12333   4.267   1.082   5.694 -0.0491  0.8932  1.0565
  118OSM    H9T12334   4.374   1.112   5.565 -2.8187 -1.3584 -1.0262
  118OSM   C10S12335   4.212   1.251   5.570  0.7048 -0.3224 -0.9409
  118OSM   H10S12336   4.256   1.342   5.523 -2.3691  0.6459 -2.2103
  118OSM   H10T12337   4.138   1.288   5.644  1.0086 -0.7565 -0.4105
  118OSM   C11S12338   4.147   1.176   5.459  0.2677 -0.1582 -0.0175
  118OSM   H11S12339   4.040   1.158   5.484  1.1239 -0.1223  4.5024
  118OSM   H11T12340   4.177   1.069   5.449  0.3807 -0.2540  1.1789
  118OSM   C12S12341   4.178   1.230   5.320  0.9055 -0.1537 -0.0629
  118OSM   H12S12342   4.286   1.206   5.310  0.9164  0.4227 -1.5643
  118OSM   H12T12343   4.164   1.339   5.304 -0.8871 -0.7478 -3.7767
  118OSM   C13S12344   4.099   1.163   5.212 -0.1143 -0.2161 -0.4671
  118OSM   H13S12345   3.989   1.174   5.217 -0.2434 -1.3773 -0.5287
  118OSM   H13T12346   4.113   1.054   5.226 -1.1322 -0.2234  0.6725
  118OSM   C14S12347   4.148   1.214   5.075 -0.5051  1.2383 -0.3070
  118OSM   H14S12348   4.259   1.209   5.067 -0.3484  2.1574  0.8682
  118OSM   H14T12349   4.129   1.324   5.082 -1.5122  1.0367  0.4196
  118OSM   C15S12350   4.076   1.139   4.957 -0.6970  0.0717 -0.4771
  118OSM   H15S12351   3.969   1.137   4.988 -0.1181 -1.2225  1.6618
  118OSM   H15T12352   4.119   1.038   4.938 -1.8571 -0.6490  0.5668
  118OSM   C16S12353   4.092   1.213   4.822  0.2096 -0.3812  1.3487
  118OSM   H16S12354   4.186   1.183   4.772  0.5277  1.7280  0.6089
  118OSM   H16T12355   4.096   1.323   4.836 -3.0073  0.3599 -1.9660
  118OSM   C17S12356   3.972   1.189   4.732 -0.2228  0.1066  0.1026
  118OSM   H17S12357   3.883   1.228   4.786  0.5781  0.4255  1.2367
  118OSM   H17T12358   3.975   1.082   4.703  0.5499  0.1585 -0.0246
  118OSM   C18S12359   3.974   1.275   4.608 -0.6543 -1.0024 -0.0189
  118OSM   H18S12360   3.920   1.371   4.620 -0.2792 -0.6069 -1.3097
  118OSM   H18T12361   3.925   1.228   4.520  2.1458 -0.8150 -1.7717
  118OSM   H18U12362   4.082   1.289   4.587 -0.4239 -2.8841 -0.3255
  118OSM    C1F12363   4.068   1.396   5.970  0.3269  0.0380  0.3290
  118OSM     OF12364   4.101   1.514   5.979 -0.0059 -0.3812  0.1041
  118OSM    C2F12365   3.952   1.363   5.882 -0.1671  0.7695  0.7203
  118OSM    H2F12366   3.859   1.347   5.940 -1.1090 -2.1417 -1.3734
  118OSM    H2G12367   3.970   1.269   5.825  0.4429  2.3114 -1.7957
  118OSM    C3F12368   3.937   1.472   5.775 -0.4716 -1.1176 -0.5304
  118OSM    H3F12369   4.032   1.516   5.736 -1.1990  1.0726  0.0266
  118OSM    H3G12370   3.895   1.561   5.826 -0.4595 -0.3528 -1.7984
  118OSM    C4F12371   3.850   1.436   5.659  0.0525  0.7127  0.1350
  118OSM    H4F12372   3.754   1.489   5.680 -0.5054  0.6774 -2.0943
  118OSM    H4G12373   3.831   1.327   5.671 -1.4250  1.1677  2.7654
  118OSM    C5F12374   3.902   1.481   5.521 -0.0789  0.0987  0.6735
  118OSM    H5F12375   3.995   1.425   5.495 -0.2991  0.1301 -0.1870
  118OSM    H5G12376   3.917   1.591   5.514 -0.2245  0.0174 -1.5639
  118OSM    C6F12377   3.813   1.430   5.408 -0.0832 -0.4472 -0.0140
  118OSM    H6F12378   3.711   1.472   5.422  0.8071  1.8269  0.0321
  118OSM    H6G12379   3.807   1.321   5.430 -1.1546 -0.8363 -2.0468
  118OSM    C7F12380   3.864   1.438   5.267 -0.3346 -0.9133  0.2939
  118OSM    H7F12381   3.965   1.392   5.270 -0.4492 -1.1458  0.7204
  118OSM    H7G12382   3.869   1.547   5.242  1.9904 -1.4019 -1.7174
  118OSM    C8F12383   3.772   1.381   5.158 -0.2909  0.0126  0.3247
  118OSM    H8F12384   3.668   1.417   5.177  0.5745  2.3848  0.9454
  118OSM    H8G12385   3.770   1.271   5.146 -0.9376  0.0904 -0.3764
  118OSM    C9F12386   3.821   1.439   5.031  0.3561 -0.2390 -0.1256
  118OSM    H9F12387   3.931   1.439   5.023  0.4376 -1.6655  0.7052
  118OSM   C10F12388   3.739   1.495   4.933 -0.0526 -0.3593  0.3426
  118OSM   H10F12389   3.785   1.526   4.838 -1.0698 -2.7200 -0.9858
  118OSM   C11F12390   3.584   1.490   4.924 -0.9749 -0.0109  0.0504
  118OSM   H11F12391   3.553   1.595   4.906 -0.4016 -0.0509 -1.2517
  118OSM   H11G12392   3.531   1.459   5.017  2.5269 -1.4752  1.7577
  118OSM   C12F12393   3.526   1.412   4.798 -0.0452 -0.0728  0.0658
  118OSM   H12F12394   3.418   1.439   4.808  0.8080  3.6907  0.6405
  118OSM   H12G12395   3.557   1.306   4.812  0.7762 -0.0109 -1.1147
  118OSM   C13F12396   3.597   1.456   4.663 -0.2487  0.5078 -0.0524
  118OSM   H13F12397   3.701   1.417   4.662 -0.6347 -0.5592 -0.0376
  118OSM   H13G12398   3.588   1.567   4.653 -1.3213  0.2594 -2.8071
  118OSM   C14F12399   3.527   1.407   4.539  0.3019 -0.2478 -0.1174
  118OSM   H14F12400   3.422   1.443   4.544  1.3969  3.1432  1.7636
  118OSM   H14G12401   3.511   1.297   4.543 -1.0789 -0.0719 -0.4085
  118OSM   C15F12402   3.599   1.444   4.417  0.2820 -0.0336  0.7616
  118OSM   H15F12403   3.701   1.404   4.398 -0.2168 -0.5330 -1.1309
  118OSM   H15G12404   3.601   1.555   4.413 -1.5591  0.0080 -1.3902
  118OSM   C16F12405   3.512   1.408   4.289  0.0156 -0.1551 -0.0225
  118OSM   H16F12406   3.495   1.298   4.294 -0.9464  0.0011  0.5144
  118OSM   H16G12407   3.572   1.416   4.196  1.5139  0.0484  0.9311
  118OSM   C17F12408   3.371   1.472   4.272  0.0220 -0.1934 -0.3473
  118OSM   H17F12409   3.381   1.583   4.275 -1.3169 -0.0563 -0.5422
  118OSM   H17G12410   3.304   1.452   4.359 -1.0707 -1.0777 -1.3663
  118OSM   C18F12411   3.297   1.437   4.149 -0.0472  0.3474  0.2945
  118OSM   H18F12412   3.370   1.450   4.066 -2.3044 -0.0542 -1.8555
  118OSM   H18G12413   3.213   1.507   4.136 -0.3754  0.4181  2.4523
  118OSM   H18H12414   3.258   1.333   4.147 -1.5659  0.8473 -3.4151
  119OSM      N12415   5.807   4.887   7.013  0.1350  0.3758  0.1911
  119OSM    C1512416   5.925   4.871   7.098 -0.6199 -0.2011  0.5454
  119OSM   H15A12417   5.889   4.883   7.200  0.6079  0.1800  0.9533
  119OSM   H15B12418   6.003   4.945   7.087  1.1041 -2.1867 -1.5414
  119OSM   H15C12419   5.964   4.770   7.101 -0.8529 -0.4054 -1.7380
  119OSM    C1412420   5.727   4.764   7.028 -0.0805  0.0015  0.2381
  119OSM   H14A12421   5.627   4.774   6.987  0.0092  0.8688  0.2093
  119OSM   H14B12422   5.729   4.733   7.131 -0.2019 -0.3414  0.1401
  119OSM   H14C12423   5.778   4.685   6.975 -1.6278 -0.7544 -0.1776
  119OSM    C1312424   5.730   5.005   7.069 -0.0835  0.1103 -0.6131
  119OSM   H13A12425   5.649   5.023   7.000  1.2002 -0.4041 -2.3470
  119OSM   H13B12426   5.785   5.098   7.066 -0.9442  0.6150 -2.4561
  119OSM   H13C12427   5.692   4.994   7.169 -1.1455  3.6380 -0.4906
  119OSM    C1212428   5.839   4.908   6.868 -0.5483 -0.5891 -0.8008
  119OSM   H12A12429   5.854   5.013   6.846 -0.2481 -0.1554  1.2235
  119OSM   H12B12430   5.748   4.889   6.813 -1.0709 -1.3369  0.2820
  119OSM    C1112431   5.960   4.836   6.799 -0.6127 -0.2601 -0.2295
  119OSM   H11A12432   6.057   4.861   6.846 -0.1890  2.9532 -2.4534
  119OSM   H11B12433   5.962   4.869   6.693  0.0010  0.1688 -0.0868
  119OSM      P12434   6.060   4.596   6.783  0.4827 -0.1067 -0.1983
  119OSM    O1312435   6.163   4.620   6.889 -0.4148  0.2242 -1.1545
  119OSM    O1412436   6.010   4.459   6.772 -0.1094  0.2095 -0.2134
  119OSM    O1112437   6.109   4.641   6.642 -0.4240 -0.6293 -0.2041
  119OSM    O1212438   5.936   4.697   6.793  0.3971  0.5163 -0.0329
  119OSM    C1S12439   6.124   4.544   6.537  0.2013  0.4083  0.0154
  119OSM    H1S12440   6.027   4.490   6.528 -0.7895  2.0743  0.1263
  119OSM    H1T12441   6.213   4.479   6.546  0.7773  0.6856 -2.7691
  119OSM     NF12442   6.138   4.493   6.291  0.4505 -0.1659  0.7388
  119OSM    HNF12443   6.225   4.482   6.244  0.5791 -1.6375  1.2882
  119OSM    C2S12444   6.142   4.603   6.397  0.5268 -0.5987  0.0639
  119OSM    H2S12445   6.049   4.662   6.382  0.5017 -0.5129  0.5501
  119OSM    C3S12446   6.263   4.690   6.391  0.0615 -0.4087 -0.4361
  119OSM    H3S12447   6.339   4.613   6.415 -0.6818 -0.3933  2.3956
  119OSM     O312448   6.264   4.789   6.492  0.2073  0.1905  0.6287
  119OSM    HO312449   6.191   4.762   6.547 -0.9063  3.1297  0.7820
  119OSM    C4S12450   6.295   4.743   6.254 -0.0447 -0.6651  0.6261
  119OSM    H4S12451   6.368   4.682   6.199  2.1072  1.5352  0.8836
  119OSM    C5S12452   6.250   4.868   6.207 -0.5798  0.1252 -0.0082
  119OSM    H5S12453   6.181   4.930   6.266 -0.9013 -1.1239  0.9618
  119OSM    C6S12454   6.281   4.917   6.069  0.1081 -0.6109  0.4565
  119OSM    H6S12455   6.345   5.007   6.080 -1.0569  0.4120 -0.7184
  119OSM    H6T12456   6.186   4.949   6.022  0.5613  0.8580  0.5087
  119OSM    C7S12457   6.339   4.820   5.964 -0.4939 -0.2796  0.4470
  119OSM    H7S12458   6.268   4.735   5.962  0.4096 -1.2166  3.1772
  119OSM    H7T12459   6.427   4.762   5.999 -0.6280  0.6822  2.5267
  119OSM    C8S12460   6.362   4.890   5.827 -0.2305  0.0614  0.2881
  119OSM    H8S12461   6.450   4.957   5.839  0.0724 -0.4398  0.9414
  119OSM    H8T12462   6.275   4.956   5.807  1.4716  1.8193 -1.7984
  119OSM    C9S12463   6.387   4.784   5.709  1.0042  0.3618 -0.1379
  119OSM    H9S12464   6.301   4.716   5.724  1.3039  0.5370  2.8968
  119OSM    H9T12465   6.479   4.728   5.738 -0.3789 -1.3413  1.1394
  119OSM   C10S12466   6.409   4.841   5.569 -0.3235  0.3382 -0.5770
  119OSM   H10S12467   6.514   4.877   5.563  1.0214 -3.2600 -0.8366
  119OSM   H10T12468   6.344   4.930   5.556  0.1076  0.5699 -1.2515
  119OSM   C11S12469   6.402   4.744   5.456  0.1150 -0.0406  0.6169
  119OSM   H11S12470   6.297   4.709   5.463 -1.0706  3.4042  2.4045
  119OSM   H11T12471   6.473   4.660   5.474 -0.1133 -0.8087 -1.6947
  119OSM   C12S12472   6.446   4.790   5.320  0.3053  0.2909 -0.1744
  119OSM   H12S12473   6.529   4.864   5.316  0.9977 -0.3026  2.0182
  119OSM   H12T12474   6.360   4.846   5.277 -0.5269 -0.5500  0.3595
  119OSM   C13S12475   6.475   4.673   5.222 -0.5663 -0.4801  0.5357
  119OSM   H13S12476   6.380   4.656   5.167 -1.0021  1.5315  0.5814
  119OSM   H13T12477   6.505   4.578   5.271 -0.1458 -0.0547  1.1141
  119OSM   C14S12478   6.592   4.711   5.133 -0.5325  0.3682 -0.1137
  119OSM   H14S12479   6.675   4.737   5.203  0.3493  0.9528 -1.3289
  119OSM   H14T12480   6.564   4.797   5.068  0.2919 -0.0553 -1.0504
  119OSM   C15S12481   6.630   4.598   5.034 -0.1289  0.7631 -0.0724
  119OSM   H15S12482   6.659   4.503   5.084 -0.6750  1.2305  1.1816
  119OSM   H15T12483   6.717   4.647   4.985  0.2705  0.8048  0.6546
  119OSM   C16S12484   6.526   4.555   4.926 -0.1374  0.5652  0.5004
  119OSM   H16S12485   6.506   4.651   4.874  0.5606  1.3384  1.6098
  119OSM   H16T12486   6.448   4.508   4.991  0.5636 -0.1467  0.8386
  119OSM   C17S12487   6.581   4.454   4.822  0.2580  1.3983  1.3354
  119OSM   H17S12488   6.621   4.373   4.887 -2.3818  0.5355  2.0073
  119OSM   H17T12489   6.662   4.507   4.766  0.6542  1.7634  2.2343
  119OSM   C18S12490   6.466   4.397   4.730  0.1259  0.0466  0.6117
  119OSM   H18S12491   6.502   4.300   4.689  0.3567 -0.3967  1.8117
  119OSM   H18T12492   6.438   4.473   4.653  0.0286 -0.2528  0.3493
  119OSM   H18U12493   6.379   4.368   4.793  0.1129 -2.2778 -0.3805
  119OSM    C1F12494   6.023   4.440   6.239 -0.5692 -0.1202 -0.8796
  119OSM     OF12495   5.915   4.465   6.290  0.0629  0.4199  0.2957
  119OSM    C2F12496   6.032   4.365   6.109 -0.1779 -0.4799 -0.3671
  119OSM    H2F12497   5.955   4.285   6.110 -0.4100 -0.3890 -3.3443
  119OSM    H2G12498   6.131   4.322   6.083  0.2109  0.2238 -0.0863
  119OSM    C3F12499   5.997   4.452   5.990 -0.4724 -0.5179  0.2856
  119OSM    H3F12500   6.076   4.530   5.987  0.6888 -1.6302  1.1078
  119OSM    H3G12501   5.893   4.490   6.001  0.6600  2.7598  0.9125
  119OSM    C4F12502   5.998   4.374   5.860 -0.5207  0.3622  0.0595
  119OSM    H4F12503   5.927   4.289   5.866 -1.4185  0.8784 -2.1705
  119OSM    H4G12504   6.100   4.330   5.852 -0.4534  0.1362  1.8728
  119OSM    C5F12505   5.966   4.458   5.729  0.2455 -0.3476 -0.2111
  119OSM    H5F12506   5.868   4.507   5.749  1.1098  2.0219 -1.4210
  119OSM    H5G12507   5.962   4.378   5.652  0.3685 -0.9429  0.3891
  119OSM    C6F12508   6.054   4.584   5.700  0.1917 -0.3897  0.9297
  119OSM    H6F12509   6.150   4.548   5.657  0.6352  0.9005  0.7847
  119OSM    H6G12510   6.069   4.633   5.799 -0.0296  2.1736 -0.2299
  119OSM    C7F12511   5.996   4.692   5.598  0.1267  0.0269 -0.2443
  119OSM    H7F12512   6.076   4.765   5.573  0.2895  1.4023  3.6422
  119OSM    H7G12513   5.912   4.748   5.645 -0.1318  0.5198 -1.2583
  119OSM    C8F12514   5.932   4.639   5.464  1.2558 -0.3209  0.1848
  119OSM    H8F12515   5.946   4.723   5.392  1.7550  0.1930  0.8792
  119OSM    H8G12516   5.821   4.631   5.464  1.0296  2.1218  0.3030
  119OSM    C9F12517   5.977   4.511   5.401  0.1960  0.3305  0.1805
  119OSM    H9F12518   5.952   4.421   5.458 -1.2590 -0.7464 -2.0217
  119OSM   C10F12519   6.028   4.508   5.279 -0.1792  0.3767  0.1163
  119OSM   H10F12520   6.066   4.414   5.235  0.8296 -0.0969  1.9115
  119OSM   C11F12521   6.047   4.623   5.177 -0.2127  0.8153  0.2192
  119OSM   H11F12522   6.131   4.689   5.208 -0.4948  1.5386 -0.5139
  119OSM   H11G12523   5.955   4.686   5.176 -0.0429  1.1236  1.5830
  119OSM   C12F12524   6.070   4.560   5.029 -0.1662  0.2287 -1.0244
  119OSM   H12F12525   6.024   4.459   5.033  1.4231 -0.5813  4.0659
  119OSM   H12G12526   6.177   4.529   5.031 -0.4721 -0.8555  0.8892
  119OSM   C13F12527   6.035   4.646   4.904  0.4052 -0.5386  0.4574
  119OSM   H13F12528   6.111   4.726   4.890 -0.2467  0.2161  1.1416
  119OSM   H13G12529   5.931   4.684   4.914  1.2294  2.2413 -0.6262
  119OSM   C14F12530   6.046   4.555   4.780 -0.2949 -0.2388  0.5350
  119OSM   H14F12531   6.145   4.504   4.787  1.0533  2.2904  0.9297
  119OSM   H14G12532   6.043   4.627   4.696 -0.9647 -1.4646 -0.5368
  119OSM   C15F12533   5.931   4.464   4.765 -0.3097  0.0951 -0.2606
  119OSM   H15F12534   5.841   4.525   4.789  0.9756  2.3837 -0.9437
  119OSM   H15G12535   5.944   4.378   4.835 -0.0057  1.0854  0.9435
  119OSM   C16F12536   5.935   4.389   4.625 -0.4914  0.4309 -0.4056
  119OSM   H16F12537   6.041   4.371   4.596 -0.3554  1.1068 -0.3610
  119OSM   H16G12538   5.886   4.452   4.547  0.6904  0.1723 -1.3888
  119OSM   C17F12539   5.865   4.251   4.633  0.1849 -0.3671  0.0668
  119OSM   H17F12540   5.764   4.268   4.674  0.3609 -1.1130  0.8558
  119OSM   H17G12541   5.918   4.181   4.701  3.2395  0.2378 -1.4848
  119OSM   C18F12542   5.858   4.194   4.490 -0.4566  0.4251 -0.3968
  119OSM   H18F12543   5.846   4.084   4.501  0.0825  0.5433  1.8311
  119OSM   H18G12544   5.954   4.201   4.435 -0.2761  2.2247  0.0992
  119OSM   H18H12545   5.781   4.245   4.428 -2.6308 -1.8396  0.2676
  120OSM      N12546   0.036   4.358   6.670 -0.4491  0.1220  0.2016
  120OSM    C1512547   0.110   4.268   6.779  0.0537  0.0541 -0.2084
  120OSM   H15A12548   0.202   4.226   6.743  0.0813  0.5031 -0.6629
  120OSM   H15B12549   0.055   4.181   6.813 -1.9029  1.2680 -0.0807
  120OSM   H15C12550   0.130   4.329   6.867 -0.6780 -1.9051  1.4004
  120OSM    C1412551  -0.015   4.253   6.573  0.4611  0.7820 -0.3353
  120OSM   H14A12552  -0.069   4.298   6.490 -0.8638 -0.2488 -0.0651
  120OSM   H14B12553  -0.074   4.182   6.628  1.0124  0.6453  0.0861
  120OSM   H14C12554   0.059   4.185   6.534 -1.4883 -1.8016  0.2730
  120OSM    C1312555  -0.075   4.428   6.725  0.5576  0.0868 -0.1808
  120OSM   H13A12556  -0.142   4.467   6.649 -0.3046  0.7566  0.8869
  120OSM   H13B12557  -0.035   4.512   6.780  0.6276 -0.6973  0.9887
  120OSM   H13C12558  -0.128   4.365   6.795  2.2545 -3.3789 -1.7918
  120OSM    C1212559   0.129   4.454   6.596 -1.5040  0.3279 -0.1376
  120OSM   H12A12560   0.075   4.532   6.545  0.3100  1.7527  0.0235
  120OSM   H12B12561   0.172   4.397   6.515 -1.1496  0.0579  0.2277
  120OSM    C1112562   0.234   4.532   6.679 -0.0401  0.2937  0.5089
  120OSM   H11A12563   0.309   4.577   6.610 -1.3362  0.5463 -0.7694
  120OSM   H11B12564   0.289   4.458   6.741 -0.1494 -1.9229 -1.8414
  120OSM      P12565   0.136   4.770   6.697 -0.1393 -0.0094  0.1443
  120OSM    O1312566   0.015   4.833   6.759 -0.7114  0.5426  0.2913
  120OSM    O1412567   0.264   4.848   6.710  0.1916 -0.1314 -0.0916
  120OSM    O1112568   0.095   4.750   6.546  0.0674  0.2970  0.6258
  120OSM    O1212569   0.164   4.624   6.755  0.1152 -0.6203  0.1238
  120OSM    C1S12570   0.064   4.869   6.471  0.0903  0.1493 -0.3664
  120OSM    H1S12571   0.089   4.965   6.520  0.0692  1.2223 -2.3406
  120OSM    H1T12572  -0.046   4.874   6.452  0.1938  0.1746 -0.9780
  120OSM     NF12573   0.143   5.007   6.275 -0.6171  0.4444 -0.3298
  120OSM    HNF12574   0.091   5.022   6.191 -2.2164 -0.3656  0.4687
  120OSM    C2S12575   0.136   4.870   6.335  0.0465 -0.1152  0.2390
  120OSM    H2S12576   0.242   4.839   6.349 -0.5311 -2.8846 -0.9448
  120OSM    C3S12577   0.068   4.773   6.248  0.2314 -0.2795  1.0550
  120OSM    H3S12578  -0.025   4.820   6.210  2.2370  1.6322 -1.8593
  120OSM     O312579   0.009   4.661   6.316 -0.1247  0.0780 -0.2845
  120OSM    HO312580   0.046   4.673   6.404 -1.1644 -2.4338  0.5906
  120OSM    C4S12581   0.157   4.739   6.134 -0.1170  0.7060  0.1662
  120OSM    H4S12582   0.153   4.809   6.049 -0.4073  1.1401  0.5308
  120OSM    C5S12583   0.228   4.625   6.128 -0.8594 -0.2960  0.4230
  120OSM    H5S12584   0.239   4.562   6.218 -1.2354  0.7666  1.2346
  120OSM    C6S12585   0.304   4.577   6.008  0.3258 -0.0849 -0.7583
  120OSM    H6S12586   0.287   4.467   6.000  0.5903 -0.3942  2.0928
  120OSM    H6T12587   0.413   4.586   6.028  0.2143 -2.4309  1.3486
  120OSM    C7S12588   0.267   4.640   5.874 -0.1684 -0.3993 -0.0292
  120OSM    H7S12589   0.277   4.750   5.871 -0.2822 -0.3680  0.6995
  120OSM    H7T12590   0.169   4.608   5.831 -0.5510  0.9801 -0.2153
  120OSM    C8S12591   0.364   4.574   5.771 -0.0182  0.1993  0.5542
  120OSM    H8S12592   0.327   4.471   5.749 -0.9002  0.7247 -0.5400
  120OSM    H8T12593   0.467   4.570   5.811  0.6713 -2.2575 -1.1957
  120OSM    C9S12594   0.383   4.658   5.643  0.1949  0.1089 -0.0909
  120OSM    H9S12595   0.447   4.748   5.649  2.3367 -1.3469  0.1579
  120OSM    H9T12596   0.281   4.693   5.617  0.1971 -0.1900 -0.5152
  120OSM   C10S12597   0.434   4.591   5.512 -0.0835 -0.4372 -1.1634
  120OSM   H10S12598   0.393   4.489   5.494 -0.4477 -0.0923 -2.4029
  120OSM   H10T12599   0.545   4.596   5.519 -0.2130  3.2079  0.5158
  120OSM   C11S12600   0.398   4.674   5.385 -0.6779  0.3470 -0.2639
  120OSM   H11S12601   0.290   4.694   5.404 -0.4707 -0.4687  2.1599
  120OSM   H11T12602   0.410   4.602   5.301 -0.4951  0.8274 -0.6555
  120OSM   C12S12603   0.477   4.806   5.369 -0.1282 -0.1017 -0.7705
  120OSM   H12S12604   0.581   4.781   5.399  0.4072 -1.3663 -3.3474
  120OSM   H12T12605   0.436   4.889   5.429  0.9957  0.5176 -0.8273
  120OSM   C13S12606   0.487   4.856   5.226 -0.3036 -0.5748  0.3280
  120OSM   H13S12607   0.386   4.867   5.180  0.1317  2.0406 -0.1077
  120OSM   H13T12608   0.540   4.778   5.167  0.0709  0.9890 -1.4779
  120OSM   C14S12609   0.560   4.985   5.186  0.1247 -0.2929  0.3748
  120OSM   H14S12610   0.663   4.984   5.228  0.3933  1.7751 -0.1072
  120OSM   H14T12611   0.513   5.083   5.210 -1.7591 -1.1402  0.2716
  120OSM   C15S12612   0.571   4.990   5.031 -0.2992  0.2315  0.1204
  120OSM   H15S12613   0.468   5.001   4.991  0.3752  3.6528 -1.0159
  120OSM   H15T12614   0.617   4.894   4.999  2.6665  1.5144  0.2906
  120OSM   C16S12615   0.650   5.114   4.989  0.4100 -0.3829  0.1281
  120OSM   H16S12616   0.741   5.129   5.051  1.6486 -0.7507 -1.5105
  120OSM   H16T12617   0.597   5.212   4.993  4.8759  2.2779  1.9664
  120OSM   C17S12618   0.705   5.116   4.850  0.2300  0.3526  0.5306
  120OSM   H17S12619   0.770   5.026   4.839  0.7252  0.7046  0.5323
  120OSM   H17T12620   0.760   5.212   4.835 -0.3136  0.7991  1.3566
  120OSM   C18S12621   0.601   5.123   4.735 -0.4616  0.0155 -0.0715
  120OSM   H18S12622   0.529   5.047   4.771 -2.0527  1.5809  0.2196
  120OSM   H18T12623   0.647   5.100   4.637  0.3966  1.3215 -0.0010
  120OSM   H18U12624   0.546   5.220   4.732  0.0721  0.3127 -0.5136
  120OSM    C1F12625   0.201   5.110   6.336 -0.1777  0.3262  0.1425
  120OSM     OF12626   0.261   5.099   6.440  0.0334  0.5151  0.6008
  120OSM    C2F12627   0.188   5.242   6.261 -0.0374  0.0735 -0.6213
  120OSM    H2F12628   0.101   5.291   6.310 -0.0242 -0.4654 -0.0450
  120OSM    H2G12629   0.160   5.222   6.155  1.9200 -2.7033 -0.7049
  120OSM    C3F12630   0.314   5.323   6.251  0.4341 -0.0721 -0.4739
  120OSM    H3F12631   0.397   5.255   6.223  0.9083  0.1049  0.4540
  120OSM    H3G12632   0.340   5.358   6.354 -1.2168 -0.7982  0.2188
  120OSM    C4F12633   0.318   5.442   6.150  0.0150  1.1785  0.0938
  120OSM    H4F12634   0.416   5.491   6.171 -0.8386  2.3750  1.3930
  120OSM    H4G12635   0.250   5.525   6.177 -3.5090  0.1274 -4.3145
  120OSM    C5F12636   0.302   5.402   6.004  0.6511 -0.0868  0.6022
  120OSM    H5F12637   0.196   5.379   5.983  0.5175  0.5319  0.5813
  120OSM    H5G12638   0.376   5.321   5.986  1.4522  0.5393  0.9940
  120OSM    C6F12639   0.336   5.524   5.914  0.2619  0.5885  0.4559
  120OSM    H6F12640   0.425   5.569   5.964  0.0005  1.3465  0.2481
  120OSM    H6G12641   0.258   5.602   5.904  0.8748  1.1809  0.1993
  120OSM    C7F12642   0.357   5.483   5.768 -0.4425 -0.0299  0.2634
  120OSM    H7F12643   0.319   5.568   5.706 -2.2224  0.2780  1.7018
  120OSM    H7G12644   0.300   5.390   5.748  2.3884 -1.4598 -1.8276
  120OSM    C8F12645   0.502   5.461   5.724 -0.2738 -0.4630 -0.3666
  120OSM    H8F12646   0.494   5.419   5.621 -0.8518  1.0971 -0.9913
  120OSM    H8G12647   0.555   5.397   5.797  1.2267  2.0047  0.8205
  120OSM    C9F12648   0.592   5.584   5.733 -0.5377  0.3948 -0.2154
  120OSM    H9F12649   0.626   5.597   5.837 -1.3252 -1.3858  0.2987
  120OSM   C10F12650   0.632   5.668   5.634 -0.2233  0.3972 -0.2783
  120OSM   H10F12651   0.704   5.747   5.658 -1.0977  1.3514 -0.7432
  120OSM   C11F12652   0.594   5.666   5.484  0.4822  0.1618 -0.2838
  120OSM   H11F12653   0.505   5.733   5.481 -0.1545 -0.5931  1.0497
  120OSM   H11G12654   0.555   5.568   5.447 -1.4598  1.1139 -0.8716
  120OSM   C12F12655   0.697   5.719   5.398  0.0947  0.2552  0.3748
  120OSM   H12F12656   0.792   5.662   5.391  0.1798  0.3169  1.0160
  120OSM   H12G12657   0.733   5.818   5.434 -0.4804  1.0217 -1.0437
  120OSM   C13F12658   0.663   5.752   5.245  0.5726 -0.3002 -0.4709
  120OSM   H13F12659   0.586   5.832   5.248  2.0037  1.1134  1.3969
  120OSM   H13G12660   0.631   5.657   5.198 -1.7471  0.1767  0.0528
  120OSM   C14F12661   0.783   5.811   5.169 -0.3459  0.1056  0.4117
  120OSM   H14F12662   0.833   5.720   5.128 -2.0516 -2.2886  3.2632
  120OSM   H14G12663   0.851   5.875   5.229  0.4993  0.1320 -0.5425
  120OSM   C15F12664   0.738   5.906   5.059  0.4534 -0.5889  0.0034
  120OSM   H15F12665   0.672   5.987   5.098 -0.3374 -1.4732  0.5294
  120OSM   H15G12666   0.665   5.853   4.994 -2.3749  0.7061  1.8875
  120OSM   C16F12667   0.854   5.959   4.980 -0.1273  0.4295  0.0803
  120OSM   H16F12668   0.891   5.876   4.915 -2.1900  0.0380 -0.6505
  120OSM   H16G12669   0.935   5.994   5.048  0.0455  0.8437 -0.3362
  120OSM   C17F12670   0.817   6.073   4.884  0.8668 -0.5293 -0.0355
  120OSM   H17F12671   0.744   6.038   4.807 -0.9285 -1.5068  2.0176
  120OSM   H17G12672   0.912   6.106   4.838  1.3578  0.9652  1.9292
  120OSM   C18F12673   0.753   6.196   4.951 -0.1930 -0.7833  0.4281
  120OSM   H18F12674   0.670   6.172   5.021 -2.3346 -2.9394 -2.5921
  120OSM   H18G12675   0.724   6.273   4.876  0.2064 -0.8858  0.1687
  120OSM   H18H12676   0.836   6.245   5.006 -2.0667  2.3279  0.7893
  121OSM      N12677   3.920   5.289   6.912  0.1814  0.5236  0.7915
  121OSM    C1512678   4.062   5.215   6.923 -0.1610 -0.1947  0.2752
  121OSM   H15A12679   4.099   5.214   7.025  1.1796  1.7455 -0.1322
  121OSM   H15B12680   4.136   5.270   6.866 -0.2123  1.0343  1.3374
  121OSM   H15C12681   4.066   5.113   6.888 -1.5858  0.0017 -0.5206
  121OSM    C1412682   3.813   5.201   6.962  0.4001  0.3078  0.0848
  121OSM   H14A12683   3.785   5.122   6.893  1.4059  0.8782 -1.0269
  121OSM   H14B12684   3.719   5.250   6.982 -0.2069 -0.1988 -1.3670
  121OSM   H14C12685   3.851   5.150   7.048 -0.2512  1.3901  1.0407
  121OSM    C1312686   3.942   5.407   7.001  0.0975 -0.4177 -1.0025
  121OSM   H13A12687   3.850   5.462   7.013  1.1301  1.2677 -0.5203
  121OSM   H13B12688   4.027   5.467   6.974 -1.1501  1.4338 -1.0031
  121OSM   H13C12689   3.956   5.370   7.102  1.1578 -0.7701 -1.2700
  121OSM    C1212690   3.897   5.325   6.764  0.4590 -0.0113  0.0084
  121OSM   H12A12691   3.801   5.368   6.740  1.8018  1.5458 -3.3119
  121OSM   H12B12692   3.885   5.237   6.702 -0.6982 -0.7312  1.2150
  121OSM    C1112693   3.996   5.413   6.700 -0.1695 -0.3142  0.0048
  121OSM   H11A12694   4.015   5.506   6.759  1.7487 -0.7016  0.0336
  121OSM   H11B12695   3.954   5.448   6.603  0.7103  1.8251  0.3301
  121OSM      P12696   4.164   5.270   6.548  0.2270  0.0846  0.1547
  121OSM    O1312697   4.307   5.241   6.551  0.6095 -0.1197  0.3047
  121OSM    O1412698   4.070   5.154   6.545 -0.0351 -0.1173 -0.1243
  121OSM    O1112699   4.125   5.363   6.431  0.4312  0.4336  0.0137
  121OSM    O1212700   4.122   5.354   6.672  0.6099  0.0334 -0.4488
  121OSM    C1S12701   4.114   5.308   6.302 -0.0474  0.0189  0.2714
  121OSM    H1S12702   4.010   5.277   6.281  0.2423  0.4949 -2.2044
  121OSM    H1T12703   4.182   5.221   6.286 -1.4589 -1.0235 -0.2892
  121OSM     NF12704   4.100   5.352   6.056  0.2370 -0.0557 -0.1311
  121OSM    HNF12705   4.179   5.333   5.999 -0.3084 -2.5260 -0.1779
  121OSM    C2S12706   4.134   5.416   6.186  0.3743  0.7076 -0.0408
  121OSM    H2S12707   4.059   5.495   6.207 -0.9797 -0.6260  0.3332
  121OSM    C3S12708   4.277   5.484   6.195  1.0024  0.0400 -0.1740
  121OSM    H3S12709   4.347   5.399   6.186  1.2409  0.1921  0.2213
  121OSM     O312710   4.299   5.555   6.314 -0.1190 -0.6833  0.0321
  121OSM    HO312711   4.251   5.522   6.390  1.0563 -0.2751  0.9766
  121OSM    C4S12712   4.302   5.563   6.068  0.1490 -0.1894  0.3044
  121OSM    H4S12713   4.362   5.510   5.992  1.7641  1.6638  0.1969
  121OSM    C5S12714   4.266   5.693   6.046 -0.9726  0.3618  0.1737
  121OSM    H5S12715   4.232   5.746   6.136  2.4356 -0.7343  2.3234
  121OSM    C6S12716   4.293   5.777   5.927  0.8001 -0.0134 -0.9623
  121OSM    H6S12717   4.375   5.841   5.968  1.8964 -2.2254  0.4953
  121OSM    H6T12718   4.202   5.829   5.890  1.2924  0.5056 -1.4717
  121OSM    C7S12719   4.354   5.705   5.810 -0.0519 -0.4015 -0.2559
  121OSM    H7S12720   4.292   5.617   5.783 -0.3355 -0.8879  1.8191
  121OSM    H7T12721   4.451   5.660   5.838 -0.0165 -1.1134 -1.4324
  121OSM    C8S12722   4.365   5.789   5.683  0.2262  1.0728 -0.0674
  121OSM    H8S12723   4.441   5.869   5.695  1.8122 -0.4724  0.6365
  121OSM    H8T12724   4.268   5.842   5.674 -0.2160  0.0620 -1.7970
  121OSM    C9S12725   4.388   5.699   5.557 -0.3057 -0.3830  0.7690
  121OSM    H9S12726   4.298   5.638   5.537  0.1584 -0.9711  0.4485
  121OSM    H9T12727   4.469   5.624   5.571 -1.8449 -2.1023  0.8650
  121OSM   C10S12728   4.424   5.787   5.433  0.6579 -0.1563  0.0713
  121OSM   H10S12729   4.508   5.858   5.449  0.8571  0.0049 -1.5384
  121OSM   H10T12730   4.332   5.845   5.410 -0.3266 -0.2785  3.2205
  121OSM   C11S12731   4.452   5.698   5.308  0.4166  0.1289  0.0185
  121OSM   H11S12732   4.386   5.609   5.300  0.2528 -0.0464  2.5769
  121OSM   H11T12733   4.551   5.648   5.315  1.1996  1.4349 -1.0157
  121OSM   C12S12734   4.481   5.778   5.175 -0.1217  0.5938  0.2651
  121OSM   H12S12735   4.544   5.717   5.107 -0.3017 -0.2396  0.8240
  121OSM   H12T12736   4.538   5.872   5.189  0.1348  0.7162 -1.4054
  121OSM   C13S12737   4.343   5.804   5.108  0.8376 -0.3265 -0.4236
  121OSM   H13S12738   4.283   5.885   5.155  1.5334 -1.0726  1.8806
  121OSM   H13T12739   4.289   5.710   5.132  0.6382 -0.1822 -0.2980
  121OSM   C14S12740   4.349   5.823   4.957 -0.6183 -0.6889 -0.1981
  121OSM   H14S12741   4.404   5.742   4.905 -1.3776 -0.4654 -1.3996
  121OSM   H14T12742   4.394   5.918   4.923 -3.2761  0.3816 -1.0234
  121OSM   C15S12743   4.202   5.829   4.905  0.3391 -0.0623  0.3101
  121OSM   H15S12744   4.130   5.886   4.967 -0.9614  1.2051 -2.2222
  121OSM   H15T12745   4.154   5.728   4.908  0.6682 -0.2045  1.1964
  121OSM   C16S12746   4.183   5.874   4.760  0.6190  0.0787  0.6773
  121OSM   H16S12747   4.251   5.819   4.691 -0.5466 -0.0575 -0.4147
  121OSM   H16T12748   4.211   5.980   4.744 -2.0404  0.8021  0.3307
  121OSM   C17S12749   4.034   5.845   4.704 -0.2624 -0.6530 -0.5056
  121OSM   H17S12750   4.017   5.869   4.597  1.3979 -0.9678 -0.8644
  121OSM   H17T12751   3.964   5.914   4.756  1.4775  1.6364 -1.0191
  121OSM   C18S12752   3.975   5.702   4.725  0.3272 -0.4383 -0.6710
  121OSM   H18S12753   3.937   5.700   4.830 -0.7773 -1.0044 -1.0656
  121OSM   H18T12754   4.039   5.613   4.709  0.2295 -0.7780  0.6962
  121OSM   H18U12755   3.886   5.693   4.660  1.0322 -0.7841 -1.6099
  121OSM    C1F12756   3.982   5.319   6.010 -0.2672  0.0206  0.1116
  121OSM     OF12757   3.878   5.359   6.059  0.4924  0.0285  0.0998
  121OSM    C2F12758   3.989   5.239   5.887  0.4408  0.3481  0.2011
  121OSM    H2F12759   4.031   5.142   5.922  0.8345  1.2994  2.4975
  121OSM    H2G12760   4.053   5.303   5.822 -0.2532  3.2221  2.1442
  121OSM    C3F12761   3.852   5.212   5.829  0.1152  0.4965  0.8631
  121OSM    H3F12762   3.801   5.305   5.797 -2.3119 -0.3889  1.9492
  121OSM    H3G12763   3.790   5.153   5.899 -1.2910 -0.9555 -1.4502
  121OSM    C4F12764   3.871   5.124   5.700  0.4388 -0.8169 -0.3061
  121OSM    H4F12765   3.916   5.028   5.732  2.3201  0.5649  1.5159
  121OSM    H4G12766   3.944   5.183   5.640  0.9619 -1.9450 -0.8206
  121OSM    C5F12767   3.732   5.087   5.634 -0.1991  0.2045 -0.2857
  121OSM    H5F12768   3.670   5.170   5.594 -3.4109 -1.8624  0.0199
  121OSM    H5G12769   3.672   5.056   5.722 -0.3844  0.1166 -0.4432
  121OSM    C6F12770   3.739   4.971   5.530 -0.5201  0.3009  0.2263
  121OSM    H6F12771   3.638   4.927   5.517 -0.2873 -0.0438 -0.4408
  121OSM    H6G12772   3.803   4.889   5.569 -1.7239 -0.3924  0.8030
  121OSM    C7F12773   3.780   5.028   5.391  0.0211  0.0511  0.1734
  121OSM    H7F12774   3.887   5.045   5.414  0.1774 -1.6990  0.9185
  121OSM    H7G12775   3.734   5.127   5.369 -0.6251  0.1282  1.7372
  121OSM    C8F12776   3.761   4.935   5.270  0.0208  0.2097 -0.3318
  121OSM    H8F12777   3.804   4.839   5.304 -0.4375 -0.1628 -0.7883
  121OSM    H8G12778   3.818   4.966   5.179 -1.7028 -0.4447 -1.6972
  121OSM    C9F12779   3.618   4.916   5.228  0.0730 -0.2899 -0.6070
  121OSM    H9F12780   3.554   4.862   5.298 -0.5776  1.0486 -0.1408
  121OSM   C10F12781   3.576   4.937   5.101 -0.1289  0.1670 -0.2100
  121OSM   H10F12782   3.472   4.919   5.069 -0.3490 -0.3498  0.7787
  121OSM   C11F12783   3.660   4.998   4.989  0.8115  0.2295 -0.2915
  121OSM   H11F12784   3.759   5.037   5.022  1.8219 -1.5693 -1.0465
  121OSM   H11G12785   3.609   5.085   4.943  0.0101 -0.5656 -0.9449
  121OSM   C12F12786   3.699   4.899   4.886 -0.3168  0.7398 -0.1288
  121OSM   H12F12787   3.606   4.867   4.834 -0.2755 -1.0838  0.8103
  121OSM   H12G12788   3.741   4.802   4.920 -1.8001 -0.3676 -1.2856
  121OSM   C13F12789   3.807   4.953   4.783  0.0820 -0.0247 -0.7457
  121OSM   H13F12790   3.836   4.874   4.711 -1.0458 -0.2250 -0.9972
  121OSM   H13G12791   3.894   4.986   4.843  0.6121 -0.7402 -1.1002
  121OSM   C14F12792   3.754   5.067   4.705  0.2261 -0.3081 -0.1714
  121OSM   H14F12793   3.734   5.143   4.784  1.6166  0.4869 -0.5569
  121OSM   H14G12794   3.658   5.033   4.661 -0.6095 -0.2268  1.5250
  121OSM   C15F12795   3.842   5.129   4.595 -0.6098  0.0033 -0.3689
  121OSM   H15F12796   3.944   5.139   4.638  0.8046 -2.2389 -2.8501
  121OSM   H15G12797   3.803   5.232   4.585  0.0060  0.1772 -1.1260
  121OSM   C16F12798   3.844   5.048   4.461 -0.5503 -0.1057  0.2452
  121OSM   H16F12799   3.745   5.049   4.412 -0.4090 -0.5683 -0.0504
  121OSM   H16G12800   3.864   4.941   4.481 -0.1348 -0.1779 -0.5415
  121OSM   C17F12801   3.966   5.096   4.385  0.7794 -0.4044 -0.1592
  121OSM   H17F12802   4.061   5.054   4.424  0.0098 -1.8656  0.2150
  121OSM   H17G12803   3.985   5.205   4.381 -0.4458 -0.2008 -0.8367
  121OSM   C18F12804   3.959   5.068   4.237 -0.8408 -0.3872  0.7660
  121OSM   H18F12805   3.888   5.129   4.178  0.7751  0.7667 -0.0672
  121OSM   H18G12806   3.935   4.962   4.214 -2.5085 -0.1411  1.2667
  121OSM   H18H12807   4.059   5.083   4.190 -1.2588 -2.3366 -0.9007
  122OSM      N12808   1.467   0.716   6.800  0.0955  0.3348 -0.3797
  122OSM    C1512809   1.456   0.766   6.664  0.6843 -0.5777  0.3170
  122OSM   H15A12810   1.364   0.822   6.652 -0.0480 -0.7525  3.8934
  122OSM   H15B12811   1.467   0.696   6.583 -2.1101  0.5602 -1.1761
  122OSM   H15C12812   1.536   0.832   6.633 -1.0676  0.1755 -3.0266
  122OSM    C1412813   1.359   0.623   6.838  0.0196  0.3327  0.0409
  122OSM   H14A12814   1.260   0.661   6.816 -0.0404 -1.6354 -4.1438
  122OSM   H14B12815   1.375   0.577   6.934  1.9052  0.7776 -0.0294
  122OSM   H14C12816   1.368   0.533   6.778  0.7046  0.0097  0.6095
  122OSM    C1312817   1.600   0.658   6.828 -1.0379  0.5861 -0.0088
  122OSM   H13A12818   1.677   0.734   6.830 -1.8080  1.3716  1.8179
  122OSM   H13B12819   1.628   0.574   6.766  1.4318  0.4175  1.1847
  122OSM   H13C12820   1.604   0.614   6.927 -1.1415  0.4869 -0.0494
  122OSM    C1212821   1.449   0.838   6.888 -0.2876  0.6894  0.2863
  122OSM   H12A12822   1.505   0.918   6.842  0.6168 -1.3355 -2.4156
  122OSM   H12B12823   1.495   0.817   6.983  0.0448  0.8864  0.1691
  122OSM    C1112824   1.308   0.895   6.925 -0.3916 -0.0771  0.1204
  122OSM   H11A12825   1.322   0.991   6.979  1.0916  0.9437 -1.9473
  122OSM   H11B12826   1.258   0.820   6.991  0.0110  0.0689  0.5989
  122OSM      P12827   1.203   1.050   6.741  0.6214 -0.0765  0.1261
  122OSM    O1312828   1.055   1.063   6.729 -0.2053  0.3772 -0.7755
  122OSM    O1412829   1.286   1.155   6.805  0.5518  0.3095  0.6289
  122OSM    O1112830   1.266   1.035   6.597  0.2044  0.3157 -0.5550
  122OSM    O1212831   1.231   0.913   6.808 -0.2503  0.0633 -0.7517
  122OSM    C1S12832   1.195   0.942   6.508  0.1908 -0.2610  0.6031
  122OSM    H1S12833   1.085   0.956   6.516 -0.2670 -2.9047 -0.1432
  122OSM    H1T12834   1.228   0.840   6.533  2.2845  0.0220 -0.7322
  122OSM     NF12835   1.119   0.920   6.270 -0.3070  0.3073 -0.1351
  122OSM    HNF12836   1.128   0.834   6.220  0.1237  0.6910 -0.7396
  122OSM    C2S12837   1.225   0.968   6.356 -0.1531 -0.3422  0.0634
  122OSM    H2S12838   1.236   1.078   6.341  0.1704 -0.2135  1.1360
  122OSM    C3S12839   1.360   0.905   6.332 -0.6190  0.2438  0.3630
  122OSM    H3S12840   1.361   0.794   6.334  1.1869  0.2466  2.3683
  122OSM     O312841   1.459   0.939   6.432  0.2682 -0.3816  0.3912
  122OSM    HO312842   1.410   0.987   6.499  0.4395  2.1910 -1.1784
  122OSM    C4S12843   1.404   0.947   6.189 -0.1658 -0.5279  0.3452
  122OSM    H4S12844   1.367   0.884   6.107  0.5684  1.6804 -1.8095
  122OSM    C5S12845   1.478   1.055   6.160  0.8042  0.1907 -0.2060
  122OSM    H5S12846   1.493   1.121   6.247 -0.6440 -2.3703  2.1461
  122OSM    C6S12847   1.525   1.096   6.017 -0.3324 -0.1779  0.2287
  122OSM    H6S12848   1.636   1.096   6.030 -0.4905 -1.7317  2.0159
  122OSM    H6T12849   1.485   1.196   5.993 -0.2763  0.3423  2.1461
  122OSM    C7S12850   1.482   1.009   5.901  0.5703  0.4236  0.6504
  122OSM    H7S12851   1.371   1.006   5.907  0.5039  2.6868  2.1162
  122OSM    H7T12852   1.515   0.904   5.910 -0.3175  0.2381  2.2601
  122OSM    C8S12853   1.527   1.063   5.770 -0.3073 -0.7718  0.6673
  122OSM    H8S12854   1.636   1.084   5.773 -0.8150  2.7994 -0.7206
  122OSM    H8T12855   1.478   1.153   5.727  1.9435 -0.2970 -1.1513
  122OSM    C9S12856   1.518   0.952   5.663  0.5931 -0.6483  0.4506
  122OSM    H9S12857   1.411   0.926   5.650  0.0826  1.7702 -0.7074
  122OSM    H9T12858   1.575   0.865   5.701  0.7697 -1.0885 -0.7802
  122OSM   C10S12859   1.576   0.998   5.534  0.3757 -0.3102  0.1405
  122OSM   H10S12860   1.679   1.034   5.554  0.1751  0.6865 -0.5128
  122OSM   H10T12861   1.518   1.089   5.507  2.3067  0.6741 -0.8873
  122OSM   C11S12862   1.566   0.899   5.422 -0.9636  0.3691  0.0985
  122OSM   H11S12863   1.479   0.831   5.416  1.3586 -2.7175 -1.8698
  122OSM   H11T12864   1.648   0.825   5.425 -3.3042 -2.5754 -2.3173
  122OSM   C12S12865   1.581   0.971   5.292  0.3913  0.1551  0.5962
  122OSM   H12S12866   1.666   1.042   5.299 -1.5959  2.7135  0.2369
  122OSM   H12T12867   1.489   1.030   5.274  0.4176 -0.1998 -0.8071
  122OSM   C13S12868   1.602   0.871   5.172 -0.6744  0.1150 -0.4886
  122OSM   H13S12869   1.531   0.789   5.197  1.3182 -1.1173  1.4760
  122OSM   H13T12870   1.699   0.818   5.184 -0.9920 -0.3419  0.1036
  122OSM   C14S12871   1.585   0.941   5.036  0.5476 -0.1867 -0.4384
  122OSM   H14S12872   1.656   1.023   5.013 -0.4948  1.2364  1.1609
  122OSM   H14T12873   1.492   1.002   5.038  0.7975  0.2584 -1.6978
  122OSM   C15S12874   1.558   0.837   4.921  0.0864  0.2868 -0.1394
  122OSM   H15S12875   1.555   0.882   4.819  0.0245 -1.2079 -0.8334
  122OSM   H15T12876   1.456   0.793   4.936  0.4204 -1.9110 -3.2404
  122OSM   C16S12877   1.668   0.722   4.917  0.6744  0.0168  0.0500
  122OSM   H16S12878   1.677   0.670   5.015  2.7281  2.4338  1.2881
  122OSM   H16T12879   1.758   0.786   4.905  0.4531 -0.0918 -3.0536
  122OSM   C17S12880   1.641   0.641   4.791  0.1925  0.6084  0.0720
  122OSM   H17S12881   1.581   0.693   4.713 -0.5591  2.1139  1.5818
  122OSM   H17T12882   1.571   0.562   4.828 -0.4502  1.5152  0.8647
  122OSM   C18S12883   1.764   0.581   4.725 -0.1596 -0.1359 -0.6769
  122OSM   H18S12884   1.824   0.534   4.806 -0.8395  1.0150  0.5260
  122OSM   H18T12885   1.824   0.664   4.683  1.6667  0.3652  2.6328
  122OSM   H18U12886   1.741   0.509   4.643  1.2175 -0.4090 -0.8523
  122OSM    C1F12887   0.999   0.981   6.262  0.5655  0.2486 -0.6445
  122OSM     OF12888   0.987   1.094   6.309  1.1196 -0.7720  0.2826
  122OSM    C2F12889   0.890   0.902   6.193  0.8931 -0.1035 -0.3341
  122OSM    H2F12890   0.856   0.841   6.280 -1.5870  3.0812  1.1376
  122OSM    H2G12891   0.922   0.834   6.111  0.6240  0.7267 -1.1509
  122OSM    C3F12892   0.773   0.984   6.140  0.7089  0.4312  0.3195
  122OSM    H3F12893   0.809   1.048   6.057  3.6344 -0.4778  0.7763
  122OSM    H3G12894   0.736   1.059   6.212  0.2069  1.0994 -0.6094
  122OSM    C4F12895   0.666   0.885   6.091  0.2378 -0.5587 -0.2122
  122OSM    H4F12896   0.631   0.829   6.180  1.9643 -0.1751  0.7575
  122OSM    H4G12897   0.724   0.820   6.022  1.7260  1.5046 -1.0102
  122OSM    C5F12898   0.543   0.953   6.034  0.4349 -0.7090  0.4872
  122OSM    H5F12899   0.499   1.019   6.112  2.0459  0.5862  0.3498
  122OSM    H5G12900   0.464   0.881   6.007 -0.5641  0.2776  0.7029
  122OSM    C6F12901   0.584   1.035   5.913  0.5610 -0.3225 -0.6905
  122OSM    H6F12902   0.666   0.981   5.862 -1.3646 -0.0031 -4.4833
  122OSM    H6G12903   0.619   1.133   5.953 -1.1847  1.6035 -3.4425
  122OSM    C7F12904   0.465   1.072   5.807 -0.8864 -0.0826 -0.1915
  122OSM    H7F12905   0.375   1.107   5.862 -1.8023 -0.8289 -1.1676
  122OSM    H7G12906   0.416   0.986   5.754 -1.2546 -0.2993  0.4904
  122OSM    C8F12907   0.500   1.199   5.724  0.8416 -0.3238  0.5289
  122OSM    H8F12908   0.601   1.170   5.688  0.5577  0.1120 -0.6609
  122OSM    H8G12909   0.505   1.286   5.794 -0.4478  2.6716 -2.8174
  122OSM    C9F12910   0.393   1.225   5.621 -0.2909  0.4676 -0.1618
  122OSM    H9F12911   0.332   1.315   5.634 -2.2425 -0.5965 -1.5100
  122OSM   C10F12912   0.386   1.159   5.503  0.2873  0.0524  0.1127
  122OSM   H10F12913   0.306   1.187   5.433 -0.3682  2.5095  1.7023
  122OSM   C11F12914   0.476   1.041   5.467  0.0906  0.4055  0.2342
  122OSM   H11F12915   0.406   0.956   5.452 -0.3407  0.7829  0.0688
  122OSM   H11G12916   0.548   1.014   5.547  0.7017 -3.3758 -1.3845
  122OSM   C12F12917   0.572   1.078   5.352 -0.2436 -0.0276 -0.3269
  122OSM   H12F12918   0.634   0.988   5.331  0.3300  0.5376 -1.0992
  122OSM   H12G12919   0.631   1.162   5.394  0.2379 -0.6689  0.3233
  122OSM   C13F12920   0.502   1.115   5.224  0.5254  0.2438  0.9082
  122OSM   H13F12921   0.437   1.204   5.232 -1.4254 -0.8236 -1.5608
  122OSM   H13G12922   0.431   1.034   5.196 -1.7650  2.2556  0.6274
  122OSM   C14F12923   0.605   1.131   5.104 -0.2689  0.3157  0.0338
  122OSM   H14F12924   0.696   1.182   5.141  0.2578 -1.7330  1.8179
  122OSM   H14G12925   0.565   1.207   5.034 -1.3465  0.0818  0.3764
  122OSM   C15F12926   0.630   0.994   5.038 -0.3524  0.0781 -0.7659
  122OSM   H15F12927   0.558   0.978   4.955 -0.7326  1.2093 -0.6724
  122OSM   H15G12928   0.601   0.913   5.107  0.8786  0.2093 -0.0627
  122OSM   C16F12929   0.775   0.980   4.995  0.0954  0.0721  0.2128
  122OSM   H16F12930   0.803   0.881   5.036 -1.7580  0.2051  1.9328
  122OSM   H16G12931   0.832   1.062   5.043 -0.2128  0.4014  0.0179
  122OSM   C17F12932   0.795   1.018   4.845 -0.1221  0.4335  0.0393
  122OSM   H17F12933   0.767   0.929   4.784 -1.8569  0.0168  1.3717
  122OSM   H17G12934   0.900   1.039   4.816  0.0143  0.4658  0.5580
  122OSM   C18F12935   0.716   1.135   4.788  0.8441 -0.5616  0.3936
  122OSM   H18F12936   0.738   1.235   4.832  1.6964 -0.3292 -0.5163
  122OSM   H18G12937   0.608   1.110   4.802  0.6542 -0.0942 -0.1521
  122OSM   H18H12938   0.722   1.151   4.678  1.1606 -3.3846 -0.0523
  123OSM      N12939   4.414   3.471   1.876 -0.6215  0.1862  0.0744
  123OSM    C1512940   4.555   3.515   1.859  0.2058 -0.4524  0.4981
  123OSM   H15A12941   4.617   3.431   1.833 -0.2019 -0.7901  0.6146
  123OSM   H15B12942   4.591   3.571   1.945  0.1142  2.0264 -0.9746
  123OSM   H15C12943   4.553   3.585   1.777 -1.3395  0.0252  0.9190
  123OSM    C1412944   4.365   3.413   1.753  0.4092 -0.1637  0.6525
  123OSM   H14A12945   4.260   3.389   1.762  0.6159 -1.4129 -0.0446
  123OSM   H14B12946   4.415   3.320   1.728  3.1685  1.2995  0.3997
  123OSM   H14C12947   4.375   3.483   1.671  0.9129 -0.6317  0.3010
  123OSM    C1312948   4.406   3.363   1.976 -0.4604  0.7618 -0.2568
  123OSM   H13A12949   4.306   3.326   1.993  0.1163 -0.3828  0.7573
  123OSM   H13B12950   4.427   3.402   2.074 -1.3168 -0.6715  0.5350
  123OSM   H13C12951   4.482   3.288   1.958 -1.8937 -0.4211 -1.8564
  123OSM    C1212952   4.339   3.591   1.925  0.4811  0.1076 -0.2004
  123OSM   H12A12953   4.384   3.644   2.007 -0.8613  1.1103 -0.0827
  123OSM   H12B12954   4.238   3.562   1.948  0.8145 -1.0869 -0.1451
  123OSM    C1112955   4.302   3.708   1.823  0.1255 -0.0234  0.1702
  123OSM   H11A12956   4.379   3.704   1.743  1.6998 -1.8963  1.6693
  123OSM   H11B12957   4.313   3.803   1.879 -2.6868  0.3867  0.1674
  123OSM      P12958   4.085   3.829   1.748  0.0493  0.2449 -0.0907
  123OSM    O1312959   4.168   3.920   1.669 -0.4766 -0.0586  0.1208
  123OSM    O1412960   3.956   3.791   1.685 -0.1751 -0.1740  0.0760
  123OSM    O1112961   4.050   3.886   1.892  0.0532  0.6896  0.5627
  123OSM    O1212962   4.162   3.696   1.776  0.4067  0.2477 -0.3145
  123OSM    C1S12963   3.955   3.812   1.975 -0.6602 -0.7746 -0.0368
  123OSM    H1S12964   3.969   3.702   1.972  2.2815 -0.4632 -1.8173
  123OSM    H1T12965   3.851   3.837   1.946 -0.9328  0.4069  1.7812
  123OSM     NF12966   3.885   3.777   2.209 -0.4543 -0.4705 -1.2779
  123OSM    HNF12967   3.790   3.797   2.231 -0.1242 -0.2735  0.0705
  123OSM    C2S12968   3.960   3.868   2.121  0.8538 -0.6656 -0.5626
  123OSM    H2S12969   4.064   3.866   2.160 -0.0772  1.9855  2.4729
  123OSM    C3S12970   3.925   4.017   2.134  0.3958  0.1854  0.2072
  123OSM    H3S12971   3.824   4.031   2.089  1.6014  1.2304 -2.3485
  123OSM     O312972   3.995   4.102   2.049 -0.3905  0.1920 -0.3009
  123OSM    HO312973   4.026   4.038   1.984 -0.6535 -1.5656  1.2150
  123OSM    C4S12974   3.926   4.070   2.277 -0.1760 -0.0822  0.1700
  123OSM    H4S12975   4.028   4.079   2.319 -0.1675 -3.4474  1.1370
  123OSM    C5S12976   3.820   4.108   2.354 -0.5340 -0.0675 -0.0894
  123OSM    H5S12977   3.715   4.107   2.320 -0.8874  0.2846  0.9487
  123OSM    C6S12978   3.839   4.159   2.495  0.1166 -0.1853 -0.0668
  123OSM    H6S12979   3.751   4.205   2.547  1.5729  0.2480  2.1739
  123OSM    H6T12980   3.921   4.234   2.495  0.5132 -0.6172 -0.9606
  123OSM    C7S12981   3.880   4.050   2.592  1.0054  0.6175 -0.1712
  123OSM    H7S12982   3.884   4.100   2.692  0.9241 -0.8345  0.5884
  123OSM    H7T12983   3.982   4.008   2.583 -0.0474 -1.9022 -1.3580
  123OSM    C8S12984   3.778   3.936   2.606 -0.3771 -0.1503  1.2486
  123OSM    H8S12985   3.768   3.883   2.509  0.4833  2.5879 -0.4657
  123OSM    H8T12986   3.681   3.990   2.615 -0.4105 -0.3357  2.1197
  123OSM    C9S12987   3.802   3.847   2.726  0.7868 -0.0906  0.0124
  123OSM    H9S12988   3.910   3.821   2.734  0.4047 -1.6261  0.5587
  123OSM    H9T12989   3.743   3.753   2.721  1.3753 -0.4582 -0.2228
  123OSM   C10S12990   3.748   3.910   2.853  0.1764 -0.4047 -0.0179
  123OSM   H10S12991   3.645   3.934   2.820  0.1883  1.2195  1.0436
  123OSM   H10T12992   3.805   4.001   2.880  2.0613 -1.8451  1.0747
  123OSM   C11S12993   3.737   3.804   2.967  0.0648 -0.0689 -0.1847
  123OSM   H11S12994   3.842   3.774   2.983  0.0455 -0.9352 -1.5373
  123OSM   H11T12995   3.693   3.715   2.918 -0.5669 -0.5771  1.2515
  123OSM   C12S12996   3.657   3.858   3.085  0.4023 -0.1773 -0.1228
  123OSM   H12S12997   3.549   3.861   3.060 -0.5237  1.9402  3.3188
  123OSM   H12T12998   3.691   3.961   3.109  0.7880  0.1541 -1.9677
  123OSM   C13S12999   3.672   3.769   3.210  0.3833  0.0335 -0.9014
  123OSM   H13S13000   3.655   3.663   3.182 -0.2828  0.1844 -1.0803
  123OSM   H13T13001   3.590   3.804   3.276 -0.7847 -0.8676 -1.8325
  123OSM   C14S13002   3.800   3.788   3.293  0.3382 -0.9817  0.6905
  123OSM   H14S13003   3.808   3.896   3.317 -2.2059 -0.4314 -0.5594
  123OSM   H14T13004   3.885   3.751   3.232  2.2217  1.3654  1.7066
  123OSM   C15S13005   3.803   3.716   3.417 -0.4042 -0.1060 -0.5734
  123OSM   H15S13006   3.906   3.721   3.460 -0.1816 -0.5894 -1.0388
  123OSM   H15T13007   3.801   3.606   3.404  0.8524 -0.1427 -0.6266
  123OSM   C16S13008   3.690   3.765   3.521 -0.4005  0.3308  0.3932
  123OSM   H16S13009   3.594   3.729   3.477  0.2693 -0.7993 -0.1805
  123OSM   H16T13010   3.678   3.875   3.528  1.5805  0.5614  0.7689
  123OSM   C17S13011   3.708   3.722   3.666 -0.5711 -0.2855 -0.2439
  123OSM   H17S13012   3.786   3.779   3.720 -0.7145  0.3179 -0.6600
  123OSM   H17T13013   3.726   3.612   3.664  0.1398 -0.2926  2.5102
  123OSM   C18S13014   3.583   3.716   3.756 -0.6928 -0.2012  0.0083
  123OSM   H18S13015   3.565   3.820   3.793 -0.5520 -0.1785  0.0146
  123OSM   H18T13016   3.615   3.651   3.841  1.2221 -1.6734 -1.7442
  123OSM   H18U13017   3.491   3.676   3.708  0.3912 -0.3496 -2.0164
  123OSM    C1F13018   3.932   3.656   2.233  0.0256 -0.2104 -0.1542
  123OSM     OF13019   4.050   3.622   2.211  0.2389 -0.5075 -0.0530
  123OSM    C2F13020   3.832   3.566   2.282 -0.1810  0.5344 -0.6855
  123OSM    H2F13021   3.810   3.503   2.193  1.4400 -0.3783 -0.4729
  123OSM    H2G13022   3.742   3.626   2.307 -1.1379 -0.5138 -1.4674
  123OSM    C3F13023   3.872   3.476   2.407 -0.1117  0.0643  0.1949
  123OSM    H3F13024   3.964   3.423   2.373 -0.1407  0.2546 -0.1876
  123OSM    H3G13025   3.795   3.400   2.431  0.0139  0.5503  2.2967
  123OSM    C4F13026   3.903   3.552   2.536 -0.4562 -0.1414 -0.4030
  123OSM    H4F13027   3.806   3.602   2.555 -0.3012 -0.7371  2.3220
  123OSM    H4G13028   3.987   3.624   2.530 -0.1338 -0.4389  0.4106
  123OSM    C5F13029   3.933   3.452   2.646  0.0942  0.0702  0.6730
  123OSM    H5F13030   4.015   3.390   2.604 -1.0335 -0.9297 -0.1243
  123OSM    H5G13031   3.850   3.379   2.655  0.0346  0.2448  1.7574
  123OSM    C6F13032   3.968   3.507   2.779  0.2282  0.2885  0.0091
  123OSM    H6F13033   3.884   3.575   2.804 -0.6152 -0.0508 -1.7596
  123OSM    H6G13034   4.064   3.562   2.784  0.1798  0.5552 -1.6036
  123OSM    C7F13035   3.975   3.387   2.872 -0.0817  0.0371 -0.7343
  123OSM    H7F13036   4.039   3.311   2.823 -0.4630 -0.0508 -1.1043
  123OSM    H7G13037   3.876   3.342   2.893  1.0696 -1.4841  1.7761
  123OSM    C8F13038   4.025   3.428   3.011  0.1315 -0.0886 -0.0952
  123OSM    H8F13039   3.941   3.496   3.038 -2.3104 -1.3806 -3.6298
  123OSM    H8G13040   4.114   3.491   2.997  0.0640 -0.2957 -1.7026
  123OSM    C9F13041   4.039   3.305   3.103  0.0336  0.2345 -0.5939
  123OSM    H9F13042   4.030   3.218   3.036 -2.6586  1.3089 -1.7628
  123OSM   C10F13043   4.047   3.293   3.232  0.8993  1.2687  0.1280
  123OSM   H10F13044   4.061   3.189   3.268 -0.8300  1.2067  0.7106
  123OSM   C11F13045   4.045   3.398   3.337 -0.5483  0.7706 -0.1997
  123OSM   H11F13046   3.977   3.373   3.421 -0.2140  1.6229  0.3386
  123OSM   H11G13047   4.000   3.488   3.289  2.8615  2.1643 -1.0809
  123OSM   C12F13048   4.189   3.424   3.396  0.4050 -0.6188 -0.0759
  123OSM   H12F13049   4.267   3.431   3.318 -0.0029  2.2261 -0.3428
  123OSM   H12G13050   4.213   3.338   3.462  0.6816 -0.1660  0.4225
  123OSM   C13F13051   4.199   3.559   3.466  0.1560 -0.4150  0.0041
  123OSM   H13F13052   4.105   3.568   3.524 -0.9555 -1.0333 -1.6235
  123OSM   H13G13053   4.173   3.640   3.395 -2.1713  0.4914  1.7568
  123OSM   C14F13054   4.324   3.583   3.545  0.5139  0.0267 -0.4180
  123OSM   H14F13055   4.312   3.518   3.634  1.6212  0.3810 -0.0061
  123OSM   H14G13056   4.326   3.690   3.573 -1.9021 -0.1388  0.6984
  123OSM   C15F13057   4.458   3.546   3.488  0.2171  0.0163  0.0571
  123OSM   H15F13058   4.482   3.606   3.397 -1.6256 -0.1493 -0.5884
  123OSM   H15G13059   4.460   3.438   3.460  2.4422 -0.2003  0.8643
  123OSM   C16F13060   4.569   3.555   3.601 -0.6043 -0.1634  0.1772
  123OSM   H16F13061   4.539   3.484   3.681 -2.0689  0.5403  0.2836
  123OSM   H16G13062   4.557   3.657   3.643 -2.1678 -1.0214  1.9188
  123OSM   C17F13063   4.715   3.523   3.541  1.2556 -0.1164 -0.0836
  123OSM   H17F13064   4.742   3.605   3.471  0.9844 -0.4253 -0.5511
  123OSM   H17G13065   4.716   3.430   3.481  0.7935  0.6471 -1.3184
  123OSM   C18F13066   4.825   3.528   3.646 -0.4097  0.8326  0.7698
  123OSM   H18F13067   4.859   3.633   3.657 -1.0513  1.5546 -2.8754
  123OSM   H18G13068   4.910   3.467   3.609 -0.7045 -0.1578  1.6787
  123OSM   H18H13069   4.802   3.494   3.749  0.8559  2.8289  1.7806
  124OSM      N13070   4.530   5.130   1.690 -0.2284  0.0655  0.1853
  124OSM    C1513071   4.563   4.989   1.664  0.3393 -0.5242 -0.6512
  124OSM   H15A13072   4.485   4.916   1.685  0.5486 -1.3748 -2.5455
  124OSM   H15B13073   4.654   4.968   1.718  0.8626  2.4166 -0.2343
  124OSM   H15C13074   4.590   4.975   1.560  1.2194 -1.9314 -0.2695
  124OSM    C1413075   4.643   5.217   1.669  0.0629 -0.2541  0.1453
  124OSM   H14A13076   4.611   5.319   1.680  0.8934 -0.1351  1.7838
  124OSM   H14B13077   4.691   5.204   1.573 -1.1782 -1.1526 -0.3790
  124OSM   H14C13078   4.720   5.213   1.745  1.1538 -0.7456 -0.9386
  124OSM    C1313079   4.408   5.174   1.617  0.0509  0.1362 -1.0190
  124OSM   H13A13080   4.419   5.155   1.511 -0.5703 -0.2667 -1.0132
  124OSM   H13B13081   4.400   5.281   1.626  2.7738  0.4902 -1.6915
  124OSM   H13C13082   4.333   5.115   1.667 -0.0661 -0.8306 -2.2875
  124OSM    C1213083   4.502   5.152   1.839 -0.0113 -0.0347  0.4290
  124OSM   H12A13084   4.588   5.122   1.897  0.6186  1.1799  0.1481
  124OSM   H12B13085   4.425   5.083   1.871  0.0714  0.6476  2.2373
  124OSM    C1113086   4.466   5.293   1.893 -0.3503  0.6912 -0.4915
  124OSM   H11A13087   4.412   5.261   1.985 -0.8370  0.4368 -0.8620
  124OSM   H11B13088   4.391   5.352   1.835 -2.9635 -1.2001  0.7464
  124OSM      P13089   4.570   5.496   2.019  0.3271 -0.0475  0.4890
  124OSM    O1313090   4.701   5.564   2.031  0.0728  0.1258  0.1132
  124OSM    O1413091   4.463   5.584   1.970  0.9269  0.2210 -0.5879
  124OSM    O1113092   4.523   5.437   2.157 -0.4575 -0.0783  0.8011
  124OSM    O1213093   4.586   5.372   1.918 -0.4470  0.5563 -0.3538
  124OSM    C1S13094   4.601   5.341   2.236 -0.4357 -0.1551 -0.4863
  124OSM    H1S13095   4.709   5.350   2.213 -0.5111  2.0887 -0.1892
  124OSM    H1T13096   4.583   5.233   2.218  0.2501 -0.1051 -1.5698
  124OSM     NF13097   4.651   5.276   2.456 -0.1836 -0.4636 -0.0016
  124OSM    HNF13098   4.614   5.185   2.472  0.0939 -0.8096 -1.2271
  124OSM    C2S13099   4.562   5.362   2.384 -0.3975 -0.0486 -0.1087
  124OSM    H2S13100   4.583   5.469   2.404  1.7625 -0.5126  0.3295
  124OSM    C3S13101   4.414   5.331   2.415 -0.6922  0.0031 -0.2131
  124OSM    H3S13102   4.399   5.222   2.404 -1.3024  0.1802 -1.3153
  124OSM     O313103   4.330   5.408   2.330 -0.7203  0.0340 -0.4166
  124OSM    HO313104   4.379   5.427   2.250 -0.9532 -0.6561 -0.7333
  124OSM    C4S13105   4.397   5.346   2.566  0.0392 -0.2707  0.5682
  124OSM    H4S13106   4.461   5.279   2.626  0.4592  0.1235  0.5679
  124OSM    C5S13107   4.329   5.450   2.627 -0.5969 -0.3862  0.2152
  124OSM    H5S13108   4.283   5.523   2.559 -0.3199 -1.1732 -0.8533
  124OSM    C6S13109   4.317   5.475   2.778  0.0487 -1.0017  0.1456
  124OSM    H6S13110   4.216   5.509   2.811 -1.1594 -3.4015 -0.8903
  124OSM    H6T13111   4.387   5.553   2.816 -0.2574 -0.8060  0.3173
  124OSM    C7S13112   4.349   5.351   2.863 -0.2535 -0.2762 -0.2695
  124OSM    H7S13113   4.445   5.304   2.832  1.1881  1.7163  0.8998
  124OSM    H7T13114   4.265   5.279   2.854  0.0171 -0.5196 -0.8750
  124OSM    C8S13115   4.352   5.390   3.012  0.5337 -0.1416  0.1181
  124OSM    H8S13116   4.259   5.447   3.032 -0.9062 -1.6979 -1.7437
  124OSM    H8T13117   4.446   5.437   3.051  0.9410 -0.5127 -0.4055
  124OSM    C9S13118   4.340   5.267   3.090 -0.3495  0.6682 -0.9071
  124OSM    H9S13119   4.368   5.174   3.035  2.7922 -0.0728  1.6842
  124OSM    H9T13120   4.233   5.253   3.119  0.0707 -0.2595  0.2784
  124OSM   C10S13121   4.420   5.269   3.224 -0.5832  0.6999 -0.1993
  124OSM   H10S13122   4.524   5.304   3.203 -0.6019 -0.4238 -2.5142
  124OSM   H10T13123   4.444   5.168   3.262  1.4783  1.0253 -0.5428
  124OSM   C11S13124   4.359   5.352   3.339 -0.0396  0.0462  1.0189
  124OSM   H11S13125   4.283   5.424   3.301  0.5079  0.8246  1.3892
  124OSM   H11T13126   4.439   5.419   3.377  1.4599 -0.0358 -1.6739
  124OSM   C12S13127   4.298   5.273   3.451  0.6841  0.3009 -0.2168
  124OSM   H12S13128   4.242   5.194   3.396 -1.2521  1.9930 -0.7745
  124OSM   H12T13129   4.232   5.340   3.510  1.3353  1.9590 -1.3091
  124OSM   C13S13130   4.399   5.195   3.546 -0.4789  0.2377  0.5632
  124OSM   H13S13131   4.481   5.151   3.486  0.9686  1.7783  1.3293
  124OSM   H13T13132   4.341   5.119   3.602 -3.3785  2.5561  0.9495
  124OSM   C14S13133   4.467   5.304   3.633  0.2326  0.5242 -0.0581
  124OSM   H14S13134   4.403   5.395   3.640 -1.4767 -0.5986 -0.5544
  124OSM   H14T13135   4.563   5.323   3.582  2.3792 -4.6430  1.4665
  124OSM   C15S13136   4.490   5.256   3.777 -0.7486 -0.5863 -0.4542
  124OSM   H15S13137   4.563   5.324   3.825  0.1032 -0.3187 -2.0637
  124OSM   H15T13138   4.549   5.162   3.779  1.3815  0.6965  0.3484
  124OSM   C16S13139   4.362   5.254   3.864  0.2560 -0.3369  0.0562
  124OSM   H16S13140   4.281   5.205   3.805  0.0196 -0.2532  0.3099
  124OSM   H16T13141   4.338   5.363   3.867 -0.2235 -0.4002 -0.8756
  124OSM   C17S13142   4.371   5.198   4.008 -0.5380 -0.5285  0.0398
  124OSM   H17S13143   4.395   5.090   3.999 -1.7577 -0.9104  1.0627
  124OSM   H17T13144   4.271   5.208   4.056 -0.7035  2.6980 -0.7248
  124OSM   C18S13145   4.476   5.257   4.106  0.2047  0.5533 -0.0706
  124OSM   H18S13146   4.480   5.368   4.103  1.2744  0.5480  0.5721
  124OSM   H18T13147   4.574   5.211   4.082  0.0087 -1.3758  2.3552
  124OSM   H18U13148   4.462   5.218   4.209 -1.1665 -0.8734 -0.7518
  124OSM    C1F13149   4.773   5.315   2.478  0.1842 -0.5164 -1.0723
  124OSM     OF13150   4.801   5.431   2.459  0.2541  0.0587  0.0861
  124OSM    C2F13151   4.876   5.221   2.539 -0.4714 -0.4630  0.0225
  124OSM    H2F13152   4.945   5.282   2.602 -1.9390  1.0782  0.1929
  124OSM    H2G13153   4.947   5.207   2.454  1.0488 -0.7654  1.2890
  124OSM    C3F13154   4.813   5.090   2.586 -0.2408  0.4813 -0.2222
  124OSM    H3F13155   4.760   5.034   2.506  3.6821 -1.3642 -1.7946
  124OSM    H3G13156   4.752   5.115   2.676 -0.1059 -0.3805  0.1223
  124OSM    C4F13157   4.908   4.982   2.633 -0.2390  0.2448  0.5784
  124OSM    H4F13158   4.945   5.024   2.729  0.0793 -0.8138  0.9320
  124OSM    H4G13159   4.993   4.970   2.562 -0.7316 -1.6068  0.2468
  124OSM    C5F13160   4.838   4.852   2.673 -0.1064  0.4986  0.4819
  124OSM    H5F13161   4.805   4.805   2.578  0.1383 -0.7243  0.9791
  124OSM    H5G13162   4.745   4.879   2.727  0.0074  2.2516 -0.1409
  124OSM    C6F13163   4.926   4.749   2.750  0.1489 -0.0623 -0.1073
  124OSM    H6F13164   4.862   4.662   2.776 -0.4565  0.6738  0.9355
  124OSM    H6G13165   4.967   4.785   2.847  1.7049 -0.8513 -0.4316
  124OSM    C7F13166   5.053   4.705   2.666 -0.1616 -0.2889 -0.1445
  124OSM    H7F13167   5.116   4.794   2.648  0.1625 -0.2067  1.3253
  124OSM    H7G13168   5.010   4.673   2.568  1.7734 -2.2685 -0.4300
  124OSM    C8F13169   5.135   4.590   2.728  0.2490  0.6131  0.8011
  124OSM    H8F13170   5.206   4.624   2.807  1.4716 -0.1634  0.0661
  124OSM    H8G13171   5.207   4.557   2.650  1.1966  0.6086  1.6386
  124OSM    C9F13172   5.062   4.473   2.780  0.4734  0.1006 -0.4521
  124OSM    H9F13173   5.028   4.395   2.710 -0.7718 -0.6512  0.9337
  124OSM   C10F13174   5.037   4.441   2.911  0.1125  0.0120 -0.2013
  124OSM   H10F13175   4.982   4.348   2.932 -2.2724  1.1007 -1.1799
  124OSM   C11F13176   5.061   4.518   3.037 -0.2955 -0.7161  0.2900
  124OSM   H11F13177   5.009   4.617   3.031 -0.1536 -0.6572  0.0002
  124OSM   H11G13178   5.167   4.548   3.049 -0.5460  0.5715 -0.5075
  124OSM   C12F13179   5.005   4.448   3.163 -0.2606  0.4761 -0.1829
  124OSM   H12F13180   4.897   4.419   3.164  0.6231 -3.2660  0.0037
  124OSM   H12G13181   5.011   4.513   3.253 -1.7250 -2.1996  2.0329
  124OSM   C13F13182   5.089   4.329   3.200 -0.4235  0.6727  0.4167
  124OSM   H13F13183   5.198   4.334   3.177 -0.7615 -0.1370 -1.6345
  124OSM   H13G13184   5.041   4.245   3.145 -0.2980  2.3764 -2.4588
  124OSM   C14F13185   5.076   4.309   3.353  0.9373 -0.1322 -0.5351
  124OSM   H14F13186   4.971   4.294   3.383  1.5606 -0.1172  1.8913
  124OSM   H14G13187   5.124   4.390   3.413  0.7276 -2.3824  2.9468
  124OSM   C15F13188   5.144   4.178   3.409 -0.2821 -0.0984 -0.3249
  124OSM   H15F13189   5.250   4.177   3.377 -0.1740 -3.1241 -0.1702
  124OSM   H15G13190   5.093   4.091   3.362  2.2784 -2.1539  0.4629
  124OSM   C16F13191   5.136   4.165   3.563 -0.7901 -0.0452  0.4727
  124OSM   H16F13192   5.196   4.250   3.603  0.6616 -1.7293  2.0137
  124OSM   H16G13193   5.188   4.073   3.596  0.9162  0.3528 -0.9137
  124OSM   C17F13194   4.985   4.157   3.604 -0.7749 -0.2343 -0.7579
  124OSM   H17F13195   4.956   4.067   3.546  1.8781 -1.9720  0.3748
  124OSM   H17G13196   4.928   4.249   3.581 -1.0119 -0.0634  0.4111
  124OSM   C18F13197   4.966   4.126   3.755 -0.0856  0.8533 -0.3439
  124OSM   H18F13198   4.979   4.018   3.777  0.8475  1.6777  4.1296
  124OSM   H18G13199   4.862   4.143   3.791 -0.0530 -1.4667  1.0092
  124OSM   H18H13200   5.034   4.188   3.817 -0.5828  0.1896  0.9103
  125OSM      N13201   0.021   2.845   1.868  0.7090 -0.4962 -0.0543
  125OSM    C1513202   0.117   2.824   1.982 -0.4691 -0.7431 -0.1035
  125OSM   H15A13203   0.219   2.840   1.949 -0.3000  0.9438  1.1013
  125OSM   H15B13204   0.093   2.726   2.018 -1.2209 -0.8754 -0.9224
  125OSM   H15C13205   0.101   2.899   2.058 -3.1517 -1.2999 -0.0124
  125OSM    C1413206  -0.108   2.898   1.918 -1.0231 -0.5223  0.3746
  125OSM   H14A13207  -0.098   2.995   1.964 -0.5690  0.5251 -1.8087
  125OSM   H14B13208  -0.140   2.823   1.988 -0.4854 -1.7594 -0.6508
  125OSM   H14C13209  -0.186   2.901   1.844  1.0062 -0.8545 -1.9184
  125OSM    C1313210   0.074   2.949   1.770  0.0779 -0.0499  0.2285
  125OSM   H13A13211   0.016   2.960   1.680  2.3427 -0.0126 -1.3377
  125OSM   H13B13212   0.171   2.915   1.735  1.2048  1.4216  1.7692
  125OSM   H13C13213   0.085   3.050   1.807  3.1356  0.7352 -2.3223
  125OSM    C1213214  -0.002   2.711   1.797 -0.0237  0.2548 -0.1847
  125OSM   H12A13215   0.094   2.677   1.761  0.3266 -0.1942  1.1343
  125OSM   H12B13216  -0.070   2.735   1.716 -1.1074  2.8597  1.3991
  125OSM    C1113217  -0.060   2.586   1.873 -0.0280 -0.3306  0.5466
  125OSM   H11A13218   0.010   2.550   1.951  0.7726 -0.7786 -0.3540
  125OSM   H11B13219  -0.059   2.506   1.796  1.1850 -1.6803  1.9212
  125OSM      P13220  -0.318   2.588   1.831  0.3935 -0.0438  0.2839
  125OSM    O1313221  -0.435   2.652   1.896 -0.3122  0.3368  0.5115
  125OSM    O1413222  -0.287   2.614   1.687  0.5695 -0.5157 -0.1697
  125OSM    O1113223  -0.336   2.433   1.835 -0.2042 -0.2894  0.0450
  125OSM    O1213224  -0.192   2.618   1.921 -0.3805  0.2075  0.1193
  125OSM    C1S13225  -0.322   2.352   1.957 -0.1772 -0.4628  0.1298
  125OSM    H1S13226  -0.245   2.398   2.022 -0.2246 -2.3583  1.6000
  125OSM    H1T13227  -0.296   2.247   1.931 -3.3968 -1.1376 -0.8320
  125OSM     NF13228  -0.434   2.257   2.152  0.3988 -0.1121 -0.3512
  125OSM    HNF13229  -0.482   2.170   2.160 -0.2817  0.0775 -1.9355
  125OSM    C2S13230  -0.457   2.342   2.036 -0.0775 -0.8085 -0.0543
  125OSM    H2S13231  -0.484   2.441   2.080  0.8794 -0.2269 -0.7380
  125OSM    C3S13232  -0.574   2.299   1.941  0.1631  0.4583  0.5900
  125OSM    H3S13233  -0.550   2.208   1.882 -0.9164 -0.5217  1.6084
  125OSM     O313234  -0.607   2.394   1.836 -0.1221 -0.1675 -0.4210
  125OSM    HO313235  -0.540   2.463   1.830 -0.3607  0.2395  1.2893
  125OSM    C4S13236  -0.696   2.257   2.002  0.6932  0.3722  0.7429
  125OSM    H4S13237  -0.700   2.150   2.025 -1.9137  0.5606  1.5892
  125OSM    C5S13238  -0.811   2.323   2.033 -0.7896 -0.3852  0.1687
  125OSM    H5S13239  -0.829   2.428   2.004 -0.5438 -0.8275 -1.7044
  125OSM    C6S13240  -0.911   2.254   2.125 -0.5545 -0.9141  0.0278
  125OSM    H6S13241  -0.930   2.150   2.093 -0.1574 -0.3994 -2.0430
  125OSM    H6T13242  -1.004   2.315   2.112 -0.0973  0.2025  1.6263
  125OSM    C7S13243  -0.861   2.267   2.266 -0.9076 -0.8714 -0.0221
  125OSM    H7S13244  -0.844   2.375   2.289 -0.6272 -0.8730 -0.2163
  125OSM    H7T13245  -0.761   2.219   2.271 -0.0126  0.6447 -2.0887
  125OSM    C8S13246  -0.951   2.197   2.373 -0.0293  0.3819 -0.3399
  125OSM    H8S13247  -0.990   2.101   2.333 -1.9860  0.9078  0.1973
  125OSM    H8T13248  -1.047   2.252   2.367  1.3298  2.8594 -0.8481
  125OSM    C9S13249  -0.887   2.192   2.514  0.3865 -0.0538 -0.5066
  125OSM    H9S13250  -0.876   2.295   2.556  0.4262 -0.7155  1.1880
  125OSM    H9T13251  -0.788   2.141   2.521  0.6134  0.5935  2.7826
  125OSM   C10S13252  -0.979   2.132   2.620  0.4300 -0.0998  0.2480
  125OSM   H10S13253  -0.982   2.022   2.613 -0.7939 -0.0819  0.4232
  125OSM   H10T13254  -1.082   2.172   2.624  0.6842  0.9770 -2.1414
  125OSM   C11S13255  -0.933   2.165   2.770 -0.2796  0.4379 -0.5104
  125OSM   H11S13256  -0.823   2.160   2.783 -0.2908 -1.1349 -0.8703
  125OSM   H11T13257  -0.977   2.086   2.835  1.5409  1.0098  1.5338
  125OSM   C12S13258  -0.987   2.303   2.822  0.4090  1.0163 -0.6286
  125OSM   H12S13259  -1.097   2.294   2.823  0.2842  2.3028  0.6029
  125OSM   H12T13260  -0.945   2.394   2.774 -1.3334  1.8014 -0.7160
  125OSM   C13S13261  -0.945   2.320   2.971  0.6788  0.0956 -0.0771
  125OSM   H13S13262  -0.973   2.235   3.038  2.1287 -1.1602 -1.0136
  125OSM   H13T13263  -1.003   2.404   3.014  1.2172  0.0754  0.7248
  125OSM   C14S13264  -0.799   2.359   2.986 -0.4927 -0.2522 -1.2568
  125OSM   H14S13265  -0.771   2.447   2.924  0.6881 -0.5269 -1.1361
  125OSM   H14T13266  -0.743   2.267   2.958 -0.1894 -0.1870 -0.8810
  125OSM   C15S13267  -0.762   2.388   3.128  0.2561 -0.0187  0.1909
  125OSM   H15S13268  -0.828   2.463   3.176  0.7599  0.6808 -0.1804
  125OSM   H15T13269  -0.663   2.440   3.133 -0.6826  1.7573  3.6186
  125OSM   C16S13270  -0.753   2.268   3.223  0.1989 -0.2990 -0.3528
  125OSM   H16S13271  -0.649   2.231   3.210  1.1751  1.1092  2.4850
  125OSM   H16T13272  -0.834   2.194   3.207  0.1366  0.2185 -2.8760
  125OSM   C17S13273  -0.759   2.301   3.375  0.0108  0.0578  0.2611
  125OSM   H17S13274  -0.700   2.394   3.389 -1.0702  0.7066  0.6458
  125OSM   H17T13275  -0.706   2.217   3.424 -0.4215 -0.7724 -0.6709
  125OSM   C18S13276  -0.897   2.328   3.439 -1.1710 -0.5100 -0.3434
  125OSM   H18S13277  -0.889   2.364   3.544  1.3814 -0.2952 -0.5415
  125OSM   H18T13278  -0.964   2.241   3.427  0.9879 -2.2689 -0.2901
  125OSM   H18U13279  -0.947   2.403   3.374 -0.0395 -0.9810 -1.8122
  125OSM    C1F13280  -0.349   2.282   2.253 -0.6594 -0.5815 -0.2277
  125OSM     OF13281  -0.294   2.397   2.256  0.2904 -0.8841  0.2995
  125OSM    C2F13282  -0.333   2.184   2.362 -0.0073  0.5760  0.2795
  125OSM    H2F13283  -0.297   2.088   2.318  1.6926  0.6980  1.2875
  125OSM    H2G13284  -0.429   2.162   2.413  0.0108 -1.6495 -0.5271
  125OSM    C3F13285  -0.225   2.206   2.471  0.1005 -0.3736 -0.5987
  125OSM    H3F13286  -0.237   2.309   2.511  1.6992 -0.7138  0.8648
  125OSM    H3G13287  -0.120   2.202   2.435  1.7518  0.0837  3.5527
  125OSM    C4F13288  -0.221   2.116   2.604  0.1814  0.0809  0.0435
  125OSM    H4F13289  -0.121   2.096   2.648 -0.5362 -4.5947  0.0833
  125OSM    H4G13290  -0.259   2.015   2.576 -1.5213  1.1092 -1.5401
  125OSM    C5F13291  -0.303   2.184   2.724 -0.5040 -0.5356 -0.9541
  125OSM    H5F13292  -0.412   2.190   2.700 -0.2230 -0.1124 -2.1845
  125OSM    H5G13293  -0.270   2.288   2.741  1.5171 -1.3085  0.2701
  125OSM    C6F13294  -0.268   2.114   2.851  0.1832  0.6946  0.4115
  125OSM    H6F13295  -0.169   2.146   2.891  1.8888  0.4267 -3.2138
  125OSM    H6G13296  -0.257   2.005   2.829 -2.8042  0.1042  1.3861
  125OSM    C7F13297  -0.382   2.147   2.939 -0.3343 -0.7928 -0.5753
  125OSM    H7F13298  -0.477   2.155   2.883 -0.5551  1.0833  0.0124
  125OSM    H7G13299  -0.393   2.251   2.975 -1.7912 -1.1438  0.0707
  125OSM    C8F13300  -0.396   2.039   3.052  0.3235 -0.3351 -0.3808
  125OSM    H8F13301  -0.416   1.942   3.002 -2.1197 -0.1358  0.0761
  125OSM    H8G13302  -0.497   2.058   3.094  0.1296 -1.3408 -0.3589
  125OSM    C9F13303  -0.300   2.039   3.165 -0.0640  0.0373  0.4381
  125OSM    H9F13304  -0.196   2.017   3.134  0.1391 -0.1432  1.2155
  125OSM   C10F13305  -0.320   2.045   3.294  0.1141 -0.5813  0.2614
  125OSM   H10F13306  -0.227   2.044   3.353  0.1613 -0.1683  0.1973
  125OSM   C11F13307  -0.434   2.067   3.381  0.9662  0.2546  0.2266
  125OSM   H11F13308  -0.473   1.975   3.429  0.2306  0.2572 -0.3573
  125OSM   H11G13309  -0.522   2.106   3.325  1.8231  1.8621 -0.0559
  125OSM   C12F13310  -0.396   2.171   3.487 -0.0318 -0.2200 -0.4105
  125OSM   H12F13311  -0.367   2.270   3.446  2.4747 -2.0300 -3.5047
  125OSM   H12G13312  -0.300   2.137   3.532  0.5321  0.9781 -0.6877
  125OSM   C13F13313  -0.501   2.186   3.593 -0.1058 -0.2238 -0.4061
  125OSM   H13F13314  -0.560   2.093   3.607  0.3401 -0.6988 -1.5556
  125OSM   H13G13315  -0.571   2.270   3.570 -1.3397 -0.0938  3.1715
  125OSM   C14F13316  -0.444   2.220   3.731  0.3636 -0.1965  0.2113
  125OSM   H14F13317  -0.395   2.318   3.713 -0.7111 -0.2864 -4.3633
  125OSM   H14G13318  -0.366   2.144   3.749  1.5966  1.2798  1.4661
  125OSM   C15F13319  -0.549   2.224   3.849 -0.0599  0.2552  0.4076
  125OSM   H15F13320  -0.498   2.234   3.947  0.0093 -2.2754  0.7037
  125OSM   H15G13321  -0.594   2.123   3.837  1.2433 -0.1127 -2.1185
  125OSM   C16F13322  -0.651   2.336   3.823 -0.4519 -0.2481 -0.3160
  125OSM   H16F13323  -0.709   2.305   3.734  2.7370 -3.3954 -1.5315
  125OSM   H16G13324  -0.604   2.434   3.799 -1.8050 -0.0981 -2.6114
  125OSM   C17F13325  -0.743   2.350   3.939  0.1340 -0.0612  0.2096
  125OSM   H17F13326  -0.690   2.387   4.029  0.8512 -0.7768  0.0885
  125OSM   H17G13327  -0.775   2.245   3.954  2.5591 -0.7238  1.1420
  125OSM   C18F13328  -0.864   2.441   3.905  0.4226  0.5777  0.0734
  125OSM   H18F13329  -0.948   2.447   3.977 -1.4874  2.9110 -2.1303
  125OSM   H18G13330  -0.903   2.396   3.811 -0.5573 -1.2568  1.2950
  125OSM   H18H13331  -0.831   2.542   3.873  1.5874 -0.0899 -0.8873
  126OSM      N13332   3.039   1.548   2.133  0.1664 -0.0502  0.0715
  126OSM    C1513333   3.085   1.604   2.000 -0.0916  0.0511 -0.9488
  126OSM   H15A13334   3.112   1.708   1.993 -0.7114  0.4098  1.2605
  126OSM   H15B13335   3.004   1.591   1.930 -1.6288  2.9640  0.1275
  126OSM   H15C13336   3.168   1.541   1.968  1.6875  0.9691  1.5186
  126OSM    C1413337   3.029   1.393   2.119 -0.0779  0.0338  0.1155
  126OSM   H14A13338   3.126   1.363   2.082  0.2797  1.6478 -0.3194
  126OSM   H14B13339   2.949   1.370   2.050 -0.4095 -1.6210  1.0031
  126OSM   H14C13340   3.011   1.358   2.219 -1.3745  0.4142  0.0342
  126OSM    C1313341   3.149   1.567   2.230  0.4091 -0.2406  0.0262
  126OSM   H13A13342   3.241   1.541   2.179 -0.2125 -1.4158 -0.5473
  126OSM   H13B13343   3.144   1.507   2.320 -0.9960  0.5420  0.5017
  126OSM   H13C13344   3.152   1.666   2.272  0.5685  0.1239 -0.8256
  126OSM    C1213345   2.914   1.606   2.176 -0.5941 -0.8552  0.6496
  126OSM   H12A13346   2.922   1.704   2.220  0.6892  0.6456 -2.5599
  126OSM   H12B13347   2.874   1.546   2.256  1.4675 -0.8464  1.7471
  126OSM    C1113348   2.804   1.619   2.069 -0.0204  0.5927  0.1317
  126OSM   H11A13349   2.827   1.685   1.982  2.5311 -3.2236 -2.3553
  126OSM   H11B13350   2.714   1.668   2.112 -0.0475 -0.5001  1.3784
  126OSM      P13351   2.658   1.406   2.046 -0.0393 -0.1045  0.6437
  126OSM    O1313352   2.540   1.489   2.012 -0.1194  0.7312 -0.2364
  126OSM    O1413353   2.672   1.273   1.980  0.0347 -0.3371  0.4266
  126OSM    O1113354   2.652   1.389   2.208 -0.7350  0.0780  0.0165
  126OSM    O1213355   2.783   1.488   2.008  0.5394  0.0590  0.3127
  126OSM    C1S13356   2.721   1.272   2.256 -0.6015  0.4175  0.1068
  126OSM    H1S13357   2.829   1.280   2.233 -0.5008  1.0738  0.7692
  126OSM    H1T13358   2.686   1.176   2.213 -1.1660  0.8511 -0.4210
  126OSM     NF13359   2.806   1.190   2.474 -0.8997  0.2845 -0.0305
  126OSM    HNF13360   2.786   1.092   2.474 -2.7219  0.6013  0.9090
  126OSM    C2S13361   2.704   1.268   2.408 -0.1649 -0.0081 -0.1729
  126OSM    H2S13362   2.714   1.373   2.444  0.1766 -0.1543  0.1542
  126OSM    C3S13363   2.556   1.228   2.441  0.4656 -0.4306  0.0853
  126OSM    H3S13364   2.534   1.123   2.410 -1.7110  0.1059 -0.2819
  126OSM     O313365   2.458   1.312   2.381 -0.5553 -0.3309 -0.3274
  126OSM    HO313366   2.513   1.349   2.311  2.1852  0.1268  1.8890
  126OSM    C4S13367   2.535   1.238   2.592 -0.5634 -0.5187 -0.6164
  126OSM    H4S13368   2.524   1.339   2.634 -0.0563 -1.2376  1.3405
  126OSM    C5S13369   2.516   1.137   2.685  0.3870 -0.3311 -0.2742
  126OSM    H5S13370   2.496   1.030   2.671 -1.0104 -0.5854  2.8763
  126OSM    C6S13371   2.485   1.183   2.828  1.1297 -0.0961  0.0349
  126OSM    H6S13372   2.519   1.105   2.899  0.1553  0.1750  0.8164
  126OSM    H6T13373   2.376   1.192   2.847  0.7482 -2.6931 -0.4725
  126OSM    C7S13374   2.542   1.309   2.885  0.0003  0.2499 -0.5348
  126OSM    H7S13375   2.483   1.391   2.839 -1.4186 -2.5248 -4.2110
  126OSM    H7T13376   2.648   1.328   2.859 -0.0561 -0.4561 -1.3328
  126OSM    C8S13377   2.542   1.316   3.036 -0.7700 -0.1217 -0.5433
  126OSM    H8S13378   2.595   1.228   3.079  1.4950  1.1792 -0.5072
  126OSM    H8T13379   2.439   1.318   3.076 -0.8454 -1.8734 -0.5859
  126OSM    C9S13380   2.619   1.438   3.085 -0.8212 -0.0033  0.5174
  126OSM    H9S13381   2.563   1.530   3.058 -0.5154 -0.2456 -1.0038
  126OSM    H9T13382   2.719   1.453   3.039 -0.7347 -2.8066 -0.3965
  126OSM   C10S13383   2.651   1.436   3.240  0.7566 -0.7094 -0.0610
  126OSM   H10S13384   2.729   1.512   3.263 -0.1256  0.1045  0.3352
  126OSM   H10T13385   2.687   1.334   3.264  1.1238 -0.2661  1.4004
  126OSM   C11S13386   2.529   1.461   3.331  0.4915  0.8121  0.1141
  126OSM   H11S13387   2.461   1.375   3.317 -0.8534  1.8921 -0.2338
  126OSM   H11T13388   2.464   1.547   3.304 -0.4854 -0.4571 -1.7891
  126OSM   C12S13389   2.571   1.496   3.469 -0.5055  1.2471 -0.4789
  126OSM   H12S13390   2.485   1.500   3.540  0.7446 -0.3291  1.2230
  126OSM   H12T13391   2.617   1.597   3.469  0.4617  0.8909 -3.1875
  126OSM   C13S13392   2.658   1.389   3.544  0.3058 -0.7746  0.0034
  126OSM   H13S13393   2.753   1.388   3.485 -0.1906 -1.5589 -0.8105
  126OSM   H13T13394   2.606   1.292   3.535 -0.4159 -0.5326  1.3531
  126OSM   C14S13395   2.674   1.410   3.697 -0.6115 -0.4385  0.4137
  126OSM   H14S13396   2.592   1.479   3.727 -0.6612  1.7196 -3.8612
  126OSM   H14T13397   2.758   1.481   3.713 -0.9848  0.1249 -0.0748
  126OSM   C15S13398   2.707   1.289   3.782 -0.3162  0.6982 -0.3072
  126OSM   H15S13399   2.810   1.252   3.765 -0.8197  0.1870 -2.6242
  126OSM   H15T13400   2.627   1.216   3.757  0.6204 -0.2924 -0.5030
  126OSM   C16S13401   2.688   1.316   3.928 -0.0992 -0.4449 -0.2492
  126OSM   H16S13402   2.579   1.312   3.947 -0.2479  0.9344 -0.7018
  126OSM   H16T13403   2.731   1.415   3.954  0.8046 -1.5792  3.1421
  126OSM   C17S13404   2.763   1.219   4.015 -0.8650  0.4450  0.4485
  126OSM   H17S13405   2.868   1.254   4.022 -1.2272  2.2343 -1.9743
  126OSM   H17T13406   2.768   1.117   3.970  0.6395  0.3956  0.6677
  126OSM   C18S13407   2.696   1.202   4.155 -0.6278  0.6884  0.6671
  126OSM   H18S13408   2.725   1.293   4.212  4.4369  0.4279 -1.0133
  126OSM   H18T13409   2.743   1.112   4.200  1.7213  1.2534 -0.4674
  126OSM   H18U13410   2.588   1.178   4.149 -0.1478 -1.9985  1.6119
  126OSM    C1F13411   2.936   1.223   2.479  0.5943 -0.1204  1.0187
  126OSM     OF13412   2.974   1.334   2.441  0.0993  0.3293  0.1727
  126OSM    C2F13413   3.030   1.116   2.526  0.3313 -0.2713 -0.2832
  126OSM    H2F13414   3.082   1.082   2.435  2.8279 -1.8785  1.6225
  126OSM    H2G13415   2.971   1.041   2.584  2.6179  0.1869  2.9467
  126OSM    C3F13416   3.140   1.176   2.627  0.3594  0.0888 -0.1460
  126OSM    H3F13417   3.102   1.197   2.729  2.1184  0.0473  0.5576
  126OSM    H3G13418   3.175   1.273   2.587 -2.4700  0.9428 -0.7839
  126OSM    C4F13419   3.267   1.090   2.628 -0.2910  0.3852 -0.0888
  126OSM    H4F13420   3.303   1.060   2.527 -2.2876 -0.4373 -0.6053
  126OSM    H4G13421   3.240   0.999   2.686 -0.5311 -0.3009 -1.2381
  126OSM    C5F13422   3.383   1.169   2.712  0.2746 -0.2404  0.3798
  126OSM    H5F13423   3.395   1.274   2.677 -0.2102 -0.1591  0.4491
  126OSM    H5G13424   3.471   1.107   2.686 -0.1325 -1.3277  1.4509
  126OSM    C6F13425   3.361   1.151   2.868  0.3009  0.8264  0.3649
  126OSM    H6F13426   3.345   1.044   2.893 -0.9132  0.5773 -1.3177
  126OSM    H6G13427   3.282   1.218   2.906 -1.7997 -1.7423  0.8501
  126OSM    C7F13428   3.493   1.195   2.938 -0.0040 -0.1249 -0.0238
  126OSM    H7F13429   3.568   1.141   2.876  0.4043 -0.9730  1.1653
  126OSM    H7G13430   3.497   1.154   3.041 -0.4658 -3.9424 -1.3702
  126OSM    C8F13431   3.517   1.345   2.948  0.0378 -0.4284 -0.1812
  126OSM    H8F13432   3.449   1.393   3.022 -0.3774 -1.7277  0.3163
  126OSM    H8G13433   3.491   1.390   2.850  0.4493 -1.6640 -0.8841
  126OSM    C9F13434   3.665   1.373   2.986 -0.3321  0.1376  0.2784
  126OSM    H9F13435   3.722   1.362   2.893 -2.8164 -1.2704 -1.1761
  126OSM   C10F13436   3.726   1.387   3.100 -0.1524  0.1353 -0.5986
  126OSM   H10F13437   3.823   1.436   3.089 -0.5926  0.6706 -2.6078
  126OSM   C11F13438   3.662   1.378   3.236  0.3158  0.1882  0.1534
  126OSM   H11F13439   3.554   1.350   3.234  0.8570 -2.0743 -0.1617
  126OSM   H11G13440   3.663   1.480   3.279  2.3631  1.6031 -2.9210
  126OSM   C12F13441   3.734   1.267   3.316  0.4152  0.3172 -0.2557
  126OSM   H12F13442   3.714   1.283   3.424  1.2264 -0.0048 -0.0540
  126OSM   H12G13443   3.843   1.281   3.307  0.3214  1.2402 -0.1115
  126OSM   C13F13444   3.701   1.120   3.290 -0.5920  0.5190  0.6152
  126OSM   H13F13445   3.725   1.096   3.184 -0.2128  1.4928  0.4754
  126OSM   H13G13446   3.592   1.100   3.298 -0.2577 -1.1768  1.3925
  126OSM   C14F13447   3.769   1.009   3.379  0.2331 -0.0305 -0.3497
  126OSM   H14F13448   3.864   1.053   3.416 -0.4860  0.4515  1.0203
  126OSM   H14G13449   3.805   0.923   3.319  2.0620  0.2632  0.2767
  126OSM   C15F13450   3.684   0.984   3.507  0.0574  0.1086  0.2442
  126OSM   H15F13451   3.590   0.927   3.490 -0.7387  1.6523 -0.7384
  126OSM   H15G13452   3.668   1.080   3.561  3.3437 -0.3478  2.3146
  126OSM   C16F13453   3.770   0.909   3.614  0.3663  0.2966  0.2303
  126OSM   H16F13454   3.873   0.950   3.614  0.8429 -0.8466  1.1164
  126OSM   H16G13455   3.788   0.804   3.584  0.0362  0.9469 -2.5316
  126OSM   C17F13456   3.715   0.927   3.759  0.0626 -0.1123  0.5305
  126OSM   H17F13457   3.641   0.851   3.794  1.6766 -0.9049  2.3789
  126OSM   H17G13458   3.664   1.025   3.767  1.0453  0.6261 -1.5567
  126OSM   C18F13459   3.832   0.934   3.857 -0.3859 -1.2327  0.4894
  126OSM   H18F13460   3.898   1.020   3.832  0.1433 -1.9298 -0.6226
  126OSM   H18G13461   3.889   0.840   3.846  1.7243 -0.0022  0.2511
  126OSM   H18H13462   3.800   0.953   3.961 -2.6476 -0.2480 -0.3137
  127OSM      N13463   3.714   5.916   2.113 -0.1453  0.1968  0.0874
  127OSM    C1513464   3.669   5.902   2.258 -0.2610 -0.6530  0.6115
  127OSM   H15A13465   3.638   5.804   2.291  0.5210 -0.0438  3.3901
  127OSM   H15B13466   3.577   5.954   2.280  0.0165 -0.2412  0.8063
  127OSM   H15C13467   3.748   5.930   2.326 -0.2273 -1.1553  0.7853
  127OSM    C1413468   3.780   6.044   2.104 -1.0233 -0.0544 -0.5122
  127OSM   H14A13469   3.711   6.122   2.132 -0.4759 -0.1082  1.1010
  127OSM   H14B13470   3.819   6.065   2.005 -1.0434 -1.3285 -0.8127
  127OSM   H14C13471   3.866   6.051   2.170 -1.6872  0.7577  0.2947
  127OSM    C1313472   3.803   5.799   2.085  0.1158 -0.3918  0.6830
  127OSM   H13A13473   3.882   5.781   2.156  0.9735  1.2510  0.1977
  127OSM   H13B13474   3.854   5.806   1.990 -1.9717 -2.1310 -0.6559
  127OSM   H13C13475   3.736   5.714   2.082 -0.8138  0.2757  1.6248
  127OSM    C1213476   3.597   5.920   2.019  0.1869 -0.1070  0.3396
  127OSM   H12A13477   3.627   5.931   1.916 -2.6687  0.3195 -0.5147
  127OSM   H12B13478   3.541   6.012   2.029  0.8739  0.4634 -0.8424
  127OSM    C1113479   3.496   5.798   2.020  0.5648  0.7888 -0.3125
  127OSM   H11A13480   3.418   5.837   1.951  0.6325  1.9106  0.2170
  127OSM   H11B13481   3.445   5.793   2.119  0.8600  0.3861 -0.1749
  127OSM      P13482   3.454   5.548   1.969  0.1667  0.3782  0.0424
  127OSM    O1313483   3.315   5.594   1.947 -0.4694  0.5564  0.0228
  127OSM    O1413484   3.505   5.446   1.876 -0.1499 -0.5455 -0.4749
  127OSM    O1113485   3.464   5.483   2.117 -0.4330  0.3367  0.5215
  127OSM    O1213486   3.548   5.674   1.964 -0.2462  0.0339 -0.9682
  127OSM    C1S13487   3.583   5.490   2.187  0.2368 -0.5877  0.2090
  127OSM    H1S13488   3.609   5.595   2.210  0.8164 -1.0769  1.9209
  127OSM    H1T13489   3.669   5.456   2.125  1.1929  3.1945 -0.8273
  127OSM     NF13490   3.718   5.431   2.376 -0.6373  0.1870 -0.1672
  127OSM    HNF13491   3.782   5.359   2.348 -1.4931 -1.2950  1.5041
  127OSM    C2S13492   3.588   5.412   2.321  0.1914 -0.2098 -0.1976
  127OSM    H2S13493   3.519   5.448   2.400 -0.3171 -2.0525  0.2470
  127OSM    C3S13494   3.548   5.267   2.306 -0.2243 -0.3927  0.3850
  127OSM    H3S13495   3.623   5.230   2.233 -1.2161  0.6587 -1.2406
  127OSM     O313496   3.423   5.245   2.250 -0.0763 -0.3359 -0.2691
  127OSM    HO313497   3.401   5.336   2.229 -0.3641  0.0889  1.7037
  127OSM    C4S13498   3.580   5.183   2.431  0.3527  0.1414 -0.4588
  127OSM    H4S13499   3.666   5.117   2.409 -0.3839 -0.1867 -2.5448
  127OSM    C5S13500   3.509   5.162   2.544  0.4400  0.2685  0.3354
  127OSM    H5S13501   3.416   5.217   2.561  0.5791 -0.1923  3.0271
  127OSM    C6S13502   3.558   5.057   2.649 -0.0489  0.3792 -0.1518
  127OSM    H6S13503   3.663   5.030   2.624  1.8350  4.7569  1.8356
  127OSM    H6T13504   3.494   4.968   2.636 -0.9074  0.4638  2.8001
  127OSM    C7S13505   3.542   5.116   2.787  1.0573 -0.3114 -0.4673
  127OSM    H7S13506   3.437   5.148   2.804  0.8280 -0.8056 -0.9343
  127OSM    H7T13507   3.604   5.208   2.797  0.4584 -0.0024  0.6286
  127OSM    C8S13508   3.574   5.018   2.895  0.4214  0.5452  0.0532
  127OSM    H8S13509   3.671   4.964   2.890 -0.8402 -1.7832 -1.1661
  127OSM    H8T13510   3.505   4.931   2.882 -1.9083  2.2451  0.2927
  127OSM    C9S13511   3.561   5.067   3.043  0.1978 -0.0753  0.1761
  127OSM    H9S13512   3.451   5.069   3.062  0.6080 -0.2307  3.0860
  127OSM    H9T13513   3.593   5.172   3.060 -1.9404  0.0678  4.9497
  127OSM   C10S13514   3.636   4.981   3.148  1.0858  0.3861  0.2250
  127OSM   H10S13515   3.743   4.989   3.122  1.0304 -0.0888 -0.1662
  127OSM   H10T13516   3.602   4.876   3.133  1.8522  0.1503  0.1387
  127OSM   C11S13517   3.608   5.023   3.291  0.7587 -0.2187  0.1728
  127OSM   H11S13518   3.503   5.057   3.304  1.0445  1.7579 -1.9769
  127OSM   H11T13519   3.661   5.119   3.309 -0.6495  0.3257  1.6019
  127OSM   C12S13520   3.634   4.917   3.391  0.1737  0.4177 -0.7739
  127OSM   H12S13521   3.743   4.912   3.411 -0.3993  2.0861  3.7576
  127OSM   H12T13522   3.598   4.821   3.348  0.1269  1.4831 -3.3034
  127OSM   C13S13523   3.554   4.938   3.522 -0.0401  0.2119  0.2500
  127OSM   H13S13524   3.444   4.941   3.509 -0.1821 -3.0027 -0.2124
  127OSM   H13T13525   3.577   5.045   3.541 -0.8854  0.1331  1.8489
  127OSM   C14S13526   3.583   4.841   3.640 -0.3378 -0.1375  0.0340
  127OSM   H14S13527   3.559   4.734   3.622 -0.1549 -0.4587  1.5692
  127OSM   H14T13528   3.515   4.880   3.719 -1.3633  0.3598 -1.0766
  127OSM   C15S13529   3.720   4.860   3.701 -0.4226 -0.4340  0.5590
  127OSM   H15S13530   3.752   4.967   3.707  0.2590 -0.6989  2.0495
  127OSM   H15T13531   3.782   4.812   3.623 -1.7127 -1.0153 -0.1496
  127OSM   C16S13532   3.735   4.790   3.837 -0.4235  0.0738  0.3322
  127OSM   H16S13533   3.839   4.759   3.863 -1.0861 -2.7417 -0.0856
  127OSM   H16T13534   3.688   4.690   3.826 -1.4216  0.5821 -0.1060
  127OSM   C17S13535   3.685   4.883   3.952  0.6280 -0.1889 -0.6230
  127OSM   H17S13536   3.577   4.901   3.938  0.9022  0.4084 -2.2588
  127OSM   H17T13537   3.732   4.983   3.937 -0.8695  0.3132 -2.3197
  127OSM   C18S13538   3.704   4.829   4.089 -0.7114 -0.2550  0.1048
  127OSM   H18S13539   3.814   4.814   4.095 -0.2867  1.4429 -2.1858
  127OSM   H18T13540   3.657   4.729   4.095  1.6035 -1.3821  0.4733
  127OSM   H18U13541   3.676   4.899   4.171  1.1587  0.8996 -0.1841
  127OSM    C1F13542   3.747   5.556   2.434 -0.2063  0.0841  0.1509
  127OSM     OF13543   3.669   5.651   2.442 -0.4152  0.1563 -0.3724
  127OSM    C2F13544   3.883   5.571   2.495 -0.2802  0.4850 -0.0375
  127OSM    H2F13545   3.962   5.587   2.418 -0.6363  1.5390 -0.1988
  127OSM    H2G13546   3.902   5.469   2.535 -0.2313  0.5941  0.2225
  127OSM    C3F13547   3.882   5.686   2.600  0.1518  0.1819  0.0838
  127OSM    H3F13548   3.853   5.781   2.551 -0.7636 -0.2849 -0.3077
  127OSM    H3G13549   3.987   5.706   2.630  0.7860 -1.1506 -1.1013
  127OSM    C4F13550   3.797   5.662   2.724 -0.3324  0.3797 -0.1850
  127OSM    H4F13551   3.690   5.661   2.694 -0.2991 -1.3967 -0.3584
  127OSM    H4G13552   3.803   5.744   2.799 -0.0453 -0.3064  0.5550
  127OSM    C5F13553   3.837   5.527   2.794 -0.3897 -0.1978 -0.1236
  127OSM    H5F13554   3.946   5.513   2.782 -0.3820 -0.3216  0.0914
  127OSM    H5G13555   3.781   5.448   2.740  1.4355 -1.4316 -0.2918
  127OSM    C6F13556   3.803   5.516   2.945 -0.5582 -0.3849  0.3465
  127OSM    H6F13557   3.816   5.409   2.972  2.0690  0.1672  1.5573
  127OSM    H6G13558   3.699   5.549   2.966 -0.8984 -1.6741  0.7804
  127OSM    C7F13559   3.911   5.603   3.014 -0.4885  0.2985  0.5275
  127OSM    H7F13560   3.914   5.707   2.976 -1.0664 -0.1341 -0.7734
  127OSM    H7G13561   3.999   5.543   2.982 -2.2327 -0.9973 -2.2347
  127OSM    C8F13562   3.889   5.601   3.170 -0.5908 -0.2632  0.4879
  127OSM    H8F13563   3.789   5.651   3.169  0.3923  2.0026 -2.6603
  127OSM    H8G13564   3.946   5.687   3.212 -1.0029  0.6009 -0.6653
  127OSM    C9F13565   3.887   5.477   3.251  0.4801  0.4688 -0.1606
  127OSM    H9F13566   3.867   5.386   3.193  3.8705  0.5924 -1.7745
  127OSM   C10F13567   3.894   5.466   3.385  0.5163 -0.1306 -0.2515
  127OSM   H10F13568   3.884   5.364   3.424  1.2967 -0.6228 -1.2838
  127OSM   C11F13569   3.912   5.574   3.487  0.1229 -0.0841 -0.0394
  127OSM   H11F13570   3.890   5.675   3.446  3.1415  0.8049  0.3139
  127OSM   H11G13571   4.016   5.565   3.525  0.5765  0.7468 -1.0533
  127OSM   C12F13572   3.805   5.549   3.600 -1.2774 -0.6790 -0.6334
  127OSM   H12F13573   3.819   5.444   3.632 -0.1262 -0.9565 -1.9366
  127OSM   H12G13574   3.704   5.544   3.554 -0.8803  0.4871 -1.6878
  127OSM   C13F13575   3.820   5.648   3.720 -0.1772  0.6811 -0.1764
  127OSM   H13F13576   3.833   5.753   3.687  1.1820 -0.1288 -2.4041
  127OSM   H13G13577   3.912   5.622   3.776 -2.1547 -0.0266  3.0439
  127OSM   C14F13578   3.688   5.638   3.799 -0.7701 -0.4588  0.3748
  127OSM   H14F13579   3.616   5.696   3.737  0.2090  0.5255  0.1348
  127OSM   H14G13580   3.708   5.687   3.897  0.3940 -0.9198  0.3853
  127OSM   C15F13581   3.632   5.497   3.824 -0.0143 -0.4505 -0.3786
  127OSM   H15F13582   3.713   5.441   3.875  0.2097 -1.1280 -1.4537
  127OSM   H15G13583   3.609   5.455   3.724 -0.1372  1.7185 -1.2970
  127OSM   C16F13584   3.510   5.504   3.917 -0.3043  0.7359 -0.0955
  127OSM   H16F13585   3.439   5.582   3.881 -0.5805  0.8577  0.6971
  127OSM   H16G13586   3.528   5.527   4.024 -1.1730 -0.0976  0.2463
  127OSM   C17F13587   3.444   5.365   3.928  0.0324  0.0537  0.6278
  127OSM   H17F13588   3.398   5.329   3.834 -1.1653  3.3690 -0.1920
  127OSM   H17G13589   3.353   5.375   3.991 -0.3138 -1.9313  0.5090
  127OSM   C18F13590   3.539   5.264   4.002 -0.2734 -0.3452  0.2899
  127OSM   H18F13591   3.486   5.196   4.072 -0.8592  0.2708  0.4623
  127OSM   H18G13592   3.595   5.327   4.074  1.1404  0.4514 -1.4204
  127OSM   H18H13593   3.621   5.218   3.942 -1.3386 -0.9615 -0.7340
  128OSM      N13594   3.431   1.833   1.512 -0.1917 -0.1404  0.2142
  128OSM    C1513595   3.402   1.918   1.389  0.5611 -0.4108 -0.6146
  128OSM   H15A13596   3.468   1.893   1.307 -1.3922 -0.8477 -2.1302
  128OSM   H15B13597   3.417   2.025   1.401 -0.3055 -0.3799  0.3280
  128OSM   H15C13598   3.301   1.910   1.353  0.5746 -1.0515 -0.5123
  128OSM    C1413599   3.325   1.851   1.617  0.3593 -0.1116 -0.3879
  128OSM   H14A13600   3.358   1.799   1.705  1.1117 -0.2369 -0.7382
  128OSM   H14B13601   3.235   1.801   1.584  0.5933 -0.7926  0.0083
  128OSM   H14C13602   3.302   1.952   1.649  0.3610  0.0217 -0.7964
  128OSM    C1313603   3.422   1.696   1.469  0.0420  0.0160  0.2280
  128OSM   H13A13604   3.483   1.679   1.382 -1.2427 -1.2388 -0.4556
  128OSM   H13B13605   3.322   1.673   1.435  0.2563 -0.9341  0.2251
  128OSM   H13C13606   3.447   1.624   1.546  0.4075 -0.7521 -0.5951
  128OSM    C1213607   3.571   1.863   1.567  0.3805  0.0708  0.6877
  128OSM   H12A13608   3.579   1.969   1.587 -1.3861  0.6620 -1.4128
  128OSM   H12B13609   3.646   1.836   1.493  0.6766 -2.6644  1.8497
  128OSM    C1113610   3.615   1.783   1.694 -0.1924  0.3669 -0.0743
  128OSM   H11A13611   3.547   1.816   1.775 -0.9675  1.5540 -1.1648
  128OSM   H11B13612   3.713   1.826   1.723 -0.8001  0.2719  2.3474
  128OSM      P13613   3.739   1.551   1.656 -0.2158  0.2695 -0.2003
  128OSM    O1313614   3.709   1.435   1.571 -0.3292  0.0225 -0.1500
  128OSM    O1413615   3.859   1.626   1.621  0.1204  0.2521 -0.1706
  128OSM    O1113616   3.751   1.498   1.806  0.4061  0.0108  0.0472
  128OSM    O1213617   3.615   1.642   1.671 -0.3194 -0.1252  0.0894
  128OSM    C1S13618   3.850   1.397   1.839  0.8927 -0.3752  0.3061
  128OSM    H1S13619   3.947   1.450   1.827  1.6093 -1.3214  1.6727
  128OSM    H1T13620   3.849   1.317   1.762 -0.0334 -0.2171  0.1415
  128OSM     NF13621   3.944   1.246   2.017  0.1970 -0.1586  0.8407
  128OSM    HNF13622   3.925   1.149   2.002 -0.6049  0.1730 -0.4834
  128OSM    C2S13623   3.840   1.331   1.980  0.2345  0.7067 -0.1636
  128OSM    H2S13624   3.844   1.413   2.055 -0.3133 -0.4829  1.1866
  128OSM    C3S13625   3.705   1.254   2.003 -0.2187  0.2274 -0.0395
  128OSM    H3S13626   3.707   1.163   1.939  2.5175  0.6698 -0.7350
  128OSM     O313627   3.586   1.323   1.960 -0.4373  0.2159 -0.6409
  128OSM    HO313628   3.630   1.390   1.906 -1.2550 -0.2474 -1.9519
  128OSM    C4S13629   3.692   1.206   2.147  0.6056 -0.0504  0.4549
  128OSM    H4S13630   3.741   1.110   2.167 -1.0671 -1.0354  0.0602
  128OSM    C5S13631   3.618   1.273   2.238 -0.2865  1.0210 -0.6856
  128OSM    H5S13632   3.570   1.367   2.208 -0.2556  1.0833 -0.5413
  128OSM    C6S13633   3.596   1.250   2.383 -0.6068  0.6448  0.1647
  128OSM    H6S13634   3.490   1.220   2.390 -1.0236  1.8859 -0.6541
  128OSM    H6T13635   3.611   1.344   2.441  1.5115  0.4251  0.0822
  128OSM    C7S13636   3.696   1.149   2.450 -0.8558 -0.3547 -0.0044
  128OSM    H7S13637   3.700   1.061   2.382 -0.1669  0.5085 -1.1368
  128OSM    H7T13638   3.657   1.121   2.550 -2.7806  0.8848 -0.3610
  128OSM    C8S13639   3.848   1.202   2.470  0.2097  0.0328 -0.4792
  128OSM    H8S13640   3.846   1.296   2.529 -0.0230 -0.2539 -0.0270
  128OSM    H8T13641   3.897   1.223   2.372  3.1070 -1.9528  0.4100
  128OSM    C9S13642   3.926   1.094   2.548  0.2546  0.2278 -0.0449
  128OSM    H9S13643   4.034   1.122   2.548  0.1708  0.5852  0.9996
  128OSM    H9T13644   3.911   1.005   2.484 -0.8252  1.4664 -1.5726
  128OSM   C10S13645   3.878   1.081   2.692 -0.6252  0.0609 -0.6913
  128OSM   H10S13646   3.801   1.001   2.695  0.6221 -1.1800 -0.5289
  128OSM   H10T13647   3.837   1.179   2.725 -2.1551 -0.3428 -1.3308
  128OSM   C11S13648   3.982   1.032   2.793 -0.2327  0.5615  0.5986
  128OSM   H11S13649   4.084   1.069   2.769  0.1915 -1.3619 -0.7708
  128OSM   H11T13650   3.980   0.923   2.774 -0.1938  0.4088  1.4381
  128OSM   C12S13651   3.953   1.061   2.948 -0.3496 -0.0221 -0.0890
  128OSM   H12S13652   3.853   1.023   2.977 -1.8129  3.8498  0.4889
  128OSM   H12T13653   3.968   1.168   2.971  1.8068 -0.5360  1.2017
  128OSM   C13S13654   4.052   0.992   3.039  0.0909 -0.0895  0.5059
  128OSM   H13S13655   4.147   0.998   2.980 -1.0400 -0.9617 -1.5084
  128OSM   H13T13656   4.035   0.883   3.041  0.7438 -0.1880  1.3524
  128OSM   C14S13657   4.054   1.053   3.181  0.1940  0.2350  0.2482
  128OSM   H14S13658   3.951   1.049   3.222 -0.8984 -0.7582 -2.3651
  128OSM   H14T13659   4.087   1.155   3.152  1.0552 -0.4231 -1.1754
  128OSM   C15S13660   4.153   0.989   3.284  0.3454 -0.2861  0.6604
  128OSM   H15S13661   4.152   1.057   3.371  0.9452 -0.0335  0.4769
  128OSM   H15T13662   4.259   1.003   3.255 -0.2658  1.0315 -1.1841
  128OSM   C16S13663   4.102   0.854   3.333  0.4593  0.4837  0.2087
  128OSM   H16S13664   4.099   0.791   3.241 -1.3488  0.4639  0.2603
  128OSM   H16T13665   3.999   0.869   3.371  0.7185 -0.1619  1.2290
  128OSM   C17S13666   4.179   0.785   3.441 -0.2765  0.2129  0.5887
  128OSM   H17S13667   4.285   0.785   3.409 -1.0800 -2.9521 -2.6104
  128OSM   H17T13668   4.150   0.678   3.446  1.5166 -0.3972 -1.1356
  128OSM   C18S13669   4.184   0.857   3.575 -0.3476 -0.1975  0.4443
  128OSM   H18S13670   4.243   0.790   3.641  1.5031  0.1575 -0.7783
  128OSM   H18T13671   4.078   0.862   3.609 -0.7544 -1.5840 -0.5315
  128OSM   H18U13672   4.225   0.960   3.573 -3.1639  1.1128  2.9729
  128OSM    C1F13673   4.070   1.280   2.045  0.0577 -0.6935 -0.0870
  128OSM     OF13674   4.093   1.396   2.032 -0.1595 -0.6873 -0.7429
  128OSM    C2F13675   4.169   1.176   2.072  0.1789  0.2421 -0.7741
  128OSM    H2F13676   4.260   1.224   2.031 -0.5431  0.8817 -1.6786
  128OSM    H2G13677   4.151   1.083   2.016 -1.6478  1.8614 -3.0687
  128OSM    C3F13678   4.184   1.151   2.226  0.6854  0.0135  0.0764
  128OSM    H3F13679   4.096   1.094   2.261  1.1331 -0.7199  0.0214
  128OSM    H3G13680   4.188   1.256   2.264  1.1623  0.4513 -1.1084
  128OSM    C4F13681   4.315   1.066   2.251  0.5133 -0.0699  0.5981
  128OSM    H4F13682   4.404   1.126   2.222  0.6582 -1.1462 -1.3146
  128OSM    H4G13683   4.302   0.982   2.180 -3.3871 -0.0474  1.1100
  128OSM    C5F13684   4.335   0.997   2.388 -0.4623  0.4198  0.0262
  128OSM    H5F13685   4.427   0.936   2.379 -1.6730 -1.7181  1.3520
  128OSM    H5G13686   4.259   0.917   2.398 -0.5899  0.7325  1.8589
  128OSM    C6F13687   4.348   1.090   2.506 -0.0460 -0.3154 -0.8315
  128OSM    H6F13688   4.246   1.126   2.531  0.9782 -0.2711  4.2448
  128OSM    H6G13689   4.417   1.175   2.485 -1.2486  1.2804  1.3394
  128OSM    C7F13690   4.410   1.035   2.634  0.1970  0.0602  0.3345
  128OSM    H7F13691   4.510   0.995   2.606 -0.2429  1.3711 -3.7941
  128OSM    H7G13692   4.341   0.951   2.657  0.0206 -0.2068 -1.0601
  128OSM    C8F13693   4.419   1.133   2.752 -0.0342 -0.0940  0.8591
  128OSM    H8F13694   4.318   1.163   2.786  0.9223  0.7721  3.1389
  128OSM    H8G13695   4.451   1.234   2.719  0.3313 -0.3949  0.2889
  128OSM    C9F13696   4.510   1.082   2.859  0.7021  0.2064 -0.4443
  128OSM    H9F13697   4.567   0.990   2.835 -0.4503 -1.3733  2.4059
  128OSM   C10F13698   4.534   1.143   2.974  0.6533 -0.4903 -0.2011
  128OSM   H10F13699   4.596   1.091   3.047  2.8222 -0.6701 -2.0634
  128OSM   C11F13700   4.478   1.285   3.013 -0.6839  0.1062  0.2222
  128OSM   H11F13701   4.411   1.278   3.101 -0.6103 -2.1078  0.1512
  128OSM   H11G13702   4.416   1.322   2.929 -0.2304  1.3425  0.4099
  128OSM   C12F13703   4.593   1.384   3.039 -0.1163  0.5325 -0.2023
  128OSM   H12F13704   4.665   1.393   2.954  0.5421  4.8428  0.5737
  128OSM   H12G13705   4.651   1.328   3.116 -1.1342 -2.0595 -1.2097
  128OSM   C13F13706   4.550   1.527   3.077  0.2787  0.0989  0.0270
  128OSM   H13F13707   4.486   1.574   2.999 -1.8359 -2.4304  0.0989
  128OSM   H13G13708   4.636   1.594   3.096 -1.7378  4.2757 -3.5696
  128OSM   C14F13709   4.464   1.531   3.211 -0.4567 -0.0096 -0.3114
  128OSM   H14F13710   4.513   1.469   3.290  2.4019 -0.4113 -2.2409
  128OSM   H14G13711   4.374   1.474   3.180  0.0191 -1.4034  0.7253
  128OSM   C15F13712   4.450   1.673   3.258 -0.1991 -0.0117  0.0972
  128OSM   H15F13713   4.421   1.733   3.170 -0.1514  0.9858  0.7535
  128OSM   H15G13714   4.549   1.718   3.281 -0.8566  0.7625  1.5287
  128OSM   C16F13715   4.365   1.692   3.383 -0.2614 -0.5872 -0.8427
  128OSM   H16F13716   4.431   1.664   3.468  1.0759  1.8662 -1.0019
  128OSM   H16G13717   4.273   1.630   3.379 -0.0666 -0.9873  0.4665
  128OSM   C17F13718   4.325   1.841   3.424  0.1806 -0.2833 -0.0857
  128OSM   H17F13719   4.414   1.905   3.446  1.4085 -1.5907 -1.0993
  128OSM   H17G13720   4.285   1.824   3.526 -1.2548  0.0905 -0.5677
  128OSM   C18F13721   4.230   1.911   3.322  0.4045  0.7317 -0.5756
  128OSM   H18F13722   4.296   1.933   3.236  2.3444  0.2788  0.7138
  128OSM   H18G13723   4.195   2.002   3.375  2.2831  0.6517  0.9550
  128OSM   H18H13724   4.142   1.849   3.295  0.2463  1.5643 -2.0495
  129OSM      N13725   6.109   2.684   1.583  0.4199 -0.4395  0.5128
  129OSM    C1513726   6.222   2.590   1.607  0.4697 -0.3909  0.3953
  129OSM   H15A13727   6.243   2.584   1.713  1.5875 -1.7662  0.1333
  129OSM   H15B13728   6.311   2.625   1.557  0.5730 -0.8878  0.2291
  129OSM   H15C13729   6.189   2.492   1.574 -0.8848 -0.0053  0.5574
  129OSM    C1413730   6.160   2.824   1.597  0.3080  0.0938 -0.1417
  129OSM   H14A13731   6.250   2.853   1.546 -0.6953  2.6650 -0.5946
  129OSM   H14B13732   6.180   2.860   1.697  1.7908 -1.1873  0.0438
  129OSM   H14C13733   6.088   2.892   1.553  0.5720  1.6843  1.7394
  129OSM    C1313734   6.057   2.668   1.441  0.1622 -0.5381  0.2936
  129OSM   H13A13735   6.135   2.645   1.369  2.5665  3.3613  1.3601
  129OSM   H13B13736   6.004   2.754   1.405  0.7652 -1.0159 -1.9071
  129OSM   H13C13737   5.995   2.579   1.440 -1.3730  0.4341 -2.7925
  129OSM    C1213738   5.990   2.664   1.677  0.6508 -0.0396  0.0994
  129OSM   H12A13739   5.931   2.583   1.637 -3.3204  1.6756  1.9292
  129OSM   H12B13740   5.942   2.760   1.670  2.9311  1.1710  0.1009
  129OSM    C1113741   6.011   2.625   1.827 -0.3130 -0.2872 -0.9495
  129OSM   H11A13742   6.096   2.554   1.839 -1.3407 -1.4481 -0.2987
  129OSM   H11B13743   5.913   2.590   1.867 -2.2943  3.0624 -2.4921
  129OSM      P13744   5.942   2.838   1.953  0.1818  0.3983  0.3078
  129OSM    O1313745   5.989   2.951   2.035 -0.4632  0.5970  0.1738
  129OSM    O1413746   5.857   2.881   1.841  0.0126 -0.4314  0.0594
  129OSM    O1113747   5.859   2.741   2.054 -0.4698  0.0838 -0.7087
  129OSM    O1213748   6.052   2.744   1.900  0.2357  0.1870 -0.5133
  129OSM    C1S13749   5.917   2.666   2.157 -0.4611 -0.6132  0.5532
  129OSM    H1S13750   6.013   2.714   2.186  0.3597 -0.7236 -1.7640
  129OSM    H1T13751   5.941   2.563   2.121  0.4942  0.1930 -1.2326
  129OSM     NF13752   5.904   2.610   2.391  0.1929 -0.0398 -0.3810
  129OSM    HNF13753   5.919   2.512   2.397 -1.5095 -0.3279 -0.1377
  129OSM    C2S13754   5.822   2.648   2.275  0.3476  0.7984 -0.3771
  129OSM    H2S13755   5.780   2.749   2.297  0.7939  0.8981  0.0377
  129OSM    C3S13756   5.706   2.549   2.243  0.5386 -0.0979  0.7036
  129OSM    H3S13757   5.734   2.442   2.233  0.0264 -0.2110  0.4516
  129OSM     O313758   5.641   2.586   2.116 -0.3641 -0.2417 -0.4573
  129OSM    HO313759   5.698   2.655   2.080  0.1537 -1.5235 -2.2426
  129OSM    C4S13760   5.594   2.551   2.344 -0.3082 -0.8307  0.4596
  129OSM    H4S13761   5.533   2.642   2.334  0.4807 -0.3859 -0.6125
  129OSM    C5S13762   5.547   2.448   2.420  0.0628 -0.0965 -0.0898
  129OSM    H5S13763   5.600   2.352   2.422 -1.4582 -0.9422  1.8137
  129OSM    C6S13764   5.426   2.458   2.510 -0.3452  0.1734 -0.5103
  129OSM    H6S13765   5.368   2.549   2.484 -0.3087  0.1915 -0.5293
  129OSM    H6T13766   5.455   2.460   2.617  1.0986 -0.2223 -0.8644
  129OSM    C7S13767   5.329   2.345   2.490  0.2840 -0.3501  0.6748
  129OSM    H7S13768   5.387   2.253   2.515  0.8763 -0.3647 -0.6681
  129OSM    H7T13769   5.295   2.347   2.385  0.2134 -0.2434  0.6997
  129OSM    C8S13770   5.208   2.362   2.584  0.3189 -0.2890 -0.0939
  129OSM    H8S13771   5.128   2.291   2.554 -0.6778  1.3226 -1.4434
  129OSM    H8T13772   5.164   2.463   2.573  0.6217 -0.2305 -0.7931
  129OSM    C9S13773   5.233   2.337   2.732 -0.0378 -0.6604  0.2879
  129OSM    H9S13774   5.297   2.419   2.771 -0.1031 -0.2504 -0.4502
  129OSM    H9T13775   5.296   2.247   2.747  3.8222  1.5624 -1.1153
  129OSM   C10S13776   5.100   2.323   2.807  0.3000  0.2509 -0.2671
  129OSM   H10S13777   5.054   2.238   2.752 -1.4907  1.0384 -0.0407
  129OSM   H10T13778   5.035   2.411   2.793  3.4952  2.8978  0.3110
  129OSM   C11S13779   5.134   2.286   2.951  0.7717  0.5171 -0.3965
  129OSM   H11S13780   5.177   2.377   2.998  1.6335  1.2538 -2.4591
  129OSM   H11T13781   5.223   2.220   2.959  1.0947  0.8674 -0.9916
  129OSM   C12S13782   5.016   2.235   3.038  0.3995 -0.4827  0.0373
  129OSM   H12S13783   4.966   2.155   2.979  1.4926 -0.3767 -1.0548
  129OSM   H12T13784   4.945   2.318   3.059 -0.0074 -0.0210 -2.8003
  129OSM   C13S13785   5.060   2.179   3.170 -0.4008 -0.9611  0.3622
  129OSM   H13S13786   5.089   2.264   3.236 -3.8493 -0.3135  1.2078
  129OSM   H13T13787   5.146   2.113   3.147 -0.7952 -1.8506  1.3536
  129OSM   C14S13788   4.954   2.098   3.249 -0.3433  0.3205 -0.3502
  129OSM   H14S13789   4.912   2.031   3.171 -1.1888  0.3862  0.0389
  129OSM   H14T13790   4.878   2.168   3.291  0.8349  0.5609  1.4913
  129OSM   C15S13791   5.010   2.019   3.365 -0.2078  0.2240  0.6033
  129OSM   H15S13792   5.069   2.091   3.426  1.6823 -2.4765  2.1325
  129OSM   H15T13793   5.066   1.925   3.347 -0.6930  0.0128  0.1765
  129OSM   C16S13794   4.895   1.954   3.439 -0.8655 -0.4059 -0.4539
  129OSM   H16S13795   4.842   1.883   3.372 -0.7636 -0.2968 -0.6486
  129OSM   H16T13796   4.820   2.032   3.462 -1.4814 -1.4284  1.2315
  129OSM   C17S13797   4.938   1.883   3.569 -0.4920 -0.1886 -0.1196
  129OSM   H17S13798   4.999   1.949   3.635 -1.4817 -1.0503  1.7111
  129OSM   H17T13799   4.999   1.796   3.535 -0.5328 -1.5586  2.9554
  129OSM   C18S13800   4.824   1.823   3.648  0.8274 -0.1254 -0.3838
  129OSM   H18S13801   4.803   1.718   3.618 -0.3006 -0.2910  0.8760
  129OSM   H18T13802   4.737   1.890   3.631  0.3466 -0.4175  0.7799
  129OSM   H18U13803   4.849   1.824   3.756  0.5021  2.3705 -0.2800
  129OSM    C1F13804   5.973   2.697   2.462  0.2675 -0.2590  0.5229
  129OSM     OF13805   5.981   2.812   2.424 -0.4107  0.3927  0.0177
  129OSM    C2F13806   6.033   2.654   2.591 -0.0023 -0.2975  0.5347
  129OSM    H2F13807   6.137   2.693   2.597 -0.3423  0.6746  0.3035
  129OSM    H2G13808   6.022   2.544   2.587 -4.6136 -0.0098 -0.8203
  129OSM    C3F13809   5.954   2.712   2.710  0.3541 -0.8957 -0.0416
  129OSM    H3F13810   5.949   2.823   2.700 -0.9950 -0.9221  0.1830
  129OSM    H3G13811   6.021   2.691   2.796  0.7148  1.2823  0.2579
  129OSM    C4F13812   5.815   2.655   2.736  0.2302  0.4983  0.8697
  129OSM    H4F13813   5.835   2.550   2.765  3.6792  1.0518  0.8345
  129OSM    H4G13814   5.756   2.648   2.641  0.3320 -1.5507  0.9097
  129OSM    C5F13815   5.742   2.731   2.849  0.3108  0.6104 -0.7884
  129OSM    H5F13816   5.732   2.838   2.820 -0.2693  0.6805 -0.3334
  129OSM    H5G13817   5.809   2.731   2.938 -2.1871 -1.2476  1.2136
  129OSM    C6F13818   5.609   2.661   2.896  0.1765  0.4141 -0.3703
  129OSM    H6F13819   5.526   2.658   2.823  1.5243 -0.7621 -1.9534
  129OSM    H6G13820   5.572   2.715   2.985  0.7116  2.0089 -1.0763
  129OSM    C7F13821   5.639   2.512   2.945  0.9361  0.6569  0.4163
  129OSM    H7F13822   5.715   2.510   3.026  1.7590 -3.5885 -0.2090
  129OSM    H7G13823   5.683   2.450   2.864 -0.5305 -0.4330  0.4033
  129OSM    C8F13824   5.509   2.434   2.983 -0.6112  0.1049  0.6935
  129OSM    H8F13825   5.449   2.415   2.892  0.8655  0.0604 -0.2988
  129OSM    H8G13826   5.454   2.499   3.055  0.6299  1.7027  0.2657
  129OSM    C9F13827   5.545   2.301   3.038  0.5934 -0.6087  0.1904
  129OSM    H9F13828   5.606   2.243   2.966 -1.4710 -2.6301 -0.0397
  129OSM   C10F13829   5.504   2.247   3.147 -0.2062 -0.6011 -0.2520
  129OSM   H10F13830   5.543   2.148   3.176  0.9114 -0.3566 -0.8697
  129OSM   C11F13831   5.410   2.324   3.235 -0.1467 -0.0765 -0.3648
  129OSM   H11F13832   5.316   2.358   3.186 -0.5615  2.1828  1.8354
  129OSM   H11G13833   5.448   2.424   3.263 -1.0799  0.2035 -0.0884
  129OSM   C12F13834   5.381   2.247   3.363  0.3174  0.4611  0.0771
  129OSM   H12F13835   5.341   2.148   3.333 -0.0365  0.9723 -1.1912
  129OSM   H12G13836   5.301   2.291   3.427 -2.1175 -1.7719 -1.2404
  129OSM   C13F13837   5.492   2.244   3.470  0.3158  0.6866  0.0835
  129OSM   H13F13838   5.582   2.190   3.435  1.7757  2.3535  1.0836
  129OSM   H13G13839   5.456   2.179   3.553 -1.2341 -2.3627 -2.7506
  129OSM   C14F13840   5.521   2.388   3.518 -0.2506  0.8922  0.1529
  129OSM   H14F13841   5.424   2.437   3.539 -1.5273 -1.5755  0.2682
  129OSM   H14G13842   5.572   2.453   3.443  0.9497 -0.6051 -0.3892
  129OSM   C15F13843   5.616   2.383   3.649  0.1609 -0.2246 -0.2353
  129OSM   H15F13844   5.718   2.346   3.623 -1.4194 -3.3860 -2.6204
  129OSM   H15G13845   5.574   2.307   3.718  3.3920  0.4769  2.7503
  129OSM   C16F13846   5.608   2.518   3.730 -0.6792 -0.0998  0.8419
  129OSM   H16F13847   5.507   2.563   3.733  0.0243  1.9759 -2.2729
  129OSM   H16G13848   5.664   2.585   3.662  1.6786 -0.0326  2.6897
  129OSM   C17F13849   5.670   2.507   3.872 -0.2383  0.6374  0.4585
  129OSM   H17F13850   5.780   2.503   3.862 -0.1930  3.1402 -1.1072
  129OSM   H17G13851   5.641   2.416   3.928  0.9343  0.5827  1.0147
  129OSM   C18F13852   5.637   2.621   3.961  0.8822  0.4830 -0.3463
  129OSM   H18F13853   5.662   2.596   4.066 -1.1248 -0.3483 -0.0345
  129OSM   H18G13854   5.529   2.644   3.950  0.4234 -1.6166 -0.6658
  129OSM   H18H13855   5.704   2.706   3.933  2.2914  0.0726  1.5742
  130OSM      N13856   3.664   5.056   1.930  0.9317  0.3899  0.2498
  130OSM    C1513857   3.703   5.005   2.066  0.3254  0.4147  0.3544
  130OSM   H15A13858   3.627   5.029   2.139 -1.5819 -1.8838 -0.7330
  130OSM   H15B13859   3.804   5.026   2.096  1.1401 -0.1244 -1.8245
  130OSM   H15C13860   3.703   4.898   2.057  3.2392  0.3141  0.7916
  130OSM    C1413861   3.732   4.962   1.835  1.0913  0.1276 -0.6844
  130OSM   H14A13862   3.711   4.858   1.855  0.8146 -0.0646 -1.8564
  130OSM   H14B13863   3.837   4.984   1.846  0.6433  1.8184  0.7253
  130OSM   H14C13864   3.701   4.979   1.732  3.2067 -1.2268 -1.6174
  130OSM    C1313865   3.519   5.037   1.913  0.6964  0.3726 -0.5433
  130OSM   H13A13866   3.462   5.092   1.986  0.5416 -1.8177  1.0840
  130OSM   H13B13867   3.498   4.931   1.918  2.8958 -0.0627  0.9315
  130OSM   H13C13868   3.490   5.074   1.816  1.5231  0.2321 -0.8493
  130OSM    C1213869   3.704   5.199   1.905  0.3368  0.0108  0.4216
  130OSM   H12A13870   3.644   5.267   1.964  1.3466  1.0722  0.2510
  130OSM   H12B13871   3.702   5.226   1.801 -0.4612  0.4849  0.5518
  130OSM    C1113872   3.855   5.229   1.943  0.7796  0.1136 -0.2718
  130OSM   H11A13873   3.871   5.216   2.052  0.1168  0.1666 -0.1661
  130OSM   H11B13874   3.860   5.336   1.914  1.1248 -0.1567 -1.2679
  130OSM      P13875   4.104   5.212   1.910  0.4509  0.2761 -0.5667
  130OSM    O1313876   4.205   5.113   1.855  0.0592 -0.1780  0.5692
  130OSM    O1413877   4.124   5.355   1.863  0.3815 -0.0358 -0.2589
  130OSM    O1113878   4.108   5.209   2.068 -0.6377  0.3316 -0.1873
  130OSM    O1213879   3.957   5.165   1.872  0.3191  0.2458  0.2646
  130OSM    C1S13880   4.105   5.087   2.143  0.0537 -0.2312 -0.0670
  130OSM    H1S13881   4.183   5.015   2.110 -0.5003 -1.3915  1.0646
  130OSM    H1T13882   4.013   5.030   2.117 -0.6109  0.0634  1.5457
  130OSM     NF13883   4.094   4.976   2.361  0.5487 -0.3027 -0.1296
  130OSM    HNF13884   4.009   4.938   2.396  0.6240 -1.9649 -1.5860
  130OSM    C2S13885   4.101   5.104   2.301 -0.0359 -0.0630  0.0282
  130OSM    H2S13886   4.201   5.146   2.325  0.1767  0.9301 -2.3148
  130OSM    C3S13887   4.000   5.208   2.347  0.2481  0.2970 -0.2330
  130OSM    H3S13888   3.895   5.172   2.340  0.6818 -0.9019 -0.9236
  130OSM     O313889   4.011   5.336   2.281  0.2497  0.0135  0.0204
  130OSM    HO313890   4.081   5.315   2.218 -1.0965 -1.5915 -1.0088
  130OSM    C4S13891   4.034   5.236   2.495 -0.6396  0.0278 -0.6398
  130OSM    H4S13892   4.129   5.287   2.519 -1.4251  1.2075  0.0918
  130OSM    C5S13893   3.949   5.189   2.586 -0.1664  0.5157  0.1140
  130OSM    H5S13894   3.854   5.145   2.553  1.1633 -1.9547 -0.6662
  130OSM    C6S13895   3.950   5.207   2.733  0.7093 -0.1097  0.2491
  130OSM    H6S13896   3.855   5.249   2.775 -0.2709 -0.9187 -1.0821
  130OSM    H6T13897   4.034   5.276   2.758  0.4731  0.6060 -0.8715
  130OSM    C7S13898   3.965   5.075   2.801  0.6177  0.7681 -0.4696
  130OSM    H7S13899   4.055   5.024   2.760 -0.4280 -2.3765  0.8218
  130OSM    H7T13900   3.881   5.005   2.779  0.9383  0.9144 -2.2509
  130OSM    C8S13901   3.997   5.089   2.951 -0.4865 -0.2507 -0.8604
  130OSM    H8S13902   3.917   5.143   3.006 -0.5957 -2.3337  1.1966
  130OSM    H8T13903   4.086   5.155   2.951 -0.9762  0.4404 -2.0578
  130OSM    C9S13904   4.016   4.955   3.025 -0.2214 -0.0625  0.4734
  130OSM    H9S13905   4.089   4.898   2.963 -1.7536 -0.5496 -0.9669
  130OSM    H9T13906   3.916   4.909   3.011 -0.0379 -0.1206 -0.7671
  130OSM   C10S13907   4.079   4.971   3.170  0.1658 -0.4235 -0.3673
  130OSM   H10S13908   4.007   5.044   3.214 -0.2874 -0.3473 -1.2071
  130OSM   H10T13909   4.169   5.036   3.163  0.5588 -0.4763  2.8042
  130OSM   C11S13910   4.107   4.845   3.244 -0.6769  0.1954  0.8141
  130OSM   H11S13911   4.180   4.807   3.170 -0.7896  2.8253 -0.7684
  130OSM   H11T13912   4.025   4.770   3.242 -0.9076  0.4565  0.4833
  130OSM   C12S13913   4.171   4.869   3.387  0.3811  0.1626 -0.2936
  130OSM   H12S13914   4.177   4.980   3.390 -1.8137  0.3105  0.3633
  130OSM   H12T13915   4.270   4.820   3.386 -0.1473 -0.9080 -0.9328
  130OSM   C13S13916   4.078   4.831   3.505 -0.2745 -0.5313 -0.2718
  130OSM   H13S13917   4.084   4.721   3.515 -0.0571 -0.4678  0.3853
  130OSM   H13T13918   3.972   4.861   3.488  0.1382  1.4794  0.4661
  130OSM   C14S13919   4.108   4.887   3.647  0.0115 -0.9673 -0.0578
  130OSM   H14S13920   4.216   4.897   3.669 -0.1584 -1.3698  1.0191
  130OSM   H14T13921   4.059   4.824   3.724  0.4934 -0.0499  1.0308
  130OSM   C15S13922   4.052   5.031   3.666 -0.4984  0.4299  0.1573
  130OSM   H15S13923   3.945   5.018   3.637 -0.3177  3.0301 -2.0273
  130OSM   H15T13924   4.109   5.104   3.605  0.8116  0.0945  0.9385
  130OSM   C16S13925   4.049   5.088   3.810  0.5620  0.0107  0.1242
  130OSM   H16S13926   4.143   5.079   3.867 -0.7050  0.8147  2.4593
  130OSM   H16T13927   3.976   5.028   3.868 -1.0501 -0.5293 -2.2648
  130OSM   C17S13928   3.994   5.231   3.796  1.0370 -0.3482 -0.3156
  130OSM   H17S13929   3.907   5.257   3.733 -0.0456 -0.2339  1.1726
  130OSM   H17T13930   4.080   5.281   3.746 -0.2063  0.3192 -1.8665
  130OSM   C18S13931   3.967   5.306   3.923  0.6896  0.7028  0.1984
  130OSM   H18S13932   4.053   5.281   3.989 -0.5761 -0.2688  1.5517
  130OSM   H18T13933   3.882   5.263   3.979  0.8008 -1.2307 -1.0041
  130OSM   H18U13934   3.957   5.416   3.911 -1.3700  0.7775  2.0268
  130OSM    C1F13935   4.202   4.896   2.364  0.5464 -0.4958 -0.0326
  130OSM     OF13936   4.310   4.935   2.317  0.2899  0.6703 -0.4813
  130OSM    C2F13937   4.191   4.762   2.423  0.1029  0.1636 -0.7147
  130OSM    H2F13938   4.196   4.683   2.345 -1.5678  0.6281 -1.3289
  130OSM    H2G13939   4.096   4.740   2.477  0.0494 -0.4936 -1.0673
  130OSM    C3F13940   4.312   4.747   2.516 -0.5512 -0.2076  0.0991
  130OSM    H3F13941   4.413   4.754   2.471  0.1603 -0.5082  1.5797
  130OSM    H3G13942   4.311   4.641   2.548  1.0532 -0.7032 -1.3417
  130OSM    C4F13943   4.315   4.830   2.644 -0.2438  0.1210 -0.0507
  130OSM    H4F13944   4.212   4.846   2.682 -0.3713  0.0347 -0.3572
  130OSM    H4G13945   4.345   4.934   2.618 -1.2601  0.1198 -1.3177
  130OSM    C5F13946   4.416   4.779   2.762  0.3521 -0.2828  0.1319
  130OSM    H5F13947   4.513   4.795   2.710  0.7938 -3.6064 -0.3118
  130OSM    H5G13948   4.406   4.669   2.779  1.0886 -0.4928 -0.7308
  130OSM    C6F13949   4.416   4.866   2.885 -0.5612  0.1475 -0.1633
  130OSM    H6F13950   4.312   4.857   2.924 -0.8398  2.7215 -0.1841
  130OSM    H6G13951   4.432   4.973   2.862  1.7958 -0.2337 -0.5460
  130OSM    C7F13952   4.530   4.826   2.981 -0.0940  0.6521  0.1745
  130OSM    H7F13953   4.624   4.844   2.924 -0.0613 -0.7941 -0.2704
  130OSM    H7G13954   4.524   4.716   2.999 -0.7685  0.8018  0.9072
  130OSM    C8F13955   4.512   4.896   3.119  0.5671  0.1945 -0.5788
  130OSM    H8F13956   4.405   4.871   3.135  0.8246 -0.7775 -0.2894
  130OSM    H8G13957   4.532   5.002   3.094  1.8650  0.0868 -0.0902
  130OSM    C9F13958   4.605   4.841   3.228 -0.2178  0.1856  0.4404
  130OSM    H9F13959   4.567   4.749   3.275 -1.6007  0.5049 -0.0078
  130OSM   C10F13960   4.728   4.895   3.250  0.4881  0.1724 -0.3257
  130OSM   H10F13961   4.780   4.854   3.339  0.7931 -0.1652 -0.6565
  130OSM   C11F13962   4.777   5.023   3.189 -0.1595  0.3531  0.2585
  130OSM   H11F13963   4.859   5.063   3.252  0.6916  0.6119 -0.9722
  130OSM   H11G13964   4.703   5.105   3.195 -0.2190  0.2970  0.2913
  130OSM   C12F13965   4.840   5.008   3.047 -0.5638 -0.2176  0.5719
  130OSM   H12F13966   4.758   4.988   2.975 -0.5044  1.0843  0.1369
  130OSM   H12G13967   4.918   4.930   3.061 -0.2227  0.5049  3.4974
  130OSM   C13F13968   4.908   5.136   2.994  1.3696 -0.2620 -0.7171
  130OSM   H13F13969   4.971   5.111   2.905 -1.4394 -1.2849 -2.5704
  130OSM   H13G13970   4.963   5.194   3.071  0.3316 -3.8897  3.1295
  130OSM   C14F13971   4.798   5.232   2.943  0.0071  0.3457  0.3800
  130OSM   H14F13972   4.731   5.257   3.027  0.6466 -1.5306  1.5343
  130OSM   H14G13973   4.739   5.179   2.866 -1.2795  0.5148  1.2279
  130OSM   C15F13974   4.843   5.361   2.873  0.8154 -0.4179  0.0441
  130OSM   H15F13975   4.920   5.334   2.797  0.9464 -1.9266  0.6725
  130OSM   H15G13976   4.890   5.432   2.945 -1.8455  0.4328  1.0548
  130OSM   C16F13977   4.736   5.453   2.810 -0.0868 -0.6647  0.0739
  130OSM   H16F13978   4.652   5.474   2.880  0.3908  0.3536  0.3672
  130OSM   H16G13979   4.674   5.406   2.731 -1.5275  0.2159  0.6434
  130OSM   C17F13980   4.795   5.585   2.745  0.4750  0.4961  0.1821
  130OSM   H17F13981   4.876   5.561   2.673 -1.4387 -1.7761 -1.3446
  130OSM   H17G13982   4.836   5.647   2.827 -0.8478  0.4499  0.8990
  130OSM   C18F13983   4.698   5.682   2.672 -0.9811  0.5871 -0.4603
  130OSM   H18F13984   4.741   5.782   2.650  0.3789  0.1845  0.2596
  130OSM   H18G13985   4.608   5.699   2.735 -0.7530 -0.3353  0.1374
  130OSM   H18H13986   4.664   5.630   2.580 -0.9496 -1.0069  0.3846
  131OSM      N13987   2.538   2.235   1.595 -0.0467  0.3689  0.2527
  131OSM    C1513988   2.433   2.138   1.579  0.3735  0.0747  0.7691
  131OSM   H15A13989   2.463   2.038   1.553  1.4723  0.9269 -1.5148
  131OSM   H15B13990   2.361   2.172   1.506 -0.2112 -0.8870  0.8882
  131OSM   H15C13991   2.376   2.130   1.670  2.3755  0.2098  2.0954
  131OSM    C1413992   2.600   2.249   1.459 -0.4337  0.0366  0.5613
  131OSM   H14A13993   2.537   2.294   1.384  0.5204  1.4325  0.5535
  131OSM   H14B13994   2.627   2.152   1.420  0.3163  0.3301  0.3328
  131OSM   H14C13995   2.686   2.314   1.467  0.3887 -0.8401 -0.9699
  131OSM    C1313996   2.477   2.363   1.645 -0.0045  0.2665 -0.2992
  131OSM   H13A13997   2.434   2.409   1.557 -0.4445  3.2937  1.3629
  131OSM   H13B13998   2.558   2.423   1.682  0.0365  1.0130 -1.5670
  131OSM   H13C13999   2.404   2.342   1.723  1.1638  0.8567  0.9919
  131OSM    C1214000   2.651   2.192   1.697 -0.2213 -0.3974  0.2202
  131OSM   H12A14001   2.681   2.089   1.679  0.9235  0.0450 -0.4998
  131OSM   H12B14002   2.621   2.202   1.800  1.1153  0.7738  0.5203
  131OSM    C1114003   2.786   2.271   1.695 -0.1953  0.0158 -0.0664
  131OSM   H11A14004   2.831   2.275   1.593  2.2589 -0.8015  0.8962
  131OSM   H11B14005   2.859   2.209   1.751 -1.1158 -0.1109  1.0279
  131OSM      P14006   2.766   2.433   1.901  0.0102  0.3372 -0.0583
  131OSM    O1314007   2.904   2.439   1.961  0.3616 -0.3546 -0.0423
  131OSM    O1414008   2.666   2.542   1.925 -0.8275 -0.6291 -0.2784
  131OSM    O1114009   2.689   2.307   1.961 -0.2604 -0.1924  0.2840
  131OSM    O1214010   2.760   2.402   1.741  0.0156 -0.4219  0.0473
  131OSM    C1S14011   2.751   2.230   2.066  0.2134 -0.7345  0.1406
  131OSM    H1S14012   2.859   2.216   2.042 -0.1338 -0.3778 -1.8193
  131OSM    H1T14013   2.694   2.135   2.069 -2.0877  0.4043 -2.9201
  131OSM     NF14014   2.800   2.228   2.316 -0.5541  0.4919  0.5590
  131OSM    HNF14015   2.750   2.201   2.398  0.8060 -1.6454  0.7798
  131OSM    C2S14016   2.725   2.292   2.207  0.3045  0.3142  0.3306
  131OSM    H2S14017   2.775   2.391   2.210  0.3020  0.3047  0.7981
  131OSM    C3S14018   2.578   2.309   2.245  0.2462 -0.3583  0.3777
  131OSM    H3S14019   2.526   2.211   2.241  1.4048 -0.9846  0.4323
  131OSM     O314020   2.506   2.398   2.160  0.5763 -0.5467  0.2064
  131OSM    HO314021   2.550   2.390   2.075 -0.0382  0.1813 -0.1909
  131OSM    C4S14022   2.570   2.375   2.383  0.0454 -0.0936 -0.9968
  131OSM    H4S14023   2.621   2.472   2.381 -0.5178  0.2384  0.0172
  131OSM    C5S14024   2.507   2.330   2.492 -0.7438  0.7171 -0.4649
  131OSM    H5S14025   2.448   2.238   2.481 -0.4358  0.5738 -0.9479
  131OSM    C6S14026   2.511   2.405   2.622  1.0394  0.4079  0.2604
  131OSM    H6S14027   2.440   2.354   2.691 -0.3245 -2.2055 -2.8124
  131OSM    H6T14028   2.472   2.509   2.614 -0.4540 -0.2012 -0.8099
  131OSM    C7S14029   2.638   2.414   2.698 -0.4913 -0.5665 -0.6234
  131OSM    H7S14030   2.664   2.310   2.726  0.9752  0.0941  0.6293
  131OSM    H7T14031   2.624   2.461   2.798  1.2588  0.4229 -0.8029
  131OSM    C8S14032   2.762   2.472   2.638 -0.4647 -0.0894  0.0979
  131OSM    H8S14033   2.729   2.577   2.629 -0.4001  0.0430  1.3032
  131OSM    H8T14034   2.782   2.421   2.541  3.3629 -0.4951  0.9176
  131OSM    C9S14035   2.887   2.457   2.726 -0.7640  0.2254 -0.0209
  131OSM    H9S14036   2.975   2.487   2.665  0.7068  0.1464  1.9337
  131OSM    H9T14037   2.903   2.353   2.761 -0.1727  0.5091  0.5689
  131OSM   C10S14038   2.884   2.528   2.863  0.5759 -0.5392 -0.0563
  131OSM   H10S14039   2.788   2.491   2.906  0.9952 -2.4256 -0.6323
  131OSM   H10T14040   2.873   2.638   2.859 -0.1943 -0.4749  2.1623
  131OSM   C11S14041   3.006   2.499   2.954  0.1507  0.1854 -0.2226
  131OSM   H11S14042   3.095   2.525   2.893  1.0428 -1.6661  0.2133
  131OSM   H11T14043   3.005   2.390   2.974 -0.6737  0.0618 -0.8541
  131OSM   C12S14044   3.001   2.575   3.086 -0.5916 -0.4610 -0.1900
  131OSM   H12S14045   2.906   2.546   3.135 -0.7695  0.4845  0.0223
  131OSM   H12T14046   3.024   2.680   3.060 -0.9220  0.8658  4.2155
  131OSM   C13S14047   3.111   2.544   3.182  0.4678 -0.0321 -0.1391
  131OSM   H13S14048   3.208   2.540   3.129  0.6107  0.9313  0.0280
  131OSM   H13T14049   3.095   2.443   3.226 -0.3241 -0.5660 -1.5789
  131OSM   C14S14050   3.093   2.654   3.292 -0.2134 -0.4078 -0.6698
  131OSM   H14S14051   2.985   2.668   3.313  0.2910  1.3395  0.9830
  131OSM   H14T14052   3.122   2.754   3.252 -0.9285 -0.2340 -0.7630
  131OSM   C15S14053   3.169   2.609   3.413 -0.3516  0.5137 -1.1884
  131OSM   H15S14054   3.274   2.590   3.382 -0.2401  0.3336 -0.7168
  131OSM   H15T14055   3.114   2.517   3.443  0.8228 -0.0788 -0.7999
  131OSM   C16S14056   3.156   2.704   3.535  0.3219 -0.0560 -1.1639
  131OSM   H16S14057   3.174   2.656   3.633 -0.4265 -1.3606 -1.6419
  131OSM   H16T14058   3.050   2.737   3.529  0.3311  0.3570  0.5049
  131OSM   C17S14059   3.235   2.835   3.525  0.6462 -0.6925 -0.3700
  131OSM   H17S14060   3.212   2.887   3.430  0.3773 -1.7043 -0.8760
  131OSM   H17T14061   3.342   2.803   3.526  0.6848 -0.8563  2.9887
  131OSM   C18S14062   3.207   2.931   3.643 -0.2890  0.5125  0.0508
  131OSM   H18S14063   3.278   3.017   3.641 -0.5114  0.7253  0.8018
  131OSM   H18T14064   3.231   2.879   3.738 -0.7840 -0.8461 -0.5532
  131OSM   H18U14065   3.104   2.972   3.632 -0.8576 -1.0495 -0.6219
  131OSM    C1F14066   2.933   2.218   2.313  0.2275  0.1853  0.2527
  131OSM     OF14067   2.995   2.279   2.226  0.1471  0.0844 -0.1737
  131OSM    C2F14068   3.005   2.141   2.423  0.6623  0.2127 -0.3756
  131OSM    H2F14069   3.067   2.061   2.376 -0.8782  0.1921 -2.5264
  131OSM    H2G14070   2.935   2.095   2.496  1.4257  0.4209  0.5058
  131OSM    C3F14071   3.106   2.236   2.502  0.1947 -0.0626  0.0484
  131OSM    H3F14072   3.044   2.320   2.539  1.9299  0.6531  1.4420
  131OSM    H3G14073   3.182   2.262   2.427 -1.0759  0.2809 -1.1645
  131OSM    C4F14074   3.155   2.158   2.623  0.6519  0.1093  0.9820
  131OSM    H4F14075   3.221   2.075   2.591  0.6731  0.0864  1.0885
  131OSM    H4G14076   3.069   2.125   2.685 -1.6356 -1.2744 -2.5580
  131OSM    C5F14077   3.254   2.243   2.713  0.3983  0.1802 -0.8172
  131OSM    H5F14078   3.207   2.342   2.729 -1.0006 -0.8777  2.6417
  131OSM    H5G14079   3.344   2.254   2.650  0.1774  1.5071 -0.9214
  131OSM    C6F14080   3.282   2.179   2.849  0.4956 -0.0048  0.0174
  131OSM    H6F14081   3.363   2.108   2.820  2.3725  2.7846 -2.1264
  131OSM    H6G14082   3.181   2.147   2.883 -0.4171  1.9307 -0.7111
  131OSM    C7F14083   3.350   2.273   2.939  0.0533  0.4454 -0.2262
  131OSM    H7F14084   3.278   2.352   2.971  0.2007  1.1186 -1.4934
  131OSM    H7G14085   3.430   2.328   2.885  0.4652 -0.2480 -0.3262
  131OSM    C8F14086   3.398   2.213   3.073 -0.1590  0.5844 -0.3081
  131OSM    H8F14087   3.478   2.138   3.056  0.4668  1.2141 -0.1927
  131OSM    H8G14088   3.321   2.140   3.108  0.0038  1.3703  1.8890
  131OSM    C9F14089   3.432   2.308   3.183 -0.3329  0.3528  0.3035
  131OSM    H9F14090   3.358   2.390   3.190 -0.8073 -0.1681  1.5850
  131OSM   C10F14091   3.537   2.312   3.264 -0.7654  0.3805 -0.1203
  131OSM   H10F14092   3.539   2.393   3.339  1.9940  0.9197 -0.6549
  131OSM   C11F14093   3.646   2.207   3.266  0.7603 -0.1562 -0.1610
  131OSM   H11F14094   3.692   2.203   3.165  2.9744  0.0624  0.7645
  131OSM   H11G14095   3.613   2.106   3.296 -1.2372  0.2423 -0.9196
  131OSM   C12F14096   3.759   2.263   3.359 -0.0996 -0.4455  0.3745
  131OSM   H12F14097   3.712   2.260   3.460 -1.3797  1.3095 -0.1300
  131OSM   H12G14098   3.785   2.366   3.329 -1.1274 -0.3222 -0.1455
  131OSM   C13F14099   3.878   2.177   3.357 -0.3958 -0.0498  0.1291
  131OSM   H13F14100   3.911   2.169   3.252 -2.8605 -1.1289 -0.6523
  131OSM   H13G14101   3.855   2.070   3.375  0.6537 -0.7377 -2.3243
  131OSM   C14F14102   3.989   2.224   3.441 -0.0936 -0.0575  0.1417
  131OSM   H14F14103   3.999   2.335   3.434 -0.1492 -0.0371  0.3793
  131OSM   H14G14104   4.083   2.178   3.405 -0.5932 -1.0521  0.0806
  131OSM   C15F14105   3.962   2.188   3.586  0.7037  0.1433  0.6603
  131OSM   H15F14106   3.990   2.083   3.612  2.3946  0.4893  0.3505
  131OSM   H15G14107   3.857   2.213   3.612  0.7325  1.5982 -0.5200
  131OSM   C16F14108   4.040   2.268   3.691  0.2688 -0.6613 -0.0262
  131OSM   H16F14109   3.998   2.370   3.702  3.4821  0.7141  0.6395
  131OSM   H16G14110   4.141   2.282   3.647 -0.5864  3.0331 -1.1878
  131OSM   C17F14111   4.053   2.195   3.825  0.1952  0.1506 -0.3460
  131OSM   H17F14112   4.123   2.109   3.815  0.8014  0.6741 -0.7631
  131OSM   H17G14113   3.953   2.162   3.859  0.3337 -0.0868 -0.1659
  131OSM   C18F14114   4.113   2.290   3.938 -0.3708  0.7186  0.2265
  131OSM   H18F14115   4.221   2.315   3.922 -0.3166  0.8071  0.7122
  131OSM   H18G14116   4.103   2.235   4.034 -1.4178 -0.1758 -0.3714
  131OSM   H18H14117   4.050   2.381   3.944 -1.4184 -0.0187  0.5244
  132OSM      N14118   1.735   4.060   2.235 -0.4294  0.5166  0.0899
  132OSM    C1514119   1.618   4.100   2.311  0.1029  0.2740 -0.2109
  132OSM   H15A14120   1.644   4.170   2.389 -0.3931 -0.1343  0.3325
  132OSM   H15B14121   1.577   4.016   2.365 -0.1495 -0.5861 -1.7102
  132OSM   H15C14122   1.548   4.149   2.245 -1.9651  0.4423  1.9453
  132OSM    C1414123   1.818   3.978   2.329 -0.2442  0.4285 -0.1617
  132OSM   H14A14124   1.822   4.040   2.418 -3.4502 -0.1513  0.5209
  132OSM   H14B14125   1.906   3.949   2.275 -0.6640 -0.6047 -0.3076
  132OSM   H14C14126   1.763   3.895   2.371  0.0579  0.5335  0.4605
  132OSM    C1314127   1.688   3.980   2.118 -0.0758  0.2350  0.0706
  132OSM   H13A14128   1.630   4.045   2.055 -0.5402  0.8832  1.1422
  132OSM   H13B14129   1.633   3.898   2.162  2.0233 -0.5638  1.3597
  132OSM   H13C14130   1.766   3.934   2.059 -2.1961  0.2160 -2.9374
  132OSM    C1214131   1.819   4.175   2.175 -0.5643 -0.1552 -0.3502
  132OSM   H12A14132   1.759   4.240   2.114  1.4644  0.7600 -1.4642
  132OSM   H12B14133   1.886   4.134   2.100  0.9148  1.4698  0.0119
  132OSM    C1114134   1.901   4.273   2.259 -0.1252  0.2862  0.6993
  132OSM   H11A14135   1.935   4.359   2.197  1.0892 -0.9108 -0.3681
  132OSM   H11B14136   1.995   4.217   2.279 -0.5868 -0.4823  0.7430
  132OSM      P14137   1.751   4.444   2.365  0.4426  0.0801 -0.2359
  132OSM    O1314138   1.737   4.482   2.225 -0.1457  0.0104  0.2412
  132OSM    O1414139   1.625   4.438   2.442  0.1662  0.4060  0.5053
  132OSM    O1114140   1.850   4.540   2.438 -0.5434 -0.1164  0.8197
  132OSM    O1214141   1.824   4.308   2.375  0.0750  0.1487  0.0361
  132OSM    C1S14142   1.819   4.679   2.481  0.1339 -0.0604  0.0710
  132OSM    H1S14143   1.718   4.708   2.444  0.1057 -0.3743 -0.0983
  132OSM    H1T14144   1.892   4.749   2.436  1.6489 -1.7966 -0.3012
  132OSM     NF14145   1.738   4.813   2.686 -0.3859  0.1309 -0.0276
  132OSM    HNF14146   1.795   4.885   2.726  0.1252  0.3659 -1.1255
  132OSM    C2S14147   1.809   4.688   2.641  1.1607 -0.2787 -0.0523
  132OSM    H2S14148   1.742   4.607   2.680 -0.1470  1.7105  2.0875
  132OSM    C3S14149   1.946   4.654   2.708  0.0944 -0.3330 -0.4407
  132OSM    H3S14150   2.018   4.733   2.677  2.3096 -2.2286 -0.3371
  132OSM     O314151   1.997   4.528   2.656 -0.5187  0.2466 -0.3804
  132OSM    HO314152   1.948   4.520   2.574 -0.6755  1.0431 -0.3724
  132OSM    C4S14153   1.946   4.662   2.860  0.4656  0.4794  0.1020
  132OSM    H4S14154   1.969   4.762   2.901 -3.7890  2.7146 -2.3509
  132OSM    C5S14155   1.909   4.564   2.946 -0.6965 -0.4610  0.0524
  132OSM    H5S14156   1.885   4.463   2.908 -0.4085 -0.2162 -0.8105
  132OSM    C6S14157   1.903   4.597   3.092  0.2085  0.7994  0.1727
  132OSM    H6S14158   1.983   4.667   3.124 -0.2545  0.8239  1.3194
  132OSM    H6T14159   1.914   4.503   3.149  0.7899  0.3406 -0.6697
  132OSM    C7S14160   1.767   4.660   3.135 -0.6656  0.0165  0.1562
  132OSM    H7S14161   1.685   4.589   3.110  0.3931 -1.8457  1.7157
  132OSM    H7T14162   1.763   4.757   3.081 -0.5892  0.1010  0.3028
  132OSM    C8S14163   1.761   4.703   3.284 -0.4343 -0.6055  0.0356
  132OSM    H8S14164   1.679   4.777   3.298  1.6563  1.8756  0.0145
  132OSM    H8T14165   1.851   4.768   3.296 -1.3910  0.5957  1.0908
  132OSM    C9S14166   1.760   4.591   3.382 -0.3568  0.1065 -0.5429
  132OSM    H9S14167   1.831   4.514   3.345  0.4215  0.7711 -0.4662
  132OSM    H9T14168   1.660   4.542   3.383 -0.1175 -0.4053 -1.0221
  132OSM   C10S14169   1.808   4.642   3.527 -0.0266  0.7265  0.6455
  132OSM   H10S14170   1.746   4.730   3.556 -0.5950  0.3774  0.5166
  132OSM   H10T14171   1.913   4.671   3.508 -0.6749  0.9903 -3.2940
  132OSM   C11S14172   1.808   4.529   3.638 -0.2064  0.1554  0.1461
  132OSM   H11S14173   1.705   4.488   3.646 -0.3992  0.4011 -0.9513
  132OSM   H11T14174   1.837   4.582   3.731  2.2801 -1.4573  0.3788
  132OSM   C12S14175   1.901   4.409   3.617 -1.0521 -0.1996 -0.3841
  132OSM   H12S14176   1.996   4.463   3.598 -0.4635 -0.5762  1.3139
  132OSM   H12T14177   1.879   4.349   3.526 -1.4424  0.2244 -0.5719
  132OSM   C13S14178   1.916   4.324   3.748  0.0345 -0.1072  0.4854
  132OSM   H13S14179   1.986   4.238   3.740 -1.0408 -0.8474 -1.9035
  132OSM   H13T14180   1.817   4.275   3.766 -0.3553  0.1774 -0.7655
  132OSM   C14S14181   1.966   4.389   3.873 -0.2889 -0.0806  0.2323
  132OSM   H14S14182   1.893   4.460   3.916  0.8400  1.0511  0.3555
  132OSM   H14T14183   2.053   4.448   3.835  1.4424 -3.3851 -1.3455
  132OSM   C15S14184   2.015   4.298   3.986  0.1502  0.1969 -0.6685
  132OSM   H15S14185   2.097   4.227   3.963 -0.2624 -0.5719  0.1751
  132OSM   H15T14186   1.923   4.237   3.998 -0.5793  1.0636 -1.6917
  132OSM   C16S14187   2.043   4.377   4.120 -0.2859 -0.1242  0.4230
  132OSM   H16S14188   2.040   4.299   4.200 -0.0501 -0.2610  0.2968
  132OSM   H16T14189   1.955   4.444   4.134 -0.3828  0.0959 -1.1469
  132OSM   C17S14190   2.175   4.463   4.116 -0.2872  0.0133 -0.5874
  132OSM   H17S14191   2.179   4.525   4.208 -2.8114 -0.3348 -0.1717
  132OSM   H17T14192   2.163   4.533   4.030 -2.9760  0.8635  0.3698
  132OSM   C18S14193   2.308   4.387   4.108 -0.3241  0.2948 -0.1377
  132OSM   H18S14194   2.398   4.447   4.134 -0.1675  1.6490 -3.2983
  132OSM   H18T14195   2.316   4.363   4.000 -0.8722 -1.4139  0.1747
  132OSM   H18U14196   2.296   4.290   4.160  1.9310 -0.3448 -0.7036
  132OSM    C1F14197   1.608   4.829   2.667  0.6506 -0.3211  0.1879
  132OSM     OF14198   1.548   4.738   2.624  0.4845  0.5491  0.0054
  132OSM    C2F14199   1.538   4.954   2.709  0.3880  0.4471  0.0477
  132OSM    H2F14200   1.481   5.001   2.625 -0.0951  2.2074  1.3051
  132OSM    H2G14201   1.611   5.034   2.733  0.9618 -0.0988  0.1586
  132OSM    C3F14202   1.440   4.919   2.823  0.4348 -0.3970 -0.5080
  132OSM    H3F14203   1.363   4.849   2.784 -0.2957  0.4998 -0.7201
  132OSM    H3G14204   1.393   5.011   2.864  2.2948 -0.4269  1.9199
  132OSM    C4F14205   1.505   4.852   2.954 -0.1380  0.1085  0.6444
  132OSM    H4F14206   1.604   4.901   2.969  0.3868 -0.7286  0.0339
  132OSM    H4G14207   1.529   4.746   2.928 -1.6703  0.4144 -2.4018
  132OSM    C5F14208   1.420   4.873   3.083 -0.0976 -0.2911 -0.0852
  132OSM    H5F14209   1.401   4.981   3.103 -2.2537 -0.8990  1.5201
  132OSM    H5G14210   1.495   4.849   3.162  2.9449 -1.3339 -3.0915
  132OSM    C6F14211   1.285   4.809   3.093 -0.1122 -0.2931  0.5723
  132OSM    H6F14212   1.225   4.836   3.004 -1.2742  2.6296  2.0961
  132OSM    H6G14213   1.240   4.855   3.184 -0.2819  2.3317 -0.7506
  132OSM    C7F14214   1.291   4.651   3.114 -0.1054  0.2654  0.8118
  132OSM    H7F14215   1.301   4.604   3.014 -1.0510 -0.5440  1.0917
  132OSM    H7G14216   1.192   4.615   3.148  0.5483 -0.2540  2.2259
  132OSM    C8F14217   1.403   4.599   3.206  0.2598 -0.0877 -0.2873
  132OSM    H8F14218   1.502   4.645   3.186  0.6978 -1.2130 -0.7576
  132OSM    H8G14219   1.416   4.489   3.202  1.8943 -0.0869  2.4863
  132OSM    C9F14220   1.368   4.647   3.347  1.1339  0.0924  0.4437
  132OSM    H9F14221   1.367   4.757   3.348 -1.8696  0.1436  1.2204
  132OSM   C10F14222   1.340   4.572   3.453  0.3441  0.1497 -0.5192
  132OSM   H10F14223   1.326   4.624   3.548 -0.2058 -0.1650 -0.4265
  132OSM   C11F14224   1.340   4.417   3.451  0.4420  0.4360  0.0426
  132OSM   H11F14225   1.391   4.378   3.360 -2.4342  0.5648 -1.7513
  132OSM   H11G14226   1.236   4.379   3.443 -0.8609  3.0239  2.6835
  132OSM   C12F14227   1.401   4.349   3.570  0.0118 -0.1348 -0.3146
  132OSM   H12F14228   1.489   4.409   3.602  0.1569  0.3770 -1.6052
  132OSM   H12G14229   1.448   4.258   3.525 -1.3643 -0.1867 -1.7134
  132OSM   C13F14230   1.308   4.320   3.692  0.3629 -0.8767  0.5647
  132OSM   H13F14231   1.209   4.283   3.658  0.2436  1.0458 -1.3880
  132OSM   H13G14232   1.297   4.416   3.746 -2.4468  0.0756 -1.4729
  132OSM   C14F14233   1.365   4.228   3.797 -0.3191 -0.0972 -0.4885
  132OSM   H14F14234   1.382   4.124   3.764  0.1260  0.4024 -1.8734
  132OSM   H14G14235   1.290   4.210   3.877  0.3154 -0.1915  0.0917
  132OSM   C15F14236   1.485   4.285   3.855 -1.6686 -0.3426 -0.1832
  132OSM   H15F14237   1.482   4.389   3.893  1.1224  0.4158 -1.7122
  132OSM   H15G14238   1.558   4.283   3.771 -2.4722 -0.6931 -0.8824
  132OSM   C16F14239   1.544   4.191   3.970  1.1185 -0.0475  0.6827
  132OSM   H16F14240   1.641   4.238   3.998  0.4112  0.6851  2.0141
  132OSM   H16G14241   1.564   4.088   3.933  0.4178  0.0084  0.1485
  132OSM   C17F14242   1.465   4.169   4.097 -0.3116 -0.1230 -0.5614
  132OSM   H17F14243   1.381   4.098   4.082  0.6484 -1.4070 -0.1316
  132OSM   H17G14244   1.442   4.268   4.142  1.8098 -0.7000  2.0733
  132OSM   C18F14245   1.547   4.089   4.199 -0.3346  0.0395  0.0126
  132OSM   H18F14246   1.530   3.984   4.167 -2.2210  0.6237 -1.0287
  132OSM   H18G14247   1.515   4.107   4.304  0.7659  1.0348  0.2041
  132OSM   H18H14248   1.656   4.114   4.204 -0.1797 -0.3530 -1.2087
  133OSM      N14249   0.725   3.131   2.310  0.2356  0.2014  0.4149
  133OSM    C1514250   0.785   3.076   2.434  0.2474 -0.8710 -0.2793
  133OSM   H15A14251   0.753   3.132   2.521  1.8045 -1.0536  0.4485
  133OSM   H15B14252   0.891   3.095   2.425  0.2189 -0.4043  0.2816
  133OSM   H15C14253   0.748   2.977   2.457 -0.5990 -0.1915  1.5100
  133OSM    C1414254   0.797   3.258   2.276 -0.1108 -0.2160 -0.7010
  133OSM   H14A14255   0.897   3.249   2.316 -0.3501  0.2231  0.0023
  133OSM   H14B14256   0.752   3.334   2.338 -1.2980 -1.7925  0.4171
  133OSM   H14C14257   0.786   3.276   2.170  3.5317 -1.1975 -1.3731
  133OSM    C1314258   0.741   3.036   2.198  0.4231  1.0785  0.5284
  133OSM   H13A14259   0.697   2.939   2.211 -0.0077  1.3864  1.4600
  133OSM   H13B14260   0.847   3.018   2.192  0.2718  0.5172 -0.6721
  133OSM   H13C14261   0.703   3.076   2.105  0.2074 -1.1775 -0.4242
  133OSM    C1214262   0.580   3.168   2.328  0.0076  0.6828 -0.1095
  133OSM   H12A14263   0.574   3.243   2.406 -0.3842  1.1836 -0.6066
  133OSM   H12B14264   0.519   3.089   2.368  2.5340 -1.6699 -0.5951
  133OSM    C1114265   0.511   3.236   2.210  0.1544 -0.1738  0.3894
  133OSM   H11A14266   0.518   3.180   2.114  1.1988 -1.0175  0.9218
  133OSM   H11B14267   0.566   3.332   2.200  2.5208 -1.3463  1.2012
  133OSM      P14268   0.269   3.157   2.240 -0.2214  0.1165 -0.0343
  133OSM    O1314269   0.135   3.202   2.282  0.2386  0.2734 -0.4958
  133OSM    O1414270   0.285   3.121   2.099  0.6127  0.1953  0.6593
  133OSM    O1114271   0.320   3.049   2.338  0.1484  0.5489 -0.5947
  133OSM    O1214272   0.380   3.265   2.262 -0.3098 -0.1816  0.1222
  133OSM    C1S14273   0.310   3.043   2.479 -0.1708  0.0705  0.4119
  133OSM    H1S14274   0.286   3.138   2.530 -0.0752 -0.2697  1.1022
  133OSM    H1T14275   0.411   3.015   2.517 -0.0316 -1.1005 -0.7334
  133OSM     NF14276   0.183   2.969   2.664 -0.0621  0.2437 -0.0603
  133OSM    HNF14277   0.229   2.905   2.726 -0.6162  0.5073  0.6319
  133OSM    C2S14278   0.204   2.938   2.518 -0.2338  1.0863 -0.6308
  133OSM    H2S14279   0.111   2.965   2.464 -0.0741  1.0953 -0.9018
  133OSM    C3S14280   0.255   2.791   2.484  0.1568  0.3885  0.1996
  133OSM    H3S14281   0.349   2.767   2.538 -0.0904 -0.8737  0.1003
  133OSM     O314282   0.286   2.773   2.342  0.2550 -0.0997  0.3010
  133OSM    HO314283   0.286   2.864   2.310  0.2061 -0.8676 -2.1038
  133OSM    C4S14284   0.147   2.690   2.525  0.0507  0.3639 -0.8572
  133OSM    H4S14285   0.054   2.695   2.466  0.1994 -1.4491 -1.3061
  133OSM    C5S14286   0.162   2.586   2.603 -0.1762 -0.1293 -0.2573
  133OSM    H5S14287   0.262   2.562   2.642 -0.2387 -2.7385 -1.4715
  133OSM    C6S14288   0.040   2.506   2.635  0.0167  0.5600  0.2162
  133OSM    H6S14289   0.073   2.400   2.637  0.8740  0.8076  2.5391
  133OSM    H6T14290  -0.037   2.509   2.555 -0.0829 -2.2836  0.1090
  133OSM    C7S14291  -0.011   2.540   2.770 -0.3615 -0.2040 -0.3256
  133OSM    H7S14292  -0.116   2.504   2.772  0.8867 -4.5030 -1.4447
  133OSM    H7T14293  -0.003   2.647   2.800 -1.3479 -0.5172  1.1257
  133OSM    C8S14294   0.050   2.449   2.880 -0.4909  0.0016 -0.1042
  133OSM    H8S14295   0.159   2.447   2.860 -0.0364  0.8990  1.9921
  133OSM    H8T14296   0.018   2.344   2.868  2.7641 -1.5404  2.8966
  133OSM    C9S14297   0.007   2.488   3.026 -0.1252 -0.6791  0.0391
  133OSM    H9S14298  -0.088   2.546   3.025 -0.2123 -0.8262 -1.6694
  133OSM    H9T14299   0.080   2.563   3.066 -1.6270  0.8977 -0.0571
  133OSM   C10S14300   0.015   2.372   3.121 -0.3522  0.7047 -0.0484
  133OSM   H10S14301   0.120   2.336   3.123 -0.7091 -0.3670 -0.0065
  133OSM   H10T14302  -0.045   2.286   3.085 -1.5470  1.7025 -0.5065
  133OSM   C11S14303  -0.026   2.404   3.267  0.3638  0.7258  0.5784
  133OSM   H11S14304  -0.135   2.385   3.271  0.6139 -1.1116 -0.2682
  133OSM   H11T14305   0.002   2.506   3.300 -1.6396  1.5049  0.0024
  133OSM   C12S14306   0.029   2.293   3.365  0.6444  0.2576 -0.1529
  133OSM   H12S14307   0.139   2.302   3.368  0.5109  2.8915 -0.8842
  133OSM   H12T14308   0.009   2.192   3.324 -0.6902  0.4838 -0.1095
  133OSM   C13S14309  -0.028   2.297   3.506  0.4520 -0.3765 -0.8101
  133OSM   H13S14310  -0.138   2.306   3.500  0.5427  1.7430  0.1373
  133OSM   H13T14311   0.005   2.394   3.549 -0.5430 -0.1905 -0.4436
  133OSM   C14S14312   0.003   2.169   3.587  0.0290 -0.4138 -0.1793
  133OSM   H14S14313   0.111   2.159   3.613 -0.2670 -0.3083  1.1927
  133OSM   H14T14314  -0.031   2.080   3.530  2.2473 -0.5932 -1.3387
  133OSM   C15S14315  -0.067   2.145   3.721 -0.7506 -1.1018 -0.3642
  133OSM   H15S14316  -0.053   2.037   3.744 -0.1512 -0.6093  1.7358
  133OSM   H15T14317  -0.176   2.166   3.712 -0.4399  0.6673 -0.2519
  133OSM   C16S14318  -0.010   2.223   3.848  0.6847 -0.0781  0.6113
  133OSM   H16S14319  -0.050   2.327   3.844  3.1886  1.0425  2.2087
  133OSM   H16T14320   0.099   2.220   3.826  0.2092 -0.4462 -2.0968
  133OSM   C17S14321  -0.050   2.154   3.972 -0.1585  0.6418  0.4702
  133OSM   H17S14322   0.026   2.177   4.050  1.9118 -0.1543 -1.2004
  133OSM   H17T14323  -0.045   2.043   3.967 -0.4922  0.6637 -0.5170
  133OSM   C18S14324  -0.202   2.182   4.005  0.0425 -0.3740 -0.1461
  133OSM   H18S14325  -0.225   2.162   4.112  1.9529  1.7030  0.7403
  133OSM   H18T14326  -0.272   2.137   3.932 -3.4053  1.7360  1.5967
  133OSM   H18U14327  -0.203   2.293   4.008  2.2864 -0.3082  0.0530
  133OSM    C1F14328   0.104   3.066   2.712 -0.0680  0.2532 -0.5215
  133OSM     OF14329   0.009   3.116   2.650 -0.4787 -0.0928 -0.2925
  133OSM    C2F14330   0.138   3.106   2.854  0.0394  0.0026 -0.3147
  133OSM    H2F14331   0.170   3.213   2.848  0.9803 -0.3466 -2.3266
  133OSM    H2G14332   0.233   3.054   2.880 -0.0512  0.5011  1.1077
  133OSM    C3F14333   0.040   3.071   2.967  0.7938  0.4319 -0.3300
  133OSM    H3F14334  -0.065   3.073   2.933  0.6303  0.0046  0.1455
  133OSM    H3G14335   0.055   3.150   3.045 -0.1314  0.4979 -0.2111
  133OSM    C4F14336   0.063   2.931   3.027  0.4636  0.0549  0.8850
  133OSM    H4F14337   0.170   2.920   3.054 -0.0250 -1.7107  2.2389
  133OSM    H4G14338   0.028   2.862   2.947 -2.6121  3.0107 -0.5847
  133OSM    C5F14339  -0.019   2.926   3.162 -0.3204  0.0842  0.3010
  133OSM    H5F14340  -0.126   2.913   3.135  0.6448 -0.1193 -4.2349
  133OSM    H5G14341  -0.016   3.026   3.210 -1.6240  0.4917 -0.4141
  133OSM    C6F14342   0.030   2.822   3.259  0.3526  0.3516 -0.6907
  133OSM    H6F14343   0.141   2.817   3.262  0.2898 -1.0390  1.1295
  133OSM    H6G14344  -0.005   2.724   3.218  0.6163  1.1917 -3.0762
  133OSM    C7F14345  -0.031   2.849   3.393  0.0137  0.3671  0.1368
  133OSM    H7F14346  -0.142   2.835   3.397 -0.0477  0.5064  4.4845
  133OSM    H7G14347  -0.011   2.950   3.436  1.3044  0.6375 -1.0522
  133OSM    C8F14348   0.033   2.748   3.492 -0.1510  0.4300 -0.0202
  133OSM    H8F14349   0.144   2.756   3.482 -0.1550  0.1896 -0.2841
  133OSM    H8G14350   0.012   2.642   3.463  0.0701 -0.3357  2.3759
  133OSM    C9F14351  -0.010   2.753   3.642 -0.5735 -0.0947 -0.6858
  133OSM    H9F14352  -0.113   2.786   3.663 -0.4882  1.5587 -2.5477
  133OSM   C10F14353   0.070   2.724   3.742  0.6335  1.3309 -0.0340
  133OSM   H10F14354   0.035   2.752   3.843 -0.6048 -0.3958  0.0739
  133OSM   C11F14355   0.210   2.687   3.715 -0.6401  0.2932  0.4770
  133OSM   H11F14356   0.266   2.769   3.665 -1.9806  1.4019  0.7312
  133OSM   H11G14357   0.218   2.592   3.657 -1.8940 -0.1917  1.0414
  133OSM   C12F14358   0.293   2.671   3.842 -0.7493  0.1035  0.2534
  133OSM   H12F14359   0.284   2.760   3.907 -0.6912 -0.8992  1.6831
  133OSM   H12G14360   0.400   2.660   3.817 -0.4265 -0.7145  1.8560
  133OSM   C13F14361   0.240   2.549   3.927 -0.4784  0.1373 -0.0401
  133OSM   H13F14362   0.218   2.459   3.866  2.6097 -0.3897 -0.5435
  133OSM   H13G14363   0.142   2.579   3.970 -0.4874  0.2406 -0.1324
  133OSM   C14F14364   0.340   2.505   4.045  0.7168 -0.3620  0.9534
  133OSM   H14F14365   0.348   2.593   4.113 -0.4611 -0.9663  1.9190
  133OSM   H14G14366   0.439   2.485   3.998 -0.7562 -0.3924 -2.3651
  133OSM   C15F14367   0.282   2.387   4.125 -0.0743  0.0462  0.2323
  133OSM   H15F14368   0.312   2.293   4.074  0.4098  0.8339 -0.9592
  133OSM   H15G14369   0.172   2.396   4.114 -0.4081 -1.4039  1.8489
  133OSM   C16F14370   0.340   2.390   4.266  0.1318  0.6937  0.3177
  133OSM   H16F14371   0.282   2.468   4.321  0.6708  1.3608 -0.0436
  133OSM   H16G14372   0.446   2.423   4.273  0.9283 -1.4966 -0.5995
  133OSM   C17F14373   0.343   2.259   4.343  0.8963 -0.1743 -0.1580
  133OSM   H17F14374   0.409   2.188   4.289 -0.5857  1.2514 -4.2441
  133OSM   H17G14375   0.239   2.220   4.344  1.3947 -1.6875 -2.2155
  133OSM   C18F14376   0.395   2.280   4.484 -0.3262  0.5269  0.0426
  133OSM   H18F14377   0.505   2.274   4.475 -0.4126 -0.2102 -0.5773
  133OSM   H18G14378   0.374   2.198   4.556  2.6402  0.3096  0.7981
  133OSM   H18H14379   0.382   2.372   4.546  0.9586  0.2817  0.7067
  134OSM      N14380   0.679   6.206   1.644 -0.8581 -0.0818  0.0703
  134OSM    C1514381   0.535   6.194   1.624  0.3068 -0.0499  0.4478
  134OSM   H15A14382   0.474   6.276   1.658 -0.8324 -0.4622 -0.5485
  134OSM   H15B14383   0.508   6.097   1.665  3.1838 -1.3071 -0.3414
  134OSM   H15C14384   0.511   6.184   1.519 -0.3517  1.0585  0.4808
  134OSM    C1414385   0.736   6.087   1.567 -0.0202  0.2306  0.0631
  134OSM   H14A14386   0.722   6.071   1.461 -1.3099 -2.0528  0.5196
  134OSM   H14B14387   0.701   5.994   1.609 -1.2380  0.2840 -0.7817
  134OSM   H14C14388   0.844   6.084   1.572 -0.0566 -0.9216  0.5989
  134OSM    C1314389   0.729   6.322   1.567 -0.1569 -0.1305 -0.8778
  134OSM   H13A14390   0.690   6.407   1.621  1.4476 -0.3121  0.6328
  134OSM   H13B14391   0.705   6.317   1.461 -0.3726  1.1117 -0.9012
  134OSM   H13C14392   0.836   6.336   1.567 -0.5168  3.5757 -0.2324
  134OSM    C1214393   0.717   6.204   1.789 -0.0274 -0.0262 -0.1653
  134OSM   H12A14394   0.824   6.207   1.800 -0.0717  0.4303  0.1610
  134OSM   H12B14395   0.703   6.109   1.838  2.2997  0.0424  0.7459
  134OSM    C1114396   0.657   6.303   1.879  0.0445 -0.2629  0.3407
  134OSM   H11A14397   0.654   6.400   1.825 -0.9921  0.5414  1.7458
  134OSM   H11B14398   0.721   6.309   1.970  1.7554 -0.1058 -0.8470
  134OSM      P14399   0.479   6.149   2.009 -0.6464 -0.2277 -0.2503
  134OSM    O1314400   0.343   6.101   1.981  0.0389  0.1182 -0.1615
  134OSM    O1414401   0.583   6.045   2.010  0.8277  0.0697  0.0354
  134OSM    O1114402   0.478   6.224   2.148  0.6520 -0.1893 -0.3918
  134OSM    O1214403   0.520   6.266   1.905  0.0938  0.5785 -0.4739
  134OSM    C1S14404   0.391   6.205   2.250  1.1209 -0.1462 -0.0417
  134OSM    H1S14405   0.363   6.097   2.256  0.6408 -0.1486 -1.8673
  134OSM    H1T14406   0.307   6.270   2.219 -0.3872 -2.0582 -0.1582
  134OSM     NF14407   0.340   6.217   2.480  0.0849  0.5872 -0.1560
  134OSM    HNF14408   0.265   6.272   2.515 -1.7461 -1.8858  0.0139
  134OSM    C2S14409   0.440   6.261   2.388  0.1897 -0.6595  0.4379
  134OSM    H2S14410   0.540   6.216   2.407  1.0709  1.5868  1.3440
  134OSM    C3S14411   0.461   6.419   2.377 -0.0073  0.3620  0.5067
  134OSM    H3S14412   0.363   6.464   2.351 -0.4330 -1.3244 -0.9642
  134OSM     O314413   0.553   6.463   2.281 -0.3623  0.2236  0.3398
  134OSM    HO314414   0.568   6.385   2.228 -0.0682 -1.3100  2.5470
  134OSM    C4S14415   0.497   6.460   2.518 -0.5622  0.6341  0.4196
  134OSM    H4S14416   0.413   6.473   2.588  0.3016  1.2453  1.3730
  134OSM    C5S14417   0.622   6.460   2.569 -0.0409  0.2932 -0.9649
  134OSM    H5S14418   0.701   6.432   2.499 -1.0441  1.5169 -2.6481
  134OSM    C6S14419   0.658   6.460   2.716  0.2643 -0.2300 -0.5628
  134OSM    H6S14420   0.741   6.532   2.730  1.0948 -0.8585 -2.0447
  134OSM    H6T14421   0.692   6.359   2.745 -0.2639  0.1855  1.7084
  134OSM    C7S14422   0.548   6.499   2.822 -0.7179 -0.4410  0.9538
  134OSM    H7S14423   0.470   6.421   2.836 -3.0926  1.7323  0.7446
  134OSM    H7T14424   0.493   6.591   2.791  1.8077  1.6494  2.2709
  134OSM    C8S14425   0.616   6.511   2.961  0.0502 -0.6489 -0.2369
  134OSM    H8S14426   0.699   6.584   2.950  0.8361 -1.8150 -2.5405
  134OSM    H8T14427   0.653   6.408   2.979  1.0136 -0.7092 -2.3301
  134OSM    C9S14428   0.518   6.547   3.073  0.0684  0.2477 -0.2324
  134OSM    H9S14429   0.437   6.472   3.058  1.2198 -0.5634 -3.2694
  134OSM    H9T14430   0.473   6.646   3.050  0.3335  0.9440  1.9769
  134OSM   C10S14431   0.577   6.544   3.221  0.0415  0.0694 -0.0156
  134OSM   H10S14432   0.687   6.559   3.216 -0.0454  0.5924 -0.4903
  134OSM   H10T14433   0.552   6.444   3.262  1.1816  0.0463  0.6600
  134OSM   C11S14434   0.529   6.654   3.314  0.3614  0.4033  0.0107
  134OSM   H11S14435   0.420   6.635   3.319  0.6431 -1.4242 -0.3470
  134OSM   H11T14436   0.537   6.752   3.262 -0.5137 -0.7624 -2.4211
  134OSM   C12S14437   0.593   6.661   3.451 -0.4709  0.0870 -0.4033
  134OSM   H12S14438   0.702   6.663   3.431 -0.4514 -1.2218 -0.4663
  134OSM   H12T14439   0.574   6.572   3.514  1.6878  0.4695  0.8611
  134OSM   C13S14440   0.539   6.786   3.521 -0.2499 -0.0345 -0.5041
  134OSM   H13S14441   0.428   6.785   3.527 -0.1738 -1.2188  1.8368
  134OSM   H13T14442   0.565   6.884   3.476 -1.7055  1.0748  0.9693
  134OSM   C14S14443   0.590   6.789   3.668  0.1148 -0.5984  0.0613
  134OSM   H14S14444   0.700   6.802   3.661  0.1793 -0.7053  0.8050
  134OSM   H14T14445   0.575   6.685   3.703 -0.1198 -0.4133  0.5320
  134OSM   C15S14446   0.515   6.891   3.757 -0.2463 -0.4488 -0.2860
  134OSM   H15S14447   0.405   6.883   3.744 -0.4998 -2.4210  2.2238
  134OSM   H15T14448   0.527   6.991   3.710 -2.4508  0.0165  0.0267
  134OSM   C16S14449   0.547   6.883   3.909  0.3024  0.6027  0.4995
  134OSM   H16S14450   0.655   6.881   3.932  0.4693  0.3051 -0.2831
  134OSM   H16T14451   0.511   6.786   3.949  0.8979 -0.1893 -0.8362
  134OSM   C17S14452   0.478   6.984   3.996  0.1196 -0.3809 -0.1205
  134OSM   H17S14453   0.466   6.944   4.099  3.0795  0.8860  0.8295
  134OSM   H17T14454   0.380   7.006   3.949 -0.6472 -1.1747  1.0524
  134OSM   C18S14455   0.563   7.106   3.999 -0.6185 -0.2230 -0.1043
  134OSM   H18S14456   0.550   7.158   3.902  1.5981 -1.1993 -0.9898
  134OSM   H18T14457   0.668   7.075   4.015 -0.3961  1.1103  1.2648
  134OSM   H18U14458   0.540   7.183   4.076 -1.2159  1.6980 -2.1014
  134OSM    C1F14459   0.342   6.084   2.519  0.0414 -0.7279  0.0491
  134OSM     OF14460   0.403   5.991   2.469 -0.8692 -0.7721  0.1733
  134OSM    C2F14461   0.239   6.052   2.623 -0.0907  0.6887  0.4119
  134OSM    H2F14462   0.137   6.071   2.583 -1.2893  1.0051  3.3811
  134OSM    H2G14463   0.256   6.136   2.693  1.4753  2.2705 -1.7149
  134OSM    C3F14464   0.255   5.930   2.705  0.1418 -0.5696 -0.0401
  134OSM    H3F14465   0.242   5.838   2.643 -1.5664  0.0642 -0.6688
  134OSM    H3G14466   0.179   5.932   2.786 -0.5902 -0.1797 -0.7264
  134OSM    C4F14467   0.398   5.912   2.771  0.1975 -0.2620 -0.1649
  134OSM    H4F14468   0.472   5.900   2.689  0.0988  1.5195 -0.5398
  134OSM    H4G14469   0.386   5.818   2.829 -2.2499 -1.1552 -1.9470
  134OSM    C5F14470   0.444   6.009   2.873 -0.1758 -0.1925 -0.3965
  134OSM    H5F14471   0.482   6.099   2.819 -2.8597  1.0485 -0.3732
  134OSM    H5G14472   0.536   5.986   2.930 -0.6708  1.4138  1.1279
  134OSM    C6F14473   0.334   6.053   2.964  0.0367 -0.8393  0.7013
  134OSM    H6F14474   0.283   5.971   3.018 -2.5779 -0.5049 -1.0639
  134OSM    H6G14475   0.252   6.093   2.901  1.7955  0.4401 -0.8857
  134OSM    C7F14476   0.378   6.168   3.053 -0.4776  1.0393  0.2236
  134OSM    H7F14477   0.432   6.242   2.991  4.2554 -0.8534  1.6882
  134OSM    H7G14478   0.452   6.127   3.124  1.7820  2.3801 -1.2434
  134OSM    C8F14479   0.267   6.234   3.125  0.1683 -0.5455  0.0754
  134OSM    H8F14480   0.200   6.275   3.046  0.5878 -1.4430 -0.7670
  134OSM    H8G14481   0.305   6.315   3.190 -2.4358 -1.6617  3.2360
  134OSM    C9F14482   0.184   6.146   3.216  0.3005  0.0958  0.0957
  134OSM    H9F14483   0.095   6.096   3.175  0.2760 -0.4105  0.7477
  134OSM   C10F14484   0.187   6.142   3.344  0.6476 -0.0510 -0.1217
  134OSM   H10F14485   0.115   6.079   3.398  0.4085  0.9147  0.7237
  134OSM   C11F14486   0.287   6.205   3.435 -0.0478  0.5997 -0.0376
  134OSM   H11F14487   0.278   6.316   3.430  3.0318  0.9158 -0.8179
  134OSM   H11G14488   0.391   6.178   3.407 -0.9605 -1.9911 -1.2688
  134OSM   C12F14489   0.251   6.154   3.577  0.0523 -0.4561 -0.4216
  134OSM   H12F14490   0.248   6.044   3.590  1.4517 -0.6779 -1.6532
  134OSM   H12G14491   0.167   6.218   3.610  0.6063  0.7353 -1.2317
  134OSM   C13F14492   0.360   6.187   3.690  0.0709 -0.4226  0.1314
  134OSM   H13F14493   0.449   6.123   3.670 -0.9646 -2.2751  1.1560
  134OSM   H13G14494   0.312   6.152   3.784  0.6661  1.6941  1.2971
  134OSM   C14F14495   0.396   6.335   3.701 -0.0054  0.9096 -0.1835
  134OSM   H14F14496   0.317   6.395   3.751  0.5838  2.4132 -1.0030
  134OSM   H14G14497   0.411   6.386   3.603 -0.9702  1.8297  0.1193
  134OSM   C15F14498   0.520   6.355   3.785  0.5632 -0.2743 -0.2487
  134OSM   H15F14499   0.552   6.458   3.761 -2.5401  0.7495 -0.3925
  134OSM   H15G14500   0.594   6.281   3.746 -0.7711 -1.2290 -1.0611
  134OSM   C16F14501   0.503   6.333   3.940  0.6093  0.6011 -0.3045
  134OSM   H16F14502   0.601   6.295   3.976 -0.8882 -2.4182  0.9208
  134OSM   H16G14503   0.434   6.251   3.969  0.4205  1.2525  1.2187
  134OSM   C17F14504   0.469   6.469   4.006 -0.6433 -0.4055 -0.4036
  134OSM   H17F14505   0.397   6.521   3.938 -1.4852  1.9617  2.1223
  134OSM   H17G14506   0.564   6.528   4.003 -0.9915  0.2136  0.3537
  134OSM   C18F14507   0.429   6.475   4.151 -0.7898 -0.1432 -0.0653
  134OSM   H18F14508   0.508   6.437   4.219 -1.5187 -0.7596  0.4530
  134OSM   H18G14509   0.340   6.409   4.165 -1.0967 -0.2956 -2.2889
  134OSM   H18H14510   0.419   6.580   4.186  0.8444  0.5057 -1.3892
  135OSM      N14511   2.602   4.568   1.949  0.6451  0.2010  0.5270
  135OSM    C1514512   2.697   4.582   2.063  0.1397  0.5858  0.6558
  135OSM   H15A14513   2.648   4.637   2.141  0.2661 -1.2121  2.0566
  135OSM   H15B14514   2.781   4.636   2.021 -1.3498  0.9827 -2.0562
  135OSM   H15C14515   2.740   4.493   2.106  0.3784 -0.3064 -1.3104
  135OSM    C1414516   2.545   4.699   1.900  0.1920  0.2056  0.3473
  135OSM   H14A14517   2.482   4.675   1.816  2.5686  0.6775 -1.7162
  135OSM   H14B14518   2.618   4.763   1.852 -0.6279 -0.1015 -1.3746
  135OSM   H14C14519   2.486   4.756   1.970 -0.6020  2.0512 -1.7006
  135OSM    C1314520   2.684   4.502   1.838  0.6662  0.3950 -0.6140
  135OSM   H13A14521   2.744   4.417   1.868  1.4831  0.8762 -0.8684
  135OSM   H13B14522   2.759   4.572   1.805  2.0065 -0.7378 -0.0623
  135OSM   H13C14523   2.628   4.482   1.747 -0.7502 -1.1620  0.5302
  135OSM    C1214524   2.497   4.472   1.991  0.2145  0.1778  0.3365
  135OSM   H12A14525   2.464   4.496   2.092 -1.4838 -3.6709  0.8758
  135OSM   H12B14526   2.541   4.375   2.006 -0.4647 -0.0450  0.9774
  135OSM    C1114527   2.372   4.440   1.905 -0.3265  0.6395  0.3505
  135OSM   H11A14528   2.298   4.369   1.949 -1.4201  0.7167 -1.2821
  135OSM   H11B14529   2.414   4.388   1.816  0.1455 -0.4139  1.1577
  135OSM      P14530   2.193   4.623   1.939  0.0704 -0.6918 -0.3601
  135OSM    O1314531   2.170   4.761   1.890 -0.4833  0.4603  0.1658
  135OSM    O1414532   2.075   4.535   1.943 -0.0765  0.1293 -0.0890
  135OSM    O1114533   2.247   4.638   2.088 -0.3176 -0.0693  0.2898
  135OSM    O1214534   2.300   4.558   1.852 -0.2572  1.1313  0.1664
  135OSM    C1S14535   2.203   4.536   2.183  0.1309  0.0677 -0.1073
  135OSM    H1S14536   2.246   4.438   2.155  2.4411  1.0744 -0.2758
  135OSM    H1T14537   2.092   4.532   2.196  0.1614 -1.1619 -0.0950
  135OSM     NF14538   2.210   4.470   2.419  0.5182  0.9863 -0.3255
  135OSM    HNF14539   2.152   4.496   2.496  0.4144 -1.9425  0.6839
  135OSM    C2S14540   2.259   4.579   2.324  0.6312  0.3027  0.3870
  135OSM    H2S14541   2.370   4.584   2.329  0.6277  2.8474 -0.6509
  135OSM    C3S14542   2.219   4.729   2.362 -0.0112  0.2022  0.4360
  135OSM    H3S14543   2.109   4.735   2.367 -0.0559  0.1804 -0.3915
  135OSM     O314544   2.246   4.822   2.261  1.0317  0.2965 -0.3191
  135OSM    HO314545   2.253   4.762   2.186  1.8282 -0.9403  0.7077
  135OSM    C4S14546   2.270   4.765   2.498 -0.1193 -0.3680 -0.2728
  135OSM    H4S14547   2.196   4.724   2.569  4.1443 -0.4888  4.7037
  135OSM    C5S14548   2.381   4.822   2.550 -0.2780  0.8883  0.1128
  135OSM    H5S14549   2.457   4.861   2.481 -3.4967  0.2813 -4.1367
  135OSM    C6S14550   2.409   4.850   2.700  0.2076  0.0520 -0.2233
  135OSM    H6S14551   2.414   4.960   2.717  0.6974 -0.4269  3.7085
  135OSM    H6T14552   2.503   4.803   2.734 -0.3543 -1.5508 -0.7825
  135OSM    C7S14553   2.305   4.795   2.802  0.0734 -0.7620  0.0298
  135OSM    H7S14554   2.284   4.691   2.771 -1.4221  0.0315 -1.8840
  135OSM    H7T14555   2.204   4.839   2.786  0.6586  1.2415  1.3734
  135OSM    C8S14556   2.353   4.815   2.941 -0.2917 -0.2001  0.1519
  135OSM    H8S14557   2.380   4.921   2.957 -0.5695 -0.1049 -0.0174
  135OSM    H8T14558   2.439   4.746   2.960 -1.1863 -1.2347  0.5333
  135OSM    C9S14559   2.247   4.785   3.054 -0.1093 -0.7634  1.0192
  135OSM    H9S14560   2.227   4.675   3.055 -1.0417 -0.7550 -2.6657
  135OSM    H9T14561   2.151   4.836   3.033 -1.1365 -2.1018  2.2288
  135OSM   C10S14562   2.307   4.820   3.192 -0.1602  0.4382 -0.0578
  135OSM   H10S14563   2.379   4.904   3.202 -2.2737  2.1082  2.2977
  135OSM   H10T14564   2.372   4.738   3.228  0.1895  1.0486  0.7158
  135OSM   C11S14565   2.193   4.840   3.304  0.3421  0.1714  0.6422
  135OSM   H11S14566   2.148   4.738   3.309  1.3200 -0.4103 -1.4381
  135OSM   H11T14567   2.122   4.919   3.272 -0.3410 -0.2235  1.1381
  135OSM   C12S14568   2.248   4.881   3.438  0.2498  0.7150  0.5054
  135OSM   H12S14569   2.279   4.988   3.437 -1.0913  1.1132 -0.0423
  135OSM   H12T14570   2.342   4.833   3.471 -0.0363  0.8416  1.5472
  135OSM   C13S14571   2.162   4.849   3.555 -0.0486  0.6678 -0.0141
  135OSM   H13S14572   2.124   4.744   3.552 -0.9276  0.8604  2.5256
  135OSM   H13T14573   2.065   4.902   3.551 -0.3151  0.1204 -1.7846
  135OSM   C14S14574   2.230   4.857   3.689  0.0897  0.2544 -0.0928
  135OSM   H14S14575   2.272   4.959   3.700  1.4325 -0.0742 -1.7318
  135OSM   H14T14576   2.313   4.783   3.691 -1.8293 -2.0544  3.0132
  135OSM   C15S14577   2.140   4.819   3.807 -0.1233  0.1827 -0.1335
  135OSM   H15S14578   2.089   4.728   3.771  0.3875 -0.0864 -0.1824
  135OSM   H15T14579   2.055   4.891   3.809 -1.6734 -1.5550 -1.0853
  135OSM   C16S14580   2.200   4.808   3.948 -0.0535  0.3457 -0.4473
  135OSM   H16S14581   2.275   4.726   3.944 -1.0235 -0.5230 -2.9004
  135OSM   H16T14582   2.124   4.768   4.019 -0.7042  0.8423 -0.8623
  135OSM   C17S14583   2.256   4.940   4.003 -0.1132  0.5146  0.6135
  135OSM   H17S14584   2.179   5.019   4.018  0.9918  2.1320 -1.6106
  135OSM   H17T14585   2.332   4.986   3.937 -1.1642  0.7748 -0.4472
  135OSM   C18S14586   2.312   4.912   4.134 -0.3693 -0.3655 -0.3518
  135OSM   H18S14587   2.369   4.818   4.120 -0.6876 -0.5807 -0.2013
  135OSM   H18T14588   2.226   4.888   4.199 -0.3057  0.1103 -0.0861
  135OSM   H18U14589   2.369   4.999   4.172 -1.4506  0.0390  0.3949
  135OSM    C1F14590   2.259   4.344   2.428  0.3813  0.1906  0.2244
  135OSM     OF14591   2.345   4.303   2.352  0.0776 -0.3728 -0.4172
  135OSM    C2F14592   2.205   4.254   2.539 -0.2796 -0.4920 -0.3806
  135OSM    H2F14593   2.148   4.176   2.485 -0.3615 -1.3073  0.8413
  135OSM    H2G14594   2.143   4.310   2.613 -0.0023 -1.5782  0.6975
  135OSM    C3F14595   2.323   4.191   2.614 -0.3333  0.3048  0.3023
  135OSM    H3F14596   2.383   4.137   2.537  0.5668 -2.5155  2.7772
  135OSM    H3G14597   2.280   4.126   2.693 -0.4878  2.0842  1.7591
  135OSM    C4F14598   2.413   4.298   2.693  0.1528  0.3354  0.5201
  135OSM    H4F14599   2.450   4.361   2.609 -0.6792 -0.3770 -0.4088
  135OSM    H4G14600   2.497   4.239   2.736 -0.2203  0.1073  0.9427
  135OSM    C5F14601   2.348   4.377   2.801 -0.3711 -0.5971 -0.0242
  135OSM    H5F14602   2.265   4.443   2.767 -1.0671  0.7844  3.8593
  135OSM    H5G14603   2.416   4.459   2.834 -0.0729 -0.9962  0.3712
  135OSM    C6F14604   2.325   4.297   2.920 -0.5632 -0.2647  0.0614
  135OSM    H6F14605   2.404   4.228   2.957 -3.2292 -2.4147  2.1628
  135OSM    H6G14606   2.240   4.227   2.906 -0.1965 -0.6975 -0.0389
  135OSM    C7F14607   2.270   4.386   3.027 -0.3642 -0.3607  0.6635
  135OSM    H7F14608   2.202   4.457   2.975  1.1910  0.4041 -0.3935
  135OSM    H7G14609   2.345   4.461   3.060 -0.2126  0.0773 -0.6374
  135OSM    C8F14610   2.210   4.313   3.156  0.2352  0.4343  0.1829
  135OSM    H8F14611   2.132   4.241   3.124  2.2288 -1.2954 -1.0171
  135OSM    H8G14612   2.155   4.383   3.223 -0.5652 -0.0095 -0.0049
  135OSM    C9F14613   2.310   4.233   3.232  0.7063  0.7382  0.7588
  135OSM    H9F14614   2.335   4.135   3.189 -2.4588  0.0247  0.3288
  135OSM   C10F14615   2.370   4.251   3.352 -0.5474 -0.3372  0.2593
  135OSM   H10F14616   2.443   4.181   3.395 -0.3021 -0.4684 -0.3667
  135OSM   C11F14617   2.349   4.365   3.445  0.8525  0.1712 -0.7421
  135OSM   H11F14618   2.303   4.446   3.385  2.3611 -0.1283 -2.4124
  135OSM   H11G14619   2.448   4.403   3.479  0.6734 -0.5262  0.6162
  135OSM   C12F14620   2.244   4.338   3.559 -0.9397  0.0525 -0.1186
  135OSM   H12F14621   2.142   4.324   3.517 -0.8558 -1.2900  0.0905
  135OSM   H12G14622   2.234   4.442   3.598  0.1264  0.8303 -1.8365
  135OSM   C13F14623   2.287   4.237   3.665 -0.1034  0.3823  0.2923
  135OSM   H13F14624   2.220   4.256   3.751 -3.6769 -1.5182 -1.8768
  135OSM   H13G14625   2.394   4.243   3.696  0.5278 -1.8422 -1.2380
  135OSM   C14F14626   2.243   4.096   3.624  0.0144  0.0940  0.1887
  135OSM   H14F14627   2.306   4.055   3.542 -0.3968  0.4538 -0.3128
  135OSM   H14G14628   2.143   4.094   3.576 -0.0022 -0.9834  0.2549
  135OSM   C15F14629   2.242   4.002   3.750 -0.5768  0.8776  0.1231
  135OSM   H15F14630   2.210   4.066   3.836 -1.3913  0.3553  0.2185
  135OSM   H15G14631   2.344   3.959   3.760 -0.1877  2.2188  3.4818
  135OSM   C16F14632   2.142   3.879   3.739  0.3605  0.4641 -0.5025
  135OSM   H16F14633   2.060   3.909   3.670  0.0529  2.5413  0.6867
  135OSM   H16G14634   2.099   3.874   3.841  0.9938  1.8972 -0.1455
  135OSM   C17F14635   2.203   3.749   3.690  0.4384 -0.2372 -0.7571
  135OSM   H17F14636   2.280   3.719   3.765  2.3100  2.7314 -1.3355
  135OSM   H17G14637   2.257   3.774   3.596  0.7258  1.1912 -0.2425
  135OSM   C18F14638   2.093   3.649   3.662 -0.1631  0.2210  0.2281
  135OSM   H18F14639   2.009   3.693   3.604  1.6331  1.6229 -1.4540
  135OSM   H18G14640   2.073   3.606   3.763  3.3881 -0.5250  0.7512
  135OSM   H18H14641   2.141   3.569   3.601  0.5299  1.2663 -0.6280
  136OSM      N14642   5.177   6.877   1.758 -0.0048  0.0298  0.3358
  136OSM    C1514643   5.190   7.019   1.799 -0.3889  0.3164 -0.4692
  136OSM   H15A14644   5.264   7.059   1.731  0.3667  0.1068  0.2082
  136OSM   H15B14645   5.213   7.023   1.905 -2.0440 -0.9694 -0.0178
  136OSM   H15C14646   5.102   7.082   1.795  0.9038  2.3657  1.2369
  136OSM    C1414647   5.088   6.867   1.634  0.3117 -0.3698 -0.5118
  136OSM   H14A14648   4.986   6.896   1.654  0.9479  3.4097 -1.9409
  136OSM   H14B14649   5.067   6.766   1.601 -2.3610  0.3303 -1.2152
  136OSM   H14C14650   5.116   6.933   1.553 -0.7157 -0.8785 -1.3101
  136OSM    C1314651   5.310   6.826   1.723 -0.0572 -0.0641 -0.5901
  136OSM   H13A14652   5.368   6.823   1.813 -1.0077 -0.2360  0.0372
  136OSM   H13B14653   5.361   6.888   1.651  0.8135  0.0329  0.1033
  136OSM   H13C14654   5.308   6.726   1.683 -0.3961 -0.8468  1.2685
  136OSM    C1214655   5.116   6.794   1.871 -0.9303 -0.3371 -0.1401
  136OSM   H12A14656   5.159   6.695   1.866 -0.3215 -0.1389  0.8742
  136OSM   H12B14657   5.013   6.782   1.840 -1.7723  3.5631  0.6840
  136OSM    C1114658   5.135   6.834   2.016  0.3478  0.5942 -0.0056
  136OSM   H11A14659   5.093   6.760   2.087 -0.2108  1.3259  0.4392
  136OSM   H11B14660   5.070   6.923   2.026  1.9250  1.7127  0.8122
  136OSM      P14661   5.381   6.787   2.098  0.1226  0.1733 -0.4690
  136OSM    O1314662   5.331   6.648   2.093 -0.6171 -0.0723 -0.0944
  136OSM    O1414663   5.493   6.823   2.014 -0.0263 -0.1612  0.1089
  136OSM    O1114664   5.411   6.828   2.248  0.1452  0.2037  0.4846
  136OSM    O1214665   5.266   6.888   2.056  0.5667 -0.0581 -0.0013
  136OSM    C1S14666   5.500   6.937   2.273  0.5894  0.5503  0.5502
  136OSM    H1S14667   5.462   7.027   2.221 -0.4818  0.3458  0.9483
  136OSM    H1T14668   5.598   6.910   2.228 -0.2992 -3.7020  0.6591
  136OSM     NF14669   5.597   7.088   2.436  0.4930 -0.0664  1.1009
  136OSM    HNF14670   5.696   7.078   2.444  0.9579  2.8612  0.3200
  136OSM    C2S14671   5.522   6.966   2.423 -0.5627 -0.1275  0.0192
  136OSM    H2S14672   5.420   6.977   2.465 -0.6200 -0.8233  0.0720
  136OSM    C3S14673   5.588   6.846   2.499  0.6914  0.0841 -0.5788
  136OSM    H3S14674   5.692   6.836   2.462  2.1772 -1.1665  3.3762
  136OSM     O314675   5.534   6.714   2.487  0.0431  0.5273  0.1409
  136OSM    HO314676   5.475   6.721   2.411  0.0927 -1.5777 -0.1596
  136OSM    C4S14677   5.587   6.875   2.649  0.7247 -1.2383 -0.2959
  136OSM    H4S14678   5.689   6.886   2.688  0.5778 -0.8561 -0.0073
  136OSM    C5S14679   5.481   6.848   2.730  0.2857 -0.3097  0.6795
  136OSM    H5S14680   5.398   6.793   2.682  1.3071  0.1194 -1.6905
  136OSM    C6S14681   5.483   6.843   2.880  0.1448 -0.1912 -0.8332
  136OSM    H6S14682   5.467   6.738   2.913  0.3146 -1.0198 -3.1867
  136OSM    H6T14683   5.402   6.901   2.928  1.4758  1.0916 -0.0343
  136OSM    C7S14684   5.617   6.887   2.950  0.5454  0.3389  0.4935
  136OSM    H7S14685   5.643   6.991   2.922  0.0271  1.2847  3.2048
  136OSM    H7T14686   5.691   6.807   2.928 -0.5022 -1.2211  2.3876
  136OSM    C8S14687   5.610   6.888   3.104  1.0122 -0.1711 -0.2315
  136OSM    H8S14688   5.603   6.781   3.135  4.4504  0.1562  2.3036
  136OSM    H8T14689   5.521   6.939   3.145  1.1574  0.7760 -1.0522
  136OSM    C9S14690   5.737   6.948   3.177 -0.0102  0.0504  0.2500
  136OSM    H9S14691   5.838   6.924   3.138  0.6432  1.4907  0.9826
  136OSM    H9T14692   5.749   6.889   3.270  0.4655 -1.3003 -0.6296
  136OSM   C10S14693   5.723   7.102   3.192 -0.2095 -0.2328 -0.3494
  136OSM   H10S14694   5.633   7.129   3.252 -0.3028 -2.4277  0.5825
  136OSM   H10T14695   5.703   7.142   3.091 -0.3137 -2.4612 -1.2551
  136OSM   C11S14696   5.850   7.175   3.261  0.0340  0.1491 -0.1002
  136OSM   H11S14697   5.931   7.174   3.185  1.1764  2.3366  1.0077
  136OSM   H11T14698   5.864   7.116   3.354  2.5072 -0.1398 -0.5891
  136OSM   C12S14699   5.818   7.319   3.297 -0.0425  0.4147 -0.0163
  136OSM   H12S14700   5.773   7.367   3.207 -0.5487 -1.2591 -0.6800
  136OSM   H12T14701   5.913   7.372   3.322  0.6752 -2.0540  2.9951
  136OSM   C13S14702   5.734   7.337   3.430 -0.2360  0.0080  0.2996
  136OSM   H13S14703   5.758   7.269   3.514 -0.3670 -1.1911 -0.6118
  136OSM   H13T14704   5.632   7.311   3.395 -0.3871 -1.1292  1.4944
  136OSM   C14S14705   5.750   7.487   3.473 -0.1698 -0.3754 -0.3217
  136OSM   H14S14706   5.740   7.552   3.384 -0.6725 -0.1793 -0.1218
  136OSM   H14T14707   5.852   7.495   3.517 -0.8784 -3.3315  2.2205
  136OSM   C15S14708   5.650   7.540   3.574  0.2047 -0.0814  0.9043
  136OSM   H15S14709   5.546   7.548   3.535  0.2177  1.4469  1.1246
  136OSM   H15T14710   5.690   7.641   3.596  0.2202 -0.5213  3.0959
  136OSM   C16S14711   5.651   7.463   3.708  0.5435  0.8183  0.3164
  136OSM   H16S14712   5.753   7.424   3.729 -0.5339 -2.1392  0.5300
  136OSM   H16T14713   5.586   7.373   3.697  0.4974  0.9447 -0.5698
  136OSM   C17S14714   5.589   7.536   3.823 -0.6065 -0.3589 -0.4873
  136OSM   H17S14715   5.657   7.623   3.839  1.5054 -2.3190  2.1850
  136OSM   H17T14716   5.598   7.469   3.911  0.3060  1.9299  1.2747
  136OSM   C18S14717   5.441   7.572   3.807 -0.3481  0.0580  0.2222
  136OSM   H18S14718   5.416   7.625   3.902  0.9209  0.1668  0.5178
  136OSM   H18T14719   5.377   7.481   3.810 -0.7923  0.3582  0.0437
  136OSM   H18U14720   5.418   7.641   3.723  2.2417 -1.3484 -1.7837
  136OSM    C1F14721   5.551   7.213   2.427 -0.1849 -0.2035  0.2871
  136OSM     OF14722   5.438   7.238   2.426 -0.0789 -0.0152  0.0888
  136OSM    C2F14723   5.657   7.318   2.419 -0.0630  0.6038  0.8196
  136OSM    H2F14724   5.645   7.357   2.316  0.3427 -0.0533  0.5165
  136OSM    H2G14725   5.759   7.275   2.425 -0.7932 -1.3874 -0.1930
  136OSM    C3F14726   5.633   7.430   2.518  0.0798 -0.3515  1.0311
  136OSM    H3F14727   5.554   7.498   2.480  0.1545 -1.0882 -0.5269
  136OSM    H3G14728   5.725   7.491   2.515 -0.9869  1.3251  0.9882
  136OSM    C4F14729   5.603   7.389   2.661  0.2140  0.1883 -0.8430
  136OSM    H4F14730   5.679   7.315   2.696  1.9619  2.7854  1.2598
  136OSM    H4G14731   5.501   7.347   2.672  0.4033 -0.3154 -0.9864
  136OSM    C5F14732   5.624   7.500   2.755 -0.2706 -0.6583 -0.0357
  136OSM    H5F14733   5.614   7.597   2.702 -1.8363 -0.5979  0.3448
  136OSM    H5G14734   5.727   7.495   2.797 -0.4264 -0.5441  0.3558
  136OSM    C6F14735   5.538   7.510   2.884  0.2040 -0.6142 -0.1644
  136OSM    H6F14736   5.518   7.410   2.929  0.7579 -0.6585 -0.0058
  136OSM    H6G14737   5.442   7.561   2.865  0.6195  0.7626  1.2161
  136OSM    C7F14738   5.607   7.588   2.996 -0.1724  0.2994  0.0471
  136OSM    H7F14739   5.610   7.693   2.961 -0.4664  0.5920  0.8902
  136OSM    H7G14740   5.713   7.554   3.005  0.6937  2.7181 -0.2024
  136OSM    C8F14741   5.525   7.576   3.126  0.1863  0.5278  0.3165
  136OSM    H8F14742   5.574   7.623   3.214  1.1579  1.3553 -0.6360
  136OSM    H8G14743   5.512   7.469   3.150  0.0745  0.5277  0.2567
  136OSM    C9F14744   5.391   7.633   3.101 -0.0532  0.4054 -1.0963
  136OSM    H9F14745   5.328   7.552   3.062 -0.9465  0.7334 -0.3844
  136OSM   C10F14746   5.348   7.756   3.101 -0.4868 -0.1914  0.4977
  136OSM   H10F14747   5.249   7.782   3.061 -0.1914  0.6867  0.3179
  136OSM   C11F14748   5.423   7.883   3.135 -0.1474  0.1054 -0.3856
  136OSM   H11F14749   5.422   7.951   3.047 -1.0516  0.9732  0.2622
  136OSM   H11G14750   5.525   7.851   3.165 -0.2999 -0.2166 -0.2100
  136OSM   C12F14751   5.365   7.968   3.250  0.0299  0.5446  0.1776
  136OSM   H12F14752   5.257   7.991   3.239 -0.3143 -1.0104  0.0107
  136OSM   H12G14753   5.423   8.063   3.257 -1.7544  1.7564 -0.7120
  136OSM   C13F14754   5.393   7.904   3.383  0.4030  0.6989 -0.1921
  136OSM   H13F14755   5.499   7.873   3.394  0.4492  0.9134 -0.0277
  136OSM   H13G14756   5.336   7.809   3.391  0.6266  0.6039  0.3448
  136OSM   C14F14757   5.357   7.991   3.510  0.1165 -0.6475  0.2325
  136OSM   H14F14758   5.337   7.920   3.592  2.8979 -0.5629  1.0856
  136OSM   H14G14759   5.258   8.040   3.491  0.2671 -0.5914 -0.4369
  136OSM   C15F14760   5.467   8.082   3.565 -0.1515  0.1792 -0.1375
  136OSM   H15F14761   5.508   8.147   3.485 -0.6797 -0.2641 -0.7787
  136OSM   H15G14762   5.552   8.017   3.595 -1.4781 -0.6356  2.0869
  136OSM   C16F14763   5.419   8.151   3.695 -0.4176  0.5920  0.2881
  136OSM   H16F14764   5.390   8.066   3.760 -0.8866  0.0910 -0.5610
  136OSM   H16G14765   5.333   8.221   3.685 -1.2700 -0.4263  0.3269
  136OSM   C17F14766   5.530   8.221   3.768 -0.4313 -0.0802  0.4782
  136OSM   H17F14767   5.626   8.167   3.760  0.9286  2.1311  0.9914
  136OSM   H17G14768   5.507   8.238   3.875  1.7896 -1.4825  1.2380
  136OSM   C18F14769   5.564   8.367   3.712  0.1078  0.0792 -0.0994
  136OSM   H18F14770   5.579   8.369   3.602  0.3095  0.2878 -0.0686
  136OSM   H18G14771   5.659   8.401   3.757  0.2068  2.1957 -1.7659
  136OSM   H18H14772   5.486   8.443   3.735  1.8174  1.4725  1.3973
  137OSM      N14773   1.854   4.950   1.924 -0.1471  0.4603 -0.0211
  137OSM    C1514774   1.859   4.805   1.879  0.1344  0.3901 -0.1503
  137OSM   H15A14775   1.959   4.776   1.849  0.0524 -0.7919  0.6676
  137OSM   H15B14776   1.785   4.782   1.804 -0.3651  0.6397  0.2571
  137OSM   H15C14777   1.831   4.738   1.959 -3.2895  1.2417 -0.4844
  137OSM    C1414778   1.902   5.034   1.809 -0.1702 -0.1379  0.0176
  137OSM   H14A14779   1.988   4.999   1.755 -0.9681 -2.1446 -0.0483
  137OSM   H14B14780   1.911   5.140   1.828 -4.0969  0.8874 -2.5320
  137OSM   H14C14781   1.824   5.039   1.734 -0.5764 -0.1524  0.4361
  137OSM    C1314782   1.715   4.986   1.962 -0.9674 -0.1729 -0.0448
  137OSM   H13A14783   1.642   4.978   1.884 -0.2949 -0.8856 -0.6165
  137OSM   H13B14784   1.715   5.083   2.009 -0.5946  0.0347 -0.4664
  137OSM   H13C14785   1.690   4.915   2.040  2.5676 -1.7625 -0.1399
  137OSM    C1214786   1.952   4.960   2.041  0.7365 -0.2468  0.4193
  137OSM   H12A14787   1.939   5.062   2.076 -1.0448 -0.2780 -0.0856
  137OSM   H12B14788   2.054   4.947   2.006 -0.1827 -1.0577 -2.1744
  137OSM    C1114789   1.921   4.879   2.164  0.0766 -0.4647  0.2116
  137OSM   H11A14790   1.999   4.875   2.244  0.1942 -0.0367  0.1242
  137OSM   H11B14791   1.915   4.773   2.133  1.6745 -0.2881 -0.7666
  137OSM      P14792   1.769   5.039   2.313 -0.0634  0.0859  0.0827
  137OSM    O1314793   1.759   5.161   2.229 -0.1880  0.5617 -0.2357
  137OSM    O1414794   1.650   5.011   2.396 -0.6003 -0.1940  0.4776
  137OSM    O1114795   1.896   5.065   2.403 -0.2152  0.0905 -0.6825
  137OSM    O1214796   1.796   4.913   2.213 -0.1431 -0.4636 -0.4779
  137OSM    C1S14797   1.882   5.137   2.524 -0.0058  0.0372  0.0107
  137OSM    H1S14798   1.814   5.084   2.594 -1.9251  0.6252 -1.3287
  137OSM    H1T14799   1.847   5.240   2.502 -2.2376 -1.0619 -2.1601
  137OSM     NF14800   2.012   5.209   2.713 -0.5023 -0.6126 -0.5413
  137OSM    HNF14801   2.021   5.307   2.728 -3.3334 -0.3349 -0.1253
  137OSM    C2S14802   2.023   5.158   2.580  0.2540  0.6957 -0.0850
  137OSM    H2S14803   2.071   5.058   2.578 -1.3986 -0.1074 -0.7295
  137OSM    C3S14804   2.110   5.246   2.487  0.2478  0.6282 -0.2876
  137OSM    H3S14805   2.075   5.351   2.481  1.0179  0.8483 -1.2884
  137OSM     O314806   2.108   5.207   2.347 -0.6098 -0.2169  0.1669
  137OSM    HO314807   2.036   5.143   2.349 -0.8269  0.0409  0.5838
  137OSM    C4S14808   2.253   5.232   2.536  0.7727 -0.0614 -0.5639
  137OSM    H4S14809   2.316   5.150   2.498 -0.9122 -1.1423 -1.1283
  137OSM    C5S14810   2.312   5.327   2.615 -0.5506  0.4532 -0.0763
  137OSM    H5S14811   2.251   5.413   2.647  0.3496  0.2310  2.4491
  137OSM    C6S14812   2.455   5.322   2.671 -0.5873 -0.1586  0.7688
  137OSM    H6S14813   2.513   5.409   2.636  0.2244 -1.9614 -2.8043
  137OSM    H6T14814   2.520   5.240   2.634  2.4151  1.5418  1.9081
  137OSM    C7S14815   2.463   5.331   2.827 -0.1316  0.5361 -0.1730
  137OSM    H7S14816   2.409   5.424   2.853  0.9416  1.2821 -0.5178
  137OSM    H7T14817   2.570   5.334   2.857 -0.4971 -0.0273  1.2489
  137OSM    C8S14818   2.402   5.210   2.893  0.2410 -0.3051  1.1619
  137OSM    H8S14819   2.447   5.115   2.859  0.0750 -0.5356  1.5833
  137OSM    H8T14820   2.296   5.205   2.858  0.7258 -1.3026 -0.2440
  137OSM    C9S14821   2.411   5.227   3.045 -0.3135 -0.1302  0.3281
  137OSM    H9S14822   2.520   5.221   3.067 -0.3989  0.3469  0.9146
  137OSM    H9T14823   2.358   5.141   3.092 -0.2573 -1.7880 -2.4099
  137OSM   C10S14824   2.364   5.362   3.097 -0.4380 -0.3145 -0.3943
  137OSM   H10S14825   2.257   5.374   3.074 -1.4191 -1.2366  3.0444
  137OSM   H10T14826   2.408   5.456   3.059 -1.2999  0.0648 -0.4654
  137OSM   C11S14827   2.390   5.371   3.246  0.2057 -0.0284 -0.6415
  137OSM   H11S14828   2.379   5.478   3.273  0.3523 -0.0267 -0.5844
  137OSM   H11T14829   2.489   5.329   3.276 -0.7448 -0.1425  2.8029
  137OSM   C12S14830   2.283   5.288   3.326 -0.7532  0.1493 -0.6166
  137OSM   H12S14831   2.313   5.182   3.317  0.7760  0.5696 -0.7184
  137OSM   H12T14832   2.189   5.310   3.272 -0.7086  0.2452 -0.6552
  137OSM   C13S14833   2.268   5.330   3.470 -0.2443 -0.3160 -0.0797
  137OSM   H13S14834   2.169   5.295   3.506 -0.0867  0.2300  0.9260
  137OSM   H13T14835   2.256   5.440   3.473 -0.5543 -0.3413 -0.3635
  137OSM   C14S14836   2.373   5.273   3.570 -0.0498 -0.2764 -0.0516
  137OSM   H14S14837   2.470   5.318   3.538 -1.1192  1.6981 -0.6928
  137OSM   H14T14838   2.365   5.163   3.564  1.4062 -0.4803  1.1095
  137OSM   C15S14839   2.341   5.318   3.712 -0.0829 -0.6693 -0.5468
  137OSM   H15S14840   2.240   5.287   3.747  1.1411 -3.5604  0.7276
  137OSM   H15T14841   2.338   5.429   3.715 -0.2210 -0.3683 -4.7693
  137OSM   C16S14842   2.453   5.271   3.802  0.3037 -0.0693  0.1048
  137OSM   H16S14843   2.547   5.330   3.797  0.0274  0.4764  1.1742
  137OSM   H16T14844   2.465   5.165   3.771 -0.8422  0.1988 -1.3645
  137OSM   C17S14845   2.418   5.281   3.953  0.3716 -0.3485  0.0599
  137OSM   H17S14846   2.320   5.230   3.965  1.1281 -1.7679  0.4158
  137OSM   H17T14847   2.406   5.386   3.985  0.9689 -1.0412  2.7553
  137OSM   C18S14848   2.523   5.212   4.041  0.5942  0.2573 -0.4014
  137OSM   H18S14849   2.623   5.260   4.040  0.7011  0.3411  2.6790
  137OSM   H18T14850   2.549   5.110   4.007 -0.2310 -0.9168  2.2188
  137OSM   H18U14851   2.494   5.204   4.148  1.2957 -0.1519 -0.2363
  137OSM    C1F14852   1.958   5.131   2.810 -0.2429 -0.0165  0.8767
  137OSM     OF14853   1.949   5.009   2.791 -0.3748  0.2429 -0.3977
  137OSM    C2F14854   1.915   5.205   2.927 -0.7177 -0.5395  0.0117
  137OSM    H2F14855   1.804   5.204   2.935 -0.6939 -1.9527  0.5649
  137OSM    H2G14856   1.947   5.310   2.912 -1.7252 -0.3430 -0.8682
  137OSM    C3F14857   1.967   5.140   3.060  0.0915 -0.0371 -0.2982
  137OSM    H3F14858   1.988   5.220   3.134  0.4744 -0.3692 -0.0468
  137OSM    H3G14859   2.072   5.108   3.047  0.0611 -0.0058 -0.6551
  137OSM    C4F14860   1.878   5.032   3.112 -0.1511 -0.5224  0.6968
  137OSM    H4F14861   1.923   4.966   3.189  0.5974 -1.9303 -0.8874
  137OSM    H4G14862   1.859   4.954   3.035 -0.8135 -2.2763  2.5728
  137OSM    C5F14863   1.746   5.073   3.165 -0.8387 -0.0001 -0.1448
  137OSM    H5F14864   1.696   4.978   3.196  0.2187 -0.2170  0.9916
  137OSM    H5G14865   1.686   5.117   3.083 -0.0980  2.4538  0.5707
  137OSM    C6F14866   1.742   5.157   3.294 -0.4372  0.6373  0.1822
  137OSM    H6F14867   1.632   5.172   3.295 -0.4978  0.2662 -0.5484
  137OSM    H6G14868   1.799   5.251   3.278  0.6109  0.4827  2.5395
  137OSM    C7F14869   1.782   5.083   3.428  0.3215 -0.4161  0.1862
  137OSM    H7F14870   1.887   5.047   3.432 -0.3133 -2.4062  0.1286
  137OSM    H7G14871   1.717   4.993   3.441  2.1002 -1.6322  1.0547
  137OSM    C8F14872   1.747   5.177   3.544  0.1884 -0.5962  0.0609
  137OSM    H8F14873   1.714   5.125   3.636  1.2959  0.7486  1.2538
  137OSM    H8G14874   1.659   5.229   3.501  2.0484  1.3111 -1.6486
  137OSM    C9F14875   1.849   5.285   3.571  0.7219 -0.3414 -0.1210
  137OSM    H9F14876   1.850   5.374   3.507 -2.3627  0.5324  0.8773
  137OSM   C10F14877   1.939   5.271   3.668 -0.2220  0.1850 -0.1978
  137OSM   H10F14878   2.021   5.344   3.679 -0.7557  0.4531  2.7231
  137OSM   C11F14879   1.960   5.149   3.751 -0.1618  0.1703  0.1024
  137OSM   H11F14880   2.065   5.114   3.749 -0.2029  0.0266  0.3655
  137OSM   H11G14881   1.895   5.071   3.707  1.0793 -0.2958 -0.9389
  137OSM   C12F14882   1.930   5.174   3.901 -0.4170 -0.1518 -0.0102
  137OSM   H12F14883   2.003   5.249   3.938  0.3946 -0.8894 -0.0780
  137OSM   H12G14884   1.957   5.080   3.954  3.0224 -0.4987 -2.1373
  137OSM   C13F14885   1.786   5.213   3.931  0.3604 -0.6386  0.0828
  137OSM   H13F14886   1.716   5.154   3.869 -1.7715  1.3810  0.4213
  137OSM   H13G14887   1.774   5.321   3.906 -1.1731 -0.8244 -0.0809
  137OSM   C14F14888   1.751   5.190   4.072 -0.1382  0.3086  0.1951
  137OSM   H14F14889   1.810   5.257   4.138  1.1350 -0.6345  0.0463
  137OSM   H14G14890   1.785   5.091   4.110  1.3830  0.6818 -0.1433
  137OSM   C15F14891   1.598   5.190   4.108 -0.6025 -0.5024  0.7145
  137OSM   H15F14892   1.584   5.152   4.211  1.7896  0.7002  1.5585
  137OSM   H15G14893   1.562   5.116   4.033  0.4207 -0.1870 -0.1037
  137OSM   C16F14894   1.521   5.319   4.085 -0.6186  0.1038 -0.0020
  137OSM   H16F14895   1.574   5.369   4.001  0.6659  0.2731  0.8803
  137OSM   H16G14896   1.510   5.387   4.172 -0.2255 -0.5434  0.5597
  137OSM   C17F14897   1.381   5.287   4.038 -0.4910 -0.0154 -0.3287
  137OSM   H17F14898   1.384   5.211   3.957 -0.2995  1.3552 -1.6507
  137OSM   H17G14899   1.342   5.376   3.985 -1.5384 -1.2515 -1.7273
  137OSM   C18F14900   1.291   5.239   4.146 -0.0512  0.5951 -0.1324
  137OSM   H18F14901   1.292   5.294   4.243 -2.4594  0.8104 -0.1788
  137OSM   H18G14902   1.309   5.132   4.171 -0.7461 -0.0680 -2.2538
  137OSM   H18H14903   1.188   5.244   4.106  0.3196  0.2303 -1.1725
  138OSM      N14904   2.054   0.085   2.072 -0.3256  0.7352  0.8579
  138OSM    C1514905   2.140   0.205   2.105 -0.0385 -0.0167  1.0905
  138OSM   H15A14906   2.237   0.187   2.060 -0.5510 -2.1779  0.7117
  138OSM   H15B14907   2.148   0.216   2.212 -1.5464  0.7772  1.1521
  138OSM   H15C14908   2.100   0.299   2.070 -0.9530 -1.0470 -0.7711
  138OSM    C1414909   2.021   0.077   1.924  1.0947  0.1240 -0.5607
  138OSM   H14A14910   1.939   0.009   1.917  0.5656  0.7735 -0.7928
  138OSM   H14B14911   2.102   0.040   1.863  1.7368 -1.3021  1.0807
  138OSM   H14C14912   1.991   0.170   1.877  4.1294  0.6975 -1.6281
  138OSM    C1314913   2.135  -0.042   2.102  0.1261 -0.0987 -0.3338
  138OSM   H13A14914   2.119  -0.072   2.204  0.4765  1.0782  0.0803
  138OSM   H13B14915   2.240  -0.020   2.092  0.1529 -0.7390 -1.8542
  138OSM   H13C14916   2.109  -0.119   2.030 -2.1612  1.0128 -0.7927
  138OSM    C1214917   1.930   0.081   2.156  0.2177  0.0969  0.3315
  138OSM   H12A14918   1.886  -0.017   2.141  0.2204 -0.0241  1.0462
  138OSM   H12B14919   1.872   0.169   2.132  1.8153  0.6770 -1.6587
  138OSM    C1114920   1.948   0.096   2.312 -0.2401 -0.3511  0.3330
  138OSM   H11A14921   1.849   0.126   2.352 -0.5957 -1.4122  0.3003
  138OSM   H11B14922   2.025   0.175   2.321 -0.7621  0.1546  0.3846
  138OSM      P14923   1.911  -0.154   2.383 -0.0122 -0.0325  0.4838
  138OSM    O1314924   1.841  -0.160   2.252  0.3115  0.3466  0.9551
  138OSM    O1414925   1.999  -0.262   2.418  0.0736 -0.3769  0.5190
  138OSM    O1114926   1.803  -0.142   2.492  0.9161  0.6731 -0.3555
  138OSM    O1214927   1.993  -0.018   2.389 -0.6114  0.2843  0.3011
  138OSM    C1S14928   1.835  -0.133   2.633 -0.0364  0.2498 -0.1645
  138OSM    H1S14929   1.927  -0.071   2.638 -0.0808  0.2499  0.8556
  138OSM    H1T14930   1.881  -0.228   2.667  1.9990  1.0953 -0.3885
  138OSM     NF14931   1.779  -0.088   2.855 -0.3219  0.4691 -0.7609
  138OSM    HNF14932   1.747  -0.163   2.912  0.4542  0.1819 -0.6915
  138OSM    C2S14933   1.724  -0.079   2.726 -0.3576 -0.5542 -0.1242
  138OSM    H2S14934   1.703   0.027   2.699  0.3737 -0.5008 -0.5438
  138OSM    C3S14935   1.587  -0.155   2.706 -1.0245  0.7110 -0.1688
  138OSM    H3S14936   1.614  -0.262   2.709 -1.8082  0.4747 -1.1707
  138OSM     O314937   1.521  -0.139   2.578  0.8317 -0.4753 -0.7040
  138OSM    HO314938   1.593  -0.125   2.516  1.5706 -0.0339  0.2332
  138OSM    C4S14939   1.496  -0.121   2.818 -0.1871  0.4891  0.7811
  138OSM    H4S14940   1.488  -0.015   2.844 -3.2258  1.1072 -2.0613
  138OSM    C5S14941   1.425  -0.207   2.887  0.0920 -0.4487 -0.1937
  138OSM    H5S14942   1.423  -0.313   2.857  1.6154 -0.4509 -0.3630
  138OSM    C6S14943   1.322  -0.168   2.994  0.0711  0.0864 -0.0501
  138OSM    H6S14944   1.284  -0.265   3.032 -2.0243  0.8362 -0.0955
  138OSM    H6T14945   1.235  -0.106   2.964 -2.0120 -2.5177  0.2390
  138OSM    C7S14946   1.392  -0.101   3.106  0.2374 -1.1341  0.0786
  138OSM    H7S14947   1.422   0.002   3.077  1.5414 -1.6301 -0.3958
  138OSM    H7T14948   1.487  -0.153   3.130  0.4502  0.1078  2.1743
  138OSM    C8S14949   1.307  -0.090   3.233 -0.0963 -0.5433 -0.4078
  138OSM    H8S14950   1.244  -0.182   3.233 -2.4022  0.9372 -0.8553
  138OSM    H8T14951   1.230  -0.009   3.225  0.6704  0.2142 -0.2537
  138OSM    C9S14952   1.398  -0.065   3.353 -0.4667  0.3500 -0.4642
  138OSM    H9S14953   1.445   0.035   3.350 -1.3175  0.7290 -1.6064
  138OSM    H9T14954   1.480  -0.140   3.343 -1.3703 -0.9680  1.3482
  138OSM   C10S14955   1.316  -0.090   3.480  0.4854 -0.1094 -0.0197
  138OSM   H10S14956   1.309  -0.201   3.485  2.4971 -0.2552  0.3743
  138OSM   H10T14957   1.213  -0.049   3.483  0.7370  0.6899 -1.3989
  138OSM   C11S14958   1.392  -0.059   3.615  0.1258 -0.4312  0.3716
  138OSM   H11S14959   1.428   0.046   3.623  0.3465 -0.3566 -1.2245
  138OSM   H11T14960   1.484  -0.119   3.632  1.1242  0.9497  0.0636
  138OSM   C12S14961   1.303  -0.092   3.731  0.1012  0.1068 -0.0853
  138OSM   H12S14962   1.271  -0.198   3.732 -0.2585  0.2135  0.5934
  138OSM   H12T14963   1.216  -0.024   3.739 -1.1587 -1.5245  0.4741
  138OSM   C13S14964   1.384  -0.086   3.865  0.1154 -0.0878  0.6732
  138OSM   H13S14965   1.442   0.008   3.872 -0.7592  0.5211 -0.0200
  138OSM   H13T14966   1.455  -0.171   3.873 -0.7530 -0.7899  1.1271
  138OSM   C14S14967   1.286  -0.103   3.977 -0.2301 -0.0854  0.3606
  138OSM   H14S14968   1.224  -0.193   3.954  2.7728 -1.8236 -1.6010
  138OSM   H14T14969   1.230  -0.007   3.982 -0.9119 -0.5631  2.9724
  138OSM   C15S14970   1.357  -0.124   4.108 -0.1159 -0.2204  0.4936
  138OSM   H15S14971   1.394  -0.023   4.138 -0.2938 -0.1085  0.3386
  138OSM   H15T14972   1.445  -0.191   4.093  1.1141  1.3598  0.3801
  138OSM   C16S14973   1.267  -0.178   4.211 -0.0957  0.1962  0.5091
  138OSM   H16S14974   1.216  -0.272   4.179  2.6825 -1.2925  0.1109
  138OSM   H16T14975   1.187  -0.101   4.222  0.9006  1.8541 -2.6744
  138OSM   C17S14976   1.340  -0.210   4.338 -0.3131 -1.2125  0.7953
  138OSM   H17S14977   1.386  -0.117   4.377  0.9425 -0.3492 -2.4383
  138OSM   H17T14978   1.421  -0.281   4.312  1.2140  0.6220  0.4154
  138OSM   C18S14979   1.238  -0.268   4.438 -0.3397 -0.1587  0.5294
  138OSM   H18S14980   1.287  -0.295   4.535  0.9732 -3.5678 -0.9215
  138OSM   H18T14981   1.210  -0.370   4.402 -2.2065 -0.2490  2.0260
  138OSM   H18U14982   1.149  -0.205   4.459 -0.6806 -0.7394  0.8917
  138OSM    C1F14983   1.883  -0.018   2.897 -0.2987 -0.3276 -0.3458
  138OSM     OF14984   1.916   0.090   2.837 -0.0366 -0.0523  0.2775
  138OSM    C2F14985   1.961  -0.079   3.012  0.0151 -0.3235  0.0769
  138OSM    H2F14986   2.015  -0.169   2.973  1.4424  0.8022 -0.6637
  138OSM    H2G14987   1.891  -0.116   3.089  0.1674 -1.3014 -0.2383
  138OSM    C3F14988   2.078  -0.005   3.063 -0.2696 -0.5124  0.6931
  138OSM    H3F14989   2.144   0.032   2.981 -0.4199  2.5177  1.8079
  138OSM    H3G14990   2.142  -0.082   3.111  0.5598 -1.5527 -1.9309
  138OSM    C4F14991   2.052   0.112   3.151 -0.0803 -0.2105  0.2733
  138OSM    H4F14992   1.999   0.072   3.240 -0.2543 -1.0809 -0.2075
  138OSM    H4G14993   1.992   0.188   3.096  0.3927  0.2173  0.3438
  138OSM    C5F14994   2.185   0.187   3.200  0.5169  0.7577 -0.0490
  138OSM    H5F14995   2.236   0.257   3.131 -0.9628  2.4176  0.4620
  138OSM    H5G14996   2.252   0.098   3.208 -0.7499 -0.4087 -1.7835
  138OSM    C6F14997   2.157   0.253   3.342  0.0468  0.2811  0.0416
  138OSM    H6F14998   2.080   0.193   3.395  1.0693  0.2743  1.5731
  138OSM    H6G14999   2.113   0.354   3.331 -0.5924 -0.1119 -1.2635
  138OSM    C7F15000   2.286   0.268   3.423 -0.6565  0.1301 -0.6677
  138OSM    H7F15001   2.342   0.346   3.368  2.2199 -0.1827  1.5268
  138OSM    H7G15002   2.342   0.172   3.428 -1.7005 -0.5140 -1.0101
  138OSM    C8F15003   2.270   0.302   3.573  0.1809  0.3362 -0.2138
  138OSM    H8F15004   2.177   0.364   3.575  0.2486  0.4940 -1.2783
  138OSM    H8G15005   2.353   0.372   3.593  1.0374 -0.6616 -0.2164
  138OSM    C9F15006   2.254   0.194   3.670 -0.1238  0.0446 -1.0548
  138OSM    H9F15007   2.262   0.092   3.630 -0.9851  0.3760 -2.1155
  138OSM   C10F15008   2.237   0.205   3.805 -0.2360  0.9584  0.8420
  138OSM   H10F15009   2.231   0.112   3.863 -2.4271  1.2406  1.1335
  138OSM   C11F15010   2.224   0.329   3.889  0.1222  0.2032  0.3307
  138OSM   H11F15011   2.186   0.417   3.833  0.0026  0.3124  0.5794
  138OSM   H11G15012   2.317   0.364   3.939  1.4232  1.2102 -2.5883
  138OSM   C12F15013   2.130   0.301   4.006 -0.0829 -0.2130  0.1437
  138OSM   H12F15014   2.189   0.242   4.079  1.0364  0.5247 -0.1401
  138OSM   H12G15015   2.039   0.245   3.974 -0.0681 -0.5552  0.6810
  138OSM   C13F15016   2.100   0.427   4.083  0.0397  0.7847 -0.4948
  138OSM   H13F15017   2.079   0.510   4.013 -0.4274  0.5060 -0.6864
  138OSM   H13G15018   2.195   0.459   4.132 -0.8004  3.3497 -0.3746
  138OSM   C14F15019   1.989   0.400   4.186  0.2380 -0.0430 -0.4523
  138OSM   H14F15020   1.893   0.367   4.140  0.1616  1.1979 -1.2405
  138OSM   H14G15021   1.954   0.487   4.245  0.4443 -0.1993 -0.1013
  138OSM   C15F15022   2.025   0.290   4.291 -0.2338 -0.5434 -1.1294
  138OSM   H15F15023   2.128   0.306   4.331 -1.3784 -0.5494  2.1688
  138OSM   H15G15024   2.015   0.188   4.249 -0.9647 -1.7231  1.6533
  138OSM   C16F15025   1.941   0.277   4.424 -0.6465 -0.2560  0.2365
  138OSM   H16F15026   1.836   0.289   4.391  0.3186  1.6118 -2.5656
  138OSM   H16G15027   1.967   0.358   4.495  1.6562 -0.4198 -0.3227
  138OSM   C17F15028   1.965   0.135   4.488  0.2915  0.0256 -0.5100
  138OSM   H17F15029   1.931   0.047   4.429 -0.9116 -0.6522  1.1088
  138OSM   H17G15030   1.899   0.130   4.578 -0.8718  0.6603 -1.3075
  138OSM   C18F15031   2.105   0.103   4.540  0.6715  0.5554 -0.1131
  138OSM   H18F15032   2.100   0.011   4.603  0.5790  0.3424 -0.4270
  138OSM   H18G15033   2.125   0.186   4.611  1.1352 -0.7849  1.3914
  138OSM   H18H15034   2.181   0.095   4.460 -1.6146 -1.0638 -2.2590
  139OSM      N15035   3.937   4.177   1.632  0.3889  0.5582  0.3407
  139OSM    C1515036   4.018   4.149   1.508  0.2441 -0.2030 -0.1608
  139OSM   H15A15037   3.949   4.138   1.426  0.9324 -1.6970 -0.5757
  139OSM   H15B15038   4.083   4.063   1.506  1.0847  0.4353 -1.1129
  139OSM   H15C15039   4.085   4.230   1.482 -1.2962  0.8712 -0.9029
  139OSM    C1415040   4.030   4.185   1.749 -0.3001 -0.1891  0.0814
  139OSM   H14A15041   4.096   4.100   1.759 -1.7460 -1.5340 -1.1272
  139OSM   H14B15042   3.971   4.197   1.838 -0.5588 -0.0113 -0.1112
  139OSM   H14C15043   4.097   4.269   1.738 -1.8154  0.9978 -0.5331
  139OSM    C1315044   3.879   4.311   1.609 -0.0040  0.7792 -0.3432
  139OSM   H13A15045   3.823   4.316   1.517  0.1701 -0.4659 -0.5400
  139OSM   H13B15046   3.952   4.390   1.598 -1.0060  1.5374 -1.8542
  139OSM   H13C15047   3.815   4.332   1.693  1.5175 -1.3038  1.4611
  139OSM    C1215048   3.837   4.070   1.653  0.7018  0.0043 -0.2385
  139OSM   H12A15049   3.888   3.975   1.652 -0.0342 -0.4470 -2.4997
  139OSM   H12B15050   3.782   4.083   1.561 -0.5715  2.3104  0.7753
  139OSM    C1115051   3.728   4.077   1.762 -0.4881 -0.7782 -0.3673
  139OSM   H11A15052   3.668   4.169   1.747 -1.0691 -1.2753 -1.1573
  139OSM   H11B15053   3.769   4.076   1.866 -1.9727 -0.4693  0.2376
  139OSM      P15054   3.527   3.930   1.841  0.1217 -0.2945 -0.2623
  139OSM    O1315055   3.404   3.922   1.758 -0.4110 -0.5101 -0.2643
  139OSM    O1415056   3.561   3.810   1.916  0.6007  0.2837 -0.1408
  139OSM    O1115057   3.519   4.044   1.953  0.0353  0.1587 -0.2716
  139OSM    O1215058   3.647   3.969   1.743  0.0770 -0.0278 -0.2366
  139OSM    C1S15059   3.398   4.076   2.025  0.4202 -0.3582 -0.0988
  139OSM    H1S15060   3.324   4.098   1.945  0.2729  0.1944  0.1809
  139OSM    H1T15061   3.423   4.169   2.082  1.3434 -0.5337 -0.2132
  139OSM     NF15062   3.235   4.014   2.198  0.0058  0.5402 -0.2195
  139OSM    HNF15063   3.233   4.060   2.287 -2.3248  0.0249  0.0550
  139OSM    C2S15064   3.357   3.971   2.133 -0.0951 -0.4477  0.4081
  139OSM    H2S15065   3.342   3.870   2.090  1.2201 -1.9823  3.2991
  139OSM    C3S15066   3.479   3.950   2.231 -0.4396  0.3594  0.3227
  139OSM    H3S15067   3.501   4.052   2.269  0.4307 -0.6800  2.8805
  139OSM     O315068   3.603   3.907   2.180 -0.2039  0.2288  0.5274
  139OSM    HO315069   3.598   3.911   2.084  1.0471  1.5057  0.4902
  139OSM    C4S15070   3.418   3.873   2.352 -0.2573  0.5924 -0.4333
  139OSM    H4S15071   3.401   3.944   2.434  0.8487 -0.8815  1.1452
  139OSM    C5S15072   3.417   3.735   2.365  0.5311  0.3278 -0.0097
  139OSM    H5S15073   3.474   3.679   2.289  0.6569  1.0943 -0.4941
  139OSM    C6S15074   3.356   3.659   2.484  0.0549  0.3794  0.0919
  139OSM    H6S15075   3.437   3.602   2.535 -0.8992  1.5628  3.1198
  139OSM    H6T15076   3.286   3.587   2.436 -0.2386  1.4289 -1.1071
  139OSM    C7S15077   3.281   3.743   2.583 -0.2397 -0.1011  0.2157
  139OSM    H7S15078   3.191   3.791   2.538 -1.8211 -0.2512  3.0132
  139OSM    H7T15079   3.349   3.818   2.628 -0.0889  0.6406 -1.2014
  139OSM    C8S15080   3.235   3.663   2.700  0.0436 -0.4840 -0.1097
  139OSM    H8S15081   3.323   3.615   2.748  0.9800  0.9938 -0.2811
  139OSM    H8T15082   3.157   3.584   2.689 -3.4324  2.3517  2.0215
  139OSM    C9S15083   3.176   3.762   2.813  0.3233  0.0954 -0.4936
  139OSM    H9S15084   3.141   3.856   2.765  1.8190  0.8723 -0.1098
  139OSM    H9T15085   3.255   3.790   2.886  1.2132 -2.1344 -0.5316
  139OSM   C10S15086   3.056   3.694   2.894 -0.3003  0.4734  0.0826
  139OSM   H10S15087   2.986   3.670   2.811 -0.1961  1.3871 -0.2780
  139OSM   H10T15088   3.007   3.774   2.954 -1.2766 -0.7639  0.9897
  139OSM   C11S15089   3.093   3.577   2.987  0.2884 -0.5800  0.4748
  139OSM   H11S15090   3.158   3.500   2.939  2.5606  0.4185  1.7865
  139OSM   H11T15091   2.991   3.540   3.009 -0.3554  0.2713 -0.9373
  139OSM   C12S15092   3.142   3.619   3.133 -0.1401  0.2893 -0.4533
  139OSM   H12S15093   3.087   3.706   3.175  2.2636  0.9689  1.4956
  139OSM   H12T15094   3.248   3.651   3.136 -0.0096 -0.1136 -0.7057
  139OSM   C13S15095   3.113   3.511   3.247  0.4685  0.3128  0.9964
  139OSM   H13S15096   3.142   3.407   3.220 -1.0098  0.3134 -0.8104
  139OSM   H13T15097   3.005   3.495   3.269  0.4230 -1.1110 -0.1289
  139OSM   C14S15098   3.179   3.563   3.379 -0.9278  0.4744 -0.4410
  139OSM   H14S15099   3.140   3.664   3.403 -0.8899  0.7756 -1.5692
  139OSM   H14T15100   3.287   3.565   3.353 -0.6315 -0.0925  0.6813
  139OSM   C15S15101   3.167   3.461   3.494 -0.1505 -0.1735  0.3906
  139OSM   H15S15102   3.219   3.367   3.465  0.1677 -0.0302  0.4934
  139OSM   H15T15103   3.059   3.434   3.498 -0.2865  0.4844  1.7247
  139OSM   C16S15104   3.222   3.518   3.624  0.2024 -0.2214  0.1564
  139OSM   H16S15105   3.157   3.599   3.664  0.8589 -1.2134  3.5574
  139OSM   H16T15106   3.316   3.576   3.608 -0.1322  0.6030  1.0649
  139OSM   C17S15107   3.233   3.421   3.740  0.2933  0.2200  0.4312
  139OSM   H17S15108   3.293   3.336   3.701 -1.6056 -0.8293 -0.3538
  139OSM   H17T15109   3.129   3.387   3.760  0.8846 -1.4822  0.7972
  139OSM   C18S15110   3.308   3.475   3.856 -0.0621  0.1682 -0.8305
  139OSM   H18S15111   3.251   3.563   3.893 -0.5012  0.5573 -2.3605
  139OSM   H18T15112   3.412   3.498   3.824 -0.0715 -0.1499 -1.0900
  139OSM   H18U15113   3.312   3.412   3.947 -1.6945  2.1650  0.7235
  139OSM    C1F15114   3.116   4.018   2.141 -0.7447 -0.4226 -0.4358
  139OSM     OF15115   3.098   3.969   2.040 -0.7410  0.0609  0.1978
  139OSM    C2F15116   3.011   4.088   2.220  0.1233 -0.1646 -0.1955
  139OSM    H2F15117   2.932   4.121   2.149 -1.7567  1.4646  2.4675
  139OSM    H2G15118   3.048   4.185   2.259  1.3347  0.3926 -2.5734
  139OSM    C3F15119   2.957   3.994   2.326  0.1900 -0.2212 -0.4346
  139OSM    H3F15120   3.041   3.946   2.381 -0.1981 -0.8437 -0.3709
  139OSM    H3G15121   2.907   3.907   2.278  0.2769  0.6143 -2.1198
  139OSM    C4F15122   2.850   4.055   2.420  0.0241 -0.1482  0.6493
  139OSM    H4F15123   2.757   4.064   2.359 -0.6413 -1.2140  1.4581
  139OSM    H4G15124   2.877   4.154   2.460 -0.1759  1.0155 -1.9169
  139OSM    C5F15125   2.816   3.949   2.522 -0.0820  0.5997 -0.6137
  139OSM    H5F15126   2.905   3.896   2.562 -0.9607  0.0766  0.6993
  139OSM    H5G15127   2.757   3.874   2.465 -0.4680  0.8881 -0.5982
  139OSM    C6F15128   2.727   4.018   2.628  0.2628  0.3150  0.0214
  139OSM    H6F15129   2.645   4.069   2.573  0.1197 -1.0390 -1.0649
  139OSM    H6G15130   2.797   4.095   2.668  2.5856 -2.5894  1.9607
  139OSM    C7F15131   2.666   3.917   2.721  0.1959  0.1831 -0.3860
  139OSM    H7F15132   2.750   3.872   2.777 -0.1726  0.4639  0.4069
  139OSM    H7G15133   2.623   3.830   2.666  1.2475 -0.3032 -0.4668
  139OSM    C8F15134   2.562   3.970   2.821  0.2010  0.2288 -0.6924
  139OSM    H8F15135   2.513   3.888   2.879  0.9300  0.1492 -0.1793
  139OSM    H8G15136   2.478   4.026   2.775  0.3630 -0.0571 -1.3577
  139OSM    C9F15137   2.631   4.072   2.914 -0.2042  0.5974  0.3701
  139OSM    H9F15138   2.680   4.160   2.869 -2.6505  2.0302  0.3443
  139OSM   C10F15139   2.635   4.059   3.048  0.1155  0.4353 -0.3550
  139OSM   H10F15140   2.672   4.140   3.112  2.4379 -1.6277  1.0802
  139OSM   C11F15141   2.588   3.936   3.119 -0.2202 -0.1238 -0.0121
  139OSM   H11F15142   2.619   3.841   3.072  0.5254  0.2587 -0.3212
  139OSM   H11G15143   2.478   3.949   3.121 -0.3875 -1.4922  1.5479
  139OSM   C12F15144   2.621   3.937   3.275 -0.6399 -0.3427  0.0566
  139OSM   H12F15145   2.625   4.038   3.321  0.2525  0.3296 -1.4247
  139OSM   H12G15146   2.725   3.900   3.280 -0.4029  0.3335  0.1566
  139OSM   C13F15147   2.525   3.852   3.357  0.0891 -0.1766 -0.0248
  139OSM   H13F15148   2.524   3.751   3.312  2.1200 -0.8061  1.2010
  139OSM   H13G15149   2.421   3.891   3.363  0.2035  0.0652  0.3800
  139OSM   C14F15150   2.568   3.835   3.506 -0.4094  0.3862  0.0035
  139OSM   H14F15151   2.490   3.768   3.547 -0.2656  0.1609 -0.0882
  139OSM   H14G15152   2.576   3.934   3.557  1.4717  0.6003 -0.6148
  139OSM   C15F15153   2.702   3.762   3.521  0.1990 -0.4313 -0.1028
  139OSM   H15F15154   2.787   3.830   3.502 -2.3615  3.2885  0.5322
  139OSM   H15G15155   2.704   3.687   3.439  2.2697  0.7752 -1.2418
  139OSM   C16F15156   2.718   3.712   3.666 -0.0798  0.0569  0.8664
  139OSM   H16F15157   2.657   3.619   3.660 -2.8525  1.8215 -0.2345
  139OSM   H16G15158   2.667   3.785   3.733 -0.6345  2.3748 -1.8708
  139OSM   C17F15159   2.866   3.676   3.689 -1.0645  0.0544  0.0733
  139OSM   H17F15160   2.922   3.771   3.672 -2.6639  0.7301 -1.9071
  139OSM   H17G15161   2.893   3.612   3.603 -1.9431 -0.3529  0.0853
  139OSM   C18F15162   2.890   3.610   3.825  0.0588 -0.1462  0.2160
  139OSM   H18F15163   2.828   3.517   3.824 -1.7347  0.9401 -2.1940
  139OSM   H18G15164   2.854   3.677   3.905 -1.1615  1.9865 -1.9711
  139OSM   H18H15165   2.999   3.594   3.839 -0.1470 -2.3826 -0.3556
  140OSM      N15166   1.163   2.718   1.732 -0.0925  0.4053 -0.4632
  140OSM    C1515167   1.124   2.584   1.678 -0.2694 -0.7562  0.4970
  140OSM   H15A15168   1.085   2.599   1.579 -3.3101 -0.4926  1.6111
  140OSM   H15B15169   1.035   2.551   1.731 -0.1481 -1.2651  0.3937
  140OSM   H15C15170   1.205   2.513   1.678  3.0036  2.6612  1.4068
  140OSM    C1415171   1.283   2.758   1.657 -0.1656  0.2882 -0.0453
  140OSM   H14A15172   1.347   2.823   1.715 -1.0682  0.7530  0.4430
  140OSM   H14B15173   1.265   2.807   1.562 -1.5630 -2.2181 -1.1702
  140OSM   H14C15174   1.338   2.673   1.618 -1.3904  0.3880 -2.1559
  140OSM    C1315175   1.056   2.823   1.709 -0.8288  1.3984  0.0810
  140OSM   H13A15176   1.017   2.814   1.608  0.2966 -2.2748 -0.1934
  140OSM   H13B15177   1.090   2.921   1.737  2.1053  0.2961  0.7371
  140OSM   H13C15178   0.972   2.801   1.773 -0.1375  0.5080  0.7081
  140OSM    C1215179   1.205   2.707   1.872  0.2293  0.1214 -0.1221
  140OSM   H12A15180   1.230   2.804   1.912 -0.0978 -0.8245  2.6130
  140OSM   H12B15181   1.297   2.649   1.881 -0.8286 -1.3670  2.2012
  140OSM    C1115182   1.100   2.645   1.977  0.0468  0.6635  0.3511
  140OSM   H11A15183   1.157   2.645   2.072  0.3966  1.2017  0.1506
  140OSM   H11B15184   1.070   2.542   1.949 -1.1174  0.8409  0.8922
  140OSM      P15185   0.839   2.671   2.018  0.2900  0.0372  0.0581
  140OSM    O1315186   0.737   2.779   2.001  0.6352  0.4018  0.0166
  140OSM    O1415187   0.809   2.544   1.955 -0.1975 -0.0085  0.3320
  140OSM    O1115188   0.843   2.640   2.169 -0.6696 -0.3831  0.2188
  140OSM    O1215189   0.979   2.723   1.987 -0.7783  0.2675 -0.1900
  140OSM    C1S15190   0.850   2.514   2.236  1.2247  0.3246  0.3510
  140OSM    H1S15191   0.940   2.514   2.302  1.5064  0.7618 -0.0220
  140OSM    H1T15192   0.879   2.431   2.169 -3.1818 -1.1580 -0.0371
  140OSM     NF15193   0.767   2.408   2.444 -0.8290 -0.0626 -0.3322
  140OSM    HNF15194   0.749   2.310   2.439  1.3207 -0.4497 -2.0119
  140OSM    C2S15195   0.727   2.487   2.330  0.2389  0.0259 -0.2554
  140OSM    H2S15196   0.696   2.585   2.372  1.9592 -0.2747  1.9190
  140OSM    C3S15197   0.608   2.431   2.244  0.0319  0.4859  0.3717
  140OSM    H3S15198   0.640   2.340   2.188 -2.6693 -0.5246  0.3087
  140OSM     O315199   0.561   2.524   2.145 -0.2585 -0.0439 -0.0104
  140OSM    HO315200   0.624   2.596   2.154 -2.5025  2.2525 -1.3742
  140OSM    C4S15201   0.495   2.402   2.341  0.1488 -0.6968 -0.3867
  140OSM    H4S15202   0.449   2.492   2.385  0.5571  0.1175 -1.5566
  140OSM    C5S15203   0.442   2.286   2.378  0.6654 -0.0421 -0.2462
  140OSM    H5S15204   0.476   2.195   2.325  0.2366 -0.0767 -0.4681
  140OSM    C6S15205   0.327   2.269   2.477 -0.1753  0.6493  0.1200
  140OSM    H6S15206   0.236   2.237   2.422 -0.0365  0.3079  0.0867
  140OSM    H6T15207   0.302   2.369   2.518  0.2006  1.1842 -0.9104
  140OSM    C7S15208   0.365   2.176   2.600  0.8177  0.3006  0.2759
  140OSM    H7S15209   0.462   2.201   2.648 -0.5013  1.5237  2.4927
  140OSM    H7T15210   0.363   2.075   2.554 -0.3982  0.0439  0.8480
  140OSM    C8S15211   0.263   2.173   2.712 -0.5733 -0.8229  0.3660
  140OSM    H8S15212   0.159   2.155   2.677 -0.1477 -2.0210 -0.3169
  140OSM    H8T15213   0.255   2.271   2.763 -0.4643 -0.2363 -0.7223
  140OSM    C9S15214   0.304   2.065   2.814 -0.3251  1.1190  0.1833
  140OSM    H9S15215   0.406   2.070   2.858 -0.2455  0.7817  0.0376
  140OSM    H9T15216   0.305   1.966   2.764 -3.1043  1.3070 -0.4240
  140OSM   C10S15217   0.218   2.055   2.936  0.8474  0.6136 -0.3665
  140OSM   H10S15218   0.113   2.047   2.899  1.2628 -2.9812 -1.1894
  140OSM   H10T15219   0.233   2.146   2.997  0.8026 -0.0594  0.6748
  140OSM   C11S15220   0.242   1.919   3.005 -0.0427  0.9928 -0.3795
  140OSM   H11S15221   0.349   1.916   3.037  0.2420  2.0101 -1.1736
  140OSM   H11T15222   0.219   1.837   2.933 -0.6322  0.6866  0.1499
  140OSM   C12S15223   0.163   1.916   3.139  0.4751  0.7537 -0.4469
  140OSM   H12S15224   0.056   1.914   3.109  0.1756  1.1312  0.5832
  140OSM   H12T15225   0.153   2.017   3.184 -1.7003 -0.7460  2.7603
  140OSM   C13S15226   0.192   1.809   3.242 -0.0275  0.0830  0.3942
  140OSM   H13S15227   0.294   1.832   3.277  0.8128 -1.9909 -0.4970
  140OSM   H13T15228   0.195   1.714   3.185  1.1938 -0.4902  1.3730
  140OSM   C14S15229   0.078   1.800   3.350 -0.3059 -0.2441 -0.2666
  140OSM   H14S15230  -0.025   1.781   3.310 -0.4637 -0.8568  0.4120
  140OSM   H14T15231   0.087   1.890   3.414  1.9014 -0.2546 -0.5142
  140OSM   C15S15232   0.125   1.688   3.449 -0.2417 -0.0009  0.2658
  140OSM   H15S15233   0.231   1.704   3.479 -0.7558  1.5680  1.3704
  140OSM   H15T15234   0.125   1.589   3.399 -1.7554 -0.2503  0.7157
  140OSM   C16S15235   0.043   1.704   3.579  0.4833 -0.4571 -0.3633
  140OSM   H16S15236  -0.062   1.690   3.546  0.8163 -3.0426 -0.5068
  140OSM   H16T15237   0.053   1.811   3.609 -0.4441  0.1884 -2.1827
  140OSM   C17S15238   0.077   1.609   3.691 -0.1917  0.0390 -0.6067
  140OSM   H17S15239   0.180   1.605   3.732 -0.4427 -1.8601 -0.0230
  140OSM   H17T15240   0.055   1.508   3.649 -1.8080  0.3411 -0.5657
  140OSM   C18S15241  -0.005   1.626   3.813  0.8722 -0.0927 -0.6444
  140OSM   H18S15242   0.014   1.731   3.844  1.4246 -0.3952  0.1035
  140OSM   H18T15243   0.025   1.554   3.893 -0.9217  1.9650  2.0791
  140OSM   H18U15244  -0.114   1.611   3.802  0.5119  1.1784  0.7678
  140OSM    C1F15245   0.825   2.457   2.557  0.6445 -0.5257  0.1542
  140OSM     OF15246   0.816   2.576   2.585 -0.0025 -0.4721 -0.4545
  140OSM    C2F15247   0.871   2.353   2.646 -0.3884  0.9231  0.2769
  140OSM    H2F15248   0.981   2.348   2.661 -0.1994  0.4942 -1.1352
  140OSM    H2G15249   0.842   2.257   2.598 -2.0210  1.4030  0.2460
  140OSM    C3F15250   0.790   2.358   2.781 -0.2322  0.8697  0.6437
  140OSM    H3F15251   0.682   2.370   2.760  0.1348  2.9829 -0.2590
  140OSM    H3G15252   0.812   2.451   2.839  0.3574  1.9118 -1.1649
  140OSM    C4F15253   0.808   2.225   2.859 -0.2764  0.4429  0.1936
  140OSM    H4F15254   0.808   2.146   2.781 -2.2575  0.4613  0.1437
  140OSM    H4G15255   0.732   2.217   2.939 -1.5392  0.1986 -0.9980
  140OSM    C5F15256   0.953   2.222   2.928  0.1376 -0.8110  0.2326
  140OSM    H5F15257   0.961   2.304   3.003 -1.3467  2.2133 -2.6609
  140OSM    H5G15258   1.026   2.242   2.847  0.2162 -0.4964  0.3784
  140OSM    C6F15259   0.976   2.097   3.003  0.3020  0.4071 -0.5726
  140OSM    H6F15260   1.079   2.058   2.989 -0.1235 -0.8217 -0.4122
  140OSM    H6G15261   0.917   2.020   2.949  2.1249 -2.0466  0.6967
  140OSM    C7F15262   0.928   2.079   3.148 -0.0528  0.2384  1.2585
  140OSM    H7F15263   0.891   1.977   3.171 -2.7830  0.7185 -0.4880
  140OSM    H7G15264   0.835   2.140   3.153 -2.4571 -2.8408 -1.3153
  140OSM    C8F15265   1.023   2.113   3.262  0.3175  0.2077  0.1885
  140OSM    H8F15266   0.962   2.134   3.352 -0.0974 -0.6090  0.1002
  140OSM    H8G15267   1.072   2.206   3.226 -0.5997 -0.5684 -3.4223
  140OSM    C9F15268   1.131   2.008   3.295 -0.1345  0.2718  0.4130
  140OSM    H9F15269   1.123   1.915   3.237 -0.5786  0.3351  0.3701
  140OSM   C10F15270   1.213   2.006   3.401 -0.4396  0.9738  0.0734
  140OSM   H10F15271   1.279   1.919   3.414 -1.4888  0.1524  0.0969
  140OSM   C11F15272   1.226   2.115   3.493 -0.0398 -0.0381 -0.4784
  140OSM   H11F15273   1.148   2.124   3.571  0.2214 -0.0106 -0.2202
  140OSM   H11G15274   1.240   2.208   3.435 -2.2395 -0.1552 -1.3115
  140OSM   C12F15275   1.359   2.114   3.570  0.3141  0.0552  0.3932
  140OSM   H12F15276   1.360   2.208   3.630  1.9694  0.8945 -0.8549
  140OSM   H12G15277   1.447   2.137   3.505 -0.5803  3.8170  0.2447
  140OSM   C13F15278   1.383   1.998   3.666  0.4959  0.5574 -0.2534
  140OSM   H13F15279   1.393   1.900   3.616  0.9161 -0.4919  1.7870
  140OSM   H13G15280   1.299   1.995   3.739  1.7214  0.6367  1.2072
  140OSM   C14F15281   1.505   2.028   3.754 -0.3381 -0.1002  0.3121
  140OSM   H14F15282   1.509   2.128   3.804  3.3934 -0.5999  1.2887
  140OSM   H14G15283   1.593   2.033   3.687 -0.4005  1.4950  0.3090
  140OSM   C15F15284   1.521   1.919   3.860  0.0450 -0.6311  0.3381
  140OSM   H15F15285   1.538   1.820   3.812  0.6658 -0.0851 -0.6089
  140OSM   H15G15286   1.428   1.936   3.918  0.6333  0.8145  0.8804
  140OSM   C16F15287   1.635   1.938   3.960  0.3959  0.3456  0.1419
  140OSM   H16F15288   1.736   1.923   3.915  0.4662  1.7772 -0.2149
  140OSM   H16G15289   1.606   1.858   4.032  3.0341 -0.7952  0.0511
  140OSM   C17F15290   1.628   2.068   4.040 -0.2853 -0.7094  0.2622
  140OSM   H17F15291   1.523   2.082   4.072 -0.0876 -1.4557  1.2771
  140OSM   H17G15292   1.640   2.153   3.969 -2.8737  0.1928  0.8110
  140OSM   C18F15293   1.705   2.064   4.160  0.0551 -0.1746  0.0513
  140OSM   H18F15294   1.675   1.980   4.226  0.7043  0.2642  0.9313
  140OSM   H18G15295   1.689   2.156   4.220 -0.1766 -0.1608 -0.0324
  140OSM   H18H15296   1.813   2.066   4.135 -0.5844 -1.3680 -3.3253
  141OSM      N15297   0.524   5.407   2.273  0.5620 -0.0986 -0.5928
  141OSM    C1515298   0.397   5.322   2.297  0.6924 -0.7358 -0.3820
  141OSM   H15A15299   0.364   5.256   2.218 -1.4880  0.2468 -0.3684
  141OSM   H15B15300   0.308   5.376   2.326  0.9785 -0.6285  0.3080
  141OSM   H15C15301   0.419   5.253   2.377  1.0703  0.0759  0.2255
  141OSM    C1415302   0.626   5.310   2.236  0.4846  0.1095  0.4511
  141OSM   H14A15303   0.720   5.360   2.216 -0.1862  1.2343 -0.0503
  141OSM   H14B15304   0.594   5.264   2.144  1.4235  1.4063 -0.5660
  141OSM   H14C15305   0.644   5.231   2.307 -1.1230  1.7671  2.8280
  141OSM    C1315306   0.511   5.499   2.160 -0.1637  0.1540 -0.1364
  141OSM   H13A15307   0.477   5.444   2.074 -1.5076 -1.4083  1.3282
  141OSM   H13B15308   0.605   5.546   2.135  0.7528 -1.0504  0.9145
  141OSM   H13C15309   0.434   5.573   2.174 -0.1304  0.2172 -0.2799
  141OSM    C1215310   0.565   5.481   2.395  0.0764 -0.0180 -0.2267
  141OSM   H12A15311   0.564   5.405   2.471 -1.4159  0.6849  0.4938
  141OSM   H12B15312   0.493   5.554   2.429 -0.6249 -0.5377 -0.5724
  141OSM    C1115313   0.706   5.548   2.397 -0.1100  0.9391  0.3002
  141OSM   H11A15314   0.711   5.617   2.483  1.2673  0.6219  0.4984
  141OSM   H11B15315   0.710   5.615   2.308  1.4861  0.8681  0.3018
  141OSM      P15316   0.945   5.471   2.485  0.0429  0.1155  0.0044
  141OSM    O1315317   1.058   5.378   2.453 -0.3271 -0.2976 -0.4039
  141OSM    O1415318   0.975   5.612   2.529 -0.3004 -0.2561  0.5926
  141OSM    O1115319   0.868   5.393   2.594 -0.4973  1.1600 -0.4567
  141OSM    O1215320   0.831   5.471   2.375  0.0042 -0.2925 -0.4630
  141OSM    C1S15321   0.919   5.375   2.724 -0.2975 -0.3174 -0.3645
  141OSM    H1S15322   1.029   5.367   2.729  0.2203  4.3151  0.8449
  141OSM    H1T15323   0.877   5.288   2.779  0.2908 -1.0493 -1.0555
  141OSM     NF15324   0.936   5.501   2.940  0.5270  0.6486  0.2493
  141OSM    HNF15325   0.892   5.465   3.022  2.5991  1.9473  2.0260
  141OSM    C2S15326   0.869   5.504   2.808  0.1017 -1.0348  0.4389
  141OSM    H2S15327   0.903   5.596   2.756  1.1407 -2.6224 -1.8534
  141OSM    C3S15328   0.713   5.499   2.822  0.1824 -0.2580  0.3710
  141OSM    H3S15329   0.704   5.407   2.883  0.4794 -0.7374 -0.3037
  141OSM     O315330   0.641   5.494   2.699  0.5807  0.1147 -0.1468
  141OSM    HO315331   0.702   5.481   2.626 -2.0989  0.7603 -2.7261
  141OSM    C4S15332   0.667   5.621   2.899  0.8222  0.0237 -0.0891
  141OSM    H4S15333   0.682   5.716   2.846 -3.1505  2.6724  2.9663
  141OSM    C5S15334   0.610   5.614   3.023  0.7806 -0.0525  0.6700
  141OSM    H5S15335   0.596   5.516   3.070  1.4745 -1.4899 -1.9204
  141OSM    C6S15336   0.551   5.738   3.089 -0.1423 -0.4832 -0.2209
  141OSM    H6S15337   0.443   5.750   3.070  0.2329  0.8344 -1.8259
  141OSM    H6T15338   0.595   5.829   3.042  0.7838 -2.0802 -2.6332
  141OSM    C7S15339   0.589   5.740   3.239 -0.8851  0.3254 -0.3791
  141OSM    H7S15340   0.573   5.836   3.294 -0.5707 -0.0606  0.4109
  141OSM    H7T15341   0.699   5.725   3.251 -0.8948 -2.0799 -2.6224
  141OSM    C8S15342   0.525   5.624   3.316  0.0758  0.6010 -0.0924
  141OSM    H8S15343   0.561   5.526   3.278 -0.1971  0.5216 -0.1445
  141OSM    H8T15344   0.415   5.638   3.310  0.0406  0.0835 -0.9276
  141OSM    C9S15345   0.557   5.627   3.464 -0.9632  0.2073  0.2292
  141OSM    H9S15346   0.543   5.727   3.511 -1.6337 -0.1300  0.7658
  141OSM    H9T15347   0.667   5.618   3.477 -0.5973  3.1012 -0.1091
  141OSM   C10S15348   0.490   5.521   3.555  0.4336 -0.0558  0.3283
  141OSM   H10S15349   0.514   5.432   3.493  2.3801  1.0714 -0.6604
  141OSM   H10T15350   0.382   5.541   3.542  0.2096 -1.3980 -0.0266
  141OSM   C11S15351   0.530   5.533   3.704 -0.0315  0.2847  0.4428
  141OSM   H11S15352   0.470   5.620   3.738  1.3656  2.9453 -3.2759
  141OSM   H11T15353   0.638   5.559   3.709  0.2235 -0.5502 -0.5417
  141OSM   C12S15354   0.505   5.405   3.784 -0.9506  0.0226 -0.8614
  141OSM   H12S15355   0.551   5.320   3.729  3.0517  1.7420 -0.5328
  141OSM   H12T15356   0.397   5.387   3.800 -0.3850 -1.7636  1.6295
  141OSM   C13S15357   0.588   5.409   3.918  0.3780  0.4318  0.9703
  141OSM   H13S15358   0.551   5.495   3.977 -0.5096  1.3744 -0.8566
  141OSM   H13T15359   0.694   5.423   3.888  1.1875 -0.1395  3.3535
  141OSM   C14S15360   0.571   5.272   3.989 -0.0189  0.9011  0.6562
  141OSM   H14S15361   0.578   5.191   3.913 -0.7251 -0.3342  1.8544
  141OSM   H14T15362   0.469   5.255   4.028  1.2064 -0.5485  3.6099
  141OSM   C15S15363   0.667   5.266   4.112  0.1089 -0.3149  0.2516
  141OSM   H15S15364   0.669   5.368   4.156  0.8713 -1.0730  2.0381
  141OSM   H15T15365   0.771   5.251   4.076 -0.3388 -0.2876 -1.1370
  141OSM   C16S15366   0.638   5.152   4.209 -0.1088 -0.1055 -0.1567
  141OSM   H16S15367   0.645   5.052   4.162 -1.9011 -1.8353  2.9396
  141OSM   H16T15368   0.529   5.155   4.230 -0.5234  0.4694 -2.1648
  141OSM   C17S15369   0.705   5.168   4.343 -0.1131 -0.0814  0.4036
  141OSM   H17S15370   0.666   5.086   4.407 -0.9582 -0.0065 -0.0032
  141OSM   H17T15371   0.673   5.265   4.387  0.2784  0.2250  0.0166
  141OSM   C18S15372   0.858   5.183   4.333  0.1599  0.0113 -0.5477
  141OSM   H18S15373   0.884   5.273   4.274 -1.3180 -0.7091 -2.4368
  141OSM   H18T15374   0.904   5.102   4.273  1.4184 -0.0085  0.4052
  141OSM   H18U15375   0.916   5.181   4.428  1.7564 -1.3572 -1.4938
  141OSM    C1F15376   1.064   5.510   2.964  0.6477  0.7599 -0.5506
  141OSM     OF15377   1.138   5.539   2.873  0.0924 -0.1534 -0.1163
  141OSM    C2F15378   1.100   5.463   3.104  0.7491  0.0052 -0.3266
  141OSM    H2F15379   1.052   5.363   3.112  0.5844  0.2264  2.3875
  141OSM    H2G15380   1.042   5.527   3.174 -0.8507 -3.3527  1.6865
  141OSM    C3F15381   1.251   5.445   3.133 -0.4828  0.9426  0.3369
  141OSM    H3F15382   1.304   5.540   3.111  1.2458 -0.1481 -0.4162
  141OSM    H3G15383   1.289   5.369   3.061 -0.4083  0.1916  1.1375
  141OSM    C4F15384   1.290   5.395   3.274  0.4982 -0.2650  0.1044
  141OSM    H4F15385   1.237   5.464   3.342  1.4214  0.9417 -0.3602
  141OSM    H4G15386   1.398   5.411   3.296  0.8009 -0.4406 -1.1778
  141OSM    C5F15387   1.251   5.251   3.307 -0.2173  0.9874 -0.2024
  141OSM    H5F15388   1.271   5.190   3.216 -2.1119  1.1040 -0.7250
  141OSM    H5G15389   1.143   5.245   3.328 -0.8160 -1.3712 -3.2203
  141OSM    C6F15390   1.322   5.194   3.427 -0.2004 -0.1564  0.2596
  141OSM    H6F15391   1.432   5.189   3.407  0.0873  1.1924  1.3652
  141OSM    H6G15392   1.288   5.092   3.454 -0.8920  0.0103  0.0416
  141OSM    C7F15393   1.297   5.277   3.556  0.4022 -0.2114 -0.2263
  141OSM    H7F15394   1.187   5.275   3.570  0.1496 -2.7723 -1.8984
  141OSM    H7G15395   1.335   5.382   3.551 -2.4015  1.2371  3.7756
  141OSM    C8F15396   1.361   5.219   3.688  0.2311 -0.2643 -0.0383
  141OSM    H8F15397   1.335   5.297   3.763 -0.4404  1.3359 -1.8404
  141OSM    H8G15398   1.470   5.206   3.676  0.5529  1.7655  0.3661
  141OSM    C9F15399   1.302   5.083   3.718  0.5468  0.4476 -0.0615
  141OSM    H9F15400   1.198   5.089   3.752  0.3322  2.7440 -0.9727
  141OSM   C10F15401   1.362   4.958   3.708  0.4993 -0.1080  0.4932
  141OSM   H10F15402   1.296   4.872   3.726 -0.5578  0.9519  1.7946
  141OSM   C11F15403   1.500   4.928   3.658  0.5288 -0.0176 -0.6783
  141OSM   H11F15404   1.540   5.020   3.610  1.9286 -0.2356  0.0077
  141OSM   H11G15405   1.495   4.839   3.592 -0.4239 -2.6633  2.6537
  141OSM   C12F15406   1.591   4.884   3.776  0.7125  0.5928  0.8030
  141OSM   H12F15407   1.593   4.963   3.853 -2.9213  1.3681  0.2584
  141OSM   H12G15408   1.690   4.861   3.729  0.2457 -1.5787  0.7874
  141OSM   C13F15409   1.548   4.753   3.845 -0.2481  0.2182  0.8415
  141OSM   H13F15410   1.544   4.666   3.777 -1.5196  0.7403  0.2097
  141OSM   H13G15411   1.441   4.757   3.877 -0.4816 -1.5836  0.4044
  141OSM   C14F15412   1.630   4.716   3.968  0.6878  0.4868  0.3661
  141OSM   H14F15413   1.736   4.727   3.938  0.7051  2.5966  1.0156
  141OSM   H14G15414   1.607   4.609   3.983  2.2193  0.2957  1.6009
  141OSM   C15F15415   1.603   4.793   4.087 -0.3309  0.2334 -0.5746
  141OSM   H15F15416   1.501   4.766   4.123  0.2568 -1.4622 -0.1120
  141OSM   H15G15417   1.596   4.900   4.056 -2.3439 -0.3819 -2.5472
  141OSM   C16F15418   1.697   4.767   4.209  0.1202  0.5918  0.1546
  141OSM   H16F15419   1.800   4.771   4.168 -0.1695 -0.2265 -0.6952
  141OSM   H16G15420   1.679   4.670   4.259  0.6905  1.3400  1.8697
  141OSM   C17F15421   1.679   4.864   4.327  0.2184  0.1760 -0.3069
  141OSM   H17F15422   1.580   4.853   4.377 -0.6107  0.4903 -1.8078
  141OSM   H17G15423   1.686   4.970   4.296  0.8724  0.7048  1.5282
  141OSM   C18F15424   1.783   4.841   4.436 -0.5213  0.2601  0.4680
  141OSM   H18F15425   1.756   4.873   4.538  0.5466 -2.5097  1.7095
  141OSM   H18G15426   1.864   4.911   4.408  0.8303 -1.1379  0.7915
  141OSM   H18H15427   1.832   4.743   4.453  1.4076  1.0124 -0.4638
  142OSM      N15428   3.081   6.835   1.897  0.0784  0.9073  0.9776
  142OSM    C1515429   2.956   6.874   1.829 -0.7543  0.1912 -0.7779
  142OSM   H15A15430   2.910   6.957   1.882  1.6700  1.8118 -1.0255
  142OSM   H15B15431   2.889   6.790   1.819 -1.2112  0.2803  1.1416
  142OSM   H15C15432   2.976   6.910   1.729  1.1600  1.0621 -0.1147
  142OSM    C1415433   3.135   6.705   1.843  0.2652  0.1354  0.3665
  142OSM   H14A15434   3.061   6.628   1.858  0.9353 -0.5900  0.0294
  142OSM   H14B15435   3.225   6.677   1.895 -0.0334 -0.2628  0.6754
  142OSM   H14C15436   3.158   6.714   1.738 -0.4927 -0.9023  0.0966
  142OSM    C1315437   3.173   6.952   1.868 -0.1857  0.0090  0.1835
  142OSM   H13A15438   3.256   6.945   1.937 -0.7134 -4.4679  0.6154
  142OSM   H13B15439   3.132   7.047   1.900 -0.4864  0.5980 -1.8011
  142OSM   H13C15440   3.176   6.958   1.760 -0.3883 -0.1247  0.1717
  142OSM    C1215441   3.058   6.815   2.045 -0.4183 -0.1654  0.1713
  142OSM   H12A15442   3.154   6.785   2.086 -0.3669 -1.0139 -0.5293
  142OSM   H12B15443   2.996   6.728   2.057 -0.2441 -0.3338 -0.1367
  142OSM    C1115444   2.995   6.940   2.114  0.0486  0.2893 -0.1850
  142OSM   H11A15445   3.050   7.034   2.093  2.5405 -1.3998 -1.6752
  142OSM   H11B15446   3.018   6.921   2.221  0.4153 -0.0098 -0.3143
  142OSM      P15447   2.757   7.059   2.162 -0.4348  0.5777  0.0751
  142OSM    O1315448   2.773   7.191   2.109 -0.6854 -0.1251  0.3378
  142OSM    O1415449   2.627   7.000   2.166  0.1402 -0.5284  0.1980
  142OSM    O1115450   2.816   7.074   2.309 -0.4983  0.0893  0.4800
  142OSM    O1215451   2.856   6.949   2.088  0.2508 -0.3544 -0.6896
  142OSM    C1S15452   2.731   7.144   2.397 -0.3209 -0.2586 -0.1575
  142OSM    H1S15453   2.637   7.088   2.416 -0.5382 -0.0461 -0.5985
  142OSM    H1T15454   2.702   7.240   2.349 -0.7145  0.1103  0.7826
  142OSM     NF15455   2.702   7.237   2.622 -0.4585 -0.5677  0.1232
  142OSM    HNF15456   2.704   7.337   2.617 -1.1842 -0.5884 -0.9692
  142OSM    C2S15457   2.800   7.176   2.528  0.2836 -0.2167 -0.3894
  142OSM    H2S15458   2.831   7.081   2.575  2.3920  0.4347 -0.3651
  142OSM    C3S15459   2.931   7.254   2.504  0.3157 -0.8930 -0.1088
  142OSM    H3S15460   2.905   7.344   2.444  0.4763 -1.0937 -0.4836
  142OSM     O315461   3.024   7.189   2.417  0.1612 -0.1752 -0.0963
  142OSM    HO315462   2.971   7.118   2.379 -1.4051  0.0831  1.4433
  142OSM    C4S15463   3.000   7.290   2.632 -0.0623 -0.3144 -0.2940
  142OSM    H4S15464   2.954   7.381   2.674  0.3822 -0.6352  0.9447
  142OSM    C5S15465   3.103   7.232   2.697 -0.2088  0.1041  0.5076
  142OSM    H5S15466   3.163   7.153   2.649  1.4049  0.8076  1.2951
  142OSM    C6S15467   3.157   7.281   2.837 -0.4865  0.8245  0.1164
  142OSM    H6S15468   3.260   7.322   2.827  0.1997 -0.3879  1.7650
  142OSM    H6T15469   3.179   7.191   2.898  0.5597  0.0516 -1.3396
  142OSM    C7S15470   3.073   7.384   2.905  0.0213  0.4756  1.3473
  142OSM    H7S15471   2.969   7.346   2.904 -0.0262  0.5594 -0.6115
  142OSM    H7T15472   3.075   7.485   2.858  0.3479 -0.3976 -0.6006
  142OSM    C8S15473   3.118   7.417   3.049  0.9809  0.0033 -0.5806
  142OSM    H8S15474   3.128   7.320   3.103 -2.0597  0.0890  0.3063
  142OSM    H8T15475   3.033   7.467   3.100  1.6589 -0.3286  0.9580
  142OSM    C9S15476   3.252   7.494   3.061 -0.0469 -0.6916 -0.0032
  142OSM    H9S15477   3.229   7.600   3.037 -0.0236 -0.5959  0.3911
  142OSM    H9T15478   3.321   7.463   2.980  0.1544  0.6391 -0.3645
  142OSM   C10S15479   3.318   7.486   3.197  0.7203 -0.1021 -0.7612
  142OSM   H10S15480   3.424   7.514   3.185  0.8821  0.2163  1.1328
  142OSM   H10T15481   3.321   7.381   3.234  0.3841 -0.1181 -0.7712
  142OSM   C11S15482   3.258   7.574   3.308 -0.5122  0.2972 -0.1299
  142OSM   H11S15483   3.154   7.545   3.333 -0.6263  0.3192 -0.5766
  142OSM   H11T15484   3.264   7.679   3.272  2.4081  0.3426  0.2625
  142OSM   C12S15485   3.341   7.562   3.432  0.4840  1.1531  0.8736
  142OSM   H12S15486   3.447   7.538   3.410  0.5771  1.5449  0.8747
  142OSM   H12T15487   3.303   7.468   3.476  1.8142  1.1370  2.0780
  142OSM   C13S15488   3.334   7.679   3.528  0.4489 -0.2108 -0.2743
  142OSM   H13S15489   3.232   7.675   3.570  0.3103 -1.1808 -0.6863
  142OSM   H13T15490   3.358   7.775   3.477  0.5409 -0.5320 -0.8452
  142OSM   C14S15491   3.437   7.669   3.644  0.1503 -0.3450  1.0058
  142OSM   H14S15492   3.417   7.744   3.723 -2.4464 -1.6289  1.6911
  142OSM   H14T15493   3.538   7.685   3.601 -0.6255 -0.5506 -1.0095
  142OSM   C15S15494   3.416   7.535   3.712 -0.1339 -0.3857  0.3191
  142OSM   H15S15495   3.464   7.459   3.648  2.4727  0.7462  0.8001
  142OSM   H15T15496   3.308   7.507   3.715 -0.0734 -0.5361  1.3392
  142OSM   C16S15497   3.478   7.539   3.849  0.3743  0.7698  0.0054
  142OSM   H16S15498   3.450   7.632   3.904  0.4033 -0.6068  2.4634
  142OSM   H16T15499   3.588   7.543   3.831  0.0176  0.6574 -2.5675
  142OSM   C17S15500   3.437   7.425   3.935 -0.3142  0.7789 -0.1624
  142OSM   H17S15501   3.326   7.424   3.927 -0.4768 -2.3805  1.1242
  142OSM   H17T15502   3.462   7.439   4.042  2.1279 -0.2716 -0.5336
  142OSM   C18S15503   3.489   7.282   3.889 -0.4180 -0.2651  0.3673
  142OSM   H18S15504   3.452   7.221   3.974 -2.1781  0.9398  0.5153
  142OSM   H18T15505   3.600   7.280   3.892 -0.2843  1.0386 -1.7595
  142OSM   H18U15506   3.448   7.244   3.793  0.4342  1.9613 -0.9440
  142OSM    C1F15507   2.604   7.161   2.678 -0.4976  0.0757 -0.0310
  142OSM     OF15508   2.605   7.038   2.684  0.0231  0.1727  0.5188
  142OSM    C2F15509   2.489   7.243   2.733 -0.4022 -0.1800 -0.1827
  142OSM    H2F15510   2.391   7.199   2.702 -0.2706  0.3341 -1.3879
  142OSM    H2G15511   2.509   7.339   2.682  1.6817 -0.5811 -0.2106
  142OSM    C3F15512   2.487   7.247   2.891 -0.4131  0.1217 -0.0318
  142OSM    H3F15513   2.476   7.141   2.920 -1.5352 -0.1193 -1.2143
  142OSM    H3G15514   2.395   7.299   2.925  0.2339  1.4693 -0.2727
  142OSM    C4F15515   2.604   7.312   2.956 -0.1831 -0.1046 -0.3189
  142OSM    H4F15516   2.594   7.421   2.975  0.8163 -0.3024  1.5104
  142OSM    H4G15517   2.687   7.304   2.882 -0.3877 -0.2546 -0.5329
  142OSM    C5F15518   2.636   7.257   3.091  0.1818 -0.3227 -0.1735
  142OSM    H5F15519   2.680   7.156   3.079 -0.3250 -0.4229 -1.2696
  142OSM    H5G15520   2.540   7.240   3.144 -0.1170  2.0535  0.1626
  142OSM    C6F15521   2.735   7.344   3.176 -0.1132  0.2834  0.4462
  142OSM    H6F15522   2.677   7.433   3.209  0.2746  0.8411 -0.3732
  142OSM    H6G15523   2.818   7.387   3.117 -0.0718  1.5837  1.4097
  142OSM    C7F15524   2.789   7.271   3.299 -0.0916  0.0410 -0.3601
  142OSM    H7F15525   2.789   7.163   3.273 -1.5330 -0.2044  0.5176
  142OSM    H7G15526   2.723   7.279   3.388  3.4319  0.3118  2.4704
  142OSM    C8F15527   2.918   7.333   3.355 -0.5642 -0.7892 -0.1958
  142OSM    H8F15528   2.897   7.433   3.399 -0.6947 -0.3616 -1.2073
  142OSM    H8G15529   2.994   7.352   3.277  1.5354  0.3196  1.9934
  142OSM    C9F15530   2.967   7.232   3.463 -0.1933 -0.0096  0.0601
  142OSM    H9F15531   3.002   7.139   3.418 -0.0614 -0.1566  0.4603
  142OSM   C10F15532   2.972   7.260   3.589  0.1340 -0.2760 -0.0114
  142OSM   H10F15533   3.017   7.194   3.665 -1.3029  0.2575  1.3579
  142OSM   C11F15534   2.929   7.392   3.655  0.9322  0.2171 -0.0792
  142OSM   H11F15535   2.834   7.419   3.603  0.1477  0.3589  1.3530
  142OSM   H11G15536   3.001   7.475   3.643 -0.4621  1.5509  0.3666
  142OSM   C12F15537   2.907   7.371   3.803 -0.1272  0.1506  0.4966
  142OSM   H12F15538   2.854   7.276   3.827  0.9005 -0.5083  0.2720
  142OSM   H12G15539   2.836   7.451   3.829  0.1420  0.2816  0.8289
  142OSM   C13F15540   3.035   7.378   3.886  0.0227  0.0813  0.2353
  142OSM   H13F15541   3.078   7.480   3.876  0.2012 -0.1382 -1.5215
  142OSM   H13G15542   3.114   7.303   3.862 -0.8881 -0.6803 -0.4841
  142OSM   C14F15543   3.005   7.356   4.040  0.1391 -1.0239 -0.5868
  142OSM   H14F15544   2.929   7.429   4.074  2.6106  1.1582  0.5631
  142OSM   H14G15545   3.092   7.381   4.105 -2.0008  1.6498  1.5010
  142OSM   C15F15546   2.950   7.216   4.065 -0.9775  0.5116 -0.4850
  142OSM   H15F15547   3.018   7.140   4.022 -0.4344 -0.2143  1.5540
  142OSM   H15G15548   2.856   7.198   4.008 -1.9082  0.3204  1.0500
  142OSM   C16F15549   2.921   7.186   4.210 -0.0280  0.5793 -0.2923
  142OSM   H16F15550   2.845   7.256   4.249 -0.8054  0.1978 -1.0936
  142OSM   H16G15551   3.015   7.195   4.268 -0.2389 -2.6768  0.7667
  142OSM   C17F15552   2.880   7.040   4.232  0.1846  0.3951  0.7397
  142OSM   H17F15553   2.964   6.987   4.181 -1.0798 -0.5950 -0.3922
  142OSM   H17G15554   2.785   7.011   4.183  0.7903 -0.4752  0.0422
  142OSM   C18F15555   2.891   7.007   4.382 -0.9939  0.0791  0.3523
  142OSM   H18F15556   2.842   6.912   4.413 -0.0966 -0.2641  0.7563
  142OSM   H18G15557   2.843   7.089   4.441  1.5611  1.0550  1.2124
  142OSM   H18H15558   2.997   6.999   4.416 -0.7479  0.6673 -0.2440
  143OSM      N15559   2.259   5.508   2.025 -0.6610 -0.1899 -0.7032
  143OSM    C1515560   2.118   5.547   2.012 -0.3849  0.0917  0.3059
  143OSM   H15A15561   2.106   5.636   2.072 -1.4114 -0.7087  1.3275
  143OSM   H15B15562   2.045   5.478   2.051  0.0619  1.3342  3.6502
  143OSM   H15C15563   2.101   5.581   1.911 -1.9081 -2.7380 -0.5011
  143OSM    C1415564   2.285   5.397   1.930  0.5606  0.5626 -0.9803
  143OSM   H14A15565   2.256   5.426   1.830 -3.0087  0.4016 -0.1077
  143OSM   H14B15566   2.227   5.307   1.943 -0.8621  1.6513  0.4856
  143OSM   H14C15567   2.391   5.377   1.936  0.3188 -0.4436  0.7032
  143OSM    C1315568   2.359   5.618   1.996  0.5957 -0.1134 -0.0133
  143OSM   H13A15569   2.342   5.709   2.051 -2.7730  1.6029 -3.3758
  143OSM   H13B15570   2.350   5.654   1.894  0.6137 -0.1445 -0.0265
  143OSM   H13C15571   2.462   5.592   2.014 -0.5368 -3.6228  2.5486
  143OSM    C1215572   2.285   5.474   2.170  0.3947 -0.3339  0.0234
  143OSM   H12A15573   2.391   5.456   2.180  0.4750 -1.2186 -2.0153
  143OSM   H12B15574   2.229   5.387   2.201  0.7908  0.1660  2.3237
  143OSM    C1115575   2.244   5.577   2.282 -0.3227  0.4515  0.1060
  143OSM   H11A15576   2.291   5.546   2.378  1.8177 -1.1887 -1.3737
  143OSM   H11B15577   2.134   5.584   2.292 -0.3544 -0.9075  1.1315
  143OSM      P15578   2.262   5.822   2.350 -0.1973 -0.2657 -0.1125
  143OSM    O1315579   2.320   5.943   2.299 -0.5193 -0.6999  0.9592
  143OSM    O1415580   2.115   5.824   2.361  0.1245  0.4848 -0.5496
  143OSM    O1115581   2.333   5.779   2.486  0.2494  0.4212  0.1859
  143OSM    O1215582   2.301   5.704   2.261 -0.2944 -0.4343  0.4882
  143OSM    C1S15583   2.244   5.783   2.603 -0.2659  0.4454 -0.1355
  143OSM    H1S15584   2.161   5.713   2.580  1.7747 -1.8895 -0.7747
  143OSM    H1T15585   2.197   5.883   2.621 -1.4654 -0.4205  1.9148
  143OSM     NF15586   2.205   5.713   2.831  0.3131  0.4056  0.5362
  143OSM    HNF15587   2.198   5.792   2.890 -1.8600  1.2002 -0.6865
  143OSM    C2S15588   2.305   5.714   2.727 -0.0847  0.4226 -0.2715
  143OSM    H2S15589   2.337   5.610   2.706  1.0131  0.0625  2.7767
  143OSM    C3S15590   2.435   5.796   2.774 -0.3479 -0.2576  1.1306
  143OSM    H3S15591   2.385   5.892   2.800  0.4556  0.2794  0.7249
  143OSM     O315592   2.511   5.838   2.662 -0.1515 -0.1991 -0.0741
  143OSM    HO315593   2.462   5.806   2.586  0.1683  2.3644 -1.4742
  143OSM    C4S15594   2.512   5.738   2.894 -0.0138 -0.2413  0.0809
  143OSM    H4S15595   2.465   5.763   2.990 -1.4266 -0.9372 -0.4013
  143OSM    C5S15596   2.615   5.644   2.894  0.1507 -0.6551 -0.0282
  143OSM    H5S15597   2.631   5.598   2.796  1.4382  0.1926 -0.2434
  143OSM    C6S15598   2.678   5.582   3.013 -0.5994 -0.8049  0.2908
  143OSM    H6S15599   2.785   5.601   2.990 -1.6436  1.4637 -3.5803
  143OSM    H6T15600   2.654   5.474   3.007 -1.3026 -0.5766 -2.7097
  143OSM    C7S15601   2.642   5.647   3.143 -0.1232  0.8997  0.1415
  143OSM    H7S15602   2.533   5.629   3.160 -0.1898 -2.1390 -2.5974
  143OSM    H7T15603   2.656   5.757   3.131 -1.7034  1.0890 -0.1883
  143OSM    C8S15604   2.724   5.597   3.258  0.0449 -0.7473  0.1515
  143OSM    H8S15605   2.829   5.624   3.236 -0.6397  1.5013 -0.5556
  143OSM    H8T15606   2.707   5.487   3.266  1.7197 -1.2403 -2.0156
  143OSM    C9S15607   2.669   5.655   3.392  0.6943  0.7336  0.1689
  143OSM    H9S15608   2.558   5.652   3.397  0.7326  0.7560  1.3075
  143OSM    H9T15609   2.699   5.762   3.392 -1.7490  1.5177  1.8796
  143OSM   C10S15610   2.725   5.589   3.518  0.0077 -0.4970 -0.1992
  143OSM   H10S15611   2.836   5.587   3.514  0.0587 -1.2083  0.9347
  143OSM   H10T15612   2.691   5.483   3.529 -0.5161 -0.0955  3.6774
  143OSM   C11S15613   2.676   5.651   3.652  0.0007 -0.7592  0.2094
  143OSM   H11S15614   2.566   5.651   3.662 -0.1617  1.7354 -0.6421
  143OSM   H11T15615   2.708   5.757   3.667 -4.3987  0.3894  3.2085
  143OSM   C12S15616   2.755   5.595   3.775  0.8463  0.0584  0.2332
  143OSM   H12S15617   2.860   5.630   3.770  0.4523  1.6524  1.9821
  143OSM   H12T15618   2.744   5.484   3.772 -2.6506  0.2874 -1.2841
  143OSM   C13S15619   2.698   5.651   3.907 -0.6633  0.4017  0.1834
  143OSM   H13S15620   2.587   5.659   3.906 -0.6886  0.0344 -0.0491
  143OSM   H13T15621   2.739   5.753   3.920  1.8126 -0.2408 -1.8676
  143OSM   C14S15622   2.732   5.560   4.031  0.3240  0.3778  0.2262
  143OSM   H14S15623   2.843   5.558   4.045  0.2376  0.6956  1.0132
  143OSM   H14T15624   2.695   5.465   3.988  1.4144  0.6632 -1.4367
  143OSM   C15S15625   2.673   5.606   4.167  0.2007 -0.2891 -0.0409
  143OSM   H15S15626   2.713   5.706   4.196 -2.3421  1.3913 -1.8966
  143OSM   H15T15627   2.708   5.537   4.246  0.3627  1.1088  1.1520
  143OSM   C16S15628   2.518   5.621   4.175  0.5642  0.2609  0.2848
  143OSM   H16S15629   2.468   5.522   4.185  0.1249  0.4798  0.2789
  143OSM   H16T15630   2.487   5.661   4.076  0.6061 -3.8565 -1.6178
  143OSM   C17S15631   2.486   5.710   4.298  0.2788 -0.7867 -0.5319
  143OSM   H17S15632   2.564   5.789   4.306  0.3604 -0.7563 -1.5413
  143OSM   H17T15633   2.501   5.654   4.393  1.2854  0.7086  0.2460
  143OSM   C18S15634   2.355   5.781   4.305 -0.3320 -0.4104  0.2377
  143OSM   H18S15635   2.273   5.715   4.341 -0.0505 -0.0063  1.6810
  143OSM   H18T15636   2.318   5.815   4.206  0.1242  2.0478  0.8457
  143OSM   H18U15637   2.347   5.863   4.380 -0.6618 -0.9969  0.8580
  143OSM    C1F15638   2.106   5.627   2.834 -0.6089 -0.4349 -0.1351
  143OSM     OF15639   2.085   5.545   2.738  0.0242 -0.3483 -0.0075
  143OSM    C2F15640   2.023   5.636   2.959 -0.5965 -0.1471  0.2007
  143OSM    H2F15641   2.039   5.740   2.994 -0.5867  1.1882 -3.3334
  143OSM    H2G15642   2.061   5.572   3.041 -1.4534 -0.4283  0.3882
  143OSM    C3F15643   1.875   5.614   2.920 -0.0584  0.1047 -0.1076
  143OSM    H3F15644   1.863   5.507   2.895 -0.1211  0.5913 -2.2892
  143OSM    H3G15645   1.851   5.665   2.825 -1.4562 -0.2193  0.0493
  143OSM    C4F15646   1.769   5.645   3.031  0.4815  0.0500 -0.1370
  143OSM    H4F15647   1.678   5.624   2.971 -1.1909 -0.2634  2.3661
  143OSM    H4G15648   1.769   5.745   3.080  3.2321 -0.4777  1.1605
  143OSM    C5F15649   1.757   5.545   3.146  0.0312 -0.6936  0.1869
  143OSM    H5F15650   1.858   5.556   3.191  0.6508 -3.3398 -0.3914
  143OSM    H5G15651   1.754   5.445   3.098  0.5008 -1.4939  1.7493
  143OSM    C6F15652   1.635   5.562   3.236  0.5832  0.6087 -0.1232
  143OSM    H6F15653   1.629   5.471   3.299 -0.3049  0.6022 -0.2115
  143OSM    H6G15654   1.549   5.565   3.165  0.5527 -0.6868 -0.1570
  143OSM    C7F15655   1.638   5.686   3.318  0.0197  0.1326  0.4888
  143OSM    H7F15656   1.627   5.783   3.263 -1.7015 -0.1361  0.2821
  143OSM    H7G15657   1.728   5.690   3.382 -0.3840 -2.4569  1.3453
  143OSM    C8F15658   1.524   5.684   3.425 -0.2893  0.3030  0.5413
  143OSM    H8F15659   1.445   5.644   3.358  1.4625  0.7702 -1.9373
  143OSM    H8G15660   1.508   5.790   3.455  1.2854  0.8828 -0.5460
  143OSM    C9F15661   1.556   5.598   3.545  0.0616  0.4012 -0.2116
  143OSM    H9F15662   1.609   5.503   3.530 -1.5964 -1.4447  3.8731
  143OSM   C10F15663   1.516   5.611   3.674 -0.1168  0.0306 -0.9491
  143OSM   H10F15664   1.549   5.538   3.749  2.1941  2.8574  1.0221
  143OSM   C11F15665   1.433   5.721   3.742  0.3430  0.1866  0.4494
  143OSM   H11F15666   1.381   5.782   3.666  0.5907 -1.2062 -0.8979
  143OSM   H11G15667   1.493   5.780   3.815 -0.2983  0.5639  0.6789
  143OSM   C12F15668   1.340   5.645   3.840  0.1738 -0.9459  0.5490
  143OSM   H12F15669   1.310   5.715   3.921 -1.7557  2.7325 -2.9355
  143OSM   H12G15670   1.390   5.556   3.883 -1.2736 -1.9940  0.1451
  143OSM   C13F15671   1.211   5.600   3.776 -0.6453  0.2250 -0.3421
  143OSM   H13F15672   1.240   5.519   3.706  0.6357  0.2687  0.1195
  143OSM   H13G15673   1.166   5.687   3.724 -0.1593  1.2042  0.8199
  143OSM   C14F15674   1.110   5.547   3.871 -0.0503 -0.4973 -0.1144
  143OSM   H14F15675   1.097   5.629   3.945  0.9861 -1.4383  1.1592
  143OSM   H14G15676   1.144   5.463   3.935 -2.7614 -1.4389  0.2252
  143OSM   C15F15677   0.972   5.525   3.812  0.2783  0.1637  0.8668
  143OSM   H15F15678   0.944   5.625   3.773 -0.4596 -0.7017 -0.9457
  143OSM   H15G15679   0.892   5.498   3.884  0.4732 -0.2565  0.9340
  143OSM   C16F15680   0.983   5.424   3.697 -0.2346  0.6893  0.2385
  143OSM   H16F15681   1.011   5.323   3.733 -2.6277  0.2347  0.9228
  143OSM   H16G15682   1.058   5.459   3.622  0.6816  0.9156  1.2327
  143OSM   C17F15683   0.852   5.414   3.621  0.1935  0.4602  0.1540
  143OSM   H17F15684   0.826   5.517   3.590 -1.5313  0.4801  1.5263
  143OSM   H17G15685   0.767   5.374   3.681 -0.2120 -1.0098 -1.3171
  143OSM   C18F15686   0.871   5.320   3.504 -0.1233  0.2430  0.4409
  143OSM   H18F15687   0.775   5.294   3.454  1.4907 -0.1857 -2.7034
  143OSM   H18G15688   0.923   5.226   3.532 -0.1350  0.4160  1.0548
  143OSM   H18H15689   0.920   5.382   3.425  0.1213 -0.1338  0.2936
  144OSM      N15690   2.735   6.078   2.307 -0.2785 -0.2608  0.3304
  144OSM    C1515691   2.814   6.125   2.421  0.5010  0.4263 -0.5558
  144OSM   H15A15692   2.798   6.229   2.446  1.4074  0.5036 -0.2710
  144OSM   H15B15693   2.921   6.125   2.403  0.3850 -0.9108 -1.3521
  144OSM   H15C15694   2.805   6.073   2.515 -0.0421  2.1871  0.4198
  144OSM    C1415695   2.766   5.941   2.266 -0.1815  0.7157 -0.1285
  144OSM   H14A15696   2.873   5.933   2.255  0.1303 -0.2572  2.8184
  144OSM   H14B15697   2.725   5.911   2.171 -1.3252 -0.3270  0.6705
  144OSM   H14C15698   2.737   5.876   2.347 -1.5546 -0.3536 -1.4089
  144OSM    C1315699   2.600   6.070   2.372  0.7417  0.7318  0.2561
  144OSM   H13A15700   2.558   6.161   2.410 -1.4211  0.3994 -1.1806
  144OSM   H13B15701   2.609   6.004   2.457 -1.2931  1.3902  1.0178
  144OSM   H13C15702   2.525   6.030   2.304  0.7335  2.4868 -0.8197
  144OSM    C1215703   2.754   6.173   2.186  0.5639  0.0825 -0.2088
  144OSM   H12A15704   2.675   6.145   2.118  1.2712  0.2101 -1.0969
  144OSM   H12B15705   2.856   6.164   2.153  0.4594 -1.1774 -0.2217
  144OSM    C1115706   2.732   6.323   2.195 -0.2461  0.2594 -0.2868
  144OSM   H11A15707   2.743   6.373   2.096  2.1358 -0.5614 -0.4832
  144OSM   H11B15708   2.802   6.381   2.258 -1.3088  1.7704 -0.4217
  144OSM      P15709   2.541   6.444   2.332 -0.2242 -0.2353 -0.2490
  144OSM    O1315710   2.529   6.573   2.258  0.0189 -0.0390 -0.2934
  144OSM    O1415711   2.417   6.389   2.393  0.3288 -0.3673 -0.2167
  144OSM    O1115712   2.644   6.466   2.452  0.5602  0.8153  0.2109
  144OSM    O1215713   2.596   6.346   2.230 -0.4023  0.4459 -0.2145
  144OSM    C1S15714   2.617   6.565   2.544 -0.4236  0.1061 -0.2953
  144OSM    H1S15715   2.564   6.530   2.635 -0.5223  0.4409 -0.2230
  144OSM    H1T15716   2.550   6.646   2.508  1.4346  1.2081 -1.4376
  144OSM     NF15717   2.705   6.726   2.714 -0.1847 -0.4321  0.0214
  144OSM    HNF15718   2.702   6.824   2.699 -0.1289  0.0015  2.4023
  144OSM    C2S15719   2.739   6.641   2.600 -0.9069  0.2686  0.5300
  144OSM    H2S15720   2.820   6.569   2.627  0.6515  2.3447  1.7129
  144OSM    C3S15721   2.798   6.732   2.486 -0.7677 -0.3205  0.1952
  144OSM    H3S15722   2.725   6.814   2.466  0.4295  0.7764  0.1701
  144OSM     O315723   2.824   6.664   2.365 -0.3252 -0.1791  0.3890
  144OSM    HO315724   2.767   6.586   2.370  0.2988 -0.7448 -0.8485
  144OSM    C4S15725   2.931   6.806   2.530 -0.8321  0.3010  0.6834
  144OSM    H4S15726   2.922   6.909   2.567  2.2185  0.7822  0.3111
  144OSM    C5S15727   3.058   6.765   2.512  0.0671  0.1738 -0.4892
  144OSM    H5S15728   3.093   6.684   2.446 -1.9497  0.2147 -1.6912
  144OSM    C6S15729   3.171   6.855   2.554 -0.2355 -0.2317 -0.1537
  144OSM    H6S15730   3.141   6.960   2.535  3.1422  0.9417  0.2323
  144OSM    H6T15731   3.257   6.840   2.485  2.4179  1.1996  2.5910
  144OSM    C7S15732   3.231   6.827   2.699  0.8764  0.3737  0.2749
  144OSM    H7S15733   3.312   6.901   2.716 -1.0446  2.5583  0.3132
  144OSM    H7T15734   3.270   6.724   2.714  0.3564  0.3367  1.4289
  144OSM    C8S15735   3.121   6.856   2.805 -0.2273 -0.5040 -0.2275
  144OSM    H8S15736   3.050   6.771   2.803  0.3809 -1.1047  1.4047
  144OSM    H8T15737   3.066   6.950   2.782  1.6454  0.3496 -1.3861
  144OSM    C9S15738   3.168   6.851   2.953  0.0241  0.3961  0.3070
  144OSM    H9S15739   3.218   6.947   2.978 -1.8991  2.2764 -2.5313
  144OSM    H9T15740   3.242   6.769   2.961  0.5111  0.7739 -0.2297
  144OSM   C10S15741   3.052   6.821   3.051  0.1842  0.3362  0.2044
  144OSM   H10S15742   3.033   6.715   3.023  5.6281 -1.2151  1.1057
  144OSM   H10T15743   2.972   6.895   3.034  1.4476  2.0014  1.2085
  144OSM   C11S15744   3.095   6.811   3.197  0.1831 -0.1895  0.2996
  144OSM   H11S15745   3.145   6.907   3.225  1.2504 -0.2411 -1.3126
  144OSM   H11T15746   3.168   6.731   3.222 -0.7305 -0.5550  2.0010
  144OSM   C12S15747   2.980   6.791   3.294  0.2886  0.4975 -0.9183
  144OSM   H12S15748   3.024   6.788   3.396  2.4441 -1.2601 -1.8010
  144OSM   H12T15749   2.931   6.692   3.293 -1.7905  1.4618 -1.0022
  144OSM   C13S15750   2.864   6.891   3.287 -0.4962  0.8258  0.0869
  144OSM   H13S15751   2.805   6.852   3.201 -0.0466 -0.2673  0.2518
  144OSM   H13T15752   2.910   6.990   3.272 -0.8305  0.7326 -1.8339
  144OSM   C14S15753   2.765   6.865   3.402 -0.0935 -0.0121  0.1785
  144OSM   H14S15754   2.725   6.761   3.399 -2.0429  0.5549  2.5819
  144OSM   H14T15755   2.680   6.935   3.390 -1.3065 -1.6856 -1.4350
  144OSM   C15S15756   2.834   6.876   3.545  0.3248  0.0525 -0.1638
  144OSM   H15S15757   2.891   6.971   3.557  1.2353 -0.4271 -0.5640
  144OSM   H15T15758   2.904   6.791   3.561 -1.5547 -1.5402 -0.1711
  144OSM   C16S15759   2.744   6.857   3.667 -0.0775 -0.1627 -0.0645
  144OSM   H16S15760   2.814   6.824   3.747  1.7265  2.6364 -0.3287
  144OSM   H16T15761   2.664   6.785   3.639  0.1162 -0.3306 -0.1917
  144OSM   C17S15762   2.682   6.990   3.715  0.0674 -0.0019  0.0724
  144OSM   H17S15763   2.750   7.045   3.784  0.1154 -0.4305  0.3750
  144OSM   H17T15764   2.599   6.961   3.784 -2.3020  1.1739 -2.1061
  144OSM   C18S15765   2.632   7.089   3.618 -0.3107  0.3355  0.4158
  144OSM   H18S15766   2.568   7.174   3.652 -0.5398  0.6781 -0.8285
  144OSM   H18T15767   2.562   7.037   3.549  1.5636 -0.7678 -0.7245
  144OSM   H18U15768   2.707   7.131   3.549 -1.0130  0.1476 -0.4817
  144OSM    C1F15769   2.694   6.675   2.836  0.0534 -0.0492 -0.9233
  144OSM     OF15770   2.725   6.557   2.853  0.3728  0.3480  0.3961
  144OSM    C2F15771   2.659   6.762   2.956  0.1904  0.0900 -1.3270
  144OSM    H2F15772   2.612   6.858   2.925  1.0539  0.9872  0.0506
  144OSM    H2G15773   2.750   6.793   3.011  1.6216 -1.6925 -2.5528
  144OSM    C3F15774   2.566   6.675   3.051 -0.0434  0.0411 -0.0367
  144OSM    H3F15775   2.627   6.601   3.106 -1.2154 -0.9317 -0.0033
  144OSM    H3G15776   2.491   6.615   2.995  0.5140 -4.1592  3.2076
  144OSM    C4F15777   2.489   6.753   3.160  0.0601  0.5070  0.0935
  144OSM    H4F15778   2.422   6.829   3.115 -0.0909  0.5127  0.3261
  144OSM    H4G15779   2.555   6.827   3.211 -1.4730  2.2003 -0.3092
  144OSM    C5F15780   2.426   6.664   3.262  0.2477  0.5698  1.2801
  144OSM    H5F15781   2.504   6.589   3.288 -1.0532 -1.6284 -0.7852
  144OSM    H5G15782   2.334   6.624   3.216  0.2716  2.0852 -0.1843
  144OSM    C6F15783   2.378   6.736   3.394 -0.4399 -0.3156  0.5967
  144OSM    H6F15784   2.304   6.818   3.383  1.2387  0.8704 -4.4783
  144OSM    H6G15785   2.464   6.785   3.444 -0.6993  0.0212  0.7183
  144OSM    C7F15786   2.326   6.638   3.501 -0.9019  0.6475  0.1749
  144OSM    H7F15787   2.409   6.579   3.547 -1.1041 -0.7750 -1.1788
  144OSM    H7G15788   2.252   6.569   3.455  1.0798  0.0957 -2.4801
  144OSM    C8F15789   2.256   6.710   3.616  0.5432 -0.1943  0.2504
  144OSM    H8F15790   2.181   6.641   3.660 -0.5386 -0.8375 -2.4519
  144OSM    H8G15791   2.201   6.791   3.563  0.0620  0.2383  1.3740
  144OSM    C9F15792   2.358   6.768   3.710  0.5208  0.4799  0.1431
  144OSM    H9F15793   2.424   6.844   3.666  1.4708 -0.3528  0.1073
  144OSM   C10F15794   2.394   6.717   3.829 -0.6914  0.9229 -0.9325
  144OSM   H10F15795   2.483   6.753   3.883 -0.4449 -0.5236 -0.3605
  144OSM   C11F15796   2.329   6.595   3.897  0.3814  0.2231  0.0649
  144OSM   H11F15797   2.397   6.508   3.912  0.1731 -0.1615 -1.0809
  144OSM   H11G15798   2.240   6.556   3.844 -1.0218 -0.0986  2.5327
  144OSM   C12F15799   2.259   6.622   4.037  0.0829  0.2757 -0.3277
  144OSM   H12F15800   2.167   6.559   4.034  0.3163 -0.2126  1.5978
  144OSM   H12G15801   2.228   6.728   4.040  0.9411  0.5156  1.5105
  144OSM   C13F15802   2.354   6.587   4.151  0.6794  0.0856 -0.6914
  144OSM   H13F15803   2.444   6.649   4.133  0.8298 -0.4045 -1.7512
  144OSM   H13G15804   2.385   6.480   4.147  1.4360  0.1159  2.2409
  144OSM   C14F15805   2.292   6.614   4.291 -1.1067  0.1653  0.3367
  144OSM   H14F15806   2.252   6.718   4.286 -2.5049 -0.3643 -0.0217
  144OSM   H14G15807   2.368   6.592   4.369 -0.7235  2.3990  0.6778
  144OSM   C15F15808   2.179   6.528   4.342  0.6126 -0.2551  0.2587
  144OSM   H15F15809   2.218   6.431   4.382 -1.7900 -0.8898  1.2590
  144OSM   H15G15810   2.111   6.503   4.258  0.8368  0.9479 -0.3009
  144OSM   C16F15811   2.087   6.605   4.442  0.0735 -0.0448 -0.0838
  144OSM   H16F15812   2.049   6.691   4.383 -0.0419  0.2758  0.4493
  144OSM   H16G15813   2.167   6.644   4.508  0.2580 -0.3541 -0.1248
  144OSM   C17F15814   1.959   6.552   4.504  0.2815  0.1654  0.2584
  144OSM   H17F15815   1.869   6.571   4.441  0.1755  1.6696  0.8025
  144OSM   H17G15816   1.936   6.617   4.592 -0.8440  2.4533 -1.6217
  144OSM   C18F15817   1.974   6.409   4.545  0.0872 -0.1241  0.0681
  144OSM   H18F15818   1.967   6.347   4.452  2.3158  0.0263 -0.2545
  144OSM   H18G15819   1.881   6.381   4.598 -1.4725  1.6889 -1.5877
  144OSM   H18H15820   2.061   6.384   4.610  0.3144  1.9553  0.6160
  145SAPE     N15821   5.334   6.068   6.295  0.5404 -0.1240 -0.0469
  145SAPE   HN115822   5.365   5.998   6.225  1.6583  1.3125 -1.0556
  145SAPE   HN215823   5.230   6.074   6.302  0.4484 -1.9209  0.6497
  145SAPE   HN315824   5.360   6.159   6.252  0.4973 -0.5396 -0.9784
  145SAPE   C1215825   5.403   6.056   6.426  0.5179 -0.2773 -0.2952
  145SAPE  H12A15826   5.509   6.027   6.410  0.4786  0.5049 -2.2923
  145SAPE  H12B15827   5.357   5.970   6.479  0.9923  0.3365  1.1525
  145SAPE   C1115828   5.397   6.191   6.503  0.3572 -0.1512 -0.6820
  145SAPE  H11A15829   5.427   6.168   6.607  0.3642  0.5564 -0.5271
  145SAPE  H11B15830   5.290   6.220   6.498  0.3172 -0.3417 -0.9829
  145SAPE     P15831   5.505   6.417   6.524 -0.4530 -0.0880 -0.4047
  145SAPE   O1315832   5.376   6.491   6.512  0.0950 -0.0173 -0.2717
  145SAPE   O1415833   5.551   6.388   6.662 -0.2682  0.9550 -0.2057
  145SAPE   O1215834   5.480   6.289   6.448 -0.3060 -0.5563  0.2869
  145SAPE   O1115835   5.621   6.485   6.445  0.1332 -0.0561 -0.4215
  145SAPE    C115836   5.732   6.405   6.388  0.1635  0.0114 -0.3308
  145SAPE    HA15837   5.826   6.464   6.382 -0.9165  1.9750  0.7405
  145SAPE    HB15838   5.750   6.318   6.454 -0.8124  1.0267  1.3630
  145SAPE    C215839   5.689   6.349   6.248  0.2206  0.0508 -0.2901
  145SAPE    HS15840   5.584   6.313   6.245 -0.8316  2.8044  0.3704
  145SAPE   O2115841   5.790   6.253   6.222  0.0412  0.2821 -0.3048
  145SAPE   C2115842   5.750   6.152   6.149 -0.4040 -0.7029  0.3159
  145SAPE   O2215843   5.636   6.132   6.121  0.2802 -0.0887 -0.1685
  145SAPE   C2215844   5.873   6.071   6.100  0.0976  0.2740  0.1244
  145SAPE   H2R15845   5.966   6.132   6.098  0.7936 -0.5684  2.6947
  145SAPE   H2S15846   5.906   6.010   6.187  1.1682  2.0489  1.0271
  145SAPE    C315847   5.693   6.476   6.149  0.5630  0.8494 -0.3396
  145SAPE    HX15848   5.780   6.533   6.188  0.9259 -0.1685  0.3800
  145SAPE    HY15849   5.602   6.537   6.168 -1.5838 -1.5670 -2.1077
  145SAPE   O3115850   5.711   6.440   6.011 -0.3378  0.9177 -0.1927
  145SAPE   C3115851   5.596   6.427   5.948  0.6990  0.2305  0.2088
  145SAPE   O3215852   5.487   6.439   6.002 -0.5064 -0.4694  0.3664
  145SAPE   C3215853   5.609   6.392   5.800 -0.0995 -0.7566  0.3674
  145SAPE   H2X15854   5.603   6.281   5.794  1.7375 -0.8245 -0.9861
  145SAPE   H2Y15855   5.710   6.422   5.765  0.0022 -1.0612  0.3995
  145SAPE   C2315856   5.848   5.998   5.966 -0.3846  0.9079  0.3207
  145SAPE   H3R15857   5.749   5.947   5.962 -0.4555  0.9810  1.0341
  145SAPE   H3S15858   5.926   5.919   5.953 -1.1322  0.0464  0.9451
  145SAPE   C2415859   5.868   6.097   5.846 -0.0914  0.1686  0.0773
  145SAPE   H4R15860   5.810   6.187   5.876  2.3958  2.3158 -1.1581
  145SAPE   H4S15861   5.821   6.060   5.753 -0.3638 -1.4197  0.8062
  145SAPE   C2515862   6.007   6.140   5.821 -0.1798  0.3312 -0.3041
  145SAPE   H5R15863   6.056   6.169   5.915 -0.9358 -1.8001  0.8122
  145SAPE   C2615864   6.070   6.146   5.704  0.2173 -0.2695  0.2767
  145SAPE   H6R15865   6.167   6.199   5.707 -0.1157  0.3435  0.4366
  145SAPE   C2715866   6.020   6.091   5.570  0.6278  0.0956 -0.4613
  145SAPE   H7R15867   5.913   6.115   5.549  0.5246 -1.2689 -1.6560
  145SAPE   H7S15868   6.016   5.980   5.563 -1.2560  0.1901 -1.6526
  145SAPE   C2815869   6.095   6.153   5.450 -0.0711 -0.1123  0.2164
  145SAPE   H8R15870   6.109   6.262   5.446  0.8471 -0.1715  1.3939
  145SAPE   C2915871   6.158   6.093   5.349 -0.1386 -0.4809 -0.2007
  145SAPE   H9R15872   6.227   6.146   5.283  2.7902 -2.6770  0.8619
  145SAPE  C21015873   6.174   5.946   5.319  0.3522  0.2643  0.3589
  145SAPE  H10R15874   6.152   5.885   5.409 -0.4889 -0.2187 -0.1598
  145SAPE  H10S15875   6.281   5.929   5.293  0.3493  0.6508  0.0745
  145SAPE  C21115876   6.069   5.892   5.215  0.8390 -0.2027  0.1231
  145SAPE  H11R15877   5.974   5.948   5.207  1.1511 -0.0111 -5.2218
  145SAPE  C21215878   6.083   5.775   5.143 -0.6693 -0.2529 -0.3970
  145SAPE  H12R15879   6.007   5.759   5.065 -1.7206 -1.3532  0.8153
  145SAPE  C21315880   6.202   5.686   5.136 -0.3653 -1.0057  0.1493
  145SAPE  H13R15881   6.171   5.606   5.065  1.0591  1.0771 -3.0450
  145SAPE  H13S15882   6.211   5.662   5.244  1.9833  1.1710  0.5069
  145SAPE  C21415883   6.324   5.757   5.075  0.7223 -0.0923 -0.3063
  145SAPE  H14R15884   6.334   5.866   5.087  1.3770  0.3101 -3.4411
  145SAPE  C21515885   6.409   5.694   4.999 -0.0524  0.3363  0.3187
  145SAPE  H15R15886   6.477   5.752   4.934  0.1457 -0.5856 -0.3114
  145SAPE  C21615887   6.417   5.551   4.966  0.4261 -0.1294  0.2111
  145SAPE  H16R15888   6.341   5.498   5.027  1.0996 -2.1856 -0.6333
  145SAPE  H16S15889   6.515   5.500   4.976  1.3200  1.5101  0.0693
  145SAPE  C21715890   6.383   5.530   4.820 -0.3919 -0.2597 -0.3349
  145SAPE  H17R15891   6.476   5.554   4.764 -0.2482  0.6311  0.2706
  145SAPE  H17S15892   6.302   5.600   4.789  0.5069 -0.0083 -2.3395
  145SAPE  C21815893   6.348   5.385   4.786 -0.1916  0.1622 -0.4595
  145SAPE  H18R15894   6.433   5.321   4.817  0.3708  0.1715 -1.9141
  145SAPE  H18S15895   6.342   5.375   4.675 -0.6686 -0.6896 -0.3659
  145SAPE  C21915896   6.213   5.346   4.847 -0.4817  0.3666  0.8776
  145SAPE  H19R15897   6.130   5.417   4.827 -0.3541  0.3366  0.2176
  145SAPE  H19S15898   6.214   5.338   4.957  2.3913 -2.1199  0.8137
  145SAPE  C22015899   6.180   5.206   4.806 -0.2123  0.1102  0.2463
  145SAPE  H20R15900   6.110   5.202   4.720 -1.1368  1.2784  0.9245
  145SAPE  H20S15901   6.119   5.165   4.889  0.1619 -1.8456 -0.4003
  145SAPE  H20T15902   6.262   5.134   4.783 -1.8793 -1.7502 -0.1386
  145SAPE   C3315903   5.496   6.453   5.714 -0.6401 -0.4790 -0.1698
  145SAPE   H3X15904   5.523   6.558   5.687 -0.2404 -0.7091 -0.6874
  145SAPE   H3Y15905   5.402   6.472   5.769  0.4953  0.3673  1.5899
  145SAPE   C3415906   5.475   6.365   5.589  0.5609  0.0925  0.3234
  145SAPE   H4X15907   5.443   6.269   5.633  0.4969 -0.0257  0.0250
  145SAPE   H4Y15908   5.569   6.340   5.536  1.6391  1.5773  1.4590
  145SAPE   C3515909   5.378   6.421   5.491 -0.3614 -0.0987 -0.2421
  145SAPE   H5X15910   5.430   6.515   5.462  1.8400 -0.8632  0.9644
  145SAPE   H5Y15911   5.279   6.455   5.528 -0.4816  0.9468 -1.4562
  145SAPE   C3615912   5.357   6.332   5.367 -0.7970 -0.5749 -0.1830
  145SAPE   H6X15913   5.334   6.230   5.404  0.5871 -1.2169 -0.9957
  145SAPE   H6Y15914   5.459   6.340   5.323 -0.4385  0.5264  0.7945
  145SAPE   C3715915   5.258   6.386   5.268  0.0043 -0.0226  0.9363
  145SAPE   H7X15916   5.269   6.496   5.258 -0.7877  0.0211  0.4859
  145SAPE   H7Y15917   5.157   6.365   5.309 -1.0920 -1.9129 -2.4128
  145SAPE   C3815918   5.272   6.326   5.127  0.0205  0.4740 -0.1021
  145SAPE   H8X15919   5.198   6.378   5.062 -1.4111  0.5704  1.5622
  145SAPE   H8Y15920   5.258   6.218   5.107  0.3771  0.1865  1.1235
  145SAPE   C3915921   5.408   6.363   5.068  0.4140  0.3632  0.0172
  145SAPE   H9X15922   5.486   6.317   5.132 -0.3943 -0.8753  0.1490
  145SAPE   H9Y15923   5.427   6.472   5.064  1.5754  0.1441 -1.9073
  145SAPE  C31015924   5.425   6.316   4.928  0.1949  0.2010  0.6840
  145SAPE  H10X15925   5.361   6.373   4.856 -0.1347 -0.1755  0.6757
  145SAPE  H10Y15926   5.390   6.211   4.918  1.9153 -0.3023 -0.6335
  145SAPE  C31115927   5.563   6.310   4.868 -0.6182  0.3857 -0.0331
  145SAPE  H11X15928   5.627   6.238   4.924 -0.3454 -0.7010 -1.6762
  145SAPE  H11Y15929   5.612   6.408   4.886  1.4543 -0.7982  1.1126
  145SAPE  C31215930   5.563   6.282   4.715  0.9117 -0.9455 -0.0334
  145SAPE  H12X15931   5.497   6.354   4.661  1.7871  0.6522  0.9314
  145SAPE  H12Y15932   5.522   6.180   4.697  0.9297 -1.0713  0.6403
  145SAPE  C31315933   5.702   6.285   4.636  0.6127  0.5751 -0.4875
  145SAPE  H13X15934   5.775   6.215   4.683  1.1651  0.8925 -0.8682
  145SAPE  H13Y15935   5.743   6.387   4.651 -0.2359  0.6627  1.5931
  145SAPE  C31415936   5.696   6.249   4.486  0.4921 -1.1085 -0.0164
  145SAPE  H14X15937   5.663   6.143   4.477 -0.5234 -0.7687 -0.4967
  145SAPE  H14Y15938   5.797   6.260   4.442 -0.1961 -0.9029 -1.6118
  145SAPE  C31515939   5.599   6.327   4.401  0.7669 -0.0443 -1.3522
  145SAPE  H15X15940   5.490   6.317   4.420  0.7180  0.7607 -1.1486
  145SAPE  H15Y15941   5.610   6.290   4.297  1.7367 -1.0512 -0.9171
  145SAPE  C31615942   5.623   6.480   4.384 -0.1199  0.1271 -0.0180
  145SAPE  H16X15943   5.726   6.493   4.345 -0.3749  1.6999 -0.2160
  145SAPE  H16Y15944   5.601   6.532   4.480  1.0878  0.9065 -0.1476
  145SAPE  C31715945   5.521   6.523   4.267  0.0659  0.7118  0.0006
  145SAPE  H17X15946   5.421   6.494   4.306  0.1986  0.9698  0.5541
  145SAPE  H17Y15947   5.525   6.467   4.172  0.1089 -0.6329  0.7780
  145SAPE  C31815948   5.523   6.675   4.251  0.3359 -0.0730 -0.5094
  145SAPE  H18X15949   5.509   6.716   4.353 -0.3427 -0.3136 -0.4990
  145SAPE  H18Y15950   5.449   6.714   4.178  0.0549  2.3653  0.9822
  145SAPE  H18Z15951   5.623   6.704   4.212 -0.3572  2.3261 -0.6275
  146SAPE     N15952   2.206   1.743   6.162  0.6241  0.1638 -0.0928
  146SAPE   HN115953   2.217   1.791   6.253 -2.0798  2.2028 -0.7332
  146SAPE   HN215954   2.234   1.808   6.086  2.1491  2.7368  2.4886
  146SAPE   HN315955   2.103   1.731   6.153  0.3662  1.3950  0.9839
  146SAPE   C1215956   2.277   1.609   6.149 -0.6487 -0.0917  0.9583
  146SAPE  H12A15957   2.382   1.624   6.118 -0.2890  0.8116  2.4743
  146SAPE  H12B15958   2.214   1.554   6.076 -0.2383  1.4253 -0.5853
  146SAPE   C1115959   2.282   1.529   6.282  0.3467 -0.8950 -0.3360
  146SAPE  H11A15960   2.335   1.598   6.351 -0.7906  3.0380 -3.0623
  146SAPE  H11B15961   2.349   1.442   6.265 -0.4230 -1.2123 -1.9894
  146SAPE     P15962   2.146   1.391   6.445  0.4262 -0.2712  0.2303
  146SAPE   O1315963   2.252   1.423   6.544  0.1672 -0.5497 -0.5123
  146SAPE   O1415964   2.010   1.400   6.500  0.1531  0.4414  0.0566
  146SAPE   O1215965   2.153   1.492   6.328  0.5817 -0.3661 -0.2049
  146SAPE   O1115966   2.173   1.249   6.371 -0.0059  0.1009  0.3298
  146SAPE    C115967   2.116   1.231   6.241 -0.2861  0.5953 -0.5913
  146SAPE    HA15968   2.066   1.321   6.198 -0.0588 -0.1974 -2.6147
  146SAPE    HB15969   2.190   1.195   6.166 -0.3265 -0.2953 -0.2166
  146SAPE    C215970   2.001   1.121   6.261 -0.2320 -0.2094 -0.8097
  146SAPE    HS15971   1.980   1.118   6.370 -0.0510 -0.2198 -0.7754
  146SAPE   O2115972   2.063   0.997   6.220 -0.2229  0.1143  0.0864
  146SAPE   C2115973   2.027   0.883   6.271  1.1944 -0.7567  0.6005
  146SAPE   O2215974   1.978   0.870   6.382 -0.0585 -0.1097 -0.2034
  146SAPE   C2215975   2.069   0.763   6.188  0.3907 -0.6443  0.5304
  146SAPE   H2R15976   2.016   0.766   6.091 -0.4139  2.2635  0.9535
  146SAPE   H2S15977   2.175   0.785   6.161  0.3295  0.2570  0.9874
  146SAPE    C315978   1.876   1.156   6.174  0.0429  0.5554  0.7606
  146SAPE    HX15979   1.828   1.248   6.213 -2.4653  0.3303 -1.4757
  146SAPE    HY15980   1.812   1.069   6.199  2.9893 -1.5624  1.5537
  146SAPE   O3115981   1.904   1.169   6.033 -0.5506 -0.3725  0.0207
  146SAPE   C3115982   1.901   1.057   5.955 -0.9611  0.0393 -0.5354
  146SAPE   O3215983   1.859   0.950   5.988  0.4346 -0.2566  0.5135
  146SAPE   C3215984   1.979   1.082   5.824 -0.4423  0.0567  0.2038
  146SAPE   H2X15985   2.079   1.121   5.854  0.4626 -1.1827 -1.0728
  146SAPE   H2Y15986   1.929   1.160   5.763  1.3402 -0.8957 -2.6786
  146SAPE   C2315987   2.050   0.631   6.266 -0.3313 -0.0274 -0.4282
  146SAPE   H3R15988   1.942   0.627   6.293 -0.2105 -1.8176 -0.0912
  146SAPE   H3S15989   2.112   0.634   6.357 -0.7139 -0.8482 -0.1379
  146SAPE   C2415990   2.089   0.508   6.182 -0.2054 -0.6754  0.2087
  146SAPE   H4R15991   2.193   0.517   6.143 -0.1096 -1.8852  0.1409
  146SAPE   H4S15992   2.024   0.505   6.092  0.0439 -1.0312  0.0388
  146SAPE   C2515993   2.066   0.386   6.265 -0.4094  0.3211 -0.3948
  146SAPE   H5R15994   2.003   0.406   6.353 -0.1661  3.4493 -0.8107
  146SAPE   C2615995   2.096   0.258   6.234 -0.4063 -0.1015  0.2875
  146SAPE   H6R15996   2.073   0.179   6.307  0.0110 -0.9809 -0.5018
  146SAPE   C2715997   2.161   0.219   6.107 -0.1027  0.3649 -0.0843
  146SAPE   H7R15998   2.215   0.122   6.118  2.8107  1.8271 -0.5314
  146SAPE   H7S15999   2.248   0.283   6.078 -0.3652  0.1259 -1.4505
  146SAPE   C2816000   2.068   0.190   5.991  0.4536 -0.3986 -0.2685
  146SAPE   H8R16001   1.961   0.176   6.008  0.3181 -1.8877 -2.0190
  146SAPE   C2916002   2.097   0.210   5.861 -0.0570  0.2217  0.7767
  146SAPE   H9R16003   2.017   0.181   5.792 -0.2586 -0.6539  1.3723
  146SAPE  C21016004   2.229   0.235   5.795  0.5234  0.2783  0.0708
  146SAPE  H10R16005   2.310   0.181   5.849  0.4913 -0.4738 -0.6075
  146SAPE  H10S16006   2.265   0.340   5.797 -0.6865  0.7081 -0.2773
  146SAPE  C21116007   2.228   0.198   5.649  0.1968 -0.0495 -1.0916
  146SAPE  H11R16008   2.135   0.174   5.596 -1.0439 -0.8495  1.3179
  146SAPE  C21216009   2.344   0.190   5.579  0.7772 -0.0256 -0.3820
  146SAPE  H12R16010   2.339   0.145   5.479 -0.8364 -1.5969  0.3480
  146SAPE  C21316011   2.483   0.222   5.640  0.5778  0.6795 -0.3111
  146SAPE  H13R16012   2.465   0.294   5.722  0.4068  0.6740 -0.3426
  146SAPE  H13S16013   2.540   0.284   5.567 -1.5405  0.0107 -2.7172
  146SAPE  C21416014   2.556   0.106   5.707  0.1819  0.3257  0.5401
  146SAPE  H14R16015   2.523   0.071   5.806 -1.9618 -3.8851 -1.3858
  146SAPE  C21516016   2.654   0.031   5.648 -0.0911  0.3181  0.1654
  146SAPE  H15R16017   2.708  -0.049   5.700  0.6894  1.5309  1.2647
  146SAPE  C21616018   2.695   0.048   5.507  0.2092 -0.2323 -0.2839
  146SAPE  H16R16019   2.804   0.031   5.495  0.8956  3.3465 -0.3280
  146SAPE  H16S16020   2.688   0.152   5.468  2.6354  0.4122  0.8247
  146SAPE  C21716021   2.623  -0.045   5.413  0.4293 -1.1568 -0.7144
  146SAPE  H17R16022   2.513  -0.032   5.423  0.7929  2.9858 -0.7442
  146SAPE  H17S16023   2.648  -0.151   5.439 -1.3090 -0.9082  2.5872
  146SAPE  C21816024   2.672  -0.015   5.274  0.1872  0.1072 -0.7329
  146SAPE  H18R16025   2.781  -0.035   5.274  0.6793  2.3999  0.6373
  146SAPE  H18S16026   2.665   0.092   5.244  1.3505  0.3234 -0.2910
  146SAPE  C21916027   2.602  -0.106   5.175  0.8322 -0.1180  0.1757
  146SAPE  H19R16028   2.628  -0.209   5.208  2.4698 -0.2725 -1.4009
  146SAPE  H19S16029   2.649  -0.116   5.075  0.5576 -2.8090  0.2462
  146SAPE  C22016030   2.448  -0.088   5.165  0.2019 -0.3739 -0.3221
  146SAPE  H20R16031   2.394  -0.179   5.131  2.5405 -2.5183  1.3114
  146SAPE  H20S16032   2.417   0.002   5.107  0.8207  0.6628  0.8884
  146SAPE  H20T16033   2.399  -0.072   5.264 -1.3422 -0.5755 -1.0310
  146SAPE   C3316034   2.026   0.957   5.738  0.1932 -0.0063  0.4916
  146SAPE   H3X16035   2.074   0.879   5.801  0.1449 -1.0171 -0.6954
  146SAPE   H3Y16036   2.092   1.001   5.661 -0.5941 -0.8635 -0.7118
  146SAPE   C3416037   1.914   0.885   5.664  0.0648 -0.5277 -0.5056
  146SAPE   H4X16038   1.856   0.966   5.614  1.2774  0.0632 -1.0069
  146SAPE   H4Y16039   1.844   0.840   5.737 -1.1489  0.0865 -1.2580
  146SAPE   C3516040   1.946   0.772   5.571  0.7642  0.0613 -0.4154
  146SAPE   H5X16041   1.843   0.752   5.536 -0.6474  3.4485  1.3584
  146SAPE   H5Y16042   1.980   0.690   5.638 -1.7122  0.7189  1.7836
  146SAPE   C3616043   2.026   0.807   5.450 -0.0606  0.6170  0.6354
  146SAPE   H6X16044   2.045   0.715   5.391  1.4402  2.0256 -1.2349
  146SAPE   H6Y16045   2.129   0.844   5.467 -0.4453  1.2380  1.6744
  146SAPE   C3716046   1.947   0.897   5.352  0.3142 -0.6525  0.4921
  146SAPE   H7X16047   1.909   0.986   5.407  0.1879  0.2036 -0.9197
  146SAPE   H7Y16048   1.861   0.846   5.304  1.3099 -0.0043 -2.2196
  146SAPE   C3816049   2.019   0.954   5.225  0.2571  0.5152 -0.2239
  146SAPE   H8X16050   1.942   1.007   5.165 -0.6772  0.3291  0.7831
  146SAPE   H8Y16051   2.061   0.869   5.167 -2.8721 -1.9941  0.8882
  146SAPE   C3916052   2.125   1.059   5.273  0.7753  0.4839 -0.0319
  146SAPE   H9X16053   2.214   1.003   5.309  0.4291  1.2534  2.1718
  146SAPE   H9Y16054   2.079   1.119   5.355 -1.6445  1.0728 -1.7188
  146SAPE  C31016055   2.151   1.162   5.153 -0.1793 -0.5541  0.2946
  146SAPE  H10X16056   2.212   1.251   5.180  1.3508 -1.7252  0.8855
  146SAPE  H10Y16057   2.058   1.200   5.107 -0.4644 -2.1960 -0.5598
  146SAPE  C31116058   2.229   1.097   5.031 -0.5455 -0.2308  0.0683
  146SAPE  H11X16059   2.194   0.995   5.005  1.1037 -0.9192  0.3701
  146SAPE  H11Y16060   2.336   1.087   5.059 -0.1160  0.0293 -1.3629
  146SAPE  C31216061   2.232   1.189   4.912  0.4123 -0.5578  0.2107
  146SAPE  H12X16062   2.319   1.164   4.849  1.2001  0.3456  0.9084
  146SAPE  H12Y16063   2.266   1.289   4.947  1.1937 -1.4448  2.1548
  146SAPE  C31316064   2.109   1.184   4.818 -0.2704  0.1578 -0.3234
  146SAPE  H13X16065   2.132   1.256   4.737 -1.5040 -0.1424 -0.9675
  146SAPE  H13Y16066   2.020   1.210   4.880 -0.9645 -1.0841 -0.7601
  146SAPE  C31416067   2.089   1.046   4.749 -0.2634 -0.3682  0.2112
  146SAPE  H14X16068   2.075   0.958   4.816 -1.0772 -1.0978 -0.8718
  146SAPE  H14Y16069   2.184   1.029   4.695 -0.9201 -0.6928 -0.8796
  146SAPE  C31516070   1.977   1.045   4.651 -0.3597  0.1024 -0.0230
  146SAPE  H15X16071   1.990   1.124   4.574  0.6722 -0.1688 -0.1415
  146SAPE  H15Y16072   1.888   1.067   4.713  0.8026  0.2504  1.6384
  146SAPE  C31616073   1.960   0.923   4.566  0.2625  0.5225  0.0781
  146SAPE  H16X16074   1.927   0.848   4.640  1.4360  0.0572  0.1631
  146SAPE  H16Y16075   2.056   0.891   4.520  0.1578  0.3188  0.0014
  146SAPE  C31716076   1.853   0.954   4.460 -0.4297 -0.2444 -0.1895
  146SAPE  H17X16077   1.770   1.002   4.515 -0.1096  0.7161 -0.5095
  146SAPE  H17Y16078   1.809   0.861   4.420 -2.6465  1.5151 -2.1754
  146SAPE  C31816079   1.903   1.037   4.340 -0.7599 -0.8998  0.2323
  146SAPE  H18X16080   1.967   0.968   4.282  1.2349  0.1740  1.0430
  146SAPE  H18Y16081   1.953   1.129   4.377  1.8667 -1.8599 -0.7379
  146SAPE  H18Z16082   1.815   1.077   4.285 -1.0373 -0.5772  0.8925
  147SAPE     N16083   5.112   3.230   6.390 -0.2229 -1.0151  0.0754
  147SAPE   HN116084   5.195   3.289   6.412 -0.1798 -0.6360 -1.0630
  147SAPE   HN216085   5.034   3.283   6.433 -0.3977 -1.3600  0.1925
  147SAPE   HN316086   5.113   3.140   6.443 -1.2007 -0.7773  0.5304
  147SAPE   C1216087   5.089   3.222   6.245 -0.6001  0.2510  0.2729
  147SAPE  H12A16088   5.010   3.145   6.231 -0.7975  0.4883  0.0810
  147SAPE  H12B16089   5.180   3.183   6.194  0.0953  2.7380 -0.5280
  147SAPE   C1116090   5.043   3.355   6.178 -0.3159  0.1982 -0.4253
  147SAPE  H11A16091   4.933   3.367   6.188 -0.0594  1.4070  1.3932
  147SAPE  H11B16092   5.065   3.354   6.069 -0.6122 -2.1907 -0.5115
  147SAPE     P16093   5.068   3.613   6.205 -0.3545 -0.1533 -0.4758
  147SAPE   O1316094   4.930   3.649   6.235  0.1309  0.0514  0.1713
  147SAPE   O1416095   5.165   3.711   6.256  0.0113 -0.1392 -0.2667
  147SAPE   O1216096   5.104   3.465   6.246  0.3630 -0.2715  0.6472
  147SAPE   O1116097   5.073   3.604   6.050  0.0481  0.2817  0.1647
  147SAPE    C116098   5.200   3.594   5.979 -0.2304  0.3615 -0.2369
  147SAPE    HA16099   5.268   3.519   6.026 -0.6067 -0.6511 -1.2601
  147SAPE    HB16100   5.189   3.548   5.879  0.0935 -0.6414  0.1739
  147SAPE    C216101   5.261   3.734   5.959 -0.6130 -0.6729 -0.2331
  147SAPE    HS16102   5.258   3.783   6.058 -1.4029  1.7629 -1.3665
  147SAPE   O2116103   5.175   3.801   5.864  0.0404 -0.1039 -0.3036
  147SAPE   C2116104   5.176   3.935   5.889 -0.1863 -0.6031  0.2185
  147SAPE   O2216105   5.204   3.984   5.998  0.0975 -0.2081  0.1381
  147SAPE   C2216106   5.145   4.011   5.761 -0.1118  0.5905 -0.1823
  147SAPE   H2R16107   5.238   4.038   5.706 -0.5394  0.6876 -0.8680
  147SAPE   H2S16108   5.103   3.944   5.684 -2.1554  1.9136 -0.3054
  147SAPE    C316109   5.403   3.730   5.914 -0.4871 -0.2906  0.3085
  147SAPE    HX16110   5.464   3.686   5.996 -0.7300 -1.1683  0.0349
  147SAPE    HY16111   5.435   3.835   5.902  0.0020 -0.3431  1.0686
  147SAPE   O3116112   5.426   3.658   5.789 -0.0325  0.2085  1.1594
  147SAPE   C3116113   5.413   3.736   5.681 -0.0665  0.2643 -0.6747
  147SAPE   O3216114   5.410   3.857   5.680 -0.1560 -0.7858 -0.1059
  147SAPE   C3216115   5.421   3.644   5.560  0.2464 -1.0714  0.3720
  147SAPE   H2X16116   5.424   3.541   5.602  2.1330 -1.1378  0.1808
  147SAPE   H2Y16117   5.518   3.666   5.510  0.8372 -1.6340  1.2364
  147SAPE   C2316118   5.046   4.130   5.784 -0.6574 -0.6182  0.0191
  147SAPE   H3R16119   5.094   4.178   5.872  0.2674 -2.5754  0.6273
  147SAPE   H3S16120   4.943   4.108   5.821 -0.7154  0.5229  0.5865
  147SAPE   C2416121   5.045   4.225   5.659 -0.0862  0.0944  0.6137
  147SAPE   H4R16122   5.009   4.160   5.577 -1.7480  1.8131 -0.0850
  147SAPE   H4S16123   5.151   4.257   5.650 -0.2985  2.0258  3.5317
  147SAPE   C2516124   4.946   4.337   5.684  0.3204  0.4513  0.3542
  147SAPE   H5R16125   4.912   4.360   5.786  0.4371 -0.2620  0.5595
  147SAPE   C2616126   4.903   4.414   5.587 -0.6319  0.0049  0.0254
  147SAPE   H6R16127   4.821   4.487   5.600 -1.0197 -0.1237 -1.4312
  147SAPE   C2716128   4.944   4.394   5.438  0.6776  0.2583  0.2735
  147SAPE   H7R16129   5.020   4.313   5.435  1.5711  1.0694  0.5350
  147SAPE   H7S16130   4.990   4.484   5.392 -0.8785  2.4815  2.7356
  147SAPE   C2816131   4.825   4.364   5.351 -0.0986 -0.4788 -0.4324
  147SAPE   H8R16132   4.724   4.368   5.393  0.0906 -2.4714  0.2920
  147SAPE   C2916133   4.830   4.337   5.222  0.3096  0.1181  0.3959
  147SAPE   H9R16134   4.731   4.329   5.175 -0.4060  1.0391  1.6922
  147SAPE  C21016135   4.958   4.333   5.141 -0.0180 -0.1393 -0.1197
  147SAPE  H10R16136   5.019   4.251   5.183 -1.8966 -0.2356  2.6306
  147SAPE  H10S16137   5.026   4.419   5.161  1.2642 -0.9667 -0.7391
  147SAPE  C21116138   4.926   4.317   4.996 -0.4301  0.6997  0.0196
  147SAPE  H11R16139   4.859   4.234   4.968 -0.3221  0.3729  0.7083
  147SAPE  C21216140   4.957   4.404   4.899  0.1386 -0.3359 -0.7412
  147SAPE  H12R16141   4.927   4.384   4.796  1.3891  0.4730 -1.2883
  147SAPE  C21316142   5.044   4.528   4.914  0.2403  0.2064 -0.2662
  147SAPE  H13R16143   5.033   4.585   5.009  1.5874  3.3023 -1.8333
  147SAPE  H13S16144   5.019   4.607   4.840  0.0915 -0.1462 -0.5973
  147SAPE  C21416145   5.181   4.478   4.905 -0.0355 -0.0758  0.3812
  147SAPE  H14R16146   5.205   4.378   4.943  1.4910  0.1510  0.0755
  147SAPE  C21516147   5.280   4.548   4.849  0.2209 -0.4126 -0.3783
  147SAPE  H15R16148   5.385   4.517   4.858  0.3110  0.4227  2.1817
  147SAPE  C21616149   5.268   4.690   4.784 -0.7312  0.3900  0.4079
  147SAPE  H16R16150   5.262   4.764   4.866 -1.3480 -2.0217  2.6838
  147SAPE  H16S16151   5.177   4.707   4.722  0.2126  0.2831 -1.0602
  147SAPE  C21716152   5.385   4.733   4.687 -0.0536 -0.4623 -0.2737
  147SAPE  H17R16153   5.343   4.817   4.628  1.0109 -0.2977 -0.8207
  147SAPE  H17S16154   5.412   4.647   4.621  1.2888 -0.6977  0.5354
  147SAPE  C21816155   5.518   4.778   4.766  0.4525 -0.0638  0.0257
  147SAPE  H18R16156   5.605   4.756   4.700  1.4684 -0.3063  1.4044
  147SAPE  H18S16157   5.530   4.707   4.850  2.0594 -1.1341 -1.0551
  147SAPE  C21916158   5.525   4.924   4.823  0.0068  0.8866  0.6770
  147SAPE  H19R16159   5.456   4.922   4.910  1.6287 -1.0031  1.9984
  147SAPE  H19S16160   5.486   4.999   4.750 -0.4644 -1.3605 -1.4956
  147SAPE  C22016161   5.671   4.948   4.866  0.9050  0.2710 -0.6017
  147SAPE  H20R16162   5.696   4.889   4.957  0.2504  0.7177 -0.1243
  147SAPE  H20S16163   5.668   5.055   4.897 -2.2657  0.2376 -0.4967
  147SAPE  H20T16164   5.754   4.929   4.795  1.2016 -0.1248 -0.1601
  147SAPE   C3316165   5.305   3.675   5.459 -0.3299 -0.0005 -0.1968
  147SAPE   H3X16166   5.315   3.777   5.417  0.7516 -0.7704 -1.9179
  147SAPE   H3Y16167   5.211   3.674   5.517  0.0807 -0.6137  0.4925
  147SAPE   C3416168   5.287   3.570   5.347 -0.2219  0.5944 -0.1043
  147SAPE   H4X16169   5.214   3.615   5.276  2.3951  3.4573 -1.2231
  147SAPE   H4Y16170   5.239   3.476   5.381 -5.0225  2.9220  0.3704
  147SAPE   C3516171   5.422   3.549   5.263  0.2758 -0.0672 -0.9137
  147SAPE   H5X16172   5.494   3.482   5.313  0.6497  0.9835 -0.0020
  147SAPE   H5Y16173   5.468   3.650   5.256 -0.5053  0.5913  2.0205
  147SAPE   C3616174   5.405   3.507   5.116  0.1050 -0.1644 -0.1747
  147SAPE   H6X16175   5.333   3.575   5.066 -0.7208  0.2064  1.4201
  147SAPE   H6Y16176   5.346   3.412   5.114  1.3473 -0.9505 -0.2815
  147SAPE   C3716177   5.543   3.492   5.052  0.3841 -0.6916  0.4038
  147SAPE   H7X16178   5.610   3.416   5.099 -1.0663 -2.1406  0.2116
  147SAPE   H7Y16179   5.593   3.591   5.063  0.1835 -0.5383 -0.0495
  147SAPE   C3816180   5.530   3.468   4.896 -0.3128  0.1899  0.0751
  147SAPE   H8X16181   5.489   3.556   4.842 -2.0774 -1.6480 -1.8247
  147SAPE   H8Y16182   5.450   3.392   4.875 -1.3340  1.7957 -2.3125
  147SAPE   C3916183   5.657   3.419   4.829  0.3595 -0.1889 -0.1615
  147SAPE   H9X16184   5.701   3.338   4.892 -1.0152 -0.2554  0.7604
  147SAPE   H9Y16185   5.728   3.504   4.824  0.6240 -0.3881  0.0976
  147SAPE  C31016186   5.636   3.374   4.683 -0.4600  0.7963 -0.0098
  147SAPE  H10X16187   5.589   3.459   4.629 -1.8560  1.3912  2.0074
  147SAPE  H10Y16188   5.564   3.290   4.681  0.5569 -0.0902 -0.6905
  147SAPE  C31116189   5.765   3.328   4.623  0.1824  0.4674  0.5953
  147SAPE  H11X16190   5.820   3.263   4.694 -0.4401 -0.9514 -0.1834
  147SAPE  H11Y16191   5.827   3.419   4.603  1.8089 -0.3287  1.7777
  147SAPE  C31216192   5.742   3.248   4.493 -0.9309 -0.8927 -0.4191
  147SAPE  H12X16193   5.661   3.302   4.439 -0.2283 -0.2539 -0.8543
  147SAPE  H12Y16194   5.701   3.149   4.521  0.2835 -1.5371 -0.8707
  147SAPE  C31316195   5.865   3.237   4.402  0.0460 -0.5350  0.5050
  147SAPE  H13X16196   5.910   3.136   4.415 -1.0567 -1.1761 -0.5024
  147SAPE  H13Y16197   5.939   3.313   4.434  0.4931 -0.5415 -0.4849
  147SAPE  C31416198   5.837   3.259   4.246 -0.7665 -0.2643 -0.3802
  147SAPE  H14X16199   5.747   3.201   4.215 -0.7456 -0.9849  0.8666
  147SAPE  H14Y16200   5.920   3.216   4.186  0.5681  1.6615 -0.0038
  147SAPE  C31516201   5.819   3.409   4.200 -0.6104 -0.6223  0.3598
  147SAPE  H15X16202   5.915   3.464   4.215 -1.5682  0.4548  3.3753
  147SAPE  H15Y16203   5.748   3.456   4.272  0.0900 -1.2074  1.4617
  147SAPE  C31616204   5.757   3.417   4.064  0.2563 -0.4209  0.2032
  147SAPE  H16X16205   5.651   3.386   4.076  0.0167  0.2834 -0.0897
  147SAPE  H16Y16206   5.803   3.334   4.005 -2.3139 -1.9561  0.1791
  147SAPE  C31716207   5.779   3.549   3.991  0.1579  0.4480  0.0697
  147SAPE  H17X16208   5.885   3.577   3.973  0.5724 -0.8226  0.4191
  147SAPE  H17Y16209   5.755   3.625   4.068 -0.4825  0.2726  0.0489
  147SAPE  C31816210   5.687   3.575   3.877 -0.2537 -0.3210  1.0106
  147SAPE  H18X16211   5.579   3.568   3.903 -0.7134 -1.2546 -0.9825
  147SAPE  H18Y16212   5.707   3.496   3.801 -1.7328  0.1593  0.0886
  147SAPE  H18Z16213   5.709   3.672   3.827  2.0703 -1.3369 -0.1088
  148SAPE     N16214   4.467   5.752   6.440  0.4769 -0.7962  0.2628
  148SAPE   HN116215   4.426   5.673   6.387 -1.7045  1.1853 -1.2308
  148SAPE   HN216216   4.391   5.818   6.466  0.8428 -1.1804  2.5803
  148SAPE   HN316217   4.540   5.803   6.385 -2.4869  0.5378 -2.7468
  148SAPE   C1216218   4.531   5.710   6.562 -0.4718 -0.3273 -0.8227
  148SAPE  H12A16219   4.471   5.647   6.631  0.9517 -0.6788  0.1253
  148SAPE  H12B16220   4.565   5.803   6.612 -0.2220 -1.3944  1.0698
  148SAPE   C1116221   4.662   5.639   6.524  0.0540  0.6750  0.4837
  148SAPE  H11A16222   4.727   5.620   6.612  1.7944  3.5541 -0.0595
  148SAPE  H11B16223   4.720   5.713   6.465  2.7566 -2.0338 -0.5168
  148SAPE     P16224   4.736   5.439   6.378 -0.3358 -0.1895  0.2843
  148SAPE   O1316225   4.871   5.493   6.403 -0.1674  0.0763 -0.2681
  148SAPE   O1416226   4.707   5.298   6.407  0.4808 -0.1558 -0.2497
  148SAPE   O1216227   4.628   5.521   6.445  0.0255  0.3413  0.0557
  148SAPE   O1116228   4.702   5.466   6.232  0.8181 -0.0984 -0.3526
  148SAPE    C116229   4.637   5.376   6.145 -0.7853  0.3581  0.1781
  148SAPE    HA16230   4.558   5.314   6.193 -1.5256  1.2636  0.1748
  148SAPE    HB16231   4.586   5.432   6.063  0.2483  1.7632  0.4572
  148SAPE    C216232   4.734   5.276   6.073 -0.9428  0.3865  0.4319
  148SAPE    HS16233   4.758   5.191   6.140 -0.7809 -2.7854 -3.3315
  148SAPE   O2116234   4.849   5.342   6.029  0.4788 -0.2283 -0.4754
  148SAPE   C2116235   4.964   5.307   6.076 -0.2251 -0.2984  0.0859
  148SAPE   O2216236   4.988   5.214   6.147 -0.1875  0.1012  0.0186
  148SAPE   C2216237   5.076   5.382   5.997  0.4181 -0.0225  0.1245
  148SAPE   H2R16238   5.052   5.382   5.888  1.0934  0.2518 -0.0278
  148SAPE   H2S16239   5.089   5.486   6.034  2.2738  0.8216 -2.6164
  148SAPE    C316240   4.666   5.209   5.957 -0.0146 -0.7958 -0.5885
  148SAPE    HX16241   4.663   5.284   5.874 -1.7321  1.1800  1.1418
  148SAPE    HY16242   4.562   5.181   5.983  0.8616 -3.7104  0.1496
  148SAPE   O3116243   4.734   5.093   5.899  0.0087 -0.1828 -1.0009
  148SAPE   C3116244   4.677   5.041   5.795 -0.0578 -0.0571 -0.1840
  148SAPE   O3216245   4.599   5.093   5.720  0.1231 -0.6252  0.5664
  148SAPE   C3216246   4.725   4.892   5.792  0.0135  0.1194 -0.2363
  148SAPE   H2X16247   4.628   4.838   5.800 -0.6008  1.4601  2.7320
  148SAPE   H2Y16248   4.782   4.871   5.885  0.8918 -0.9621 -1.0069
  148SAPE   C2316249   5.220   5.326   6.010 -0.5616  0.5145 -0.0924
  148SAPE   H3R16250   5.235   5.264   6.101  0.7920  0.3832 -0.3773
  148SAPE   H3S16251   5.296   5.405   6.032 -0.7081  0.0260  2.5525
  148SAPE   C2416252   5.256   5.236   5.886 -0.1812 -0.0028  0.4907
  148SAPE   H4R16253   5.183   5.153   5.890  1.1756 -1.3020 -0.4592
  148SAPE   H4S16254   5.356   5.192   5.908 -0.4731 -0.1344  1.6486
  148SAPE   C2516255   5.255   5.311   5.756  0.4699 -0.5487  0.2493
  148SAPE   H5R16256   5.311   5.405   5.764  0.3163 -0.4558  0.2349
  148SAPE   C2616257   5.169   5.297   5.655 -0.0340 -0.0053  0.0571
  148SAPE   H6R16258   5.183   5.363   5.568 -0.4330  1.3341  0.9859
  148SAPE   C2716259   5.056   5.191   5.653 -0.0489 -0.7803  1.2138
  148SAPE   H7R16260   5.079   5.105   5.721 -0.1286 -0.5940  1.4797
  148SAPE   H7S16261   5.070   5.151   5.551 -0.5327 -0.1690  0.9018
  148SAPE   C2816262   4.914   5.240   5.659 -0.6244  0.4057 -0.5260
  148SAPE   H8R16263   4.869   5.236   5.759  1.5165  0.3680  0.5011
  148SAPE   C2916264   4.828   5.250   5.559 -0.6659  1.3600  0.1022
  148SAPE   H9R16265   4.723   5.281   5.572 -0.8741  1.8823 -2.2592
  148SAPE  C21016266   4.868   5.248   5.411 -0.2415 -0.4184 -0.2031
  148SAPE  H10R16267   4.916   5.153   5.379  0.6452 -0.2244  0.5093
  148SAPE  H10S16268   4.951   5.319   5.394  0.5819 -1.7422 -2.0770
  148SAPE  C21116269   4.765   5.298   5.312 -0.4923 -0.0241  0.0486
  148SAPE  H11R16270   4.708   5.391   5.329 -2.8184 -1.2673 -0.5833
  148SAPE  C21216271   4.743   5.242   5.189  0.1172 -0.5783 -0.0384
  148SAPE  H12R16272   4.666   5.289   5.126  0.7978  3.4265  1.7922
  148SAPE  C21316273   4.816   5.124   5.126  0.3170  0.9554 -0.2635
  148SAPE  H13R16274   4.744   5.083   5.053 -1.5288  1.2234  1.3034
  148SAPE  H13S16275   4.833   5.039   5.195 -0.7921  0.8924 -0.0478
  148SAPE  C21416276   4.950   5.156   5.062 -0.0014 -0.7410 -0.6656
  148SAPE  H14R16277   5.014   5.212   5.131 -2.0873 -0.8986  1.5314
  148SAPE  C21516278   4.989   5.131   4.936 -0.4269 -0.8454 -0.2505
  148SAPE  H15R16279   5.093   5.162   4.914 -1.0413  1.0117 -0.7256
  148SAPE  C21616280   4.910   5.068   4.825  0.5044  0.4995 -0.0982
  148SAPE  H16R16281   4.803   5.044   4.843  0.8952 -1.6749 -0.3371
  148SAPE  H16S16282   4.951   4.972   4.788 -0.7798  0.3509 -1.2354
  148SAPE  C21716283   4.916   5.171   4.714 -0.2920  0.1044  0.4304
  148SAPE  H17R16284   5.016   5.182   4.668  0.1925  0.2489  1.4859
  148SAPE  H17S16285   4.896   5.269   4.761  1.2454 -0.5056  2.5037
  148SAPE  C21816286   4.823   5.148   4.589  0.8181  0.9264  0.1567
  148SAPE  H18R16287   4.716   5.139   4.619  0.4067 -0.0215 -1.4922
  148SAPE  H18S16288   4.845   5.054   4.535  3.0851  1.5244 -0.0606
  148SAPE  C21916289   4.834   5.266   4.495  0.2141 -0.0008  0.7311
  148SAPE  H19R16290   4.926   5.248   4.435  0.0084 -0.9276  0.6651
  148SAPE  H19S16291   4.846   5.366   4.541 -0.9681  0.7121 -0.4405
  148SAPE  C22016292   4.721   5.265   4.390 -0.5007  0.3283 -0.0597
  148SAPE  H20R16293   4.702   5.162   4.352 -1.2939 -0.3075  1.9108
  148SAPE  H20S16294   4.751   5.327   4.303 -2.6678 -0.9996 -1.8747
  148SAPE  H20T16295   4.620   5.295   4.425 -1.8053 -1.1623 -2.2598
  148SAPE   C3316296   4.794   4.851   5.661  0.1741 -0.1149 -0.3011
  148SAPE   H3X16297   4.849   4.757   5.682 -0.7976 -0.7957 -0.6944
  148SAPE   H3Y16298   4.859   4.934   5.625 -1.4984  1.8581  0.9556
  148SAPE   C3416299   4.687   4.817   5.552 -0.0517  0.2535  0.3924
  148SAPE   H4X16300   4.634   4.909   5.520 -2.2380 -1.4654 -1.2399
  148SAPE   H4Y16301   4.614   4.738   5.581 -0.8394  0.0790 -1.9093
  148SAPE   C3516302   4.757   4.765   5.421 -0.8370  0.3620  0.3982
  148SAPE   H5X16303   4.775   4.656   5.432 -0.5826  0.3203 -0.3551
  148SAPE   H5Y16304   4.854   4.818   5.407  0.0621 -1.2430  0.3292
  148SAPE   C3616305   4.663   4.779   5.296  0.3116  0.6819  0.0808
  148SAPE   H6X16306   4.624   4.883   5.295 -3.4893 -0.5200  2.6352
  148SAPE   H6Y16307   4.587   4.698   5.307  0.5197  0.6758  1.6801
  148SAPE   C3716308   4.731   4.731   5.163 -0.3868 -0.4599 -0.0000
  148SAPE   H7X16309   4.771   4.629   5.184 -2.3520 -1.9729 -2.9323
  148SAPE   H7Y16310   4.813   4.805   5.154  0.5944 -1.1557  2.3099
  148SAPE   C3816311   4.630   4.710   5.047 -0.1812 -0.4848  0.4122
  148SAPE   H8X16312   4.577   4.805   5.026 -0.6748 -0.9426 -0.4410
  148SAPE   H8Y16313   4.563   4.626   5.076 -1.9942  1.3478  1.7958
  148SAPE   C3916314   4.706   4.674   4.920  0.3252 -0.6668 -0.4682
  148SAPE   H9X16315   4.777   4.596   4.955 -0.9498 -1.2979  0.7947
  148SAPE   H9Y16316   4.768   4.758   4.882 -0.2221 -0.2325 -0.4058
  148SAPE  C31016317   4.631   4.609   4.806  0.5215  0.0006  0.0787
  148SAPE  H10X16318   4.569   4.692   4.766  1.2348  0.3151 -0.4068
  148SAPE  H10Y16319   4.561   4.532   4.844  0.2262  0.3518  0.2490
  148SAPE  C31116320   4.708   4.560   4.690 -0.6568 -0.1028  0.8770
  148SAPE  H11X16321   4.749   4.459   4.711  0.7895 -0.1936 -1.9041
  148SAPE  H11Y16322   4.805   4.612   4.675 -0.7599 -0.6491 -2.7940
  148SAPE  C31216323   4.631   4.565   4.564 -0.2645  0.2706 -0.4017
  148SAPE  H12X16324   4.686   4.506   4.487 -0.1056 -2.9022  1.9712
  148SAPE  H12Y16325   4.632   4.668   4.520  2.0876  1.8536  2.9463
  148SAPE  C31316326   4.480   4.513   4.570 -0.3704  0.6400 -0.6341
  148SAPE  H13X16327   4.419   4.561   4.648  0.2241 -0.0458  0.2729
  148SAPE  H13Y16328   4.491   4.411   4.612  2.6030  1.0444 -0.1629
  148SAPE  C31416329   4.427   4.486   4.432 -0.3762  0.3062  0.2430
  148SAPE  H14X16330   4.508   4.435   4.375  0.7138 -0.7952  2.6440
  148SAPE  H14Y16331   4.412   4.587   4.389  0.5782  0.0043 -0.8580
  148SAPE  C31516332   4.307   4.390   4.424  0.8494 -0.5364 -0.0672
  148SAPE  H15X16333   4.220   4.427   4.482  1.1120  0.0108 -0.0211
  148SAPE  H15Y16334   4.338   4.289   4.461  1.6035 -0.7615 -1.2605
  148SAPE  C31616335   4.262   4.371   4.276 -0.2673 -0.2852 -0.2279
  148SAPE  H16X16336   4.352   4.377   4.212 -0.5683 -1.0590 -0.7313
  148SAPE  H16Y16337   4.198   4.459   4.254  0.8759  0.9610  1.1996
  148SAPE  C31716338   4.195   4.244   4.238 -0.4425  0.5218  0.5007
  148SAPE  H17X16339   4.116   4.224   4.313 -1.1241  2.5256  0.3650
  148SAPE  H17Y16340   4.278   4.170   4.234  1.2192  2.3458 -0.6266
  148SAPE  C31816341   4.129   4.265   4.099 -0.3502  1.0231 -0.1874
  148SAPE  H18X16342   4.077   4.177   4.054 -0.5594  0.6462  0.7698
  148SAPE  H18Y16343   4.219   4.295   4.041  0.5613  1.7656  1.5532
  148SAPE  H18Z16344   4.068   4.358   4.097 -2.2833 -0.1910 -0.4297
  149SAPE     N16345   5.446   1.261   6.389 -0.4001  0.2669 -0.1186
  149SAPE   HN116346   5.418   1.208   6.474 -0.2869  0.9439  0.3468
  149SAPE   HN216347   5.518   1.330   6.417 -0.0011  0.1243 -0.7668
  149SAPE   HN316348   5.368   1.319   6.352 -0.4669  1.2400  1.4928
  149SAPE   C1216349   5.501   1.173   6.278  0.8566  0.1742  0.2613
  149SAPE  H12A16350   5.579   1.109   6.323  0.5507 -1.4476 -1.4033
  149SAPE  H12B16351   5.561   1.233   6.206  1.0168  1.0361  1.0969
  149SAPE   C1116352   5.391   1.092   6.212 -0.0468 -0.2826 -1.0105
  149SAPE  H11A16353   5.433   1.006   6.154 -2.0228 -2.1964  0.2356
  149SAPE  H11B16354   5.332   1.146   6.136  2.0777  1.7411 -1.3265
  149SAPE     P16355   5.263   0.887   6.328 -0.6689 -0.0065  0.0682
  149SAPE   O1316356   5.376   0.805   6.270  0.2049  0.0266 -0.1560
  149SAPE   O1416357   5.238   0.863   6.473 -0.6435  0.1659  1.0000
  149SAPE   O1216358   5.309   1.045   6.315  0.0819  0.0600 -0.3014
  149SAPE   O1116359   5.134   0.869   6.240 -0.4702  0.0272 -0.0372
  149SAPE    C116360   5.118   0.943   6.123  0.3772 -0.1003  0.0016
  149SAPE    HA16361   5.069   1.040   6.146 -0.0389  0.0699 -1.4890
  149SAPE    HB16362   5.210   0.976   6.070 -0.7673  1.7242 -0.9868
  149SAPE    C216363   5.022   0.860   6.038  0.9520 -0.5331 -0.1393
  149SAPE    HS16364   4.942   0.828   6.109 -0.3351  1.0096 -0.8271
  149SAPE   O2116365   5.108   0.761   5.980  0.3536 -0.5629 -0.0880
  149SAPE   C2116366   5.036   0.653   5.942 -0.5221 -0.0434 -0.8925
  149SAPE   O2216367   4.918   0.633   5.960 -0.3824  0.0486  0.4864
  149SAPE   C2216368   5.127   0.557   5.859  0.1613  0.3153 -0.0561
  149SAPE   H2R16369   5.212   0.523   5.921 -0.0466 -0.5685 -0.2446
  149SAPE   H2S16370   5.068   0.465   5.840 -0.4915  0.7225 -0.0448
  149SAPE    C316371   4.948   0.945   5.924 -0.2409 -0.1858  0.4895
  149SAPE    HX16372   4.914   1.039   5.973  0.3466 -0.8193  2.2231
  149SAPE    HY16373   4.852   0.895   5.901  0.5305 -1.8976  0.8212
  149SAPE   O3116374   5.040   0.964   5.816  0.2721  0.6520 -0.1862
  149SAPE   C3116375   4.978   1.005   5.707  0.2432  0.6660 -0.1396
  149SAPE   O3216376   4.856   1.006   5.685 -0.3433 -0.1161 -0.0955
  149SAPE   C3216377   5.082   1.051   5.600  0.3839 -0.3442  0.1668
  149SAPE   H2X16378   5.166   1.110   5.643  1.5708 -1.2910 -0.7334
  149SAPE   H2Y16379   5.030   1.131   5.543  1.3804  2.1226  2.4894
  149SAPE   C2316380   5.159   0.604   5.715 -0.1726 -0.3662 -0.0709
  149SAPE   H3R16381   5.219   0.529   5.660  1.1574  0.7541 -0.2068
  149SAPE   H3S16382   5.226   0.693   5.725  0.4682 -1.0842  3.7589
  149SAPE   C2416383   5.043   0.642   5.621  0.4162  0.2412 -0.1067
  149SAPE   H4R16384   5.103   0.657   5.529  2.7903 -0.3186  1.2671
  149SAPE   H4S16385   4.988   0.730   5.660 -1.5757 -1.3779  0.9504
  149SAPE   C2516386   4.941   0.534   5.606  0.1101  0.2068 -0.4083
  149SAPE   H5R16387   4.854   0.541   5.674  0.9133 -2.0664  0.9651
  149SAPE   C2616388   4.937   0.433   5.515  0.4037  0.7566 -0.8310
  149SAPE   H6R16389   4.842   0.378   5.511  0.9712 -0.3058 -0.1076
  149SAPE   C2716390   5.047   0.402   5.417 -0.4400 -0.5706  0.5930
  149SAPE   H7R16391   5.012   0.302   5.384 -3.4867  0.4958  0.3421
  149SAPE   H7S16392   5.139   0.394   5.480 -0.5226  3.3631  1.4826
  149SAPE   C2816393   5.075   0.500   5.303 -0.4706  0.2993  0.1164
  149SAPE   H8R16394   5.071   0.608   5.326 -2.2868  0.8943 -2.5231
  149SAPE   C2916395   5.102   0.462   5.173 -0.1074 -0.2776 -0.1080
  149SAPE   H9R16396   5.125   0.541   5.099 -1.5363  0.1401 -0.1302
  149SAPE  C21016397   5.108   0.329   5.111  1.4039 -0.0137 -0.1048
  149SAPE  H10R16398   5.140   0.253   5.185  2.4032 -0.9874 -1.4772
  149SAPE  H10S16399   5.186   0.329   5.031  1.8933 -1.1940  0.3467
  149SAPE  C21116400   4.962   0.304   5.061  0.0049  0.0880 -0.6318
  149SAPE  H11R16401   4.877   0.324   5.128  1.2952 -0.3633  1.2528
  149SAPE  C21216402   4.949   0.240   4.940 -1.4892  0.2897  0.2703
  149SAPE  H12R16403   4.849   0.207   4.909 -2.0728  1.9044  0.3167
  149SAPE  C21316404   5.049   0.210   4.837  0.0274  0.5875 -0.5616
  149SAPE  H13R16405   5.016   0.124   4.774 -0.6950  0.0325  0.5382
  149SAPE  H13S16406   5.137   0.169   4.891 -0.3999  0.7286  0.2609
  149SAPE  C21416407   5.111   0.318   4.746 -0.1381  0.8411 -0.0235
  149SAPE  H14R16408   5.216   0.302   4.719 -0.1625  0.0685  0.3198
  149SAPE  C21516409   5.055   0.413   4.683  0.4543  0.2691  0.5793
  149SAPE  H15R16410   5.107   0.497   4.635 -1.0235  0.8107 -0.1113
  149SAPE  C21616411   4.905   0.430   4.667  0.3836  0.1445  0.2310
  149SAPE  H16R16412   4.867   0.505   4.739  2.5088  0.9236  0.6155
  149SAPE  H16S16413   4.858   0.334   4.699  2.6687 -1.1201  0.0191
  149SAPE  C21716414   4.863   0.469   4.522  0.3217 -0.5875  0.3100
  149SAPE  H17R16415   4.950   0.512   4.468  0.2475 -1.1277 -0.2505
  149SAPE  H17S16416   4.793   0.555   4.526  0.3439 -0.4989 -0.9813
  149SAPE  C21816417   4.817   0.350   4.440 -0.1169 -0.0733  0.6629
  149SAPE  H18R16418   4.718   0.313   4.474 -0.1304  0.1322  0.8456
  149SAPE  H18S16419   4.883   0.269   4.478  1.9344  1.4067  0.3994
  149SAPE  C21916420   4.820   0.385   4.286  0.9310  0.7124 -0.1682
  149SAPE  H19R16421   4.921   0.415   4.249 -0.3330  3.2568 -1.9110
  149SAPE  H19S16422   4.748   0.468   4.266 -1.5387 -0.6528  2.3626
  149SAPE  C22016423   4.780   0.271   4.190  0.0129 -0.3852 -0.1400
  149SAPE  H20R16424   4.678   0.234   4.215 -1.0672  1.9501 -0.8313
  149SAPE  H20S16425   4.861   0.195   4.195  0.0450 -0.2900  1.7477
  149SAPE  H20T16426   4.781   0.309   4.086  0.3625  1.2035  0.4253
  149SAPE   C3316427   5.138   0.951   5.499  0.0933  0.7994  0.2623
  149SAPE   H3X16428   5.055   0.883   5.468  0.2541  0.0613  1.3821
  149SAPE   H3Y16429   5.224   0.895   5.541 -0.2859 -0.1061 -0.1571
  149SAPE   C3416430   5.186   1.033   5.372 -0.6237  0.1938  0.9353
  149SAPE   H4X16431   5.262   1.103   5.414 -1.3678  2.0201 -0.6425
  149SAPE   H4Y16432   5.105   1.098   5.332  0.6804  1.4261  0.2027
  149SAPE   C3516433   5.247   0.933   5.268 -0.7383  0.0229 -0.1793
  149SAPE   H5X16434   5.287   0.846   5.325 -0.3600  0.4196  0.1708
  149SAPE   H5Y16435   5.328   0.991   5.220  0.9205  0.1846  2.5613
  149SAPE   C3616436   5.142   0.895   5.166 -0.0763  0.0364  0.4582
  149SAPE   H6X16437   5.080   0.983   5.136  0.9297  0.8323  0.6437
  149SAPE   H6Y16438   5.065   0.827   5.206  0.8090 -0.7768  0.8053
  149SAPE   C3716439   5.211   0.843   5.046 -0.3697  0.5038 -0.6820
  149SAPE   H7X16440   5.255   0.749   5.087 -0.3831  1.2751  1.1771
  149SAPE   H7Y16441   5.292   0.909   5.010  0.5619  0.2604  0.8642
  149SAPE   C3816442   5.115   0.799   4.930  0.3781  0.4056  0.3169
  149SAPE   H8X16443   5.019   0.766   4.977  0.7411 -0.2563  0.6025
  149SAPE   H8Y16444   5.161   0.706   4.890 -0.0271  0.1897  0.3441
  149SAPE   C3916445   5.109   0.903   4.825  0.2791  0.3209  0.3570
  149SAPE   H9X16446   5.206   0.928   4.776 -0.4419 -1.3168 -2.1163
  149SAPE   H9Y16447   5.054   0.992   4.863  0.0960  1.1111 -1.6276
  149SAPE  C31016448   5.025   0.858   4.698 -0.1817 -0.1858 -0.6693
  149SAPE  H10X16449   4.921   0.834   4.728 -0.0970  1.7543  1.4441
  149SAPE  H10Y16450   5.079   0.767   4.666  2.1422  1.0568 -0.5315
  149SAPE  C31116451   5.024   0.970   4.591 -0.0396  0.6135  0.3925
  149SAPE  H11X16452   5.124   0.988   4.546  0.8871 -2.2145  1.1225
  149SAPE  H11Y16453   4.990   1.064   4.639  0.4080  0.9919 -0.0153
  149SAPE  C31216454   4.931   0.936   4.471 -0.2884  0.5745  1.0332
  149SAPE  H12X16455   4.826   0.925   4.505  0.2490  0.6149  2.8424
  149SAPE  H12Y16456   4.963   0.842   4.422  2.8735  2.1020 -0.1524
  149SAPE  C31316457   4.949   1.033   4.350 -0.1814 -0.0129  0.2384
  149SAPE  H13X16458   5.050   1.053   4.307 -0.9463  3.5605 -0.2643
  149SAPE  H13Y16459   4.924   1.135   4.386 -0.9565 -0.2990  0.5288
  149SAPE  C31416460   4.851   1.004   4.238 -0.4182 -0.2830  0.1524
  149SAPE  H14X16461   4.741   0.993   4.254 -0.6969 -0.3894 -1.6467
  149SAPE  H14Y16462   4.889   0.910   4.193 -0.3252 -0.3949  0.4613
  149SAPE  C31516463   4.876   1.120   4.133  0.8194  0.7087 -0.0293
  149SAPE  H15X16464   4.981   1.121   4.097 -0.1265 -1.9988 -3.5329
  149SAPE  H15Y16465   4.857   1.205   4.201  0.9699  0.9253 -0.2572
  149SAPE  C31616466   4.767   1.109   4.021 -0.2522 -0.5437 -0.2114
  149SAPE  H16X16467   4.768   1.012   3.968  0.4260 -1.4548  1.4131
  149SAPE  H16Y16468   4.786   1.191   3.948 -0.2167  0.5409  0.9839
  149SAPE  C31716469   4.634   1.147   4.087  0.4513 -0.3046  0.0891
  149SAPE  H17X16470   4.654   1.222   4.167 -0.4848 -1.8446  1.8440
  149SAPE  H17Y16471   4.579   1.065   4.138  1.0107 -1.7357 -1.5487
  149SAPE  C31816472   4.539   1.217   3.986  0.1226 -0.0543 -0.1707
  149SAPE  H18X16473   4.524   1.146   3.901 -1.2431  1.6207 -1.4195
  149SAPE  H18Y16474   4.595   1.308   3.955  0.9922 -0.0567  1.3028
  149SAPE  H18Z16475   4.443   1.239   4.037  0.6347 -0.3464  0.9523
  150SAPE     N16476   0.652   6.724   6.888 -0.5158  0.3511  0.3940
  150SAPE   HN116477   0.663   6.827   6.891 -1.0878  0.4221  0.1888
  150SAPE   HN216478   0.605   6.698   6.799 -2.7027 -3.6358  2.4500
  150SAPE   HN316479   0.601   6.683   6.969  0.6928  0.7079  1.3642
  150SAPE   C1216480   0.789   6.663   6.880  0.5736 -0.4027 -0.2159
  150SAPE  H12A16481   0.779   6.552   6.874  0.0395 -0.2832 -2.3956
  150SAPE  H12B16482   0.833   6.683   6.980  0.3400 -0.7605 -0.0388
  150SAPE   C1116483   0.875   6.712   6.760  0.0622  0.1925 -1.2450
  150SAPE  H11A16484   0.816   6.693   6.668 -1.7485 -0.8479  0.0692
  150SAPE  H11B16485   0.969   6.652   6.755 -0.6477 -0.9778 -0.9063
  150SAPE     P16486   0.849   6.969   6.720 -0.2496 -0.1362  0.0133
  150SAPE   O1316487   0.706   6.970   6.775 -0.1418  0.2352  0.0489
  150SAPE   O1416488   0.925   7.093   6.753  0.6659  0.4473 -0.2577
  150SAPE   O1216489   0.920   6.844   6.775  0.2423  0.1547 -0.0963
  150SAPE   O1116490   0.854   6.931   6.570 -0.6931  0.2228 -0.2822
  150SAPE    C116491   0.951   6.986   6.481 -0.4750 -0.7823 -0.3928
  150SAPE    HA16492   1.044   7.027   6.525  0.2422 -0.3900 -2.2280
  150SAPE    HB16493   0.986   6.918   6.401  3.9265  0.7018  0.0132
  150SAPE    C216494   0.889   7.113   6.409 -0.0105 -0.5009  0.4188
  150SAPE    HS16495   0.862   7.188   6.487 -0.2054  1.7676 -1.7314
  150SAPE   O2116496   0.775   7.074   6.333  0.6201  0.2278 -0.5337
  150SAPE   C2116497   0.694   7.166   6.306 -1.0592  0.0478 -0.3530
  150SAPE   O2216498   0.694   7.278   6.348 -0.2635  0.2398 -0.0786
  150SAPE   C2216499   0.585   7.102   6.216 -0.3829  0.5293 -0.3814
  150SAPE   H2R16500   0.567   6.996   6.245  1.2617 -0.0351 -1.3092
  150SAPE   H2S16501   0.491   7.160   6.232 -1.6931 -2.0495  2.3409
  150SAPE    C316502   0.999   7.182   6.308  0.2112 -0.2173 -0.5841
  150SAPE    HX16503   1.090   7.201   6.369 -1.6742  0.4391  2.1978
  150SAPE    HY16504   0.965   7.283   6.275  0.7490 -0.1517 -0.9525
  150SAPE   O3116505   1.015   7.112   6.181  0.6337  0.0133 -0.3211
  150SAPE   C3116506   1.111   7.018   6.176 -0.1525  0.0315 -0.1734
  150SAPE   O3216507   1.171   6.969   6.270  0.3166 -0.0885 -0.2135
  150SAPE   C3216508   1.114   6.974   6.026 -0.4264 -0.1198 -0.2251
  150SAPE   H2X16509   1.099   7.069   5.971 -1.5319  1.1108  2.0742
  150SAPE   H2Y16510   1.022   6.917   6.000 -1.3418  0.8543  0.7451
  150SAPE   C2316511   0.637   7.109   6.070  0.2688 -0.3722 -0.8806
  150SAPE   H3R16512   0.731   7.051   6.059  0.7748 -0.7359  3.6159
  150SAPE   H3S16513   0.666   7.207   6.026 -0.6267 -0.2904 -1.3138
  150SAPE   C2416514   0.526   7.058   5.976 -0.2415  0.0324 -0.6558
  150SAPE   H4R16515   0.487   6.964   6.020  1.2365 -1.2966 -2.0316
  150SAPE   H4S16516   0.570   7.023   5.880  0.1143 -0.2978 -0.3755
  150SAPE   C2516517   0.406   7.150   5.953  0.0060  0.2693  0.3544
  150SAPE   H5R16518   0.327   7.159   6.029  1.0960  1.7858  1.3608
  150SAPE   C2616519   0.406   7.236   5.842 -0.4312  0.0251  0.7861
  150SAPE   H6R16520   0.328   7.306   5.808  0.3474  0.7478  0.4461
  150SAPE   C2716521   0.510   7.253   5.736  0.0850  0.3663 -0.4931
  150SAPE   H7R16522   0.450   7.245   5.643 -3.0689  0.7219  1.3661
  150SAPE   H7S16523   0.585   7.172   5.743 -0.9350 -0.4905  1.6476
  150SAPE   C2816524   0.566   7.389   5.743 -0.6802  0.3861 -0.5880
  150SAPE   H8R16525   0.593   7.423   5.844  0.4181  1.3371 -1.1938
  150SAPE   C2916526   0.574   7.477   5.640  0.1654 -0.8151 -0.1428
  150SAPE   H9R16527   0.605   7.580   5.665 -0.7628 -0.8773  1.3787
  150SAPE  C21016528   0.556   7.451   5.493 -0.1613 -0.5896  0.2254
  150SAPE  H10R16529   0.492   7.361   5.480 -0.5000 -0.4684  1.0142
  150SAPE  H10S16530   0.656   7.429   5.451 -0.5691 -3.2732  0.5329
  150SAPE  C21116531   0.501   7.573   5.417 -0.0515  0.1511 -0.5144
  150SAPE  H11R16532   0.478   7.664   5.474  1.0361  0.2545 -0.2059
  150SAPE  C21216533   0.474   7.577   5.279  0.6000 -0.0107 -0.6246
  150SAPE  H12R16534   0.441   7.673   5.236 -2.6999 -1.8164 -2.5214
  150SAPE  C21316535   0.502   7.465   5.177 -0.0494 -0.2139  0.2607
  150SAPE  H13R16536   0.409   7.411   5.150 -1.4318  2.6198 -1.0710
  150SAPE  H13S16537   0.570   7.387   5.217  0.0846  0.1859  0.8221
  150SAPE  C21416538   0.572   7.515   5.058 -0.5780 -0.7402 -0.2464
  150SAPE  H14R16539   0.680   7.499   5.048 -0.8505 -2.6597 -0.5566
  150SAPE  C21516540   0.512   7.577   4.958  0.0655 -0.0513  0.0331
  150SAPE  H15R16541   0.575   7.627   4.883 -2.1151 -0.8849 -2.4910
  150SAPE  C21616542   0.366   7.607   4.928  0.4357  0.5035 -0.6744
  150SAPE  H16R16543   0.300   7.560   5.003  0.8281  2.2076  0.7898
  150SAPE  H16S16544   0.335   7.552   4.836  1.7766  1.7510 -1.9358
  150SAPE  C21716545   0.310   7.749   4.924  0.2879 -0.0732  0.7463
  150SAPE  H17R16546   0.342   7.814   5.009 -0.1960 -0.8957  1.5812
  150SAPE  H17S16547   0.200   7.749   4.934  0.2466  4.1082  2.4970
  150SAPE  C21816548   0.337   7.823   4.795  0.4266 -0.2465  0.7392
  150SAPE  H18R16549   0.285   7.773   4.711  0.6900 -0.9405  0.9867
  150SAPE  H18S16550   0.446   7.812   4.774  0.4783  2.5071 -1.0195
  150SAPE  C21916551   0.295   7.972   4.804 -0.6544  0.0941 -0.2654
  150SAPE  H19R16552   0.337   8.021   4.713  1.7358 -1.2828  0.0186
  150SAPE  H19S16553   0.347   8.013   4.894 -0.9774  2.5745 -1.1362
  150SAPE  C22016554   0.146   7.992   4.815 -0.4376  0.6545 -0.0864
  150SAPE  H20R16555   0.102   7.996   4.917 -1.7161 -0.9705 -0.5298
  150SAPE  H20S16556   0.110   7.900   4.764 -0.5257  0.0118  1.0852
  150SAPE  H20T16557   0.118   8.090   4.771  1.0756  0.9412 -0.4710
  150SAPE   C3316558   1.242   6.896   5.977  0.7940 -0.1962 -0.1510
  150SAPE   H3X16559   1.239   6.791   6.013 -1.3301 -0.4034 -0.8036
  150SAPE   H3Y16560   1.332   6.947   6.018 -0.1349  4.1799 -2.8292
  150SAPE   C3416561   1.242   6.902   5.828 -0.8369  0.9849  1.2066
  150SAPE   H4X16562   1.345   6.903   5.785 -1.1754  0.3279  0.3186
  150SAPE   H4Y16563   1.187   6.990   5.790 -0.5411  0.5254 -0.3799
  150SAPE   C3516564   1.169   6.779   5.758  0.7769 -0.9018 -0.5261
  150SAPE   H5X16565   1.063   6.800   5.782  0.6290 -2.4280  0.2810
  150SAPE   H5Y16566   1.195   6.679   5.800  1.3762 -1.8333 -2.9243
  150SAPE   C3616567   1.198   6.769   5.608 -0.7862  0.8917  0.0663
  150SAPE   H6X16568   1.154   6.679   5.560 -1.2546  1.1236  0.0632
  150SAPE   H6Y16569   1.309   6.759   5.604 -0.8989 -0.3015 -0.6666
  150SAPE   C3716570   1.145   6.889   5.529  0.1515 -0.0402  0.0031
  150SAPE   H7X16571   1.208   6.974   5.561  0.4514 -0.5379  0.7751
  150SAPE   H7Y16572   1.036   6.901   5.549 -0.1441 -0.1115 -1.4557
  150SAPE   C3816573   1.172   6.860   5.384  0.0278  0.5199  0.1779
  150SAPE   H8X16574   1.116   6.765   5.370  3.0786 -1.7132  1.6760
  150SAPE   H8Y16575   1.280   6.837   5.366  0.0373  0.7255 -0.0265
  150SAPE   C3916576   1.115   6.960   5.289 -0.3459  0.7541 -0.4193
  150SAPE   H9X16577   1.143   7.054   5.342  2.8918 -0.5427  0.4195
  150SAPE   H9Y16578   1.006   6.943   5.285  0.1758 -4.0215  0.3248
  150SAPE  C31016579   1.183   6.954   5.149  0.0005  0.5237 -0.0042
  150SAPE  H10X16580   1.294   6.959   5.163 -0.0676 -0.0128  0.7946
  150SAPE  H10Y16581   1.150   7.044   5.093 -0.2339  0.7816  0.5462
  150SAPE  C31116582   1.140   6.839   5.057  0.1406 -0.4944  0.0781
  150SAPE  H11X16583   1.034   6.847   5.024 -0.1036  1.0639  1.0902
  150SAPE  H11Y16584   1.142   6.738   5.103 -0.7693 -0.6094 -0.1224
  150SAPE  C31216585   1.235   6.821   4.935 -1.0894  0.6097  0.1652
  150SAPE  H12X16586   1.332   6.785   4.975 -1.4638  1.7411  2.2124
  150SAPE  H12Y16587   1.265   6.924   4.905 -0.8024  0.0926 -1.4562
  150SAPE  C31316588   1.176   6.760   4.809  0.2494 -0.3850  0.2601
  150SAPE  H13X16589   1.246   6.763   4.723 -1.2532  2.7009 -0.9631
  150SAPE  H13Y16590   1.097   6.834   4.787  0.7760  0.0502 -0.1959
  150SAPE  C31416591   1.117   6.617   4.826 -0.2681  1.2360 -0.4006
  150SAPE  H14X16592   1.045   6.598   4.744 -0.4157 -2.1521  0.4006
  150SAPE  H14Y16593   1.048   6.618   4.913 -0.5375 -1.1055 -0.5269
  150SAPE  C31516594   1.215   6.499   4.843 -0.1684 -0.4898  0.3969
  150SAPE  H15X16595   1.287   6.521   4.924 -0.1293 -1.3601  0.6093
  150SAPE  H15Y16596   1.263   6.492   4.743 -1.4616  0.9426 -0.3636
  150SAPE  C31616597   1.149   6.362   4.892 -0.0791 -0.3838 -0.6999
  150SAPE  H16X16598   1.063   6.338   4.826 -1.6051  1.2253  0.5819
  150SAPE  H16Y16599   1.112   6.380   4.995  2.9465  0.7071  0.3285
  150SAPE  C31716600   1.239   6.234   4.897 -0.2385  0.1789 -0.2266
  150SAPE  H17X16601   1.276   6.225   4.793  1.1679  4.6057 -0.3034
  150SAPE  H17Y16602   1.181   6.143   4.923  0.9971 -0.0885  1.8452
  150SAPE  C31816603   1.365   6.251   4.980 -0.4358  0.0908  0.4370
  150SAPE  H18X16604   1.391   6.359   4.989  2.8480 -0.5745  0.0030
  150SAPE  H18Y16605   1.452   6.203   4.930 -1.6944 -1.1438 -0.6466
  150SAPE  H18Z16606   1.352   6.213   5.083 -1.2291  2.3354  1.2325
  151SAPE     N16607   1.165   5.999   7.172  0.0390  0.5335 -0.4398
  151SAPE   HN116608   1.129   6.033   7.264  0.5455 -0.5816  0.1969
  151SAPE   HN216609   1.093   5.938   7.129 -1.0032  2.2262 -1.1977
  151SAPE   HN316610   1.248   5.940   7.194 -0.1306  1.5582  3.9708
  151SAPE   C1216611   1.200   6.103   7.071 -0.0130  0.3779  0.0439
  151SAPE  H12A16612   1.311   6.111   7.069 -0.0648  1.9208  1.2249
  151SAPE  H12B16613   1.176   6.203   7.113  2.1076  1.0821 -0.3211
  151SAPE   C1116614   1.135   6.074   6.934 -0.1486 -0.5262  0.4962
  151SAPE  H11A16615   1.171   6.152   6.864 -2.2493 -0.6461 -0.8100
  151SAPE  H11B16616   1.024   6.087   6.927  0.0823  0.5431 -2.9499
  151SAPE     P16617   1.300   5.919   6.794 -0.2697 -0.1484  0.2908
  151SAPE   O1316618   1.415   5.975   6.866  0.2469 -0.3999  0.4974
  151SAPE   O1416619   1.306   5.780   6.743  0.2265  0.3083 -0.2910
  151SAPE   O1216620   1.170   5.945   6.882 -0.2211  0.2586  0.4221
  151SAPE   O1116621   1.264   6.016   6.672  0.2621  0.1075 -0.2669
  151SAPE    C116622   1.134   5.998   6.615 -0.4705 -0.4986 -0.1767
  151SAPE    HA16623   1.089   5.899   6.634 -1.6609  0.3677  1.8185
  151SAPE    HB16624   1.063   6.075   6.651  2.3554  0.9909  2.6763
  151SAPE    C216625   1.132   6.007   6.458 -0.8994  0.2508 -0.5946
  151SAPE    HS16626   1.192   5.920   6.423  2.1740  1.6251  0.8867
  151SAPE   O2116627   1.185   6.139   6.421 -0.3766 -0.6415  0.3154
  151SAPE   C2116628   1.262   6.138   6.320 -0.3300 -0.1674  0.0539
  151SAPE   O2216629   1.294   6.041   6.256  0.0139  0.2997 -0.7648
  151SAPE   C2216630   1.293   6.284   6.297 -0.6361 -0.3305  0.1921
  151SAPE   H2R16631   1.201   6.318   6.244 -0.2488 -1.5811 -1.3567
  151SAPE   H2S16632   1.309   6.338   6.393 -1.4454  0.6469 -0.2049
  151SAPE    C316633   0.981   6.016   6.423 -0.2127  0.0306  0.6504
  151SAPE    HX16634   0.924   6.092   6.481 -1.9552 -0.9569  0.3101
  151SAPE    HY16635   0.938   5.920   6.458 -2.1874  1.1254  1.3879
  151SAPE   O3116636   0.957   6.021   6.282 -0.1873 -0.0294 -0.0468
  151SAPE   C3116637   0.968   5.908   6.220  0.5020 -0.1130  0.0009
  151SAPE   O3216638   1.030   5.811   6.255  0.0171  0.0629  0.2461
  151SAPE   C3216639   0.882   5.914   6.095 -0.0566  0.1845  1.0526
  151SAPE   H2X16640   0.918   6.003   6.039  0.1783 -1.1916 -1.1281
  151SAPE   H2Y16641   0.775   5.934   6.118 -0.1437 -1.3232  2.1255
  151SAPE   C2316642   1.414   6.304   6.209 -0.4887 -0.2609 -0.0962
  151SAPE   H3R16643   1.393   6.263   6.108  3.1170 -3.1456  0.1177
  151SAPE   H3S16644   1.492   6.235   6.246  1.1821  1.0564 -0.9791
  151SAPE   C2416645   1.464   6.450   6.205 -0.6401  0.3293 -0.1165
  151SAPE   H4R16646   1.570   6.443   6.174 -1.3085 -1.0980 -2.2705
  151SAPE   H4S16647   1.466   6.503   6.302 -1.5169  2.4416 -1.1917
  151SAPE   C2516648   1.392   6.533   6.106  0.4927  0.2932  0.0484
  151SAPE   H5R16649   1.293   6.558   6.147  0.4347 -3.2436  2.5744
  151SAPE   C2616650   1.432   6.586   5.991  0.5208 -0.4169  0.4040
  151SAPE   H6R16651   1.352   6.620   5.923  2.6577 -0.2508 -2.1998
  151SAPE   C2716652   1.566   6.558   5.922  0.1936  0.1907 -0.1586
  151SAPE   H7R16653   1.609   6.465   5.967  1.2994 -0.3399 -2.1925
  151SAPE   H7S16654   1.639   6.636   5.954  0.3081 -0.6571  1.7819
  151SAPE   C2816655   1.556   6.542   5.774 -0.6314 -0.1956  0.1882
  151SAPE   H8R16656   1.509   6.457   5.722  2.0362 -1.0218 -1.0470
  151SAPE   C2916657   1.610   6.621   5.683  0.5057 -0.5445  0.8201
  151SAPE   H9R16658   1.592   6.608   5.576 -0.5955 -2.1448  1.1645
  151SAPE  C21016659   1.706   6.735   5.711 -0.0206 -0.8732 -0.4058
  151SAPE  H10R16660   1.681   6.791   5.803  1.7296  0.3803 -0.6502
  151SAPE  H10S16661   1.685   6.816   5.638  0.1009 -1.2478 -0.8694
  151SAPE  C21116662   1.852   6.715   5.729 -0.1184  0.3395 -0.0889
  151SAPE  H11R16663   1.884   6.642   5.805  0.7733  0.3390 -0.4563
  151SAPE  C21216664   1.947   6.739   5.633  0.0338 -0.4190  0.4286
  151SAPE  H12R16665   2.054   6.714   5.642  0.5776  0.3375 -2.5950
  151SAPE  C21316666   1.915   6.809   5.500 -0.4238  0.2275 -1.2297
  151SAPE  H13R16667   1.878   6.911   5.525  1.5806  0.7553 -0.2183
  151SAPE  H13S16668   1.829   6.749   5.463  0.8182 -0.7704 -2.5727
  151SAPE  C21416669   2.035   6.813   5.406  0.0741 -0.4635  0.4567
  151SAPE  H14R16670   2.111   6.734   5.407  2.3504  1.5655 -1.3992
  151SAPE  C21516671   2.076   6.925   5.336  0.2281 -0.0816  0.3291
  151SAPE  H15R16672   2.166   6.919   5.274  0.5961 -0.8062  0.9110
  151SAPE  C21616673   1.983   7.040   5.327  0.2806 -0.1274  0.9832
  151SAPE  H16R16674   1.993   7.096   5.423 -1.0902 -1.5666  2.0246
  151SAPE  H16S16675   1.878   7.008   5.315  0.9444 -1.1563 -4.0752
  151SAPE  C21716676   2.028   7.126   5.211  0.1139  0.5075  0.4921
  151SAPE  H17R16677   2.042   7.074   5.114  3.3828 -0.3965  1.2913
  151SAPE  H17S16678   2.131   7.166   5.224  0.7137 -0.7423 -0.1944
  151SAPE  C21816679   1.931   7.242   5.169 -0.4575  0.6570 -0.3612
  151SAPE  H18R16680   1.836   7.195   5.136  0.4843 -2.0797  0.5367
  151SAPE  H18S16681   1.978   7.300   5.087  1.5494  0.1283  0.3493
  151SAPE  C21916682   1.891   7.343   5.283  0.1793 -0.6673  0.5174
  151SAPE  H19R16683   1.973   7.408   5.319  0.6280 -1.0704  0.2500
  151SAPE  H19S16684   1.862   7.281   5.370 -1.0874 -1.8380 -0.6853
  151SAPE  C22016685   1.770   7.432   5.239 -0.2461  0.1889  0.5855
  151SAPE  H20R16686   1.798   7.490   5.148 -2.2480 -0.2796 -0.3737
  151SAPE  H20S16687   1.742   7.503   5.320  0.7889  0.0816  1.0519
  151SAPE  H20T16688   1.676   7.376   5.221 -0.5730  0.4258  1.5011
  151SAPE   C3316689   0.889   5.781   6.016  0.0741  0.5466 -0.3901
  151SAPE   H3X16690   0.796   5.774   5.955 -0.0589 -1.3573 -0.0393
  151SAPE   H3Y16691   0.892   5.702   6.094  0.4286  2.3115  1.4722
  151SAPE   C3416692   1.003   5.763   5.918 -0.7890 -0.3179 -0.0336
  151SAPE   H4X16693   1.097   5.772   5.978 -0.4421 -0.6500 -0.5152
  151SAPE   H4Y16694   0.996   5.837   5.836  0.7053  0.8410  0.8242
  151SAPE   C3516695   0.996   5.624   5.855 -0.5975  0.3839  0.7583
  151SAPE   H5X16696   0.899   5.591   5.813 -0.9233 -0.1128  1.8663
  151SAPE   H5Y16697   1.033   5.556   5.934  0.1324 -2.1510 -1.6265
  151SAPE   C3616698   1.087   5.606   5.733  0.0074 -0.4808 -0.3235
  151SAPE   H6X16699   1.122   5.502   5.717  1.8347  0.3566 -2.2918
  151SAPE   H6Y16700   1.178   5.667   5.750  0.8665 -2.3043  2.0007
  151SAPE   C3716701   1.025   5.658   5.605 -0.1456  0.4800  0.0118
  151SAPE   H7X16702   0.982   5.760   5.616 -1.6995 -0.3697  2.6976
  151SAPE   H7Y16703   0.939   5.594   5.578 -0.9636  1.2777  0.6520
  151SAPE   C3816704   1.124   5.678   5.489  0.3382  0.1158 -0.6495
  151SAPE   H8X16705   1.136   5.572   5.457 -3.2546 -1.6578  2.9663
  151SAPE   H8Y16706   1.226   5.710   5.517  0.9866 -1.7351 -0.7393
  151SAPE   C3916707   1.068   5.759   5.364  0.1606 -0.1532  0.6012
  151SAPE   H9X16708   1.027   5.859   5.388 -0.9625 -0.6786  0.9077
  151SAPE   H9Y16709   0.982   5.705   5.319  1.2574 -0.5806 -1.0880
  151SAPE  C31016710   1.190   5.769   5.260  0.3783 -0.5978 -0.0413
  151SAPE  H10X16711   1.238   5.671   5.238 -0.9781 -0.6546 -3.3764
  151SAPE  H10Y16712   1.262   5.845   5.297  0.7228 -1.3573  0.8749
  151SAPE  C31116713   1.138   5.798   5.116 -0.8781 -0.0970  0.0332
  151SAPE  H11X16714   1.099   5.902   5.119 -1.4887 -0.3169 -0.3104
  151SAPE  H11Y16715   1.059   5.726   5.086 -0.5747 -0.4128 -0.0093
  151SAPE  C31216716   1.259   5.790   5.019  0.0128  0.2062  0.4556
  151SAPE  H12X16717   1.283   5.681   5.019  0.7299  0.3603  0.2145
  151SAPE  H12Y16718   1.350   5.846   5.049  1.2574  0.3740 -3.1182
  151SAPE  C31316719   1.221   5.834   4.881  0.3957 -0.1290 -0.7450
  151SAPE  H13X16720   1.238   5.943   4.864 -1.2546  0.5012  1.3124
  151SAPE  H13Y16721   1.112   5.826   4.864  0.4462 -2.2127 -0.3348
  151SAPE  C31416722   1.285   5.750   4.765 -0.1893 -0.2175  0.4117
  151SAPE  H14X16723   1.277   5.645   4.798 -0.5072 -0.9878 -1.9085
  151SAPE  H14Y16724   1.394   5.775   4.767  0.2914 -1.9654 -1.3654
  151SAPE  C31516725   1.237   5.762   4.618 -0.0419  0.1225 -0.5581
  151SAPE  H15X16726   1.265   5.864   4.585 -1.4521 -0.3018 -3.3090
  151SAPE  H15Y16727   1.128   5.742   4.610 -0.0562  0.6625 -2.0232
  151SAPE  C31616728   1.321   5.670   4.526 -0.8537  0.3298 -0.6240
  151SAPE  H16X16729   1.312   5.563   4.557 -1.5920  0.3627 -0.7107
  151SAPE  H16Y16730   1.425   5.708   4.527 -0.8535  0.3328  0.3125
  151SAPE  C31716731   1.263   5.685   4.382  0.5578 -0.7519 -0.7826
  151SAPE  H17X16732   1.291   5.785   4.345 -0.1875  0.2120  1.1236
  151SAPE  H17Y16733   1.154   5.668   4.392  0.2195 -0.0645 -2.8648
  151SAPE  C31816734   1.311   5.572   4.288 -0.3270 -0.3076  0.4205
  151SAPE  H18X16735   1.263   5.572   4.187  0.1819 -1.0235  0.1714
  151SAPE  H18Y16736   1.291   5.469   4.324 -1.3947 -0.5595 -0.7992
  151SAPE  H18Z16737   1.420   5.580   4.267 -0.2592  1.3200  1.1874
  152SAPE     N16738   3.900   0.447   6.533  0.5202  0.8229 -0.2166
  152SAPE   HN116739   3.993   0.438   6.488  0.6831  1.8213 -0.1039
  152SAPE   HN216740   3.911   0.487   6.628 -0.3525  4.0330 -1.3420
  152SAPE   HN316741   3.860   0.351   6.539  0.1574  1.0228  0.7604
  152SAPE   C1216742   3.808   0.532   6.458  0.2950  0.1822 -0.3692
  152SAPE  H12A16743   3.857   0.586   6.374  0.5454  1.3327  0.4992
  152SAPE  H12B16744   3.797   0.621   6.523  1.7796 -1.0629  1.7271
  152SAPE   C1116745   3.683   0.459   6.410 -0.2919 -0.1472 -0.5809
  152SAPE  H11A16746   3.705   0.375   6.341  0.7234  0.6666 -1.2867
  152SAPE  H11B16747   3.644   0.550   6.359 -0.4027 -0.9437 -1.9948
  152SAPE     P16748   3.596   0.260   6.560 -0.0692 -0.3831 -0.0060
  152SAPE   O1316749   3.569   0.260   6.706 -0.2887 -0.5199 -0.7671
  152SAPE   O1416750   3.500   0.180   6.472  0.6260  0.3265  0.5473
  152SAPE   O1216751   3.598   0.409   6.515 -0.5842 -0.9148  0.5186
  152SAPE   O1116752   3.742   0.208   6.532 -1.2166  0.5073  0.3273
  152SAPE    C116753   3.769   0.069   6.558 -0.6868 -0.1071 -1.3490
  152SAPE    HA16754   3.848   0.075   6.636  0.1736  0.4252 -2.2404
  152SAPE    HB16755   3.685   0.006   6.594  0.5514 -0.2537  1.5800
  152SAPE    C216756   3.816  -0.004   6.432 -0.6039  0.4020 -0.2081
  152SAPE    HS16757   3.901   0.060   6.402 -0.3149  1.2204  2.1554
  152SAPE   O2116758   3.701  -0.014   6.343 -0.0171  0.0432 -0.7100
  152SAPE   C2116759   3.697   0.080   6.256  0.3757 -0.2864  0.3226
  152SAPE   O2216760   3.785   0.159   6.225 -0.1697  0.5853  0.0587
  152SAPE   C2216761   3.570   0.074   6.174  0.1645 -0.0729  0.1892
  152SAPE   H2R16762   3.521  -0.023   6.198  1.5357 -2.1350 -4.2116
  152SAPE   H2S16763   3.507   0.162   6.200 -1.4995 -0.6540 -1.6358
  152SAPE    C316764   3.851  -0.149   6.461  0.3476 -1.2106 -0.0968
  152SAPE    HX16765   3.753  -0.184   6.499  0.3963  0.1855  1.4246
  152SAPE    HY16766   3.925  -0.142   6.543  0.8417  1.6439 -0.6529
  152SAPE   O3116767   3.904  -0.221   6.346  0.0838 -0.8007 -0.5220
  152SAPE   C3116768   3.979  -0.323   6.391 -0.1540  0.0956  0.6782
  152SAPE   O3216769   3.993  -0.354   6.512 -0.3630 -0.5300  0.5556
  152SAPE   C3216770   4.022  -0.395   6.265 -0.7415 -0.0649  0.6321
  152SAPE   H2X16771   4.038  -0.331   6.176 -0.9482  0.9979  1.3412
  152SAPE   H2Y16772   3.953  -0.476   6.235 -1.1698  0.7731 -0.7142
  152SAPE   C2316773   3.584   0.076   6.023  0.4426 -0.3073  0.3800
  152SAPE   H3R16774   3.649  -0.006   5.989  1.3974  0.5039  0.2000
  152SAPE   H3S16775   3.637   0.168   5.990 -1.1348  0.2501 -0.7268
  152SAPE   C2416776   3.459   0.072   5.932  0.1604 -0.5955  0.6057
  152SAPE   H4R16777   3.485   0.124   5.838  0.5883 -1.4077  0.2647
  152SAPE   H4S16778   3.380   0.133   5.981  2.4802  3.0764  0.2413
  152SAPE   C2516779   3.420  -0.067   5.900  0.1068  0.2432  0.1996
  152SAPE   H5R16780   3.359  -0.117   5.977  2.5554 -0.7534  1.6026
  152SAPE   C2616781   3.459  -0.136   5.788  0.3267 -0.6664  1.2068
  152SAPE   H6R16782   3.423  -0.239   5.773 -1.2010  0.0625 -0.5706
  152SAPE   C2716783   3.544  -0.087   5.661 -0.3297  0.2230 -0.5324
  152SAPE   H7R16784   3.594  -0.172   5.609  0.4061  0.6339 -0.5028
  152SAPE   H7S16785   3.632  -0.025   5.688  0.8199 -2.0303  1.2795
  152SAPE   C2816786   3.464  -0.017   5.557  0.0765  0.3846  0.2649
  152SAPE   H8R16787   3.426   0.078   5.596  0.2120  0.5660 -0.0472
  152SAPE   C2916788   3.443  -0.048   5.432  0.2676  1.1020  0.0331
  152SAPE   H9R16789   3.404   0.030   5.365  0.6463 -0.0952 -1.6525
  152SAPE  C21016790   3.473  -0.177   5.351 -0.8128 -0.1142 -0.6047
  152SAPE  H10R16791   3.403  -0.193   5.265 -2.8021 -2.3622  1.2788
  152SAPE  H10S16792   3.447  -0.266   5.413  0.9402  0.4394  1.0078
  152SAPE  C21116793   3.620  -0.186   5.318 -0.5361  0.5572 -0.5096
  152SAPE  H11R16794   3.684  -0.254   5.376 -2.0604 -0.8902 -0.4681
  152SAPE  C21216795   3.671  -0.129   5.208 -0.0053  0.4316 -0.6386
  152SAPE  H12R16796   3.781  -0.132   5.208  0.0966  2.0555  1.3491
  152SAPE  C21316797   3.602  -0.052   5.099  0.0207 -0.4425 -0.5401
  152SAPE  H13R16798   3.516   0.006   5.138  0.1306 -1.7494  1.8789
  152SAPE  H13S16799   3.560  -0.118   5.020  1.6273  0.6294 -2.3896
  152SAPE  C21416800   3.700   0.046   5.033 -0.0740  0.5755  0.3420
  152SAPE  H14R16801   3.735   0.124   5.102  0.1732 -0.3563  1.2893
  152SAPE  C21516802   3.768   0.028   4.923 -0.8906  0.1290  0.7106
  152SAPE  H15R16803   3.839   0.108   4.896  1.7177 -1.8294  1.3809
  152SAPE  C21616804   3.749  -0.091   4.821 -0.3260 -0.8347  0.3087
  152SAPE  H16R16805   3.656  -0.093   4.760 -0.9040 -1.1462  1.1803
  152SAPE  H16S16806   3.756  -0.189   4.873  0.1669 -1.3304 -0.6671
  152SAPE  C21716807   3.872  -0.102   4.724 -0.2268 -0.3348 -0.3217
  152SAPE  H17R16808   3.854  -0.191   4.659 -2.0312 -0.2820  0.0683
  152SAPE  H17S16809   3.966  -0.121   4.780 -1.0715 -1.6732  0.7011
  152SAPE  C21816810   3.872   0.030   4.642  0.4709 -0.2385  0.1865
  152SAPE  H18R16811   3.877   0.125   4.699 -1.4588 -0.0580  0.0920
  152SAPE  H18S16812   3.774   0.031   4.590  0.8760  0.7213 -0.6080
  152SAPE  C21916813   3.989   0.025   4.536  1.0195  0.4212 -0.2201
  152SAPE  H19R16814   3.977  -0.063   4.469 -0.5900  0.4465 -0.0205
  152SAPE  H19S16815   4.086   0.014   4.588  0.4928  1.9066  1.1578
  152SAPE  C22016816   3.980   0.153   4.453  0.5715 -0.5238  0.5958
  152SAPE  H20R16817   3.880   0.176   4.411  1.5496  1.4538 -0.7956
  152SAPE  H20S16818   4.049   0.165   4.367 -0.5928 -3.1587 -0.8038
  152SAPE  H20T16819   3.999   0.236   4.524 -1.2750 -1.5116  2.3449
  152SAPE   C3316820   4.167  -0.457   6.284 -0.3129 -0.5267 -0.3123
  152SAPE   H3X16821   4.232  -0.388   6.343 -1.4167  0.5232 -0.2854
  152SAPE   H3Y16822   4.215  -0.465   6.184 -2.1163 -1.7175 -1.1146
  152SAPE   C3416823   4.176  -0.592   6.350  0.0703  0.1030 -0.4800
  152SAPE   H4X16824   4.146  -0.590   6.457  2.3773  0.2407  0.2317
  152SAPE   H4Y16825   4.280  -0.632   6.353  0.0765  0.1471 -0.0201
  152SAPE   C3516826   4.103  -0.704   6.277  0.1584  0.4241 -0.0450
  152SAPE   H5X16827   3.997  -0.671   6.290 -0.1538 -0.9578  1.3209
  152SAPE   H5Y16828   4.120  -0.796   6.336  3.7019  1.1147  0.1969
  152SAPE   C3616829   4.156  -0.722   6.129  0.4880 -0.4120 -0.2359
  152SAPE   H6X16830   4.136  -0.624   6.081  0.5274 -0.6479 -0.7411
  152SAPE   H6Y16831   4.092  -0.793   6.072  0.0352 -1.6612  1.7364
  152SAPE   C3716832   4.308  -0.779   6.119  0.1180 -0.5262 -0.2886
  152SAPE   H7X16833   4.302  -0.885   6.087  0.7161 -1.1268  1.4915
  152SAPE   H7Y16834   4.367  -0.777   6.213  1.2987 -2.7798 -0.8947
  152SAPE   C3816835   4.392  -0.698   6.007  0.7605  0.0488  0.0574
  152SAPE   H8X16836   4.500  -0.722   6.019  1.1112  2.5534  3.4701
  152SAPE   H8Y16837   4.390  -0.588   6.024  0.7380 -0.0492  0.7478
  152SAPE   C3916838   4.338  -0.723   5.865  0.3820  0.4691  0.4730
  152SAPE   H9X16839   4.245  -0.664   5.875 -1.2795 -2.3232  3.2281
  152SAPE   H9Y16840   4.301  -0.825   5.844  2.8799 -0.4036 -0.0906
  152SAPE  C31016841   4.444  -0.696   5.762 -0.2325  0.5262 -0.4142
  152SAPE  H10X16842   4.530  -0.766   5.769 -0.3835  0.5201  2.3461
  152SAPE  H10Y16843   4.480  -0.594   5.788 -0.5828  0.4808  0.2761
  152SAPE  C31116844   4.393  -0.693   5.620 -0.1974  0.0080  0.1274
  152SAPE  H11X16845   4.320  -0.610   5.612 -1.2751 -1.0786 -2.1319
  152SAPE  H11Y16846   4.354  -0.791   5.585 -2.7755  0.8758  0.3989
  152SAPE  C31216847   4.499  -0.650   5.518 -0.1468  0.1194 -0.3388
  152SAPE  H12X16848   4.571  -0.734   5.510 -0.8672 -0.4845 -0.6346
  152SAPE  H12Y16849   4.555  -0.566   5.564  1.7860 -1.4246  0.2738
  152SAPE  C31316850   4.444  -0.618   5.384  0.2972 -1.4522 -0.2064
  152SAPE  H13X16851   4.525  -0.592   5.312 -0.9669 -1.9602 -1.8977
  152SAPE  H13Y16852   4.375  -0.531   5.387  0.5364 -1.2933  1.5760
  152SAPE  C31416853   4.378  -0.746   5.323  0.1844 -0.0138  0.4929
  152SAPE  H14X16854   4.282  -0.771   5.374  0.5722 -2.1634  0.2769
  152SAPE  H14Y16855   4.430  -0.844   5.324 -1.0507 -0.6993  1.9389
  152SAPE  C31516856   4.332  -0.724   5.174 -0.5330 -0.4028 -0.6886
  152SAPE  H15X16857   4.291  -0.620   5.181 -0.1598 -0.3554  2.9411
  152SAPE  H15Y16858   4.248  -0.792   5.149 -0.3296 -0.9013 -0.0295
  152SAPE  C31616859   4.445  -0.746   5.068  0.1953  0.2680 -0.4196
  152SAPE  H16X16860   4.462  -0.855   5.060 -0.1277  0.2610 -1.1542
  152SAPE  H16Y16861   4.541  -0.696   5.091  0.6542 -0.8284  0.0842
  152SAPE  C31716862   4.406  -0.685   4.933  0.6216 -0.5629  0.2033
  152SAPE  H17X16863   4.410  -0.575   4.945  0.4943 -0.6882  1.5456
  152SAPE  H17Y16864   4.300  -0.715   4.918  0.0439  1.4073  0.1588
  152SAPE  C31816865   4.502  -0.725   4.820 -0.5503 -0.7717  0.0656
  152SAPE  H18X16866   4.501  -0.646   4.742 -0.2004 -1.5309 -0.7261
  152SAPE  H18Y16867   4.468  -0.822   4.778 -0.3374 -0.3315 -1.1530
  152SAPE  H18Z16868   4.608  -0.739   4.850 -0.1481  0.4362 -0.7095
  153SAPE     N16869   3.485   6.146   6.675  0.8609  0.7567 -0.5260
  153SAPE   HN116870   3.476   6.248   6.657 -0.6265  1.2517  2.4819
  153SAPE   HN216871   3.434   6.083   6.610  0.7511  0.9116 -0.5921
  153SAPE   HN316872   3.455   6.122   6.771  1.1114 -1.1510 -0.8813
  153SAPE   C1216873   3.635   6.101   6.654 -0.3683  0.0765  1.1337
  153SAPE  H12A16874   3.686   6.154   6.737 -2.3411  0.8746  1.9135
  153SAPE  H12B16875   3.658   6.139   6.553 -0.5127 -1.6838  0.3958
  153SAPE   C1116876   3.654   5.949   6.667  0.3402 -0.6819  0.4020
  153SAPE  H11A16877   3.640   5.931   6.776 -0.3845  2.0499  0.8279
  153SAPE  H11B16878   3.753   5.912   6.634  0.2321 -2.3206  1.7832
  153SAPE     P16879   3.587   5.798   6.465 -0.0709 -0.0438 -0.1988
  153SAPE   O1316880   3.657   5.685   6.526  0.4243  0.2635  0.1279
  153SAPE   O1416881   3.458   5.775   6.395 -0.0403 -0.2680 -0.0018
  153SAPE   O1216882   3.545   5.891   6.584 -0.3406 -0.3713 -0.1455
  153SAPE   O1116883   3.684   5.891   6.378  0.3146 -0.1941  0.2815
  153SAPE    C116884   3.618   5.983   6.287 -0.6837 -0.0723 -0.3452
  153SAPE    HA16885   3.513   6.003   6.320 -0.5453 -0.5118  0.3773
  153SAPE    HB16886   3.675   6.078   6.289 -0.6047 -0.0811 -1.6110
  153SAPE    C216887   3.599   5.926   6.144  0.3802 -0.5181  0.0391
  153SAPE    HS16888   3.536   5.836   6.161  1.5749 -1.2017  1.0373
  153SAPE   O2116889   3.717   5.886   6.079  0.3956  0.1852 -0.2632
  153SAPE   C2116890   3.776   5.766   6.105 -0.2789 -0.4217 -0.0927
  153SAPE   O2216891   3.737   5.686   6.184  0.5100  0.0456 -0.5464
  153SAPE   C2216892   3.906   5.763   6.024  0.0941  0.2098  0.1593
  153SAPE   H2R16893   3.965   5.849   6.061  1.2465 -0.6122  0.2947
  153SAPE   H2S16894   3.949   5.667   6.060  0.5022  0.7225  1.0760
  153SAPE    C316895   3.518   6.029   6.051 -0.0070  0.4112 -0.0133
  153SAPE    HX16896   3.592   6.104   6.015 -1.8499  1.0255 -2.8441
  153SAPE    HY16897   3.438   6.070   6.116  0.7774  0.3738  0.9963
  153SAPE   O3116898   3.461   5.967   5.930 -0.3199 -0.0900 -0.4453
  153SAPE   C3116899   3.336   5.916   5.941 -0.1260  0.3259 -0.8031
  153SAPE   O3216900   3.279   5.903   6.051 -0.2588  0.0934  0.6531
  153SAPE   C3216901   3.271   5.871   5.804  0.1099 -0.1416  0.8330
  153SAPE   H2X16902   3.172   5.921   5.797  0.3219  0.1357 -0.2888
  153SAPE   H2Y16903   3.237   5.766   5.792 -0.2768  0.0185  0.5025
  153SAPE   C2316904   3.900   5.785   5.872  0.6060 -0.2515 -0.0901
  153SAPE   H3R16905   3.990   5.839   5.834  0.1751 -0.4505 -1.4619
  153SAPE   H3S16906   3.819   5.860   5.863 -0.2767 -1.3508 -1.8605
  153SAPE   C2416907   3.869   5.654   5.791  0.4284 -0.4354  0.0601
  153SAPE   H4R16908   3.826   5.673   5.690 -0.1751 -2.3402 -0.0836
  153SAPE   H4S16909   3.788   5.589   5.830 -0.0470  0.7252  1.0590
  153SAPE   C2516910   3.994   5.574   5.771 -0.2887 -0.0356 -0.5899
  153SAPE   H5R16911   4.057   5.543   5.855  1.6262 -0.8880 -2.2606
  153SAPE   C2616912   4.048   5.538   5.651 -0.9452 -0.9797 -1.0402
  153SAPE   H6R16913   4.147   5.491   5.651  0.3692  1.5235  0.4179
  153SAPE   C2716914   3.990   5.547   5.513 -0.1802 -0.1444  0.2710
  153SAPE   H7R16915   4.075   5.586   5.454 -1.3998  0.5803 -1.0692
  153SAPE   H7S16916   3.915   5.627   5.497  1.1457  0.5182 -3.7008
  153SAPE   C2816917   3.947   5.410   5.456 -0.2592  0.2090  0.3580
  153SAPE   H8R16918   3.850   5.371   5.491  0.2812 -1.7866 -0.2586
  153SAPE   C2916919   4.005   5.359   5.348  0.5472  0.3984  0.1685
  153SAPE   H9R16920   3.969   5.265   5.302 -0.2803  1.3944 -1.3275
  153SAPE  C21016921   4.143   5.404   5.289 -0.0225  1.2870  0.3297
  153SAPE  H10R16922   4.194   5.458   5.371  2.1912  0.8201 -0.6510
  153SAPE  H10S16923   4.121   5.477   5.208 -1.0472 -0.4960 -1.0724
  153SAPE  C21116924   4.220   5.279   5.236 -0.1854  0.3577 -0.8806
  153SAPE  H11R16925   4.257   5.203   5.306  2.8405 -0.8381 -3.4984
  153SAPE  C21216926   4.248   5.253   5.102 -0.6126  0.9994 -0.8151
  153SAPE  H12R16927   4.304   5.164   5.069  0.0122  0.4229  1.5491
  153SAPE  C21316928   4.220   5.346   4.986  0.2199 -0.5931  0.1721
  153SAPE  H13R16929   4.135   5.412   5.015  0.4266  0.2165 -0.9790
  153SAPE  H13S16930   4.189   5.281   4.901 -3.0579  0.9127  0.0537
  153SAPE  C21416931   4.334   5.448   4.951 -0.2796  0.0518 -0.4689
  153SAPE  H14R16932   4.336   5.533   5.022 -0.1802 -1.4117  1.3714
  153SAPE  C21516933   4.429   5.442   4.856  0.3976 -0.6077 -0.0744
  153SAPE  H15R16934   4.506   5.520   4.846 -0.0472  0.2418  2.4399
  153SAPE  C21616935   4.446   5.322   4.763  0.0068 -0.1353  0.2458
  153SAPE  H16R16936   4.388   5.235   4.798 -1.2427  0.6974  0.3416
  153SAPE  H16S16937   4.554   5.296   4.766  0.0833  0.2174  0.5804
  153SAPE  C21716938   4.400   5.360   4.621 -0.2681 -0.3446  0.1341
  153SAPE  H17R16939   4.447   5.282   4.558 -2.8016 -1.8336 -0.0043
  153SAPE  H17S16940   4.445   5.458   4.593  0.2437 -1.1677 -2.1501
  153SAPE  C21816941   4.248   5.362   4.602 -0.0628 -0.0930  0.6594
  153SAPE  H18R16942   4.201   5.413   4.688 -0.2740 -0.6689  0.8830
  153SAPE  H18S16943   4.217   5.256   4.613 -0.3756  0.0913  1.6138
  153SAPE  C21916944   4.198   5.406   4.461  0.8643 -0.1439 -0.5907
  153SAPE  H19R16945   4.208   5.517   4.455 -0.0910  0.1011  1.5799
  153SAPE  H19S16946   4.090   5.382   4.453  0.1841  1.9769  1.1576
  153SAPE  C22016947   4.282   5.342   4.350  0.0476  0.1254 -0.1300
  153SAPE  H20R16948   4.229   5.364   4.254  1.3424 -2.2570 -1.4700
  153SAPE  H20S16949   4.292   5.232   4.357 -3.4290 -0.1860  2.5826
  153SAPE  H20T16950   4.378   5.397   4.355 -0.1203  0.3808  0.3715
  153SAPE   C3316951   3.347   5.932   5.684  0.4456  0.0493 -0.0884
  153SAPE   H3X16952   3.412   6.020   5.704  0.7499 -0.3394  0.7038
  153SAPE   H3Y16953   3.284   5.960   5.597 -1.6638 -2.6774  0.3987
  153SAPE   C3416954   3.445   5.825   5.643 -0.5280  0.5711  0.0842
  153SAPE   H4X16955   3.402   5.725   5.619  0.8246 -0.4470  1.6965
  153SAPE   H4Y16956   3.509   5.797   5.729 -0.4530  1.6662  0.3968
  153SAPE   C3516957   3.550   5.881   5.540  1.2366 -0.1191 -0.0322
  153SAPE   H5X16958   3.630   5.805   5.528  0.6746 -1.0091  1.5370
  153SAPE   H5Y16959   3.597   5.973   5.579  2.3813 -1.3398  1.5704
  153SAPE   C3616960   3.476   5.903   5.404  0.0688 -0.2038 -0.8367
  153SAPE   H6X16961   3.400   5.980   5.430  0.1322 -0.4096 -0.0144
  153SAPE   H6Y16962   3.412   5.818   5.373  1.6569 -1.8307  0.2078
  153SAPE   C3716963   3.578   5.933   5.296 -0.2437 -0.4011 -0.4739
  153SAPE   H7X16964   3.632   5.836   5.298  1.8929  0.7071  2.6184
  153SAPE   H7Y16965   3.652   6.008   5.331  1.1868 -1.7585 -0.4761
  153SAPE   C3816966   3.518   5.968   5.159  0.1784  0.7020 -0.0428
  153SAPE   H8X16967   3.451   6.055   5.176  1.5263  1.7887 -0.1071
  153SAPE   H8Y16968   3.451   5.884   5.132 -1.6767  2.2841 -0.5778
  153SAPE   C3916969   3.620   5.988   5.060 -0.6161 -0.2864 -0.4925
  153SAPE   H9X16970   3.674   5.893   5.077 -1.6817 -0.7121  0.6091
  153SAPE   H9Y16971   3.691   6.070   5.088  0.0863 -0.6476 -1.1664
  153SAPE  C31016972   3.568   6.018   4.921 -0.0337  0.2181  0.0057
  153SAPE  H10X16973   3.510   6.113   4.918 -0.5771 -0.0918  0.4065
  153SAPE  H10Y16974   3.502   5.937   4.882 -0.0937 -0.5866  1.7030
  153SAPE  C31116975   3.675   6.057   4.811 -0.3044 -0.0334  0.4182
  153SAPE  H11X16976   3.741   5.970   4.790 -1.1946 -0.4321 -0.8565
  153SAPE  H11Y16977   3.736   6.135   4.861 -0.0756 -0.4409  0.7802
  153SAPE  C31216978   3.624   6.116   4.683 -0.0582  0.0486 -0.1669
  153SAPE  H12X16979   3.700   6.143   4.607  1.0670 -0.7683  0.6424
  153SAPE  H12Y16980   3.570   6.205   4.720  1.1607  0.2740  1.1168
  153SAPE  C31316981   3.527   6.027   4.601 -0.2438 -0.3462 -0.5407
  153SAPE  H13X16982   3.432   6.022   4.658  0.8970  1.8991  1.7686
  153SAPE  H13Y16983   3.566   5.924   4.588 -2.9461 -1.1827 -3.1581
  153SAPE  C31416984   3.512   6.103   4.463  0.3034  0.1921 -0.0653
  153SAPE  H14X16985   3.586   6.184   4.443  1.0970 -0.6013 -0.4065
  153SAPE  H14Y16986   3.413   6.154   4.464 -0.0553 -0.3936 -1.6196
  153SAPE  C31516987   3.506   6.012   4.341  0.5571 -0.1115  1.2137
  153SAPE  H15X16988   3.431   5.931   4.355  0.4724 -0.2576  0.0177
  153SAPE  H15Y16989   3.599   5.952   4.331 -0.2354 -1.2681  0.5563
  153SAPE  C31616990   3.462   6.092   4.216  0.5026  0.3501  0.6863
  153SAPE  H16X16991   3.547   6.157   4.187  1.2731  0.1348  2.3823
  153SAPE  H16Y16992   3.379   6.156   4.254 -0.2531  1.2569 -2.1627
  153SAPE  C31716993   3.409   5.999   4.112 -0.2020  0.0664  0.2044
  153SAPE  H17X16994   3.333   6.055   4.054 -3.0551 -2.6572  1.0199
  153SAPE  H17Y16995   3.345   5.928   4.169 -2.3118  0.7420 -1.2083
  153SAPE  C31816996   3.510   5.923   4.024  0.1424 -0.4977 -0.1007
  153SAPE  H18X16997   3.463   5.830   3.985  0.2360 -0.9039  0.7225
  153SAPE  H18Y16998   3.595   5.878   4.079  1.1209 -0.8242 -1.8216
  153SAPE  H18Z16999   3.554   5.977   3.938  0.3787  0.2133  0.4637
  154SAPE     N17000   6.613   6.561   6.533 -0.5329  0.4737  0.2923
  154SAPE   HN117001   6.518   6.564   6.575 -0.6856 -2.9615  0.4682
  154SAPE   HN217002   6.682   6.504   6.586 -0.5078  2.2346  2.3032
  154SAPE   HN317003   6.653   6.657   6.534  1.2052 -0.1815  2.6196
  154SAPE   C1217004   6.609   6.511   6.391  0.0984 -0.3017  0.7754
  154SAPE  H12A17005   6.520   6.554   6.341  2.1163  0.7713 -2.2022
  154SAPE  H12B17006   6.603   6.401   6.404 -0.2397 -0.1971  1.5464
  154SAPE   C1117007   6.739   6.542   6.310 -0.0561 -0.6617 -0.0890
  154SAPE  H11A17008   6.754   6.651   6.326 -2.5362 -0.5918  2.4660
  154SAPE  H11B17009   6.725   6.520   6.202  0.3407  3.1761 -1.0672
  154SAPE     P17010   6.895   6.338   6.355 -0.1273 -0.0042 -0.1444
  154SAPE   O1317011   7.040   6.323   6.396  0.9106  0.3366 -0.0096
  154SAPE   O1417012   6.795   6.255   6.427 -0.0566  0.5109  0.0424
  154SAPE   O1217013   6.854   6.483   6.367  0.4707  0.0621  0.2670
  154SAPE   O1117014   6.886   6.299   6.197 -0.4332  0.2320  0.4111
  154SAPE    C117015   6.812   6.188   6.152 -0.4195  0.5546  0.9107
  154SAPE    HA17016   6.709   6.185   6.194 -0.5456  2.8494  0.8748
  154SAPE    HB17017   6.804   6.205   6.043 -0.4370 -2.1190  0.4359
  154SAPE    C217018   6.889   6.054   6.178 -0.1622 -0.6379 -0.3828
  154SAPE    HS17019   6.919   6.053   6.285  2.6744 -2.2086 -1.0760
  154SAPE   O2117020   7.001   6.067   6.084 -0.6429 -0.3010 -0.6203
  154SAPE   C2117021   7.107   6.004   6.130  0.7601 -0.1232  0.2452
  154SAPE   O2217022   7.114   5.936   6.231 -0.2046 -0.4424 -0.1986
  154SAPE   C2217023   7.228   6.029   6.046 -0.1147 -0.6950 -0.2398
  154SAPE   H2R17024   7.197   6.076   5.950  1.4833  1.2047  0.1075
  154SAPE   H2S17025   7.289   6.099   6.107 -0.3473 -0.0072 -0.7943
  154SAPE    C317026   6.800   5.930   6.145  0.4190 -0.6072  0.5497
  154SAPE    HX17027   6.732   5.969   6.066  0.7763  0.6519  0.8442
  154SAPE    HY17028   6.742   5.924   6.239 -2.5462 -0.2575 -1.1398
  154SAPE   O3117029   6.866   5.800   6.118  0.1304 -0.1084  0.2657
  154SAPE   C3117030   6.773   5.716   6.060  1.2089  0.2563 -0.4546
  154SAPE   O3217031   6.664   5.746   6.023 -0.2828 -0.2775 -1.1418
  154SAPE   C3217032   6.846   5.583   6.022  0.8993  0.3961 -0.1911
  154SAPE   H2X17033   6.848   5.537   6.123 -0.6192  1.5462  0.4010
  154SAPE   H2Y17034   6.945   5.613   5.980  1.0618 -1.0456 -0.8852
  154SAPE   C2317035   7.306   5.905   6.005 -0.4096 -0.4869  0.4569
  154SAPE   H3R17036   7.240   5.823   5.971  1.6121 -2.8139  1.8224
  154SAPE   H3S17037   7.353   5.865   6.098 -1.9002 -1.9030  0.6520
  154SAPE   C2417038   7.402   5.941   5.889  0.7634 -0.1902 -0.5762
  154SAPE   H4R17039   7.340   5.970   5.801  2.5465 -1.3740 -2.3314
  154SAPE   H4S17040   7.459   5.846   5.873  0.0371 -1.0600  1.6805
  154SAPE   C2517041   7.504   6.051   5.912  0.1179 -0.0131  0.2519
  154SAPE   H5R17042   7.507   6.087   6.016 -0.5510 -1.3102  0.7353
  154SAPE   C2617043   7.587   6.109   5.820  0.2115 -0.6036  0.3743
  154SAPE   H6R17044   7.679   6.163   5.847 -0.7308  1.3863 -0.2382
  154SAPE   C2717045   7.583   6.063   5.671  0.0692 -0.4327 -0.5215
  154SAPE   H7R17046   7.564   6.145   5.598 -0.6049 -1.2688 -1.2998
  154SAPE   H7S17047   7.513   5.979   5.651  0.3170 -0.9720  0.7204
  154SAPE   C2817048   7.727   6.016   5.642  0.1770 -0.1807 -0.3121
  154SAPE   H8R17049   7.756   5.921   5.690 -0.8312 -1.1781 -1.5738
  154SAPE   C2917050   7.804   6.072   5.544  0.2110  0.3170 -0.7638
  154SAPE   H9R17051   7.911   6.045   5.549 -0.0442 -0.5684  0.4038
  154SAPE  C21017052   7.774   6.186   5.450  0.2357 -0.5754 -0.2072
  154SAPE  H10R17053   7.793   6.285   5.497  2.1934 -0.4302 -1.1972
  154SAPE  H10S17054   7.668   6.176   5.418  0.3128  0.9135 -0.9789
  154SAPE  C21117055   7.854   6.168   5.324 -0.4250  0.7832 -0.1785
  154SAPE  H11R17056   7.804   6.100   5.254 -0.6714 -0.2268  0.9641
  154SAPE  C21217057   7.957   6.246   5.281 -0.9446 -0.2214 -0.5116
  154SAPE  H12R17058   8.015   6.217   5.193 -1.2656  1.0569 -1.1699
  154SAPE  C21317059   8.017   6.360   5.363  0.1769  0.4895 -0.4070
  154SAPE  H13R17060   8.104   6.318   5.419 -0.4488  0.0017  0.2139
  154SAPE  H13S17061   7.945   6.395   5.441  2.9431 -0.5487  2.8961
  154SAPE  C21417062   8.063   6.475   5.273 -0.1924 -0.0091  0.3454
  154SAPE  H14R17063   7.982   6.527   5.220 -0.6954  2.0430  2.8924
  154SAPE  C21517064   8.185   6.526   5.245  0.5374  0.2852  0.0115
  154SAPE  H15R17065   8.192   6.606   5.170 -0.0985 -0.0555 -0.4185
  154SAPE  C21617066   8.322   6.482   5.305 -1.0643 -0.1245  0.3041
  154SAPE  H16R17067   8.365   6.418   5.225  1.5871 -0.0419  1.5587
  154SAPE  H16S17068   8.301   6.422   5.396 -0.5177 -1.0958 -0.1952
  154SAPE  C21717069   8.424   6.597   5.332  0.0663 -0.4830 -0.4314
  154SAPE  H17R17070   8.514   6.548   5.374 -0.1809 -1.1890 -0.7111
  154SAPE  H17S17071   8.384   6.672   5.404  2.6741  0.7395 -0.1230
  154SAPE  C21817072   8.449   6.680   5.199  0.1911  0.5342  0.0473
  154SAPE  H18R17073   8.355   6.734   5.174 -0.1330  0.4355  0.9966
  154SAPE  H18S17074   8.465   6.614   5.112  0.3798  2.3187 -1.3370
  154SAPE  C21917075   8.561   6.784   5.206 -0.2939 -0.8001  0.1840
  154SAPE  H19R17076   8.661   6.750   5.242  0.1042  0.5850  0.4594
  154SAPE  H19S17077   8.522   6.869   5.266  2.4191 -0.3089  1.3794
  154SAPE  C22017078   8.572   6.840   5.060 -0.1435 -0.1977  0.1861
  154SAPE  H20R17079   8.483   6.854   4.995  1.7307 -0.9808 -2.7046
  154SAPE  H20S17080   8.643   6.776   5.004 -0.5386  0.7542 -1.4451
  154SAPE  H20T17081   8.614   6.942   5.074 -0.6048  0.1456 -0.8364
  154SAPE   C3317082   6.775   5.493   5.921  0.6170  0.2364 -0.2223
  154SAPE   H3X17083   6.671   5.475   5.958 -0.0415  0.3986 -1.9135
  154SAPE   H3Y17084   6.824   5.394   5.930 -1.8150 -1.0241  0.3050
  154SAPE   C3417085   6.769   5.543   5.775  0.0927 -0.0962 -0.1224
  154SAPE   H4X17086   6.741   5.649   5.757  3.6804  1.1659  0.9672
  154SAPE   H4Y17087   6.703   5.471   5.722 -0.1046 -1.1816  1.5538
  154SAPE   C3517088   6.899   5.508   5.700 -0.4526  0.2527  0.0630
  154SAPE   H5X17089   6.933   5.402   5.705 -0.2981  0.2334 -1.0634
  154SAPE   H5Y17090   6.973   5.575   5.748  0.4983  1.0449 -2.3542
  154SAPE   C3617091   6.880   5.543   5.555  0.4585  0.1444  0.2790
  154SAPE   H6X17092   6.842   5.647   5.548 -0.1403 -0.1142 -0.3935
  154SAPE   H6Y17093   6.803   5.469   5.527 -1.0434  1.6888  0.1738
  154SAPE   C3717094   7.008   5.536   5.473 -0.9514 -0.1052  0.9374
  154SAPE   H7X17095   7.081   5.591   5.536 -1.9660  0.2337  1.8369
  154SAPE   H7Y17096   6.999   5.592   5.378  1.8095  0.2742  0.7941
  154SAPE   C3817097   7.043   5.392   5.431  0.3937  0.2920 -0.7155
  154SAPE   H8X17098   6.947   5.337   5.438 -0.9690  2.5560 -0.7358
  154SAPE   H8Y17099   7.113   5.354   5.508  1.0017  0.7253 -1.0460
  154SAPE   C3917100   7.117   5.369   5.300  0.2778 -0.1241 -0.7905
  154SAPE   H9X17101   7.060   5.413   5.215 -1.8647  1.9929  1.5660
  154SAPE   H9Y17102   7.140   5.265   5.268  1.2145  0.1124 -0.9139
  154SAPE  C31017103   7.256   5.436   5.302 -0.1763  0.5846 -0.2545
  154SAPE  H10X17104   7.317   5.382   5.377 -0.4719 -0.4354 -0.7333
  154SAPE  H10Y17105   7.249   5.538   5.345 -2.5306 -0.0721  1.1236
  154SAPE  C31117106   7.328   5.414   5.170  0.1642 -0.2534 -0.4025
  154SAPE  H11X17107   7.307   5.314   5.126 -0.4397 -1.0175  1.5349
  154SAPE  H11Y17108   7.437   5.412   5.192 -0.2002 -1.0475  1.4699
  154SAPE  C31217109   7.284   5.508   5.055  0.3674  0.0541 -0.4660
  154SAPE  H12X17110   7.318   5.613   5.066 -1.0140  0.5701 -0.9188
  154SAPE  H12Y17111   7.173   5.508   5.052  0.3481  1.7172 -0.5281
  154SAPE  C31317112   7.343   5.470   4.924 -0.0858  0.6116  0.1504
  154SAPE  H13X17113   7.302   5.530   4.840  2.4445  0.2097 -1.4906
  154SAPE  H13Y17114   7.328   5.362   4.905 -0.2833  0.6489  0.0879
  154SAPE  C31417115   7.492   5.507   4.924  0.8853  0.8116  0.0934
  154SAPE  H14X17116   7.547   5.426   4.978 -0.0818  1.5577  2.2999
  154SAPE  H14Y17117   7.498   5.599   4.986  1.7386  0.3174  0.7837
  154SAPE  C31517118   7.563   5.509   4.790  0.0892 -0.3593 -0.5756
  154SAPE  H15X17119   7.517   5.592   4.731  1.5112 -0.3718 -1.7513
  154SAPE  H15Y17120   7.576   5.416   4.730  2.1165 -1.5489  1.5506
  154SAPE  C31617121   7.719   5.551   4.825  0.1538 -0.1611 -0.2962
  154SAPE  H16X17122   7.748   5.458   4.879 -0.2919  0.1329  0.4525
  154SAPE  H16Y17123   7.718   5.642   4.888 -1.2913  0.6446 -1.4300
  154SAPE  C31717124   7.816   5.584   4.707  0.0651 -0.0905 -1.1104
  154SAPE  H17X17125   7.919   5.604   4.745  0.1396  0.2701 -1.4969
  154SAPE  H17Y17126   7.777   5.670   4.649  0.7163  2.5630  2.0933
  154SAPE  C31817127   7.826   5.457   4.620 -0.4042 -0.2658  0.9650
  154SAPE  H18X17128   7.858   5.370   4.682 -1.5698 -0.4490  1.3446
  154SAPE  H18Y17129   7.903   5.471   4.542 -0.5962 -0.0876  0.8075
  154SAPE  H18Z17130   7.734   5.437   4.561 -0.7248 -0.8285  1.6395
  155SAPE     N17131   2.226   5.989   6.569  0.5011 -0.0447 -0.6210
  155SAPE   HN117132   2.234   5.892   6.532 -1.3436 -0.8529  0.9213
  155SAPE   HN217133   2.148   6.041   6.523 -1.7459 -1.0658  1.7824
  155SAPE   HN317134   2.316   6.041   6.559  2.1449 -3.0878 -3.5954
  155SAPE   C1217135   2.210   5.989   6.719  0.3562  0.4249  0.0990
  155SAPE  H12A17136   2.227   6.093   6.754 -2.0800  0.7219  0.5748
  155SAPE  H12B17137   2.296   5.928   6.753  0.2498  0.2918  0.1280
  155SAPE   C1117138   2.066   5.960   6.749  0.2473  0.7049  0.2027
  155SAPE  H11A17139   2.012   6.054   6.724  0.0647  0.8763  1.1825
  155SAPE  H11B17140   2.052   5.937   6.857 -1.1907 -0.9298 -0.2953
  155SAPE     P17141   1.908   5.760   6.709  0.1086 -0.0360 -0.0193
  155SAPE   O1317142   1.944   5.634   6.777 -0.3956  0.2263  0.1373
  155SAPE   O1417143   1.803   5.848   6.778 -0.1792  0.0867  0.7099
  155SAPE   O1217144   2.030   5.849   6.673 -0.9065  0.1628  0.0585
  155SAPE   O1117145   1.855   5.727   6.566  0.2035 -0.2358 -0.3097
  155SAPE    C117146   1.948   5.715   6.460  0.9414  0.0293 -0.5516
  155SAPE    HA17147   1.988   5.817   6.442 -0.5552  1.2518  2.3587
  155SAPE    HB17148   2.032   5.647   6.486 -0.0177 -1.2232 -0.6583
  155SAPE    C217149   1.882   5.641   6.335 -0.3011  0.3181 -0.8029
  155SAPE    HS17150   1.942   5.612   6.247 -0.8821  0.2565 -1.1829
  155SAPE   O2117151   1.780   5.728   6.283  0.2720  0.6035  0.1028
  155SAPE   C2117152   1.833   5.817   6.201 -0.1001 -0.5564  0.6758
  155SAPE   O2217153   1.959   5.840   6.195  0.2178  0.1272 -0.6826
  155SAPE   C2217154   1.725   5.866   6.104  0.4737  0.0186  0.3919
  155SAPE   H2R17155   1.641   5.795   6.104  0.9981 -0.6291 -0.8391
  155SAPE   H2S17156   1.703   5.966   6.148  0.2628 -0.2405  0.8780
  155SAPE    C317157   1.826   5.505   6.371 -0.0340  0.4171 -0.1607
  155SAPE    HX17158   1.751   5.518   6.451 -0.7042  0.9617 -0.8613
  155SAPE    HY17159   1.911   5.451   6.417 -1.0010 -1.2651 -0.2917
  155SAPE   O3117160   1.766   5.431   6.263  0.5361  0.2071 -0.4543
  155SAPE   C3117161   1.692   5.318   6.308  0.1905 -0.1243 -0.0912
  155SAPE   O3217162   1.650   5.302   6.419  0.5132  0.7146  0.0775
  155SAPE   C3217163   1.678   5.221   6.188  0.7641 -0.5841 -0.4800
  155SAPE   H2X17164   1.683   5.277   6.092 -1.1978 -1.9085 -1.4251
  155SAPE   H2Y17165   1.576   5.179   6.191  0.1576  0.8610 -0.1031
  155SAPE   C2317166   1.792   5.886   5.964 -0.3006 -0.6162  0.0960
  155SAPE   H3R17167   1.814   5.786   5.921 -0.9699 -0.2185 -1.2116
  155SAPE   H3S17168   1.884   5.949   5.966 -0.5510 -0.2325 -0.3422
  155SAPE   C2417169   1.696   5.956   5.864  0.6107 -0.0826  0.1359
  155SAPE   H4R17170   1.593   5.921   5.886 -0.0185  1.5611 -0.0302
  155SAPE   H4S17171   1.739   5.939   5.763 -0.8068  2.3909 -0.9743
  155SAPE   C2517172   1.690   6.110   5.871 -0.9899  0.4561 -0.9418
  155SAPE   H5R17173   1.593   6.149   5.904 -2.6150 -3.0023 -1.1515
  155SAPE   C2617174   1.774   6.193   5.794  0.1188 -0.1692  0.5662
  155SAPE   H6R17175   1.759   6.302   5.795 -2.3668 -0.4563  0.8476
  155SAPE   C2717176   1.895   6.160   5.711 -0.5876  0.7034 -0.2597
  155SAPE   H7R17177   1.941   6.067   5.752 -1.0058 -0.0934 -1.5447
  155SAPE   H7S17178   1.979   6.232   5.723 -0.0992  0.0041  0.7723
  155SAPE   C2817179   1.866   6.110   5.570 -0.2727 -0.3122  0.8064
  155SAPE   H8R17180   1.805   6.018   5.570 -3.4569  1.2257 -5.3759
  155SAPE   C2917181   1.877   6.172   5.455 -0.0539 -0.9861 -1.0611
  155SAPE   H9R17182   1.856   6.113   5.365  0.8973 -1.6561 -0.8659
  155SAPE  C21017183   1.937   6.306   5.433 -0.1494  0.3538 -0.0315
  155SAPE  H10R17184   2.034   6.300   5.379 -0.4271  0.7324 -0.5793
  155SAPE  H10S17185   1.969   6.360   5.525  2.2037 -2.1876  0.7640
  155SAPE  C21117186   1.845   6.390   5.352 -0.0505  0.4369  0.5624
  155SAPE  H11R17187   1.743   6.387   5.392  0.3351 -2.1445  1.4753
  155SAPE  C21217188   1.869   6.478   5.252 -0.2285  0.4859 -0.1558
  155SAPE  H12R17189   1.783   6.505   5.189 -0.1400  0.0195 -0.4840
  155SAPE  C21317190   1.995   6.514   5.180  0.1268 -0.8458  0.0792
  155SAPE  H13R17191   2.082   6.463   5.229 -1.6561 -4.2705 -0.0141
  155SAPE  H13S17192   2.006   6.623   5.194  2.0421 -1.2170  2.1410
  155SAPE  C21417193   1.993   6.483   5.031 -0.2935  0.3098  0.4337
  155SAPE  H14R17194   1.964   6.378   5.016  0.2160 -0.0113  1.5181
  155SAPE  C21517195   1.999   6.572   4.930  0.7202  0.8341 -0.1175
  155SAPE  H15R17196   1.984   6.521   4.833  0.9483  0.2659  0.1397
  155SAPE  C21617197   2.020   6.724   4.940 -0.4006 -0.1840 -0.7731
  155SAPE  H16R17198   2.036   6.754   5.046 -0.6411 -0.8087 -0.5532
  155SAPE  H16S17199   1.945   6.798   4.905  0.5510  1.6487  0.8750
  155SAPE  C21717200   2.154   6.737   4.871  0.2355  0.4822  0.1651
  155SAPE  H17R17201   2.139   6.716   4.763 -1.4793 -0.6452  0.5793
  155SAPE  H17S17202   2.233   6.669   4.911 -0.6920 -0.3921  0.5553
  155SAPE  C21817203   2.203   6.881   4.904  0.2902 -0.2504 -0.6554
  155SAPE  H18R17204   2.194   6.894   5.014  0.9690 -1.5279 -0.4413
  155SAPE  H18S17205   2.132   6.962   4.874  0.9721  0.9422  0.8269
  155SAPE  C21917206   2.333   6.923   4.833  0.0522 -0.0562 -0.3227
  155SAPE  H19R17207   2.338   6.901   4.725  0.7827 -2.6392  0.1755
  155SAPE  H19S17208   2.417   6.876   4.889 -0.1684  0.1631  0.2052
  155SAPE  C22017209   2.351   7.072   4.860 -0.0267 -0.1423 -0.0870
  155SAPE  H20R17210   2.458   7.100   4.857  0.1296 -0.8153 -1.0930
  155SAPE  H20S17211   2.305   7.094   4.959 -0.2538  1.5519 -0.5422
  155SAPE  H20T17212   2.304   7.137   4.783  1.0267  1.5980  0.6707
  155SAPE   C3317213   1.781   5.113   6.187  0.1024  0.9599 -0.3265
  155SAPE   H3X17214   1.742   5.027   6.245 -2.2476  1.0773 -1.6045
  155SAPE   H3Y17215   1.878   5.137   6.236  0.5217 -0.1475 -0.5869
  155SAPE   C3417216   1.820   5.070   6.043  0.2619 -0.1121 -0.2835
  155SAPE   H4X17217   1.728   5.044   5.987 -0.7033 -0.1744  1.2777
  155SAPE   H4Y17218   1.874   4.974   6.060  1.3029  0.2786 -1.2423
  155SAPE   C3517219   1.917   5.161   5.974 -0.0495 -0.4027 -0.0609
  155SAPE   H5X17220   1.988   5.195   6.053 -0.9045  0.9943  0.1322
  155SAPE   H5Y17221   1.863   5.254   5.948  2.3776  1.6394  1.7546
  155SAPE   C3617222   1.990   5.105   5.850  0.3370  0.3783  0.2022
  155SAPE   H6X17223   2.035   5.008   5.880 -1.2926  0.2151  2.3633
  155SAPE   H6Y17224   2.077   5.165   5.815  1.2652 -1.6028 -1.1003
  155SAPE   C3717225   1.897   5.083   5.733  0.3388  0.6439  0.2822
  155SAPE   H7X17226   1.856   5.182   5.701  0.9368  0.5586 -0.7810
  155SAPE   H7Y17227   1.817   5.013   5.764  0.5173  0.5681  0.5689
  155SAPE   C3817228   1.984   5.010   5.627 -0.1234  0.0937 -0.2783
  155SAPE   H8X17229   2.032   4.920   5.672 -0.8357 -2.0533 -3.4767
  155SAPE   H8Y17230   2.069   5.080   5.607  0.6804 -0.7958 -0.0490
  155SAPE   C3917231   1.909   4.971   5.505 -0.7371  0.2782 -0.4666
  155SAPE   H9X17232   1.817   4.912   5.528 -1.9702  1.5368 -1.8855
  155SAPE   H9Y17233   1.985   4.918   5.444  1.7260  2.5377  0.4740
  155SAPE  C31017234   1.850   5.086   5.417 -0.0044  0.0927 -0.3034
  155SAPE  H10X17235   1.925   5.164   5.389 -0.5667  0.7889  0.0882
  155SAPE  H10Y17236   1.764   5.132   5.471 -0.4434 -0.8689 -0.1754
  155SAPE  C31117237   1.785   5.036   5.281  0.0292 -0.8428  0.5889
  155SAPE  H11X17238   1.702   4.969   5.312  1.3131 -2.3438  0.9152
  155SAPE  H11Y17239   1.855   4.972   5.222  0.0937  0.9614 -1.4368
  155SAPE  C31217240   1.732   5.152   5.193 -0.1043 -0.4674  0.2042
  155SAPE  H12X17241   1.813   5.204   5.136 -0.3969  0.5611  0.6937
  155SAPE  H12Y17242   1.677   5.224   5.256 -1.0993 -0.8806 -0.1798
  155SAPE  C31317243   1.627   5.103   5.084 -0.4093 -0.8821  1.3235
  155SAPE  H13X17244   1.612   5.189   5.016  3.1713 -1.1482 -0.0246
  155SAPE  H13Y17245   1.539   5.052   5.131 -0.6897 -1.5953  0.0634
  155SAPE  C31417246   1.697   4.997   4.993  0.1409  0.1627 -0.2783
  155SAPE  H14X17247   1.681   4.898   5.041 -0.6327 -0.4972 -1.8217
  155SAPE  H14Y17248   1.805   5.022   4.986  0.2640 -0.5572 -1.1679
  155SAPE  C31517249   1.640   4.988   4.859 -0.3557 -0.1857  0.1226
  155SAPE  H15X17250   1.719   4.998   4.781 -0.9651 -1.9433 -0.7647
  155SAPE  H15Y17251   1.576   5.079   4.850 -0.5968 -0.1843  1.5493
  155SAPE  C31617252   1.544   4.869   4.832  0.0663 -0.2504 -0.5557
  155SAPE  H16X17253   1.481   4.869   4.924  3.1710 -2.4147  1.7862
  155SAPE  H16Y17254   1.596   4.772   4.845 -1.3137 -0.7802  1.6901
  155SAPE  C31717255   1.465   4.877   4.702  0.0767  0.2721 -0.2208
  155SAPE  H17X17256   1.493   4.806   4.621 -1.6347  0.2871 -0.8615
  155SAPE  H17Y17257   1.475   4.978   4.656 -0.1594  0.8050  0.8549
  155SAPE  C31817258   1.313   4.861   4.713 -0.2685 -0.1255 -0.4295
  155SAPE  H18X17259   1.289   4.753   4.721 -0.3696 -0.2548 -2.0401
  155SAPE  H18Y17260   1.252   4.903   4.630 -1.5098 -0.1166  0.4627
  155SAPE  H18Z17261   1.277   4.911   4.805  0.0117  0.3672 -0.5862
  156SAPE     N17262   4.479   0.362   6.545 -0.6249  0.0481  0.1219
  156SAPE   HN117263   4.382   0.399   6.546  0.0659  1.9483  0.3520
  156SAPE   HN217264   4.479   0.258   6.545  0.4650  0.0337 -0.5788
  156SAPE   HN317265   4.530   0.391   6.630  0.4626  1.3249 -0.9250
  156SAPE   C1217266   4.544   0.408   6.418  0.6083  0.0218 -0.1106
  156SAPE  H12A17267   4.546   0.519   6.420 -2.1903  0.1536  1.8196
  156SAPE  H12B17268   4.487   0.373   6.329 -2.3221  2.1513  0.7851
  156SAPE   C1117269   4.694   0.363   6.412  1.1758  0.0996  0.4811
  156SAPE  H11A17270   4.745   0.422   6.333  2.0575  0.8492  1.5867
  156SAPE  H11B17271   4.676   0.257   6.382 -1.2268  0.9239 -1.2416
  156SAPE     P17272   4.835   0.238   6.609 -0.0876 -0.6850 -0.1723
  156SAPE   O1317273   4.975   0.280   6.640  0.0901  0.1752 -0.3199
  156SAPE   O1417274   4.747   0.195   6.721  0.0821 -0.0005 -0.1331
  156SAPE   O1217275   4.762   0.359   6.539  0.1280  0.1084 -0.5075
  156SAPE   O1117276   4.844   0.126   6.503 -0.4878  0.0950 -0.2363
  156SAPE    C117277   4.968   0.095   6.440 -0.5535  0.4093 -0.7216
  156SAPE    HA17278   5.054   0.087   6.511 -1.5252  0.7776  0.5433
  156SAPE    HB17279   4.960  -0.001   6.385  0.0520  1.2355 -2.2861
  156SAPE    C217280   5.011   0.187   6.330  0.3884  0.3998 -0.1288
  156SAPE    HS17281   5.021   0.293   6.361  0.4344 -0.7189  4.2591
  156SAPE   O2117282   4.907   0.184   6.230 -0.2671 -0.1973  0.4248
  156SAPE   C2117283   4.913   0.252   6.116  0.6537 -0.0757 -0.7049
  156SAPE   O2217284   5.008   0.320   6.078 -0.7735  0.2697  0.3577
  156SAPE   C2217285   4.783   0.220   6.034  0.6509 -0.5737 -0.0816
  156SAPE   H2R17286   4.781   0.112   6.008 -1.6842 -0.3845 -0.9667
  156SAPE   H2S17287   4.699   0.234   6.106  1.9855 -0.7904  1.5977
  156SAPE    C317288   5.164   0.167   6.287  0.6593  0.1123  0.2539
  156SAPE    HX17289   5.236   0.162   6.371  0.4307  2.9395  0.7250
  156SAPE    HY17290   5.194   0.253   6.224 -0.8862  0.5697  0.0959
  156SAPE   O3117291   5.164   0.056   6.193 -0.5822  0.0342  0.0144
  156SAPE   C3117292   5.196  -0.063   6.233  0.0569 -0.5828  0.8940
  156SAPE   O3217293   5.182  -0.104   6.347 -0.0231 -0.5991 -0.6707
  156SAPE   C3217294   5.210  -0.151   6.111  0.3627  0.2727 -0.0718
  156SAPE   H2X17295   5.307  -0.204   6.122 -0.2630 -0.7745  0.4890
  156SAPE   H2Y17296   5.185  -0.093   6.020 -0.3767 -1.4959 -1.0464
  156SAPE   C2317297   4.782   0.314   5.908  0.3277  0.1569 -0.4743
  156SAPE   H3R17298   4.865   0.277   5.844 -0.0690 -0.6768 -0.5247
  156SAPE   H3S17299   4.794   0.422   5.933 -0.4744  0.3768 -1.0104
  156SAPE   C2417300   4.663   0.285   5.814 -0.2362 -0.0113 -0.3704
  156SAPE   H4R17301   4.584   0.279   5.892  1.7976 -0.4451  1.7894
  156SAPE   H4S17302   4.669   0.183   5.770 -0.1925 -0.4075  0.5194
  156SAPE   C2517303   4.639   0.386   5.703 -0.5272 -0.1898 -0.0778
  156SAPE   H5R17304   4.663   0.489   5.734  2.6431 -0.3732 -1.4928
  156SAPE   C2617305   4.603   0.362   5.580 -0.6075 -0.8672  0.7432
  156SAPE   H6R17306   4.585   0.447   5.514  2.8361  0.2904  1.0983
  156SAPE   C2717307   4.561   0.231   5.518 -0.0302 -0.1829 -0.0452
  156SAPE   H7R17308   4.460   0.249   5.476 -0.4391  0.9457  1.3369
  156SAPE   H7S17309   4.545   0.152   5.595 -0.1379  0.9915  1.1662
  156SAPE   C2817310   4.644   0.177   5.404  0.0815  0.8847 -1.0781
  156SAPE   H8R17311   4.744   0.139   5.426  0.1165  0.1389 -2.3799
  156SAPE   C2917312   4.608   0.164   5.278  0.3869  0.3640  0.4217
  156SAPE   H9R17313   4.684   0.129   5.206 -1.8058 -1.0907 -1.3110
  156SAPE  C21017314   4.486   0.209   5.207 -0.5069 -0.2263  0.3455
  156SAPE  H10R17315   4.404   0.251   5.269 -1.4709 -1.0983 -0.2920
  156SAPE  H10S17316   4.439   0.123   5.155  0.5974  0.8523 -2.6959
  156SAPE  C21117317   4.525   0.310   5.091 -0.0762 -0.3828  0.9410
  156SAPE  H11R17318   4.527   0.415   5.126 -1.9552  0.1891 -0.5101
  156SAPE  C21217319   4.563   0.282   4.962  0.1975 -0.1063 -0.3330
  156SAPE  H12R17320   4.577   0.374   4.904 -0.2524  0.1975  0.0255
  156SAPE  C21317321   4.577   0.147   4.896 -0.0793 -0.2795 -0.4466
  156SAPE  H13R17322   4.637   0.076   4.957  1.4833 -2.3983 -4.1065
  156SAPE  H13S17323   4.631   0.152   4.799  0.8045 -0.3785  0.0310
  156SAPE  C21417324   4.440   0.099   4.853  0.1938 -0.3097  0.7755
  156SAPE  H14R17325   4.383   0.055   4.936  1.2457  0.7999  2.1303
  156SAPE  C21517326   4.372   0.123   4.740 -0.3089  0.3791 -0.2757
  156SAPE  H15R17327   4.277   0.071   4.721  0.1829 -0.3052 -0.9387
  156SAPE  C21617328   4.419   0.202   4.622 -0.0883  0.5330  0.3224
  156SAPE  H16R17329   4.514   0.159   4.585  0.7537  3.7667 -1.7105
  156SAPE  H16S17330   4.419   0.311   4.645 -0.3295  0.6558 -0.2463
  156SAPE  C21717331   4.323   0.199   4.504  0.5018 -0.1732 -0.2722
  156SAPE  H17R17332   4.221   0.222   4.542  0.5706 -1.4077  0.6934
  156SAPE  H17S17333   4.317   0.095   4.467  0.3065 -0.3239  0.1764
  156SAPE  C21817334   4.366   0.272   4.376 -0.3269  0.6580  0.3919
  156SAPE  H18R17335   4.465   0.227   4.353 -0.7027 -0.9222  1.7078
  156SAPE  H18S17336   4.383   0.381   4.391  0.9737  0.6584 -0.8493
  156SAPE  C21917337   4.274   0.257   4.253 -0.3217  0.1363  0.3715
  156SAPE  H19R17338   4.175   0.306   4.266 -0.4049  1.1982 -3.1686
  156SAPE  H19S17339   4.269   0.146   4.247  0.2239  0.1493 -0.4568
  156SAPE  C22017340   4.338   0.323   4.129  0.3411 -0.0586 -0.1542
  156SAPE  H20R17341   4.439   0.365   4.145 -0.6502  1.7878  1.7040
  156SAPE  H20S17342   4.262   0.398   4.097 -0.7232 -1.3304 -0.6904
  156SAPE  H20T17343   4.350   0.239   4.058  2.0231 -0.0713  0.0980
  156SAPE   C3317344   5.104  -0.270   6.110 -0.3628  0.0965  0.4541
  156SAPE   H3X17345   5.128  -0.328   6.202  1.7355  0.8579  0.4370
  156SAPE   H3Y17346   5.136  -0.327   6.020  0.9738  0.5060  0.6484
  156SAPE   C3417347   4.960  -0.233   6.102  0.0185  0.1117 -0.8912
  156SAPE   H4X17348   4.941  -0.149   6.171  0.0531 -1.5386  1.2327
  156SAPE   H4Y17349   4.903  -0.319   6.144 -0.4331  1.8887  2.4157
  156SAPE   C3517350   4.918  -0.218   5.958  0.5219  1.1492  0.9292
  156SAPE   H5X17351   4.943  -0.308   5.897 -1.5364  0.8373  0.4576
  156SAPE   H5Y17352   4.985  -0.139   5.919  1.7785 -0.1156  0.4099
  156SAPE   C3617353   4.776  -0.175   5.945 -0.3217 -0.1964  0.4457
  156SAPE   H6X17354   4.765  -0.099   6.025  2.0431 -1.0741  1.7180
  156SAPE   H6Y17355   4.701  -0.254   5.965  0.7271 -1.0582  1.0922
  156SAPE   C3717356   4.746  -0.110   5.801  0.1758 -0.6103 -0.2816
  156SAPE   H7X17357   4.835  -0.046   5.785 -0.1191  0.0121  0.4728
  156SAPE   H7Y17358   4.665  -0.035   5.810  0.7175 -0.0179 -0.2858
  156SAPE   C3817359   4.723  -0.217   5.694 -0.9307 -0.8047  0.1613
  156SAPE   H8X17360   4.620  -0.255   5.710 -1.2872 -0.7037 -1.7591
  156SAPE   H8Y17361   4.804  -0.293   5.698 -3.5369 -3.9231 -1.5852
  156SAPE   C3917362   4.721  -0.158   5.559  0.5073 -0.0900 -0.6734
  156SAPE   H9X17363   4.821  -0.121   5.527  0.7843  0.9979  1.2829
  156SAPE   H9Y17364   4.645  -0.077   5.553 -0.5855 -1.1311 -1.0602
  156SAPE  C31017365   4.671  -0.254   5.456  0.6493 -0.5285  0.1755
  156SAPE  H10X17366   4.593  -0.321   5.498  0.6349 -1.5172 -1.3714
  156SAPE  H10Y17367   4.751  -0.309   5.402 -0.0360 -1.6536  0.2694
  156SAPE  C31117368   4.605  -0.181   5.336 -0.5527  0.8547  0.1532
  156SAPE  H11X17369   4.688  -0.125   5.288 -1.1246  0.7837 -0.9473
  156SAPE  H11Y17370   4.531  -0.101   5.359 -0.1610  2.2873 -2.9798
  156SAPE  C31217371   4.563  -0.281   5.230  0.1656 -0.0912  0.0370
  156SAPE  H12X17372   4.497  -0.358   5.275 -1.2492  0.3788 -1.1744
  156SAPE  H12Y17373   4.644  -0.354   5.207 -2.9196 -3.2716 -1.7413
  156SAPE  C31317374   4.506  -0.205   5.109  0.1230 -0.5964  0.2663
  156SAPE  H13X17375   4.576  -0.138   5.054  0.4067 -0.6263  0.5847
  156SAPE  H13Y17376   4.430  -0.135   5.149  1.6386  1.0691  0.3760
  156SAPE  C31417377   4.457  -0.305   5.003 -0.0852 -0.0142  0.5488
  156SAPE  H14X17378   4.385  -0.372   5.055  0.1769 -1.0450 -0.3775
  156SAPE  H14Y17379   4.541  -0.369   4.968  1.9235  2.2471  0.9203
  156SAPE  C31517380   4.399  -0.240   4.881  0.9803  0.1882  1.1370
  156SAPE  H15X17381   4.472  -0.167   4.839 -0.0614 -0.7630 -2.6237
  156SAPE  H15Y17382   4.306  -0.186   4.910  1.8363  0.5972  3.3765
  156SAPE  C31617383   4.380  -0.345   4.762 -0.4096 -0.6060  0.4183
  156SAPE  H16X17384   4.328  -0.435   4.801 -0.5561 -1.0568 -0.7842
  156SAPE  H16Y17385   4.486  -0.373   4.743  0.2031 -0.9265  3.6756
  156SAPE  C31717386   4.316  -0.282   4.639  0.3855 -0.2627 -1.0782
  156SAPE  H17X17387   4.359  -0.180   4.627 -3.4767  1.4888 -1.3570
  156SAPE  H17Y17388   4.208  -0.267   4.661  0.1753  0.8719 -2.7367
  156SAPE  C31817389   4.328  -0.372   4.521 -0.1226 -0.0678  0.8481
  156SAPE  H18X17390   4.285  -0.471   4.546  0.1384 -0.5402 -0.4482
  156SAPE  H18Y17391   4.436  -0.381   4.494 -1.0835 -1.3790 -3.2597
  156SAPE  H18Z17392   4.277  -0.332   4.431  1.2545  0.4355  0.2590
  157SAPE     N17393   1.602   5.800   6.520 -0.3236  0.2338 -0.0330
  157SAPE   HN117394   1.554   5.761   6.436  1.4524 -0.5633 -0.7278
  157SAPE   HN217395   1.704   5.786   6.510 -0.1482  1.8950 -0.9451
  157SAPE   HN317396   1.585   5.743   6.605 -0.8372 -0.5880 -0.6679
  157SAPE   C1217397   1.569   5.950   6.530 -0.1591 -0.6151  0.4915
  157SAPE  H12A17398   1.595   5.989   6.631  2.0152  1.1287 -0.6476
  157SAPE  H12B17399   1.460   5.970   6.525  0.1532  1.7634  1.6027
  157SAPE   C1117400   1.641   6.035   6.416 -0.1161 -0.0001  0.1078
  157SAPE  H11A17401   1.615   6.143   6.417  0.2094  0.1282  2.7879
  157SAPE  H11B17402   1.604   6.003   6.316  0.0999  2.5553 -0.8852
  157SAPE     P17403   1.877   6.136   6.443 -0.1499  0.6352 -0.0066
  157SAPE   O1317404   1.830   6.212   6.557 -0.1390  0.2587 -0.5177
  157SAPE   O1417405   2.013   6.080   6.450 -0.3903 -0.0418 -0.2661
  157SAPE   O1217406   1.780   6.015   6.428 -0.3684  0.2364 -0.1162
  157SAPE   O1117407   1.857   6.230   6.316 -0.5263 -0.0884 -0.0777
  157SAPE    C117408   1.932   6.204   6.192 -0.2186 -0.6537  0.0339
  157SAPE    HA17409   1.951   6.096   6.181 -0.3864 -0.7299  0.4800
  157SAPE    HB17410   1.877   6.242   6.103  0.8137 -0.1579 -0.4146
  157SAPE    C217411   2.066   6.279   6.199 -0.4458 -0.8084 -0.0851
  157SAPE    HS17412   2.109   6.261   6.300 -1.5345 -0.3135  0.4909
  157SAPE   O2117413   2.034   6.417   6.191 -0.1388  0.3793  0.5278
  157SAPE   C2117414   2.116   6.492   6.252 -0.7285  0.4464  0.0030
  157SAPE   O2217415   2.214   6.460   6.322  0.3477  0.0668  0.0224
  157SAPE   C2217416   2.068   6.635   6.218 -0.2615 -0.4622  0.0615
  157SAPE   H2R17417   1.963   6.641   6.255 -0.1504 -1.6361  0.6245
  157SAPE   H2S17418   2.120   6.710   6.280  0.9119 -0.0154 -1.4080
  157SAPE    C317419   2.163   6.238   6.085 -0.0187 -0.4490 -0.5442
  157SAPE    HX17420   2.131   6.264   5.982 -0.1002  3.3556  0.2760
  157SAPE    HY17421   2.188   6.130   6.088  1.0518 -0.2313  2.9518
  157SAPE   O3117422   2.287   6.310   6.100  0.3270  0.1759 -0.3325
  157SAPE   C3117423   2.383   6.247   6.175  0.0585 -0.4167 -0.0553
  157SAPE   O3217424   2.369   6.141   6.230  0.3074  0.2937  0.0657
  157SAPE   C3217425   2.507   6.331   6.176 -0.5868 -0.6886 -0.0978
  157SAPE   H2X17426   2.573   6.308   6.262  0.6903  0.4588 -0.7246
  157SAPE   H2Y17427   2.473   6.435   6.194  1.2952 -0.3160  1.6218
  157SAPE   C2317428   2.081   6.683   6.073  0.9609 -0.8604  0.0720
  157SAPE   H3R17429   2.021   6.776   6.073  2.2967  0.0352 -0.9237
  157SAPE   H3S17430   2.034   6.612   6.001 -2.7035 -0.4684  1.8649
  157SAPE   C2417431   2.226   6.705   6.028 -0.2831 -0.1182  0.4899
  157SAPE   H4R17432   2.292   6.616   6.032 -0.2903 -0.1737 -0.4843
  157SAPE   H4S17433   2.259   6.776   6.107 -0.4802  0.7346 -0.1834
  157SAPE   C2517434   2.240   6.787   5.900 -0.0162 -0.6322 -0.0476
  157SAPE   H5R17435   2.187   6.884   5.898 -3.5670 -2.3919 -0.3281
  157SAPE   C2617436   2.320   6.754   5.796 -0.4262  1.3086  0.2151
  157SAPE   H6R17437   2.322   6.825   5.712  0.3094  0.2112 -0.7255
  157SAPE   C2717438   2.405   6.633   5.771 -1.7634  0.1592 -0.0758
  157SAPE   H7R17439   2.447   6.603   5.869 -0.2892  1.5826 -0.2225
  157SAPE   H7S17440   2.491   6.672   5.711 -0.3628 -3.2421 -0.4865
  157SAPE   C2817441   2.341   6.510   5.705  0.1906  0.5500 -0.3085
  157SAPE   H8R17442   2.290   6.444   5.777  0.7034  1.3754  0.8530
  157SAPE   C2917443   2.352   6.469   5.577 -0.8488  0.0701 -0.0950
  157SAPE   H9R17444   2.309   6.370   5.557 -0.4233 -0.3352  0.9592
  157SAPE  C21017445   2.431   6.526   5.460 -0.3038  0.5234 -1.1194
  157SAPE  H10R17446   2.542   6.522   5.470 -0.1393  1.5809 -2.2627
  157SAPE  H10S17447   2.402   6.633   5.462 -1.9911  0.0847 -0.2640
  157SAPE  C21117448   2.394   6.470   5.322 -0.1408  0.1056 -0.1419
  157SAPE  H11R17449   2.286   6.463   5.301  0.1289  0.4158 -1.6983
  157SAPE  C21217450   2.467   6.411   5.225  0.3408 -0.1364 -0.0036
  157SAPE  H12R17451   2.414   6.389   5.131 -2.2419  0.8920  1.1248
  157SAPE  C21317452   2.614   6.377   5.213  0.6245 -0.0892 -0.0702
  157SAPE  H13R17453   2.640   6.272   5.239 -0.2937 -0.6513 -1.3060
  157SAPE  H13S17454   2.665   6.447   5.281 -2.6827  1.0944  1.4251
  157SAPE  C21417455   2.667   6.390   5.064 -0.4805 -0.5492  0.6235
  157SAPE  H14R17456   2.667   6.491   5.020 -2.2993 -0.6274  0.3525
  157SAPE  C21517457   2.710   6.298   4.981  0.5070 -0.2821 -0.2411
  157SAPE  H15R17458   2.725   6.312   4.873  1.0555  2.0612  0.0672
  157SAPE  C21617459   2.731   6.147   5.032 -0.4608 -0.1430  0.4956
  157SAPE  H16R17460   2.631   6.100   5.028 -1.3044  1.6231 -0.8995
  157SAPE  H16S17461   2.777   6.138   5.132 -2.4540 -1.6969  1.3433
  157SAPE  C21717462   2.809   6.046   4.944 -0.4751  0.3154  0.1550
  157SAPE  H17R17463   2.805   5.947   4.996  3.4922  0.3005  0.7069
  157SAPE  H17S17464   2.915   6.074   4.929  0.2175 -1.0793  2.0099
  157SAPE  C21817465   2.750   6.028   4.807  0.8008 -0.4143 -0.7333
  157SAPE  H18R17466   2.771   6.117   4.745  0.9210  0.4053  0.4523
  157SAPE  H18S17467   2.640   6.024   4.822  0.6684  1.1897 -1.1426
  157SAPE  C21917468   2.816   5.917   4.730  0.1213  0.7596 -0.4027
  157SAPE  H19R17469   2.782   5.932   4.625  0.6730 -1.7484 -1.0099
  157SAPE  H19S17470   2.767   5.825   4.770 -1.4347  2.4944  1.9037
  157SAPE  C22017471   2.966   5.911   4.729  0.5988  0.0752  0.0607
  157SAPE  H20R17472   3.004   6.005   4.684  1.0674 -0.0897  0.1040
  157SAPE  H20S17473   2.998   5.828   4.662 -4.1615 -2.1152  0.1206
  157SAPE  H20T17474   3.019   5.888   4.825  1.7688 -1.5809 -0.9199
  157SAPE   C3317475   2.591   6.321   6.039  0.0787  0.6652  0.2573
  157SAPE   H3X17476   2.515   6.311   5.958 -1.1370  0.9618  1.3360
  157SAPE   H3Y17477   2.638   6.221   6.047 -1.8915 -0.3681 -0.2538
  157SAPE   C3417478   2.693   6.432   6.007  0.7612  0.1941  0.1368
  157SAPE   H4X17479   2.760   6.442   6.094  1.2010  2.3104 -0.3895
  157SAPE   H4Y17480   2.634   6.526   5.999  1.1210  0.3243 -1.1996
  157SAPE   C3517481   2.779   6.388   5.885  0.0430  0.3465  0.2289
  157SAPE   H5X17482   2.794   6.278   5.882 -1.0029  0.2034 -0.5294
  157SAPE   H5Y17483   2.877   6.439   5.894 -0.9938  2.9078 -1.6368
  157SAPE   C3617484   2.710   6.418   5.750 -0.3390  0.6578 -0.7947
  157SAPE   H6X17485   2.692   6.528   5.752 -0.8599  0.5707 -0.5751
  157SAPE   H6Y17486   2.611   6.367   5.749 -0.3760  0.4663  2.2099
  157SAPE   C3717487   2.794   6.375   5.631  0.0512  0.1222 -0.4099
  157SAPE   H7X17488   2.902   6.390   5.651  0.0196 -1.3959  1.0833
  157SAPE   H7Y17489   2.769   6.447   5.549  0.7246  2.1194  1.0663
  157SAPE   C3817490   2.780   6.229   5.592 -0.4589 -0.7034  0.4185
  157SAPE   H8X17491   2.673   6.206   5.577 -0.7433  0.8086 -0.0513
  157SAPE   H8Y17492   2.803   6.171   5.685  1.3269 -0.4009  0.2025
  157SAPE   C3917493   2.862   6.194   5.470  0.0884 -0.1845  0.6064
  157SAPE   H9X17494   2.841   6.256   5.380  0.8972  0.1258  0.6203
  157SAPE   H9Y17495   2.822   6.092   5.451  1.6866 -0.7728  0.1931
  157SAPE  C31017496   3.014   6.194   5.501 -0.6281 -0.1803  0.5514
  157SAPE  H10X17497   3.028   6.125   5.587  0.6102 -0.0362  0.4872
  157SAPE  H10Y17498   3.043   6.297   5.531 -0.2420 -0.9397  2.9659
  157SAPE  C31117499   3.109   6.144   5.386  0.0378  0.2032 -0.4806
  157SAPE  H11X17500   3.087   6.036   5.372 -0.7984  0.0294  1.7632
  157SAPE  H11Y17501   3.211   6.132   5.428  0.0424 -4.7051 -1.2625
  157SAPE  C31217502   3.099   6.240   5.267  0.5185  0.0525 -0.0681
  157SAPE  H12X17503   3.139   6.341   5.293  0.9261  0.1742 -1.1437
  157SAPE  H12Y17504   2.994   6.262   5.237  0.2408 -1.4280 -0.2251
  157SAPE  C31317505   3.169   6.189   5.144 -0.4210  0.4589 -0.3718
  157SAPE  H13X17506   3.152   6.080   5.130  1.9895  0.2306 -2.1322
  157SAPE  H13Y17507   3.278   6.193   5.168 -0.8736  0.3937  1.8891
  157SAPE  C31417508   3.128   6.267   5.020 -0.5011  0.1868  0.6587
  157SAPE  H14X17509   3.166   6.371   5.032  3.5090 -0.9579 -0.5001
  157SAPE  H14Y17510   3.018   6.263   5.003 -0.3846  0.3071 -0.1816
  157SAPE  C31517511   3.216   6.206   4.898  0.2632 -0.3811  0.1625
  157SAPE  H15X17512   3.205   6.095   4.900  1.8735 -0.5926  2.9193
  157SAPE  H15Y17513   3.322   6.222   4.926  0.9810 -1.6443 -1.7010
  157SAPE  C31617514   3.205   6.248   4.756  0.4429 -0.6166  0.1811
  157SAPE  H16X17515   3.100   6.228   4.725  1.0548 -3.3238 -0.4083
  157SAPE  H16Y17516   3.267   6.183   4.691  0.4095 -1.3324  0.8451
  157SAPE  C31717517   3.243   6.391   4.715  0.4180  0.2302  0.9706
  157SAPE  H17X17518   3.349   6.417   4.736  0.9095 -0.8534 -0.0498
  157SAPE  H17Y17519   3.185   6.465   4.774  0.3802  1.4896 -0.5796
  157SAPE  C31817520   3.216   6.409   4.564  0.5555 -0.5873 -0.8918
  157SAPE  H18X17521   3.106   6.408   4.552  0.4934  0.9201 -0.6478
  157SAPE  H18Y17522   3.264   6.334   4.497 -1.5217 -0.2974 -2.8277
  157SAPE  H18Z17523   3.253   6.505   4.523 -1.3843 -0.1600 -1.7545
  158SAPE     N17524   4.428   3.782   6.225 -0.6363 -0.2670  0.0448
  158SAPE   HN117525   4.488   3.697   6.237 -0.2043 -0.2059 -1.4398
  158SAPE   HN217526   4.455   3.802   6.126  0.8469 -1.7065  0.0985
  158SAPE   HN317527   4.461   3.860   6.285  0.4093 -0.9188  0.3540
  158SAPE   C1217528   4.281   3.747   6.231 -0.7069  0.3112 -0.4703
  158SAPE  H12A17529   4.274   3.656   6.294  0.1907 -1.1867 -2.4202
  158SAPE  H12B17530   4.253   3.717   6.128 -1.5852  1.3775 -0.5561
  158SAPE   C1117531   4.208   3.863   6.290 -0.1245  0.2596  0.3925
  158SAPE  H11A17532   4.226   3.954   6.229 -2.0999  0.5258  0.1325
  158SAPE  H11B17533   4.234   3.876   6.397 -0.5276  0.3444  0.4826
  158SAPE     P17534   3.954   3.941   6.293  0.4842 -0.4344 -0.0424
  158SAPE   O1317535   3.866   3.905   6.403 -0.4842  0.0803 -0.1221
  158SAPE   O1417536   4.005   4.080   6.279 -0.1203 -0.0468 -0.0272
  158SAPE   O1217537   4.072   3.839   6.280  0.2407  0.3999 -0.7458
  158SAPE   O1117538   3.864   3.917   6.164  0.3971  0.3096  0.0940
  158SAPE    C117539   3.874   3.800   6.088  0.5174 -0.6758 -0.0707
  158SAPE    HA17540   3.890   3.711   6.153  1.8819  0.4764  1.2570
  158SAPE    HB17541   3.776   3.797   6.036  0.2256  1.0803  0.3072
  158SAPE    C217542   3.984   3.815   5.979  0.5865  0.0145  0.3380
  158SAPE    HS17543   4.080   3.809   6.035 -0.6599  0.9854  2.7335
  158SAPE   O2117544   3.972   3.938   5.910 -0.1661 -0.2631 -0.3214
  158SAPE   C2117545   4.084   4.014   5.907  0.5037 -0.1017  0.1133
  158SAPE   O2217546   4.188   3.981   5.953  0.2486  0.3795 -0.5596
  158SAPE   C2217547   4.057   4.126   5.808 -0.7994  0.2001 -0.0992
  158SAPE   H2R17548   3.958   4.114   5.759 -0.7946  0.6994 -0.2374
  158SAPE   H2S17549   4.057   4.225   5.858  2.8635 -0.0069  0.5837
  158SAPE    C317550   3.957   3.702   5.873  0.0530  0.4288  0.7966
  158SAPE    HX17551   3.853   3.721   5.838  0.0547  2.2916  1.6512
  158SAPE    HY17552   3.953   3.599   5.913 -1.4335 -0.3117 -1.1214
  158SAPE   O3117553   4.052   3.704   5.763 -0.9015 -0.4084 -0.9004
  158SAPE   C3117554   4.172   3.657   5.801  0.0268  0.5240 -0.3024
  158SAPE   O3217555   4.206   3.632   5.913  0.7981  0.1514 -0.2178
  158SAPE   C3217556   4.260   3.644   5.678 -0.2493 -0.0715  0.2207
  158SAPE   H2X17557   4.358   3.607   5.716  0.4373  1.9002  0.5044
  158SAPE   H2Y17558   4.278   3.744   5.633 -2.1469  0.8569  1.3755
  158SAPE   C2317559   4.159   4.124   5.701  0.0155  0.3506 -0.2865
  158SAPE   H3R17560   4.260   4.107   5.746 -0.3803 -1.7985 -0.0967
  158SAPE   H3S17561   4.166   4.213   5.635  2.2932 -1.1184 -2.2195
  158SAPE   C2417562   4.136   4.010   5.591  0.5422 -0.1250  0.2430
  158SAPE   H4R17563   4.133   3.923   5.660  0.8343  2.1501  3.3522
  158SAPE   H4S17564   4.228   3.994   5.532  0.5412 -1.1951  0.5079
  158SAPE   C2517565   4.022   4.015   5.495  0.5061 -0.1463  0.1525
  158SAPE   H5R17566   3.927   4.016   5.551 -0.1428 -0.6505 -0.9183
  158SAPE   C2617567   4.010   4.010   5.361 -0.2957 -0.6553 -0.6580
  158SAPE   H6R17568   3.915   4.026   5.308  0.1979 -0.0318 -1.3869
  158SAPE   C2717569   4.127   4.000   5.260  0.0462 -0.5374 -0.0163
  158SAPE   H7R17570   4.228   4.027   5.298 -0.5585 -0.1978  1.4042
  158SAPE   H7S17571   4.117   4.086   5.190  1.5924  1.4231  2.0244
  158SAPE   C2817572   4.112   3.866   5.191  0.0371  0.4291  0.0217
  158SAPE   H8R17573   4.127   3.781   5.260 -1.1370  1.3676  1.5035
  158SAPE   C2917574   4.093   3.840   5.063  0.4295  0.9509 -0.3046
  158SAPE   H9R17575   4.080   3.732   5.043  1.4676  0.4656  1.4381
  158SAPE  C21017576   4.090   3.938   4.953 -0.4244  0.4494  0.4865
  158SAPE  H10R17577   4.127   4.038   4.983  1.5229 -0.4991  1.4342
  158SAPE  H10S17578   3.994   3.960   4.901  0.1880  1.4156 -0.2688
  158SAPE  C21117579   4.197   3.901   4.850 -0.4415  0.0004  0.1149
  158SAPE  H11R17580   4.288   3.855   4.891  0.6346  1.8316 -0.1035
  158SAPE  C21217581   4.179   3.917   4.716 -0.3223 -0.0737 -0.1811
  158SAPE  H12R17582   4.268   3.898   4.654  1.0267 -1.2242  1.9506
  158SAPE  C21317583   4.061   3.989   4.661  0.4467  0.1474 -0.4843
  158SAPE  H13R17584   4.057   4.079   4.726  1.8634 -0.8542  1.0805
  158SAPE  H13S17585   3.969   3.934   4.688  1.6880 -0.6944  2.5329
  158SAPE  C21417586   4.064   4.040   4.520 -0.4540  0.4802 -0.0381
  158SAPE  H14R17587   4.159   4.036   4.465 -1.1425  0.4363 -1.2502
  158SAPE  C21517588   3.951   4.080   4.460  0.2947  0.0856  0.5809
  158SAPE  H15R17589   3.944   4.107   4.354  0.2481 -0.8525  0.3324
  158SAPE  C21617590   3.810   4.084   4.513  0.2572 -0.1424  0.0520
  158SAPE  H16R17591   3.801   4.164   4.590  0.7427 -0.2024  0.1734
  158SAPE  H16S17592   3.793   3.989   4.567  0.3261 -0.8505 -1.1522
  158SAPE  C21717593   3.699   4.114   4.407  0.1721  0.6460 -0.5598
  158SAPE  H17R17594   3.689   4.218   4.367 -1.2369  0.0874 -1.7355
  158SAPE  H17S17595   3.606   4.104   4.467  0.3404 -0.8525 -0.5229
  158SAPE  C21817596   3.695   4.020   4.283 -0.1796 -0.0554  0.4420
  158SAPE  H18R17597   3.775   3.943   4.291  2.2700  2.1765 -0.9180
  158SAPE  H18S17598   3.720   4.073   4.189 -0.3115  0.6717  0.8073
  158SAPE  C21917599   3.561   3.946   4.256  0.4446  0.1197 -1.0760
  158SAPE  H19R17600   3.561   3.885   4.163  0.8033  0.3389 -1.2248
  158SAPE  H19S17601   3.475   4.014   4.238  0.4299  1.1738  2.3277
  158SAPE  C22017602   3.530   3.845   4.370 -0.2677  0.2892 -0.1037
  158SAPE  H20R17603   3.611   3.770   4.384  1.5300  2.0084 -0.9136
  158SAPE  H20S17604   3.443   3.783   4.339 -0.8139  1.0035 -0.0301
  158SAPE  H20T17605   3.493   3.901   4.458 -0.5013 -1.4722  0.9741
  158SAPE   C3317606   4.191   3.557   5.577 -0.5090 -0.2947 -0.2768
  158SAPE   H3X17607   4.087   3.593   5.560  0.2150  1.4739 -1.2784
  158SAPE   H3Y17608   4.190   3.456   5.623  0.6639 -0.5789 -0.8244
  158SAPE   C3417609   4.263   3.555   5.442 -0.2968 -0.2092 -0.4449
  158SAPE   H4X17610   4.366   3.520   5.468  0.2534  0.4158 -1.6721
  158SAPE   H4Y17611   4.288   3.659   5.409  0.1872 -0.1474  0.0926
  158SAPE   C3517612   4.196   3.469   5.338  0.3359  0.1426 -0.5667
  158SAPE   H5X17613   4.090   3.491   5.314  0.1046 -0.4722 -0.1408
  158SAPE   H5Y17614   4.203   3.363   5.368  1.1810  0.0145 -1.1675
  158SAPE   C3617615   4.270   3.472   5.203  0.3063  0.7324  0.7550
  158SAPE   H6X17616   4.374   3.441   5.226 -0.2644 -2.3673 -0.3523
  158SAPE   H6Y17617   4.273   3.572   5.154 -1.1759 -0.0793 -1.1259
  158SAPE   C3717618   4.206   3.390   5.092 -0.2923  0.1683  0.2911
  158SAPE   H7X17619   4.096   3.400   5.098 -0.4878 -0.5473 -1.5150
  158SAPE   H7Y17620   4.239   3.284   5.101 -0.3123  0.0479 -0.8878
  158SAPE   C3817621   4.250   3.436   4.952  0.1115  0.1219  0.5938
  158SAPE   H8X17622   4.361   3.441   4.955  0.0917  1.5083 -0.4069
  158SAPE   H8Y17623   4.221   3.543   4.948  0.6517  0.3664  2.3969
  158SAPE   C3917624   4.193   3.351   4.849 -0.1970  0.6063  0.2116
  158SAPE   H9X17625   4.084   3.364   4.863 -0.2818  2.2331 -1.5008
  158SAPE   H9Y17626   4.226   3.244   4.852  0.9671  0.8802 -1.3983
  158SAPE  C31017627   4.221   3.400   4.707 -0.0183  0.1271  0.5704
  158SAPE  H10X17628   4.329   3.411   4.687  0.2724  0.4799  2.1892
  158SAPE  H10Y17629   4.166   3.497   4.708  1.8102  1.2082  1.0287
  158SAPE  C31117630   4.157   3.319   4.592 -1.0649  0.5849  0.3593
  158SAPE  H11X17631   4.051   3.294   4.615 -1.2061 -1.6663 -2.2664
  158SAPE  H11Y17632   4.214   3.225   4.578 -0.6591  0.8180  0.4229
  158SAPE  C31217633   4.162   3.394   4.455 -0.2738 -0.2593 -0.4963
  158SAPE  H12X17634   4.261   3.440   4.437 -0.7249  0.8592 -0.1817
  158SAPE  H12Y17635   4.103   3.487   4.459 -0.8286 -0.6388  2.2153
  158SAPE  C31317636   4.116   3.306   4.342 -0.9350  0.0704 -0.1191
  158SAPE  H13X17637   4.013   3.269   4.359 -0.5237 -0.3035  1.8963
  158SAPE  H13Y17638   4.187   3.221   4.347  0.0280  0.7428 -1.7441
  158SAPE  C31417639   4.139   3.365   4.203  0.4006  0.5084  0.2724
  158SAPE  H14X17640   4.240   3.407   4.183 -0.0341  2.6725  2.1578
  158SAPE  H14Y17641   4.066   3.446   4.184 -0.8136 -0.8209 -0.9428
  158SAPE  C31517642   4.094   3.260   4.097 -0.1923  0.0047  0.4152
  158SAPE  H15X17643   3.984   3.250   4.105  0.0426 -2.3367  1.8934
  158SAPE  H15Y17644   4.142   3.163   4.124  0.6509  0.1028 -0.6794
  158SAPE  C31617645   4.131   3.309   3.960 -0.1603 -0.2699 -0.2441
  158SAPE  H16X17646   4.241   3.310   3.944  0.0404 -0.9888  0.9553
  158SAPE  H16Y17647   4.082   3.406   3.938 -1.6321 -1.2135 -1.3866
  158SAPE  C31717648   4.075   3.211   3.861 -0.2082 -0.2705  0.6274
  158SAPE  H17X17649   3.965   3.214   3.878 -0.2212  1.5619  0.3755
  158SAPE  H17Y17650   4.116   3.111   3.890  0.0280 -0.4348 -0.2603
  158SAPE  C31817651   4.112   3.247   3.715  0.8284 -0.3805  0.5493
  158SAPE  H18X17652   4.044   3.328   3.681  0.6517 -0.0474  1.6793
  158SAPE  H18Y17653   4.095   3.165   3.642  1.9927  0.2712 -0.4870
  158SAPE  H18Z17654   4.218   3.277   3.703  0.4270  2.0478  2.5242
  159SAPE     N17655   6.918   4.649   2.216  0.3141 -0.1585  0.5895
  159SAPE   HN117656   6.948   4.592   2.297  0.5012  1.1885  1.5118
  159SAPE   HN217657   6.867   4.731   2.255  1.2335  0.6598  0.1064
  159SAPE   HN317658   6.842   4.603   2.163  1.2775 -0.7542 -0.2998
  159SAPE   C1217659   7.025   4.685   2.122 -0.0714 -1.0066 -0.1330
  159SAPE  H12A17660   6.982   4.758   2.050 -1.7020 -2.0329 -0.2386
  159SAPE  H12B17661   7.057   4.593   2.069  1.1704 -1.0893  0.6996
  159SAPE   C1117662   7.146   4.747   2.199 -0.1689 -0.1470  0.0749
  159SAPE  H11A17663   7.122   4.852   2.227 -0.7785  0.0005 -0.9275
  159SAPE  H11B17664   7.230   4.753   2.127  0.8728  0.1840  1.2818
  159SAPE     P17665   7.296   4.725   2.422 -0.0590 -0.1897 -0.1897
  159SAPE   O1317666   7.360   4.612   2.498 -0.1693  0.3901 -0.1852
  159SAPE   O1417667   7.383   4.823   2.355  0.3777 -0.1724  0.4856
  159SAPE   O1217668   7.194   4.662   2.304 -0.2345 -0.2855  0.4299
  159SAPE   O1117669   7.199   4.805   2.526  0.2834 -0.3111 -0.4121
  159SAPE    C117670   7.056   4.793   2.513  0.0246 -0.1265  0.1486
  159SAPE    HA17671   7.018   4.882   2.459  2.6904  0.4175 -0.9630
  159SAPE    HB17672   7.025   4.696   2.469 -2.1333  0.1963  0.7862
  159SAPE    C217673   6.975   4.794   2.649 -0.1689  0.0151 -0.2077
  159SAPE    HS17674   6.956   4.895   2.691 -0.6931  0.3159 -1.1377
  159SAPE   O2117675   7.053   4.711   2.749  0.1380 -0.5613  0.5372
  159SAPE   C2117676   7.114   4.764   2.842 -0.0403 -0.0139 -0.2611
  159SAPE   O2217677   7.102   4.880   2.888  0.4805 -0.3262 -0.1820
  159SAPE   C2217678   7.207   4.652   2.898  0.2671 -1.2415 -0.1148
  159SAPE   H2R17679   7.138   4.566   2.912  1.4904 -2.5669 -1.7991
  159SAPE   H2S17680   7.272   4.635   2.810  3.1531  1.4700  1.2815
  159SAPE    C317681   6.825   4.741   2.626  0.0379 -0.0229 -0.1071
  159SAPE    HX17682   6.834   4.631   2.628 -1.0620 -0.1570 -1.2831
  159SAPE    HY17683   6.796   4.776   2.524  0.4161 -2.4527 -1.1048
  159SAPE   O3117684   6.730   4.783   2.733 -0.3231 -0.5198 -0.3632
  159SAPE   C3117685   6.607   4.744   2.716  0.6905 -0.4975 -0.2614
  159SAPE   O3217686   6.561   4.695   2.614  0.5383 -0.3730 -0.3744
  159SAPE   C3217687   6.531   4.759   2.850 -0.1541  0.4917 -0.7136
  159SAPE   H2X17688   6.575   4.838   2.915 -1.8332  2.6026 -2.0228
  159SAPE   H2Y17689   6.543   4.659   2.897 -1.7617  0.2474 -0.7549
  159SAPE   C2317690   7.269   4.690   3.037  0.0936  0.1871  0.0082
  159SAPE   H3R17691   7.190   4.734   3.102 -0.4157 -2.0944  1.0176
  159SAPE   H3S17692   7.347   4.768   3.034  2.5136 -2.0241  1.3750
  159SAPE   C2417693   7.331   4.570   3.106  0.0867 -0.0740 -0.4155
  159SAPE   H4R17694   7.408   4.518   3.044 -0.5137  0.0025 -1.2503
  159SAPE   H4S17695   7.249   4.495   3.112 -0.9318  0.9711 -1.0108
  159SAPE   C2517696   7.388   4.619   3.240 -0.3269 -0.2158  1.0095
  159SAPE   H5R17697   7.468   4.694   3.232  1.2096 -1.8732  0.1833
  159SAPE   C2617698   7.360   4.572   3.365  0.1302  0.2507  0.7021
  159SAPE   H6R17699   7.401   4.632   3.448  0.5059 -0.1810  0.8321
  159SAPE   C2717700   7.251   4.472   3.391 -0.1783  0.0408 -0.3089
  159SAPE   H7R17701   7.288   4.390   3.456 -0.2219  0.5891  0.4175
  159SAPE   H7S17702   7.224   4.420   3.296  0.6022 -3.0983  1.0580
  159SAPE   C2817703   7.128   4.532   3.444  0.1300 -0.5300 -0.5481
  159SAPE   H8R17704   7.108   4.632   3.403 -1.5744 -1.4975 -2.2004
  159SAPE   C2917705   7.049   4.490   3.548 -0.0249  0.9281  0.4200
  159SAPE   H9R17706   6.948   4.534   3.555 -0.7337 -0.7002  0.8123
  159SAPE  C21017707   7.048   4.364   3.635 -0.3465  0.6542  0.5087
  159SAPE  H10R17708   7.150   4.359   3.680  1.1408 -2.1053 -2.7637
  159SAPE  H10S17709   7.029   4.277   3.569 -0.1337  2.6799 -2.3753
  159SAPE  C21117710   6.936   4.372   3.732  0.1327  0.0929 -0.8874
  159SAPE  H11R17711   6.834   4.383   3.694  0.4771  0.8926 -1.6342
  159SAPE  C21217712   6.951   4.369   3.869  1.2008 -0.7090  1.2161
  159SAPE  H12R17713   6.858   4.350   3.924  1.9500 -1.4055  2.2745
  159SAPE  C21317714   7.078   4.361   3.950  0.6710  0.4807 -0.1527
  159SAPE  H13R17715   7.125   4.265   3.917  0.0454  0.6406 -1.5900
  159SAPE  H13S17716   7.049   4.335   4.054 -0.2606  1.9493 -0.0200
  159SAPE  C21417717   7.170   4.478   3.933 -0.2648  0.0904  0.0165
  159SAPE  H14R17718   7.187   4.517   3.832 -0.0819 -0.7960 -0.2988
  159SAPE  C21517719   7.213   4.549   4.041 -0.7483 -0.1592  0.3346
  159SAPE  H15R17720   7.285   4.630   4.020  1.5730 -2.1746 -0.0158
  159SAPE  C21617721   7.183   4.525   4.186  0.3152  0.0754  0.0510
  159SAPE  H16R17722   7.225   4.425   4.212  0.4271 -0.0600 -0.6405
  159SAPE  H16S17723   7.074   4.528   4.206  0.1856 -3.6034  0.4629
  159SAPE  C21717724   7.260   4.623   4.273 -0.4242 -0.4662  0.3636
  159SAPE  H17R17725   7.367   4.612   4.244 -0.5454 -1.4592  0.2508
  159SAPE  H17S17726   7.267   4.587   4.378  3.4481 -0.3060  0.3336
  159SAPE  C21817727   7.229   4.776   4.266 -0.3894 -0.2243  0.7459
  159SAPE  H18R17728   7.186   4.783   4.164 -2.1718 -2.0338  1.3092
  159SAPE  H18S17729   7.319   4.840   4.273 -1.8043  1.8617  1.1517
  159SAPE  C21917730   7.137   4.831   4.371 -0.7956  0.4924  0.8348
  159SAPE  H19R17731   7.176   4.815   4.474 -2.2183 -1.9825  1.0785
  159SAPE  H19S17732   7.043   4.773   4.366  0.2182 -1.1671  0.2765
  159SAPE  C22017733   7.117   4.980   4.366  0.2559 -0.0550  0.7120
  159SAPE  H20R17734   7.059   5.013   4.454  0.0553 -1.9415  1.3449
  159SAPE  H20S17735   7.053   4.986   4.276 -0.8502 -1.6419  1.3409
  159SAPE  H20T17736   7.214   5.033   4.354  0.2450 -0.3140 -0.7035
  159SAPE   C3317737   6.384   4.807   2.824 -0.2355  0.0948 -0.3731
  159SAPE   H3X17738   6.322   4.734   2.768  0.0697 -1.0251  0.7055
  159SAPE   H3Y17739   6.395   4.900   2.763 -0.2083 -0.4048 -1.1476
  159SAPE   C3417740   6.324   4.846   2.961 -0.6016 -0.2857 -0.1389
  159SAPE   H4X17741   6.236   4.914   2.967  0.0286  0.4132  2.4577
  159SAPE   H4Y17742   6.398   4.905   3.020 -3.1417  3.5545 -0.3914
  159SAPE   C3517743   6.269   4.727   3.044  0.5044 -0.4595 -0.5250
  159SAPE   H5X17744   6.346   4.648   3.054  0.6872 -0.0986  1.3855
  159SAPE   H5Y17745   6.171   4.695   3.002 -0.6761  2.1303  0.1009
  159SAPE   C3617746   6.236   4.766   3.190  0.5395 -0.3756  0.1223
  159SAPE   H6X17747   6.175   4.857   3.202 -1.5985 -1.6129 -0.8424
  159SAPE   H6Y17748   6.336   4.789   3.234 -0.1544  2.2927  0.4315
  159SAPE   C3717749   6.171   4.662   3.280 -0.7949  0.0151 -0.0867
  159SAPE   H7X17750   6.232   4.569   3.288 -0.0907  0.6324  2.6967
  159SAPE   H7Y17751   6.074   4.641   3.230 -0.9305 -0.1036  0.2268
  159SAPE   C3817752   6.156   4.709   3.419  0.2195  0.4161 -0.4469
  159SAPE   H8X17753   6.091   4.799   3.421  0.0998  0.3381 -0.8019
  159SAPE   H8Y17754   6.256   4.744   3.453  0.2250  0.0102 -0.0416
  159SAPE   C3917755   6.096   4.600   3.500  0.3804  0.4078 -0.2772
  159SAPE   H9X17756   6.160   4.510   3.514 -0.3429 -0.1798 -0.6803
  159SAPE   H9Y17757   5.998   4.585   3.451  0.0759  1.4173  0.0056
  159SAPE  C31017758   6.071   4.653   3.648 -0.1609  0.4593  0.0913
  159SAPE  H10X17759   6.010   4.745   3.629 -0.0846  0.6362  0.7101
  159SAPE  H10Y17760   6.152   4.686   3.716  0.3630 -1.3203  0.3735
  159SAPE  C31117761   5.977   4.559   3.728 -0.7940 -0.7780 -0.1552
  159SAPE  H11X17762   6.020   4.458   3.741 -0.5132 -1.1351 -3.1320
  159SAPE  H11Y17763   5.882   4.555   3.670 -0.7229  1.4957 -0.5381
  159SAPE  C31217764   5.926   4.621   3.860  0.2615  0.6115 -0.2555
  159SAPE  H12X17765   5.838   4.566   3.900  2.1744 -2.3428  0.1479
  159SAPE  H12Y17766   5.902   4.726   3.832 -1.1081  0.6312  0.8689
  159SAPE  C31317767   6.021   4.632   3.978 -0.3689 -0.0471 -0.2386
  159SAPE  H13X17768   5.981   4.702   4.055 -0.4286  0.3573 -0.6335
  159SAPE  H13Y17769   6.123   4.667   3.954 -0.5248 -0.0308 -0.8755
  159SAPE  C31417770   6.018   4.502   4.062  0.0877  0.2420 -0.1831
  159SAPE  H14X17771   6.013   4.417   3.991 -1.1196  0.8513 -0.8595
  159SAPE  H14Y17772   5.922   4.492   4.117  0.5814 -1.5132  0.4075
  159SAPE  C31517773   6.148   4.482   4.138 -0.0021  0.2529 -0.1105
  159SAPE  H15X17774   6.237   4.487   4.072 -0.0209  1.7273 -0.0567
  159SAPE  H15Y17775   6.141   4.382   4.186 -2.0111  0.7183  0.6930
  159SAPE  C31617776   6.166   4.590   4.245 -0.3078  0.3656 -0.2747
  159SAPE  H16X17777   6.085   4.585   4.321  0.5601 -0.3625  0.6364
  159SAPE  H16Y17778   6.153   4.692   4.202 -2.6198  0.9579  1.6228
  159SAPE  C31717779   6.292   4.581   4.323  0.0732 -0.1218 -0.4111
  159SAPE  H17X17780   6.365   4.636   4.260  0.9316 -2.5326 -1.6656
  159SAPE  H17Y17781   6.344   4.482   4.331  1.4402  0.6373  0.4880
  159SAPE  C31817782   6.294   4.653   4.455  0.8345  0.8512 -0.1366
  159SAPE  H18X17783   6.245   4.753   4.455 -1.8175 -0.2433  2.6861
  159SAPE  H18Y17784   6.399   4.653   4.491 -0.2186 -0.6770  3.4512
  159SAPE  H18Z17785   6.228   4.604   4.530 -0.5769 -2.7429 -3.4061
  160SAPE     N17786   1.015   1.431   2.054  0.2245  0.0082  0.3555
  160SAPE   HN117787   0.988   1.442   1.955  0.4435  2.8847  0.5389
  160SAPE   HN217788   1.106   1.381   2.062 -0.7946 -2.1702 -0.8515
  160SAPE   HN317789   0.942   1.388   2.114  0.5264  1.3636  1.7485
  160SAPE   C1217790   1.023   1.569   2.107 -0.3532  0.2036 -0.2815
  160SAPE  H12A17791   1.117   1.619   2.076 -0.6293  0.2094 -1.1355
  160SAPE  H12B17792   1.014   1.545   2.215  0.6436 -1.1549 -0.4763
  160SAPE   C1117793   0.892   1.641   2.061  0.9701 -0.0854 -0.0099
  160SAPE  H11A17794   0.887   1.625   1.952 -0.5675 -0.2588  0.0546
  160SAPE  H11B17795   0.910   1.749   2.076  1.3829 -0.0171 -0.9388
  160SAPE     P17796   0.637   1.621   2.062 -0.1925 -0.0778  0.4741
  160SAPE   O1317797   0.641   1.761   2.024 -0.2405 -0.4990  0.2321
  160SAPE   O1417798   0.624   1.522   1.954 -0.0125  0.1333  0.6397
  160SAPE   O1217799   0.780   1.586   2.138 -0.1638 -0.5423  0.3010
  160SAPE   O1117800   0.522   1.599   2.167 -0.2103  1.0143 -0.7235
  160SAPE    C117801   0.550   1.596   2.314  0.0333 -0.2266  0.2181
  160SAPE    HA17802   0.460   1.557   2.365 -1.0903 -0.4529 -1.8533
  160SAPE    HB17803   0.638   1.532   2.336 -1.5237 -3.5677 -2.4005
  160SAPE    C217804   0.576   1.739   2.374  0.5519 -0.0376 -0.4298
  160SAPE    HS17805   0.676   1.766   2.336  1.9704 -0.9516  2.4215
  160SAPE   O2117806   0.571   1.734   2.516  0.0387  0.4699 -0.4747
  160SAPE   C2117807   0.580   1.837   2.586  0.0163 -0.9373 -0.6987
  160SAPE   O2217808   0.593   1.952   2.548 -0.2467 -0.3953  0.2289
  160SAPE   C2217809   0.578   1.801   2.735 -0.5708 -0.1010 -0.9029
  160SAPE   H2R17810   0.474   1.807   2.774  0.0711  0.9484  0.7359
  160SAPE   H2S17811   0.606   1.696   2.760 -1.7926  0.1122  1.5851
  160SAPE    C317812   0.461   1.835   2.318 -0.1202 -0.9682 -0.2096
  160SAPE    HX17813   0.458   1.819   2.208  0.8053 -0.6956 -0.2847
  160SAPE    HY17814   0.498   1.938   2.338 -1.7765 -0.6333  1.4621
  160SAPE   O3117815   0.333   1.828   2.384  0.8187 -0.0055  0.7282
  160SAPE   C3117816   0.234   1.909   2.333  0.1382  0.1450  0.7270
  160SAPE   O3217817   0.244   1.968   2.224  0.2628  0.2364 -0.6320
  160SAPE   C3217818   0.124   1.930   2.435  0.4345 -0.3773 -0.0209
  160SAPE   H2X17819   0.111   2.040   2.437 -0.3291 -0.4756  1.0955
  160SAPE   H2Y17820   0.165   1.898   2.533  2.3091 -2.3093 -1.3409
  160SAPE   C2317821   0.669   1.891   2.814  0.2012 -0.1570  0.0222
  160SAPE   H3R17822   0.633   1.993   2.787  0.1237 -0.3823 -0.7539
  160SAPE   H3S17823   0.772   1.879   2.774 -0.4400 -1.1880 -1.3899
  160SAPE   C2417824   0.645   1.854   2.961  0.1542  0.0906 -0.4634
  160SAPE   H4R17825   0.537   1.862   2.983  0.2050  2.6483 -0.8073
  160SAPE   H4S17826   0.694   1.939   3.013 -0.4251  0.6243 -0.7756
  160SAPE   C2517827   0.687   1.715   3.004  0.1343 -0.6958 -0.8148
  160SAPE   H5R17828   0.795   1.702   3.020 -0.2407 -2.5193  0.4478
  160SAPE   C2617829   0.619   1.612   3.053  0.1018 -0.4182  0.6494
  160SAPE   H6R17830   0.666   1.519   3.087  1.1314 -0.8606 -1.7774
  160SAPE   C2717831   0.470   1.632   3.060 -0.4395  0.8743  0.4892
  160SAPE   H7R17832   0.436   1.640   2.955 -0.2902 -3.1016 -0.0075
  160SAPE   H7S17833   0.432   1.717   3.121 -1.1320 -0.3068  1.7876
  160SAPE   C2817834   0.397   1.513   3.121 -0.4496  0.1937  0.0651
  160SAPE   H8R17835   0.327   1.461   3.054  0.1509 -0.3041 -0.1807
  160SAPE   C2917836   0.398   1.490   3.256  0.2720  0.7768  0.5895
  160SAPE   H9R17837   0.346   1.402   3.296  0.1017  0.8983  0.6332
  160SAPE  C21017838   0.471   1.556   3.368  0.2392  0.5007  0.7158
  160SAPE  H10R17839   0.393   1.608   3.428  0.0319 -0.4068  1.2505
  160SAPE  H10S17840   0.539   1.636   3.330 -0.7249 -0.0278 -2.3715
  160SAPE  C21117841   0.559   1.454   3.448  0.0143 -0.3518  0.0816
  160SAPE  H11R17842   0.649   1.428   3.391  0.6776  1.0353  0.4387
  160SAPE  C21217843   0.542   1.425   3.579 -0.3303 -0.3074 -0.2799
  160SAPE  H12R17844   0.619   1.360   3.624 -0.9168  0.3427  1.7113
  160SAPE  C21317845   0.436   1.486   3.670 -1.1790  0.1390  0.2401
  160SAPE  H13R17846   0.431   1.398   3.738  1.3761 -2.1671 -2.3021
  160SAPE  H13S17847   0.336   1.502   3.625 -1.3213  0.2316  0.5840
  160SAPE  C21417848   0.481   1.603   3.754 -0.5039  0.9945  0.3868
  160SAPE  H14R17849   0.431   1.694   3.717 -0.9623 -0.3860 -2.7416
  160SAPE  C21517850   0.571   1.610   3.853 -0.8073  0.6206  0.0226
  160SAPE  H15R17851   0.588   1.710   3.894  2.5107  0.1235  0.1287
  160SAPE  C21617852   0.659   1.498   3.905  0.8856  0.0961 -0.8414
  160SAPE  H16R17853   0.759   1.510   3.857  0.5051  0.8470 -1.4805
  160SAPE  H16S17854   0.619   1.400   3.874 -1.0050  0.6942 -0.4390
  160SAPE  C21717855   0.667   1.499   4.063 -0.2778 -0.1201  0.2646
  160SAPE  H17R17856   0.717   1.406   4.098  0.5548 -0.3217 -1.3731
  160SAPE  H17S17857   0.565   1.501   4.108 -0.1526 -1.9577  0.6810
  160SAPE  C21817858   0.741   1.624   4.125  0.5659  0.1709  1.3491
  160SAPE  H18R17859   0.802   1.671   4.045 -0.9403 -0.0746  0.0023
  160SAPE  H18S17860   0.802   1.589   4.211  1.3646 -0.3597  0.5874
  160SAPE  C21917861   0.644   1.737   4.175  0.0955  0.3508  0.4513
  160SAPE  H19R17862   0.598   1.703   4.269 -3.0257  1.3044 -0.6230
  160SAPE  H19S17863   0.562   1.756   4.102  0.6928 -1.0467 -0.6212
  160SAPE  C22017864   0.708   1.870   4.195 -0.2987  0.1553 -0.2106
  160SAPE  H20R17865   0.791   1.865   4.269 -1.9092 -1.0826  1.6146
  160SAPE  H20S17866   0.630   1.944   4.223 -0.4444  0.1609 -0.6230
  160SAPE  H20T17867   0.757   1.916   4.107  0.5007 -0.0477  0.1260
  160SAPE   C3317868  -0.003   1.857   2.399  0.2131  0.1358 -0.3652
  160SAPE   H3X17869  -0.034   1.881   2.295 -0.0478 -1.5191 -0.6920
  160SAPE   H3Y17870  -0.083   1.885   2.471  0.1925 -1.4540  0.2677
  160SAPE   C3417871   0.003   1.705   2.401 -0.1527  0.0848 -0.3379
  160SAPE   H4X17872   0.067   1.664   2.320 -1.9308 -0.4917 -1.5203
  160SAPE   H4Y17873  -0.097   1.659   2.386 -0.7577  1.1364  0.3696
  160SAPE   C3517874   0.061   1.655   2.540 -0.0763  0.4582 -0.4167
  160SAPE   H5X17875   0.159   1.704   2.559 -0.5096  0.7830  1.1587
  160SAPE   H5Y17876   0.079   1.546   2.535 -1.1192  0.1741  1.3018
  160SAPE   C3617877  -0.030   1.660   2.660  0.1458  0.6091  0.4236
  160SAPE   H6X17878  -0.127   1.612   2.637  1.5445 -2.8818  1.2233
  160SAPE   H6Y17879  -0.060   1.767   2.670 -0.9724  0.4133 -0.6737
  160SAPE   C3717880   0.037   1.612   2.793 -0.4341 -0.5942 -0.2688
  160SAPE   H7X17881   0.140   1.655   2.799 -0.1582 -1.3627  0.8771
  160SAPE   H7Y17882   0.046   1.501   2.799  0.3581 -0.5928 -1.1734
  160SAPE   C3817883  -0.034   1.664   2.920  0.2263 -0.0019 -0.2181
  160SAPE   H8X17884  -0.014   1.771   2.943  1.2154 -0.0268 -0.8798
  160SAPE   H8Y17885   0.004   1.613   3.010  1.5109  0.6891 -0.3442
  160SAPE   C3917886  -0.180   1.632   2.915 -0.6980  0.4307  0.1490
  160SAPE   H9X17887  -0.185   1.525   2.886  2.5181  0.7185 -1.9266
  160SAPE   H9Y17888  -0.237   1.703   2.851  0.1371  1.2827  0.3297
  160SAPE  C31017889  -0.237   1.639   3.059  0.2885 -0.3918  0.9980
  160SAPE  H10X17890  -0.230   1.748   3.080 -1.3155 -0.1687  0.4672
  160SAPE  H10Y17891  -0.171   1.584   3.129  0.5799 -1.5125 -0.1142
  160SAPE  C31117892  -0.385   1.605   3.072  0.2775  0.3012 -0.3835
  160SAPE  H11X17893  -0.406   1.499   3.049  2.3277  0.2646 -2.4489
  160SAPE  H11Y17894  -0.445   1.658   2.994 -0.1152  0.0881 -0.2271
  160SAPE  C31217895  -0.443   1.645   3.209 -0.1941  0.1617 -0.1066
  160SAPE  H12X17896  -0.552   1.625   3.199  0.0691 -2.6885  1.5222
  160SAPE  H12Y17897  -0.427   1.750   3.242  2.7986  0.2126 -1.3469
  160SAPE  C31317898  -0.385   1.556   3.316  0.1985  0.4947 -0.2446
  160SAPE  H13X17899  -0.276   1.572   3.329 -0.1236  1.7727  1.2173
  160SAPE  H13Y17900  -0.387   1.454   3.272 -0.6732  0.1617  0.5365
  160SAPE  C31417901  -0.468   1.542   3.439  0.3043  0.0344 -0.4811
  160SAPE  H14X17902  -0.419   1.466   3.503  0.3485  0.2080 -0.3079
  160SAPE  H14Y17903  -0.570   1.501   3.422  1.0453 -2.8716  1.3132
  160SAPE  C31517904  -0.463   1.678   3.524  0.5877  0.2123  0.3481
  160SAPE  H15X17905  -0.517   1.752   3.462  0.1954  0.5055  1.0256
  160SAPE  H15Y17906  -0.359   1.713   3.544  0.1365  1.7572  0.1158
  160SAPE  C31617907  -0.519   1.665   3.669  0.4522  0.2324  0.2071
  160SAPE  H16X17908  -0.445   1.606   3.726  1.5436  2.8816  1.6949
  160SAPE  H16Y17909  -0.615   1.610   3.663  0.2754  0.3735  1.4878
  160SAPE  C31717910  -0.532   1.797   3.750  0.2196  0.1405  0.9512
  160SAPE  H17X17911  -0.607   1.867   3.706 -0.6299 -0.8303  0.8139
  160SAPE  H17Y17912  -0.438   1.855   3.750  0.1935  0.1946  0.1108
  160SAPE  C31817913  -0.578   1.771   3.890  0.5221 -0.2796  0.1419
  160SAPE  H18X17914  -0.517   1.696   3.947  2.7044  2.7520  2.1144
  160SAPE  H18Y17915  -0.679   1.726   3.893  1.2730 -2.0772  0.2021
  160SAPE  H18Z17916  -0.559   1.861   3.952  1.4440  0.2877 -0.9199
  161SAPE     N17917   4.837   5.804   2.085  0.0965 -0.3220 -0.2978
  161SAPE   HN117918   4.777   5.721   2.071 -2.8349  1.6997 -0.5459
  161SAPE   HN217919   4.905   5.793   2.163  2.0794 -2.1244 -2.1411
  161SAPE   HN317920   4.769   5.874   2.121  0.2844 -0.7793  1.0061
  161SAPE   C1217921   4.898   5.850   1.962  0.0037 -0.1583 -0.3408
  161SAPE  H12A17922   4.838   5.907   1.887 -0.4259  0.8610  0.7520
  161SAPE  H12B17923   4.935   5.759   1.910 -2.3051 -1.3436 -0.0334
  161SAPE   C1117924   5.021   5.942   1.987 -0.1019  0.2842  0.3236
  161SAPE  H11A17925   4.992   6.031   2.046 -1.0787 -1.9175  3.4437
  161SAPE  H11B17926   5.061   5.983   1.892  0.8200 -0.6964  0.2657
  161SAPE     P17927   5.181   5.915   2.188 -0.2491  0.2686  0.1511
  161SAPE   O1317928   5.289   5.823   2.220  0.3301  0.6763 -0.1148
  161SAPE   O1417929   5.222   6.056   2.183 -0.2952 -0.3154 -0.1148
  161SAPE   O1217930   5.123   5.875   2.049 -0.2139  0.2539 -0.2598
  161SAPE   O1117931   5.065   5.897   2.292  0.0915 -0.4066  0.0163
  161SAPE    C117932   5.007   6.003   2.370 -0.4922  0.0880  0.5635
  161SAPE    HA17933   4.992   6.093   2.307  3.2806  1.5525  1.4581
  161SAPE    HB17934   4.903   5.978   2.401 -2.2029  3.0776 -2.2052
  161SAPE    C217935   5.098   6.038   2.495  0.2849  0.0579 -0.1553
  161SAPE    HS17936   5.202   6.052   2.459  0.3907 -0.0518  0.1119
  161SAPE   O2117937   5.065   5.937   2.593  0.4718 -0.3153 -0.0963
  161SAPE   C2117938   5.163   5.891   2.667  0.1364  0.5306 -0.0645
  161SAPE   O2217939   5.280   5.929   2.666  0.1923 -0.6774  0.3535
  161SAPE   C2217940   5.115   5.771   2.752  0.3546  0.4037  0.0047
  161SAPE   H2R17941   5.015   5.781   2.799  0.8344  1.8416  0.7768
  161SAPE   H2S17942   5.107   5.689   2.677 -0.5712  0.1695  0.3426
  161SAPE    C317943   5.058   6.177   2.552 -0.0043 -0.5478  0.0358
  161SAPE    HX17944   4.950   6.196   2.573  0.2091  1.0700 -0.1439
  161SAPE    HY17945   5.091   6.254   2.479  0.0302  0.6188  1.2331
  161SAPE   O3117946   5.119   6.208   2.674  0.1635 -0.6994  0.1096
  161SAPE   C3117947   5.242   6.267   2.665  0.0063  0.1151  1.1310
  161SAPE   O3217948   5.294   6.299   2.562 -0.9477  0.2589  0.3846
  161SAPE   C3217949   5.297   6.281   2.810 -0.1316  1.0300  0.3582
  161SAPE   H2X17950   5.368   6.367   2.813  1.7790 -0.4662 -0.0411
  161SAPE   H2Y17951   5.355   6.198   2.854  2.0073  2.0185 -0.4691
  161SAPE   C2317952   5.219   5.719   2.855  0.0751 -0.1527 -0.2542
  161SAPE   H3R17953   5.232   5.783   2.945  1.0891  0.7890 -1.0327
  161SAPE   H3S17954   5.321   5.724   2.811  1.1020 -1.4634  1.8017
  161SAPE   C2417955   5.207   5.572   2.901 -0.3384 -0.2948  1.0289
  161SAPE   H4R17956   5.211   5.504   2.813 -1.4913 -3.4025  3.1800
  161SAPE   H4S17957   5.100   5.568   2.930 -0.6215 -1.0868 -0.0427
  161SAPE   C2517958   5.307   5.520   3.000 -0.1910 -0.1484 -0.6681
  161SAPE   H5R17959   5.409   5.497   2.964 -0.6047  0.4261 -2.3256
  161SAPE   C2617960   5.285   5.515   3.130 -0.5164  0.2927 -0.5763
  161SAPE   H6R17961   5.352   5.451   3.189  0.2351  2.7962  1.4439
  161SAPE   C2717962   5.160   5.558   3.191  0.0591 -0.5130  0.3374
  161SAPE   H7R17963   5.098   5.470   3.162  0.1953 -0.7640  0.7931
  161SAPE   H7S17964   5.118   5.648   3.143 -1.0128 -0.6656  0.9709
  161SAPE   C2817965   5.171   5.577   3.342 -0.6951 -0.5548 -0.4290
  161SAPE   H8R17966   5.256   5.634   3.382  0.1907 -3.2273  1.7984
  161SAPE   C2917967   5.085   5.511   3.424 -0.6274 -0.3491 -0.2419
  161SAPE   H9R17968   5.101   5.525   3.532 -1.0743  1.5979 -0.4051
  161SAPE  C21017969   4.967   5.426   3.386  0.1875  0.2941  0.3562
  161SAPE  H10R17970   4.987   5.356   3.301 -0.5092  0.1026  0.3466
  161SAPE  H10S17971   4.885   5.491   3.349  1.4453  1.4343 -0.5403
  161SAPE  C21117972   4.903   5.353   3.507  0.6011  0.0244 -0.2317
  161SAPE  H11R17973   4.948   5.256   3.536 -0.9182 -0.7356 -0.3150
  161SAPE  C21217974   4.824   5.405   3.606 -0.7578  0.3233 -0.0102
  161SAPE  H12R17975   4.772   5.333   3.671 -0.2998  0.9307  1.0535
  161SAPE  C21317976   4.784   5.550   3.618 -0.5389  0.0518 -0.0944
  161SAPE  H13R17977   4.754   5.591   3.520 -1.9253 -2.1917 -0.6989
  161SAPE  H13S17978   4.872   5.606   3.656  0.2108  1.5069 -3.5779
  161SAPE  C21417979   4.671   5.582   3.715 -0.6765 -0.8692 -0.3784
  161SAPE  H14R17980   4.573   5.592   3.667 -1.3210  0.9616  1.1929
  161SAPE  C21517981   4.678   5.586   3.847  0.5592 -0.8459  0.2181
  161SAPE  H15R17982   4.593   5.603   3.915  0.9940  1.0163  0.3209
  161SAPE  C21617983   4.802   5.563   3.932  0.4350  0.4680 -0.5217
  161SAPE  H16R17984   4.887   5.585   3.864 -0.4770 -1.5749 -2.4682
  161SAPE  H16S17985   4.808   5.455   3.958  0.7790  0.6992  0.3928
  161SAPE  C21717986   4.816   5.640   4.061  0.2633  0.3556 -0.0991
  161SAPE  H17R17987   4.917   5.635   4.108 -1.3103  2.3109  4.0882
  161SAPE  H17S17988   4.747   5.587   4.130 -1.3319  1.3826 -0.8441
  161SAPE  C21817989   4.769   5.789   4.067  0.0512  0.4441 -0.2545
  161SAPE  H18R17990   4.669   5.788   4.019  0.3633  0.4382 -0.9109
  161SAPE  H18S17991   4.849   5.845   4.013  1.2283  0.1272  1.0900
  161SAPE  C21917992   4.747   5.841   4.212  0.0247  0.2822 -0.1069
  161SAPE  H19R17993   4.835   5.823   4.277  0.9274  1.5398 -0.9457
  161SAPE  H19S17994   4.665   5.781   4.257  0.5061 -1.0005 -0.8919
  161SAPE  C22017995   4.702   5.987   4.221  0.2542 -0.4260 -0.3656
  161SAPE  H20R17996   4.614   6.001   4.156  0.2128  0.0080 -0.2161
  161SAPE  H20S17997   4.772   6.068   4.191 -0.5798  1.4247  2.2682
  161SAPE  H20T17998   4.663   6.022   4.319 -0.9787 -3.4106  0.3257
  161SAPE   C3317999   5.189   6.322   2.918 -0.0048 -0.6869 -0.2192
  161SAPE   H3X18000   5.120   6.236   2.923  0.3019 -1.0992 -2.3744
  161SAPE   H3Y18001   5.145   6.418   2.883  0.5833 -0.6352 -0.8249
  161SAPE   C3418002   5.237   6.339   3.057  0.2109  0.2380 -0.7469
  161SAPE   H4X18003   5.325   6.407   3.061 -0.0784  0.6308 -0.9265
  161SAPE   H4Y18004   5.276   6.239   3.085 -1.9600 -0.0735  1.5185
  161SAPE   C3518005   5.126   6.361   3.164 -0.0922  0.8119  0.3864
  161SAPE   H5X18006   5.055   6.275   3.164  1.0623 -0.1789 -1.0041
  161SAPE   H5Y18007   5.078   6.458   3.141 -1.0068  0.0372 -1.1638
  161SAPE   C3618008   5.194   6.382   3.299  0.4362 -0.6885 -0.7129
  161SAPE   H6X18009   5.262   6.468   3.281 -1.2829  0.5032 -1.8198
  161SAPE   H6Y18010   5.255   6.300   3.341  1.6857  0.9060  0.7092
  161SAPE   C3718011   5.087   6.416   3.403 -0.2709 -0.1510 -0.0812
  161SAPE   H7X18012   5.001   6.349   3.378  0.9890 -1.9462  0.2386
  161SAPE   H7Y18013   5.048   6.520   3.393  0.5657  0.1711 -0.0187
  161SAPE   C3818014   5.120   6.383   3.552  0.1054 -0.1684  0.6815
  161SAPE   H8X18015   5.160   6.279   3.558  0.1982 -0.0686  2.2340
  161SAPE   H8Y18016   5.027   6.376   3.612 -0.6078 -0.9403 -0.4654
  161SAPE   C3918017   5.201   6.488   3.618 -0.2736 -0.0201 -0.0534
  161SAPE   H9X18018   5.144   6.582   3.603  0.7621  0.6503  0.0901
  161SAPE   H9Y18019   5.292   6.492   3.553 -0.5106 -2.5184 -0.6398
  161SAPE  C31018020   5.243   6.464   3.761  0.0455  0.5053  0.0116
  161SAPE  H10X18021   5.159   6.450   3.833 -0.1046 -0.3203 -0.3061
  161SAPE  H10Y18022   5.297   6.551   3.804  0.8675  1.2778 -2.3919
  161SAPE  C31118023   5.339   6.340   3.776  0.3023 -0.2661  0.5605
  161SAPE  H11X18024   5.412   6.367   3.697 -0.4560  1.7052  0.4718
  161SAPE  H11Y18025   5.285   6.247   3.748 -1.7678  1.0891 -0.2243
  161SAPE  C31218026   5.410   6.331   3.907 -0.6856  0.1316 -0.3209
  161SAPE  H12X18027   5.346   6.302   3.992  1.1476 -1.2011  0.6753
  161SAPE  H12Y18028   5.474   6.418   3.932 -0.0212 -1.2635  3.3549
  161SAPE  C31318029   5.505   6.208   3.900  0.6603  0.1660  0.0816
  161SAPE  H13X18030   5.544   6.206   3.796  1.4210  0.9864  0.3460
  161SAPE  H13Y18031   5.438   6.119   3.900  0.9889 -0.0814  0.0612
  161SAPE  C31418032   5.618   6.203   4.007 -0.4567  0.2850  0.4494
  161SAPE  H14X18033   5.578   6.248   4.101 -0.6098  1.3004 -0.0787
  161SAPE  H14Y18034   5.691   6.276   3.966  1.4099 -1.6051  0.2728
  161SAPE  C31518035   5.673   6.060   4.021  0.4349 -0.1568  0.4076
  161SAPE  H15X18036   5.749   6.047   3.941  0.6673  1.0167  0.4167
  161SAPE  H15Y18037   5.592   5.986   4.007 -1.3732  1.7481  0.1979
  161SAPE  C31618038   5.730   6.033   4.163 -0.5512  0.7250 -0.6844
  161SAPE  H16X18039   5.649   6.073   4.227 -1.4825 -0.4670 -1.0733
  161SAPE  H16Y18040   5.830   6.076   4.183 -0.0745 -0.5014 -0.3486
  161SAPE  C31718041   5.747   5.883   4.194 -0.5616  0.0230 -0.1384
  161SAPE  H17X18042   5.787   5.837   4.101  2.6345  0.9243  0.6556
  161SAPE  H17Y18043   5.646   5.842   4.213  0.3794 -1.6200  1.5995
  161SAPE  C31818044   5.834   5.846   4.316 -0.1337  0.2716 -0.0377
  161SAPE  H18X18045   5.780   5.894   4.400 -0.6722  1.0199 -0.7961
  161SAPE  H18Y18046   5.936   5.891   4.314 -0.0805  0.2468  1.2541
  161SAPE  H18Z18047   5.846   5.736   4.325 -1.3378  0.0336 -1.0399
  162SAPE     N18048   5.372   0.430   2.149 -0.3132 -0.0576 -0.1221
  162SAPE   HN118049   5.328   0.511   2.101  1.9830  1.9052  0.8524
  162SAPE   HN218050   5.371   0.458   2.249 -2.5140  2.7986 -0.7895
  162SAPE   HN318051   5.472   0.419   2.122 -0.3767  2.4767 -1.7954
  162SAPE   C1218052   5.281   0.312   2.145  0.5407 -0.4307 -0.7797
  162SAPE  H12A18053   5.302   0.246   2.232  1.3216  0.5188 -0.2240
  162SAPE  H12B18054   5.294   0.257   2.049  1.1565 -1.9522  0.1295
  162SAPE   C1118055   5.128   0.345   2.162  0.4594 -0.7002 -0.2522
  162SAPE  H11A18056   5.114   0.396   2.260 -0.9009  0.3938 -0.9901
  162SAPE  H11B18057   5.079   0.245   2.163 -0.2363 -0.3651  0.6683
  162SAPE     P18058   5.075   0.578   2.033  0.2803 -0.2770 -0.4781
  162SAPE   O1318059   5.216   0.614   2.019 -0.1806  0.1022 -0.3043
  162SAPE   O1418060   4.981   0.612   1.929  0.8010  0.7539  0.7014
  162SAPE   O1218061   5.079   0.419   2.055  0.2896 -0.1265 -0.0144
  162SAPE   O1118062   5.024   0.628   2.177  0.4521  0.4998 -0.0324
  162SAPE    C118063   4.884   0.605   2.212 -0.2622  0.2105 -0.1431
  162SAPE    HA18064   4.830   0.701   2.203 -0.4810  0.1066  0.0572
  162SAPE    HB18065   4.838   0.528   2.147  0.5100  0.8892 -1.5538
  162SAPE    C218066   4.883   0.561   2.362 -0.5514  0.6187  0.4478
  162SAPE    HS18067   4.946   0.469   2.361 -0.5170  0.6414  0.5299
  162SAPE   O2118068   4.747   0.542   2.407 -0.7056  0.2615  0.1219
  162SAPE   C2118069   4.689   0.425   2.406  0.2045 -0.1445  0.2651
  162SAPE   O2218070   4.740   0.319   2.367  0.2758 -0.5581 -0.2705
  162SAPE   C2218071   4.548   0.428   2.477  0.1840 -0.2949 -0.2801
  162SAPE   H2R18072   4.479   0.387   2.400  0.9533  0.0312 -1.1684
  162SAPE   H2S18073   4.559   0.351   2.556 -0.8193  1.4810  1.6849
  162SAPE    C318074   4.945   0.657   2.459 -0.0598 -0.5172 -0.3181
  162SAPE    HX18075   4.903   0.756   2.432  0.8510  0.0877  0.4365
  162SAPE    HY18076   5.055   0.662   2.441 -0.2503  1.2382 -1.1980
  162SAPE   O3118077   4.906   0.626   2.596 -0.1696 -0.1918 -0.7102
  162SAPE   C3118078   5.004   0.594   2.689  1.1758 -0.0548  0.0222
  162SAPE   O3218079   5.116   0.565   2.659 -0.2362 -0.0947 -0.6239
  162SAPE   C3218080   4.950   0.593   2.833 -0.6703 -0.1313 -0.0784
  162SAPE   H2X18081   4.839   0.581   2.832 -0.7055  0.0568 -1.7497
  162SAPE   H2Y18082   4.968   0.691   2.881 -1.4840  0.0427 -0.1097
  162SAPE   C2318083   4.499   0.555   2.548 -0.6859  1.0509 -0.6420
  162SAPE   H3R18084   4.500   0.631   2.467  4.2507  1.7642 -0.2035
  162SAPE   H3S18085   4.574   0.582   2.625  0.3890 -0.3646 -1.1310
  162SAPE   C2418086   4.358   0.524   2.602 -0.0129 -0.1792 -0.2092
  162SAPE   H4R18087   4.362   0.420   2.641  1.4471  0.1686  0.6424
  162SAPE   H4S18088   4.289   0.513   2.516  0.4123 -0.3220 -0.5403
  162SAPE   C2518089   4.310   0.631   2.698 -0.2945  0.6521  0.1636
  162SAPE   H5R18090   4.235   0.693   2.647  0.9686  1.9487 -0.1802
  162SAPE   C2618091   4.350   0.661   2.818 -1.2218  0.2129  0.0265
  162SAPE   H6R18092   4.312   0.747   2.875  1.7017  2.0597 -0.6097
  162SAPE   C2718093   4.463   0.590   2.883  0.1527  0.0237 -0.2476
  162SAPE   H7R18094   4.515   0.511   2.825  0.5553  0.3479 -0.3282
  162SAPE   H7S18095   4.413   0.540   2.969  0.6656  1.6672  1.0654
  162SAPE   C2818096   4.570   0.693   2.927 -0.3696  0.2130  0.2377
  162SAPE   H8R18097   4.638   0.726   2.847  0.0267 -0.8472  0.1193
  162SAPE   C2918098   4.583   0.747   3.049 -0.0299  0.2078  0.3423
  162SAPE   H9R18099   4.657   0.828   3.058  0.7211 -0.5653  1.2888
  162SAPE  C21018100   4.492   0.709   3.168 -0.2233 -0.2553  0.4670
  162SAPE  H10R18101   4.390   0.676   3.141  0.5455 -1.7982 -0.7648
  162SAPE  H10S18102   4.470   0.801   3.226 -1.5461 -0.5682  0.4814
  162SAPE  C21118103   4.558   0.608   3.257 -0.2972 -0.1094  0.1776
  162SAPE  H11R18104   4.514   0.509   3.238  0.5002 -0.5071  0.3837
  162SAPE  C21218105   4.648   0.634   3.351  0.0633  0.0740  0.6140
  162SAPE  H12R18106   4.678   0.547   3.412 -1.3000 -0.2797  0.8038
  162SAPE  C21318107   4.717   0.765   3.382  0.3768 -0.3010 -1.3133
  162SAPE  H13R18108   4.641   0.846   3.373  0.5576 -0.0863 -0.9312
  162SAPE  H13S18109   4.797   0.779   3.306  0.6841  3.2745 -0.4988
  162SAPE  C21418110   4.771   0.768   3.529  0.2130  0.2309  0.2926
  162SAPE  H14R18111   4.756   0.682   3.595 -0.1298  0.8803  1.0810
  162SAPE  C21518112   4.848   0.869   3.581  0.4167  0.0467 -0.1249
  162SAPE  H15R18113   4.878   0.868   3.687 -2.9182  0.0432  0.9534
  162SAPE  C21618114   4.898   0.996   3.512 -0.6131 -0.0424 -0.3693
  162SAPE  H16R18115   4.901   0.986   3.401  0.7383  0.3490 -0.3900
  162SAPE  H16S18116   5.005   1.021   3.532 -1.7350  3.4700  2.3554
  162SAPE  C21718117   4.815   1.123   3.543  0.1854 -0.7626 -0.8455
  162SAPE  H17R18118   4.865   1.197   3.477 -1.2451  0.0164 -1.1063
  162SAPE  H17S18119   4.822   1.154   3.649 -1.0480  1.8340 -1.4316
  162SAPE  C21818120   4.677   1.135   3.482  0.3755  1.3604 -0.7828
  162SAPE  H18R18121   4.607   1.071   3.540  0.9257  0.7205 -0.8148
  162SAPE  H18S18122   4.679   1.100   3.377  2.3496 -0.8096 -0.1180
  162SAPE  C21918123   4.625   1.280   3.490  0.3935 -0.2955  0.2275
  162SAPE  H19R18124   4.521   1.282   3.450 -0.2041 -1.0733  1.6887
  162SAPE  H19S18125   4.690   1.340   3.423 -1.0044  0.2021 -0.7523
  162SAPE  C22018126   4.621   1.338   3.633 -0.5772  0.8231  0.1856
  162SAPE  H20R18127   4.553   1.281   3.699  0.3174 -0.7016 -0.1634
  162SAPE  H20S18128   4.584   1.443   3.631  0.3319  1.1414 -0.8413
  162SAPE  H20T18129   4.723   1.334   3.677  0.0747 -2.4717 -1.3295
  162SAPE   C3318130   5.018   0.485   2.928  0.3327  0.1534  0.3760
  162SAPE   H3X18131   5.126   0.512   2.926  0.9344 -1.7361  2.8167
  162SAPE   H3Y18132   5.024   0.382   2.887  0.5875  0.6516 -0.8849
  162SAPE   C3418133   4.969   0.494   3.072 -0.5486  0.4661  0.9890
  162SAPE   H4X18134   4.861   0.475   3.057 -0.7409  1.0236  1.6058
  162SAPE   H4Y18135   4.990   0.596   3.111 -0.7957  1.3007 -0.9757
  162SAPE   C3518136   5.041   0.391   3.168  0.7807  0.4870 -0.1795
  162SAPE   H5X18137   5.147   0.386   3.135  0.4778  0.4318 -1.1840
  162SAPE   H5Y18138   5.003   0.288   3.153  0.2826  0.6028  0.2551
  162SAPE   C3618139   5.029   0.431   3.314  0.6871 -0.3301  0.3009
  162SAPE   H6X18140   5.019   0.339   3.375  1.2422 -0.9119 -0.4769
  162SAPE   H6Y18141   4.932   0.483   3.330 -0.4364 -2.6567  1.4002
  162SAPE   C3718142   5.149   0.518   3.362 -0.0556 -0.9066  0.2333
  162SAPE   H7X18143   5.169   0.598   3.288 -1.0775 -0.0065  0.8958
  162SAPE   H7Y18144   5.234   0.446   3.360  1.1244  0.4529 -0.0728
  162SAPE   C3818145   5.119   0.597   3.498  0.0071  0.0205 -0.9849
  162SAPE   H8X18146   5.039   0.673   3.506 -2.5578 -2.4106 -1.7957
  162SAPE   H8Y18147   5.213   0.648   3.529  0.1516 -0.2642 -0.9476
  162SAPE   C3918148   5.077   0.488   3.602  0.2276 -0.2010 -0.4375
  162SAPE   H9X18149   5.152   0.407   3.605  0.8711  0.3933 -0.1344
  162SAPE   H9Y18150   4.979   0.441   3.578  0.4722 -1.5714  1.0579
  162SAPE  C31018151   5.077   0.556   3.742  0.5049  0.0137 -0.0681
  162SAPE  H10X18152   5.000   0.636   3.735  0.5635  0.1027  0.3276
  162SAPE  H10Y18153   5.171   0.607   3.769  0.2215 -0.2430  1.5150
  162SAPE  C31118154   5.030   0.446   3.841 -0.4783  0.0330 -0.1450
  162SAPE  H11X18155   5.116   0.377   3.853 -0.1106  0.1505 -1.8631
  162SAPE  H11Y18156   4.935   0.400   3.805  0.0350  0.8741 -2.7912
  162SAPE  C31218157   4.995   0.512   3.977  0.3896 -0.0516 -0.1578
  162SAPE  H12X18158   4.973   0.430   4.049  1.6551  0.1552  0.4805
  162SAPE  H12Y18159   4.905   0.577   3.980  0.3336 -0.0018 -1.9253
  162SAPE  C31318160   5.122   0.584   4.032  0.2290  0.4921  0.5355
  162SAPE  H13X18161   5.123   0.685   3.987  0.3462 -0.2589 -1.2092
  162SAPE  H13Y18162   5.216   0.537   3.999  0.0497 -0.2807  1.0827
  162SAPE  C31418163   5.129   0.597   4.184 -0.5779 -0.4372  0.6285
  162SAPE  H14X18164   5.137   0.492   4.221  1.8390 -1.2270 -1.8771
  162SAPE  H14Y18165   5.031   0.639   4.218 -0.6876 -0.2016  0.0368
  162SAPE  C31518166   5.258   0.661   4.247 -0.5317 -0.0726 -0.2929
  162SAPE  H15X18167   5.284   0.750   4.187  1.1722  0.1281  0.6641
  162SAPE  H15Y18168   5.338   0.583   4.244 -0.2333  0.2385 -0.4481
  162SAPE  C31618169   5.251   0.691   4.398  0.2521 -0.7497 -0.5154
  162SAPE  H16X18170   5.208   0.603   4.449 -0.2414 -1.6813 -2.4827
  162SAPE  H16Y18171   5.171   0.766   4.418  0.6421 -0.7232  1.1670
  162SAPE  C31718172   5.385   0.725   4.464  0.0586  0.0367  0.2155
  162SAPE  H17X18173   5.447   0.795   4.404 -1.1862  0.9953  0.0013
  162SAPE  H17Y18174   5.445   0.631   4.464 -0.6764 -0.4441  0.6696
  162SAPE  C31818175   5.376   0.788   4.605  0.3652 -0.0791  0.0587
  162SAPE  H18X18176   5.327   0.724   4.682  0.4166  1.1389  1.1237
  162SAPE  H18Y18177   5.318   0.882   4.597 -0.3209 -0.5638 -0.9340
  162SAPE  H18Z18178   5.480   0.804   4.638  1.5018 -3.2974 -1.4817
  163SAPE     N18179   4.290   6.603   1.959 -1.0171  0.2815  0.0848
  163SAPE   HN118180   4.389   6.634   1.969 -0.4079 -1.2921 -0.6744
  163SAPE   HN218181   4.288   6.502   1.934 -1.9523  0.7245 -1.8203
  163SAPE   HN318182   4.245   6.666   1.890  1.5207  2.2723  0.1211
  163SAPE   C1218183   4.215   6.608   2.088  0.1653 -0.7618  0.3806
  163SAPE  H12A18184   4.112   6.571   2.069 -0.5512  1.0000  0.7300
  163SAPE  H12B18185   4.207   6.717   2.107 -0.5062 -1.0260  1.7265
  163SAPE   C1118186   4.280   6.542   2.213 -0.8500  0.7251 -0.2215
  163SAPE  H11A18187   4.231   6.570   2.309  0.0904  2.2163 -0.1421
  163SAPE  H11B18188   4.382   6.583   2.230  0.1433 -0.8458 -2.0111
  163SAPE     P18189   4.175   6.301   2.234 -0.0602  0.0942  0.1276
  163SAPE   O1318190   4.048   6.371   2.243 -0.1368  0.3119 -0.1099
  163SAPE   O1418191   4.186   6.189   2.141  0.6134  0.5671 -1.0534
  163SAPE   O1218192   4.294   6.400   2.203  0.6533  0.1372  0.0383
  163SAPE   O1118193   4.208   6.255   2.382  0.0087 -0.2489  0.3336
  163SAPE    C118194   4.334   6.188   2.413  0.5029  0.2254 -0.4723
  163SAPE    HA18195   4.325   6.088   2.366 -0.6932 -0.0780  0.3452
  163SAPE    HB18196   4.423   6.234   2.364  1.7749 -1.5009  0.1139
  163SAPE    C218197   4.369   6.185   2.559 -0.3685  0.3062  0.1675
  163SAPE    HS18198   4.478   6.195   2.572 -0.2710  0.5311 -0.7471
  163SAPE   O2118199   4.320   6.077   2.635 -0.2288 -0.1102  0.1472
  163SAPE   C2118200   4.408   5.969   2.652  0.8085 -0.7954  0.1743
  163SAPE   O2218201   4.518   5.969   2.602  0.1956  0.2567 -0.2652
  163SAPE   C2218202   4.346   5.875   2.756  0.8968  0.1314 -0.2263
  163SAPE   H2R18203   4.265   5.819   2.704  0.2945 -0.5421  1.3586
  163SAPE   H2S18204   4.428   5.805   2.783 -0.1151  0.3922  4.2291
  163SAPE    C318205   4.322   6.321   2.617  0.3772 -0.3938 -0.3329
  163SAPE    HX18206   4.215   6.338   2.590 -0.6446  1.5032  4.0189
  163SAPE    HY18207   4.388   6.403   2.583  0.6310 -0.7625 -0.7483
  163SAPE   O3118208   4.345   6.331   2.759 -0.3478  0.1247  0.1206
  163SAPE   C3118209   4.258   6.303   2.845  0.1604  0.4392 -0.6627
  163SAPE   O3218210   4.146   6.253   2.828  0.6377 -0.2205  0.1059
  163SAPE   C3218211   4.318   6.345   2.980  0.3999  0.4668 -0.8604
  163SAPE   H2X18212   4.287   6.450   3.003  1.9833  1.7098 -3.8464
  163SAPE   H2Y18213   4.428   6.350   2.988  0.2767  0.1821  1.5220
  163SAPE   C2318214   4.283   5.931   2.884 -0.0184  0.3106 -0.6644
  163SAPE   H3R18215   4.202   6.003   2.861 -0.6300  0.6371  2.1015
  163SAPE   H3S18216   4.363   5.986   2.938 -1.8676 -0.8846  3.7063
  163SAPE   C2418217   4.226   5.823   2.973 -0.7151 -0.0925 -0.2590
  163SAPE   H4R18218   4.314   5.755   2.980  0.0078  0.9633  1.9130
  163SAPE   H4S18219   4.140   5.774   2.923 -0.2809 -1.1499 -0.0081
  163SAPE   C2518220   4.195   5.890   3.101  0.3735 -0.0589 -0.6773
  163SAPE   H5R18221   4.132   5.979   3.086  0.6867  0.3717  0.5159
  163SAPE   C2618222   4.235   5.853   3.225  1.2496 -0.5699  0.2984
  163SAPE   H6R18223   4.197   5.924   3.300 -2.9461  1.2572 -3.1342
  163SAPE   C2718224   4.319   5.733   3.270  0.4979  0.1996 -0.1663
  163SAPE   H7R18225   4.356   5.672   3.184 -0.0161 -0.7747  0.2789
  163SAPE   H7S18226   4.256   5.659   3.324 -0.7867  0.8041 -0.8078
  163SAPE   C2818227   4.438   5.767   3.355  0.6728  0.5535 -0.8063
  163SAPE   H8R18228   4.535   5.774   3.304  1.0228 -1.6124 -0.5399
  163SAPE   C2918229   4.439   5.789   3.493  0.1554  0.6092  1.4279
  163SAPE   H9R18230   4.536   5.823   3.533  0.9353  0.9975 -0.6546
  163SAPE  C21018231   4.321   5.791   3.581  0.8259 -0.9579  0.2173
  163SAPE  H10R18232   4.232   5.818   3.520  0.3009  3.3315  2.4762
  163SAPE  H10S18233   4.325   5.881   3.646  0.4927 -0.7417 -0.0610
  163SAPE  C21118234   4.323   5.668   3.672  0.6251 -0.6342  0.5169
  163SAPE  H11R18235   4.308   5.573   3.619  2.7180 -0.5660 -0.3068
  163SAPE  C21218236   4.340   5.669   3.808  0.1232 -0.3640  0.4612
  163SAPE  H12R18237   4.337   5.572   3.861  0.1745 -2.9459 -3.7892
  163SAPE  C21318238   4.355   5.790   3.903 -0.0442  0.4839 -0.2017
  163SAPE  H13R18239   4.368   5.883   3.845 -0.4957 -0.3348 -1.6654
  163SAPE  H13S18240   4.439   5.763   3.970  0.4068 -0.0807 -0.9766
  163SAPE  C21418241   4.225   5.800   3.977  0.0039  0.1828  0.7740
  163SAPE  H14R18242   4.138   5.845   3.927 -0.6874 -0.6570  1.1857
  163SAPE  C21518243   4.198   5.756   4.097  0.0803 -0.1094 -0.6208
  163SAPE  H15R18244   4.099   5.780   4.139 -1.2489 -0.9958 -3.0508
  163SAPE  C21618245   4.296   5.689   4.190 -0.7953 -0.0574  0.4898
  163SAPE  H16R18246   4.398   5.677   4.149 -1.0717 -0.2508 -0.1546
  163SAPE  H16S18247   4.265   5.584   4.207  2.3519 -1.1221  0.1753
  163SAPE  C21718248   4.291   5.767   4.322  0.1265  0.1606  0.0449
  163SAPE  H17R18249   4.379   5.732   4.382 -1.2603  1.9272  3.3698
  163SAPE  H17S18250   4.205   5.739   4.387  1.0327 -0.0669  1.1936
  163SAPE  C21818251   4.308   5.920   4.316  0.1212  0.3244  0.2749
  163SAPE  H18R18252   4.230   5.967   4.253 -1.5848 -1.3887  1.0466
  163SAPE  H18S18253   4.404   5.935   4.261 -0.3501 -0.9176 -0.9549
  163SAPE  C21918254   4.292   5.981   4.452 -0.0943  0.3778  0.1508
  163SAPE  H19R18255   4.352   5.922   4.525  3.3845  1.7964 -1.3308
  163SAPE  H19S18256   4.186   5.993   4.485  0.0335  0.7985  0.4248
  163SAPE  C22018257   4.353   6.118   4.450  0.7244 -0.3476  0.0363
  163SAPE  H20R18258   4.461   6.115   4.421  0.5995  0.9754 -0.5988
  163SAPE  H20S18259   4.349   6.163   4.552 -1.5631 -2.2149  0.8758
  163SAPE  H20T18260   4.296   6.184   4.382 -0.1357  0.6781  1.6810
  163SAPE   C3318261   4.257   6.262   3.092  0.5630 -0.3397 -0.1717
  163SAPE   H3X18262   4.279   6.155   3.072 -0.9061 -0.1865 -3.0994
  163SAPE   H3Y18263   4.150   6.292   3.098  1.4941  3.2506  1.5956
  163SAPE   C3418264   4.321   6.317   3.218 -0.3048 -0.3681 -0.4372
  163SAPE   H4X18265   4.278   6.418   3.232  1.1113 -0.0283  1.9937
  163SAPE   H4Y18266   4.430   6.336   3.208 -0.4066  0.5238  0.0281
  163SAPE   C3518267   4.288   6.233   3.339 -0.4426 -0.2176 -0.1792
  163SAPE   H5X18268   4.320   6.127   3.332  1.4899  0.2737  0.6635
  163SAPE   H5Y18269   4.180   6.223   3.363 -0.1727 -2.9146  0.2301
  163SAPE   C3618270   4.358   6.287   3.465 -0.7440 -0.0085 -0.3586
  163SAPE   H6X18271   4.373   6.394   3.440 -1.5992 -0.2146 -1.8873
  163SAPE   H6Y18272   4.456   6.235   3.472 -0.4233  0.0835 -2.9988
  163SAPE   C3718273   4.278   6.260   3.588  0.1224  0.2365  0.1953
  163SAPE   H7X18274   4.214   6.170   3.576 -0.7437  0.2787  3.6051
  163SAPE   H7Y18275   4.202   6.340   3.605  0.6673  0.8125 -0.0202
  163SAPE   C3818276   4.370   6.252   3.713 -0.5340 -0.0264  0.0319
  163SAPE   H8X18277   4.411   6.351   3.743 -1.1997  0.2689 -0.0002
  163SAPE   H8Y18278   4.462   6.196   3.687 -0.8341  0.4733 -2.3450
  163SAPE   C3918279   4.287   6.177   3.827 -0.3786 -0.0414 -0.1312
  163SAPE   H9X18280   4.272   6.069   3.803  1.1126 -1.1315  3.2420
  163SAPE   H9Y18281   4.189   6.221   3.857 -0.0200  0.4863  0.2658
  163SAPE  C31018282   4.367   6.180   3.966  0.3318 -0.4533  0.3889
  163SAPE  H10X18283   4.473   6.153   3.944  1.0946  0.0737  3.0553
  163SAPE  H10Y18284   4.320   6.100   4.027 -0.7192  0.4796  0.8256
  163SAPE  C31118285   4.370   6.315   4.033  0.5655  0.1705  0.1714
  163SAPE  H11X18286   4.272   6.356   4.064 -0.2806 -2.9003  2.0523
  163SAPE  H11Y18287   4.406   6.382   3.952 -0.7759 -0.7495 -1.2450
  163SAPE  C31218288   4.467   6.320   4.161 -0.4453 -0.2753  1.5899
  163SAPE  H12X18289   4.454   6.232   4.227  0.3568 -0.3513  1.6609
  163SAPE  H12Y18290   4.429   6.408   4.217 -0.2584  0.8482  0.0245
  163SAPE  C31318291   4.615   6.330   4.120  0.4124  0.6034  0.5167
  163SAPE  H13X18292   4.613   6.407   4.041  1.1121  0.2187  0.1147
  163SAPE  H13Y18293   4.646   6.233   4.075  0.8173  0.0964  1.8285
  163SAPE  C31418294   4.710   6.363   4.233 -1.1239  0.0489  0.6178
  163SAPE  H14X18295   4.720   6.280   4.307  1.6127  0.1689  0.4843
  163SAPE  H14Y18296   4.667   6.447   4.292  0.8582  0.8095  1.0621
  163SAPE  C31518297   4.849   6.396   4.175  0.8608 -0.5920 -0.7799
  163SAPE  H15X18298   4.863   6.326   4.090  1.3057  0.3854 -1.5271
  163SAPE  H15Y18299   4.928   6.384   4.253 -0.7663 -0.3883  0.9580
  163SAPE  C31618300   4.868   6.535   4.116  0.3884  0.0187  0.0024
  163SAPE  H16X18301   4.860   6.609   4.198  0.9993 -0.0409  0.1186
  163SAPE  H16Y18302   4.792   6.561   4.039  0.0641 -1.9418 -0.3995
  163SAPE  C31718303   4.996   6.549   4.031 -0.4800 -0.5098  0.3545
  163SAPE  H17X18304   4.990   6.652   3.991 -0.1017  0.4100  2.5322
  163SAPE  H17Y18305   4.992   6.478   3.946  2.2711  1.6018 -1.7328
  163SAPE  C31818306   5.130   6.546   4.106 -0.5693 -0.1398 -0.1527
  163SAPE  H18X18307   5.150   6.448   4.156 -1.1937  0.1107  0.6144
  163SAPE  H18Y18308   5.143   6.624   4.183  1.3145 -2.6036  2.2484
  163SAPE  H18Z18309   5.207   6.565   4.028  0.5697 -0.3582  0.8804
  164SAPE     N18310   0.255   3.491   2.287 -0.3745  0.0328  0.3935
  164SAPE   HN118311   0.183   3.465   2.357  0.5254  0.3945  1.4875
  164SAPE   HN218312   0.204   3.469   2.199 -0.4221 -1.7645  0.8296
  164SAPE   HN318313   0.331   3.423   2.310  0.1429  1.1124  2.1002
  164SAPE   C1218314   0.309   3.627   2.306  0.6354 -0.1899  0.0482
  164SAPE  H12A18315   0.229   3.703   2.292 -0.6212 -1.6531 -1.0993
  164SAPE  H12B18316   0.395   3.647   2.239  0.1913  0.4732 -0.3354
  164SAPE   C1118317   0.361   3.635   2.453 -0.3801 -0.0075 -0.8867
  164SAPE  H11A18318   0.277   3.641   2.526  1.3963 -0.2702  1.3172
  164SAPE  H11B18319   0.419   3.728   2.476  1.1996 -0.9866 -0.7435
  164SAPE     P18320   0.593   3.514   2.508 -0.0748 -0.1264  0.1867
  164SAPE   O1318321   0.624   3.372   2.539 -0.2689 -0.3566 -0.0913
  164SAPE   O1418322   0.658   3.569   2.383  0.3262 -0.5092  0.5248
  164SAPE   O1218323   0.439   3.518   2.487  0.2696  0.1196  0.0337
  164SAPE   O1118324   0.616   3.605   2.632 -0.0767  0.1140  0.3011
  164SAPE    C118325   0.597   3.582   2.767  0.0731  0.7438  0.2313
  164SAPE    HA18326   0.498   3.536   2.787 -0.5576  1.7061 -0.5828
  164SAPE    HB18327   0.687   3.524   2.795  0.5536  0.7881 -1.1113
  164SAPE    C218328   0.600   3.718   2.838  0.4273 -0.7516 -0.0223
  164SAPE    HS18329   0.706   3.752   2.843  0.8597 -2.0059 -0.2106
  164SAPE   O2118330   0.528   3.711   2.962 -0.3934  0.5341 -0.1327
  164SAPE   C2118331   0.591   3.640   3.053 -0.2995 -0.0404 -0.6656
  164SAPE   O2218332   0.705   3.596   3.043  0.4004 -0.2387  0.0179
  164SAPE   C2218333   0.512   3.641   3.185 -0.0056  0.3989  0.3057
  164SAPE   H2R18334   0.429   3.714   3.179 -1.1943 -0.8244  1.4373
  164SAPE   H2S18335   0.477   3.536   3.192  0.4299  0.2944  0.9376
  164SAPE    C318336   0.523   3.827   2.744  0.9159  0.5870 -0.5677
  164SAPE    HX18337   0.428   3.786   2.705  1.3977 -0.5245 -0.6179
  164SAPE    HY18338   0.591   3.836   2.656  2.5159 -1.7238  0.3192
  164SAPE   O3118339   0.502   3.955   2.819  0.1359  0.2869  0.5202
  164SAPE   C3118340   0.600   4.037   2.800 -0.8592  0.1587  0.3552
  164SAPE   O3218341   0.680   4.030   2.706 -0.3835 -0.7641 -0.3515
  164SAPE   C3218342   0.605   4.132   2.915  0.6856 -0.9357 -0.1922
  164SAPE   H2X18343   0.711   4.163   2.930  0.7365 -0.9331 -0.5566
  164SAPE   H2Y18344   0.582   4.082   3.012 -1.9748  0.4504 -0.0212
  164SAPE   C2318345   0.594   3.672   3.313 -0.2754 -0.6508 -0.3647
  164SAPE   H3R18346   0.668   3.592   3.333 -0.5301 -0.5022  1.3490
  164SAPE   H3S18347   0.528   3.651   3.401  1.0174  0.1808  0.8496
  164SAPE   C2418348   0.664   3.805   3.320  0.3262  0.0800 -0.0800
  164SAPE   H4R18349   0.764   3.806   3.271 -1.5353 -0.6043 -4.4204
  164SAPE   H4S18350   0.695   3.818   3.425  2.0351  0.1151 -0.5598
  164SAPE   C2518351   0.576   3.915   3.275 -0.6386 -0.9557  0.2192
  164SAPE   H5R18352   0.575   3.945   3.169 -0.4068  0.6864  0.6633
  164SAPE   C2618353   0.500   3.988   3.361 -0.1088  0.7934 -0.8928
  164SAPE   H6R18354   0.441   4.075   3.328  0.1152  1.3081  0.0404
  164SAPE   C2718355   0.494   3.956   3.509 -0.0245 -0.4456 -0.0100
  164SAPE   H7R18356   0.594   3.952   3.558 -0.5859  1.5818  1.4364
  164SAPE   H7S18357   0.449   3.856   3.524 -1.6837 -0.1660 -2.5911
  164SAPE   C2818358   0.427   4.063   3.592 -0.1785 -0.7817  0.1272
  164SAPE   H8R18359   0.343   4.122   3.550 -0.5763 -0.2506  1.6093
  164SAPE   C2918360   0.442   4.095   3.720  0.2003 -0.0521 -0.2587
  164SAPE   H9R18361   0.389   4.179   3.767  0.8443 -0.9531  2.2525
  164SAPE  C21018362   0.537   4.032   3.825 -0.3913  0.7321  0.2740
  164SAPE  H10R18363   0.512   4.060   3.930  0.9601  2.6664  0.1423
  164SAPE  H10S18364   0.635   4.083   3.813 -0.4324  1.0714  1.2316
  164SAPE  C21118365   0.566   3.883   3.825  0.1707  0.0827  0.3861
  164SAPE  H11R18366   0.492   3.824   3.770  0.0029  0.4076  0.2581
  164SAPE  C21218367   0.673   3.822   3.878  0.2787 -0.5145  0.0310
  164SAPE  H12R18368   0.658   3.713   3.877  1.0790 -0.6580  1.3955
  164SAPE  C21318369   0.780   3.894   3.961 -0.1539  0.1790  0.2949
  164SAPE  H13R18370   0.833   3.825   4.028 -0.1299  0.7726  0.8981
  164SAPE  H13S18371   0.729   3.972   4.022 -0.4108 -0.8884  1.4763
  164SAPE  C21418372   0.889   3.969   3.882  0.3795  0.8745  0.1579
  164SAPE  H14R18373   0.942   3.911   3.805 -0.6825  1.2077 -0.8497
  164SAPE  C21518374   0.951   4.083   3.910  0.0170 -0.0443  0.3775
  164SAPE  H15R18375   1.029   4.121   3.843  0.0603  0.3707  0.6578
  164SAPE  C21618376   0.916   4.172   4.020 -0.8021  0.0700  0.0258
  164SAPE  H16R18377   1.014   4.197   4.067 -0.6729 -0.1210 -0.1367
  164SAPE  H16S18378   0.860   4.111   4.094  1.4379 -0.5679  1.3025
  164SAPE  C21718379   0.840   4.300   3.985 -0.4322 -0.1684 -0.6967
  164SAPE  H17R18380   0.747   4.264   3.935 -0.9099 -0.6662  0.5172
  164SAPE  H17S18381   0.902   4.365   3.919  2.0585 -0.2362  1.4054
  164SAPE  C21818382   0.786   4.370   4.109 -0.6131 -0.4812 -0.4512
  164SAPE  H18R18383   0.873   4.389   4.176  0.6532 -0.3369 -2.0485
  164SAPE  H18S18384   0.716   4.303   4.162 -1.0559  1.5434  1.6758
  164SAPE  C21918385   0.723   4.502   4.083  0.3613 -0.2347 -0.4967
  164SAPE  H19R18386   0.621   4.507   4.038 -1.0476 -0.2002  2.4207
  164SAPE  H19S18387   0.788   4.572   4.027 -0.8974  1.2443 -0.1829
  164SAPE  C22018388   0.727   4.577   4.213  0.1832 -0.2801  0.0879
  164SAPE  H20R18389   0.826   4.590   4.260  0.7378 -1.5020 -0.6962
  164SAPE  H20S18390   0.653   4.527   4.279  0.5220  0.8860  1.4015
  164SAPE  H20T18391   0.704   4.683   4.190 -0.3212 -0.4388 -0.1473
  164SAPE   C3318392   0.525   4.263   2.896  0.0010  0.2528 -0.5083
  164SAPE   H3X18393   0.555   4.315   2.802 -1.7123  1.4402 -0.4330
  164SAPE   H3Y18394   0.545   4.341   2.972  0.7319 -0.2520 -0.1744
  164SAPE   C3418395   0.371   4.243   2.895 -0.6944 -0.0041 -0.2411
  164SAPE   H4X18396   0.338   4.166   2.821  0.2847  1.0829 -1.8804
  164SAPE   H4Y18397   0.329   4.343   2.872  0.3099  0.1425 -1.6210
  164SAPE   C3518398   0.319   4.188   3.031 -0.4542  0.0794  0.4196
  164SAPE   H5X18399   0.343   4.267   3.105 -0.1451  1.5254 -1.1878
  164SAPE   H5Y18400   0.373   4.096   3.064  0.7270  0.4191 -0.5077
  164SAPE   C3618401   0.167   4.172   3.034 -0.2512 -0.4020  0.7452
  164SAPE   H6X18402   0.138   4.072   2.993 -3.5506  0.3805  0.8774
  164SAPE   H6Y18403   0.125   4.242   2.958  0.8652 -0.8799 -0.3554
  164SAPE   C3718404   0.111   4.188   3.177 -0.3480 -0.1229 -0.3931
  164SAPE   H7X18405   0.138   4.287   3.219  1.4008 -0.4752 -0.6058
  164SAPE   H7Y18406   0.158   4.106   3.237  1.1452  0.8394 -0.1827
  164SAPE   C3818407  -0.042   4.167   3.182 -0.4473  0.3171 -0.7633
  164SAPE   H8X18408  -0.065   4.060   3.166 -0.2529  0.4420 -1.9488
  164SAPE   H8Y18409  -0.087   4.228   3.101 -1.8125  1.5872  0.8808
  164SAPE   C3918410  -0.095   4.193   3.325  0.0668 -0.7074 -0.5757
  164SAPE   H9X18411  -0.204   4.171   3.323  0.2619 -2.1403  1.2683
  164SAPE   H9Y18412  -0.071   4.298   3.353  1.7035 -1.0889 -0.4303
  164SAPE  C31018413  -0.039   4.098   3.431 -0.2965 -0.3688  0.1990
  164SAPE  H10X18414   0.067   4.120   3.454  0.8936 -0.1078 -4.4362
  164SAPE  H10Y18415  -0.043   3.998   3.382 -3.6345  0.4827 -1.5344
  164SAPE  C31118416  -0.120   4.105   3.558 -0.3281  0.4234 -0.1907
  164SAPE  H11X18417  -0.226   4.084   3.533 -0.2657  1.1834 -1.1868
  164SAPE  H11Y18418  -0.112   4.213   3.584  2.7227  0.5556 -1.2744
  164SAPE  C31218419  -0.084   4.013   3.673 -0.1320 -0.8292 -0.8553
  164SAPE  H12X18420   0.022   4.031   3.701 -0.7606 -0.7416  1.7278
  164SAPE  H12Y18421  -0.101   3.905   3.653 -1.1709 -0.9782  0.6769
  164SAPE  C31318422  -0.154   4.046   3.808  0.0705  0.5408 -0.1522
  164SAPE  H13X18423  -0.264   4.048   3.793 -0.1463 -1.2452  0.9458
  164SAPE  H13Y18424  -0.127   4.152   3.825 -2.5315  0.9551  2.0969
  164SAPE  C31418425  -0.101   3.973   3.930 -0.4019  0.7199 -0.1946
  164SAPE  H14X18426  -0.104   3.862   3.918 -0.4901  0.6331  0.5799
  164SAPE  H14Y18427  -0.166   4.009   4.012 -1.4101  0.0702 -0.6892
  164SAPE  C31518428   0.042   4.012   3.986  0.1721  0.1338 -0.9809
  164SAPE  H15X18429   0.049   4.122   3.992  2.5715 -0.0167  0.3627
  164SAPE  H15Y18430   0.113   3.969   3.912  0.7193 -0.0198 -0.3781
  164SAPE  C31618431   0.070   3.956   4.134  0.0841  0.4273  0.6253
  164SAPE  H16X18432   0.057   3.846   4.137  0.2789  0.3647 -0.3562
  164SAPE  H16Y18433  -0.007   3.992   4.205 -0.6670  0.6060 -0.2591
  164SAPE  C31718434   0.211   3.982   4.183  0.3690 -0.2389  0.0413
  164SAPE  H17X18435   0.218   3.925   4.278 -1.9056 -2.5371 -1.0543
  164SAPE  H17Y18436   0.234   4.090   4.197 -0.1376 -0.0844 -0.2610
  164SAPE  C31818437   0.319   3.930   4.093  0.8539 -0.2842  0.5227
  164SAPE  H18X18438   0.420   3.939   4.139  0.9291 -0.3311  0.3707
  164SAPE  H18Y18439   0.336   3.993   4.002  1.9082  0.4141  1.1881
  164SAPE  H18Z18440   0.304   3.824   4.062  0.0710 -0.7092  2.2677
  165SAPE     N18441   6.439   6.679   2.178  0.9739  0.0570  0.0236
  165SAPE   HN118442   6.396   6.745   2.247 -1.7987 -0.1468 -1.4108
  165SAPE   HN218443   6.364   6.621   2.136 -1.6137  2.6506  0.6922
  165SAPE   HN318444   6.503   6.608   2.219  0.6128 -1.2978 -1.6445
  165SAPE   C1218445   6.508   6.751   2.058  1.1248  0.6415  0.1603
  165SAPE  H12A18446   6.463   6.704   1.968  0.3754 -0.0629  0.8923
  165SAPE  H12B18447   6.614   6.717   2.057  1.5726  1.9228 -1.5730
  165SAPE   C1118448   6.487   6.904   2.054 -0.1906 -0.8424 -0.1641
  165SAPE  H11A18449   6.535   6.943   1.962 -3.0390 -0.1063 -1.4257
  165SAPE  H11B18450   6.537   6.955   2.139  1.1930  1.4650 -2.2367
  165SAPE     P18451   6.301   7.092   2.078  0.4557  0.4411 -0.3536
  165SAPE   O1318452   6.407   7.187   2.034  0.3254 -0.0173  0.1495
  165SAPE   O1418453   6.165   7.113   2.015 -0.2321  0.4108 -0.5867
  165SAPE   O1218454   6.354   6.946   2.054  0.1619  0.3186 -0.3131
  165SAPE   O1118455   6.286   7.095   2.234 -0.2965 -0.3506  0.2101
  165SAPE    C118456   6.186   7.177   2.301 -0.1590  0.1486  0.7573
  165SAPE    HA18457   6.115   7.223   2.229 -0.2207 -0.7928  0.1997
  165SAPE    HB18458   6.132   7.110   2.371  1.3695  1.0660  2.9219
  165SAPE    C218459   6.251   7.288   2.385 -0.2658 -0.8820  0.1111
  165SAPE    HS18460   6.315   7.354   2.324  2.0377 -2.2389  0.9302
  165SAPE   O2118461   6.336   7.223   2.488  0.0784  0.7880 -0.0241
  165SAPE   C2118462   6.447   7.290   2.522  0.2580  1.0725  0.4101
  165SAPE   O2218463   6.489   7.382   2.456  0.2246 -0.0857 -0.6849
  165SAPE   C2218464   6.520   7.229   2.641  0.0389 -0.3046 -0.4185
  165SAPE   H2R18465   6.627   7.234   2.611  0.8991 -1.1653  2.2215
  165SAPE   H2S18466   6.519   7.295   2.730  0.6266 -2.1987  1.0499
  165SAPE    C318467   6.143   7.377   2.445  0.6720  0.8350  0.6607
  165SAPE    HX18468   6.068   7.320   2.505  0.4310  1.6164  1.1123
  165SAPE    HY18469   6.088   7.413   2.355  0.1782  0.4413  0.7976
  165SAPE   O3118470   6.191   7.470   2.537 -0.5286 -0.8930  0.0608
  165SAPE   C3118471   6.269   7.568   2.495 -0.4974 -0.2990 -0.3442
  165SAPE   O3218472   6.293   7.597   2.380  0.3087 -0.4506  0.5254
  165SAPE   C3218473   6.333   7.635   2.616  0.3046 -0.2409 -0.0241
  165SAPE   H2X18474   6.436   7.594   2.626  0.2550 -0.3542  0.0292
  165SAPE   H2Y18475   6.270   7.610   2.704  1.0723  1.2641  1.0012
  165SAPE   C2318476   6.463   7.094   2.679  0.7880  0.2852 -0.1606
  165SAPE   H3R18477   6.486   7.022   2.598 -0.3611  0.5607 -0.7535
  165SAPE   H3S18478   6.352   7.099   2.687  0.9065  0.5209  1.9614
  165SAPE   C2418479   6.528   7.047   2.810 -0.4600  0.6018  0.2214
  165SAPE   H4R18480   6.633   7.080   2.797 -0.7288  1.1826 -0.6633
  165SAPE   H4S18481   6.537   6.937   2.808  2.3394  0.7308 -2.4094
  165SAPE   C2518482   6.452   7.092   2.936 -0.3191  0.3667 -0.2002
  165SAPE   H5R18483   6.342   7.094   2.931 -0.3183 -0.8949 -1.1140
  165SAPE   C2618484   6.509   7.120   3.059 -0.0957 -0.6577  0.2276
  165SAPE   H6R18485   6.437   7.140   3.140  0.0569  0.0877  0.1873
  165SAPE   C2718486   6.652   7.124   3.107 -0.0455  0.5562 -0.1951
  165SAPE   H7R18487   6.678   7.223   3.151 -0.6426 -0.9821  4.1283
  165SAPE   H7S18488   6.711   7.121   3.013  0.5904  1.0468  0.1776
  165SAPE   C2818489   6.685   7.013   3.207 -0.3480 -0.3334  0.1471
  165SAPE   H8R18490   6.730   6.921   3.167  1.6005 -0.2635  2.0122
  165SAPE   C2918491   6.684   7.016   3.337 -0.6296  0.5951 -1.0122
  165SAPE   H9R18492   6.686   6.919   3.389 -2.1057  0.4642 -1.1598
  165SAPE  C21018493   6.632   7.132   3.421  0.1994  0.2858  0.6128
  165SAPE  H10R18494   6.524   7.130   3.446 -0.3125  3.5305 -0.8356
  165SAPE  H10S18495   6.650   7.228   3.369 -1.0727  0.9495  1.3651
  165SAPE  C21118496   6.700   7.147   3.551  0.6405 -0.3058 -0.2216
  165SAPE  H11R18497   6.810   7.151   3.543  0.8867 -1.2917  1.9971
  165SAPE  C21218498   6.646   7.162   3.670  0.1032  0.0147 -0.8183
  165SAPE  H12R18499   6.708   7.182   3.758  0.4964 -0.3474 -1.0104
  165SAPE  C21318500   6.501   7.139   3.703 -0.2097  0.4235 -0.1570
  165SAPE  H13R18501   6.485   7.029   3.702  0.4700  0.3153  0.4059
  165SAPE  H13S18502   6.434   7.185   3.628 -0.3053 -0.1364 -0.4261
  165SAPE  C21418503   6.480   7.189   3.845 -0.1495 -0.6331  0.2259
  165SAPE  H14R18504   6.489   7.299   3.851  1.1657 -0.5874 -1.7757
  165SAPE  C21518505   6.460   7.112   3.955 -0.5706  0.0674  0.1999
  165SAPE  H15R18506   6.447   7.151   4.057 -3.4990 -1.3884  0.4806
  165SAPE  C21618507   6.472   6.961   3.950  0.0494  0.6889 -0.3111
  165SAPE  H16R18508   6.575   6.922   3.954  0.3114  1.2814 -0.9815
  165SAPE  H16S18509   6.422   6.914   3.863  1.8228 -1.1046 -0.4252
  165SAPE  C21718510   6.405   6.906   4.077 -0.7758 -0.2350 -0.1755
  165SAPE  H17R18511   6.296   6.927   4.072 -0.7063  0.1327 -0.1775
  165SAPE  H17S18512   6.461   6.953   4.161 -1.0974 -0.0811 -0.0443
  165SAPE  C21818513   6.425   6.748   4.077  0.6884 -0.9990 -0.5427
  165SAPE  H18R18514   6.372   6.717   4.170 -0.4814  0.1037 -0.8125
  165SAPE  H18S18515   6.524   6.700   4.061  1.0786  0.2561 -2.0911
  165SAPE  C21918516   6.348   6.683   3.958  0.5110  0.2286 -0.3119
  165SAPE  H19R18517   6.403   6.708   3.865 -0.1303 -0.4287 -0.8817
  165SAPE  H19S18518   6.244   6.723   3.961  0.8924  1.1822  1.2778
  165SAPE  C22018519   6.352   6.524   3.976  0.2573 -0.7027  0.4560
  165SAPE  H20R18520   6.453   6.484   3.956  0.2237 -2.3973  3.1970
  165SAPE  H20S18521   6.282   6.484   3.900  0.2643  0.5737 -0.2470
  165SAPE  H20T18522   6.309   6.503   4.076  0.5241  1.0183  0.9674
  165SAPE   C3318523   6.366   7.784   2.591 -0.2308 -0.0845  0.0485
  165SAPE   H3X18524   6.269   7.827   2.558 -0.5100 -0.2428  0.6570
  165SAPE   H3Y18525   6.446   7.786   2.514 -2.3530 -0.1604 -2.3044
  165SAPE   C3418526   6.424   7.858   2.716 -0.6426  0.0110  0.4231
  165SAPE   H4X18527   6.462   7.957   2.682  1.2164 -0.9569 -0.5005
  165SAPE   H4Y18528   6.526   7.817   2.734  0.6837  1.6482 -2.5844
  165SAPE   C3518529   6.341   7.855   2.835  0.3605  0.5931 -0.3338
  165SAPE   H5X18530   6.322   7.748   2.857  0.8308  0.7420  0.8804
  165SAPE   H5Y18531   6.239   7.893   2.815 -0.0061 -0.1867  0.0271
  165SAPE   C3618532   6.415   7.932   2.941  0.8501  0.0762 -0.0003
  165SAPE   H6X18533   6.427   8.037   2.907 -0.0673  0.5648  1.1105
  165SAPE   H6Y18534   6.518   7.899   2.966  1.1129  1.1715  0.4448
  165SAPE   C3718535   6.331   7.940   3.073  0.4210 -0.1257 -0.3872
  165SAPE   H7X18536   6.312   7.843   3.123  0.2538  0.7992  1.4360
  165SAPE   H7Y18537   6.233   7.985   3.045  2.0994  2.6436 -2.2995
  165SAPE   C3818538   6.388   8.036   3.179  0.2100  0.6622  0.2114
  165SAPE   H8X18539   6.362   8.141   3.155 -0.1324  0.6397  0.4710
  165SAPE   H8Y18540   6.498   8.032   3.191  0.2686  0.3911 -0.3642
  165SAPE   C3918541   6.318   8.007   3.315  1.0359  0.8724  0.1525
  165SAPE   H9X18542   6.351   7.910   3.358  0.8207  1.2487  1.2150
  165SAPE   H9Y18543   6.208   8.012   3.297  0.7027  0.8326  1.9314
  165SAPE  C31018544   6.367   8.102   3.423 -0.3138  0.3792 -0.3153
  165SAPE  H10X18545   6.307   8.195   3.415 -4.9154 -1.8173  3.2871
  165SAPE  H10Y18546   6.473   8.118   3.394 -0.1857 -0.3133 -0.2614
  165SAPE  C31118547   6.362   8.043   3.567  0.1177  0.2892 -0.2129
  165SAPE  H11X18548   6.404   7.941   3.582  1.5534  1.0631  1.5781
  165SAPE  H11Y18549   6.259   8.042   3.608 -1.1737 -3.7028 -3.0316
  165SAPE  C31218550   6.440   8.135   3.663  0.1581 -0.3360 -0.7412
  165SAPE  H12X18551   6.401   8.238   3.651  0.1135 -0.4444 -1.5859
  165SAPE  H12Y18552   6.545   8.138   3.625 -0.5208 -0.0743 -2.7085
  165SAPE  C31318553   6.419   8.106   3.811  0.1092 -0.7324  0.1079
  165SAPE  H13X18554   6.455   8.004   3.834 -1.4166 -1.4443 -0.5205
  165SAPE  H13Y18555   6.312   8.104   3.842  0.1167  0.8079  0.3262
  165SAPE  C31418556   6.485   8.211   3.894  0.0626  0.2431 -0.4881
  165SAPE  H14X18557   6.436   8.310   3.880  1.4063  1.0206  0.1184
  165SAPE  H14Y18558   6.590   8.229   3.862  0.6270 -0.5157  0.8607
  165SAPE  C31518559   6.492   8.181   4.038 -0.5497  0.0030 -0.0596
  165SAPE  H15X18560   6.530   8.077   4.034 -0.4616  0.0659 -2.7162
  165SAPE  H15Y18561   6.389   8.191   4.079 -0.1031 -0.4975  1.2443
  165SAPE  C31618562   6.587   8.271   4.112  0.6571  0.9881  0.2545
  165SAPE  H16X18563   6.552   8.375   4.096  2.2015  1.6582  0.9663
  165SAPE  H16Y18564   6.683   8.261   4.057  1.2055 -1.7405  1.5589
  165SAPE  C31718565   6.607   8.246   4.260  0.2752 -0.4659  0.2286
  165SAPE  H17X18566   6.512   8.260   4.315  0.2154 -0.6762  0.1771
  165SAPE  H17Y18567   6.666   8.333   4.297 -0.2348  0.8270 -1.8492
  165SAPE  C31818568   6.692   8.127   4.296 -0.1819  0.3002  0.0446
  165SAPE  H18X18569   6.693   8.125   4.407 -1.3820  1.8146  0.0984
  165SAPE  H18Y18570   6.793   8.130   4.248 -0.7186 -0.7349 -1.2040
  165SAPE  H18Z18571   6.652   8.030   4.260  2.3576 -1.3829  1.4095
  166SAPE     N18572   1.607   2.084   1.982  0.1348 -0.4433  0.5740
  166SAPE   HN118573   1.680   2.119   1.917  0.0896 -0.0143  0.7491
  166SAPE   HN218574   1.633   1.991   2.020 -2.7025 -1.3622  0.5556
  166SAPE   HN318575   1.525   2.067   1.920  0.0046 -2.4856  1.2319
  166SAPE   C1218576   1.594   2.187   2.098  0.7259 -0.5024  0.7744
  166SAPE  H12A18577   1.695   2.231   2.113  1.0597 -0.8569 -0.3521
  166SAPE  H12B18578   1.582   2.128   2.192  0.9365 -2.2523 -0.2450
  166SAPE   C1118579   1.472   2.284   2.092 -0.0949  0.1033  0.3658
  166SAPE  H11A18580   1.458   2.332   2.191  1.1845 -0.5080  0.8693
  166SAPE  H11B18581   1.382   2.220   2.086 -0.7842  1.0511  0.3534
  166SAPE     P18582   1.543   2.503   1.991 -0.1042 -0.1386  0.0580
  166SAPE   O1318583   1.650   2.494   2.089  0.3857  0.4540 -0.1833
  166SAPE   O1418584   1.583   2.554   1.860 -0.4687 -0.0696  0.3481
  166SAPE   O1218585   1.477   2.362   1.972 -0.6687 -0.1794 -0.1242
  166SAPE   O1118586   1.424   2.591   2.044 -1.0729 -0.8917  0.0645
  166SAPE    C118587   1.466   2.713   2.113 -0.0399 -0.0621  0.3367
  166SAPE    HA18588   1.555   2.753   2.062  0.3814 -1.5530 -0.1546
  166SAPE    HB18589   1.384   2.788   2.111 -1.6070 -1.6379  1.4844
  166SAPE    C218590   1.483   2.702   2.262 -0.0573  0.2489 -0.6926
  166SAPE    HS18591   1.573   2.639   2.276  0.8346  1.7629  0.6751
  166SAPE   O2118592   1.370   2.637   2.320 -0.0314 -0.3132 -0.1163
  166SAPE   C2118593   1.394   2.561   2.430  0.1169 -0.0729 -0.0585
  166SAPE   O2218594   1.504   2.551   2.488 -0.2162 -0.5681  0.4875
  166SAPE   C2218595   1.275   2.485   2.473  0.3399  0.0022 -0.1072
  166SAPE   H2R18596   1.189   2.544   2.435  0.2216 -0.8808 -1.2566
  166SAPE   H2S18597   1.277   2.385   2.427  1.4950 -0.7984  1.5659
  166SAPE    C318598   1.511   2.848   2.324 -0.2488 -0.4982  0.5608
  166SAPE    HX18599   1.421   2.903   2.292 -0.7693 -2.3730 -1.4464
  166SAPE    HY18600   1.599   2.898   2.277  1.3642 -2.9385  0.7413
  166SAPE   O3118601   1.521   2.854   2.472 -0.5073  0.6826 -0.2291
  166SAPE   C3118602   1.640   2.812   2.517 -0.1381 -0.6366 -0.1263
  166SAPE   O3218603   1.728   2.771   2.445  0.0057 -0.7010  0.0928
  166SAPE   C3218604   1.646   2.820   2.666 -0.2767 -0.9194 -0.6476
  166SAPE   H2X18605   1.669   2.719   2.706  3.6752  0.3232  0.7142
  166SAPE   H2Y18606   1.545   2.853   2.701 -1.2466 -3.1830 -1.1357
  166SAPE   C2318607   1.267   2.481   2.634 -0.7110  0.4654  0.2163
  166SAPE   H3R18608   1.168   2.434   2.648 -0.1259 -0.4958  1.2695
  166SAPE   H3S18609   1.278   2.578   2.686  2.0327 -0.0428  0.7348
  166SAPE   C2418610   1.380   2.384   2.694 -0.7001 -0.3766  0.0682
  166SAPE   H4R18611   1.479   2.433   2.694 -2.8037  4.4430  1.3524
  166SAPE   H4S18612   1.386   2.300   2.622 -0.7807  0.1654 -0.5820
  166SAPE   C2518613   1.335   2.322   2.824 -0.4345 -0.1835 -1.5388
  166SAPE   H5R18614   1.249   2.253   2.821 -0.7179  0.1612 -1.4391
  166SAPE   C2618615   1.393   2.342   2.948 -0.1174 -0.5715 -0.3333
  166SAPE   H6R18616   1.348   2.290   3.034 -2.7125  1.1997 -0.5006
  166SAPE   C2718617   1.499   2.442   2.984 -0.1646 -0.1583  0.7271
  166SAPE   H7R18618   1.487   2.477   3.089  0.4823  0.0747  0.7300
  166SAPE   H7S18619   1.490   2.535   2.924  1.9219  0.2197  0.8957
  166SAPE   C2818620   1.638   2.383   2.950  0.2132 -0.8700  0.6753
  166SAPE   H8R18621   1.645   2.338   2.850 -1.9126 -0.2419  0.1832
  166SAPE   C2918622   1.738   2.377   3.033 -0.2452 -0.3032  0.5666
  166SAPE   H9R18623   1.832   2.331   3.001 -1.5331 -2.1721 -0.6997
  166SAPE  C21018624   1.725   2.430   3.172  0.2341 -1.0298 -0.0056
  166SAPE  H10R18625   1.628   2.393   3.212 -1.8274  0.3263 -3.2531
  166SAPE  H10S18626   1.707   2.540   3.168  1.8526 -0.7384  0.0045
  166SAPE  C21118627   1.844   2.412   3.261  0.0979  0.3828  0.2075
  166SAPE  H11R18628   1.936   2.360   3.227  0.6197 -0.0250  2.1102
  166SAPE  C21218629   1.839   2.449   3.393 -0.8794 -0.2634 -0.6965
  166SAPE  H12R18630   1.923   2.437   3.463 -2.0965 -0.2803  0.8058
  166SAPE  C21318631   1.709   2.511   3.456 -0.9490 -0.2603  0.3105
  166SAPE  H13R18632   1.646   2.558   3.378 -0.5323  0.2398  0.2616
  166SAPE  H13S18633   1.729   2.603   3.516 -0.5111 -1.4249  2.0112
  166SAPE  C21418634   1.637   2.408   3.537  0.1641  0.4601  0.0149
  166SAPE  H14R18635   1.573   2.340   3.480  1.3818 -0.0998 -0.7218
  166SAPE  C21518636   1.629   2.397   3.674  0.1881  0.8723  0.2764
  166SAPE  H15R18637   1.574   2.319   3.729 -0.3532 -1.0682 -2.8076
  166SAPE  C21618638   1.709   2.475   3.775  0.1954  0.8439  0.3296
  166SAPE  H16R18639   1.777   2.551   3.732 -0.0151  1.5320  1.1750
  166SAPE  H16S18640   1.773   2.394   3.816  0.4493 -0.9866 -3.3026
  166SAPE  C21718641   1.618   2.537   3.878  0.2783 -0.8608  0.1241
  166SAPE  H17R18642   1.690   2.583   3.950  0.5988  0.3137 -0.9044
  166SAPE  H17S18643   1.558   2.463   3.935 -0.8539 -0.8380 -0.9972
  166SAPE  C21818644   1.536   2.658   3.819 -0.1580  0.8854  0.5790
  166SAPE  H18R18645   1.468   2.617   3.741  0.4411 -0.2049  0.6088
  166SAPE  H18S18646   1.609   2.728   3.772  0.5482  1.9429  3.0837
  166SAPE  C21918647   1.461   2.730   3.933  0.3931  0.5866 -0.1450
  166SAPE  H19R18648   1.530   2.765   4.012  0.5394  1.0782 -0.4862
  166SAPE  H19S18649   1.394   2.657   3.983  1.9838 -1.4738 -0.8823
  166SAPE  C22018650   1.363   2.834   3.890 -0.5474  0.3072  0.2478
  166SAPE  H20R18651   1.314   2.874   3.982 -2.6058  0.5667 -0.8932
  166SAPE  H20S18652   1.286   2.784   3.827  0.7722  1.1886 -2.1664
  166SAPE  H20T18653   1.401   2.922   3.834  0.9360 -0.7621 -0.4832
  166SAPE   C3318654   1.764   2.913   2.705  0.4555 -1.1331 -0.3608
  166SAPE   H3X18655   1.729   3.012   2.741 -0.5292 -0.9686 -1.7093
  166SAPE   H3Y18656   1.840   2.936   2.627 -0.4176  2.3178 -0.3183
  166SAPE   C3418657   1.839   2.859   2.826  0.6494  0.1215 -0.6123
  166SAPE   H4X18658   1.937   2.910   2.835  2.1924 -2.8199  0.5322
  166SAPE   H4Y18659   1.870   2.754   2.809 -1.1982 -0.4352 -0.8320
  166SAPE   C3518660   1.756   2.875   2.958  0.1151 -0.4777  0.4921
  166SAPE   H5X18661   1.655   2.840   2.926  0.4983  0.2708 -1.6825
  166SAPE   H5Y18662   1.748   2.984   2.983  1.4410 -0.6596  1.8243
  166SAPE   C3618663   1.815   2.805   3.076 -0.7025 -0.4521 -0.8248
  166SAPE   H6X18664   1.909   2.856   3.106 -1.4228  1.1426 -1.1833
  166SAPE   H6Y18665   1.845   2.701   3.049 -2.5027 -0.8359 -1.4582
  166SAPE   C3718666   1.720   2.797   3.200 -0.5147 -0.4929 -0.5601
  166SAPE   H7X18667   1.763   2.731   3.279 -2.8540  1.1251  2.2846
  166SAPE   H7Y18668   1.619   2.760   3.175 -0.2937 -1.0727 -0.6229
  166SAPE   C3818669   1.720   2.936   3.282  0.3970  0.2259  0.0895
  166SAPE   H8X18670   1.662   3.014   3.228 -2.2762 -1.3193  0.5374
  166SAPE   H8Y18671   1.818   2.978   3.313  0.2418 -0.9563  2.3601
  166SAPE   C3918672   1.637   2.911   3.411  0.2904 -0.0290 -0.0938
  166SAPE   H9X18673   1.672   2.815   3.453  0.8086  0.2291  0.0698
  166SAPE   H9Y18674   1.529   2.895   3.391  0.1769  2.0813 -1.5775
  166SAPE  C31018675   1.658   3.036   3.501 -0.9322 -0.0955  0.0843
  166SAPE  H10X18676   1.599   3.119   3.455 -1.1129 -0.9761 -1.3271
  166SAPE  H10Y18677   1.766   3.060   3.491 -1.4471  1.5413 -4.2035
  166SAPE  C31118678   1.637   3.012   3.648 -0.4541  0.2042 -0.6845
  166SAPE  H11X18679   1.705   2.933   3.685  0.5134  0.5884 -1.6167
  166SAPE  H11Y18680   1.531   2.981   3.665 -0.7040  0.7004 -1.2949
  166SAPE  C31218681   1.666   3.139   3.736  0.2631 -0.0586  0.2004
  166SAPE  H12X18682   1.593   3.212   3.696  0.6734  0.0099 -0.4301
  166SAPE  H12Y18683   1.768   3.178   3.721  0.0619  0.9254  1.2591
  166SAPE  C31318684   1.652   3.115   3.886  0.2485 -0.7052 -0.2083
  166SAPE  H13X18685   1.732   3.043   3.916 -0.2970 -0.8150  1.0164
  166SAPE  H13Y18686   1.552   3.070   3.902 -0.3816  0.2150 -1.3884
  166SAPE  C31418687   1.676   3.239   3.971 -0.0126 -0.6687  0.2614
  166SAPE  H14X18688   1.607   3.319   3.938  1.7878  1.5235  1.5509
  166SAPE  H14Y18689   1.780   3.276   3.962 -0.9639  1.8292 -1.7061
  166SAPE  C31518690   1.655   3.192   4.115 -0.1305 -0.4413  0.4968
  166SAPE  H15X18691   1.570   3.120   4.112 -0.5222 -0.3637  4.4480
  166SAPE  H15Y18692   1.623   3.280   4.175  2.0353  0.1483  0.8579
  166SAPE  C31618693   1.777   3.124   4.181 -0.4673 -0.0993 -0.5568
  166SAPE  H16X18694   1.815   3.043   4.115  0.1015 -0.9819  0.8003
  166SAPE  H16Y18695   1.742   3.067   4.270  0.9255  0.2774  0.2712
  166SAPE  C31718696   1.880   3.224   4.235 -0.4334 -0.1620  0.7413
  166SAPE  H17X18697   1.824   3.281   4.312  0.5507  1.6427  0.1784
  166SAPE  H17Y18698   1.910   3.291   4.151  3.6845  0.2066  2.2999
  166SAPE  C31818699   2.000   3.155   4.293  0.4085 -0.2445 -0.0203
  166SAPE  H18X18700   1.952   3.073   4.350  0.0949 -0.0904 -0.0650
  166SAPE  H18Y18701   2.060   3.207   4.370 -0.2112  1.2092 -0.4855
  166SAPE  H18Z18702   2.077   3.112   4.224  1.2619  0.6348  0.3582
  167SAPE     N18703   5.218   4.766   1.835 -0.5821  0.1395 -0.3967
  167SAPE   HN118704   5.282   4.706   1.890  3.1589  4.0757 -0.0058
  167SAPE   HN218705   5.160   4.820   1.902  1.0543  0.9569  0.4167
  167SAPE   HN318706   5.154   4.703   1.782 -0.4833  1.5436 -2.3035
  167SAPE   C1218707   5.293   4.849   1.739  0.0009  0.3262 -0.1425
  167SAPE  H12A18708   5.216   4.890   1.671  1.3765  1.3398 -1.1457
  167SAPE  H12B18709   5.350   4.774   1.680 -1.0913 -0.8265  0.2240
  167SAPE   C1118710   5.376   4.963   1.792  0.2604  0.5306  0.5733
  167SAPE  H11A18711   5.315   5.038   1.848  0.2481  0.6973  0.3361
  167SAPE  H11B18712   5.429   5.013   1.708  1.2481 -0.4777  0.5781
  167SAPE     P18713   5.566   4.997   1.953  0.4952 -0.4587  0.0499
  167SAPE   O1318714   5.701   4.964   1.913 -0.4486 -0.0396  0.4983
  167SAPE   O1418715   5.521   5.140   1.936  0.3950  0.8080  0.3769
  167SAPE   O1218716   5.470   4.906   1.878  0.0370 -0.1099 -0.1545
  167SAPE   O1118717   5.562   4.946   2.103 -0.0355 -0.3912 -0.1940
  167SAPE    C118718   5.451   4.886   2.169 -0.1113  0.0021 -0.2801
  167SAPE    HA18719   5.362   4.948   2.149  0.1566  0.2283 -0.7953
  167SAPE    HB18720   5.443   4.783   2.128  0.1325 -0.2020  0.1651
  167SAPE    C218721   5.476   4.861   2.321 -0.2763  0.3806 -0.3330
  167SAPE    HS18722   5.395   4.789   2.347  1.6168 -1.6726  0.2248
  167SAPE   O2118723   5.463   4.978   2.404 -0.4945 -0.7593  1.4105
  167SAPE   C2118724   5.343   5.036   2.416  0.6480  0.7513  0.2635
  167SAPE   O2218725   5.244   4.989   2.365  0.2916  0.1464 -0.3335
  167SAPE   C2218726   5.351   5.171   2.497 -0.8290  0.4255  0.4719
  167SAPE   H2R18727   5.457   5.192   2.522 -0.6065 -0.5359  0.3918
  167SAPE   H2S18728   5.314   5.250   2.428  0.2383  0.5146 -0.0042
  167SAPE    C318729   5.614   4.790   2.348 -0.0388  0.3934 -0.2414
  167SAPE    HX18730   5.688   4.846   2.288  0.4157 -0.4094 -0.4508
  167SAPE    HY18731   5.629   4.690   2.301  0.8684  1.3713 -2.1349
  167SAPE   O3118732   5.657   4.797   2.489  0.1468 -0.4404 -0.0646
  167SAPE   C3118733   5.595   4.699   2.552 -0.2599  0.2814  0.0241
  167SAPE   O3218734   5.529   4.612   2.495 -0.6943  0.1300 -0.6986
  167SAPE   C3218735   5.636   4.692   2.699  0.4368  0.0777  0.2532
  167SAPE   H2X18736   5.602   4.786   2.747 -1.0144 -0.4326  0.2992
  167SAPE   H2Y18737   5.746   4.680   2.703  0.6865  1.2409 -1.7731
  167SAPE   C2318738   5.241   5.163   2.609  0.3486  0.4075  0.3975
  167SAPE   H3R18739   5.145   5.131   2.564  0.8509 -0.3159 -0.1831
  167SAPE   H3S18740   5.230   5.271   2.635  1.1440  0.2390  1.4802
  167SAPE   C2418741   5.274   5.064   2.719  1.1239 -0.3444 -0.3772
  167SAPE   H4R18742   5.313   4.971   2.672  1.9117 -0.5158  0.5781
  167SAPE   H4S18743   5.190   5.028   2.782  2.4147 -0.9439  1.0615
  167SAPE   C2518744   5.373   5.124   2.809 -0.2179  0.2948  0.5461
  167SAPE   H5R18745   5.429   5.209   2.769 -1.8074  2.6646  3.0519
  167SAPE   C2618746   5.399   5.084   2.935  0.8963 -0.3563  0.2756
  167SAPE   H6R18747   5.482   5.136   2.985 -0.2052 -0.8979  2.8531
  167SAPE   C2718748   5.313   4.993   3.018 -0.7162  0.4260 -0.2134
  167SAPE   H7R18749   5.309   4.897   2.963 -1.1309  0.0062  0.5397
  167SAPE   H7S18750   5.207   5.027   3.027 -0.6346  0.0988  3.3745
  167SAPE   C2818751   5.373   4.963   3.153  0.0570  0.4270  0.7139
  167SAPE   H8R18752   5.481   4.939   3.149  0.3460  1.8331 -0.5815
  167SAPE   C2918753   5.310   4.964   3.273 -1.1475 -0.4593  0.2045
  167SAPE   H9R18754   5.372   4.930   3.357  0.8972  1.5421 -0.3998
  167SAPE  C21018755   5.175   5.020   3.312  0.0260  0.4709  0.5917
  167SAPE  H10R18756   5.100   4.950   3.268  0.1947  0.8793 -0.3627
  167SAPE  H10S18757   5.154   5.117   3.263  1.6941  0.3597 -0.4199
  167SAPE  C21118758   5.161   5.034   3.464  0.1768  0.0920  1.0353
  167SAPE  H11R18759   5.230   5.106   3.508  0.0965  0.3723  0.7031
  167SAPE  C21218760   5.100   4.947   3.548  0.6370  0.0299  0.1334
  167SAPE  H12R18761   5.104   4.973   3.655  0.1425  1.9203 -0.2758
  167SAPE  C21318762   5.020   4.826   3.514  0.2765  1.1541 -0.5005
  167SAPE  H13R18763   4.978   4.836   3.412 -0.2591 -1.7136 -0.6232
  167SAPE  H13S18764   4.937   4.815   3.587  0.1431 -0.0474 -0.8168
  167SAPE  C21418765   5.099   4.697   3.527 -0.9435  0.2162 -0.3852
  167SAPE  H14R18766   5.146   4.676   3.430 -3.2400  0.8317 -1.7274
  167SAPE  C21518767   5.110   4.606   3.625  0.3051 -0.0232  0.1247
  167SAPE  H15R18768   5.169   4.516   3.605  1.8516  0.7332  1.1071
  167SAPE  C21618769   5.046   4.619   3.759 -0.0502 -0.3338  0.1118
  167SAPE  H16R18770   5.021   4.515   3.789 -1.6087  0.0426  0.1805
  167SAPE  H16S18771   4.960   4.690   3.765  1.4293  1.5029  0.6192
  167SAPE  C21718772   5.145   4.680   3.860  0.1969  0.0630  0.0599
  167SAPE  H17R18773   5.174   4.784   3.830  2.3392 -0.0331  1.5088
  167SAPE  H17S18774   5.239   4.623   3.878 -0.0642 -0.2367  0.4831
  167SAPE  C21818775   5.082   4.686   3.998  0.1372  0.3234 -0.1618
  167SAPE  H18R18776   5.062   4.585   4.040  1.5511 -0.2622 -0.8527
  167SAPE  H18S18777   4.986   4.742   4.002  1.0633  1.9064  0.5308
  167SAPE  C21918778   5.171   4.763   4.095 -0.1283  0.0828  0.0986
  167SAPE  H19R18779   5.186   4.867   4.060  0.1851  0.7200  2.0029
  167SAPE  H19S18780   5.271   4.715   4.098 -0.4627 -0.6074  0.6082
  167SAPE  C22018781   5.112   4.760   4.233 -0.5501  0.2121 -0.0613
  167SAPE  H20R18782   5.186   4.802   4.304 -0.7406 -0.6352  0.6625
  167SAPE  H20S18783   5.092   4.657   4.269  1.1271 -0.1312 -0.0274
  167SAPE  H20T18784   5.020   4.822   4.225  0.7619  2.1113 -1.2104
  167SAPE   C3318785   5.565   4.572   2.765  0.2331  0.3056 -1.0590
  167SAPE   H3X18786   5.628   4.492   2.721  0.2717  0.1604 -0.7433
  167SAPE   H3Y18787   5.458   4.544   2.750  0.0477  0.3280  0.1141
  167SAPE   C3418788   5.595   4.563   2.912  0.0909 -0.5325  0.7554
  167SAPE   H4X18789   5.699   4.591   2.938 -0.2679 -0.9529  2.8769
  167SAPE   H4Y18790   5.593   4.455   2.937 -1.6526 -0.7397 -0.1627
  167SAPE   C3518791   5.486   4.636   2.993  0.0064 -0.0403 -0.3176
  167SAPE   H5X18792   5.389   4.624   2.940  0.5531 -0.4044 -1.2403
  167SAPE   H5Y18793   5.510   4.744   3.005 -0.3337 -0.0798  0.8551
  167SAPE   C3618794   5.450   4.570   3.130 -0.3190  0.1847  0.1013
  167SAPE   H6X18795   5.417   4.466   3.111 -0.7030  0.0616  1.3583
  167SAPE   H6Y18796   5.364   4.626   3.173 -0.4030 -0.2827  0.5442
  167SAPE   C3718797   5.563   4.568   3.233 -1.6370  0.2364 -0.4137
  167SAPE   H7X18798   5.575   4.666   3.284  1.9241  0.1811 -0.9076
  167SAPE   H7Y18799   5.661   4.552   3.182 -1.2034  0.1134  0.4456
  167SAPE   C3818800   5.552   4.468   3.349 -0.6966 -0.1530 -0.4643
  167SAPE   H8X18801   5.597   4.370   3.324 -0.4579  0.3525 -2.0875
  167SAPE   H8Y18802   5.445   4.440   3.361 -0.6856 -0.1951 -0.4619
  167SAPE   C3918803   5.617   4.525   3.475 -0.1612 -0.5031 -0.2447
  167SAPE   H9X18804   5.565   4.622   3.491 -0.6752 -0.8293  0.0585
  167SAPE   H9Y18805   5.723   4.548   3.449 -0.2502 -2.6305 -3.0051
  167SAPE  C31018806   5.605   4.441   3.606 -0.4068 -0.6638  0.4704
  167SAPE  H10X18807   5.659   4.499   3.683  0.1262  0.3332 -0.6265
  167SAPE  H10Y18808   5.637   4.334   3.602  1.1995 -0.1921 -0.1553
  167SAPE  C31118809   5.452   4.422   3.654  0.5335  0.0708  0.0810
  167SAPE  H11X18810   5.410   4.351   3.579  1.4100 -2.6388  1.9670
  167SAPE  H11Y18811   5.395   4.517   3.650 -1.6983 -1.0496  2.3590
  167SAPE  C31218812   5.451   4.352   3.794 -0.4932 -0.2340 -0.1287
  167SAPE  H12X18813   5.518   4.266   3.813 -0.5384 -0.1086  0.6158
  167SAPE  H12Y18814   5.352   4.312   3.827  0.8606 -2.9372  0.9230
  167SAPE  C31318815   5.497   4.446   3.908  0.2747  0.3803 -0.3244
  167SAPE  H13X18816   5.436   4.539   3.914 -1.5934 -0.8548  1.3167
  167SAPE  H13Y18817   5.598   4.491   3.898  0.2302  1.0985  1.9275
  167SAPE  C31418818   5.502   4.377   4.039  0.8431  0.0911 -0.7419
  167SAPE  H14X18819   5.560   4.448   4.102  0.9503 -0.0031 -0.7328
  167SAPE  H14Y18820   5.563   4.284   4.049  1.7470  0.5227 -1.9873
  167SAPE  C31518821   5.364   4.351   4.089 -0.9656 -0.3393 -0.8485
  167SAPE  H15X18822   5.312   4.259   4.056 -2.9716  0.7347 -0.8675
  167SAPE  H15Y18823   5.302   4.439   4.060  0.4271  0.4274 -1.6518
  167SAPE  C31618824   5.355   4.349   4.247 -0.0629 -0.9085 -0.4262
  167SAPE  H16X18825   5.248   4.362   4.274  0.1666  0.7527 -0.2075
  167SAPE  H16Y18826   5.418   4.432   4.285  0.4274 -1.8006  0.7875
  167SAPE  C31718827   5.400   4.216   4.319  0.3292 -0.1096  0.0156
  167SAPE  H17X18828   5.476   4.162   4.257 -0.1214  0.7122 -1.2896
  167SAPE  H17Y18829   5.305   4.159   4.323  0.6789 -0.9238 -2.0017
  167SAPE  C31818830   5.450   4.240   4.464 -0.1046 -0.1315  1.1489
  167SAPE  H18X18831   5.529   4.317   4.473  1.9187 -2.1096  1.1198
  167SAPE  H18Y18832   5.491   4.147   4.508  1.8481 -0.3838 -1.0180
  167SAPE  H18Z18833   5.368   4.287   4.521 -1.0188 -0.6279  0.2782
  168SAPE     N18834   4.529   0.358   1.846 -0.3047  0.1963  0.1185
  168SAPE   HN118835   4.465   0.393   1.919  0.0642 -1.0639  1.0782
  168SAPE   HN218836   4.624   0.353   1.889  0.9837 -1.0235 -2.6365
  168SAPE   HN318837   4.545   0.437   1.779  2.5099 -1.1446 -0.9737
  168SAPE   C1218838   4.488   0.234   1.769 -0.6285 -0.9276  0.1750
  168SAPE  H12A18839   4.577   0.204   1.710 -0.7694 -0.7908 -0.1091
  168SAPE  H12B18840   4.413   0.264   1.693 -0.4163 -0.6495  0.0717
  168SAPE   C1118841   4.448   0.106   1.850 -0.0835  0.0810  0.6158
  168SAPE  H11A18842   4.529   0.087   1.923  0.4070  1.7472  0.5675
  168SAPE  H11B18843   4.449   0.018   1.782  0.1833 -1.3306  2.3916
  168SAPE     P18844   4.183   0.072   1.864  0.1241 -0.0885 -0.0825
  168SAPE   O1318845   4.155   0.138   1.731 -0.4741  0.1737 -0.1755
  168SAPE   O1418846   4.183  -0.080   1.874  0.5963 -0.2969  0.9294
  168SAPE   O1218847   4.323   0.121   1.921 -0.3284  0.2553 -0.0400
  168SAPE   O1118848   4.070   0.126   1.960 -0.1735  0.6836 -0.3451
  168SAPE    C118849   4.092   0.213   2.069 -0.8461  0.1221  0.3075
  168SAPE    HA18850   4.177   0.280   2.043  0.3660 -1.5237 -0.2119
  168SAPE    HB18851   4.004   0.279   2.084 -2.4962 -1.7707 -0.6383
  168SAPE    C218852   4.094   0.138   2.204 -0.8635 -1.0601  0.1932
  168SAPE    HS18853   4.097   0.218   2.280  0.2778  0.9597 -1.8437
  168SAPE   O2118854   4.204   0.043   2.205 -0.2247  0.1895  0.0634
  168SAPE   C2118855   4.318   0.096   2.245 -0.4156 -0.2478  0.3375
  168SAPE   O2218856   4.340   0.219   2.257  0.2632  0.0791  0.2059
  168SAPE   C2218857   4.420  -0.016   2.246  0.1002 -0.1494 -0.0066
  168SAPE   H2R18858   4.408  -0.082   2.158 -1.6616  1.8012 -1.3514
  168SAPE   H2S18859   4.520   0.030   2.261  0.8670 -0.7573 -2.6792
  168SAPE    C318860   3.963   0.060   2.236 -0.0601 -0.5460 -0.0561
  168SAPE    HX18861   3.969  -0.003   2.327 -0.5389 -0.1162  0.2761
  168SAPE    HY18862   3.953  -0.007   2.148  0.1294  1.2564 -1.5185
  168SAPE   O3118863   3.844   0.147   2.243  0.4746 -0.0126  0.6165
  168SAPE   C3118864   3.730   0.077   2.262  0.2701 -0.5928  0.0916
  168SAPE   O3218865   3.721  -0.046   2.274  0.2736 -0.1497  0.1835
  168SAPE   C3218866   3.610   0.176   2.275  0.2191 -0.5225  0.0558
  168SAPE   H2X18867   3.538   0.164   2.191 -1.9119  0.5263  1.6108
  168SAPE   H2Y18868   3.654   0.277   2.265  1.1895 -0.6608  2.3668
  168SAPE   C2318869   4.401  -0.105   2.375 -1.3598 -0.0686 -0.0998
  168SAPE   H3R18870   4.481  -0.182   2.381 -1.6259 -0.2742  1.4181
  168SAPE   H3S18871   4.306  -0.164   2.382 -0.8645 -1.1893 -2.1282
  168SAPE   C2418872   4.410  -0.014   2.504 -0.2231  0.1868 -0.4029
  168SAPE   H4R18873   4.379  -0.075   2.591 -1.0037  1.0705 -0.0407
  168SAPE   H4S18874   4.350   0.079   2.491  1.1973  0.9013 -2.1859
  168SAPE   C2518875   4.551   0.030   2.526  0.3966  0.3645 -0.2303
  168SAPE   H5R18876   4.609   0.015   2.433  0.1324 -3.4977  0.0741
  168SAPE   C2618877   4.603   0.079   2.640  0.1352 -0.2682 -0.9895
  168SAPE   H6R18878   4.706   0.116   2.643 -0.5936  1.7954  0.3836
  168SAPE   C2718879   4.532   0.089   2.769 -0.0083 -0.3753  0.6079
  168SAPE   H7R18880   4.563   0.012   2.842  0.1931  0.0007  0.9246
  168SAPE   H7S18881   4.422   0.077   2.754  0.1294  0.2945 -1.1906
  168SAPE   C2818882   4.547   0.228   2.816  0.4167 -0.1802  0.3592
  168SAPE   H8R18883   4.485   0.304   2.766  0.2153  0.0130  0.9007
  168SAPE   C2918884   4.621   0.270   2.923  0.7875  0.3062  0.1623
  168SAPE   H9R18885   4.625   0.375   2.958 -0.6072  0.8460 -1.2034
  168SAPE  C21018886   4.691   0.178   3.020  0.1944 -0.4641  0.4741
  168SAPE  H10R18887   4.789   0.225   3.044  1.2451 -1.3641 -1.7905
  168SAPE  H10S18888   4.726   0.084   2.973  2.0625  0.0345  0.7973
  168SAPE  C21118889   4.610   0.129   3.139 -0.0589 -0.0684 -0.0840
  168SAPE  H11R18890   4.510   0.104   3.099  0.1143  1.0909 -1.3070
  168SAPE  C21218891   4.639   0.112   3.268  0.4887 -0.1301 -0.1952
  168SAPE  H12R18892   4.560   0.082   3.338 -0.2099  1.5620 -0.1900
  168SAPE  C21318893   4.778   0.133   3.329 -0.3215 -0.9147  0.0663
  168SAPE  H13R18894   4.783   0.228   3.388 -2.4951 -0.0699 -0.9909
  168SAPE  H13S18895   4.853   0.156   3.250  0.0437  0.9537  0.8871
  168SAPE  C21418896   4.820   0.013   3.411  0.1366  0.2012 -0.5572
  168SAPE  H14R18897   4.791  -0.083   3.366 -0.2544  0.5858 -1.1298
  168SAPE  C21518898   4.878   0.024   3.532 -0.1045 -0.9422 -0.2171
  168SAPE  H15R18899   4.895  -0.068   3.590 -1.4408  0.5751  2.8721
  168SAPE  C21618900   4.928   0.143   3.602  0.1987  0.1054 -0.5656
  168SAPE  H16R18901   4.845   0.207   3.639  0.4536  1.0933 -1.6530
  168SAPE  H16S18902   4.978   0.213   3.531  1.4732  0.5350  0.6788
  168SAPE  C21718903   5.021   0.103   3.723 -0.0519  0.1446  0.5465
  168SAPE  H17R18904   5.072   0.198   3.751 -0.5746  0.2109  1.3095
  168SAPE  H17S18905   5.099   0.029   3.693 -0.9734 -0.5717 -0.1275
  168SAPE  C21818906   4.959   0.031   3.838  0.5855  0.1187 -0.0776
  168SAPE  H18R18907   4.957  -0.077   3.811  1.0729 -0.6319  2.5421
  168SAPE  H18S18908   4.856   0.074   3.832  1.0100  1.6414  2.1971
  168SAPE  C21918909   5.035   0.059   3.965  0.1456 -0.6026 -0.7303
  168SAPE  H19R18910   4.986   0.010   4.052  1.3482  0.0938  0.3742
  168SAPE  H19S18911   5.025   0.167   3.990 -0.2760 -0.9212  0.5741
  168SAPE  C22018912   5.182   0.017   3.975 -0.1621  0.2201  0.1943
  168SAPE  H20R18913   5.189  -0.084   3.930 -1.0534  0.5048 -0.6415
  168SAPE  H20S18914   5.230   0.021   4.074 -1.0109 -1.3372  0.7091
  168SAPE  H20T18915   5.236   0.084   3.905 -2.1446  0.8445 -0.8176
  168SAPE   C3318916   3.538   0.158   2.408  0.1203  0.2167  0.3111
  168SAPE   H3X18917   3.497   0.055   2.410 -0.0828  0.2671 -0.6235
  168SAPE   H3Y18918   3.443   0.217   2.408 -0.3967 -0.5775 -0.8809
  168SAPE   C3418919   3.629   0.195   2.523 -0.3110  0.3322 -0.0424
  168SAPE   H4X18920   3.688   0.286   2.498  2.1095 -0.7075  1.4375
  168SAPE   H4Y18921   3.715   0.127   2.541  0.1850  1.5353  2.8436
  168SAPE   C3518922   3.554   0.215   2.652  0.5210 -0.2406  0.0833
  168SAPE   H5X18923   3.529   0.117   2.698 -0.6839 -0.2502 -0.5373
  168SAPE   H5Y18924   3.457   0.261   2.623  0.3451  0.3986  1.5803
  168SAPE   C3618925   3.636   0.308   2.748  0.3082  0.5609 -0.4807
  168SAPE   H6X18926   3.643   0.407   2.699 -3.4159  0.0261 -2.5557
  168SAPE   H6Y18927   3.736   0.263   2.764  0.7866  2.2655  1.7108
  168SAPE   C3718928   3.560   0.324   2.887  0.0407 -0.5314  0.2405
  168SAPE   H7X18929   3.480   0.401   2.882  0.1409 -0.4693 -0.4965
  168SAPE   H7Y18930   3.626   0.375   2.961 -0.9777  0.2156  0.6580
  168SAPE   C3818931   3.511   0.192   2.943  1.4063  0.1651 -0.8473
  168SAPE   H8X18932   3.587   0.110   2.940  0.2298 -0.9495 -1.1518
  168SAPE   H8Y18933   3.423   0.149   2.890 -0.1443  0.5314  1.3024
  168SAPE   C3918934   3.457   0.210   3.088  0.0628 -0.1890  0.7116
  168SAPE   H9X18935   3.374   0.138   3.104 -0.3911  0.5413  1.7631
  168SAPE   H9Y18936   3.404   0.308   3.090  1.2150  0.4584  2.6354
  168SAPE  C31018937   3.549   0.201   3.209  0.3835  0.4235 -0.7593
  168SAPE  H10X18938   3.629   0.278   3.202  0.1418  0.8066  0.5439
  168SAPE  H10Y18939   3.582   0.095   3.214 -0.8091  0.1000  0.8269
  168SAPE  C31118940   3.491   0.227   3.343 -0.4071  0.1942 -0.8578
  168SAPE  H11X18941   3.431   0.320   3.328 -1.9354 -0.6869 -0.4611
  168SAPE  H11Y18942   3.570   0.237   3.421 -0.4714 -0.2987 -0.7270
  168SAPE  C31218943   3.409   0.113   3.387  0.3434  0.2741  0.1128
  168SAPE  H12X18944   3.456   0.015   3.369 -2.6037 -1.0642 -1.0243
  168SAPE  H12Y18945   3.316   0.110   3.326  0.2751  0.6858  0.1921
  168SAPE  C31318946   3.364   0.127   3.535 -0.0282 -0.5474  0.5625
  168SAPE  H13X18947   3.319   0.226   3.558  0.5214 -0.1107 -0.1669
  168SAPE  H13Y18948   3.462   0.123   3.588 -0.0143 -3.5107  0.4720
  168SAPE  C31418949   3.274   0.012   3.563 -0.0583 -0.5804 -0.0491
  168SAPE  H14X18950   3.325  -0.085   3.574 -0.2800 -0.6510  0.3935
  168SAPE  H14Y18951   3.193   0.003   3.488  0.6052  1.9534 -1.1817
  168SAPE  C31518952   3.194   0.032   3.695 -0.3600  0.5798 -0.4461
  168SAPE  H15X18953   3.124  -0.052   3.712  0.7510 -0.4789 -0.9877
  168SAPE  H15Y18954   3.142   0.131   3.697  0.3665  1.0570  3.4217
  168SAPE  C31618955   3.274   0.020   3.826 -0.2365  0.0311  0.5564
  168SAPE  H16X18956   3.318   0.118   3.854 -1.4847  0.0961  2.4774
  168SAPE  H16Y18957   3.357  -0.054   3.828  0.8580  1.0593 -2.2382
  168SAPE  C31718958   3.180  -0.023   3.944 -0.0649 -0.5792 -0.1576
  168SAPE  H17X18959   3.127  -0.119   3.928  1.1443 -1.0159 -1.6752
  168SAPE  H17Y18960   3.099   0.054   3.952  0.4369 -0.1865  1.6432
  168SAPE  C31818961   3.258  -0.040   4.079 -0.6050 -0.1099  0.0753
  168SAPE  H18X18962   3.178  -0.047   4.156  0.2189 -2.0211  0.8215
  168SAPE  H18Y18963   3.325   0.047   4.089  1.1422 -1.3182 -0.5706
  168SAPE  H18Z18964   3.323  -0.131   4.081  1.7179  1.4043 -1.5154
  169SAPE     N18965   2.378   3.864   1.869 -0.0189  0.5296  0.0647
  169SAPE   HN118966   2.320   3.946   1.843  1.0325  1.0210 -0.8286
  169SAPE   HN218967   2.447   3.895   1.940 -0.2412 -2.0812  1.5462
  169SAPE   HN318968   2.433   3.830   1.787 -1.3609  0.7658 -0.9699
  169SAPE   C1218969   2.310   3.742   1.925 -0.4912 -0.1748  0.2301
  169SAPE  H12A18970   2.209   3.771   1.961  0.3900  2.3021  0.9490
  169SAPE  H12B18971   2.376   3.709   2.008  2.1397 -0.1385 -1.7275
  169SAPE   C1118972   2.311   3.627   1.820 -0.4999  0.2299 -0.1293
  169SAPE  H11A18973   2.250   3.643   1.728  0.2910  0.9025 -0.5546
  169SAPE  H11B18974   2.263   3.538   1.864 -1.5286  1.6573  1.7637
  169SAPE     P18975   2.549   3.516   1.855 -0.1336 -0.0775  0.5779
  169SAPE   O1318976   2.638   3.441   1.757  0.1246  0.1077 -0.1019
  169SAPE   O1418977   2.616   3.607   1.951  0.6908 -0.0570 -0.3249
  169SAPE   O1218978   2.449   3.600   1.775 -0.0651  0.7591 -0.5576
  169SAPE   O1118979   2.465   3.404   1.920  0.2334 -0.2362  0.0944
  169SAPE    C118980   2.505   3.296   1.999 -0.1519  0.8678 -0.6042
  169SAPE    HA18981   2.509   3.199   1.944  0.1154 -1.0276  2.4909
  169SAPE    HB18982   2.609   3.312   2.037 -0.2189 -1.5633  0.8930
  169SAPE    C218983   2.409   3.286   2.124  0.1046 -0.1741  0.3082
  169SAPE    HS18984   2.308   3.325   2.099  0.1358  0.6193  1.3342
  169SAPE   O2118985   2.470   3.359   2.228  0.5243  0.4056  0.2879
  169SAPE   C2118986   2.438   3.485   2.235  0.0518 -0.1744  1.0085
  169SAPE   O2218987   2.351   3.534   2.168 -0.0590 -0.1360  0.7649
  169SAPE   C2218988   2.533   3.559   2.323 -0.1572 -0.2777  0.2812
  169SAPE   H2R18989   2.619   3.495   2.351  0.9049  1.2810  0.6593
  169SAPE   H2S18990   2.585   3.634   2.260 -0.1185 -1.3229 -0.9828
  169SAPE    C318991   2.382   3.143   2.165  0.0378  0.3902 -0.4884
  169SAPE    HX18992   2.334   3.092   2.079  0.2178 -1.5164  0.4810
  169SAPE    HY18993   2.310   3.145   2.250 -0.4176 -2.0350 -0.7229
  169SAPE   O3118994   2.501   3.071   2.191 -0.2316  0.1692  0.1644
  169SAPE   C3118995   2.487   2.950   2.253  0.5179 -0.0458  0.0329
  169SAPE   O3218996   2.383   2.896   2.283 -0.3476 -0.5372  0.6288
  169SAPE   C3218997   2.627   2.897   2.279  0.3701  0.3599 -0.6612
  169SAPE   H2X18998   2.692   2.983   2.306  0.9318  0.5801 -2.5462
  169SAPE   H2Y18999   2.666   2.856   2.184  0.6425  2.8036 -1.6974
  169SAPE   C2319000   2.465   3.620   2.452  0.3070 -0.1654  0.6337
  169SAPE   H3R19001   2.377   3.683   2.426  0.3566  1.0947  3.1803
  169SAPE   H3S19002   2.532   3.685   2.513 -0.1654 -0.6446  1.6919
  169SAPE   C2419003   2.401   3.510   2.545  0.1343 -0.7645  0.7832
  169SAPE   H4R19004   2.334   3.463   2.469  1.6426  0.5354 -1.4472
  169SAPE   H4S19005   2.342   3.549   2.630  0.6805 -1.4438  1.4955
  169SAPE   C2519006   2.493   3.402   2.592  0.2178  0.4656  0.2578
  169SAPE   H5R19007   2.519   3.329   2.513 -0.1867 -1.2092  1.6081
  169SAPE   C2619008   2.535   3.392   2.714 -0.7493  0.1043 -0.3311
  169SAPE   H6R19009   2.592   3.306   2.751 -1.5507  0.4984  1.9932
  169SAPE   C2719010   2.499   3.487   2.825 -0.7553 -0.7484 -0.5522
  169SAPE   H7R19011   2.476   3.433   2.919 -3.5137  1.5329  0.2156
  169SAPE   H7S19012   2.410   3.549   2.801 -1.0772 -0.9048  0.2180
  169SAPE   C2819013   2.613   3.581   2.848  0.1939  0.4768  0.3096
  169SAPE   H8R19014   2.637   3.651   2.766 -1.7484 -0.3750 -1.0734
  169SAPE   C2919015   2.685   3.590   2.959 -0.5226 -0.4153  0.8778
  169SAPE   H9R19016   2.767   3.664   2.958 -2.5653  1.9642  1.1713
  169SAPE  C21019017   2.675   3.514   3.094 -0.2691 -0.7008  0.2605
  169SAPE  H10R19018   2.720   3.574   3.177  1.7124 -1.7667  0.0147
  169SAPE  H10S19019   2.729   3.418   3.083  1.1390  0.1595 -0.8469
  169SAPE  C21119020   2.534   3.506   3.149 -0.2825  0.6802 -0.0634
  169SAPE  H11R19021   2.465   3.590   3.131 -0.5745  0.1524 -1.5374
  169SAPE  C21219022   2.493   3.400   3.220  0.6582  0.5321 -1.1994
  169SAPE  H12R19023   2.386   3.399   3.247  1.2462  0.2117  1.4019
  169SAPE  C21319024   2.563   3.272   3.273 -0.4236 -0.2719  0.7565
  169SAPE  H13R19025   2.575   3.286   3.382 -1.1022 -0.2877  0.8383
  169SAPE  H13S19026   2.658   3.254   3.219 -0.3978 -2.6544  1.5110
  169SAPE  C21419027   2.463   3.159   3.242 -0.0812 -0.0006  0.3849
  169SAPE  H14R19028   2.444   3.147   3.134 -1.3671  0.2314  0.5732
  169SAPE  C21519029   2.403   3.080   3.331 -0.1224 -0.0865  0.2649
  169SAPE  H15R19030   2.331   3.003   3.300  1.0147 -1.2288  0.3513
  169SAPE  C21619031   2.408   3.091   3.482 -0.2061 -0.3547  0.4258
  169SAPE  H16R19032   2.452   3.190   3.505  0.2249 -0.1094 -1.3200
  169SAPE  H16S19033   2.462   3.001   3.517 -0.7878  0.3933  3.6117
  169SAPE  C21719034   2.264   3.087   3.532 -0.3227 -0.3252 -0.5452
  169SAPE  H17R19035   2.267   3.085   3.643  2.5972 -1.0293 -0.5335
  169SAPE  H17S19036   2.218   2.989   3.508 -3.0945  0.7242  0.1749
  169SAPE  C21819037   2.171   3.210   3.491 -0.2224  0.6297  0.0153
  169SAPE  H18R19038   2.164   3.223   3.381 -1.0642 -0.6045 -0.0859
  169SAPE  H18S19039   2.235   3.292   3.532  1.7600 -1.1788  0.7016
  169SAPE  C21919040   2.025   3.196   3.543 -0.1442 -0.0476 -0.4620
  169SAPE  H19R19041   2.020   3.186   3.654 -0.9986 -0.9573 -0.5782
  169SAPE  H19S19042   1.972   3.112   3.494 -1.2756  2.1201 -3.2584
  169SAPE  C22019043   1.946   3.320   3.505  0.1790  0.1124 -0.0507
  169SAPE  H20R19044   1.998   3.414   3.530 -2.4510  1.8482 -0.6904
  169SAPE  H20S19045   1.848   3.327   3.556 -0.1931 -0.2103 -0.7026
  169SAPE  H20T19046   1.916   3.318   3.398 -2.3597  0.0393  0.5942
  169SAPE   C3319047   2.631   2.786   2.393  1.0695 -0.0351  0.5402
  169SAPE   H3X19048   2.736   2.766   2.422  1.0696  0.8621  1.1797
  169SAPE   H3Y19049   2.578   2.693   2.362 -2.8132  2.7332 -2.0950
  169SAPE   C3419050   2.553   2.807   2.525  0.3451 -0.0317 -0.6038
  169SAPE   H4X19051   2.579   2.712   2.577  0.5605  0.1732 -0.3369
  169SAPE   H4Y19052   2.444   2.802   2.508  0.6399 -2.1266 -2.3392
  169SAPE   C3519053   2.591   2.935   2.607 -0.3298 -1.2469 -0.4337
  169SAPE   H5X19054   2.575   3.033   2.558  2.1880 -0.0557  0.9239
  169SAPE   H5Y19055   2.702   2.931   2.618 -0.0729  1.2670 -1.3487
  169SAPE   C3619056   2.542   2.949   2.751 -0.0210  0.7142 -0.0901
  169SAPE   H6X19057   2.435   2.920   2.745  0.6180 -1.8779 -0.0177
  169SAPE   H6Y19058   2.539   3.055   2.787 -0.2305  0.0318  2.0520
  169SAPE   C3719059   2.614   2.858   2.851  0.0209  0.9617 -0.6386
  169SAPE   H7X19060   2.719   2.894   2.856  1.3226 -2.5356 -0.0128
  169SAPE   H7Y19061   2.604   2.752   2.819 -1.9705  0.5520  1.1328
  169SAPE   C3819062   2.557   2.876   2.989 -0.2562  0.1374  0.5824
  169SAPE   H8X19063   2.452   2.842   2.996 -0.2862 -0.3001 -1.4015
  169SAPE   H8Y19064   2.558   2.982   3.022 -0.9201 -0.0253  1.1425
  169SAPE   C3919065   2.645   2.793   3.083  0.0793 -0.0348  0.4915
  169SAPE   H9X19066   2.752   2.826   3.081  0.5190 -1.4082 -0.6850
  169SAPE   H9Y19067   2.635   2.688   3.047  3.4780  0.4015 -2.2729
  169SAPE  C31019068   2.603   2.791   3.231 -0.4165  0.1328 -0.7484
  169SAPE  H10X19069   2.495   2.770   3.239 -0.3607 -0.5043 -1.4930
  169SAPE  H10Y19070   2.620   2.889   3.282  2.1788 -1.0213  0.8567
  169SAPE  C31119071   2.675   2.686   3.322  0.1556  0.1824  0.4295
  169SAPE  H11X19072   2.781   2.716   3.336  1.4428 -2.0648 -3.1846
  169SAPE  H11Y19073   2.683   2.587   3.272 -0.9238  0.3113 -0.0145
  169SAPE  C31219074   2.618   2.689   3.463 -0.5118  0.1384  0.5300
  169SAPE  H12X19075   2.518   2.640   3.470 -1.0682  1.3646  1.6566
  169SAPE  H12Y19076   2.605   2.792   3.503  3.6997  1.5226 -1.1668
  169SAPE  C31319077   2.723   2.625   3.561 -0.1499  0.0989  0.0229
  169SAPE  H13X19078   2.815   2.601   3.504 -1.5855 -1.5346 -1.7039
  169SAPE  H13Y19079   2.688   2.529   3.604  1.5438 -0.1715  0.8834
  169SAPE  C31419080   2.766   2.715   3.680  1.1816 -0.5135 -0.5865
  169SAPE  H14X19081   2.810   2.810   3.642  1.9770  0.1695  1.8167
  169SAPE  H14Y19082   2.851   2.670   3.736  0.3570  0.2595  1.3575
  169SAPE  C31519083   2.654   2.764   3.765  0.2870 -0.0387  0.7400
  169SAPE  H15X19084   2.591   2.690   3.819 -3.0251  0.1761 -2.4204
  169SAPE  H15Y19085   2.573   2.817   3.709 -0.7370 -2.1456  0.1169
  169SAPE  C31619086   2.709   2.859   3.874  0.8009  0.1417  0.3164
  169SAPE  H16X19087   2.749   2.950   3.826 -0.4824 -0.5915 -2.3461
  169SAPE  H16Y19088   2.791   2.812   3.933 -1.4095 -2.2370  1.7204
  169SAPE  C31719089   2.597   2.910   3.966 -0.1254  0.2751 -0.5013
  169SAPE  H17X19090   2.522   2.831   3.985  0.8345 -0.3452  0.8524
  169SAPE  H17Y19091   2.545   2.989   3.907  0.6647  1.5599  0.4563
  169SAPE  C31819092   2.638   2.961   4.104  0.2957 -0.2287  0.0656
  169SAPE  H18X19093   2.700   3.053   4.096  0.0012  0.0398  0.8332
  169SAPE  H18Y19094   2.699   2.888   4.162  2.0539  0.6855 -0.5425
  169SAPE  H18Z19095   2.554   2.989   4.170 -0.2047 -0.6230 -0.3956
  170SAPE     N19096   1.358   6.210   2.328 -0.2019  0.2367  0.1148
  170SAPE   HN119097   1.417   6.125   2.330  1.3982  1.3093  1.0572
  170SAPE   HN219098   1.424   6.288   2.349  0.6230 -0.9084  2.0276
  170SAPE   HN319099   1.276   6.212   2.393 -1.2860  0.1110 -1.2057
  170SAPE   C1219100   1.316   6.228   2.193  0.2337 -0.1283  0.2230
  170SAPE  H12A19101   1.254   6.138   2.175  0.9289 -0.7265  0.7439
  170SAPE  H12B19102   1.406   6.222   2.129 -0.6304  1.2777 -1.1873
  170SAPE   C1119103   1.234   6.363   2.173 -0.0337  0.7391  0.1992
  170SAPE  H11A19104   1.196   6.376   2.069 -0.0272  1.2305  0.2573
  170SAPE  H11B19105   1.303   6.448   2.186 -0.1351  0.7515  0.6730
  170SAPE     P19106   0.977   6.394   2.237  0.2560 -0.3641 -0.2758
  170SAPE   O1319107   0.961   6.529   2.178 -0.2358  0.1054  0.0316
  170SAPE   O1419108   0.920   6.281   2.159  0.3063 -0.2424 -0.7222
  170SAPE   O1219109   1.127   6.373   2.270  0.5085  0.0052 -0.0771
  170SAPE   O1119110   0.904   6.403   2.375 -0.0510 -0.1827  0.3852
  170SAPE    C119111   0.982   6.462   2.486 -0.3199 -0.0616  0.6786
  170SAPE    HA19112   1.063   6.531   2.452  1.4054 -2.8427 -1.2004
  170SAPE    HB19113   0.919   6.514   2.562 -0.1290  0.4650  0.4845
  170SAPE    C219114   1.043   6.343   2.570 -0.4073 -0.8176 -0.2706
  170SAPE    HS19115   1.118   6.276   2.522 -0.7033 -1.9163  0.7650
  170SAPE   O2119116   0.931   6.272   2.626  0.2678  0.1583  0.6509
  170SAPE   C2119117   0.945   6.144   2.646 -0.3490  0.1942 -0.3599
  170SAPE   O2219118   1.047   6.080   2.623  0.6306 -0.2814  0.1291
  170SAPE   C2219119   0.812   6.080   2.691  0.0512  0.4875 -0.5854
  170SAPE   H2R19120   0.750   6.145   2.756 -0.7377 -0.4632 -0.3640
  170SAPE   H2S19121   0.755   6.065   2.597 -0.1970 -1.5646 -0.1475
  170SAPE    C319122   1.132   6.402   2.688 -0.1722 -0.1246  0.2676
  170SAPE    HX19123   1.212   6.460   2.636 -0.6136  0.2795  0.0278
  170SAPE    HY19124   1.172   6.319   2.750  0.3763 -1.1567 -1.4117
  170SAPE   O3119125   1.050   6.487   2.772  1.0924 -0.1861 -0.2547
  170SAPE   C3119126   1.053   6.613   2.758 -0.4598 -0.4533  0.3113
  170SAPE   O3219127   1.109   6.678   2.669 -0.1651 -0.0342  0.1493
  170SAPE   C3219128   0.977   6.682   2.869 -0.0590 -0.0708  0.0445
  170SAPE   H2X19129   1.046   6.670   2.956 -0.1804 -0.3670  0.1010
  170SAPE   H2Y19130   0.880   6.629   2.877 -1.6126  2.4345 -1.1921
  170SAPE   C2319131   0.834   5.943   2.763 -0.6012 -0.1180  1.4543
  170SAPE   H3R19132   0.902   5.878   2.705 -1.1986 -0.9877  1.7108
  170SAPE   H3S19133   0.735   5.893   2.754 -0.0591 -1.0040  0.1074
  170SAPE   C2419134   0.861   5.952   2.915  0.3258  0.4386  0.8722
  170SAPE   H4R19135   0.866   5.851   2.961  0.3654 -1.5960 -3.1402
  170SAPE   H4S19136   0.796   6.022   2.971 -1.3335 -0.6417  0.3533
  170SAPE   C2519137   1.004   5.994   2.930 -0.7018  0.1992  0.9864
  170SAPE   H5R19138   1.078   5.912   2.929 -1.2581 -0.3066  0.6195
  170SAPE   C2619139   1.046   6.116   2.970  0.1403 -0.2311 -0.3642
  170SAPE   H6R19140   1.155   6.131   2.979 -0.1596  1.1959  1.3956
  170SAPE   C2719141   0.961   6.231   3.003  0.5947 -1.0304  0.4959
  170SAPE   H7R19142   0.863   6.195   3.042 -1.0555  0.0793 -2.3423
  170SAPE   H7S19143   0.935   6.280   2.907  3.1718 -2.1331 -0.8623
  170SAPE   C2819144   1.029   6.343   3.080 -0.6344  0.2173  0.0026
  170SAPE   H8R19145   1.088   6.414   3.020  1.3451 -1.6008 -0.3431
  170SAPE   C2919146   1.014   6.355   3.212 -0.1832 -0.1695  0.0300
  170SAPE   H9R19147   1.060   6.435   3.272  1.1431 -1.6160  1.0195
  170SAPE  C21019148   0.932   6.273   3.307 -0.0253 -0.2691 -0.4146
  170SAPE  H10R19149   1.006   6.227   3.376  0.8937  1.5719 -0.1136
  170SAPE  H10S19150   0.877   6.192   3.256 -0.2102  1.0620 -2.4284
  170SAPE  C21119151   0.827   6.341   3.395 -0.4652  0.1311 -0.5020
  170SAPE  H11R19152   0.732   6.351   3.339 -0.6815 -1.3070 -0.4448
  170SAPE  C21219153   0.840   6.389   3.520  0.2677 -0.3568 -0.0501
  170SAPE  H12R19154   0.755   6.436   3.571  0.9006  0.1747  0.5321
  170SAPE  C21319155   0.974   6.379   3.598 -0.1352 -0.1556 -0.8877
  170SAPE  H13R19156   1.049   6.324   3.537  0.7054 -0.0844  0.0552
  170SAPE  H13S19157   0.961   6.314   3.687 -2.3435  0.9511 -0.3425
  170SAPE  C21419158   1.018   6.518   3.639 -0.4512  0.3495 -0.0186
  170SAPE  H14R19159   1.051   6.577   3.553 -1.6919 -0.2933 -0.9643
  170SAPE  C21519160   1.033   6.569   3.765 -0.4795  0.2218  0.0827
  170SAPE  H15R19161   1.067   6.674   3.766 -1.8144  0.7340 -2.1003
  170SAPE  C21619162   1.007   6.502   3.899 -0.2491  0.1848  0.2509
  170SAPE  H16R19163   1.093   6.522   3.965  0.0245 -1.5770  0.4741
  170SAPE  H16S19164   1.001   6.394   3.873  0.4808 -0.0463  1.0061
  170SAPE  C21719165   0.873   6.542   3.960 -0.1601  0.3210 -0.6051
  170SAPE  H17R19166   0.861   6.480   4.052  0.5651 -0.0981 -0.7860
  170SAPE  H17S19167   0.781   6.518   3.903 -0.2988  0.2159 -0.3385
  170SAPE  C21819168   0.889   6.676   4.022  0.0566 -0.2454 -0.9399
  170SAPE  H18R19169   0.879   6.748   3.939  0.5919  0.2831 -0.5552
  170SAPE  H18S19170   0.992   6.684   4.062 -0.7972  0.6155  1.2995
  170SAPE  C21919171   0.798   6.716   4.147  0.1781 -0.3927  0.6819
  170SAPE  H19R19172   0.807   6.632   4.218 -0.0039 -0.6069  0.4509
  170SAPE  H19S19173   0.689   6.717   4.128 -0.0179 -0.9569  1.7720
  170SAPE  C22019174   0.839   6.844   4.223 -0.0530  0.2997 -0.0478
  170SAPE  H20R19175   0.845   6.936   4.160  1.1200  0.9898  1.0418
  170SAPE  H20S19176   0.940   6.830   4.266  0.3732 -0.4321 -1.2356
  170SAPE  H20T19177   0.770   6.863   4.308 -2.0144 -2.8461 -0.7932
  170SAPE   C3319178   0.975   6.836   2.845  0.6448  0.7987  0.2630
  170SAPE   H3X19179   0.929   6.853   2.745 -0.8528 -1.1669  0.5670
  170SAPE   H3Y19180   1.083   6.864   2.847  1.7699 -2.5543 -2.3274
  170SAPE   C3419181   0.897   6.909   2.949  0.5371  0.4171  0.3341
  170SAPE   H4X19182   0.801   6.854   2.955  0.2290  0.9938  0.8022
  170SAPE   H4Y19183   0.875   7.016   2.928 -2.9708 -0.3436 -0.4556
  170SAPE   C3519184   0.955   6.890   3.094 -0.1235 -0.3734 -0.1986
  170SAPE   H5X19185   1.060   6.923   3.087  0.2144 -1.4846 -0.5968
  170SAPE   H5Y19186   0.967   6.783   3.124  1.2380 -0.2151 -0.1200
  170SAPE   C3619187   0.881   6.961   3.208  0.2175  0.0568 -0.1709
  170SAPE   H6X19188   0.771   6.946   3.200  0.1005  0.4164  0.6070
  170SAPE   H6Y19189   0.877   7.069   3.183 -1.1087 -0.0756 -0.6101
  170SAPE   C3719190   0.936   6.938   3.348 -0.2436  0.2964 -0.7610
  170SAPE   H7X19191   1.046   6.949   3.355 -0.5220  3.0435  0.4276
  170SAPE   H7Y19192   0.905   6.837   3.384 -0.3027  0.3009 -0.8007
  170SAPE   C3819193   0.882   7.034   3.456  0.2284 -1.1437  0.2031
  170SAPE   H8X19194   0.776   7.003   3.468  0.1129 -2.0611 -2.4645
  170SAPE   H8Y19195   0.882   7.138   3.417 -1.0235 -1.0759  0.3597
  170SAPE   C3919196   0.958   7.016   3.592  0.5673 -0.0241  0.1331
  170SAPE   H9X19197   1.065   7.041   3.573  0.7791 -1.1937 -0.3370
  170SAPE   H9Y19198   0.951   6.911   3.629 -0.7272 -0.2591 -0.7200
  170SAPE  C31019199   0.902   7.117   3.693  0.2821 -0.0089  0.1288
  170SAPE  H10X19200   0.794   7.094   3.705  0.7008 -3.1311 -1.0815
  170SAPE  H10Y19201   0.912   7.219   3.650  0.0159  0.1995  0.5487
  170SAPE  C31119202   0.969   7.114   3.831  0.4288  0.0375 -0.1861
  170SAPE  H11X19203   1.075   7.108   3.798  0.5113  0.6100 -0.0359
  170SAPE  H11Y19204   0.949   7.019   3.884  2.2021  0.2260  0.9165
  170SAPE  C31219205   0.944   7.238   3.925 -0.4054  0.6110  0.1047
  170SAPE  H12X19206   0.833   7.246   3.915 -0.6453 -2.7834 -1.1656
  170SAPE  H12Y19207   0.981   7.333   3.882  0.0832  1.0698  1.4952
  170SAPE  C31319208   0.999   7.199   4.063  0.3658  0.0361  0.8626
  170SAPE  H13X19209   1.105   7.165   4.065  0.0644 -0.9184  1.8038
  170SAPE  H13Y19210   0.930   7.126   4.109 -1.5310  0.2360 -1.4694
  170SAPE  C31419211   0.993   7.319   4.154 -0.3676 -0.5550 -0.8344
  170SAPE  H14X19212   0.886   7.339   4.175 -0.7882 -3.9115  1.0170
  170SAPE  H14Y19213   1.036   7.414   4.116  0.0879  1.1630  3.4289
  170SAPE  C31519214   1.061   7.308   4.294 -0.1850  0.1993 -0.9700
  170SAPE  H15X19215   1.044   7.408   4.340 -1.6017 -0.5794  0.2858
  170SAPE  H15Y19216   1.167   7.278   4.288 -0.5035 -1.7607  1.6402
  170SAPE  C31619217   1.001   7.200   4.378 -0.2336 -0.2830  0.1595
  170SAPE  H16X19218   0.971   7.116   4.312 -0.5686 -1.5599  1.8559
  170SAPE  H16Y19219   0.907   7.235   4.424 -0.1529 -1.1471  1.0277
  170SAPE  C31719220   1.093   7.139   4.476  0.2101 -0.1304 -0.0246
  170SAPE  H17X19221   1.101   7.223   4.549 -2.0294 -0.8754  1.1599
  170SAPE  H17Y19222   1.198   7.113   4.450 -0.5986 -2.6773 -1.0237
  170SAPE  C31819223   1.024   7.016   4.543 -0.3198 -0.5503 -0.0596
  170SAPE  H18X19224   1.068   6.999   4.643 -2.1145  0.2125  0.9125
  170SAPE  H18Y19225   1.021   6.916   4.496 -1.8369  0.3914 -2.1236
  170SAPE  H18Z19226   0.919   7.041   4.570 -0.1823 -0.6918  0.6132
  171SAPE     N19227   1.385   4.563   2.428 -0.0528 -0.1748 -0.9106
  171SAPE   HN119228   1.411   4.650   2.479 -0.0245 -2.2226  3.0303
  171SAPE   HN219229   1.337   4.502   2.497 -0.4840  0.7154 -0.4021
  171SAPE   HN319230   1.474   4.511   2.412 -0.9117 -1.7541 -0.7341
  171SAPE   C1219231   1.313   4.574   2.297  0.0268 -0.7006 -0.0062
  171SAPE  H12A19232   1.383   4.594   2.213 -0.0320 -0.9216 -0.1090
  171SAPE  H12B19233   1.251   4.665   2.313 -0.4299 -1.2372  1.5101
  171SAPE   C1119234   1.214   4.466   2.271  0.1283 -0.3129 -0.2596
  171SAPE  H11A19235   1.266   4.374   2.237  1.6072  0.1174  0.7692
  171SAPE  H11B19236   1.157   4.505   2.183 -1.4470 -5.3278 -1.7988
  171SAPE     P19237   0.995   4.362   2.357  0.2820  0.1528  0.0720
  171SAPE   O1319238   0.889   4.380   2.461 -0.0341  0.0556  0.3051
  171SAPE   O1419239   0.945   4.399   2.220  0.0564  1.1415 -0.0882
  171SAPE   O1219240   1.128   4.448   2.382 -0.5233  0.0057 -0.2291
  171SAPE   O1119241   1.057   4.215   2.360  0.2302  0.1428  0.3534
  171SAPE    C119242   1.044   4.128   2.474  0.1250  0.3135 -0.5335
  171SAPE    HA19243   0.945   4.143   2.522 -0.3281  0.8850 -1.6056
  171SAPE    HB19244   1.035   4.023   2.438 -4.1221  0.1306  0.5554
  171SAPE    C219245   1.150   4.150   2.573 -0.3089 -0.0412  0.0359
  171SAPE    HS19246   1.154   4.056   2.633 -1.3551 -0.1489 -0.0433
  171SAPE   O2119247   1.129   4.256   2.666 -0.1565  0.8384  0.5367
  171SAPE   C2119248   1.033   4.240   2.756  0.1730 -0.4785 -0.9356
  171SAPE   O2219249   0.977   4.141   2.793  0.0798 -0.2067 -0.7723
  171SAPE   C2219250   1.035   4.369   2.846 -0.1818  0.0022  0.7557
  171SAPE   H2R19251   1.135   4.395   2.886  0.3192  1.1627 -1.0971
  171SAPE   H2S19252   1.021   4.438   2.759  0.1441 -0.0622  0.6500
  171SAPE    C319253   1.290   4.174   2.505 -0.1295 -0.0770 -0.1042
  171SAPE    HX19254   1.293   4.270   2.450 -0.6882  0.7659  1.2729
  171SAPE    HY19255   1.290   4.092   2.430 -1.0984 -0.1569 -0.0381
  171SAPE   O3119256   1.395   4.159   2.603  0.0288 -0.3240  0.0512
  171SAPE   C3119257   1.434   4.270   2.670  1.1072  0.5782  0.6176
  171SAPE   O3219258   1.393   4.380   2.656  0.0541 -0.3924 -0.4798
  171SAPE   C3219259   1.559   4.240   2.752 -0.1617 -0.1578  1.2231
  171SAPE   H2X19260   1.649   4.273   2.695 -0.8580  1.3026  0.9057
  171SAPE   H2Y19261   1.568   4.132   2.772  1.0448 -1.0191 -2.8994
  171SAPE   C2319262   0.920   4.397   2.944  0.0729 -0.3913 -0.4300
  171SAPE   H3R19263   0.832   4.332   2.923  0.0367 -0.1915 -0.9071
  171SAPE   H3S19264   0.885   4.503   2.937  1.2840  0.0899  0.4159
  171SAPE   C2419265   0.975   4.377   3.088  0.6566  0.6769 -0.5452
  171SAPE   H4R19266   1.061   4.447   3.100  0.1819  1.2829 -0.6573
  171SAPE   H4S19267   1.010   4.276   3.119  1.5242  1.4882  1.2659
  171SAPE   C2519268   0.866   4.401   3.187  0.2593  0.4648 -0.4417
  171SAPE   H5R19269   0.801   4.315   3.204  0.0391  0.8042  0.4982
  171SAPE   C2619270   0.836   4.522   3.245 -0.2129  0.3320  0.6330
  171SAPE   H6R19271   0.767   4.528   3.330 -0.6001  4.6536  0.2264
  171SAPE   C2719272   0.915   4.649   3.221  0.3396  0.1016  0.1912
  171SAPE   H7R19273   0.984   4.629   3.136 -0.2191  1.5245 -0.6333
  171SAPE   H7S19274   0.966   4.685   3.313 -0.8967 -0.2273  1.0205
  171SAPE   C2819275   0.828   4.760   3.177 -0.7085 -0.0478 -0.3938
  171SAPE   H8R19276   0.790   4.746   3.075 -1.4534  1.2470 -0.3129
  171SAPE   C2919277   0.769   4.852   3.253  0.1274 -0.1377  0.4690
  171SAPE   H9R19278   0.725   4.938   3.201 -0.7700  0.8758  2.7684
  171SAPE  C21019279   0.807   4.874   3.398  0.6763  0.2168  0.3587
  171SAPE  H10R19280   0.789   4.776   3.447  0.8573 -0.4259 -0.8414
  171SAPE  H10S19281   0.730   4.944   3.437 -0.3487 -1.1111  0.7769
  171SAPE  C21119282   0.935   4.942   3.425 -0.1636 -0.4521 -0.1316
  171SAPE  H11R19283   0.987   5.000   3.347  2.8752  0.0609  2.0837
  171SAPE  C21219284   0.989   4.938   3.556  0.2312  0.2264  0.3708
  171SAPE  H12R19285   1.081   4.991   3.582 -1.0356  2.7688 -0.0304
  171SAPE  C21319286   0.919   4.883   3.676 -0.0435  0.6617  0.1138
  171SAPE  H13R19287   0.976   4.793   3.706  0.4530  1.3439  1.2605
  171SAPE  H13S19288   0.815   4.853   3.648 -0.1741  2.2522 -1.2585
  171SAPE  C21419289   0.902   4.985   3.787 -0.3563  0.2904 -0.3189
  171SAPE  H14R19290   0.863   5.084   3.758 -0.8430 -0.1748 -1.2756
  171SAPE  C21519291   0.947   4.963   3.918  0.0275 -0.0687 -0.2643
  171SAPE  H15R19292   0.933   5.029   4.005  1.0102 -0.5335  0.2701
  171SAPE  C21619293   1.030   4.849   3.969 -0.0569 -0.0803  0.5324
  171SAPE  H16R19294   1.101   4.810   3.892  0.0722 -0.5075  0.8678
  171SAPE  H16S19295   0.971   4.758   3.992  1.0798 -1.0830 -0.3397
  171SAPE  C21719296   1.110   4.875   4.098 -0.2255  0.2748 -0.2935
  171SAPE  H17R19297   1.045   4.900   4.185 -0.9472  0.6522 -0.9286
  171SAPE  H17S19298   1.174   4.962   4.073  1.3823 -0.9466 -0.5941
  171SAPE  C21819299   1.201   4.761   4.149  0.3530  0.5399  0.2707
  171SAPE  H18R19300   1.285   4.779   4.078 -1.3762 -0.3037 -2.1508
  171SAPE  H18S19301   1.149   4.670   4.112 -0.1850  0.7758  0.4339
  171SAPE  C21919302   1.233   4.772   4.289 -0.1865 -0.3968 -0.0961
  171SAPE  H19R19303   1.146   4.787   4.356 -1.1858  1.3356 -1.6830
  171SAPE  H19S19304   1.291   4.866   4.294  2.5668 -1.8256 -1.9374
  171SAPE  C22019305   1.323   4.658   4.337 -0.3255 -0.0199 -0.3519
  171SAPE  H20R19306   1.260   4.573   4.370 -1.0541  1.2801  1.8509
  171SAPE  H20S19307   1.385   4.695   4.422 -0.6603 -1.1081  0.3887
  171SAPE  H20T19308   1.393   4.640   4.252  1.2193  2.6844  0.2427
  171SAPE   C3319309   1.554   4.331   2.881 -0.0999  0.3851  0.3575
  171SAPE   H3X19310   1.551   4.440   2.863  1.4087  0.3988  0.0434
  171SAPE   H3Y19311   1.636   4.309   2.953 -0.4138  0.8962  0.8798
  171SAPE   C3419312   1.426   4.310   2.974 -0.4144 -0.1376  0.2435
  171SAPE   H4X19313   1.343   4.374   2.937  0.6980 -0.1068 -2.4335
  171SAPE   H4Y19314   1.467   4.340   3.073  0.8827 -0.8213 -0.0607
  171SAPE   C3519315   1.380   4.166   2.982 -0.4787 -0.3017 -0.2902
  171SAPE   H5X19316   1.465   4.098   3.005 -1.0593 -0.6867  0.8289
  171SAPE   H5Y19317   1.319   4.149   2.891 -2.7295  1.5089  0.7759
  171SAPE   C3619318   1.285   4.157   3.099  0.5074 -0.0016 -0.4870
  171SAPE   H6X19319   1.198   4.225   3.087  1.2290  0.5731 -2.8251
  171SAPE   H6Y19320   1.343   4.190   3.188  0.5243  0.8409 -0.8031
  171SAPE   C3719321   1.233   4.015   3.117  0.2293 -0.3208 -0.0315
  171SAPE   H7X19322   1.319   3.955   3.153  0.8484  2.0398  2.8198
  171SAPE   H7Y19323   1.194   3.968   3.024  0.8484 -1.5995  0.3275
  171SAPE   C3819324   1.133   3.990   3.229 -0.7535  1.1333  0.3011
  171SAPE   H8X19325   1.136   3.879   3.240 -0.6568  0.9980 -0.9515
  171SAPE   H8Y19326   1.029   4.021   3.206  0.1242  1.7735 -3.4261
  171SAPE   C3919327   1.165   4.051   3.367  0.2356 -0.7551 -0.0691
  171SAPE   H9X19328   1.149   4.161   3.362  1.1660 -0.6443 -1.3671
  171SAPE   H9Y19329   1.276   4.044   3.375  0.1673 -0.9932  0.6877
  171SAPE  C31019330   1.092   3.982   3.478 -0.5522  0.3015 -0.2514
  171SAPE  H10X19331   1.139   4.001   3.577 -1.6772 -2.2281  0.8366
  171SAPE  H10Y19332   1.080   3.875   3.450 -1.7904  0.5504 -0.7413
  171SAPE  C31119333   0.946   4.026   3.495 -0.3648  0.1597 -0.2553
  171SAPE  H11X19334   0.908   3.950   3.568  0.4144  0.3874  0.4025
  171SAPE  H11Y19335   0.871   4.007   3.415  0.0506 -0.3444 -0.5306
  171SAPE  C31219336   0.939   4.175   3.541 -0.7749 -0.0650  0.1383
  171SAPE  H12X19337   0.977   4.240   3.459 -0.4326 -1.1615 -0.6033
  171SAPE  H12Y19338   0.999   4.198   3.632 -0.6726  0.1677  0.0133
  171SAPE  C31319339   0.800   4.219   3.588 -0.2955  0.2614  0.4901
  171SAPE  H13X19340   0.758   4.164   3.676  0.2529 -1.0610 -0.0616
  171SAPE  H13Y19341   0.727   4.186   3.511 -0.2533 -1.1353  1.0208
  171SAPE  C31419342   0.791   4.371   3.609 -1.0091  0.2334  0.5447
  171SAPE  H14X19343   0.819   4.422   3.514 -0.3548 -1.7290 -0.3738
  171SAPE  H14Y19344   0.863   4.413   3.681 -0.9305  1.5193 -0.2470
  171SAPE  C31519345   0.654   4.413   3.650 -0.8392  0.1989 -0.0104
  171SAPE  H15X19346   0.632   4.368   3.749 -2.1678  0.7221 -0.0494
  171SAPE  H15Y19347   0.581   4.364   3.582 -1.7478 -0.2784  1.2704
  171SAPE  C31619348   0.639   4.570   3.655  0.2728  0.2679 -0.5738
  171SAPE  H16X19349   0.654   4.600   3.549 -0.1965  1.6716 -0.2628
  171SAPE  H16Y19350   0.719   4.622   3.713 -0.3420 -0.1068  0.6545
  171SAPE  C31719351   0.509   4.616   3.707  0.1725  0.6471 -0.7656
  171SAPE  H17X19352   0.490   4.579   3.810 -1.0818 -0.1453 -1.2490
  171SAPE  H17Y19353   0.424   4.573   3.649  1.6923 -3.9193  0.0150
  171SAPE  C31819354   0.506   4.761   3.712 -0.0242  0.0283 -0.4052
  171SAPE  H18X19355   0.508   4.797   3.607  1.5875  0.6786 -0.1789
  171SAPE  H18Y19356   0.596   4.810   3.757 -0.9304  1.7859 -0.4066
  171SAPE  H18Z19357   0.419   4.792   3.774 -1.5822 -2.7129 -1.1177
  172SAPE     N19358   2.316   6.375   2.648  0.0268  0.3449 -0.0726
  172SAPE   HN119359   2.301   6.462   2.704  2.1227  0.7561 -0.0639
  172SAPE   HN219360   2.371   6.394   2.562  0.7730 -2.9597 -0.4430
  172SAPE   HN319361   2.226   6.337   2.612  0.3608  1.7471 -2.6108
  172SAPE   C1219362   2.388   6.270   2.733 -0.5858 -0.2107  0.7900
  172SAPE  H12A19363   2.477   6.320   2.776  0.0230  0.1317 -0.8037
  172SAPE  H12B19364   2.430   6.193   2.664 -0.3039 -0.2266  0.9804
  172SAPE   C1119365   2.300   6.194   2.839 -0.4079  0.0688  0.3105
  172SAPE  H11A19366   2.264   6.268   2.914 -1.3148  1.6536 -1.5825
  172SAPE  H11B19367   2.362   6.107   2.866  0.2214 -0.4038 -2.4044
  172SAPE     P19368   2.067   6.065   2.846  0.0297  0.0756  0.1106
  172SAPE   O1319369   1.993   6.005   2.734  0.2864 -0.1465  0.8764
  172SAPE   O1419370   2.132   5.967   2.940 -0.1951 -0.6170  0.2022
  172SAPE   O1219371   2.180   6.150   2.777  0.0687  0.0467  0.0324
  172SAPE   O1119372   1.979   6.162   2.919  0.4628  0.2389 -0.1962
  172SAPE    C119373   1.845   6.213   2.900 -0.4218 -0.6092  0.5682
  172SAPE    HA19374   1.849   6.320   2.929 -0.6358 -0.5504  0.3887
  172SAPE    HB19375   1.812   6.199   2.795  1.2723 -2.3679  0.2266
  172SAPE    C219376   1.735   6.140   2.982 -0.3731 -0.2824 -0.3036
  172SAPE    HS19377   1.647   6.207   2.973  0.3698  1.0309  1.4549
  172SAPE   O2119378   1.781   6.122   3.120 -0.2202  0.2007  0.5241
  172SAPE   C2119379   1.809   6.235   3.178 -0.1412  0.7855 -0.1309
  172SAPE   O2219380   1.749   6.337   3.161 -0.3397 -0.2686 -0.6659
  172SAPE   C2219381   1.932   6.237   3.274  0.6319  0.9132 -0.1100
  172SAPE   H2R19382   1.909   6.328   3.334  0.3754  1.4026 -0.9316
  172SAPE   H2S19383   1.931   6.149   3.341  0.6007  1.0717  0.0993
  172SAPE    C319384   1.698   6.002   2.920 -0.0760 -0.1993  0.0396
  172SAPE    HX19385   1.782   5.931   2.904 -0.2842 -0.5526  0.5014
  172SAPE    HY19386   1.654   6.025   2.821  3.1671 -0.6611 -1.6548
  172SAPE   O3119387   1.600   5.928   2.993  0.2219  0.2783 -0.2474
  172SAPE   C3119388   1.466   5.962   2.987 -1.1859 -0.0425  0.3917
  172SAPE   O3219389   1.429   6.073   2.959  0.2252  0.0604  1.0104
  172SAPE   C3219390   1.375   5.855   3.044  0.6838  0.2871 -0.6699
  172SAPE   H2X19391   1.425   5.756   3.052  0.4812  0.3364  3.2082
  172SAPE   H2Y19392   1.287   5.840   2.979 -1.1918  0.5647  1.6521
  172SAPE   C2319393   2.062   6.237   3.203  0.8272 -0.4815  0.0354
  172SAPE   H3R19394   2.047   6.303   3.116  0.8492  0.4847  0.7490
  172SAPE   H3S19395   2.072   6.135   3.161  2.4408 -0.4028  0.1568
  172SAPE   C2419396   2.183   6.289   3.283 -0.7901 -0.4233 -0.1821
  172SAPE   H4R19397   2.163   6.394   3.312 -0.1578 -0.3566  0.0266
  172SAPE   H4S19398   2.274   6.302   3.220 -0.0794 -2.2315  0.4225
  172SAPE   C2519399   2.229   6.209   3.399  0.1819 -0.1239  0.0170
  172SAPE   H5R19400   2.298   6.126   3.378  2.2419  0.8915  2.2161
  172SAPE   C2619401   2.197   6.231   3.532  0.3966 -0.1464  0.7523
  172SAPE   H6R19402   2.240   6.166   3.610 -2.5486  0.9631  3.5247
  172SAPE   C2719403   2.098   6.338   3.580  0.0208  0.4019 -0.1275
  172SAPE   H7R19404   2.072   6.413   3.501 -1.2857 -0.9342 -1.0309
  172SAPE   H7S19405   2.153   6.385   3.664 -0.7495 -1.2372  1.3430
  172SAPE   C2819406   1.979   6.268   3.632 -0.0511 -0.5948 -0.4488
  172SAPE   H8R19407   1.912   6.230   3.553  0.4541  1.4418 -1.9385
  172SAPE   C2919408   1.947   6.241   3.766 -0.9022  0.4878 -0.1951
  172SAPE   H9R19409   1.857   6.181   3.784 -0.5438 -0.9419 -2.7639
  172SAPE  C21019410   2.028   6.283   3.886 -0.3322 -0.0340  0.1875
  172SAPE  H10R19411   1.959   6.319   3.966 -0.2971 -1.4505  0.8830
  172SAPE  H10S19412   2.096   6.369   3.866 -0.8327 -0.1669 -2.3718
  172SAPE  C21119413   2.122   6.166   3.924 -0.4569 -0.3809  0.0625
  172SAPE  H11R19414   2.158   6.106   3.839 -0.7179 -0.2095 -0.1701
  172SAPE  C21219415   2.156   6.128   4.049 -0.1103 -0.2305  0.1105
  172SAPE  H12R19416   2.221   6.041   4.070 -1.1372 -1.4476 -1.4937
  172SAPE  C21319417   2.120   6.185   4.183  0.0792 -0.1221 -0.1607
  172SAPE  H13R19418   2.028   6.247   4.167 -0.1732 -0.2849  0.6469
  172SAPE  H13S19419   2.193   6.254   4.230 -1.8069  0.9821  1.2838
  172SAPE  C21419420   2.075   6.072   4.270  0.2025  0.9490  0.0567
  172SAPE  H14R19421   2.153   6.021   4.328 -0.8316 -1.3733 -0.4829
  172SAPE  C21519422   1.947   6.027   4.283 -0.0107 -0.3025 -0.0132
  172SAPE  H15R19423   1.931   5.941   4.350 -0.0558 -0.1401  0.1857
  172SAPE  C21619424   1.822   6.069   4.222  0.2038  0.2800 -0.3231
  172SAPE  H16R19425   1.790   6.003   4.138 -4.3423  0.9300  0.6226
  172SAPE  H16S19426   1.830   6.172   4.183 -2.4623  1.0458  0.9017
  172SAPE  C21719427   1.692   6.084   4.312 -0.2004  0.5714 -0.1492
  172SAPE  H17R19428   1.689   5.994   4.376  1.1832 -0.5938 -1.6375
  172SAPE  H17S19429   1.601   6.087   4.248 -0.5202  1.7243  0.3297
  172SAPE  C21819430   1.700   6.222   4.390 -0.1091 -0.3840 -0.7202
  172SAPE  H18R19431   1.728   6.301   4.317  1.6541 -0.8953 -0.6363
  172SAPE  H18S19432   1.788   6.216   4.457  0.6399 -0.4029 -1.6786
  172SAPE  C21919433   1.571   6.254   4.467  0.6752  0.3995  0.1130
  172SAPE  H19R19434   1.571   6.194   4.561  0.7476 -0.1470 -0.2306
  172SAPE  H19S19435   1.485   6.208   4.414  0.5822  0.5722  0.1153
  172SAPE  C22019436   1.545   6.397   4.487  0.0540  0.5985 -0.4886
  172SAPE  H20R19437   1.636   6.454   4.516  0.1879  2.0548 -3.3869
  172SAPE  H20S19438   1.462   6.411   4.558 -0.7897 -1.1135 -1.0635
  172SAPE  H20T19439   1.517   6.438   4.387  0.9844  0.1837 -0.9420
  172SAPE   C3319440   1.336   5.880   3.191 -0.6736  0.0362  0.2180
  172SAPE   H3X19441   1.292   5.982   3.184 -0.7252 -0.0695 -1.6661
  172SAPE   H3Y19442   1.417   5.862   3.264 -1.0621 -1.3277  0.3286
  172SAPE   C3419443   1.222   5.783   3.221 -0.4100 -0.1552  0.1385
  172SAPE   H4X19444   1.261   5.685   3.255 -2.0397 -0.8278  0.1227
  172SAPE   H4Y19445   1.151   5.766   3.138 -0.4791 -3.0606  0.6906
  172SAPE   C3519446   1.152   5.836   3.347 -0.0313 -0.5923 -0.8763
  172SAPE   H5X19447   1.171   5.945   3.364  1.7018 -1.0337  0.2264
  172SAPE   H5Y19448   1.171   5.783   3.443 -0.6615  0.1076 -0.3439
  172SAPE   C3619449   1.001   5.826   3.332  0.9061  0.0158  0.0101
  172SAPE   H6X19450   0.971   5.727   3.291 -0.1240 -0.5356  1.9718
  172SAPE   H6Y19451   0.962   5.907   3.266 -0.5033  1.3633  2.3639
  172SAPE   C3719452   0.925   5.831   3.468  0.1001  0.0595  0.2258
  172SAPE   H7X19453   0.940   5.735   3.522 -0.3455 -0.2265 -0.1541
  172SAPE   H7Y19454   0.815   5.839   3.452  0.1514 -0.3091 -0.3037
  172SAPE   C3819455   0.952   5.954   3.558 -0.4047  0.4077  0.7183
  172SAPE   H8X19456   0.969   6.034   3.483  0.4726 -0.0875  0.3767
  172SAPE   H8Y19457   1.048   5.937   3.611  0.0199  0.0032 -0.1678
  172SAPE   C3919458   0.840   5.986   3.658  0.7592  0.3798 -0.4370
  172SAPE   H9X19459   0.741   6.004   3.611 -1.4300 -1.2573  3.1056
  172SAPE   H9Y19460   0.858   6.074   3.722  0.0943 -0.7795  1.4356
  172SAPE  C31019461   0.813   5.864   3.749  0.0742 -0.7379  0.3561
  172SAPE  H10X19462   0.900   5.837   3.811 -0.6554 -2.9765  0.4777
  172SAPE  H10Y19463   0.792   5.778   3.682 -1.0013 -0.4095  0.2518
  172SAPE  C31119464   0.690   5.888   3.841  0.8700  0.1504 -0.2060
  172SAPE  H11X19465   0.649   5.795   3.885 -0.6178  0.7215 -0.3412
  172SAPE  H11Y19466   0.609   5.905   3.767  0.0112  0.6306  0.8306
  172SAPE  C31219467   0.720   5.993   3.945  0.0238  0.5428  0.2467
  172SAPE  H12X19468   0.726   6.093   3.897 -2.6136 -0.0488 -1.5294
  172SAPE  H12Y19469   0.818   5.966   3.991 -0.5437 -1.7053  0.2930
  172SAPE  C31319470   0.594   6.014   4.041 -0.4185 -0.1248  0.1307
  172SAPE  H13X19471   0.503   6.047   3.987 -1.4225  0.6466  2.2100
  172SAPE  H13Y19472   0.622   6.097   4.109 -1.8391  0.1852  0.3620
  172SAPE  C31419473   0.565   5.887   4.114  0.6080  0.1948 -0.2443
  172SAPE  H14X19474   0.511   5.811   4.053  0.4561  0.3523 -0.3056
  172SAPE  H14Y19475   0.481   5.909   4.184  0.0231 -0.7223 -0.6394
  172SAPE  C31519476   0.672   5.835   4.210 -0.1064  0.0413 -0.9303
  172SAPE  H15X19477   0.732   5.924   4.239  2.8840 -1.8801 -0.7607
  172SAPE  H15Y19478   0.730   5.752   4.165 -1.9776 -1.4785 -0.6605
  172SAPE  C31619479   0.611   5.775   4.341  0.0420 -0.2532  0.6662
  172SAPE  H16X19480   0.559   5.864   4.383 -1.1299 -0.5460 -0.1234
  172SAPE  H16Y19481   0.686   5.732   4.410 -2.0214 -0.0799  3.1612
  172SAPE  C31719482   0.513   5.655   4.319 -0.2787 -0.3140  0.1520
  172SAPE  H17X19483   0.577   5.571   4.285 -0.1770 -0.1309 -0.1104
  172SAPE  H17Y19484   0.433   5.682   4.247  0.7223 -1.3149 -1.3727
  172SAPE  C31819485   0.458   5.616   4.459  0.6585  0.6605  0.5262
  172SAPE  H18X19486   0.392   5.527   4.455 -0.5330  1.5731 -1.1178
  172SAPE  H18Y19487   0.401   5.701   4.503  0.1257 -1.3016  4.0001
  172SAPE  H18Z19488   0.546   5.609   4.526  1.7359  0.1060 -0.8973
  173SLPC     N19489   2.301   0.465   6.655  0.0904  0.4252  0.1099
  173SLPC   C1319490   2.220   0.589   6.620 -0.1230 -0.3850 -0.2413
  173SLPC  H13A19491   2.114   0.577   6.636 -0.1392 -0.7557 -0.6387
  173SLPC  H13B19492   2.245   0.667   6.691 -4.6497 -1.3649  2.8345
  173SLPC  H13C19493   2.243   0.614   6.518 -0.2479  0.7049 -0.0133
  173SLPC   C1419494   2.270   0.428   6.806 -0.2153 -0.0266  0.1721
  173SLPC  H14A19495   2.312   0.336   6.843 -1.4477 -0.5279  0.3704
  173SLPC  H14B19496   2.295   0.520   6.856 -2.3124  0.2150  0.8439
  173SLPC  H14C19497   2.163   0.430   6.816 -0.3579  1.0459 -1.2268
  173SLPC   C1519498   2.445   0.501   6.646  0.1438  0.6375  0.3508
  173SLPC  H15A19499   2.483   0.526   6.548 -0.0394 -0.8288 -0.1146
  173SLPC  H15B19500   2.461   0.584   6.713  1.4601  1.8533 -1.3938
  173SLPC  H15C19501   2.505   0.422   6.691 -1.4112  1.2219  3.8144
  173SLPC   C1219502   2.267   0.354   6.556  0.1666  0.1717 -0.2585
  173SLPC  H12A19503   2.286   0.384   6.454  0.8084 -0.9015 -0.4755
  173SLPC  H12B19504   2.162   0.328   6.562  0.3463 -0.9095 -1.4401
  173SLPC   C1119505   2.346   0.216   6.571  0.2750  0.0084  0.3707
  173SLPC  H11A19506   2.457   0.221   6.569  0.2191  1.0303 -0.6176
  173SLPC  H11B19507   2.305   0.161   6.484 -1.4785 -0.7637  1.6242
  173SLPC     P19508   2.332  -0.004   6.710  0.0520 -0.2233 -0.6770
  173SLPC   O1319509   2.474  -0.035   6.739  0.2103 -0.2470 -0.3045
  173SLPC   O1419510   2.243  -0.059   6.815  0.3964 -0.1053  0.3798
  173SLPC   O1219511   2.302   0.145   6.688  0.2579  0.2945 -0.1648
  173SLPC   O1119512   2.304  -0.067   6.574  0.2767 -0.6272 -0.1341
  173SLPC    C119513   2.386  -0.177   6.529  0.0613  0.5168 -0.3840
  173SLPC    HA19514   2.427  -0.243   6.608 -0.8917 -0.5200 -0.7322
  173SLPC    HB19515   2.330  -0.250   6.466  0.2959  1.4937 -1.7926
  173SLPC    C219516   2.511  -0.124   6.449  0.2211  0.4794 -0.1374
  173SLPC    HS19517   2.573  -0.074   6.526 -0.3804  0.7725  0.1624
  173SLPC   O2119518   2.468  -0.023   6.358  0.0704  0.8029  0.6574
  173SLPC   C2119519   2.559   0.053   6.314 -0.4267  0.8351 -0.3347
  173SLPC   O2219520   2.673   0.062   6.363 -0.0753  0.0300  0.1548
  173SLPC   C2219521   2.500   0.136   6.200  0.3585 -0.3877  0.2822
  173SLPC   H2R19522   2.424   0.076   6.146  0.8549  0.6417 -1.6564
  173SLPC   H2S19523   2.455   0.227   6.244  2.3422  0.9259 -0.2988
  173SLPC    C319524   2.593  -0.248   6.387  0.0363 -0.4378  0.3949
  173SLPC    HX19525   2.518  -0.317   6.344 -0.9602  1.5620 -1.2401
  173SLPC    HY19526   2.653  -0.300   6.465  2.4767 -0.2979 -1.2588
  173SLPC   O3119527   2.683  -0.205   6.282  0.2595  0.5979  0.0893
  173SLPC   C3119528   2.811  -0.245   6.277 -0.2838 -0.8150 -0.0707
  173SLPC   O3219529   2.873  -0.298   6.368 -0.5353  0.5896  0.2188
  173SLPC   C3219530   2.883  -0.206   6.144  0.3536 -0.0901  0.0210
  173SLPC   H2X19531   2.880  -0.292   6.074 -0.6333 -0.0781  0.0349
  173SLPC   H2Y19532   2.990  -0.193   6.169  0.7564  1.6104 -2.2367
  173SLPC   C2319533   2.613   0.182   6.106 -0.2918  0.1075  0.0412
  173SLPC   H3R19534   2.636   0.089   6.051  1.5370 -0.3712  1.5147
  173SLPC   H3S19535   2.695   0.225   6.168 -0.4635 -0.2247  0.5068
  173SLPC   C2419536   2.574   0.291   6.007 -0.1874  0.4893 -0.5115
  173SLPC   H4R19537   2.476   0.271   5.958 -0.2559 -1.4463  0.3291
  173SLPC   H4S19538   2.649   0.301   5.926 -0.5012 -1.3735 -1.0745
  173SLPC   C2519539   2.573   0.427   6.070 -0.0848 -0.3063  0.2148
  173SLPC   H5R19540   2.672   0.469   6.097  0.7830  0.3724 -3.4987
  173SLPC   H5S19541   2.530   0.420   6.173  1.1261  0.6540  0.8065
  173SLPC   C2619542   2.494   0.530   5.987  0.0051 -0.4624  0.1628
  173SLPC   H6R19543   2.495   0.625   6.045  0.4210 -0.0817 -0.4487
  173SLPC   H6S19544   2.387   0.502   5.977 -0.0271  0.0564 -1.1247
  173SLPC   C2719545   2.565   0.568   5.854  0.0393 -0.3211 -0.3133
  173SLPC   H7R19546   2.590   0.481   5.790  1.1956 -0.5831  0.4716
  173SLPC   H7S19547   2.668   0.596   5.885  0.1013  1.0547 -1.6227
  173SLPC   C2819548   2.495   0.683   5.780 -0.4366 -0.8621  0.0888
  173SLPC   H8R19549   2.563   0.701   5.694  1.2860  1.0466  1.7435
  173SLPC   H8S19550   2.499   0.782   5.831 -0.2414  0.4373 -2.2802
  173SLPC   C2919551   2.354   0.652   5.734 -0.0220 -0.1295  0.0877
  173SLPC   H9R19552   2.280   0.642   5.815  0.6387  0.0018  0.7212
  173SLPC  C21019553   2.309   0.618   5.610 -0.1676  0.5741  0.2046
  173SLPC  H10R19554   2.204   0.584   5.606 -0.0178  0.1495 -0.3276
  173SLPC  C21119555   2.388   0.614   5.474  0.6112 -0.1323  0.3345
  173SLPC  H11R19556   2.497   0.612   5.496  0.4337  0.1626  1.2691
  173SLPC  H11S19557   2.374   0.715   5.430 -0.0234  0.8666  2.6879
  173SLPC  C21219558   2.341   0.502   5.378  0.6144 -0.2601 -0.6511
  173SLPC  H12R19559   2.290   0.413   5.417 -1.7098  0.9888 -0.6594
  173SLPC  C21319560   2.333   0.511   5.242 -0.6739 -0.4506 -0.0403
  173SLPC  H13R19561   2.277   0.432   5.189 -0.8407 -0.5110  0.2242
  173SLPC  C21419562   2.376   0.628   5.151  0.3263 -0.7305  0.3107
  173SLPC  H14R19563   2.483   0.621   5.121  0.4164  0.2893  0.3582
  173SLPC  H14S19564   2.369   0.726   5.201 -1.5654 -0.8838  0.4389
  173SLPC  C21519565   2.276   0.640   5.037 -0.8204 -0.6117 -0.1804
  173SLPC  H15R19566   2.298   0.738   4.989  0.4633 -0.5359  0.5141
  173SLPC  H15S19567   2.173   0.638   5.077 -0.8021  1.5489  0.1323
  173SLPC  C21619568   2.273   0.526   4.931  0.4543 -0.1026  0.3711
  173SLPC  H16R19569   2.232   0.430   4.969 -1.4961 -0.3025 -1.9679
  173SLPC  H16S19570   2.376   0.506   4.896  1.0536 -0.5082  2.2317
  173SLPC  C21719571   2.183   0.561   4.807 -0.2419  0.2293 -0.6034
  173SLPC  H17R19572   2.075   0.569   4.833  0.2426 -0.2565  1.7954
  173SLPC  H17S19573   2.197   0.484   4.727  1.4550 -0.7016  0.5236
  173SLPC  C21819574   2.226   0.689   4.736 -0.1046  0.0900 -0.4430
  173SLPC  H18R19575   2.331   0.679   4.702  1.4875 -1.9335  4.2034
  173SLPC  H18S19576   2.238   0.777   4.803  4.0639  0.8791 -1.9423
  173SLPC  H18T19577   2.165   0.716   4.647 -0.4963 -0.4707 -0.3510
  173SLPC   C3319578   2.823  -0.084   6.078  0.1022 -0.5023  0.2984
  173SLPC   H3X19579   2.843   0.011   6.131 -4.2442  0.6075  0.3174
  173SLPC   H3Y19580   2.714  -0.096   6.061  0.2900 -0.1591 -1.3012
  173SLPC   C3419581   2.869  -0.067   5.930 -0.1111 -0.1479 -0.0609
  173SLPC   H4X19582   2.815   0.022   5.894 -0.1541 -0.1922 -0.1061
  173SLPC   H4Y19583   2.822  -0.153   5.878  1.1700  0.1686 -1.8056
  173SLPC   C3519584   3.022  -0.079   5.902  0.6074  0.0255  0.0005
  173SLPC   H5X19585   3.077  -0.164   5.946  2.4312  1.1072 -0.0891
  173SLPC   H5Y19586   3.066   0.010   5.952  0.2215 -0.5029  1.3370
  173SLPC   C3619587   3.061  -0.075   5.758 -0.5320 -0.4361 -0.3169
  173SLPC   H6X19588   3.166  -0.038   5.755 -0.4201 -0.7154  0.0145
  173SLPC   H6Y19589   2.999   0.005   5.713 -3.3279 -1.2647  1.7742
  173SLPC   C3719590   3.049  -0.214   5.685  0.0836 -0.0217 -0.2632
  173SLPC   H7X19591   2.943  -0.243   5.669 -0.1377  1.1423 -1.0475
  173SLPC   H7Y19592   3.089  -0.302   5.740  1.8249 -0.1391 -1.6243
  173SLPC   C3819593   3.122  -0.209   5.551  0.6021 -0.4556 -0.2514
  173SLPC   H8X19594   3.230  -0.210   5.577  0.2779 -0.9534  1.1545
  173SLPC   H8Y19595   3.104  -0.122   5.484  1.2717 -1.1809 -1.4065
  173SLPC   C3919596   3.092  -0.337   5.467  1.1099  0.6824  0.6578
  173SLPC   H9X19597   3.051  -0.426   5.519 -0.2334 -0.4549 -2.1670
  173SLPC   H9Y19598   3.194  -0.371   5.436  1.0637  0.0786  1.1464
  173SLPC  C31019599   2.999  -0.320   5.347 -0.8766  0.0004  0.1930
  173SLPC  H10X19600   2.907  -0.261   5.363 -0.7303  0.5609 -0.9478
  173SLPC  H10Y19601   2.961  -0.418   5.312  0.8961 -0.0131 -1.9236
  173SLPC  C31119602   3.074  -0.238   5.230  0.3124  0.7185  0.2478
  173SLPC  H11X19603   3.161  -0.300   5.202 -0.0781 -0.7078  2.0256
  173SLPC  H11Y19604   3.102  -0.140   5.275 -0.7587  1.8940 -1.4935
  173SLPC  C31219605   2.990  -0.203   5.107 -0.7071 -0.2886  0.2448
  173SLPC  H12X19606   3.014  -0.107   5.056  0.4219 -0.4046  0.5295
  173SLPC  H12Y19607   2.885  -0.191   5.140 -0.7200  0.7793 -0.1237
  173SLPC  C31319608   2.991  -0.313   4.997 -0.1593 -0.0812  0.8936
  173SLPC  H13X19609   2.966  -0.406   5.051  0.3240 -1.1711 -0.6867
  173SLPC  H13Y19610   3.086  -0.339   4.946 -1.2584 -0.8797 -0.8388
  173SLPC  C31419611   2.882  -0.285   4.887  0.6972  0.3777  0.2289
  173SLPC  H14X19612   2.781  -0.276   4.932  0.4494  3.0081 -0.7111
  173SLPC  H14Y19613   2.880  -0.373   4.819  2.3476 -1.0119  1.8810
  173SLPC  C31519614   2.908  -0.167   4.796  1.3701  0.0912  0.5102
  173SLPC  H15X19615   2.994  -0.187   4.729  1.9533  0.3541  1.1678
  173SLPC  H15Y19616   2.929  -0.082   4.864 -0.0593  0.1223  0.9581
  173SLPC  C31619617   2.795  -0.128   4.705  0.6526 -0.0511 -1.0771
  173SLPC  H16X19618   2.837  -0.040   4.653  0.4579  2.4138  2.6116
  173SLPC  H16Y19619   2.713  -0.078   4.760  0.1001 -0.5234 -1.4561
  173SLPC  C31719620   2.748  -0.220   4.595  0.0723 -0.2555 -1.0081
  173SLPC  H17X19621   2.822  -0.302   4.586 -1.8971 -2.2353 -0.1575
  173SLPC  H17Y19622   2.736  -0.175   4.494 -2.5450 -0.3073 -0.7905
  173SLPC  C31819623   2.615  -0.284   4.618 -0.0148 -0.6269  0.5402
  173SLPC  H18X19624   2.592  -0.371   4.552 -1.2739 -0.7144  1.0646
  173SLPC  H18Y19625   2.534  -0.209   4.602  1.6941  0.8636 -1.8005
  173SLPC  H18Z19626   2.616  -0.314   4.725  1.7082 -0.7091  0.5187
  174SLPC     N19627   0.221   6.321   6.799  0.3128 -0.7610 -0.8443
  174SLPC   C1319628   0.237   6.377   6.939 -0.6438  0.0397 -0.2805
  174SLPC  H13A19629   0.143   6.400   6.988  0.4830  3.0156  0.6914
  174SLPC  H13B19630   0.284   6.304   7.003  1.0111 -1.2313 -2.8123
  174SLPC  H13C19631   0.303   6.462   6.940 -0.5615 -0.0189  1.0167
  174SLPC   C1419632   0.142   6.415   6.717  0.1047 -0.0961  0.3320
  174SLPC  H14A19633   0.197   6.508   6.717 -0.1067  0.0334  0.7858
  174SLPC  H14B19634   0.136   6.376   6.617  2.0584 -0.8809  0.4678
  174SLPC  H14C19635   0.041   6.437   6.749  0.7562  3.1699  0.4277
  174SLPC   C1519636   0.129   6.205   6.811  0.3458  0.0315 -0.9143
  174SLPC  H15A19637   0.093   6.173   6.714  1.1880  1.3065 -1.6624
  174SLPC  H15B19638   0.179   6.118   6.852  0.5028 -0.2445 -1.6689
  174SLPC  H15C19639   0.044   6.235   6.871 -0.6080  0.2672 -2.3333
  174SLPC   C1219640   0.356   6.285   6.748 -0.7500  0.2437  0.3587
  174SLPC  H12A19641   0.359   6.293   6.641  1.5038 -0.4697  0.3168
  174SLPC  H12B19642   0.386   6.184   6.772  2.0513  1.5028  2.9367
  174SLPC   C1119643   0.473   6.364   6.805 -0.0927 -0.1717  0.1471
  174SLPC  H11A19644   0.564   6.319   6.761  0.7438  0.9571  0.6727
  174SLPC  H11B19645   0.482   6.335   6.912  2.0238  2.4883  0.8049
  174SLPC     P19646   0.474   6.557   6.630  0.2160 -0.3785  0.3597
  174SLPC   O1319647   0.581   6.653   6.638 -0.4406 -0.6636 -0.5263
  174SLPC   O1419648   0.493   6.457   6.523 -0.2926  0.1074 -0.2428
  174SLPC   O1219649   0.466   6.501   6.771 -0.1944  0.1156  0.9645
  174SLPC   O1119650   0.337   6.633   6.610  0.3026  0.1934  0.7197
  174SLPC    C119651   0.262   6.620   6.491  0.5429 -0.3414  0.5476
  174SLPC    HA19652   0.267   6.519   6.446 -0.9374  0.7961 -2.4819
  174SLPC    HB19653   0.156   6.635   6.520  0.4480 -2.5832  1.5669
  174SLPC    C219654   0.299   6.729   6.388  0.2433  0.2163  0.4639
  174SLPC    HS19655   0.356   6.813   6.433  0.0833  1.0069 -0.7485
  174SLPC   O2119656   0.182   6.780   6.328  0.1554  0.0418  0.4351
  174SLPC   C2119657   0.191   6.895   6.265  0.8258 -0.6336 -0.8973
  174SLPC   O2219658   0.286   6.970   6.258 -0.3810 -0.0070  0.6877
  174SLPC   C2219659   0.056   6.922   6.195 -0.3527 -0.1580  0.4288
  174SLPC   H2R19660  -0.023   6.886   6.263 -0.4996 -1.3765 -0.3625
  174SLPC   H2S19661   0.047   7.032   6.183  3.0333  0.1419 -0.5128
  174SLPC    C319662   0.408   6.668   6.288 -0.2266 -0.5157 -0.7447
  174SLPC    HX19663   0.500   6.652   6.346 -0.6416 -1.4288 -0.3101
  174SLPC    HY19664   0.418   6.743   6.206 -0.9377  0.3958 -0.0144
  174SLPC   O3119665   0.355   6.546   6.234  0.4660 -0.0566  0.4723
  174SLPC   C3119666   0.355   6.535   6.101  0.6571 -0.2646 -0.0137
  174SLPC   O3219667   0.417   6.605   6.023  0.3196 -0.1003 -0.6791
  174SLPC   C3219668   0.259   6.416   6.063  0.4055  0.3142 -0.2347
  174SLPC   H2X19669   0.158   6.444   6.100 -0.5892 -2.6685 -0.4880
  174SLPC   H2Y19670   0.302   6.327   6.114  0.3284 -0.4860 -1.5244
  174SLPC   C2319671   0.035   6.852   6.067  0.5951  0.5790 -0.1249
  174SLPC   H3R19672  -0.064   6.877   6.024  0.7433 -2.6818 -2.7557
  174SLPC   H3S19673   0.036   6.742   6.080 -0.2236  0.7176  1.3024
  174SLPC   C2419674   0.141   6.889   5.959  0.5868  0.0708 -0.1490
  174SLPC   H4R19675   0.226   6.820   5.976 -0.6699 -1.6236 -0.4747
  174SLPC   H4S19676   0.176   6.994   5.952  0.1537  0.5091  2.9012
  174SLPC   C2519677   0.094   6.858   5.817  0.3141  0.1163  0.9126
  174SLPC   H5R19678   0.006   6.917   5.785 -0.1799 -1.4105 -0.7533
  174SLPC   H5S19679   0.063   6.752   5.803  0.7233 -0.1856  2.1654
  174SLPC   C2619680   0.210   6.894   5.724  0.7419  0.0549  0.5197
  174SLPC   H6R19681   0.297   6.826   5.742  0.4084 -0.7370 -0.6719
  174SLPC   H6S19682   0.247   6.997   5.739  0.6485  0.2412 -0.4433
  174SLPC   C2719683   0.185   6.852   5.575  0.2892  0.0476 -0.8854
  174SLPC   H7R19684   0.104   6.910   5.526  0.0860 -1.2428 -2.1427
  174SLPC   H7S19685   0.161   6.744   5.573  2.3067 -0.4469 -1.1014
  174SLPC   C2819686   0.316   6.862   5.501  0.7171 -0.4850 -0.8403
  174SLPC   H8R19687   0.287   6.821   5.401 -2.7105  0.7507 -0.4691
  174SLPC   H8S19688   0.391   6.800   5.556 -1.1913 -0.9171  1.4182
  174SLPC   C2919689   0.382   6.994   5.480  0.5586  0.1163  0.0485
  174SLPC   H9R19690   0.420   7.051   5.567  0.6749  0.2794 -0.1076
  174SLPC  C21019691   0.409   7.044   5.362 -0.0747 -0.2001 -0.0714
  174SLPC  H10R19692   0.454   7.143   5.347  0.9753 -0.7664 -0.8145
  174SLPC  C21119693   0.359   6.987   5.224 -0.9418 -0.1681 -0.0780
  174SLPC  H11R19694   0.254   6.954   5.232 -0.6533 -1.6679 -1.8767
  174SLPC  H11S19695   0.409   6.890   5.204 -0.2663  0.4529 -1.5383
  174SLPC  C21219696   0.371   7.095   5.118  0.2792 -0.0582  0.1566
  174SLPC  H12R19697   0.394   7.199   5.146 -0.1141 -0.5730  2.5812
  174SLPC  C21319698   0.354   7.078   4.988 -0.1071  0.1070 -0.0317
  174SLPC  H13R19699   0.358   7.161   4.916  2.1219  0.7962  0.8098
  174SLPC  C21419700   0.316   6.951   4.919 -0.3489  0.4389 -0.1593
  174SLPC  H14R19701   0.274   6.876   4.989  0.0448 -0.9860 -1.4063
  174SLPC  H14S19702   0.410   6.904   4.882 -0.5299 -2.5365  2.6734
  174SLPC  C21519703   0.216   6.968   4.806 -0.1294 -0.4364  0.1641
  174SLPC  H15R19704   0.199   6.871   4.757 -0.3561 -0.0578 -0.5182
  174SLPC  H15S19705   0.256   7.039   4.730  0.5367 -0.4494  0.4983
  174SLPC  C21619706   0.076   7.033   4.851  0.1426 -0.1972 -0.3575
  174SLPC  H16R19707   0.107   7.132   4.892 -0.0689  0.5197 -1.8274
  174SLPC  H16S19708   0.030   6.967   4.927  2.6334 -1.0866  0.4738
  174SLPC  C21719709  -0.019   7.049   4.732 -0.2761 -0.4889  0.3615
  174SLPC  H17R19710   0.044   7.105   4.660  0.0874  0.5549  1.4467
  174SLPC  H17S19711  -0.099   7.116   4.771 -1.0253 -2.5887  2.7132
  174SLPC  C21819712  -0.073   6.918   4.670 -0.4646  0.1776 -0.0611
  174SLPC  H18R19713  -0.135   6.865   4.745  0.6427 -2.1167 -0.6808
  174SLPC  H18S19714   0.011   6.856   4.632 -0.9855 -0.3644 -0.3559
  174SLPC  H18T19715  -0.139   6.933   4.581 -0.2593 -1.8593 -0.6022
  174SLPC   C3319716   0.250   6.407   5.907  0.0270  0.2205 -0.4565
  174SLPC   H3X19717   0.201   6.308   5.897  0.5764 -0.2693  1.3301
  174SLPC   H3Y19718   0.351   6.408   5.859 -0.6749 -1.2830 -2.0950
  174SLPC   C3419719   0.169   6.517   5.847 -0.5591 -0.2797  0.0486
  174SLPC   H4X19720   0.236   6.604   5.863 -0.2440 -0.6659  0.8940
  174SLPC   H4Y19721   0.069   6.529   5.893 -0.8477 -0.3728 -0.5411
  174SLPC   C3519722   0.148   6.496   5.702 -0.3046  0.1566 -0.8444
  174SLPC   H5X19723   0.250   6.489   5.657 -0.3474 -1.0591 -0.7905
  174SLPC   H5Y19724   0.094   6.582   5.657  1.6936  1.2664 -1.2655
  174SLPC   C3619725   0.074   6.370   5.666 -0.3275 -0.0325 -0.2151
  174SLPC   H6X19726  -0.012   6.353   5.734  0.4843 -0.5127  0.7081
  174SLPC   H6Y19727   0.152   6.292   5.679 -1.1868 -0.5911  1.8756
  174SLPC   C3719728   0.021   6.375   5.517  0.4336  0.3949 -0.2685
  174SLPC   H7X19729  -0.044   6.464   5.508  1.0754  0.9286  0.2606
  174SLPC   H7Y19730  -0.037   6.284   5.491  1.6481 -0.2667 -0.7595
  174SLPC   C3819731   0.137   6.370   5.420 -0.1438  0.1471 -0.7095
  174SLPC   H8X19732   0.189   6.272   5.428 -0.7171 -0.0438  1.0223
  174SLPC   H8Y19733   0.209   6.445   5.460 -0.0598  0.5436 -1.5726
  174SLPC   C3919734   0.109   6.391   5.274  0.4243  0.0742  0.1097
  174SLPC   H9X19735   0.008   6.348   5.257  0.1609  0.2938  1.0571
  174SLPC   H9Y19736   0.192   6.345   5.215  0.1509  1.5190 -1.4950
  174SLPC  C31019737   0.119   6.540   5.240  0.8954 -0.3680  0.4103
  174SLPC  H10X19738   0.224   6.571   5.224  1.0112  0.0019  1.7885
  174SLPC  H10Y19739   0.073   6.602   5.320 -0.1135 -0.9569  0.3002
  174SLPC  C31119740   0.027   6.577   5.123 -0.5732 -0.0906 -0.5689
  174SLPC  H11X19741   0.020   6.688   5.129  0.5957 -0.0243 -0.1329
  174SLPC  H11Y19742  -0.076   6.535   5.118 -1.4397  1.7722  0.5678
  174SLPC  C31219743   0.108   6.543   4.988  0.5078 -0.3068  0.2498
  174SLPC  H12X19744   0.113   6.432   4.982 -1.5988 -0.3737 -1.5059
  174SLPC  H12Y19745   0.205   6.598   4.991  0.0646  0.4341  1.3186
  174SLPC  C31319746   0.028   6.587   4.872 -0.0074 -0.2643  0.5407
  174SLPC  H13X19747  -0.005   6.692   4.883 -3.7613 -0.7834 -3.0333
  174SLPC  H13Y19748  -0.066   6.528   4.880 -0.1834 -0.6477 -2.7306
  174SLPC  C31419749   0.094   6.556   4.734  0.3098 -0.1870 -0.1975
  174SLPC  H14X19750   0.200   6.530   4.755 -0.1195 -1.9836 -0.0911
  174SLPC  H14Y19751   0.100   6.653   4.681 -1.8856  0.1974  0.1700
  174SLPC  C31519752   0.023   6.453   4.655 -0.2958 -0.4925  0.6467
  174SLPC  H15X19753  -0.084   6.480   4.643 -0.4182 -1.1032  0.3457
  174SLPC  H15Y19754   0.023   6.372   4.731 -1.5985 -1.3061 -0.1916
  174SLPC  C31619755   0.103   6.427   4.523  1.3747  0.9928 -0.7115
  174SLPC  H16X19756   0.208   6.463   4.521  1.7181 -0.0185 -1.8171
  174SLPC  H16Y19757   0.059   6.484   4.439  1.0324 -2.8190 -3.3869
  174SLPC  C31719758   0.099   6.275   4.502 -0.3385 -0.3904  0.0871
  174SLPC  H17X19759  -0.003   6.239   4.475 -0.8775  1.3885 -0.3948
  174SLPC  H17Y19760   0.130   6.215   4.590 -0.6987 -0.4881  0.1507
  174SLPC  C31819761   0.192   6.234   4.389  0.0628 -0.0747  0.0433
  174SLPC  H18X19762   0.171   6.132   4.352  1.4145 -0.8022  1.2078
  174SLPC  H18Y19763   0.299   6.248   4.413 -0.0841 -0.4117  0.9341
  174SLPC  H18Z19764   0.181   6.305   4.304  2.1006  2.5150  1.7845
  175SLPC     N19765   2.237   1.864   6.664 -0.1083 -0.1959 -0.3730
  175SLPC   C1319766   2.303   1.731   6.649 -0.6206  0.1999  0.1411
  175SLPC  H13A19767   2.240   1.643   6.650 -0.0405 -0.3294  3.5572
  175SLPC  H13B19768   2.362   1.722   6.559 -2.0030  1.1691 -0.8958
  175SLPC  H13C19769   2.364   1.716   6.738 -0.5568  0.5260  0.1541
  175SLPC   C1419770   2.342   1.960   6.698  0.7491  0.6588 -0.2120
  175SLPC  H14A19771   2.419   1.952   6.623 -0.4287  1.1225 -1.5218
  175SLPC  H14B19772   2.297   2.057   6.715  0.1358  0.3090  0.2026
  175SLPC  H14C19773   2.401   1.933   6.784 -0.0217  1.2417  0.5101
  175SLPC   C1519774   2.149   1.865   6.781  0.8113 -0.7205 -0.7065
  175SLPC  H15A19775   2.061   1.804   6.766 -1.5013  2.2201 -0.0498
  175SLPC  H15B19776   2.209   1.834   6.864  2.4575  0.4135 -1.4156
  175SLPC  H15C19777   2.105   1.961   6.805 -1.6859 -1.7456 -0.8637
  175SLPC   C1219778   2.160   1.903   6.548  0.0382 -0.5073  0.4808
  175SLPC  H12A19779   2.238   1.921   6.476 -1.0337  1.7510 -0.2105
  175SLPC  H12B19780   2.116   1.999   6.571  0.1111  0.4158 -2.8115
  175SLPC   C1119781   2.060   1.799   6.493 -0.1868 -0.0833 -0.2105
  175SLPC  H11A19782   2.103   1.696   6.491  3.2147  1.1166  1.8711
  175SLPC  H11B19783   2.033   1.828   6.390 -2.4215 -0.0021  0.3457
  175SLPC     P19784   1.843   1.905   6.593 -0.1520 -0.1945  0.3687
  175SLPC   O1319785   1.792   1.902   6.728  0.5860 -1.1515  0.6902
  175SLPC   O1419786   1.895   2.031   6.540 -0.4945 -1.2034 -0.9505
  175SLPC   O1219787   1.944   1.789   6.585  0.2003  0.0185  0.9274
  175SLPC   O1119788   1.735   1.856   6.490  0.4890  0.0499 -0.2403
  175SLPC    C119789   1.702   1.712   6.469 -0.5311 -0.4492 -0.3396
  175SLPC    HA19790   1.751   1.660   6.555  0.0660  1.8472  0.7891
  175SLPC    HB19791   1.592   1.701   6.484 -0.4738  1.5391  2.6032
  175SLPC    C219792   1.759   1.660   6.335  0.0753 -0.1084  1.3571
  175SLPC    HS19793   1.868   1.643   6.349  0.3322 -1.5494 -1.4351
  175SLPC   O2119794   1.721   1.758   6.234  0.1923  0.1411  0.1157
  175SLPC   C2119795   1.810   1.796   6.146  0.1591 -0.1158 -0.4081
  175SLPC   O2219796   1.916   1.740   6.117 -0.4965  0.0640  0.4805
  175SLPC   C2219797   1.760   1.921   6.076 -0.1788  0.3067 -0.0331
  175SLPC   H2R19798   1.649   1.920   6.071 -0.4631  3.0415  2.7755
  175SLPC   H2S19799   1.788   2.010   6.135 -0.5318  0.7105 -0.4655
  175SLPC    C319800   1.707   1.520   6.295  0.5655 -0.1512 -0.1242
  175SLPC    HX19801   1.597   1.530   6.306  0.2759 -1.2750 -1.6686
  175SLPC    HY19802   1.726   1.446   6.376 -0.5625  0.6186  0.8750
  175SLPC   O3119803   1.747   1.464   6.171  0.0387  0.3446  0.0797
  175SLPC   C3119804   1.672   1.482   6.065  0.3651 -0.1419 -0.7834
  175SLPC   O3219805   1.557   1.536   6.069 -0.2338 -0.8343 -0.0028
  175SLPC   C3219806   1.744   1.440   5.938  0.3686 -0.0662  0.4180
  175SLPC   H2X19807   1.755   1.329   5.939 -1.0069 -0.2304  1.3543
  175SLPC   H2Y19808   1.840   1.493   5.924 -0.4972  1.6007  0.5211
  175SLPC   C2319809   1.814   1.955   5.935  0.0901  0.1549  0.8578
  175SLPC   H3R19810   1.922   1.936   5.923 -0.1381 -0.7427  0.1457
  175SLPC   H3S19811   1.799   2.063   5.914  0.4438  0.3752  1.7108
  175SLPC   C2419812   1.738   1.867   5.823  0.2673 -0.2482 -0.1597
  175SLPC   H4R19813   1.630   1.890   5.831  0.2823 -0.4724  0.9388
  175SLPC   H4S19814   1.771   1.765   5.852  2.7655  0.7014  0.6519
  175SLPC   C2519815   1.793   1.893   5.684  0.5312  0.1296 -0.4444
  175SLPC   H5R19816   1.892   1.843   5.679  0.5702 -0.6262  3.8837
  175SLPC   H5S19817   1.807   2.003   5.675 -0.6404  0.4422  1.1053
  175SLPC   C2619818   1.691   1.838   5.582 -0.2271  0.4400  0.0771
  175SLPC   H6R19819   1.587   1.876   5.595 -1.3309 -1.1825 -2.9286
  175SLPC   H6S19820   1.679   1.729   5.600 -1.9713  0.7341  0.9142
  175SLPC   C2719821   1.735   1.876   5.446 -0.1909 -0.7837 -0.5142
  175SLPC   H7R19822   1.843   1.853   5.431 -0.4252 -0.2571 -4.0297
  175SLPC   H7S19823   1.717   1.985   5.433 -1.1936 -0.8356  0.3923
  175SLPC   C2819824   1.663   1.799   5.336 -0.2506  0.1630 -0.7088
  175SLPC   H8R19825   1.555   1.817   5.355  0.3706  1.1781  2.5215
  175SLPC   H8S19826   1.686   1.690   5.340  2.0354  0.5723 -1.1880
  175SLPC   C2919827   1.731   1.853   5.213  0.3888 -0.6330  0.1434
  175SLPC   H9R19828   1.840   1.858   5.222  0.9243 -0.9588 -4.2173
  175SLPC  C21019829   1.672   1.902   5.104 -0.1643  0.1498  0.6449
  175SLPC  H10R19830   1.735   1.940   5.023  1.3975  0.2848  1.8637
  175SLPC  C21119831   1.523   1.917   5.076 -0.4614  0.8302  0.3652
  175SLPC  H11R19832   1.489   2.015   5.036 -1.3983 -0.1532 -1.3546
  175SLPC  H11S19833   1.472   1.894   5.172 -1.2723 -1.9736 -0.6461
  175SLPC  C21219834   1.473   1.823   4.965  0.7752  0.3445 -0.4946
  175SLPC  H12R19835   1.412   1.738   4.998 -0.2970  0.4518 -2.1008
  175SLPC  C21319836   1.490   1.833   4.832 -0.3635  0.0718  0.4074
  175SLPC  H13R19837   1.449   1.752   4.770 -0.0069 -0.3697  0.7400
  175SLPC  C21419838   1.558   1.948   4.764  0.1662  0.0628  0.4240
  175SLPC  H14R19839   1.656   1.911   4.725  1.1299 -0.5622  3.1648
  175SLPC  H14S19840   1.585   2.030   4.835  0.8396  0.0602  0.1785
  175SLPC  C21519841   1.485   1.992   4.637 -0.4534  0.2219 -0.1348
  175SLPC  H15R19842   1.375   2.008   4.647 -0.0016  2.4070  2.3366
  175SLPC  H15S19843   1.501   1.909   4.565  0.0825  0.5834 -0.4434
  175SLPC  C21619844   1.547   2.121   4.590  0.3463 -0.2544  0.8801
  175SLPC  H16R19845   1.658   2.120   4.583  0.3735 -1.1500  1.2795
  175SLPC  H16S19846   1.512   2.200   4.660 -1.6416  0.1465 -0.4637
  175SLPC  C21719847   1.484   2.161   4.450  0.0765  0.1297  0.1513
  175SLPC  H17R19848   1.374   2.164   4.468  0.4308  0.0952  2.7951
  175SLPC  H17S19849   1.488   2.078   4.376 -1.3605 -0.9109  1.1915
  175SLPC  C21819850   1.537   2.290   4.397 -0.0233 -0.2185 -0.9423
  175SLPC  H18R19851   1.648   2.281   4.406 -0.1671 -0.1928  1.8595
  175SLPC  H18S19852   1.509   2.363   4.476  0.1848  0.8242 -1.8073
  175SLPC  H18T19853   1.500   2.325   4.299 -2.4663 -1.3511 -0.4994
  175SLPC   C3319854   1.662   1.478   5.809 -0.0832  0.2556 -0.2642
  175SLPC   H3X19855   1.662   1.589   5.800 -0.3955  0.2646 -0.1516
  175SLPC   H3Y19856   1.559   1.435   5.810  0.1607 -0.3523  1.1442
  175SLPC   C3419857   1.735   1.419   5.685  0.2905  0.0742 -0.5468
  175SLPC   H4X19858   1.754   1.314   5.716  1.4844  0.4461  0.0651
  175SLPC   H4Y19859   1.830   1.475   5.672 -0.5555  1.9043  0.7439
  175SLPC   C3519860   1.655   1.427   5.554 -0.4193 -0.5378 -0.1552
  175SLPC   H5X19861   1.627   1.531   5.525 -1.2181 -0.9837 -1.0287
  175SLPC   H5Y19862   1.557   1.378   5.571  0.3745 -1.7626  1.1727
  175SLPC   C3619863   1.732   1.371   5.437  0.5355 -0.4053 -0.0088
  175SLPC   H6X19864   1.743   1.260   5.435 -1.4754 -0.6893 -3.8426
  175SLPC   H6Y19865   1.824   1.432   5.426 -0.1278  0.8800  1.2497
  175SLPC   C3719866   1.646   1.401   5.305 -0.0942  0.1575 -0.7484
  175SLPC   H7X19867   1.621   1.509   5.304  0.9424  0.5088  1.9947
  175SLPC   H7Y19868   1.553   1.340   5.310  1.1620 -1.8427 -0.7417
  175SLPC   C3819869   1.707   1.347   5.175 -0.0277 -0.3777  0.2957
  175SLPC   H8X19870   1.690   1.238   5.162  0.2806 -0.4989  0.8760
  175SLPC   H8Y19871   1.817   1.366   5.178 -0.3189  1.5997 -0.2969
  175SLPC   C3919872   1.656   1.432   5.057  0.4981  0.2717 -0.3362
  175SLPC   H9X19873   1.683   1.536   5.086 -0.0794  0.1679  0.6400
  175SLPC   H9Y19874   1.546   1.434   5.046  0.6653 -0.8298 -2.7080
  175SLPC  C31019875   1.724   1.396   4.933 -0.7427  0.1919  0.0610
  175SLPC  H10X19876   1.717   1.286   4.925  2.6961 -0.2399  1.4004
  175SLPC  H10Y19877   1.833   1.416   4.944 -0.7219  0.0326  0.1424
  175SLPC  C31119878   1.666   1.465   4.803  0.7739 -0.0123 -0.6912
  175SLPC  H11X19879   1.653   1.570   4.836  0.8786 -0.0101 -0.6572
  175SLPC  H11Y19880   1.567   1.424   4.772  0.7353  0.1175 -0.7393
  175SLPC  C31219881   1.775   1.472   4.693 -0.3214  0.1414  0.0976
  175SLPC  H12X19882   1.787   1.370   4.651  1.0506 -0.3296  1.5502
  175SLPC  H12Y19883   1.870   1.505   4.740 -0.4316 -0.4692  0.7611
  175SLPC  C31319884   1.746   1.583   4.590  0.1541  0.5794 -0.2598
  175SLPC  H13X19885   1.777   1.681   4.632 -0.6319 -1.1416  5.0981
  175SLPC  H13Y19886   1.635   1.580   4.586  0.0989 -2.0722  0.9633
  175SLPC  C31419887   1.813   1.575   4.454 -0.2150 -0.2092  0.5448
  175SLPC  H14X19888   1.806   1.477   4.402 -0.3991  0.8716 -1.5436
  175SLPC  H14Y19889   1.923   1.581   4.473  0.0342 -2.7802  0.3461
  175SLPC  C31519890   1.760   1.675   4.353  0.1421  0.1561 -0.0918
  175SLPC  H15X19891   1.759   1.778   4.395  1.3612  1.0668 -2.1243
  175SLPC  H15Y19892   1.654   1.651   4.334  0.6754 -1.5450 -1.1400
  175SLPC  C31619893   1.824   1.669   4.215 -0.0538 -0.1872  0.3801
  175SLPC  H16X19894   1.772   1.750   4.159 -0.2667  0.4126  1.4158
  175SLPC  H16Y19895   1.799   1.571   4.170 -0.1664  0.5587 -1.2353
  175SLPC  C31719896   1.974   1.695   4.217  0.3761  0.1377 -0.0136
  175SLPC  H17X19897   2.038   1.630   4.280 -1.5523  1.5276  3.6891
  175SLPC  H17Y19898   1.996   1.797   4.255 -1.0256  0.4299  0.0616
  175SLPC  C31819899   2.028   1.694   4.077 -0.1664  0.4616  0.2643
  175SLPC  H18X19900   1.965   1.754   4.008 -0.6182 -0.7988 -0.4507
  175SLPC  H18Y19901   2.030   1.588   4.045 -0.1780  0.1344  1.3176
  175SLPC  H18Z19902   2.130   1.737   4.070  0.4762 -1.1907 -1.1495
  176SLPC     N19903   3.367   0.614   6.762  0.1502  0.2141  0.1003
  176SLPC   C1319904   3.481   0.599   6.857 -0.3073  0.0830 -0.1507
  176SLPC  H13A19905   3.533   0.507   6.832 -1.6363 -0.6230 -0.4399
  176SLPC  H13B19906   3.550   0.682   6.855  1.3069 -1.2161 -0.5098
  176SLPC  H13C19907   3.444   0.584   6.957 -0.3169 -3.1675 -0.5175
  176SLPC   C1419908   3.287   0.735   6.796  0.2641  0.1912 -0.1913
  176SLPC  H14A19909   3.240   0.730   6.893  0.3526  1.0125 -0.1018
  176SLPC  H14B19910   3.348   0.823   6.803 -0.0002  0.4216 -0.7368
  176SLPC  H14C19911   3.214   0.745   6.717 -0.7805 -1.8292  0.4279
  176SLPC   C1519912   3.287   0.490   6.785 -0.1547  0.5049 -0.3876
  176SLPC  H15A19913   3.250   0.485   6.886  1.3487  2.4826  0.3171
  176SLPC  H15B19914   3.202   0.485   6.718  0.9799  0.6272 -1.8821
  176SLPC  H15C19915   3.338   0.397   6.765 -0.9725  0.0507 -0.4141
  176SLPC   C1219916   3.412   0.608   6.617  0.2950 -0.6160 -0.3074
  176SLPC  H12A19917   3.469   0.518   6.600  1.5030  0.3268 -1.5198
  176SLPC  H12B19918   3.470   0.697   6.597 -1.7801  0.9876  0.3564
  176SLPC   C1119919   3.306   0.619   6.506  0.5921  0.1837  0.5222
  176SLPC  H11A19920   3.223   0.546   6.519 -0.7213  1.7873  1.5470
  176SLPC  H11B19921   3.361   0.596   6.412  0.3880  0.1350  0.4130
  176SLPC     P19922   3.340   0.863   6.437 -0.2360 -0.0719  0.0648
  176SLPC   O1319923   3.259   0.988   6.450  0.3443 -0.0564 -0.6923
  176SLPC   O1419924   3.470   0.862   6.502 -0.2667  0.7191  0.5467
  176SLPC   O1219925   3.249   0.750   6.493 -0.2987  0.5379 -0.5515
  176SLPC   O1119926   3.352   0.819   6.280 -0.0884 -0.4205 -0.2810
  176SLPC    C119927   3.241   0.813   6.195 -0.2837 -0.4625 -0.0522
  176SLPC    HA19928   3.163   0.758   6.251 -1.9597  2.3169  0.5674
  176SLPC    HB19929   3.204   0.915   6.169 -0.1042 -0.3186  0.2485
  176SLPC    C219930   3.280   0.752   6.052  0.2904  0.2109  0.5650
  176SLPC    HS19931   3.203   0.798   5.986 -1.2308 -0.8204  1.5734
  176SLPC   O2119932   3.261   0.608   6.047  1.0300 -0.3036  0.2044
  176SLPC   C2119933   3.127   0.568   6.046  0.3487  0.2629 -0.2240
  176SLPC   O2219934   3.034   0.646   6.044  0.4187  0.5457  0.3257
  176SLPC   C2219935   3.124   0.421   6.083  0.0428 -0.4139 -0.2101
  176SLPC   H2R19936   3.227   0.379   6.072  0.1888  0.0436 -0.6330
  176SLPC   H2S19937   3.088   0.417   6.188 -0.1251 -1.1534 -0.2885
  176SLPC    C319938   3.420   0.787   5.998 -0.1890 -0.2867  0.1971
  176SLPC    HX19939   3.491   0.741   6.070  1.5795  0.8225 -0.7586
  176SLPC    HY19940   3.430   0.898   5.994 -0.6607 -0.2763 -1.1835
  176SLPC   O3119941   3.434   0.746   5.857  0.2391  0.4660 -0.2456
  176SLPC   C3119942   3.501   0.642   5.844 -0.0333  0.2626 -0.0543
  176SLPC   O3219943   3.571   0.580   5.925  0.2823 -0.0150  0.2689
  176SLPC   C3219944   3.483   0.588   5.703 -0.0820 -0.7757 -0.4931
  176SLPC   H2X19945   3.387   0.534   5.716 -0.8400  0.6669  0.0403
  176SLPC   H2Y19946   3.567   0.521   5.673  0.2106  0.0200 -1.5354
  176SLPC   C2319947   3.019   0.340   5.997 -0.4559 -0.1614 -0.1850
  176SLPC   H3R19948   2.915   0.371   6.020 -0.8651 -2.0408  0.7008
  176SLPC   H3S19949   3.031   0.236   6.034 -1.7201 -0.2908 -0.1153
  176SLPC   C2419950   3.047   0.335   5.843  0.4662 -0.2057 -0.3983
  176SLPC   H4R19951   3.035   0.435   5.795  0.6193  0.7017  1.3602
  176SLPC   H4S19952   2.975   0.272   5.785 -2.8307  1.8844  1.1121
  176SLPC   C2519953   3.188   0.283   5.815 -0.3200 -0.2181  0.5048
  176SLPC   H5R19954   3.191   0.180   5.855 -0.2028 -0.2190  0.4953
  176SLPC   H5S19955   3.266   0.337   5.873 -1.1505  1.1414  0.4112
  176SLPC   C2619956   3.226   0.293   5.666 -0.3362  0.3280  0.1055
  176SLPC   H6R19957   3.330   0.253   5.656 -0.3975  0.0963  0.3765
  176SLPC   H6S19958   3.236   0.399   5.635  1.8518  0.1714  0.0592
  176SLPC   C2719959   3.141   0.211   5.562 -0.2388  0.0486 -0.3882
  176SLPC   H7R19960   3.032   0.229   5.576 -0.0019  1.6441 -0.4989
  176SLPC   H7S19961   3.164   0.106   5.590  1.0925  0.4026 -0.1125
  176SLPC   C2819962   3.196   0.232   5.427 -0.1365  0.8119  0.3855
  176SLPC   H8R19963   3.303   0.204   5.433  0.0232  1.1508 -0.6737
  176SLPC   H8S19964   3.199   0.337   5.390  1.3145 -0.2062 -2.7156
  176SLPC   C2919965   3.118   0.150   5.328 -0.7146 -0.2207  1.0074
  176SLPC   H9R19966   3.026   0.105   5.367 -0.5438 -1.1474  0.3868
  176SLPC  C21019967   3.140   0.124   5.195  0.1890  0.1065  0.4009
  176SLPC  H10R19968   3.078   0.058   5.133  2.6545  1.6164 -4.0712
  176SLPC  C21119969   3.263   0.175   5.125  0.5133  0.0192  0.5850
  176SLPC  H11R19970   3.323   0.082   5.119 -0.6165 -0.6259 -2.1341
  176SLPC  H11S19971   3.324   0.239   5.192 -1.8927 -2.0984  5.2486
  176SLPC  C21219972   3.246   0.226   4.981 -0.7894 -0.0614  0.0729
  176SLPC  H12R19973   3.237   0.335   4.968 -0.0098 -0.1696 -1.7203
  176SLPC  C21319974   3.224   0.146   4.875 -0.1204 -0.6738  0.3890
  176SLPC  H13R19975   3.234   0.194   4.777  0.1523  1.2067  1.3013
  176SLPC  C21419976   3.224  -0.002   4.878 -0.2878  0.0782  0.4191
  176SLPC  H14R19977   3.127  -0.039   4.837 -0.4546  1.3629 -0.4017
  176SLPC  H14S19978   3.228  -0.047   4.979 -2.3929 -2.0938 -0.3472
  176SLPC  C21519979   3.328  -0.076   4.798 -0.3259 -0.5431  0.1057
  176SLPC  H15R19980   3.308  -0.184   4.816 -3.5497  0.0682  0.8630
  176SLPC  H15S19981   3.424  -0.052   4.850  1.0398  1.1872 -2.8891
  176SLPC  C21619982   3.341  -0.051   4.645  0.1668  0.3387  0.2871
  176SLPC  H16R19983   3.424  -0.110   4.600 -0.3829  1.0828 -1.7984
  176SLPC  H16S19984   3.366   0.055   4.629 -0.5582  0.8728  2.3756
  176SLPC  C21719985   3.215  -0.090   4.567  0.0658  0.0728 -0.3506
  176SLPC  H17R19986   3.135  -0.022   4.603 -0.1174 -0.0123 -0.5923
  176SLPC  H17S19987   3.179  -0.193   4.587 -0.1682  0.3345  0.6266
  176SLPC  C21819988   3.225  -0.085   4.412  0.4684 -0.0719 -0.0799
  176SLPC  H18R19989   3.237   0.022   4.386  0.5472  0.3133  1.4505
  176SLPC  H18S19990   3.133  -0.123   4.363 -0.0945 -0.6068  1.3346
  176SLPC  H18T19991   3.321  -0.125   4.373  0.9754 -1.6806  2.5844
  176SLPC   C3319992   3.466   0.696   5.589  0.0994 -0.3179 -0.3387
  176SLPC   H3X19993   3.566   0.722   5.549  0.0816  2.6139  1.1941
  176SLPC   H3Y19994   3.419   0.792   5.623 -0.3902  0.0180 -1.9018
  176SLPC   C3419995   3.382   0.642   5.468 -0.0434 -0.0576  0.0019
  176SLPC   H4X19996   3.278   0.631   5.506  0.2316  1.3945  1.2832
  176SLPC   H4Y19997   3.401   0.533   5.460  1.4903  0.0837  1.1903
  176SLPC   C3519998   3.399   0.707   5.334  0.6019 -0.1125  0.0805
  176SLPC   H5X19999   3.495   0.691   5.281 -0.3133  0.6713 -1.9437
  176SLPC   H5Y20000   3.391   0.815   5.359  3.3061  0.4918 -1.3355
  176SLPC   C3620001   3.297   0.660   5.235  0.1517  0.1202  0.0251
  176SLPC   H6X20002   3.193   0.692   5.259  1.0792  2.3449  1.4105
  176SLPC   H6Y20003   3.296   0.551   5.212  1.2129  0.5906 -2.5659
  176SLPC   C3720004   3.322   0.736   5.102  0.4602 -0.2014 -0.4783
  176SLPC   H7X20005   3.429   0.735   5.073  0.0384  0.9547 -2.2083
  176SLPC   H7Y20006   3.291   0.843   5.109  1.1878 -0.0250  0.2290
  176SLPC   C3820007   3.245   0.665   4.990 -0.2935  0.2218 -0.8324
  176SLPC   H8X20008   3.138   0.660   5.018  0.5377 -1.7328  2.5015
  176SLPC   H8Y20009   3.271   0.557   4.981  2.2494  0.8411 -2.1711
  176SLPC   C3920010   3.274   0.726   4.851 -0.3848 -0.1999 -0.5097
  176SLPC   H9X20011   3.372   0.684   4.818  1.7917  4.2482 -0.5147
  176SLPC   H9Y20012   3.290   0.836   4.857  0.0675 -0.3105  0.5609
  176SLPC  C31020013   3.174   0.684   4.753 -0.1939  0.1250  0.4567
  176SLPC  H10X20014   3.069   0.705   4.784  0.0346  2.0645  0.0430
  176SLPC  H10Y20015   3.180   0.574   4.745  1.9922  0.3352 -2.2641
  176SLPC  C31120016   3.201   0.753   4.615  0.0899 -0.4772  0.4169
  176SLPC  H11X20017   3.304   0.726   4.585  0.1936 -1.8323  1.8682
  176SLPC  H11Y20018   3.194   0.864   4.613 -0.1810 -0.4789 -1.9260
  176SLPC  C31220019   3.087   0.689   4.519 -0.3932 -0.3978 -0.7784
  176SLPC  H12X20020   2.989   0.702   4.569 -0.3850 -1.3748 -0.4800
  176SLPC  H12Y20021   3.101   0.579   4.517 -1.3441 -0.6691  2.0916
  176SLPC  C31320022   3.083   0.750   4.384  0.4926  0.2235 -0.5680
  176SLPC  H13X20023   3.181   0.739   4.333  0.2740  0.7247 -1.1026
  176SLPC  H13Y20024   3.076   0.860   4.396 -0.1159  0.5279 -3.1449
  176SLPC  C31420025   2.976   0.705   4.284 -0.3305 -0.2823  0.1482
  176SLPC  H14X20026   2.961   0.595   4.291  0.7039 -0.4326  0.0656
  176SLPC  H14Y20027   3.021   0.727   4.185  2.4776  1.9596  1.7553
  176SLPC  C31520028   2.840   0.774   4.311 -0.0869 -0.1939  0.4048
  176SLPC  H15X20029   2.838   0.885   4.314 -3.5793 -0.1546  2.1189
  176SLPC  H15Y20030   2.796   0.741   4.408 -1.0579 -1.0130 -0.2976
  176SLPC  C31620031   2.738   0.741   4.197 -0.2411 -0.6424  0.1775
  176SLPC  H16X20032   2.794   0.747   4.101  0.5189 -0.4125  0.6284
  176SLPC  H16Y20033   2.655   0.815   4.200 -0.7590 -1.1334 -1.1298
  176SLPC  C31720034   2.674   0.599   4.210  0.3014 -0.0125  0.3282
  176SLPC  H17X20035   2.630   0.589   4.312  1.3426  1.9953  1.0499
  176SLPC  H17Y20036   2.757   0.525   4.210  1.3422  0.9229  4.1829
  176SLPC  C31820037   2.561   0.575   4.109  0.4918  0.1084  0.2862
  176SLPC  H18X20038   2.583   0.645   4.026  2.3088 -1.8203 -0.9669
  176SLPC  H18Y20039   2.466   0.603   4.160  0.1866 -1.1202  0.4282
  176SLPC  H18Z20040   2.560   0.476   4.058 -1.4497  0.4499 -0.4177
  177SLPC     N20041   2.853   1.837   6.612  0.3180  0.0137  0.6953
  177SLPC   C1320042   2.974   1.769   6.559  0.0151 -1.1407 -0.8969
  177SLPC  H13A20043   2.957   1.728   6.460 -2.3255  0.1352 -1.0859
  177SLPC  H13B20044   3.060   1.835   6.557 -0.5234 -0.1673  2.3388
  177SLPC  H13C20045   2.995   1.686   6.625  1.8536 -1.9768 -2.4393
  177SLPC   C1420046   2.896   1.904   6.740  1.4906 -0.2961 -0.0615
  177SLPC  H14A20047   2.806   1.956   6.768  2.0306 -0.3803  1.9959
  177SLPC  H14B20048   2.912   1.835   6.822  0.4045 -2.4341 -1.5253
  177SLPC  H14C20049   2.975   1.976   6.728  2.3328 -1.4804 -2.0109
  177SLPC   C1520050   2.749   1.733   6.642  0.4895  0.1662  0.0864
  177SLPC  H15A20051   2.775   1.676   6.730  1.0878  0.2976 -0.0014
  177SLPC  H15B20052   2.659   1.789   6.664  0.3123 -0.4143  0.8744
  177SLPC  H15C20053   2.729   1.668   6.558 -0.9482  0.0851  0.4610
  177SLPC   C1220054   2.799   1.940   6.506 -0.4235 -0.9027 -0.1860
  177SLPC  H12A20055   2.799   1.883   6.414  1.1076  0.0415 -0.7979
  177SLPC  H12B20056   2.866   2.023   6.497 -0.4144 -0.8506  0.3532
  177SLPC   C1120057   2.651   1.989   6.522 -0.1050 -0.6500 -0.0004
  177SLPC  H11A20058   2.633   2.072   6.451  3.0169 -0.1553 -0.3299
  177SLPC  H11B20059   2.646   2.036   6.623  2.4890  0.3812 -0.2906
  177SLPC     P20060   2.539   1.807   6.378 -0.4486 -0.4709  0.1725
  177SLPC   O1320061   2.558   1.658   6.386 -0.3935 -0.4562 -0.3006
  177SLPC   O1420062   2.408   1.853   6.326  0.1369  0.4208  0.2498
  177SLPC   O1220063   2.553   1.880   6.514 -0.0211 -0.4608  0.0896
  177SLPC   O1120064   2.648   1.869   6.280  0.1421  0.3091 -0.7952
  177SLPC    C120065   2.613   1.957   6.175  0.3231  0.7280 -0.8971
  177SLPC    HA20066   2.540   2.036   6.202 -0.9557 -0.5542 -0.4998
  177SLPC    HB20067   2.708   2.001   6.137  0.3356 -0.5115 -2.3999
  177SLPC    C220068   2.569   1.880   6.052 -0.0014 -0.9317  0.1205
  177SLPC    HS20069   2.486   1.812   6.080 -0.3177  0.4279  2.8294
  177SLPC   O2120070   2.685   1.802   6.022  0.0016 -0.2371 -0.2454
  177SLPC   C2120071   2.660   1.683   5.972  0.5134 -0.4229 -0.4214
  177SLPC   O2220072   2.551   1.626   5.968 -0.0373  0.3140  0.3861
  177SLPC   C2220073   2.792   1.628   5.909 -0.2231  0.4113  0.2584
  177SLPC   H2R20074   2.816   1.704   5.831  1.9523  1.3559  1.7722
  177SLPC   H2S20075   2.861   1.630   5.996 -2.7726 -0.9553  2.4624
  177SLPC    C320076   2.528   1.966   5.933  0.0063  0.2677 -0.6424
  177SLPC    HX20077   2.608   2.040   5.913 -0.1745  1.3413  2.1554
  177SLPC    HY20078   2.441   2.027   5.963 -0.8175 -2.0321  2.1927
  177SLPC   O3120079   2.486   1.889   5.824 -0.7880 -0.2085  0.5273
  177SLPC   C3120080   2.366   1.833   5.823  0.3368  0.1977  0.6560
  177SLPC   O3220081   2.288   1.840   5.915 -0.2828 -0.2740  0.1028
  177SLPC   C3220082   2.335   1.771   5.689  0.0971 -0.3033 -0.2774
  177SLPC   H2X20083   2.349   1.661   5.695  0.7493 -0.1362  2.7550
  177SLPC   H2Y20084   2.406   1.807   5.611  1.4577  0.7312  1.3646
  177SLPC   C2320085   2.776   1.486   5.853 -0.0031 -0.4523 -0.8480
  177SLPC   H3R20086   2.731   1.413   5.923  2.5607 -1.5440 -0.2485
  177SLPC   H3S20087   2.875   1.438   5.839 -0.2076 -1.8015  1.7485
  177SLPC   C2420088   2.711   1.475   5.715 -0.1855  0.8126  0.0033
  177SLPC   H4R20089   2.603   1.496   5.728 -0.6195 -1.5435  0.6563
  177SLPC   H4S20090   2.706   1.372   5.676 -1.5435  1.0624 -0.5206
  177SLPC   C2520091   2.751   1.581   5.616 -0.1366  0.9893 -0.1937
  177SLPC   H5R20092   2.862   1.574   5.611  0.0773  2.5581  1.3258
  177SLPC   H5S20093   2.723   1.683   5.649  1.0858  1.0609  0.7308
  177SLPC   C2620094   2.705   1.552   5.470  0.3769  0.1251 -0.5826
  177SLPC   H6R20095   2.731   1.450   5.435 -0.6555  0.6041 -2.9786
  177SLPC   H6S20096   2.763   1.622   5.405 -0.7644 -0.7766 -2.6923
  177SLPC   C2720097   2.555   1.563   5.452 -0.2665  0.6193  0.4838
  177SLPC   H7R20098   2.518   1.663   5.482  0.7076  0.9739  0.5550
  177SLPC   H7S20099   2.499   1.499   5.523 -0.0295  1.2604  1.2549
  177SLPC   C2820100   2.514   1.540   5.303  0.6512 -0.6246  0.1387
  177SLPC   H8R20101   2.584   1.598   5.239  0.9080 -0.6320  0.4051
  177SLPC   H8S20102   2.412   1.582   5.289  1.6741  2.4441  1.0638
  177SLPC   C2920103   2.517   1.398   5.268 -0.6018  0.3211  0.0090
  177SLPC   H9R20104   2.477   1.333   5.347 -0.5198 -1.1562 -1.1187
  177SLPC  C21020105   2.577   1.340   5.163 -0.2044 -0.9398 -0.2994
  177SLPC  H10R20106   2.561   1.232   5.150 -0.0248 -1.1937  1.3818
  177SLPC  C21120107   2.650   1.415   5.052 -0.2590 -0.6964 -0.1567
  177SLPC  H11R20108   2.730   1.477   5.097  0.1460 -1.9822  0.9812
  177SLPC  H11S20109   2.593   1.501   5.012  1.9839  1.1378  0.3869
  177SLPC  C21220110   2.711   1.331   4.948 -0.4313 -0.3044 -0.2450
  177SLPC  H12R20111   2.782   1.257   4.989 -0.2959  0.7181  1.4715
  177SLPC  C21320112   2.690   1.340   4.819  0.1554  0.5101 -0.2759
  177SLPC  H13R20113   2.758   1.294   4.746 -1.8237 -1.5612 -0.9346
  177SLPC  C21420114   2.591   1.428   4.747  0.3193 -0.3219 -0.6218
  177SLPC  H14R20115   2.647   1.499   4.682 -0.5234  1.0815  0.1555
  177SLPC  H14S20116   2.515   1.485   4.804 -0.0491  0.6972 -2.0626
  177SLPC  C21520117   2.508   1.349   4.649 -0.1220  0.1774 -0.1229
  177SLPC  H15R20118   2.466   1.252   4.682 -0.3229 -0.9373 -3.3163
  177SLPC  H15S20119   2.569   1.339   4.557  0.7452 -1.2215  0.5807
  177SLPC  C21620120   2.377   1.426   4.610 -0.2422 -0.3769 -0.4118
  177SLPC  H16R20121   2.311   1.423   4.700  1.3264 -2.3707  0.7643
  177SLPC  H16S20122   2.324   1.364   4.534 -0.9016 -0.6419  0.2431
  177SLPC  C21720123   2.404   1.558   4.543 -0.7839 -0.1932 -0.4544
  177SLPC  H17R20124   2.476   1.539   4.460  0.8187 -3.3319  1.4263
  177SLPC  H17S20125   2.463   1.610   4.621  0.6138 -3.3751  0.8104
  177SLPC  C21820126   2.272   1.633   4.507 -0.1695 -0.3316 -0.2209
  177SLPC  H18R20127   2.221   1.576   4.426  1.2172  1.1737 -2.2620
  177SLPC  H18S20128   2.302   1.735   4.474  2.0704  0.7737  4.4297
  177SLPC  H18T20129   2.202   1.648   4.592 -0.0875  1.0671 -0.3768
  177SLPC   C3320130   2.182   1.808   5.653  0.0742  0.3022 -0.7578
  177SLPC   H3X20131   2.164   1.915   5.626 -0.1302  0.3084 -0.5967
  177SLPC   H3Y20132   2.122   1.775   5.740  0.9770 -0.4543 -0.4131
  177SLPC   C3420133   2.135   1.731   5.531  0.0538 -0.0634  0.2378
  177SLPC   H4X20134   2.024   1.726   5.534  0.1342 -2.1150  2.1176
  177SLPC   H4Y20135   2.154   1.622   5.535 -1.8718 -0.4760 -0.5580
  177SLPC   C3520136   2.176   1.797   5.398  0.9608  0.3614  0.2186
  177SLPC   H5X20137   2.285   1.788   5.377  0.4186 -0.8771 -2.4400
  177SLPC   H5Y20138   2.140   1.902   5.390 -0.8001 -0.2381 -0.0905
  177SLPC   C3620139   2.104   1.713   5.285  0.5795  0.1916 -0.0635
  177SLPC   H6X20140   1.994   1.711   5.301  0.5224  2.3567  0.0169
  177SLPC   H6Y20141   2.132   1.606   5.293  1.3565  0.1683 -2.4055
  177SLPC   C3720142   2.131   1.766   5.144  0.1930 -0.0022  0.1912
  177SLPC   H7X20143   2.240   1.753   5.126  0.0218 -2.3410  0.5844
  177SLPC   H7Y20144   2.125   1.877   5.135  3.9086  0.1463 -3.1087
  177SLPC   C3820145   2.035   1.711   5.036  0.1270  0.0584  0.1401
  177SLPC   H8X20146   1.928   1.718   5.067 -0.1855 -1.0912 -0.6023
  177SLPC   H8Y20147   2.057   1.602   5.035 -1.6858 -0.3557 -1.4748
  177SLPC   C3920148   2.063   1.757   4.891 -0.2019  0.2146  1.0139
  177SLPC   H9X20149   2.052   1.671   4.821 -1.9894  0.2619  1.1861
  177SLPC   H9Y20150   2.171   1.779   4.881 -0.2761  1.1290  2.0348
  177SLPC  C31020151   1.986   1.883   4.857 -0.0899 -0.2138  0.7158
  177SLPC  H10X20152   2.018   1.973   4.914 -1.0324  0.3284  0.4064
  177SLPC  H10Y20153   1.877   1.867   4.867  0.0367 -0.3396  2.1591
  177SLPC  C31120154   2.006   1.913   4.717  0.2540  0.8655  0.3162
  177SLPC  H11X20155   1.960   1.831   4.658 -1.3531  1.2305  1.0088
  177SLPC  H11Y20156   2.115   1.921   4.698  0.4011 -0.2463  0.6295
  177SLPC  C31220157   1.939   2.047   4.678 -0.0105  0.2436 -0.0068
  177SLPC  H12X20158   1.983   2.128   4.741  3.4170  3.4739 -5.7544
  177SLPC  H12Y20159   1.829   2.042   4.695 -0.5858 -0.5409 -3.3666
  177SLPC  C31320160   1.965   2.091   4.536 -1.3120 -0.0581 -0.5094
  177SLPC  H13X20161   1.887   2.031   4.484 -1.7412  0.4446 -0.4488
  177SLPC  H13Y20162   2.067   2.054   4.510 -0.6614  1.4037 -0.0957
  177SLPC  C31420163   1.944   2.238   4.511  0.1787  0.1590 -0.5627
  177SLPC  H14X20164   2.017   2.301   4.565  0.3106  1.2024 -1.9012
  177SLPC  H14Y20165   1.846   2.273   4.548  2.2960  3.0461  2.9266
  177SLPC  C31520166   1.957   2.279   4.358  0.0623 -0.3324 -0.0346
  177SLPC  H15X20167   1.877   2.229   4.300 -0.8408 -0.0138  0.8962
  177SLPC  H15Y20168   2.056   2.248   4.320  0.3760 -1.5795  1.6976
  177SLPC  C31620169   1.935   2.429   4.342 -0.0882  0.1889 -0.1191
  177SLPC  H16X20170   2.026   2.467   4.393  0.1184 -0.4772  0.0181
  177SLPC  H16Y20171   1.839   2.454   4.391  0.0155  1.4872 -0.5294
  177SLPC  C31720172   1.917   2.473   4.194  0.2286 -0.0391 -0.3023
  177SLPC  H17X20173   1.877   2.575   4.178  2.2327  0.5307 -2.3527
  177SLPC  H17Y20174   1.839   2.406   4.153  0.1276 -0.3353  0.3628
  177SLPC  C31820175   2.049   2.473   4.116  0.9360 -0.0871 -0.2550
  177SLPC  H18X20176   2.090   2.370   4.131  1.1831 -0.2109 -1.6380
  177SLPC  H18Y20177   2.124   2.544   4.158 -0.8857  0.9230  1.4597
  177SLPC  H18Z20178   2.027   2.496   4.010  3.8019 -0.2487 -0.9841
  178SLPC     N20179   6.462   6.687   7.039 -0.0758  0.2919  0.5482
  178SLPC   C1320180   6.446   6.772   7.159 -0.2273  0.3432 -0.3286
  178SLPC  H13A20181   6.344   6.748   7.185 -0.4673 -0.3727 -1.8145
  178SLPC  H13B20182   6.510   6.750   7.243  0.2290  1.4819 -0.3589
  178SLPC  H13C20183   6.462   6.877   7.144 -1.4642  0.5603 -0.2169
  178SLPC   C1420184   6.604   6.693   6.998  0.1832  0.0014  0.7712
  178SLPC  H14A20185   6.678   6.657   7.068  1.4402  0.2279 -0.4111
  178SLPC  H14B20186   6.615   6.633   6.909 -0.2247 -0.0171  0.7316
  178SLPC  H14C20187   6.633   6.795   6.980 -0.7851  0.0028 -1.0051
  178SLPC   C1520188   6.374   6.753   6.940 -0.1162  1.0178 -0.6285
  178SLPC  H15A20189   6.271   6.746   6.971  0.5380  3.5281  2.6632
  178SLPC  H15B20190   6.399   6.856   6.917  2.3893  0.4389 -0.7897
  178SLPC  H15C20191   6.390   6.697   6.849 -2.0339 -0.4621 -0.1273
  178SLPC   C1220192   6.425   6.538   7.073  0.2437 -0.1596  0.6907
  178SLPC  H12A20193   6.326   6.548   7.114 -0.7318 -0.3563 -1.5008
  178SLPC  H12B20194   6.487   6.506   7.155  0.7972  0.3762  0.4914
  178SLPC   C1120195   6.419   6.439   6.956 -0.5299  0.6862  0.6477
  178SLPC  H11A20196   6.413   6.334   6.990  0.0709  0.4309 -0.0062
  178SLPC  H11B20197   6.513   6.449   6.898 -1.1081 -0.8810 -0.6359
  178SLPC     P20198   6.306   6.467   6.717 -0.5677 -0.5101  0.1657
  178SLPC   O1320199   6.377   6.586   6.666 -0.0697 -0.3498  0.7379
  178SLPC   O1420200   6.359   6.336   6.670  0.4430  0.8405 -0.1285
  178SLPC   O1220201   6.306   6.476   6.874  0.3603 -0.2018  0.1271
  178SLPC   O1120202   6.149   6.484   6.677 -0.3870 -0.0223 -0.5040
  178SLPC    C120203   6.095   6.391   6.573 -0.1656 -0.2355 -0.1904
  178SLPC    HA20204   6.128   6.293   6.615  1.6551  1.0601  1.6122
  178SLPC    HB20205   5.985   6.383   6.574 -0.0894 -1.8393 -0.8917
  178SLPC    C220206   6.152   6.420   6.428  0.6450  0.5621 -0.1260
  178SLPC    HS20207   6.259   6.445   6.447  0.8528 -1.0569  1.1316
  178SLPC   O2120208   6.080   6.528   6.370  0.3649 -0.1894  0.2752
  178SLPC   C2120209   6.159   6.612   6.300  0.2429  0.3914  0.7546
  178SLPC   O2220210   6.283   6.604   6.296  0.6452 -0.0794 -0.1994
  178SLPC   C2220211   6.083   6.712   6.219  0.2795 -0.2767 -0.1743
  178SLPC   H2R20212   5.988   6.667   6.184 -0.0999 -0.3988  0.9829
  178SLPC   H2S20213   6.050   6.788   6.292  0.3184  0.1509 -0.5993
  178SLPC    C320214   6.153   6.297   6.338  0.1771 -0.3902 -0.1149
  178SLPC    HX20215   6.046   6.266   6.338 -0.7039  2.2501  1.0046
  178SLPC    HY20216   6.218   6.225   6.391  0.1722  0.4799  1.1225
  178SLPC   O3120217   6.203   6.334   6.204  0.2346  0.7136  0.3044
  178SLPC   C3120218   6.334   6.313   6.178 -0.1929  0.4404 -0.3578
  178SLPC   O3220219   6.419   6.278   6.259  0.5101 -0.4581  0.1886
  178SLPC   C3220220   6.357   6.360   6.035  0.5409  0.5002  0.6047
  178SLPC   H2X20221   6.360   6.471   6.031  2.2788  0.4578 -1.7345
  178SLPC   H2Y20222   6.269   6.320   5.980  0.7087 -1.1561  1.4742
  178SLPC   C2320223   6.166   6.784   6.107  0.2516  0.5406  0.4396
  178SLPC   H3R20224   6.270   6.797   6.142  0.1484 -1.3875  1.6668
  178SLPC   H3S20225   6.125   6.886   6.095  0.3190  0.8528  2.4815
  178SLPC   C2420226   6.156   6.709   5.970 -0.6692 -0.2126 -0.2502
  178SLPC   H4R20227   6.180   6.601   5.965  2.9130  0.5059 -2.2146
  178SLPC   H4S20228   6.220   6.762   5.896 -0.2647  1.2950  1.1092
  178SLPC   C2520229   6.014   6.723   5.905  0.1001  0.2885 -1.0473
  178SLPC   H5R20230   5.966   6.822   5.922  0.3109  0.3831 -0.9921
  178SLPC   H5S20231   5.947   6.649   5.954 -0.0223  1.0103 -0.0834
  178SLPC   C2620232   6.009   6.702   5.752 -0.2202 -0.2984 -0.0464
  178SLPC   H6R20233   6.073   6.778   5.703  2.3806 -1.6085  1.1052
  178SLPC   H6S20234   5.901   6.710   5.730 -1.1067  0.9150  3.9016
  178SLPC   C2720235   6.055   6.562   5.717  0.9254 -0.2561  0.5223
  178SLPC   H7R20236   6.021   6.485   5.789 -1.1825  1.6447  1.6944
  178SLPC   H7S20237   6.164   6.551   5.732  1.0473 -2.0155 -1.1671
  178SLPC   C2820238   6.027   6.515   5.574  0.1086  0.1716 -0.2769
  178SLPC   H8R20239   6.071   6.413   5.574  0.0762  0.1567 -0.1903
  178SLPC   H8S20240   6.096   6.568   5.505  1.4658 -0.7664  0.3216
  178SLPC   C2920241   5.881   6.513   5.535  0.2685  0.6420 -0.1378
  178SLPC   H9R20242   5.809   6.538   5.615 -0.7051  1.1904 -1.1512
  178SLPC  C21020243   5.826   6.473   5.418  0.0519 -0.6181  0.8555
  178SLPC  H10R20244   5.717   6.464   5.406 -0.0396  1.3768 -0.0364
  178SLPC  C21120245   5.915   6.441   5.297  0.0156 -1.1690 -0.5870
  178SLPC  H11R20246   6.009   6.411   5.347 -0.4447  0.6769  1.5480
  178SLPC  H11S20247   5.926   6.536   5.239 -3.4619 -0.7854 -0.8933
  178SLPC  C21220248   5.859   6.341   5.196  0.9370  0.2942 -0.1605
  178SLPC  H12R20249   5.797   6.266   5.246  0.3308  1.4761  0.9122
  178SLPC  C21320250   5.874   6.339   5.060  0.5212 -0.9474 -0.5360
  178SLPC  H13R20251   5.828   6.258   5.002  1.4096 -2.1950  0.4388
  178SLPC  C21420252   5.928   6.451   4.973  0.0419 -0.0493  0.4941
  178SLPC  H14R20253   5.931   6.543   5.035 -1.8529  0.3292  0.0821
  178SLPC  H14S20254   5.867   6.463   4.881  2.1374 -0.8324 -1.0637
  178SLPC  C21520255   6.070   6.437   4.916  0.3772  0.1972  0.1677
  178SLPC  H15R20256   6.136   6.417   5.003  1.6360 -0.6490 -0.9322
  178SLPC  H15S20257   6.092   6.531   4.860  0.8303 -1.3860 -2.4918
  178SLPC  C21620258   6.078   6.326   4.813 -0.5386  0.4356  0.3923
  178SLPC  H16R20259   5.979   6.281   4.789  0.2859 -1.2340 -0.0165
  178SLPC  H16S20260   6.145   6.244   4.846  0.2898  0.5601 -0.9055
  178SLPC  C21720261   6.142   6.382   4.686 -0.5822  0.8974 -0.0185
  178SLPC  H17R20262   6.242   6.420   4.714  1.4195 -3.9058  0.2767
  178SLPC  H17S20263   6.082   6.473   4.663  0.5772  1.9701  1.1142
  178SLPC  C21820264   6.142   6.278   4.572 -0.1577 -0.2155  0.1179
  178SLPC  H18R20265   6.046   6.227   4.551  0.2726 -0.5914 -1.0447
  178SLPC  H18S20266   6.213   6.194   4.587 -0.2692 -0.5977 -1.3558
  178SLPC  H18T20267   6.169   6.329   4.477 -2.0481 -0.7169 -0.7339
  178SLPC   C3320268   6.481   6.301   5.968 -0.2251 -0.5481  0.1622
  178SLPC   H3X20269   6.498   6.196   6.001  1.3404 -0.2137  0.5082
  178SLPC   H3Y20270   6.568   6.357   6.007 -2.2550  0.0285  4.4986
  178SLPC   C3420271   6.470   6.303   5.813 -0.1655 -0.1069 -0.2322
  178SLPC   H4X20272   6.441   6.409   5.797  1.0898  0.4365  0.8699
  178SLPC   H4Y20273   6.388   6.237   5.778 -0.0861 -0.6907  0.6562
  178SLPC   C3520274   6.603   6.257   5.752 -0.2360  0.1698 -0.0998
  178SLPC   H5X20275   6.684   6.257   5.827 -0.0513 -1.1882 -0.2880
  178SLPC   H5Y20276   6.637   6.334   5.679  0.1694  0.4706  0.3948
  178SLPC   C3620277   6.592   6.116   5.695 -0.2658  0.8776 -0.6856
  178SLPC   H6X20278   6.517   6.102   5.614  0.0952  1.8793 -1.2074
  178SLPC   H6Y20279   6.559   6.047   5.776 -0.7904  0.7196 -1.0284
  178SLPC   C3720280   6.722   6.067   5.633  0.0632  0.4784 -0.0795
  178SLPC   H7X20281   6.796   6.150   5.630 -0.2465  0.7488 -3.0689
  178SLPC   H7Y20282   6.715   6.035   5.527  1.6586  1.2437 -0.4429
  178SLPC   C3820283   6.784   5.957   5.720  0.2924  0.2135  0.0060
  178SLPC   H8X20284   6.741   5.855   5.708 -0.0632  0.4161 -0.4655
  178SLPC   H8Y20285   6.744   5.988   5.819 -2.2713 -2.2952 -0.1172
  178SLPC   C3920286   6.939   5.950   5.723 -0.0800  0.1123  1.5635
  178SLPC   H9X20287   6.995   5.882   5.791  1.4306  0.8343  1.0652
  178SLPC   H9Y20288   6.979   6.052   5.736 -1.8837  0.9520  0.8546
  178SLPC  C31020289   6.997   5.921   5.574  0.1383  0.0679  0.3475
  178SLPC  H10X20290   6.954   5.999   5.508 -1.2482 -1.6493 -0.8724
  178SLPC  H10Y20291   6.951   5.825   5.542 -1.1370  0.5025  0.8047
  178SLPC  C31120292   7.147   5.948   5.583 -0.2161  0.3628 -0.1700
  178SLPC  H11X20293   7.186   5.854   5.629  1.6814  1.6146  0.9117
  178SLPC  H11Y20294   7.174   6.024   5.659 -0.0624 -2.5784  2.9728
  178SLPC  C31220295   7.225   5.955   5.455  0.1117 -1.1040 -0.7955
  178SLPC  H12X20296   7.333   5.948   5.477 -0.0242  0.7937  0.6505
  178SLPC  H12Y20297   7.206   6.060   5.425  3.4351 -0.8935 -2.5769
  178SLPC  C31320298   7.176   5.863   5.341  0.0703  0.1286 -0.2118
  178SLPC  H13X20299   7.065   5.867   5.343 -0.1127 -2.6849  1.9312
  178SLPC  H13Y20300   7.212   5.759   5.352 -1.6351 -0.5449 -0.7156
  178SLPC  C31420301   7.220   5.920   5.210 -0.3772 -0.2061  0.2816
  178SLPC  H14X20302   7.193   5.832   5.147 -0.3736 -2.4010  3.1360
  178SLPC  H14Y20303   7.330   5.926   5.211 -0.2019 -1.5499 -2.0775
  178SLPC  C31520304   7.162   6.054   5.168  0.1465 -0.2470 -0.4306
  178SLPC  H15X20305   7.184   6.135   5.242 -1.6118  1.4881 -1.6925
  178SLPC  H15Y20306   7.054   6.039   5.188  0.3400  0.8901  1.8609
  178SLPC  C31620307   7.179   6.106   5.024  0.2049  0.7074  0.6385
  178SLPC  H16X20308   7.138   6.209   5.030  0.7005  1.0907 -1.7387
  178SLPC  H16Y20309   7.108   6.050   4.959  0.5688 -0.2574  1.0570
  178SLPC  C31720310   7.312   6.092   4.959  0.5374  0.5764 -0.5224
  178SLPC  H17X20311   7.357   5.991   4.967 -2.0820 -0.7603 -1.4967
  178SLPC  H17Y20312   7.380   6.148   5.026 -1.1955  1.1732  0.8242
  178SLPC  C31820313   7.330   6.127   4.809  0.3696  0.5126 -0.0799
  178SLPC  H18X20314   7.262   6.060   4.753  1.0839 -2.8953  2.7132
  178SLPC  H18Y20315   7.432   6.099   4.776  0.6509  0.0372  1.1353
  178SLPC  H18Z20316   7.313   6.236   4.795  3.5592  1.3305  1.5024
  179SLPC     N20317   4.653   1.655   1.675  0.1107 -0.0871  0.0914
  179SLPC   C1320318   4.701   1.751   1.577  0.1128 -0.0436 -0.3549
  179SLPC  H13A20319   4.694   1.856   1.601  3.5333  0.5907 -1.6068
  179SLPC  H13B20320   4.809   1.743   1.569  0.2742 -1.4258  2.0545
  179SLPC  H13C20321   4.646   1.738   1.485 -1.7464  0.2543  0.6714
  179SLPC   C1420322   4.731   1.673   1.804 -0.3500 -0.6604  0.5068
  179SLPC  H14A20323   4.752   1.775   1.834 -2.0322  0.4118 -1.6834
  179SLPC  H14B20324   4.684   1.624   1.888  0.8008  0.1153  1.6568
  179SLPC  H14C20325   4.821   1.616   1.788 -0.4570 -0.7599  0.2532
  179SLPC   C1520326   4.674   1.513   1.635  0.0754  0.3976 -0.4104
  179SLPC  H15A20327   4.608   1.494   1.551 -0.9027  3.0568 -0.3352
  179SLPC  H15B20328   4.778   1.493   1.614  0.3697 -0.3815  1.6136
  179SLPC  H15C20329   4.645   1.448   1.716  0.8068  0.7535  0.1435
  179SLPC   C1220330   4.502   1.667   1.698  0.0808  0.7003 -0.2052
  179SLPC  H12A20331   4.478   1.577   1.751 -0.0415 -0.3307 -1.9331
  179SLPC  H12B20332   4.453   1.662   1.602  0.8834 -1.6304 -0.5609
  179SLPC   C1120333   4.441   1.793   1.770  0.3400  0.0733 -0.3017
  179SLPC  H11A20334   4.487   1.801   1.870  0.5895 -1.0469 -0.3115
  179SLPC  H11B20335   4.332   1.773   1.782  0.2064  0.9266  0.0080
  179SLPC     P20336   4.371   1.974   1.591 -0.1828 -0.0640 -0.1866
  179SLPC   O1320337   4.415   2.111   1.547  0.4717  0.3722  0.6757
  179SLPC   O1420338   4.341   1.877   1.484  0.0617  0.3492  0.1541
  179SLPC   O1220339   4.473   1.916   1.701 -0.2571  0.0408 -0.0086
  179SLPC   O1120340   4.242   1.998   1.683 -0.4966 -0.1520 -0.0804
  179SLPC    C120341   4.233   2.108   1.775 -0.3649  0.0518 -0.0628
  179SLPC    HA20342   4.313   2.184   1.766 -0.0122 -0.4103 -1.1054
  179SLPC    HB20343   4.143   2.170   1.756 -1.0373 -0.5837  0.9801
  179SLPC    C220344   4.238   2.066   1.928 -0.4534 -0.5085  0.3628
  179SLPC    HS20345   4.340   2.023   1.935  0.7587  1.8195 -1.5252
  179SLPC   O2120346   4.126   1.973   1.956  0.0784  0.4432  0.5185
  179SLPC   C2120347   4.161   1.900   2.068  0.6258 -1.1629 -0.0470
  179SLPC   O2220348   4.256   1.926   2.137  0.1919  0.3492  0.6315
  179SLPC   C2220349   4.049   1.796   2.095  0.2088  0.4851  0.1950
  179SLPC   H2R20350   3.967   1.827   2.027 -1.8018 -1.6581  1.4881
  179SLPC   H2S20351   4.085   1.696   2.060 -0.1893  0.1166  0.8331
  179SLPC    C320352   4.232   2.191   2.019  0.0816 -0.0059 -0.5849
  179SLPC    HX20353   4.245   2.167   2.127 -1.1625  4.6793  0.8269
  179SLPC    HY20354   4.126   2.224   2.022  0.2863  0.6315 -0.0661
  179SLPC   O3120355   4.316   2.300   1.970  0.1211  0.4855 -0.1611
  179SLPC   C3120356   4.441   2.287   2.013 -0.0551  0.0547 -0.4666
  179SLPC   O3220357   4.484   2.198   2.083  0.1838  0.4178 -0.5431
  179SLPC   C3220358   4.526   2.396   1.947 -0.2310  0.1005 -0.6381
  179SLPC   H2X20359   4.483   2.418   1.847 -1.1214 -3.0992 -1.0508
  179SLPC   H2Y20360   4.625   2.347   1.938  1.0922  1.5980  3.4275
  179SLPC   C2320361   3.998   1.794   2.247  0.0581  0.0871  1.1476
  179SLPC   H3R20362   3.950   1.891   2.270  0.1186  0.1680  0.9300
  179SLPC   H3S20363   4.083   1.775   2.315 -0.8718 -0.6976  2.1290
  179SLPC   C2420364   3.870   1.709   2.276 -0.6859  0.5794 -0.0183
  179SLPC   H4R20365   3.883   1.614   2.222  1.2070 -0.7061  2.5012
  179SLPC   H4S20366   3.785   1.772   2.242  1.0781  1.2022 -3.6889
  179SLPC   C2520367   3.849   1.679   2.427  0.0589 -0.1708  0.0441
  179SLPC   H5R20368   3.758   1.620   2.451  0.8750 -1.2539  0.5515
  179SLPC   H5S20369   3.829   1.784   2.458 -0.7294  0.8885 -3.5648
  179SLPC   C2620370   3.968   1.610   2.494 -0.2188  0.3380 -0.1191
  179SLPC   H6R20371   4.056   1.678   2.487  0.4737 -0.5188  0.1502
  179SLPC   H6S20372   3.983   1.513   2.442 -0.9434 -1.0664  2.1454
  179SLPC   C2720373   3.957   1.565   2.639  0.1737  0.0986  0.0091
  179SLPC   H7R20374   3.881   1.486   2.656 -0.1213  1.0896  4.5483
  179SLPC   H7S20375   3.922   1.656   2.692 -1.5161 -0.2036 -0.5271
  179SLPC   C2820376   4.092   1.513   2.701  0.1913 -0.5837  0.1280
  179SLPC   H8R20377   4.171   1.568   2.647 -0.4393 -0.1226 -0.3373
  179SLPC   H8S20378   4.090   1.404   2.678 -1.5817  0.2315 -4.8422
  179SLPC   C2920379   4.120   1.531   2.848  0.0379  0.0389  0.0468
  179SLPC   H9R20380   4.088   1.451   2.916 -0.8722  0.1380 -0.2466
  179SLPC  C21020381   4.188   1.637   2.896 -0.5963 -0.4999  0.0291
  179SLPC  H10R20382   4.192   1.651   3.005 -1.4394  2.2670 -0.2187
  179SLPC  C21120383   4.254   1.755   2.822  0.5136  0.2808  0.6945
  179SLPC  H11R20384   4.189   1.781   2.735  0.8179  0.5509  0.5432
  179SLPC  H11S20385   4.353   1.725   2.782 -0.6581 -2.7541 -0.1999
  179SLPC  C21220386   4.263   1.875   2.913  0.1856  0.1588 -0.9258
  179SLPC  H12R20387   4.187   1.894   2.991  1.4614 -1.2899  0.7467
  179SLPC  C21320388   4.363   1.970   2.910  0.4142 -0.2804 -0.2004
  179SLPC  H13R20389   4.376   2.039   2.994 -0.1173 -1.7056  1.1041
  179SLPC  C21420390   4.487   1.978   2.823  0.0573  0.2975  0.7333
  179SLPC  H14R20391   4.522   2.082   2.804  1.9065 -0.3807  0.1492
  179SLPC  H14S20392   4.479   1.920   2.729  2.7552  0.9600 -0.0134
  179SLPC  C21520393   4.606   1.909   2.901 -0.0295  0.3268  0.0737
  179SLPC  H15R20394   4.584   1.800   2.904 -1.1685  0.5184 -0.7351
  179SLPC  H15S20395   4.618   1.957   3.001  3.1067  2.6657 -1.2640
  179SLPC  C21620396   4.740   1.943   2.831  0.7749  0.0822 -0.2002
  179SLPC  H16R20397   4.758   2.053   2.834  2.9276 -0.2232 -0.5303
  179SLPC  H16S20398   4.742   1.920   2.722  1.7431 -0.4947 -0.0683
  179SLPC  C21720399   4.856   1.864   2.896  0.1976  0.4355 -0.4733
  179SLPC  H17R20400   4.849   1.753   2.895  0.6382  0.3755  0.9968
  179SLPC  H17S20401   4.878   1.897   3.000 -0.9925  1.5555 -0.5546
  179SLPC  C21820402   4.979   1.897   2.803 -0.2451  0.2410  0.3917
  179SLPC  H18R20403   5.079   1.852   2.823 -0.1386  0.5433  0.5503
  179SLPC  H18S20404   4.993   2.008   2.803 -1.5390  0.4477 -1.2145
  179SLPC  H18T20405   4.940   1.872   2.702 -2.0610 -1.2330  1.4130
  179SLPC   C3320406   4.536   2.532   2.016  0.0672 -0.0278 -0.0919
  179SLPC   H3X20407   4.439   2.542   2.068  0.9155 -1.3428  1.8805
  179SLPC   H3Y20408   4.542   2.597   1.927  2.5895  0.2915  0.2195
  179SLPC   C3420409   4.658   2.542   2.105  0.0576  0.6806  0.4287
  179SLPC   H4X20410   4.689   2.644   2.135  3.7076 -0.6784  1.8671
  179SLPC   H4Y20411   4.740   2.489   2.052 -1.6116  0.5962 -2.2907
  179SLPC   C3520412   4.623   2.486   2.243 -0.4685  0.2563  0.0672
  179SLPC   H5X20413   4.538   2.541   2.288  1.1855  1.3322  2.0953
  179SLPC   H5Y20414   4.605   2.378   2.225  0.8791  0.3204 -1.9794
  179SLPC   C3620415   4.738   2.503   2.344 -0.0564 -0.7704  0.3312
  179SLPC   H6X20416   4.734   2.605   2.387  0.2175 -0.6613  0.1089
  179SLPC   H6Y20417   4.828   2.499   2.278 -0.3918 -1.2193 -0.1055
  179SLPC   C3720418   4.733   2.403   2.460 -0.1302  0.0753  0.2779
  179SLPC   H7X20419   4.831   2.414   2.512 -0.3100  0.0665  0.6265
  179SLPC   H7Y20420   4.720   2.300   2.422  0.7841  0.3257 -0.7315
  179SLPC   C3820421   4.631   2.440   2.569 -0.4449 -0.3926  0.6222
  179SLPC   H8X20422   4.529   2.427   2.528 -0.2522  2.8252 -1.2349
  179SLPC   H8Y20423   4.647   2.548   2.589 -0.4866  0.0051 -1.2673
  179SLPC   C3920424   4.650   2.344   2.692 -0.0385 -1.4378 -0.1235
  179SLPC   H9X20425   4.747   2.343   2.747  0.1304  0.9816 -0.2707
  179SLPC   H9Y20426   4.633   2.239   2.658 -1.4150 -1.7882  1.5178
  179SLPC  C31020427   4.532   2.362   2.790  1.0582  0.1089 -0.7339
  179SLPC  H10X20428   4.463   2.274   2.793  1.0972  0.1042  1.4420
  179SLPC  H10Y20429   4.470   2.443   2.746 -0.4649 -0.5713  0.0731
  179SLPC  C31120430   4.576   2.405   2.933 -0.0301  0.1316  0.7799
  179SLPC  H11X20431   4.485   2.450   2.978 -0.6222  2.0570 -2.0582
  179SLPC  H11Y20432   4.648   2.489   2.931 -1.7030  1.6728 -3.0256
  179SLPC  C31220433   4.627   2.281   2.998 -0.0057 -0.1707 -0.5962
  179SLPC  H12X20434   4.731   2.252   2.972  0.6494  0.9184  0.6869
  179SLPC  H12Y20435   4.561   2.196   2.971  2.5228 -2.1258 -1.0475
  179SLPC  C31320436   4.620   2.289   3.149  0.2352  0.0559 -0.3265
  179SLPC  H13X20437   4.686   2.376   3.171 -1.2369  1.3804 -0.9309
  179SLPC  H13Y20438   4.653   2.187   3.179 -1.8520 -1.3559 -2.4962
  179SLPC  C31420439   4.486   2.310   3.223  0.1351 -0.7461  0.3146
  179SLPC  H14X20440   4.429   2.221   3.188  0.5815 -0.8020 -0.2829
  179SLPC  H14Y20441   4.419   2.386   3.178 -0.8224 -2.3915 -1.1432
  179SLPC  C31520442   4.482   2.334   3.369 -0.3289 -0.1679  0.0674
  179SLPC  H15X20443   4.389   2.393   3.385 -1.5531 -1.9754 -0.0552
  179SLPC  H15Y20444   4.570   2.397   3.394 -0.1259 -0.7646  0.8941
  179SLPC  C31620445   4.467   2.208   3.444 -0.4134 -0.6706 -0.7923
  179SLPC  H16X20446   4.557   2.144   3.426 -0.0236  0.3390 -2.6602
  179SLPC  H16Y20447   4.375   2.151   3.418 -1.1293  0.0937  0.0153
  179SLPC  C31720448   4.459   2.241   3.597 -0.1897 -0.3129 -0.4530
  179SLPC  H17X20449   4.387   2.323   3.621 -0.4200 -0.6326 -0.0546
  179SLPC  H17Y20450   4.559   2.276   3.630  0.2619 -1.0033 -1.0652
  179SLPC  C31820451   4.415   2.127   3.680  0.0899  0.5622 -0.0910
  179SLPC  H18X20452   4.337   2.067   3.628  0.6016 -0.5625  0.3932
  179SLPC  H18Y20453   4.359   2.166   3.768  1.0790  3.1883 -0.5243
  179SLPC  H18Z20454   4.497   2.067   3.727  1.4654  0.6188 -2.2834
  180SLPC     N20455   4.022   2.101   1.329 -0.4071 -0.6797 -0.0777
  180SLPC   C1320456   4.167   2.142   1.321 -0.0577  0.1442  0.6279
  180SLPC  H13A20457   4.231   2.055   1.313  0.9907  1.0773 -2.6449
  180SLPC  H13B20458   4.176   2.191   1.226 -0.4554 -1.8297 -0.4709
  180SLPC  H13C20459   4.186   2.210   1.403 -1.6909  1.6603 -0.2025
  180SLPC   C1420460   3.993   2.067   1.472 -0.4687 -0.2087 -0.2900
  180SLPC  H14A20461   4.067   1.998   1.512  1.4279  1.6923 -0.3387
  180SLPC  H14B20462   4.007   2.158   1.529 -2.1304  0.4106 -0.8232
  180SLPC  H14C20463   3.896   2.021   1.489 -1.1224  1.6618  1.4526
  180SLPC   C1520464   4.011   1.976   1.243  0.3810  0.2782 -0.0728
  180SLPC  H15A20465   3.909   1.945   1.227 -1.0925  3.3392  2.2442
  180SLPC  H15B20466   4.042   1.992   1.141 -1.9457 -0.5634 -0.9727
  180SLPC  H15C20467   4.068   1.895   1.287  0.5595  1.1618  1.4175
  180SLPC   C1220468   3.932   2.211   1.278 -0.2059 -0.0388  0.1802
  180SLPC  H12A20469   3.831   2.174   1.288 -0.3279  0.4405  0.8637
  180SLPC  H12B20470   3.954   2.246   1.178  0.3866 -0.3706  0.1921
  180SLPC   C1120471   3.923   2.336   1.369 -0.9149 -0.1689  0.1621
  180SLPC  H11A20472   3.887   2.422   1.308  0.8994 -0.7962 -1.9265
  180SLPC  H11B20473   4.028   2.365   1.393 -1.4887  0.9796  1.3658
  180SLPC     P20474   3.707   2.277   1.503 -0.2952  0.0743 -0.4133
  180SLPC   O1320475   3.625   2.392   1.467  0.2157  0.2564 -0.5260
  180SLPC   O1420476   3.679   2.154   1.430  0.2906  0.1839  0.2872
  180SLPC   O1220477   3.859   2.319   1.489  0.3618  0.5166 -0.2810
  180SLPC   O1120478   3.680   2.257   1.655  0.1895  0.4795 -0.0433
  180SLPC    C120479   3.779   2.184   1.733 -0.6316  0.6367  1.0493
  180SLPC    HA20480   3.791   2.086   1.682 -2.3424  1.1578 -0.4541
  180SLPC    HB20481   3.877   2.237   1.736  0.3706 -1.1286  0.9556
  180SLPC    C220482   3.716   2.171   1.874 -0.5380 -0.4390 -0.1604
  180SLPC    HS20483   3.615   2.127   1.868 -0.8935  0.2422  0.5780
  180SLPC   O2120484   3.706   2.303   1.940  0.0674  0.0493  0.1962
  180SLPC   C2120485   3.588   2.333   1.980 -0.0690  0.4954 -0.1632
  180SLPC   O2220486   3.486   2.260   1.979  0.0351 -0.3108  0.6976
  180SLPC   C2220487   3.593   2.470   2.041 -0.4179 -0.4479  0.0566
  180SLPC   H2R20488   3.684   2.524   2.008 -1.5379  0.1336 -2.3250
  180SLPC   H2S20489   3.502   2.526   2.010 -0.6718 -0.8531  0.0573
  180SLPC    C320490   3.810   2.081   1.963  0.5020 -1.4559  0.0916
  180SLPC    HX20491   3.907   2.135   1.969 -1.1241  1.6117  0.5025
  180SLPC    HY20492   3.812   1.985   1.907  0.8845 -1.0145 -0.6746
  180SLPC   O3120493   3.757   2.070   2.097 -1.0372  0.1260  0.2474
  180SLPC   C3120494   3.650   1.992   2.107  0.5032  0.3717 -0.1656
  180SLPC   O3220495   3.612   1.915   2.020 -0.1510 -0.0558 -0.3656
  180SLPC   C3220496   3.590   1.995   2.250 -0.3832  0.5096 -0.9093
  180SLPC   H2X20497   3.561   2.100   2.272 -2.1198 -0.4068  1.5416
  180SLPC   H2Y20498   3.675   1.964   2.314 -1.8330  1.6384  1.6737
  180SLPC   C2320499   3.582   2.456   2.194 -0.1211  0.5009  0.2492
  180SLPC   H3R20500   3.497   2.387   2.214  0.0690 -0.0550 -0.8028
  180SLPC   H3S20501   3.558   2.557   2.236  0.3893 -0.6145  3.5404
  180SLPC   C2420502   3.708   2.413   2.260 -0.1290 -0.1986 -0.0427
  180SLPC   H4R20503   3.791   2.475   2.220  0.0321 -1.3284 -1.5702
  180SLPC   H4S20504   3.730   2.306   2.237  1.2479  0.3804 -1.6068
  180SLPC   C2520505   3.697   2.415   2.413  0.9474 -0.2132  0.3818
  180SLPC   H5R20506   3.618   2.345   2.447 -0.3141  1.2310  0.5047
  180SLPC   H5S20507   3.645   2.503   2.457 -1.7554 -2.7615  2.8076
  180SLPC   C2620508   3.822   2.393   2.483 -0.0852  0.0325  0.1692
  180SLPC   H6R20509   3.903   2.456   2.441 -1.1959  1.3352 -0.0801
  180SLPC   H6S20510   3.838   2.284   2.468 -0.7088 -0.3276  1.9163
  180SLPC   C2720511   3.813   2.415   2.638 -0.6438  0.4365 -0.2371
  180SLPC   H7R20512   3.719   2.368   2.674  0.4860 -1.1133  0.8074
  180SLPC   H7S20513   3.777   2.515   2.670 -2.2468  0.8280 -2.8983
  180SLPC   C2820514   3.923   2.347   2.716 -0.0505 -0.6524  0.2135
  180SLPC   H8R20515   3.959   2.249   2.679 -0.2307 -0.9315  0.7616
  180SLPC   H8S20516   3.889   2.320   2.818  1.7807 -3.4247  0.1753
  180SLPC   C2920517   4.035   2.439   2.739 -0.1061 -0.5492  0.1732
  180SLPC   H9R20518   4.044   2.526   2.671 -0.2552 -1.3869 -0.9443
  180SLPC  C21020519   4.117   2.440   2.842 -0.2345  0.0347  0.7702
  180SLPC  H10R20520   4.199   2.513   2.842  1.0078 -1.3075  0.8544
  180SLPC  C21120521   4.131   2.339   2.948 -0.8147  0.1369 -0.1716
  180SLPC  H11R20522   4.240   2.329   2.968 -0.3867 -0.3018 -2.4566
  180SLPC  H11S20523   4.101   2.237   2.915  4.4251 -2.0200  0.6830
  180SLPC  C21220524   4.041   2.364   3.066 -0.2691  0.3272 -0.5379
  180SLPC  H12R20525   3.943   2.315   3.059 -0.0410 -0.5933  1.7404
  180SLPC  C21320526   4.056   2.450   3.168  0.1093 -1.3520  0.4843
  180SLPC  H13R20527   3.988   2.445   3.254  1.4779 -1.5312  1.5941
  180SLPC  C21420528   4.171   2.548   3.180  0.1839  0.4813  0.0885
  180SLPC  H14R20529   4.216   2.568   3.080  0.0948  1.2707  0.1989
  180SLPC  H14S20530   4.253   2.498   3.235  0.6220 -1.6439 -2.2799
  180SLPC  C21520531   4.152   2.688   3.239 -0.0500 -0.3596  0.3570
  180SLPC  H15R20532   4.104   2.754   3.164  2.4609 -0.0316 -1.0964
  180SLPC  H15S20533   4.256   2.722   3.260  0.0283 -1.1468  1.3756
  180SLPC  C21620534   4.094   2.682   3.381 -0.1480  0.1243  0.5464
  180SLPC  H16R20535   4.134   2.595   3.438  0.4255  0.5416  0.7917
  180SLPC  H16S20536   3.985   2.665   3.367  0.4110 -3.0341 -0.7876
  180SLPC  C21720537   4.127   2.808   3.467  1.1075 -1.1299  0.4993
  180SLPC  H17R20538   4.233   2.836   3.485  0.1174  2.8742  0.8802
  180SLPC  H17S20539   4.091   2.773   3.566  0.6326 -2.4387 -0.1040
  180SLPC  C21820540   4.049   2.930   3.432 -0.3530 -0.4502  0.1515
  180SLPC  H18R20541   4.055   3.008   3.511 -0.7053 -1.6227  1.3704
  180SLPC  H18S20542   3.947   2.888   3.422  0.2816 -2.1119  0.4041
  180SLPC  H18T20543   4.093   2.975   3.340  2.1809 -1.1685  0.9414
  180SLPC   C3320544   3.474   1.890   2.258 -0.1924 -0.3910 -0.2145
  180SLPC   H3X20545   3.503   1.787   2.226  0.1215  0.6389 -3.5956
  180SLPC   H3Y20546   3.384   1.923   2.202 -1.2702  0.3541  1.8446
  180SLPC   C3420547   3.406   1.890   2.397  0.0016 -0.1790  0.8324
  180SLPC   H4X20548   3.299   1.863   2.384 -0.4985  2.2865 -0.6469
  180SLPC   H4Y20549   3.402   1.997   2.424 -0.5617  0.1221 -0.3959
  180SLPC   C3520550   3.463   1.812   2.512 -0.3645  0.3071  0.2194
  180SLPC   H5X20551   3.533   1.733   2.477 -0.3512  0.4945 -0.1903
  180SLPC   H5Y20552   3.386   1.758   2.570  0.6556  0.8015  2.1371
  180SLPC   C3620553   3.545   1.911   2.603  0.4850 -0.0853  0.5119
  180SLPC   H6X20554   3.478   1.997   2.626 -1.0796 -0.1000 -3.2732
  180SLPC   H6Y20555   3.641   1.941   2.557  0.4584 -2.1115 -0.9921
  180SLPC   C3720556   3.579   1.840   2.727 -0.1177 -0.5784 -0.5681
  180SLPC   H7X20557   3.637   1.746   2.711 -0.4467 -0.9035  0.1287
  180SLPC   H7Y20558   3.491   1.801   2.782 -1.3964  2.6705 -0.0549
  180SLPC   C3820559   3.664   1.923   2.824  0.0807  0.1264  0.5842
  180SLPC   H8X20560   3.609   2.017   2.847 -1.7766 -1.0060  1.0145
  180SLPC   H8Y20561   3.755   1.955   2.769  0.5121 -1.9063  0.0374
  180SLPC   C3920562   3.689   1.839   2.952 -0.9823 -0.1313 -0.0934
  180SLPC   H9X20563   3.726   1.737   2.929  1.2348  0.7775 -0.7910
  180SLPC   H9Y20564   3.596   1.830   3.013 -2.1108  1.3935 -1.4786
  180SLPC  C31020565   3.782   1.917   3.044  0.1517 -0.7270  0.2993
  180SLPC  H10X20566   3.727   2.009   3.073 -0.9910 -1.3484  0.1686
  180SLPC  H10Y20567   3.871   1.951   2.987 -0.2944 -1.3756 -0.8086
  180SLPC  C31120568   3.836   1.840   3.163 -0.1859 -0.5648 -0.5547
  180SLPC  H11X20569   3.917   1.896   3.213  1.7301 -2.4417 -1.3844
  180SLPC  H11Y20570   3.891   1.755   3.117  1.4334  1.5889 -2.8509
  180SLPC  C31220571   3.745   1.785   3.278 -0.1489 -0.2617 -0.5067
  180SLPC  H12X20572   3.688   1.704   3.229 -1.4774 -0.1094  0.6888
  180SLPC  H12Y20573   3.668   1.857   3.313 -1.2973 -1.2781 -0.8610
  180SLPC  C31320574   3.819   1.724   3.402  0.1876 -0.0884 -0.0889
  180SLPC  H13X20575   3.738   1.675   3.460  0.1204 -0.8251 -0.7843
  180SLPC  H13Y20576   3.858   1.806   3.466  0.9626 -1.0742  0.7253
  180SLPC  C31420577   3.925   1.630   3.354 -0.3130 -0.1369 -0.1987
  180SLPC  H14X20578   4.000   1.682   3.291  0.7972 -2.0514 -0.5219
  180SLPC  H14Y20579   3.875   1.563   3.281 -1.9461 -0.0644  0.7953
  180SLPC  C31520580   3.995   1.534   3.460 -0.3239 -0.0069  0.0168
  180SLPC  H15X20581   4.087   1.487   3.420  0.0042  0.8576 -0.2590
  180SLPC  H15Y20582   3.931   1.444   3.472 -1.3678  0.6177 -0.6662
  180SLPC  C31620583   4.035   1.593   3.595 -0.0561 -0.5465  0.8925
  180SLPC  H16X20584   3.951   1.633   3.656  0.9999  1.2147  1.2440
  180SLPC  H16Y20585   4.094   1.684   3.574  0.5926 -1.0698  0.4263
  180SLPC  C31720586   4.119   1.501   3.677 -0.1300  0.5593 -0.0236
  180SLPC  H17X20587   4.162   1.546   3.769  0.4430  0.9519 -0.4710
  180SLPC  H17Y20588   4.209   1.486   3.614  0.6681  1.9464  0.7249
  180SLPC  C31820589   4.065   1.357   3.702  0.8070  0.3980 -0.2736
  180SLPC  H18X20590   4.050   1.311   3.602 -1.1551 -0.9821  0.6084
  180SLPC  H18Y20591   3.972   1.368   3.762  2.1738  0.2230  1.9821
  180SLPC  H18Z20592   4.133   1.289   3.757 -0.2280 -0.3486  0.1021
  181SLPC     N20593   1.993   2.485   1.685  0.7071 -0.5920 -0.3177
  181SLPC   C1320594   1.894   2.448   1.793  0.4425 -0.1925 -0.3802
  181SLPC  H13A20595   1.797   2.433   1.748  0.9098 -1.7404 -0.9237
  181SLPC  H13B20596   1.935   2.361   1.844  1.2271 -0.9695 -2.2403
  181SLPC  H13C20597   1.885   2.528   1.865 -0.4994  1.3402 -2.1192
  181SLPC   C1420598   1.939   2.610   1.621 -0.0420  0.2915  0.5982
  181SLPC  H14A20599   2.011   2.642   1.547 -1.2038  0.1609 -0.6226
  181SLPC  H14B20600   1.849   2.594   1.564  1.2897  2.4994 -2.4651
  181SLPC  H14C20601   1.920   2.692   1.688 -2.2260  0.7986 -0.5574
  181SLPC   C1520602   2.004   2.377   1.582 -0.8408 -0.5857  0.7178
  181SLPC  H15A20603   2.037   2.283   1.624  1.6631 -0.1443 -0.0833
  181SLPC  H15B20604   1.905   2.361   1.542 -1.3663  0.3335  1.5982
  181SLPC  H15C20605   2.063   2.412   1.498 -3.2099  1.9632 -0.0615
  181SLPC   C1220606   2.133   2.506   1.744  0.3358  0.3938  0.3658
  181SLPC  H12A20607   2.130   2.594   1.806  0.2889  0.2796  0.5251
  181SLPC  H12B20608   2.204   2.524   1.665  0.6800  0.7205  0.7454
  181SLPC   C1120609   2.198   2.397   1.831 -0.3598  0.0451 -0.4999
  181SLPC  H11A20610   2.135   2.382   1.921 -0.9547 -2.2174 -1.2334
  181SLPC  H11B20611   2.300   2.424   1.865 -0.7800 -0.2837  1.1048
  181SLPC     P20612   2.164   2.131   1.827  0.2018 -0.0373  0.1730
  181SLPC   O1320613   2.025   2.099   1.782 -0.6862 -0.6181  0.4471
  181SLPC   O1420614   2.274   2.037   1.805 -0.4516 -0.5792  0.0426
  181SLPC   O1220615   2.209   2.274   1.769  0.3063 -0.1037 -0.3976
  181SLPC   O1120616   2.141   2.154   1.989 -0.1158 -0.0867  0.4506
  181SLPC    C120617   2.246   2.143   2.084 -0.9643 -0.2900  0.0437
  181SLPC    HA20618   2.283   2.039   2.093  1.5793  0.6143  1.0060
  181SLPC    HB20619   2.328   2.210   2.050 -0.0560 -1.2847  0.2569
  181SLPC    C220620   2.202   2.192   2.226 -0.4969  0.4951  0.1185
  181SLPC    HS20621   2.295   2.233   2.270 -1.1252  0.2633  1.7169
  181SLPC   O2120622   2.154   2.085   2.311  0.1839 -0.4515 -0.1072
  181SLPC   C2120623   2.241   2.032   2.389  0.2412 -0.4217  0.5022
  181SLPC   O2220624   2.363   2.051   2.396 -0.5758  0.0291  0.4542
  181SLPC   C2220625   2.162   1.952   2.482  0.6400  0.5224  0.0606
  181SLPC   H2R20626   2.058   1.937   2.444  0.1561  0.7334  1.2318
  181SLPC   H2S20627   2.211   1.853   2.488  0.4804  0.2640 -2.1986
  181SLPC    C320628   2.108   2.315   2.226  0.4446  0.1805  0.9662
  181SLPC    HX20629   2.019   2.287   2.164 -0.4815  3.0168  0.8759
  181SLPC    HY20630   2.163   2.393   2.169  0.4081 -0.4498  0.0264
  181SLPC   O3120631   2.058   2.347   2.360 -0.2488  0.0093  0.0896
  181SLPC   C3120632   2.075   2.475   2.389 -0.6988  0.0570  0.6580
  181SLPC   O3220633   2.132   2.561   2.325 -0.4398 -0.2670 -0.0673
  181SLPC   C3220634   2.029   2.501   2.532 -0.0475 -0.1021 -0.1839
  181SLPC   H2X20635   2.085   2.425   2.590  2.7123  0.9795 -1.2728
  181SLPC   H2Y20636   1.918   2.496   2.533 -0.2176  2.2259 -1.0721
  181SLPC   C2320637   2.171   2.006   2.623  0.8185 -0.1770  0.6959
  181SLPC   H3R20638   2.278   2.001   2.652  0.4482 -0.4634  2.0595
  181SLPC   H3S20639   2.128   1.941   2.702  0.5799 -1.2688 -0.3113
  181SLPC   C2420640   2.109   2.146   2.642  0.1020  0.3646  0.0164
  181SLPC   H4R20641   1.998   2.133   2.638 -0.1215  2.2531 -1.6946
  181SLPC   H4S20642   2.147   2.218   2.566  0.1900 -0.1792 -0.4594
  181SLPC   C2520643   2.146   2.208   2.781 -0.7013  0.4979 -0.2195
  181SLPC   H5R20644   2.091   2.304   2.793 -1.5134 -0.2969  4.2120
  181SLPC   H5S20645   2.255   2.230   2.778 -0.3506 -0.9654  0.7683
  181SLPC   C2620646   2.130   2.124   2.913 -0.1802 -0.5309 -0.2682
  181SLPC   H6R20647   2.225   2.066   2.923 -0.3891 -1.1817 -1.7730
  181SLPC   H6S20648   2.050   2.048   2.903 -1.4142  0.8085 -0.9968
  181SLPC   C2720649   2.108   2.208   3.033 -0.6791 -0.1990 -0.5021
  181SLPC   H7R20650   2.029   2.284   3.011 -1.9462 -1.6887 -1.3359
  181SLPC   H7S20651   2.206   2.251   3.061 -0.5704 -1.2201  0.7480
  181SLPC   C2820652   2.069   2.124   3.159  0.1197  0.8700 -0.3571
  181SLPC   H8R20653   1.983   2.062   3.126  1.9106 -2.0719  0.1399
  181SLPC   H8S20654   2.041   2.178   3.252 -1.0660  0.6223 -0.5473
  181SLPC   C2920655   2.184   2.038   3.209  0.2992  0.1586 -0.0164
  181SLPC   H9R20656   2.194   1.933   3.177  1.6591  0.4686 -0.6310
  181SLPC  C21020657   2.284   2.081   3.284 -0.1785 -0.4313 -0.4925
  181SLPC  H10R20658   2.362   2.011   3.315  2.9987  2.5190 -1.2658
  181SLPC  C21120659   2.298   2.224   3.334  0.9884 -0.6083  0.7149
  181SLPC  H11R20660   2.242   2.292   3.266  0.3800  0.5902  2.3378
  181SLPC  H11S20661   2.401   2.267   3.334  1.1126 -0.7921  3.0771
  181SLPC  C21220662   2.242   2.248   3.473  0.3209  0.4294  0.6353
  181SLPC  H12R20663   2.138   2.282   3.474 -0.5175 -1.2310 -4.1191
  181SLPC  C21320664   2.301   2.222   3.590 -0.4432  0.4943  0.3148
  181SLPC  H13R20665   2.256   2.228   3.690  1.0979 -2.4710  1.3272
  181SLPC  C21420666   2.438   2.165   3.606 -0.0410 -0.2146  0.1275
  181SLPC  H14R20667   2.485   2.121   3.516  1.4073  1.8173 -0.1734
  181SLPC  H14S20668   2.422   2.086   3.683  2.0899 -0.3844  0.4589
  181SLPC  C21520669   2.551   2.261   3.646  0.6584 -0.1787  0.7078
  181SLPC  H15R20670   2.578   2.323   3.558  0.7752  0.2936  1.0786
  181SLPC  H15S20671   2.641   2.208   3.686  2.7690  3.3619  1.0635
  181SLPC  C21620672   2.511   2.347   3.764 -0.0982  0.3829 -0.0521
  181SLPC  H16R20673   2.405   2.380   3.767 -0.3230 -0.3404  0.1821
  181SLPC  H16S20674   2.567   2.443   3.768 -1.2585  1.1266 -1.1241
  181SLPC  C21720675   2.541   2.282   3.901 -0.0860  0.1962 -0.0201
  181SLPC  H17R20676   2.643   2.241   3.911 -0.8497 -1.8712 -0.1067
  181SLPC  H17S20677   2.481   2.189   3.904 -0.5686  0.4783 -0.6918
  181SLPC  C21820678   2.512   2.368   4.023  0.2905  0.3092 -0.6288
  181SLPC  H18R20679   2.584   2.453   4.020  0.7457 -0.0619 -0.2955
  181SLPC  H18S20680   2.536   2.313   4.116 -0.2157 -0.1029 -0.7339
  181SLPC  H18T20681   2.408   2.406   4.019  0.4422  0.6300 -2.9225
  181SLPC   C3320682   2.071   2.638   2.584  0.3490 -0.5366 -0.0163
  181SLPC   H3X20683   2.016   2.664   2.677 -2.3418  3.2495 -2.3832
  181SLPC   H3Y20684   2.037   2.711   2.507  1.0422 -1.3542 -1.1283
  181SLPC   C3420685   2.222   2.665   2.614  0.1297 -0.2747  0.0644
  181SLPC   H4X20686   2.245   2.767   2.578  1.2685  0.0205  1.5256
  181SLPC   H4Y20687   2.280   2.585   2.562 -1.8961 -1.1757 -0.9095
  181SLPC   C3520688   2.257   2.665   2.766  0.6223  0.2130  0.6368
  181SLPC   H5X20689   2.232   2.760   2.816  0.6987  0.0517  0.9868
  181SLPC   H5Y20690   2.367   2.680   2.773  0.4712  1.6017  0.2358
  181SLPC   C3620691   2.213   2.537   2.840 -0.1440  0.2083  0.6571
  181SLPC   H6X20692   2.258   2.448   2.791 -0.0134  0.5105  0.2293
  181SLPC   H6Y20693   2.103   2.527   2.836 -0.2447  1.3914  0.0803
  181SLPC   C3720694   2.253   2.547   2.987  0.0751 -0.1574 -0.3442
  181SLPC   H7X20695   2.364   2.546   2.983  0.2226  1.5731  1.3488
  181SLPC   H7Y20696   2.197   2.465   3.036 -0.0353  0.9900  1.5442
  181SLPC   C3820697   2.199   2.669   3.061  0.0063 -0.7293 -0.0744
  181SLPC   H8X20698   2.091   2.675   3.035 -0.9108 -4.4633  2.0500
  181SLPC   H8Y20699   2.247   2.764   3.031 -1.5354  0.1126  0.0028
  181SLPC   C3920700   2.204   2.652   3.216 -0.4176 -0.0563  0.1947
  181SLPC   H9X20701   2.307   2.679   3.247 -0.8606  2.7274 -0.5680
  181SLPC   H9Y20702   2.184   2.543   3.231 -0.8958 -0.1237 -0.8693
  181SLPC  C31020703   2.101   2.729   3.294 -0.2203 -0.1689 -0.0930
  181SLPC  H10X20704   2.000   2.694   3.263  0.6745 -1.9564 -1.1794
  181SLPC  H10Y20705   2.108   2.837   3.272  2.6337  0.6490  3.9696
  181SLPC  C31120706   2.125   2.711   3.443 -0.2305 -0.4368 -1.0566
  181SLPC  H11X20707   2.220   2.760   3.471 -0.3818  0.2639 -1.7330
  181SLPC  H11Y20708   2.129   2.602   3.466 -1.4574 -0.5134 -1.1247
  181SLPC  C31220709   2.016   2.773   3.514  0.2620  0.5367 -0.0651
  181SLPC  H12X20710   1.923   2.725   3.475  0.9770  1.4768 -3.2243
  181SLPC  H12Y20711   2.013   2.881   3.489 -1.2760  0.7063  0.7030
  181SLPC  C31320712   2.033   2.752   3.670  0.0388  0.0313 -0.2866
  181SLPC  H13X20713   2.030   2.641   3.678 -0.9000 -0.0259 -1.2089
  181SLPC  H13Y20714   1.950   2.807   3.720  0.7577 -0.5397  1.6187
  181SLPC  C31420715   2.165   2.802   3.730  0.2069  0.1609 -0.3797
  181SLPC  H14X20716   2.179   2.911   3.714 -0.7225  0.5175  0.9986
  181SLPC  H14Y20717   2.248   2.750   3.678 -0.9101  0.7915 -2.9541
  181SLPC  C31520718   2.183   2.779   3.882 -0.3601 -0.1138 -0.4106
  181SLPC  H15X20719   2.289   2.798   3.909 -0.9554  1.9200  0.7128
  181SLPC  H15Y20720   2.151   2.676   3.910 -2.0704  0.3244 -0.5917
  181SLPC  C31620721   2.090   2.867   3.964 -0.1281  0.2099  0.4324
  181SLPC  H16X20722   2.103   2.836   4.070 -0.3114  0.7616  0.6178
  181SLPC  H16Y20723   1.984   2.846   3.939 -0.3409  0.3660  1.1823
  181SLPC  C31720724   2.109   3.020   3.940  0.3008  0.1211  0.2203
  181SLPC  H17X20725   2.033   3.068   4.006 -0.8521 -0.9045 -0.3304
  181SLPC  H17Y20726   2.089   3.039   3.832 -1.3219 -0.9844  0.2909
  181SLPC  C31820727   2.244   3.081   3.982  0.3453 -0.1931  0.2065
  181SLPC  H18X20728   2.289   3.044   4.077 -1.6100 -1.2857  0.7423
  181SLPC  H18Y20729   2.244   3.191   3.963 -1.7549 -0.4660 -1.6160
  181SLPC  H18Z20730   2.318   3.050   3.905 -0.3142  1.4665 -1.1681
  182SLPC     N20731   5.149   0.919   1.770  0.3167 -0.0343  0.2548
  182SLPC   C1320732   5.054   0.826   1.711  0.1246  0.3426 -0.4894
  182SLPC  H13A20733   4.957   0.813   1.758 -0.3387  0.4103 -1.4119
  182SLPC  H13B20734   5.052   0.849   1.606 -1.3888  1.5536 -0.2347
  182SLPC  H13C20735   5.096   0.727   1.717  0.7392  0.6800  1.5194
  182SLPC   C1420736   5.197   0.868   1.903 -0.2021  0.2001  0.3634
  182SLPC  H14A20737   5.274   0.926   1.951 -1.4873  0.4627  2.2262
  182SLPC  H14B20738   5.111   0.857   1.968  0.7317  0.5412  1.6952
  182SLPC  H14C20739   5.231   0.766   1.892 -1.7774 -0.3114 -0.1197
  182SLPC   C1520740   5.083   1.050   1.784 -0.1566 -0.2095  0.5916
  182SLPC  H15A20741   4.989   1.039   1.835 -0.4485 -1.2093 -0.1312
  182SLPC  H15B20742   5.134   1.126   1.842 -1.4132 -0.3951  1.9997
  182SLPC  H15C20743   5.049   1.089   1.689  0.1467 -1.7948 -0.2086
  182SLPC   C1220744   5.261   0.934   1.660 -0.8755  0.3662 -0.1765
  182SLPC  H12A20745   5.325   1.017   1.685  0.8424 -0.6403 -1.0527
  182SLPC  H12B20746   5.210   0.952   1.566 -0.5073  0.4100 -0.3663
  182SLPC   C1120747   5.364   0.815   1.643 -0.0570  0.0387 -0.1697
  182SLPC  H11A20748   5.416   0.821   1.545 -3.3871  0.2583 -2.0742
  182SLPC  H11B20749   5.304   0.721   1.645 -0.1871  0.1223  1.2085
  182SLPC     P20750   5.578   0.887   1.758  0.1653  0.1705  0.0812
  182SLPC   O1320751   5.683   0.804   1.693 -1.1924  0.1529 -0.0711
  182SLPC   O1420752   5.553   1.022   1.696 -0.0214  0.0399 -0.1479
  182SLPC   O1220753   5.450   0.795   1.752 -0.8665  0.3060 -0.6966
  182SLPC   O1120754   5.600   0.901   1.912 -0.0389 -0.1508 -0.0227
  182SLPC    C120755   5.636   0.780   1.979 -1.0122  0.1428 -0.2337
  182SLPC    HA20756   5.541   0.723   1.985 -0.5753 -0.7187 -1.1485
  182SLPC    HB20757   5.715   0.727   1.922 -0.8941  0.6248 -0.5247
  182SLPC    C220758   5.694   0.809   2.124 -0.8508  0.7581 -0.4788
  182SLPC    HS20759   5.715   0.711   2.172  0.4458  2.4072  2.5576
  182SLPC   O2120760   5.600   0.882   2.193  0.3363 -0.2789 -0.5381
  182SLPC   C2120761   5.500   0.822   2.245  0.5166  0.3451 -0.4157
  182SLPC   O2220762   5.480   0.701   2.251  0.1968 -0.2594 -0.7423
  182SLPC   C2220763   5.398   0.922   2.292  0.1495  0.2877  0.5550
  182SLPC   H2R20764   5.386   0.999   2.213 -2.9291 -0.7320 -0.1528
  182SLPC   H2S20765   5.300   0.872   2.276  0.9576 -0.8343 -1.2760
  182SLPC    C320766   5.826   0.891   2.119  0.6798  0.4023  0.7418
  182SLPC    HX20767   5.793   0.985   2.069 -0.3742 -0.1581  0.3464
  182SLPC    HY20768   5.903   0.849   2.050 -1.0753  1.9465 -2.4061
  182SLPC   O3120769   5.866   0.925   2.250 -0.9161  0.1264 -0.8460
  182SLPC   C3120770   5.918   0.834   2.330 -0.4324 -0.5534  0.1822
  182SLPC   O3220771   5.944   0.722   2.293 -0.2915 -0.7369  0.6479
  182SLPC   C3220772   5.965   0.888   2.462  0.3519 -0.1974 -0.2103
  182SLPC   H2X20773   5.931   0.994   2.472  1.3275  0.2129 -1.0680
  182SLPC   H2Y20774   6.076   0.886   2.458  0.3731 -2.3526  0.5690
  182SLPC   C2320775   5.413   0.976   2.437 -0.0598 -0.1519 -0.3368
  182SLPC   H3R20776   5.343   1.061   2.452  0.6253  0.3420  0.1004
  182SLPC   H3S20777   5.514   1.018   2.454  0.1918  0.5247 -3.0205
  182SLPC   C2420778   5.370   0.871   2.548 -0.1363 -0.0372  0.8520
  182SLPC   H4R20779   5.456   0.807   2.576  1.4033  1.9008  0.7336
  182SLPC   H4S20780   5.303   0.805   2.488  2.1785  0.8153 -3.0540
  182SLPC   C2520781   5.289   0.918   2.667 -0.0811 -0.8909 -0.0373
  182SLPC   H5R20782   5.369   0.978   2.716  0.4907  0.9271 -2.9654
  182SLPC   H5S20783   5.263   0.826   2.724  1.5767 -0.6710  1.1456
  182SLPC   C2620784   5.165   1.000   2.631 -0.1813 -0.0107  0.0229
  182SLPC   H6R20785   5.110   0.965   2.541  1.0065 -0.6253 -0.4884
  182SLPC   H6S20786   5.193   1.105   2.609 -0.2379 -0.0694 -0.3344
  182SLPC   C2720787   5.068   1.005   2.751  0.6423  0.1681  0.3573
  182SLPC   H7R20788   5.124   1.023   2.845 -0.0346  2.7378  0.3400
  182SLPC   H7S20789   5.020   0.905   2.762 -1.8024  1.1908 -0.3298
  182SLPC   C2820790   4.956   1.112   2.743  0.6133 -0.5168  0.2358
  182SLPC   H8R20791   4.997   1.208   2.707  1.7007 -1.0750 -0.0590
  182SLPC   H8S20792   4.915   1.114   2.846  1.4395  1.1311  0.5555
  182SLPC   C2920793   4.854   1.067   2.643 -0.2564  0.7760  0.2445
  182SLPC   H9R20794   4.846   0.959   2.625 -0.8790  1.0110 -0.9743
  182SLPC  C21020795   4.765   1.149   2.581 -0.1565  0.0776 -0.0111
  182SLPC  H10R20796   4.697   1.105   2.507 -2.0881  1.1854  1.0264
  182SLPC  C21120797   4.749   1.298   2.602  0.4359  0.6239 -0.3114
  182SLPC  H11R20798   4.774   1.316   2.709  1.3370  0.2815 -0.4559
  182SLPC  H11S20799   4.644   1.330   2.587  0.7310  2.0262  0.4230
  182SLPC  C21220800   4.833   1.383   2.519 -0.3580 -0.0046  0.3388
  182SLPC  H12R20801   4.909   1.336   2.456  1.7840 -0.4294  3.0681
  182SLPC  C21320802   4.825   1.518   2.514  0.2294 -0.0011 -0.4483
  182SLPC  H13R20803   4.879   1.574   2.436 -0.9098  0.3031 -1.0466
  182SLPC  C21420804   4.725   1.598   2.596  0.4925  0.1473 -0.6243
  182SLPC  H14R20805   4.787   1.682   2.634  0.4584  1.8001 -3.8382
  182SLPC  H14S20806   4.681   1.528   2.670 -0.7375 -0.0200 -1.4913
  182SLPC  C21520807   4.602   1.660   2.526  0.1755 -0.2121 -0.4059
  182SLPC  H15R20808   4.639   1.751   2.473  0.0160 -0.3618 -0.7814
  182SLPC  H15S20809   4.532   1.685   2.608  1.6104  1.6424  0.3361
  182SLPC  C21620810   4.535   1.574   2.422 -0.6461 -0.1532  0.4491
  182SLPC  H16R20811   4.507   1.479   2.473 -1.3613  0.3535  1.0210
  182SLPC  H16S20812   4.611   1.541   2.349 -1.2445  0.5220 -0.4974
  182SLPC  C21720813   4.415   1.638   2.350 -0.6383  0.0962 -0.1600
  182SLPC  H17R20814   4.451   1.741   2.328  0.7737 -0.4546 -0.5863
  182SLPC  H17S20815   4.327   1.645   2.417 -1.0397 -1.1934 -0.5184
  182SLPC  C21820816   4.371   1.560   2.223 -0.2654  0.0775 -0.6168
  182SLPC  H18R20817   4.274   1.601   2.186  0.3777  0.4198 -1.9714
  182SLPC  H18S20818   4.353   1.454   2.251  1.5659  0.2742  1.6008
  182SLPC  H18T20819   4.457   1.576   2.154  0.4143 -0.0326  0.1895
  182SLPC   C3320820   5.913   0.810   2.585 -0.5377  0.1092  0.4110
  182SLPC   H3X20821   5.942   0.703   2.579  2.9233  0.8087  2.1648
  182SLPC   H3Y20822   5.802   0.808   2.577 -0.4801 -0.6750 -0.2862
  182SLPC   C3420823   5.971   0.863   2.718 -0.4094  0.4399 -0.3783
  182SLPC   H4X20824   5.956   0.973   2.715 -0.3187  0.4824  0.3566
  182SLPC   H4Y20825   6.079   0.838   2.732  0.0623  2.8522  0.8570
  182SLPC   C3520826   5.889   0.821   2.842 -0.3010  0.0531 -0.0265
  182SLPC   H5X20827   5.898   0.710   2.850  0.5531  0.0550 -0.7838
  182SLPC   H5Y20828   5.782   0.835   2.814 -0.8355 -2.0267  0.7411
  182SLPC   C3620829   5.936   0.904   2.972  0.0660 -0.0187  0.5094
  182SLPC   H6X20830   5.915   1.009   2.942  0.2613 -0.7655 -2.5888
  182SLPC   H6Y20831   6.043   0.880   2.986 -0.3135 -1.9264  0.3517
  182SLPC   C3720832   5.860   0.879   3.105 -0.2221 -0.4426 -0.6596
  182SLPC   H7X20833   5.847   0.770   3.123  0.0120 -0.6434 -1.6360
  182SLPC   H7Y20834   5.756   0.918   3.100 -0.1183 -0.0278  0.2418
  182SLPC   C3820835   5.937   0.943   3.219 -0.1265 -0.3508  0.2924
  182SLPC   H8X20836   5.951   1.050   3.192  1.9804 -0.2694  1.5163
  182SLPC   H8Y20837   6.039   0.900   3.222  0.0437  0.0338  3.4294
  182SLPC   C3920838   5.866   0.922   3.357 -0.1791  0.2448  0.5174
  182SLPC   H9X20839   5.851   0.813   3.377  1.9826  0.1988  2.3134
  182SLPC   H9Y20840   5.763   0.961   3.347 -0.7399 -0.6185  2.4680
  182SLPC  C31020841   5.936   0.977   3.483 -0.6433 -0.0087 -0.8105
  182SLPC  H10X20842   5.929   1.088   3.486 -0.0568  0.0637 -1.5563
  182SLPC  H10Y20843   6.046   0.961   3.476 -0.5004  1.1980 -1.8390
  182SLPC  C31120844   5.871   0.934   3.616 -0.6080  0.3992 -0.2026
  182SLPC  H11X20845   5.900   0.827   3.632  1.3306  0.4390 -2.8000
  182SLPC  H11Y20846   5.761   0.947   3.606 -1.2823 -2.9120  1.2988
  182SLPC  C31220847   5.920   1.021   3.742 -0.0176  0.5771  0.8571
  182SLPC  H12X20848   5.905   1.129   3.718 -1.4777 -0.6415 -5.5210
  182SLPC  H12Y20849   6.025   0.997   3.767 -0.4739 -2.1412  0.4602
  182SLPC  C31320850   5.852   0.990   3.874 -0.0574  0.1293 -0.5728
  182SLPC  H13X20851   5.879   0.888   3.908  0.6055  0.9041  1.3404
  182SLPC  H13Y20852   5.744   0.972   3.855  0.1262 -0.0160 -1.5124
  182SLPC  C31420853   5.890   1.086   3.985 -0.3683  0.3002  0.1222
  182SLPC  H14X20854   5.828   1.081   4.077  3.0645 -1.5209  2.6035
  182SLPC  H14Y20855   5.877   1.191   3.953  1.1439  0.0385 -1.4975
  182SLPC  C31520856   6.037   1.074   4.035  0.4374  0.5435  0.1096
  182SLPC  H15X20857   6.093   1.083   3.940 -1.1026  0.0343 -0.8897
  182SLPC  H15Y20858   6.055   0.972   4.077 -2.0902 -0.7779 -1.7145
  182SLPC  C31620859   6.083   1.172   4.155 -0.5179  0.1388  0.4461
  182SLPC  H16X20860   6.078   1.279   4.124  1.7681  0.3565  0.6579
  182SLPC  H16Y20861   6.192   1.156   4.165 -0.7216 -0.4017  1.9211
  182SLPC  C31720862   6.006   1.163   4.284  0.0811  0.4742 -0.1113
  182SLPC  H17X20863   6.009   1.053   4.301 -0.0942 -0.2228 -3.7924
  182SLPC  H17Y20864   5.897   1.184   4.275  0.3556  1.0254 -3.3607
  182SLPC  C31820865   6.069   1.250   4.402 -0.1118 -0.0557 -0.4577
  182SLPC  H18X20866   6.166   1.202   4.429 -0.1360 -0.3899 -0.9588
  182SLPC  H18Y20867   5.989   1.244   4.479  1.0582 -1.4913  0.7370
  182SLPC  H18Z20868   6.087   1.353   4.365  3.0762 -0.6255 -0.7920
  183SLPC     N20869   1.184   3.407   1.919 -0.2918 -0.1441 -0.4660
  183SLPC   C1320870   1.187   3.488   1.786 -0.3298 -1.2315  0.4433
  183SLPC  H13A20871   1.236   3.437   1.704 -0.9697 -2.4747  0.8265
  183SLPC  H13B20872   1.089   3.502   1.743 -0.0039  0.4975  0.1839
  183SLPC  H13C20873   1.241   3.579   1.808 -1.2746 -0.8166  1.1278
  183SLPC   C1420874   1.322   3.349   1.937  0.6341  0.2779  0.7814
  183SLPC  H14A20875   1.392   3.416   1.985 -1.1701  2.7809  0.1209
  183SLPC  H14B20876   1.309   3.268   2.007 -0.8480  0.9391  1.3170
  183SLPC  H14C20877   1.363   3.306   1.847  0.4025 -1.1320  1.3219
  183SLPC   C1520878   1.088   3.287   1.899 -0.1095  0.1443  0.3747
  183SLPC  H15A20879   1.120   3.213   1.826  0.4200  0.2116  0.5306
  183SLPC  H15B20880   1.082   3.233   1.991 -1.5499 -2.8485 -1.3340
  183SLPC  H15C20881   0.993   3.332   1.872  0.8052  3.6054  2.2477
  183SLPC   C1220882   1.127   3.501   2.031 -0.1345 -0.5095  0.2230
  183SLPC  H12A20883   1.022   3.520   2.011  0.5773  0.7236 -3.1117
  183SLPC  H12B20884   1.174   3.598   2.032 -1.1311  0.0296 -1.2075
  183SLPC   C1120885   1.128   3.467   2.180 -0.5837  0.4432 -0.1697
  183SLPC  H11A20886   1.093   3.361   2.191  1.0682 -0.4349 -2.6543
  183SLPC  H11B20887   1.066   3.529   2.248  0.1736 -0.5502  1.5066
  183SLPC     P20888   1.341   3.610   2.253 -0.2668  0.0898  0.1845
  183SLPC   O1320889   1.486   3.582   2.261 -0.1456  0.2110  0.2335
  183SLPC   O1420890   1.305   3.706   2.148  0.0688 -0.1321  0.3189
  183SLPC   O1220891   1.254   3.474   2.237  0.3354 -0.0696 -0.0222
  183SLPC   O1120892   1.297   3.665   2.387  0.5748 -0.1729  0.4630
  183SLPC    C120893   1.242   3.574   2.486  0.3612 -0.3802  0.0112
  183SLPC    HA20894   1.139   3.542   2.462 -0.1786  0.9571  0.4702
  183SLPC    HB20895   1.313   3.495   2.519  0.5993  0.4927  1.6488
  183SLPC    C220896   1.212   3.647   2.617  0.0653 -0.1411 -0.1402
  183SLPC    HS20897   1.149   3.735   2.593  1.5412  0.7295 -1.0001
  183SLPC   O2120898   1.334   3.682   2.678  0.2049 -0.0574  0.3772
  183SLPC   C2120899   1.329   3.792   2.743 -0.0959  0.4597  0.0522
  183SLPC   O2220900   1.232   3.859   2.777 -0.4336 -0.9791 -0.5218
  183SLPC   C2220901   1.474   3.827   2.770 -0.2602 -0.5101 -1.3672
  183SLPC   H2R20902   1.504   3.890   2.684 -2.6596  2.5191 -0.1789
  183SLPC   H2S20903   1.476   3.907   2.848  0.8427 -0.7879 -1.0882
  183SLPC    C320904   1.136   3.558   2.703 -0.2655  0.1852 -0.0880
  183SLPC    HX20905   1.175   3.456   2.682 -0.6551  0.1423 -0.6402
  183SLPC    HY20906   1.031   3.544   2.669  0.0499 -0.8205 -0.6789
  183SLPC   O3120907   1.135   3.598   2.845  0.3072  0.3992  0.3612
  183SLPC   C3120908   1.042   3.542   2.912  0.1556  0.1854  0.3334
  183SLPC   O3220909   0.973   3.449   2.869  0.1325 -0.1053 -0.0230
  183SLPC   C3220910   1.040   3.607   3.056 -0.1094  0.7564  0.6026
  183SLPC   H2X20911   0.977   3.698   3.053 -0.7778  0.2754 -0.4836
  183SLPC   H2Y20912   1.147   3.621   3.086 -0.1485 -1.1454  1.8025
  183SLPC   C2320913   1.563   3.709   2.806 -0.0346  0.1639  0.1246
  183SLPC   H3R20914   1.667   3.750   2.812  0.2256 -0.6348  1.8809
  183SLPC   H3S20915   1.558   3.631   2.727 -2.0514  1.9637 -1.6552
  183SLPC   C2420916   1.536   3.639   2.942  0.0864  0.4249  0.3870
  183SLPC   H4R20917   1.613   3.559   2.957  0.0604  0.3546  0.1490
  183SLPC   H4S20918   1.438   3.589   2.930  0.5688 -0.0177 -2.2987
  183SLPC   C2520919   1.523   3.725   3.068 -0.3583  0.5264  0.6630
  183SLPC   H5R20920   1.436   3.793   3.054 -0.5987  1.0463  3.9563
  183SLPC   H5S20921   1.620   3.776   3.087 -1.7275  2.6595  2.3586
  183SLPC   C2620922   1.476   3.632   3.187  0.3010  0.3625  0.0060
  183SLPC   H6R20923   1.552   3.551   3.180  1.5497  1.4371  0.6111
  183SLPC   H6S20924   1.378   3.589   3.158  1.0541 -1.6104  0.2241
  183SLPC   C2720925   1.466   3.708   3.317 -0.4444  0.0649 -0.6972
  183SLPC   H7R20926   1.392   3.790   3.304 -0.1834  0.8244  2.0123
  183SLPC   H7S20927   1.565   3.747   3.349  1.0237 -2.1109 -2.3038
  183SLPC   C2820928   1.400   3.619   3.433 -0.3114 -0.3479  0.4235
  183SLPC   H8R20929   1.309   3.577   3.384 -0.0836  1.8559 -2.1228
  183SLPC   H8S20930   1.368   3.693   3.509  2.0819  0.6257  0.5643
  183SLPC   C2920931   1.490   3.511   3.476 -0.0878  0.6767  0.8212
  183SLPC   H9R20932   1.484   3.418   3.417 -1.5105  1.8085 -0.9163
  183SLPC  C21020933   1.555   3.508   3.593  0.3233 -0.4842  0.1965
  183SLPC  H10R20934   1.614   3.421   3.626 -0.8465 -0.6789  1.9140
  183SLPC  C21120935   1.567   3.624   3.694 -0.2387 -0.3004  0.5039
  183SLPC  H11R20936   1.495   3.596   3.774 -2.8198  1.2681 -1.1317
  183SLPC  H11S20937   1.528   3.712   3.640 -1.5588 -1.6643 -0.8968
  183SLPC  C21220938   1.700   3.661   3.759  0.4149  1.0605  0.6560
  183SLPC  H12R20939   1.759   3.572   3.787 -0.6892 -0.1072 -0.5754
  183SLPC  C21320940   1.763   3.782   3.757  0.6146  0.4977  0.1705
  183SLPC  H13R20941   1.865   3.784   3.800  0.0371 -0.9940  1.7031
  183SLPC  C21420942   1.708   3.908   3.697 -0.2594  0.1834 -0.5615
  183SLPC  H14R20943   1.744   3.996   3.756 -0.0056 -0.3875  0.1514
  183SLPC  H14S20944   1.597   3.904   3.701 -0.1940 -0.8353  1.3644
  183SLPC  C21520945   1.770   3.905   3.554  0.6637 -0.7466  0.3569
  183SLPC  H15R20946   1.746   3.808   3.506  0.5310 -0.2914 -0.5119
  183SLPC  H15S20947   1.881   3.915   3.545  0.7703 -2.8578 -1.8468
  183SLPC  C21620948   1.707   4.026   3.476  1.0012 -0.1077 -0.3379
  183SLPC  H16R20949   1.699   4.104   3.555  0.3441 -2.1540  1.7242
  183SLPC  H16S20950   1.603   4.002   3.445  1.0146 -0.6587  0.0389
  183SLPC  C21720951   1.785   4.063   3.351  0.5382 -0.5442  0.3693
  183SLPC  H17R20952   1.792   3.979   3.278  0.4399  0.9548 -1.4243
  183SLPC  H17S20953   1.888   4.097   3.373  1.5412 -2.5978 -0.8543
  183SLPC  C21820954   1.709   4.179   3.274  0.0588  0.1898 -0.4878
  183SLPC  H18R20955   1.789   4.224   3.212  0.2036 -0.0310 -0.4622
  183SLPC  H18S20956   1.681   4.260   3.344  1.0062 -0.0033  0.1179
  183SLPC  H18T20957   1.620   4.141   3.218  1.4014  0.6236 -3.0911
  183SLPC   C3320958   0.976   3.515   3.169 -0.6457 -0.0852 -0.3400
  183SLPC   H3X20959   1.043   3.426   3.169  2.6437  2.2027  0.4551
  183SLPC   H3Y20960   0.876   3.481   3.133 -1.9031  0.9194  2.0007
  183SLPC   C3420961   0.961   3.578   3.307 -0.7200  0.4274 -0.2923
  183SLPC   H4X20962   0.865   3.631   3.324 -0.1712  1.2738  0.2562
  183SLPC   H4Y20963   1.047   3.645   3.328 -0.6883 -0.1928  1.7573
  183SLPC   C3520964   0.985   3.479   3.415 -0.2568  0.1954 -0.4162
  183SLPC   H5X20965   1.086   3.434   3.410 -0.0508  0.4264  1.1498
  183SLPC   H5Y20966   0.914   3.395   3.398  0.8486 -0.6348 -1.0499
  183SLPC   C3620967   0.949   3.544   3.553 -0.4007  0.5168  0.4128
  183SLPC   H6X20968   0.846   3.584   3.555  0.0199  1.7066 -0.6912
  183SLPC   H6Y20969   1.018   3.630   3.564  0.4183  0.0517 -0.8172
  183SLPC   C3720970   0.975   3.451   3.669 -0.1116  0.7127  0.2983
  183SLPC   H7X20971   1.084   3.436   3.685 -0.1787 -0.4282 -0.1606
  183SLPC   H7Y20972   0.925   3.352   3.658  0.4816  0.6537 -2.4051
  183SLPC   C3820973   0.907   3.504   3.799 -0.5637  0.2224 -0.8666
  183SLPC   H8X20974   0.800   3.515   3.771 -0.5195  0.3462 -0.9864
  183SLPC   H8Y20975   0.946   3.606   3.817 -1.2066  0.5217 -1.1488
  183SLPC   C3920976   0.935   3.421   3.926  0.0508 -0.1325  0.3003
  183SLPC   H9X20977   1.029   3.445   3.980 -0.1515  0.5949  0.3399
  183SLPC   H9Y20978   0.931   3.317   3.887 -0.1820  0.1626 -0.4856
  183SLPC  C31020979   0.826   3.438   4.033 -0.1554  0.4039 -0.2513
  183SLPC  H10X20980   0.735   3.392   3.987 -0.2730 -1.0854  1.3570
  183SLPC  H10Y20981   0.810   3.548   4.032 -2.8891  0.1118 -1.8536
  183SLPC  C31120982   0.855   3.373   4.169 -0.4153 -0.4810 -0.2510
  183SLPC  H11X20983   0.960   3.405   4.186 -0.3227 -1.8000  2.0564
  183SLPC  H11Y20984   0.850   3.262   4.172 -2.2389 -0.4147  0.0998
  183SLPC  C31220985   0.785   3.446   4.289 -0.2439  0.1343 -0.0591
  183SLPC  H12X20986   0.675   3.429   4.295 -0.6564  1.9107 -1.7078
  183SLPC  H12Y20987   0.804   3.554   4.277 -0.6872  0.6435  3.1272
  183SLPC  C31320988   0.850   3.408   4.421 -0.1232  0.3333 -0.1678
  183SLPC  H13X20989   0.805   3.472   4.499  1.4415 -1.1801  2.0962
  183SLPC  H13Y20990   0.961   3.413   4.428 -0.0246  0.1425 -1.3168
  183SLPC  C31420991   0.820   3.259   4.457  0.1328  0.1996 -0.3388
  183SLPC  H14X20992   0.866   3.197   4.377  3.0395  1.4488  0.2380
  183SLPC  H14Y20993   0.712   3.235   4.466 -0.0815  0.5657 -1.7216
  183SLPC  C31520994   0.888   3.211   4.577  0.7186 -0.2720 -0.2590
  183SLPC  H15X20995   0.989   3.258   4.576 -0.0013  1.3724  0.1882
  183SLPC  H15Y20996   0.886   3.100   4.573 -1.6778 -0.2464 -1.9451
  183SLPC  C31620997   0.825   3.258   4.704 -0.1563  0.0722 -1.0054
  183SLPC  H16X20998   0.731   3.201   4.723 -0.1383  0.3762  0.0708
  183SLPC  H16Y20999   0.788   3.362   4.718  0.8503  0.1158  1.8447
  183SLPC  C31721000   0.914   3.233   4.820  0.2270  0.5781 -0.1586
  183SLPC  H17X21001   0.900   3.304   4.904  0.9225 -0.4546  0.8599
  183SLPC  H17Y21002   1.013   3.249   4.771  0.3009  0.5659 -0.0144
  183SLPC  C31821003   0.907   3.090   4.881 -0.3943  0.6308  0.4458
  183SLPC  H18X21004   0.999   3.068   4.939 -0.2263  0.0909 -0.0147
  183SLPC  H18Y21005   0.905   3.020   4.795 -1.2889  0.3839  0.6557
  183SLPC  H18Z21006   0.813   3.071   4.937 -1.8004  2.3984 -1.1634
  184SLPC     N21007   6.875   4.109   2.075  0.1949  0.0187 -0.3477
  184SLPC   C1321008   6.737   4.041   2.051 -0.2771  0.4291 -0.6894
  184SLPC  H13A21009   6.665   4.065   2.129  0.1652 -1.6226  0.4208
  184SLPC  H13B21010   6.710   4.056   1.948  1.8731 -1.7810 -1.6540
  184SLPC  H13C21011   6.751   3.936   2.072  1.1567  0.4548 -1.4569
  184SLPC   C1421012   6.855   4.254   2.054 -0.0201  0.0535 -0.3707
  184SLPC  H14A21013   6.791   4.289   2.134 -0.6065 -1.2221 -0.2635
  184SLPC  H14B21014   6.954   4.297   2.054 -0.4844  1.1762 -0.2485
  184SLPC  H14C21015   6.815   4.274   1.956 -0.3279 -0.9169 -0.4486
  184SLPC   C1521016   6.972   4.059   1.979 -0.4872  0.4638 -0.1876
  184SLPC  H15A21017   7.062   4.119   1.986  0.3542 -0.4820 -2.0161
  184SLPC  H15B21018   6.989   3.954   1.994 -0.8378  0.2606 -1.1205
  184SLPC  H15C21019   6.942   4.074   1.876  0.1908 -2.0793 -0.8004
  184SLPC   C1221020   6.914   4.082   2.221  0.1150 -0.1073 -1.0688
  184SLPC  H12A21021   7.016   4.111   2.242 -0.2544  1.5639 -1.4301
  184SLPC  H12B21022   6.922   3.975   2.235 -0.5960 -0.1199 -0.7108
  184SLPC   C1121023   6.816   4.147   2.327 -0.5438 -0.5225 -0.3162
  184SLPC  H11A21024   6.831   4.092   2.422  0.9852  1.8870  0.9403
  184SLPC  H11B21025   6.711   4.128   2.294 -1.2237  4.0561 -1.4721
  184SLPC     P21026   6.943   4.343   2.433 -0.4282 -0.2159 -0.2819
  184SLPC   O1321027   7.068   4.273   2.395 -0.6190  0.4735  0.0810
  184SLPC   O1421028   6.945   4.491   2.437 -0.0829  0.1916 -0.3747
  184SLPC   O1221029   6.829   4.286   2.340  0.2637 -0.5247  0.3856
  184SLPC   O1121030   6.907   4.285   2.570 -0.0343  0.3927 -0.3350
  184SLPC    C121031   6.768   4.288   2.616  0.3132  0.1903  0.2238
  184SLPC    HA21032   6.735   4.393   2.605  1.2690  0.4075 -0.6768
  184SLPC    HB21033   6.706   4.208   2.568 -0.8182 -0.4514  2.5912
  184SLPC    C221034   6.754   4.235   2.762  0.0277  0.4154  0.3152
  184SLPC    HS21035   6.646   4.217   2.781  0.4267 -0.2392  2.1639
  184SLPC   O2121036   6.810   4.319   2.861  0.1305  0.3167  0.5909
  184SLPC   C2121037   6.743   4.425   2.879 -0.2476 -0.5868 -0.1970
  184SLPC   O2221038   6.634   4.450   2.827 -0.2606 -0.5107  0.0848
  184SLPC   C2221039   6.796   4.514   2.990 -0.4144 -0.2902 -0.0153
  184SLPC   H2R21040   6.902   4.484   3.007 -0.6946 -1.1398  0.3076
  184SLPC   H2S21041   6.796   4.620   2.957 -2.3670 -0.4835 -0.8083
  184SLPC    C321042   6.834   4.101   2.765  0.8589  0.0886  0.5973
  184SLPC    HX21043   6.943   4.120   2.758  1.2921 -2.3460  0.0172
  184SLPC    HY21044   6.821   4.034   2.678  0.6638 -2.7097  2.6605
  184SLPC   O3121045   6.815   4.022   2.883 -0.5003  0.4499 -0.8036
  184SLPC   C3121046   6.702   3.950   2.890  0.1780 -0.0730  0.0311
  184SLPC   O3221047   6.607   3.962   2.813  0.3753 -0.1991  0.2419
  184SLPC   C3221048   6.694   3.847   3.004  0.3022  0.1796  1.0994
  184SLPC   H2X21049   6.797   3.816   3.033  0.4085 -0.2141  0.3374
  184SLPC   H2Y21050   6.636   3.764   2.957  1.0653  1.0513 -1.5735
  184SLPC   C2321051   6.708   4.510   3.118  0.4433 -0.3227  0.5685
  184SLPC   H3R21052   6.751   4.437   3.190  0.3030 -0.9692  0.0090
  184SLPC   H3S21053   6.604   4.480   3.091  0.0630  1.6689 -0.3440
  184SLPC   C2421054   6.689   4.649   3.196  1.0809  1.0424  0.2435
  184SLPC   H4R21055   6.652   4.715   3.115 -0.0477 -0.6303 -0.6606
  184SLPC   H4S21056   6.791   4.671   3.234  1.2920 -1.3958  1.3244
  184SLPC   C2521057   6.585   4.643   3.309 -0.3443  1.2016  0.4612
  184SLPC   H5R21058   6.487   4.618   3.262  0.2516  1.5424 -0.9908
  184SLPC   H5S21059   6.588   4.746   3.350  2.0426  0.2287  3.0921
  184SLPC   C2621060   6.619   4.533   3.412 -0.1444 -0.3766  0.0027
  184SLPC   H6R21061   6.700   4.570   3.479  0.4592 -2.8048  0.6958
  184SLPC   H6S21062   6.652   4.447   3.350 -1.5830 -0.2405 -1.0078
  184SLPC   C2721063   6.500   4.508   3.508 -0.6667  0.6694  0.2818
  184SLPC   H7R21064   6.407   4.491   3.451 -1.2890 -2.3824  1.9932
  184SLPC   H7S21065   6.480   4.605   3.559  1.9711  2.7245 -2.2097
  184SLPC   C2821066   6.516   4.394   3.613 -0.3652 -0.2784 -1.0752
  184SLPC   H8R21067   6.598   4.430   3.678 -1.3251 -1.1276  0.6881
  184SLPC   H8S21068   6.548   4.303   3.558  0.0553  0.3040 -1.8029
  184SLPC   C2921069   6.392   4.372   3.703 -0.1565 -0.9299 -0.2183
  184SLPC   H9R21070   6.298   4.359   3.648 -0.5880  1.7513 -0.2404
  184SLPC  C21021071   6.387   4.381   3.838 -0.0322  0.6971  0.0406
  184SLPC  H10R21072   6.289   4.365   3.885  0.5865 -2.0160  0.5660
  184SLPC  C21121073   6.507   4.409   3.929  0.1506  0.4637  0.2364
  184SLPC  H11R21074   6.476   4.506   3.974  1.7338  0.8294  0.6019
  184SLPC  H11S21075   6.603   4.423   3.875  0.1148 -1.5765 -0.4344
  184SLPC  C21221076   6.505   4.311   4.044 -0.4907  0.3570 -0.2138
  184SLPC  H12R21077   6.435   4.227   4.037  0.8549 -0.9441  1.1626
  184SLPC  C21321078   6.583   4.316   4.158 -0.2123 -0.3656  0.7150
  184SLPC  H13R21079   6.584   4.233   4.231 -0.0713 -1.1652 -0.1663
  184SLPC  C21421080   6.675   4.436   4.179  0.2396 -0.1953 -0.0052
  184SLPC  H14R21081   6.621   4.532   4.164  0.6013 -0.3640 -2.8142
  184SLPC  H14S21082   6.750   4.433   4.098 -1.0931  1.9845 -1.3936
  184SLPC  C21521083   6.747   4.421   4.317  0.0609  1.0576  0.8479
  184SLPC  H15R21084   6.672   4.416   4.399 -0.8185 -0.5858  0.0048
  184SLPC  H15S21085   6.796   4.519   4.334  0.4677  0.9417  0.3587
  184SLPC  C21621086   6.836   4.292   4.335  0.0776  0.4373  0.0009
  184SLPC  H16R21087   6.874   4.258   4.236 -0.2551 -1.8172  0.5883
  184SLPC  H16S21088   6.767   4.216   4.378 -0.2772  1.4837  1.3302
  184SLPC  C21721089   6.947   4.322   4.445 -0.1999  0.2250  0.1570
  184SLPC  H17R21090   7.013   4.407   4.420  0.8591 -0.5111  0.3632
  184SLPC  H17S21091   7.013   4.232   4.446  0.9047  1.0022 -0.4490
  184SLPC  C21821092   6.896   4.345   4.588  0.0422 -0.0885  0.5004
  184SLPC  H18R21093   6.978   4.341   4.663 -0.9514  0.4691  1.6599
  184SLPC  H18S21094   6.825   4.266   4.619  0.0511  0.9138  3.4076
  184SLPC  H18T21095   6.849   4.445   4.599  0.3290  0.0172  0.7838
  184SLPC   C3321096   6.605   3.898   3.118  0.0820  0.3450  0.9756
  184SLPC   H3X21097   6.498   3.900   3.088  0.4077 -0.5035 -0.3072
  184SLPC   H3Y21098   6.625   4.003   3.147  0.5074  0.3546  0.6546
  184SLPC   C3421099   6.610   3.799   3.233 -0.5211 -0.2453  0.2942
  184SLPC   H4X21100   6.714   3.784   3.270 -0.9708  0.5304  1.9281
  184SLPC   H4Y21101   6.584   3.697   3.197 -2.0070  0.2897 -0.2111
  184SLPC   C3521102   6.515   3.835   3.346 -0.6380 -0.3253 -0.7668
  184SLPC   H5X21103   6.411   3.811   3.315 -1.0948 -1.9163  1.7777
  184SLPC   H5Y21104   6.523   3.943   3.371  3.4831 -0.4135 -0.9760
  184SLPC   C3621105   6.564   3.748   3.469  0.2877  0.1634 -0.0642
  184SLPC   H6X21106   6.674   3.740   3.479  0.4007 -0.6022 -1.6404
  184SLPC   H6Y21107   6.527   3.646   3.446  3.0289 -0.4035 -2.6792
  184SLPC   C3721108   6.508   3.793   3.600  0.6964 -1.0894  0.1129
  184SLPC   H7X21109   6.397   3.789   3.599  0.4316  2.3094 -2.3581
  184SLPC   H7Y21110   6.525   3.903   3.608  0.4401 -1.0662  0.3584
  184SLPC   C3821111   6.556   3.718   3.722 -0.0722  0.1024  0.5109
  184SLPC   H8X21112   6.658   3.748   3.756  1.3761 -1.0798 -2.4494
  184SLPC   H8Y21113   6.556   3.613   3.686 -1.4693  1.1636 -2.9527
  184SLPC   C3921114   6.460   3.728   3.837  0.0282  0.1976 -0.6371
  184SLPC   H9X21115   6.354   3.720   3.805  0.2154 -0.1209 -1.1864
  184SLPC   H9Y21116   6.471   3.824   3.892  1.5089 -0.8321  0.9819
  184SLPC  C31021117   6.495   3.613   3.933 -0.5012 -0.8637  0.1726
  184SLPC  H10X21118   6.605   3.608   3.950 -0.5435  0.6917  1.0595
  184SLPC  H10Y21119   6.467   3.511   3.897  0.5923 -0.5558 -1.7231
  184SLPC  C31121120   6.435   3.642   4.072  0.2582  0.7100  0.9439
  184SLPC  H11X21121   6.325   3.648   4.078  0.3237  0.6210  2.6167
  184SLPC  H11Y21122   6.473   3.740   4.108 -0.1841  0.5598  1.8588
  184SLPC  C31221123   6.472   3.532   4.169  0.3138  0.5013 -0.0263
  184SLPC  H12X21124   6.455   3.575   4.270 -0.0645  2.9907 -1.0791
  184SLPC  H12Y21125   6.583   3.526   4.161  0.2400  1.1697 -2.7905
  184SLPC  C31321126   6.409   3.394   4.155  0.2904 -0.1505 -0.1144
  184SLPC  H13X21127   6.463   3.328   4.227  0.3830 -0.4873 -0.4869
  184SLPC  H13Y21128   6.418   3.354   4.052 -2.4213 -0.5412 -0.2605
  184SLPC  C31421129   6.262   3.378   4.190 -0.5254 -0.6000 -0.0784
  184SLPC  H14X21130   6.215   3.295   4.134 -0.5876 -0.6829  0.0972
  184SLPC  H14Y21131   6.206   3.467   4.154 -0.3595  0.6955  2.6185
  184SLPC  C31521132   6.247   3.374   4.344  0.4652  0.9210  0.8613
  184SLPC  H15X21133   6.166   3.445   4.369 -0.3887  1.5476 -3.0895
  184SLPC  H15Y21134   6.333   3.414   4.402  1.1131 -0.5173  0.9402
  184SLPC  C31621135   6.224   3.229   4.397  0.2168  0.2318 -0.1505
  184SLPC  H16X21136   6.315   3.175   4.365 -1.0274 -1.6814 -0.6060
  184SLPC  H16Y21137   6.147   3.172   4.341 -0.1019 -0.7996  1.2839
  184SLPC  C31721138   6.199   3.224   4.549 -0.1695  0.2648  0.2875
  184SLPC  H17X21139   6.102   3.277   4.565  0.7932  1.3284  3.2302
  184SLPC  H17Y21140   6.274   3.280   4.609 -0.5941  0.8114  0.3237
  184SLPC  C31821141   6.201   3.086   4.604 -0.2275  0.0992  0.2072
  184SLPC  H18X21142   6.107   3.031   4.579  1.1470 -1.9030 -0.7827
  184SLPC  H18Y21143   6.214   3.099   4.714 -1.5521 -0.4436  0.4554
  184SLPC  H18Z21144   6.284   3.028   4.558 -1.4758 -1.2082 -0.4876
  185POPC     N21145   1.140   4.925   6.699 -0.1251 -0.1945  0.4234
  185POPC   C1221146   1.018   4.993   6.649 -0.5262  0.1723  0.0086
  185POPC  H12A21147   1.038   5.025   6.548  2.2616  0.0369  0.4399
  185POPC  H12B21148   0.985   5.075   6.712  1.1174  0.9819 -0.1342
  185POPC   C1321149   1.130   4.888   6.844  0.0894  0.5655 -0.7994
  185POPC  H13A21150   1.076   4.797   6.865  0.4565  0.7568  1.1204
  185POPC  H13B21151   1.228   4.870   6.885  0.8324 -1.6344 -3.2641
  185POPC  H13C21152   1.081   4.962   6.905  1.1176 -0.0653  0.8457
  185POPC   C1421153   1.174   4.805   6.618  0.2010 -0.4132  0.5632
  185POPC  H14A21154   1.248   4.752   6.676 -0.3562 -0.2273  1.4632
  185POPC  H14B21155   1.086   4.743   6.603  0.4147 -0.0441 -3.1648
  185POPC  H14C21156   1.217   4.819   6.520 -1.6009 -3.7523 -0.8823
  185POPC   C1521157   1.256   5.023   6.700  0.3241  0.0236  0.4488
  185POPC  H15A21158   1.346   4.976   6.735 -0.6652 -0.4228  2.5641
  185POPC  H15B21159   1.225   5.109   6.757 -0.0479 -0.6283  1.2540
  185POPC  H15C21160   1.279   5.059   6.600 -0.3887  1.0538  0.6408
  185POPC   C1121161   0.891   4.910   6.622  0.1055  0.1716  0.1331
  185POPC  H11A21162   0.910   4.875   6.518  2.7595 -0.5795  0.7964
  185POPC  H11B21163   0.799   4.972   6.610 -0.2147 -0.4854 -0.9396
  185POPC     P21164   0.830   4.654   6.675 -0.1497  0.1589 -0.1530
  185POPC   O1321165   0.780   4.583   6.791 -0.0126 -0.5124  0.0014
  185POPC   O1421166   0.948   4.596   6.615 -1.1188 -0.1930 -0.4071
  185POPC   O1221167   0.846   4.807   6.716 -0.4766  0.1180 -0.0667
  185POPC   O1121168   0.718   4.655   6.569  0.4069 -0.2197 -0.4687
  185POPC    C121169   0.633   4.540   6.533 -0.0068 -0.2537 -0.7094
  185POPC    HA21170   0.539   4.551   6.590  1.3344  1.2358  1.3646
  185POPC    HB21171   0.679   4.445   6.569 -2.0666 -1.3284 -0.7555
  185POPC    C221172   0.605   4.536   6.379  0.4979  0.4950  0.3792
  185POPC    HS21173   0.706   4.530   6.334  0.5541 -4.0077  0.6179
  185POPC   O2121174   0.522   4.650   6.339  0.2135 -0.0149 -0.3829
  185POPC   C2121175   0.594   4.754   6.299  0.2017 -0.3998 -0.1817
  185POPC   O2221176   0.715   4.755   6.288 -0.5188 -0.1396  0.6502
  185POPC   C2221177   0.497   4.874   6.272 -0.0460 -0.4598  0.0394
  185POPC   H2R21178   0.474   4.910   6.375 -0.4400 -1.7412  0.4204
  185POPC   H2S21179   0.410   4.838   6.214 -0.2627 -0.5929  0.4421
  185POPC    C321180   0.527   4.407   6.335  0.1476 -0.6659 -0.6143
  185POPC    HX21181   0.421   4.422   6.363  0.5973  0.7702  0.4309
  185POPC    HY21182   0.566   4.326   6.401  1.2628 -1.0787 -1.7341
  185POPC   O3121183   0.525   4.374   6.198  0.1210 -0.8787  0.3505
  185POPC   C3121184   0.642   4.354   6.137  0.0788  0.2929  1.0453
  185POPC   O3221185   0.746   4.339   6.192  0.8105 -0.1852 -0.2307
  185POPC   C3221186   0.646   4.362   5.990  0.8488 -0.7284  0.4817
  185POPC   H2X21187   0.541   4.370   5.954  0.7940  0.4998  0.8446
  185POPC   H2Y21188   0.684   4.267   5.947 -1.4090 -0.3897 -2.6058
  185POPC   C2321189   0.567   4.991   6.187  0.4400  0.3781 -0.6202
  185POPC   H3R21190   0.678   4.987   6.200  0.2875 -2.9171  0.4623
  185POPC   H3S21191   0.524   5.080   6.238 -2.1162 -0.7733 -0.6707
  185POPC   C2421192   0.541   4.997   6.037 -0.1525  0.2463  0.4261
  185POPC   H4R21193   0.592   4.922   5.974  0.7405 -0.0206  1.4329
  185POPC   H4S21194   0.576   5.100   6.016 -0.3152  0.0568 -0.8523
  185POPC   C2521195   0.396   4.990   6.003  0.3875 -0.1568 -0.6937
  185POPC   H5R21196   0.344   5.050   6.081 -1.4518 -0.4449 -1.6551
  185POPC   H5S21197   0.360   4.886   6.020 -0.0916  0.4260  2.4250
  185POPC   C2621198   0.366   5.047   5.865 -0.4356  0.2885 -0.1064
  185POPC   H6R21199   0.430   4.983   5.801  1.2216  1.6988  0.0708
  185POPC   H6S21200   0.410   5.149   5.862  0.1681  0.0171 -0.5395
  185POPC   C2721201   0.220   5.042   5.818  0.2169  0.1552  0.4000
  185POPC   H7R21202   0.157   5.088   5.897  1.5262  0.0530  1.5396
  185POPC   H7S21203   0.187   4.937   5.805  0.5270 -0.1449  1.8297
  185POPC   C2821204   0.189   5.104   5.686 -0.0713 -0.1395  0.0717
  185POPC   H8R21205   0.202   5.214   5.692 -0.3381 -0.1502  1.1291
  185POPC   H8S21206   0.079   5.096   5.671  0.0101  0.6865 -1.1243
  185POPC   C2921207   0.270   5.057   5.566 -0.4056 -0.7631 -0.4496
  185POPC   H9121208   0.377   5.036   5.573 -0.0726  1.2244  1.2676
  185POPC  C21021209   0.207   5.047   5.442 -0.0361  1.1879 -0.5983
  185POPC  H10121210   0.276   5.008   5.366  0.0787 -0.4284  0.2828
  185POPC  C21121211   0.066   5.061   5.411  0.4204 -0.1088  0.4210
  185POPC  H11R21212   0.052   5.135   5.329 -0.2096 -2.2644 -1.5332
  185POPC  H11S21213   0.014   5.104   5.499  0.6805 -0.7526  0.8993
  185POPC  C21221214  -0.002   4.925   5.366 -0.6034 -0.2571 -0.0280
  185POPC  H12R21215   0.072   4.865   5.309 -0.7318  0.3497 -0.8523
  185POPC  H12S21216  -0.084   4.954   5.297  0.0904 -3.7300 -2.5865
  185POPC  C21321217  -0.057   4.842   5.480  0.0425 -0.0186 -0.1645
  185POPC  H13R21218  -0.149   4.896   5.511  0.9652  2.2544 -1.1885
  185POPC  H13S21219   0.004   4.849   5.573 -0.7300 -3.2231  0.7101
  185POPC  C21421220  -0.072   4.698   5.461  0.6971  0.2828  0.1327
  185POPC  H14R21221   0.011   4.636   5.421  0.4031 -1.3823  1.9357
  185POPC  H14S21222  -0.157   4.695   5.390 -0.1267 -0.5554  1.1243
  185POPC  C21521223  -0.126   4.631   5.591 -0.0544  0.1498 -1.2821
  185POPC  H15R21224  -0.218   4.683   5.625  1.0652 -0.6601  3.6845
  185POPC  H15S21225  -0.054   4.632   5.676 -0.9516 -0.1575 -0.5094
  185POPC  C21621226  -0.147   4.477   5.571 -0.0298 -0.1971  0.8333
  185POPC  H16R21227  -0.058   4.452   5.509  1.0074  0.9626  1.7804
  185POPC  H16S21228  -0.244   4.463   5.520  0.4403  1.7228 -0.6930
  185POPC  C21721229  -0.138   4.399   5.707  0.2494  0.0123 -0.1008
  185POPC  H17R21230  -0.037   4.416   5.749 -0.3593  0.6790  1.1515
  185POPC  H17S21231  -0.150   4.290   5.685 -1.0109  0.1773 -0.3048
  185POPC  C21821232  -0.233   4.453   5.820  0.1732 -0.0735  0.2824
  185POPC  H18R21233  -0.228   4.563   5.838  0.5901  0.5097 -2.8804
  185POPC  H18S21234  -0.196   4.412   5.917  1.2180 -0.3854 -0.2308
  185POPC  H18T21235  -0.338   4.426   5.795  0.5812 -2.0914  0.5908
  185POPC   C3321236   0.731   4.478   5.937  0.5144 -0.1676 -0.0667
  185POPC   H3X21237   0.835   4.487   5.975  0.9898 -1.0131 -1.0931
  185POPC   H3Y21238   0.672   4.569   5.960 -0.5750 -0.7856 -0.3385
  185POPC   C3421239   0.747   4.482   5.783 -0.2786  0.8102 -0.4512
  185POPC   H4X21240   0.644   4.494   5.742 -0.0084 -1.1884 -1.8640
  185POPC   H4Y21241   0.784   4.382   5.753  0.4891  0.8412  0.3590
  185POPC   C3521242   0.848   4.586   5.730 -0.0258  0.1347 -0.1709
  185POPC   H5X21243   0.943   4.542   5.768 -0.9984 -0.8827  1.1861
  185POPC   H5Y21244   0.828   4.685   5.776 -0.6623 -0.3767  0.6857
  185POPC   C3621245   0.841   4.606   5.585  0.2031 -0.2645  0.4870
  185POPC   H6X21246   0.910   4.684   5.545 -0.2262  0.3308  0.8883
  185POPC   H6Y21247   0.735   4.619   5.554  0.8995 -0.8002 -2.3614
  185POPC   C3721248   0.879   4.478   5.501  0.2397  0.2521  0.1017
  185POPC   H7X21249   0.826   4.385   5.532  0.1746  0.5077  0.7685
  185POPC   H7Y21250   0.981   4.448   5.533 -0.0351 -0.6233  0.1930
  185POPC   C3821251   0.863   4.489   5.349  0.0747 -0.6524 -0.4007
  185POPC   H8X21252   0.910   4.401   5.298 -0.7879 -1.1735 -0.3091
  185POPC   H8Y21253   0.906   4.585   5.314  1.4987 -1.3455 -0.6254
  185POPC   C3921254   0.716   4.500   5.300 -0.9216 -0.1753 -0.4071
  185POPC   H9X21255   0.689   4.606   5.283  2.8335  1.1704  1.0741
  185POPC   H9Y21256   0.659   4.455   5.384  0.3657  3.2118  2.5333
  185POPC  C31021257   0.697   4.428   5.165 -0.2692  0.3288 -0.5582
  185POPC  H10X21258   0.749   4.330   5.166 -0.9847 -0.0978 -2.1306
  185POPC  H10Y21259   0.734   4.496   5.085  0.7619 -0.7139 -0.9934
  185POPC  C31121260   0.544   4.392   5.146 -0.6463  0.0873  0.5765
  185POPC  H11X21261   0.485   4.484   5.164 -0.8835 -0.2299  1.4538
  185POPC  H11Y21262   0.520   4.320   5.227  1.0876  1.3511  2.3445
  185POPC  C31221263   0.503   4.328   5.011 -0.1446 -0.1611  0.5151
  185POPC  H12X21264   0.393   4.313   5.013 -0.0825 -0.8804 -0.6143
  185POPC  H12Y21265   0.556   4.230   5.010  0.7115  0.2775 -0.8126
  185POPC  C31321266   0.531   4.408   4.884 -0.4486  0.0599 -0.8291
  185POPC  H13X21267   0.488   4.349   4.802  1.3825  0.3335 -2.0445
  185POPC  H13Y21268   0.642   4.398   4.877 -0.5733 -4.1433  0.5980
  185POPC  C31421269   0.458   4.546   4.884 -0.1737  0.1569 -0.4831
  185POPC  H14X21270   0.489   4.590   4.981 -1.2616 -0.2946  0.0831
  185POPC  H14Y21271   0.348   4.530   4.885 -0.1206 -0.8457  2.5378
  185POPC  C31521272   0.499   4.626   4.763  0.1971 -0.2517 -0.1278
  185POPC  H15X21273   0.483   4.561   4.674 -2.6937  1.4594 -1.0118
  185POPC  H15Y21274   0.607   4.652   4.759 -0.3887  2.4878 -0.3988
  185POPC  C31621275   0.429   4.757   4.749  0.2243 -0.2996  0.5532
  185POPC  H16X21276   0.454   4.805   4.652  0.7617 -1.2489  0.2206
  185POPC  H16Y21277   0.439   4.835   4.828 -1.0894  0.0523  0.4014
  185POPC  H16Z21278   0.320   4.737   4.759  0.0227  0.2051 -0.4315
  186POPC     N21279   5.846   3.177   6.517 -0.0463 -0.2859 -0.9454
  186POPC   C1221280   5.837   3.317   6.462  0.2261  0.3412 -0.0159
  186POPC  H12A21281   5.853   3.316   6.355  0.5454  1.1358  0.0148
  186POPC  H12B21282   5.914   3.372   6.514  0.6131  1.4198 -1.6257
  186POPC   C1321283   5.776   3.167   6.654  0.2690  0.4501  0.1348
  186POPC  H13A21284   5.809   3.082   6.713  0.1170  1.0013  1.0285
  186POPC  H13B21285   5.793   3.253   6.717  0.7376  0.9741 -0.6825
  186POPC  H13C21286   5.670   3.160   6.639  0.4510 -0.8506 -0.6737
  186POPC   C1421287   5.776   3.081   6.429 -0.5075 -0.1482 -0.0943
  186POPC  H14A21288   5.813   3.084   6.328 -0.5144 -2.0041 -0.1756
  186POPC  H14B21289   5.764   2.981   6.467 -0.8084 -0.4891 -1.0610
  186POPC  H14C21290   5.674   3.117   6.426 -0.5554 -0.3768 -1.6400
  186POPC   C1521291   5.983   3.130   6.525 -0.6088 -0.5455  0.5371
  186POPC  H15A21292   5.989   3.027   6.556 -0.7968 -0.2726  1.5056
  186POPC  H15B21293   6.035   3.190   6.598  0.1002  0.7982 -0.9865
  186POPC  H15C21294   6.034   3.142   6.430  1.0564 -3.2321  0.9787
  186POPC   C1121295   5.706   3.397   6.483  0.5896 -0.2175  0.1541
  186POPC  H11A21296   5.736   3.492   6.435  1.7573 -0.9356 -0.5839
  186POPC  H11B21297   5.681   3.402   6.591  0.0360  2.4034 -0.0401
  186POPC     P21298   5.468   3.410   6.382 -0.0873 -0.0357 -0.1563
  186POPC   O1321299   5.472   3.543   6.450  0.1871  0.0474 -0.7884
  186POPC   O1421300   5.357   3.319   6.407 -0.4013 -0.6852  0.3831
  186POPC   O1221301   5.594   3.331   6.419 -0.0855  0.5771 -0.5448
  186POPC   O1121302   5.472   3.420   6.218 -0.8184 -0.4056  0.2221
  186POPC    C121303   5.463   3.296   6.142 -0.2108  0.2069  0.1037
  186POPC    HA21304   5.404   3.316   6.049 -0.3664 -2.4431 -0.4641
  186POPC    HB21305   5.406   3.214   6.191  2.0050 -0.6061  1.4839
  186POPC    C221306   5.597   3.231   6.100  0.3598 -0.1342  0.5959
  186POPC    HS21307   5.656   3.244   6.194 -0.1431 -1.9241  1.1956
  186POPC   O2121308   5.672   3.303   6.001  0.2498 -0.1390 -0.4339
  186POPC   C2121309   5.799   3.288   5.998  0.1219  0.0797 -0.1444
  186POPC   O2221310   5.862   3.217   6.075 -0.2038  0.2902 -0.0215
  186POPC   C2221311   5.852   3.391   5.908  0.0238 -0.1280  0.5382
  186POPC   H2R21312   5.957   3.368   5.883  0.5324  2.4000  0.1251
  186POPC   H2S21313   5.862   3.481   5.972 -0.5824  1.3620 -1.3951
  186POPC    C321314   5.597   3.075   6.070  0.3623  0.1333  0.3539
  186POPC    HX21315   5.512   3.028   6.124  0.4751  1.4330  1.7189
  186POPC    HY21316   5.690   3.032   6.112  0.0181 -0.0810  0.9030
  186POPC   O3121317   5.590   3.052   5.929  0.1700  0.1746  0.3917
  186POPC   C3121318   5.467   3.045   5.876  0.3048  0.1376  0.2137
  186POPC   O3221319   5.364   3.046   5.935  0.9453  0.3261 -0.3745
  186POPC   C3221320   5.478   3.025   5.732 -0.0967 -0.6106 -0.5996
  186POPC   H2X21321   5.400   2.950   5.710 -0.6210 -0.4995  0.7847
  186POPC   H2Y21322   5.576   2.977   5.709 -0.0651 -0.7596 -0.1680
  186POPC   C2321323   5.772   3.422   5.779  0.7074  0.0761 -0.6980
  186POPC   H3R21324   5.672   3.469   5.795  0.2701 -1.0639 -0.0006
  186POPC   H3S21325   5.744   3.326   5.730  0.7480  0.2070 -0.9796
  186POPC   C2421326   5.852   3.496   5.669 -1.1295 -0.3248  0.6505
  186POPC   H4R21327   5.949   3.446   5.651 -1.2252 -0.2579 -0.0927
  186POPC   H4S21328   5.874   3.601   5.698  0.4208 -0.7077  0.9457
  186POPC   C2521329   5.784   3.498   5.528  0.2905 -0.7171 -0.0261
  186POPC   H5R21330   5.718   3.588   5.531 -0.8740 -1.4698 -1.8475
  186POPC   H5S21331   5.720   3.408   5.523 -3.4312  1.6352  0.5431
  186POPC   C2621332   5.884   3.515   5.414 -0.7419  0.1808 -0.9195
  186POPC   H6R21333   5.967   3.447   5.443  0.2604  1.6304 -0.3188
  186POPC   H6S21334   5.915   3.621   5.412 -2.0167  0.5849 -0.4086
  186POPC   C2721335   5.820   3.470   5.286 -0.1950 -0.1007  0.3009
  186POPC   H7R21336   5.724   3.524   5.268 -0.1891 -0.1767  0.0459
  186POPC   H7S21337   5.805   3.360   5.289 -0.3262 -0.1669 -1.4772
  186POPC   C2821338   5.916   3.503   5.168  0.8771  0.1572  0.0925
  186POPC   H8R21339   5.937   3.611   5.177  0.3335  0.2749 -0.0311
  186POPC   H8S21340   5.863   3.478   5.074 -0.6851  0.0768  0.9753
  186POPC   C2921341   6.044   3.429   5.179  0.2562 -0.1374 -0.2948
  186POPC   H9121342   6.055   3.342   5.246  1.5213  0.6659  0.5579
  186POPC  C21021343   6.147   3.456   5.100 -0.3461 -0.1151  0.3603
  186POPC  H10121344   6.238   3.401   5.126 -1.0402 -1.4140  0.1180
  186POPC  C21121345   6.144   3.573   5.006 -0.3637  0.1050 -0.0741
  186POPC  H11R21346   6.230   3.641   5.021 -1.2632  1.5635 -1.1675
  186POPC  H11S21347   6.055   3.639   5.007  0.5045  1.2923 -0.1361
  186POPC  C21221348   6.155   3.529   4.855  0.0831  0.1720  0.2127
  186POPC  H12R21349   6.078   3.449   4.846  0.5990 -0.4530  1.1598
  186POPC  H12S21350   6.242   3.463   4.841  0.6494  1.0307 -0.4068
  186POPC  C21321351   6.132   3.654   4.768  0.0602 -1.3492 -0.6378
  186POPC  H13R21352   6.231   3.676   4.724 -1.2526  2.6688 -1.9963
  186POPC  H13S21353   6.091   3.737   4.830 -0.5803 -0.2038 -2.5140
  186POPC  C21421354   6.034   3.628   4.651 -0.2375  0.3032  0.6186
  186POPC  H14R21355   5.928   3.619   4.683 -0.9734  1.4382 -1.2996
  186POPC  H14S21356   6.057   3.525   4.615  2.3051  0.8829  0.3490
  186POPC  C21521357   6.032   3.730   4.536 -0.0663 -0.3743 -0.4740
  186POPC  H15R21358   6.130   3.743   4.486 -0.5750  1.6474 -1.0271
  186POPC  H15S21359   6.000   3.830   4.575  1.1099 -0.8049  1.8117
  186POPC  C21621360   5.948   3.675   4.423 -0.5245 -0.3537 -0.5010
  186POPC  H16R21361   5.843   3.680   4.457 -1.0942  2.6108 -2.3266
  186POPC  H16S21362   5.986   3.573   4.400 -2.3095 -1.6041  1.6790
  186POPC  C21721363   5.941   3.762   4.295 -0.0013  0.0604 -0.5214
  186POPC  H17R21364   5.912   3.867   4.317 -2.1507 -0.4841 -0.5159
  186POPC  H17S21365   5.848   3.737   4.239 -0.6662 -1.4668  1.1641
  186POPC  C21821366   6.064   3.743   4.210 -1.0230 -0.1477  0.2441
  186POPC  H18R21367   6.157   3.723   4.267 -0.3554 -1.0106 -1.0892
  186POPC  H18S21368   6.080   3.825   4.137 -2.6522 -1.5318 -1.7704
  186POPC  H18T21369   6.051   3.648   4.154 -0.1569 -1.0321  1.4867
  186POPC   C3321370   5.460   3.151   5.646  0.2445 -0.1426  0.2854
  186POPC   H3X21371   5.532   3.224   5.687 -0.7489  1.1708 -0.2503
  186POPC   H3Y21372   5.362   3.191   5.679  0.3905 -0.9452  1.7888
  186POPC   C3421373   5.468   3.132   5.498 -1.1672  0.4757 -0.1617
  186POPC   H4X21374   5.433   3.229   5.456  2.0056  1.3426 -1.1012
  186POPC   H4Y21375   5.408   3.044   5.466  0.5066 -0.2648 -1.4391
  186POPC   C3521376   5.615   3.104   5.455 -0.8304 -0.5014  0.9410
  186POPC   H5X21377   5.646   2.997   5.457  1.4407  0.0639 -0.2052
  186POPC   H5Y21378   5.688   3.162   5.516 -0.1012 -1.3758  0.9320
  186POPC   C3621379   5.621   3.149   5.309 -0.8358 -0.4580 -0.1777
  186POPC   H6X21380   5.730   3.140   5.289 -0.5925  0.8753  0.4163
  186POPC   H6Y21381   5.580   3.252   5.298 -1.4888 -0.7131 -0.1618
  186POPC   C3721382   5.552   3.055   5.219  0.6951  0.0782  0.5696
  186POPC   H7X21383   5.443   3.049   5.241  1.0662 -1.4737  2.1963
  186POPC   H7Y21384   5.583   2.950   5.238 -2.3580 -1.0712 -0.1141
  186POPC   C3821385   5.577   3.078   5.068  0.0605  0.6429 -0.5760
  186POPC   H8X21386   5.685   3.063   5.046  0.5355  0.8883  1.4333
  186POPC   H8Y21387   5.555   3.185   5.046 -0.0053  0.0913 -3.7071
  186POPC   C3921388   5.480   2.992   4.979 -0.1273 -1.0853 -0.4290
  186POPC   H9X21389   5.375   3.005   5.013 -0.3044  2.3814 -1.8378
  186POPC   H9Y21390   5.514   2.889   5.003 -0.4112 -0.8012  1.3364
  186POPC  C31021391   5.477   3.021   4.830  0.0731  0.2740  0.7696
  186POPC  H10X21392   5.577   3.020   4.782 -0.2021 -2.0218  0.1434
  186POPC  H10Y21393   5.427   3.117   4.809  0.0105 -0.2717 -1.8826
  186POPC  C31121394   5.383   2.912   4.764 -0.0923 -0.4436 -0.5975
  186POPC  H11X21395   5.277   2.929   4.793 -0.0949 -1.3586 -0.0351
  186POPC  H11Y21396   5.417   2.813   4.802  1.4844  0.2154 -0.2143
  186POPC  C31221397   5.392   2.911   4.609 -0.4311 -0.0929 -0.2921
  186POPC  H12X21398   5.495   2.875   4.585  0.2223  0.5048  1.4126
  186POPC  H12Y21399   5.379   3.019   4.585 -0.6336  0.4252  1.9566
  186POPC  C31321400   5.282   2.822   4.555 -0.3930 -0.2514 -0.0025
  186POPC  H13X21401   5.190   2.878   4.582 -0.2193 -0.4544  1.0817
  186POPC  H13Y21402   5.290   2.727   4.613  0.0243 -1.0551 -1.3432
  186POPC  C31421403   5.271   2.785   4.402 -0.5539 -0.0946  0.1627
  186POPC  H14X21404   5.300   2.879   4.349 -3.1708 -0.2824 -1.8183
  186POPC  H14Y21405   5.166   2.763   4.375 -0.7262  0.5912  0.2509
  186POPC  C31521406   5.352   2.660   4.370 -0.7131  0.1567 -0.3882
  186POPC  H15X21407   5.301   2.574   4.418  0.6219 -0.2099  0.4249
  186POPC  H15Y21408   5.454   2.665   4.414 -1.2259  1.4838  0.7085
  186POPC  C31621409   5.360   2.616   4.224  0.2722  0.1625  0.1242
  186POPC  H16X21410   5.398   2.512   4.234  1.5945  0.6378  0.2617
  186POPC  H16Y21411   5.447   2.670   4.182  0.9961  0.5403  1.9993
  186POPC  H16Z21412   5.262   2.639   4.176 -0.6127 -0.1630  1.6935
  187POPC     N21413   0.601   0.259   2.239 -0.3600 -0.2615 -0.0730
  187POPC   C1221414   0.535   0.135   2.305 -0.0935  0.1140 -0.0611
  187POPC  H12A21415   0.481   0.168   2.392 -0.6282  1.4181 -0.8487
  187POPC  H12B21416   0.616   0.070   2.334  0.9230  1.6550  0.7315
  187POPC   C1321417   0.708   0.322   2.325  0.1630 -0.0238 -0.0188
  187POPC  H13A21418   0.756   0.394   2.261 -0.1466 -0.2454 -0.5095
  187POPC  H13B21419   0.663   0.370   2.411 -0.5596 -0.8695  0.0967
  187POPC  H13C21420   0.788   0.251   2.344  0.0024 -0.0642  0.5285
  187POPC   C1421421   0.647   0.223   2.107 -0.2525  0.1376  0.8116
  187POPC  H14A21422   0.730   0.154   2.111 -0.6160 -0.6508 -2.3029
  187POPC  H14B21423   0.571   0.181   2.043  1.5332  1.6245 -2.5577
  187POPC  H14C21424   0.683   0.315   2.063 -0.7325  0.6522  1.4894
  187POPC   C1521425   0.492   0.370   2.216 -0.2272 -0.0131  0.1954
  187POPC  H15A21426   0.462   0.413   2.310  2.5919  0.4931  0.9525
  187POPC  H15B21427   0.407   0.324   2.168 -1.9297  2.0969  1.0197
  187POPC  H15C21428   0.522   0.449   2.148 -0.4728 -0.2499 -0.1933
  187POPC   C1121429   0.430   0.049   2.231 -0.6812 -0.3351  0.0616
  187POPC  H11A21430   0.403  -0.040   2.291 -3.4068  0.6094  0.3543
  187POPC  H11B21431   0.473  -0.000   2.141 -1.1264  1.1092 -0.9690
  187POPC     P21432   0.168   0.101   2.227 -0.2585  0.6150 -0.2454
  187POPC   O1321433   0.119  -0.040   2.207 -0.9666  0.3997 -0.1263
  187POPC   O1421434   0.085   0.200   2.160  0.4612  0.2286  0.0593
  187POPC   O1221435   0.320   0.122   2.185 -0.0936  0.0549 -0.0483
  187POPC   O1121436   0.157   0.125   2.381  0.1211 -0.5415  0.7137
  187POPC    C121437   0.152   0.258   2.440 -0.2887  0.5257 -0.0741
  187POPC    HA21438   0.058   0.274   2.497 -1.8037  1.4624 -2.6901
  187POPC    HB21439   0.156   0.338   2.363 -1.5862  1.2377  0.5781
  187POPC    C221440   0.274   0.278   2.554 -0.2344  0.0483  0.8253
  187POPC    HS21441   0.355   0.274   2.478 -0.0481  1.4075  0.9282
  187POPC   O2121442   0.264   0.180   2.658 -0.2589  0.2278  0.1059
  187POPC   C2121443   0.388   0.124   2.679  0.6390 -0.6408 -0.1030
  187POPC   O2221444   0.488   0.159   2.618  0.0931  0.5206  0.0882
  187POPC   C2221445   0.375   0.015   2.775  0.0363  0.9791  0.1763
  187POPC   H2R21446   0.427  -0.073   2.732 -0.5189  0.1738  1.0974
  187POPC   H2S21447   0.271  -0.019   2.793  0.6346 -0.4056  1.1331
  187POPC    C321448   0.273   0.421   2.618 -0.2967  0.0316 -0.0016
  187POPC    HX21449   0.176   0.432   2.672  0.1889  0.6321  0.7674
  187POPC    HY21450   0.282   0.503   2.544 -0.6038  1.4081  1.4273
  187POPC   O3121451   0.379   0.447   2.717 -0.2426 -0.4898  0.3388
  187POPC   C3121452   0.502   0.458   2.670  0.2314  0.6227 -0.2914
  187POPC   O3221453   0.532   0.458   2.551  0.4314 -0.3214 -0.1146
  187POPC   C3221454   0.605   0.440   2.783  0.2833  0.0014  0.3500
  187POPC   H2X21455   0.655   0.343   2.759 -2.2328 -1.3152  0.0908
  187POPC   H2Y21456   0.550   0.446   2.879  1.2465  1.0476  0.8564
  187POPC   C2321457   0.463   0.039   2.908 -0.3402  0.0876  0.2530
  187POPC   H3R21458   0.560   0.089   2.884  0.9848 -1.8264  1.4172
  187POPC   H3S21459   0.498  -0.062   2.937  0.7230  0.1640 -0.6918
  187POPC   C2421460   0.381   0.100   3.024  0.1522  0.6822 -0.1149
  187POPC   H4R21461   0.306   0.019   3.037 -0.8591  1.5342 -0.5164
  187POPC   H4S21462   0.321   0.184   2.983 -0.0333  0.3991 -0.4224
  187POPC   C2521463   0.462   0.126   3.153  0.6969 -0.5765  0.6637
  187POPC   H5R21464   0.546   0.196   3.133 -0.5824  0.3161 -2.0414
  187POPC   H5S21465   0.504   0.030   3.190 -3.0448 -2.3543  0.6629
  187POPC   C2621466   0.370   0.202   3.257  0.1892  0.0752  0.5224
  187POPC   H6R21467   0.289   0.126   3.266  0.0530  0.2650  0.9005
  187POPC   H6S21468   0.329   0.292   3.207 -0.7599 -0.2349  0.7141
  187POPC   C2721469   0.443   0.224   3.388  0.1379 -1.0518 -1.0257
  187POPC   H7R21470   0.525   0.296   3.369 -1.7607  2.1533  1.8244
  187POPC   H7S21471   0.476   0.129   3.435  1.4764 -0.6868 -1.1926
  187POPC   C2821472   0.355   0.299   3.492 -0.4883 -0.0613 -0.7266
  187POPC   H8R21473   0.328   0.387   3.430  0.8886  0.0769 -1.1637
  187POPC   H8S21474   0.422   0.321   3.579  0.3965  0.5983 -1.5543
  187POPC   C2921475   0.236   0.220   3.542 -0.0506  0.1673 -0.2154
  187POPC   H9121476   0.191   0.164   3.459 -1.2792  1.5190 -0.5122
  187POPC  C21021477   0.175   0.213   3.664  0.2391 -0.6305 -0.1782
  187POPC  H10121478   0.073   0.172   3.664  0.1244 -0.6440 -3.5823
  187POPC  C21121479   0.226   0.288   3.786  0.3687  0.2990  0.3186
  187POPC  H11R21480   0.224   0.397   3.766 -0.5487  0.4733  1.2498
  187POPC  H11S21481   0.333   0.263   3.801  1.2877  2.7359 -1.5216
  187POPC  C21221482   0.134   0.262   3.905  0.0861  0.0130  0.6626
  187POPC  H12R21483   0.149   0.156   3.936 -1.5802 -0.4038  0.1897
  187POPC  H12S21484   0.026   0.280   3.883  0.1290  0.3221  0.6984
  187POPC  C21321485   0.179   0.343   4.025  0.3631  0.4095 -0.1720
  187POPC  H13R21486   0.145   0.447   4.007 -2.6685 -0.5531 -0.4973
  187POPC  H13S21487   0.290   0.338   4.016  0.2166 -2.6602 -1.4935
  187POPC  C21421488   0.141   0.291   4.161 -0.9254  0.0858 -0.6047
  187POPC  H14R21489   0.188   0.343   4.247  1.2914  0.2375 -1.8451
  187POPC  H14S21490   0.173   0.185   4.163 -0.6380  0.1730 -0.5137
  187POPC  C21521491  -0.007   0.305   4.191  0.0225  0.0181  0.7334
  187POPC  H15R21492  -0.060   0.212   4.159  0.5450 -0.9617  2.6137
  187POPC  H15S21493  -0.043   0.386   4.123 -2.1182 -1.1395  0.3783
  187POPC  C21621494  -0.046   0.333   4.330  0.4210 -0.1211 -1.1765
  187POPC  H16R21495   0.005   0.426   4.365 -2.0869  1.7031 -2.0554
  187POPC  H16S21496  -0.016   0.250   4.397 -1.1464  0.3752  0.2185
  187POPC  C21721497  -0.200   0.348   4.356 -0.0079  0.0340  0.1764
  187POPC  H17R21498  -0.241   0.427   4.289  0.5280  1.3481  1.3557
  187POPC  H17S21499  -0.215   0.383   4.460 -2.4660 -1.7385  0.5076
  187POPC  C21821500  -0.287   0.221   4.346 -0.3662  0.7896  0.0795
  187POPC  H18R21501  -0.295   0.200   4.237  0.4488 -2.9604  0.6036
  187POPC  H18S21502  -0.386   0.232   4.396  0.3491 -0.0871  1.7796
  187POPC  H18T21503  -0.233   0.134   4.388 -1.0158  0.7518  0.8505
  187POPC   C3321504   0.703   0.554   2.785  0.2611 -0.3739 -0.3501
  187POPC   H3X21505   0.646   0.649   2.789  2.3327  0.9720 -1.0064
  187POPC   H3Y21506   0.760   0.543   2.690 -0.2596 -0.3760 -0.6633
  187POPC   C3421507   0.809   0.556   2.903 -0.2480  0.0661 -0.2918
  187POPC   H4X21508   0.895   0.625   2.890 -0.9374  1.2988  1.3078
  187POPC   H4Y21509   0.852   0.454   2.900  0.6394  0.4457 -1.3518
  187POPC   C3521510   0.743   0.593   3.035 -0.1736  0.5698 -0.1916
  187POPC   H5X21511   0.656   0.526   3.054  0.4947 -0.9111 -1.9713
  187POPC   H5Y21512   0.703   0.695   3.019  0.2141  0.8412  0.5724
  187POPC   C3621513   0.838   0.595   3.162 -0.3492 -0.7334  0.1404
  187POPC   H6X21514   0.884   0.696   3.162 -0.8301 -0.4709  2.3193
  187POPC   H6Y21515   0.921   0.523   3.147  0.5962 -0.1252  2.1330
  187POPC   C3721516   0.769   0.579   3.297 -0.5102 -0.7212  0.7280
  187POPC   H7X21517   0.721   0.479   3.301 -0.9052 -0.5657  0.0350
  187POPC   H7Y21518   0.687   0.652   3.315 -0.3986 -0.4908  0.3159
  187POPC   C3821519   0.865   0.604   3.409  0.4373  0.0028 -0.4194
  187POPC   H8X21520   0.929   0.687   3.374 -0.0226  0.0874 -1.0739
  187POPC   H8Y21521   0.935   0.518   3.410 -0.1640 -0.4959  0.8729
  187POPC   C3921522   0.793   0.642   3.540  0.1756 -0.5490 -0.6510
  187POPC   H9X21523   0.724   0.559   3.567  2.5794 -2.3202  0.3789
  187POPC   H9Y21524   0.725   0.729   3.526 -0.3801 -0.8146  0.3503
  187POPC  C31021525   0.881   0.672   3.661  0.5364 -0.6010 -0.3297
  187POPC  H10X21526   0.933   0.770   3.651 -1.1632  0.2401 -1.5283
  187POPC  H10Y21527   0.958   0.593   3.663  1.1954 -0.0134 -1.5250
  187POPC  C31121528   0.793   0.672   3.793 -0.1723 -0.8029  0.6041
  187POPC  H11X21529   0.757   0.568   3.809  1.6804 -1.1057  3.5874
  187POPC  H11Y21530   0.711   0.744   3.772  1.9131  1.2308 -1.1910
  187POPC  C31221531   0.875   0.721   3.915 -0.2018  0.5927  0.3022
  187POPC  H12X21532   0.910   0.823   3.889 -0.7201  0.3919 -1.2993
  187POPC  H12Y21533   0.961   0.651   3.921  1.2376  2.0286 -2.0500
  187POPC  C31321534   0.806   0.720   4.053  0.5643 -0.2782 -0.7813
  187POPC  H13X21535   0.776   0.620   4.091  3.3848 -1.1904 -0.7710
  187POPC  H13Y21536   0.715   0.782   4.041  1.1515  0.7133 -0.1817
  187POPC  C31421537   0.890   0.786   4.160  0.0507 -0.2057 -0.8746
  187POPC  H14X21538   0.914   0.889   4.126  0.0198  0.0946 -0.0169
  187POPC  H14Y21539   0.988   0.737   4.182  0.3546  1.0544  0.8201
  187POPC  C31521540   0.802   0.799   4.285 -0.3574 -0.3536 -0.1662
  187POPC  H15X21541   0.754   0.701   4.308  0.7156 -0.8074  0.1767
  187POPC  H15Y21542   0.721   0.875   4.278 -0.3130 -0.0648  1.8054
  187POPC  C31621543   0.889   0.840   4.411  0.5559 -0.2759 -0.0653
  187POPC  H16X21544   0.957   0.925   4.389  0.9801 -0.6439 -0.1675
  187POPC  H16Y21545   0.929   0.744   4.450 -1.7250 -1.0285  0.5952
  187POPC  H16Z21546   0.825   0.867   4.497  1.2991 -1.6327  0.9509
  188POPC     N21547   6.033   5.318   2.492  0.2169  0.0053 -0.0310
  188POPC   C1221548   6.044   5.463   2.467  0.2048  0.1860  0.3349
  188POPC  H12A21549   5.962   5.510   2.518  2.3367  2.0051  2.3245
  188POPC  H12B21550   6.024   5.480   2.362  0.2034 -0.8600  0.1610
  188POPC   C1321551   6.151   5.240   2.450 -0.5871 -0.3527  0.3587
  188POPC  H13A21552   6.161   5.253   2.343 -1.0510 -2.3653  0.0346
  188POPC  H13B21553   6.236   5.290   2.494 -0.2710 -2.6439  2.5572
  188POPC  H13C21554   6.160   5.137   2.481  3.7723 -0.4934 -0.6302
  188POPC   C1421555   6.004   5.298   2.640 -0.5292  0.6163 -0.0613
  188POPC  H14A21556   6.003   5.191   2.656 -1.8145  0.4363 -1.2046
  188POPC  H14B21557   6.083   5.344   2.697  1.1449 -0.3705 -1.5022
  188POPC  H14C21558   5.904   5.325   2.671 -0.7178  1.2897 -1.2310
  188POPC   C1521559   5.913   5.267   2.421  0.4189  0.2483 -0.2614
  188POPC  H15A21560   5.829   5.330   2.449 -0.9960 -0.4004 -2.7272
  188POPC  H15B21561   5.874   5.172   2.453 -1.1394  0.1009 -2.3977
  188POPC  H15C21562   5.925   5.278   2.314  0.7610  0.8166 -0.1677
  188POPC   C1121563   6.178   5.533   2.492  0.9956 -0.0498  1.0849
  188POPC  H11A21564   6.203   5.519   2.599 -0.1604 -0.2807  1.3407
  188POPC  H11B21565   6.165   5.641   2.471 -1.0595 -0.6249 -1.0614
  188POPC     P21566   6.355   5.558   2.297 -0.2475 -0.4931  0.3474
  188POPC   O1321567   6.275   5.679   2.253  0.4594  0.8590  0.3403
  188POPC   O1421568   6.400   5.459   2.193 -0.0861  0.0930  0.1702
  188POPC   O1221569   6.275   5.483   2.405 -0.1087  0.2115 -0.3174
  188POPC   O1121570   6.484   5.610   2.362 -0.7201 -0.4240  0.1601
  188POPC    C121571   6.558   5.531   2.456 -0.8019  0.3204 -0.6426
  188POPC    HA21572   6.612   5.450   2.403 -2.6713 -1.2654 -0.2220
  188POPC    HB21573   6.495   5.486   2.535 -0.7345  1.9040  0.3770
  188POPC    C221574   6.662   5.621   2.532 -0.1119 -0.1699 -0.3866
  188POPC    HS21575   6.746   5.645   2.462 -1.1199  1.5963 -1.0677
  188POPC   O2121576   6.708   5.557   2.652 -0.2177 -0.8901 -0.9752
  188POPC   C2121577   6.838   5.581   2.687 -0.4923 -0.0912 -0.2561
  188POPC   O2221578   6.911   5.655   2.619 -0.9243 -0.1110 -0.7137
  188POPC   C2221579   6.886   5.514   2.810 -0.8002  0.5739  0.2346
  188POPC   H2R21580   6.956   5.429   2.795  0.9134  2.0832 -0.6103
  188POPC   H2S21581   6.792   5.471   2.852 -0.5561  0.6560  0.8892
  188POPC    C321582   6.596   5.748   2.579  0.1692  0.2504 -0.7273
  188POPC    HX21583   6.512   5.724   2.647  0.3273 -0.5727 -0.8106
  188POPC    HY21584   6.560   5.807   2.493  1.7227  2.2440 -0.0835
  188POPC   O3121585   6.685   5.837   2.656  0.1752  0.6391  0.3795
  188POPC   C3121586   6.660   5.967   2.642  0.3349 -0.1616 -0.3061
  188POPC   O3221587   6.567   6.025   2.596  0.4495 -0.2662  0.6207
  188POPC   C3221588   6.785   6.042   2.695  0.1996  0.6075 -0.6366
  188POPC   H2X21589   6.761   6.148   2.717 -0.2422  0.3842 -0.0132
  188POPC   H2Y21590   6.867   6.033   2.620  2.0384 -1.6269  1.4529
  188POPC   C2321591   6.948   5.609   2.922 -0.0292 -0.5353  0.4658
  188POPC   H3R21592   6.874   5.686   2.954  1.8740  1.7490 -0.3870
  188POPC   H3S21593   7.031   5.675   2.890 -0.9513  0.2881 -0.3075
  188POPC   C2421594   6.998   5.529   3.043 -0.0982  0.1380 -0.3088
  188POPC   H4R21595   7.071   5.456   3.002  1.1703  0.3264  1.5347
  188POPC   H4S21596   6.919   5.469   3.094  2.7590 -2.0695  1.8476
  188POPC   C2521597   7.070   5.613   3.155  0.8697  0.1558 -0.2364
  188POPC   H5R21598   7.142   5.682   3.106  0.9397  0.1012 -0.2106
  188POPC   H5S21599   7.133   5.539   3.210 -1.2037 -1.8398 -0.3987
  188POPC   C2621600   6.976   5.678   3.257  0.4801 -0.4033  0.0132
  188POPC   H6R21601   6.914   5.597   3.301  0.2874 -0.7317 -0.8416
  188POPC   H6S21602   6.900   5.738   3.202 -0.4331 -1.6705 -0.1597
  188POPC   C2721603   7.050   5.758   3.362 -0.1565 -0.2665  0.7596
  188POPC   H7R21604   7.093   5.845   3.309 -0.3513 -1.6795 -1.9169
  188POPC   H7S21605   7.132   5.691   3.395 -0.4324 -1.2077 -0.4059
  188POPC   C2821606   6.969   5.798   3.489 -0.2839 -0.0628  0.1674
  188POPC   H8R21607   6.904   5.882   3.457  1.8308  0.8948 -1.9969
  188POPC   H8S21608   7.044   5.834   3.563 -0.6094 -0.0835  0.5105
  188POPC   C2921609   6.876   5.696   3.547 -0.0648 -0.1276  0.3608
  188POPC   H9121610   6.772   5.688   3.512  0.3177 -0.1806 -0.8217
  188POPC  C21021611   6.911   5.614   3.646 -0.0696 -0.9164  0.6109
  188POPC  H10121612   6.832   5.549   3.689 -0.5619 -0.3495  0.5697
  188POPC  C21121613   7.057   5.599   3.699  0.5730  0.1326  0.2139
  188POPC  H11R21614   7.135   5.651   3.639 -0.1984  0.1797 -0.7665
  188POPC  H11S21615   7.086   5.492   3.695 -0.2114 -0.0593 -1.0582
  188POPC  C21221616   7.058   5.655   3.843 -0.4334 -0.2778  0.2890
  188POPC  H12R21617   7.002   5.751   3.844  0.5648  0.4907 -3.4490
  188POPC  H12S21618   7.154   5.695   3.882 -0.5776 -0.9608  1.3870
  188POPC  C21321619   6.999   5.558   3.943  0.1741 -0.3083 -0.1030
  188POPC  H13R21620   7.065   5.468   3.947 -2.4769 -2.3555  2.8149
  188POPC  H13S21621   6.895   5.530   3.916  0.2373 -0.9390  0.2682
  188POPC  C21421622   6.999   5.601   4.096 -0.5468  0.1272 -0.5609
  188POPC  H14R21623   6.940   5.694   4.112 -4.2612 -2.0409 -0.5333
  188POPC  H14S21624   7.106   5.617   4.121 -0.7270 -2.1029  2.1116
  188POPC  C21521625   6.936   5.501   4.190 -0.2258  0.0519  0.3552
  188POPC  H15R21626   6.830   5.529   4.208 -0.3288 -0.0425 -0.1045
  188POPC  H15S21627   6.984   5.514   4.289  0.0611 -1.6142  0.4700
  188POPC  C21621628   6.934   5.351   4.149 -0.4481 -1.5335 -0.1586
  188POPC  H16R21629   7.035   5.314   4.122  0.9412  1.1045  1.0347
  188POPC  H16S21630   6.863   5.327   4.068 -0.2926 -0.4707 -0.6253
  188POPC  C21721631   6.887   5.259   4.265 -0.7410  0.4993 -0.1684
  188POPC  H17R21632   6.957   5.285   4.347  0.1782 -0.3580 -0.6601
  188POPC  H17S21633   6.914   5.153   4.249  0.7595  0.6071  1.3754
  188POPC  C21821634   6.747   5.279   4.317  0.3480 -0.0266  0.3591
  188POPC  H18R21635   6.680   5.326   4.242 -1.0498  0.3272  1.7701
  188POPC  H18S21636   6.760   5.335   4.412  3.6861 -2.3392  1.4240
  188POPC  H18T21637   6.707   5.180   4.347 -0.0578  0.7827  2.6848
  188POPC   C3321638   6.844   5.982   2.822  0.5441  0.4237 -0.2327
  188POPC   H3X21639   6.934   6.038   2.858 -1.6635  3.1427  1.5319
  188POPC   H3Y21640   6.873   5.877   2.800  1.7622  0.4281  1.1769
  188POPC   C3421641   6.766   5.996   2.951  0.2012 -0.1143 -0.2346
  188POPC   H4X21642   6.830   5.938   3.021  1.0828 -0.6825 -1.4682
  188POPC   H4Y21643   6.661   5.964   2.936 -0.5294  2.1067 -0.1860
  188POPC   C3521644   6.745   6.139   2.992  0.2442  0.1724  0.1214
  188POPC   H5X21645   6.686   6.188   2.911  1.4375 -0.0756 -0.9208
  188POPC   H5Y21646   6.842   6.192   2.999  0.2616 -0.0908  2.7360
  188POPC   C3621647   6.664   6.155   3.123  0.0217  0.6762 -0.0450
  188POPC   H6X21648   6.604   6.062   3.133 -0.1654  0.9275  1.4125
  188POPC   H6Y21649   6.606   6.250   3.121  4.1867  3.9162  4.8192
  188POPC   C3721650   6.752   6.176   3.240  0.6943  0.3876 -0.1259
  188POPC   H7X21651   6.832   6.253   3.232 -0.0049  1.0028 -1.5057
  188POPC   H7Y21652   6.809   6.081   3.251 -2.1362 -1.4577 -0.4325
  188POPC   C3821653   6.655   6.195   3.367  0.4905 -0.4461  0.1603
  188POPC   H8X21654   6.594   6.103   3.381  1.6759 -1.4554 -1.0962
  188POPC   H8Y21655   6.599   6.290   3.354  0.2753 -0.9560 -3.7803
  188POPC   C3921656   6.731   6.207   3.498  0.1724  0.4216  0.8716
  188POPC   H9X21657   6.796   6.296   3.488 -0.8414  1.0335 -0.6521
  188POPC   H9Y21658   6.797   6.118   3.510  0.4224  0.3263 -0.9664
  188POPC  C31021659   6.643   6.216   3.621  0.2678 -0.0622 -0.2407
  188POPC  H10X21660   6.558   6.146   3.625  0.5018 -0.2967  0.8117
  188POPC  H10Y21661   6.599   6.318   3.621 -0.3335 -0.3024 -1.3151
  188POPC  C31121662   6.728   6.186   3.745 -0.3896 -0.7943 -0.4078
  188POPC  H11X21663   6.662   6.228   3.824 -0.5202 -1.2365 -0.2835
  188POPC  H11Y21664   6.824   6.242   3.756 -0.2493 -0.7738 -1.6416
  188POPC  C31221665   6.745   6.038   3.776 -0.1702 -0.2986  0.1743
  188POPC  H12X21666   6.813   6.005   3.695  0.3437  3.0890 -0.9303
  188POPC  H12Y21667   6.646   5.988   3.780 -0.3815  0.1674  2.0591
  188POPC  C31321668   6.811   6.007   3.910  0.3592  0.1975  0.5072
  188POPC  H13X21669   6.829   5.897   3.910  2.6182  0.3295 -3.7663
  188POPC  H13Y21670   6.737   6.027   3.990 -2.1911 -3.0914 -0.7686
  188POPC  C31421671   6.944   6.074   3.931 -0.2697  0.6436 -0.6105
  188POPC  H14X21672   6.931   6.182   3.956  0.2204  0.3767  0.8641
  188POPC  H14Y21673   7.014   6.074   3.844 -0.9354  0.9060 -1.1529
  188POPC  C31521674   6.998   6.026   4.067 -0.5467 -0.1383 -0.5592
  188POPC  H15X21675   6.994   5.915   4.062 -1.1259 -0.1167 -0.7121
  188POPC  H15Y21676   6.925   6.057   4.145 -1.1506 -1.9358 -0.3469
  188POPC  C31621677   7.144   6.063   4.103  0.3952  0.2802 -0.0394
  188POPC  H16X21678   7.179   6.008   4.193  0.1815 -0.8968 -0.6552
  188POPC  H16Y21679   7.154   6.173   4.117 -2.5749  0.5105  1.0092
  188POPC  H16Z21680   7.204   6.037   4.013 -0.5150  0.9684 -0.8692
  189SAPI   C1221681   3.143   4.930   6.562  0.2261 -0.6796  0.1945
  189SAPI    H221682   3.162   4.936   6.452 -1.5424  1.5690 -0.0564
  189SAPI    O221683   3.142   5.070   6.595 -0.3337 -0.0239 -0.1404
  189SAPI   HO221684   3.233   5.091   6.616  0.3648 -2.2475 -0.6621
  189SAPI   C1321685   2.996   4.874   6.577 -0.2536  0.3762 -0.2306
  189SAPI    H321686   2.987   4.766   6.551 -1.1828 -0.0825  1.7805
  189SAPI    O321687   2.899   4.952   6.495 -0.2982  0.1140 -0.5849
  189SAPI   HO321688   2.899   5.045   6.520  1.0794  0.0226 -0.1758
  189SAPI   C1421689   2.958   4.882   6.722 -0.6284 -0.1204 -0.1651
  189SAPI    H421690   2.929   4.987   6.747  0.3529  1.0547 -3.3415
  189SAPI    O421691   2.837   4.811   6.747  0.1199 -0.1875 -0.4622
  189SAPI   HO421692   2.812   4.762   6.669 -1.0317 -1.7704  0.8224
  189SAPI   C1521693   3.070   4.827   6.819  0.3944 -0.7577 -0.6097
  189SAPI    H521694   3.050   4.718   6.820 -2.0510 -0.3532  0.0882
  189SAPI    O521695   3.041   4.876   6.953  0.2206  0.1817  0.0109
  189SAPI   HO521696   3.039   4.797   7.007  1.4556  0.6050  0.7165
  189SAPI   C1621697   3.219   4.846   6.779 -0.0605 -0.3348  0.3832
  189SAPI    H621698   3.238   4.944   6.828 -3.0650  0.4555  0.1521
  189SAPI    O621699   3.304   4.754   6.848 -0.0792 -0.8222  0.1776
  189SAPI   HO621700   3.392   4.792   6.852 -0.4871  0.2764 -0.6622
  189SAPI   C1121701   3.247   4.845   6.627  0.0960 -0.2698  0.1073
  189SAPI    H121702   3.222   4.744   6.587 -0.3302 -0.7482  1.5356
  189SAPI     P21703   3.474   4.796   6.501  0.3254 -0.0582  0.4089
  189SAPI   O1321704   3.464   4.659   6.549 -0.5346 -0.2883  0.3294
  189SAPI   O1421705   3.606   4.863   6.494  0.0870  0.3760 -0.2199
  189SAPI   O1221706   3.374   4.890   6.595 -0.2092 -0.2384 -0.1822
  189SAPI   O1121707   3.404   4.809   6.353 -0.2580 -0.2175 -0.4492
  189SAPI    C121708   3.416   4.936   6.284  0.4672  0.1689 -0.9242
  189SAPI    HA21709   3.350   5.012   6.331  0.0100  0.5342 -2.1015
  189SAPI    HB21710   3.520   4.972   6.295  0.0809  0.4434  4.3132
  189SAPI    C221711   3.376   4.920   6.142  1.1744  1.1673  0.3073
  189SAPI    HS21712   3.358   5.024   6.106  1.6386  1.6868  1.5221
  189SAPI   O2121713   3.250   4.840   6.144  0.3813 -0.4004 -0.3913
  189SAPI   C2121714   3.140   4.910   6.164  0.5431  0.1612 -0.3063
  189SAPI   O2221715   3.135   5.030   6.198 -0.1388 -0.2461 -0.5309
  189SAPI   C2221716   3.021   4.826   6.134 -0.0630 -0.2499  0.1954
  189SAPI   H2R21717   3.053   4.730   6.087 -2.7839 -1.7794  1.2436
  189SAPI   H2S21718   2.973   4.801   6.231  2.4708 -2.0065  1.1090
  189SAPI    C321719   3.477   4.849   6.048 -0.3755  0.1886 -0.3417
  189SAPI    HX21720   3.476   4.744   6.082  1.4884  0.4956  0.7836
  189SAPI    HY21721   3.580   4.892   6.053 -0.4426  0.4916 -1.2044
  189SAPI   O3121722   3.444   4.831   5.909  0.3697 -0.2979  0.2180
  189SAPI   C3121723   3.431   4.941   5.849 -0.1326 -0.0938 -0.1254
  189SAPI   O3221724   3.459   5.055   5.888  0.6793  0.0234 -0.0108
  189SAPI   C3221725   3.383   4.909   5.711 -0.1536  0.1606 -0.1707
  189SAPI   H2X21726   3.293   4.845   5.724 -1.6804  2.2721  0.0757
  189SAPI   H2Y21727   3.466   4.863   5.654 -0.6961 -1.2018  0.0902
  189SAPI   C2321728   2.922   4.901   6.032 -0.7953  0.2492  0.1518
  189SAPI   H3R21729   2.895   5.007   6.051 -2.0558  0.0156 -0.2068
  189SAPI   H3S21730   2.825   4.849   6.046  0.0267 -0.6308  3.2659
  189SAPI   C2421731   2.962   4.884   5.881 -0.1641  0.8236 -0.6669
  189SAPI   H4R21732   2.882   4.833   5.823  1.3855 -3.1248  0.4016
  189SAPI   H4S21733   3.044   4.811   5.865 -1.0840 -0.2247 -0.6966
  189SAPI   C2521734   2.997   5.019   5.818 -0.0538  0.5007  0.0451
  189SAPI   H5R21735   3.070   5.068   5.884 -0.3014  1.7679 -0.5888
  189SAPI   C2621736   2.971   5.070   5.704 -0.3644  0.1995  0.3023
  189SAPI   H6R21737   3.013   5.168   5.676 -2.3848  1.3129  0.9708
  189SAPI   C2721738   2.888   4.999   5.598 -0.1127 -0.8043  0.2437
  189SAPI   H7R21739   2.784   4.982   5.635 -0.4681 -0.2289 -0.4694
  189SAPI   H7S21740   2.941   4.902   5.589  0.3731 -0.4621 -0.7504
  189SAPI   C2821741   2.880   5.052   5.455 -0.0361  0.0276  0.1574
  189SAPI   H8R21742   2.932   4.993   5.378  2.5837  2.9401 -0.5056
  189SAPI   C2921743   2.818   5.165   5.415  0.0794 -0.3300 -0.4080
  189SAPI   H9R21744   2.818   5.191   5.308 -0.6865 -1.1771 -0.6326
  189SAPI  C21021745   2.751   5.254   5.506  0.0327 -0.9447  0.4862
  189SAPI  H10R21746   2.786   5.244   5.611 -1.5765  2.8028  1.5329
  189SAPI  H10S21747   2.643   5.227   5.505 -0.9758  2.4608 -1.6308
  189SAPI  C21121748   2.744   5.403   5.477  0.7320 -0.7400 -0.1858
  189SAPI  H11R21749   2.838   5.456   5.499  0.0592  0.9767 -1.2416
  189SAPI  C21221750   2.655   5.470   5.411 -0.0263 -0.3573 -0.1431
  189SAPI  H12R21751   2.668   5.577   5.391  1.8914 -0.6303 -0.5202
  189SAPI  C21321752   2.533   5.412   5.345  0.4361  0.5372  0.8309
  189SAPI  H13R21753   2.456   5.394   5.423  1.7920 -1.0618  1.8679
  189SAPI  H13S21754   2.555   5.308   5.313 -2.0282 -0.0161  0.7472
  189SAPI  C21421755   2.493   5.494   5.219  0.1311 -0.2830  0.2501
  189SAPI  H14R21756   2.433   5.582   5.247  3.1074  1.7370  0.6688
  189SAPI  C21521757   2.506   5.468   5.088  0.1090  0.1380 -0.2958
  189SAPI  H15R21758   2.466   5.534   5.011  0.6315  1.5739  0.6145
  189SAPI  C21621759   2.567   5.342   5.035  0.4925 -0.3607  0.4926
  189SAPI  H16R21760   2.493   5.296   4.966 -0.5155  0.8625  0.7187
  189SAPI  H16S21761   2.583   5.261   5.108 -1.0418 -2.7871 -1.7013
  189SAPI  C21721762   2.709   5.365   4.962 -0.5869  0.5981  0.2633
  189SAPI  H17R21763   2.738   5.270   4.912  0.2477  1.3953 -0.8001
  189SAPI  H17S21764   2.773   5.387   5.050 -1.2102  4.5338 -0.0961
  189SAPI  C21821765   2.712   5.483   4.864  0.5311 -0.3073 -0.3175
  189SAPI  H18R21766   2.688   5.571   4.927  0.3016 -1.3347  1.0881
  189SAPI  H18S21767   2.634   5.464   4.786 -0.4297  0.6351  0.3826
  189SAPI  C21921768   2.845   5.516   4.791 -0.9003  0.1006  0.6949
  189SAPI  H19R21769   2.923   5.447   4.830 -0.9350 -0.4520 -0.1920
  189SAPI  H19S21770   2.883   5.619   4.810  1.2667 -0.5828  0.3385
  189SAPI  C22021771   2.846   5.498   4.636 -0.1155  0.1540 -0.2703
  189SAPI  H20R21772   2.816   5.395   4.606 -1.8821  0.8495 -0.9678
  189SAPI  H20S21773   2.941   5.506   4.579 -0.2246  0.1733 -0.4511
  189SAPI  H20T21774   2.768   5.567   4.598  1.0623  0.9040 -1.3989
  189SAPI   C3321775   3.353   5.037   5.627 -0.2845 -1.0616  0.7244
  189SAPI   H3X21776   3.452   5.081   5.604  0.1703 -2.5568 -0.3297
  189SAPI   H3Y21777   3.289   5.103   5.689  0.0914  0.9947 -0.9628
  189SAPI   C3421778   3.277   4.993   5.505 -0.5024  0.1747 -0.2822
  189SAPI   H4X21779   3.187   4.931   5.521 -0.5393 -0.8853 -3.7645
  189SAPI   H4Y21780   3.349   4.937   5.442  0.6718  2.5430 -1.1959
  189SAPI   C3521781   3.237   5.117   5.425 -0.1780 -0.2678  0.5763
  189SAPI   H5X21782   3.318   5.193   5.432 -0.2859 -0.0118 -0.6570
  189SAPI   H5Y21783   3.141   5.167   5.450 -1.3075 -1.0231 -1.8776
  189SAPI   C3621784   3.219   5.075   5.279  0.3920 -0.2297  0.3949
  189SAPI   H6X21785   3.124   5.019   5.264 -0.0585  0.5636  0.2557
  189SAPI   H6Y21786   3.290   4.992   5.258 -0.0598 -0.1977 -1.4081
  189SAPI   C3721787   3.222   5.196   5.193 -0.6604 -0.6235 -0.1923
  189SAPI   H7X21788   3.319   5.248   5.212 -0.6287 -1.2286  1.4511
  189SAPI   H7Y21789   3.150   5.274   5.225 -1.4342 -1.3877 -0.0758
  189SAPI   C3821790   3.182   5.179   5.047 -0.0993 -0.3098 -0.0381
  189SAPI   H8X21791   3.116   5.264   5.017 -1.3289 -1.0416  0.4914
  189SAPI   H8Y21792   3.122   5.086   5.035 -1.1911  0.4788 -0.9732
  189SAPI   C3921793   3.300   5.177   4.944 -0.6639  0.5274 -0.0672
  189SAPI   H9X21794   3.364   5.086   4.948 -2.4422 -0.8558 -1.3961
  189SAPI   H9Y21795   3.362   5.262   4.980  0.9388 -0.0568 -1.3652
  189SAPI  C31021796   3.247   5.192   4.801 -0.4317  0.6627  0.4755
  189SAPI  H10X21797   3.192   5.289   4.797  2.6486  2.5448  0.8646
  189SAPI  H10Y21798   3.176   5.109   4.777 -0.6002  1.0396 -0.3848
  189SAPI  C31121799   3.361   5.202   4.705 -0.4416  0.4415 -0.1576
  189SAPI  H11X21800   3.419   5.109   4.721 -1.1660  0.1645  1.0342
  189SAPI  H11Y21801   3.431   5.285   4.728  0.0516  1.4225 -4.4107
  189SAPI  C31221802   3.326   5.202   4.562 -0.8870  0.2485  0.3164
  189SAPI  H12X21803   3.256   5.288   4.553  0.2295  1.2027  0.4861
  189SAPI  H12Y21804   3.275   5.105   4.545 -0.4391 -0.5628  3.0827
  189SAPI  C31321805   3.437   5.216   4.455  0.6298  0.0877  0.1129
  189SAPI  H13X21806   3.382   5.227   4.359 -1.8927 -0.8952  1.3638
  189SAPI  H13Y21807   3.499   5.124   4.456  0.9425  0.2960  1.1519
  189SAPI  C31421808   3.520   5.342   4.489  0.4209 -0.2419  0.2457
  189SAPI  H14X21809   3.587   5.308   4.571  0.3282 -0.9472  0.0294
  189SAPI  H14Y21810   3.455   5.420   4.535  0.4683 -1.6147  2.8399
  189SAPI  C31521811   3.597   5.388   4.361  0.0452  0.2422 -0.8135
  189SAPI  H15X21812   3.535   5.433   4.280 -0.9208  0.4370  0.0161
  189SAPI  H15Y21813   3.634   5.302   4.301  1.7925  0.6296 -0.3481
  189SAPI  C31621814   3.719   5.474   4.395 -0.6964  0.4983  0.1008
  189SAPI  H16X21815   3.793   5.411   4.448 -0.0389  0.0192 -1.3545
  189SAPI  H16Y21816   3.682   5.557   4.460 -0.1175  0.3881  0.5781
  189SAPI  C31721817   3.789   5.527   4.270 -0.1465 -0.2104  0.3121
  189SAPI  H17X21818   3.708   5.571   4.208  0.1761  0.9096  0.6630
  189SAPI  H17Y21819   3.834   5.446   4.208 -0.9807 -0.6508  0.2690
  189SAPI  C31821820   3.884   5.648   4.280  0.4012  0.6433 -0.1730
  189SAPI  H18X21821   3.923   5.691   4.186 -1.8044 -0.5526 -1.7430
  189SAPI  H18Y21822   3.971   5.622   4.344 -0.3281 -2.2625 -0.2183
  189SAPI  H18Z21823   3.846   5.734   4.339 -1.3535 -1.3408  1.8073
  190SAPI   C1221824   5.020   1.795   6.209 -0.1848  0.6843  1.0024
  190SAPI    H221825   4.934   1.836   6.267 -1.2375  0.5569 -0.4231
  190SAPI    O221826   4.950   1.755   6.085  0.0888  0.0645  0.1103
  190SAPI   HO221827   4.999   1.676   6.060 -0.2616 -0.1303  0.0389
  190SAPI   C1321828   5.105   1.920   6.201  0.6306  0.0763  0.8707
  190SAPI    H321829   5.028   1.994   6.167  0.5891 -0.5560 -0.4373
  190SAPI    O321830   5.201   1.912   6.095  1.3311  0.9589 -0.0526
  190SAPI   HO321831   5.246   1.830   6.114 -2.7404 -1.5463  0.0858
  190SAPI   C1421832   5.161   1.964   6.336  0.2756  0.0528 -0.4575
  190SAPI    H421833   5.271   1.974   6.318  0.2585  0.9123 -0.1191
  190SAPI    O421834   5.103   2.089   6.370 -0.3386  0.1525  0.0433
  190SAPI   HO421835   5.163   2.164   6.367  0.2656 -0.2398  1.5760
  190SAPI   C1521836   5.141   1.857   6.441  0.9271  0.3787  0.2373
  190SAPI    H521837   5.037   1.850   6.480  0.2019  1.8781 -1.2961
  190SAPI    O521838   5.219   1.889   6.556 -0.2031  0.1660 -0.0117
  190SAPI   HO521839   5.217   1.819   6.621  0.1093  0.1198 -0.0529
  190SAPI   C1621840   5.186   1.721   6.386 -0.0007  0.7566 -0.1995
  190SAPI    H621841   5.289   1.742   6.348 -0.0443  0.8403 -0.2708
  190SAPI    O621842   5.206   1.612   6.482  0.4281 -0.2246  0.2972
  190SAPI   HO621843   5.216   1.528   6.437  0.8694 -1.5631  2.7594
  190SAPI   C1121844   5.091   1.678   6.273 -0.0562 -0.3263  0.3592
  190SAPI    H121845   5.009   1.621   6.323 -0.9346  0.9543  0.4219
  190SAPI     P21846   5.167   1.435   6.198  0.5215 -0.0125  0.3418
  190SAPI   O1321847   5.248   1.421   6.323 -0.4159 -0.1889 -0.3599
  190SAPI   O1421848   5.217   1.381   6.071 -0.5157  0.2672 -1.0341
  190SAPI   O1221849   5.165   1.596   6.180  0.5859  0.4225  0.2238
  190SAPI   O1121850   5.014   1.401   6.232 -0.4201  0.0244  0.6831
  190SAPI    C121851   4.945   1.311   6.148 -0.2236 -0.0146 -1.1728
  190SAPI    HA21852   5.011   1.249   6.084  2.1237  1.1976 -0.0565
  190SAPI    HB21853   4.893   1.238   6.214 -0.1426  0.2039 -0.8660
  190SAPI    C221854   4.843   1.393   6.066  0.1556 -1.0037 -0.1265
  190SAPI    HS21855   4.774   1.320   6.020 -0.3710 -1.3110  1.1257
  190SAPI   O2121856   4.897   1.482   5.961 -0.1174  0.0403 -0.1877
  190SAPI   C2121857   4.930   1.406   5.861 -0.2851  0.5272  0.8457
  190SAPI   O2221858   4.932   1.285   5.864  0.2714  0.0879 -0.2013
  190SAPI   C2221859   4.966   1.489   5.741 -0.5307 -0.0368 -0.5607
  190SAPI   H2R21860   5.025   1.573   5.782 -1.8322  0.6823 -0.1079
  190SAPI   H2S21861   5.025   1.422   5.674 -0.3345  1.8887 -2.4268
  190SAPI    C321862   4.748   1.476   6.160 -0.2198  0.3604 -0.6219
  190SAPI    HX21863   4.798   1.571   6.187 -2.6288  1.4118  0.4720
  190SAPI    HY21864   4.725   1.417   6.252 -3.4376 -1.4071 -2.3835
  190SAPI   O3121865   4.624   1.503   6.092 -0.4621  0.3674  0.1755
  190SAPI   C3121866   4.577   1.628   6.108  0.0895 -0.0047  0.1399
  190SAPI   O3221867   4.635   1.719   6.172  0.0703 -0.1548 -0.3077
  190SAPI   C3221868   4.463   1.643   6.010 -0.1733 -0.8283 -0.5440
  190SAPI   H2X21869   4.401   1.735   6.002  0.9340 -0.0451 -0.2484
  190SAPI   H2Y21870   4.385   1.573   6.047 -1.5712  0.9251 -0.0376
  190SAPI   C2321871   4.842   1.547   5.665  0.7226 -0.1271 -0.2321
  190SAPI   H3R21872   4.882   1.575   5.566 -0.6625  1.5668 -0.3707
  190SAPI   H3S21873   4.821   1.635   5.730  0.8592 -1.8695  2.3184
  190SAPI   C2421874   4.728   1.445   5.641 -0.4066 -0.0735 -0.1910
  190SAPI   H4R21875   4.659   1.508   5.580  1.2568  3.0231  0.8708
  190SAPI   H4S21876   4.670   1.426   5.734 -2.7880  3.4212 -0.7622
  190SAPI   C2521877   4.774   1.317   5.572  0.2238  0.1038  1.2061
  190SAPI   H5R21878   4.822   1.244   5.639  1.8640 -0.0543 -0.0912
  190SAPI   C2621879   4.754   1.289   5.441  0.2442 -0.2800  0.1535
  190SAPI   H6R21880   4.782   1.191   5.400 -0.1019 -0.3183  0.0030
  190SAPI   C2721881   4.685   1.383   5.334 -1.0286  0.3687 -0.4085
  190SAPI   H7R21882   4.748   1.366   5.245  1.4670  2.0355  0.9117
  190SAPI   H7S21883   4.710   1.488   5.363  1.5359 -0.6402  1.3533
  190SAPI   C2821884   4.541   1.362   5.312  0.3917  0.4510  0.7471
  190SAPI   H8R21885   4.478   1.342   5.400 -1.0930  0.4241 -0.2859
  190SAPI   C2921886   4.480   1.376   5.196 -0.7973  0.1869 -0.4949
  190SAPI   H9R21887   4.372   1.360   5.193 -0.4946 -2.4508  0.0050
  190SAPI  C21021888   4.556   1.404   5.065  0.3926 -0.5282  0.3848
  190SAPI  H10R21889   4.486   1.381   4.981  0.7375  1.5945 -0.5565
  190SAPI  H10S21890   4.654   1.351   5.055  1.5705  1.1674  2.1718
  190SAPI  C21121891   4.588   1.550   5.057 -0.2734  0.1352 -0.0838
  190SAPI  H11R21892   4.573   1.616   5.144 -0.7394 -0.9182  0.6563
  190SAPI  C21221893   4.647   1.596   4.945  0.5485  0.7176 -0.5618
  190SAPI  H12R21894   4.683   1.700   4.942  1.2633  0.4392 -2.0506
  190SAPI  C21321895   4.675   1.520   4.817 -0.2155 -0.7057 -0.4242
  190SAPI  H13R21896   4.690   1.411   4.827  0.6774 -0.7496 -1.9421
  190SAPI  H13S21897   4.764   1.560   4.765 -0.9793 -1.4642 -2.3976
  190SAPI  C21421898   4.566   1.545   4.717 -0.2418  0.2413 -0.1645
  190SAPI  H14R21899   4.473   1.589   4.757 -0.3509 -1.2877  1.3636
  190SAPI  C21521900   4.571   1.532   4.583 -0.2254 -0.6623 -0.6330
  190SAPI  H15R21901   4.486   1.548   4.515  0.1379 -0.4905 -1.0569
  190SAPI  C21621902   4.686   1.462   4.506  0.0603 -0.0348 -0.2853
  190SAPI  H16R21903   4.687   1.353   4.528  0.2617  0.3070  1.5756
  190SAPI  H16S21904   4.783   1.509   4.532 -0.0189  0.2526 -0.5140
  190SAPI  C21721905   4.683   1.477   4.350 -0.1365  0.2374  0.1402
  190SAPI  H17R21906   4.578   1.458   4.320 -0.1875  0.3482  0.2479
  190SAPI  H17S21907   4.757   1.407   4.305 -0.7523 -1.1585  1.2258
  190SAPI  C21821908   4.711   1.629   4.307  0.0388  0.7049  0.3252
  190SAPI  H18R21909   4.820   1.647   4.318  0.5841 -2.7891  1.9365
  190SAPI  H18S21910   4.655   1.683   4.386 -0.1535  0.9909  0.0015
  190SAPI  C21921911   4.669   1.680   4.167 -0.3419  1.2617 -0.2885
  190SAPI  H19R21912   4.703   1.786   4.161  0.9057  0.8684 -0.5293
  190SAPI  H19S21913   4.560   1.665   4.159 -0.1078  0.2120 -1.6268
  190SAPI  C22021914   4.731   1.601   4.049  0.0861  0.3977 -0.3287
  190SAPI  H20R21915   4.839   1.616   4.071  0.1784  0.7084 -0.9591
  190SAPI  H20S21916   4.697   1.646   3.953 -0.7612 -0.0878 -0.2712
  190SAPI  H20T21917   4.701   1.495   4.063 -0.4867  0.5918 -0.0532
  190SAPI   C3321918   4.510   1.621   5.866  0.4567 -0.4660  0.3299
  190SAPI   H3X21919   4.515   1.511   5.854 -0.9984 -0.3503 -2.0659
  190SAPI   H3Y21920   4.605   1.672   5.839  0.8810 -0.1873  2.2390
  190SAPI   C3421921   4.396   1.676   5.768  0.3507  0.2301 -0.0071
  190SAPI   H4X21922   4.389   1.787   5.773  0.6962  0.2460  0.1608
  190SAPI   H4Y21923   4.297   1.635   5.798  0.7343 -0.0167  0.9833
  190SAPI   C3521924   4.416   1.636   5.626 -0.0459  0.5358  0.0015
  190SAPI   H5X21925   4.434   1.527   5.619  1.3469  0.8607 -3.2660
  190SAPI   H5Y21926   4.506   1.683   5.581  0.6525 -1.3143 -0.6285
  190SAPI   C3621927   4.303   1.694   5.536 -0.1927  0.5286 -0.1475
  190SAPI   H6X21928   4.310   1.805   5.543  1.3776  0.3975  1.0343
  190SAPI   H6Y21929   4.205   1.669   5.582 -0.9259  1.1484 -1.3114
  190SAPI   C3721930   4.298   1.653   5.387 -0.5724 -0.2707 -1.0374
  190SAPI   H7X21931   4.301   1.543   5.401 -0.3311 -0.2405 -0.8435
  190SAPI   H7Y21932   4.381   1.691   5.323 -0.3412  2.2632  0.5942
  190SAPI   C3821933   4.169   1.689   5.312  0.0424 -0.6951 -0.0940
  190SAPI   H8X21934   4.142   1.796   5.329 -0.6082 -0.9359  0.4567
  190SAPI   H8Y21935   4.087   1.631   5.359 -0.2437  0.1143  0.4449
  190SAPI   C3921936   4.181   1.658   5.163 -0.5948  0.7099  1.2162
  190SAPI   H9X21937   4.078   1.636   5.125 -0.9283 -0.0378  2.4771
  190SAPI   H9Y21938   4.250   1.573   5.143 -0.2010  1.4259 -0.6555
  190SAPI  C31021939   4.239   1.776   5.083 -0.3678 -0.7474 -0.0865
  190SAPI  H10X21940   4.344   1.792   5.115 -0.8376  0.7294  0.7912
  190SAPI  H10Y21941   4.191   1.874   5.104  0.0630 -0.4028 -0.6819
  190SAPI  C31121942   4.247   1.752   4.930 -0.3462 -0.3193  0.4627
  190SAPI  H11X21943   4.305   1.659   4.914 -1.0859 -0.7578  0.2720
  190SAPI  H11Y21944   4.299   1.842   4.889  0.3839 -0.0996  1.8049
  190SAPI  C31221945   4.108   1.750   4.868 -0.0849  0.5231 -0.0641
  190SAPI  H12X21946   4.046   1.822   4.926  1.1074  0.8298  0.8772
  190SAPI  H12Y21947   4.075   1.647   4.892 -2.5214  1.0323 -0.9764
  190SAPI  C31321948   4.103   1.766   4.718 -0.0123  0.9819 -0.1665
  190SAPI  H13X21949   4.153   1.862   4.692  2.7794  0.2126  1.9260
  190SAPI  H13Y21950   4.000   1.778   4.678  0.2013  2.4886 -0.3150
  190SAPI  C31421951   4.180   1.661   4.642 -0.0885  0.2223 -0.1760
  190SAPI  H14X21952   4.192   1.572   4.707  1.6098  1.0982  0.8064
  190SAPI  H14Y21953   4.285   1.696   4.629  0.2156 -0.3168  0.7175
  190SAPI  C31521954   4.114   1.629   4.506 -0.1622 -0.3501  0.3133
  190SAPI  H15X21955   4.081   1.724   4.460  2.5147  0.8764  0.7594
  190SAPI  H15Y21956   4.032   1.554   4.506 -0.8691  0.4090  0.6069
  190SAPI  C31621957   4.225   1.570   4.418 -0.3132  0.2621  0.1187
  190SAPI  H16X21958   4.285   1.486   4.459  4.4131  2.6255 -1.2971
  190SAPI  H16Y21959   4.304   1.643   4.393  2.7011 -2.9328 -0.5340
  190SAPI  C31721960   4.169   1.506   4.286  0.5343  0.0407 -0.2941
  190SAPI  H17X21961   4.101   1.579   4.238 -0.4496 -0.9729 -0.4745
  190SAPI  H17Y21962   4.108   1.417   4.311 -0.6701  1.0778  0.5340
  190SAPI  C31821963   4.279   1.472   4.189 -0.9119 -0.4221 -0.0838
  190SAPI  H18X21964   4.250   1.412   4.101 -0.4210 -1.6955  0.6024
  190SAPI  H18Y21965   4.352   1.405   4.239  0.4407  1.5614  0.7238
  190SAPI  H18Z21966   4.336   1.565   4.168  0.2493 -1.0695  0.1264
  191SAPI   C1221967   4.496   4.595   2.060 -0.3304  0.7155 -0.4994
  191SAPI    H221968   4.538   4.521   2.132  1.0027 -0.1277 -2.0953
  191SAPI    O221969   4.558   4.568   1.933 -0.7022 -0.1234  0.0777
  191SAPI   HO221970   4.651   4.580   1.954  0.1944 -0.1429 -3.3130
  191SAPI   C1321971   4.339   4.570   2.066 -0.0897  0.2412 -0.2750
  191SAPI    H321972   4.302   4.575   2.171  0.1453 -0.1218 -0.1736
  191SAPI    O321973   4.322   4.429   2.040  0.2763  0.0431 -0.6639
  191SAPI   HO321974   4.314   4.415   1.945 -1.6526  0.2183 -0.5608
  191SAPI   C1421975   4.274   4.659   1.972 -0.0960  0.4565  0.1738
  191SAPI    H421976   4.308   4.628   1.871 -1.6808  1.2202 -0.6339
  191SAPI    O421977   4.135   4.647   1.977  0.0081  0.2424  0.0868
  191SAPI   HO421978   4.090   4.701   2.043 -3.5665 -1.0664 -1.0387
  191SAPI   C1521979   4.320   4.801   1.967  0.2061 -0.1189  0.0126
  191SAPI    H521980   4.253   4.852   2.039 -1.0018  1.8961 -2.3475
  191SAPI    O521981   4.290   4.868   1.839  0.1030 -0.2647 -0.4625
  191SAPI   HO521982   4.248   4.953   1.852  1.5898  0.0710  3.7962
  191SAPI   C1621983   4.465   4.840   2.019 -0.1145 -0.3261 -0.5899
  191SAPI    H621984   4.523   4.851   1.925 -1.2855  0.3857 -1.2572
  191SAPI    O621985   4.474   4.968   2.083  0.4400 -0.3186  0.1136
  191SAPI   HO621986   4.426   4.966   2.167  1.8701  1.1601  1.0218
  191SAPI   C1121987   4.531   4.730   2.109  0.2330  0.3751 -0.4369
  191SAPI    H121988   4.488   4.736   2.211  0.7565 -3.3174  0.1369
  191SAPI     P21989   4.760   4.753   2.236 -0.4788  0.0711 -0.0126
  191SAPI   O1321990   4.755   4.890   2.293 -0.2208 -1.0295 -0.0517
  191SAPI   O1421991   4.892   4.699   2.190 -0.0113 -0.5886 -0.0237
  191SAPI   O1221992   4.666   4.744   2.104 -0.1285 -0.3767  0.0927
  191SAPI   O1121993   4.693   4.639   2.321 -0.2604  0.1439 -0.0527
  191SAPI    C121994   4.727   4.497   2.332  0.0232  0.6529 -0.6441
  191SAPI    HA21995   4.705   4.448   2.234  0.2526 -0.3872 -0.1799
  191SAPI    HB21996   4.830   4.494   2.371 -0.8082  0.6338  1.6681
  191SAPI    C221997   4.639   4.433   2.445 -0.8148  0.3054 -0.3979
  191SAPI    HS21998   4.673   4.327   2.448 -0.4681  0.3178 -2.4739
  191SAPI   O2121999   4.502   4.448   2.411 -0.4782  0.0984  0.2382
  191SAPI   C2122000   4.422   4.347   2.458  0.6764  0.0644  0.1701
  191SAPI   O2222001   4.458   4.258   2.527 -0.2808 -0.2356 -0.2046
  191SAPI   C2222002   4.280   4.378   2.412  0.0898  0.1916  0.1755
  191SAPI   H2R22003   4.277   4.485   2.383  2.3365  0.3443  0.3209
  191SAPI   H2S22004   4.256   4.329   2.316 -0.6330 -1.7683  1.2956
  191SAPI    C322005   4.660   4.514   2.584 -0.2139  0.7695 -0.3499
  191SAPI    HX22006   4.597   4.604   2.569  1.7228  2.6793  2.1009
  191SAPI    HY22007   4.765   4.547   2.600 -0.0396 -0.9663  3.0813
  191SAPI   O3122008   4.614   4.445   2.703  0.0498 -0.1269 -0.4278
  191SAPI   C3122009   4.674   4.344   2.744  0.7888  0.2299 -0.0270
  191SAPI   O3222010   4.770   4.289   2.692 -0.3834 -0.1244 -0.1182
  191SAPI   C3222011   4.610   4.303   2.884 -0.5406  0.5024  0.6569
  191SAPI   H2X22012   4.503   4.289   2.860  0.0760 -0.4674 -1.7916
  191SAPI   H2Y22013   4.640   4.383   2.955  1.9441  1.5926 -1.4838
  191SAPI   C2322014   4.166   4.345   2.512  0.4375  0.1893 -0.2485
  191SAPI   H3R22015   4.166   4.234   2.521  2.4488 -0.0592 -2.4227
  191SAPI   H3S22016   4.074   4.379   2.459  0.0557 -0.5198 -0.0566
  191SAPI   C2422017   4.186   4.407   2.650 -0.3454 -0.5559 -0.4131
  191SAPI   H4R22018   4.169   4.514   2.625 -0.9597 -0.0166  1.9900
  191SAPI   H4S22019   4.293   4.391   2.674 -0.2568 -0.4776 -0.7487
  191SAPI   C2522020   4.096   4.351   2.754  0.0452  0.5416  0.0664
  191SAPI   H5R22021   3.993   4.320   2.731 -0.2224 -1.1756  3.0930
  191SAPI   C2622022   4.116   4.357   2.880 -0.0952  0.3066 -0.4374
  191SAPI   H6R22023   4.048   4.299   2.945 -0.4715 -1.3185 -2.1817
  191SAPI   C2722024   4.241   4.407   2.945 -0.9320  0.4056  0.4900
  191SAPI   H7R22025   4.311   4.446   2.868  0.9952 -1.4537  1.2164
  191SAPI   H7S22026   4.298   4.319   2.980 -2.0328 -0.8346 -0.7217
  191SAPI   C2822027   4.236   4.521   3.042  0.1397  0.0976 -0.0592
  191SAPI   H8R22028   4.202   4.617   2.999  1.1792  0.4663 -0.0835
  191SAPI   C2922029   4.280   4.527   3.170 -0.6976 -0.3335  0.4597
  191SAPI   H9R22030   4.283   4.627   3.216  2.7297 -1.3820  2.8717
  191SAPI  C21022031   4.354   4.413   3.243  0.5464 -0.0686  0.2976
  191SAPI  H10R22032   4.463   4.419   3.224  0.2326  2.5428 -1.2534
  191SAPI  H10S22033   4.322   4.316   3.201  1.7320  0.5177 -2.1132
  191SAPI  C21122034   4.310   4.398   3.384  0.3599  0.1976 -0.3539
  191SAPI  H11R22035   4.233   4.327   3.419 -0.3936  1.4648  0.6321
  191SAPI  C21222036   4.366   4.458   3.493  0.0610  0.0552 -0.1238
  191SAPI  H12R22037   4.319   4.442   3.591 -2.3248  1.1825 -1.0074
  191SAPI  C21322038   4.488   4.552   3.483 -0.3293  0.2794 -0.0261
  191SAPI  H13R22039   4.457   4.647   3.531 -3.5404 -0.7074  0.0749
  191SAPI  H13S22040   4.495   4.579   3.375 -0.5874 -2.8791 -0.9407
  191SAPI  C21422041   4.620   4.504   3.535 -0.9290  0.3585  0.1103
  191SAPI  H14R22042   4.649   4.409   3.488 -2.6445  0.4347 -1.1944
  191SAPI  C21522043   4.696   4.551   3.641  0.1262 -0.5647 -0.0632
  191SAPI  H15R22044   4.793   4.502   3.662 -0.3416 -0.6109  2.3573
  191SAPI  C21622045   4.666   4.679   3.718  0.4014  0.2029  0.2932
  191SAPI  H16R22046   4.570   4.728   3.690 -0.7886 -1.7154  0.8655
  191SAPI  H16S22047   4.751   4.744   3.690 -0.8180  1.1105 -1.5297
  191SAPI  C21722048   4.674   4.642   3.868  0.2650  0.7460 -0.3239
  191SAPI  H17R22049   4.755   4.569   3.889  0.6962  0.6451 -2.1857
  191SAPI  H17S22050   4.585   4.591   3.910  0.4072  1.7710  1.3084
  191SAPI  C21822051   4.702   4.761   3.964 -0.7153 -0.5091  0.2969
  191SAPI  H18R22052   4.617   4.831   3.973  1.0278  1.6432  0.8400
  191SAPI  H18S22053   4.797   4.807   3.929 -0.7225 -1.9063 -1.7409
  191SAPI  C21922054   4.725   4.703   4.104 -0.0465 -0.6455  0.7045
  191SAPI  H19R22055   4.811   4.633   4.109  0.7775  0.3025  0.0430
  191SAPI  H19S22056   4.635   4.646   4.136 -0.8778 -0.4503 -1.1598
  191SAPI  C22022057   4.750   4.818   4.195  0.3120  0.5254  0.0335
  191SAPI  H20R22058   4.807   4.773   4.280  1.9460 -1.8203 -2.1794
  191SAPI  H20S22059   4.653   4.856   4.233 -1.3025 -1.2139 -2.0975
  191SAPI  H20T22060   4.813   4.894   4.146 -0.8029  1.5407  0.1227
  191SAPI   C3322061   4.661   4.162   2.940  0.2016 -0.4433  0.3535
  191SAPI   H3X22062   4.771   4.165   2.951  0.2649 -0.6825 -0.1866
  191SAPI   H3Y22063   4.612   4.094   2.867 -0.1610  0.2122 -0.0213
  191SAPI   C3422064   4.605   4.144   3.085  0.1391  0.2795  0.1325
  191SAPI   H4X22065   4.499   4.177   3.077  0.5939  1.7644 -0.2455
  191SAPI   H4Y22066   4.657   4.217   3.151  2.5703 -0.9947 -0.2843
  191SAPI   C3522067   4.622   4.004   3.134 -0.2658  0.7905  0.2590
  191SAPI   H5X22068   4.729   3.985   3.155  0.1096  0.1091 -1.9916
  191SAPI   H5Y22069   4.607   3.930   3.053  0.6723 -0.4459  1.1848
  191SAPI   C3622070   4.553   3.968   3.267 -0.2466  0.1659  0.0276
  191SAPI   H6X22071   4.566   3.858   3.280 -1.8598  0.0311  0.7387
  191SAPI   H6Y22072   4.445   3.991   3.256 -0.5961 -1.2506  0.2150
  191SAPI   C3722073   4.609   4.048   3.390  0.0833  0.2508 -0.4790
  191SAPI   H7X22074   4.583   4.153   3.365 -1.0557  0.7416  2.3809
  191SAPI   H7Y22075   4.715   4.016   3.397  0.0628  0.0864 -0.9158
  191SAPI   C3822076   4.552   4.007   3.530  0.1724  0.7237  0.1553
  191SAPI   H8X22077   4.593   3.906   3.550  0.0104  0.6032 -0.1251
  191SAPI   H8Y22078   4.444   3.982   3.529  0.6959 -1.7479 -0.6101
  191SAPI   C3922079   4.576   4.108   3.645 -0.0505 -0.1646  0.1093
  191SAPI   H9X22080   4.558   4.213   3.614  0.3956 -0.0004  0.3845
  191SAPI   H9Y22081   4.685   4.097   3.666  0.0131 -0.8165 -0.5432
  191SAPI  C31022082   4.493   4.084   3.775  0.1875  0.0575 -0.3011
  191SAPI  H10X22083   4.539   4.001   3.835 -2.0807 -1.4353 -0.4941
  191SAPI  H10Y22084   4.405   4.031   3.731  0.4563  0.5923 -1.4941
  191SAPI  C31122085   4.444   4.209   3.838  0.0079 -0.6362 -0.1672
  191SAPI  H11X22086   4.362   4.182   3.909  0.4154 -4.4440 -0.9413
  191SAPI  H11Y22087   4.393   4.276   3.766 -2.4779 -0.0192  1.9866
  191SAPI  C31222088   4.556   4.290   3.909  0.6506  0.2209  0.4141
  191SAPI  H12X22089   4.516   4.379   3.962 -0.9189 -0.9394  1.2910
  191SAPI  H12Y22090   4.633   4.312   3.832 -0.0825 -0.9326 -0.6903
  191SAPI  C31322091   4.635   4.217   4.026  0.4404  0.4436  0.4285
  191SAPI  H13X22092   4.690   4.125   3.996  1.7478  0.8970  1.3606
  191SAPI  H13Y22093   4.559   4.195   4.104 -0.6898  0.0933 -0.7152
  191SAPI  C31422094   4.732   4.320   4.087  0.4181 -0.6851 -0.5462
  191SAPI  H14X22095   4.674   4.408   4.119  1.2828 -0.1560 -0.3928
  191SAPI  H14Y22096   4.805   4.363   4.015  1.9894 -1.2487  0.6264
  191SAPI  C31522097   4.821   4.260   4.200 -0.1023  0.1276  0.2459
  191SAPI  H15X22098   4.886   4.181   4.156  2.6894  1.8765  1.0051
  191SAPI  H15Y22099   4.752   4.212   4.272 -1.1735 -0.1878 -0.9396
  191SAPI  C31622100   4.916   4.361   4.259 -0.8646 -0.8220 -0.2648
  191SAPI  H16X22101   4.886   4.468   4.253  2.5848  0.4762  2.0823
  191SAPI  H16Y22102   5.013   4.361   4.204 -0.3052  0.2393  0.6542
  191SAPI  C31722103   4.938   4.333   4.409 -0.0089 -0.3237 -0.3337
  191SAPI  H17X22104   4.969   4.227   4.419 -1.3699 -0.6533  0.6124
  191SAPI  H17Y22105   4.840   4.350   4.459  0.6895  1.7135  0.4492
  191SAPI  C31822106   5.046   4.418   4.480  0.6031  0.5352 -0.3838
  191SAPI  H18X22107   5.030   4.395   4.588  2.4902  1.7258  0.1976
  191SAPI  H18Y22108   5.035   4.527   4.461  0.3966  0.0332 -3.6861
  191SAPI  H18Z22109   5.149   4.387   4.455  0.1137 -2.6925  1.1511
  192SAPI   C1222110   1.760   3.444   2.026 -0.1950  0.4094 -0.3936
  192SAPI    H222111   1.835   3.442   2.108  0.4636 -0.8039 -1.0028
  192SAPI    O222112   1.639   3.371   2.071 -0.0203 -0.0031 -0.8164
  192SAPI   HO222113   1.641   3.382   2.166 -0.2256 -0.3647 -0.7668
  192SAPI   C1322114   1.732   3.595   1.995 -0.1167 -0.0703 -0.2386
  192SAPI    H322115   1.833   3.627   1.959 -0.3400 -0.2676 -1.0790
  192SAPI    O322116   1.707   3.674   2.118  0.4389 -0.2101 -0.3960
  192SAPI   HO322117   1.642   3.627   2.171 -0.1498  0.7330 -0.2601
  192SAPI   C1422118   1.622   3.595   1.887  0.0311  0.6039 -0.2600
  192SAPI    H422119   1.532   3.572   1.949  0.1536  0.8697  0.0170
  192SAPI    O422120   1.602   3.723   1.839 -0.0065 -0.3058  0.2938
  192SAPI   HO422121   1.692   3.741   1.811  1.3197 -3.0264  2.3247
  192SAPI   C1522122   1.641   3.497   1.767  0.4075 -0.5149 -0.2177
  192SAPI    H522123   1.701   3.544   1.686  1.7281  0.3788  1.2276
  192SAPI    O522124   1.519   3.471   1.703 -0.7063 -0.4726  0.2384
  192SAPI   HO522125   1.533   3.492   1.610  2.4452  0.5800  0.8353
  192SAPI   C1622126   1.717   3.368   1.799  0.9065 -0.2284 -0.1868
  192SAPI    H622127   1.646   3.290   1.832  0.2820 -0.1781 -1.3551
  192SAPI    O622128   1.781   3.315   1.682  0.4440 -0.1262 -0.4090
  192SAPI   HO622129   1.727   3.240   1.655 -0.0249  0.3278 -0.7398
  192SAPI   C1122130   1.820   3.375   1.906  0.2378 -0.2175  0.7133
  192SAPI    H122131   1.907   3.437   1.877  0.3299  1.0675  3.4312
  192SAPI     P22132   2.016   3.204   1.948  0.2335 -0.0305  0.1512
  192SAPI   O1322133   2.102   3.293   1.865 -0.8876  0.2167 -1.0338
  192SAPI   O1422134   2.039   3.063   1.926 -0.0672 -0.3323 -0.2401
  192SAPI   O1222135   1.851   3.239   1.938 -0.6356 -0.4039 -0.4774
  192SAPI   O1122136   2.055   3.234   2.099 -0.4597 -0.0680 -0.4923
  192SAPI    C122137   1.990   3.150   2.203  0.6468  0.3760  0.0272
  192SAPI    HA22138   1.916   3.074   2.169 -0.5951 -0.0445  3.2697
  192SAPI    HB22139   2.072   3.099   2.257  1.1020 -0.4528 -1.3847
  192SAPI    C222140   1.910   3.236   2.305 -0.0500 -0.1345  0.1258
  192SAPI    HS22141   1.824   3.287   2.258 -0.4919 -1.0589 -0.0813
  192SAPI   O2122142   2.006   3.334   2.357  0.5416  0.5169 -0.3388
  192SAPI   C2122143   1.954   3.439   2.402 -0.3313 -0.6391 -0.3036
  192SAPI   O2222144   1.836   3.465   2.409 -0.1752  0.0863  0.3922
  192SAPI   C2222145   2.058   3.531   2.460  0.0712  0.1949  0.1103
  192SAPI   H2R22146   2.129   3.471   2.521  0.0797  0.4612  0.3645
  192SAPI   H2S22147   2.117   3.576   2.377 -0.8717  1.4872  0.1267
  192SAPI    C322148   1.858   3.145   2.423 -0.7846  0.3019  0.1718
  192SAPI    HX22149   1.957   3.112   2.461 -0.0029  0.3230 -1.7768
  192SAPI    HY22150   1.798   3.058   2.388 -3.3042  0.8406  2.7685
  192SAPI   O3122151   1.779   3.199   2.530  0.0914 -0.7358 -0.3838
  192SAPI   C3122152   1.660   3.243   2.488  0.5310  0.0167  0.4383
  192SAPI   O3222153   1.609   3.224   2.380 -0.1058 -0.1886 -0.3603
  192SAPI   C3222154   1.591   3.318   2.600 -0.2739 -0.8326 -0.3972
  192SAPI   H2X22155   1.570   3.424   2.573  1.5507 -0.1204  0.7852
  192SAPI   H2Y22156   1.656   3.314   2.690 -0.6756 -0.8961 -0.1082
  192SAPI   C2322157   2.000   3.657   2.529  0.5128 -0.6006  0.4623
  192SAPI   H3R22158   1.945   3.629   2.622 -0.0144  2.0286  1.0323
  192SAPI   H3S22159   1.930   3.708   2.459  1.6601  0.7251  0.2268
  192SAPI   C2422160   2.109   3.763   2.566 -0.0304 -0.2344 -0.2669
  192SAPI   H4R22161   2.148   3.819   2.478 -0.2054  1.2354  0.5510
  192SAPI   H4S22162   2.194   3.716   2.619 -0.3971 -0.7672 -0.1498
  192SAPI   C2522163   2.052   3.878   2.646 -0.3163  0.0150  0.0696
  192SAPI   H5R22164   1.955   3.911   2.607 -0.0828 -1.1369 -1.5691
  192SAPI   C2622165   2.080   3.911   2.768  0.1157  0.2267 -0.9229
  192SAPI   H6R22166   2.026   3.994   2.816  0.8724 -0.7853  1.8437
  192SAPI   C2722167   2.190   3.848   2.855  0.2064 -0.3584 -0.2803
  192SAPI   H7R22168   2.289   3.867   2.808  0.0457 -0.7884 -0.7990
  192SAPI   H7S22169   2.180   3.738   2.855  1.6995 -0.5716  2.1754
  192SAPI   C2822170   2.176   3.904   2.994  0.1927  0.0398  0.7412
  192SAPI   H8R22171   2.213   4.007   2.994 -3.3574  1.4823 -0.8346
  192SAPI   C2922172   2.139   3.838   3.107  0.1302  0.2593 -0.3899
  192SAPI   H9R22173   2.105   3.904   3.188 -0.7530  1.2385 -1.5114
  192SAPI  C21022174   2.101   3.692   3.123 -0.3305  0.2964 -0.0308
  192SAPI  H10R22175   2.173   3.640   3.190  0.6149  0.3097 -1.0054
  192SAPI  H10S22176   2.116   3.639   3.026  1.1961  3.4435 -1.6688
  192SAPI  C21122177   1.959   3.680   3.171  0.1708 -0.5885  0.6138
  192SAPI  H11R22178   1.906   3.761   3.223  0.6880 -1.3176  2.3694
  192SAPI  C21222179   1.882   3.570   3.138 -0.4149 -0.2390  1.0252
  192SAPI  H12R22180   1.777   3.568   3.168 -0.2264 -0.5770  1.6847
  192SAPI  C21322181   1.935   3.451   3.070  0.4414 -0.1175  0.6544
  192SAPI  H13R22182   1.883   3.366   3.120  1.0751 -1.3028 -0.6216
  192SAPI  H13S22183   2.044   3.436   3.086  0.9536 -0.6340 -2.5775
  192SAPI  C21422184   1.911   3.441   2.918  0.2632 -0.3687  0.1061
  192SAPI  H14R22185   1.859   3.526   2.870 -1.0370 -0.7836  0.7291
  192SAPI  C21522186   1.925   3.321   2.854 -0.0281 -0.1015 -0.9593
  192SAPI  H15R22187   1.903   3.303   2.748  3.2463 -0.2962 -1.6947
  192SAPI  C21622188   1.984   3.200   2.922  0.2029  0.3308  0.1551
  192SAPI  H16R22189   1.944   3.108   2.875 -1.6564  1.8606 -1.4245
  192SAPI  H16S22190   1.949   3.185   3.027 -1.7390  0.1645 -0.4703
  192SAPI  C21722191   2.137   3.204   2.921  0.0044 -0.0647  0.6131
  192SAPI  H17R22192   2.169   3.104   2.957  1.6216  0.5790  1.0345
  192SAPI  H17S22193   2.174   3.277   2.996  0.3408 -0.0303  0.4154
  192SAPI  C21822194   2.215   3.220   2.790 -1.2492  0.5946 -0.3560
  192SAPI  H18R22195   2.321   3.190   2.804 -1.2907  1.7255  3.1141
  192SAPI  H18S22196   2.214   3.325   2.753  0.5256  1.0388  0.7451
  192SAPI  C21922197   2.156   3.129   2.677  0.4972  0.5102 -0.3824
  192SAPI  H19R22198   2.055   3.167   2.654 -0.8799 -1.2118  2.3671
  192SAPI  H19S22199   2.146   3.030   2.726 -0.6184  0.0196 -1.5379
  192SAPI  C22022200   2.243   3.139   2.543 -0.0369  0.3577 -0.7387
  192SAPI  H20R22201   2.340   3.092   2.570  0.5996  2.4604  0.9135
  192SAPI  H20S22202   2.258   3.248   2.524 -0.6046  0.6144  0.2045
  192SAPI  H20T22203   2.185   3.100   2.457 -0.3029  0.7277 -0.7293
  192SAPI   C3322204   1.455   3.251   2.620 -0.0293  0.3103 -0.8093
  192SAPI   H3X22205   1.469   3.141   2.629 -2.6904  0.0048  0.7233
  192SAPI   H3Y22206   1.376   3.271   2.545 -1.0432  0.6787  0.3283
  192SAPI   C3422207   1.398   3.291   2.756  0.0681 -0.0896  0.0034
  192SAPI   H4X22208   1.289   3.271   2.743 -0.4543  1.9631  0.8451
  192SAPI   H4Y22209   1.422   3.399   2.762  1.9198 -0.5660  2.7183
  192SAPI   C3522210   1.457   3.223   2.876  0.1973  0.0477 -0.2212
  192SAPI   H5X22211   1.561   3.259   2.893  0.1533  0.5087 -0.9141
  192SAPI   H5Y22212   1.451   3.113   2.867 -0.0965  0.1219 -0.9883
  192SAPI   C3622213   1.387   3.265   3.005 -0.3353  0.1915  0.1874
  192SAPI   H6X22214   1.398   3.374   3.023  3.0259 -0.0585  0.2647
  192SAPI   H6Y22215   1.458   3.228   3.082 -0.5762 -1.7512 -0.4566
  192SAPI   C3722216   1.249   3.202   3.040 -0.1670 -0.4660 -0.4404
  192SAPI   H7X22217   1.245   3.094   3.015 -1.4992 -0.6055  0.2910
  192SAPI   H7Y22218   1.169   3.257   2.984  0.5615 -0.5354 -1.5777
  192SAPI   C3822219   1.224   3.221   3.195  0.3500 -0.1408  0.0464
  192SAPI   H8X22220   1.123   3.178   3.209  0.4704 -2.0878 -3.7100
  192SAPI   H8Y22221   1.231   3.330   3.219 -0.2141  0.2784 -1.5552
  192SAPI   C3922222   1.315   3.135   3.290 -0.2560 -0.5441  0.3689
  192SAPI   H9X22223   1.423   3.147   3.266  0.2168 -2.6662  1.1416
  192SAPI   H9Y22224   1.296   3.026   3.275 -1.7223 -0.3836  0.9524
  192SAPI  C31022225   1.286   3.160   3.435  0.2532  0.2081 -0.9549
  192SAPI  H10X22226   1.287   3.269   3.458 -0.9676  0.3357 -1.4360
  192SAPI  H10Y22227   1.372   3.116   3.490 -0.7865  0.7431  1.1933
  192SAPI  C31122228   1.159   3.089   3.487  0.7439  0.1204 -0.4413
  192SAPI  H11X22229   1.170   2.981   3.465  0.5148 -0.1972  0.9066
  192SAPI  H11Y22230   1.065   3.132   3.445  0.2937 -0.6811 -0.2790
  192SAPI  C31222231   1.165   3.088   3.642 -1.1277 -0.0069 -0.0548
  192SAPI  H12X22232   1.147   3.193   3.671  0.2159  0.5945 -1.2685
  192SAPI  H12Y22233   1.268   3.067   3.679 -1.2852 -1.1408 -0.2224
  192SAPI  C31322234   1.076   2.982   3.713  0.2337 -1.1057 -0.0192
  192SAPI  H13X22235   1.126   2.883   3.702  1.8180 -0.5428  1.6512
  192SAPI  H13Y22236   0.983   2.969   3.654 -0.2090  0.4415  0.3076
  192SAPI  C31422237   1.058   3.023   3.865  0.1265 -0.4723 -0.1484
  192SAPI  H14X22238   0.978   3.099   3.856 -0.8343 -1.6224 -1.9279
  192SAPI  H14Y22239   1.150   3.073   3.901 -0.0092  0.0091 -0.4634
  192SAPI  C31522240   1.009   2.905   3.955  0.5260  0.2968 -0.1267
  192SAPI  H15X22241   1.028   2.937   4.059  0.2052  1.8131 -0.5104
  192SAPI  H15Y22242   1.060   2.808   3.935 -1.5602 -0.5904 -1.6172
  192SAPI  C31622243   0.855   2.877   3.935 -0.2196  0.6216 -0.3287
  192SAPI  H16X22244   0.822   2.877   3.829  0.0516  2.7065 -0.4610
  192SAPI  H16Y22245   0.803   2.969   3.971 -3.3109 -0.9532 -0.4249
  192SAPI  C31722246   0.796   2.770   4.029 -0.3925  0.7145 -0.1236
  192SAPI  H17X22247   0.801   2.803   4.135 -1.7722 -1.2337  0.5872
  192SAPI  H17Y22248   0.853   2.676   4.013 -2.4599 -0.3007 -1.9257
  192SAPI  C31822249   0.641   2.738   4.000 -0.2620  0.2680 -0.3391
  192SAPI  H18X22250   0.624   2.726   3.891 -2.3079  1.0639 -0.1602
  192SAPI  H18Y22251   0.577   2.826   4.027 -2.4536 -0.6327 -2.2046
  192SAPI  H18Z22252   0.588   2.651   4.044  0.8133 -0.9800 -1.4188
  193SOD    SOD22253   6.383   3.466   0.688 -0.1449  0.3484 -0.4569
  194SOD    SOD22254   3.099   2.401   2.070 -0.2851  0.6652 -0.1942
  195SOD    SOD22255   1.910   1.950   7.197  0.2845 -0.6885  0.2754
  196SOD    SOD22256   0.915   2.992   7.584 -0.2852  0.1411  0.0531
  197SOD    SOD22257   0.899   4.691   1.889  0.5542 -0.1749 -0.2291
  198SOD    SOD22258   2.088   5.972   7.878  0.1790  0.4963  0.4032
  199SOD    SOD22259   6.438   4.619   2.438  0.2372 -0.2607 -0.2353
  200SOD    SOD22260   4.887   3.407   6.647 -0.3967  0.6132  0.1687
  201SOD    SOD22261   5.562   0.013   0.998 -0.8615 -0.1757 -0.7875
  202SOD    SOD22262   0.398   1.721   1.651 -0.0587  0.1311  0.0517
  203SOD    SOD22263   0.808   5.587   8.404  0.7189  0.4204 -0.5019
  204SOD    SOD22264   5.713   6.086   2.210  0.0894  0.9282 -0.0573
  205SOD    SOD22265   4.152   5.485   8.424 -0.3373  0.3406  0.6861
  206SOD    SOD22266   1.611   1.453   7.235  0.4990 -0.2452 -0.0423
  207SOD    SOD22267   0.500   4.365   2.428  0.0756 -0.3724  0.3773
  208SOD    SOD22268   2.626   4.033   1.035 -0.2193 -0.1087  0.7550
  209SOD    SOD22269   4.047   3.693   8.192 -0.7045 -0.2591 -0.4810
  210SOD    SOD22270   5.299   2.095   0.779  0.5661  0.4639  0.3963
  211SOD    SOD22271   3.588   6.722   1.892  0.3607  0.1261  0.0764
  212SOD    SOD22272   0.407   2.607   7.959 -0.2799 -0.0945 -0.0147
  213SOD    SOD22273   1.407   2.356   7.210  0.1199  0.1215  0.1564
  214SOD    SOD22274   2.122   6.380   2.070 -0.1536 -0.0465 -0.1534
  215SOD    SOD22275   5.418   5.336   0.461 -0.2045  0.0739  0.0696
  216SOD    SOD22276   2.053   5.420   6.774  0.1521  0.3436  0.3592
  217SOD    SOD22277   4.881   3.688   0.423  0.1504  0.2041 -0.0895
  218SOD    SOD22278   6.079   1.693   7.126  0.1230 -0.2380 -0.1557
  219SOD    SOD22279   3.705   4.333   6.501  0.3379 -0.5583 -0.0005
  220SOD    SOD22280   0.433   4.132   1.370 -0.5939 -0.1962  0.5025
  221SOD    SOD22281   6.605   4.859   1.127 -0.4911 -0.2699 -0.0449
  222SOD    SOD22282   5.827   4.174   7.516  0.2800 -0.5562  0.1874
  223SOD    SOD22283   4.621   6.763   0.896  0.0761  0.0557  0.4660
  224SOD    SOD22284   6.054   0.014   6.605  0.0774 -0.1514 -0.1506
  225SOD    SOD22285   5.191   4.141   6.182 -0.8448 -0.0107 -0.2476
  226SOD    SOD22286   5.748   5.719   1.256  0.5497  0.4525  0.4988
  227SOD    SOD22287   2.247   2.768   6.898  0.0439 -0.6140 -0.0403
  228SOD    SOD22288   1.632   5.344   2.249  0.1294 -0.8560  0.0517
  229SOD    SOD22289   1.198   4.286   6.685  0.3022 -0.2102  0.2789
  230SOD    SOD22290   4.047   4.697   1.519 -0.0950 -0.1483 -0.4590
  231SOD    SOD22291   3.986   2.302   6.272  0.6634  0.5315 -0.3740
  232SOD    SOD22292   0.371   2.153   7.731  0.0295  0.3426 -0.1691
  233SOD    SOD22293   6.398   5.106   7.404  0.3212  0.0740  0.2297
  234CLA    CLA22294   5.054   5.643   7.317 -0.6240  0.1609 -0.5773
  235CLA    CLA22295   6.639   4.820   1.392  0.0658  0.3087  0.2859
  236CLA    CLA22296   0.648   4.253   1.272 -0.0100  0.1011  0.0698
  237CLA    CLA22297   4.393   2.116   8.116  0.1794 -0.0225  0.1653
  238CLA    CLA22298   5.256   2.658   7.977  0.8396 -0.0386 -0.2169
  239CLA    CLA22299   0.086   3.116   7.530  0.4354  0.1321  0.0846
  240CLA    CLA22300   4.408   0.850   1.243 -0.0951 -0.2144 -0.0009
  241CLA    CLA22301   1.910   2.061   7.967  0.1367 -0.4049  0.4267
  242CLA    CLA22302   4.070   3.644   7.546  0.0910 -0.0147  0.2164
  243CLA    CLA22303   5.959   3.240   0.655 -0.0657 -0.2369 -0.1702
  244CLA    CLA22304   0.111   0.728   0.360 -0.0885  0.4655  0.0633
  245CLA    CLA22305   1.061   1.953   7.685 -0.3014 -0.1469 -0.0750
  246CLA    CLA22306   1.885   1.467   7.163 -0.2838 -0.3619  0.1272
  247CLA    CLA22307   5.901   4.567   0.373 -0.0697  0.3603  0.1900
  248CLA    CLA22308   3.024   6.155   0.904 -0.2274 -0.4776 -0.5357
  249CLA    CLA22309   1.266   4.520   1.044  0.1095 -0.2242 -0.2833
  250CLA    CLA22310   5.529   5.571   1.160  0.1453 -0.2186  0.0463
  251TIP3   OH222311   1.424   4.703   1.953  0.0419  0.3183 -0.6506
  251TIP3    H122312   1.505   4.689   2.001  0.6828  0.8926 -1.5464
  251TIP3    H222313   1.434   4.652   1.873 -2.5873 -3.8838  1.3530
  252TIP3   OH222314   3.008   4.352   8.385 -0.4915  0.1086  0.0203
  252TIP3    H122315   3.065   4.381   8.457 -0.3096  0.0905 -0.1153
  252TIP3    H222316   3.003   4.428   8.327 -0.9923  0.2710  0.2672
  253TIP3   OH222317   4.647   1.154   6.278 -0.2971 -0.4043 -0.2477
  253TIP3    H122318   4.555   1.179   6.278 -0.4099 -0.7822  0.6361
  253TIP3    H222319   4.686   1.205   6.349  0.0833 -0.5509 -0.3462
  254TIP3   OH222320   3.482   6.328   0.463 -0.4789 -0.3601 -0.9037
  254TIP3    H122321   3.458   6.397   0.401 -1.1286  1.2171  0.9877
  254TIP3    H222322   3.404   6.274   0.471  0.0780 -1.4948 -2.5029
  255TIP3   OH222323   0.864   4.929   1.887 -0.5094 -0.7440 -0.9224
  255TIP3    H122324   0.921   4.969   1.953 -0.8013 -1.8257 -0.0054
  255TIP3    H222325   0.845   5.001   1.826 -1.0512  0.5486  0.6956
  256TIP3   OH222326   3.765   4.283   6.957  0.0517 -0.4022 -0.0260
  256TIP3    H122327   3.789   4.257   6.868  0.4681  1.7778 -0.5994
  256TIP3    H222328   3.796   4.211   7.012 -0.9865 -2.2316 -1.6719
  257TIP3   OH222329   4.280   6.629   8.147  0.0296  0.7849  0.6323
  257TIP3    H122330   4.311   6.539   8.149 -2.0390 -0.0638 -1.2952
  257TIP3    H222331   4.345   6.678   8.197  1.1301 -1.7698  1.8838
  258TIP3   OH222332   5.080   4.072   6.872  0.2462 -0.5439  0.3184
  258TIP3    H122333   5.040   4.108   6.792  0.2376  0.7289  0.8617
  258TIP3    H222334   5.173   4.091   6.862  0.4202 -1.5317  0.0418
  259TIP3   OH222335   6.408   0.164   0.714  0.3483  0.5631  0.5591
  259TIP3    H122336   6.362   0.233   0.667 -0.3367  0.0281  0.4235
  259TIP3    H222337   6.431   0.100   0.647 -0.6523 -0.2177  0.9329
  260TIP3   OH222338   2.345   5.157   0.884 -0.2366 -0.1744  0.2722
  260TIP3    H122339   2.429   5.152   0.930  0.0133 -0.4841 -0.2123
  260TIP3    H222340   2.334   5.251   0.865  1.2790 -0.3685 -1.9611
  261TIP3   OH222341   5.298   0.399   6.950  0.3468  0.1821  0.5484
  261TIP3    H122342   5.317   0.356   6.866  0.3334  1.9451 -0.4127
  261TIP3    H222343   5.367   0.464   6.959 -0.1311  0.5677  1.5022
  262TIP3   OH222344   0.097   0.446   0.172 -0.1382  0.0208 -0.0405
  262TIP3    H122345   0.098   0.365   0.223 -1.1752 -0.7069 -1.1061
  262TIP3    H222346   0.101   0.516   0.237  1.6685 -0.8639  0.8801
  263TIP3   OH222347   0.821   4.089   1.474  0.1127 -0.1407 -0.1354
  263TIP3    H122348   0.772   4.130   1.545  1.1892  1.5185 -0.3031
  263TIP3    H222349   0.799   4.140   1.396  0.0943 -1.0190 -0.7238
  264TIP3   OH222350   0.388   0.862   0.878  0.4026 -0.7136  0.0937
  264TIP3    H122351   0.397   0.784   0.823 -0.6208 -0.6182 -0.2276
  264TIP3    H222352   0.410   0.831   0.966  0.1541 -1.3272 -0.0567
  265TIP3   OH222353   3.258   1.034   0.277  0.3492 -0.3413  0.1158
  265TIP3    H122354   3.164   1.020   0.276  0.5184 -1.5812 -0.3216
  265TIP3    H222355   3.269   1.126   0.302 -0.9268 -0.5552  1.6080
  266TIP3   OH222356   3.890   2.339   6.058  0.4407 -0.4530 -0.1997
  266TIP3    H122357   3.933   2.424   6.061  0.2083 -0.3505  0.4073
  266TIP3    H222358   3.804   2.357   6.020  0.7437 -0.5755 -0.9503
  267TIP3   OH222359   0.143   6.523   8.086  0.7069  0.3502 -0.1191
  267TIP3    H122360   0.147   6.562   7.999 -1.6005 -0.2309 -0.5395
  267TIP3    H222361   0.063   6.470   8.085  1.3324 -0.7294  1.9286
  268TIP3   OH222362   3.738   2.542   5.918 -0.6022 -0.3423  0.1363
  268TIP3    H122363   3.644   2.551   5.934 -0.6897  0.4921 -0.7726
  268TIP3    H222364   3.776   2.623   5.951 -0.1871 -0.6647  0.4742
  269TIP3   OH222365   0.139   3.823   6.149 -0.7952 -0.3600  0.3011
  269TIP3    H122366   0.203   3.807   6.218  0.4978  1.1201 -0.4959
  269TIP3    H222367   0.166   3.766   6.077 -1.2998 -0.8514  0.4912
  270TIP3   OH222368   6.483   6.318   1.096  0.0093  0.0180 -0.3337
  270TIP3    H122369   6.554   6.372   1.129  0.5449 -1.7135  1.5833
  270TIP3    H222370   6.521   6.269   1.023  0.3673  0.0879 -0.1928
  271TIP3   OH222371   1.633   1.636   7.362  0.0245 -0.7169 -0.0486
  271TIP3    H122372   1.617   1.644   7.456 -1.0306 -1.2784 -0.1723
  271TIP3    H222373   1.687   1.712   7.341 -0.6520  0.0293  0.8078
  272TIP3   OH222374   2.141   1.303   2.177 -0.2861 -0.4553 -0.2457
  272TIP3    H122375   2.068   1.273   2.124 -0.2156  0.2800 -0.7742
  272TIP3    H222376   2.107   1.305   2.266 -0.5495 -1.2332 -0.3277
  273TIP3   OH222377   5.939   1.321   7.700 -0.8764 -0.1537 -0.0937
  273TIP3    H122378   6.019   1.269   7.697 -1.1670 -0.6391  0.3723
  273TIP3    H222379   5.970   1.411   7.707 -0.3688 -0.3810  0.7452
  274TIP3   OH222380   6.650   4.333   8.211 -0.3788 -0.0211  0.3823
  274TIP3    H122381   6.572   4.350   8.159 -0.7710  2.4242  1.6249
  274TIP3    H222382   6.622   4.267   8.274 -1.5548  0.9917  0.9675
  275TIP3   OH222383   1.893   2.922   6.874 -0.3299 -0.2205  0.5876
  275TIP3    H122384   1.814   2.962   6.910 -0.0523  0.0248  0.9315
  275TIP3    H222385   1.957   2.993   6.872  0.1314 -0.6124  1.0972
  276TIP3   OH222386   2.180   1.223   0.812  0.0237 -0.6230  0.0744
  276TIP3    H122387   2.123   1.276   0.757 -0.6085 -0.4481  0.8602
  276TIP3    H222388   2.265   1.223   0.769  0.0535  1.0991  0.0996
  277TIP3   OH222389   6.307   1.546   6.758 -0.0539 -0.0145  0.4988
  277TIP3    H122390   6.274   1.612   6.698  2.1544 -0.9014 -1.8772
  277TIP3    H222391   6.394   1.578   6.784  0.4704 -1.2741  0.3969
  278TIP3   OH222392   1.854   5.695   7.236  0.5523  0.3680 -0.3388
  278TIP3    H122393   1.874   5.654   7.151  0.3100  0.1920 -0.3108
  278TIP3    H222394   1.916   5.769   7.242  0.7278  0.2405 -0.5627
  279TIP3   OH222395   1.302   2.812   0.581  0.0206 -0.4847 -0.0643
  279TIP3    H122396   1.277   2.883   0.521  1.3523  0.4607  0.4450
  279TIP3    H222397   1.350   2.750   0.526 -0.1092 -0.3960 -0.2811
  280TIP3   OH222398   6.798   6.554   2.568  0.0041  0.1805 -0.2589
  280TIP3    H122399   6.748   6.636   2.564  0.3719  0.5150  1.3246
  280TIP3    H222400   6.799   6.531   2.660  2.3516 -0.0672 -0.2707
  281TIP3   OH222401   5.557   6.215   7.179  0.1946  0.1289 -0.0218
  281TIP3    H122402   5.647   6.232   7.206  0.9742 -0.0746 -2.3221
  281TIP3    H222403   5.528   6.298   7.140  0.1423 -0.4012 -1.1543
  282TIP3   OH222404   4.969   3.762   7.343  0.2799  0.1753 -0.4969
  282TIP3    H122405   5.014   3.683   7.311  1.0615 -0.0309  0.9985
  282TIP3    H222406   5.035   3.806   7.396 -0.3697  1.5073 -0.7663
  283TIP3   OH222407   4.158   5.648   1.088  0.1930  0.1489  0.2288
  283TIP3    H122408   4.181   5.660   0.996  0.1340  4.7192  0.5855
  283TIP3    H222409   4.104   5.569   1.089 -2.4134  1.5166 -4.2579
  284TIP3   OH222410   1.107   5.935   0.025  0.3380 -0.2117  0.2621
  284TIP3    H122411   1.044   5.997   0.063 -0.7556 -0.4871 -1.0149
  284TIP3    H222412   1.192   5.966   0.056 -0.4281 -0.0819  2.3904
  285TIP3   OH222413   5.202   2.430   7.271 -0.4713 -0.2174  0.6196
  285TIP3    H122414   5.163   2.409   7.186 -0.9820 -3.2706  1.4684
  285TIP3    H222415   5.131   2.472   7.320 -0.7216 -0.0373  0.1120
  286TIP3   OH222416   2.843   0.693   0.253  0.6469 -0.4043 -0.1621
  286TIP3    H122417   2.853   0.663   0.343  0.7321  2.3538  0.8395
  286TIP3    H222418   2.931   0.685   0.215  0.4904 -2.1457 -0.2714
  287TIP3   OH222419   1.176   2.801   0.844  0.2373  0.1094  0.1450
  287TIP3    H122420   1.229   2.841   0.913 -1.2355  2.6588 -0.0831
  287TIP3    H222421   1.218   2.827   0.762  0.8037 -1.1640  0.0103
  288TIP3   OH222422   5.923   1.708   0.702  0.0805 -0.3478 -0.0978
  288TIP3    H122423   5.998   1.711   0.644 -0.4227  0.3510 -0.7321
  288TIP3    H222424   5.848   1.697   0.644 -0.4676  0.7512  0.3673
  289TIP3   OH222425   4.983   6.329   6.647 -0.4032 -0.1743  0.1385
  289TIP3    H122426   5.044   6.338   6.719  0.4106 -2.0580 -0.2734
  289TIP3    H222427   5.005   6.402   6.588 -1.5438  1.8138  2.0258
  290TIP3   OH222428   2.132   1.462   0.510 -0.0656  0.1539  0.0550
  290TIP3    H122429   2.079   1.398   0.462  0.2206 -1.2497  1.5205
  290TIP3    H222430   2.222   1.434   0.496  0.0606  0.2168  0.7403
  291TIP3   OH222431   6.683   0.882   0.020 -0.5879  0.4169 -0.5817
  291TIP3    H122432   6.768   0.871  -0.023 -1.0067 -1.9429 -0.9870
  291TIP3    H222433   6.699   0.858   0.111 -0.9582 -0.9982 -0.8602
  292TIP3   OH222434   5.632   4.449   0.752 -0.1213 -0.0683  0.0152
  292TIP3    H122435   5.562   4.424   0.812 -0.5088 -0.4066 -0.5597
  292TIP3    H222436   5.636   4.377   0.689 -0.4224  0.7444 -0.9629
  293TIP3   OH222437   0.304   5.309   7.528 -0.3729 -0.2819  0.3501
  293TIP3    H122438   0.398   5.322   7.518 -0.3943 -1.4582 -2.4900
  293TIP3    H222439   0.271   5.393   7.560  1.3850  0.9251 -0.8330
  294TIP3   OH222440   3.537   3.940   7.898 -0.2070  0.1441  0.0530
  294TIP3    H122441   3.589   3.859   7.895 -1.9601 -1.1395  1.8400
  294TIP3    H222442   3.448   3.912   7.877 -0.7529  1.7281  0.1447
  295TIP3   OH222443   1.364   2.730   1.105  0.3127 -0.0652  0.1032
  295TIP3    H122444   1.458   2.725   1.087  0.1261  0.2644 -0.9930
  295TIP3    H222445   1.333   2.639   1.099 -0.0126  0.1389 -2.8967
  296TIP3   OH222446   2.662   6.270   1.187 -0.0758  0.1538  0.0922
  296TIP3    H122447   2.675   6.309   1.101  2.1586 -0.7667 -0.0735
  296TIP3    H222448   2.695   6.335   1.248  0.1459  0.0613  0.0767
  297TIP3   OH222449   6.070   5.790   0.834 -0.8280  0.4503 -0.4934
  297TIP3    H122450   6.029   5.734   0.768 -1.5503  1.4296 -0.8996
  297TIP3    H222451   6.154   5.815   0.795 -0.1231 -0.9850  0.0388
  298TIP3   OH222452   3.144   2.041   0.611 -0.6017  0.1702 -0.2681
  298TIP3    H122453   3.080   2.108   0.587  0.0266  0.6369 -0.6934
  298TIP3    H222454   3.092   1.967   0.640 -1.3503  1.8766  3.2870
  299TIP3   OH222455   4.837   3.222   0.961 -0.4075 -0.6936 -0.4420
  299TIP3    H122456   4.864   3.179   0.880  2.6933  1.2819 -0.6324
  299TIP3    H222457   4.879   3.171   1.030  2.3693  1.1187 -0.6086
  300TIP3   OH222458   2.121   5.673   1.716 -0.1883  0.0365 -0.0226
  300TIP3    H122459   2.162   5.629   1.641  0.1209  0.4181 -0.0795
  300TIP3    H222460   2.038   5.627   1.729  0.2375 -0.7286  0.0695
  301TIP3   OH222461   0.941   4.172   1.862 -0.0099  0.2382 -0.4783
  301TIP3    H122462   0.963   4.123   1.941 -2.5332 -0.6267 -0.2266
  301TIP3    H222463   1.004   4.142   1.797  0.3999 -1.0973  0.4963
  302TIP3   OH222464   1.221   0.138   7.439  0.0055  1.1224 -0.0991
  302TIP3    H122465   1.190   0.224   7.469 -2.5142  0.3876 -0.3415
  302TIP3    H222466   1.165   0.117   7.364  0.0045 -1.0656  0.4403
  303TIP3   OH222467   6.046   0.764   7.915 -0.5789 -0.7036 -0.5785
  303TIP3    H122468   6.042   0.832   7.848 -1.1245 -0.9893 -0.8446
  303TIP3    H222469   5.966   0.777   7.966 -0.7712 -1.2437 -0.7341
  304TIP3   OH222470   3.265   0.290   1.183 -0.2523 -1.2183  0.5030
  304TIP3    H122471   3.313   0.335   1.113 -0.8275  0.7994  1.3185
  304TIP3    H222472   3.179   0.270   1.144 -0.4688 -0.3610  0.5112
  305TIP3   OH222473   2.719   6.334   0.933 -0.5839 -0.0180 -0.0436
  305TIP3    H122474   2.776   6.401   0.971 -1.2173 -0.9901  2.8170
  305TIP3    H222475   2.779   6.270   0.895  0.1218  0.5308  0.1309
  306TIP3   OH222476   6.508   1.144   0.568 -0.2958  0.5795 -0.0658
  306TIP3    H122477   6.474   1.172   0.653  0.9206  0.9546  0.3315
  306TIP3    H222478   6.530   1.226   0.523  0.6113  0.3453 -0.0641
  307TIP3   OH222479   0.289   1.629   0.202 -0.0095 -0.5301  0.0162
  307TIP3    H122480   0.345   1.580   0.141  0.7825  0.9233 -0.4856
  307TIP3    H222481   0.350   1.687   0.247 -0.5615 -1.6221  2.3234
  308TIP3   OH222482   2.628   4.773   2.319 -0.6740  0.0297  0.4991
  308TIP3    H122483   2.553   4.832   2.330 -0.2068  0.6452  0.4387
  308TIP3    H222484   2.703   4.824   2.350 -0.0807 -0.0650 -0.7285
  309TIP3   OH222485   0.363   5.744   1.341  0.2806 -0.0887  0.1424
  309TIP3    H122486   0.408   5.764   1.259 -1.0947  0.2798 -0.5560
  309TIP3    H222487   0.281   5.703   1.314 -0.9262  1.4724  1.2220
  310TIP3   OH222488   4.275   3.318   7.056 -0.1350 -0.1840 -0.4670
  310TIP3    H122489   4.302   3.387   7.117 -0.8666 -1.5867  1.5393
  310TIP3    H222490   4.340   3.248   7.069 -1.0182 -1.0003 -0.3601
  311TIP3   OH222491   3.125   2.839   0.745  0.2911  0.0995  0.2110
  311TIP3    H122492   3.116   2.847   0.840  2.0458 -0.6036  0.4741
  311TIP3    H222493   3.124   2.930   0.714 -0.7981  0.3170  0.8354
  312TIP3   OH222494   6.751   5.507   0.876  0.3584  0.1691  0.7579
  312TIP3    H122495   6.716   5.474   0.959  2.3087  0.2610  1.6963
  312TIP3    H222496   6.682   5.564   0.842 -0.4538  0.2508  2.4116
  313TIP3   OH222497   5.982   5.341   0.721  0.4035 -0.0908  0.0691
  313TIP3    H122498   6.058   5.397   0.732 -0.4083  1.2597 -0.8672
  313TIP3    H222499   5.987   5.310   0.630 -0.3690  0.3520 -0.1332
  314TIP3   OH222500   2.115   0.852   8.151  0.4881 -0.2003  0.8196
  314TIP3    H122501   2.112   0.852   8.247 -0.4484 -0.6851  0.8011
  314TIP3    H222502   2.088   0.763   8.127 -1.1046  0.4569  0.0629
  315TIP3   OH222503   6.883   6.457   0.990 -0.0759  0.5637 -0.0555
  315TIP3    H122504   6.829   6.455   1.069  3.4988  2.0623  2.7250
  315TIP3    H222505   6.929   6.373   0.991  0.8189  1.0458  0.1563
  316TIP3   OH222506   3.771   1.877   6.284 -0.2493  0.1048  0.2921
  316TIP3    H122507   3.787   1.800   6.230  0.0606  0.0538  0.4525
  316TIP3    H222508   3.750   1.947   6.221 -0.9437 -0.2038  0.1697
  317TIP3   OH222509   2.116   1.421   5.770  0.2614 -0.2899  0.1294
  317TIP3    H122510   2.162   1.352   5.819  0.4342  0.0293  0.4206
  317TIP3    H222511   2.183   1.487   5.753  1.3185 -2.1519 -4.1298
  318TIP3   OH222512   2.213   4.816   7.646  0.3661  0.2117  0.3148
  318TIP3    H122513   2.180   4.884   7.705  0.3067  0.5349 -0.0867
  318TIP3    H222514   2.308   4.823   7.651  0.3731 -0.1740  0.8416
  319TIP3   OH222515   6.807   3.119   8.543  0.0325  0.1727  0.4334
  319TIP3    H122516   6.743   3.116   8.614  0.8879  0.8319  1.2545
  319TIP3    H222517   6.776   3.188   8.485 -0.4595 -0.1066  0.3565
  320TIP3   OH222518   0.996   5.766   8.033 -0.0696  0.3682  0.8666
  320TIP3    H122519   1.056   5.738   7.965 -0.8527  2.3255 -0.7382
  320TIP3    H222520   1.049   5.819   8.092  0.1872  0.4588  0.5574
  321TIP3   OH222521   3.377   1.575   1.827 -0.3364 -0.1909  0.2222
  321TIP3    H122522   3.364   1.483   1.851  1.3596  0.1799  2.9796
  321TIP3    H222523   3.456   1.575   1.773 -0.0646 -0.3063  0.6185
  322TIP3   OH222524   1.554   0.549   0.271 -0.1581  0.0894  0.1528
  322TIP3    H122525   1.566   0.460   0.237 -2.0697  0.0542 -0.5893
  322TIP3    H222526   1.584   0.606   0.200 -0.8466  0.0213 -0.1983
  323TIP3   OH222527   2.456   0.671   7.226  0.3351  1.0000 -0.1165
  323TIP3    H122528   2.538   0.624   7.210 -0.3914  0.1699 -1.6426
  323TIP3    H222529   2.429   0.643   7.313  1.3972  0.8918  0.1972
  324TIP3   OH222530   2.299   3.379   5.748  0.5161 -0.8001 -0.0698
  324TIP3    H122531   2.384   3.345   5.778  1.2269  1.4135  0.6131
  324TIP3    H222532   2.235   3.332   5.800  1.5012 -0.5126  1.4834
  325TIP3   OH222533   5.659   6.282   1.540 -0.4955 -0.1097 -0.5276
  325TIP3    H122534   5.563   6.276   1.544 -0.4162 -1.8853 -0.3769
  325TIP3    H222535   5.689   6.194   1.563  1.1233 -0.2262 -2.8194
  326TIP3   OH222536   1.942   1.417   7.660 -0.3315 -0.4645  0.0208
  326TIP3    H122537   1.961   1.428   7.567  1.1179  0.1112  0.3653
  326TIP3    H222538   2.002   1.477   7.704 -2.1631  0.5203  1.2663
  327TIP3   OH222539   1.713   3.789   8.448 -0.0138  0.4960  0.1323
  327TIP3    H122540   1.749   3.866   8.404  0.9564 -0.1330 -0.2206
  327TIP3    H222541   1.787   3.752   8.497 -0.6178  0.1373  0.7882
  328TIP3   OH222542   3.506   2.246   6.952 -0.3290 -0.1422 -0.2372
  328TIP3    H122543   3.483   2.154   6.963 -2.4266  0.1383 -1.6584
  328TIP3    H222544   3.521   2.255   6.857  2.1174  0.5518  0.1376
  329TIP3   OH222545   1.352   6.850   7.195 -0.3552 -0.0680 -0.1437
  329TIP3    H122546   1.368   6.772   7.141  1.5508 -0.0937  0.4047
  329TIP3    H222547   1.349   6.817   7.285 -1.4592  0.2523 -0.0542
  330TIP3   OH222548   1.866   3.259   6.576  0.0921 -0.2746  0.3614
  330TIP3    H122549   1.845   3.307   6.657  0.2188  0.1649  0.1366
  330TIP3    H222550   1.798   3.285   6.514 -0.4771 -1.2275  0.5542
  331TIP3   OH222551   2.397   2.052   0.833 -0.0051  0.1798 -0.2474
  331TIP3    H122552   2.377   2.107   0.909  0.6082  0.6083 -0.3939
  331TIP3    H222553   2.391   1.963   0.867  1.1807  0.3717  0.5618
  332TIP3   OH222554   5.829   4.701   2.110  0.0773 -0.1555 -0.0840
  332TIP3    H122555   5.801   4.638   2.044 -0.9825  0.6910 -0.4713
  332TIP3    H222556   5.852   4.780   2.061  1.4287 -0.2347  0.3893
  333TIP3   OH222557   0.975   3.880   2.802  0.4565 -0.0230 -0.1235
  333TIP3    H122558   1.070   3.892   2.805  0.3868  0.4962  2.4605
  333TIP3    H222559   0.940   3.967   2.823 -0.5174 -0.5465  0.5054
  334TIP3   OH222560   6.201   0.097   8.445  0.0590  0.4329 -0.2338
  334TIP3    H122561   6.291   0.078   8.473  0.2659  0.3731 -0.9230
  334TIP3    H222562   6.192   0.052   8.361 -1.2689 -1.2165  0.7228
  335TIP3   OH222563   3.226   0.624   7.398  0.1787 -0.2759 -0.3016
  335TIP3    H122564   3.254   0.702   7.446  1.3901 -0.9423  0.0994
  335TIP3    H222565   3.138   0.606   7.432  0.6952 -0.2734  1.1366
  336TIP3   OH222566   5.207   3.065   0.594  0.2510  0.0181 -0.4557
  336TIP3    H122567   5.300   3.047   0.605 -0.0088 -1.6424 -0.6022
  336TIP3    H222568   5.164   2.990   0.635 -0.9774 -0.1716 -1.9952
  337TIP3   OH222569   3.538   4.048   0.487  0.3911  0.4577  0.7323
  337TIP3    H122570   3.498   4.074   0.570 -0.1260 -1.0872  1.0001
  337TIP3    H222571   3.583   4.127   0.456 -0.0300  1.2676  2.1043
  338TIP3   OH222572   4.579   0.197   8.136  0.1447  0.0447  0.4146
  338TIP3    H122573   4.562   0.130   8.069  0.1562 -1.5379  1.9198
  338TIP3    H222574   4.549   0.279   8.096 -0.1268 -0.8781 -1.3977
  339TIP3   OH222575   4.580   0.636   2.128  0.0064 -0.5122 -0.4769
  339TIP3    H122576   4.586   0.728   2.155 -1.8760 -0.4651 -0.0240
  339TIP3    H222577   4.650   0.625   2.064  1.2387  0.8081  0.5736
  340TIP3   OH222578   1.876   0.595   7.141  0.5502  0.0970  0.5732
  340TIP3    H122579   1.942   0.658   7.170  2.7128 -2.4935  1.7695
  340TIP3    H222580   1.920   0.544   7.073 -0.9897 -0.4048 -0.0884
  341TIP3   OH222581   3.109   1.957   7.916  0.5826  0.2042  0.2572
  341TIP3    H122582   3.187   2.001   7.951  0.4156  1.4365 -0.8137
  341TIP3    H222583   3.036   1.994   7.965  0.3170  2.1583 -1.4221
  342TIP3   OH222584   4.902   1.933   0.041 -0.0042  0.3979 -0.2228
  342TIP3    H122585   4.808   1.917   0.031  0.3546 -1.6569 -0.9384
  342TIP3    H222586   4.918   1.924   0.135 -0.8748  3.4451  0.3186
  343TIP3   OH222587   4.943   5.827   0.363 -0.0613 -0.1220  0.2257
  343TIP3    H122588   4.890   5.770   0.307 -1.2020  0.3469  0.8032
  343TIP3    H222589   4.997   5.877   0.301 -0.0964 -0.7902 -0.3580
  344TIP3   OH222590   4.891   0.038   7.661 -0.1911 -0.5429  0.6988
  344TIP3    H122591   4.920   0.129   7.654 -1.8884 -0.0440 -0.2361
  344TIP3    H222592   4.965  -0.012   7.626  0.5973  0.4796  0.8202
  345TIP3   OH222593   0.567   2.762   6.111  0.4966  0.0900  0.0815
  345TIP3    H122594   0.528   2.703   6.046  0.8520  0.5764 -0.5798
  345TIP3    H222595   0.492   2.807   6.149  0.1800 -1.0616  0.8846
  346TIP3   OH222596   6.354   3.905   2.362  0.0263  0.4116 -0.4858
  346TIP3    H122597   6.276   3.865   2.400  0.8078 -0.3809  0.3507
  346TIP3    H222598   6.417   3.907   2.434  1.3077 -0.4519 -1.5480
  347TIP3   OH222599   3.220   6.306   8.299  0.3113  0.1225  0.2547
  347TIP3    H122600   3.213   6.401   8.289  1.8051  0.1223 -1.1632
  347TIP3    H222601   3.198   6.290   8.390  1.2795  1.9840  0.8644
  348TIP3   OH222602   1.351   0.302   2.001 -0.0976 -0.1350 -0.1634
  348TIP3    H122603   1.259   0.278   1.989  0.0566 -1.5668  1.1828
  348TIP3    H222604   1.356   0.334   2.091  0.2797  2.4660 -1.0266
  349TIP3   OH222605   2.237   3.597   6.556 -0.0467 -0.2910  0.8721
  349TIP3    H122606   2.240   3.652   6.478  0.3457 -1.2934  0.1535
  349TIP3    H222607   2.232   3.508   6.522  1.1232 -0.8065  1.9851
  350TIP3   OH222608   3.066   1.137   7.874  0.0127 -0.2499  0.0742
  350TIP3    H122609   3.146   1.189   7.882  0.3607 -0.6687 -0.5994
  350TIP3    H222610   3.054   1.127   7.780  0.9192 -2.8438  0.1603
  351TIP3   OH222611   2.324   3.050   6.041 -0.8683 -0.2277 -0.1638
  351TIP3    H122612   2.409   3.092   6.029 -0.6734 -0.7487 -0.6254
  351TIP3    H222613   2.268   3.092   5.975 -0.6115 -0.8575 -0.7878
  352TIP3   OH222614   5.150   3.056   6.933 -0.0892  0.8470  0.3803
  352TIP3    H122615   5.226   3.084   6.882  0.3573 -1.6169 -0.4301
  352TIP3    H222616   5.185   3.033   7.019  0.1407 -0.3767 -0.0220
  353TIP3   OH222617   5.599   1.512   8.136 -0.6153 -0.0394  0.6389
  353TIP3    H122618   5.573   1.480   8.050 -0.2260 -0.2128  0.5822
  353TIP3    H222619   5.542   1.587   8.153 -0.4269  0.2398  0.0575
  354TIP3   OH222620   2.061   2.009   6.177 -0.2044  0.1924 -0.2342
  354TIP3    H122621   2.148   2.047   6.181  0.4810 -1.3156 -0.3565
  354TIP3    H222622   2.011   2.070   6.122  1.1361  0.3884 -1.2899
  355TIP3   OH222623   1.675   6.435   0.676 -0.2548 -0.0784 -0.1879
  355TIP3    H122624   1.636   6.399   0.597 -1.1723 -0.5696  0.4658
  355TIP3    H222625   1.704   6.358   0.726 -0.1355  0.2001  0.1792
  356TIP3   OH222626   3.473   4.179   0.715  0.0456 -0.7315 -0.0816
  356TIP3    H122627   3.389   4.207   0.750  0.1395 -2.0535  1.2910
  356TIP3    H222628   3.533   4.250   0.737 -0.6834  0.2299 -1.0937
  357TIP3   OH222629   1.762   6.126   7.659  0.0539  0.1218 -0.5280
  357TIP3    H122630   1.821   6.165   7.595 -1.1015  1.0372 -1.0705
  357TIP3    H222631   1.743   6.039   7.625 -3.5976  1.8278 -3.6895
  358TIP3   OH222632   2.591   4.859   0.580 -0.1167  0.3344 -0.3030
  358TIP3    H122633   2.648   4.936   0.587 -0.2050  0.3474  0.3625
  358TIP3    H222634   2.503   4.893   0.597 -0.2394  0.2020 -0.6750
  359TIP3   OH222635   4.349   6.529   1.218  0.9763  0.3353  0.1029
  359TIP3    H122636   4.401   6.461   1.260 -0.6742 -2.1896 -1.7036
  359TIP3    H222637   4.339   6.500   1.127 -3.0032  0.9393  0.1692
  360TIP3   OH222638   3.802   5.912   7.874 -0.2475 -0.2645 -0.2597
  360TIP3    H122639   3.823   6.002   7.848 -1.3802  0.4577  1.2004
  360TIP3    H222640   3.875   5.860   7.840  1.3952  1.4510  0.4591
  361TIP3   OH222641   4.232   0.433   6.450  0.3782 -0.1697 -0.0630
  361TIP3    H122642   4.183   0.515   6.442  0.3959 -0.0412  1.0466
  361TIP3    H222643   4.226   0.394   6.363 -2.6589 -0.6825  0.2385
  362TIP3   OH222644   1.098   0.267   2.242  0.0914  0.6575 -0.2402
  362TIP3    H122645   1.179   0.217   2.244 -0.6389 -0.6711 -1.2496
  362TIP3    H222646   1.075   0.281   2.333  1.0430  0.3560  0.0536
  363TIP3   OH222647   5.358   2.527   0.762  0.4229  0.5098 -0.0738
  363TIP3    H122648   5.411   2.447   0.758  0.3287  0.4711 -0.6597
  363TIP3    H222649   5.327   2.531   0.853 -0.1232 -0.4894 -0.2006
  364TIP3   OH222650   3.425   3.731   6.039  0.0690 -0.0457  0.1001
  364TIP3    H122651   3.423   3.664   6.108  0.5796 -0.3016 -0.1268
  364TIP3    H222652   3.359   3.795   6.065 -1.9847 -1.7051 -0.7433
  365TIP3   OH222653   5.549   2.505   8.519 -0.4041 -0.0379  0.3154
  365TIP3    H122654   5.526   2.482   8.609  1.7857 -0.2492  0.8872
  365TIP3    H222655   5.575   2.421   8.480  0.8732  0.3720  0.2399
  366TIP3   OH222656   4.784   0.312   1.960 -0.4922  0.2848  0.5452
  366TIP3    H122657   4.809   0.222   1.939  0.4291  0.2610  1.6047
  366TIP3    H222658   4.864   0.351   1.995 -0.3890  2.0535 -1.4552
  367TIP3   OH222659   1.884   1.749   7.290  0.5921 -0.2777 -0.0948
  367TIP3    H122660   1.873   1.661   7.255 -2.3433 -0.9608  2.1929
  367TIP3    H222661   1.957   1.742   7.352  1.1472 -0.7882 -0.8038
  368TIP3   OH222662   0.077   2.163   7.419 -0.5822  0.1543 -0.5285
  368TIP3    H122663   0.099   2.242   7.369 -1.2517  0.7476  0.0934
  368TIP3    H222664   0.154   2.147   7.473  0.8230 -1.4091 -2.8073
  369TIP3   OH222665   5.314   6.736   6.570  0.0750  0.4280 -0.4311
  369TIP3    H122666   5.250   6.769   6.507  0.5720  3.2177  0.3944
  369TIP3    H222667   5.316   6.642   6.555 -1.9013  0.6466 -2.6092
  370TIP3   OH222668   4.962   5.919   0.718 -0.4205  0.2814 -0.3266
  370TIP3    H122669   4.995   5.832   0.696  0.9203  1.3275 -2.8368
  370TIP3    H222670   4.924   5.909   0.805 -3.1489 -3.5623 -1.6604
  371TIP3   OH222671   2.219   5.407   0.093  0.0724 -0.3437 -0.3926
  371TIP3    H122672   2.261   5.324   0.070  0.7830 -0.5378  1.4331
  371TIP3    H222673   2.133   5.402   0.053 -0.4004 -2.5562  0.6990
  372TIP3   OH222674   5.078   6.166   6.341  0.8882  0.3053 -0.0977
  372TIP3    H122675   5.087   6.261   6.343 -0.1286  0.4138 -0.0718
  372TIP3    H222676   5.070   6.140   6.433 -0.4741  0.3916 -0.1656
  373TIP3   OH222677   3.727   1.617   7.603 -0.1327 -0.4190 -0.5457
  373TIP3    H122678   3.669   1.681   7.561 -0.1541 -1.2119 -1.7906
  373TIP3    H222679   3.814   1.656   7.596 -0.2590 -0.1252 -0.4980
  374TIP3   OH222680   2.072   5.111   8.413  0.0621 -0.0024  0.1696
  374TIP3    H122681   2.065   5.196   8.370 -1.5384  0.3184  0.9852
  374TIP3    H222682   2.164   5.105   8.439  0.6259  0.6258 -1.5483
  375TIP3   OH222683   1.794   6.305   1.968 -0.6416  0.0171 -0.4123
  375TIP3    H122684   1.845   6.324   1.889  1.8562  1.5836  1.4359
  375TIP3    H222685   1.859   6.286   2.035 -2.7111 -3.1031  0.9623
  376TIP3   OH222686   2.605   1.669   0.603  0.4147  0.0231 -0.3294
  376TIP3    H122687   2.515   1.679   0.572  0.3667 -1.9513 -0.9798
  376TIP3    H222688   2.611   1.726   0.680 -0.9203  1.3108 -1.1243
  377TIP3   OH222689   5.790   3.991   0.341  0.1572  0.0181  0.3292
  377TIP3    H122690   5.697   3.970   0.346 -0.0182  0.4019 -0.9312
  377TIP3    H222691   5.834   3.912   0.373 -0.5705 -1.0691 -1.1821
  378TIP3   OH222692   1.113   6.479   8.156  0.2820  0.3161 -0.3985
  378TIP3    H122693   1.091   6.517   8.071  0.1897 -0.6250 -0.8051
  378TIP3    H222694   1.206   6.496   8.166  0.3737  0.0952 -0.8607
  379TIP3   OH222695   6.202   5.359   6.895  0.0624 -0.2203 -0.5845
  379TIP3    H122696   6.207   5.384   6.802 -1.9675  3.8487  0.1360
  379TIP3    H222697   6.134   5.292   6.898  0.2379 -0.4880 -2.0590
  380TIP3   OH222698   5.507   0.584   7.827 -0.0938  0.1312  0.6368
  380TIP3    H122699   5.444   0.586   7.899  0.7022  1.5183  1.3288
  380TIP3    H222700   5.454   0.593   7.748 -0.9522 -1.0715  1.0462
  381TIP3   OH222701   2.916   2.900   2.137  0.1433 -0.2695 -0.2552
  381TIP3    H122702   2.849   2.833   2.152 -0.3274  0.3455  0.5038
  381TIP3    H222703   2.993   2.851   2.108 -0.9343 -0.8967 -2.2569
  382TIP3   OH222704   5.956   6.232   1.513  0.3048 -0.2104 -0.3738
  382TIP3    H122705   5.917   6.281   1.586 -0.7699  1.8092 -2.1851
  382TIP3    H222706   5.899   6.156   1.501 -0.2185  0.0981  0.1045
  383TIP3   OH222707   1.250   4.301   0.414  0.0102 -0.2329  0.0224
  383TIP3    H122708   1.225   4.239   0.346 -0.4459 -2.3530  1.9845
  383TIP3    H222709   1.339   4.277   0.438  0.6119  1.2715 -0.6027
  384TIP3   OH222710   3.867   4.818   7.503  0.4267 -0.4120 -0.6015
  384TIP3    H122711   3.779   4.856   7.500  0.6125  0.8640  3.9138
  384TIP3    H222712   3.924   4.886   7.467 -0.1316 -0.0134 -0.7426
  385TIP3   OH222713   2.188   2.888   6.707  0.4696  0.1364 -0.1227
  385TIP3    H122714   2.107   2.925   6.670  0.1305 -0.1007  0.3658
  385TIP3    H222715   2.257   2.921   6.651  0.2002  1.6531  0.3787
  386TIP3   OH222716   4.540   5.730   0.950 -0.1918 -0.3683 -0.3889
  386TIP3    H122717   4.492   5.747   1.031 -0.9728  1.1132 -1.1072
  386TIP3    H222718   4.561   5.637   0.953 -0.3589 -0.3820  1.4136
  387TIP3   OH222719   5.530   1.383   7.901  0.5737 -0.0691 -0.2334
  387TIP3    H122720   5.617   1.344   7.902  0.3695 -0.5285 -0.1419
  387TIP3    H222721   5.471   1.312   7.927  0.1503  0.1826 -0.4851
  388TIP3   OH222722   1.904   3.847   0.377  1.1325  0.4366  0.4416
  388TIP3    H122723   1.896   3.902   0.300  1.6162  0.8962  0.7177
  388TIP3    H222724   1.838   3.881   0.438  0.1960 -0.4337 -0.0623
  389TIP3   OH222725   1.964   3.374   0.502  0.4060 -0.1853  0.1359
  389TIP3    H122726   2.040   3.370   0.444  0.1511 -1.0698 -0.1608
  389TIP3    H222727   1.969   3.460   0.543  1.3772 -0.1038 -0.1336
  390TIP3   OH222728   2.671   0.177   1.828  0.4517  0.5485 -0.5938
  390TIP3    H122729   2.631   0.229   1.758  0.0181 -0.0321 -0.7924
  390TIP3    H222730   2.741   0.232   1.862 -0.1738  1.3772 -0.6062
  391TIP3   OH222731   4.498   2.316   0.819  0.1005  0.5807 -0.1410
  391TIP3    H122732   4.469   2.300   0.908 -1.4852  0.5767 -0.6366
  391TIP3    H222733   4.481   2.234   0.772 -3.4425  1.9040 -1.5008
  392TIP3   OH222734   5.273   3.968   0.144 -0.2055 -0.0711  0.2741
  392TIP3    H122735   5.365   3.995   0.150 -0.1118  1.3237 -4.2548
  392TIP3    H222736   5.276   3.878   0.111 -0.4848  0.0116  0.0229
  393TIP3   OH222737   5.128   4.047   1.202 -0.1314 -0.1658  0.3774
  393TIP3    H122738   5.214   4.071   1.168 -0.4094  0.9490  0.4143
  393TIP3    H222739   5.136   3.955   1.225  1.5444  0.3063  1.8855
  394TIP3   OH222740   2.195   0.640   1.031 -0.6969  0.7251 -0.0975
  394TIP3    H122741   2.279   0.649   0.985 -0.0312  3.5844  1.4203
  394TIP3    H222742   2.144   0.717   1.003 -1.5496  0.7475  1.4067
  395TIP3   OH222743   1.449   3.564   7.802 -0.4248 -0.6657 -0.4147
  395TIP3    H122744   1.432   3.487   7.747  0.4831 -1.2206  0.0608
  395TIP3    H222745   1.517   3.613   7.754 -1.3491  0.1246 -0.9642
  396TIP3   OH222746   3.259   5.846   2.317  0.0285 -0.2280 -0.6549
  396TIP3    H122747   3.297   5.828   2.403 -1.0711 -1.1806 -0.3388
  396TIP3    H222748   3.304   5.925   2.287  0.1408  0.3572  0.9625
  397TIP3   OH222749   4.635   2.333   7.983  0.6241 -0.1580 -0.4906
  397TIP3    H122750   4.598   2.391   7.917 -0.7214 -1.4486 -0.9074
  397TIP3    H222751   4.561   2.282   8.015  1.8544 -2.1352 -0.6352
  398TIP3   OH222752   3.104   2.056   7.138 -0.1015  0.1423 -0.0238
  398TIP3    H122753   3.074   2.096   7.056  0.0730 -1.9685 -1.1836
  398TIP3    H222754   3.185   2.012   7.115 -0.3412 -0.9535  1.1547
  399TIP3   OH222755   1.761   0.302   7.815 -0.3445  0.4184 -0.9553
  399TIP3    H122756   1.707   0.346   7.880 -0.7881 -0.5253 -0.6620
  399TIP3    H222757   1.698   0.251   7.763  0.2891 -1.1390 -0.2605
  400TIP3   OH222758   2.010   2.443   6.743 -0.1077 -0.4466 -0.2972
  400TIP3    H122759   1.940   2.377   6.741 -0.3597 -0.1614 -1.4275
  400TIP3    H222760   1.991   2.495   6.822  0.3755 -1.9954  0.8896
  401TIP3   OH222761   5.738   4.603   7.672 -0.2118 -0.1159  0.2394
  401TIP3    H122762   5.678   4.642   7.608 -1.1867 -0.4967  0.8906
  401TIP3    H222763   5.781   4.532   7.625  1.4875  1.5697 -0.9296
  402TIP3   OH222764   0.203   2.487   6.527 -0.2279 -0.5725 -0.1240
  402TIP3    H122765   0.119   2.524   6.500 -0.7475 -1.0670  0.7465
  402TIP3    H222766   0.267   2.556   6.507 -0.6002 -0.7766 -2.2189
  403TIP3   OH222767   2.345   5.068   8.044 -0.2241  0.0940  0.0715
  403TIP3    H122768   2.330   5.012   8.120 -1.1870  0.0585 -0.1361
  403TIP3    H222769   2.285   5.142   8.056 -0.3517  0.1115 -0.6215
  404TIP3   OH222770   4.113   1.778   5.899 -0.0662 -0.1331 -0.5161
  404TIP3    H122771   4.156   1.810   5.979 -2.7003 -1.4021  1.5806
  404TIP3    H222772   4.128   1.684   5.899 -0.7098 -0.2427 -1.1242
  405TIP3   OH222773   3.365   1.721   6.658 -0.0135  0.3377 -0.5802
  405TIP3    H122774   3.450   1.742   6.619 -0.7532 -0.6277 -2.9114
  405TIP3    H222775   3.330   1.805   6.686  1.4988  0.8028  0.0118
  406TIP3   OH222776   3.917   5.675   6.456 -0.6112  0.0137  0.1203
  406TIP3    H122777   3.825   5.681   6.482 -0.0046 -2.3731  3.6449
  406TIP3    H222778   3.921   5.599   6.398 -1.1039  1.6420 -2.1691
  407TIP3   OH222779   6.412   5.585   1.265  1.0711 -0.0327 -0.5063
  407TIP3    H122780   6.340   5.570   1.327  1.0873 -1.9707 -0.8840
  407TIP3    H222781   6.378   5.649   1.203  0.9455  1.7478  1.2713
  408TIP3   OH222782   5.052   6.562   8.539  0.2457  0.3038 -0.3308
  408TIP3    H122783   5.055   6.624   8.467 -0.8009  0.0594 -0.6095
  408TIP3    H222784   5.117   6.593   8.601  1.6822  0.1212 -1.6800
  409TIP3   OH222785   6.477   6.206   2.401 -0.5388 -0.6385 -0.0472
  409TIP3    H122786   6.498   6.129   2.453 -0.8342 -0.0928  0.9131
  409TIP3    H222787   6.501   6.280   2.457  0.5991 -0.0200 -1.3053
  410TIP3   OH222788   0.803   2.283   1.496  0.0276 -0.3066 -0.2214
  410TIP3    H122789   0.723   2.232   1.505  0.8302 -1.3390  1.6568
  410TIP3    H222790   0.782   2.369   1.534 -0.7042  0.0944 -1.4708
  411TIP3   OH222791   2.431   6.282   0.660  0.3559 -0.1085 -0.3711
  411TIP3    H122792   2.349   6.273   0.611  0.5709 -0.1708 -0.7189
  411TIP3    H222793   2.442   6.197   0.702 -1.2650  0.7809  2.0596
  412TIP3   OH222794   2.287   5.080   1.389 -0.5779  0.3964 -0.1920
  412TIP3    H122795   2.347   5.155   1.383 -0.3691  0.2394 -0.0879
  412TIP3    H222796   2.343   5.007   1.415 -0.7526  0.1660 -0.4568
  413TIP3   OH222797   2.419   1.976   1.235 -0.7572 -0.2889  0.2278
  413TIP3    H122798   2.370   1.901   1.199 -0.9921  0.0709 -0.2095
  413TIP3    H222799   2.352   2.029   1.279 -0.6958  0.0103 -0.0445
  414TIP3   OH222800   3.573   6.858   6.895  0.0980  0.3312 -0.0313
  414TIP3    H122801   3.601   6.825   6.981 -0.1287  1.3785  0.4585
  414TIP3    H222802   3.637   6.822   6.833 -0.5058 -1.5474  0.3793
  415TIP3   OH222803   1.160   3.212   6.735 -0.2208 -0.2950 -0.0414
  415TIP3    H122804   1.214   3.289   6.753 -2.6690  1.0506  2.5361
  415TIP3    H222805   1.134   3.222   6.644  0.9835  0.9396 -0.2859
  416TIP3   OH222806   3.696   5.797   8.215 -0.5346  0.1560  0.2418
  416TIP3    H122807   3.770   5.742   8.191 -1.3117 -1.0714  0.5627
  416TIP3    H222808   3.657   5.823   8.132  0.5836  1.3323  0.0445
  417TIP3   OH222809   5.134   4.244   6.390  0.1984 -0.1347  0.0149
  417TIP3    H122810   5.211   4.249   6.447 -0.6406 -0.6598  1.2531
  417TIP3    H222811   5.091   4.329   6.401  1.1813  0.6310 -1.6117
  418TIP3   OH222812   1.285   1.815   0.534 -0.1199  0.0787 -0.4620
  418TIP3    H122813   1.307   1.735   0.486 -1.9169 -0.7219 -0.0630
  418TIP3    H222814   1.325   1.804   0.620 -1.6870 -1.2241  0.1708
  419TIP3   OH222815   2.030   3.187   1.325  0.1248 -0.3592 -0.0836
  419TIP3    H122816   1.966   3.158   1.390  0.5661  2.5466  1.8253
  419TIP3    H222817   1.982   3.249   1.270  0.8406  0.5373  0.2827
  420TIP3   OH222818   4.871   1.684   6.696 -0.1910 -0.1008  0.8604
  420TIP3    H122819   4.816   1.633   6.756 -0.3624  1.8994  2.5300
  420TIP3    H222820   4.940   1.720   6.753  1.0878 -0.1122 -0.6300
  421TIP3   OH222821   3.453   5.328   6.284 -0.0794  0.7226 -0.0099
  421TIP3    H122822   3.522   5.384   6.319 -0.1267 -0.5979  2.4607
  421TIP3    H222823   3.490   5.290   6.205  1.5398  1.0467  0.5495
  422TIP3   OH222824   4.705   3.990   1.361 -0.6220  0.0349  0.1095
  422TIP3    H122825   4.789   4.025   1.390 -0.7380  1.5799 -1.2776
  422TIP3    H222826   4.726   3.919   1.302 -0.2994  0.0682  0.1855
  423TIP3   OH222827   0.242   1.919   1.634 -0.5773  0.6592 -0.1353
  423TIP3    H122828   0.264   1.962   1.552 -1.5477  0.9881 -0.2292
  423TIP3    H222829   0.162   1.870   1.616 -0.1580 -0.2288  0.2983
  424TIP3   OH222830   0.157   2.872   8.106 -0.1865  0.2705 -0.1307
  424TIP3    H122831   0.101   2.906   8.036 -1.8063 -1.1209  0.4183
  424TIP3    H222832   0.097   2.824   8.163  1.2822  0.3801  1.5912
  425TIP3   OH222833   1.791   5.915   2.017 -0.4721  0.2798  0.0740
  425TIP3    H122834   1.883   5.930   2.041 -0.5260 -0.7682  1.0124
  425TIP3    H222835   1.780   5.962   1.935  1.3779 -0.9290 -0.9522
  426TIP3   OH222836   1.154   4.985   7.636 -0.2100  0.2812  0.6978
  426TIP3    H122837   1.165   5.043   7.560 -0.2121  1.3972  1.5234
  426TIP3    H222838   1.191   4.902   7.607 -1.0734  0.3868 -0.8585
  427TIP3   OH222839   0.397   2.683   6.443 -0.5241 -0.1628  0.4838
  427TIP3    H122840   0.480   2.637   6.426  0.0863  0.8996  0.5103
  427TIP3    H222841   0.402   2.763   6.390 -2.5519 -1.1431 -1.3455
  428TIP3   OH222842   6.790   1.334   7.347 -0.6114  0.3363 -0.3642
  428TIP3    H122843   6.849   1.305   7.278  0.4474 -3.0891  1.7165
  428TIP3    H222844   6.831   1.412   7.383 -0.1630  1.0148 -2.2652
  429TIP3   OH222845   2.289   3.450   1.480  0.1273  0.4432 -0.9440
  429TIP3    H122846   2.206   3.481   1.517  0.6735 -0.0519  0.8090
  429TIP3    H222847   2.314   3.377   1.537  1.5377  0.2935 -1.7241
  430TIP3   OH222848   0.714   4.197   1.730  0.3073 -0.1543  0.0224
  430TIP3    H122849   0.802   4.220   1.761  0.2915 -0.4559  0.2921
  430TIP3    H222850   0.690   4.120   1.781 -0.8924  1.0035  1.2753
  431TIP3   OH222851   5.388   0.058   7.443 -0.2515 -0.1894  0.8010
  431TIP3    H122852   5.463   0.089   7.391 -0.3915  1.4976  1.5311
  431TIP3    H222853   5.353  -0.016   7.393  1.5021 -0.6068  0.1127
  432TIP3   OH222854   2.914   5.436   1.218 -0.1611  0.4036 -0.3559
  432TIP3    H122855   2.852   5.486   1.270 -1.7409 -1.3625 -0.4351
  432TIP3    H222856   2.970   5.502   1.177 -1.2714  1.9990  0.5886
  433TIP3   OH222857   5.692   4.623   7.307  0.1025  0.1645 -0.2710
  433TIP3    H122858   5.749   4.551   7.281 -0.4334 -0.7051  0.9003
  433TIP3    H222859   5.750   4.685   7.352  0.0665 -1.0450  1.5443
  434TIP3   OH222860   2.941   4.900   7.301 -0.0349  0.2594 -0.0411
  434TIP3    H122861   2.857   4.920   7.344  0.4511 -0.1310  1.1463
  434TIP3    H222862   2.999   4.972   7.327  0.5291 -0.4645  0.7653
  435TIP3   OH222863   5.669   5.713   7.748 -0.0837  0.2372  0.2293
  435TIP3    H122864   5.716   5.631   7.761 -0.1412  0.3127  0.9940
  435TIP3    H222865   5.655   5.747   7.837 -0.2388  0.9721 -0.0668
  436TIP3   OH222866   3.821   3.030   6.915  0.0867 -0.3117  0.2877
  436TIP3    H122867   3.876   3.059   6.988 -0.3509 -1.1403  0.9584
  436TIP3    H222868   3.842   2.937   6.904  0.2257 -0.1693 -0.7186
  437TIP3   OH222869   0.173   5.533   7.607  0.5937  0.3400 -0.1965
  437TIP3    H122870   0.160   5.602   7.543  0.7461  0.7349  0.1950
  437TIP3    H222871   0.090   5.530   7.656  0.8700  0.7960  0.3113
  438TIP3   OH222872   0.075   3.292   1.338 -0.3598  0.6959 -0.4277
  438TIP3    H122873   0.086   3.314   1.430 -1.5936 -0.7277  0.1082
  438TIP3    H222874  -0.000   3.344   1.309 -1.7289 -0.8806  0.1676
  439TIP3   OH222875   3.239   6.585   8.246 -0.1325  0.0598  0.0368
  439TIP3    H122876   3.256   6.657   8.307 -2.6724  0.4615  0.3903
  439TIP3    H222877   3.322   6.538   8.241  1.3792  2.5146  0.4305
  440TIP3   OH222878   3.011   6.599   0.226  0.5840  0.1812  0.0713
  440TIP3    H122879   3.011   6.690   0.253 -0.5913  0.1161  0.3616
  440TIP3    H222880   3.025   6.550   0.308 -0.2413  0.0738  0.1645
  441TIP3   OH222881   6.650   2.329   7.215  0.0311 -0.0171  0.2432
  441TIP3    H122882   6.680   2.419   7.221  0.8200 -0.0718 -2.0694
  441TIP3    H222883   6.585   2.329   7.145 -0.1558 -1.2020  0.3887
  442TIP3   OH222884   1.165   3.044   0.497  0.1955 -0.2985 -0.3174
  442TIP3    H122885   1.250   3.077   0.469  0.2223  2.0266  2.1334
  442TIP3    H222886   1.107   3.120   0.493 -1.1744 -1.2655  0.2834
  443TIP3   OH222887   1.511   5.747   1.640  0.0351 -0.4462  0.0333
  443TIP3    H122888   1.480   5.828   1.681  0.7800  0.0924 -0.4271
  443TIP3    H222889   1.477   5.751   1.550  1.5683  0.2880 -0.5672
  444TIP3   OH222890   2.919   2.902   1.817 -0.3171  0.3644  0.5298
  444TIP3    H122891   2.847   2.865   1.766 -0.0561 -0.6856  0.8857
  444TIP3    H222892   2.879   2.968   1.873 -1.2629 -1.1610  1.7256
  445TIP3   OH222893   5.570   1.415   0.909 -0.1185  0.6337 -0.1689
  445TIP3    H122894   5.546   1.341   0.852 -1.2211  0.8736 -0.0480
  445TIP3    H222895   5.577   1.376   0.996 -0.3793  0.6070 -0.1578
  446TIP3   OH222896   3.099   5.872   6.514 -0.1613 -0.2542 -0.5499
  446TIP3    H122897   3.027   5.834   6.564 -1.2360  1.4512 -0.7016
  446TIP3    H222898   3.085   5.841   6.424 -0.5914 -0.1216 -0.5329
  447TIP3   OH222899   3.603   3.662   0.623  0.9179  0.0597  0.1981
  447TIP3    H122900   3.553   3.724   0.571  0.6847  0.1872  0.5743
  447TIP3    H222901   3.539   3.597   0.651  0.8695  0.4710  1.0628
  448TIP3   OH222902   1.172   1.442   0.521 -0.2259  1.0624  0.1518
  448TIP3    H122903   1.128   1.358   0.509 -0.2348  1.2853 -1.7266
  448TIP3    H222904   1.158   1.464   0.613 -0.7718 -0.6746  0.5233
  449TIP3   OH222905   3.132   5.468   8.224  0.3705  0.6396  0.4517
  449TIP3    H122906   3.061   5.441   8.167  2.6583 -2.0834 -1.3582
  449TIP3    H222907   3.119   5.417   8.304  0.2244  0.2138  0.1613
  450TIP3   OH222908   5.576   2.991   7.656  0.3345 -0.3875  0.2715
  450TIP3    H122909   5.549   3.082   7.639  0.0007 -0.5392 -0.0123
  450TIP3    H222910   5.547   2.943   7.579  0.9830 -0.6427  0.1844
  451TIP3   OH222911   1.920   6.702   7.990  0.2910 -0.1413  0.0964
  451TIP3    H122912   2.000   6.746   8.021  0.7230 -0.2372 -0.8508
  451TIP3    H222913   1.855   6.771   7.986  0.7980  0.2952 -0.7821
  452TIP3   OH222914   1.177   5.143   6.140  0.4564  0.4375 -0.2985
  452TIP3    H122915   1.219   5.214   6.092  2.1166 -2.1759 -3.0662
  452TIP3    H222916   1.245   5.110   6.198  0.7408 -0.7785 -1.2880
  453TIP3   OH222917   4.295   4.366   1.690  0.1181 -0.2552  0.5538
  453TIP3    H122918   4.286   4.271   1.700 -1.9975 -0.0252  1.2449
  453TIP3    H222919   4.379   4.377   1.646 -0.1963 -2.5185 -0.7571
  454TIP3   OH222920   1.850   2.838   1.395  0.4191  0.5246 -0.1079
  454TIP3    H122921   1.791   2.768   1.422  3.2347 -1.7096  0.7084
  454TIP3    H222922   1.832   2.909   1.456 -0.1455 -0.7911  1.3334
  455TIP3   OH222923   4.650   0.772   8.427 -0.2946  0.6758  0.3786
  455TIP3    H122924   4.669   0.793   8.518  0.0913  1.2574  0.1709
  455TIP3    H222925   4.666   0.677   8.420  2.7599  1.1023  0.2171
  456TIP3   OH222926   5.423   6.414   0.724  0.3746  0.0796  0.3259
  456TIP3    H122927   5.470   6.343   0.679 -1.8028 -1.0923 -0.2837
  456TIP3    H222928   5.339   6.420   0.677 -0.1460  1.9912  1.3986
  457TIP3   OH222929   1.204   0.709   0.944  0.2535 -0.3164 -0.4909
  457TIP3    H122930   1.229   0.695   1.036 -0.2524  0.2288 -0.2635
  457TIP3    H222931   1.287   0.723   0.899  0.6351 -2.1534 -0.4109
  458TIP3   OH222932   3.706   3.153   8.043 -0.0854  0.2222  0.1408
  458TIP3    H122933   3.793   3.191   8.028 -0.1332  0.3957  0.2984
  458TIP3    H222934   3.686   3.176   8.134 -1.2385  2.0982 -0.5340
  459TIP3   OH222935   6.457   4.788   0.975 -0.2694 -0.3919  0.9253
  459TIP3    H122936   6.384   4.727   0.990 -1.8181  0.7049 -1.5287
  459TIP3    H222937   6.469   4.788   0.880  1.0259  1.6056  1.0399
  460TIP3   OH222938   6.678   3.672   7.105  0.8413 -0.1682 -0.1838
  460TIP3    H122939   6.592   3.699   7.137  0.5413  1.0850 -1.9354
  460TIP3    H222940   6.659   3.604   7.040  0.8530  2.1050 -2.7429
  461TIP3   OH222941   2.879   1.219   1.253  0.1484  0.5517 -0.3374
  461TIP3    H122942   2.942   1.151   1.278 -0.5080  0.1296  0.2175
  461TIP3    H222943   2.881   1.281   1.326  0.4334  0.9073 -0.6455
  462TIP3   OH222944   6.366   6.665   1.416 -0.2654  0.1688  0.3089
  462TIP3    H122945   6.425   6.731   1.451  0.4153 -0.2607  0.0035
  462TIP3    H222946   6.356   6.689   1.324  1.8259 -1.3720 -0.4325
  463TIP3   OH222947   4.162   5.866   7.788 -0.1588  0.1020  0.2370
  463TIP3    H122948   4.208   5.828   7.713  0.2181  0.0598  0.4884
  463TIP3    H222949   4.222   5.931   7.823  0.9479 -1.9025  2.3010
  464TIP3   OH222950   1.265   3.944   1.108  0.3753 -0.5262 -0.1831
  464TIP3    H122951   1.203   3.989   1.051  1.0751  0.9393  0.1578
  464TIP3    H222952   1.341   4.002   1.111  1.1540 -1.5512  0.6166
  465TIP3   OH222953   2.372   6.001   2.057 -0.1035  0.3768  0.1340
  465TIP3    H122954   2.333   5.971   2.139 -0.1606 -0.3417 -0.1490
  465TIP3    H222955   2.337   5.942   1.990 -0.9004  1.6068 -0.5833
  466TIP3   OH222956   2.577   4.716   0.316 -0.4177 -0.3727  0.7087
  466TIP3    H122957   2.635   4.764   0.376 -1.5873  1.1172  0.6969
  466TIP3    H222958   2.494   4.711   0.362 -0.4854 -1.9697  0.4720
  467TIP3   OH222959   1.558   4.349   2.055 -0.6150  0.4493 -0.2508
  467TIP3    H122960   1.552   4.387   1.967 -2.5662  1.0089  0.0704
  467TIP3    H222961   1.625   4.401   2.099  1.0424 -0.4093 -1.6376
  468TIP3   OH222962   1.529   3.553   8.417  0.0643  0.2251  0.1332
  468TIP3    H122963   1.544   3.471   8.464 -3.5622 -0.4548  0.3433
  468TIP3    H222964   1.579   3.618   8.467  0.5848 -1.3411  1.7593
  469TIP3   OH222965   1.569   6.277   0.442  0.0774 -0.2545 -0.1403
  469TIP3    H122966   1.624   6.268   0.363  0.7201  0.7132  0.1802
  469TIP3    H222967   1.565   6.188   0.478  2.7661 -0.1386  0.6872
  470TIP3   OH222968   0.140   3.472   7.078 -0.2164 -0.7585 -0.2227
  470TIP3    H122969   0.116   3.425   7.158  3.6871 -0.7012  1.1886
  470TIP3    H222970   0.200   3.413   7.033 -1.1606 -0.1313 -2.4318
  471TIP3   OH222971   6.764   1.663   0.187  0.1205  0.1551 -0.4544
  471TIP3    H122972   6.674   1.643   0.160  0.3937  0.3288 -1.5309
  471TIP3    H222973   6.795   1.583   0.229  0.1961 -0.6776 -2.0474
  472TIP3   OH222974   0.631   1.407   7.172  0.4021 -0.7079 -0.6226
  472TIP3    H122975   0.610   1.368   7.087  1.7340  1.4168 -2.0206
  472TIP3    H222976   0.680   1.338   7.218 -0.5456 -1.9770 -1.4429
  473TIP3   OH222977   6.045   2.085   1.395  0.5271 -0.0013 -0.3300
  473TIP3    H122978   6.102   2.117   1.465  0.4410 -0.2675 -0.1383
  473TIP3    H222979   6.013   2.001   1.426  0.1364  0.0822 -0.4999
  474TIP3   OH222980   0.439   0.304   1.214  0.5245  0.3955  0.5625
  474TIP3    H122981   0.528   0.330   1.238  0.9203  0.3262 -0.7136
  474TIP3    H222982   0.388   0.384   1.223  0.9979  0.7639  0.0551
  475TIP3   OH222983   2.943   4.383   1.155 -0.5103  0.2863  0.3604
  475TIP3    H122984   2.877   4.411   1.218 -0.2475  1.4244  0.1472
  475TIP3    H222985   2.944   4.452   1.088  0.8874  0.2965  0.3576
  476TIP3   OH222986   1.511   4.787   6.381 -0.3760 -0.6528 -0.7196
  476TIP3    H122987   1.488   4.696   6.400 -0.7775 -0.6733 -1.2863
  476TIP3    H222988   1.606   4.789   6.388 -0.1946 -1.5353 -2.4455
  477TIP3   OH222989   2.469   6.649   2.018  0.2883 -0.0887  0.2676
  477TIP3    H122990   2.557   6.669   1.986 -0.6411  1.1724 -1.7419
  477TIP3    H222991   2.479   6.635   2.112  2.1013  3.8982  0.8594
  478TIP3   OH222992   4.547   6.914   0.232  0.2901 -0.1003 -0.3392
  478TIP3    H122993   4.621   6.937   0.176  0.6981  4.2427  1.5863
  478TIP3    H222994   4.472   6.958   0.192  0.3126  1.8387  1.5995
  479TIP3   OH222995   1.871   6.596   6.611  0.0424  0.4815  0.8655
  479TIP3    H122996   1.826   6.535   6.552 -1.9837  0.6344  2.1236
  479TIP3    H222997   1.944   6.631   6.560 -2.0841  1.2865 -1.8685
  480TIP3   OH222998   6.508   5.007   6.862  0.5798  0.4086 -0.3881
  480TIP3    H122999   6.443   5.020   6.931  0.1956  0.0085 -0.6650
  480TIP3    H223000   6.544   4.920   6.880  1.4960  0.8885  0.1319
  481TIP3   OH223001   4.682   5.901   7.166 -0.1715 -0.6501  0.9698
  481TIP3    H123002   4.702   5.828   7.107 -0.9479 -0.3051  0.2510
  481TIP3    H223003   4.751   5.965   7.149  0.8775 -1.4496  2.0618
  482TIP3   OH223004   0.552   3.559   0.573  0.1061 -0.1479 -0.1930
  482TIP3    H123005   0.637   3.522   0.598 -0.2996 -2.0750 -1.4383
  482TIP3    H223006   0.567   3.598   0.487  0.3968  2.2285  0.8818
  483TIP3   OH223007   1.083   5.724   0.192 -0.2378 -0.2119  0.8473
  483TIP3    H123008   1.132   5.799   0.157  1.0153 -1.2490  0.3105
  483TIP3    H223009   1.031   5.761   0.263  0.9835  1.0406  1.1421
  484TIP3   OH223010   3.252   0.607   0.827  0.2364 -0.2797 -0.4317
  484TIP3    H123011   3.260   0.592   0.921 -1.5842 -1.2489 -0.3898
  484TIP3    H223012   3.319   0.552   0.787  0.1516 -0.8827  0.2454
  485TIP3   OH223013   5.504   3.002   7.061 -0.0010 -0.1807 -0.0837
  485TIP3    H123014   5.472   3.090   7.080  2.4869  0.9109 -0.5583
  485TIP3    H223015   5.514   3.001   6.966  0.9953 -0.5754  0.0181
  486TIP3   OH223016   1.632   0.297   0.915 -0.3095 -0.1983 -0.1671
  486TIP3    H123017   1.695   0.364   0.890 -0.3834  0.3063  0.9159
  486TIP3    H223018   1.681   0.238   0.972 -0.9247  0.5208  1.1527
  487TIP3   OH223019   0.365   1.243   8.524  0.4042  0.2324 -0.2264
  487TIP3    H123020   0.274   1.239   8.495  0.5120  0.7802 -0.6502
  487TIP3    H223021   0.406   1.166   8.485 -0.0893 -0.5601  0.7585
  488TIP3   OH223022   2.942   6.199   7.606 -0.1048 -0.1137 -0.0680
  488TIP3    H123023   2.936   6.105   7.623 -1.6208  0.0953  0.7341
  488TIP3    H223024   3.015   6.229   7.659 -0.5459 -0.6021  0.8255
  489TIP3   OH223025   4.302   4.913   1.130 -0.0084 -0.3394 -0.3629
  489TIP3    H123026   4.262   4.921   1.044  0.7669 -1.9009 -0.9071
  489TIP3    H223027   4.311   4.818   1.144 -0.2309 -0.1387  1.4943
  490TIP3   OH223028   2.374   6.411   1.532  0.0894 -0.1246 -0.0208
  490TIP3    H123029   2.427   6.482   1.569  1.3018 -2.1275  2.4298
  490TIP3    H223030   2.438   6.343   1.509 -1.2043 -1.6939  0.7892
  491TIP3   OH223031   2.404   4.676   7.415 -0.8858  0.1849  0.0543
  491TIP3    H123032   2.351   4.597   7.409  0.9514 -1.1574  0.5856
  491TIP3    H223033   2.436   4.677   7.505 -0.3471  1.1662 -0.1305
  492TIP3   OH223034   3.503   5.551   0.308 -0.4211  0.0092 -0.2684
  492TIP3    H123035   3.554   5.482   0.266  1.4354 -1.4358  3.8346
  492TIP3    H223036   3.412   5.523   0.298  0.0825 -1.3563 -1.3173
  493TIP3   OH223037   6.860   0.539   0.855 -0.4816 -0.1291  0.2485
  493TIP3    H123038   6.927   0.496   0.909 -0.7946 -0.3414  0.4692
  493TIP3    H223039   6.910   0.598   0.798 -0.0682 -0.5887  0.1225
  494TIP3   OH223040   0.332   5.427   6.616  0.0032 -0.0698  0.5267
  494TIP3    H123041   0.306   5.345   6.658 -1.1968 -0.4137 -0.8176
  494TIP3    H223042   0.425   5.418   6.599  0.2147 -0.4784  1.8489
  495TIP3   OH223043   1.711   4.474   7.440  0.2414 -0.1623  0.3572
  495TIP3    H123044   1.646   4.491   7.372  0.4614 -1.9801 -0.3712
  495TIP3    H223045   1.793   4.463   7.392  0.2164 -2.5160  0.7401
  496TIP3   OH223046   0.445   4.890   7.302  0.0677 -0.1457 -0.3000
  496TIP3    H123047   0.409   4.938   7.377 -0.7984 -0.0712 -0.7492
  496TIP3    H223048   0.522   4.939   7.276  0.0047  0.1886  0.1445
  497TIP3   OH223049   3.809   6.446   6.677 -0.6063 -0.3357  0.3370
  497TIP3    H123050   3.846   6.362   6.650  3.3992  0.4737  2.4547
  497TIP3    H223051   3.849   6.510   6.618 -1.6626  0.2991  0.2960
  498TIP3   OH223052   0.881   0.322   7.349 -0.3353  0.1021  0.4606
  498TIP3    H123053   0.854   0.267   7.422 -0.9991  0.4079  0.4554
  498TIP3    H223054   0.852   0.274   7.271  1.3833 -0.7816  0.3190
  499TIP3   OH223055   2.569   5.483   1.670 -0.0931 -0.5374  0.2551
  499TIP3    H123056   2.586   5.389   1.679  0.7631 -0.3504  0.6962
  499TIP3    H223057   2.600   5.521   1.752 -0.3267  0.1516  0.0320
  500TIP3   OH223058   1.802   3.081   0.961  0.0033  0.2779 -0.1489
  500TIP3    H123059   1.894   3.100   0.977 -0.0391 -0.4493  1.0759
  500TIP3    H223060   1.800   2.987   0.943 -0.3630  0.5038 -1.4061
  501TIP3   OH223061   4.228   4.610   1.392 -0.3933 -0.1244 -0.2204
  501TIP3    H123062   4.319   4.638   1.402 -0.5727  0.4043 -0.0190
  501TIP3    H223063   4.234   4.519   1.365  0.1645 -1.2161  3.0961
  502TIP3   OH223064   0.959   2.841   8.545 -0.0669 -0.1419 -0.2758
  502TIP3    H123065   0.895   2.820   8.613  1.3364  0.3272  1.2616
  502TIP3    H223066   0.960   2.937   8.543  0.6029 -0.1468 -0.2623
  503TIP3   OH223067   6.168   5.622   1.712 -0.4590 -0.6730  0.5087
  503TIP3    H123068   6.245   5.598   1.763 -0.2618  0.6940  0.8765
  503TIP3    H223069   6.094   5.592   1.765 -0.2516  0.5640  1.5289
  504TIP3   OH223070   0.696   3.771   7.961 -0.9122  0.2383 -0.0109
  504TIP3    H123071   0.638   3.746   8.033 -0.7242 -0.6577 -0.1529
  504TIP3    H223072   0.784   3.760   7.997 -0.7956 -1.1659 -0.6487
  505TIP3   OH223073   1.612   2.085   1.241  0.1447 -0.6208 -0.2152
  505TIP3    H123074   1.630   1.995   1.217 -0.1396 -0.6606 -0.2849
  505TIP3    H223075   1.591   2.129   1.159 -4.5868 -1.6040  0.1565
  506TIP3   OH223076   1.585   3.939   7.209  0.2607 -0.3154 -0.1959
  506TIP3    H123077   1.545   4.025   7.223  1.6961  0.1586  1.2910
  506TIP3    H223078   1.597   3.904   7.297  1.0572 -1.4088 -0.7187
  507TIP3   OH223079   0.341   5.308   7.897  0.3075 -0.0341  0.3413
  507TIP3    H123080   0.389   5.370   7.842  1.3676 -1.0485  0.0862
  507TIP3    H223081   0.387   5.310   7.981  1.9904 -2.2977 -0.4279
  508TIP3   OH223082   2.121   0.208   7.416 -0.7214  0.4373 -0.5631
  508TIP3    H123083   2.194   0.201   7.354  0.3974 -0.9798  0.8232
  508TIP3    H223084   2.043   0.186   7.365  0.4058 -2.8432 -1.0890
  509TIP3   OH223085   4.366   6.790   1.262  0.0536  0.6070  0.0612
  509TIP3    H123086   4.285   6.825   1.300  0.0237  0.3288  0.2574
  509TIP3    H223087   4.361   6.696   1.278  1.3923  0.8065  2.0123
  510TIP3   OH223088   1.876   2.753   2.241 -0.1128 -0.0093  0.1647
  510TIP3    H123089   1.952   2.794   2.282 -0.5739  1.9729 -0.8433
  510TIP3    H223090   1.808   2.757   2.308 -0.2940  1.4106 -0.0606
  511TIP3   OH223091   3.483   1.750   0.585  0.0079 -0.2711  0.6633
  511TIP3    H123092   3.391   1.726   0.575 -0.2948  0.8371  0.6459
  511TIP3    H223093   3.523   1.728   0.501 -0.4540  0.0931  0.3362
  512TIP3   OH223094   2.360   6.180   0.387  0.3829 -0.0249 -0.0962
  512TIP3    H123095   2.415   6.258   0.394  0.7122 -0.4206  2.4431
  512TIP3    H223096   2.419   6.107   0.404 -0.5372 -0.5880  0.7880
  513TIP3   OH223097   4.624   0.553   7.581 -0.0291 -0.2337 -0.1687
  513TIP3    H123098   4.677   0.597   7.514 -1.1361 -0.1078 -1.0136
  513TIP3    H223099   4.536   0.553   7.543 -0.4114 -1.4355  0.6903
  514TIP3   OH223100   0.074   5.174   8.135  0.6987 -0.3504 -0.0095
  514TIP3    H123101   0.160   5.137   8.115 -0.2854 -2.0980 -1.2792
  514TIP3    H223102   0.071   5.256   8.085  0.5429 -1.7708 -2.5267
  515TIP3   OH223103   6.609   6.123   0.011  0.1479 -0.2248  0.4810
  515TIP3    H123104   6.655   6.155   0.088  0.5232 -1.2330  0.6928
  515TIP3    H223105   6.677   6.118  -0.057 -0.6258  2.9976 -0.6952
  516TIP3   OH223106   4.926   1.097   0.639 -0.2427 -0.3647 -0.1577
  516TIP3    H123107   4.858   1.057   0.693  0.9303  0.1820  1.8376
  516TIP3    H223108   5.006   1.089   0.691  0.5630  2.0501 -0.8740
  517TIP3   OH223109   4.585   2.411   8.520 -0.0515 -0.2011 -0.8227
  517TIP3    H123110   4.666   2.360   8.514 -0.4952 -1.0870  0.3104
  517TIP3    H223111   4.590   2.453   8.606 -0.1763  0.8485 -1.3161
  518TIP3   OH223112   6.917   3.909   6.768 -0.4402 -0.0257 -0.4312
  518TIP3    H123113   6.856   3.965   6.720 -0.0538  1.0486  0.2887
  518TIP3    H223114   6.883   3.820   6.757 -1.7221  0.4777 -0.6476
  519TIP3   OH223115   4.253   5.338   0.926  0.6050  0.0160  0.2068
  519TIP3    H123116   4.215   5.414   0.881  0.9496  0.3136  0.4141
  519TIP3    H223117   4.290   5.285   0.856  0.0717 -0.1258  0.0289
  520TIP3   OH223118   1.391   6.259   6.623 -0.3862  0.4315 -0.9057
  520TIP3    H123119   1.373   6.165   6.627  1.8455 -0.1414 -2.2525
  520TIP3    H223120   1.435   6.279   6.705  0.5222 -0.0945 -1.2434
  521TIP3   OH223121   1.554   5.429   1.191  0.5692  0.3521 -0.1140
  521TIP3    H123122   1.649   5.421   1.184  0.5489 -2.2456  1.4287
  521TIP3    H223123   1.520   5.365   1.128 -0.0220 -1.2614  1.7418
  522TIP3   OH223124   1.468   1.267   1.598 -0.6784 -0.1635 -0.7211
  522TIP3    H123125   1.402   1.240   1.662  0.3164  0.5709  0.6462
  522TIP3    H223126   1.476   1.361   1.611  0.1345 -0.1343 -1.3840
  523TIP3   OH223127   0.675   4.213   0.586  0.0105  0.1041 -0.1923
  523TIP3    H123128   0.731   4.189   0.513  0.5056 -3.4211  1.1583
  523TIP3    H223129   0.736   4.236   0.656 -0.3550  0.2292  0.0856
  524TIP3   OH223130   2.351   3.362   0.748 -0.3256  0.2643  0.3069
  524TIP3    H123131   2.355   3.267   0.761 -0.3012  0.0998 -0.8030
  524TIP3    H223132   2.375   3.399   0.833 -0.2574 -0.7223  0.7286
  525TIP3   OH223133   0.337   4.372   2.584 -0.1000  0.1651 -0.2045
  525TIP3    H123134   0.319   4.465   2.593 -0.6070  0.1150 -0.6819
  525TIP3    H223135   0.257   4.335   2.547 -0.2961 -0.6310  0.9351
  526TIP3   OH223136   3.205   4.472   1.232 -0.4194  0.0329  0.0367
  526TIP3    H123137   3.119   4.464   1.191 -0.7687 -1.5101  1.0072
  526TIP3    H223138   3.234   4.382   1.246  1.5853  0.5109 -0.6789
  527TIP3   OH223139   2.253   1.438   2.497 -0.8245  0.0431 -0.2186
  527TIP3    H123140   2.169   1.406   2.466 -0.7908 -1.3430  1.0051
  527TIP3    H223141   2.318   1.383   2.452 -0.5276  1.3372 -1.4267
  528TIP3   OH223142   6.322   2.783   8.404  0.5847 -0.1782  0.6726
  528TIP3    H123143   6.264   2.856   8.424 -0.2229 -0.7853  0.5801
  528TIP3    H223144   6.331   2.785   8.309  0.4410 -0.2983  0.6578
  529TIP3   OH223145   4.093   5.385   1.151  0.1772  0.2913  0.1458
  529TIP3    H123146   4.140   5.364   1.071  0.0853  1.3843 -0.2121
  529TIP3    H223147   4.151   5.357   1.222  0.6404  0.1231 -0.2970
  530TIP3   OH223148   3.696   5.488   8.422 -0.5679  0.0050 -0.0118
  530TIP3    H123149   3.632   5.550   8.386 -0.2047  0.7780  0.6339
  530TIP3    H223150   3.760   5.476   8.351 -0.6544  0.3581 -0.1549
  531TIP3   OH223151   6.250   1.235   0.252 -0.0619 -0.4441 -0.0252
  531TIP3    H123152   6.229   1.228   0.345 -1.9185 -1.2696 -0.4788
  531TIP3    H223153   6.263   1.145   0.223 -1.9283 -0.4184 -1.0721
  532TIP3   OH223154   2.406   0.751   0.862  0.5809 -0.3378  0.1820
  532TIP3    H123155   2.352   0.813   0.812  0.0407 -0.4255  0.6434
  532TIP3    H223156   2.459   0.805   0.920 -1.1206 -0.3362  1.8211
  533TIP3   OH223157   5.400   6.245   1.483 -0.0571  0.0459  0.0133
  533TIP3    H123158   5.326   6.244   1.422 -0.1698  1.8058  0.0859
  533TIP3    H223159   5.359   6.241   1.569  0.0720 -1.6648  0.0245
  534TIP3   OH223160   2.657   0.572   2.417  0.4776  0.3773 -0.5163
  534TIP3    H123161   2.574   0.527   2.427  1.9990 -2.3099  1.3501
  534TIP3    H223162   2.635   0.665   2.420 -2.2715 -0.2281  1.6588
  535TIP3   OH223163   1.007   4.425   1.961  0.0202  0.6067 -0.0993
  535TIP3    H123164   1.003   4.395   2.051  0.4937  1.2881  0.1595
  535TIP3    H223165   0.972   4.352   1.909  0.2006  0.0238  0.5869
  536TIP3   OH223166   6.229   3.315   8.537 -0.0514 -0.3876 -0.1694
  536TIP3    H123167   6.186   3.391   8.499  2.6936  1.2703 -0.2153
  536TIP3    H223168   6.203   3.316   8.629  1.1846  1.6588  0.2214
  537TIP3   OH223169   5.128   0.903   1.376  0.5433 -0.2242 -0.0587
  537TIP3    H123170   5.043   0.891   1.334  0.2626  1.2181  0.0762
  537TIP3    H223171   5.153   0.814   1.404 -0.3001 -0.8631 -1.2395
  538TIP3   OH223172   5.636   6.838   8.052 -0.5911 -0.1061 -0.0628
  538TIP3    H123173   5.559   6.782   8.062  0.2975 -1.4296 -0.4726
  538TIP3    H223174   5.637   6.891   8.131 -1.4774 -0.6246  0.3161
  539TIP3   OH223175   6.914   6.680   0.779  0.3711 -0.2612  0.6896
  539TIP3    H123176   6.918   6.645   0.868 -0.8904  0.4875  1.0567
  539TIP3    H223177   6.821   6.695   0.763  0.3807 -1.9149 -1.3787
  540TIP3   OH223178   3.795   4.521   2.051  0.5116  0.0267  0.6170
  540TIP3    H123179   3.737   4.452   2.019  0.2633  0.3281  0.4020
  540TIP3    H223180   3.857   4.477   2.108 -0.4128 -0.1801  1.4756
  541TIP3   OH223181   6.784   0.581   6.487  0.0815  0.2911  0.0156
  541TIP3    H123182   6.837   0.661   6.488 -0.7347  0.8662  2.2755
  541TIP3    H223183   6.847   0.512   6.465  1.4061  1.1850  0.8122
  542TIP3   OH223184   6.399   3.966   8.261  0.1828  0.1843  0.4276
  542TIP3    H123185   6.471   3.959   8.323 -0.3456 -1.3794  0.9382
  542TIP3    H223186   6.438   4.004   8.182  0.6418  3.2015  1.9962
  543TIP3   OH223187   5.575   0.804   6.122  0.1528 -0.1945 -0.4279
  543TIP3    H123188   5.499   0.813   6.180 -1.0251 -1.7438 -1.6230
  543TIP3    H223189   5.553   0.858   6.046  0.1197 -0.8266 -0.8764
  544TIP3   OH223190   1.579   6.490   2.049 -0.7858 -0.1962  0.0182
  544TIP3    H123191   1.647   6.428   2.022 -1.6397 -1.5585  0.8568
  544TIP3    H223192   1.608   6.521   2.135 -1.5074 -1.2757  0.6726
  545TIP3   OH223193   2.000   5.897   0.886 -0.1810 -0.1284  0.2070
  545TIP3    H123194   1.965   5.861   0.967 -1.4185  0.2777 -0.1116
  545TIP3    H223195   2.048   5.824   0.846 -1.7381 -1.1598  0.0811
  546TIP3   OH223196   4.782   0.219   8.378  0.0841  0.3497 -0.2024
  546TIP3    H123197   4.819   0.277   8.445 -0.5312  2.1015 -1.3377
  546TIP3    H223198   4.698   0.258   8.355 -1.0492 -1.7864 -0.0085
  547TIP3   OH223199   3.391   6.087   0.837 -0.0798  0.9069 -0.1515
  547TIP3    H123200   3.375   6.105   0.744 -1.2152 -1.7350 -0.5682
  547TIP3    H223201   3.310   6.044   0.867  0.9719  0.0037  1.5481
  548TIP3   OH223202   6.189   1.978   6.367  0.3816 -0.0499  0.5172
  548TIP3    H123203   6.177   1.895   6.414 -0.1667 -0.4038 -0.2485
  548TIP3    H223204   6.207   2.041   6.437  1.8233 -0.9819  1.0469
  549TIP3   OH223205   2.041   4.107   0.510  0.2754 -0.0872 -0.1578
  549TIP3    H123206   2.043   4.066   0.423  0.9559 -0.2583 -0.0646
  549TIP3    H223207   2.042   4.034   0.571 -1.9348 -0.0426  0.0166
  550TIP3   OH223208   5.919   1.391   6.846 -0.6248 -0.7697  0.0504
  550TIP3    H123209   5.976   1.339   6.789 -2.6057 -0.4966 -2.3388
  550TIP3    H223210   5.880   1.327   6.906  1.2262 -1.1207  0.9393
  551TIP3   OH223211   6.646   0.286   7.796 -0.5849  0.2358  0.0330
  551TIP3    H123212   6.687   0.329   7.871 -0.4228 -0.3354  0.2755
  551TIP3    H223213   6.640   0.355   7.730  0.9339  0.2964 -0.0784
  552TIP3   OH223214   4.002   6.398   7.446  0.2284 -0.2484  0.5414
  552TIP3    H123215   4.020   6.305   7.429 -1.5342 -0.8612  1.7499
  552TIP3    H223216   4.082   6.431   7.486  1.8472 -0.5351 -2.1724
  553TIP3   OH223217   5.697   5.288   1.760  0.1024  0.4632  0.6632
  553TIP3    H123218   5.752   5.345   1.814  1.1259 -0.7476  0.9357
  553TIP3    H223219   5.618   5.274   1.813  0.0129  1.2800  0.7634
  554TIP3   OH223220   2.323   2.550   1.433  0.0620  0.3446  0.3077
  554TIP3    H123221   2.415   2.570   1.417  0.5842 -1.0005  1.4191
  554TIP3    H223222   2.291   2.625   1.483 -0.0404  1.7849 -1.7619
  555TIP3   OH223223   4.050   2.150   8.075  0.1982 -0.1275  0.1437
  555TIP3    H123224   4.146   2.143   8.080  0.1865 -0.9524 -0.6108
  555TIP3    H223225   4.022   2.148   8.166  0.9187  0.4476  0.3911
  556TIP3   OH223226   3.143   1.417   1.328 -0.2835 -0.2040 -0.4044
  556TIP3    H123227   3.156   1.503   1.368  0.0341 -0.8490  0.9829
  556TIP3    H223228   3.059   1.386   1.364 -0.3840 -0.4818 -0.8691
  557TIP3   OH223229   0.138   3.497   8.108 -0.0641 -0.4407 -0.1341
  557TIP3    H123230   0.165   3.527   8.021  1.6288  1.5997  1.0046
  557TIP3    H223231   0.144   3.402   8.103 -0.2844 -0.4029 -2.3065
  558TIP3   OH223232   2.378   1.288   7.033  0.2137  0.2557 -0.6597
  558TIP3    H123233   2.351   1.277   6.942 -0.1144 -0.4504 -0.4849
  558TIP3    H223234   2.295   1.295   7.082  0.2774 -2.0595 -0.1030
  559TIP3   OH223235   1.774   3.431   7.965  0.1435  0.0252 -0.6215
  559TIP3    H123236   1.719   3.410   8.041  1.6898  0.6736  0.7279
  559TIP3    H223237   1.863   3.418   7.995  0.7998  0.3238 -2.3426
  560TIP3   OH223238   4.272   4.340   0.043 -0.2463 -0.2501  0.2146
  560TIP3    H123239   4.182   4.351   0.074  0.6870  1.2270  2.6889
  560TIP3    H223240   4.289   4.419  -0.008 -1.0325 -1.6361 -2.3908
  561TIP3   OH223241   4.789   6.220   6.808  0.6315 -0.2073 -0.3678
  561TIP3    H123242   4.718   6.285   6.806  0.4132 -0.4306  0.1481
  561TIP3    H223243   4.853   6.253   6.745 -0.3564 -0.4890 -1.5507
  562TIP3   OH223244   3.820   4.003   7.677  0.4144  0.3330 -0.3390
  562TIP3    H123245   3.889   3.939   7.694 -0.5882 -1.1977 -1.7464
  562TIP3    H223246   3.807   4.000   7.583 -0.7713  1.4473 -0.2377
  563TIP3   OH223247   0.153   4.527   8.419 -0.2708 -0.1979 -0.1249
  563TIP3    H123248   0.090   4.516   8.348 -1.4410  3.8131  0.0165
  563TIP3    H223249   0.106   4.501   8.497 -1.4785  1.6246 -0.1709
  564TIP3   OH223250   0.650   5.545   0.615  0.2769 -0.5372 -0.1886
  564TIP3    H123251   0.559   5.527   0.637  0.0869  1.1511  0.5835
  564TIP3    H223252   0.646   5.589   0.530  0.5371 -1.8646 -0.9197
  565TIP3   OH223253   1.520   1.599   0.662 -0.4130  0.1240 -0.2905
  565TIP3    H123254   1.609   1.563   0.660 -0.7229 -0.7105  0.3859
  565TIP3    H223255   1.468   1.531   0.705 -1.5534  0.2262 -1.4668
  566TIP3   OH223256   1.288   1.916   0.989 -0.6692  0.1277 -0.3083
  566TIP3    H123257   1.309   2.008   1.006  1.1849 -0.0542 -1.3144
  566TIP3    H223258   1.345   1.892   0.916 -1.6176 -1.6411 -0.5229
  567TIP3   OH223259   2.608   6.882   8.216 -0.3207  0.0786 -0.1718
  567TIP3    H123260   2.584   6.973   8.201  0.2763  0.2088 -0.3754
  567TIP3    H223261   2.688   6.870   8.165  0.2970 -0.2015  0.8294
  568TIP3   OH223262   6.631   6.471   0.339 -0.3255  0.0478 -0.0552
  568TIP3    H123263   6.543   6.449   0.370 -0.9696  1.5441 -0.7142
  568TIP3    H223264   6.665   6.531   0.405 -0.3782  0.6103 -0.5363
  569TIP3   OH223265   3.137   2.003   2.002  0.5070  0.3411 -0.1465
  569TIP3    H123266   3.119   2.019   1.910  0.7689 -0.4342 -0.3379
  569TIP3    H223267   3.200   1.932   2.003  0.3930  0.2364  0.6372
  570TIP3   OH223268   4.196   6.742   7.889  0.2038 -1.1103 -0.0485
  570TIP3    H123269   4.197   6.694   7.972 -3.6111  1.1863  1.6107
  570TIP3    H223270   4.106   6.734   7.858  0.5529  1.2094 -1.9813
  571TIP3   OH223271   5.261   4.019   2.213 -0.4325  0.0974 -0.1019
  571TIP3    H123272   5.265   4.102   2.260  1.0507 -0.7059  1.2957
  571TIP3    H223273   5.292   3.954   2.276 -0.0049 -1.2967 -1.6658
  572TIP3   OH223274   1.973   0.397   6.652  0.1645  0.4433 -0.0062
  572TIP3    H123275   2.028   0.360   6.721  0.4489  0.5273 -0.1837
  572TIP3    H223276   1.922   0.323   6.620  0.9788  0.1127 -0.5938
  573TIP3   OH223277   2.037   3.713   1.504  0.0765  0.2199  0.1177
  573TIP3    H123278   2.037   3.617   1.504  1.2550  0.1996  0.5764
  573TIP3    H223279   2.065   3.737   1.416  0.3053  0.1368  0.1683
  574TIP3   OH223280   2.027   0.946   1.819 -0.2952 -0.5484 -0.5343
  574TIP3    H123281   1.984   0.866   1.850  1.6670 -1.4197  0.0536
  574TIP3    H223282   2.100   0.914   1.766  1.1634  0.8167  0.5864
  575TIP3   OH223283   3.406   0.869   7.081 -0.1218 -0.0564  0.1928
  575TIP3    H123284   3.499   0.863   7.102 -0.1823 -1.5306  0.1364
  575TIP3    H223285   3.401   0.929   7.007  0.6705  0.8169  0.8333
  576TIP3   OH223286   5.986   2.014   1.759 -0.5889  0.1522 -0.0090
  576TIP3    H123287   6.076   1.988   1.779 -1.0866 -0.8855  0.9899
  576TIP3    H223288   5.994   2.104   1.727  1.0001 -0.5029 -1.6934
  577TIP3   OH223289   3.948   1.913   7.423 -0.4692 -0.1234 -0.1625
  577TIP3    H123290   3.936   1.844   7.488 -0.5945  0.7844  0.8027
  577TIP3    H223291   3.981   1.988   7.473  0.7986  0.1696 -1.3756
  578TIP3   OH223292   0.601   6.184   0.947  1.1264 -0.2935 -0.0892
  578TIP3    H123293   0.574   6.269   0.982 -0.7242 -0.7047 -0.3927
  578TIP3    H223294   0.687   6.168   0.985  0.7193  0.8918  1.4249
  579TIP3   OH223295   5.693   3.224   0.955 -0.0701 -0.1780  0.6408
  579TIP3    H123296   5.637   3.255   0.884  1.2518  1.5065  0.2747
  579TIP3    H223297   5.641   3.237   1.034 -1.3653 -1.5924  0.0691
  580TIP3   OH223298   2.241   2.912   7.340 -0.2219 -0.4175 -0.0252
  580TIP3    H123299   2.241   2.824   7.377 -1.1712 -0.4728 -0.1248
  580TIP3    H223300   2.333   2.936   7.335  0.1203 -1.7764 -0.8974
  581TIP3   OH223301   5.583   0.720   0.132 -0.3625 -0.7249 -0.1906
  581TIP3    H123302   5.531   0.800   0.144 -1.0140 -0.8719 -1.7546
  581TIP3    H223303   5.555   0.662   0.202 -0.1619  0.2750  0.7366
  582TIP3   OH223304   0.054   4.267   8.067 -0.0513 -0.0233 -0.0440
  582TIP3    H123305  -0.019   4.217   8.102 -0.0273  0.9884  1.5572
  582TIP3    H223306   0.131   4.232   8.112  0.5976 -1.4110 -2.0586
  583TIP3   OH223307   5.747   4.237   1.763  0.1580 -0.8697  0.1646
  583TIP3    H123308   5.769   4.259   1.853 -1.3319 -1.3044  0.6665
  583TIP3    H223309   5.830   4.238   1.716  0.7662  0.7360  1.2372
  584TIP3   OH223310   1.850   2.489   8.085 -0.1453  0.0608  0.0408
  584TIP3    H123311   1.787   2.560   8.098 -2.6838 -1.9021 -0.7228
  584TIP3    H223312   1.796   2.413   8.065  2.5265 -1.7470 -0.7788
  585TIP3   OH223313   6.709   4.180   6.908 -0.1016 -0.0719  0.5230
  585TIP3    H123314   6.741   4.116   6.972  0.1348 -0.3629  0.1228
  585TIP3    H223315   6.724   4.138   6.823  0.5883  0.7511  0.2202
  586TIP3   OH223316   1.347   5.052   1.060  0.0215  0.0355  0.1402
  586TIP3    H123317   1.374   4.976   1.008 -0.3533  1.2412 -1.9434
  586TIP3    H223318   1.394   5.042   1.143  0.0491 -2.4011 -0.0848
  587TIP3   OH223319   6.204   5.069   0.777  0.6344 -0.8311 -0.2110
  587TIP3    H123320   6.281   5.124   0.793 -0.7188  0.6847  1.5236
  587TIP3    H223321   6.240   4.990   0.736  3.1020 -0.1781  0.4867
  588TIP3   OH223322   0.679   3.668   0.099  0.8002  0.2059  0.0644
  588TIP3    H123323   0.714   3.671   0.010  0.6831  1.4963  0.0495
  588TIP3    H223324   0.605   3.606   0.094  0.7207  0.3606 -0.7582
  589TIP3   OH223325   0.399   2.906   2.059 -0.4221  0.0250  0.0653
  589TIP3    H123326   0.467   2.897   2.125 -0.1414 -0.4117 -0.2788
  589TIP3    H223327   0.356   2.989   2.079 -1.1497 -0.6691  1.5561
  590TIP3   OH223328   1.336   1.306   1.327 -0.3729 -0.0613  0.8746
  590TIP3    H123329   1.353   1.255   1.407 -0.1481  0.6869  1.3103
  590TIP3    H223330   1.269   1.255   1.281  0.4626 -1.1998  0.8711
  591TIP3   OH223331   5.748   4.578   1.558  0.1354  0.4239 -0.4331
  591TIP3    H123332   5.806   4.551   1.630 -1.4971 -3.2734 -0.2939
  591TIP3    H223333   5.711   4.661   1.587  0.5389 -0.2830  2.4213
  592TIP3   OH223334   3.632   5.944   1.206 -0.2065 -0.3936 -0.1641
  592TIP3    H123335   3.710   5.982   1.165  0.6193 -0.4470  1.3195
  592TIP3    H223336   3.592   6.016   1.254 -0.7993 -0.4957 -0.4873
  593TIP3   OH223337   0.116   1.889   0.243 -0.2947  0.2557  0.4950
  593TIP3    H123338   0.102   1.795   0.226 -1.2793  0.2287  1.3484
  593TIP3    H223339   0.182   1.891   0.313 -1.0395  0.1512  1.2151
  594TIP3   OH223340   2.145   2.603   6.089 -0.4134  0.2492 -0.2455
  594TIP3    H123341   2.154   2.539   6.160 -0.2597 -0.2790 -0.7328
  594TIP3    H223342   2.084   2.562   6.028 -0.4763  0.6645 -0.4632
  595TIP3   OH223343   5.302   5.536   0.367  0.6033  0.9970  0.2335
  595TIP3    H123344   5.247   5.507   0.294  1.7810 -0.0216 -0.2945
  595TIP3    H223345   5.314   5.630   0.353  0.7600  0.8254 -0.8575
  596TIP3   OH223346   3.889   1.130   8.405  0.1258  0.3814 -0.9508
  596TIP3    H123347   3.807   1.147   8.451  0.5268 -1.2325  0.4711
  596TIP3    H223348   3.950   1.194   8.442  0.5352 -1.1065  1.1720
  597TIP3   OH223349   4.658   2.923   0.256 -0.0246  0.0599  0.3613
  597TIP3    H123350   4.651   2.828   0.254 -1.1721  0.0661  2.1651
  597TIP3    H223351   4.748   2.940   0.285 -0.1369 -0.4986  1.0633
  598TIP3   OH223352   0.018   2.192   2.124  0.0279  0.3463 -0.0364
  598TIP3    H123353  -0.056   2.133   2.138  0.9362 -0.5524  1.1930
  598TIP3    H223354   0.029   2.238   2.207  1.4956 -0.3213  0.1783
  599TIP3   OH223355   0.213   2.046   6.865  0.2193  0.4521 -0.3042
  599TIP3    H123356   0.280   2.090   6.812 -1.1909  0.1916 -2.4023
  599TIP3    H223357   0.151   2.012   6.801 -0.7667 -1.2458  1.4774
  600TIP3   OH223358   3.771   1.977   0.352  0.0863 -0.0908  0.2724
  600TIP3    H123359   3.835   2.042   0.325  0.9338 -1.3455 -0.8431
  600TIP3    H223360   3.782   1.970   0.447  0.4749  0.8575  0.3083
  601TIP3   OH223361   2.356   1.666   1.138 -0.1460  0.0037 -1.1218
  601TIP3    H123362   2.301   1.587   1.132  0.3993 -0.5220  0.2829
  601TIP3    H223363   2.357   1.686   1.232 -0.6267  1.9599 -1.4911
  602TIP3   OH223364   6.533   0.658   2.149  0.0021 -0.3635  0.0264
  602TIP3    H123365   6.577   0.714   2.085 -3.7066  2.1442 -0.6487
  602TIP3    H223366   6.532   0.710   2.229 -0.5544 -0.9143  0.3830
  603TIP3   OH223367   6.342   2.660   2.172 -0.3532  0.2347  0.6177
  603TIP3    H123368   6.398   2.731   2.203  3.2119 -2.0458  0.0048
  603TIP3    H223369   6.356   2.657   2.078 -1.5655 -0.4006  0.4306
  604TIP3   OH223370   4.384   0.806   0.260 -0.5678 -0.0872 -0.0930
  604TIP3    H123371   4.305   0.787   0.310 -0.7631 -1.2065 -0.7807
  604TIP3    H223372   4.406   0.896   0.282 -0.5024 -0.6166  2.1803
  605TIP3   OH223373   1.114   4.758   1.944  0.4516 -0.4600 -0.1969
  605TIP3    H123374   1.120   4.770   2.039  0.3136  0.9631 -0.3333
  605TIP3    H223375   1.204   4.765   1.913  0.4017  0.0241 -0.2475
  606TIP3   OH223376   0.753   5.271   1.169 -0.6671 -0.0437  0.9669
  606TIP3    H123377   0.833   5.224   1.148 -0.1099  1.5427 -0.7278
  606TIP3    H223378   0.690   5.203   1.191  0.5802 -1.4359  0.4000
  607TIP3   OH223379   6.064   3.993   7.016  0.3596 -0.0343  0.9133
  607TIP3    H123380   6.059   4.068   6.956 -0.7514 -1.4615 -0.8724
  607TIP3    H223381   6.094   4.031   7.098  3.8558  1.7431 -0.9554
  608TIP3   OH223382   3.569   2.932   0.494 -0.7922 -0.0784 -0.4855
  608TIP3    H123383   3.654   2.972   0.476 -1.2994  1.9619  1.2815
  608TIP3    H223384   3.563   2.929   0.589 -2.2108 -1.3554 -0.5727
  609TIP3   OH223385   5.847   0.332   1.046 -0.0556 -0.1243  0.9113
  609TIP3    H123386   5.871   0.247   1.008 -1.3966  0.0058 -0.2833
  609TIP3    H223387   5.925   0.386   1.034  0.3272 -0.7700  0.4054
  610TIP3   OH223388   3.726   4.113   6.597  0.2099 -0.0963 -0.6443
  610TIP3    H123389   3.789   4.041   6.599  0.2192 -0.0775 -0.3210
  610TIP3    H223390   3.656   4.081   6.540 -0.7497 -1.1517  1.0538
  611TIP3   OH223391   2.476   1.754   0.199 -0.1193 -0.7324 -0.2838
  611TIP3    H123392   2.481   1.660   0.216 -0.6069 -0.8589 -0.7863
  611TIP3    H223393   2.388   1.767   0.164 -0.5941  0.1465  1.1340
  612TIP3   OH223394   6.914   5.017   7.196  0.2396  0.0259 -0.7891
  612TIP3    H123395   6.882   5.028   7.107 -1.2850 -2.3782 -0.6425
  612TIP3    H223396   7.009   5.006   7.187  0.2148  0.6806 -1.9878
  613TIP3   OH223397   4.800   2.636   0.487 -0.1461 -0.2750 -0.0071
  613TIP3    H123398   4.770   2.617   0.576  1.3531  3.3785  1.4821
  613TIP3    H223399   4.857   2.561   0.466  1.8700  0.0187  3.4451
  614TIP3   OH223400   3.312   0.298   6.307 -0.3149  0.0522 -0.4558
  614TIP3    H123401   3.373   0.363   6.272  0.5960  0.4429  1.6564
  614TIP3    H223402   3.367   0.242   6.362 -1.3704 -1.5225 -0.9681
  615TIP3   OH223403   1.839   6.450   8.481 -0.0399 -0.1991  0.0043
  615TIP3    H123404   1.927   6.413   8.478  0.7146  1.4939  0.2128
  615TIP3    H223405   1.824   6.485   8.393 -1.3139 -2.1739 -0.6239
  616TIP3   OH223406   5.119   3.798   6.838  0.7534  0.1903  0.1806
  616TIP3    H123407   5.103   3.888   6.866  0.8456  0.3028 -0.1250
  616TIP3    H223408   5.032   3.757   6.841  0.7593  0.2071  0.6034
  617TIP3   OH223409   1.786   3.801   1.595 -0.2156  0.0501  0.7018
  617TIP3    H123410   1.869   3.763   1.564 -0.0230 -0.1812  1.5005
  617TIP3    H223411   1.808   3.842   1.678 -1.1109 -0.8157  1.3780
  618TIP3   OH223412   3.435   3.225   0.942 -0.2216  0.2910 -0.1363
  618TIP3    H123413   3.458   3.294   0.879  1.1324 -1.2139 -1.3658
  618TIP3    H223414   3.506   3.161   0.935 -1.6461 -1.4593  0.6181
  619TIP3   OH223415   6.820   5.195   6.600 -0.2752 -0.2676 -0.6408
  619TIP3    H123416   6.772   5.214   6.520  1.5277 -1.1969 -2.0325
  619TIP3    H223417   6.808   5.101   6.614 -1.2154  0.0142  0.6749
  620TIP3   OH223418   6.624   3.430   0.712 -0.8867  0.5976  0.3159
  620TIP3    H123419   6.658   3.348   0.676 -0.8049 -0.6523  2.9990
  620TIP3    H223420   6.701   3.486   0.720 -0.4969  0.0142  0.7362
  621TIP3   OH223421   4.465   3.692   6.517 -0.3245  0.0031 -0.1466
  621TIP3    H123422   4.551   3.691   6.560  2.0559  0.1280 -4.3982
  621TIP3    H223423   4.411   3.747   6.573  2.5930  0.6315  2.3135
  622TIP3   OH223424   0.839   0.089   7.525  0.2327  0.4693  0.7569
  622TIP3    H123425   0.765   0.066   7.469  0.4591  0.9360  0.2592
  622TIP3    H223426   0.907   0.026   7.503  1.2649  2.2198 -1.4428
  623TIP3   OH223427   5.461   5.810   7.283 -0.0221  0.3523  0.1028
  623TIP3    H123428   5.534   5.764   7.325 -0.9727 -1.4614 -0.1446
  623TIP3    H223429   5.389   5.802   7.345 -0.7323 -0.1454 -0.7714
  624TIP3   OH223430   5.566   4.459   1.727 -0.1742  0.4058 -0.6853
  624TIP3    H123431   5.602   4.480   1.640 -0.1935 -0.0509 -0.8069
  624TIP3    H223432   5.497   4.394   1.709  0.2598 -0.1816 -0.2713
  625TIP3   OH223433   4.165   1.938   0.664 -0.2950 -0.7673 -0.0064
  625TIP3    H123434   4.193   1.879   0.594  1.9804 -2.2694  2.0391
  625TIP3    H223435   4.197   2.024   0.637 -2.4885 -0.5614 -2.3765
  626TIP3   OH223436   0.272   2.474   7.291 -0.1610  0.0287  0.1123
  626TIP3    H123437   0.315   2.541   7.237 -1.0390  1.0874  0.6842
  626TIP3    H223438   0.269   2.397   7.235  0.1195  0.7091 -0.8778
  627TIP3   OH223439   3.084   6.762   6.959  0.4810 -0.3000  0.6514
  627TIP3    H123440   3.043   6.713   6.888  1.1034  0.9057 -0.5883
  627TIP3    H223441   3.036   6.845   6.962  1.3979  0.2541  0.6227
  628TIP3   OH223442   5.867   1.332   0.765  0.4888  0.5420 -0.4428
  628TIP3    H123443   5.816   1.410   0.786 -2.1791 -0.9917 -0.8631
  628TIP3    H223444   5.852   1.319   0.671  0.8518 -0.5043 -0.3635
  629TIP3   OH223445   2.811   3.212   7.002 -0.0987 -0.1115 -0.4871
  629TIP3    H123446   2.865   3.146   6.958 -0.3661 -0.9042  0.3512
  629TIP3    H223447   2.874   3.265   7.051 -0.0028 -0.6215 -0.0454
  630TIP3   OH223448   5.002   6.083   8.516  0.2350 -0.2305 -0.3595
  630TIP3    H123449   4.917   6.118   8.542  0.6804  0.2306  0.5101
  630TIP3    H223450   5.051   6.160   8.486  0.1933 -0.5610 -1.3207
  631TIP3   OH223451   1.189   5.583   6.493  0.4204  0.2945  0.4762
  631TIP3    H123452   1.171   5.489   6.494  0.3215  0.2390  3.6907
  631TIP3    H223453   1.119   5.621   6.546  0.6284  2.1868 -0.5223
  632TIP3   OH223454   3.188   4.029   0.338  0.2693 -0.5252  0.0450
  632TIP3    H123455   3.097   4.009   0.317  0.3610 -0.2903 -0.6058
  632TIP3    H223456   3.185   4.113   0.383 -0.0727 -1.6905  2.3641
  633TIP3   OH223457   1.593   3.139   1.160 -0.2950 -0.5785 -0.2521
  633TIP3    H123458   1.533   3.075   1.197 -0.2384 -0.2651  0.3948
  633TIP3    H223459   1.645   3.089   1.097 -0.5819 -1.0613 -0.1120
  634TIP3   OH223460   0.070   0.521   8.018 -0.2439  0.1375  0.1880
  634TIP3    H123461   0.052   0.461   7.945 -0.3049  0.1850  0.1646
  634TIP3    H223462  -0.000   0.586   8.015 -0.2934  0.0923  0.3397
  635TIP3   OH223463   2.157   2.578   8.532  0.1709  0.5169  0.0636
  635TIP3    H123464   2.210   2.527   8.593  1.3637  0.5274 -0.9220
  635TIP3    H223465   2.074   2.532   8.527  0.9501 -0.9049 -0.2178
  636TIP3   OH223466   5.275   1.546   7.541  0.5310  0.3325  0.5411
  636TIP3    H123467   5.335   1.497   7.596  0.0306  0.6124  1.3504
  636TIP3    H223468   5.279   1.636   7.573  1.4535  0.8518 -0.9437
  637TIP3   OH223469   2.768   1.738   6.992 -0.4045  0.0626  0.4530
  637TIP3    H123470   2.856   1.700   6.989 -0.4037  0.1217 -0.5129
  637TIP3    H223471   2.709   1.662   6.988 -0.4000  0.0201  1.1532
  638TIP3   OH223472   2.753   1.216   7.697  0.4660 -0.7170 -0.3563
  638TIP3    H123473   2.691   1.194   7.628 -1.5297 -1.3110  1.5216
  638TIP3    H223474   2.741   1.147   7.763 -0.7308  1.9333  2.4386
  639TIP3   OH223475   1.642   5.508   7.375 -0.8124 -0.6286 -0.8596
  639TIP3    H123476   1.716   5.528   7.318 -1.3185  0.4517 -1.1527
  639TIP3    H223477   1.670   5.538   7.462 -0.9388 -0.1311 -0.9887
  640TIP3   OH223478   1.809   2.796   0.265  0.2865 -0.1437 -0.3470
  640TIP3    H123479   1.762   2.771   0.345  1.0436 -0.5940 -0.0332
  640TIP3    H223480   1.859   2.874   0.290  0.3400 -0.1431 -0.4571
  641TIP3   OH223481   0.373   6.256   6.423 -0.3587  0.1084 -0.2577
  641TIP3    H123482   0.299   6.306   6.391  0.8459  0.4675 -2.8001
  641TIP3    H223483   0.438   6.321   6.447 -0.9402 -0.1877  2.4029
  642TIP3   OH223484   1.096   3.867   1.815 -0.2469  0.0939 -0.5400
  642TIP3    H123485   1.044   3.831   1.888 -0.0676  2.5838  0.9155
  642TIP3    H223486   1.186   3.844   1.837 -0.3192 -0.4933 -0.8230
  643TIP3   OH223487   0.719   3.162   0.684 -0.0732 -0.2960 -0.1819
  643TIP3    H123488   0.806   3.125   0.702  0.5742  0.8922 -0.7334
  643TIP3    H223489   0.659   3.088   0.692  0.8923 -0.9843  0.9709
  644TIP3   OH223490   2.016   2.657   6.588  1.1496 -0.0734  0.4722
  644TIP3    H123491   2.038   2.580   6.639 -0.6916  0.6128  2.4482
  644TIP3    H223492   1.960   2.624   6.517 -0.1518 -0.5177  1.6701
  645TIP3   OH223493   6.141   5.334   7.681  0.3878  0.3914  0.1054
  645TIP3    H123494   6.181   5.379   7.755 -1.3549  1.9491  0.1672
  645TIP3    H223495   6.090   5.263   7.720 -0.2358  0.9872  0.3962
  646TIP3   OH223496   2.533   5.240   8.280 -0.1746  0.1525 -0.0352
  646TIP3    H123497   2.617   5.265   8.318 -0.2397  0.1625  0.0999
  646TIP3    H223498   2.500   5.321   8.240 -0.2454  0.2102  0.1425
  647TIP3   OH223499   0.108   6.356   8.428  0.3333  0.4337 -0.2388
  647TIP3    H123500   0.173   6.292   8.457  2.9351  2.7546 -0.5325
  647TIP3    H223501   0.104   6.345   8.333  0.4325  0.4317 -0.2424
  648TIP3   OH223502   3.620   1.084   1.667  0.0636  0.1176  0.4692
  648TIP3    H123503   3.644   1.037   1.586 -0.6664 -2.1354  1.4793
  648TIP3    H223504   3.567   1.158   1.637 -0.3453 -0.7745 -1.1344
  649TIP3   OH223505   0.931   6.839   7.798  0.0797 -0.1367  0.0086
  649TIP3    H123506   0.980   6.856   7.718  0.9560 -1.8542  0.1169
  649TIP3    H223507   0.842   6.821   7.769  0.7674 -2.5399 -0.8455
  650TIP3   OH223508   0.743   6.653   2.226  0.5381  0.0252  0.2808
  650TIP3    H123509   0.821   6.607   2.196  0.2567  0.3311 -0.9600
  650TIP3    H223510   0.681   6.583   2.247  0.3524 -0.1968 -0.9384
  651TIP3   OH223511   6.627   1.124   7.199 -0.2264  0.1238 -0.1796
  651TIP3    H123512   6.665   1.068   7.267  0.3199 -0.2228 -0.7526
  651TIP3    H223513   6.654   1.213   7.223 -0.2031  0.0239  0.1647
  652TIP3   OH223514   2.963   6.540   8.130  0.5216 -0.2565  0.1600
  652TIP3    H123515   2.987   6.447   8.138  0.4284 -0.5530 -2.2807
  652TIP3    H223516   3.041   6.587   8.160  0.5278 -1.0809  1.5535
  653TIP3   OH223517   1.916   0.749   2.026 -0.2892  0.3568  0.0140
  653TIP3    H123518   1.895   0.711   2.112 -1.7832 -0.7900 -0.8021
  653TIP3    H223519   1.841   0.805   2.006 -1.0516 -1.0834 -1.4422
  654TIP3   OH223520   4.888   6.582   1.728 -0.4290 -0.4669  0.1799
  654TIP3    H123521   4.898   6.527   1.806 -0.1778 -0.7442 -0.0489
  654TIP3    H223522   4.943   6.541   1.662 -0.6845 -0.2593 -0.1637
  655TIP3   OH223523   2.527   4.399   7.530  0.2029 -0.0397  0.3753
  655TIP3    H123524   2.530   4.312   7.489 -1.9168  0.7240 -1.6039
  655TIP3    H223525   2.560   4.458   7.463  1.1019  0.7868  1.5042
  656TIP3   OH223526   3.578   6.411   7.530 -0.0480  0.3486 -0.2672
  656TIP3    H123527   3.635   6.386   7.457 -0.2174 -0.5201 -0.1101
  656TIP3    H223528   3.586   6.506   7.535  1.7668  0.2100  0.0665
  657TIP3   OH223529   4.965   3.845   1.478  0.0904 -0.5878  0.7008
  657TIP3    H123530   5.054   3.845   1.441  0.6260 -0.3896  1.9381
  657TIP3    H223531   4.911   3.806   1.409  1.2608 -1.4768  0.2365
  658TIP3   OH223532   4.125   4.714   0.001  0.4104 -0.9490 -0.0952
  658TIP3    H123533   4.127   4.632  -0.049 -1.1880 -0.4905 -0.9773
  658TIP3    H223534   4.209   4.755  -0.017 -0.1781 -0.7095 -2.6551
  659TIP3   OH223535   1.655   3.037   7.312  0.1411 -0.3732  0.1073
  659TIP3    H123536   1.606   3.074   7.385  0.0208 -1.7080  0.7364
  659TIP3    H223537   1.746   3.037   7.341  0.1764 -0.2942 -0.0034
  660TIP3   OH223538   3.026   1.133   0.431  0.5259 -0.5305 -0.2623
  660TIP3    H123539   2.952   1.089   0.390  1.7662 -0.2452 -3.0556
  660TIP3    H223540   3.008   1.226   0.419  0.2774 -0.3805  1.1406
  661TIP3   OH223541   5.518   0.864   8.270 -0.6876  0.0029 -0.0356
  661TIP3    H123542   5.544   0.871   8.178 -1.0521 -0.5223 -0.1851
  661TIP3    H223543   5.520   0.771   8.289 -2.7366 -0.1306 -0.1713
  662TIP3   OH223544   4.637   4.096   7.344  0.0163  0.4909 -0.3375
  662TIP3    H123545   4.562   4.046   7.312 -0.4462  1.4997 -0.8829
  662TIP3    H223546   4.610   4.130   7.429  0.4688 -0.4678  0.2030
  663TIP3   OH223547   1.588   0.017   7.007  0.2707  0.2159 -0.1805
  663TIP3    H123548   1.516   0.007   7.069  0.0575 -1.0852 -0.6034
  663TIP3    H223549   1.545   0.029   6.922  0.5369  2.9143 -0.0424
  664TIP3   OH223550   5.163   4.884   7.314 -0.1468 -0.0602  0.3065
  664TIP3    H123551   5.178   4.794   7.342  0.1441  0.5643  2.3506
  664TIP3    H223552   5.092   4.915   7.370 -0.4609  0.8886 -0.5885
  665TIP3   OH223553   3.270   0.148   7.791 -0.2901 -0.0437  0.1931
  665TIP3    H123554   3.211   0.217   7.762 -2.6186 -2.3602 -0.9640
  665TIP3    H223555   3.244   0.130   7.881  0.5388  0.7697  0.6061
  666TIP3   OH223556   2.921   2.673   0.675 -0.2157  0.3397 -0.4561
  666TIP3    H123557   2.890   2.647   0.762  0.2579  1.0092 -0.0795
  666TIP3    H223558   3.013   2.697   0.689 -0.0994  0.3245 -1.1690
  667TIP3   OH223559   3.090   0.866   1.834 -0.0750 -0.3900  0.0136
  667TIP3    H123560   3.132   0.787   1.867  1.0436  0.2740  0.2373
  667TIP3    H223561   3.152   0.902   1.771 -0.6644  0.1903 -0.2448
  668TIP3   OH223562   6.408   0.495   0.132 -0.1988 -0.6360  0.1283
  668TIP3    H123563   6.384   0.541   0.051  0.7720  0.3026  0.3486
  668TIP3    H223564   6.327   0.455   0.162 -0.7527 -0.2871 -0.8598
  669TIP3   OH223565   1.949   0.637   0.699 -0.6054  0.4677 -0.5323
  669TIP3    H123566   2.011   0.700   0.737 -1.5476 -0.2015  2.3469
  669TIP3    H223567   1.885   0.691   0.653 -0.3636  1.4930  0.2925
  670TIP3   OH223568   4.333   0.373   8.142 -0.4155 -0.1851 -0.0713
  670TIP3    H123569   4.410   0.411   8.100  0.8803 -2.6673 -0.1192
  670TIP3    H223570   4.282   0.338   8.069 -0.6419 -0.1770  0.0842
  671TIP3   OH223571   0.125   4.193   8.534 -0.1341  0.7054  0.2094
  671TIP3    H123572   0.161   4.201   8.623 -0.7088 -1.0098  0.6167
  671TIP3    H223573   0.202   4.180   8.479  0.1261  0.5075  0.6125
  672TIP3   OH223574   4.330   5.929   0.630  0.2828 -0.4374 -1.0356
  672TIP3    H123575   4.299   6.009   0.673  1.2606  0.3635 -1.7726
  672TIP3    H223576   4.253   5.895   0.584 -0.5373 -0.7940  0.5090
  673TIP3   OH223577   3.837   5.259   1.129 -0.0108  0.3572 -0.1342
  673TIP3    H123578   3.923   5.269   1.169 -1.0933  0.3048  2.3803
  673TIP3    H223579   3.836   5.169   1.097  1.0052  0.4961 -0.5902
  674TIP3   OH223580   3.922   2.533   1.858  0.1660 -0.1000 -0.3597
  674TIP3    H123581   3.969   2.498   1.783  1.3138  3.4036 -1.4743
  674TIP3    H223582   3.831   2.540   1.828  0.1781 -0.8414 -0.5831
  675TIP3   OH223583   2.671   0.750   6.859  0.0554  0.1245 -0.7088
  675TIP3    H123584   2.704   0.799   6.934  1.3772  1.4795 -2.1054
  675TIP3    H223585   2.596   0.801   6.827  0.4618  0.4239 -1.2157
  676TIP3   OH223586   5.122   0.650   8.309  0.4713 -0.1581  0.0173
  676TIP3    H123587   5.126   0.614   8.398  2.1049 -2.3862 -0.8827
  676TIP3    H223588   5.055   0.598   8.265  1.5595 -0.9139 -0.7849
  677TIP3   OH223589   1.619   3.175   0.292  0.2506  0.6860  0.5135
  677TIP3    H123590   1.695   3.183   0.234 -1.5851 -0.5671 -2.2366
  677TIP3    H223591   1.583   3.088   0.273 -2.0747  1.3540  1.4869
  678TIP3   OH223592   5.536   3.735   1.278 -0.2058  0.2294 -0.4059
  678TIP3    H123593   5.504   3.673   1.212  0.1835 -0.2832 -0.1191
  678TIP3    H223594   5.613   3.692   1.316  0.0056  0.8446 -0.1299
  679TIP3   OH223595   6.535   2.587   5.882  0.0733  0.0041 -0.0200
  679TIP3    H123596   6.579   2.517   5.929  0.5390  0.0187 -0.4227
  679TIP3    H223597   6.444   2.559   5.876 -0.1731  0.3598  1.5640
  680TIP3   OH223598   6.046   3.648   0.199 -0.2632  0.2026 -0.3355
  680TIP3    H123599   5.961   3.622   0.166  0.3131 -0.2206 -1.5535
  680TIP3    H223600   6.108   3.618   0.132  0.6008  3.3970 -1.1346
  681TIP3   OH223601   6.044   4.584   1.949  0.1147 -0.6204 -0.2615
  681TIP3    H123602   5.999   4.665   1.926  0.1264 -0.3504  0.6129
  681TIP3    H223603   5.980   4.533   1.999  0.4146 -0.7212  0.0298
  682TIP3   OH223604   2.719   4.457   1.302 -0.3711 -0.3690  0.0716
  682TIP3    H123605   2.753   4.495   1.383  0.1163  0.8963 -0.6917
  682TIP3    H223606   2.624   4.463   1.311 -0.3158  0.1837  0.3786
  683TIP3   OH223607   0.032   2.809   1.089 -0.3669 -0.7678 -0.2363
  683TIP3    H123608   0.010   2.754   1.165 -1.9851 -0.3434 -0.3618
  683TIP3    H223609   0.007   2.898   1.116  0.2575 -0.4085 -0.8097
  684TIP3   OH223610   1.812   4.519   1.966 -0.4327  0.1340  0.2044
  684TIP3    H123611   1.815   4.492   2.057 -0.5403 -0.0483  0.1560
  684TIP3    H223612   1.903   4.518   1.937 -0.5993 -2.5582 -0.4756
  685TIP3   OH223613   2.084   0.534   1.897  0.1334 -1.2231 -0.4921
  685TIP3    H123614   2.012   0.585   1.933  0.2107  0.2241 -2.2241
  685TIP3    H223615   2.146   0.525   1.969 -1.1674 -1.3624  0.6489
  686TIP3   OH223616   3.507   3.417   0.401 -0.3253 -0.2724 -0.1726
  686TIP3    H123617   3.564   3.351   0.441 -1.8719 -1.2022  0.5938
  686TIP3    H223618   3.455   3.451   0.474 -1.6224 -0.3499 -1.0263
  687TIP3   OH223619   3.946   0.533   6.786 -0.1098  0.2273  0.2424
  687TIP3    H123620   3.906   0.619   6.795 -1.0795 -0.2925  1.1623
  687TIP3    H223621   3.929   0.490   6.870 -0.1715 -1.0670 -0.4110
  688TIP3   OH223622   4.845   6.422   0.744 -0.7618  0.1934  0.2858
  688TIP3    H123623   4.866   6.403   0.653 -1.4314 -0.3739  0.2447
  688TIP3    H223624   4.853   6.339   0.789  0.7058  0.6856  0.9894
  689TIP3   OH223625   0.182   3.935   7.548 -0.0251  0.1789  0.4305
  689TIP3    H123626   0.159   3.875   7.477  1.2591 -0.7995  0.8018
  689TIP3    H223627   0.116   3.920   7.615 -0.3802  0.0271  0.0543
  690TIP3   OH223628   0.186   3.968   6.954 -0.2061 -0.7160 -0.4178
  690TIP3    H123629   0.154   3.920   7.030  1.3516 -0.9316  0.1398
  690TIP3    H223630   0.122   3.949   6.885 -1.6121 -0.5771  0.7918
  691TIP3   OH223631   6.852   6.477   1.504 -0.0014  0.4307 -0.2236
  691TIP3    H123632   6.909   6.446   1.434  0.8927  2.8054 -0.6421
  691TIP3    H223633   6.903   6.466   1.584 -0.4547 -0.9013 -0.0878
  692TIP3   OH223634   0.842   0.590   0.950  0.2722  0.0180  0.2988
  692TIP3    H123635   0.887   0.510   0.976  0.2792  0.1649  0.7553
  692TIP3    H223636   0.840   0.644   1.030  0.2801  0.4775 -0.0044
  693TIP3   OH223637   1.695   4.242   6.872  0.2936  0.2467  1.4172
  693TIP3    H123638   1.747   4.192   6.808  0.6525 -1.1374  2.7386
  693TIP3    H223639   1.723   4.332   6.858 -0.7585  0.2597 -1.4109
  694TIP3   OH223640   5.646   2.281   8.115  0.5023  0.3594 -0.4803
  694TIP3    H123641   5.575   2.333   8.077 -0.4048  0.0771  0.7786
  694TIP3    H223642   5.624   2.273   8.208  3.6238  2.6998  0.6793
  695TIP3   OH223643   6.295   3.749   2.077  0.0399 -0.0465 -0.5686
  695TIP3    H123644   6.306   3.833   2.034  0.5911 -0.5082 -1.3498
  695TIP3    H223645   6.350   3.754   2.155 -0.8722  0.7509  0.0488
  696TIP3   OH223646   5.043   6.329   1.145  0.1252 -0.0181 -0.5825
  696TIP3    H123647   5.094   6.401   1.107 -0.2124 -0.1997 -1.4193
  696TIP3    H223648   5.075   6.251   1.100 -0.1005 -0.2756 -0.2963
  697TIP3   OH223649   2.172   1.741   1.887 -0.1744  0.1167  0.3686
  697TIP3    H123650   2.234   1.684   1.841  0.7207 -0.0546  1.7119
  697TIP3    H223651   2.123   1.785   1.818  0.3742 -0.9158 -0.7187
  698TIP3   OH223652   4.756   4.652   0.331  0.0220 -0.1901  0.1846
  698TIP3    H123653   4.848   4.676   0.328  0.0277  0.0723  1.5246
  698TIP3    H223654   4.713   4.727   0.374 -0.5592 -0.9215  0.9237
  699TIP3   OH223655   5.988   5.631   0.615  0.7981 -0.3252  0.2196
  699TIP3    H123656   5.962   5.548   0.575 -1.4398 -0.5497  1.9562
  699TIP3    H223657   6.039   5.675   0.547  2.2797 -3.1672 -0.6747
  700TIP3   OH223658   2.638   0.870   6.345 -0.0565 -0.4115  0.1187
  700TIP3    H123659   2.710   0.831   6.296 -0.4817 -2.0049  0.7200
  700TIP3    H223660   2.597   0.931   6.284  2.0336  0.8471 -0.1038
  701TIP3   OH223661   3.474   0.672   1.133 -0.1927 -0.1589  0.0887
  701TIP3    H123662   3.510   0.742   1.078  1.2410 -0.6272  0.3832
  701TIP3    H223663   3.381   0.694   1.142 -0.1260  0.7936 -1.1946
  702TIP3   OH223664   4.755   0.581   1.249 -0.1260  0.0851 -0.3261
  702TIP3    H123665   4.691   0.576   1.178 -1.2482  2.2675  0.4341
  702TIP3    H223666   4.710   0.629   1.319  1.6133 -0.2395  1.1010
  703TIP3   OH223667   6.752   3.385   1.259 -0.3194 -0.1413 -0.6551
  703TIP3    H123668   6.699   3.464   1.252  0.8846  0.6164 -1.6644
  703TIP3    H223669   6.690   3.316   1.283 -1.6131  0.8620 -1.0334
  704TIP3   OH223670   6.572   0.651   1.588 -0.4211 -0.0701  0.2539
  704TIP3    H123671   6.581   0.741   1.619  2.9753 -0.3336  0.3711
  704TIP3    H223672   6.605   0.597   1.660  1.1127 -1.1278 -1.1652
  705TIP3   OH223673   5.301   6.251   1.740 -0.3297 -0.6077  0.3088
  705TIP3    H123674   5.209   6.248   1.713 -0.4927  0.2292  0.7524
  705TIP3    H223675   5.308   6.183   1.807 -0.0628 -2.2892 -1.3234
  706TIP3   OH223676   1.538   1.178   6.931 -0.2813 -0.1175  0.1423
  706TIP3    H123677   1.582   1.125   6.864 -1.0013  0.3672 -0.7380
  706TIP3    H223678   1.448   1.188   6.899 -0.1286  1.7798  0.1640
  707TIP3   OH223679   4.109   2.712   8.272  0.5801 -0.5511  0.0829
  707TIP3    H123680   4.122   2.807   8.273  1.6570 -0.6904  1.4405
  707TIP3    H223681   4.033   2.698   8.329  1.9512 -0.6671  1.9618
  708TIP3   OH223682   4.661   3.256   0.700  0.3273 -0.3552 -0.0102
  708TIP3    H123683   4.743   3.207   0.710  1.3808  1.0900 -1.1253
  708TIP3    H223684   4.633   3.273   0.790  0.0944 -2.6587  0.4149
  709TIP3   OH223685   6.096   5.241   1.230 -0.3438  0.3497 -0.4252
  709TIP3    H123686   6.013   5.257   1.275 -0.9495  0.1492 -1.4243
  709TIP3    H223687   6.077   5.168   1.171  0.5646  0.2568 -0.6086
  710TIP3   OH223688   0.790   6.060   7.051 -0.3434 -0.0471 -0.4699
  710TIP3    H123689   0.748   5.999   6.991  1.2316  0.2626 -1.9562
  710TIP3    H223690   0.808   6.008   7.129 -0.1569 -1.1544 -1.2290
  711TIP3   OH223691   1.139   1.527   0.791  0.2118 -0.2260  0.2120
  711TIP3    H123692   1.086   1.473   0.851  1.1689 -0.1879  1.1132
  711TIP3    H223693   1.133   1.615   0.828 -0.3466  0.0807 -0.5721
  712TIP3   OH223694   5.816   5.845   6.733  0.3021 -0.5804 -0.4897
  712TIP3    H123695   5.818   5.928   6.685 -2.6735 -0.2354 -0.1787
  712TIP3    H223696   5.841   5.780   6.668 -0.2566  0.2488 -1.5773
  713TIP3   OH223697   4.080   1.848   8.189  0.0585  0.4497  0.0881
  713TIP3    H123698   4.139   1.856   8.264 -1.8855  1.4369  1.5835
  713TIP3    H223699   4.019   1.779   8.214  0.5915 -0.6646 -1.5036
  714TIP3   OH223700   3.987   2.773   0.831 -0.1141  0.2278 -0.3108
  714TIP3    H123701   3.933   2.848   0.856 -0.8515  0.1761 -1.6542
  714TIP3    H223702   3.961   2.703   0.891  0.3927  0.9588  0.7774
  715TIP3   OH223703   6.370   4.167   7.157  0.5798  0.2445 -0.3703
  715TIP3    H123704   6.365   4.176   7.062 -1.3993 -1.3684 -0.4837
  715TIP3    H223705   6.459   4.137   7.174  1.2176  1.3572 -1.6121
  716TIP3   OH223706   2.138   0.853   0.741 -0.4319  0.0775 -0.5270
  716TIP3    H123707   2.162   0.873   0.651  0.1720  0.1906 -0.3460
  716TIP3    H223708   2.072   0.920   0.763 -0.5501  0.0760 -0.8673
  717TIP3   OH223709   6.747   1.702   2.045  0.7175 -0.0264  0.2218
  717TIP3    H123710   6.783   1.619   2.012  1.6799  1.3987 -2.6582
  717TIP3    H223711   6.653   1.693   2.037  0.8730  0.2305 -3.3369
  718TIP3   OH223712   3.035   4.093   8.256 -0.4323  0.5767  0.2147
  718TIP3    H123713   3.030   4.188   8.269 -1.6602  0.7893 -1.4948
  718TIP3    H223714   3.099   4.082   8.186 -1.0375  0.2278 -0.2868
  719TIP3   OH223715   1.031   0.252   1.698 -0.0454  0.2201 -0.2454
  719TIP3    H123716   1.045   0.270   1.791 -1.4847  1.5609 -0.2396
  719TIP3    H223717   0.993   0.164   1.695 -2.4773  1.1544  0.7266
  720TIP3   OH223718   5.213   1.351   8.314  0.5942  0.6548 -0.0289
  720TIP3    H123719   5.212   1.256   8.299 -4.5584  0.4856 -0.4268
  720TIP3    H223720   5.170   1.362   8.399  1.3493  2.6541  0.1374
  721TIP3   OH223721   2.180   4.478   8.514  0.4242  0.1049 -0.7224
  721TIP3    H123722   2.143   4.509   8.431  0.8767 -0.5369 -1.1749
  721TIP3    H223723   2.247   4.414   8.488  0.5055 -0.1730  0.1423
  722TIP3   OH223724   0.448   3.082   1.858 -0.8302 -0.2936 -0.5808
  722TIP3    H123725   0.375   3.109   1.914 -0.5181  0.7537 -0.6684
  722TIP3    H223726   0.452   2.987   1.869  0.9113  0.0494  3.2865
  723TIP3   OH223727   0.839   2.767   6.028 -0.0296 -0.0614 -0.0035
  723TIP3    H123728   0.900   2.813   6.085  1.5138 -0.4699 -1.2512
  723TIP3    H223729   0.753   2.788   6.064  0.8037  0.7728  1.6475
  724TIP3   OH223730   4.243   0.054   8.176 -0.0403 -0.0495 -0.0001
  724TIP3    H123731   4.314   0.067   8.113  0.0829 -0.2833  0.0903
  724TIP3    H223732   4.190  -0.016   8.139  1.5652 -2.1625  1.4486
  725TIP3   OH223733   6.002   6.706   6.679 -0.1676  0.2222 -0.2236
  725TIP3    H123734   5.997   6.726   6.773  1.5908  1.0075 -0.2554
  725TIP3    H223735   6.059   6.629   6.674 -0.4613  0.0305 -0.6291
  726TIP3   OH223736   1.868   2.308   7.383 -0.3801 -0.1079  0.5383
  726TIP3    H123737   1.959   2.331   7.398 -0.1796 -0.8422  0.4776
  726TIP3    H223738   1.852   2.235   7.444 -0.5265 -0.8919 -0.4178
  727TIP3   OH223739   6.367   0.601   0.888  0.2319 -0.3660  0.4532
  727TIP3    H123740   6.280   0.564   0.904 -0.0366  0.2655  0.4943
  727TIP3    H223741   6.426   0.550   0.942 -0.2206 -0.3235  0.9970
  728TIP3   OH223742   0.521   2.758   1.873 -0.2196 -0.3202 -0.7435
  728TIP3    H123743   0.612   2.765   1.903  0.0656 -3.5845 -0.4938
  728TIP3    H223744   0.470   2.795   1.945  0.8536  0.8256 -0.5331
  729TIP3   OH223745   4.184   4.344   1.238 -0.1528  0.1432 -0.4628
  729TIP3    H123746   4.239   4.324   1.162 -0.2133  0.0809 -0.4892
  729TIP3    H223747   4.221   4.293   1.309  0.0383  0.3675 -0.3981
  730TIP3   OH223748   5.082   1.331   0.529 -0.1239  0.2717  0.6151
  730TIP3    H123749   5.114   1.358   0.615  0.0729  1.2597  0.2412
  730TIP3    H223750   5.036   1.249   0.545  0.8919 -0.1523  1.4817
  731TIP3   OH223751   0.994   4.640   6.976 -0.5244 -0.5246  0.7526
  731TIP3    H123752   0.954   4.674   7.056 -2.2319  2.2474 -1.1275
  731TIP3    H223753   0.921   4.600   6.928  0.4839 -2.1909  0.5046
  732TIP3   OH223754   1.438   4.559   6.827 -0.2500  0.4395  0.4424
  732TIP3    H123755   1.389   4.609   6.892 -2.3993 -1.4377  0.3756
  732TIP3    H223756   1.372   4.528   6.766  1.0715 -1.7687  0.0289
  733TIP3   OH223757   1.028   2.062   1.370  0.2115 -0.4450  0.1890
  733TIP3    H123758   1.012   2.072   1.463 -1.1339 -0.5485 -0.0106
  733TIP3    H223759   1.116   2.025   1.364 -0.3089 -1.9754  1.4827
  734TIP3   OH223760   5.896   4.353   7.948 -0.0912 -0.3643 -0.4387
  734TIP3    H123761   5.929   4.400   8.024  0.1241 -0.0152 -0.7490
  734TIP3    H223762   5.846   4.280   7.985 -2.9536  1.6968  0.1656
  735TIP3   OH223763   4.464   5.989   6.783  0.5717  0.3858 -0.5981
  735TIP3    H123764   4.457   6.070   6.732  0.1824  1.7617  1.4932
  735TIP3    H223765   4.375   5.972   6.814  1.0523  0.5553  0.9620
  736TIP3   OH223766   1.655   0.648   0.000 -0.8619 -0.2789 -0.6580
  736TIP3    H123767   1.706   0.575  -0.035 -1.0031 -1.0346  0.6222
  736TIP3    H223768   1.566   0.633  -0.031 -1.0307 -1.0603  0.1751
  737TIP3   OH223769   2.245   2.391   6.643  0.3784 -0.3418  0.1137
  737TIP3    H123770   2.242   2.346   6.559  0.6389  1.7719 -1.0772
  737TIP3    H223771   2.155   2.422   6.657  0.8480  1.5023 -0.6831
  738TIP3   OH223772   2.007   4.612   1.613 -0.2956  0.4595  0.6847
  738TIP3    H123773   1.998   4.688   1.555  1.4825  1.8167  2.0628
  738TIP3    H223774   2.092   4.575   1.591 -1.3909 -1.5391 -0.3639
  739TIP3   OH223775   1.116   6.106   0.672  0.0135  0.6066 -0.6643
  739TIP3    H123776   1.176   6.105   0.747  0.9192 -0.8857 -1.3786
  739TIP3    H223777   1.107   6.199   0.651  0.8532  0.9620  0.4132
  740TIP3   OH223778   1.304   1.264   7.820 -0.0640  0.4679 -0.1244
  740TIP3    H123779   1.239   1.280   7.888 -2.4354 -0.3021 -2.0322
  740TIP3    H223780   1.311   1.168   7.816 -0.3752  0.4807 -1.2787
  741TIP3   OH223781   3.144   1.430   7.133  0.6740  0.2848 -0.2396
  741TIP3    H123782   3.168   1.493   7.201  1.0598  0.2400 -0.3271
  741TIP3    H223783   3.140   1.482   7.052 -0.9572  0.5667 -0.0104
  742TIP3   OH223784   5.320   2.440   0.470 -0.5539  0.4749 -0.7819
  742TIP3    H123785   5.324   2.492   0.550  1.1795  1.5239 -1.5137
  742TIP3    H223786   5.317   2.349   0.501 -0.8286  0.8840  0.4635
  743TIP3   OH223787   4.129   6.462   7.825 -0.3061  0.1864 -0.6088
  743TIP3    H123788   4.153   6.375   7.793 -0.7941 -0.2460  0.1546
  743TIP3    H223789   4.045   6.481   7.783  0.0396  0.5085 -1.1598
  744TIP3   OH223790   2.892   5.225   6.555 -0.0784  0.0220  0.1346
  744TIP3    H123791   2.905   5.319   6.537  0.7840 -0.0041  0.5880
  744TIP3    H223792   2.975   5.196   6.591 -0.2936 -0.9641 -0.1431
  745TIP3   OH223793   1.139   3.395   1.047  0.2878 -0.2555 -0.6126
  745TIP3    H123794   1.128   3.347   1.129  0.1431  0.8812  0.0609
  745TIP3    H223795   1.232   3.416   1.044  0.1129  0.6583 -0.1588
  746TIP3   OH223796   0.603   4.716   2.162 -0.3475  0.1090 -0.1508
  746TIP3    H123797   0.652   4.793   2.133 -0.1894  0.4188  0.9032
  746TIP3    H223798   0.546   4.748   2.231  0.5122 -0.9063  1.0896
  747TIP3   OH223799   5.621   6.545   1.471 -0.4768  0.1353  0.2349
  747TIP3    H123800   5.612   6.518   1.380  0.6494  0.6711 -0.0456
  747TIP3    H223801   5.647   6.465   1.517  2.3858  0.5138 -0.5199
  748TIP3   OH223802   1.324   1.105   7.243  0.0448  0.2888  0.2032
  748TIP3    H123803   1.313   1.170   7.313  1.0618  1.6855 -0.8749
  748TIP3    H223804   1.294   1.150   7.164 -0.3736 -0.9976 -0.3974
  749TIP3   OH223805   2.322   2.048   0.106 -0.0942  0.0488 -0.0505
  749TIP3    H123806   2.408   2.038   0.147 -0.1528 -3.2794 -0.4481
  749TIP3    H223807   2.341   2.059   0.013 -0.1135  1.7002  0.1062
  750TIP3   OH223808   4.858   5.280   0.156 -0.4721 -0.1151  0.0212
  750TIP3    H123809   4.869   5.267   0.062  1.9753 -1.1089  0.3728
  750TIP3    H223810   4.767   5.308   0.166  0.1307  3.8425 -2.9997
  751TIP3   OH223811   0.945   4.538   1.060  0.3209 -0.2898 -0.1944
  751TIP3    H123812   0.948   4.442   1.067 -0.0541 -0.3290 -0.5134
  751TIP3    H223813   1.035   4.566   1.074  0.6920 -0.7867 -1.4170
  752TIP3   OH223814   6.338   2.341   1.368  0.1684 -0.1219  0.5816
  752TIP3    H123815   6.390   2.296   1.301 -0.8192 -0.4840  0.0306
  752TIP3    H223816   6.306   2.271   1.425 -0.8868 -0.0699  0.0706
  753TIP3   OH223817   5.338   5.576   6.289 -0.4107  0.2177 -0.0093
  753TIP3    H123818   5.261   5.522   6.304 -1.7612  1.4531 -2.0130
  753TIP3    H223819   5.333   5.645   6.356 -1.0209  0.2473 -0.0818
  754TIP3   OH223820   6.227   1.661   7.299  0.0986 -0.5857 -0.0960
  754TIP3    H123821   6.215   1.570   7.326 -0.2600  0.1722  2.5693
  754TIP3    H223822   6.243   1.708   7.380 -0.4548  1.8669 -1.3160
  755TIP3   OH223823   3.532   3.441   7.582  0.4864  0.8299 -0.1969
  755TIP3    H123824   3.576   3.445   7.497 -0.8434 -0.4780 -0.9865
  755TIP3    H223825   3.601   3.414   7.643  0.9000 -0.7964 -1.3273
  756TIP3   OH223826   4.156   4.926   6.867 -0.1017  0.8163  0.3813
  756TIP3    H123827   4.155   4.844   6.916  2.2480  0.0361 -0.7191
  756TIP3    H223828   4.089   4.915   6.799  0.4237 -0.3693  0.0352
  757TIP3   OH223829   4.477   3.748   8.544  0.1460 -0.1035 -0.5135
  757TIP3    H123830   4.446   3.839   8.536  0.8173  0.2123  0.3440
  757TIP3    H223831   4.563   3.756   8.585 -0.3032 -1.2036  0.6967
  758TIP3   OH223832   2.588   2.795   0.390 -0.2572  0.6531  0.6739
  758TIP3    H123833   2.673   2.753   0.404 -1.0487 -1.5519 -0.5383
  758TIP3    H223834   2.607   2.873   0.339  0.9645 -0.3632 -0.4853
  759TIP3   OH223835   2.384   1.789   0.478  0.5009 -0.2090 -0.2171
  759TIP3    H123836   2.453   1.798   0.412 -0.2483  0.0944 -0.9897
  759TIP3    H223837   2.331   1.868   0.467  0.0561 -0.4185  0.3905
  760TIP3   OH223838   1.904   3.995   1.181 -0.2011 -0.4519 -0.1746
  760TIP3    H123839   1.864   4.080   1.201 -1.4540 -0.1160 -3.4447
  760TIP3    H223840   1.838   3.931   1.207  0.7121 -0.5169  2.2229
  761TIP3   OH223841   1.973   6.554   7.227  0.2872  0.0563 -0.0672
  761TIP3    H123842   1.975   6.558   7.323  1.0848  0.4310 -0.0955
  761TIP3    H223843   1.951   6.642   7.199  1.8624  0.4107 -0.2657
  762TIP3   OH223844   2.477   5.348   1.403  0.3436 -0.3257  0.0099
  762TIP3    H123845   2.437   5.425   1.363  1.5402  0.5505  0.4338
  762TIP3    H223846   2.503   5.377   1.490 -1.7718 -2.0593  1.3172
  763TIP3   OH223847   0.691   0.034   8.204  0.6927 -0.3850 -0.1722
  763TIP3    H123848   0.660   0.055   8.292  2.9356  1.8539  0.1809
  763TIP3    H223849   0.612   0.012   8.155 -0.6398 -1.4839  2.3082
  764TIP3   OH223850   6.173   5.940   0.212 -0.2009 -0.0498 -0.1855
  764TIP3    H123851   6.170   5.884   0.135  0.5637 -1.6040  0.8545
  764TIP3    H223852   6.261   5.979   0.210 -0.2159 -0.0149 -0.1696
  765TIP3   OH223853   2.540   6.668   1.340 -0.0328  0.3479 -0.6080
  765TIP3    H123854   2.542   6.663   1.436 -1.7942  0.7522 -0.4998
  765TIP3    H223855   2.446   6.671   1.319  0.3395  1.3820 -2.2792
  766TIP3   OH223856   6.763   6.843   1.752 -0.8141  0.0328  0.1226
  766TIP3    H123857   6.822   6.817   1.824  0.6917  2.2134 -0.2462
  766TIP3    H223858   6.698   6.772   1.748  0.1358 -1.0691  2.4020
  767TIP3   OH223859   0.190   1.031   8.164 -0.8068 -0.1226  1.0067
  767TIP3    H123860   0.174   0.954   8.109 -0.6411 -0.3219  1.2320
  767TIP3    H223861   0.125   1.095   8.136 -0.1170  0.1212 -0.0823
  768TIP3   OH223862   4.201   1.054   0.770 -0.7823  0.2488  0.1888
  768TIP3    H123863   4.119   1.003   0.767 -0.1250 -1.0911  2.4990
  768TIP3    H223864   4.172   1.145   0.780 -1.9751 -0.0008 -0.7057
  769TIP3   OH223865   0.870   4.117   8.083 -0.4543  0.3478 -0.2784
  769TIP3    H123866   0.949   4.069   8.056 -0.7719  0.6294 -1.8471
  769TIP3    H223867   0.847   4.080   8.168 -0.5162 -2.0688 -1.2799
  770TIP3   OH223868   6.578   4.795   1.985 -0.2251  0.2946  0.1556
  770TIP3    H123869   6.622   4.877   2.009 -0.0885  0.5141 -0.8219
  770TIP3    H223870   6.603   4.780   1.894 -1.2484 -0.1798 -0.0594
  771TIP3   OH223871   4.311   0.152   0.653 -1.1669  0.3523  0.3561
  771TIP3    H123872   4.403   0.173   0.668 -0.8235 -1.1164  0.4354
  771TIP3    H223873   4.265   0.190   0.728 -0.6826  1.3605  0.1653
  772TIP3   OH223874   6.407   4.615   7.257  0.1060  0.6853  0.8962
  772TIP3    H123875   6.427   4.524   7.236 -2.0909  0.1983  0.7122
  772TIP3    H223876   6.482   4.644   7.310  0.4954 -1.4481  1.6288
  773TIP3   OH223877   5.291   2.621   6.787 -0.0155  0.3976  0.3801
  773TIP3    H123878   5.236   2.542   6.791 -0.9314  0.9151 -1.2774
  773TIP3    H223879   5.370   2.597   6.835  0.3412 -2.0538 -1.2679
  774TIP3   OH223880   2.078   0.761   7.229 -0.6199 -0.6197  0.1488
  774TIP3    H123881   2.103   0.742   7.319 -0.1701 -0.9703 -0.0407
  774TIP3    H223882   2.091   0.855   7.219 -1.4933 -0.4324  0.6935
  775TIP3   OH223883   6.654   6.111   0.994 -0.1446  0.3701 -0.1396
  775TIP3    H123884   6.666   6.074   0.907 -0.7243 -1.4710  0.5159
  775TIP3    H223885   6.724   6.072   1.047 -1.4131 -0.7327  0.8178
  776TIP3   OH223886   4.636   4.557   0.018 -0.4065  0.0357  0.2829
  776TIP3    H123887   4.645   4.512   0.102 -0.9110  0.9563  0.8493
  776TIP3    H223888   4.557   4.610   0.028  0.9229  2.1581  0.2000
  777TIP3   OH223889   2.588   4.044   1.273  0.3185  0.2776 -0.4991
  777TIP3    H123890   2.547   3.985   1.337  0.7365 -0.7435 -1.1336
  777TIP3    H223891   2.631   4.111   1.326 -1.7961  1.1712  0.1934
  778TIP3   OH223892   3.809   2.474   0.337 -0.7821 -0.1787  0.1634
  778TIP3    H123893   3.840   2.383   0.348 -0.5879 -0.2341 -0.7630
  778TIP3    H223894   3.735   2.481   0.397 -0.1697 -0.6413  0.9988
  779TIP3   OH223895   2.056   5.227   6.659  0.0661  0.5715  1.0069
  779TIP3    H123896   2.098   5.206   6.575  0.2768  1.1882  0.9529
  779TIP3    H223897   1.976   5.175   6.659  0.8864 -0.7414  1.1750
  780TIP3   OH223898   2.311   2.869   8.142  0.1997 -0.3915  0.5503
  780TIP3    H123899   2.316   2.875   8.237  3.1023 -0.0331  0.4464
  780TIP3    H223900   2.399   2.845   8.114 -1.2499 -3.7004 -1.8909
  781TIP3   OH223901   4.810   0.009   0.929 -0.1627 -0.1300  0.5195
  781TIP3    H123902   4.876   0.038   0.865  0.3053 -1.2947  0.4394
  781TIP3    H223903   4.856  -0.057   0.981 -1.6381 -2.0272 -0.4569
  782TIP3   OH223904   3.126   1.350   0.182  0.1687  0.4304  0.2708
  782TIP3    H123905   3.196   1.297   0.221  0.2372  1.5921  1.8440
  782TIP3    H223906   3.106   1.415   0.249 -1.4687  0.9890 -0.7171
  783TIP3   OH223907   6.068   0.662   1.472 -0.8573  0.0554 -0.0422
  783TIP3    H123908   6.007   0.590   1.456  1.2823 -1.5290 -1.6582
  783TIP3    H223909   6.132   0.625   1.533  0.5359  0.3544 -1.2650
  784TIP3   OH223910   5.483   2.205   1.260 -0.0013  0.3225 -0.2155
  784TIP3    H123911   5.464   2.111   1.258  1.8508 -0.1252  0.6615
  784TIP3    H223912   5.485   2.231   1.168  0.0405 -0.6368 -0.5001
  785TIP3   OH223913   2.077   1.741   7.510  0.4728 -0.0022 -0.6809
  785TIP3    H123914   2.018   1.757   7.584  1.1251 -0.4191 -0.0509
  785TIP3    H223915   2.141   1.812   7.514  0.8174 -0.3163 -0.5181
  786TIP3   OH223916   4.975   4.601   7.017 -0.4443  0.6008  0.5185
  786TIP3    H123917   4.987   4.506   7.012  1.3994  0.7409  1.3203
  786TIP3    H223918   5.053   4.637   6.975 -0.2367  1.7375  1.7871
  787TIP3   OH223919   1.190   2.990   2.252  0.3907 -0.1531  0.4092
  787TIP3    H123920   1.166   2.965   2.342 -1.7772  2.8696  0.8406
  787TIP3    H223921   1.243   3.069   2.263 -1.0703  1.0820 -0.9042
  788TIP3   OH223922   1.251   0.973   1.826  0.5161  0.3852 -0.2659
  788TIP3    H123923   1.249   1.067   1.844 -0.2499  0.5203 -1.0136
  788TIP3    H223924   1.344   0.952   1.823  0.7655  1.5163 -2.0378
  789TIP3   OH223925   5.199   1.734   6.956  0.1099 -0.8715  0.5812
  789TIP3    H123926   5.266   1.703   6.895  1.5118  0.5820  1.3077
  789TIP3    H223927   5.141   1.659   6.968  0.3962 -1.5247 -1.6840
  790TIP3   OH223928   5.828   3.910   0.011  0.0120  0.0487  0.4138
  790TIP3    H123929   5.783   3.994   0.021 -1.6197 -0.5935 -0.9853
  790TIP3    H223930   5.897   3.927  -0.052 -0.1646  0.3890  0.3083
  791TIP3   OH223931   3.434   5.238   0.083  0.1290  0.3092 -0.0230
  791TIP3    H123932   3.381   5.316   0.062  0.4723  0.8866  1.1792
  791TIP3    H223933   3.522   5.272   0.097  0.5654 -0.4824 -0.7052
  792TIP3   OH223934   1.947   4.076   8.000 -0.1070 -0.2341 -0.0123
  792TIP3    H123935   1.853   4.067   7.984 -0.5956  0.6427  1.9964
  792TIP3    H223936   1.986   4.001   7.955 -1.8068 -0.8452 -0.5528
  793TIP3   OH223937   6.591   0.199   1.623 -0.3088  0.0071  0.3841
  793TIP3    H123938   6.629   0.193   1.711 -0.2831  1.0603  0.4582
  793TIP3    H223939   6.496   0.204   1.638 -0.2120  2.6257  0.5381
  794TIP3   OH223940   6.119   4.625   0.593  0.0648  0.1458 -0.6446
  794TIP3    H123941   6.076   4.649   0.511 -0.1746 -0.0352 -0.5715
  794TIP3    H223942   6.049   4.591   0.649 -0.0034  1.5246  0.1426
  795TIP3   OH223943   3.928   3.080   0.455 -0.4256 -0.0495  0.2991
  795TIP3    H123944   3.996   3.123   0.508  0.2059 -0.4082 -0.2126
  795TIP3    H223945   3.969   3.068   0.369 -1.7198  1.2871 -0.5421
  796TIP3   OH223946   4.119   6.889   0.464 -0.1353  0.4911  0.0581
  796TIP3    H123947   4.058   6.954   0.500 -1.3660 -0.5727 -0.0551
  796TIP3    H223948   4.066   6.810   0.452  1.3996 -0.6439  0.4746
  797TIP3   OH223949   3.083   0.549   7.056 -0.2980  0.0401  0.1649
  797TIP3    H123950   3.053   0.618   6.996 -1.4413 -0.0335  0.6209
  797TIP3    H223951   3.175   0.570   7.073 -0.3867  0.9405 -0.3967
  798TIP3   OH223952   3.928   0.005   0.865 -0.4268  0.3304  0.6153
  798TIP3    H123953   3.846   0.020   0.817  0.6159  1.2671 -0.9562
  798TIP3    H223954   3.908   0.032   0.954 -1.9296  0.2223  0.3480
  799TIP3   OH223955   1.503   0.027   2.179  0.4689 -0.3337  0.2821
  799TIP3    H123956   1.414   0.059   2.191 -0.0259 -0.2830 -2.7723
  799TIP3    H223957   1.557   0.106   2.185 -0.2021  0.3754 -1.9294
  800TIP3   OH223958   2.631   0.796   1.567  0.0640  0.2300  0.4984
  800TIP3    H123959   2.553   0.850   1.576 -0.7400 -0.7151 -0.5600
  800TIP3    H223960   2.664   0.815   1.479 -0.1279 -0.8483  0.1779
  801TIP3   OH223961   1.825   0.406   0.378 -0.3574 -0.2601  0.5287
  801TIP3    H123962   1.729   0.408   0.385 -0.3075 -1.0600  1.7384
  801TIP3    H223963   1.855   0.389   0.467  0.9937  1.7145  0.5166
  802TIP3   OH223964   4.522   6.548   8.397 -0.4238 -0.4687  0.1247
  802TIP3    H123965   4.507   6.527   8.489 -0.3683 -0.7715  0.0678
  802TIP3    H223966   4.572   6.473   8.363  1.6980  0.7072  0.4322
  803TIP3   OH223967   1.050   6.805   0.180 -0.0192 -0.3024 -0.1657
  803TIP3    H123968   1.056   6.767   0.267 -0.3896 -1.1886 -0.5131
  803TIP3    H223969   0.995   6.883   0.190  0.8991  0.2723  0.5888
  804TIP3   OH223970   1.250   4.763   8.041 -0.3395  0.1840 -0.3957
  804TIP3    H123971   1.248   4.780   8.135  1.7330  0.6255 -0.3977
  804TIP3    H223972   1.294   4.678   8.033  1.8075  1.2936 -1.0435
  805TIP3   OH223973   3.057   3.241   7.290  0.0839 -0.7450 -0.1309
  805TIP3    H123974   3.085   3.154   7.317  1.0496 -0.0200  1.3407
  805TIP3    H223975   3.074   3.244   7.196  0.4278 -1.9824 -0.1284
  806TIP3   OH223976   3.888   5.646   0.964 -0.5513 -0.4229 -0.8041
  806TIP3    H123977   3.845   5.563   0.946  0.0986 -0.9234 -0.1078
  806TIP3    H223978   3.830   5.712   0.925 -0.8288 -1.2235 -1.7734
  807TIP3   OH223979   6.416   2.937   7.169  0.4119  0.4773 -0.3202
  807TIP3    H123980   6.482   2.970   7.230 -1.5626  1.2875  1.4935
  807TIP3    H223981   6.386   2.855   7.208 -0.2517  0.5568 -0.6498
  808TIP3   OH223982   3.842   2.058   6.849 -0.1959  0.5607  0.0749
  808TIP3    H123983   3.809   2.025   6.933  2.0534 -0.5234  0.6050
  808TIP3    H223984   3.911   2.119   6.872  1.0708 -0.4195 -0.9401
  809TIP3   OH223985   5.770   1.488   7.568  0.5668  0.0727 -0.7228
  809TIP3    H123986   5.844   1.436   7.597  0.1465 -0.8036 -1.2007
  809TIP3    H223987   5.799   1.579   7.580  1.6385 -0.2534 -0.7361
  810TIP3   OH223988   2.991   5.685   7.059 -0.0657 -0.2618 -0.3106
  810TIP3    H123989   3.012   5.611   7.116  2.5450  2.1203  2.1865
  810TIP3    H223990   2.897   5.699   7.069 -0.0614 -1.3856  1.5649
  811TIP3   OH223991   6.325   2.349   0.270 -0.2608  0.1752  0.0618
  811TIP3    H123992   6.247   2.382   0.224 -1.2725 -0.1339  1.4637
  811TIP3    H223993   6.353   2.273   0.218 -0.6619  0.5203 -0.6775
  812TIP3   OH223994   1.543   6.005   7.821  0.1258 -0.4842  0.5244
  812TIP3    H123995   1.503   5.934   7.772 -2.0166  0.4309  0.8422
  812TIP3    H223996   1.582   6.062   7.755 -1.6622  0.0976 -0.0788
  813TIP3   OH223997   6.545   4.778   0.683 -0.5289 -0.0676  0.0805
  813TIP3    H123998   6.618   4.837   0.666 -1.2047  0.6036 -0.5455
  813TIP3    H223999   6.586   4.692   0.694  0.2999  0.1953 -0.8389
  814TIP3   OH224000   0.877   3.856   2.564 -0.1075  0.5552  0.9723
  814TIP3    H124001   0.935   3.847   2.640 -0.3392  0.2252  1.1145
  814TIP3    H224002   0.816   3.925   2.589  0.8710  1.6506  0.4006
  815TIP3   OH224003   0.566   5.936   8.173  0.3644 -0.1860  0.0669
  815TIP3    H124004   0.609   5.984   8.102 -1.3893  1.6493  0.1391
  815TIP3    H224005   0.628   5.940   8.246  0.1188  2.5566  0.2451
  816TIP3   OH224006   5.053   0.405   7.076  0.1849  0.6216 -0.0898
  816TIP3    H124007   4.987   0.368   7.017 -0.6556 -0.0573  1.2301
  816TIP3    H224008   5.134   0.403   7.025 -0.2152 -1.2825 -0.7442
  817TIP3   OH224009   6.029   4.754   2.735  0.0793 -0.0025  0.2850
  817TIP3    H124010   6.090   4.828   2.733 -1.1494  1.0417  0.1311
  817TIP3    H224011   6.053   4.701   2.659 -0.6113  1.5872 -1.1021
  818TIP3   OH224012   5.021   5.330   8.337 -0.0318  0.3172 -0.1815
  818TIP3    H124013   5.067   5.252   8.307  0.0571  0.5081 -0.5520
  818TIP3    H224014   5.091   5.391   8.361 -0.0992  0.3443 -0.0531
  819TIP3   OH224015   1.712   1.603   0.894 -0.1541  0.1573  0.2375
  819TIP3    H124016   1.788   1.546   0.907  0.3441  0.6099 -0.5805
  819TIP3    H224017   1.749   1.691   0.891 -0.7694  0.4220  0.2594
  820TIP3   OH224018   0.987   2.745   2.429  0.0080  0.2129  0.1017
  820TIP3    H124019   0.931   2.673   2.460  1.1884 -1.5227 -1.5632
  820TIP3    H224020   0.965   2.755   2.337  2.5091 -0.7129 -0.6969
  821TIP3   OH224021   4.533   5.323   6.642 -0.0442  0.0469  0.2934
  821TIP3    H124022   4.456   5.293   6.594  0.2071  2.5488 -1.8836
  821TIP3    H224023   4.606   5.312   6.581  0.9631 -0.1066  1.4832
  822TIP3   OH224024   5.204   3.292   1.404 -0.3352 -0.0542  0.0752
  822TIP3    H124025   5.218   3.198   1.392  0.2006 -0.1658  1.3795
  822TIP3    H224026   5.248   3.312   1.487 -0.1201  1.4235 -0.3691
  823TIP3   OH224027   4.103   6.751   7.552  0.2345 -0.1434 -0.2178
  823TIP3    H124028   4.083   6.816   7.619  2.1413  0.7702 -0.4580
  823TIP3    H224029   4.027   6.693   7.550 -2.0338  2.6443 -0.7049
  824TIP3   OH224030   3.459   1.913   7.253 -0.7431 -0.6866  0.0719
  824TIP3    H124031   3.489   1.954   7.172  0.9429 -0.0845  0.9626
  824TIP3    H224032   3.432   1.986   7.308 -1.6380 -1.0771  0.1626
  825TIP3   OH224033   3.602   3.988   0.898 -0.0909 -0.4707  0.2575
  825TIP3    H124034   3.561   4.045   0.833 -0.2870  0.7650  1.4200
  825TIP3    H224035   3.670   3.941   0.850 -0.2611  0.3723 -0.8336
  826TIP3   OH224036   1.809   4.311   0.065 -0.3067 -0.4181  0.0067
  826TIP3    H124037   1.876   4.378   0.051 -1.2957  0.2982 -1.5969
  826TIP3    H224038   1.816   4.288   0.158 -0.0682  2.0484  0.6660
  827TIP3   OH224039   3.479   0.481   6.184  0.3277  0.8303 -0.6708
  827TIP3    H124040   3.424   0.525   6.120 -0.1051 -1.1020 -1.6978
  827TIP3    H224041   3.557   0.536   6.191 -1.1141  2.9231 -0.1554
  828TIP3   OH224042   0.952   0.350   0.583 -0.5393  0.1852 -0.0721
  828TIP3    H124043   1.040   0.387   0.594 -0.4944  0.1121 -0.1900
  828TIP3    H224044   0.894   0.424   0.600 -0.4271  0.6836 -1.7033
  829TIP3   OH224045   0.870   0.034   2.029  0.3279  0.1491 -0.2365
  829TIP3    H124046   0.886   0.037   1.934  0.3086 -2.2687 -0.3912
  829TIP3    H224047   0.945  -0.014   2.064 -0.6565 -0.7908  0.6688
  830TIP3   OH224048   2.710   6.591   7.363  0.2498  0.8433  0.3743
  830TIP3    H124049   2.719   6.496   7.365 -1.7539  0.6345  1.0635
  830TIP3    H224050   2.775   6.620   7.299 -0.5271 -1.1520 -1.4067
  831TIP3   OH224051   4.160   5.696   0.823 -0.6798 -0.2269  0.3030
  831TIP3    H124052   4.184   5.779   0.781  0.0632 -0.4512  0.2666
  831TIP3    H224053   4.067   5.704   0.841 -0.5991  0.6551  0.3700
  832TIP3   OH224054   4.795   0.745   7.992 -0.4675  0.0645  0.5409
  832TIP3    H124055   4.778   0.706   8.078 -0.2857  0.0655  0.5768
  832TIP3    H224056   4.802   0.671   7.933  2.1442 -0.1271  0.9786
  833TIP3   OH224057   6.692   1.658   0.761  0.3060 -0.0995  0.6602
  833TIP3    H124058   6.787   1.651   0.763  0.3505 -0.2127 -0.9210
  833TIP3    H224059   6.675   1.746   0.728 -0.1228 -0.3369  0.2371
  834TIP3   OH224060   4.700   4.896   8.257 -0.4582 -0.3872 -0.4773
  834TIP3    H124061   4.736   4.814   8.290  3.2809  1.5456  0.7759
  834TIP3    H224062   4.736   4.904   8.169 -0.3249  0.1627 -0.3762
  835TIP3   OH224063   1.054   6.286   1.430 -0.2289 -0.4205  0.2942
  835TIP3    H124064   1.143   6.270   1.461  0.2156 -1.6523 -1.4367
  835TIP3    H224065   1.040   6.379   1.444  0.2321 -0.6968  3.2193
  836TIP3   OH224066   6.464   2.969   0.430  0.0484 -0.0631  0.2328
  836TIP3    H124067   6.494   2.938   0.515 -0.7084  0.3485  0.6612
  836TIP3    H224068   6.423   2.892   0.390  2.3484 -0.8606 -0.7145
  837TIP3   OH224069   3.232   5.569   6.598  0.0597 -0.3122  0.2097
  837TIP3    H124070   3.309   5.559   6.653  1.6060  1.2587 -1.5456
  837TIP3    H224071   3.253   5.641   6.539 -1.9186 -1.2156 -1.7721
  838TIP3   OH224072   2.956   4.687   7.122  0.0343  0.2628 -0.0798
  838TIP3    H124073   2.892   4.678   7.051  1.0814 -1.8863 -0.8337
  838TIP3    H224074   2.921   4.759   7.176 -1.9894  0.4398 -1.4844
  839TIP3   OH224075   0.431   4.133   2.421  0.2339 -0.2777 -0.5126
  839TIP3    H124076   0.481   4.054   2.398  0.0680 -0.7011  0.5636
  839TIP3    H224077   0.345   4.101   2.446  1.2939 -0.2481  3.8728
  840TIP3   OH224078   1.929   3.677   7.859  0.2860 -0.2337  0.3799
  840TIP3    H124079   1.956   3.604   7.915  0.5797 -0.2718  0.1921
  840TIP3    H224080   1.982   3.751   7.888 -1.6833  0.5675  2.1982
  841TIP3   OH224081   6.181   3.994   7.309  0.3731  0.0468  0.1183
  841TIP3    H124082   6.255   4.035   7.264 -1.8331  1.2102 -2.7921
  841TIP3    H224083   6.207   3.903   7.321  1.6891  0.0242 -2.3208
  842TIP3   OH224084   5.791   1.061   7.238 -0.1018 -0.1154  0.5881
  842TIP3    H124085   5.719   1.114   7.204  0.2308 -0.3121 -0.4489
  842TIP3    H224086   5.797   1.086   7.330  0.3657  2.0050  0.0287
  843TIP3   OH224087   6.016   5.910   7.943  0.4586 -0.3547  0.0267
  843TIP3    H124088   5.960   5.871   8.010  1.6955 -0.5023  1.0112
  843TIP3    H224089   6.043   5.836   7.889 -0.0278 -0.3296 -0.2554
  844TIP3   OH224090   0.917   6.073   7.302  0.3463 -0.0051 -0.1673
  844TIP3    H124091   0.902   6.027   7.384 -0.4844 -1.3049 -1.0147
  844TIP3    H224092   0.904   6.166   7.323 -2.5395 -0.5097  0.6315
  845TIP3   OH224093   0.300   2.735   0.667 -0.2589  1.0347 -0.2942
  845TIP3    H124094   0.209   2.727   0.639 -0.1520  1.2670 -0.7025
  845TIP3    H224095   0.298   2.716   0.761 -0.4791 -0.6875 -0.6210
  846TIP3   OH224096   4.081   2.095   6.171 -0.2660  0.1999 -0.5309
  846TIP3    H124097   4.010   2.062   6.116  0.6553 -2.5305 -0.1927
  846TIP3    H224098   4.142   2.022   6.179  1.0524  1.4420  1.7874
  847TIP3   OH224099   3.436   5.195   6.822  0.2812  0.0312  0.4013
  847TIP3    H124100   3.490   5.122   6.792 -1.5086 -1.1785 -0.0804
  847TIP3    H224101   3.414   5.243   6.742  0.2874  0.2485  0.5310
  848TIP3   OH224102   4.732   4.222   5.947  0.0515 -0.1004  0.0143
  848TIP3    H124103   4.767   4.176   5.871  1.3044  1.1557 -0.2034
  848TIP3    H224104   4.638   4.204   5.944  0.0465  0.0197 -1.9120
  849TIP3   OH224105   1.159   6.822   8.467 -0.3673 -0.1423  0.0059
  849TIP3    H124106   1.120   6.788   8.548 -1.5322 -0.7497 -0.7733
  849TIP3    H224107   1.210   6.749   8.433  0.4972  0.2613  0.4046
  850TIP3   OH224108   0.860   3.445   7.277  0.4558 -0.1595 -0.1055
  850TIP3    H124109   0.873   3.354   7.248 -0.8614 -0.6268  0.6956
  850TIP3    H224110   0.868   3.497   7.197  1.4324 -0.9529 -0.5408
  851TIP3   OH224111   4.855   4.979   7.338  0.3473  0.2393 -0.1046
  851TIP3    H124112   4.835   4.910   7.275  2.7729  0.6491 -1.4486
  851TIP3    H224113   4.907   5.043   7.288 -0.3850  2.2075  1.5132
  852TIP3   OH224114   4.173   6.548   6.747 -0.1658 -0.4187  0.9298
  852TIP3    H124115   4.247   6.539   6.686  1.4400  2.8301  2.1858
  852TIP3    H224116   4.116   6.612   6.706  0.4582  1.0904  2.3067
  853TIP3   OH224117   6.319   2.386   7.732  0.3458 -0.3021  0.1726
  853TIP3    H124118   6.251   2.321   7.711  1.2533 -0.7487 -1.5563
  853TIP3    H224119   6.341   2.425   7.648  1.5798  0.5004  0.8479
  854TIP3   OH224120   0.312   1.294   0.481 -0.3772 -0.5676  0.6027
  854TIP3    H124121   0.322   1.281   0.387 -0.0994  0.6378  0.4461
  854TIP3    H224122   0.289   1.208   0.515  0.9974 -1.3509 -0.3558
  855TIP3   OH224123   3.016   1.025   6.383 -0.1378  0.4406 -0.2404
  855TIP3    H124124   3.023   1.053   6.291  0.8371 -0.7302 -0.5495
  855TIP3    H224125   3.106   1.010   6.411 -0.5394 -2.2462 -0.1045
  856TIP3   OH224126   1.986   3.730   2.191 -0.4543  0.1802 -0.9222
  856TIP3    H124127   2.024   3.651   2.153 -2.9440 -1.3273 -0.4156
  856TIP3    H224128   1.892   3.722   2.176 -0.8881  2.5355  0.1058
  857TIP3   OH224129   2.228   1.722   0.090 -0.2237 -0.2818  0.3002
  857TIP3    H124130   2.145   1.711   0.137 -0.3231 -0.9615 -0.0165
  857TIP3    H224131   2.207   1.783   0.019 -0.2951  0.0389  0.5939
  858TIP3   OH224132   0.034   4.585   7.538 -0.3051 -0.3694  0.4730
  858TIP3    H124133   0.102   4.519   7.525  1.7006  1.8190 -0.9378
  858TIP3    H224134   0.017   4.583   7.632  1.4434 -1.2755  0.8174
  859TIP3   OH224135   4.630   2.888   0.966  0.1949 -1.0843  0.2666
  859TIP3    H124136   4.690   2.813   0.967  0.7948 -0.6044  0.8990
  859TIP3    H224137   4.677   2.957   1.011 -0.4669 -0.3996 -0.0696
  860TIP3   OH224138   6.405   5.928   2.191  0.5022 -0.1769 -0.2049
  860TIP3    H124139   6.368   5.839   2.189 -0.5558  0.1813  1.6085
  860TIP3    H224140   6.480   5.922   2.249  0.1026  0.2271  0.3580
  861TIP3   OH224141   5.731   1.585   1.188  0.8346  0.7493 -0.5319
  861TIP3    H124142   5.793   1.557   1.121  0.0051  0.5721 -1.2492
  861TIP3    H224143   5.651   1.536   1.168  1.1395 -0.8667  1.7843
  862TIP3   OH224144   0.121   2.227   0.711 -0.4363  0.2202 -0.6581
  862TIP3    H124145   0.112   2.263   0.623 -2.7270  0.0138 -0.5630
  862TIP3    H224146   0.083   2.294   0.768 -4.7035 -2.0263 -0.4635
  863TIP3   OH224147   3.871   4.376   5.999 -0.0226  0.1623  0.6713
  863TIP3    H124148   3.829   4.290   5.990  1.1414 -0.2610 -1.6216
  863TIP3    H224149   3.960   4.356   6.026 -0.0067  0.7234  1.0325
  864TIP3   OH224150   2.577   2.575   8.300 -0.1820 -0.0880  0.1041
  864TIP3    H124151   2.608   2.491   8.336 -2.3268 -1.8560 -1.8641
  864TIP3    H224152   2.625   2.585   8.218  0.9149  1.2920  0.8637
  865TIP3   OH224153   6.320   3.307   2.055  0.7614 -0.4172  0.0364
  865TIP3    H124154   6.413   3.300   2.034  0.2314 -0.8062 -2.4234
  865TIP3    H224155   6.280   3.233   2.010 -0.9932  0.8870 -0.6328
  866TIP3   OH224156   0.081   5.268   0.945  0.8210 -0.1094 -0.1922
  866TIP3    H124157   0.159   5.323   0.945 -0.0443  1.1670  0.3999
  866TIP3    H224158   0.009   5.329   0.929 -0.1693 -1.0821  0.4068
  867TIP3   OH224159   5.773   1.236   7.903 -0.0864 -0.4917 -0.0984
  867TIP3    H124160   5.833   1.181   7.952 -0.5181 -0.6437  0.2582
  867TIP3    H224161   5.803   1.229   7.812  1.1768  0.3747  0.2115
  868TIP3   OH224162   0.648   1.597   6.340  0.0086 -0.0419  0.4661
  868TIP3    H124163   0.726   1.644   6.312 -0.4469 -0.0751 -0.9585
  868TIP3    H224164   0.680   1.510   6.364  0.4058 -0.0803 -0.1737
  869TIP3   OH224165   3.603   3.165   7.623  0.5275  0.0062 -0.1159
  869TIP3    H124166   3.692   3.132   7.612 -0.2589 -3.2001  1.7318
  869TIP3    H224167   3.608   3.231   7.692  1.3111 -1.2614  1.0751
  870TIP3   OH224168   3.923   6.219   6.585  0.2898  0.3179  0.4357
  870TIP3    H124169   3.991   6.241   6.650 -1.2962  1.8206  1.6735
  870TIP3    H224170   3.956   6.140   6.543  1.7703 -0.2807  2.5302
  871TIP3   OH224171   2.387   3.252   0.469 -0.0124  0.1869  0.6192
  871TIP3    H124172   2.384   3.304   0.550  0.3440  2.5224 -0.7876
  871TIP3    H224173   2.480   3.239   0.452 -0.0925 -1.1720  1.0483
  872TIP3   OH224174   0.244   0.169   0.659 -0.0470  0.2182  0.0091
  872TIP3    H124175   0.313   0.217   0.703  0.1692 -0.2496  0.1830
  872TIP3    H224176   0.222   0.097   0.718 -1.6799  1.1642  0.6279
  873TIP3   OH224177   6.528   6.325   7.261  0.0436 -0.0558 -0.1190
  873TIP3    H124178   6.432   6.318   7.257  0.1091 -0.5661 -0.8696
  873TIP3    H224179   6.550   6.290   7.347 -0.2308 -2.6845 -1.0237
  874TIP3   OH224180   6.502   2.335   8.144 -0.1594 -0.2298 -0.0416
  874TIP3    H124181   6.466   2.247   8.138 -1.2425  0.2667 -1.5011
  874TIP3    H224182   6.428   2.393   8.124  0.3197  1.0708  1.7190
  875TIP3   OH224183   1.875   3.130   8.029 -0.1885 -0.0930 -0.1013
  875TIP3    H124184   1.915   3.202   8.078 -1.7012  0.9881 -0.3767
  875TIP3    H224185   1.890   3.153   7.937  0.0434 -0.5722 -0.1876
  876TIP3   OH224186   2.471   6.418   0.288 -0.0868  0.2419  0.7867
  876TIP3    H124187   2.554   6.464   0.301  1.4924 -1.6842 -1.4829
  876TIP3    H224188   2.433   6.458   0.209  0.1384 -0.7203  0.1677
  877TIP3   OH224189   2.530   5.529   8.158 -0.3113  0.3578 -0.4665
  877TIP3    H124190   2.598   5.596   8.147 -0.0996  0.2777  0.2676
  877TIP3    H224191   2.505   5.505   8.069  1.9708 -0.9882 -0.8390
  878TIP3   OH224192   0.145   6.119   7.228  0.0002  0.4769 -0.5123
  878TIP3    H124193   0.069   6.079   7.186  0.4117 -0.4395 -0.4062
  878TIP3    H224194   0.219   6.093   7.174  0.1556  2.2100 -1.2066
  879TIP3   OH224195   3.690   0.153   0.872 -0.3561 -0.2681 -0.2392
  879TIP3    H124196   3.727   0.240   0.885 -1.8883  0.2593  0.9555
  879TIP3    H224197   3.668   0.123   0.960 -0.0641 -1.7782 -0.6523
  880TIP3   OH224198   2.822   2.245   7.254 -0.3962 -0.0733 -0.1883
  880TIP3    H124199   2.809   2.252   7.160 -1.4720  0.8670  0.0123
  880TIP3    H224200   2.788   2.158   7.277 -0.1708 -0.2867 -0.6522
  881TIP3   OH224201   5.549   2.947   8.359 -0.2024  0.3079  0.2230
  881TIP3    H124202   5.500   2.962   8.279  1.2049 -0.5991 -0.8613
  881TIP3    H224203   5.582   2.858   8.350  0.6430  0.4723  1.4570
  882TIP3   OH224204   0.937   5.494   1.075 -0.0850  0.1002 -0.3286
  882TIP3    H124205   0.906   5.417   1.028  1.2137 -0.6528  0.0252
  882TIP3    H224206   0.919   5.475   1.167  0.1686  0.2548 -0.2470
  883TIP3   OH224207   6.528   0.258   7.311  0.3013 -0.4243  0.3491
  883TIP3    H124208   6.454   0.249   7.252 -0.4350 -3.0355  1.5117
  883TIP3    H224209   6.588   0.318   7.266 -1.6220  0.2169 -1.5128
  884TIP3   OH224210   6.557   0.505   1.044  0.1764 -0.1165  0.3874
  884TIP3    H124211   6.644   0.472   1.022  0.8317  2.5025 -1.3623
  884TIP3    H224212   6.572   0.571   1.112 -0.1507  1.5613 -1.0899
  885TIP3   OH224213   3.521   1.425   0.578  0.3892 -0.9812 -0.0447
  885TIP3    H124214   3.454   1.357   0.584 -0.7159  0.0861 -0.0343
  885TIP3    H224215   3.564   1.425   0.663 -0.6506 -0.6116  0.4864
  886TIP3   OH224216   4.671   0.753   6.935  0.0316  0.6251 -0.0155
  886TIP3    H124217   4.654   0.723   7.025 -1.1773  0.6848 -0.2053
  886TIP3    H224218   4.659   0.848   6.940 -1.5941  0.4800 -0.5352
  887TIP3   OH224219   0.468   5.003   2.676  0.0625 -0.4364  0.0030
  887TIP3    H124220   0.415   4.928   2.652  0.0183 -0.1747 -0.7354
  887TIP3    H224221   0.408   5.077   2.673  0.0678 -0.3851  0.8794
  888TIP3   OH224222   6.805   6.343   6.968  0.0250 -0.4679  0.0860
  888TIP3    H124223   6.807   6.364   7.062  0.9254 -0.4032  0.0566
  888TIP3    H224224   6.765   6.256   6.965 -0.7083 -0.1521  0.4650
  889TIP3   OH224225   5.351   4.943   6.252 -0.0909  0.1940  0.0269
  889TIP3    H124226   5.314   4.865   6.292 -0.6538 -0.0365 -0.9085
  889TIP3    H224227   5.413   4.910   6.187 -2.1393  0.3808 -2.1695
  890TIP3   OH224228   2.057   2.221   1.023  0.1555  0.3144 -0.2599
  890TIP3    H124229   2.037   2.263   1.107 -1.5268 -1.8238  0.5166
  890TIP3    H224230   1.991   2.256   0.963  0.9672  1.3719 -0.5654
  891TIP3   OH224231   6.736   6.232   0.219  0.4843 -0.1525  0.0284
  891TIP3    H124232   6.712   6.322   0.241  1.0181 -0.1637  0.6949
  891TIP3    H224233   6.826   6.239   0.185 -0.5383 -0.0238 -2.9865
  892TIP3   OH224234   2.501   3.023   1.606 -0.4330  0.1248 -0.6877
  892TIP3    H124235   2.479   2.994   1.694  0.3495 -0.2927 -0.6161
  892TIP3    H224236   2.435   2.983   1.549  0.7094 -1.9952 -0.6186
  893TIP3   OH224237   5.467   5.229   7.863 -0.1132  0.3245  0.1695
  893TIP3    H124238   5.424   5.171   7.800  0.2046  0.0271  0.2225
  893TIP3    H224239   5.479   5.176   7.942  2.5364 -0.4291 -0.6172
  894TIP3   OH224240   0.405   4.557   1.881 -0.2076  0.1854 -0.0788
  894TIP3    H124241   0.316   4.567   1.847 -1.5059  1.7858  3.3377
  894TIP3    H224242   0.403   4.477   1.933  0.2033  0.4699  0.3881
  895TIP3   OH224243   3.110   0.085   0.238  0.0138  0.0650 -0.0488
  895TIP3    H124244   3.036   0.092   0.177  0.1906  0.8657 -0.1764
  895TIP3    H224245   3.082   0.135   0.314 -0.6152 -1.7426  0.9636
  896TIP3   OH224246   2.685   0.957   1.340 -0.5088 -0.0445 -0.4871
  896TIP3    H124247   2.677   0.965   1.245 -0.7472  1.3909 -0.3644
  896TIP3    H224248   2.649   1.038   1.375  2.4582  0.9235  0.7016
  897TIP3   OH224249   1.713   0.678   1.399  0.2804 -0.5819 -0.5707
  897TIP3    H124250   1.682   0.751   1.346  0.1299 -1.0308 -1.1111
  897TIP3    H224251   1.726   0.606   1.337  0.9395 -0.8608 -0.1302
  898TIP3   OH224252   4.862   6.044   1.269  0.5718 -0.1248 -0.3326
  898TIP3    H124253   4.933   5.992   1.307  0.5509 -2.8686 -3.5393
  898TIP3    H224254   4.787   5.985   1.267 -0.9906  1.7425  0.2867
  899TIP3   OH224255   6.555   1.664   6.730  0.6100  0.5206 -0.0558
  899TIP3    H124256   6.576   1.621   6.647 -2.5558 -1.3149 -0.0551
  899TIP3    H224257   6.610   1.620   6.794 -0.3874 -1.5414 -0.5280
  900TIP3   OH224258   1.411   3.880   8.475  0.1627 -0.0253 -0.1828
  900TIP3    H124259   1.506   3.864   8.471  0.0144 -2.2225  2.1972
  900TIP3    H224260   1.378   3.852   8.390  1.6585  1.4894 -1.3501
  901TIP3   OH224261   3.121   6.196   8.528  0.0492  0.2260  0.3734
  901TIP3    H124262   3.164   6.113   8.508  0.5824  0.0015  2.3077
  901TIP3    H224263   3.029   6.182   8.506  0.3243 -0.4915 -0.3546
  902TIP3   OH224264   4.071   2.063   7.641 -0.4820 -0.0619 -0.7041
  902TIP3    H124265   4.154   2.016   7.655 -0.1238  0.9174  0.6113
  902TIP3    H224266   4.030   2.066   7.727 -1.2866  0.5804 -1.0966
  903TIP3   OH224267   0.886   0.388   1.520  0.7601  0.4080 -0.0157
  903TIP3    H124268   0.932   0.343   1.591 -1.0035  1.0087  1.6269
  903TIP3    H224269   0.911   0.480   1.529 -1.6107  0.9897  1.7864
  904TIP3   OH224270   1.741   6.175   2.377 -0.2894  0.3773 -0.5090
  904TIP3    H124271   1.671   6.144   2.435  0.7686  0.3035  0.7882
  904TIP3    H224272   1.821   6.160   2.427  0.7983 -0.8424 -2.4894
  905TIP3   OH224273   2.074   4.267   1.987 -0.3076 -0.0572  0.0693
  905TIP3    H124274   1.990   4.252   1.944 -0.3709 -1.0448  0.5123
  905TIP3    H224275   2.098   4.357   1.963 -0.7996 -0.2486 -1.2151
  906TIP3   OH224276   0.995   5.487   7.400 -0.0842  0.1828 -0.4349
  906TIP3    H124277   1.019   5.394   7.395 -0.7610 -0.0555  0.5109
  906TIP3    H224278   1.073   5.533   7.369  0.2606 -0.7006 -0.9184
  907TIP3   OH224279   6.490   0.124   8.463  0.3790  0.3856 -0.9455
  907TIP3    H124280   6.525   0.202   8.419 -1.8376  0.8412 -2.0886
  907TIP3    H224281   6.491   0.147   8.556  0.2378  1.5998 -1.2246
  908TIP3   OH224282   2.575   0.540   0.896 -0.1632  0.5641  0.1602
  908TIP3    H124283   2.568   0.588   0.979  1.0433  1.6021 -0.2944
  908TIP3    H224284   2.521   0.589   0.835 -0.3331  0.3213  0.1147
  909TIP3   OH224285   0.001   2.669   6.490 -0.7424 -0.1951 -0.1668
  909TIP3    H124286  -0.094   2.659   6.496 -0.6422 -0.5487  1.1062
  909TIP3    H224287   0.015   2.762   6.473 -1.2697  0.5707  2.9372
  910TIP3   OH224288   1.372   6.389   0.005 -0.2469  0.0864 -0.0640
  910TIP3    H124289   1.279   6.369  -0.005 -0.1782  0.0553 -0.6408
  910TIP3    H224290   1.415   6.304   0.007 -0.2213  0.1030  0.1248
  911TIP3   OH224291   1.061   3.965   0.906  0.0391 -0.1015  0.1987
  911TIP3    H124292   1.063   4.050   0.862  0.4202  0.8251  1.9408
  911TIP3    H224293   0.981   3.967   0.958  0.1615 -0.7309  0.4191
  912TIP3   OH224294   5.923   2.536   7.889 -0.4968 -0.3726 -0.0428
  912TIP3    H124295   5.927   2.621   7.847  2.1770  0.2891  1.3244
  912TIP3    H224296   5.930   2.473   7.817 -3.5627  0.3860 -1.1829
  913TIP3   OH224297   4.557   6.698   2.004  0.6750  0.7277 -0.0738
  913TIP3    H124298   4.630   6.733   2.055 -0.5672  1.6512  1.1583
  913TIP3    H224299   4.587   6.699   1.913  1.9897  1.5741  0.3575
  914TIP3   OH224300   6.429   0.872   7.565  0.4024  0.2752 -0.3165
  914TIP3    H124301   6.516   0.912   7.565  0.7736 -0.4916  0.3824
  914TIP3    H224302   6.373   0.936   7.522  0.9954  1.4610  0.6266
  915TIP3   OH224303   1.709   4.988   1.525  0.1234  0.1536 -0.5293
  915TIP3    H124304   1.742   4.907   1.486  0.6381 -0.2066  0.6077
  915TIP3    H224305   1.628   4.963   1.570  0.9866 -0.0542  0.9825
  916TIP3   OH224306   5.310   3.555   2.058  0.1724  0.1876  0.6216
  916TIP3    H124307   5.255   3.510   1.993 -0.4802  0.7814  0.7473
  916TIP3    H224308   5.252   3.621   2.096  1.0663  1.0277  0.5455
  917TIP3   OH224309   0.966   5.383   8.379 -0.1742 -0.3683 -0.3492
  917TIP3    H124310   1.008   5.298   8.395 -0.5037 -0.4949 -0.1486
  917TIP3    H224311   1.020   5.424   8.312 -0.7932 -1.3292 -1.4779
  918TIP3   OH224312   1.729   1.689   7.598  0.1807  0.0952  0.0559
  918TIP3    H124313   1.731   1.617   7.661  1.1908 -0.2939 -0.3935
  918TIP3    H224314   1.801   1.746   7.624 -0.6629  1.0061  0.4530
  919TIP3   OH224315   6.630   6.521   2.304 -0.4902 -1.1739  0.5230
  919TIP3    H124316   6.598   6.462   2.372  0.4022  1.5377  3.5489
  919TIP3    H224317   6.725   6.525   2.318 -0.5467  1.1126  0.6426
  920TIP3   OH224318   4.724   4.212   8.172  0.1744 -0.0677  0.2064
  920TIP3    H124319   4.781   4.147   8.211  0.2237 -0.3655 -0.3517
  920TIP3    H224320   4.746   4.211   8.079 -1.0532 -0.5239 -0.0986
  921TIP3   OH224321   2.503   2.558   6.028  0.1427  0.2586 -0.2584
  921TIP3    H124322   2.469   2.629   5.973  0.4153  0.4413 -0.1944
  921TIP3    H224323   2.463   2.573   6.114  1.2325  1.1416  0.1316
  922TIP3   OH224324   1.194   6.845   6.841  0.5532 -0.4947 -0.0261
  922TIP3    H124325   1.200   6.775   6.906 -1.7276 -1.4108 -0.7044
  922TIP3    H224326   1.103   6.842   6.810  1.0931  1.0320 -2.0160
  923TIP3   OH224327   4.631   3.659   0.950  0.2103  0.2780  0.3225
  923TIP3    H124328   4.709   3.605   0.941 -0.3126 -0.6798  1.3746
  923TIP3    H224329   4.643   3.729   0.885  1.1297 -0.8014 -0.7188
  924TIP3   OH224330   6.069   4.208   6.815 -0.8246 -0.0488  0.0639
  924TIP3    H124331   6.146   4.179   6.767  0.7121  0.2329  2.2204
  924TIP3    H224332   6.050   4.295   6.779 -0.4984 -0.3563 -0.8745
  925TIP3   OH224333   0.632   0.078   1.577 -0.0658  0.1596  0.3046
  925TIP3    H124334   0.612   0.168   1.552 -0.2537  0.0024 -0.1107
  925TIP3    H224335   0.551   0.045   1.616 -0.2346 -0.0731 -0.2372
  926TIP3   OH224336   5.877   1.910   0.452  0.1127 -0.1553 -1.1355
  926TIP3    H124337   5.939   1.847   0.416  0.1140 -0.3213 -0.8430
  926TIP3    H224338   5.823   1.859   0.513 -0.3878 -0.0368 -1.4782
  927TIP3   OH224339   3.265   4.249   0.879  0.2534 -0.2345 -0.3666
  927TIP3    H124340   3.172   4.262   0.861  0.3693  2.3054  0.4645
  927TIP3    H224341   3.269   4.173   0.937 -1.3720  0.0003  0.0909
  928TIP3   OH224342   4.309   0.794   8.498  0.7493  0.0002 -0.1076
  928TIP3    H124343   4.382   0.833   8.450  1.0294  1.0193  1.0884
  928TIP3    H224344   4.317   0.831   8.586 -1.0705 -0.0510  0.1064
  929TIP3   OH224345   0.310   3.015   0.966 -0.4448  0.1608 -0.0976
  929TIP3    H124346   0.270   3.069   1.034  3.6412  1.9739  1.1741
  929TIP3    H224347   0.250   3.023   0.892 -2.1276  3.0526  1.3709
  930TIP3   OH224348   2.149   4.373   1.240 -0.3892 -0.1857 -0.2030
  930TIP3    H124349   2.218   4.439   1.251 -2.0905  1.5400  0.7027
  930TIP3    H224350   2.069   4.423   1.228 -1.3809 -2.1315 -2.5229
  931TIP3   OH224351   0.855   5.878   7.822 -0.0299 -0.6204  0.0988
  931TIP3    H124352   0.884   5.844   7.907  1.6586 -0.5710 -0.4356
  931TIP3    H224353   0.764   5.849   7.815 -0.2082 -0.6378  1.9135
  932TIP3   OH224354   2.149   1.158   1.082 -0.7085  0.3802  0.3173
  932TIP3    H124355   2.237   1.154   1.118 -1.4477  0.3815  2.2694
  932TIP3    H224356   2.161   1.174   0.988  1.3833 -2.1724  0.0640
  933TIP3   OH224357   4.309   2.128   7.070  0.9114 -0.1950  0.0951
  933TIP3    H124358   4.322   2.208   7.121 -2.0687 -0.5146  1.6075
  933TIP3    H224359   4.303   2.058   7.136  1.2662 -1.3237 -1.0335
  934TIP3   OH224360   5.682   4.037   7.356  0.2086  0.2756 -0.4376
  934TIP3    H124361   5.698   4.067   7.267 -0.2773  0.9318 -0.3135
  934TIP3    H224362   5.634   3.955   7.346 -0.8988  0.9507 -0.7860
  935TIP3   OH224363   0.659   4.995   7.146  0.8467  0.0270 -0.0278
  935TIP3    H124364   0.678   4.950   7.064 -1.0521 -0.3434 -0.3034
  935TIP3    H224365   0.615   5.075   7.120 -0.9848 -0.7138  0.6103
  936TIP3   OH224366   2.549   6.917   0.367 -0.7473 -0.2251  0.1935
  936TIP3    H124367   2.613   6.980   0.398  1.0042 -1.9076  0.1582
  936TIP3    H224368   2.511   6.879   0.447 -1.4021  0.4479  0.2132
  937TIP3   OH224369   1.297   4.367   1.863  0.3284  0.1250  1.4895
  937TIP3    H124370   1.208   4.371   1.897 -0.6372  0.0518 -0.8202
  937TIP3    H224371   1.292   4.411   1.778  2.1749 -1.0924  0.6894
  938TIP3   OH224372   0.253   4.237   7.523  0.6800 -0.1404  0.6805
  938TIP3    H124373   0.218   4.150   7.539  4.2432 -1.8367  0.0497
  938TIP3    H224374   0.223   4.260   7.435 -0.4588 -0.5806  0.9353
  939TIP3   OH224375   4.166   5.715   6.598 -0.8424 -0.4693 -0.5469
  939TIP3    H124376   4.181   5.802   6.635 -1.4100 -0.9117  0.7732
  939TIP3    H224377   4.084   5.724   6.549 -0.6550 -0.1534 -0.8109
  940TIP3   OH224378   6.039   4.574   8.505  0.1098  0.0980  0.0083
  940TIP3    H124379   5.957   4.589   8.457 -0.9526 -1.4234  1.2486
  940TIP3    H224380   6.090   4.518   8.447 -1.3667 -2.1392  0.7377
  941TIP3   OH224381   1.514   5.257   0.089 -0.3766 -0.2780 -0.4915
  941TIP3    H124382   1.455   5.215   0.152  1.7598 -0.1780  1.7066
  941TIP3    H224383   1.591   5.282   0.140  1.7912 -0.7409 -3.2607
  942TIP3   OH224384   2.250   3.473   8.200  0.3462 -0.7242  0.3822
  942TIP3    H124385   2.279   3.382   8.186 -0.5508 -1.1405  1.1015
  942TIP3    H224386   2.246   3.483   8.295 -0.9306 -0.4032  0.3211
  943TIP3   OH224387   0.840   1.804   6.722  0.3091 -0.1066  0.1138
  943TIP3    H124388   0.847   1.845   6.808  2.2782 -0.6171  0.2485
  943TIP3    H224389   0.788   1.866   6.670 -1.6357 -0.1676  1.8457
  944TIP3   OH224390   5.790   4.496   1.082 -0.7482  0.3735 -0.0537
  944TIP3    H124391   5.871   4.544   1.067 -0.2377 -0.1514  0.9620
  944TIP3    H224392   5.788   4.430   1.013  0.1504 -0.2010  0.4571
  945TIP3   OH224393   3.536   1.420   7.275  0.3377 -0.0237  0.4402
  945TIP3    H124394   3.549   1.509   7.309 -1.5294  1.2056 -1.7741
  945TIP3    H224395   3.473   1.380   7.335 -0.4628  0.9638  0.2928
  946TIP3   OH224396   0.305   5.329   8.363 -0.6235  0.7926 -0.2871
  946TIP3    H124397   0.255   5.306   8.442  0.5122  2.9217  1.1381
  946TIP3    H224398   0.361   5.253   8.347 -1.2518  0.1093  0.6305
  947TIP3   OH224399   3.807   6.317   8.077 -0.4568 -0.8300  0.2726
  947TIP3    H124400   3.745   6.246   8.061  0.5224 -1.7607  0.5048
  947TIP3    H224401   3.775   6.359   8.156 -0.1018 -2.1156  1.1291
  948TIP3   OH224402   4.387   5.004   7.090 -0.2393 -0.3424  0.2152
  948TIP3    H124403   4.439   5.012   7.010  0.4958 -0.2194  0.6987
  948TIP3    H224404   4.334   5.083   7.092 -0.7285 -0.6403 -0.4714
  949TIP3   OH224405   5.299   2.153   5.998 -0.0986 -0.1497 -0.0316
  949TIP3    H124406   5.278   2.076   6.051  0.8790 -0.4327 -0.0329
  949TIP3    H224407   5.297   2.120   5.908 -0.0316 -0.0914 -0.0541
  950TIP3   OH224408   5.152   2.201   0.282 -0.2665 -0.4872  0.1985
  950TIP3    H124409   5.235   2.234   0.247  0.1140 -1.0223  0.5785
  950TIP3    H224410   5.085   2.252   0.237  0.2606 -0.2109 -0.2853
  951TIP3   OH224411   5.581   3.634   0.525  0.1000 -0.0891  0.2045
  951TIP3    H124412   5.518   3.704   0.510 -0.1014 -0.1493  0.7662
  951TIP3    H224413   5.620   3.653   0.610 -0.4957 -1.0633  0.7112
  952TIP3   OH224414   2.917   5.393   8.072 -0.0569  0.4943 -0.1171
  952TIP3    H124415   2.840   5.362   8.024  0.1364  0.7042 -0.5652
  952TIP3    H224416   2.977   5.424   8.004  1.5776 -2.1529 -0.0262
  953TIP3   OH224417   1.014   3.000   2.036 -0.3089 -0.1757  0.0394
  953TIP3    H124418   1.073   3.004   2.112  1.3594 -0.0155 -1.2202
  953TIP3    H224419   1.009   2.906   2.016  0.8403 -0.0598 -0.8357
  954TIP3   OH224420   2.185   6.881   7.834  0.1231  0.2526  0.2792
  954TIP3    H124421   2.131   6.903   7.909 -0.4043 -2.2592  0.6945
  954TIP3    H224422   2.272   6.865   7.870  0.8295  2.6386 -0.1812
  955TIP3   OH224423   3.967   1.209   0.282  0.3788 -0.4581  0.2449
  955TIP3    H124424   3.885   1.234   0.240  0.1604 -0.8933  0.4103
  955TIP3    H224425   4.019   1.289   0.282  0.6998 -0.6310 -1.6035
  956TIP3   OH224426   6.313   2.658   7.243 -0.0317 -0.3349 -0.0825
  956TIP3    H124427   6.349   2.593   7.184  1.6426 -0.2625  0.8170
  956TIP3    H224428   6.237   2.694   7.196 -0.6349 -2.4604 -0.8441
  957TIP3   OH224429   4.698   0.840   0.134  0.4135 -0.3760 -0.4112
  957TIP3    H124430   4.671   0.795   0.214 -0.5126  0.6827 -0.1003
  957TIP3    H224431   4.790   0.865   0.150  1.6517 -3.7741 -1.3727
  958TIP3   OH224432   2.643   4.584   0.642 -0.4736 -0.2581  0.7868
  958TIP3    H124433   2.693   4.583   0.724 -1.2645 -0.8532  1.2721
  958TIP3    H224434   2.635   4.677   0.620  2.0129 -0.1830 -0.0506
  959TIP3   OH224435   0.875   3.395   1.647  0.5034 -0.2222 -0.2540
  959TIP3    H124436   0.828   3.471   1.612 -0.6124 -1.2670 -1.1223
  959TIP3    H224437   0.808   3.328   1.657  1.4087 -1.0060  0.8107
  960TIP3   OH224438   5.370   4.682   0.937  0.2296  0.5911  0.3674
  960TIP3    H124439   5.431   4.706   1.007  0.8093 -1.8906  0.8132
  960TIP3    H224440   5.412   4.712   0.857  0.5909  1.5347  0.8876
  961TIP3   OH224441   5.723   2.710   6.013 -0.0591  0.4176  0.0461
  961TIP3    H124442   5.788   2.780   6.009 -0.1545  0.5690  0.9494
  961TIP3    H224443   5.753   2.654   6.085  0.9523 -1.4382 -1.6952
  962TIP3   OH224444   0.083   6.299   1.269  0.4073 -0.0148  0.7671
  962TIP3    H124445   0.141   6.315   1.343  0.9221 -2.7555  1.0629
  962TIP3    H224446   0.135   6.246   1.209 -0.8514 -0.0283 -0.3532
  963TIP3   OH224447   6.635   5.806   6.435 -0.2432  0.0490  0.1871
  963TIP3    H124448   6.729   5.818   6.445 -0.2899  1.2292 -0.6046
  963TIP3    H224449   6.600   5.894   6.425 -1.3311 -0.4220 -0.3956
  964TIP3   OH224450   5.743   1.899   0.866 -0.3085 -0.2559  1.0502
  964TIP3    H124451   5.796   1.955   0.924 -0.4251  0.2404  0.6796
  964TIP3    H224452   5.808   1.849   0.817 -0.1466  0.8473  0.1013
  965TIP3   OH224453   0.918   4.238   1.084 -0.2544  0.8133 -0.2330
  965TIP3    H124454   0.997   4.233   1.139  1.0204 -0.0024 -2.0260
  965TIP3    H224455   0.845   4.232   1.146  1.0005 -3.8629  1.2427
  966TIP3   OH224456   3.582   6.616   0.345 -0.0005 -0.3265  0.0522
  966TIP3    H124457   3.631   6.626   0.427 -0.9188 -0.5509  0.6485
  966TIP3    H224458   3.491   6.600   0.373 -0.9028  2.3355 -1.0016
  967TIP3   OH224459   0.721   1.212   0.566  0.3948  0.5831  0.0580
  967TIP3    H124460   0.691   1.301   0.585  0.0931  0.3611  0.6243
  967TIP3    H224461   0.661   1.155   0.613  1.9076  0.1378  1.5428
  968TIP3   OH224462   3.847   1.293   6.468  0.3426  0.2511  0.0578
  968TIP3    H124463   3.821   1.311   6.559 -1.2082 -0.8339 -0.1423
  968TIP3    H224464   3.832   1.199   6.457  2.3411 -0.0259 -0.7798
  969TIP3   OH224465   0.815   2.355   0.638 -0.4734 -0.0613 -0.0895
  969TIP3    H124466   0.729   2.378   0.673 -0.1265  1.1991 -0.0050
  969TIP3    H224467   0.834   2.270   0.677 -1.7648 -0.4575 -0.2806
  970TIP3   OH224468   6.025   3.647   0.862  0.2200 -0.3295 -0.1425
  970TIP3    H124469   5.977   3.729   0.870  1.3178  0.7107 -2.9327
  970TIP3    H224470   5.958   3.579   0.860 -0.8874  0.7396 -0.3716
  971TIP3   OH224471   1.307   5.305   2.785 -0.2304 -0.0285  0.3261
  971TIP3    H124472   1.259   5.384   2.810  0.1406  0.3621 -0.1570
  971TIP3    H224473   1.398   5.325   2.808 -0.3630 -1.0327  1.8962
  972TIP3   OH224474   3.370   6.815   0.983 -0.3516 -0.2177  0.0785
  972TIP3    H124475   3.442   6.754   0.970 -1.7270 -1.7685 -0.6893
  972TIP3    H224476   3.339   6.798   1.072  0.8794  1.2460  0.8361
  973TIP3   OH224477   2.094   3.157   0.751  0.7940  0.0958  0.1505
  973TIP3    H124478   2.095   3.082   0.692 -0.1283  0.2157 -0.0387
  973TIP3    H224479   2.060   3.229   0.696 -0.0766  0.2067  0.8078
  974TIP3   OH224480   2.230   3.756   6.336  0.2475 -0.2694  0.4094
  974TIP3    H124481   2.318   3.792   6.348 -0.0451  0.4827  0.3360
  974TIP3    H224482   2.235   3.711   6.251  0.1081  1.2553 -0.4603
  975TIP3   OH224483   5.026   3.984   6.250  0.2574  0.0187 -0.3715
  975TIP3    H124484   5.044   3.894   6.276  0.9152  0.4380  0.6948
  975TIP3    H224485   4.945   4.006   6.295  1.6038  0.8761  1.7969
  976TIP3   OH224486   5.694   4.392   1.333 -0.0539  0.4344 -0.2492
  976TIP3    H124487   5.706   4.428   1.245 -0.2412  2.8199  0.6223
  976TIP3    H224488   5.724   4.462   1.392 -1.4752 -0.4420  1.6276
  977TIP3   OH224489   3.590   3.716   7.687  0.0109  0.1404  0.3439
  977TIP3    H124490   3.501   3.682   7.683  0.3525 -0.8925  1.2458
  977TIP3    H224491   3.589   3.790   7.626 -1.1788 -0.4820 -0.4464
  978TIP3   OH224492   3.805   3.350   6.868 -0.3888  0.1471  0.2498
  978TIP3    H124493   3.888   3.303   6.861 -0.7662 -0.3709 -1.1222
  978TIP3    H224494   3.829   3.438   6.896  0.4468 -0.4707  1.5464
  979TIP3   OH224495   6.618   5.126   0.828 -0.3025  0.1251 -0.2318
  979TIP3    H124496   6.608   5.183   0.751  1.4551  2.2998  1.0189
  979TIP3    H224497   6.710   5.100   0.826 -0.5801 -0.9359  0.4048
  980TIP3   OH224498   4.136   2.476   6.162  0.6213  0.7086  0.0313
  980TIP3    H124499   4.215   2.512   6.202 -0.0651  1.5206  0.7225
  980TIP3    H224500   4.106   2.545   6.102  1.1463 -0.1330 -1.2373
  981TIP3   OH224501   3.588   5.080   1.258 -0.4196  0.0645 -0.0254
  981TIP3    H124502   3.580   5.019   1.185 -0.0784  1.1107 -0.9480
  981TIP3    H224503   3.638   5.154   1.223  1.0953 -0.0806  1.6801
  982TIP3   OH224504   0.741   3.125   7.543  0.0388  0.0091  0.2741
  982TIP3    H124505   0.773   3.215   7.538 -0.6882  0.2587  0.1066
  982TIP3    H224506   0.673   3.119   7.476  0.5675 -0.8705 -0.2063
  983TIP3   OH224507   3.198   3.671   1.121  0.4777 -0.5426 -0.1116
  983TIP3    H124508   3.121   3.672   1.179  0.2491 -0.7466 -0.4054
  983TIP3    H224509   3.273   3.663   1.179  0.2550 -0.6337  0.1621
  984TIP3   OH224510   2.893   5.427   1.579 -0.8154 -0.2128 -0.4016
  984TIP3    H124511   2.977   5.450   1.539 -0.4888  0.1427  0.4509
  984TIP3    H224512   2.844   5.509   1.580 -0.6138 -0.0933  0.3914
  985TIP3   OH224513   0.826   0.998   7.600 -0.4764 -0.3696 -0.0446
  985TIP3    H124514   0.840   1.046   7.518  1.4590 -0.1635  0.3529
  985TIP3    H224515   0.774   0.921   7.574  0.6491 -0.6587 -1.6136
  986TIP3   OH224516   2.984   4.533   8.168 -0.4984 -0.5768  0.1395
  986TIP3    H124517   3.023   4.589   8.101  2.0845 -0.3596  1.6740
  986TIP3    H224518   2.999   4.444   8.136 -0.8136 -0.4483 -0.3673
  987TIP3   OH224519   6.260   2.619   7.528  0.2113 -0.2268 -0.2819
  987TIP3    H124520   6.174   2.593   7.494  0.5727 -0.2108 -1.2384
  987TIP3    H224521   6.307   2.653   7.451  1.3704 -1.0127  0.0419
  988TIP3   OH224522   5.162   4.551   8.233  0.1267  0.4548  0.7009
  988TIP3    H124523   5.132   4.460   8.230 -0.8968  0.7819 -2.0648
  988TIP3    H224524   5.254   4.546   8.206 -0.5661  0.3751 -1.8660
  989TIP3   OH224525   2.160   4.956   0.091  0.5930 -0.0965 -1.3208
  989TIP3    H124526   2.203   4.908   0.021  1.3734  1.8348 -2.2455
  989TIP3    H224527   2.226   5.018   0.122  0.4244 -1.1761  1.4780
  990TIP3   OH224528   0.512   1.634   7.967 -0.9447  0.7867 -0.5809
  990TIP3    H124529   0.583   1.698   7.963  0.0754 -0.3571 -1.4466
  990TIP3    H224530   0.556   1.550   7.980 -2.2161  0.1584 -0.1619
  991TIP3   OH224531   0.520   0.789   8.423 -0.3492  0.1961 -1.0280
  991TIP3    H124532   0.446   0.835   8.463 -1.0087 -1.5508 -0.0865
  991TIP3    H224533   0.590   0.796   8.488 -0.7232 -0.7839 -0.4890
  992TIP3   OH224534   0.915   5.802   6.849  0.2703  0.0237  0.1200
  992TIP3    H124535   0.959   5.827   6.931  0.8619 -0.3228 -0.0859
  992TIP3    H224536   0.843   5.864   6.841 -0.6046 -0.7259  1.5864
  993TIP3   OH224537   1.575   2.533   7.297  0.3827 -0.1847  0.4340
  993TIP3    H124538   1.669   2.519   7.290  0.5766  0.8557  0.7867
  993TIP3    H224539   1.563   2.627   7.287 -0.7050 -0.3762 -0.3381
  994TIP3   OH224540   6.565   2.157   7.906 -0.2343 -0.2018 -0.4620
  994TIP3    H124541   6.578   2.164   8.001 -1.9448  0.5947 -0.2562
  994TIP3    H224542   6.623   2.224   7.869 -0.7110  0.5512  0.1336
  995TIP3   OH224543   6.497   3.040   6.917  0.4239  0.3020  0.2669
  995TIP3    H124544   6.522   2.948   6.914 -0.7062  0.0063 -1.9334
  995TIP3    H224545   6.459   3.052   7.005  0.0970 -1.4586  0.4003
  996TIP3   OH224546   1.627   6.614   1.739 -0.0137 -0.0098  0.4113
  996TIP3    H124547   1.561   6.675   1.770  0.8763  0.4871  1.4145
  996TIP3    H224548   1.578   6.543   1.699 -1.0983  0.9196  0.0570
  997TIP3   OH224549   4.172   2.334   1.083  0.3255  0.6026 -0.0724
  997TIP3    H124550   4.124   2.354   1.003  1.0163  0.6854 -0.4740
  997TIP3    H224551   4.136   2.394   1.148 -0.2721  0.5014 -0.3043
  998TIP3   OH224552   5.246   3.671   0.123  0.6500  0.4704  0.0916
  998TIP3    H124553   5.241   3.686   0.217  0.6055  0.4172  0.0973
  998TIP3    H224554   5.289   3.586   0.115 -0.1168  0.0775  0.0812
  999TIP3   OH224555   4.842   0.611   6.536 -0.3080 -0.2619  0.6357
  999TIP3    H124556   4.904   0.583   6.468  1.5061 -1.8949  2.7700
  999TIP3    H224557   4.802   0.529   6.567 -0.4323  0.3146  2.0848
 1000TIP3   OH224558   3.970   6.898   1.601 -0.8263 -0.3053  0.2434
 1000TIP3    H124559   3.927   6.947   1.531 -1.1218 -0.5763  0.2321
 1000TIP3    H224560   4.041   6.956   1.631  1.1143 -1.2758 -2.1411
 1001TIP3   OH224561   5.581   1.562   0.365  0.4232  0.4662  0.3595
 1001TIP3    H124562   5.556   1.499   0.433 -0.1824  0.2158 -0.0841
 1001TIP3    H224563   5.666   1.531   0.334  1.1950  1.1631  1.6960
 1002TIP3   OH224564   5.486   4.733   6.787  0.8490 -0.0043  0.2543
 1002TIP3    H124565   5.447   4.749   6.872  0.8228 -0.3915  0.3163
 1002TIP3    H224566   5.436   4.788   6.727 -2.1456 -2.9138 -0.2624
 1003TIP3   OH224567   3.393   3.316   6.208 -0.9034 -0.1647  0.3289
 1003TIP3    H124568   3.451   3.251   6.248 -0.3975 -0.4654 -0.8491
 1003TIP3    H224569   3.310   3.271   6.198 -0.2011 -1.1518 -1.7123
 1004TIP3   OH224570   6.381   5.438   0.425  0.3216  0.0791  0.2917
 1004TIP3    H124571   6.423   5.524   0.418  2.1954 -0.8404 -0.4341
 1004TIP3    H224572   6.338   5.425   0.341  0.8025 -0.0522  0.0606
 1005TIP3   OH224573   2.252   1.582   0.776 -0.0698  0.3623 -0.5372
 1005TIP3    H124574   2.163   1.547   0.789  0.0907 -0.3172 -1.2021
 1005TIP3    H224575   2.276   1.554   0.688  0.8045  0.5704 -0.3717
 1006TIP3   OH224576   2.540   5.526   0.436  0.1031 -0.2778  0.0154
 1006TIP3    H124577   2.585   5.468   0.497  0.7556 -1.2195 -1.3326
 1006TIP3    H224578   2.610   5.573   0.390 -0.3903  0.7631  0.2947
 1007TIP3   OH224579   0.425   2.233   7.941 -0.0391  0.3521 -0.5635
 1007TIP3    H124580   0.440   2.190   8.025 -0.0149 -1.0399 -1.2546
 1007TIP3    H224581   0.360   2.301   7.961  0.7446  0.7649  0.7651
 1008TIP3   OH224582   5.854   0.354   0.270 -0.1628 -0.2853 -0.3934
 1008TIP3    H124583   5.765   0.329   0.246 -0.3385 -0.4942  0.4534
 1008TIP3    H224584   5.910   0.295   0.220 -0.4181  0.9241 -2.2310
 1009TIP3   OH224585   6.151   0.487   6.438  0.0698  0.0566  0.1292
 1009TIP3    H124586   6.126   0.566   6.488  1.3030  0.8636 -0.4862
 1009TIP3    H224587   6.199   0.521   6.363  3.5925 -1.3665  1.5209
 1010TIP3   OH224588   1.481   2.843   8.207 -0.0112  0.3625 -0.6902
 1010TIP3    H124589   1.542   2.917   8.216  2.0537 -0.8690 -3.2985
 1010TIP3    H224590   1.472   2.809   8.296  1.9291  1.5433  0.0221
 1011TIP3   OH224591   2.554   0.295   1.639  0.2901 -0.4707  0.1533
 1011TIP3    H124592   2.464   0.320   1.662  0.8672 -0.1834  2.3733
 1011TIP3    H224593   2.574   0.347   1.562 -1.4800 -0.6219 -0.4567
 1012TIP3   OH224594   1.124   6.705   6.248 -0.1262 -0.7047 -0.0241
 1012TIP3    H124595   1.045   6.722   6.196 -0.9126 -1.5167  0.8616
 1012TIP3    H224596   1.168   6.789   6.253 -1.5640  0.0558  0.4673
 1013TIP3   OH224597   5.801   0.092   7.111  0.0846 -0.0091  0.1128
 1013TIP3    H124598   5.809   0.076   7.205  0.7577 -0.9528 -0.0983
 1013TIP3    H224599   5.761   0.013   7.076 -0.7232  0.5804 -0.3221
 1014TIP3   OH224600   6.858   5.538   8.088  0.1883 -0.0156  0.3363
 1014TIP3    H124601   6.832   5.566   8.176 -2.4061 -2.2247  0.3793
 1014TIP3    H224602   6.941   5.492   8.101  0.2696  0.4228  1.4851
 1015TIP3   OH224603   3.948   1.428   7.251 -0.0219 -0.1392  0.0553
 1015TIP3    H124604   3.905   1.346   7.277 -0.9220  0.1136 -0.5892
 1015TIP3    H224605   3.904   1.453   7.169  1.0029  0.4131 -0.3422
 1016TIP3   OH224606   6.816   4.808   8.314 -0.3598  0.0774 -0.4608
 1016TIP3    H124607   6.912   4.812   8.304 -0.4868 -1.7889 -3.5111
 1016TIP3    H224608   6.801   4.731   8.369 -0.1370  1.4646  1.6573
 1017TIP3   OH224609   4.507   4.397   0.877 -0.0423  0.3113  0.2913
 1017TIP3    H124610   4.572   4.360   0.937  0.4457  1.4501  0.4929
 1017TIP3    H224611   4.558   4.452   0.817 -0.3839 -1.5012 -1.8129
 1018TIP3   OH224612   3.463   6.478   7.041  0.3013  0.2875 -0.3438
 1018TIP3    H124613   3.387   6.427   7.013  0.6959 -0.2941 -0.3514
 1018TIP3    H224614   3.433   6.569   7.035 -0.8424  0.0361  0.9099
 1019TIP3   OH224615   0.617   0.118   0.845  0.0904  0.0664 -0.4026
 1019TIP3    H124616   0.573   0.051   0.896 -1.1586  0.7867 -0.4971
 1019TIP3    H224617   0.677   0.160   0.907  0.1248 -0.4518 -0.0829
 1020TIP3   OH224618   4.883   0.735   0.735  0.1020 -0.5040  0.4093
 1020TIP3    H124619   4.792   0.708   0.747  0.5498 -1.8971  0.8402
 1020TIP3    H224620   4.900   0.795   0.807 -0.7262  0.5049 -0.1967
 1021TIP3   OH224621   5.014   2.478   7.498 -0.5558 -0.5763 -0.1621
 1021TIP3    H124622   5.097   2.430   7.503 -0.7999 -0.8592  1.7009
 1021TIP3    H224623   4.966   2.434   7.427  0.3909 -1.1849 -0.4477
 1022TIP3   OH224624   2.234   1.011   7.958 -0.3880 -0.2690  0.2663
 1022TIP3    H124625   2.193   0.940   8.008 -0.2534 -0.0892  0.6390
 1022TIP3    H224626   2.162   1.051   7.909 -0.6558 -0.0106  0.8503
 1023TIP3   OH224627   6.814   4.287   1.500  0.5231  0.0926 -0.1190
 1023TIP3    H124628   6.880   4.326   1.557 -0.5487  3.3080 -0.8196
 1023TIP3    H224629   6.784   4.360   1.445 -0.6351 -2.1509 -2.7228
 1024TIP3   OH224630   3.803   3.161   0.782 -0.2927  0.6540  0.4774
 1024TIP3    H124631   3.792   3.256   0.789 -1.0503  0.5393  0.9799
 1024TIP3    H224632   3.879   3.142   0.836 -0.7935  0.8500  1.2595
 1025TIP3   OH224633   2.345   1.906   8.095  0.1136  0.2642 -0.4023
 1025TIP3    H124634   2.330   1.998   8.074  0.0502  0.0519 -1.3367
 1025TIP3    H224635   2.301   1.858   8.025 -0.9273 -0.5175  0.7620
 1026TIP3   OH224636   6.589   3.879   1.430 -0.0320  0.7614  0.4997
 1026TIP3    H124637   6.673   3.834   1.444 -0.8674 -1.0890 -0.0490
 1026TIP3    H224638   6.593   3.956   1.486  1.3393 -0.2055  1.8233
 1027TIP3   OH224639   3.715   6.565   1.170  0.0964  0.8879  0.3386
 1027TIP3    H124640   3.739   6.643   1.220 -1.7228  0.5679  1.8240
 1027TIP3    H224641   3.621   6.556   1.182  0.0688 -0.8863 -0.7613
 1028TIP3   OH224642   2.214   6.431   7.160  0.1714  0.2959  0.2261
 1028TIP3    H124643   2.124   6.463   7.161  0.7895  2.2344  1.2699
 1028TIP3    H224644   2.251   6.464   7.078  0.3364  0.8338  0.5111
 1029TIP3   OH224645   3.188   5.877   0.874  0.1680 -0.4676  0.0100
 1029TIP3    H124646   3.184   5.833   0.789 -0.7407 -0.4373  0.0217
 1029TIP3    H224647   3.136   5.956   0.863  0.1976 -0.3669  0.5416
 1030TIP3   OH224648   0.625   2.632   0.891  0.2891  0.1861 -0.8819
 1030TIP3    H124649   0.615   2.538   0.875 -0.1973  0.2115 -0.7311
 1030TIP3    H224650   0.647   2.639   0.984 -2.3106  0.3724 -0.2206
 1031TIP3   OH224651   2.464   3.861   0.164 -0.5767 -0.2995  0.0139
 1031TIP3    H124652   2.535   3.835   0.223 -0.4324  2.4304  1.1832
 1031TIP3    H224653   2.385   3.852   0.217 -0.8188 -0.8509 -0.4353
 1032TIP3   OH224654   4.898   3.771   8.314 -0.3861  0.4270  0.0929
 1032TIP3    H124655   4.803   3.779   8.311 -0.2366  2.8068 -0.8108
 1032TIP3    H224656   4.919   3.762   8.407 -1.4747  0.1296  0.3213
 1033TIP3   OH224657   0.356   4.975   6.957  0.6175  0.2655  0.0442
 1033TIP3    H124658   0.314   4.940   7.036 -0.4749  1.9248  0.2467
 1033TIP3    H224659   0.322   4.920   6.886 -0.8850  0.7415  0.3688
 1034TIP3   OH224660   6.531   5.719   7.652  0.4428  0.5170 -0.0483
 1034TIP3    H124661   6.486   5.725   7.568 -0.7596 -1.7251  0.3356
 1034TIP3    H224662   6.577   5.635   7.649  1.0101  0.7526  1.2315
 1035TIP3   OH224663   0.763   3.178   0.138 -0.3898 -0.3389  0.1459
 1035TIP3    H124664   0.760   3.250   0.076  1.6637 -1.4270 -1.3227
 1035TIP3    H224665   0.814   3.212   0.212  0.2257 -0.1689 -0.3578
 1036TIP3   OH224666   2.274   4.070   7.676 -0.0575 -0.0755 -0.6260
 1036TIP3    H124667   2.328   4.089   7.753  0.5264 -1.2218 -0.7307
 1036TIP3    H224668   2.193   4.034   7.712 -1.0483  2.1354 -0.4413
 1037TIP3   OH224669   0.585   5.708   1.894  0.1180 -0.4613 -0.4147
 1037TIP3    H124670   0.581   5.755   1.978 -1.5263 -0.5903 -0.3826
 1037TIP3    H224671   0.678   5.689   1.881  0.5289  0.5606  0.8210
 1038TIP3   OH224672   6.586   5.446   8.026 -0.5041  0.4966 -0.1800
 1038TIP3    H124673   6.627   5.368   8.061  2.1515  1.2360 -1.3858
 1038TIP3    H224674   6.658   5.506   8.008 -2.3123  2.7184 -0.5658
 1039TIP3   OH224675   3.759   5.095   7.603 -0.9149  0.0288 -0.2720
 1039TIP3    H124676   3.785   5.163   7.542  1.7062  0.2561  0.9623
 1039TIP3    H224677   3.722   5.026   7.548  0.6835  0.5162 -2.0602
 1040TIP3   OH224678   1.498   6.031   1.061 -0.3800 -0.1645  0.3305
 1040TIP3    H124679   1.432   6.090   1.024 -0.8757 -0.7493  0.2581
 1040TIP3    H224680   1.555   6.010   0.988 -1.6580 -1.7266 -0.2750
 1041TIP3   OH224681   3.338   0.035   6.607 -0.2412  0.0766  0.2039
 1041TIP3    H124682   3.387   0.082   6.540 -0.3586 -0.9575 -0.6437
 1041TIP3    H224683   3.402   0.016   6.675 -0.6297  3.2622  1.6173
 1042TIP3   OH224684   3.259   5.225   7.280  0.0839  0.7133  0.4426
 1042TIP3    H124685   3.260   5.211   7.185  0.9391 -0.5565  0.6150
 1042TIP3    H224686   3.308   5.151   7.315 -0.1170  1.2403  1.8759
 1043TIP3   OH224687   2.585   1.533   6.829 -0.2910 -0.0731 -0.1786
 1043TIP3    H124688   2.578   1.485   6.746 -1.5045  0.4328 -0.3895
 1043TIP3    H224689   2.495   1.543   6.858  0.0888  0.3042  0.8990
 1044TIP3   OH224690   1.236   3.516   0.087 -0.5213  0.3283  0.3505
 1044TIP3    H124691   1.236   3.420   0.089 -2.3918  0.2832  0.2710
 1044TIP3    H224692   1.328   3.540   0.078  0.0112 -1.4495  0.6574
 1045TIP3   OH224693   5.899   6.031   7.291 -0.1065 -0.3365  0.9889
 1045TIP3    H124694   5.892   6.117   7.248  0.8678 -1.1447 -0.9207
 1045TIP3    H224695   5.951   6.048   7.369 -0.4995  0.9194  1.0137
 1046TIP3   OH224696   1.373   2.919   7.664 -0.3680  0.4676 -0.2443
 1046TIP3    H124697   1.330   2.839   7.692 -0.5708  0.3244 -0.9543
 1046TIP3    H224698   1.396   2.964   7.745  2.3284 -1.6455  0.3078
 1047TIP3   OH224699   0.519   1.520   1.713 -0.1473 -0.8920 -0.3673
 1047TIP3    H124700   0.559   1.534   1.798 -1.6240  1.1460  0.0700
 1047TIP3    H224701   0.455   1.451   1.728 -0.5303 -0.4156  0.2348
 1048TIP3   OH224702   3.136   0.155   6.920  0.9209 -0.8310 -0.4174
 1048TIP3    H124703   3.110   0.215   6.850 -0.8990 -0.4994  0.4854
 1048TIP3    H224704   3.231   0.152   6.915  1.1107  2.2752 -0.3861
 1049TIP3   OH224705   6.651   4.589   6.329  0.4989  0.5884 -0.0806
 1049TIP3    H124706   6.644   4.497   6.305  0.3885  0.8112 -0.9146
 1049TIP3    H224707   6.745   4.606   6.335  0.5149  0.2803  0.6541
 1050TIP3   OH224708   3.429   2.124   0.049 -0.2638 -0.4187  0.2691
 1050TIP3    H124709   3.362   2.063   0.018 -0.8852  0.9025 -1.1069
 1050TIP3    H224710   3.485   2.138  -0.027 -0.5431  1.2407  0.3427
 1051TIP3   OH224711   3.546   5.319   0.695 -0.3504  0.1239 -0.4708
 1051TIP3    H124712   3.614   5.342   0.631  0.3202 -1.6105 -0.4315
 1051TIP3    H224713   3.515   5.233   0.667 -0.3291 -0.4992  1.3166
 1052TIP3   OH224714   6.629   5.763   1.007 -0.3278 -0.1046  0.0885
 1052TIP3    H124715   6.583   5.826   0.952  0.9410  0.5894 -0.2139
 1052TIP3    H224716   6.562   5.727   1.064 -1.3546  0.4024 -0.7740
 1053TIP3   OH224717   3.925   4.760   5.989  0.0640 -0.0172 -0.5189
 1053TIP3    H124718   3.961   4.805   5.913  0.5582  0.4771 -0.0049
 1053TIP3    H224719   3.863   4.697   5.953  0.3046  0.2003 -1.3267
 1054TIP3   OH224720   0.602   5.764   7.841 -0.5576 -0.0206 -0.0929
 1054TIP3    H124721   0.531   5.769   7.776 -0.3085  0.3868 -0.3385
 1054TIP3    H224722   0.599   5.673   7.871 -1.6756  0.1798  0.4631
 1055TIP3   OH224723   1.138   5.080   0.415 -0.6458 -0.6012 -0.3334
 1055TIP3    H124724   1.191   5.119   0.484  0.7822 -2.4081 -0.3395
 1055TIP3    H224725   1.058   5.134   0.413  0.0872  0.6463  1.4007
 1056TIP3   OH224726   5.578   5.875   2.196 -0.0556 -0.2414 -0.4089
 1056TIP3    H124727   5.596   5.800   2.254  2.0061  1.5864  1.5203
 1056TIP3    H224728   5.487   5.899   2.215  0.7111  0.6738  2.7196
 1057TIP3   OH224729   3.522   3.627   6.699 -0.6231 -0.0114 -0.2523
 1057TIP3    H124730   3.434   3.660   6.717 -0.5621 -0.3303  0.6899
 1057TIP3    H224731   3.517   3.534   6.719 -0.1465 -0.0881 -0.4830
 1058TIP3   OH224732   0.017   1.522   1.704  0.0885  0.1594  0.0459
 1058TIP3    H124733   0.095   1.468   1.714 -0.1716  0.0832  2.5144
 1058TIP3    H224734  -0.048   1.479   1.760 -1.5647  0.5332 -1.5070
 1059TIP3   OH224735   2.176   0.973   0.414 -0.1655 -0.3931 -0.2017
 1059TIP3    H124736   2.226   0.953   0.336  1.0507  0.4200  0.3444
 1059TIP3    H224737   2.158   1.066   0.408 -0.0517 -0.3207  0.4908
 1060TIP3   OH224738   3.579   0.898   0.958  0.0792  0.9098 -0.1789
 1060TIP3    H124739   3.547   0.854   0.880  1.1186  0.4203 -0.3409
 1060TIP3    H224740   3.519   0.973   0.969 -1.0859  0.0493 -0.4683
 1061TIP3   OH224741   4.304   1.836   6.945  0.3825 -0.7180  0.4465
 1061TIP3    H124742   4.237   1.788   6.993 -0.5161 -0.4043 -0.4711
 1061TIP3    H224743   4.306   1.922   6.986  0.4719 -0.8343  0.6914
 1062TIP3   OH224744   1.218   6.181   8.179 -0.0154  0.2296  0.2236
 1062TIP3    H124745   1.178   6.099   8.153 -0.1843 -0.2415  1.8386
 1062TIP3    H224746   1.149   6.246   8.170 -0.8465 -0.3751  1.8855
 1063TIP3   OH224747   1.035   1.250   0.243  1.0149 -0.3101 -0.2016
 1063TIP3    H124748   1.106   1.191   0.215  2.1681 -0.5736  2.8848
 1063TIP3    H224749   1.013   1.221   0.331 -2.7455  0.0678 -0.8657
 1064TIP3   OH224750   1.637   1.609   8.053  0.0652 -0.5893 -0.3089
 1064TIP3    H124751   1.567   1.549   8.079  0.7055 -2.4933 -2.5758
 1064TIP3    H224752   1.637   1.606   7.957  2.9400 -0.3638 -0.4205
 1065TIP3   OH224753   1.162   3.710   6.908 -0.1474 -0.1432  0.3471
 1065TIP3    H124754   1.149   3.615   6.913 -1.6802 -0.2054 -2.7251
 1065TIP3    H224755   1.246   3.725   6.951 -0.2268 -2.7546  1.5942
 1066TIP3   OH224756   3.459   6.547   1.243  0.4733  0.9041  0.6928
 1066TIP3    H124757   3.488   6.521   1.330 -0.3202  0.4474  0.8319
 1066TIP3    H224758   3.367   6.571   1.254 -0.3745 -1.5319 -0.4501
 1067TIP3   OH224759   0.076   3.259   7.800 -0.2186 -0.4912  0.1658
 1067TIP3    H124760   0.066   3.219   7.714 -0.6755  2.0860 -1.0841
 1067TIP3    H224761  -0.012   3.258   7.836  0.0389 -1.9314  0.8457
 1068TIP3   OH224762   4.910   1.091   8.005 -0.4348 -0.0455 -0.2620
 1068TIP3    H124763   4.948   1.163   8.055 -0.4665 -0.7947  0.8796
 1068TIP3    H224764   4.970   1.017   8.019 -0.2380 -0.1863 -1.6601
 1069TIP3   OH224765   2.028   2.162   8.243 -0.2572  0.2267  0.1496
 1069TIP3    H124766   2.049   2.256   8.241  0.4240  0.0754 -1.9804
 1069TIP3    H224767   2.014   2.139   8.152  1.1369 -2.0933  0.4437
 1070TIP3   OH224768   5.459   2.054   5.788  0.2672  0.0783  0.5635
 1070TIP3    H124769   5.498   1.993   5.850  0.3214 -0.5221 -0.0485
 1070TIP3    H224770   5.532   2.108   5.758  0.2123  0.4800  1.1318
 1071TIP3   OH224771   0.229   4.702   7.828  0.7145  0.2922  0.2569
 1071TIP3    H124772   0.284   4.662   7.760  0.5904  1.3238 -0.4799
 1071TIP3    H224773   0.240   4.797   7.815 -1.2154  0.5317  0.0945
 1072TIP3   OH224774   4.201   0.265   7.926 -0.3190 -0.0002  0.3734
 1072TIP3    H124775   4.157   0.307   7.852 -0.3828  2.2170  1.5647
 1072TIP3    H224776   4.163   0.177   7.930 -2.0721  0.6499 -0.7613
 1073TIP3   OH224777   0.421   1.668   7.258 -0.0417 -0.6974 -0.5221
 1073TIP3    H124778   0.446   1.761   7.259  0.8601 -0.8607  2.2028
 1073TIP3    H224779   0.492   1.625   7.210  1.4382 -0.3220  1.2067
 1074TIP3   OH224780   4.952   1.528   7.222  0.3805 -0.5348 -0.3634
 1074TIP3    H124781   4.947   1.569   7.135  0.5561 -0.2678 -0.2496
 1074TIP3    H224782   4.995   1.594   7.276 -0.7680 -0.2430  0.2141
 1075TIP3   OH224783   6.732   1.561   1.455 -0.4492 -0.1174 -0.4790
 1075TIP3    H124784   6.709   1.634   1.512 -0.7283 -0.0823 -0.6370
 1075TIP3    H224785   6.685   1.486   1.492 -1.8292  0.2130 -1.5404
 1076TIP3   OH224786   0.266   1.518   7.908 -0.4749 -0.4799 -0.1496
 1076TIP3    H124787   0.221   1.531   7.991  2.4071 -1.3139  1.6948
 1076TIP3    H224788   0.333   1.586   7.906 -0.6630 -0.2932 -1.9647
 1077TIP3   OH224789   5.408   2.747   8.545  0.0834 -0.1806  0.1306
 1077TIP3    H124790   5.448   2.772   8.461  0.3486  0.5396  0.4576
 1077TIP3    H224791   5.458   2.671   8.574  0.2566 -0.1849 -0.1723
 1078TIP3   OH224792   6.316   2.600   6.883 -0.2177 -0.4663  0.3051
 1078TIP3    H124793   6.349   2.689   6.891 -0.9219 -0.1850  0.1972
 1078TIP3    H224794   6.362   2.563   6.808 -0.6879  0.1695 -0.3099
 1079TIP3   OH224795   3.721   1.957   8.202  0.4249  0.2683 -0.0278
 1079TIP3    H124796   3.721   1.861   8.201 -0.0252  0.2660 -0.6341
 1079TIP3    H224797   3.808   1.981   8.168  1.1880  0.0962  1.6940
 1080TIP3   OH224798   3.012   1.263   1.816  0.2712 -0.5618 -0.0899
 1080TIP3    H124799   2.944   1.203   1.847 -1.8137  1.0538 -1.1931
 1080TIP3    H224800   3.093   1.231   1.856 -0.8622 -3.4601  0.1438
 1081TIP3   OH224801   5.003   3.526   1.399 -0.3533  0.2901  0.4079
 1081TIP3    H124802   4.951   3.507   1.476  0.8321  0.4874  1.2800
 1081TIP3    H224803   5.091   3.543   1.432  0.7529 -1.8181 -1.1370
 1082TIP3   OH224804   3.947   0.898   0.765 -0.3186  0.2349  0.4535
 1082TIP3    H124805   3.922   0.889   0.857  0.2334 -1.5859  0.4786
 1082TIP3    H224806   3.983   0.812   0.742 -0.5860  0.6007 -1.5114
 1083TIP3   OH224807   3.244   6.461   1.575  0.2721 -0.4247 -0.0817
 1083TIP3    H124808   3.242   6.428   1.665  0.7586 -0.2483 -0.0052
 1083TIP3    H224809   3.305   6.404   1.529  0.6061 -0.0521 -0.1097
 1084TIP3   OH224810   1.042   4.044   0.583  0.2088  0.1004  0.6421
 1084TIP3    H124811   0.982   4.117   0.565  0.0783 -0.6207 -2.2682
 1084TIP3    H224812   1.093   4.074   0.659 -2.1502  1.7426  1.6955
 1085TIP3   OH224813   2.816   1.047   6.802 -0.4935  0.4995 -0.2516
 1085TIP3    H124814   2.739   1.072   6.853 -0.6079 -1.4250  0.6112
 1085TIP3    H224815   2.786   1.045   6.711 -1.1910  0.7103 -0.0303
 1086TIP3   OH224816   2.606   0.420   8.054 -0.6989 -0.0362  0.0397
 1086TIP3    H124817   2.588   0.489   7.990 -1.4645 -0.9795 -0.7886
 1086TIP3    H224818   2.685   0.378   8.022 -0.0296  0.6611  0.7380
 1087TIP3   OH224819   6.294   6.218   0.834  0.2508  0.1742  0.0413
 1087TIP3    H124820   6.249   6.245   0.754 -0.7187  0.2883  0.6108
 1087TIP3    H224821   6.236   6.245   0.905  0.4654 -1.1128  0.7371
 1088TIP3   OH224822   0.531   4.981   8.152  0.0767  0.5972 -0.0218
 1088TIP3    H124823   0.506   4.898   8.191 -0.4086  0.6408 -0.2304
 1088TIP3    H224824   0.626   4.982   8.156  0.0584  0.3855  0.7117
 1089TIP3   OH224825   5.587   4.374   7.889  0.4181 -0.1695 -0.3633
 1089TIP3    H124826   5.545   4.344   7.808 -0.9324  0.1195  0.1907
 1089TIP3    H224827   5.669   4.414   7.861  0.8386 -1.6890 -1.4035
 1090TIP3   OH224828   1.664   2.803   1.807 -0.1001  0.1167 -0.7200
 1090TIP3    H124829   1.744   2.811   1.860 -1.7465  0.6901  1.8785
 1090TIP3    H224830   1.627   2.719   1.833 -0.2557 -0.2658 -2.1072
 1091TIP3   OH224831   3.802   2.477   6.312 -0.3049  0.0302 -0.0422
 1091TIP3    H124832   3.809   2.572   6.308 -1.6873  0.1933  0.5600
 1091TIP3    H224833   3.707   2.460   6.310 -0.0785 -1.3410 -0.3636
 1092TIP3   OH224834   0.518   4.423   8.123 -0.2184  0.1657  0.7077
 1092TIP3    H124835   0.536   4.432   8.030  1.1139 -0.3341  0.9036
 1092TIP3    H224836   0.590   4.371   8.157 -1.2296 -0.5572  1.8404
 1093TIP3   OH224837   2.521   1.976   1.903 -0.1366  0.2647  0.4751
 1093TIP3    H124838   2.439   2.017   1.874  1.1655  2.6987 -0.0231
 1093TIP3    H224839   2.506   1.958   1.996 -1.6647 -0.5208  0.1133
 1094TIP3   OH224840   4.481   0.081   6.493 -0.3248 -0.2546 -0.2387
 1094TIP3    H124841   4.538   0.010   6.522  0.1876 -0.0984 -0.8496
 1094TIP3    H224842   4.431   0.043   6.421 -0.6940 -0.2635  0.0202
 1095TIP3   OH224843   3.593   4.923   7.491  0.1171  0.4640 -0.9438
 1095TIP3    H124844   3.517   4.960   7.447 -0.7678 -0.2108 -0.0541
 1095TIP3    H224845   3.556   4.854   7.547  1.3875  0.1261 -0.4934
 1096TIP3   OH224846   1.417   2.157   8.208 -0.0656  0.2845 -0.3663
 1096TIP3    H124847   1.417   2.079   8.153 -0.8940 -1.1500  1.5732
 1096TIP3    H224848   1.496   2.205   8.182  1.5147 -2.1432 -0.3234
 1097TIP3   OH224849   6.885   0.174   0.166  0.1349  0.2452  0.0275
 1097TIP3    H124850   6.902   0.125   0.247  0.8791 -1.4967 -1.1157
 1097TIP3    H224851   6.967   0.167   0.116 -0.7053  0.2190 -1.4076
 1098TIP3   OH224852   4.878   4.048   8.321  0.3766 -0.2203  0.3750
 1098TIP3    H124853   4.899   4.092   8.403 -0.7532  0.6248  0.2318
 1098TIP3    H224854   4.891   3.955   8.339 -0.1678 -0.0689  1.6110
 1099TIP3   OH224855   3.897   3.940   0.076  0.2486  0.0049  0.3866
 1099TIP3    H124856   3.863   3.851   0.085 -0.3688  0.3650  1.9973
 1099TIP3    H224857   3.976   3.942   0.130  0.8462  0.1636 -0.4719
 1100TIP3   OH224858   6.510   6.753   8.428  0.0784 -0.1666  0.4093
 1100TIP3    H124859   6.501   6.845   8.453 -2.2857 -0.5624  1.2957
 1100TIP3    H224860   6.528   6.708   8.511  1.3482 -0.5133 -0.0361
 1101TIP3   OH224861   0.189   6.364   7.356  0.5565 -0.6052  0.2529
 1101TIP3    H124862   0.236   6.349   7.438 -0.3686 -1.1798  0.6897
 1101TIP3    H224863   0.203   6.284   7.305  0.2195 -0.7035  0.3099
 1102TIP3   OH224864   3.712   0.798   6.356 -0.1663 -0.4990 -0.0481
 1102TIP3    H124865   3.696   0.756   6.271  0.0233 -1.2206  0.2676
 1102TIP3    H224866   3.624   0.819   6.390 -0.2501 -0.4076 -0.3180
 1103TIP3   OH224867   3.203   2.832   7.149  0.1703  0.4183 -0.2475
 1103TIP3    H124868   3.185   2.921   7.180 -0.0677 -0.7651  3.4841
 1103TIP3    H224869   3.289   2.811   7.185  0.0119 -1.0117 -0.6522
 1104TIP3   OH224870   3.250   4.646   0.938  0.1714  0.2883  0.0356
 1104TIP3    H124871   3.317   4.645   0.869 -0.4198 -2.1951 -0.6127
 1104TIP3    H224872   3.294   4.610   1.015 -0.3963 -1.4569 -0.4240
 1105TIP3   OH224873   3.088   0.613   1.934  0.7821 -0.2255  0.1577
 1105TIP3    H124874   3.007   0.582   1.893  0.6941  0.3102 -0.0858
 1105TIP3    H224875   3.148   0.538   1.928  0.0085 -0.9548  1.2083
 1106TIP3   OH224876   3.005   2.643   7.998  0.0376  0.1477 -0.0174
 1106TIP3    H124877   2.980   2.726   7.959  0.8911  0.3243 -0.1967
 1106TIP3    H224878   2.923   2.594   8.005 -0.5607  1.2246  0.6478
 1107TIP3   OH224879   3.311   0.848   7.536 -0.7345 -0.6791  0.3545
 1107TIP3    H124880   3.341   0.925   7.585 -0.3666 -0.7458  0.2378
 1107TIP3    H224881   3.310   0.778   7.600 -0.6366 -0.6759  0.3606
 1108TIP3   OH224882   3.070   5.403   6.816  0.1219 -0.2099 -0.3238
 1108TIP3    H124883   3.107   5.467   6.755  1.3933 -0.2079  0.4221
 1108TIP3    H224884   3.015   5.347   6.761  1.4579 -0.3841 -1.5573
 1109TIP3   OH224885   4.283   4.377   0.534 -0.0241  0.1465  0.2678
 1109TIP3    H124886   4.223   4.312   0.497 -0.4512  1.0519 -0.7096
 1109TIP3    H224887   4.240   4.461   0.517  0.4792  0.6854  1.5693
 1110TIP3   OH224888   1.383   1.765   1.392 -0.6492 -0.0489 -0.1747
 1110TIP3    H124889   1.350   1.715   1.317 -2.6112  1.1574 -0.1854
 1110TIP3    H224890   1.397   1.853   1.358  0.8897 -0.0788  0.3094
 1111TIP3   OH224891   6.285   2.345   6.213 -0.2159 -0.1247 -0.0919
 1111TIP3    H124892   6.304   2.286   6.140 -2.1544 -1.1496  0.1644
 1111TIP3    H224893   6.208   2.393   6.185  0.9595  1.9066 -0.0295
 1112TIP3   OH224894   2.460   1.671   7.342 -0.4044 -0.2864  0.2898
 1112TIP3    H124895   2.472   1.610   7.414 -0.1129 -0.5766 -0.0011
 1112TIP3    H224896   2.519   1.640   7.274 -0.9202 -0.2103 -0.2033
 1113TIP3   OH224897   3.066   0.347   6.427 -0.3895  0.0265 -0.3669
 1113TIP3    H124898   3.154   0.345   6.389 -0.4430  0.8415 -0.5542
 1113TIP3    H224899   3.013   0.393   6.363 -0.8773 -0.1519 -0.0949
 1114TIP3   OH224900   4.638   6.728   7.475  0.5437 -0.0856  0.0202
 1114TIP3    H124901   4.550   6.717   7.512  0.6491  1.8402  0.9410
 1114TIP3    H224902   4.696   6.729   7.551  1.0783  1.1310 -0.3843
 1115TIP3   OH224903   1.514   2.479   8.363  0.1530  0.1494 -0.8388
 1115TIP3    H124904   1.467   2.557   8.392 -0.8597 -0.8124  0.2288
 1115TIP3    H224905   1.461   2.444   8.292 -0.9728 -1.0722  0.5261
 1116TIP3   OH224906   3.549   0.086   1.108 -0.2338  0.1134  0.8908
 1116TIP3    H124907   3.618   0.024   1.129  0.7943  0.5211 -1.0636
 1116TIP3    H224908   3.480   0.033   1.069  0.8537  0.1823 -1.2523
 1117TIP3   OH224909   0.429   1.944   7.086 -0.0421  0.0268  0.3358
 1117TIP3    H124910   0.471   1.894   7.017  0.1540  0.8816 -0.1863
 1117TIP3    H224911   0.338   1.914   7.087 -0.0484  0.0184 -0.3049
 1118TIP3   OH224912   1.960   5.300   0.497  0.0732 -0.1817 -0.1919
 1118TIP3    H124913   1.912   5.220   0.518 -0.4901  0.0825 -0.4654
 1118TIP3    H224914   1.986   5.289   0.406  0.1975 -0.1559 -0.1594
 1119TIP3   OH224915   5.872   2.678   7.308 -0.2693  0.3907  0.1524
 1119TIP3    H124916   5.866   2.735   7.385 -0.0718  1.5830 -0.6860
 1119TIP3    H224917   5.815   2.720   7.244  0.2066 -0.1431 -0.6273
 1120TIP3   OH224918   0.174   1.422   7.253  0.6834 -0.4563 -0.3109
 1120TIP3    H124919   0.228   1.415   7.332 -0.6287 -2.3962  0.4703
 1120TIP3    H224920   0.168   1.333   7.219  1.1133  0.2940 -2.6016
 1121TIP3   OH224921   5.139   6.153   7.451 -0.2629  0.1536  0.4139
 1121TIP3    H124922   5.079   6.108   7.392  0.4840 -0.9099  0.4384
 1121TIP3    H224923   5.093   6.156   7.535 -1.3391  1.6950 -0.1897
 1122TIP3   OH224924   6.075   5.657   7.854  0.0908 -0.7487  0.3298
 1122TIP3    H124925   6.008   5.591   7.842 -0.5932  0.0971 -0.6432
 1122TIP3    H224926   6.158   5.612   7.837 -0.3015 -1.5410  0.5077
 1123TIP3   OH224927   4.123   3.864   8.325 -0.0366 -0.3958 -0.3625
 1123TIP3    H124928   4.136   3.954   8.297  0.0401 -0.4083 -0.3660
 1123TIP3    H224929   4.143   3.864   8.418 -0.1034 -0.3951 -0.3486
 1124TIP3   OH224930   6.414   4.010   2.119  0.5653 -0.1706  0.2317
 1124TIP3    H124931   6.419   3.970   2.205 -0.6278  0.0709  0.4248
 1124TIP3    H224932   6.397   4.102   2.136 -0.0056 -0.1789 -0.2586
 1125TIP3   OH224933   6.858   5.564   2.230 -0.6985 -0.0328 -0.7996
 1125TIP3    H124934   6.864   5.629   2.160 -0.1172 -0.4608 -1.1510
 1125TIP3    H224935   6.790   5.503   2.200 -1.8742  0.8824 -0.0683
 1126TIP3   OH224936   4.645   5.849   2.411  0.2350 -0.0111 -0.2574
 1126TIP3    H124937   4.672   5.921   2.353 -1.4787 -0.6385 -1.9399
 1126TIP3    H224938   4.597   5.892   2.481  0.8945  0.6389 -0.1947
 1127TIP3   OH224939   5.392   0.278   8.466 -0.3341 -0.1502 -0.3891
 1127TIP3    H124940   5.350   0.224   8.533  0.9814 -1.2205 -0.3883
 1127TIP3    H224941   5.478   0.299   8.503 -0.0657  0.2949 -1.2391
 1128TIP3   OH224942   5.886   5.978   0.131 -0.1165  0.0783  0.0901
 1128TIP3    H124943   5.823   5.948   0.196 -1.8638  2.1167 -0.5565
 1128TIP3    H224944   5.966   5.996   0.180 -0.7160 -0.4468  1.2875
 1129TIP3   OH224945   4.155   1.900   0.929  0.6032 -0.1747 -0.0209
 1129TIP3    H124946   4.167   1.913   0.835 -0.7740  0.5389 -0.1340
 1129TIP3    H224947   4.074   1.948   0.949  0.4856 -0.9188  1.3934
 1130TIP3   OH224948   2.690   0.872   8.206 -0.3712 -0.3743  0.2087
 1130TIP3    H124949   2.610   0.865   8.155 -0.4333 -0.4666  0.3157
 1130TIP3    H224950   2.701   0.784   8.244  0.5336 -0.7668 -0.9184
 1131TIP3   OH224951   4.822   0.551   6.852  0.3495  0.1428  0.4112
 1131TIP3    H124952   4.775   0.632   6.868 -0.1142  0.1014 -0.6319
 1131TIP3    H224953   4.899   0.577   6.802  0.7739  0.0593  1.0114
 1132TIP3   OH224954   1.902   4.029   0.045  0.5001 -0.1732 -0.0716
 1132TIP3    H124955   1.951   4.018  -0.036  1.3698 -0.3931  0.4669
 1132TIP3    H224956   1.817   3.988   0.027  0.3717  0.5299 -1.1332
 1133TIP3   OH224957   1.037   0.758   6.876  0.0687 -0.5594  0.0675
 1133TIP3    H124958   0.964   0.819   6.864 -1.3278 -1.8469  1.5173
 1133TIP3    H224959   1.115   0.813   6.870 -1.1025  1.3400  1.0528
 1134TIP3   OH224960   3.815   4.570   1.772 -0.1087  0.4373 -0.4348
 1134TIP3    H124961   3.833   4.551   1.865  1.8047 -0.0512 -0.8557
 1134TIP3    H224962   3.859   4.654   1.756 -0.5990  0.6177 -0.8689
 1135TIP3   OH224963   2.775   6.507   1.886 -0.6556 -0.5705  0.1242
 1135TIP3    H124964   2.843   6.447   1.918 -0.7067 -0.8699 -0.3211
 1135TIP3    H224965   2.769   6.574   1.954 -0.3867 -0.9072  0.4890
 1136TIP3   OH224966   3.631   5.383   6.575  0.2147  0.0310 -0.2610
 1136TIP3    H124967   3.648   5.457   6.516 -0.0511  0.2934 -0.0110
 1136TIP3    H224968   3.538   5.364   6.562  0.6348 -1.3674 -1.5922
 1137TIP3   OH224969   0.390   4.565   7.658 -0.3034  0.3411 -0.4153
 1137TIP3    H124970   0.388   4.581   7.563  2.8527 -0.0383 -0.6651
 1137TIP3    H224971   0.471   4.607   7.687 -0.3135 -1.0213  1.8209
 1138TIP3   OH224972   6.499   1.458   7.114 -0.2698 -0.3542 -0.3414
 1138TIP3    H124973   6.446   1.383   7.087  0.1807 -1.1831  0.9948
 1138TIP3    H224974   6.450   1.534   7.083 -1.0841 -1.1617 -1.1148
 1139TIP3   OH224975   5.175   0.852   0.835 -0.6173  0.1979 -0.3521
 1139TIP3    H124976   5.174   0.902   0.916 -0.3290 -1.2692  0.5897
 1139TIP3    H224977   5.083   0.842   0.811 -0.7124  0.4342 -0.0727
 1140TIP3   OH224978   0.278   0.408   0.960  0.0836  0.1500 -0.0812
 1140TIP3    H124979   0.268   0.466   1.036  0.6019  0.4855 -0.2645
 1140TIP3    H224980   0.370   0.415   0.936  0.1855 -0.8425 -0.0385
 1141TIP3   OH224981   4.900   3.384   7.459 -0.1495  0.6208  0.3470
 1141TIP3    H124982   4.840   3.446   7.501 -0.3336 -0.2595  1.4146
 1141TIP3    H224983   4.962   3.360   7.527 -0.9448 -1.4646  0.4146
 1142TIP3   OH224984   0.672   3.191   1.740 -0.0112 -0.2117  0.5863
 1142TIP3    H124985   0.589   3.165   1.780 -0.2016 -0.6337 -0.0704
 1142TIP3    H224986   0.720   3.109   1.729 -0.1212 -0.1520 -0.3987
 1143TIP3   OH224987   1.279   3.205   8.153 -0.3267 -0.7393 -0.0907
 1143TIP3    H124988   1.326   3.280   8.117  0.4758  0.5613  3.2863
 1143TIP3    H224989   1.322   3.128   8.115 -0.2433  0.4018 -2.5305
 1144TIP3   OH224990   0.051   3.727   7.057 -0.4991 -0.3681  0.1889
 1144TIP3    H124991   0.073   3.635   7.072  1.0567 -0.5851 -2.7354
 1144TIP3    H224992  -0.039   3.725   7.024 -0.4657 -0.8363  0.1155
 1145TIP3   OH224993   0.229   0.345   6.293  0.3142 -0.0139 -0.0297
 1145TIP3    H124994   0.151   0.339   6.347  0.4305  0.5412  0.2103
 1145TIP3    H224995   0.255   0.254   6.277 -0.3678 -0.2027 -0.0999
 1146TIP3   OH224996   5.977   4.428   8.189  0.8670 -0.3015  0.0329
 1146TIP3    H124997   6.022   4.512   8.175  0.1568  0.1212  0.2542
 1146TIP3    H224998   6.048   4.365   8.205  1.4356  0.1562 -0.6089
 1147TIP3   OH224999   0.182   0.338   7.315 -0.6376  0.6161 -0.7109
 1147TIP3    H125000   0.205   0.391   7.391 -1.2415  0.3604 -0.3415
 1147TIP3    H225001   0.247   0.268   7.313 -2.0159 -0.8447  1.0674
 1148TIP3   OH225002   2.254   2.794   1.583  0.2572  0.4440 -0.2137
 1148TIP3    H125003   2.260   2.875   1.531 -0.5151 -0.1642 -1.3017
 1148TIP3    H225004   2.255   2.823   1.674 -1.7036  1.8422 -0.5720
 1149TIP3   OH225005   6.659   0.860   1.270 -0.5910 -0.0825 -0.1734
 1149TIP3    H125006   6.656   0.771   1.305  1.4056 -0.1543 -0.0581
 1149TIP3    H225007   6.640   0.917   1.345  0.9696 -0.3339  0.4403
 1150TIP3   OH225008   2.506   1.701   1.831  0.8429 -0.4412  0.1023
 1150TIP3    H125009   2.514   1.635   1.900 -0.7043 -0.1638  0.5812
 1150TIP3    H225010   2.544   1.780   1.868 -0.7698 -0.0564  1.0029
 1151TIP3   OH225011   0.232   0.099   6.567 -0.4853 -0.3769 -0.0462
 1151TIP3    H125012   0.298   0.043   6.609 -0.0881  1.0094  1.2931
 1151TIP3    H225013   0.282   0.159   6.512 -0.6542  0.2912  0.5074
 1152TIP3   OH225014   3.785   3.051   1.158 -0.2569 -0.3078  0.1282
 1152TIP3    H125015   3.853   3.117   1.169 -0.9618  0.2955  1.0393
 1152TIP3    H225016   3.776   3.011   1.244  0.2089 -1.6595 -0.4282
 1153TIP3   OH225017   2.719   2.069   0.990  0.1138  0.7830 -0.2690
 1153TIP3    H125018   2.783   2.091   0.922  0.1030  1.9664  0.0917
 1153TIP3    H225019   2.657   2.142   0.989 -1.9453 -0.8414 -1.4197
 1154TIP3   OH225020   0.312   3.774   6.353 -0.1058 -0.4057  0.2509
 1154TIP3    H125021   0.349   3.696   6.393 -1.6198 -1.8469 -1.0265
 1154TIP3    H225022   0.252   3.809   6.420  2.4812  1.2868  1.8678
 1155TIP3   OH225023   1.049   5.176   8.063 -0.6033  0.0282  0.6140
 1155TIP3    H125024   1.135   5.206   8.093 -1.6712  1.5344  2.4350
 1155TIP3    H225025   1.002   5.153   8.144 -2.1677  0.0176 -0.2524
 1156TIP3   OH225026   5.482   0.547   8.380  0.5760 -0.3556  1.0041
 1156TIP3    H125027   5.424   0.473   8.393  1.2760 -0.5974  3.1491
 1156TIP3    H225028   5.449   0.614   8.441  1.6484  0.0214  1.1909
 1157TIP3   OH225029   6.245   6.785   7.430  0.1647 -0.0769 -0.0613
 1157TIP3    H125030   6.315   6.726   7.404  0.6046  0.4593 -0.1301
 1157TIP3    H225031   6.290   6.859   7.471 -0.4522 -0.4385  1.3295
 1158TIP3   OH225032   6.436   6.177   7.879  0.2735 -0.0166 -0.1388
 1158TIP3    H125033   6.500   6.106   7.877 -0.2657 -0.5656  0.9055
 1158TIP3    H225034   6.351   6.133   7.870 -0.1440  0.3348  1.5653
 1159TIP3   OH225035   1.610   4.896   1.153 -0.3747  0.4909  0.1802
 1159TIP3    H125036   1.691   4.900   1.103 -0.3498 -0.8110  0.0729
 1159TIP3    H225037   1.552   4.842   1.100 -1.4888  1.7879  0.0431
 1160TIP3   OH225038   3.389   4.382   1.915  0.0392  0.0912  0.3801
 1160TIP3    H125039   3.419   4.350   1.830 -0.5693  2.2823 -0.7455
 1160TIP3    H225040   3.299   4.350   1.922 -0.3069  0.8716 -0.3690
 1161TIP3   OH225041   5.273   4.881   0.668  0.5260  0.1387 -0.1277
 1161TIP3    H125042   5.336   4.816   0.697 -1.3864 -1.5786  0.4621
 1161TIP3    H225043   5.325   4.949   0.625  2.7502 -0.9722  0.6810
 1162TIP3   OH225044   0.892   4.628   2.109  0.1148  0.3186 -0.0011
 1162TIP3    H125045   0.851   4.672   2.183  0.1009 -0.2418  0.3231
 1162TIP3    H225046   0.908   4.539   2.139  0.8209  0.3017 -0.4077
 1163TIP3   OH225047   2.810   3.438   7.615 -0.2412 -0.3868 -0.6569
 1163TIP3    H125048   2.819   3.366   7.552 -0.5376  0.1192 -1.2877
 1163TIP3    H225049   2.722   3.428   7.651 -0.6505  0.2244 -1.4643
 1164TIP3   OH225050   1.498   4.797   0.660 -0.1397  0.4716 -0.3550
 1164TIP3    H125051   1.488   4.707   0.691 -1.8718  0.2207 -1.4949
 1164TIP3    H225052   1.413   4.818   0.621 -0.4160  3.2250  1.4371
 1165TIP3   OH225053   0.235   3.722   1.853  0.5006  0.9390 -0.2454
 1165TIP3    H125054   0.238   3.802   1.801 -0.2661 -0.2216 -2.1425
 1165TIP3    H225055   0.159   3.733   1.910  0.0166  1.2719 -0.9539
 1166TIP3   OH225056   1.697   5.620   7.611  0.3112  0.5159 -0.3572
 1166TIP3    H125057   1.630   5.585   7.670  1.4508 -0.8062  0.1956
 1166TIP3    H225058   1.722   5.704   7.651 -0.2969  0.5515 -0.0311
 1167TIP3   OH225059   1.220   3.810   7.450 -0.4549 -0.1479 -0.6959
 1167TIP3    H125060   1.201   3.846   7.363 -1.3899  1.5654  0.1519
 1167TIP3    H225061   1.134   3.783   7.483 -0.1144 -0.7290 -0.2878
 1168TIP3   OH225062   5.855   6.423   0.272  0.1357 -0.2869 -0.2515
 1168TIP3    H125063   5.800   6.360   0.227 -0.5034  0.3572 -0.4030
 1168TIP3    H225064   5.863   6.389   0.361 -0.2046 -0.5776 -0.3300
 1169TIP3   OH225065   5.249   3.627   7.761  0.1226  0.1644 -0.0330
 1169TIP3    H125066   5.297   3.679   7.826  0.1123  1.6170 -1.1301
 1169TIP3    H225067   5.187   3.576   7.813  0.3926  0.9728  1.1389
 1170TIP3   OH225068   6.149   5.600   0.116  0.3734 -0.1663 -0.0164
 1170TIP3    H125069   6.100   5.616   0.035 -1.4753 -3.2840  0.3342
 1170TIP3    H225070   6.224   5.548   0.089 -0.4206 -1.4910  0.2414
 1171TIP3   OH225071   3.122   3.579   8.550  0.0282 -0.0380  0.2462
 1171TIP3    H125072   3.176   3.604   8.474  0.6728  0.3823  0.8280
 1171TIP3    H225073   3.158   3.495   8.578 -0.9315 -0.7458 -0.5746
 1172TIP3   OH225074   3.651   6.197   0.293  0.3807 -0.4372 -0.0366
 1172TIP3    H125075   3.590   6.136   0.251 -0.0033  0.3788 -0.7058
 1172TIP3    H225076   3.594   6.265   0.330  0.8627  0.2771 -0.5831
 1173TIP3   OH225077   3.000   4.251   0.882 -0.5214  0.0142 -0.2452
 1173TIP3    H125078   2.925   4.294   0.841  0.4386  0.7650 -1.2848
 1173TIP3    H225079   3.020   4.306   0.958 -0.1273  0.6752 -0.8119
 1174TIP3   OH225080   1.284   3.220   1.475 -0.6929 -0.2712  0.5036
 1174TIP3    H125081   1.222   3.179   1.536  1.6784 -1.8204  2.0241
 1174TIP3    H225082   1.314   3.147   1.421  2.3717 -0.3766  2.1472
 1175TIP3   OH225083   2.546   1.189   1.406 -0.3963  0.0384 -0.1917
 1175TIP3    H125084   2.575   1.204   1.496  0.6921 -0.9798 -0.3457
 1175TIP3    H225085   2.451   1.182   1.413 -0.3997  0.7733  0.7510
 1176TIP3   OH225086   4.072   4.793   6.509 -0.4748 -0.1873 -0.3187
 1176TIP3    H125087   4.010   4.725   6.483 -0.1288 -0.7340  0.2578
 1176TIP3    H225088   4.031   4.875   6.481 -1.0806 -0.6004 -0.6663
 1177TIP3   OH225089   6.389   2.664   8.064 -0.7287 -0.3192  0.0508
 1177TIP3    H125090   6.481   2.671   8.088 -0.7282  2.3388 -0.3877
 1177TIP3    H225091   6.346   2.628   8.141  0.5685 -0.9320  0.5119
 1178TIP3   OH225092   2.884   1.427   1.418 -0.2693  0.2387 -0.0484
 1178TIP3    H125093   2.872   1.508   1.368  0.5193  0.2960 -0.1576
 1178TIP3    H225094   2.828   1.437   1.494 -0.1734  0.8945 -0.0565
 1179TIP3   OH225095   2.392   1.157   7.601  0.7717 -0.7473 -0.3070
 1179TIP3    H125096   2.313   1.201   7.634 -0.0150 -0.8875 -1.8986
 1179TIP3    H225097   2.379   1.153   7.506  3.4085  0.6017 -0.8021
 1180TIP3   OH225098   0.805   0.720   7.116 -0.1869  0.1456  0.0986
 1180TIP3    H125099   0.896   0.716   7.085 -0.1720  1.2574 -0.0431
 1180TIP3    H225100   0.812   0.700   7.210  0.2494  0.5851  0.1635
 1181TIP3   OH225101   6.893   2.711   1.353 -0.2944  0.3989  0.3302
 1181TIP3    H125102   6.857   2.626   1.378  0.0977  0.2914  0.5415
 1181TIP3    H225103   6.974   2.718   1.404  0.3550  0.3214 -0.6582
 1182TIP3   OH225104   2.449   0.534   0.555 -0.2624  0.2742  0.4124
 1182TIP3    H125105   2.422   0.556   0.466 -1.1448  0.8433  0.8109
 1182TIP3    H225106   2.427   0.611   0.607  0.0203 -0.1424  1.1658
 1183TIP3   OH225107   0.359   2.868   1.647 -0.0069  0.2555 -0.7664
 1183TIP3    H125108   0.411   2.839   1.722 -0.1286  1.2492 -0.2795
 1183TIP3    H225109   0.424   2.898   1.583  0.0451  2.2320  0.1491
 1184TIP3   OH225110   6.013   3.014   8.321  0.1357  0.3487 -0.0123
 1184TIP3    H125111   5.985   2.953   8.390 -0.1794 -0.5535 -0.9137
 1184TIP3    H225112   5.974   3.098   8.347 -3.8527 -0.8537 -1.3407
 1185TIP3   OH225113   2.492   2.578   0.178 -0.2429  0.0547  0.3914
 1185TIP3    H125114   2.528   2.512   0.238  3.2808  0.7475 -0.7163
 1185TIP3    H225115   2.526   2.554   0.092 -1.9658  1.2630 -0.6969
 1186TIP3   OH225116   4.170   2.195   6.818  0.6593 -0.1055 -0.3149
 1186TIP3    H125117   4.201   2.179   6.907 -0.0137  1.0039  0.1502
 1186TIP3    H225118   4.245   2.233   6.773  0.2751  1.8692  0.5911
 1187TIP3   OH225119   4.218   1.261   7.495 -0.2423  0.0498  0.6636
 1187TIP3    H125120   4.308   1.287   7.518  0.4032 -3.0339  2.2817
 1187TIP3    H225121   4.209   1.174   7.534 -3.6364 -0.1599 -0.3418
 1188TIP3   OH225122   0.818   5.961   1.931  0.9496  0.1965 -0.0177
 1188TIP3    H125123   0.724   5.976   1.941  0.7839 -0.7294 -0.0634
 1188TIP3    H225124   0.824   5.872   1.895  1.8519  0.1434  0.2372
 1189TIP3   OH225125   0.351   1.918   0.382  0.1113  0.0144 -0.6500
 1189TIP3    H125126   0.404   1.848   0.419 -0.7585 -0.2825  0.0766
 1189TIP3    H225127   0.380   1.997   0.427 -0.3173 -0.2064  0.0327
 1190TIP3   OH225128   2.232   0.236   1.256  0.2775  0.0432  0.0632
 1190TIP3    H125129   2.198   0.326   1.256  0.5180  0.1731 -1.8614
 1190TIP3    H225130   2.305   0.238   1.194  0.3201 -1.4766  0.0298
 1191TIP3   OH225131   0.258   1.662   1.822 -0.0213 -0.0455 -0.5061
 1191TIP3    H125132   0.168   1.693   1.818 -0.0901 -0.2879 -0.8906
 1191TIP3    H225133   0.297   1.708   1.896 -0.5280 -0.1223 -0.1941
 1192TIP3   OH225134   2.189   6.814   0.179 -0.0960  0.0861 -0.2080
 1192TIP3    H125135   2.106   6.825   0.133  0.6086  2.9685 -1.0018
 1192TIP3    H225136   2.188   6.882   0.247  1.3464 -0.2306  0.1682
 1193TIP3   OH225137   0.254   4.262   1.259 -0.1431 -0.7020 -0.1612
 1193TIP3    H125138   0.248   4.342   1.312 -0.0501 -0.4709 -0.4959
 1193TIP3    H225139   0.164   4.246   1.231 -0.1773 -0.7697 -0.0136
 1194TIP3   OH225140   0.749   5.503   7.292  0.0363 -0.0652  0.0698
 1194TIP3    H125141   0.834   5.530   7.324  0.2488  1.8865 -1.8840
 1194TIP3    H225142   0.768   5.451   7.214 -0.5451 -0.8523  0.4349
 1195TIP3   OH225143   0.104   6.409   2.541 -0.0834  0.0433 -0.3835
 1195TIP3    H125144   0.090   6.373   2.454 -0.1403 -0.0184 -0.3487
 1195TIP3    H225145   0.028   6.465   2.557  0.3962  0.8218 -0.7635
 1196TIP3   OH225146   4.023   1.672   8.468 -0.0071 -0.3821  0.1124
 1196TIP3    H125147   3.963   1.598   8.460 -1.0574  0.5656 -1.4244
 1196TIP3    H225148   3.967   1.749   8.458  1.2590  0.5771  0.1092
 1197TIP3   OH225149   5.632   1.254   2.098 -0.0228 -0.4876 -0.0908
 1197TIP3    H125150   5.726   1.268   2.099 -0.1092  0.3457 -1.1933
 1197TIP3    H225151   5.619   1.168   2.139  1.1536 -0.3717  0.5521
 1198TIP3   OH225152   6.818   4.903   8.051 -0.3135  0.7087  0.2345
 1198TIP3    H125153   6.805   4.861   8.136  1.5025 -0.7518 -0.1555
 1198TIP3    H225154   6.882   4.972   8.069  0.9455 -0.3367 -0.1133
 1199TIP3   OH225155   2.627   4.263   0.991 -0.2472  0.5813  0.1569
 1199TIP3    H125156   2.601   4.336   1.048 -2.7557  0.5964 -0.8621
 1199TIP3    H225157   2.658   4.305   0.911 -3.8260  0.7351 -1.3477
 1200TIP3   OH225158   1.431   2.294   7.630  0.1868 -0.1715 -0.0343
 1200TIP3    H125159   1.381   2.309   7.550 -0.1300  2.1474  0.5279
 1200TIP3    H225160   1.381   2.338   7.699  1.9024  0.4155  0.9101
 1201TIP3   OH225161   0.297   5.216   7.140 -0.2976 -0.1216  0.2943
 1201TIP3    H125162   0.323   5.172   7.059  0.2233  2.2784 -0.9138
 1201TIP3    H225163   0.377   5.255   7.173 -0.5434 -0.9310  1.9255
 1202TIP3   OH225164   5.318   5.421   0.655 -0.5534  0.1032 -0.1267
 1202TIP3    H125165   5.306   5.390   0.745 -0.6678  0.0219 -0.1685
 1202TIP3    H225166   5.316   5.516   0.662  2.1616  0.1832  0.3183
 1203TIP3   OH225167   1.696   1.230   1.454 -0.1090  0.0275  0.3365
 1203TIP3    H125168   1.718   1.153   1.506  0.0945 -0.2065 -0.0882
 1203TIP3    H225169   1.608   1.254   1.482  0.5961  0.8965  1.9792
 1204TIP3   OH225170   0.156   0.654   1.877 -0.1467  0.4269  0.0859
 1204TIP3    H125171   0.075   0.666   1.926  0.4343  0.2555  1.1218
 1204TIP3    H225172   0.142   0.573   1.827 -1.5044  1.6407 -1.6594
 1205TIP3   OH225173   3.645   2.244   0.407  0.1758 -0.3091 -0.2362
 1205TIP3    H125174   3.715   2.238   0.342  0.4210 -1.8317  0.1239
 1205TIP3    H225175   3.626   2.153   0.430 -1.8336  0.0634 -0.2238
 1206TIP3   OH225176   1.376   6.630   7.037 -0.4208  0.2508 -0.1756
 1206TIP3    H125177   1.322   6.553   7.022 -1.5745  1.2331 -1.2292
 1206TIP3    H225178   1.443   6.626   6.969  0.1600 -0.3450  0.4112
 1207TIP3   OH225179   4.003   4.840   1.800 -0.2630  0.3056  0.0013
 1207TIP3    H125180   4.053   4.895   1.740 -0.3281  0.3871  0.0209
 1207TIP3    H225181   4.069   4.789   1.847 -0.0294  1.8217  1.4499
 1208TIP3   OH225182   5.089   0.854   6.694  0.4657 -0.6192 -0.3344
 1208TIP3    H125183   5.144   0.846   6.617 -0.0272 -3.1164 -0.5022
 1208TIP3    H225184   5.142   0.819   6.766  0.4744  0.5609  0.2636
 1209TIP3   OH225185   3.132   4.210   7.758 -0.4743 -0.2096 -0.0672
 1209TIP3    H125186   3.095   4.297   7.770  0.6311  0.4928 -1.4001
 1209TIP3    H225187   3.218   4.214   7.801 -1.0688 -1.1679  1.2518
 1210TIP3   OH225188   5.589   4.625   0.044  0.3190  0.7010  0.0482
 1210TIP3    H125189   5.519   4.633  -0.020  2.0550  1.1950 -1.9106
 1210TIP3    H225190   5.602   4.531   0.054 -0.7514  0.5975  0.6460
 1211TIP3   OH225191   6.354   2.732   0.335  0.1607 -0.5729  0.5197
 1211TIP3    H125192   6.261   2.743   0.317  0.0711  0.0385  1.3276
 1211TIP3    H225193   6.394   2.719   0.248 -0.1980  2.6789 -0.2764
 1212TIP3   OH225194   2.082   6.253   1.837 -0.1814 -0.1171 -0.0296
 1212TIP3    H125195   2.145   6.203   1.784  0.7387 -0.2570  1.1637
 1212TIP3    H225196   2.045   6.316   1.776 -1.7367 -2.5183 -1.7300
 1213TIP3   OH225197   5.446   4.639   1.901  0.1145 -0.0770  0.0344
 1213TIP3    H125198   5.485   4.726   1.897  0.7480 -0.3506  0.1639
 1213TIP3    H225199   5.509   4.583   1.856 -0.1602 -0.5183  0.1972
 1214TIP3   OH225200   4.075   4.910   6.197  0.1526  0.2581  0.0666
 1214TIP3    H125201   3.997   4.909   6.252 -0.6933  2.4808 -0.9807
 1214TIP3    H225202   4.048   4.866   6.116  1.0965 -2.0902  0.9205
 1215TIP3   OH225203   5.227   5.161   0.453 -0.0230  0.1170 -0.1050
 1215TIP3    H125204   5.284   5.087   0.433 -0.1378 -0.1030  0.3641
 1215TIP3    H225205   5.143   5.138   0.413  0.0588  0.1845 -0.3158
 1216TIP3   OH225206   4.910   1.446   0.005 -0.0429 -0.2065  0.4707
 1216TIP3    H125207   4.937   1.467   0.094  1.8688 -0.2823 -0.0451
 1216TIP3    H225208   4.874   1.527  -0.029 -1.9233 -0.4670  1.6376
 1217TIP3   OH225209   4.159   4.068   6.690  0.2473  0.1091  0.1359
 1217TIP3    H125210   4.197   4.090   6.605  0.2284  2.9165  0.7611
 1217TIP3    H225211   4.223   4.098   6.754 -0.1625 -1.0833  1.1511
 1218TIP3   OH225212   2.323   0.273   0.158 -0.5815  0.3677  0.4086
 1218TIP3    H125213   2.375   0.282   0.078 -0.0440 -1.3608  0.5372
 1218TIP3    H225214   2.232   0.268   0.126 -0.5987  1.9015  0.0966
 1219TIP3   OH225215   4.217   1.036   1.112 -0.0486  0.1440 -0.0837
 1219TIP3    H125216   4.234   1.122   1.150 -1.1140 -0.3151  1.5674
 1219TIP3    H225217   4.274   0.977   1.162 -0.5215 -0.3059 -0.0657
 1220TIP3   OH225218   0.314   5.051   7.456  0.0469  0.3289 -0.5887
 1220TIP3    H125219   0.226   5.023   7.431  0.0624  0.6272 -0.9856
 1220TIP3    H225220   0.314   5.145   7.441  0.1815  0.4562  0.1717
 1221TIP3   OH225221   6.388   5.273   0.802  0.7364  0.3938 -0.0750
 1221TIP3    H125222   6.464   5.217   0.823  1.1154  0.7842 -0.3925
 1221TIP3    H225223   6.380   5.331   0.878  0.0895 -0.3578  0.4384
 1222TIP3   OH225224   0.844   6.284   7.602  0.1553  0.5083 -1.1280
 1222TIP3    H125225   0.903   6.244   7.538  0.2383 -0.1191 -0.6710
 1222TIP3    H225226   0.898   6.347   7.649  0.7488 -0.7404 -0.0601
 1223TIP3   OH225227   4.952   2.188   6.639 -0.6767 -0.4187  0.1780
 1223TIP3    H125228   4.979   2.172   6.549 -0.5575 -0.3068  0.1925
 1223TIP3    H225229   5.022   2.149   6.692  0.4894  1.5658  0.2112
 1224TIP3   OH225230   6.352   2.448   2.362  0.5304 -0.3767 -0.2517
 1224TIP3    H125231   6.440   2.410   2.359  1.3928  1.4989 -0.1218
 1224TIP3    H225232   6.355   2.520   2.300  0.8165  3.0300  3.3468
 1225TIP3   OH225233   0.219   0.017   6.837 -0.2302  0.0309 -0.0196
 1225TIP3    H125234   0.257   0.018   6.925 -1.6025  0.1105  0.5883
 1225TIP3    H225235   0.275   0.076   6.786  0.6888 -0.1661  0.7379
 1226TIP3   OH225236   0.118   2.385   6.926 -0.2995 -0.2770 -0.4739
 1226TIP3    H125237   0.061   2.312   6.901  0.3189 -0.9639  0.1179
 1226TIP3    H225238   0.191   2.345   6.973 -1.6821  0.9657  3.0983
 1227TIP3   OH225239   5.880   2.669   0.807  0.2649 -0.3246  0.0766
 1227TIP3    H125240   5.969   2.639   0.825  0.5057  0.4176  0.1777
 1227TIP3    H225241   5.885   2.705   0.718  0.1779  0.1123  0.2454
 1228TIP3   OH225242   2.529   2.690   6.563 -0.1614  0.2590  0.1172
 1228TIP3    H125243   2.618   2.655   6.569 -1.2561 -2.6938  0.5194
 1228TIP3    H225244   2.542   2.783   6.543  2.9975  0.1467  1.0575
 1229TIP3   OH225245   0.490   4.788   0.273  0.0310 -0.3448 -0.0383
 1229TIP3    H125246   0.412   4.834   0.304  0.0037 -0.5620  0.2169
 1229TIP3    H225247   0.513   4.729   0.344  0.5067 -0.1859 -0.0561
 1230TIP3   OH225248   0.366   3.726   7.188  0.0332 -0.0266 -0.0919
 1230TIP3    H125249   0.331   3.660   7.248 -0.5912  0.4217  0.0488
 1230TIP3    H225250   0.457   3.736   7.214 -0.2734  0.2856  0.9004
 1231TIP3   OH225251   3.278   1.603   0.939  0.2942 -0.3877  0.3200
 1231TIP3    H125252   3.363   1.642   0.919 -0.1994  0.1145 -0.9219
 1231TIP3    H225253   3.226   1.675   0.975 -0.4267  0.0272 -1.4196
 1232TIP3   OH225254   4.338   1.234   8.052  0.2054 -0.9073  0.4335
 1232TIP3    H125255   4.251   1.196   8.060 -0.8079  1.1423 -0.3560
 1232TIP3    H225256   4.377   1.190   7.976 -0.9594 -0.3705 -0.5016
 1233TIP3   OH225257   6.011   3.326   7.419  0.1430 -0.1204  0.2430
 1233TIP3    H125258   6.105   3.308   7.432 -0.2265 -0.1915  3.7791
 1233TIP3    H225259   6.007   3.419   7.395  1.0654  0.3247  1.7191
 1234TIP3   OH225260   6.545   2.980   0.011 -0.3602  0.1828 -0.8769
 1234TIP3    H125261   6.450   2.985   0.006 -0.3527  2.4206  0.0241
 1234TIP3    H225262   6.575   2.998  -0.078 -0.7600 -0.3316 -1.1210
 1235TIP3   OH225263   1.035   0.500   0.147 -0.2348 -0.3889 -0.0156
 1235TIP3    H125264   1.104   0.530   0.205 -0.2434  0.8510 -0.6061
 1235TIP3    H225265   0.984   0.579   0.127 -1.0993 -1.0532 -0.5420
 1236TIP3   OH225266   3.371   6.648   7.709 -0.1225  0.7175  0.4344
 1236TIP3    H125267   3.308   6.708   7.668 -0.0630  0.3288 -0.2472
 1236TIP3    H225268   3.328   6.563   7.705  0.5582  0.3894 -0.3242
 1237TIP3   OH225269   0.229   6.558   1.063  0.0519  0.8949 -0.0862
 1237TIP3    H125270   0.145   6.514   1.053 -0.1084  1.3933 -1.0354
 1237TIP3    H225271   0.207   6.643   1.102  0.3005  0.4048  1.1883
 1238TIP3   OH225272   5.883   0.759   0.748  0.5180  0.3528 -0.2759
 1238TIP3    H125273   5.921   0.846   0.746 -1.5805  1.3432 -0.1664
 1238TIP3    H225274   5.788   0.774   0.739  0.0162 -1.8426  0.6756
 1239TIP3   OH225275   0.996   0.680   0.397 -0.8543 -0.5023  0.4377
 1239TIP3    H125276   0.932   0.644   0.459 -0.3278  0.1437  1.3684
 1239TIP3    H225277   1.079   0.681   0.445 -0.4567  0.1118 -0.2376
 1240TIP3   OH225278   3.963   6.428   2.496 -0.5707  0.3516 -0.5660
 1240TIP3    H125279   3.959   6.355   2.558  2.0356  1.8989  1.6590
 1240TIP3    H225280   3.977   6.387   2.411 -2.1116 -1.7897  0.1334
 1241TIP3   OH225281   1.408   1.697   6.669  0.2144 -0.0649  0.5407
 1241TIP3    H125282   1.325   1.744   6.679 -0.4824 -1.2156  0.2820
 1241TIP3    H225283   1.390   1.610   6.704  1.1900 -0.4652  0.0654
 1242TIP3   OH225284   0.622   6.447   0.517 -0.4365  0.1364 -0.4486
 1242TIP3    H125285   0.708   6.483   0.497 -0.5403  0.9188  0.4331
 1242TIP3    H225286   0.639   6.384   0.587 -0.7024  1.1823  0.6013
 1243TIP3   OH225287   0.301   0.487   0.493 -0.4875 -0.3487 -0.5425
 1243TIP3    H125288   0.294   0.406   0.443  0.8990  0.0947 -1.5266
 1243TIP3    H225289   0.242   0.548   0.448 -1.1017 -0.6425 -0.1422
 1244TIP3   OH225290   0.423   4.320   2.016  0.1302  0.3087  0.3932
 1244TIP3    H125291   0.500   4.264   2.027  0.1916  0.4387  0.6382
 1244TIP3    H225292   0.410   4.359   2.103 -0.8395 -0.5294  0.6513
 1245TIP3   OH225293   4.920   1.993   0.723  0.1425  0.8045  0.3980
 1245TIP3    H125294   4.851   2.011   0.787 -1.2231 -2.2262 -0.0720
 1245TIP3    H225295   4.876   1.944   0.654  2.3040  0.9898 -1.2004
 1246TIP3   OH225296   2.869   1.871   2.362  0.1214 -0.0673  0.7566
 1246TIP3    H125297   2.816   1.926   2.420 -0.2392 -1.1932  1.5284
 1246TIP3    H225298   2.878   1.788   2.409  0.2328 -0.8466 -0.5795
 1247TIP3   OH225299   4.299   1.511   1.930 -0.0618 -0.2223  0.0451
 1247TIP3    H125300   4.257   1.529   1.846  1.8052 -2.9678 -1.6143
 1247TIP3    H225301   4.238   1.451   1.974 -0.4774  0.2537  0.1233
 1248TIP3   OH225302   4.037   3.380   1.741  0.0095 -0.2395 -0.0020
 1248TIP3    H125303   4.061   3.436   1.815  0.6668 -3.3806  2.3696
 1248TIP3    H225304   3.943   3.366   1.751 -0.3947  1.2380 -1.2916
 1249TIP3   OH225305   3.070   0.035   6.498  0.0089 -0.6094  0.4709
 1249TIP3    H125306   3.013   0.104   6.465  1.0192  0.1913  0.3605
 1249TIP3    H225307   3.132   0.080   6.555  2.6413 -0.8407 -1.9462
 1250TIP3   OH225308   5.511   3.777   8.487  0.3574  0.1563  0.7006
 1250TIP3    H125309   5.514   3.761   8.581  2.4556 -0.1175  0.6208
 1250TIP3    H225310   5.581   3.723   8.451  0.9760  1.8618 -0.7873
 1251TIP3   OH225311   2.107   6.840   7.582 -0.1950 -0.1888  0.2804
 1251TIP3    H125312   2.178   6.850   7.519 -1.3091  2.4130 -0.6946
 1251TIP3    H225313   2.150   6.828   7.666  1.3245 -2.3953 -0.7120
 1252TIP3   OH225314   5.945   1.877   1.523  0.3062 -0.3320 -0.4786
 1252TIP3    H125315   5.939   1.903   1.615 -1.6014 -0.0719 -0.6358
 1252TIP3    H225316   5.863   1.830   1.506  0.8793 -0.8703 -1.9015
 1253TIP3   OH225317   3.269   6.872   8.350  0.4865  0.9016 -0.1583
 1253TIP3    H125318   3.364   6.870   8.340  0.7204  1.0480  1.7487
 1253TIP3    H225319   3.250   6.958   8.389 -0.1199 -0.1559  1.9990
 1254TIP3   OH225320   5.430   5.900   7.699 -0.2538  0.0080  0.0070
 1254TIP3    H125321   5.379   5.920   7.620 -1.9178  2.3890  1.5611
 1254TIP3    H225322   5.502   5.845   7.667 -0.3340  1.5696 -3.3230
 1255TIP3   OH225323   0.598   0.797   7.621  0.2395 -0.5092  0.3280
 1255TIP3    H125324   0.653   0.731   7.663  0.8133 -0.1668  0.1355
 1255TIP3    H225325   0.536   0.824   7.688  0.3170 -0.8903  0.5544
 1256TIP3   OH225326   3.465   0.463   0.746 -0.4410 -0.5722 -0.1150
 1256TIP3    H125327   3.471   0.410   0.825  0.2593  2.1880  1.8474
 1256TIP3    H225328   3.551   0.455   0.705 -0.1922 -0.6063  0.4002
 1257TIP3   OH225329   0.484   0.031   7.649 -0.0463  0.0511 -0.6053
 1257TIP3    H125330   0.441  -0.052   7.629 -1.2551  0.7508 -1.0474
 1257TIP3    H225331   0.491   0.032   7.745 -3.1785  0.8697 -0.2572
 1258TIP3   OH225332   1.470   3.592   1.458 -0.1040  0.1238  0.7765
 1258TIP3    H125333   1.550   3.591   1.405 -0.5266  0.0654  0.1226
 1258TIP3    H225334   1.475   3.673   1.508  0.6275 -0.1497  1.1520
 1259TIP3   OH225335   1.141   6.261   7.553  0.0659  0.2814  0.3355
 1259TIP3    H125336   1.107   6.325   7.616 -0.8704 -0.2276  0.3664
 1259TIP3    H225337   1.215   6.305   7.511  1.9581 -0.0011  3.0940
 1260TIP3   OH225338   1.441   6.804   1.808  0.0053 -0.2491 -0.0621
 1260TIP3    H125339   1.485   6.889   1.814 -1.2865  0.4245  0.3928
 1260TIP3    H225340   1.396   6.807   1.723 -2.5282  0.8462  1.2049
 1261TIP3   OH225341   4.629   0.700   6.661  0.0747  0.1541  0.4778
 1261TIP3    H125342   4.700   0.683   6.599 -0.2300 -3.3024  0.9051
 1261TIP3    H225343   4.673   0.732   6.740  0.8519  0.5840 -0.1088
 1262TIP3   OH225344   3.069   3.003   8.029 -0.3447  0.1325 -0.3682
 1262TIP3    H125345   3.102   3.031   7.944 -1.3189  0.5591 -0.6077
 1262TIP3    H225346   2.985   2.962   8.011 -0.1185 -0.6521  0.2833
 1263TIP3   OH225347   4.922   0.103   8.173  0.2816 -0.5925  0.5900
 1263TIP3    H125348   4.865   0.111   8.249  0.7614  1.3991  0.7969
 1263TIP3    H225349   4.863   0.078   8.102 -0.9289  1.4299  0.7924
 1264TIP3   OH225350   4.704   5.444   6.903  0.2196 -0.9927 -0.0723
 1264TIP3    H125351   4.647   5.408   6.835 -0.5094  1.1779 -0.7044
 1264TIP3    H225352   4.782   5.389   6.902 -0.3133 -1.7764 -1.7975
 1265TIP3   OH225353   1.109   1.849   0.307  0.3796  0.0593 -0.1711
 1265TIP3    H125354   1.201   1.848   0.333  0.6939 -1.1443 -1.2092
 1265TIP3    H225355   1.062   1.823   0.386  1.0027 -0.1445  0.1450
 1266TIP3   OH225356   2.058   1.633   1.276  0.7393 -0.2485 -0.4891
 1266TIP3    H125357   2.021   1.721   1.268 -2.6807 -1.6618 -1.9446
 1266TIP3    H225358   2.121   1.640   1.348 -0.2514  3.1036  0.2169
 1267TIP3   OH225359   6.140   3.917   0.162 -0.2637 -0.2868 -0.2743
 1267TIP3    H125360   6.220   3.889   0.118  1.2813  0.6653  1.7117
 1267TIP3    H225361   6.084   3.840   0.162  0.4666 -0.8702 -2.0735
 1268TIP3   OH225362   5.491   3.509   7.615  0.2863 -0.2978  0.0822
 1268TIP3    H125363   5.549   3.435   7.597 -0.1652 -1.0607  1.5767
 1268TIP3    H225364   5.431   3.476   7.682 -0.4945  1.1519  0.1268
 1269TIP3   OH225365   6.144   5.820   7.657 -0.5351  0.1101  0.3864
 1269TIP3    H125366   6.058   5.811   7.615 -1.4864  1.8218  1.7849
 1269TIP3    H225367   6.137   5.769   7.738 -0.3466  0.4787  0.6388
 1270TIP3   OH225368   3.851   5.648   7.272  0.3519  0.5485 -0.0404
 1270TIP3    H125369   3.940   5.644   7.237  0.6532 -1.6455  0.8146
 1270TIP3    H225370   3.795   5.655   7.195  1.2430  2.2047 -0.5790
 1271TIP3   OH225371   1.261   0.967   2.134 -0.3116  0.1527 -0.3941
 1271TIP3    H125372   1.246   0.976   2.040 -1.5988 -0.4527 -0.2636
 1271TIP3    H225373   1.203   1.032   2.174  1.2911  1.4341 -0.0475
 1272TIP3   OH225374   4.417   0.143   7.699 -0.3400 -0.2939 -0.0032
 1272TIP3    H125375   4.361   0.214   7.668 -0.3338  0.3078  1.2944
 1272TIP3    H225376   4.482   0.131   7.630 -0.0607  1.2886 -0.0522
 1273TIP3   OH225377   2.052   6.770   6.514 -0.1426 -0.2238 -0.1556
 1273TIP3    H125378   2.023   6.810   6.596 -1.8795  0.8632 -1.2165
 1273TIP3    H225379   2.137   6.811   6.496 -0.1101  0.1089  0.7200
 1274TIP3   OH225380   4.075   6.648   0.157 -0.3098  0.0489 -0.4161
 1274TIP3    H125381   3.980   6.644   0.159 -0.3098  0.2203  1.2099
 1274TIP3    H225382   4.104   6.559   0.176 -0.1552  0.1158 -0.3312
 1275TIP3   OH225383   3.942   5.114   1.495  0.1661 -0.3690  0.7857
 1275TIP3    H125384   3.981   5.198   1.519  1.5237 -0.7995  0.2033
 1275TIP3    H225385   3.851   5.134   1.473  1.0293  1.3584 -1.5869
 1276TIP3   OH225386   6.757   0.364   2.405  0.0831 -0.0953  0.4414
 1276TIP3    H125387   6.686   0.414   2.363  0.5889  0.0293 -0.2720
 1276TIP3    H225388   6.837   0.406   2.374  0.5622 -1.9875 -1.0309
 1277TIP3   OH225389   6.351   1.414   1.063 -0.1840  0.2527 -0.5187
 1277TIP3    H125390   6.446   1.422   1.056  0.0956 -0.6080  1.4598
 1277TIP3    H225391   6.336   1.320   1.075 -1.1404  0.5117  0.5132
 1278TIP3   OH225392   4.101   3.294   8.242  0.0591 -0.1142 -0.1738
 1278TIP3    H125393   4.066   3.376   8.277  1.1046 -0.5440  2.0574
 1278TIP3    H225394   4.160   3.262   8.310  1.9283 -1.2811 -2.2049
 1279TIP3   OH225395   2.261   4.757   8.482  0.6106  0.2674 -0.0161
 1279TIP3    H125396   2.357   4.753   8.475  0.5877  0.6636 -0.6436
 1279TIP3    H225397   2.236   4.674   8.521  1.0851 -0.4795 -1.2452
 1280TIP3   OH225398   0.452   6.401   1.032  0.4513  0.2602 -0.3768
 1280TIP3    H125399   0.498   6.478   1.064  0.5201 -0.2455  0.7617
 1280TIP3    H225400   0.361   6.416   1.056  0.6472 -0.5632  0.9894
 1281TIP3   OH225401   4.405   1.758   8.531  0.0409  0.0177 -0.0631
 1281TIP3    H125402   4.378   1.678   8.485 -0.9731 -0.8685  1.9236
 1281TIP3    H225403   4.335   1.821   8.513 -0.7054 -0.5491  0.7529
 1282TIP3   OH225404   6.347   5.809   1.135  0.4674 -0.4099  0.9003
 1282TIP3    H125405   6.382   5.856   1.210  4.0439 -1.5311  0.1108
 1282TIP3    H225406   6.355   5.871   1.062 -2.0810  0.3276  1.1549
 1283TIP3   OH225407   1.506   0.068   7.449  0.0799 -0.4265 -0.4204
 1283TIP3    H125408   1.543   0.157   7.448  0.3063 -0.5234 -1.6687
 1283TIP3    H225409   1.412   0.082   7.461  0.3847 -0.1586  2.2636
 1284TIP3   OH225410   2.074   1.785   0.509  0.0543  0.5530 -0.0444
 1284TIP3    H125411   2.014   1.723   0.551 -1.4363  1.1633 -1.1568
 1284TIP3    H225412   2.160   1.744   0.514 -0.3370 -0.1171  2.0971
 1285TIP3   OH225413   2.934   3.537   7.827  0.0778  0.0017  0.1162
 1285TIP3    H125414   3.017   3.490   7.824 -0.8439 -1.7455  0.4894
 1285TIP3    H225415   2.882   3.499   7.756 -1.3509 -0.9379  1.5715
 1286TIP3   OH225416   1.518   6.104   1.546 -0.0823  0.5332 -0.7741
 1286TIP3    H125417   1.593   6.144   1.590 -1.0016  0.6959  0.6933
 1286TIP3    H225418   1.489   6.035   1.605 -0.4741 -0.2056 -1.8068
 1287TIP3   OH225419   0.037   4.924   7.497  0.7994  0.4696  0.2941
 1287TIP3    H125420  -0.007   4.934   7.581  1.0507  1.2321  0.3448
 1287TIP3    H225421   0.003   4.843   7.461 -1.0746  1.3067  0.0798
 1288TIP3   OH225422   0.856   4.284   8.475 -0.4297  0.6093 -0.1293
 1288TIP3    H125423   0.842   4.333   8.394 -2.0639 -1.5436 -1.2641
 1288TIP3    H225424   0.827   4.195   8.454 -1.1596  0.0252  2.8864
 1289TIP3   OH225425   4.910   2.435   8.428 -0.2369  0.3791  0.1817
 1289TIP3    H125426   4.865   2.421   8.344 -1.1297  1.1472  0.5107
 1289TIP3    H225427   4.971   2.507   8.410 -1.5879  1.6904  0.5535
 1290TIP3   OH225428   3.588   5.026   8.283  0.3660 -0.0754 -0.6829
 1290TIP3    H125429   3.625   5.076   8.355 -0.7015  1.6483 -1.2791
 1290TIP3    H225430   3.663   5.003   8.228  0.7343  2.7502 -1.5189
 1291TIP3   OH225431   2.182   4.237   1.624  0.7952 -0.9156  0.1490
 1291TIP3    H125432   2.138   4.188   1.555 -0.8883 -0.5997  0.9505
 1291TIP3    H225433   2.191   4.326   1.590 -0.1030 -0.7412  0.3479
 1292TIP3   OH225434   0.574   5.745   0.397  0.1209  0.4038 -0.6962
 1292TIP3    H125435   0.558   5.840   0.398 -2.6587  0.0445 -1.1992
 1292TIP3    H225436   0.507   5.711   0.337 -0.0273 -2.0451  0.7412
 1293TIP3   OH225437   4.380   3.461   0.666  0.1400 -0.3201  0.5128
 1293TIP3    H125438   4.392   3.404   0.742  2.2110 -0.6112  0.0351
 1293TIP3    H225439   4.368   3.401   0.593  1.3661 -0.1649  0.1554
 1294TIP3   OH225440   2.743   1.353   8.372  0.7456 -0.1425  0.6645
 1294TIP3    H125441   2.823   1.309   8.403  0.8882 -0.2216  0.1913
 1294TIP3    H225442   2.762   1.375   8.281 -0.4526 -1.8008 -0.0299
 1295TIP3   OH225443   5.412   1.946   6.824 -0.1754 -0.1854 -0.1443
 1295TIP3    H125444   5.401   1.860   6.782 -1.8763 -0.1617  0.1870
 1295TIP3    H225445   5.408   1.928   6.918  0.9118  0.0979 -0.0321
 1296TIP3   OH225446   3.558   4.406   1.695 -0.0205 -0.0999 -0.8071
 1296TIP3    H125447   3.637   4.450   1.727 -0.7045 -0.0597  0.9707
 1296TIP3    H225448   3.588   4.350   1.624  2.0262 -1.7897  1.2451
 1297TIP3   OH225449   1.474   6.563   1.174 -0.1787 -0.0562  0.2167
 1297TIP3    H125450   1.518   6.649   1.171  0.7575 -0.4241  2.1551
 1297TIP3    H225451   1.524   6.509   1.112  0.8995  0.1022  0.9127
 1298TIP3   OH225452   4.307   5.784   7.185 -0.4883  0.2537  0.0293
 1298TIP3    H125453   4.370   5.720   7.151  1.3565  2.3429 -0.7349
 1298TIP3    H225454   4.328   5.792   7.278  0.9369  1.4741 -0.3670
 1299TIP3   OH225455   6.540   2.980   8.278  0.0555 -0.0165 -0.2229
 1299TIP3    H125456   6.529   2.998   8.184 -0.6032  0.5970 -0.0406
 1299TIP3    H225457   6.629   2.946   8.286 -0.6370 -2.2729 -1.3714
 1300TIP3   OH225458   2.098   3.031   1.072 -0.0672 -0.1779  0.4842
 1300TIP3    H125459   2.153   3.106   1.053 -1.6259  1.2880  1.4425
 1300TIP3    H225460   2.053   3.054   1.154 -0.6289 -2.1435  0.7979
 1301TIP3   OH225461   3.934   4.400   8.092  0.0041  0.0687  0.3409
 1301TIP3    H125462   3.930   4.308   8.065  0.2510 -0.5610  2.2740
 1301TIP3    H225463   3.936   4.449   8.010 -3.9585 -1.4065 -0.8796
 1302TIP3   OH225464   1.542   6.114   2.558  0.5931 -0.1781 -0.5830
 1302TIP3    H125465   1.532   6.189   2.616  2.6815  0.9211 -1.4897
 1302TIP3    H225466   1.483   6.047   2.592  0.9859  0.7708  2.1637
 1303TIP3   OH225467   2.647   3.741   8.128  0.4287  0.0396 -0.1546
 1303TIP3    H125468   2.715   3.804   8.150  0.3502 -0.0252  0.2906
 1303TIP3    H225469   2.627   3.698   8.211  0.3813 -0.4732 -0.4306
 1304TIP3   OH225470   5.341   5.047   8.394  0.0973 -0.4500  0.3228
 1304TIP3    H125471   5.345   5.129   8.345  0.0693 -0.7635 -0.2097
 1304TIP3    H225472   5.343   5.074   8.486  0.5146  0.1262  0.1528
 1305TIP3   OH225473   2.472   2.327   6.297 -0.3478  0.4888 -0.1369
 1305TIP3    H125474   2.451   2.419   6.311  0.2060  0.7143 -0.7274
 1305TIP3    H225475   2.565   2.326   6.275  0.2587 -0.4526  2.1484
 1306TIP3   OH225476   1.450   3.370   8.009  0.1269  0.3762 -0.0195
 1306TIP3    H125477   1.467   3.462   7.991  0.4309  0.3375  0.0678
 1306TIP3    H225478   1.504   3.350   8.086  0.5418 -0.0331 -0.4082
 1307TIP3   OH225479   1.125   2.473   6.531 -0.4269  0.8163 -0.7380
 1307TIP3    H125480   1.110   2.402   6.469 -0.7830 -0.4089  0.6797
 1307TIP3    H225481   1.115   2.552   6.480  1.1141 -0.1231 -2.6441
 1308TIP3   OH225482   1.021   3.265   8.249 -0.6325 -0.3704  0.6252
 1308TIP3    H125483   0.978   3.292   8.168  0.4387 -0.0698  0.1307
 1308TIP3    H225484   1.103   3.225   8.220  1.0351  2.0908  1.6140
 1309TIP3   OH225485   3.856   0.084   0.247  0.4585 -0.2671 -0.3757
 1309TIP3    H125486   3.798   0.120   0.315 -0.9914  0.3509 -1.8621
 1309TIP3    H225487   3.915   0.157   0.225 -1.2118  0.6996 -2.0091
 1310TIP3   OH225488   4.372   0.769   1.550  0.2910  0.0153 -0.3851
 1310TIP3    H125489   4.279   0.795   1.551  0.3140  0.1126 -0.6009
 1310TIP3    H225490   4.397   0.775   1.458  1.0109  1.8040 -0.1222
 1311TIP3   OH225491   3.584   6.430   1.453  0.1331 -0.4266  0.0178
 1311TIP3    H125492   3.621   6.503   1.503  1.0049 -0.3069 -0.7673
 1311TIP3    H225493   3.602   6.352   1.505  2.1319 -0.4550 -0.6542
 1312TIP3   OH225494   4.853   0.311   1.399 -0.6779  0.9060 -0.0339
 1312TIP3    H125495   4.899   0.343   1.323  0.6181 -0.0302  0.3193
 1312TIP3    H225496   4.787   0.251   1.364  1.2279 -1.1109 -0.3868
 1313TIP3   OH225497   4.229   6.648   8.445 -0.2215 -0.0567 -0.5026
 1313TIP3    H125498   4.232   6.623   8.538  0.5752  0.0127 -0.5035
 1313TIP3    H225499   4.296   6.594   8.404 -0.0673  0.4450 -0.9097
 1314TIP3   OH225500   5.718   5.007   8.512 -0.1544 -0.5129  0.2579
 1314TIP3    H125501   5.711   5.095   8.475 -0.4742 -0.7470 -0.2591
 1314TIP3    H225502   5.657   4.955   8.459  1.1723 -1.3847 -0.4684
 1315TIP3   OH225503   4.949   1.963   7.973 -0.2980  0.1721 -0.0892
 1315TIP3    H125504   4.998   1.897   7.925  0.0288  0.9790 -0.8803
 1315TIP3    H225505   5.012   2.000   8.035 -0.6546 -0.6950  0.8346
 1316TIP3   OH225506   4.699   6.202   1.020  0.4965  0.0987 -0.0164
 1316TIP3    H125507   4.719   6.249   1.101 -0.2732 -0.1721  0.3451
 1316TIP3    H225508   4.780   6.207   0.968  0.9331  0.4411  0.6833
 1317TIP3   OH225509   3.285   0.014   1.207 -0.2158  0.4765 -0.0214
 1317TIP3    H125510   3.288   0.107   1.188 -1.1469  0.4300 -0.4630
 1317TIP3    H225511   3.193  -0.005   1.223 -0.1796 -0.5450 -0.8907
 1318TIP3   OH225512   4.644   1.253   6.949 -0.7145 -0.2601  0.6591
 1318TIP3    H125513   4.631   1.313   6.875 -1.9552 -0.6746  0.5100
 1318TIP3    H225514   4.734   1.223   6.941 -0.5725  0.3623 -0.1922
 1319TIP3   OH225515   3.092   2.811   1.040 -0.1898 -0.2622  0.3074
 1319TIP3    H125516   3.142   2.876   1.090 -0.3822 -0.0962  0.2858
 1319TIP3    H225517   3.007   2.808   1.084 -0.8144  0.8186 -0.7665
 1320TIP3   OH225518   2.409   6.543   7.696  0.0565  0.0500  0.1385
 1320TIP3    H125519   2.480   6.523   7.756  1.6351  1.3234 -1.2213
 1320TIP3    H225520   2.439   6.512   7.611 -1.2461  0.1257 -0.3742
 1321TIP3   OH225521   6.882   5.941   6.783  0.0219 -0.2811  0.0638
 1321TIP3    H125522   6.867   5.847   6.781 -3.1918  0.1261 -1.5934
 1321TIP3    H225523   6.925   5.961   6.700  1.8299 -0.3636  0.9381
 1322TIP3   OH225524   2.262   3.294   6.700 -0.2526 -0.0306  0.0422
 1322TIP3    H125525   2.304   3.277   6.615  0.1424  0.7106  0.0838
 1322TIP3    H225526   2.233   3.208   6.730  1.7626 -0.6822  0.2783
 1323TIP3   OH225527   5.503   3.540   1.550  0.7250 -0.1639 -0.0100
 1323TIP3    H125528   5.589   3.581   1.554 -0.2242  1.8612  3.3401
 1323TIP3    H225529   5.504   3.476   1.621 -0.7545  0.4913  0.6453
 1324TIP3   OH225530   5.443   4.513   2.158  0.5410  0.0293  0.0742
 1324TIP3    H125531   5.461   4.550   2.072  0.4662  1.0608  0.4887
 1324TIP3    H225532   5.526   4.475   2.186  0.4095 -0.8404 -0.7002
 1325TIP3   OH225533   6.079   3.603   1.396 -0.4374  0.0185 -0.2911
 1325TIP3    H125534   6.011   3.669   1.415  0.0338  0.6027 -0.6102
 1325TIP3    H225535   6.113   3.627   1.310  0.5829  0.0838  0.1199
 1326TIP3   OH225536   4.943   3.172   1.380 -0.3929  0.5379  0.7945
 1326TIP3    H125537   4.963   3.099   1.438 -1.9225 -0.1107  0.5613
 1326TIP3    H225538   4.992   3.245   1.415  3.6433 -1.2048 -0.6724
 1327TIP3   OH225539   5.511   2.012   0.752 -0.0743  0.4514 -0.1370
 1327TIP3    H125540   5.566   2.058   0.690  0.8039 -1.3236 -0.7367
 1327TIP3    H225541   5.572   1.975   0.816 -0.6783 -0.4443 -0.0569
 1328TIP3   OH225542   4.926   6.750   0.337 -0.4941  0.7819  0.8683
 1328TIP3    H125543   4.982   6.672   0.336 -0.4595  0.8060 -0.1146
 1328TIP3    H225544   4.856   6.729   0.398 -1.4394 -0.7296 -0.6511
 1329TIP3   OH225545   4.151   5.985   6.724  0.0283 -0.1723  0.0915
 1329TIP3    H125546   4.105   6.061   6.760  0.4662 -0.3634  1.0782
 1329TIP3    H225547   4.104   5.910   6.760  1.1736 -0.3740  1.2356
 1330TIP3   OH225548   0.681   1.430   7.949  0.0077  0.6048  0.3791
 1330TIP3    H125549   0.684   1.412   7.855  0.6561  1.1508  0.2868
 1330TIP3    H225550   0.773   1.430   7.976 -0.1673  0.5904  0.9885
 1331TIP3   OH225551   6.766   0.042   8.487  0.1961 -0.1620  0.0817
 1331TIP3    H125552   6.673   0.053   8.467  0.2925  0.6250  0.0461
 1331TIP3    H225553   6.776   0.078   8.575  1.0412  2.8263 -1.1165
 1332TIP3   OH225554   6.148   4.153   8.524 -0.3892 -0.1720 -0.2730
 1332TIP3    H125555   6.147   4.090   8.596  1.6213  0.9835  0.8735
 1332TIP3    H225556   6.201   4.226   8.557  1.3059  0.0701 -3.1876
 1333TIP3   OH225557   6.673   0.434   0.364 -0.4153  0.1616 -0.2002
 1333TIP3    H125558   6.754   0.403   0.405  0.2839  0.4807 -1.2954
 1333TIP3    H225559   6.614   0.359   0.368  0.0960 -0.2312  0.1902
 1334TIP3   OH225560   2.689   6.095   2.740  0.4986 -0.3375 -0.1510
 1334TIP3    H125561   2.694   6.159   2.811  1.7949  0.2886 -0.7843
 1334TIP3    H225562   2.612   6.042   2.761  0.5793  0.1426  1.4541
 1335TIP3   OH225563   2.885   0.123   0.074 -0.2012  0.0221  0.8260
 1335TIP3    H125564   2.790   0.112   0.077 -0.3913  1.2552  0.1074
 1335TIP3    H225565   2.899   0.194   0.011  1.3028 -1.3030 -0.4208
 1336TIP3   OH225566   6.595   1.937   0.546 -0.2493  0.0615  0.0202
 1336TIP3    H125567   6.510   1.912   0.583 -0.4238  0.6004  0.0028
 1336TIP3    H225568   6.586   2.031   0.529 -0.6813 -0.3811 -2.7064
 1337TIP3   OH225569   1.276   0.181   0.194  0.0774  0.4438  0.5692
 1337TIP3    H125570   1.201   0.237   0.211 -0.9275 -1.0182  1.2026
 1337TIP3    H225571   1.286   0.129   0.274  0.9339 -0.2989  0.0022
 1338TIP3   OH225572   4.220   2.861   0.177 -0.3178  0.0852 -0.6700
 1338TIP3    H125573   4.125   2.873   0.181 -0.5006 -1.3562  0.1485
 1338TIP3    H225574   4.255   2.926   0.238 -0.7617  0.7246 -1.0842
 1339TIP3   OH225575   0.333   0.819   0.530  0.6979 -0.5471 -0.1797
 1339TIP3    H125576   0.334   0.772   0.614 -0.0701  1.4693  1.0227
 1339TIP3    H225577   0.264   0.775   0.480 -1.5730  0.5637  1.7675
 1340TIP3   OH225578   5.936   5.628   6.604 -0.0066  0.3493 -0.3581
 1340TIP3    H125579   5.976   5.695   6.549  0.5925 -0.1289 -0.5152
 1340TIP3    H225580   5.927   5.552   6.547  1.3534 -0.4171  0.3956
 1341TIP3   OH225581   3.923   5.468   0.272 -0.5776 -0.1388  0.8909
 1341TIP3    H125582   3.938   5.562   0.261 -0.4421 -0.2824 -0.2769
 1341TIP3    H225583   3.994   5.439   0.329 -0.2501  0.3600  0.7464
 1342TIP3   OH225584   5.333   1.610   8.223 -0.0211  0.4823 -0.0566
 1342TIP3    H125585   5.355   1.545   8.289 -0.2503  0.5138  0.0521
 1342TIP3    H225586   5.243   1.588   8.197  0.3508 -0.0430 -0.9601
 1343TIP3   OH225587   5.113   3.111   1.737  0.0766 -0.1315 -0.5650
 1343TIP3    H125588   5.174   3.159   1.681 -0.2599  2.1484  0.8502
 1343TIP3    H225589   5.169   3.074   1.806  0.0566  1.0319  0.1192
 1344TIP3   OH225590   0.246   1.064   0.587  0.5352  0.2907  0.0645
 1344TIP3    H125591   0.188   1.076   0.662 -0.8359 -0.1442 -0.8905
 1344TIP3    H225592   0.258   0.969   0.581  1.7111  0.3995  0.5073
 1345TIP3   OH225593   5.439   2.273   0.845 -0.0670 -0.3874  0.2951
 1345TIP3    H125594   5.520   2.245   0.889  0.0703  1.9629  1.7348
 1345TIP3    H225595   5.377   2.288   0.916 -0.3826  1.9365 -0.3881
 1346TIP3   OH225596   6.890   1.916   6.143  0.2139  0.1320 -0.1393
 1346TIP3    H125597   6.938   1.998   6.152 -1.3884  1.2318 -1.0522
 1346TIP3    H225598   6.957   1.850   6.124  1.5285  1.2304  0.5719
 1347TIP3   OH225599   3.211   5.714   0.274  0.3381  0.1487  0.3696
 1347TIP3    H125600   3.184   5.644   0.333 -0.5370 -0.8140 -1.1088
 1347TIP3    H225601   3.145   5.713   0.204  1.9838  0.4463 -1.2427
 1348TIP3   OH225602   6.149   0.081   6.815 -0.2829  0.4846 -0.0423
 1348TIP3    H125603   6.122   0.083   6.906  1.7842 -2.7603  0.8359
 1348TIP3    H225604   6.241   0.106   6.817 -0.4647  1.3657 -1.4216
 1349TIP3   OH225605   0.046   3.509   1.556  0.2342 -0.1082  0.4502
 1349TIP3    H125606   0.127   3.515   1.607  1.2187 -0.1583 -1.0088
 1349TIP3    H225607  -0.024   3.523   1.619  1.4321  1.2993  1.5521
 1350TIP3   OH225608   3.053   4.697   7.521 -0.1325  0.2078 -0.0999
 1350TIP3    H125609   3.096   4.779   7.499  1.3546 -0.4043  0.3479
 1350TIP3    H225610   3.124   4.642   7.556 -1.2047 -1.0344  0.1984
 1351TIP3   OH225611   6.038   2.182   7.119 -0.1308  0.4727 -0.4348
 1351TIP3    H125612   6.133   2.176   7.131 -0.1967 -0.3276 -0.2519
 1351TIP3    H225613   6.019   2.275   7.123  0.5207  0.5784  0.5265
 1352TIP3   OH225614   6.099   1.144   1.572 -0.1709 -0.5872 -0.3978
 1352TIP3    H125615   6.113   1.050   1.564  0.6756 -0.4064 -1.2684
 1352TIP3    H225616   6.020   1.162   1.521 -0.6861 -0.9001  0.2758
 1353TIP3   OH225617   5.965   0.493   2.160 -0.3119 -0.1518  0.2631
 1353TIP3    H125618   5.959   0.580   2.200 -1.2578 -0.8650  1.7949
 1353TIP3    H225619   5.960   0.509   2.066  0.3738  1.4995  0.4773
 1354TIP3   OH225620   4.966   3.713   1.915 -0.2695  0.0921 -0.2388
 1354TIP3    H125621   4.889   3.770   1.917 -0.1910  0.1859  0.3914
 1354TIP3    H225622   5.010   3.730   1.999  0.6856  0.3924 -0.7828
 1355TIP3   OH225623   4.642   1.273   2.225 -0.5942 -0.6019  0.0292
 1355TIP3    H125624   4.624   1.255   2.133  0.6786 -1.8901 -0.0090
 1355TIP3    H225625   4.582   1.344   2.248 -0.0533  0.6581 -2.1336
 1356TIP3   OH225626   1.948   2.396   8.511  0.1761  0.2426  0.2951
 1356TIP3    H125627   1.989   2.393   8.425 -1.1330 -1.6888 -0.3335
 1356TIP3    H225628   1.987   2.322   8.559  0.2824  0.7923  1.0694
 1357TIP3   OH225629   3.307   4.899   8.475  0.4182 -0.7308 -0.3650
 1357TIP3    H125630   3.253   4.821   8.473  1.0184 -1.1701  0.0644
 1357TIP3    H225631   3.381   4.879   8.418  0.8364 -0.6815  0.1507
 1358TIP3   OH225632   2.863   4.714   0.761 -0.1740  0.0018 -0.1672
 1358TIP3    H125633   2.812   4.753   0.832  0.3763  1.2551 -0.4215
 1358TIP3    H225634   2.902   4.789   0.716  1.1133 -0.8710 -0.5683
 1359TIP3   OH225635   3.437   5.682   7.322 -0.2150  0.1021 -0.3986
 1359TIP3    H125636   3.361   5.626   7.338  0.2833 -0.4392  0.1488
 1359TIP3    H225637   3.434   5.700   7.228 -1.3557  0.5974 -0.2787
 1360TIP3   OH225638   3.143   2.547   7.444 -0.0831 -0.3839 -0.4844
 1360TIP3    H125639   3.160   2.501   7.362  0.5680  0.8454 -1.0705
 1360TIP3    H225640   3.205   2.620   7.444 -0.1492 -0.2868  1.0528
 1361TIP3   OH225641   4.138   2.534   0.138  0.1446 -0.2929 -0.2721
 1361TIP3    H125642   4.178   2.615   0.168 -0.3148 -0.2158  0.1349
 1361TIP3    H225643   4.178   2.518   0.052 -0.1019  0.6079 -0.5675
 1362TIP3   OH225644   6.145   2.686   0.915  0.3975 -0.7243  0.0540
 1362TIP3    H125645   6.140   2.779   0.934  0.6087 -0.7940  0.4535
 1362TIP3    H225646   6.238   2.664   0.928  0.3308 -1.0081  0.0535
 1363TIP3   OH225647   4.987   0.288   7.694  0.4546 -0.7005 -0.4749
 1363TIP3    H125648   5.028   0.344   7.628  0.8540  0.7125  0.8979
 1363TIP3    H225649   5.060   0.257   7.748  0.0114 -0.3749  0.3478
 1364TIP3   OH225650   2.604   0.893   7.729 -0.1479  0.4095 -0.0379
 1364TIP3    H125651   2.639   0.926   7.812 -0.3050  0.8796 -0.1558
 1364TIP3    H225652   2.513   0.869   7.749  0.4317 -1.5887  0.4775
 1365TIP3   OH225653   5.440   4.698   7.353 -0.0431 -0.4420  0.0225
 1365TIP3    H125654   5.523   4.683   7.308  0.1680 -0.1621  0.3090
 1365TIP3    H225655   5.461   4.766   7.418 -0.9544  1.1279 -1.2657
 1366TIP3   OH225656   0.321   1.083   7.212 -0.0616  0.6750 -0.0789
 1366TIP3    H125657   0.233   1.048   7.223 -0.7441  1.9578 -1.0978
 1366TIP3    H225658   0.375   1.034   7.274 -1.3071 -0.7690 -0.0809
 1367TIP3   OH225659   4.909   0.824   7.585  0.1200  0.5490 -0.1226
 1367TIP3    H125660   4.857   0.777   7.520 -0.5519 -1.2296  1.5680
 1367TIP3    H225661   4.876   0.914   7.583  0.3569  0.6315 -2.3973
 1368TIP3   OH225662   2.125   2.842   2.305 -0.1720 -0.4589  0.8064
 1368TIP3    H125663   2.209   2.887   2.303  1.4044 -2.9026 -3.9828
 1368TIP3    H225664   2.144   2.759   2.350 -0.2644 -0.6002  0.5868
 1369TIP3   OH225665   2.801   3.224   1.795  0.2297 -1.0543  0.3016
 1369TIP3    H125666   2.743   3.300   1.792  1.2436 -0.1830  1.6371
 1369TIP3    H225667   2.783   3.185   1.881  0.7065 -1.5179  0.1882
 1370TIP3   OH225668   4.772   5.620   0.558  0.3366  0.6535 -0.3009
 1370TIP3    H125669   4.783   5.657   0.471 -1.6288 -1.0725 -1.3906
 1370TIP3    H225670   4.697   5.668   0.595  0.6572  0.8334  0.1247
 1371TIP3   OH225671   6.679   1.939   6.777  0.2049 -0.2706  0.5915
 1371TIP3    H125672   6.610   2.004   6.792  2.2693  2.2546 -0.1300
 1371TIP3    H225673   6.678   1.885   6.856 -1.9999  0.1879  0.9566
 1372TIP3   OH225674   1.307   4.166   8.361 -0.2417 -0.0124 -0.7582
 1372TIP3    H125675   1.379   4.106   8.380 -0.6216  0.0436  1.0822
 1372TIP3    H225676   1.231   4.127   8.405 -0.4944  1.7910  0.5539
 1373TIP3   OH225677   0.093   5.325   0.318  0.2986  0.0303  0.5189
 1373TIP3    H125678   0.122   5.377   0.392  1.9359  1.0406 -0.7567
 1373TIP3    H225679   0.033   5.383   0.270  1.5625  0.5505 -0.5097
 1374TIP3   OH225680   5.513   1.433   7.629  0.1311 -0.3090  0.0170
 1374TIP3    H125681   5.512   1.397   7.718  1.5355 -0.5259 -0.0388
 1374TIP3    H225682   5.606   1.447   7.610 -0.1020 -0.9023 -1.6827
 1375TIP3   OH225683   1.237   1.142   0.129 -0.0006 -0.1244  0.6142
 1375TIP3    H125684   1.328   1.156   0.100 -0.7851  0.4278 -1.8282
 1375TIP3    H225685   1.203   1.076   0.069 -2.1024  1.9218 -0.5919
 1376TIP3   OH225686   2.368   2.290   0.346 -0.4462 -0.0609 -0.1143
 1376TIP3    H125687   2.345   2.206   0.386 -0.7112 -0.9138 -1.9742
 1376TIP3    H225688   2.447   2.318   0.393 -0.3786 -1.3230  0.5667
 1377TIP3   OH225689   1.023   1.378   7.579 -0.0627  0.3245  0.0371
 1377TIP3    H125690   1.049   1.469   7.593 -1.0027  0.3217  2.1358
 1377TIP3    H225691   0.980   1.352   7.661  0.9237 -2.2750 -0.1656
 1378TIP3   OH225692   5.044   5.862   1.127  0.6078 -0.4372 -0.0052
 1378TIP3    H125693   5.061   5.818   1.210  0.9465 -0.4480 -0.0764
 1378TIP3    H225694   4.949   5.871   1.123  0.4292 -2.1347 -0.4809
 1379TIP3   OH225695   0.706   2.314   5.989  0.6923  0.7521 -0.1585
 1379TIP3    H125696   0.789   2.315   6.036  0.6257 -0.5968  0.0077
 1379TIP3    H225697   0.673   2.225   5.998 -0.6139  1.1692 -0.5181
 1380TIP3   OH225698   1.405   0.375   0.041 -0.6424 -0.1415  0.4744
 1380TIP3    H125699   1.499   0.362   0.039 -0.6651 -0.2166 -0.5718
 1380TIP3    H225700   1.372   0.305   0.097  0.0731  1.0010  2.4233
 1381TIP3   OH225701   5.525   4.292   2.399 -0.0182 -0.9727  0.1203
 1381TIP3    H125702   5.546   4.220   2.340  0.7041 -1.4024  0.8821
 1381TIP3    H225703   5.430   4.300   2.395  0.0758 -0.3498 -1.8315
 1382TIP3   OH225704   4.719   1.277   7.235  0.6297 -0.3662 -0.3214
 1382TIP3    H125705   4.710   1.283   7.139 -2.0693 -0.3037 -0.1468
 1382TIP3    H225706   4.687   1.362   7.267 -1.9072 -1.6025  0.7012
 1383TIP3   OH225707   0.809   3.249   6.873 -0.0422  0.2691 -0.0990
 1383TIP3    H125708   0.721   3.254   6.834  0.6501  1.2777 -1.6631
 1383TIP3    H225709   0.841   3.163   6.849 -0.8780 -0.4324  1.1819
 1384TIP3   OH225710   0.249   5.626   1.586  0.2403  0.6137 -0.0242
 1384TIP3    H125711   0.258   5.718   1.562 -1.9447  0.6847 -0.7927
 1384TIP3    H225712   0.157   5.615   1.609  0.7360 -1.0957  1.4361
 1385TIP3   OH225713   0.562   4.399   7.866 -0.1217  0.4993 -0.5083
 1385TIP3    H125714   0.572   4.487   7.830  0.2719  0.4754 -0.4620
 1385TIP3    H225715   0.650   4.362   7.863 -0.1231  0.4146  0.2672
 1386TIP3   OH225716   4.718   1.467   7.727 -0.8694 -0.1201 -0.2954
 1386TIP3    H125717   4.781   1.514   7.673 -1.6053 -1.3739 -2.3217
 1386TIP3    H225718   4.770   1.431   7.799  0.2066  1.1422 -0.4048
 1387TIP3   OH225719   3.764   4.626   8.206  0.1957  0.3062 -0.4622
 1387TIP3    H125720   3.824   4.582   8.146 -1.4609  0.7429 -2.5978
 1387TIP3    H225721   3.698   4.559   8.227  0.0336  0.5385 -0.2149
 1388TIP3   OH225722   5.701   4.963   1.069  0.5756  0.3689 -0.5630
 1388TIP3    H125723   5.728   4.976   1.160 -0.0781 -1.1630 -0.1143
 1388TIP3    H225724   5.765   5.013   1.017  1.5715  0.4229  0.6802
 1389TIP3   OH225725   6.234   5.171   7.263 -0.0214 -0.3142 -0.1463
 1389TIP3    H125726   6.234   5.106   7.193  2.3072  0.5849 -1.0985
 1389TIP3    H225727   6.268   5.251   7.222 -0.4008  0.7944  1.5673
 1390TIP3   OH225728   3.793   1.888   8.487  0.0633 -0.2590  0.2186
 1390TIP3    H125729   3.775   1.945   8.412  0.4123 -2.0706 -1.3206
 1390TIP3    H225730   3.722   1.824   8.486  0.5316 -0.8099  0.9210
 1391TIP3   OH225731   2.031   4.632   7.568  0.0989 -0.1921 -0.2774
 1391TIP3    H125732   1.954   4.677   7.534  0.7024  1.4095  0.3846
 1391TIP3    H225733   2.093   4.702   7.587  1.0323 -1.2995  0.9344
 1392TIP3   OH225734   3.082   5.271   7.490  0.3917  0.2057  0.1151
 1392TIP3    H125735   3.112   5.228   7.570 -0.2262 -0.7524 -0.1422
 1392TIP3    H225736   3.152   5.254   7.427 -0.0084 -0.7669 -0.0846
 1393TIP3   OH225737   2.940   1.893   6.195  0.5440  0.0568  0.0990
 1393TIP3    H125738   2.848   1.882   6.169 -0.1828 -0.1089  2.4646
 1393TIP3    H225739   2.969   1.805   6.218  1.0569  0.2243  0.0955
 1394TIP3   OH225740   4.071   3.566   8.378  0.5597  0.4547 -0.2457
 1394TIP3    H125741   3.996   3.546   8.435  1.1998 -2.8277 -0.3299
 1394TIP3    H225742   4.140   3.593   8.438  0.9665 -2.1477  0.6114
 1395TIP3   OH225743   0.737   2.099   2.375  0.3298  0.1023  0.3722
 1395TIP3    H125744   0.718   2.061   2.289  1.4708 -0.5911  0.4148
 1395TIP3    H225745   0.670   2.061   2.433 -1.1322  1.4054 -0.3801
 1396TIP3   OH225746   3.247   3.352   8.040  0.8424  0.2288 -0.3278
 1396TIP3    H125747   3.313   3.395   8.095  0.4538  0.2458  0.1341
 1396TIP3    H225748   3.212   3.282   8.095 -1.7259  2.1271  0.6625
 1397TIP3   OH225749   6.067   5.911   1.082  0.4811 -0.3267  0.4435
 1397TIP3    H125750   6.035   5.861   1.007 -1.2147  0.2177  0.7582
 1397TIP3    H225751   6.147   5.866   1.108 -0.1339 -1.9166 -0.2656
 1398TIP3   OH225752   1.363   3.222   7.335  0.2291 -0.2349  0.3573
 1398TIP3    H125753   1.442   3.234   7.388 -0.0234  1.7957  0.3643
 1398TIP3    H225754   1.303   3.291   7.366 -1.6912 -1.9074  0.5746
 1399TIP3   OH225755   0.857   4.743   2.356  0.4575  0.3781 -0.3023
 1399TIP3    H125756   0.788   4.802   2.387  1.0483  1.0011 -0.1608
 1399TIP3    H225757   0.884   4.694   2.434 -1.4643 -1.6396 -0.7685
 1400TIP3   OH225758   4.440   2.256   7.558 -0.4051 -0.7690 -0.2254
 1400TIP3    H125759   4.524   2.235   7.517 -0.2393  0.9820 -0.8253
 1400TIP3    H225760   4.422   2.180   7.614  1.0225 -1.6707 -0.9295
 1401TIP3   OH225761   2.998   0.543   1.067  0.0874  0.0062 -0.3825
 1401TIP3    H125762   2.946   0.559   0.989 -1.7740 -0.2386  0.7590
 1401TIP3    H225763   3.007   0.448   1.071  2.7898  0.0908 -1.8622
 1402TIP3   OH225764   4.525   2.453   7.743  0.4850  0.1219 -0.1773
 1402TIP3    H125765   4.610   2.471   7.701 -0.1766 -0.2415 -1.7449
 1402TIP3    H225766   4.485   2.386   7.688 -0.6981  0.0559  0.7261
 1403TIP3   OH225767   3.519   1.292   1.105  0.6230  0.4314  0.1209
 1403TIP3    H125768   3.556   1.361   1.160  0.4000  0.7643 -0.1412
 1403TIP3    H225769   3.528   1.212   1.157 -2.1527  1.1375  1.9392
 1404TIP3   OH225770   2.424   1.962   7.121 -0.0705 -0.1645  0.0683
 1404TIP3    H125771   2.443   2.049   7.085  2.3543  0.0703  1.6650
 1404TIP3    H225772   2.404   1.979   7.214 -0.6026 -1.2307  0.1606
 1405TIP3   OH225773   0.374   0.531   1.595  0.2207  0.6222 -0.2733
 1405TIP3    H125774   0.384   0.612   1.545 -0.8784  0.0063 -1.5600
 1405TIP3    H225775   0.279   0.520   1.604  0.3136  1.3442  3.1135
 1406TIP3   OH225776   0.335   0.282   6.889 -0.8113  0.1253 -0.4933
 1406TIP3    H125777   0.414   0.308   6.843 -1.0873  0.9585 -0.5115
 1406TIP3    H225778   0.263   0.320   6.837 -1.2144 -0.4671 -0.3806
 1407TIP3   OH225779   6.660   0.724   0.647 -0.7587 -0.4227 -0.1584
 1407TIP3    H125780   6.728   0.689   0.590  0.6466  2.6937 -0.6346
 1407TIP3    H225781   6.674   0.680   0.731 -0.6785 -2.6168 -1.2583
 1408TIP3   OH225782   3.807   3.439   1.863  0.4833 -0.0990 -0.7284
 1408TIP3    H125783   3.786   3.441   1.956  3.4140  0.5503 -0.0119
 1408TIP3    H225784   3.788   3.349   1.836 -2.8156  0.3025 -0.2307
 1409TIP3   OH225785   2.734   4.598   7.717 -0.6089  0.2588 -0.7094
 1409TIP3    H125786   2.650   4.551   7.723  0.4402 -1.7189 -0.4755
 1409TIP3    H225787   2.736   4.631   7.627 -0.7469 -1.5315 -1.4108
 1410TIP3   OH225788   0.823   1.613   8.178  0.1997  0.1684 -0.5787
 1410TIP3    H125789   0.790   1.549   8.241  0.4685 -0.2991 -0.9068
 1410TIP3    H225790   0.892   1.659   8.225 -1.7965  2.1399  0.6176
 1411TIP3   OH225791   4.030   2.209   8.368 -0.8892  0.3675  0.8001
 1411TIP3    H125792   4.078   2.290   8.385  0.6545  0.0961 -1.7410
 1411TIP3    H225793   3.938   2.235   8.375 -0.4806  1.4333  3.5728
 1412TIP3   OH225794   5.305   0.542   0.776 -0.6193  0.0357  0.4717
 1412TIP3    H125795   5.333   0.451   0.779  0.9694  0.4715  0.2828
 1412TIP3    H225796   5.337   0.579   0.859 -0.5039  0.6014  0.1798
 1413TIP3   OH225797   6.681   1.255   0.234 -0.5541  0.0193 -0.4159
 1413TIP3    H125798   6.667   1.298   0.319 -1.3796  0.2357 -0.6491
 1413TIP3    H225799   6.771   1.277   0.210 -0.6829  0.9073 -0.1168
 1414TIP3   OH225800   4.514   0.302   0.261  0.9108  0.4161  0.2228
 1414TIP3    H125801   4.488   0.243   0.190  2.6970 -0.3133  0.1125
 1414TIP3    H225802   4.512   0.389   0.221 -2.3277  0.6214  0.5490
 1415TIP3   OH225803   3.872   6.315   8.509  0.6878  0.0867 -0.7034
 1415TIP3    H125804   3.797   6.375   8.508 -0.3581 -1.0968  0.9220
 1415TIP3    H225805   3.833   6.228   8.497  2.0606 -0.3946 -1.9481
 1416TIP3   OH225806   3.674   6.509   8.518  0.0347 -0.2204  0.5248
 1416TIP3    H125807   3.585   6.514   8.553  0.3131  1.3095  1.0755
 1416TIP3    H225808   3.726   6.566   8.575  0.3564  3.2236 -2.8379
 1417TIP3   OH225809   1.440   0.368   7.350  0.5545  0.6548  0.2717
 1417TIP3    H125810   1.488   0.320   7.283  0.3702  1.4293 -0.4329
 1417TIP3    H225811   1.348   0.360   7.325  0.6423  4.5300 -2.1744
 1418TIP3   OH225812   6.465   2.643   0.736 -0.0002  0.3983  0.7443
 1418TIP3    H125813   6.406   2.623   0.664 -0.5024 -0.1864  1.3170
 1418TIP3    H225814   6.522   2.712   0.701 -0.5239  0.4345 -0.0590
 1419TIP3   OH225815   0.880   2.688   8.337 -0.5975  0.0561 -0.0745
 1419TIP3    H125816   0.890   2.595   8.355  0.4036 -0.1092 -1.3468
 1419TIP3    H225817   0.909   2.732   8.417 -2.7820 -0.7106  1.2307
 1420TIP3   OH225818   0.554   4.300   8.418 -0.3192 -0.1435 -0.3514
 1420TIP3    H125819   0.501   4.378   8.403 -0.5977 -0.3935 -0.6716
 1420TIP3    H225820   0.644   4.332   8.410 -0.4324 -0.0968 -1.7990
 1421TIP3   OH225821   3.382   6.799   0.520 -0.3286 -0.0832 -0.1005
 1421TIP3    H125822   3.323   6.778   0.447 -2.7805  2.2413  1.0557
 1421TIP3    H225823   3.348   6.747   0.593 -0.8022  1.0643  0.5085
 1422TIP3   OH225824   1.742   3.599   0.675 -0.4992  0.5107  0.2318
 1422TIP3    H125825   1.801   3.529   0.704 -0.3303  0.7959  0.5770
 1422TIP3    H225826   1.660   3.582   0.722  0.1838  1.7558  1.9698
 1423TIP3   OH225827   1.850   6.669   0.603  0.8759 -0.0952 -0.2199
 1423TIP3    H125828   1.829   6.589   0.652  0.8493  0.4908  0.7636
 1423TIP3    H225829   1.939   6.655   0.572  1.5584  0.2110  1.4943
 1424TIP3   OH225830   5.933   2.837   6.801 -0.1275  0.3167  0.2199
 1424TIP3    H125831   5.850   2.851   6.754  1.0088  0.4216 -1.8645
 1424TIP3    H225832   6.000   2.845   6.733  1.5427 -0.7011  1.6910
 1425TIP3   OH225833   2.653   2.633   6.877  0.0669 -0.4013  0.0813
 1425TIP3    H125834   2.584   2.699   6.877  1.5232  1.2197 -0.4727
 1425TIP3    H225835   2.655   2.599   6.966 -2.2567 -1.4621 -0.1947
 1426TIP3   OH225836   1.993   4.577   0.142  0.0204 -0.1398 -0.6465
 1426TIP3    H125837   2.018   4.555   0.232 -1.0293 -0.2071 -0.3595
 1426TIP3    H225838   2.070   4.556   0.090  1.5891  2.2955  0.5202
 1427TIP3   OH225839   1.000   0.517   7.574  0.0204  0.1594 -0.0976
 1427TIP3    H125840   1.029   0.592   7.522 -0.1937 -0.6586 -1.4128
 1427TIP3    H225841   0.951   0.462   7.513  2.1642 -2.2695  0.1970
 1428TIP3   OH225842   0.958   2.380   6.726  0.3744  0.1218  0.0904
 1428TIP3    H125843   1.039   2.399   6.680  0.6987  0.1905  0.6755
 1428TIP3    H225844   0.971   2.415   6.814  0.5055 -1.6048  0.8153
 1429TIP3   OH225845   3.358   3.413   7.045  0.0550  0.0700 -0.5198
 1429TIP3    H125846   3.379   3.495   7.001  1.5623  0.5917  1.1039
 1429TIP3    H225847   3.438   3.388   7.091 -1.4153 -0.4113  1.9649
 1430TIP3   OH225848   0.290   0.960   8.448  0.8799  0.1341  0.1789
 1430TIP3    H125849   0.204   0.984   8.415  0.8732  2.1279  1.4829
 1430TIP3    H225850   0.272   0.922   8.535  1.2933  0.3593  0.3646
 1431TIP3   OH225851   1.239   6.783   2.462 -0.4912 -0.3203 -0.0915
 1431TIP3    H125852   1.184   6.734   2.524 -0.5347 -1.4048 -0.9614
 1431TIP3    H225853   1.327   6.749   2.477 -0.8485 -2.5247 -2.3532
 1432TIP3   OH225854   2.943   4.049   7.457 -0.2515  0.2011  0.3419
 1432TIP3    H125855   2.920   4.014   7.371 -0.5511 -0.1511  0.5652
 1432TIP3    H225856   3.027   4.008   7.477  1.0478  2.1046 -0.8348
 1433TIP3   OH225857   2.879   4.832   0.239  0.7852 -0.5946  0.3414
 1433TIP3    H125858   2.917   4.806   0.155  0.2904 -1.4595  0.3723
 1433TIP3    H225859   2.954   4.838   0.299  1.2342  0.7176 -0.2997
 1434TIP3   OH225860   4.610   6.326   0.289  0.9779  0.0503 -0.6048
 1434TIP3    H125861   4.553   6.372   0.227 -0.9805 -0.2273  0.9001
 1434TIP3    H225862   4.552   6.264   0.333  1.9877  0.9717  2.2515
 1435TIP3   OH225863   1.651   2.725   1.055  0.4424 -0.1158  0.1534
 1435TIP3    H125864   1.595   2.758   0.985  0.9886  1.9185  0.6081
 1435TIP3    H225865   1.740   2.737   1.021  0.7304  1.3867  1.3586
 1436TIP3   OH225866   4.941   0.507   1.650  0.3958  0.0318 -0.0013
 1436TIP3    H125867   4.924   0.422   1.610  2.0473 -1.0067  1.3800
 1436TIP3    H225868   4.955   0.488   1.742  3.0925  1.4187 -0.0113
 1437TIP3   OH225869   0.926   0.884   1.816  0.3055 -0.0480 -0.0099
 1437TIP3    H125870   0.907   0.853   1.905  0.2899  1.7049  0.6259
 1437TIP3    H225871   1.008   0.839   1.793  1.5418  1.1290  1.7860
 1438TIP3   OH225872   1.775   3.181   0.533  0.4569 -0.1764 -0.1054
 1438TIP3    H125873   1.849   3.241   0.538 -0.6238  1.0871  1.8753
 1438TIP3    H225874   1.720   3.216   0.462 -0.3497  1.4918  1.2682
 1439TIP3   OH225875   5.187   1.035   0.450  0.0392 -0.3626  0.1520
 1439TIP3    H125876   5.194   1.074   0.538 -2.1416 -1.0147  0.6684
 1439TIP3    H225877   5.133   0.957   0.463  2.6419 -2.5310 -1.1968
 1440TIP3   OH225878   6.283   6.322   1.760 -0.0184  0.3076  0.1717
 1440TIP3    H125879   6.312   6.399   1.711  0.3856  1.2510  1.8238
 1440TIP3    H225880   6.351   6.256   1.743  0.2263  0.6856 -0.3547
 1441TIP3   OH225881   4.897   3.851   5.952  0.0772 -0.2497  0.3864
 1441TIP3    H125882   4.968   3.844   6.017  1.1426  0.5510 -0.6468
 1441TIP3    H225883   4.906   3.772   5.899 -0.3566 -0.5652  0.7754
 1442TIP3   OH225884   4.626   1.324   6.501 -0.5872  0.1762  0.4802
 1442TIP3    H125885   4.557   1.386   6.480  0.4112  0.2645 -3.1214
 1442TIP3    H225886   4.707   1.373   6.488  0.2006 -1.4938 -1.3585
 1443TIP3   OH225887   5.449   3.944   1.436  0.1541  0.5303  0.3491
 1443TIP3    H125888   5.384   3.908   1.496  1.2810  0.5939  1.6511
 1443TIP3    H225889   5.484   3.868   1.390 -0.9644  0.5174 -0.5198
 1444TIP3   OH225890   5.630   2.541   1.477 -0.3197  0.3532  0.4390
 1444TIP3    H125891   5.602   2.633   1.470 -1.1528  0.1814  1.2234
 1444TIP3    H225892   5.628   2.508   1.388  1.9425  1.6305 -0.1469
 1445TIP3   OH225893   5.819   6.611   7.245 -0.2883 -0.4633  0.2106
 1445TIP3    H125894   5.759   6.617   7.170 -1.0515 -0.0080  0.8402
 1445TIP3    H225895   5.777   6.663   7.313  1.2423  0.5693  0.4154
 1446TIP3   OH225896   1.011   0.531   2.188 -0.5702  0.5973 -0.0655
 1446TIP3    H125897   1.025   0.449   2.235  1.4317  0.7978 -0.2562
 1446TIP3    H225898   0.974   0.504   2.103 -0.7995 -0.0217  0.2240
 1447TIP3   OH225899   1.267   6.616   7.782 -0.8266  0.1942  0.7027
 1447TIP3    H125900   1.338   6.553   7.767 -0.6624  0.5891 -0.3059
 1447TIP3    H225901   1.304   6.700   7.755 -0.7126  0.9278  2.9485
 1448TIP3   OH225902   4.191   1.520   6.761  0.0619 -0.5359 -0.1453
 1448TIP3    H125903   4.187   1.567   6.678 -0.0754 -0.9409 -0.3698
 1448TIP3    H225904   4.176   1.428   6.738  2.2205 -0.9966  0.0175
 1449TIP3   OH225905   3.877   1.775   0.192  0.4390  0.5151 -0.3681
 1449TIP3    H125906   3.909   1.819   0.113 -1.5852  0.7684 -1.1244
 1449TIP3    H225907   3.824   1.841   0.236  0.8986  0.1227  0.8035
 1450TIP3   OH225908   1.682   1.233   7.173  0.2691  0.1082 -0.6850
 1450TIP3    H125909   1.633   1.222   7.091  0.8586  2.0239 -1.3524
 1450TIP3    H225910   1.769   1.199   7.153  0.0906 -0.4934 -0.4649
 1451TIP3   OH225911   6.138   2.446   1.228  0.3027 -0.6473  0.2591
 1451TIP3    H125912   6.058   2.422   1.275  1.2203 -2.3326  1.0189
 1451TIP3    H225913   6.209   2.430   1.290  1.2337  1.1583 -0.2835
 1452TIP3   OH225914   4.862   3.007   8.113 -0.0647  0.3735 -0.0936
 1452TIP3    H125915   4.897   2.923   8.084 -0.1865  0.3707 -0.2348
 1452TIP3    H225916   4.872   3.064   8.037  1.2532  0.8659  0.4149
 1453TIP3   OH225917   2.599   0.099   0.107  0.2442 -0.6010  0.1007
 1453TIP3    H125918   2.592   0.005   0.093 -1.4868 -0.2726 -1.5952
 1453TIP3    H225919   2.562   0.113   0.195  2.1364 -1.6377  1.1266
 1454TIP3   OH225920   1.257   0.041   2.276  0.1154 -0.3270  0.0032
 1454TIP3    H125921   1.246  -0.023   2.346 -2.0602  0.6364  0.6403
 1454TIP3    H225922   1.196   0.013   2.208 -1.8404  1.6196  0.8091
 1455TIP3   OH225923   6.725   2.833   1.533  0.0331  0.3919  0.8893
 1455TIP3    H125924   6.755   2.775   1.463 -0.6611  1.5448 -0.3985
 1455TIP3    H225925   6.674   2.775   1.590 -1.2850 -0.1691 -0.7664
 1456TIP3   OH225926   4.564   3.895   6.685 -0.0015 -0.4225 -0.7308
 1456TIP3    H125927   4.629   3.912   6.754 -1.9917  0.2461  1.1130
 1456TIP3    H225928   4.551   3.981   6.644  0.0514 -0.4855 -0.8774
 1457TIP3   OH225929   3.273   2.630   7.847 -0.0583  0.3370  0.0694
 1457TIP3    H125930   3.197   2.631   7.905 -0.8341  0.3265 -0.9198
 1457TIP3    H225931   3.253   2.562   7.782  0.3713  0.9814 -0.7555
 1458TIP3   OH225932   1.759   4.375   1.430  0.2249  0.2307 -0.5548
 1458TIP3    H125933   1.669   4.395   1.403  0.4392  0.5954 -1.0283
 1458TIP3    H225934   1.777   4.437   1.501 -0.6164 -1.2657  1.0355
 1459TIP3   OH225935   0.957   2.267   7.758  0.6976  0.0301 -0.0334
 1459TIP3    H125936   0.968   2.176   7.783  0.1605  0.1799  0.7703
 1459TIP3    H225937   0.972   2.268   7.663 -1.5428 -1.3012 -0.4644
 1460TIP3   OH225938   2.149   2.003   0.693 -0.3236  0.4465  0.3195
 1460TIP3    H125939   2.114   1.953   0.620  0.7935 -1.4175  0.9659
 1460TIP3    H225940   2.243   1.985   0.691 -0.1470  1.0721  1.6696
 1461TIP3   OH225941   0.927   1.382   7.165 -0.2162 -0.3778 -0.2139
 1461TIP3    H125942   0.999   1.444   7.178 -0.7822 -0.0500  1.6699
 1461TIP3    H225943   0.858   1.434   7.124 -0.3963  0.0802  0.6273
 1462TIP3   OH225944   5.039   3.560   0.535 -0.1640 -0.1403  0.0586
 1462TIP3    H125945   5.056   3.468   0.519  0.6803  0.1471 -0.7566
 1462TIP3    H225946   5.125   3.600   0.541 -0.5218  0.6996 -0.2409
 1463TIP3   OH225947   1.474   5.263   1.875  0.5601  0.1045 -0.1833
 1463TIP3    H125948   1.448   5.337   1.820  0.7987  1.4530  1.4363
 1463TIP3    H225949   1.410   5.195   1.855 -2.1068  2.0754  1.0510
 1464TIP3   OH225950   4.834   4.373   1.214  0.1310 -0.1088 -0.1747
 1464TIP3    H125951   4.808   4.321   1.138 -2.2577  1.1176 -0.2702
 1464TIP3    H225952   4.879   4.310   1.271 -1.9923 -2.1613 -0.6087
 1465TIP3   OH225953   5.882   0.190   0.727 -0.1720  0.4032  0.1929
 1465TIP3    H125954   5.923   0.114   0.687 -0.1711  0.3150  0.3586
 1465TIP3    H225955   5.880   0.256   0.658 -0.6320  0.0846 -0.1018
 1466TIP3   OH225956   4.348   2.951   5.856  0.4275 -0.5965  0.0142
 1466TIP3    H125957   4.271   2.987   5.812  1.6313  0.7375 -1.1564
 1466TIP3    H225958   4.363   2.867   5.814  2.1025  1.0484 -3.0369
 1467TIP3   OH225959   2.522   3.046   7.991  0.1053 -0.2454  0.5211
 1467TIP3    H125960   2.602   3.092   7.967 -0.7344  1.0654  0.1766
 1467TIP3    H225961   2.459   3.070   7.924 -1.2321  0.5545  2.0058
 1468TIP3   OH225962   4.059   2.223   7.412 -0.2704  0.2246  0.0966
 1468TIP3    H125963   4.046   2.181   7.497  1.2139 -0.3181  0.0760
 1468TIP3    H225964   3.980   2.277   7.401 -2.8496 -3.2756 -0.3958
 1469TIP3   OH225965   4.242   0.283   0.402 -0.0827 -0.0243 -0.4674
 1469TIP3    H125966   4.245   0.226   0.480  1.8317 -1.2593 -1.3636
 1469TIP3    H225967   4.326   0.268   0.359 -1.1893  0.4592 -2.9137
 1470TIP3   OH225968   5.377   1.117   8.098 -0.4445 -0.0504  0.7036
 1470TIP3    H125969   5.338   1.031   8.109  1.2694 -0.8117  1.1110
 1470TIP3    H225970   5.436   1.127   8.173  0.7689  0.6883 -0.3017
 1471TIP3   OH225971   2.624   6.198   8.313 -0.5515 -0.0159 -0.0247
 1471TIP3    H125972   2.701   6.202   8.370 -0.3415 -2.0226 -0.0908
 1471TIP3    H225973   2.635   6.271   8.252  0.3319  0.8466  1.1202
 1472TIP3   OH225974   0.713   4.612   0.936 -0.1746 -0.1647  0.6336
 1472TIP3    H125975   0.791   4.601   0.990 -0.9762 -1.5773  1.5921
 1472TIP3    H225976   0.741   4.588   0.847  0.8227  0.8020  0.6771
 1473TIP3   OH225977   0.541   1.401   0.635 -0.2944  0.1552 -0.3037
 1473TIP3    H125978   0.482   1.359   0.573 -0.5267  1.2828 -0.8723
 1473TIP3    H225979   0.500   1.389   0.721 -1.2869  0.8234 -0.6795
 1474TIP3   OH225980   5.375   6.471   6.859 -0.5569  0.4324 -0.5558
 1474TIP3    H125981   5.295   6.417   6.861 -1.8777  2.1756 -2.1604
 1474TIP3    H225982   5.431   6.427   6.796 -1.5112  0.7420 -1.6603
 1475TIP3   OH225983   1.816   4.435   1.029  0.3560  0.2196 -0.7406
 1475TIP3    H125984   1.859   4.518   1.011  0.7594  0.0444 -0.5959
 1475TIP3    H225985   1.727   4.446   0.995  0.4598  0.6457 -0.8796
 1476TIP3   OH225986   6.220   6.124   8.430  0.3022 -0.0191  0.4804
 1476TIP3    H125987   6.255   6.213   8.415  0.7264 -0.4570 -1.5437
 1476TIP3    H225988   6.131   6.127   8.395 -0.1357 -0.0772  1.5664
 1477TIP3   OH225989   3.765   4.889   8.153 -0.2183  0.2441 -0.0490
 1477TIP3    H125990   3.859   4.908   8.154 -0.6272  2.5576  1.7183
 1477TIP3    H225991   3.759   4.795   8.172  1.7020  0.5535  2.6247
 1478TIP3   OH225992   0.551   3.791   1.643 -0.6039 -0.1083  0.1069
 1478TIP3    H125993   0.645   3.780   1.635 -0.6247 -0.6825  0.5845
 1478TIP3    H225994   0.516   3.702   1.652 -1.2114  0.0812 -0.2754
 1479TIP3   OH225995   3.915   0.138   1.115  0.2475 -0.2892  0.3509
 1479TIP3    H125996   3.948   0.225   1.089  0.0382 -0.4326 -0.4161
 1479TIP3    H225997   3.892   0.148   1.208  0.0296  0.5343  0.2175
 1480TIP3   OH225998   6.886   4.086   7.371 -0.1776  0.3345 -0.0055
 1480TIP3    H125999   6.912   4.165   7.323 -2.5881  0.7043 -0.8483
 1480TIP3    H226000   6.838   4.119   7.447 -1.8396 -0.2614 -0.7535
 1481TIP3   OH226001   4.303   6.274   0.294  0.0573 -0.0839 -0.1594
 1481TIP3    H126002   4.357   6.204   0.332 -2.7510 -2.6756 -0.4874
 1481TIP3    H226003   4.234   6.289   0.359 -0.3576  1.1287 -0.8554
 1482TIP3   OH226004   3.327   2.274   6.527 -0.3976  0.2377  0.6537
 1482TIP3    H126005   3.290   2.186   6.538 -1.4428  0.2732 -1.8933
 1482TIP3    H226006   3.251   2.332   6.528  0.1299  0.9353  0.6969
 1483TIP3   OH226007   5.934   0.071   1.513  0.3566 -0.4760  0.8186
 1483TIP3    H126008   6.008   0.027   1.555  1.5819  0.1710 -0.5950
 1483TIP3    H226009   5.934   0.159   1.550  1.4247  0.0882 -0.4437
 1484TIP3   OH226010   6.803   0.878   2.250 -0.0381  0.2097 -0.0857
 1484TIP3    H126011   6.831   0.821   2.179 -2.2515 -2.1106  0.7398
 1484TIP3    H226012   6.766   0.818   2.315  0.5196  2.3626  2.3741
 1485TIP3   OH226013   5.020   1.711   8.140 -0.5587 -0.5782  0.0124
 1485TIP3    H126014   5.016   1.807   8.134 -3.1187 -0.6594 -0.7996
 1485TIP3    H226015   5.044   1.694   8.231  1.1278  0.7925 -0.1146
 1486TIP3   OH226016   5.876   0.256   2.137 -0.0104  0.3256 -0.0040
 1486TIP3    H126017   5.910   0.336   2.177  0.8016  0.0845 -0.1780
 1486TIP3    H226018   5.947   0.227   2.078 -1.3397  0.9249 -1.9926
 1487TIP3   OH226019   5.701   0.755   7.756  0.1056 -0.0627 -0.5496
 1487TIP3    H126020   5.649   0.707   7.821  0.4261 -1.4031 -1.2562
 1487TIP3    H226021   5.744   0.687   7.705  0.8001  0.9994 -1.4080
 1488TIP3   OH226022   0.057   1.039   0.371  0.3712 -0.5248  0.1448
 1488TIP3    H126023   0.109   1.047   0.451  0.5461 -0.0398 -0.0150
 1488TIP3    H226024   0.083   0.955   0.334  0.6157 -0.5483  0.3648
 1489TIP3   OH226025   6.342   6.167   0.130 -0.1285  0.4534 -0.9018
 1489TIP3    H126026   6.429   6.165   0.089 -0.5963 -0.9952 -1.8737
 1489TIP3    H226027   6.282   6.137   0.062 -1.5051  1.9867 -0.4418
 1490TIP3   OH226028   4.237   2.690   1.376 -0.1616  0.5859  0.4756
 1490TIP3    H126029   4.294   2.735   1.313  0.4007 -0.3288  0.3135
 1490TIP3    H226030   4.250   2.738   1.458 -0.2539  1.2660  0.1011
 1491TIP3   OH226031   3.708   1.256   0.101  0.1771 -0.7503  0.1334
 1491TIP3    H126032   3.630   1.304   0.074  0.1797 -0.1720  1.1338
 1491TIP3    H226033   3.678   1.165   0.108 -0.4178 -0.5243  0.5614
 1492TIP3   OH226034   1.198   1.107   1.015 -0.4639 -0.9193 -0.1600
 1492TIP3    H126035   1.290   1.087   1.035  0.1441  0.5118 -1.3269
 1492TIP3    H226036   1.148   1.042   1.064  1.2229 -2.7040 -0.6772
 1493TIP3   OH226037   5.141   0.048   0.997 -0.2195  0.3542  0.4604
 1493TIP3    H126038   5.104   0.032   0.911 -1.3859 -0.5641  1.0946
 1493TIP3    H226039   5.072   0.096   1.044  0.7894  1.7382  0.5927
 1494TIP3   OH226040   2.183   6.192   0.176  0.5723 -0.4079  0.3139
 1494TIP3    H126041   2.256   6.161   0.229  0.7227  0.4257  0.6034
 1494TIP3    H226042   2.186   6.287   0.184 -0.6112 -0.3696  0.4096
 1495TIP3   OH226043   1.769   4.613   7.920 -0.0392  0.0698 -0.1851
 1495TIP3    H126044   1.858   4.576   7.925 -0.2238 -0.7326 -2.0641
 1495TIP3    H226045   1.720   4.567   7.988  0.6613 -0.4624 -0.0285
 1496TIP3   OH226046   1.744   1.858   0.448  0.0913 -0.1505 -0.3921
 1496TIP3    H126047   1.798   1.933   0.475 -1.6042  0.9805 -0.0010
 1496TIP3    H226048   1.774   1.786   0.504 -0.5102  1.1099  1.6474
 1497TIP3   OH226049   4.157   3.918   7.695  0.0622 -0.5577  0.0495
 1497TIP3    H126050   4.228   3.962   7.650 -0.3501  0.8191  0.6970
 1497TIP3    H226051   4.144   3.837   7.645  1.9535 -0.7758 -0.1598
 1498TIP3   OH226052   6.748   6.534   8.100  0.6076  0.2633 -0.3318
 1498TIP3    H126053   6.677   6.597   8.115  1.0753  0.6879  0.1326
 1498TIP3    H226054   6.749   6.479   8.179  0.5410  0.0023 -0.5100
 1499TIP3   OH226055   2.802   1.965   1.793 -0.0988  0.1718  0.2278
 1499TIP3    H126056   2.719   1.963   1.841 -0.7648  1.6278 -0.7908
 1499TIP3    H226057   2.788   1.903   1.721 -0.4915  0.7577 -0.2093
 1500TIP3   OH226058   2.650   4.378   8.233 -0.2544  0.0408  0.7231
 1500TIP3    H126059   2.708   4.302   8.227  1.0026  1.0625 -1.1820
 1500TIP3    H226060   2.566   4.347   8.201  0.6405 -0.2656 -1.5472
 1501TIP3   OH226061   4.347   4.160   6.876 -0.2150 -0.3767  0.2464
 1501TIP3    H126062   4.280   4.169   6.945 -1.0420 -1.2160 -0.4316
 1501TIP3    H226063   4.430   4.177   6.921 -0.6656 -1.6432  1.6369
 1502TIP3   OH226064   0.448   3.277   7.510 -0.5578  0.0992 -0.0890
 1502TIP3    H126065   0.499   3.300   7.587  1.4280 -1.2992 -0.8875
 1502TIP3    H226066   0.422   3.186   7.525 -2.8799  0.7503  0.2681
 1503TIP3   OH226067   0.972   4.808   7.962  0.4492 -0.1834 -0.5455
 1503TIP3    H126068   0.996   4.766   7.880  0.8993 -1.1227  0.0557
 1503TIP3    H226069   1.054   4.815   8.011 -0.0307 -0.9370  0.4027
 1504TIP3   OH226070   5.338   0.406   7.225  0.6341  0.1562  0.1705
 1504TIP3    H126071   5.277   0.334   7.239 -0.2329  0.5348 -1.4853
 1504TIP3    H226072   5.344   0.415   7.130  3.7929 -0.2797  0.2302
 1505TIP3   OH226073   2.679   1.429   1.595  0.6446  0.0342  0.0366
 1505TIP3    H126074   2.692   1.334   1.603 -2.5337 -0.5707 -0.4803
 1505TIP3    H226075   2.694   1.463   1.683 -0.8677 -1.4103  0.9109
 1506TIP3   OH226076   3.168   3.472   6.142 -0.7243  0.2433  0.2106
 1506TIP3    H126077   3.132   3.542   6.089 -2.2431 -0.1604  0.6511
 1506TIP3    H226078   3.218   3.417   6.081  0.0848  1.4201 -0.2145
 1507TIP3   OH226079   4.480   1.309   7.556 -0.3013 -0.6992 -0.0779
 1507TIP3    H126080   4.537   1.315   7.633  1.0198  1.6232 -1.1110
 1507TIP3    H226081   4.506   1.227   7.514  0.5685 -0.8919  0.7817
 1508TIP3   OH226082   4.008   5.615   7.656 -0.2609  0.0547 -0.6519
 1508TIP3    H126083   4.071   5.637   7.724 -1.5999  1.5305  0.1926
 1508TIP3    H226084   3.944   5.558   7.699  0.1603 -0.9946 -1.3556
 1509TIP3   OH226085   6.718   4.863   7.349 -0.0996 -0.3228 -0.8165
 1509TIP3    H126086   6.798   4.906   7.319 -1.1668  0.0379 -3.4067
 1509TIP3    H226087   6.680   4.925   7.411 -0.0600  1.1317 -2.1824
 1510TIP3   OH226088   3.648   6.691   0.608  0.1607  0.1800  0.6685
 1510TIP3    H126089   3.602   6.756   0.662  1.0620  0.7397  0.7922
 1510TIP3    H226090   3.613   6.607   0.637 -2.3284  0.6455 -0.7220
 1511TIP3   OH226091   6.146   4.974   8.210  0.1084  0.1956 -0.2841
 1511TIP3    H126092   6.238   4.994   8.193 -0.4852  3.3399 -0.3356
 1511TIP3    H226093   6.144   4.944   8.301  0.9522  2.3790  0.5024
 1512TIP3   OH226094   6.564   4.345   7.328 -0.0673  0.2303  0.1415
 1512TIP3    H126095   6.575   4.250   7.315 -2.0072  0.1410 -1.2457
 1512TIP3    H226096   6.584   4.358   7.421  0.2705 -1.5241  0.3660
 1513TIP3   OH226097   0.122   5.412   1.389 -0.0306 -0.2430 -0.3400
 1513TIP3    H126098   0.133   5.479   1.321  0.7713  1.6173  1.5362
 1513TIP3    H226099   0.087   5.459   1.464  0.0917 -2.0403  0.9016
 1514TIP3   OH226100   6.032   3.387   2.475  0.3869 -0.1981 -0.5393
 1514TIP3    H126101   6.101   3.392   2.409  1.5982 -2.2600  0.4721
 1514TIP3    H226102   6.037   3.297   2.508 -0.2717  0.7012  2.2422
 1515TIP3   OH226103   2.091   0.569   8.074 -0.7725  0.4315 -0.7114
 1515TIP3    H126104   2.181   0.546   8.099 -0.5975  2.1685  0.3601
 1515TIP3    H226105   2.037   0.504   8.118 -0.1107 -0.1088 -0.6693
 1516TIP3   OH226106   6.173   1.254   1.823  0.2759 -0.4918  0.6943
 1516TIP3    H126107   6.129   1.214   1.749  0.8316  0.2210 -0.0406
 1516TIP3    H226108   6.165   1.190   1.894  0.4703 -1.5427 -0.2165
 1517TIP3   OH226109   3.543   2.329   6.691 -0.2817  0.6095 -0.4604
 1517TIP3    H126110   3.455   2.321   6.656  0.6194  0.2086 -2.8118
 1517TIP3    H226111   3.578   2.408   6.651  1.1574 -0.4294 -1.3529
 1518TIP3   OH226112   6.067   0.130   7.950  0.2049  0.2885  0.2570
 1518TIP3    H126113   5.973   0.128   7.932  0.4103  0.4578 -0.9124
 1518TIP3    H226114   6.107   0.091   7.872  1.0920 -0.0449  0.8648
 1519TIP3   OH226115   4.025   1.577   8.014  0.0138  0.2550  0.0943
 1519TIP3    H126116   4.076   1.656   7.993 -0.5468  1.0142  1.4325
 1519TIP3    H226117   4.036   1.520   7.938  2.4413  0.5917  0.1095
 1520TIP3   OH226118   6.774   2.255   1.390  0.3004  0.1614  0.1516
 1520TIP3    H126119   6.721   2.299   1.323 -0.0823 -0.5354 -0.0115
 1520TIP3    H226120   6.721   2.257   1.469 -0.3982 -1.3574 -0.2417
 1521TIP3   OH226121   2.911   4.958   2.087  0.8687 -0.1319  0.5476
 1521TIP3    H126122   2.832   4.997   2.124  2.5263  2.9201  1.1899
 1521TIP3    H226123   2.878   4.891   2.027 -2.1993  0.9996  0.7717
 1522TIP3   OH226124   2.496   6.067   6.623  0.2014 -0.0448  0.5726
 1522TIP3    H126125   2.554   6.070   6.698  1.8536 -0.6775 -0.6121
 1522TIP3    H226126   2.554   6.079   6.547 -1.2238 -0.5900 -0.6633
 1523TIP3   OH226127   1.328   5.910   0.563 -0.3010  0.2166  0.0431
 1523TIP3    H126128   1.240   5.928   0.596 -0.8103  0.5128 -1.4018
 1523TIP3    H226129   1.313   5.848   0.491  0.8022 -0.7633  0.6373
 1524TIP3   OH226130   5.541   0.889   7.220 -0.4046 -0.1416 -0.5703
 1524TIP3    H126131   5.602   0.958   7.197 -1.1281  0.3058 -1.1730
 1524TIP3    H226132   5.489   0.926   7.292 -0.8466 -0.0204 -0.9478
 1525TIP3   OH226133   6.279   3.703   0.028 -0.2432  0.1774 -0.1478
 1525TIP3    H126134   6.322   3.712  -0.057  1.1586  2.9798  0.7382
 1525TIP3    H226135   6.351   3.701   0.091 -1.3025  0.2341  1.1046
 1526TIP3   OH226136   1.595   6.617   0.348  0.4441 -0.4420 -0.3122
 1526TIP3    H126137   1.534   6.609   0.275 -0.3341 -1.1761  0.4013
 1526TIP3    H226138   1.554   6.680   0.407  2.0067  1.7222 -1.3880
 1527TIP3   OH226139   5.977   1.829   7.285  0.3256 -0.4647 -0.0405
 1527TIP3    H126140   5.984   1.913   7.329 -0.9785  0.1923 -1.0092
 1527TIP3    H226141   5.971   1.765   7.356  0.8625  0.2923  0.7080
 1528TIP3   OH226142   2.719   6.543   7.024  0.7626  0.6549 -0.2654
 1528TIP3    H126143   2.812   6.534   7.047  0.8100  0.4200 -0.5426
 1528TIP3    H226144   2.708   6.487   6.947  0.2354  0.1215  0.1907
 1529TIP3   OH226145   6.624   1.931   6.042  0.4199  0.3543 -0.3386
 1529TIP3    H126146   6.620   1.837   6.025  0.1983 -0.1359  2.1412
 1529TIP3    H226147   6.716   1.949   6.060  0.6488  0.8626 -1.8573
 1530TIP3   OH226148   1.250   3.530   8.367 -0.2202 -0.3038 -0.1173
 1530TIP3    H126149   1.235   3.497   8.456  0.7965 -0.5721 -0.0350
 1530TIP3    H226150   1.344   3.550   8.364 -0.6249  1.7985 -0.4332
 1531TIP3   OH226151   2.276   2.577   8.269  0.4396  0.1499 -0.6619
 1531TIP3    H126152   2.246   2.576   8.360  1.7459 -0.0481 -0.2181
 1531TIP3    H226153   2.360   2.622   8.272 -0.8913  3.0585 -2.2572
 1532TIP3   OH226154   6.726   4.833   2.290 -0.2928  0.2745  0.2344
 1532TIP3    H126155   6.636   4.813   2.316 -0.5268  0.1370 -0.6576
 1532TIP3    H226156   6.732   4.928   2.294 -1.1941  0.4731 -1.9105
 1533TIP3   OH226157   6.163   5.334   8.265  0.3077 -0.0810  0.7450
 1533TIP3    H126158   6.200   5.299   8.346  0.7899  0.8542  0.9391
 1533TIP3    H226159   6.232   5.324   8.200  0.6551  0.9511  0.9263
 1534TIP3   OH226160   3.358   1.274   0.339  0.1288 -0.2080 -0.1485
 1534TIP3    H126161   3.439   1.317   0.315 -0.5565  1.6485  0.6944
 1534TIP3    H226162   3.354   1.280   0.434 -0.1355 -1.9289 -0.0196
 1535TIP3   OH226163   4.663   4.612   7.448  0.2658  0.1098 -0.0475
 1535TIP3    H126164   4.626   4.694   7.480 -1.5742 -0.6811 -0.0215
 1535TIP3    H226165   4.707   4.574   7.524 -1.7781 -0.5009  0.8716
 1536TIP3   OH226166   6.644   2.560   0.144  0.5713  0.5325 -0.2687
 1536TIP3    H126167   6.558   2.599   0.127  0.2912 -0.7244 -2.0010
 1536TIP3    H226168   6.675   2.533   0.057  2.5687  0.6416  0.3728
 1537TIP3   OH226169   0.693   3.299   8.191  0.2612  0.3878  0.3426
 1537TIP3    H126170   0.601   3.277   8.175  0.4297 -0.0027 -0.1317
 1537TIP3    H226171   0.707   3.382   8.145  0.1212  0.4960  0.4962
 1538TIP3   OH226172   4.775   6.669   6.415  0.0508  0.6591 -0.3086
 1538TIP3    H126173   4.770   6.587   6.365 -0.7823  0.2301  0.4447
 1538TIP3    H226174   4.748   6.737   6.353  0.2474  0.2946 -0.7971
 1539TIP3   OH226175   5.598   4.548   0.430 -0.0961 -0.3770 -0.4998
 1539TIP3    H126176   5.650   4.510   0.500  1.4871  2.3453 -0.0520
 1539TIP3    H226177   5.662   4.571   0.362 -0.6176  2.8125 -0.0660
 1540TIP3   OH226178   5.158   6.892   8.153  0.7175  0.0403 -0.2941
 1540TIP3    H126179   5.089   6.942   8.196  0.9665 -0.2638  0.4853
 1540TIP3    H226180   5.161   6.926   8.064  2.2588  2.8777  0.7281
 1541TIP3   OH226181   2.911   1.520   0.841  0.7709  0.4708 -0.6777
 1541TIP3    H126182   2.900   1.588   0.908  3.3530  1.4916 -1.1703
 1541TIP3    H226183   2.934   1.441   0.890 -2.2552 -0.1615 -0.0980
 1542TIP3   OH226184   2.185   1.756   2.145  0.0012 -0.2478 -0.1606
 1542TIP3    H126185   2.229   1.671   2.135  1.6195  0.6145 -0.5504
 1542TIP3    H226186   2.174   1.789   2.056  0.3261  0.4307  0.0470
 1543TIP3   OH226187   2.854   2.009   7.562 -0.4006  0.2734  0.4118
 1543TIP3    H126188   2.902   2.092   7.561  0.6122 -0.2531 -2.4139
 1543TIP3    H226189   2.910   1.948   7.513 -0.7706 -2.3537  2.9502
 1544TIP3   OH226190   6.879   0.455   2.194 -0.3243  0.8273 -0.6820
 1544TIP3    H126191   6.787   0.427   2.189 -0.6464  1.7836 -0.2559
 1544TIP3    H226192   6.928   0.376   2.172 -1.2508  0.4232 -1.4176
 1545TIP3   OH226193   0.831   6.201   1.290  0.6355 -0.1217 -0.0023
 1545TIP3    H126194   0.916   6.210   1.333  0.2534 -0.3704  0.8381
 1545TIP3    H226195   0.848   6.218   1.198  1.2011  2.1711  0.4654
 1546TIP3   OH226196   6.453   5.148   6.338  0.3086 -0.2243  0.6338
 1546TIP3    H126197   6.360   5.126   6.338  0.1302  0.3240 -1.2233
 1546TIP3    H226198   6.478   5.148   6.430 -1.7615  0.6148  1.2572
 1547TIP3   OH226199   6.012   3.257   2.183  0.7537  0.0569  0.0128
 1547TIP3    H126200   5.979   3.177   2.225  0.1180  0.6704  0.7172
 1547TIP3    H226201   6.104   3.260   2.206  0.2166  0.9220  2.3583
 1548TIP3   OH226202   0.803   2.555   1.345 -0.8245 -0.1947 -0.3275
 1548TIP3    H126203   0.734   2.583   1.405 -0.9841  0.3370 -0.7490
 1548TIP3    H226204   0.758   2.494   1.285 -0.5209 -1.2309  0.4715
 1549TIP3   OH226205   3.815   3.417   0.759 -0.2826 -0.2763 -0.2177
 1549TIP3    H126206   3.898   3.439   0.717 -0.2212 -0.3380 -0.1311
 1549TIP3    H226207   3.820   3.460   0.845 -0.4488 -0.0681 -0.3123
 1550TIP3   OH226208   0.762   5.831   0.669 -0.2551 -0.1988 -0.4347
 1550TIP3    H126209   0.789   5.764   0.606 -1.7637 -0.1201 -1.2248
 1550TIP3    H226210   0.809   5.809   0.749  0.8025 -1.0137 -1.2411
 1551TIP3   OH226211   1.954   4.483   7.259  0.0889 -0.1007  0.3512
 1551TIP3    H126212   1.903   4.412   7.220 -1.0391  1.2549 -0.7314
 1551TIP3    H226213   2.023   4.500   7.195 -1.1638  1.4441 -0.6681
 1552TIP3   OH226214   1.750   2.397   1.345  0.4077 -0.3257  0.1886
 1552TIP3    H126215   1.755   2.476   1.399  0.5608  0.0073 -0.3062
 1552TIP3    H226216   1.667   2.405   1.299  0.8306 -0.0143 -0.5295
 1553TIP3   OH226217   4.040   6.113   7.470  0.0949 -0.2605  1.2063
 1553TIP3    H126218   3.969   6.050   7.479 -1.6545  1.1854 -1.1767
 1553TIP3    H226219   4.116   6.061   7.443 -0.6812 -1.5777  1.4877
 1554TIP3   OH226220   2.976   2.981   7.358 -0.0965  0.3658  0.6145
 1554TIP3    H126221   3.037   2.919   7.398  1.8535  1.6781 -0.1509
 1554TIP3    H226222   2.965   2.950   7.269 -0.8846 -0.0691  0.8512
 1555TIP3   OH226223   6.512   0.600   6.391  0.0800  0.0360 -0.2357
 1555TIP3    H126224   6.607   0.604   6.402 -0.0811  1.4018  0.9470
 1555TIP3    H226225   6.496   0.516   6.347  1.8542 -0.0047 -0.8647
 1556TIP3   OH226226   3.433   2.826   8.077 -0.4592 -0.1411  0.1916
 1556TIP3    H126227   3.453   2.732   8.079 -1.9225 -0.4751  1.6651
 1556TIP3    H226228   3.504   2.864   8.025  1.1219 -1.8338  0.9634
 1557TIP3   OH226229   5.209   3.948   1.972 -0.3047 -0.4939  0.1977
 1557TIP3    H126230   5.117   3.925   1.959 -0.2488 -0.7136  0.1802
 1557TIP3    H226231   5.214   3.977   2.063 -0.9666  2.3369 -0.5737
 1558TIP3   OH226232   5.819   3.359   7.106  0.4755 -0.3440  0.2803
 1558TIP3    H126233   5.867   3.424   7.156  1.7607 -0.2646 -0.9908
 1558TIP3    H226234   5.845   3.374   7.015 -3.4760  1.0162 -0.8191
 1559TIP3   OH226235   4.542   0.381   1.443  0.0213 -0.2576  0.4105
 1559TIP3    H126236   4.583   0.318   1.383  1.2392  3.3148 -2.8717
 1559TIP3    H226237   4.450   0.383   1.416 -0.1254 -0.8986  0.8366
 1560TIP3   OH226238   5.150   0.711   6.943 -0.1417 -0.0360 -1.4773
 1560TIP3    H126239   5.231   0.756   6.921  0.6152 -0.1673  0.7874
 1560TIP3    H226240   5.178   0.625   6.976 -1.2718 -0.4506 -1.5391
 1561TIP3   OH226241   1.322   2.649   7.445 -0.3630  0.3765  0.0137
 1561TIP3    H126242   1.411   2.636   7.413 -0.5100  0.1934 -0.3246
 1561TIP3    H226243   1.331   2.653   7.540  0.2252  2.1035 -0.0827
 1562TIP3   OH226244   3.574   6.616   7.912 -0.3188 -0.5218 -0.1278
 1562TIP3    H126245   3.586   6.685   7.977 -0.6510 -1.0428  0.4995
 1562TIP3    H226246   3.507   6.650   7.852 -0.3922 -0.2495  0.1099
 1563TIP3   OH226247   4.791   0.684   1.487  0.1454  0.8560 -0.2382
 1563TIP3    H126248   4.781   0.607   1.543  0.4461  1.5963  0.8734
 1563TIP3    H226249   4.874   0.670   1.442 -0.2144  0.1380 -0.7032
 1564TIP3   OH226250   3.476   1.151   7.473 -0.1033  0.3726  1.0016
 1564TIP3    H126251   3.430   1.162   7.557 -0.7581  0.2245  0.6697
 1564TIP3    H226252   3.422   1.088   7.425  0.5148  0.1105  0.6427
 1565TIP3   OH226253   3.996   6.644   1.820 -0.1361 -0.1194  0.1443
 1565TIP3    H126254   4.010   6.636   1.726  0.5608  3.5888 -0.2257
 1565TIP3    H226255   4.044   6.723   1.844 -1.0876 -0.4167  3.4686
 1566TIP3   OH226256   1.312   6.676   8.063  0.6627 -0.4327  0.0006
 1566TIP3    H126257   1.310   6.744   8.131 -0.0630  0.3824 -0.8061
 1566TIP3    H226258   1.321   6.724   7.981 -2.4316 -1.0459 -0.8372
 1567TIP3   OH226259   4.900   3.894   0.946  0.2066 -0.0815  0.3224
 1567TIP3    H126260   4.918   3.982   0.913 -0.3818  0.5676  1.6505
 1567TIP3    H226261   4.881   3.842   0.868  2.2054  0.5489 -0.6277
 1568TIP3   OH226262   2.382   2.831   1.035  0.7099  0.5412 -0.5703
 1568TIP3    H126263   2.330   2.816   0.956  0.8395 -0.1234 -0.5330
 1568TIP3    H226264   2.449   2.894   1.008  0.6371  0.4626 -0.9372
 1569TIP3   OH226265   0.659   6.746   1.956  0.2774 -0.0997  0.0689
 1569TIP3    H126266   0.667   6.711   2.045 -0.8205 -0.1967  0.1439
 1569TIP3    H226267   0.743   6.789   1.939  0.7679 -0.7131  0.8719
 1570TIP3   OH226268   5.550   6.481   7.781  0.4578 -0.5255  0.0085
 1570TIP3    H126269   5.570   6.561   7.732  1.5140  0.0602  1.3423
 1570TIP3    H226270   5.602   6.413   7.737 -1.4067 -0.8028 -1.9186
 1571TIP3   OH226271   0.224   1.581   0.472 -0.0428 -0.0673 -0.1152
 1571TIP3    H126272   0.248   1.490   0.488  1.5796  0.3278 -0.0684
 1571TIP3    H226273   0.263   1.601   0.386  0.1520  0.7426  0.1529
 1572TIP3   OH226274   4.810   0.409   0.049  0.1676  0.8895  0.2797
 1572TIP3    H126275   4.843   0.474   0.112  0.3335 -0.8181  2.0573
 1572TIP3    H226276   4.851   0.327   0.076 -1.6535 -0.3558 -0.5543
 1573TIP3   OH226277   2.378   3.241   6.449  0.3220  0.5602 -0.4239
 1573TIP3    H126278   2.465   3.234   6.412  0.0690  1.9679 -1.3410
 1573TIP3    H226279   2.331   3.300   6.391 -0.9515  0.6081  0.5943
 1574TIP3   OH226280   5.511   2.641   6.412 -0.2315 -0.2541 -0.0421
 1574TIP3    H126281   5.539   2.590   6.335 -0.2677 -1.4156  0.6836
 1574TIP3    H226282   5.570   2.612   6.482  0.1486  1.1817  0.2549
 1575TIP3   OH226283   3.321   6.014   6.476  0.1449 -0.2389 -0.3823
 1575TIP3    H126284   3.362   5.928   6.475 -0.5323 -0.5682 -0.4768
 1575TIP3    H226285   3.227   5.996   6.481  0.0543  0.4981  1.7687
 1576TIP3   OH226286   3.859   1.017   6.436  0.0299  0.5109  0.6752
 1576TIP3    H126287   3.816   0.962   6.370 -0.4178  1.0867  0.4799
 1576TIP3    H226288   3.914   0.956   6.485  1.3743  0.2418 -1.0356
 1577TIP3   OH226289   0.209   0.044   7.692  0.2386 -0.5191  0.6646
 1577TIP3    H126290   0.220   0.032   7.786 -0.9933 -2.0306  0.6660
 1577TIP3    H226291   0.115   0.029   7.677 -0.2249  2.5963 -0.4371
 1578TIP3   OH226292   0.055   5.277   0.618  0.1051 -0.3664  0.1040
 1578TIP3    H126293   0.073   5.206   0.557 -1.0676 -0.0894 -0.5954
 1578TIP3    H226294  -0.040   5.289   0.614  0.1272  0.3374  1.2230
 1579TIP3   OH226295   2.874   0.665   8.414  0.5689 -0.1532  0.4247
 1579TIP3    H126296   2.906   0.614   8.489  0.1388 -0.6998  0.2472
 1579TIP3    H226297   2.796   0.617   8.384  0.6634  0.1301 -0.2925
 1580TIP3   OH226298   1.551   0.031   8.039 -0.0122  0.1595 -1.0511
 1580TIP3    H126299   1.484   0.067   8.097  0.0286  1.7852 -1.9640
 1580TIP3    H226300   1.536   0.074   7.955  2.1390  0.5222 -1.3052
 1581TIP3   OH226301   3.221   1.947   6.197  0.0939 -0.0215 -0.1748
 1581TIP3    H126302   3.128   1.928   6.184  0.3584 -0.5307 -1.4089
 1581TIP3    H226303   3.264   1.912   6.119  1.5128 -1.2098  1.0819
 1582TIP3   OH226304   0.295   3.682   0.036  0.0399 -0.0761  0.7109
 1582TIP3    H126305   0.321   3.756  -0.020 -0.7866  0.9668  1.6433
 1582TIP3    H226306   0.200   3.683   0.033  0.0004 -0.3534  1.6720
 1583TIP3   OH226307   3.568   2.934   2.085 -0.3917  0.2825 -0.0606
 1583TIP3    H126308   3.625   2.992   2.032  0.0278 -0.8115 -0.8441
 1583TIP3    H226309   3.628   2.891   2.145 -0.8225  1.2528  1.0957
 1584TIP3   OH226310   0.859   2.239   7.463 -0.2761  0.1635  0.0206
 1584TIP3    H126311   0.859   2.268   7.372 -0.7192  1.9190  0.5366
 1584TIP3    H226312   0.938   2.186   7.472  0.2728  0.7590 -1.1518
 1585TIP3   OH226313   6.130   4.734   1.494 -0.1785  0.0799 -0.4349
 1585TIP3    H126314   6.191   4.709   1.563 -0.5894 -0.9644 -0.4328
 1585TIP3    H226315   6.185   4.777   1.428  0.7068 -1.5333 -0.7972
 1586TIP3   OH226316   1.737   5.558   6.984  0.3316  0.4707  0.2470
 1586TIP3    H126317   1.745   5.618   6.910 -0.2305 -0.0641 -0.2564
 1586TIP3    H226318   1.790   5.482   6.959 -1.4034 -0.5576 -0.5002
 1587TIP3   OH226319   6.388   4.597   1.376 -0.4250  0.1833 -0.2985
 1587TIP3    H126320   6.335   4.605   1.297 -1.5917  0.0762  0.4526
 1587TIP3    H226321   6.466   4.650   1.358 -0.9683  0.6764 -1.2677
 1588TIP3   OH226322   6.502   5.159   7.815  0.3775  0.1065  0.4470
 1588TIP3    H126323   6.574   5.205   7.857 -1.0004  1.0795  1.8554
 1588TIP3    H226324   6.478   5.090   7.878  0.0299 -0.1491  0.0369
 1589TIP3   OH226325   6.614   1.530   0.996  0.3958 -0.4062  0.1248
 1589TIP3    H126326   6.648   1.579   0.921 -1.0075  0.4650  0.0180
 1589TIP3    H226327   6.642   1.579   1.072  1.1471 -0.8539  0.1440
 1590TIP3   OH226328   2.405   4.551   8.280  0.5713  1.4129 -0.2012
 1590TIP3    H126329   2.492   4.517   8.301 -0.5422 -0.6369  1.3893
 1590TIP3    H226330   2.375   4.496   8.207  0.4857  1.9472 -0.5777
 1591TIP3   OH226331   4.142   3.171   0.688 -0.0843 -0.2541  0.1479
 1591TIP3    H126332   4.096   3.145   0.767  0.5059  1.0183  0.9442
 1591TIP3    H226333   4.231   3.139   0.699  0.3162  0.9377  0.5712
 1592TIP3   OH226334   3.142   6.844   7.647 -0.5694 -0.2333  0.0334
 1592TIP3    H126335   3.137   6.932   7.685 -2.6377  0.9320 -2.5434
 1592TIP3    H226336   3.068   6.797   7.686 -0.6522 -0.1588 -0.0327
 1593TIP3   OH226337   4.625   1.853   6.790  0.4034  0.4927  0.4152
 1593TIP3    H126338   4.578   1.772   6.810 -2.6280  1.5581 -1.7237
 1593TIP3    H226339   4.703   1.824   6.743 -0.6119 -1.2067 -0.2905
 1594TIP3   OH226340   4.305   1.595   1.168  0.4168 -0.0384 -0.2157
 1594TIP3    H126341   4.350   1.540   1.104 -2.9970 -3.1738 -0.2401
 1594TIP3    H226342   4.232   1.634   1.120  0.3552  1.1547  0.8050
 1595TIP3   OH226343   2.997   6.360   0.439 -0.1260 -0.8072 -0.0174
 1595TIP3    H126344   3.013   6.367   0.533  0.2612  1.1471 -0.1807
 1595TIP3    H226345   2.915   6.311   0.433  0.8750 -2.7363  1.2265
 1596TIP3   OH226346   1.489   2.823   0.810  0.5619 -0.1427  0.1887
 1596TIP3    H126347   1.449   2.757   0.752 -0.7631 -0.5016  1.4314
 1596TIP3    H226348   1.510   2.896   0.753  0.2099 -0.8722 -0.9063
 1597TIP3   OH226349   5.274   5.682   1.298  0.2780  0.3157  0.1541
 1597TIP3    H126350   5.242   5.630   1.371  0.2876 -2.3830 -1.6578
 1597TIP3    H226351   5.366   5.655   1.288  0.2002  0.4377 -1.0066
 1598TIP3   OH226352   0.528   2.949   1.449 -0.5445  0.1439  0.0294
 1598TIP3    H126353   0.495   2.927   1.362  3.3757  0.7863 -1.8853
 1598TIP3    H226354   0.524   3.044   1.453 -0.1878  0.1515  0.2854
 1599TIP3   OH226355   5.526   2.801   1.391 -0.2441 -0.2428 -0.4236
 1599TIP3    H126356   5.558   2.844   1.312 -1.3138 -1.7346 -1.7226
 1599TIP3    H226357   5.493   2.873   1.445  0.2209  0.7805 -1.4408
 1600TIP3   OH226358   6.533   2.702   1.209 -0.4180  0.5587  0.7683
 1600TIP3    H126359   6.578   2.780   1.241 -1.9646  1.5139  0.7247
 1600TIP3    H226360   6.511   2.652   1.288  0.6969  0.0723  0.7865
 1601TIP3   OH226361   4.319   4.991   7.411 -0.0525 -0.4350  0.2219
 1601TIP3    H126362   4.224   4.984   7.409 -0.1117  0.4502 -0.3412
 1601TIP3    H226363   4.338   5.081   7.385  0.8814 -0.1407  1.7900
 1602TIP3   OH226364   0.243   1.151   1.615 -0.9307  0.3264 -0.2993
 1602TIP3    H126365   0.286   1.228   1.652 -0.2030 -0.9890  1.7952
 1602TIP3    H226366   0.198   1.184   1.538  0.0600  2.6687  0.0143
 1603TIP3   OH226367   2.279   4.009   6.160  0.0612  0.0393 -0.0431
 1603TIP3    H126368   2.339   3.967   6.222 -0.0847 -2.2135 -1.3257
 1603TIP3    H226369   2.193   4.000   6.201  0.1142 -0.3678 -0.0118
 1604TIP3   OH226370   3.067   5.432   2.428  0.4156 -0.2663  0.2454
 1604TIP3    H126371   3.105   5.480   2.355  0.9849 -0.5190  0.3633
 1604TIP3    H226372   3.021   5.358   2.388 -2.6093  1.6696 -0.1273
 1605TIP3   OH226373   2.043   3.353   0.999 -0.2922 -0.2718 -0.1992
 1605TIP3    H126374   2.116   3.301   1.032  0.3799  0.8392  0.1290
 1605TIP3    H226375   2.018   3.311   0.916  0.2626 -1.0570  0.0226
 1606TIP3   OH226376   0.842   2.952   8.005 -0.0364  0.5489 -0.0961
 1606TIP3    H126377   0.815   2.894   8.076  0.7297  0.9723  0.5518
 1606TIP3    H226378   0.760   2.987   7.971 -0.3690  1.0564  1.1892
 1607TIP3   OH226379   6.170   2.484   0.078 -0.0211 -0.3703 -1.2203
 1607TIP3    H126380   6.203   2.424   0.011  0.0796  0.0942 -1.5951
 1607TIP3    H226381   6.078   2.496   0.056 -0.3305 -1.2661 -0.4754
 1608TIP3   OH226382   0.987   6.524   1.548 -0.0618 -0.4410 -0.5567
 1608TIP3    H126383   0.939   6.573   1.615 -1.8105 -2.6632 -0.0203
 1608TIP3    H226384   0.998   6.585   1.476  0.0124  1.4016  0.9406
 1609TIP3   OH226385   0.320   1.825   8.082 -0.6291 -0.1800  0.6253
 1609TIP3    H126386   0.255   1.792   8.144  1.2981 -0.9834  2.3264
 1609TIP3    H226387   0.377   1.750   8.065  0.6319  0.8382  0.2253
 1610TIP3   OH226388   6.573   1.350   1.503  0.7091  0.5790  0.2063
 1610TIP3    H126389   6.492   1.348   1.453  0.1223  2.7458  0.9464
 1610TIP3    H226390   6.592   1.258   1.522 -0.5220 -0.0959 -1.5969
 1611TIP3   OH226391   5.372   3.836   7.011 -0.4357  0.9086  0.2797
 1611TIP3    H126392   5.318   3.798   6.942 -0.6184  0.0248  0.8920
 1611TIP3    H226393   5.314   3.896   7.057 -0.9010 -0.0196  0.9211
 1612TIP3   OH226394   2.094   3.516   2.086  0.4762  0.0771  0.2774
 1612TIP3    H126395   2.189   3.524   2.084  0.6747 -1.8177 -2.3970
 1612TIP3    H226396   2.078   3.424   2.107 -0.8026  0.3724  0.7015
 1613TIP3   OH226397   2.081   2.032   7.377  0.0517 -0.0129 -0.1778
 1613TIP3    H126398   2.152   1.976   7.345 -0.8822 -0.8197 -0.9208
 1613TIP3    H226399   2.108   2.058   7.465 -0.4256 -3.4874  1.1561
 1614TIP3   OH226400   5.636   4.103   2.245 -0.2831 -0.2097 -0.6732
 1614TIP3    H126401   5.695   4.045   2.294  2.0440  0.7993 -2.1237
 1614TIP3    H226402   5.595   4.046   2.179  1.3341 -0.4131 -1.5409
 1615TIP3   OH226403   2.104   6.572   0.889 -0.5891 -0.5804 -0.2960
 1615TIP3    H126404   2.193   6.606   0.872 -0.5218 -0.1753  0.8167
 1615TIP3    H226405   2.088   6.512   0.816  1.0655 -1.5645  0.0934
 1616TIP3   OH226406   4.961   6.623   7.313  0.4093 -0.2176 -0.1764
 1616TIP3    H126407   5.041   6.637   7.263 -0.2983  0.3432 -1.1971
 1616TIP3    H226408   4.989   6.617   7.404  1.4735  1.2658 -0.3888
 1617TIP3   OH226409   5.238   0.263   7.529  0.5218  0.7788 -0.1527
 1617TIP3    H126410   5.299   0.196   7.499 -0.9105 -0.8389  0.3999
 1617TIP3    H226411   5.156   0.243   7.483 -0.3762  1.1691  1.2151
 1618TIP3   OH226412   6.704   2.359   7.737 -0.2208  0.0323  0.0837
 1618TIP3    H126413   6.725   2.319   7.652  1.5387  0.4859  0.2542
 1618TIP3    H226414   6.637   2.424   7.716 -0.8802 -0.8739 -0.7032
 1619TIP3   OH226415   1.225   5.830   1.212  0.1754  0.1790 -0.4162
 1619TIP3    H126416   1.181   5.779   1.281 -0.7368  0.2340 -0.9332
 1619TIP3    H226417   1.291   5.771   1.178  0.5075  0.0805  0.3723
 1620TIP3   OH226418   6.192   0.845   7.220  0.0139 -0.2612  0.3159
 1620TIP3    H126419   6.242   0.924   7.201  0.4250 -0.0664  2.0136
 1620TIP3    H226420   6.105   0.877   7.246  0.1343 -0.3608  0.8564
 1621TIP3   OH226421   6.903   5.317   7.144  0.2151 -0.3542  0.1389
 1621TIP3    H126422   6.973   5.335   7.207  0.8215  0.4430 -0.7217
 1621TIP3    H226423   6.948   5.278   7.069 -0.3494 -0.3719 -0.1979
 1622TIP3   OH226424   3.737   2.496   6.565  0.1009 -0.2036  0.0522
 1622TIP3    H126425   3.814   2.524   6.615 -0.4803  0.2738  0.6961
 1622TIP3    H226426   3.772   2.470   6.480  0.9312  0.3479  0.2132
 1623TIP3   OH226427   4.453   3.678   0.329 -0.2074 -0.4152  0.1172
 1623TIP3    H126428   4.425   3.727   0.251 -1.1515 -0.0716  0.6529
 1623TIP3    H226429   4.386   3.698   0.395 -0.6102 -2.3907  0.3829
 1624TIP3   OH226430   1.538   5.692   8.449 -0.3050  0.1240  0.2701
 1624TIP3    H126431   1.484   5.630   8.399 -0.7607  1.5772 -1.1318
 1624TIP3    H226432   1.623   5.649   8.457 -0.8793 -1.0724  0.1639
 1625TIP3   OH226433   3.059   5.477   7.871 -0.4755  0.2293 -0.5698
 1625TIP3    H126434   2.982   5.504   7.822 -0.0104  2.1478 -0.3584
 1625TIP3    H226435   3.132   5.487   7.809 -0.1485  0.5372 -0.1455
 1626TIP3   OH226436   1.339   4.628   2.738 -0.4191 -0.5861 -0.4455
 1626TIP3    H126437   1.427   4.656   2.711 -1.1476  0.1908 -2.1654
 1626TIP3    H226438   1.340   4.533   2.728 -0.1927 -0.4621 -1.9400
 1627TIP3   OH226439   6.641   5.372   6.783  0.4400  0.1096 -0.6453
 1627TIP3    H126440   6.682   5.325   6.856 -1.0931  1.3084  1.1103
 1627TIP3    H226441   6.675   5.330   6.704  4.3825  0.5327  0.6260
 1628TIP3   OH226442   2.592   6.025   1.512  0.0981 -0.7104 -0.2120
 1628TIP3    H126443   2.511   5.974   1.506 -1.0165  0.8469  0.7550
 1628TIP3    H226444   2.589   6.066   1.599  2.3663 -1.2843  0.2043
 1629TIP3   OH226445   4.464   3.048   8.309  0.3011 -0.2729  0.0933
 1629TIP3    H126446   4.511   3.091   8.237  0.6815 -0.4001  0.2626
 1629TIP3    H226447   4.532   2.997   8.354 -0.3266 -2.0351 -0.8258
 1630TIP3   OH226448   0.532   0.722   0.189  0.1114 -0.2840  0.1284
 1630TIP3    H126449   0.622   0.700   0.168  0.6351  1.6068  0.1944
 1630TIP3    H226450   0.537   0.765   0.274 -1.2440 -2.6247  1.5009
 1631TIP3   OH226451   3.413   4.103   0.179  0.0560  0.1489 -0.1109
 1631TIP3    H126452   3.476   4.034   0.200 -0.7298 -0.4094  0.4339
 1631TIP3    H226453   3.335   4.082   0.229 -1.6518 -0.8090 -2.9265
 1632TIP3   OH226454   3.900   0.932   2.069 -0.4906 -0.4101  1.1067
 1632TIP3    H126455   3.904   0.870   2.142 -0.3709 -1.8460 -0.0626
 1632TIP3    H226456   3.975   0.908   2.014 -0.6707  0.5455  0.4250
 1633TIP3   OH226457   1.100   2.278   6.349  0.6583  0.4956  0.0708
 1633TIP3    H126458   1.092   2.203   6.407 -1.2596 -0.0844 -0.8509
 1633TIP3    H226459   1.140   2.243   6.269 -0.6013  0.3184 -0.5097
 1634TIP3   OH226460   1.993   0.156   7.188  0.7082  0.1011 -0.1334
 1634TIP3    H126461   1.916   0.186   7.139 -0.1246  1.0946  1.6915
 1634TIP3    H226462   2.065   0.209   7.154  0.0434  1.1740  0.0699
 1635TIP3   OH226463   5.163   3.919   6.511  0.5499 -1.1320 -0.0045
 1635TIP3    H126464   5.096   3.976   6.548  3.7216  2.0211  1.4680
 1635TIP3    H226465   5.185   3.858   6.582  0.6282 -0.8155  0.2451
 1636TIP3   OH226466   4.454   6.784   0.748  0.6413 -0.1673 -0.9662
 1636TIP3    H126467   4.360   6.803   0.756  0.4751 -1.4168  0.4133
 1636TIP3    H226468   4.467   6.768   0.655 -1.1735 -2.9630 -0.8570
 1637TIP3   OH226469   6.422   2.766   7.765 -0.0117 -0.0237  0.1968
 1637TIP3    H126470   6.402   2.690   7.711 -1.1129 -1.0602  2.0071
 1637TIP3    H226471   6.433   2.732   7.853  1.7556  1.6289  0.7019
 1638TIP3   OH226472   3.933   6.861   8.109 -0.1441  0.6911  0.1949
 1638TIP3    H126473   3.935   6.826   8.020 -0.4469 -1.0779  0.8535
 1638TIP3    H226474   3.950   6.786   8.165  0.9434  1.9301  1.6240
 1639TIP3   OH226475   0.530   2.159   0.606  0.2399 -0.4140  0.2268
 1639TIP3    H126476   0.483   2.239   0.582 -0.0732 -0.3690  0.9603
 1639TIP3    H226477   0.613   2.164   0.558  0.5222  0.6952  0.8039
 1640TIP3   OH226478   3.658   0.102   8.537 -0.1609 -0.5142 -0.4957
 1640TIP3    H126479   3.581   0.156   8.551 -0.4928 -0.5930 -1.8293
 1640TIP3    H226480   3.730   0.154   8.573 -0.6094  0.3554 -0.8097
 1641TIP3   OH226481   0.713   5.434   7.845  0.2429  0.5797  0.5621
 1641TIP3    H126482   0.737   5.400   7.759 -0.1897  0.0590  0.6466
 1641TIP3    H226483   0.796   5.440   7.892  0.2838 -0.7199  0.6727
 1642TIP3   OH226484   0.545   3.436   7.011  0.0278 -0.1216 -0.5174
 1642TIP3    H126485   0.575   3.524   6.987 -0.3733  0.0828 -0.2664
 1642TIP3    H226486   0.522   3.394   6.928  1.7987 -0.5814 -0.8206
 1643TIP3   OH226487   5.367   3.250   1.667 -0.3754 -0.6018  0.6766
 1643TIP3    H126488   5.406   3.165   1.645  0.6537  0.1297 -0.4761
 1643TIP3    H226489   5.440   3.300   1.705 -0.5996  0.2273  0.0462
 1644TIP3   OH226490   6.901   1.178   0.977  0.3598 -0.2333  0.6374
 1644TIP3    H126491   6.936   1.252   0.927  1.4074 -1.9469 -1.3171
 1644TIP3    H226492   6.808   1.200   0.990  0.3057  0.8025 -1.1357
 1645TIP3   OH226493   3.904   0.553   7.753  0.0017 -0.3455  0.3401
 1645TIP3    H126494   3.852   0.483   7.712  0.6413 -0.4141 -0.3969
 1645TIP3    H226495   3.842   0.601   7.808 -0.9986 -0.0073 -1.0308
 1646TIP3   OH226496   3.617   0.158   7.098 -0.1829 -0.0950 -0.2378
 1646TIP3    H126497   3.559   0.085   7.120 -0.5977  0.4090  0.3531
 1646TIP3    H226498   3.615   0.216   7.174 -1.4954  1.5814 -1.4690
 1647TIP3   OH226499   0.646   6.531   0.226  0.4879 -0.3780 -0.0567
 1647TIP3    H126500   0.581   6.506   0.160  1.4165  0.2381 -1.2604
 1647TIP3    H226501   0.605   6.512   0.310 -1.2468  0.0103 -0.7755
 1648TIP3   OH226502   4.462   4.483   7.970 -0.2161  0.2573 -0.1617
 1648TIP3    H126503   4.437   4.397   8.002 -0.5021  0.8618  1.3125
 1648TIP3    H226504   4.428   4.486   7.880  1.4590 -1.8339 -0.9321
 1649TIP3   OH226505   6.780   0.753   6.835 -0.2981 -0.1857 -0.8378
 1649TIP3    H126506   6.866   0.794   6.837 -0.5585  0.4161 -1.6734
 1649TIP3    H226507   6.798   0.659   6.843  0.3833 -0.0266 -0.3845
 1650TIP3   OH226508   4.331   5.845   1.201 -0.4228 -0.1794  0.3841
 1650TIP3    H126509   4.278   5.920   1.173 -0.4681 -0.2285  0.3371
 1650TIP3    H226510   4.273   5.770   1.189 -0.0720 -0.3282 -0.4358
 1651TIP3   OH226511   3.153   3.831   1.810 -0.0060 -0.3783  0.0017
 1651TIP3    H126512   3.244   3.856   1.789  0.9030 -3.0444  0.3902
 1651TIP3    H226513   3.132   3.882   1.888  1.1937  0.2311 -0.0399
 1652TIP3   OH226514   3.395   6.207   1.523  0.0564 -0.6142  0.1011
 1652TIP3    H126515   3.339   6.140   1.562 -1.8846  1.1291  0.5104
 1652TIP3    H226516   3.481   6.192   1.560 -0.1520 -3.2236 -0.3103
 1653TIP3   OH226517   6.394   5.078   1.376 -0.4710  0.0308 -0.0728
 1653TIP3    H126518   6.465   5.014   1.383 -0.5883 -0.0606  0.3221
 1653TIP3    H226519   6.439   5.162   1.365 -0.3242 -0.2710 -2.1738
 1654TIP3   OH226520   4.371   0.701   8.040 -0.6743  0.2001 -0.2129
 1654TIP3    H126521   4.422   0.734   8.114 -0.6569  1.2594 -0.6772
 1654TIP3    H226522   4.329   0.622   8.073  1.2119 -0.7002  0.2065
 1655TIP3   OH226523   2.771   3.165   7.760 -0.4076  0.5940 -0.1501
 1655TIP3    H126524   2.797   3.156   7.851  0.5970  1.3337 -0.3475
 1655TIP3    H226525   2.853   3.163   7.711 -0.9573 -0.0942 -1.0651
 1656TIP3   OH226526   3.386   1.945   7.997 -0.0558  0.1457 -0.0513
 1656TIP3    H126527   3.410   1.853   7.991  0.8941  0.2839  1.2747
 1656TIP3    H226528   3.470   1.992   8.001 -0.5324  0.9495  0.8369
 1657TIP3   OH226529   6.875   6.525   0.509  0.3965 -0.0899 -0.0087
 1657TIP3    H126530   6.928   6.445   0.509 -1.8333 -1.7102 -1.3679
 1657TIP3    H226531   6.861   6.544   0.602  0.5161 -1.6306  0.3593
 1658TIP3   OH226532   3.822   2.812   0.512 -0.3715  0.1523 -0.5124
 1658TIP3    H126533   3.876   2.890   0.502 -0.9180  0.7592  1.0098
 1658TIP3    H226534   3.846   2.777   0.598 -1.6270 -0.1663 -0.2681
 1659TIP3   OH226535   4.948   0.557   0.324 -0.2806  0.3918 -0.5039
 1659TIP3    H126536   4.854   0.545   0.334 -0.1146 -1.0521 -0.5187
 1659TIP3    H226537   4.981   0.564   0.413 -0.2546 -0.3670 -0.4511
 1660TIP3   OH226538   5.733   2.441   0.521 -0.2416 -0.2061 -0.7830
 1660TIP3    H126539   5.746   2.451   0.427 -1.4203  0.0386 -0.9388
 1660TIP3    H226540   5.735   2.347   0.536 -0.2932 -0.2577 -1.0984
 1661TIP3   OH226541   6.349   1.662   0.565  0.0532  0.2079 -0.1175
 1661TIP3    H126542   6.440   1.666   0.534  0.3305  0.2573  0.6855
 1661TIP3    H226543   6.311   1.589   0.516  0.6180 -0.0298 -0.2177
 1662TIP3   OH226544   6.020   5.125   7.801 -0.4478  0.0942 -0.3477
 1662TIP3    H126545   6.072   5.051   7.833  1.8234  2.1978  1.2817
 1662TIP3    H226546   5.950   5.135   7.865 -0.4645 -0.3508 -0.2963
 1663TIP3   OH226547   2.469   6.157   1.013 -0.2402  0.6548 -0.3531
 1663TIP3    H126548   2.550   6.195   1.047 -0.3566  1.3366 -0.8144
 1663TIP3    H226549   2.458   6.076   1.063  1.0440  0.2375 -0.7133
 1664TIP3   OH226550   5.665   0.577   8.087  0.1516  0.0097 -0.9179
 1664TIP3    H126551   5.630   0.488   8.087  1.0326 -0.3406 -0.2040
 1664TIP3    H226552   5.594   0.629   8.048 -0.2398 -1.0354 -1.6753
 1665TIP3   OH226553   5.098   1.237   6.489  0.2811  0.1200 -0.3277
 1665TIP3    H126554   5.149   1.193   6.421  0.2076 -0.0189 -0.2929
 1665TIP3    H226555   5.009   1.203   6.478  0.0891  0.7118 -0.6988
 1666TIP3   OH226556   2.126   1.203   7.485 -0.1759 -0.1813 -0.1324
 1666TIP3    H126557   2.032   1.219   7.487  0.1847  2.7569 -1.1657
 1666TIP3    H226558   2.163   1.282   7.445  2.8192 -0.8154  1.0864
 1667TIP3   OH226559   5.910   6.913   1.867 -0.1284  0.1113 -0.1684
 1667TIP3    H126560   5.916   6.853   1.793  0.3812  0.2567 -0.2519
 1667TIP3    H226561   5.956   6.867   1.938 -0.3035  0.1235 -0.0479
 1668TIP3   OH226562   0.702   6.098   7.988 -0.2362  0.1721 -0.2142
 1668TIP3    H126563   0.664   6.094   7.900 -0.8089 -0.2076  0.0464
 1668TIP3    H226564   0.780   6.152   7.978 -2.3107  3.5038 -0.2317
 1669TIP3   OH226565   0.301   5.949   8.061 -0.3691  0.4076 -0.2093
 1669TIP3    H126566   0.335   5.991   7.981 -0.2447 -0.1466 -0.4536
 1669TIP3    H226567   0.379   5.934   8.115 -0.3094 -0.1704 -0.4420
 1670TIP3   OH226568   5.151   0.145   6.783  0.5275 -0.3285  0.0290
 1670TIP3    H126569   5.230   0.181   6.743  0.5703  1.9970  1.9871
 1670TIP3    H226570   5.080   0.176   6.728  0.8399 -1.4198 -1.0455
 1671TIP3   OH226571   0.508   1.895   6.486  0.2443 -0.3590  0.2382
 1671TIP3    H126572   0.598   1.873   6.465  0.3608 -0.9244  1.2630
 1671TIP3    H226573   0.513   1.981   6.528  0.2237 -0.0908 -0.3004
 1672TIP3   OH226574   1.577   6.574   6.865 -0.3214 -0.3346 -0.0597
 1672TIP3    H126575   1.572   6.479   6.877  1.0045 -0.3691  0.4694
 1672TIP3    H226576   1.667   6.596   6.891  0.7151  0.5226 -3.7771
 1673TIP3   OH226577   5.452   4.562   8.140  0.0970  0.3542 -0.2268
 1673TIP3    H126578   5.497   4.552   8.056  0.9365 -0.0888  0.2656
 1673TIP3    H226579   5.519   4.544   8.206 -0.4347  1.1556  0.5580
 1674TIP3   OH226580   6.168   5.019   2.719  0.0586 -0.6813  0.1964
 1674TIP3    H126581   6.214   5.099   2.745  1.7905 -0.8209 -2.1002
 1674TIP3    H226582   6.200   5.001   2.630 -1.7620 -2.8569 -0.1044
 1675TIP3   OH226583   1.899   2.212   6.356 -0.2752  0.2648 -0.5446
 1675TIP3    H126584   1.889   2.130   6.404 -1.1584  1.2919  1.1136
 1675TIP3    H226585   1.812   2.253   6.359 -0.0418  0.9585 -1.9733
 1676TIP3   OH226586   3.530   0.834   1.441  0.1207  0.1284  0.1340
 1676TIP3    H126587   3.501   0.756   1.489  0.8503 -0.6896 -0.7073
 1676TIP3    H226588   3.621   0.846   1.468 -0.0992  0.9162  0.5346
 1677TIP3   OH226589   0.246   5.315   1.946  0.5242 -0.1191 -0.2920
 1677TIP3    H126590   0.160   5.355   1.933  0.6999  0.9026  1.3118
 1677TIP3    H226591   0.308   5.382   1.918  0.8271  0.9337  2.5612
 1678TIP3   OH226592   6.383   5.300   7.577  0.1047  0.0872  0.0807
 1678TIP3    H126593   6.420   5.249   7.649 -0.3358 -0.7080 -0.2502
 1678TIP3    H226594   6.310   5.348   7.616 -0.7500 -1.0843 -0.0203
 1679TIP3   OH226595   1.085   5.521   7.057 -0.1941 -0.0361 -0.4556
 1679TIP3    H126596   1.141   5.443   7.068  0.7292  0.4512 -1.4647
 1679TIP3    H226597   1.099   5.547   6.966  1.0662  2.4557  0.3705
 1680TIP3   OH226598   6.786   4.624   1.737 -0.7286 -0.4157  0.1643
 1680TIP3    H126599   6.709   4.584   1.696 -0.4756  0.8814 -1.6814
 1680TIP3    H226600   6.802   4.704   1.686  2.3924 -1.1064 -0.1090
 1681TIP3   OH226601   3.790   4.959   7.210  0.2379 -0.4328  0.3027
 1681TIP3    H126602   3.707   5.002   7.189  0.3314 -0.3838  0.0284
 1681TIP3    H226603   3.769   4.866   7.212  0.2830 -0.4579 -0.2796
 1682TIP3   OH226604   6.913   1.807   1.635 -0.3295  0.3458 -0.4445
 1682TIP3    H126605   6.904   1.712   1.643 -0.7914  0.2334 -1.9340
 1682TIP3    H226606   6.936   1.837   1.723 -2.1169 -0.9263  0.5130
 1683TIP3   OH226607   5.172   3.747   0.933  0.8914 -0.2505 -0.4416
 1683TIP3    H126608   5.168   3.705   1.019  1.0752  0.7931  0.0927
 1683TIP3    H226609   5.094   3.802   0.930  1.5052  0.6392 -0.4421
 1684TIP3   OH226610   2.406   6.811   1.778 -0.2115 -0.5205  0.2424
 1684TIP3    H126611   2.402   6.870   1.854 -1.5398  0.2615 -0.3883
 1684TIP3    H226612   2.325   6.830   1.730 -0.9162 -3.1967  0.2266
 1685TIP3   OH226613   2.007   6.852   0.888  0.2399 -0.5206 -0.1477
 1685TIP3    H126614   2.028   6.758   0.896  0.8344 -0.2943  1.5577
 1685TIP3    H226615   2.093   6.894   0.880 -0.0447 -0.1314 -1.2175
 1686TIP3   OH226616   4.093   2.991   8.232  0.1241  0.1612  0.5051
 1686TIP3    H126617   4.176   2.980   8.185 -0.5662 -0.9865 -0.4954
 1686TIP3    H226618   4.083   3.086   8.238  0.4447  0.3682 -1.3723
 1687TIP3   OH226619   5.428   2.945   1.621  0.6978  0.1786  0.1474
 1687TIP3    H126620   5.497   2.879   1.629 -0.1568 -1.2962 -3.0342
 1687TIP3    H226621   5.360   2.917   1.681  1.1811 -0.6928  0.3039
 1688TIP3   OH226622   1.045   5.203   1.182 -0.0140 -0.3215  0.3955
 1688TIP3    H126623   1.092   5.247   1.111 -2.0951  0.1543 -0.7960
 1688TIP3    H226624   1.086   5.234   1.262  0.6041  1.3620 -0.5263
 1689TIP3   OH226625   4.461   4.182   5.955 -0.0747 -0.0880 -1.2686
 1689TIP3    H126626   4.376   4.137   5.957  0.2979 -0.8142  0.6654
 1689TIP3    H226627   4.446   4.263   6.003  0.5862 -0.8126  0.2361
 1690TIP3   OH226628   3.705   4.010   1.405  0.1292 -0.4846 -0.2219
 1690TIP3    H126629   3.736   4.008   1.314 -2.5685  0.3723 -1.2391
 1690TIP3    H226630   3.623   3.960   1.404 -0.6792  0.7088  1.4422
 1691TIP3   OH226631   1.078   0.300   1.955  0.2454 -0.6266 -0.0139
 1691TIP3    H126632   1.019   0.375   1.963  1.6909  0.5013  0.6060
 1691TIP3    H226633   1.070   0.253   2.038  0.7076 -0.0828  0.3447
 1692TIP3   OH226634   4.547   3.106   8.061  0.1482  0.1053  0.0064
 1692TIP3    H126635   4.597   3.168   8.007  1.5389 -0.0358  1.0831
 1692TIP3    H226636   4.594   3.023   8.052 -1.2023 -0.6110 -0.7262
 1693TIP3   OH226637   0.250   0.487   7.552 -0.2376  0.6698 -0.3833
 1693TIP3    H126638   0.168   0.442   7.570 -1.2774  2.6023 -0.0475
 1693TIP3    H226639   0.317   0.435   7.596 -1.4945 -0.0504  0.7188
 1694TIP3   OH226640   6.581   2.759   6.918  0.0861 -0.0599 -0.0894
 1694TIP3    H126641   6.622   2.735   7.002 -0.2667 -0.8739 -0.1395
 1694TIP3    H226642   6.603   2.687   6.860  0.0205  0.3299 -0.5999
 1695TIP3   OH226643   3.942   5.797   1.200  0.4194 -0.3526  0.3900
 1695TIP3    H126644   3.987   5.748   1.131  0.3903  1.8383 -1.2597
 1695TIP3    H226645   3.860   5.825   1.160  0.4048  0.9871  1.3069
 1696TIP3   OH226646   4.945   4.265   2.081  0.0011 -0.8503 -0.8377
 1696TIP3    H126647   4.890   4.267   2.159 -0.1469  2.6706 -0.8792
 1696TIP3    H226648   5.034   4.274   2.114 -0.1593  2.5027 -0.9444
 1697TIP3   OH226649   3.526   2.895   0.145  0.3516 -0.2517  0.1010
 1697TIP3    H126650   3.472   2.889   0.223  0.5343 -0.3420  0.2199
 1697TIP3    H226651   3.613   2.866   0.173  0.5488  0.2289 -0.0034
 1698TIP3   OH226652   6.912   5.575   1.614 -0.2242 -0.3676  0.3893
 1698TIP3    H126653   6.853   5.647   1.636  0.9376  0.8440 -0.2674
 1698TIP3    H226654   6.936   5.536   1.698 -1.0840 -0.1604  0.7328
 1699TIP3   OH226655   4.546   6.417   0.827  0.0406  0.4820  0.4886
 1699TIP3    H126656   4.630   6.381   0.799 -0.2621 -0.7661  1.1222
 1699TIP3    H226657   4.492   6.417   0.748  0.5579  1.0904  0.1268
 1700TIP3   OH226658   5.968   2.505   7.523 -0.0133  0.1729 -0.6337
 1700TIP3    H126659   5.901   2.530   7.459 -0.8693 -0.0466  0.1570
 1700TIP3    H226660   5.963   2.573   7.591 -0.1954 -0.4379 -0.0299
 1701TIP3   OH226661   1.563   1.343   6.625  0.0528 -0.3532 -0.6336
 1701TIP3    H126662   1.529   1.403   6.691 -0.4280 -0.3731 -0.8558
 1701TIP3    H226663   1.494   1.340   6.558 -0.1581 -1.5187 -0.4013
 1702TIP3   OH226664   4.891   6.693   8.257 -0.3614  0.3819 -0.0315
 1702TIP3    H126665   4.817   6.667   8.203  0.5160  0.5512 -1.3644
 1702TIP3    H226666   4.892   6.789   8.252  1.8535  0.3629 -2.8513
 1703TIP3   OH226667   2.317   2.737   5.928 -0.1329 -0.4086  0.2889
 1703TIP3    H126668   2.250   2.678   5.963  1.6874 -2.0876  1.1403
 1703TIP3    H226669   2.346   2.787   6.005 -2.3507  2.4957 -0.5799
 1704TIP3   OH226670   6.090   3.127   6.880  0.5777  0.2311 -0.2451
 1704TIP3    H126671   6.060   3.036   6.885  0.7370  0.0888 -1.4246
 1704TIP3    H226672   6.013   3.179   6.900  0.6838 -0.1600  1.2557
 1705TIP3   OH226673   3.736   4.852   1.410  0.3022  0.0877  0.2365
 1705TIP3    H126674   3.820   4.858   1.364  0.8165  0.0781  1.1413
 1705TIP3    H226675   3.683   4.922   1.372  1.9381  2.4713  2.0168
 1706TIP3   OH226676   6.495   3.028   1.773  0.4141  0.1886 -0.0592
 1706TIP3    H126677   6.449   2.947   1.796 -1.3269  1.1908  0.1991
 1706TIP3    H226678   6.500   3.077   1.855  1.8308  0.1946 -0.1255
 1707TIP3   OH226679   4.457   4.640   8.258  0.5594  0.7730 -0.0589
 1707TIP3    H126680   4.504   4.644   8.175  0.6782  0.7165  0.0038
 1707TIP3    H226681   4.451   4.546   8.277  0.4641  0.7831 -0.0435
 1708TIP3   OH226682   2.390   4.556   0.179 -0.1621  0.5641 -0.2054
 1708TIP3    H126683   2.324   4.544   0.247 -0.7205  1.7169 -0.5224
 1708TIP3    H226684   2.445   4.627   0.211  0.7625 -0.1847 -0.0865
 1709TIP3   OH226685   3.043   2.460   1.105  0.0294 -0.2267  0.2612
 1709TIP3    H126686   3.106   2.517   1.149 -0.2435  0.6596 -0.4701
 1709TIP3    H226687   2.999   2.413   1.176  0.4875  0.2341  0.8579
 1710TIP3   OH226688   1.729   4.933   0.709  0.0338  0.2871  0.0359
 1710TIP3    H126689   1.722   5.009   0.651  0.1589  1.7838  1.9039
 1710TIP3    H226690   1.656   4.877   0.682 -0.1947  1.1510 -1.2457
 1711TIP3   OH226691   1.419   5.302   0.990 -0.3241  0.7404  0.7103
 1711TIP3    H126692   1.338   5.353   0.986  0.3759  1.8442 -0.5582
 1711TIP3    H226693   1.391   5.213   1.007 -1.7552  1.2099  0.9585
 1712TIP3   OH226694   3.256   5.039   0.419  0.0321 -0.2880 -0.2310
 1712TIP3    H126695   3.196   4.966   0.404 -1.0786  0.8513 -1.6369
 1712TIP3    H226696   3.315   5.037   0.343  1.1666 -0.7794  0.6322
 1713TIP3   OH226697   5.598   1.903   5.960  0.3342 -0.2552 -0.0531
 1713TIP3    H126698   5.583   1.935   6.049  0.2413 -2.0753  0.6295
 1713TIP3    H226699   5.647   1.822   5.972 -0.8284 -1.2316 -1.5839
 1714TIP3   OH226700   5.162   5.626   7.650  0.1891 -0.3271 -0.3005
 1714TIP3    H126701   5.150   5.603   7.558 -3.4368 -1.0022  0.1967
 1714TIP3    H226702   5.212   5.552   7.687  0.4531 -0.7302 -1.4237
 1715TIP3   OH226703   4.202   0.412   6.787  0.2488 -0.1899 -0.5612
 1715TIP3    H126704   4.119   0.447   6.818  0.4303 -0.2478  0.0143
 1715TIP3    H226705   4.251   0.488   6.757 -0.5090 -0.2982 -2.1532
 1716TIP3   OH226706   1.951   1.886   1.310 -0.2327 -0.2133  0.1864
 1716TIP3    H126707   1.943   1.976   1.278 -2.0563 -0.3668  0.1113
 1716TIP3    H226708   1.936   1.893   1.404  1.8410 -0.1857  0.5521
 1717TIP3   OH226709   4.965   4.296   6.106 -0.5510  0.0392 -0.0149
 1717TIP3    H126710   4.893   4.266   6.050  0.1604  2.1327 -2.2352
 1717TIP3    H226711   4.927   4.366   6.159 -0.6411 -0.3005  0.3739
 1718TIP3   OH226712   2.653   5.359   0.601 -0.5190 -0.1750  0.0556
 1718TIP3    H126713   2.601   5.279   0.600  0.4166 -0.8643  1.9330
 1718TIP3    H226714   2.728   5.338   0.656 -0.4729  2.1205  0.9717
 1719TIP3   OH226715   1.848   4.132   1.537  0.3750 -0.2343 -0.1153
 1719TIP3    H126716   1.907   4.093   1.473 -1.9597 -2.1891 -1.2280
 1719TIP3    H226717   1.805   4.204   1.491  1.2622  0.6780  0.4431
 1720TIP3   OH226718   1.013   1.318   0.969  0.4384 -0.1948  0.5736
 1720TIP3    H126719   1.006   1.355   1.057  4.0370  1.6047  0.3033
 1720TIP3    H226720   1.079   1.249   0.977 -2.5840 -3.3856  0.0507
 1721TIP3   OH226721   4.420   2.399   8.291  0.4528  0.0774  0.2394
 1721TIP3    H126722   4.390   2.312   8.268  1.6561  0.1945 -1.9634
 1721TIP3    H226723   4.497   2.385   8.346  1.5502 -0.3252 -1.3298
 1722TIP3   OH226724   1.889   6.504   0.342 -0.3352  0.0074  0.0867
 1722TIP3    H126725   1.828   6.560   0.391 -0.5433  0.3432 -0.5492
 1722TIP3    H226726   1.833   6.442   0.295 -0.2256  0.5717 -0.8186
 1723TIP3   OH226727   2.140   2.409   7.479  0.2976  0.0059  0.0352
 1723TIP3    H126728   2.170   2.422   7.569  1.1405  2.9523 -0.5520
 1723TIP3    H226729   2.214   2.367   7.435  0.0627 -1.0102  0.5895
 1724TIP3   OH226730   2.136   4.117   1.076 -0.7970  0.1206  0.6887
 1724TIP3    H126731   2.113   4.207   1.100 -1.0722 -0.0288  0.9964
 1724TIP3    H226732   2.060   4.065   1.102 -0.1974 -0.3521  1.5346
 1725TIP3   OH226733   2.976   2.243   0.493  0.4606  0.2873 -0.3298
 1725TIP3    H126734   2.977   2.198   0.409 -2.1229  0.4131 -0.4806
 1725TIP3    H226735   3.001   2.333   0.473  0.9998  0.0486 -0.7527
 1726TIP3   OH226736   6.404   6.420   2.023  0.7306  0.1362 -0.3538
 1726TIP3    H126737   6.378   6.334   2.057  0.8892  0.0365 -0.4801
 1726TIP3    H226738   6.354   6.429   1.942  1.5469 -0.3341 -0.9294
 1727TIP3   OH226739   0.284   5.185   2.621  0.0864  0.1816 -0.3732
 1727TIP3    H126740   0.195   5.169   2.651  0.0011 -0.5480 -0.9952
 1727TIP3    H226741   0.290   5.280   2.613  0.2513  0.4759  2.3628
 1728TIP3   OH226742   6.599   4.130   0.463 -0.6697  0.2967  0.1737
 1728TIP3    H126743   6.512   4.101   0.434 -1.2939  1.0196  1.2535
 1728TIP3    H226744   6.583   4.216   0.502  0.5103  0.3537  0.5436
 1729TIP3   OH226745   6.730   6.485   0.733  0.5533  0.1004 -0.3518
 1729TIP3    H126746   6.653   6.437   0.704 -1.7953  3.2162  0.1692
 1729TIP3    H226747   6.773   6.426   0.795 -1.9393 -1.4418  0.0580
 1730TIP3   OH226748   2.011   6.458   2.613  0.9674  0.3845  0.3413
 1730TIP3    H126749   1.991   6.391   2.547  1.9502  0.5049 -0.1070
 1730TIP3    H226750   2.012   6.540   2.565 -1.4099  0.9309  1.1089
 1731TIP3   OH226751   0.495   4.068   1.072  0.1440  0.2069  0.4858
 1731TIP3    H126752   0.523   4.139   1.131  0.5742  0.8039 -0.4163
 1731TIP3    H226753   0.548   4.081   0.993 -0.5411 -0.4863 -0.0927
 1732TIP3   OH226754   4.815   5.302   0.508 -0.6004  0.4091  0.3221
 1732TIP3    H126755   4.847   5.392   0.517  0.7177  0.2043 -1.7390
 1732TIP3    H226756   4.801   5.291   0.414  1.9413 -2.3887  0.1378
 1733TIP3   OH226757   0.948   4.859   0.815 -0.5162 -0.8494  0.3914
 1733TIP3    H126758   0.958   4.871   0.721 -0.0344  3.1637  0.8052
 1733TIP3    H226759   0.854   4.848   0.828 -0.6081 -1.2447 -0.5224
 1734TIP3   OH226760   6.506   5.249   7.253 -0.5310  0.3276  0.2867
 1734TIP3    H126761   6.495   5.343   7.236 -0.2061 -0.0143 -2.2260
 1734TIP3    H226762   6.583   5.225   7.202 -1.4460 -1.5514 -0.2937
 1735TIP3   OH226763   6.910   6.680   7.900  0.2802  0.1133  0.0838
 1735TIP3    H126764   6.863   6.735   7.838  0.1258  2.6632  2.2757
 1735TIP3    H226765   6.841   6.630   7.945  0.2134 -0.2070 -0.3654
 1736TIP3   OH226766   5.789   2.712   1.099  0.1309 -0.2856 -0.1037
 1736TIP3    H126767   5.699   2.714   1.067  0.3049  0.6406 -0.5561
 1736TIP3    H226768   5.843   2.724   1.021  0.6200 -0.0621  0.2614
 1737TIP3   OH226769   5.923   2.536   8.512 -0.2367 -0.0243  0.1293
 1737TIP3    H126770   5.938   2.467   8.448  1.6792 -0.1329  0.6164
 1737TIP3    H226771   5.861   2.595   8.470  1.4111  0.2510 -2.1287
 1738TIP3   OH226772   4.674   5.836   1.280 -0.7399 -0.3480  0.5126
 1738TIP3    H126773   4.630   5.810   1.361 -1.6671  0.5473  0.3127
 1738TIP3    H226774   4.724   5.758   1.254 -1.1312 -0.9361  1.4639
 1739TIP3   OH226775   2.797   2.647   2.184 -0.2302  0.4158 -0.4767
 1739TIP3    H126776   2.746   2.586   2.130 -1.4305 -1.6402  2.6960
 1739TIP3    H226777   2.887   2.616   2.177 -0.6430 -0.9646  0.0934
 1740TIP3   OH226778   5.813   3.612   0.065  0.0822 -0.0437  0.5553
 1740TIP3    H126779   5.815   3.692   0.013  0.1163 -1.1960 -1.3251
 1740TIP3    H226780   5.732   3.618   0.115  0.0122  1.0906  0.3415
 1741TIP3   OH226781   2.927   1.759   0.991  0.1423  0.1908  0.2358
 1741TIP3    H126782   2.986   1.823   1.032 -1.8048  1.7467  0.7824
 1741TIP3    H226783   2.851   1.756   1.050 -0.8954 -0.7347 -1.1026
 1742TIP3   OH226784   5.654   5.676   0.180 -0.2083 -0.4949  0.1465
 1742TIP3    H126785   5.579   5.630   0.142 -0.8210  1.8494 -1.7984
 1742TIP3    H226786   5.726   5.657   0.120 -0.2022  0.1298 -0.0584
 1743TIP3   OH226787   3.977   4.885   0.549 -0.3619 -0.0963  0.2608
 1743TIP3    H126788   3.962   4.976   0.525 -2.0483 -0.2256  0.6954
 1743TIP3    H226789   3.978   4.838   0.466  0.5663  0.3086  0.0313
 1744TIP3   OH226790   0.002   5.523   0.161 -0.3297  0.2286  0.6044
 1744TIP3    H126791  -0.092   5.542   0.159 -0.2580  0.4753 -1.1406
 1744TIP3    H226792   0.032   5.541   0.073  1.2636 -0.4362  0.9905
 1745TIP3   OH226793   0.790   4.431   1.530  0.1089  0.3905  0.3565
 1745TIP3    H126794   0.717   4.432   1.592 -0.4781  0.8286 -0.3269
 1745TIP3    H226795   0.749   4.425   1.444  0.9016  0.0928 -0.0158
 1746TIP3   OH226796   2.118   3.199   5.930 -0.0918  0.0116  0.2793
 1746TIP3    H126797   2.079   3.251   6.000 -0.3848  0.8041 -0.4555
 1746TIP3    H226798   2.050   3.196   5.862  1.5587  2.6804 -1.6905
 1747TIP3   OH226799   5.796   1.127   6.832 -0.1964 -0.1779  0.5270
 1747TIP3    H126800   5.774   1.193   6.766  0.7398 -1.5290 -1.2196
 1747TIP3    H226801   5.872   1.081   6.797  1.1455 -0.1814  3.1501
 1748TIP3   OH226802   3.439   1.542   2.139 -0.5880 -0.3753  0.2002
 1748TIP3    H126803   3.412   1.487   2.066  0.3473  0.3797 -0.7365
 1748TIP3    H226804   3.529   1.566   2.119 -0.2041 -0.3743  1.7451
 1749TIP3   OH226805   4.609   0.873   2.238 -0.2989 -0.9191 -0.2779
 1749TIP3    H126806   4.661   0.944   2.277  0.0454 -1.4092  0.1699
 1749TIP3    H226807   4.583   0.907   2.152 -0.2895 -0.1817 -0.0031
 1750TIP3   OH226808   0.215   3.265   0.294  0.7226 -0.3393  0.1010
 1750TIP3    H126809   0.241   3.179   0.261  0.6516 -0.3789  0.1449
 1750TIP3    H226810   0.295   3.316   0.296  1.1493 -0.9943  1.8835
 1751TIP3   OH226811   0.955   6.376   7.279 -0.2204 -0.0065 -0.0578
 1751TIP3    H126812   1.051   6.381   7.280 -0.0772 -1.8149 -1.2505
 1751TIP3    H226813   0.933   6.367   7.186 -1.5689  0.4900  0.1967
 1752TIP3   OH226814   5.513   2.278   8.350  1.0997 -0.5281 -0.3288
 1752TIP3    H126815   5.422   2.259   8.329 -0.2090  0.2562  3.6699
 1752TIP3    H226816   5.551   2.193   8.373  0.2904 -0.5262  1.1853
 1753TIP3   OH226817   0.572   0.580   7.428 -0.3790 -0.0081 -0.2368
 1753TIP3    H126818   0.552   0.665   7.467 -2.8686  0.2432 -1.8525
 1753TIP3    H226819   0.565   0.518   7.501  0.6861  1.0303  0.7974
 1754TIP3   OH226820   0.950   6.199   0.236 -0.1119 -0.2669  0.3073
 1754TIP3    H126821   0.988   6.269   0.183  1.0404 -1.6928 -0.8005
 1754TIP3    H226822   0.910   6.245   0.310  3.2826  1.4013  1.2894
 1755TIP3   OH226823   4.132   3.242   0.060 -0.3339 -0.3025 -0.4386
 1755TIP3    H126824   4.154   3.148   0.058 -1.7522 -0.6439 -0.9897
 1755TIP3    H226825   4.199   3.283   0.005 -0.6685 -1.2245 -1.5764
 1756TIP3   OH226826   1.743   5.419   1.653  0.1579  0.4150 -0.0856
 1756TIP3    H126827   1.654   5.420   1.689  0.4123 -0.0875  0.5810
 1756TIP3    H226828   1.770   5.511   1.651 -0.8700  0.7262 -1.5870
 1757TIP3   OH226829   2.564   5.958   0.674  0.1668 -0.0194  0.4710
 1757TIP3    H126830   2.603   5.951   0.587  0.2411 -0.3148  0.5271
 1757TIP3    H226831   2.587   5.877   0.718 -0.0315  0.0457  0.7027
 1758TIP3   OH226832   2.830   2.673   0.412  0.3630 -0.7717  0.3773
 1758TIP3    H126833   2.814   2.578   0.410  1.8915 -1.0419  0.2585
 1758TIP3    H226834   2.875   2.687   0.495 -1.0098  0.0779  1.0192
 1759TIP3   OH226835   1.767   2.190   1.765  0.3304  0.4858  0.0398
 1759TIP3    H126836   1.858   2.161   1.755  0.2616  0.4573 -0.5400
 1759TIP3    H226837   1.730   2.182   1.678 -0.2194  0.5489  0.2650
 1760TIP3   OH226838   2.894   3.885   7.683  0.6606  0.0107 -0.6114
 1760TIP3    H126839   2.871   3.822   7.614  1.8709  0.1188 -1.1415
 1760TIP3    H226840   2.925   3.962   7.635  2.8746 -0.4282  0.0259
 1761TIP3   OH226841   4.212   0.493   0.553 -0.3282  0.2819 -0.8414
 1761TIP3    H126842   4.265   0.435   0.498  0.4455 -0.0235  0.1911
 1761TIP3    H226843   4.122   0.465   0.537  0.0234 -1.2998 -0.3015
 1762TIP3   OH226844   3.484   0.615   1.617  0.1366  0.3076  0.1827
 1762TIP3    H126845   3.504   0.523   1.601 -0.6928  0.2186 -0.4069
 1762TIP3    H226846   3.466   0.621   1.711 -0.1979 -0.2072  0.1519
 1763TIP3   OH226847   4.073   2.455   1.641 -0.0660  0.5531 -0.3258
 1763TIP3    H126848   4.143   2.400   1.607  1.8639  4.0827 -2.6532
 1763TIP3    H226849   3.996   2.429   1.590 -0.0823 -1.9931  0.8475
 1764TIP3   OH226850   3.074   0.126   1.421  0.5683  0.3947 -0.2181
 1764TIP3    H126851   3.161   0.106   1.456  1.2756  1.8071 -1.0939
 1764TIP3    H226852   3.075   0.221   1.408 -1.4961  0.5820  0.7528
 1765TIP3   OH226853   3.958   0.931   0.297 -0.1941 -0.4395  0.5421
 1765TIP3    H126854   4.019   0.997   0.264 -0.2533 -0.7259 -0.1610
 1765TIP3    H226855   3.913   0.899   0.219 -0.3927 -1.0840  0.9119
 1766TIP3   OH226856   3.167   2.942   5.786  0.2389  0.3337  0.0369
 1766TIP3    H126857   3.203   2.883   5.853 -1.6183  1.1663  1.9010
 1766TIP3    H226858   3.104   2.996   5.834  1.8575  3.9144 -1.5377
 1767TIP3   OH226859   0.593   3.142   6.257  0.4057  0.2297 -0.6611
 1767TIP3    H126860   0.688   3.145   6.242  0.5918  0.5568  0.4772
 1767TIP3    H226861   0.565   3.233   6.248  0.3087  0.2302 -0.3508
 1768TIP3   OH226862   0.226   3.110   7.260 -0.8134 -0.5724  0.1954
 1768TIP3    H126863   0.246   3.203   7.252  0.3745 -0.7349  1.0510
 1768TIP3    H226864   0.178   3.103   7.343  0.6482 -0.9211  1.0513
 1769TIP3   OH226865   4.116   4.064   0.925  0.1154  0.0964 -0.6869
 1769TIP3    H126866   4.186   4.128   0.926 -0.7111  1.0462  0.9395
 1769TIP3    H226867   4.036   4.115   0.938 -1.1184 -0.7713 -3.8289
 1770TIP3   OH226868   1.803   1.023   8.037 -0.1050  0.0181  0.2378
 1770TIP3    H126869   1.823   1.113   8.014  1.1476 -0.1544  0.5753
 1770TIP3    H226870   1.865   0.971   7.986  0.1301 -0.5734  1.1152
 1771TIP3   OH226871   5.961   3.943   1.139  0.1125 -0.6692 -0.0656
 1771TIP3    H126872   5.978   3.851   1.120  0.2368 -0.8138  0.7386
 1771TIP3    H226873   5.911   3.942   1.220  4.0381  0.1058  2.6453
 1772TIP3   OH226874   0.204   1.514   8.361  0.4342  0.5887  0.3299
 1772TIP3    H126875   0.213   1.422   8.386  0.5448  0.6223  0.4139
 1772TIP3    H226876   0.154   1.554   8.432  0.9178  0.7275  0.6020
 1773TIP3   OH226877   5.097   3.003   6.535  0.4050 -0.3188 -0.6175
 1773TIP3    H126878   5.159   2.930   6.527  0.1296 -1.0022  2.2718
 1773TIP3    H226879   5.013   2.961   6.553  0.4652  0.5852  2.3743
 1774TIP3   OH226880   1.837   2.893   7.691 -0.2869  0.3398 -0.9390
 1774TIP3    H126881   1.846   2.984   7.718  1.0440  0.4932 -1.7685
 1774TIP3    H226882   1.854   2.842   7.770  0.6127  0.8024 -0.8259
 1775TIP3   OH226883   0.360   2.434   1.395  0.5213  0.4797 -0.2096
 1775TIP3    H126884   0.299   2.436   1.468  1.1297  0.2373  0.3101
 1775TIP3    H226885   0.415   2.358   1.412  2.6186  2.0905  0.6790
 1776TIP3   OH226886   0.422   5.061   0.287 -0.5396 -0.2387 -0.1326
 1776TIP3    H126887   0.445   4.987   0.231 -1.0818 -0.2988 -0.2821
 1776TIP3    H226888   0.469   5.045   0.369  1.2804  0.5026 -0.9801
 1777TIP3   OH226889   2.999   4.535   0.938  0.3509  0.4649  0.1106
 1777TIP3    H126890   2.942   4.591   0.885  0.2759  0.4049  0.1284
 1777TIP3    H226891   3.087   4.560   0.911  0.3509  1.3310  0.8639
 1778TIP3   OH226892   4.658   2.934   8.463 -0.0036 -0.9724  0.2683
 1778TIP3    H126893   4.735   2.901   8.417  1.9325 -1.2936  3.4900
 1778TIP3    H226894   4.622   2.859   8.510 -0.3456 -0.1669  1.3460
 1779TIP3   OH226895   1.632   5.698   1.965 -0.3697 -0.1372 -0.1944
 1779TIP3    H126896   1.621   5.711   1.870 -1.3320 -0.1268 -0.0920
 1779TIP3    H226897   1.688   5.770   1.992 -0.9789  0.5055 -0.5879
 1780TIP3   OH226898   3.724   3.523   7.142  0.3856 -0.5410  0.3058
 1780TIP3    H126899   3.793   3.461   7.116 -0.6331 -2.3593  1.6787
 1780TIP3    H226900   3.675   3.539   7.062  0.8938 -1.2570 -0.1677
 1781TIP3   OH226901   5.106   0.547   0.589  0.4990 -0.5058  0.5468
 1781TIP3    H126902   5.070   0.461   0.610 -0.1575 -0.5061 -0.4738
 1781TIP3    H226903   5.175   0.561   0.653 -0.0671 -1.3481  1.3693
 1782TIP3   OH226904   0.188   2.691   1.535  0.1067 -0.9491  0.4153
 1782TIP3    H126905   0.204   2.598   1.550  1.3642 -0.8398 -0.1048
 1782TIP3    H226906   0.250   2.735   1.594 -0.7631 -0.4247  0.9588
 1783TIP3   OH226907   6.108   1.796   0.919  0.5089  0.2919  0.2611
 1783TIP3    H126908   6.049   1.784   0.844 -1.5071 -0.6521  1.8900
 1783TIP3    H226909   6.146   1.882   0.905  0.9095 -0.2211 -2.2895
 1784TIP3   OH226910   3.805   3.702   8.179 -0.2428  0.0509 -0.1806
 1784TIP3    H126911   3.746   3.706   8.255 -0.4915 -2.0689 -0.2022
 1784TIP3    H226912   3.749   3.674   8.107  0.1684  1.2346 -0.9891
 1785TIP3   OH226913   0.961   0.200   1.314 -0.4047  0.1944 -0.0487
 1785TIP3    H126914   1.044   0.155   1.303 -0.4787  0.3835 -1.6306
 1785TIP3    H226915   0.941   0.192   1.407  2.7249  2.5598  1.0043
 1786TIP3   OH226916   0.941   2.968   1.004 -0.0157  0.0704 -0.2391
 1786TIP3    H126917   0.858   2.952   0.959 -0.0777 -0.5223  0.0700
 1786TIP3    H226918   0.951   2.893   1.063 -0.3584  1.2671  1.3947
 1787TIP3   OH226919   3.221   5.725   6.277  0.3616  0.1199  0.9262
 1787TIP3    H126920   3.225   5.784   6.202  1.6864 -1.4338 -0.3139
 1787TIP3    H226921   3.304   5.740   6.323  0.0148  0.3229  1.4908
 1788TIP3   OH226922   0.010   3.798   7.347 -0.1547 -0.0723  0.7875
 1788TIP3    H126923   0.002   3.765   7.257 -0.8869  0.6540  0.5786
 1788TIP3    H226924  -0.007   3.891   7.340  0.0011  0.0303  1.6606
 1789TIP3   OH226925   5.193   5.855   7.098 -0.2099  0.2765  0.3985
 1789TIP3    H126926   5.178   5.799   7.174 -3.7263  2.5223  1.5739
 1789TIP3    H226927   5.211   5.794   7.027  0.7032 -2.0312  2.4620
 1790TIP3   OH226928   1.174   1.649   8.078 -0.6787 -0.1312  0.1397
 1790TIP3    H126929   1.091   1.659   8.032 -0.4017 -2.6672 -1.0786
 1790TIP3    H226930   1.241   1.671   8.013 -0.3385  0.2126  0.5953
 1791TIP3   OH226931   6.551   2.069   8.393  0.0090  0.1728  0.1389
 1791TIP3    H126932   6.497   2.110   8.326 -0.8171  0.9305  1.2413
 1791TIP3    H226933   6.520   1.978   8.396  0.3675  0.0094 -0.8084
 1792TIP3   OH226934   5.159   5.398   2.234 -0.6112  0.6117  0.3982
 1792TIP3    H126935   5.199   5.344   2.167 -3.2767 -1.3162  0.2056
 1792TIP3    H226936   5.083   5.437   2.191 -2.0973 -0.2737  2.0954
 1793TIP3   OH226937   1.184   5.611   1.885 -0.0294  0.2726  0.2968
 1793TIP3    H126938   1.191   5.552   1.810  2.0329  0.9500 -0.1187
 1793TIP3    H226939   1.169   5.552   1.960  1.4470 -0.7985 -0.1761
 1794TIP3   OH226940   0.054   3.686   0.515  0.2403 -0.4609  0.3249
 1794TIP3    H126941   0.137   3.726   0.540 -0.7417  1.6680  0.3606
 1794TIP3    H226942   0.038   3.718   0.427  0.3390 -2.4161 -0.4599
 1795TIP3   OH226943   1.052   6.061   7.946 -0.1941  0.2458 -0.0167
 1795TIP3    H126944   0.976   6.055   7.889 -1.1979  3.3089  0.8456
 1795TIP3    H226945   1.121   6.097   7.890  0.4495 -1.7198 -0.5703
 1796TIP3   OH226946   1.544   3.157   7.533 -0.3960  0.3372  0.1086
 1796TIP3    H126947   1.515   3.096   7.601 -1.7261  0.0116 -0.7184
 1796TIP3    H226948   1.596   3.223   7.581 -2.3361  0.8392  1.6663
 1797TIP3   OH226949   6.753   0.678   0.252 -0.2943 -0.2417  0.4995
 1797TIP3    H126950   6.838   0.700   0.290 -1.5807  2.7466  1.9619
 1797TIP3    H226951   6.721   0.604   0.304  1.1889 -1.1615  0.1648
 1798TIP3   OH226952   1.651   1.644   0.321  0.1851 -0.2129  0.0406
 1798TIP3    H126953   1.558   1.660   0.335 -0.4312 -0.2708 -3.2832
 1798TIP3    H226954   1.694   1.726   0.345 -0.8312  0.1744  0.5775
 1799TIP3   OH226955   0.501   1.616   0.028  0.7372  0.1081 -0.0914
 1799TIP3    H126956   0.576   1.642  -0.025  1.0885  0.8095  0.7292
 1799TIP3    H226957   0.537   1.560   0.096  0.2977 -0.7214 -0.5119
 1800TIP3   OH226958   6.712   3.849   2.451 -0.6592  0.9507 -0.1713
 1800TIP3    H126959   6.672   3.793   2.385 -2.9348  1.1011  0.9646
 1800TIP3    H226960   6.795   3.807   2.472 -0.4336  0.2560 -2.2245
 1801TIP3   OH226961   6.656   3.475   6.894  0.4361 -0.2260 -0.1162
 1801TIP3    H126962   6.644   3.404   6.957  1.1686 -0.6583 -0.4564
 1801TIP3    H226963   6.609   3.447   6.816  0.8260 -0.4003 -0.2924
 1802TIP3   OH226964   1.557   0.779   0.431 -0.4871 -0.2416  0.1159
 1802TIP3    H126965   1.578   0.694   0.393 -0.3820 -1.1310  2.0270
 1802TIP3    H226966   1.609   0.841   0.381 -1.5416 -1.0988 -2.1854
 1803TIP3   OH226967   5.928   5.838   2.005  0.1853 -0.2669  0.1132
 1803TIP3    H126968   5.999   5.829   2.068  0.0993 -0.9264  0.1159
 1803TIP3    H226969   5.869   5.766   2.024  1.6182 -2.3364 -2.6133
 1804TIP3   OH226970   2.264   3.584   0.115  0.2971 -1.0040  0.2041
 1804TIP3    H126971   2.311   3.607   0.195  0.5787  1.2668 -0.5476
 1804TIP3    H226972   2.329   3.541   0.060  1.0627  0.5073 -0.1171
 1805TIP3   OH226973   3.801   3.561   7.748 -0.1437 -0.1601 -0.2404
 1805TIP3    H126974   3.868   3.575   7.681 -2.2448  0.4829 -2.3795
 1805TIP3    H226975   3.727   3.615   7.719 -1.7707 -1.2219  1.6911
 1806TIP3   OH226976   3.803   5.891   1.683 -0.4315 -0.4712 -0.0735
 1806TIP3    H126977   3.845   5.843   1.754  3.7075  1.9179 -0.5720
 1806TIP3    H226978   3.811   5.983   1.709 -2.1293  0.3182 -2.0458
 1807TIP3   OH226979   4.830   3.309   1.647 -0.3975  0.0599  0.2378
 1807TIP3    H126980   4.778   3.231   1.628 -1.1449  0.6289 -0.1009
 1807TIP3    H226981   4.788   3.379   1.597  1.2629  0.3484 -0.8304
 1808TIP3   OH226982   5.204   5.663   1.887 -0.7090  0.7023 -0.3775
 1808TIP3    H126983   5.182   5.726   1.955 -1.1533 -0.5767  0.7041
 1808TIP3    H226984   5.281   5.617   1.922 -1.5158 -0.6138 -0.2807
 1809TIP3   OH226985   5.990   2.084   7.389  0.2135  0.6275 -0.4145
 1809TIP3    H126986   5.897   2.079   7.411  0.5333  0.9271  1.0951
 1809TIP3    H226987   5.993   2.141   7.312 -0.8825  0.3045 -0.7159
 1810TIP3   OH226988   0.687   0.447   8.121 -0.5199  0.2758 -0.0598
 1810TIP3    H126989   0.622   0.460   8.052  0.3924 -1.4331 -1.3233
 1810TIP3    H226990   0.729   0.364   8.099 -0.5773 -0.6464  2.9045
 1811TIP3   OH226991   6.530   2.954   7.597  0.2991 -0.6161 -0.0648
 1811TIP3    H126992   6.501   3.038   7.633 -0.6483 -1.2213  0.6502
 1811TIP3    H226993   6.492   2.889   7.656  0.7403 -1.5615 -0.7989
 1812TIP3   OH226994   3.999   4.371   0.080  0.2266 -0.0447 -0.1487
 1812TIP3    H126995   3.972   4.330  -0.002 -2.2650 -1.0164  1.0483
 1812TIP3    H226996   3.932   4.437   0.097  0.0344 -0.6410  1.6155
 1813TIP3   OH226997   5.786   5.546   6.840 -0.1089 -0.2871  0.9885
 1813TIP3    H126998   5.854   5.572   6.777 -3.6423  0.7818 -2.9001
 1813TIP3    H226999   5.753   5.629   6.874 -1.1308 -0.5856  0.7529
 1814TIP3   OH227000   2.303   0.345   1.786  0.2946 -0.1662  0.1681
 1814TIP3    H127001   2.264   0.421   1.829  0.5362  0.9604 -1.5419
 1814TIP3    H227002   2.341   0.294   1.858  1.0640  1.8546  1.2575
 1815TIP3   OH227003   3.836   6.478   2.112 -1.0043 -0.0349 -0.0526
 1815TIP3    H127004   3.897   6.449   2.180 -0.2926 -0.6619 -0.9298
 1815TIP3    H227005   3.887   6.476   2.031 -1.4806  1.8778 -0.4480
 1816TIP3   OH227006   4.558   4.138   8.407 -0.2658  0.0933  0.6457
 1816TIP3    H127007   4.623   4.106   8.344 -0.7119  0.5990 -0.0799
 1816TIP3    H227008   4.532   4.223   8.373  0.5258  1.0209  2.2665
 1817TIP3   OH227009   6.569   4.253   1.845 -0.5546 -0.3746 -0.1822
 1817TIP3    H127010   6.498   4.189   1.844 -1.0738  0.1912 -1.6757
 1817TIP3    H227011   6.561   4.296   1.931 -2.9530  0.6411 -0.8238
 1818TIP3   OH227012   2.005   1.944   2.044 -0.0088 -0.0847 -0.8144
 1818TIP3    H127013   2.065   1.900   2.104 -1.1418 -1.3103 -0.5324
 1818TIP3    H227014   2.057   2.014   2.005  1.2696 -0.4105  0.2414
 1819TIP3   OH227015   3.381   1.169   8.059  0.2041  0.9751 -0.0195
 1819TIP3    H127016   3.292   1.141   8.082  0.4302 -1.1382 -1.4328
 1819TIP3    H227017   3.396   1.247   8.112 -2.1588  0.8806  0.9139
 1820TIP3   OH227018   1.513   4.231   0.427  0.1545  0.1871  0.5574
 1820TIP3    H127019   1.521   4.255   0.519 -1.5715  1.4715  0.4114
 1820TIP3    H227020   1.543   4.308   0.379 -0.7588  0.2363  0.0528
 1821TIP3   OH227021   5.933   2.549   6.600 -0.2251  0.0020  0.2491
 1821TIP3    H127022   5.973   2.568   6.515 -0.6170  1.0556  0.2760
 1821TIP3    H227023   5.845   2.518   6.579 -0.1815 -0.1266  0.2569
 1822TIP3   OH227024   6.642   5.373   8.490  0.3464 -0.4773  0.3470
 1822TIP3    H127025   6.715   5.321   8.455  0.6807  0.5092 -0.4563
 1822TIP3    H227026   6.584   5.308   8.530 -0.2426 -1.7436 -2.3479
 1823TIP3   OH227027   5.121   0.655   1.454  0.2700  0.3499 -0.5364
 1823TIP3    H127028   5.130   0.582   1.514 -0.2787 -0.3753 -1.3162
 1823TIP3    H227029   5.104   0.615   1.369 -2.9686  1.3725 -0.5171
 1824TIP3   OH227030   6.460   6.370   8.094 -0.2212 -0.5625  0.0292
 1824TIP3    H127031   6.486   6.457   8.062 -1.9476 -0.2253 -0.5918
 1824TIP3    H227032   6.453   6.317   8.015  0.7053 -1.2628  0.3966
 1825TIP3   OH227033   5.098   1.784   7.832  0.0110  0.6017  0.2668
 1825TIP3    H127034   5.032   1.715   7.842 -0.8013  1.0051 -1.8817
 1825TIP3    H227035   5.181   1.738   7.844 -0.5730  0.1493  3.3654
 1826TIP3   OH227036   3.963   2.812   1.186  0.1441 -1.0621  0.1068
 1826TIP3    H127037   3.904   2.827   1.260 -1.0742 -1.2475 -0.7952
 1826TIP3    H227038   3.905   2.785   1.115  1.2827 -0.7681 -0.9555
 1827TIP3   OH227039   0.578   2.661   1.533  0.5137  0.0971 -0.0498
 1827TIP3    H127040   0.494   2.641   1.491  0.5494 -0.0539 -0.0472
 1827TIP3    H227041   0.588   2.756   1.522  0.3553  0.1115 -0.0734
 1828TIP3   OH227042   0.969   2.611   8.071  0.0663  0.1140  0.0918
 1828TIP3    H127043   0.922   2.528   8.072  0.0672  0.0758  2.3815
 1828TIP3    H227044   0.956   2.647   8.159  3.0778  0.8082  0.3649
 1829TIP3   OH227045   5.806   3.072   1.646  0.1994 -0.6022  0.6338
 1829TIP3    H127046   5.793   3.153   1.695 -1.3356  0.0153 -0.6842
 1829TIP3    H227047   5.826   3.007   1.713 -1.5465  0.2507  2.0920
 1830TIP3   OH227048   5.525   1.992   6.501 -0.3247 -0.9767 -0.7863
 1830TIP3    H127049   5.591   1.996   6.570  0.0632  0.4203 -1.2007
 1830TIP3    H227050   5.454   1.940   6.538 -0.3714  0.2036  0.8968
 1831TIP3   OH227051   0.171   1.405   2.062  0.5193 -0.3722 -0.1046
 1831TIP3    H127052   0.094   1.400   2.006  2.1737 -2.2839 -2.4229
 1831TIP3    H227053   0.183   1.316   2.095  2.0716 -0.3018 -0.3811
 1832TIP3   OH227054   5.704   5.053   7.664 -0.2169  0.6100 -0.8115
 1832TIP3    H127055   5.717   5.127   7.723  1.5310  0.1938 -0.6079
 1832TIP3    H227056   5.754   4.981   7.703 -0.2717 -0.1211 -2.0019
 1833TIP3   OH227057   2.215   5.003   1.086  0.0433 -0.0696  0.0186
 1833TIP3    H127058   2.224   5.062   1.160 -0.3243 -0.6505  0.5453
 1833TIP3    H227059   2.262   5.045   1.015  1.4257 -0.0666  0.9078
 1834TIP3   OH227060   5.301   0.881   0.236 -0.0407 -0.3738 -0.3348
 1834TIP3    H127061   5.305   0.914   0.326 -1.0186 -2.2189  0.4521
 1834TIP3    H227062   5.229   0.929   0.196  1.2029  1.3679 -0.5734
 1835TIP3   OH227063   6.206   3.654   7.281  0.0239 -0.6751  0.2710
 1835TIP3    H127064   6.254   3.678   7.201  1.7339 -3.2915  0.3950
 1835TIP3    H227065   6.119   3.628   7.249 -1.8881  4.7089  0.1016
 1836TIP3   OH227066   6.094   5.261   6.628 -0.3290 -0.2700  0.1657
 1836TIP3    H127067   6.131   5.335   6.580 -2.9875  0.7581 -0.4499
 1836TIP3    H227068   6.011   5.293   6.663 -1.8457 -3.0648 -0.5436
 1837TIP3   OH227069   5.387   3.584   7.354 -0.2265 -0.0756 -0.1788
 1837TIP3    H127070   5.392   3.572   7.448  0.7484 -0.6033 -0.2808
 1837TIP3    H227071   5.295   3.572   7.332 -0.6954  1.3999  0.8726
 1838TIP3   OH227072   3.458   1.736   7.731 -0.4886  0.5671 -0.2589
 1838TIP3    H127073   3.544   1.734   7.773 -1.1998  3.9424  1.7338
 1838TIP3    H227074   3.400   1.772   7.797 -2.9407  0.8187 -2.3813
 1839TIP3   OH227075   2.275   2.181   6.156 -0.3767 -0.4730 -0.2104
 1839TIP3    H127076   2.352   2.221   6.197 -0.9361 -0.0967  0.5066
 1839TIP3    H227077   2.279   2.210   6.065  0.2977 -0.4139 -0.1707
 1840TIP3   OH227078   2.389   0.950   1.287  0.0955  0.4100  0.4728
 1840TIP3    H127079   2.380   1.003   1.366 -0.2550  0.7800  0.1900
 1840TIP3    H227080   2.309   0.898   1.284  0.9589 -1.0345  1.3896
 1841TIP3   OH227081   0.463   1.928   7.874 -0.3612 -0.0977  0.2496
 1841TIP3    H127082   0.550   1.957   7.902  0.1245 -1.1761 -0.0862
 1841TIP3    H227083   0.419   1.901   7.955  0.2219 -1.0721  0.2645
 1842TIP3   OH227084   4.479   3.397   0.385 -0.3152  0.1175  0.2677
 1842TIP3    H127085   4.490   3.374   0.293  0.0142 -1.4169  0.6722
 1842TIP3    H227086   4.454   3.490   0.384  1.5605  0.6473 -1.2542
 1843TIP3   OH227087   2.030   6.169   2.515  0.2467  0.9362  0.0995
 1843TIP3    H127088   2.112   6.136   2.478 -0.3188 -1.2084  0.6067
 1843TIP3    H227089   2.012   6.109   2.588 -2.0138  1.0394 -0.3178
 1844TIP3   OH227090   2.004   6.508   1.374 -0.1414 -0.3113 -0.2205
 1844TIP3    H127091   1.983   6.486   1.284  0.4632 -1.0734 -0.1798
 1844TIP3    H227092   1.920   6.532   1.413 -0.4650 -0.3673 -0.8758
 1845TIP3   OH227093   6.402   0.805   8.510  0.5861 -0.1611 -0.1645
 1845TIP3    H127094   6.371   0.820   8.599  0.1617 -1.5489 -0.0539
 1845TIP3    H227095   6.497   0.806   8.517  0.6020  1.9930 -0.1209
 1846TIP3   OH227096   4.018   5.217   7.692  0.0232 -0.0007 -0.3597
 1846TIP3    H127097   3.942   5.229   7.635 -0.1682 -1.1989 -0.3891
 1846TIP3    H227098   4.090   5.262   7.648 -0.8132  1.7917  0.0286
 1847TIP3   OH227099   1.268   5.352   0.352  0.2763  0.2834  0.0399
 1847TIP3    H127100   1.299   5.264   0.328 -2.8038 -1.0528  0.4282
 1847TIP3    H227101   1.271   5.353   0.448  1.9204  1.3190  0.0105
 1848TIP3   OH227102   2.050   0.219   7.686 -0.0014 -0.2088  0.1824
 1848TIP3    H127103   2.080   0.141   7.734  2.8117  1.0438  0.6507
 1848TIP3    H227104   2.059   0.195   7.594 -0.3144 -0.8367  0.3089
 1849TIP3   OH227105   5.225   5.273   7.356 -0.2836  0.7568  0.3580
 1849TIP3    H127106   5.302   5.218   7.341  0.8161  1.7536  2.0561
 1849TIP3    H227107   5.255   5.362   7.334 -0.9652  1.1530  1.0096
 1850TIP3   OH227108   4.454   2.687   8.294  0.5764 -0.0661 -0.3980
 1850TIP3    H127109   4.405   2.668   8.374 -0.5711 -2.2065 -1.5159
 1850TIP3    H227110   4.543   2.659   8.314  0.2684 -0.7209  0.1070
 1851TIP3   OH227111   1.292   0.276   1.605 -0.2377  0.5225 -0.1094
 1851TIP3    H127112   1.220   0.257   1.664 -0.0136  2.4984  0.8929
 1851TIP3    H227113   1.258   0.343   1.545  0.2794  0.3185 -0.6508
 1852TIP3   OH227114   4.397   3.271   0.856  0.2655 -0.5852 -0.5030
 1852TIP3    H127115   4.318   3.252   0.907 -0.3546  2.0961 -0.2664
 1852TIP3    H227116   4.455   3.316   0.918  0.8212 -0.1233 -1.3408
 1853TIP3   OH227117   5.830   2.874   1.382  0.5454 -0.0840 -0.5439
 1853TIP3    H127118   5.794   2.921   1.457 -0.6868 -0.8310 -0.6323
 1853TIP3    H227119   5.753   2.855   1.327  1.4322  0.5531 -2.0474
 1854TIP3   OH227120   2.550   1.818   8.384 -0.4257  0.5993 -0.4724
 1854TIP3    H127121   2.457   1.799   8.394 -0.4608 -0.1176 -1.9158
 1854TIP3    H227122   2.594   1.740   8.419 -0.3857  0.5713 -0.5861
 1855TIP3   OH227123   0.104   6.809   2.508  0.5896  0.1655 -0.2566
 1855TIP3    H127124   0.140   6.881   2.455 -0.1524  1.1431  0.5301
 1855TIP3    H227125   0.011   6.809   2.488  0.5683 -0.5367 -0.1760
 1856TIP3   OH227126   4.466   5.500   0.755  0.1253  0.5777 -0.2430
 1856TIP3    H127127   4.559   5.518   0.771  0.0054  0.8466  0.1517
 1856TIP3    H227128   4.420   5.539   0.830 -0.1383 -1.5492  0.7722
 1857TIP3   OH227129   1.726   3.742   1.104  0.1626 -0.4356 -0.0307
 1857TIP3    H127130   1.651   3.733   1.045 -0.6455  2.3922  0.4139
 1857TIP3    H227131   1.802   3.742   1.046 -0.3439 -1.1025 -0.7144
 1858TIP3   OH227132   0.214   0.740   2.503 -0.2214 -0.2371  0.2616
 1858TIP3    H127133   0.294   0.727   2.554 -1.3186 -2.5973  1.5403
 1858TIP3    H227134   0.226   0.825   2.461  2.8471 -0.4218  0.5594
 1859TIP3   OH227135   5.334   4.932   7.936  0.4651  0.0508 -0.0329
 1859TIP3    H127136   5.258   4.919   7.992  1.2298 -2.3235  0.5721
 1859TIP3    H227137   5.391   4.858   7.955  3.1095  1.8901 -0.2196
 1860TIP3   OH227138   5.298   3.786   8.048 -0.5701 -0.1300  0.5303
 1860TIP3    H127139   5.228   3.851   8.049 -1.3958 -0.9875  0.4027
 1860TIP3    H227140   5.272   3.723   8.115  0.4877 -0.0637  1.0217
 1861TIP3   OH227141   6.412   1.761   8.124 -0.1235 -0.0311  0.5238
 1861TIP3    H127142   6.493   1.784   8.078  0.4331 -0.8408  1.0637
 1861TIP3    H227143   6.415   1.814   8.204  0.0676 -0.3422  0.7243
 1862TIP3   OH227144   5.737   5.762   0.654  0.2242  0.3324 -0.3504
 1862TIP3    H127145   5.821   5.717   0.648 -0.8869 -1.7953 -1.5679
 1862TIP3    H227146   5.697   5.727   0.734 -0.9319 -1.5547 -1.6593
 1863TIP3   OH227147   5.075   3.968   8.062  0.5004  0.1979  0.3970
 1863TIP3    H127148   5.033   4.023   7.995 -2.8971 -2.5086  0.0383
 1863TIP3    H227149   5.030   3.991   8.143  0.1254 -0.8873  0.5158
 1864TIP3   OH227150   0.659   4.282   2.545 -0.4330 -0.2896  0.2085
 1864TIP3    H127151   0.748   4.308   2.524 -0.6874  0.0089 -0.5340
 1864TIP3    H227152   0.669   4.200   2.594  0.2270 -0.4713 -0.2138
 1865TIP3   OH227153   3.740   6.025   7.519  0.0192  0.3201 -0.5847
 1865TIP3    H127154   3.781   6.067   7.595 -0.7944  0.1001 -0.0172
 1865TIP3    H227155   3.790   5.944   7.506 -1.6551 -1.1576  1.5770
 1866TIP3   OH227156   6.850   3.581   0.725 -0.2604  0.4545  0.1554
 1866TIP3    H127157   6.884   3.638   0.656  0.0720  1.6407  1.2729
 1866TIP3    H227158   6.914   3.510   0.731 -0.0131  0.6276 -0.3961
 1867TIP3   OH227159   0.384   6.021   1.391  0.8276  0.2548 -0.1855
 1867TIP3    H127160   0.337   5.938   1.402  0.9447  0.3026  0.8019
 1867TIP3    H227161   0.406   6.024   1.298 -0.1109 -0.3146 -0.4449
 1868TIP3   OH227162   6.276   0.615   7.409 -0.0571  0.5281  0.8392
 1868TIP3    H127163   6.356   0.633   7.459 -0.0917  0.3349  0.9653
 1868TIP3    H227164   6.248   0.701   7.377 -1.2130  0.9838  2.9158
 1869TIP3   OH227165   2.044   1.939   0.946  0.0600 -0.3161  0.1226
 1869TIP3    H127166   2.047   2.025   0.989 -1.7814  0.1633 -0.6170
 1869TIP3    H227167   2.071   1.957   0.856 -0.8780 -0.4006 -0.1777
 1870TIP3   OH227168   3.020   4.705   1.355 -0.4173 -0.0717  0.5295
 1870TIP3    H127169   2.955   4.721   1.287  0.4460 -0.4160 -0.4002
 1870TIP3    H227170   3.069   4.787   1.362 -0.4466 -0.0662  0.6908
 1871TIP3   OH227171   4.401   5.705   2.420  0.3177 -0.0802 -0.2952
 1871TIP3    H127172   4.394   5.624   2.370 -1.1690 -0.1574  0.0000
 1871TIP3    H227173   4.494   5.727   2.416  1.0545 -2.5413  0.7732
 1872TIP3   OH227174   1.568   1.089   0.301 -0.1814  0.4558 -0.4054
 1872TIP3    H127175   1.564   1.119   0.211 -0.0133  2.1688  0.1199
 1872TIP3    H227176   1.535   1.163   0.352  0.6986 -0.0871  1.0113
 1873TIP3   OH227177   3.508   5.687   0.545  0.3209 -0.5187  0.2464
 1873TIP3    H127178   3.436   5.647   0.593  0.1108  0.7016  0.9956
 1873TIP3    H227179   3.506   5.645   0.460 -1.1436 -0.6769  0.3266
 1874TIP3   OH227180   2.437   0.294   0.965  0.2795 -0.0808 -0.1027
 1874TIP3    H127181   2.468   0.211   0.928 -1.0823 -0.9910  0.6919
 1874TIP3    H227182   2.507   0.356   0.946  0.9643 -1.1998 -1.4906
 1875TIP3   OH227183   6.131   2.839   6.613 -0.1760  0.3084  0.3384
 1875TIP3    H127184   6.222   2.855   6.639 -0.2223 -1.3042  1.6833
 1875TIP3    H227185   6.137   2.778   6.540 -0.1869  0.7569 -0.0472
 1876TIP3   OH227186   0.747   4.952   0.290  0.2695  0.2966 -0.1941
 1876TIP3    H127187   0.666   4.903   0.278 -0.1055  0.7044  0.5579
 1876TIP3    H227188   0.816   4.893   0.261 -0.1084 -0.9890  1.4100
 1877TIP3   OH227189   4.784   3.766   0.083  0.4504  0.3212 -0.6309
 1877TIP3    H127190   4.852   3.832   0.072  0.0770  1.1653  1.7354
 1877TIP3    H227191   4.826   3.696   0.133 -0.4660  1.0258  1.2012
 1878TIP3   OH227192   6.018   1.122   7.047 -0.1929 -0.5665  0.6715
 1878TIP3    H127193   5.946   1.125   7.109  1.2449 -2.3144  2.5890
 1878TIP3    H227194   6.002   1.043   6.995 -0.4520 -0.0962  0.0247
 1879TIP3   OH227195   1.983   3.629   0.561 -0.3611  0.2767  0.4710
 1879TIP3    H127196   1.897   3.646   0.598 -0.6345  0.4789 -0.2436
 1879TIP3    H227197   1.984   3.678   0.479 -0.7237 -2.1714 -1.0845
 1880TIP3   OH227198   3.744   2.938   0.908  0.2161  0.0585  0.4519
 1880TIP3    H127199   3.745   2.969   0.999 -1.0156  0.3123  0.3986
 1880TIP3    H227200   3.746   3.018   0.856  1.3053 -0.0965  0.2330
 1881TIP3   OH227201   5.075   3.053   0.207 -0.4419 -0.1300 -0.0804
 1881TIP3    H127202   5.028   2.998   0.271  0.5515  0.8781  1.6093
 1881TIP3    H227203   5.119   2.991   0.150 -1.8216 -1.0814 -0.1566
 1882TIP3   OH227204   0.845   1.456   0.800  0.2737 -0.0524 -0.3915
 1882TIP3    H127205   0.898   1.388   0.842 -0.0451 -0.0304  0.0415
 1882TIP3    H227206   0.811   1.509   0.871  0.1322  0.2823 -0.7030
 1883TIP3   OH227207   6.616   3.098   0.248  0.1150 -0.4887  0.3960
 1883TIP3    H127208   6.573   3.064   0.169 -0.3981  0.1879  0.3672
 1883TIP3    H227209   6.560   3.068   0.320  0.0421 -0.2864  0.4239
 1884TIP3   OH227210   3.320   4.296   7.067 -0.3709  0.4657  0.1353
 1884TIP3    H127211   3.347   4.308   6.976 -0.6271 -2.0058 -0.3241
 1884TIP3    H227212   3.247   4.358   7.079 -1.1228 -0.0091 -1.7235
 1885TIP3   OH227213   3.437   3.802   7.086 -0.1391  0.2094  0.0326
 1885TIP3    H127214   3.453   3.896   7.080  0.6535 -0.0024 -1.9068
 1885TIP3    H227215   3.348   3.790   7.052 -0.0540  0.2160 -0.1952
 1886TIP3   OH227216   1.364   1.262   6.483 -0.7275  0.0215 -0.3088
 1886TIP3    H127217   1.344   1.179   6.527 -0.5460  0.2101  0.1372
 1886TIP3    H227218   1.280   1.307   6.477 -0.8258 -0.1914 -0.5483
 1887TIP3   OH227219   6.883   4.497   8.222 -0.1358  0.0940  0.6227
 1887TIP3    H127220   6.789   4.478   8.226 -0.2970  0.3886 -1.2558
 1887TIP3    H227221   6.920   4.425   8.172  0.7001 -0.1210  1.5141
 1888TIP3   OH227222   0.984   2.348   6.033  0.3770 -0.2968  0.1030
 1888TIP3    H127223   1.016   2.394   5.955 -1.2803 -0.4262 -0.7114
 1888TIP3    H227224   1.060   2.300   6.065  1.0665 -0.4355 -1.5930
 1889TIP3   OH227225   4.575   5.146   7.809  0.0459 -0.1912  0.3371
 1889TIP3    H127226   4.637   5.145   7.736 -0.2182 -0.8643  0.1112
 1889TIP3    H227227   4.572   5.237   7.838 -1.0511  0.4124 -1.5210
 1890TIP3   OH227228   0.248   4.790   0.505 -0.4934  0.1128 -0.4566
 1890TIP3    H127229   0.283   4.707   0.536 -0.3220  0.2130 -0.3856
 1890TIP3    H227230   0.289   4.856   0.560 -0.3614  0.2734 -0.7450
 1891TIP3   OH227231   6.155   3.109   0.861  0.7536 -0.2832  0.5981
 1891TIP3    H127232   6.124   3.072   0.944  1.2379  1.3296  1.5387
 1891TIP3    H227233   6.078   3.150   0.822  0.5556 -0.9272  0.2926
 1892TIP3   OH227234   3.875   3.994   0.785 -0.4534  0.1992  0.2095
 1892TIP3    H127235   3.865   3.901   0.766  4.3988 -1.0925  2.4311
 1892TIP3    H227236   3.871   4.000   0.880 -2.1236  2.6451  0.0806
 1893TIP3   OH227237   5.612   4.664   7.915  0.2056  0.0313 -0.4029
 1893TIP3    H127238   5.538   4.623   7.870 -0.8716  1.2002  0.2322
 1893TIP3    H227239   5.683   4.660   7.852  0.9381 -4.8226  0.3717
 1894TIP3   OH227240   1.564   4.053   1.116  0.1996 -0.2491  0.6903
 1894TIP3    H127241   1.564   3.976   1.172 -0.5437  0.1875  1.3141
 1894TIP3    H227242   1.641   4.102   1.142 -0.1434 -0.0472  1.3483
 1895TIP3   OH227243   2.319   6.276   2.065  0.2130 -0.1526  0.0379
 1895TIP3    H127244   2.340   6.183   2.079  0.0742 -0.0055  1.2678
 1895TIP3    H227245   2.395   6.310   2.016  1.5008 -0.3350  1.8162
 1896TIP3   OH227246   0.136   1.969   6.433 -0.4778  0.3384 -0.8641
 1896TIP3    H127247   0.143   1.970   6.338  2.0977  3.0051 -0.7749
 1896TIP3    H227248   0.161   2.058   6.460 -1.4977 -0.2077  2.3030
 1897TIP3   OH227249   3.136   3.062   1.685 -0.5236 -0.5707 -0.3123
 1897TIP3    H127250   3.061   3.010   1.713 -1.8420  1.8432  0.9204
 1897TIP3    H227251   3.103   3.116   1.613 -0.4444  1.4525  1.0718
 1898TIP3   OH227252   1.875   4.771   8.522  0.2454  0.1663  0.3445
 1898TIP3    H127253   1.953   4.802   8.477  0.8611 -1.2431  0.3710
 1898TIP3    H227254   1.909   4.719   8.595 -0.7152  1.8503  2.0911
 1899TIP3   OH227255   4.335   2.598   1.049  0.3789 -0.2509 -0.3155
 1899TIP3    H127256   4.356   2.662   1.116 -0.5081  2.1623 -2.2072
 1899TIP3    H227257   4.269   2.542   1.089  0.2075  0.8162  0.9542
 1900TIP3   OH227258   2.358   0.687   2.587 -0.3199 -0.1296  0.5489
 1900TIP3    H127259   2.321   0.606   2.551  2.3679 -2.2164  2.0457
 1900TIP3    H227260   2.306   0.705   2.665 -2.8398  1.4284 -1.3549
 1901TIP3   OH227261   5.712   5.518   1.408 -0.0137 -0.1095 -0.0780
 1901TIP3    H127262   5.688   5.455   1.341 -0.3768  0.9111 -0.9353
 1901TIP3    H227263   5.637   5.519   1.468 -0.7803  0.7623 -1.0200
 1902TIP3   OH227264   0.117   1.943   7.088 -0.3862  0.0662  0.4533
 1902TIP3    H127265   0.156   1.976   7.007  0.3305  2.4100  1.6655
 1902TIP3    H227266   0.049   2.007   7.110  2.2435  1.9746  3.8442
 1903TIP3   OH227267   2.587   1.207   0.872 -0.0935  0.0054 -0.2178
 1903TIP3    H127268   2.553   1.161   0.949 -0.5053 -1.3385 -1.1576
 1903TIP3    H227269   2.541   1.291   0.872 -0.1746 -0.0261  0.9222
 1904TIP3   OH227270   5.804   2.325   1.711  0.0326 -0.1790  0.1070
 1904TIP3    H127271   5.735   2.267   1.678  0.7385 -0.6904 -0.5112
 1904TIP3    H227272   5.883   2.296   1.666  0.2946  1.7304 -0.7990
 1905TIP3   OH227273   1.673   5.152   8.354  0.0083 -0.9240 -0.5312
 1905TIP3    H127274   1.728   5.139   8.431  0.4298 -2.4162 -1.0577
 1905TIP3    H227275   1.714   5.099   8.286 -1.6337 -1.4543 -1.1516
 1906TIP3   OH227276   2.680   5.176   1.277  0.3829 -0.5870  0.0667
 1906TIP3    H127277   2.638   5.243   1.331  3.1928  1.0681  0.3505
 1906TIP3    H227278   2.695   5.103   1.338 -0.5264 -0.5385  0.3617
 1907TIP3   OH227279   2.069   0.277   8.524  0.3873 -0.1130 -0.1845
 1907TIP3    H127280   2.020   0.262   8.605 -0.1053 -1.4758 -0.7024
 1907TIP3    H227281   2.008   0.251   8.455  0.0680  2.8565 -1.1452
 1908TIP3   OH227282   3.853   0.013   7.162  0.1221 -0.4906  0.0255
 1908TIP3    H127283   3.804   0.085   7.122  0.5323 -0.4463 -0.4153
 1908TIP3    H227284   3.793  -0.062   7.159  0.2340 -0.5533 -0.9226
 1909TIP3   OH227285   1.678   0.327   0.043 -0.5839 -0.1810  0.5958
 1909TIP3    H127286   1.686   0.243   0.089  0.9869  0.6977  2.0271
 1909TIP3    H227287   1.734   0.316  -0.034  1.1944  0.1418  1.7765
 1910TIP3   OH227288   0.138   5.073   0.454  0.4690  0.3137  0.2084
 1910TIP3    H127289   0.182   5.155   0.433  2.2674 -0.5885  0.2605
 1910TIP3    H227290   0.112   5.036   0.370 -0.7288  1.1144  0.2108
 1911TIP3   OH227291   0.958   3.312   7.979  0.1217 -0.3336 -0.0813
 1911TIP3    H127292   1.041   3.353   7.954  0.1012 -0.0218  0.3394
 1911TIP3    H227293   0.893   3.356   7.925  0.1249  0.0583  0.2268
 1912TIP3   OH227294   4.359   2.981   6.129  0.6675 -0.1325 -0.8297
 1912TIP3    H127295   4.318   3.065   6.144 -0.6906 -0.9833  0.4007
 1912TIP3    H227296   4.344   2.964   6.036  0.2241  0.5988 -0.9001
 1913TIP3   OH227297   1.538   1.463   1.258  0.8744 -0.6129  0.1148
 1913TIP3    H127298   1.545   1.526   1.329  0.0714  0.2388 -0.5235
 1913TIP3    H227299   1.464   1.407   1.283  1.6179 -1.3466  0.7047
 1914TIP3   OH227300   2.279   4.155   0.740  0.2976  0.1935  0.0888
 1914TIP3    H127301   2.348   4.114   0.791  1.0483  0.8486 -0.3829
 1914TIP3    H227302   2.236   4.082   0.695  0.6604 -0.2205  0.4006
 1915TIP3   OH227303   1.352   5.617   1.107 -0.5666  0.0037 -0.3623
 1915TIP3    H127304   1.339   5.557   1.034 -1.6129 -0.4996  0.2025
 1915TIP3    H227305   1.408   5.569   1.168  0.1969  0.3720 -0.7607
 1916TIP3   OH227306   0.497   1.889   0.887  0.6152 -0.4472 -0.1324
 1916TIP3    H127307   0.443   1.967   0.878 -1.0622 -1.4763  0.4940
 1916TIP3    H227308   0.492   1.846   0.801  1.8228  0.2770 -0.5859
 1917TIP3   OH227309   3.560   3.029   7.365  0.0232 -0.1453  0.0463
 1917TIP3    H127310   3.650   3.035   7.334  0.3897  1.4935  1.2977
 1917TIP3    H227311   3.563   3.062   7.455 -1.7380 -0.5382  0.2859
 1918TIP3   OH227312   4.887   2.299   1.204 -0.0100 -0.5618 -0.1725
 1918TIP3    H127313   4.820   2.368   1.212 -2.0495 -2.4972  0.4788
 1918TIP3    H227314   4.932   2.299   1.288  1.8734  1.6513 -1.0634
 1919TIP3   OH227315   4.101   5.631   7.949  0.1603 -1.1248 -0.5915
 1919TIP3    H127316   4.192   5.642   7.921  0.1202  0.4579 -0.1896
 1919TIP3    H227317   4.059   5.714   7.927 -0.6188 -0.9551  1.3411
 1920TIP3   OH227318   1.694   3.023   8.205 -0.4973 -0.4771  0.3089
 1920TIP3    H127319   1.744   3.014   8.286 -1.9586  0.1487  1.3204
 1920TIP3    H227320   1.758   3.056   8.142  0.0553  2.0171  2.0062
 1921TIP3   OH227321   4.121   1.324   0.749 -0.0922  0.4517  0.5264
 1921TIP3    H127322   4.177   1.369   0.686  0.8429  1.7845  2.2567
 1921TIP3    H227323   4.040   1.307   0.700  0.4155  1.8650 -0.8866
 1922TIP3   OH227324   0.738   0.730   6.492 -0.4218  0.1414 -1.0952
 1922TIP3    H127325   0.823   0.697   6.463 -0.4996  0.2446 -1.4473
 1922TIP3    H227326   0.739   0.823   6.470 -0.7588  0.0714 -1.4296
 1923TIP3   OH227327   3.582   4.014   6.349 -0.0810 -0.6043  0.3492
 1923TIP3    H127328   3.572   4.041   6.258  0.2127  1.0172  0.7617
 1923TIP3    H227329   3.669   3.976   6.353  1.1233  1.9105  0.4610
 1924TIP3   OH227330   4.066   6.276   1.628 -0.0957 -0.1705 -0.4349
 1924TIP3    H127331   4.132   6.307   1.566  0.7446 -0.2838  0.3854
 1924TIP3    H227332   4.040   6.354   1.677 -0.9212 -0.0393 -1.0492
 1925TIP3   OH227333   4.994   6.001   7.259 -0.1168  0.5091  0.1680
 1925TIP3    H127334   4.939   6.043   7.194 -1.5333 -1.5745 -0.0695
 1925TIP3    H227335   5.067   5.964   7.209 -0.5445 -0.0034 -0.0935
 1926TIP3   OH227336   5.747   0.512   8.392 -0.6195  0.2722  0.1584
 1926TIP3    H127337   5.762   0.561   8.311 -0.3774  1.0014  0.6337
 1926TIP3    H227338   5.652   0.519   8.406 -0.7008 -0.0828 -0.1988
 1927TIP3   OH227339   0.443   2.664   0.087 -0.2691 -0.5688 -0.6714
 1927TIP3    H127340   0.530   2.626   0.074 -0.4555 -1.0596 -0.5200
 1927TIP3    H227341   0.406   2.613   0.159  0.6750  1.9300  1.7927
 1928TIP3   OH227342   3.924   6.732   7.844  0.6416  0.0753  0.4760
 1928TIP3    H127343   3.871   6.772   7.776 -1.4235  0.5999  2.2910
 1928TIP3    H227344   3.904   6.639   7.839  0.2993  0.1457  0.5247
 1929TIP3   OH227345   4.095   2.957   7.508 -0.1778 -0.6331 -0.1185
 1929TIP3    H127346   4.031   2.927   7.443 -0.5907  0.0114 -0.0213
 1929TIP3    H227347   4.056   2.933   7.592  0.2444 -1.2523 -0.0958
 1930TIP3   OH227348   6.259   1.481   1.699 -0.1216 -0.1647 -0.3610
 1930TIP3    H127349   6.247   1.411   1.762 -1.6550  1.0676  0.8019
 1930TIP3    H227350   6.321   1.446   1.635  0.0066 -2.1402  0.7764
 1931TIP3   OH227351   6.912   5.941   0.287 -0.0568  0.0304  0.0239
 1931TIP3    H127352   6.824   5.904   0.291 -0.4637  1.0081  0.4623
 1931TIP3    H227353   6.927   5.978   0.374  0.1833  1.1892 -0.4929
 1932TIP3   OH227354   4.538   1.719   1.230 -0.0976 -0.3851 -0.2188
 1932TIP3    H127355   4.446   1.694   1.223 -0.3732 -0.6364  2.7340
 1932TIP3    H227356   4.586   1.636   1.225 -0.3068 -0.5964  0.8560
 1933TIP3   OH227357   6.090   2.185   1.140 -0.1605 -0.5552 -0.1689
 1933TIP3    H127358   6.107   2.277   1.158 -1.6173 -0.4807  0.9694
 1933TIP3    H227359   6.084   2.143   1.226 -0.4023 -1.5440 -0.6428
 1934TIP3   OH227360   1.334   3.756   1.869  0.2892  0.4256  0.3175
 1934TIP3    H127361   1.426   3.731   1.874  0.0906 -0.4978 -0.3233
 1934TIP3    H227362   1.309   3.776   1.959  1.1650  0.8979  0.4645
 1935TIP3   OH227363   3.263   5.204   7.701  0.5140 -0.0289  0.4019
 1935TIP3    H127364   3.234   5.216   7.792  0.9193  0.9175  0.4162
 1935TIP3    H227365   3.358   5.218   7.704  0.3750  1.2860 -0.3540
 1936TIP3   OH227366   5.798   6.803   8.332  0.0420 -0.3022 -0.0679
 1936TIP3    H127367   5.843   6.769   8.255  0.9709 -0.4864  0.5381
 1936TIP3    H227368   5.787   6.896   8.315 -0.6988 -0.5296 -0.8676
 1937TIP3   OH227369   2.227   4.482   0.527  0.4193 -0.3465 -0.6604
 1937TIP3    H127370   2.149   4.450   0.571 -1.1311  2.0793 -1.4823
 1937TIP3    H227371   2.223   4.443   0.440 -0.2181  0.2217 -0.8945
 1938TIP3   OH227372   1.121   2.290   8.080 -0.1160  0.0963  0.6022
 1938TIP3    H127373   1.113   2.199   8.053 -1.7414  0.6615 -1.0764
 1938TIP3    H227374   1.031   2.322   8.082  0.5067  2.5265 -2.2296
 1939TIP3   OH227375   3.285   2.288   6.239 -0.4302  0.1641 -0.5267
 1939TIP3    H127376   3.249   2.357   6.294 -0.4990 -0.3698  0.1021
 1939TIP3    H227377   3.214   2.225   6.228  0.5542 -1.4826  1.6783
 1940TIP3   OH227378   3.254   2.956   6.675 -0.4237 -0.1458 -0.0320
 1940TIP3    H127379   3.201   2.904   6.736 -2.1257  2.2661  0.7014
 1940TIP3    H227380   3.192   2.990   6.611  1.0037 -0.7970 -1.8553
 1941TIP3   OH227381   6.069   0.309   7.245  0.0374 -0.1501 -0.4571
 1941TIP3    H127382   5.977   0.326   7.262  0.1760  1.1026 -0.8121
 1941TIP3    H227383   6.111   0.314   7.331 -0.2046 -0.5906 -0.3142
 1942TIP3   OH227384   4.388   5.988   8.363 -0.0431 -0.9213 -0.7175
 1942TIP3    H127385   4.407   5.961   8.274 -0.4099  1.3691 -1.5609
 1942TIP3    H227386   4.457   6.050   8.385 -1.7037  1.0482 -0.6931
 1943TIP3   OH227387   5.352   1.021   7.839  0.1106  0.6239 -0.2809
 1943TIP3    H127388   5.385   1.056   7.921  0.1984  0.3274 -0.1859
 1943TIP3    H227389   5.265   0.987   7.860 -0.1722  1.2227 -0.4843
 1944TIP3   OH227390   4.043   5.368   1.584  0.0177  0.1266  0.2388
 1944TIP3    H127391   4.037   5.462   1.566 -3.0031  0.3069  1.5825
 1944TIP3    H227392   4.084   5.363   1.670  3.4628 -0.0865 -1.2820
 1945TIP3   OH227393   4.054   1.387   8.244 -0.1145 -0.5428  0.2434
 1945TIP3    H127394   3.976   1.418   8.199 -0.4419  1.0753  1.8290
 1945TIP3    H227395   4.078   1.306   8.197 -2.0367 -0.4599 -0.9966
 1946TIP3   OH227396   2.420   6.683   0.205  0.1009  0.0889 -0.2617
 1946TIP3    H127397   2.478   6.738   0.258  0.1284  0.4041 -0.6135
 1946TIP3    H227398   2.342   6.736   0.190 -0.2816 -0.3325  0.2046
 1947TIP3   OH227399   0.617   6.749   7.954  0.0716 -0.3307  0.0096
 1947TIP3    H127400   0.686   6.790   8.007  0.3934 -1.5722  0.5681
 1947TIP3    H227401   0.638   6.775   7.864  0.8251 -0.0600  0.2542
 1948TIP3   OH227402   2.619   6.373   7.217 -0.1850 -0.3054  0.3506
 1948TIP3    H127403   2.675   6.304   7.182 -0.7052 -1.9667  2.6030
 1948TIP3    H227404   2.627   6.444   7.154  5.5717  0.1958  1.1011
 1949TIP3   OH227405   2.846   1.114   0.766 -0.3380  0.3654 -0.3833
 1949TIP3    H127406   2.763   1.094   0.811 -0.4427 -0.0759 -0.7675
 1949TIP3    H227407   2.828   1.194   0.717 -0.4920  0.3509 -0.3511
 1950TIP3   OH227408   5.560   0.307   7.643  0.2157 -0.1973  0.4179
 1950TIP3    H127409   5.511   0.352   7.574  2.0209 -1.3284 -1.7123
 1950TIP3    H227410   5.569   0.373   7.712 -0.0512  1.6186 -1.1942
 1951TIP3   OH227411   2.852   5.749   1.811 -0.0942 -0.1882  0.4924
 1951TIP3    H127412   2.790   5.681   1.834 -1.7938  1.5626  1.3912
 1951TIP3    H227413   2.907   5.759   1.889 -0.4569  0.0857  0.7175
 1952TIP3   OH227414   2.981   1.254   8.503 -0.2378 -0.0892  0.4692
 1952TIP3    H127415   3.040   1.293   8.567  1.0638 -1.3448  0.0892
 1952TIP3    H227416   3.034   1.245   8.424 -1.1601 -0.5718 -0.1137
 1953TIP3   OH227417   2.850   1.646   1.262 -0.5203  0.5488  0.4532
 1953TIP3    H127418   2.891   1.730   1.283 -0.5623  0.9133 -0.8469
 1953TIP3    H227419   2.768   1.669   1.219 -1.0542 -0.1777  1.0372
 1954TIP3   OH227420   2.292   6.807   7.392  0.5844  0.4114 -0.7221
 1954TIP3    H127421   2.329   6.721   7.371 -0.8304 -0.5328  0.3994
 1954TIP3    H227422   2.274   6.847   7.307  1.3036 -0.3912 -1.2672
 1955TIP3   OH227423   3.438   6.400   0.982 -0.3124 -0.5371  0.1664
 1955TIP3    H127424   3.451   6.432   1.071 -1.6816 -1.3984  0.7045
 1955TIP3    H227425   3.494   6.322   0.976 -1.6638 -1.6226  0.9710
 1956TIP3   OH227426   4.445   1.113   7.813  0.1043  0.5266  0.4372
 1956TIP3    H127427   4.496   1.033   7.826 -0.3494  0.5713  2.8099
 1956TIP3    H227428   4.414   1.107   7.723  3.4688  0.0512 -0.8544
 1957TIP3   OH227429   3.187   6.536   1.245  0.1378 -0.2243 -0.2231
 1957TIP3    H127430   3.141   6.586   1.177 -1.1503 -1.9716 -0.7058
 1957TIP3    H227431   3.180   6.445   1.216  3.1824 -0.6900  0.1413
 1958TIP3   OH227432   0.643   2.161   1.185 -0.6601  0.0794  0.4989
 1958TIP3    H127433   0.661   2.246   1.224 -2.2396  1.3879 -1.4193
 1958TIP3    H227434   0.551   2.164   1.160 -1.5705 -3.2655  2.7491
 1959TIP3   OH227435   5.297   6.322   6.154  0.2948 -0.1975 -0.3001
 1959TIP3    H127436   5.232   6.384   6.189  1.3106  0.6930  0.0661
 1959TIP3    H227437   5.364   6.378   6.115  1.3889 -1.0432  0.3142
 1960TIP3   OH227438   5.164   6.101   1.048  0.0138 -0.2863  0.2419
 1960TIP3    H127439   5.246   6.103   1.098  1.5634 -0.0735 -2.1331
 1960TIP3    H227440   5.122   6.019   1.075  1.0527 -0.4608  1.4460
 1961TIP3   OH227441   2.744   0.463   0.444 -0.4072  0.5479  0.1019
 1961TIP3    H127442   2.650   0.466   0.460 -0.3583  0.1849  0.4674
 1961TIP3    H227443   2.783   0.440   0.528 -0.1486 -1.3479 -0.4811
 1962TIP3   OH227444   2.160   1.225   0.329 -0.0745  0.1352  0.1871
 1962TIP3    H127445   2.189   1.254   0.243 -0.8254 -2.0430 -0.8705
 1962TIP3    H227446   2.070   1.254   0.336 -0.3194 -0.5104 -0.1941
 1963TIP3   OH227447   5.276   3.907   1.639  0.3978  0.0556 -0.2103
 1963TIP3    H127448   5.237   3.821   1.653  0.4275  0.0818  0.0250
 1963TIP3    H227449   5.307   3.935   1.725  1.8616 -0.3983 -0.5569
 1964TIP3   OH227450   1.567   6.362   7.376 -0.2001  0.0658  0.3728
 1964TIP3    H127451   1.520   6.322   7.303 -0.0861 -1.6663  1.2233
 1964TIP3    H227452   1.606   6.442   7.338 -0.9366 -0.2866 -1.1982
 1965TIP3   OH227453   2.384   4.777   0.972 -0.4614  0.1551  0.1458
 1965TIP3    H127454   2.328   4.808   0.901 -0.3814  1.8297  0.7759
 1965TIP3    H227455   2.351   4.821   1.050  2.8012  2.8334  0.2946
 1966TIP3   OH227456   1.422   5.863   7.603  0.1979 -0.4688  0.3139
 1966TIP3    H127457   1.388   5.924   7.537  1.1953  0.1908  0.3729
 1966TIP3    H227458   1.351   5.801   7.618 -0.4496  0.0322 -0.5636
 1967TIP3   OH227459   6.425   1.779   0.886  0.2588  0.1196 -0.8745
 1967TIP3    H127460   6.384   1.856   0.925 -0.6251 -1.1838  0.9671
 1967TIP3    H227461   6.380   1.767   0.803 -2.2143 -0.4340  0.4452
 1968TIP3   OH227462   5.063   2.240   7.757  0.3544 -0.8775 -0.1686
 1968TIP3    H127463   5.008   2.167   7.787 -0.5029 -0.3489 -0.4397
 1968TIP3    H227464   5.047   2.310   7.821  0.0107 -0.4086 -0.7660
 1969TIP3   OH227465   6.249   4.995   7.547 -1.1462  0.0703  0.1198
 1969TIP3    H127466   6.159   5.005   7.518 -1.6433  2.2107  2.1101
 1969TIP3    H227467   6.256   4.902   7.570 -2.1300 -0.6065 -2.0298
 1970TIP3   OH227468   4.626   3.133   1.619  0.3171  0.3582  0.3573
 1970TIP3    H127469   4.577   3.209   1.586 -1.3702 -1.4731 -1.6183
 1970TIP3    H227470   4.576   3.104   1.696 -0.3429 -0.0652 -0.2234
 1971TIP3   OH227471   0.737   0.727   1.687 -0.0750  0.1649 -0.4480
 1971TIP3    H127472   0.703   0.663   1.750 -0.4405  0.4202 -0.3801
 1971TIP3    H227473   0.798   0.780   1.738  2.5701 -1.9616 -1.1649
 1972TIP3   OH227474   0.789   0.955   8.388  0.1656  0.1296 -0.5988
 1972TIP3    H127475   0.841   0.982   8.465 -0.5069 -0.5654  0.1197
 1972TIP3    H227476   0.704   0.931   8.424 -1.5493  3.4086 -1.9751
 1973TIP3   OH227477   5.622   0.967   8.011  0.2575 -0.1961  0.1527
 1973TIP3    H127478   5.703   0.962   7.961  0.0928  0.8320 -0.2580
 1973TIP3    H227479   5.582   1.050   7.983 -0.1846  0.0579  1.4666
 1974TIP3   OH227480   1.310   0.395   7.038  0.2241  0.5821  0.3832
 1974TIP3    H127481   1.235   0.383   6.980  0.2728 -1.5285  0.6687
 1974TIP3    H227482   1.272   0.412   7.124  0.1043  0.6714  0.3129
 1975TIP3   OH227483   1.024   6.148   1.928  0.1229 -0.7497  0.0196
 1975TIP3    H127484   0.995   6.193   2.007  2.1923 -1.0705  1.0162
 1975TIP3    H227485   0.994   6.058   1.940 -0.8291 -0.4820 -0.2658
 1976TIP3   OH227486   1.878   2.155   1.291  1.1620  0.0631  0.3774
 1976TIP3    H127487   1.798   2.119   1.254  0.6666 -1.8566  2.9820
 1976TIP3    H227488   1.855   2.245   1.315  0.3659  0.1108 -0.5337
 1977TIP3   OH227489   2.088   2.404   0.501  0.2870  0.0496  0.5759
 1977TIP3    H127490   2.147   2.388   0.428  0.3340 -1.2450  0.8579
 1977TIP3    H227491   2.131   2.471   0.553  0.7989  0.1723  0.0081
 1978TIP3   OH227492   1.958   3.322   6.149  0.2882  0.2706  0.2828
 1978TIP3    H127493   2.009   3.384   6.201  0.2954  1.0093 -0.5887
 1978TIP3    H227494   1.875   3.314   6.196  0.0516  1.4190  0.0923
 1979TIP3   OH227495   1.153   5.759   2.676 -0.0411 -0.2235 -0.8901
 1979TIP3    H127496   1.109   5.704   2.611  1.5730 -1.5484 -0.9435
 1979TIP3    H227497   1.126   5.724   2.760  0.2080 -0.4844 -0.9140
 1980TIP3   OH227498   3.256   4.764   7.298  0.4703 -0.2092  0.1735
 1980TIP3    H127499   3.169   4.744   7.263  0.6376  0.5037 -0.6609
 1980TIP3    H227500   3.316   4.713   7.244  0.6761  0.3981 -0.1830
 1981TIP3   OH227501   2.783   3.161   1.301  0.4053 -0.6803  0.6299
 1981TIP3    H127502   2.860   3.108   1.283  0.7877 -0.1979  0.8326
 1981TIP3    H227503   2.772   3.157   1.396  0.4649 -0.3556  0.6506
 1982TIP3   OH227504   1.312   0.550   7.929  0.2916  0.0660 -0.2634
 1982TIP3    H127505   1.282   0.620   7.870  1.4431 -0.2394 -1.2629
 1982TIP3    H227506   1.250   0.479   7.915  1.0515 -0.3471 -1.8631
 1983TIP3   OH227507   6.013   1.557   8.259 -0.4898 -0.2099 -0.1929
 1983TIP3    H127508   5.949   1.486   8.248 -0.0308 -0.5549 -0.6452
 1983TIP3    H227509   6.093   1.514   8.286 -1.1834  0.4607  3.5360
 1984TIP3   OH227510   0.330   2.651   6.832  0.1381 -0.0354  0.1337
 1984TIP3    H127511   0.266   2.716   6.802 -0.5400 -1.1200 -0.8835
 1984TIP3    H227512   0.276   2.578   6.863  0.8853 -0.4592  0.4488
 1985TIP3   OH227513   2.706   6.559   0.365 -0.3331  0.3573  0.1674
 1985TIP3    H127514   2.765   6.628   0.336  0.8490 -0.5981  0.1860
 1985TIP3    H227515   2.707   6.565   0.460 -0.2049  0.3036  0.1702
 1986TIP3   OH227516   5.823   1.098   7.503  0.5093  0.4176  0.6338
 1986TIP3    H127517   5.756   1.121   7.567  0.6060  1.9334  0.2327
 1986TIP3    H227518   5.835   1.004   7.514  0.1377  0.5380  2.4551
 1987TIP3   OH227519   5.589   4.890   0.493 -0.0209 -0.0674 -0.1112
 1987TIP3    H127520   5.626   4.958   0.549 -1.2610  0.7599 -0.2448
 1987TIP3    H227521   5.661   4.865   0.434  0.8931  0.0156  0.9367
 1988TIP3   OH227522   2.420   6.848   2.663  0.2843  0.0517  0.0087
 1988TIP3    H127523   2.364   6.872   2.588  0.1042 -1.1502 -0.2643
 1988TIP3    H227524   2.488   6.915   2.664  0.5545 -0.1550 -1.5305
 1989TIP3   OH227525   2.492   1.137   6.639 -0.2682 -0.0084  0.3796
 1989TIP3    H127526   2.582   1.138   6.606 -0.5366 -1.7514 -0.5263
 1989TIP3    H227527   2.496   1.078   6.714 -0.6031  0.2019  0.5628
 1990TIP3   OH227528   3.512   6.837   8.417  0.1488  0.0503  0.6313
 1990TIP3    H127529   3.580   6.896   8.448  0.1972  0.2813  0.1005
 1990TIP3    H227530   3.504   6.771   8.486  2.2119 -1.0464 -0.0810
 1991TIP3   OH227531   2.166   3.964   8.339  0.4263  0.2570  0.2557
 1991TIP3    H127532   2.148   3.999   8.426  1.1689  0.2734  0.4086
 1991TIP3    H227533   2.252   3.923   8.346 -0.5910 -2.0467  0.1985
 1992TIP3   OH227534   6.712   3.199   1.756 -0.1770  0.1251 -0.6480
 1992TIP3    H127535   6.747   3.154   1.680 -0.9119 -0.7223 -0.5033
 1992TIP3    H227536   6.626   3.158   1.771 -0.6666  1.2617 -0.2318
 1993TIP3   OH227537   6.479   1.833   0.247 -0.3064 -0.2596 -0.6844
 1993TIP3    H127538   6.561   1.878   0.228 -1.4620  2.4746  0.3340
 1993TIP3    H227539   6.503   1.763   0.308  1.7100 -1.9272 -3.1910
 1994TIP3   OH227540   0.265   0.297   8.159  0.0974 -0.3154 -0.2476
 1994TIP3    H127541   0.188   0.351   8.142 -0.2268 -0.4525  0.6963
 1994TIP3    H227542   0.291   0.321   8.248  2.3243  1.1532 -1.2252
 1995TIP3   OH227543   6.025   2.518   6.872 -0.4148 -0.0157  0.0331
 1995TIP3    H127544   6.016   2.548   6.782 -0.2571  0.8714  0.3013
 1995TIP3    H227545   6.115   2.540   6.896 -0.5491  0.0465  0.5008
 1996TIP3   OH227546   5.023   5.974   6.577 -0.8270 -0.9072  0.5045
 1996TIP3    H127547   4.957   6.017   6.631 -1.2250 -0.3979 -0.3623
 1996TIP3    H227548   5.013   5.881   6.596 -0.0834 -0.6599  2.2668
 1997TIP3   OH227549   2.221   5.731   7.316 -0.3759 -0.0489  0.5082
 1997TIP3    H127550   2.141   5.770   7.283 -0.3987 -0.9984 -0.6472
 1997TIP3    H227551   2.285   5.802   7.315 -0.5965  0.1577 -0.8413
 1998TIP3   OH227552   5.610   6.416   8.492  0.8551  0.3716 -0.9389
 1998TIP3    H127553   5.627   6.410   8.586  0.5377 -2.0334 -0.9731
 1998TIP3    H227554   5.697   6.423   8.453  1.0298  0.6212 -0.5265
 1999TIP3   OH227555   1.061   0.200   0.808  0.2281  0.0250 -0.4381
 1999TIP3    H127556   1.041   0.263   0.878  1.3193  0.7548 -0.7641
 1999TIP3    H227557   1.016   0.235   0.731  0.8627  0.4410 -0.6276
 2000TIP3   OH227558   5.594   2.981   1.190 -0.2106 -0.9285  0.9763
 2000TIP3    H127559   5.658   2.977   1.119  0.9351  0.7269  1.8626
 2000TIP3    H227560   5.522   3.035   1.156 -0.4321 -1.4882  0.5352
 2001TIP3   OH227561   2.014   1.642   6.977  0.1985  0.1393 -0.5207
 2001TIP3    H127562   1.995   1.613   6.887  0.8973 -1.9294 -0.0634
 2001TIP3    H227563   1.981   1.572   7.032 -0.7273  1.6485  0.9232
 2002TIP3   OH227564   4.961   4.052   7.615  0.3240 -0.4776 -0.7714
 2002TIP3    H127565   5.028   3.987   7.639  0.5480  0.4765  1.3853
 2002TIP3    H227566   4.885   4.029   7.668 -0.1937  0.0071 -1.2821
 2003TIP3   OH227567   2.288   4.004   2.160  0.1155 -0.2482 -0.2893
 2003TIP3    H127568   2.376   3.968   2.151  0.2849  0.6088 -3.1716
 2003TIP3    H227569   2.300   4.085   2.210  1.0571  0.0482 -0.9671
 2004TIP3   OH227570   2.776   5.959   0.881 -0.2125 -0.2027  0.1471
 2004TIP3    H127571   2.848   6.022   0.873 -0.2558 -0.2832 -1.0510
 2004TIP3    H227572   2.699   6.006   0.848 -0.0668 -1.1376 -1.6513
 2005TIP3   OH227573   2.446   4.321   0.509  0.5334  0.4108 -0.6363
 2005TIP3    H127574   2.359   4.358   0.522  0.4951  0.4477 -0.9813
 2005TIP3    H227575   2.444   4.237   0.555  0.3911  0.5177 -0.4479
 2006TIP3   OH227576   1.453   6.129   0.029  0.2128 -0.0304 -0.2493
 2006TIP3    H127577   1.524   6.074   0.061  1.6789  1.7842 -0.2462
 2006TIP3    H227578   1.430   6.092  -0.056 -1.2318 -2.6914  1.1828
 2007TIP3   OH227579   1.288   2.336   7.394 -0.1183  0.1933  0.2729
 2007TIP3    H127580   1.232   2.259   7.398 -1.3906  1.0592 -0.2553
 2007TIP3    H227581   1.230   2.410   7.413  1.1086  1.0184  0.9501
 2008TIP3   OH227582   0.636   4.061   7.927  0.4967  0.0719  0.0763
 2008TIP3    H127583   0.665   3.970   7.919 -0.4829 -0.1598 -1.1328
 2008TIP3    H227584   0.714   4.108   7.955  1.3357 -0.9633 -0.4286
 2009TIP3   OH227585   2.331   1.050   6.437 -0.0165  0.1177  0.3418
 2009TIP3    H127586   2.388   1.062   6.513 -1.1566 -1.5441  1.5391
 2009TIP3    H227587   2.297   1.137   6.418  0.0978  0.5301  1.8990
 2010TIP3   OH227588   0.114   2.066   1.053  0.0049  0.0688  0.8035
 2010TIP3    H127589   0.084   2.093   1.139 -0.3509  4.0026 -0.3890
 2010TIP3    H227590   0.046   2.097   0.993  2.0557  0.9640 -1.1845
 2011TIP3   OH227591   1.175   1.452   1.550 -0.2914 -0.3012 -0.4611
 2011TIP3    H127592   1.267   1.437   1.528 -0.5321 -0.3440 -1.5126
 2011TIP3    H227593   1.144   1.512   1.482 -0.8594  0.2729  0.2940
 2012TIP3   OH227594   1.177   3.822   0.547 -0.1053  0.0114 -0.4386
 2012TIP3    H127595   1.244   3.846   0.484  0.2139  3.1981  0.9134
 2012TIP3    H227596   1.114   3.894   0.544 -1.6147 -1.1572  0.8459
 2013TIP3   OH227597   3.303   4.142   7.295 -0.1036  0.3195  0.2121
 2013TIP3    H127598   3.264   4.056   7.281 -0.2982  0.2455  1.1711
 2013TIP3    H227599   3.318   4.176   7.207  0.2540 -0.8169 -0.1845
 2014TIP3   OH227600   6.596   6.078   6.421 -0.2904 -0.3878 -0.1632
 2014TIP3    H127601   6.667   6.137   6.447  0.9194 -1.2531 -1.3930
 2014TIP3    H227602   6.529   6.136   6.384 -0.7938  0.5641  2.0557
 2015TIP3   OH227603   6.817   3.725   1.461  0.2585 -0.1005 -0.1675
 2015TIP3    H127604   6.860   3.651   1.503  0.3582 -0.5696 -1.0781
 2015TIP3    H227605   6.814   3.702   1.368 -0.3107  0.7395 -0.3712
 2016TIP3   OH227606   2.817   3.173   8.050 -0.0011 -0.4029  0.1903
 2016TIP3    H127607   2.814   3.257   8.095  0.4418 -0.2571 -0.0511
 2016TIP3    H227608   2.878   3.120   8.102  0.5963 -0.1968 -0.3019
 2017TIP3   OH227609   6.868   0.401   1.739  0.0219 -0.2069 -0.2028
 2017TIP3    H127610   6.869   0.347   1.817  0.8666 -0.0107 -0.0664
 2017TIP3    H227611   6.783   0.445   1.741  0.5338  0.8018  1.3122
 2018TIP3   OH227612   2.850   1.413   7.886  0.1889 -0.4749 -0.2378
 2018TIP3    H127613   2.783   1.400   7.953  0.3317  0.2139  0.0493
 2018TIP3    H227614   2.844   1.335   7.830  0.8413 -1.6482  1.2385
 2019TIP3   OH227615   5.743   5.214   7.878 -0.3312 -0.3984 -0.6323
 2019TIP3    H127616   5.651   5.235   7.896 -0.8752 -2.7007 -0.4237
 2019TIP3    H227617   5.776   5.176   7.959  0.3256 -1.0642 -1.1936
 2020TIP3   OH227618   0.433   4.946   0.011  0.3766 -0.3331  0.4740
 2020TIP3    H127619   0.519   4.908  -0.006 -0.0942 -1.8011  1.1644
 2020TIP3    H227620   0.385   4.877   0.057 -0.9361  0.7083  0.7417
 2021TIP3   OH227621   3.986   0.307   6.276  0.6218  0.0938 -0.3043
 2021TIP3    H127622   3.914   0.245   6.266 -1.4147  1.9092  1.6886
 2021TIP3    H227623   3.967   0.376   6.212  0.9955  0.2439 -0.2539
 2022TIP3   OH227624   0.605   3.598   7.544 -0.3856 -1.4702 -0.7578
 2022TIP3    H127625   0.537   3.536   7.517 -0.3542 -0.8982 -2.2335
 2022TIP3    H227626   0.640   3.633   7.462  0.8673 -0.8601  0.0046
 2023TIP3   OH227627   3.804   4.876   2.356  0.4571 -0.1827 -0.7290
 2023TIP3    H127628   3.728   4.852   2.304 -2.1037  2.0096  1.6507
 2023TIP3    H227629   3.815   4.805   2.418  0.6981 -0.7338 -1.3929
 2024TIP3   OH227630   1.820   0.526   8.322 -0.1950 -0.0389 -0.4327
 2024TIP3    H127631   1.741   0.552   8.273 -1.1704 -0.9394  0.5865
 2024TIP3    H227632   1.851   0.447   8.276 -0.9888 -0.7631  0.2350
 2025TIP3   OH227633   2.099   2.765   1.321 -0.3272 -0.4300 -0.8245
 2025TIP3    H127634   2.012   2.796   1.346 -0.5884 -1.6916 -0.0778
 2025TIP3    H227635   2.159   2.819   1.372 -0.6758  0.2168 -1.0853
 2026TIP3   OH227636   6.504   0.956   2.194  0.6808  0.7701 -0.6871
 2026TIP3    H127637   6.526   0.988   2.107  1.8675  0.0731 -0.6713
 2026TIP3    H227638   6.589   0.935   2.234  0.0904 -0.2098  0.1200
 2027TIP3   OH227639   1.543   0.908   7.671  0.1748  0.1936 -0.0482
 2027TIP3    H127640   1.535   0.942   7.582 -1.1784  0.0520  0.0019
 2027TIP3    H227641   1.595   0.974   7.717 -1.0980  1.4675 -0.3480
 2028TIP3   OH227642   5.699   5.980   8.446 -0.1066  0.4428 -0.2449
 2028TIP3    H127643   5.637   6.023   8.504 -0.9469 -1.5509  0.4003
 2028TIP3    H227644   5.778   5.969   8.499 -0.2676  0.2081 -0.0537
 2029TIP3   OH227645   4.069   0.210   6.678  0.5266 -0.3804 -0.3291
 2029TIP3    H127646   4.037   0.172   6.760 -0.3224 -1.1579 -0.9998
 2029TIP3    H227647   4.131   0.277   6.705  0.5932 -0.9332  0.9362
 2030TIP3   OH227648   6.663   3.939   8.278 -0.1609 -0.6258  0.2069
 2030TIP3    H127649   6.680   3.958   8.186  0.0803 -0.2883  0.3172
 2030TIP3    H227650   6.677   3.845   8.286 -0.6110 -0.7344 -0.1889
 2031TIP3   OH227651   3.110   5.649   1.165  0.1217  0.1821  0.0562
 2031TIP3    H127652   3.158   5.638   1.083 -0.1428 -0.5854 -0.0074
 2031TIP3    H227653   3.090   5.742   1.170  2.3868  0.6965  0.5234
 2032TIP3   OH227654   0.627   2.348   0.858  0.7518  0.4292 -0.6392
 2032TIP3    H127655   0.552   2.292   0.839  0.3908  0.7356 -0.1524
 2032TIP3    H227656   0.672   2.303   0.931  0.8705  0.4047 -0.7266
 2033TIP3   OH227657   6.101   3.348   1.210  0.3915 -0.3485 -0.4000
 2033TIP3    H127658   6.084   3.431   1.255 -0.4748  0.5230 -2.2291
 2033TIP3    H227659   6.088   3.368   1.117  1.2648 -2.2786 -0.9902
 2034TIP3   OH227660   3.670   5.409   0.126  0.2075  0.2605 -0.4073
 2034TIP3    H127661   3.706   5.442   0.044 -1.0743 -1.4791 -1.7363
 2034TIP3    H227662   3.745   5.375   0.173  0.9760  1.3850 -0.7745
 2035TIP3   OH227663   1.639   2.678   6.979  0.1650  0.9724  0.0483
 2035TIP3    H127664   1.584   2.680   7.057 -2.0969  3.4266 -1.4525
 2035TIP3    H227665   1.673   2.767   6.971  0.8317  0.6209 -1.4452
 2036TIP3   OH227666   4.160   3.539   7.254  0.4788  0.1619  0.1668
 2036TIP3    H127667   4.179   3.457   7.299  2.3408  0.3341 -0.2345
 2036TIP3    H227668   4.134   3.599   7.325  2.4882  0.1725  0.9574
 2037TIP3   OH227669   6.269   6.689   8.031 -0.2308 -0.0288 -0.1873
 2037TIP3    H127670   6.360   6.706   8.056  0.7216 -2.7312 -1.4352
 2037TIP3    H227671   6.262   6.725   7.942  0.2053 -1.3516 -0.7827
 2038TIP3   OH227672   5.550   6.425   0.968 -0.7681 -0.0784  0.0143
 2038TIP3    H127673   5.485   6.406   0.900 -1.4294 -0.5495  0.7666
 2038TIP3    H227674   5.634   6.402   0.928 -1.2045 -0.9672 -0.4199
 2039TIP3   OH227675   1.542   1.500   8.351  0.1252 -0.3152  0.2865
 2039TIP3    H127676   1.531   1.595   8.340  1.1100 -0.2441 -0.1893
 2039TIP3    H227677   1.494   1.462   8.278 -0.2297 -0.1840  0.4492
 2040TIP3   OH227678   1.124   5.115   2.854  0.2621 -0.1477 -0.0082
 2040TIP3    H127679   1.204   5.167   2.842  0.0414  0.7382  1.9633
 2040TIP3    H227680   1.099   5.090   2.766  1.3570  1.6484 -0.9014
 2041TIP3   OH227681   2.386   3.919   0.605  0.0238 -0.5406  0.1572
 2041TIP3    H127682   2.456   3.978   0.577 -0.8942  0.4688 -0.1041
 2041TIP3    H227683   2.431   3.843   0.643  1.2645 -0.4057 -0.9747
 2042TIP3   OH227684   0.155   6.600   2.267  0.3488 -0.2696 -0.3855
 2042TIP3    H127685   0.135   6.690   2.242  1.1734 -0.3005 -1.1931
 2042TIP3    H227686   0.130   6.595   2.360 -1.3131  0.2934 -0.7669
 2043TIP3   OH227687   3.227   2.039   8.238 -0.7663 -0.1756 -0.4618
 2043TIP3    H127688   3.215   1.946   8.221  0.1786 -0.3445 -0.2694
 2043TIP3    H227689   3.309   2.061   8.193 -0.6648  0.4135 -0.0011
 2044TIP3   OH227690   0.279   0.241   0.381  0.1733  0.9726  0.1747
 2044TIP3    H127691   0.306   0.164   0.331  2.1297  0.8222  1.3600
 2044TIP3    H227692   0.267   0.209   0.470  1.8891  2.1355  0.8838
 2045TIP3   OH227693   2.397   2.598   6.344  0.0237  0.7711 -0.1503
 2045TIP3    H127694   2.428   2.619   6.432  1.0582 -0.2874 -0.2457
 2045TIP3    H227695   2.370   2.683   6.308  0.6149  1.3804  0.7895
 2046TIP3   OH227696   0.236   2.454   7.922  0.4119  0.5643 -0.2716
 2046TIP3    H127697   0.204   2.487   7.838  0.0676  0.1017 -0.3239
 2046TIP3    H227698   0.172   2.388   7.948  1.1127 -0.1050 -0.1960
 2047TIP3   OH227699   1.573   2.218   7.414  0.0038  0.0655  0.2687
 2047TIP3    H127700   1.609   2.307   7.412 -0.9840  0.5073  1.0282
 2047TIP3    H227701   1.518   2.216   7.492 -0.9703 -0.8245 -0.4079
 2048TIP3   OH227702   2.650   5.980   1.907  0.0960 -0.0110  0.5422
 2048TIP3    H127703   2.610   5.921   1.971 -0.9718  0.4239  0.3088
 2048TIP3    H227704   2.709   5.925   1.856 -2.8962 -1.6396 -1.5404
 2049TIP3   OH227705   2.380   5.438   0.877  0.0799  0.1539  0.2316
 2049TIP3    H127706   2.470   5.409   0.861 -0.3246 -0.3520 -1.2835
 2049TIP3    H227707   2.363   5.503   0.808 -0.6143  0.4857  0.7006
 2050TIP3   OH227708   4.765   4.679   6.104 -0.4330  0.0715 -0.1740
 2050TIP3    H127709   4.785   4.608   6.164  0.5504  0.8250  0.4165
 2050TIP3    H227710   4.757   4.637   6.019 -1.1840 -0.9206  0.3554
 2051TIP3   OH227711   0.372   2.205   1.111  0.1373 -0.3683 -0.2296
 2051TIP3    H127712   0.312   2.142   1.072  0.2598  0.9467 -2.7262
 2051TIP3    H227713   0.359   2.286   1.061  0.8647  1.2723  2.0262
 2052TIP3   OH227714   3.275   2.870   2.070 -0.5265 -0.1214  0.4650
 2052TIP3    H127715   3.224   2.949   2.053 -2.6684 -1.4461  0.4414
 2052TIP3    H227716   3.356   2.903   2.110 -1.4152  2.0604  0.6477
 2053TIP3   OH227717   3.565   2.497   0.751 -0.1982  0.5720 -0.2678
 2053TIP3    H127718   3.553   2.509   0.845 -0.5299  0.3892 -0.2846
 2053TIP3    H227719   3.476   2.488   0.717 -0.0047 -1.3143 -0.3408
 2054TIP3   OH227720   5.155   6.196   1.357 -0.9816 -0.8036  0.7808
 2054TIP3    H127721   5.202   6.117   1.335  0.4525  0.3453 -0.4537
 2054TIP3    H227722   5.103   6.216   1.279  0.1766  0.4880  0.2929
 2055TIP3   OH227723   3.948   4.494   7.057 -0.1755  0.1457  0.5024
 2055TIP3    H127724   3.874   4.437   7.037 -0.2175  0.5193 -0.4432
 2055TIP3    H227725   3.979   4.463   7.143 -0.8035 -0.6540  0.4567
 2056TIP3   OH227726   6.082   6.124   7.470 -0.0786  0.7109  0.1310
 2056TIP3    H127727   6.145   6.194   7.449  0.7075  0.1316  0.5069
 2056TIP3    H227728   6.137   6.046   7.482 -0.7508  0.4490  1.7011
 2057TIP3   OH227729   0.560   1.503   7.635  0.3157 -0.2430  0.4109
 2057TIP3    H127730   0.629   1.546   7.585 -0.9219  1.4107  0.0519
 2057TIP3    H227731   0.564   1.411   7.607  1.2945  0.1455 -0.8034
 2058TIP3   OH227732   1.501   2.943   0.241  0.2726  0.3013 -0.3058
 2058TIP3    H127733   1.415   2.963   0.204  0.8256  1.4542 -1.0385
 2058TIP3    H227734   1.518   2.853   0.216  0.1137  0.6828 -1.9026
 2059TIP3   OH227735   2.048   2.441   8.248 -0.4716  1.1179 -0.1098
 2059TIP3    H127736   1.992   2.476   8.178  0.4304 -0.1224 -1.5070
 2059TIP3    H227737   2.134   2.478   8.230 -0.1270  0.3943  0.0421
 2060TIP3   OH227738   4.512   3.571   1.229  0.0481 -0.2778  0.0777
 2060TIP3    H127739   4.599   3.577   1.190 -0.0153 -3.6341 -0.8090
 2060TIP3    H227740   4.453   3.597   1.159  0.2409  2.0634  0.6972
 2061TIP3   OH227741   3.829   0.280   7.640 -0.4180  0.8241 -0.3537
 2061TIP3    H127742   3.869   0.215   7.582  0.6310  0.5929  0.5945
 2061TIP3    H227743   3.785   0.341   7.580  0.7138  0.6539 -1.4103
 2062TIP3   OH227744   0.125   4.742   1.085  0.2377  0.3717  0.2872
 2062TIP3    H127745   0.107   4.677   1.017 -2.8146  0.4732  0.8705
 2062TIP3    H227746   0.064   4.721   1.155  1.0319  2.2696  1.6131
 2063TIP3   OH227747   5.420   1.908   7.119  0.4845 -0.0832 -0.8126
 2063TIP3    H127748   5.377   1.889   7.202 -0.0683  1.0243 -0.8255
 2063TIP3    H227749   5.505   1.865   7.126  0.0483 -0.8749 -0.0987
 2064TIP3   OH227750   1.905   3.726   6.189  0.1790 -0.4423 -0.2401
 2064TIP3    H127751   1.930   3.816   6.210 -2.3701  0.8139 -2.0551
 2064TIP3    H227752   1.950   3.707   6.106  0.3358 -0.6868 -0.1022
 2065TIP3   OH227753   0.782   5.123   0.026 -0.2774  0.4082  0.6025
 2065TIP3    H127754   0.747   5.046   0.071  0.8758  0.3501  1.4609
 2065TIP3    H227755   0.738   5.197   0.068 -0.4648  0.2789  0.6378
 2066TIP3   OH227756   2.233   0.043   0.942 -0.7229  0.5211 -0.1450
 2066TIP3    H127757   2.283  -0.025   0.987 -1.5671 -2.2683 -3.0781
 2066TIP3    H227758   2.299   0.096   0.898 -0.1504 -0.1085 -0.0631
 2067TIP3   OH227759   1.185   5.431   0.967 -0.1380 -0.3992 -0.2131
 2067TIP3    H127760   1.191   5.458   0.876  2.4505  0.4793  0.1451
 2067TIP3    H227761   1.124   5.493   1.007 -1.2694 -0.7731 -1.2719
 2068TIP3   OH227762   2.484   3.819   7.296 -0.3496 -0.0539  1.0188
 2068TIP3    H127763   2.430   3.787   7.368  1.4067 -2.2600  1.4510
 2068TIP3    H227764   2.547   3.749   7.280  0.3221  1.0483 -1.6372
 2069TIP3   OH227765   6.279   3.296   7.697 -0.1758 -0.3738  0.4703
 2069TIP3    H127766   6.290   3.312   7.603 -0.6178 -0.8127  0.3359
 2069TIP3    H227767   6.213   3.360   7.724 -0.6593 -0.7964  0.3032
 2070TIP3   OH227768   1.056   0.062   7.999 -0.7454  0.0642  0.0914
 2070TIP3    H127769   1.006   0.002   7.943  1.3284 -1.0971 -0.6260
 2070TIP3    H227770   1.043   0.029   8.088 -0.1031 -1.1662 -0.2387
 2071TIP3   OH227771   1.876   0.630   2.618 -0.9486 -0.2136 -1.2423
 2071TIP3    H127772   1.853   0.544   2.584 -0.2256 -1.0864  0.3570
 2071TIP3    H227773   1.799   0.657   2.669  0.4198 -2.0887  2.1522
 2072TIP3   OH227774   6.510   6.085   7.119  0.0955 -0.5299  0.4109
 2072TIP3    H127775   6.526   6.174   7.152 -0.5527 -0.3646  0.2959
 2072TIP3    H227776   6.597   6.054   7.092  0.2097  0.4036 -0.3778
 2073TIP3   OH227777   2.416   2.925   8.388  0.0351 -0.1481  0.1247
 2073TIP3    H127778   2.478   2.950   8.319  0.5135  0.1822  0.6633
 2073TIP3    H227779   2.471   2.901   8.462 -0.4472  1.8673  1.2194
 2074TIP3   OH227780   4.756   2.161   0.071  0.2918 -0.2419  0.3275
 2074TIP3    H127781   4.850   2.157   0.054 -0.2432 -1.7746 -3.4026
 2074TIP3    H227782   4.720   2.086   0.024 -2.9116  0.7759  0.8741
 2075TIP3   OH227783   0.898   2.561   6.191 -0.2877  0.0791 -0.2515
 2075TIP3    H127784   0.874   2.607   6.110 -1.4726 -0.7560 -0.4065
 2075TIP3    H227785   0.928   2.475   6.162 -1.1772 -0.3989  0.2081
 2076TIP3   OH227786   5.811   6.004   1.547  0.4057 -0.4432  0.5748
 2076TIP3    H127787   5.892   5.955   1.560  1.7157  1.7836  1.5210
 2076TIP3    H227788   5.764   5.997   1.630  0.5966 -0.1086  0.7127
 2077TIP3   OH227789   4.622   0.560   1.015  0.0825 -0.0191 -0.0138
 2077TIP3    H127790   4.673   0.486   0.982 -0.3904 -0.4695  0.2565
 2077TIP3    H227791   4.551   0.570   0.952 -0.6279 -0.6659  0.6622
 2078TIP3   OH227792   6.831   3.091   1.541  0.1173  0.2638 -0.2323
 2078TIP3    H127793   6.897   3.119   1.477 -0.3374 -1.4010 -1.4948
 2078TIP3    H227794   6.812   3.000   1.518 -0.9522 -0.0106  1.5514
 2079TIP3   OH227795   2.451   4.355   6.893  0.0535 -0.0398  0.2404
 2079TIP3    H127796   2.375   4.304   6.865 -0.4071  1.0185 -0.4983
 2079TIP3    H227797   2.514   4.347   6.822  0.3457 -0.3095  0.5249
 2080TIP3   OH227798   3.859   2.378   1.034 -0.1901  0.1469  0.0735
 2080TIP3    H127799   3.790   2.372   0.969 -1.9996  1.6131  1.7339
 2080TIP3    H227800   3.895   2.466   1.023 -0.0789  0.1760  0.6133
 2081TIP3   OH227801   6.678   3.266   7.218 -0.0677  0.0731  0.1468
 2081TIP3    H127802   6.605   3.319   7.185  0.3731 -0.6384 -2.0859
 2081TIP3    H227803   6.640   3.179   7.232  0.6250 -0.7682 -2.6471
 2082TIP3   OH227804   6.886   0.391   0.506  0.5168  0.1909  0.7487
 2082TIP3    H127805   6.886   0.316   0.566  1.8248 -0.2931  0.1832
 2082TIP3    H227806   6.950   0.451   0.544  1.0156  0.0850  0.0858
 2083TIP3   OH227807   6.000   3.887   2.132 -0.5346 -0.0964  0.0777
 2083TIP3    H127808   5.984   3.833   2.209  2.4399 -0.7098  0.3656
 2083TIP3    H227809   5.974   3.832   2.058 -0.1163 -0.8735  0.4996
 2084TIP3   OH227810   4.772   0.523   8.160  0.3538 -0.2237 -0.3475
 2084TIP3    H127811   4.858   0.482   8.165  0.1904 -0.5710 -0.3424
 2084TIP3    H227812   4.734   0.508   8.247  0.6031  0.6326 -0.0815
 2085TIP3   OH227813   1.244   3.963   2.084  0.1598  0.8324 -0.4503
 2085TIP3    H127814   1.262   3.876   2.119  0.2739  1.0395  0.0129
 2085TIP3    H227815   1.330   3.999   2.061  0.1736  1.0744 -0.0303
 2086TIP3   OH227816   4.350   3.871   7.288  0.5473 -0.0554 -0.5329
 2086TIP3    H127817   4.351   3.817   7.209  0.3069  1.2500 -1.4684
 2086TIP3    H227818   4.350   3.961   7.255  1.8216  0.5465  0.9711
 2087TIP3   OH227819   6.467   6.029   8.254 -0.0799  0.1399  0.2254
 2087TIP3    H127820   6.387   6.065   8.292  1.1091 -0.8498  4.0886
 2087TIP3    H227821   6.531   6.099   8.261  0.5989 -0.5831  1.8802
 2088TIP3   OH227822   3.579   2.130   1.201 -0.2186  0.4263  0.1923
 2088TIP3    H127823   3.502   2.178   1.173  0.2691  2.1113  1.6164
 2088TIP3    H227824   3.583   2.141   1.296  1.0560 -0.7100  0.3120
 2089TIP3   OH227825   6.045   5.443   6.231 -0.0628 -0.1843  0.3056
 2089TIP3    H127826   6.054   5.362   6.181  0.0112  0.9966 -1.6896
 2089TIP3    H227827   6.135   5.475   6.243 -0.0970 -0.3263  0.9953
 2090TIP3   OH227828   0.229   4.961   7.761  0.4329 -0.1881 -0.0370
 2090TIP3    H127829   0.284   5.016   7.704  0.9115 -2.1324 -1.5857
 2090TIP3    H227830   0.140   4.980   7.733  0.6178 -0.4885 -0.8902
 2091TIP3   OH227831   5.842   1.486   0.246 -0.5170 -0.9725  0.1233
 2091TIP3    H127832   5.804   1.533   0.172 -2.0730 -1.9415  0.2572
 2091TIP3    H227833   5.936   1.497   0.236 -0.7752  0.7370 -0.7698
 2092TIP3   OH227834   4.524   3.370   1.460  0.5928  0.7189  0.2743
 2092TIP3    H127835   4.494   3.454   1.426  0.4747  0.5472 -0.0444
 2092TIP3    H227836   4.555   3.322   1.383 -1.3669 -0.3911  0.1140
 2093TIP3   OH227837   0.932   4.966   1.239  0.0857 -0.2177  0.8333
 2093TIP3    H127838   0.972   5.047   1.209  2.1072 -0.5454  2.3786
 2093TIP3    H227839   0.887   4.930   1.163  0.6109  1.4780 -0.3139
 2094TIP3   OH227840   1.320   6.603   8.356  0.0163  0.1293  0.4031
 2094TIP3    H127841   1.393   6.621   8.296  0.0070  1.4780  0.7639
 2094TIP3    H227842   1.357   6.544   8.422  0.8047  0.8301  0.6021
 2095TIP3   OH227843   0.855   3.512   0.976 -0.4208 -0.1296 -0.4715
 2095TIP3    H127844   0.839   3.418   0.980  0.2238 -0.1920  2.1619
 2095TIP3    H227845   0.935   3.520   0.924  0.2659 -1.1690  0.3844
 2096TIP3   OH227846   0.215   0.954   1.300 -0.1014 -0.6105  0.3757
 2096TIP3    H127847   0.282   0.983   1.238  0.2601  0.3738  1.2001
 2096TIP3    H227848   0.132   0.973   1.257  0.0419 -3.1793 -1.3087
 2097TIP3   OH227849   1.198   3.438   7.927  0.1819 -0.8072  0.1030
 2097TIP3    H127850   1.194   3.512   7.866  0.2680 -2.3924 -1.9309
 2097TIP3    H227851   1.289   3.435   7.955 -0.2863  1.3485  2.3106
 2098TIP3   OH227852   6.627   5.541   6.373 -0.8845 -0.0109 -1.0753
 2098TIP3    H127853   6.717   5.570   6.364 -0.8973  1.1104  1.5245
 2098TIP3    H227854   6.578   5.621   6.393 -1.9838 -0.9300  0.0991
 2099TIP3   OH227855   4.539   6.245   8.061 -0.5035 -0.5972 -0.0975
 2099TIP3    H127856   4.532   6.303   7.985 -2.3321 -0.0545  0.4566
 2099TIP3    H227857   4.481   6.284   8.126  0.8068 -1.2216  1.4941
 2100TIP3   OH227858   3.786   6.723   6.772 -0.5000 -0.1623 -0.1540
 2100TIP3    H127859   3.866   6.713   6.823 -1.9458 -2.3054  1.9066
 2100TIP3    H227860   3.764   6.634   6.744 -1.0753  0.6503 -2.5344
 2101TIP3   OH227861   2.736   4.574   8.015 -0.7872  0.2869  0.0867
 2101TIP3    H127862   2.745   4.523   7.935 -1.4616  0.3884 -0.0650
 2101TIP3    H227863   2.746   4.511   8.085  0.6740  0.3386 -0.0458
 2102TIP3   OH227864   2.777   4.546   8.475  0.4065 -0.1752  0.6813
 2102TIP3    H127865   2.796   4.478   8.539 -1.5137 -1.8725 -0.4250
 2102TIP3    H227866   2.758   4.498   8.394  0.7272  1.7848 -0.6241
 2103TIP3   OH227867   2.129   6.454   2.296  0.1195 -0.3418  0.2862
 2103TIP3    H127868   2.209   6.434   2.344 -0.1929  1.5746  1.7219
 2103TIP3    H227869   2.093   6.530   2.341 -1.9617 -0.5145 -0.9892
 2104TIP3   OH227870   2.099   2.208   0.052 -0.7609  0.4181 -0.1052
 2104TIP3    H127871   2.165   2.275   0.067  0.6647 -0.6028 -1.4282
 2104TIP3    H227872   2.149   2.127   0.042 -2.2650 -0.5060 -0.4816
 2105TIP3   OH227873   6.773   1.930   0.236  0.7959  0.2349  1.0803
 2105TIP3    H127874   6.769   1.834   0.236 -1.1226  0.1922  4.3520
 2105TIP3    H227875   6.857   1.950   0.277 -0.4877 -0.2035  4.1266
 2106TIP3   OH227876   4.340   5.530   0.002 -0.1251 -0.1371  0.7553
 2106TIP3    H127877   4.420   5.571  -0.032  0.0100 -1.8192 -1.1416
 2106TIP3    H227878   4.361   5.509   0.093  1.3094  0.1566  0.5247
 2107TIP3   OH227879   5.562   1.944   6.228  0.4730 -0.2118 -0.3156
 2107TIP3    H127880   5.585   1.853   6.249  0.2842 -0.3551 -0.7287
 2107TIP3    H227881   5.564   1.989   6.313  1.7350 -0.3353 -0.2525
 2108TIP3   OH227882   5.304   2.593   6.013 -0.6793 -0.2268  0.0122
 2108TIP3    H127883   5.339   2.509   5.985  1.2768  1.0108 -1.6196
 2108TIP3    H227884   5.368   2.657   5.981 -1.5844  1.8244  2.0163
 2109TIP3   OH227885   2.059   3.399   6.451  0.7546  0.4449  0.6777
 2109TIP3    H127886   2.002   3.477   6.455  0.0961  0.0682 -0.8469
 2109TIP3    H227887   2.005   3.328   6.484  1.1629  0.5069  1.5095
 2110TIP3   OH227888   2.253   6.239   7.385  0.5373 -0.3153  0.2306
 2110TIP3    H127889   2.324   6.298   7.410 -0.9288  1.5341  0.2145
 2110TIP3    H227890   2.233   6.262   7.295  1.1125 -2.1231 -0.3977
 2111TIP3   OH227891   6.904   2.563   7.298  0.2925  0.7918  0.1338
 2111TIP3    H127892   6.995   2.532   7.297 -0.1230 -0.5964  1.2815
 2111TIP3    H227893   6.888   2.587   7.389 -0.6605  0.4380  0.0756
 2112TIP3   OH227894   2.732   1.058   7.948 -0.0409 -1.6180  0.5189
 2112TIP3    H127895   2.797   1.083   8.014  0.2312 -0.8041 -0.0320
 2112TIP3    H227896   2.647   1.072   7.990  0.1033  0.2420  0.2578
 2113TIP3   OH227897   2.258   2.032   0.414  0.0922  0.0896  0.2860
 2113TIP3    H127898   2.252   2.059   0.322  0.0685  0.5180  0.4119
 2113TIP3    H227899   2.171   1.997   0.434 -0.2743  1.0874  0.4811
 2114TIP3   OH227900   5.491   3.366   0.494 -0.1902  0.9343  0.5159
 2114TIP3    H127901   5.555   3.304   0.460 -0.6967  0.6636  0.0397
 2114TIP3    H227902   5.538   3.449   0.498  0.2351  0.7082  0.3047
 2115TIP3   OH227903   4.943   4.108   6.634  0.0920  0.3022 -0.4687
 2115TIP3    H127904   4.885   4.172   6.674  0.9183  0.9029 -0.2008
 2115TIP3    H227905   4.957   4.140   6.545 -0.4281 -0.1453 -0.7158
 2116TIP3   OH227906   6.351   4.401   8.109  0.3349 -0.5089  0.1315
 2116TIP3    H127907   6.355   4.488   8.148  0.0492 -0.1705 -0.5750
 2116TIP3    H227908   6.328   4.343   8.181 -0.4049  0.1341  0.4245
 2117TIP3   OH227909   5.124   1.978   7.068 -0.8603  0.4374  0.4769
 2117TIP3    H127910   5.153   1.905   7.012 -0.5904  0.0960  1.0545
 2117TIP3    H227911   5.167   2.055   7.031 -1.0283  0.2821 -0.0492
 2118TIP3   OH227912   5.552   1.818   0.080 -1.4017  0.1458  0.0896
 2118TIP3    H127913   5.472   1.817   0.027 -1.9332 -0.5537  0.8881
 2118TIP3    H227914   5.523   1.791   0.167 -0.4348  0.7240  0.5972
 2119TIP3   OH227915   4.554   5.251   8.538  0.1196 -0.7189 -0.0289
 2119TIP3    H127916   4.595   5.337   8.540 -1.0836 -0.0964 -0.6903
 2119TIP3    H227917   4.621   5.193   8.503  1.1741 -0.2087  1.0523
 2120TIP3   OH227918   0.039   3.639   8.515 -0.4024  0.5463 -0.2839
 2120TIP3    H127919   0.071   3.649   8.426  0.9918 -0.2672  0.0843
 2120TIP3    H227920  -0.021   3.564   8.511 -0.4124  0.5685 -0.5432
 2121TIP3   OH227921   2.765   0.818   7.464  0.1497 -0.1280  0.0198
 2121TIP3    H127922   2.762   0.877   7.539 -1.7535 -0.7501  0.4983
 2121TIP3    H227923   2.703   0.748   7.486  1.8363 -1.9899 -0.7937
 2122TIP3   OH227924   6.522   4.252   0.734 -0.4455  0.2113 -0.9233
 2122TIP3    H127925   6.506   4.158   0.746 -0.3513  0.2021 -0.8643
 2122TIP3    H227926   6.452   4.295   0.783  0.5947  0.1814  0.6553
 2123TIP3   OH227927   4.650   1.007   8.044  0.0206 -0.3290 -0.1733
 2123TIP3    H127928   4.700   1.087   8.027  0.0467  0.2380  2.3209
 2123TIP3    H227929   4.717   0.941   8.064 -0.1167 -0.1154  1.0375
 2124TIP3   OH227930   0.017   4.027   1.522 -0.0542 -0.0097 -0.2229
 2124TIP3    H127931   0.033   3.975   1.443  0.9181 -0.0816  0.0079
 2124TIP3    H227932  -0.011   4.112   1.489  2.4539  0.6853 -0.7491
 2125TIP3   OH227933   5.803   4.076   0.945  0.0019  0.3870  0.2922
 2125TIP3    H127934   5.869   4.017   0.981 -0.0715 -0.6759 -1.2327
 2125TIP3    H227935   5.728   4.066   1.003 -0.0018 -1.0432  0.0816
 2126TIP3   OH227936   2.316   0.752   2.146 -0.0191 -0.4873 -0.5093
 2126TIP3    H127937   2.256   0.821   2.118  1.9487  1.3402 -0.4765
 2126TIP3    H227938   2.402   0.794   2.147  1.0541 -2.5548  0.9963
 2127TIP3   OH227939   1.677   3.895   1.362 -0.1932 -0.1525 -0.0979
 2127TIP3    H127940   1.706   3.863   1.447 -0.6143  0.2493  0.1992
 2127TIP3    H227941   1.628   3.822   1.324  0.6719 -0.6169 -0.3419
 2128TIP3   OH227942   0.241   6.059   1.737  0.0246  0.8302 -0.0217
 2128TIP3    H127943   0.243   6.098   1.824 -0.2909  0.3021  0.2318
 2128TIP3    H227944   0.299   5.983   1.743 -1.0409  0.0036  0.1344
 2129TIP3   OH227945   6.578   3.676   2.274  0.0874  0.1409 -0.0042
 2129TIP3    H127946   6.500   3.646   2.320 -0.5542  1.6961 -0.0331
 2129TIP3    H227947   6.649   3.625   2.313 -0.7132 -0.0782  1.2426
 2130TIP3   OH227948   1.711   4.886   8.001  0.7848  0.1616 -0.0758
 2130TIP3    H127949   1.728   4.807   7.950 -1.3204 -1.4309  1.4764
 2130TIP3    H227950   1.760   4.874   8.082  0.8609  0.6941 -0.0364
 2131TIP3   OH227951   2.712   3.742   1.558  0.3654  0.3281 -0.6343
 2131TIP3    H127952   2.667   3.774   1.637 -0.4853  0.6394 -1.2301
 2131TIP3    H227953   2.803   3.768   1.571  0.2203  0.4542  0.2088
 2132TIP3   OH227954   3.961   4.521   1.224  0.4386  0.6601 -0.2352
 2132TIP3    H127955   3.980   4.529   1.131 -0.8461 -0.2415 -0.6127
 2132TIP3    H227956   4.042   4.488   1.262  0.4941 -0.5522 -1.3253
 2133TIP3   OH227957   1.936   0.926   7.814 -0.5133  0.3455 -0.2261
 2133TIP3    H127958   1.894   0.843   7.793 -0.2353  0.1235  0.0932
 2133TIP3    H227959   2.002   0.938   7.746 -0.1068 -0.0198  0.0974
 2134TIP3   OH227960   3.778   3.752   0.829 -0.2972  0.3369 -0.4216
 2134TIP3    H127961   3.735   3.699   0.763  0.0195 -0.0369 -0.3321
 2134TIP3    H227962   3.814   3.689   0.891 -1.0657  0.6968  0.4168
 2135TIP3   OH227963   6.292   4.261   0.187 -0.1455 -0.4668  0.2305
 2135TIP3    H127964   6.338   4.177   0.190  0.8701  0.0340 -0.7260
 2135TIP3    H227965   6.293   4.292   0.277 -0.3326 -1.3752  0.5539
 2136TIP3   OH227966   2.883   4.789   8.321  0.0053  0.2543  0.0506
 2136TIP3    H127967   2.887   4.698   8.292  0.4896  0.0799  0.6643
 2136TIP3    H227968   2.845   4.836   8.246  0.9912 -0.2293 -0.7755
 2137TIP3   OH227969   1.076   2.947   6.545  0.4433 -0.0183 -0.1279
 2137TIP3    H127970   1.058   2.879   6.481 -3.3840  1.0308 -0.4489
 2137TIP3    H227971   1.103   3.023   6.494  0.4193 -0.0610 -0.2026
 2138TIP3   OH227972   6.886   1.176   8.125  0.1171  0.1594 -0.2876
 2138TIP3    H127973   6.954   1.234   8.157 -0.0552 -0.9343  2.2910
 2138TIP3    H227974   6.810   1.232   8.112 -0.0304  0.6213  2.0898
 2139TIP3   OH227975   5.575   6.074   7.879 -0.2678 -0.3104 -0.3077
 2139TIP3    H127976   5.510   6.010   7.850 -0.3867  0.3015 -1.4350
 2139TIP3    H227977   5.602   6.119   7.799  2.4908 -1.3943 -0.0792
 2140TIP3   OH227978   5.173   0.001   0.286  0.4575 -0.5627  0.0074
 2140TIP3    H127979   5.182   0.071   0.350  1.5225  0.0573 -0.7814
 2140TIP3    H227980   5.095  -0.046   0.313 -0.5331  1.1663  0.3547
 2141TIP3   OH227981   3.932   4.252   0.734  0.5350  0.0229 -0.0334
 2141TIP3    H127982   3.940   4.274   0.826 -0.5526 -0.0736  0.0893
 2141TIP3    H227983   3.911   4.158   0.733  1.9547 -0.3300 -0.4458
 2142TIP3   OH227984   4.736   3.476   0.451 -0.0378 -0.0696 -0.2776
 2142TIP3    H127985   4.802   3.407   0.449  0.4540  0.3816 -2.5094
 2142TIP3    H227986   4.652   3.430   0.447  0.1753 -0.5802  0.7365
 2143TIP3   OH227987   6.364   5.960   7.560 -0.0328  0.1764 -0.0365
 2143TIP3    H127988   6.438   5.920   7.605 -1.3891 -1.8190  0.5807
 2143TIP3    H227989   6.288   5.909   7.589 -1.8450  2.8452  0.2712
 2144TIP3   OH227990   6.182   6.062   7.811  0.1872 -0.7157 -0.2170
 2144TIP3    H127991   6.122   6.032   7.879 -0.3832 -2.0378 -1.2556
 2144TIP3    H227992   6.194   5.986   7.754  1.9092 -0.1263 -0.7178
 2145TIP3   OH227993   2.535   2.522   7.559 -0.0230  0.1069  1.0100
 2145TIP3    H127994   2.481   2.597   7.583 -0.7960 -0.3284  0.6465
 2145TIP3    H227995   2.587   2.553   7.485 -0.8544  0.0706  0.3984
 2146TIP3   OH227996   2.779   0.339   0.931  0.1499  0.2223  0.2151
 2146TIP3    H127997   2.717   0.406   0.900  0.1519  1.7869  3.2381
 2146TIP3    H227998   2.771   0.341   1.026  3.0691 -1.3100  0.6090
 2147TIP3   OH227999   6.356   1.072   7.775 -0.2081 -0.2119 -0.0547
 2147TIP3    H128000   6.379   0.980   7.785  1.8709  0.1515 -0.9675
 2147TIP3    H228001   6.408   1.117   7.843  0.7077  0.5117 -1.2014
 2148TIP3   OH228002   5.241   1.186   5.895  0.1118  0.1036  0.2519
 2148TIP3    H128003   5.261   1.255   5.958 -0.1188 -0.8584  1.4182
 2148TIP3    H228004   5.146   1.183   5.893  0.1240 -0.2439  0.2614
 2149TIP3   OH228005   5.985   3.576   2.222  0.4603 -0.1828 -0.5223
 2149TIP3    H128006   5.961   3.634   2.294  0.3443 -0.3792 -0.4018
 2149TIP3    H228007   6.036   3.506   2.262  2.2269  0.8162 -0.9384
 2150TIP3   OH228008   3.438   5.059   1.575  0.6505 -0.5283 -0.7361
 2150TIP3    H128009   3.390   5.044   1.493  0.9705 -0.7959 -0.8757
 2150TIP3    H228010   3.509   5.118   1.550 -0.7092  1.4481 -0.1573
 2151TIP3   OH228011   4.399   0.434   2.093 -0.3151  0.1385  0.3338
 2151TIP3    H128012   4.455   0.506   2.122  0.0259 -0.5434  1.4546
 2151TIP3    H228013   4.369   0.393   2.175 -1.8062 -0.0057 -0.2581
 2152TIP3   OH228014   3.338   2.090   7.410  0.6020  0.4831  0.0078
 2152TIP3    H128015   3.300   2.017   7.458  1.0455 -0.1813 -0.6350
 2152TIP3    H228016   3.265   2.150   7.395  0.3339  0.4035  0.9525
 2153TIP3   OH228017   0.724   0.874   0.635  0.0898 -0.0892  0.0687
 2153TIP3    H128018   0.685   0.939   0.693  0.6608  0.8449 -0.5627
 2153TIP3    H228019   0.805   0.849   0.678  1.0799  1.4473 -0.8303
 2154TIP3   OH228020   0.817   6.575   7.467 -0.4658 -0.5311 -0.0516
 2154TIP3    H128021   0.820   6.489   7.424  0.1471 -0.1719 -0.7661
 2154TIP3    H228022   0.867   6.632   7.408  1.0811 -0.1871  1.5101
 2155TIP3   OH228023   6.746   3.257   7.909  0.0629  0.2094 -0.4268
 2155TIP3    H128024   6.662   3.215   7.890  0.2379 -0.7961  0.8353
 2155TIP3    H228025   6.725   3.324   7.974  0.1052  0.6444 -0.8544
 2156TIP3   OH228026   6.347   3.899   1.260  0.1075 -0.2512  0.1060
 2156TIP3    H128027   6.273   3.953   1.287  0.7182  0.8244 -0.3054
 2156TIP3    H228028   6.403   3.896   1.338  0.2963  0.1004 -0.0162
 2157TIP3   OH228029   1.764   0.767   1.693  0.3076  0.4118 -0.2587
 2157TIP3    H128030   1.716   0.734   1.617  0.0126  0.6099 -0.1578
 2157TIP3    H228031   1.856   0.766   1.665  0.4689 -1.6023  0.1368
 2158TIP3   OH228032   0.725   0.550   7.712 -0.4666  0.3263  0.7430
 2158TIP3    H128033   0.802   0.606   7.717 -0.4463  0.1795  2.8221
 2158TIP3    H228034   0.755   0.465   7.745  0.1914 -1.8894 -4.5582
 2159TIP3   OH228035   4.883   3.364   8.121 -0.4944  0.0709 -0.3106
 2159TIP3    H128036   4.870   3.304   8.195  0.4379  0.0423 -0.1649
 2159TIP3    H228037   4.800   3.412   8.115 -0.7264 -0.2037  0.5048
 2160TIP3   OH228038   2.440   6.534   8.042  0.1450  0.4553  0.4501
 2160TIP3    H128039   2.469   6.513   7.954  1.7507  0.0115  1.0574
 2160TIP3    H228040   2.395   6.455   8.072  0.9735  0.0331  0.5892
 2161TIP3   OH228041   6.696   5.825   1.338 -0.2426 -0.1832  0.4143
 2161TIP3    H128042   6.710   5.913   1.302  1.1175  0.0935  1.5286
 2161TIP3    H228043   6.605   5.827   1.370 -1.4290 -0.3672 -2.6399
 2162TIP3   OH228044   1.954   5.511   7.529  0.4546 -0.3454 -0.3540
 2162TIP3    H128045   1.879   5.569   7.540  0.0488 -0.8796 -0.2510
 2162TIP3    H228046   1.973   5.513   7.435  1.7933  1.5896 -0.1160
 2163TIP3   OH228047   6.373   4.906   1.799  0.1669  0.0760  0.0711
 2163TIP3    H128048   6.349   4.973   1.735 -1.9127 -0.0106  0.6673
 2163TIP3    H228049   6.465   4.886   1.781  0.7162  2.7319 -0.4285
 2164TIP3   OH228050   3.328   4.498   0.227  0.5558 -0.2549  0.2676
 2164TIP3    H128051   3.364   4.457   0.148  0.3014 -1.3883  0.7109
 2164TIP3    H228052   3.238   4.466   0.231  0.5576 -0.1905  1.0024
 2165TIP3   OH228053   5.025   6.473   8.145 -0.0560  0.3440 -0.0846
 2165TIP3    H128054   4.984   6.523   8.216 -0.8629 -1.6911  0.9614
 2165TIP3    H228055   5.056   6.540   8.084  0.8057  2.2198  2.2281
 2166TIP3   OH228056   4.575   4.503   7.002 -0.0301 -0.0201  0.7844
 2166TIP3    H128057   4.587   4.464   7.089 -0.1417 -1.6854  0.0771
 2166TIP3    H228058   4.519   4.579   7.018  0.1052 -0.1880  2.1925
 2167TIP3   OH228059   0.110   3.580   1.234  0.3929  0.6806 -0.0153
 2167TIP3    H128060   0.169   3.626   1.294  0.1077  1.2827 -0.1900
 2167TIP3    H228061   0.127   3.487   1.250 -1.9772  0.6415  3.3564
 2168TIP3   OH228062   6.288   3.759   0.875 -0.1337 -0.1258  0.5709
 2168TIP3    H128063   6.206   3.720   0.847 -0.2688  0.5068  0.0526
 2168TIP3    H228064   6.321   3.700   0.942  0.0837 -1.5603 -0.7510
 2169TIP3   OH228065   1.978   1.233   1.944 -0.4555 -0.1835  0.1205
 2169TIP3    H128066   2.006   1.156   1.895  0.5205 -2.2721  3.6120
 2169TIP3    H228067   1.882   1.226   1.947 -0.3686 -1.4486  0.5872
 2170TIP3   OH228068   0.449   1.067   7.742 -0.0052 -0.3121  0.0149
 2170TIP3    H128069   0.398   1.141   7.777 -0.9983 -1.7836  1.8599
 2170TIP3    H228070   0.537   1.081   7.776  0.4138  1.1466 -1.4984
 2171TIP3   OH228071   1.590   3.005   0.635  0.2491 -0.2085 -0.2843
 2171TIP3    H128072   1.536   3.054   0.574  0.3185 -0.1332 -0.2857
 2171TIP3    H228073   1.674   3.052   0.635  0.2139 -0.1444 -0.0510
 2172TIP3   OH228074   5.279   2.810   6.566 -0.1860  0.1638 -0.1211
 2172TIP3    H128075   5.354   2.810   6.507  0.3097  0.1958  0.5008
 2172TIP3    H228076   5.309   2.761   6.642 -0.8310  0.0957  0.0916
 2173TIP3   OH228077   3.650   6.210   1.601  0.5974 -0.1146  0.1728
 2173TIP3    H128078   3.702   6.172   1.531 -0.7332 -2.5648  0.3870
 2173TIP3    H228079   3.706   6.206   1.678  1.7974  1.9015 -0.5334
 2174TIP3   OH228080   1.987   4.873   0.631  0.1507 -0.5200 -0.1278
 2174TIP3    H128081   1.896   4.898   0.618  0.5998  1.4017  0.1020
 2174TIP3    H228082   2.021   4.859   0.542 -0.0722 -0.0416 -0.2939
 2175TIP3   OH228083   2.736   6.184   0.306 -0.0696  0.4779  0.4940
 2175TIP3    H128084   2.731   6.255   0.242  2.0031 -0.3923 -0.7256
 2175TIP3    H228085   2.718   6.227   0.390 -0.2531  2.1583 -0.3563
 2176TIP3   OH228086   2.536   3.636   6.541  0.0794 -0.1469 -0.4872
 2176TIP3    H128087   2.523   3.682   6.458 -0.4434  0.1012 -0.2692
 2176TIP3    H228088   2.448   3.623   6.575  0.2008 -1.3747 -0.5796
 2177TIP3   OH228089   1.849   6.310   7.051  0.4737  0.4027 -0.4561
 2177TIP3    H128090   1.876   6.328   6.961 -1.2255  0.6847 -0.9410
 2177TIP3    H228091   1.881   6.385   7.102 -0.4226  1.3122 -1.2130
 2178TIP3   OH228092   4.067   3.380   6.075 -0.0780  0.0471  0.2181
 2178TIP3    H128093   4.043   3.366   5.983  0.8424 -0.4045  0.0304
 2178TIP3    H228094   4.078   3.475   6.082 -1.5385  0.2294  0.2336
 2179TIP3   OH228095   3.168   0.841   8.474 -0.2046 -0.5266  0.4332
 2179TIP3    H128096   3.092   0.863   8.421  1.2324 -0.2890 -1.6617
 2179TIP3    H228097   3.216   0.924   8.484  0.1682 -0.8087  1.0696
 2180TIP3   OH228098   2.157   6.845   1.665  0.4448  0.0466 -0.6076
 2180TIP3    H128099   2.137   6.886   1.581  1.2782 -0.4690 -1.0826
 2180TIP3    H228100   2.142   6.751   1.650  1.1715 -0.1135 -0.3664
 2181TIP3   OH228101   1.522   5.319   0.603  0.1269 -0.1545  0.2057
 2181TIP3    H128102   1.590   5.266   0.562 -0.7533 -0.5639 -0.7680
 2181TIP3    H228103   1.551   5.409   0.591  1.2612 -0.3599  1.1954
 2182TIP3   OH228104   3.152   6.754   7.392 -0.3690  0.5970 -0.2933
 2182TIP3    H128105   3.159   6.755   7.488 -0.9537  0.2491 -0.2443
 2182TIP3    H228106   3.151   6.847   7.368 -1.0058  0.6937  0.0972
 2183TIP3   OH228107   3.077   4.657   7.946 -0.5179 -0.3937  0.7115
 2183TIP3    H128108   3.140   4.626   7.881 -0.2932 -2.2533  1.7297
 2183TIP3    H228109   3.104   4.747   7.965  0.9123 -0.6461  0.0126
 2184TIP3   OH228110   2.502   4.529   6.624 -0.8307  0.1438  0.1710
 2184TIP3    H128111   2.563   4.500   6.692 -1.0168 -0.7431 -0.0318
 2184TIP3    H228112   2.426   4.473   6.635  0.0120 -1.6110 -2.2093
 2185TIP3   OH228113   6.545   3.967   0.761 -0.8172 -0.0527  0.6286
 2185TIP3    H128114   6.534   3.874   0.780 -0.0943 -0.2335  0.2159
 2185TIP3    H228115   6.603   3.969   0.684 -0.9103  0.7320  0.5687
 2186TIP3   OH228116   3.299   5.187   1.008 -0.6926  0.3150 -0.3769
 2186TIP3    H128117   3.273   5.171   1.098 -0.6561  0.7374 -0.2891
 2186TIP3    H228118   3.258   5.270   0.985 -0.2440  0.4932 -0.5599
 2187TIP3   OH228119   5.555   1.033   6.804  0.0786  0.3147 -0.3656
 2187TIP3    H128120   5.642   1.060   6.832 -0.0865 -0.0378  0.5387
 2187TIP3    H228121   5.530   1.095   6.736  0.0920  1.8560  0.9846
 2188TIP3   OH228122   6.249   1.745   7.560 -0.7343  0.1087 -0.0706
 2188TIP3    H128123   6.211   1.830   7.581  1.0490  0.7893  0.6146
 2188TIP3    H228124   6.327   1.740   7.615  0.9784 -0.5620 -2.4161
 2189TIP3   OH228125   3.024   6.383   0.702  0.2143  0.0489  0.1940
 2189TIP3    H128126   3.022   6.457   0.762  2.0112  0.1980  0.1158
 2189TIP3    H228127   3.047   6.308   0.757 -1.0685 -0.3843  0.1787
 2190TIP3   OH228128   4.265   6.245   8.451  0.0336  0.0262 -1.0325
 2190TIP3    H128129   4.219   6.162   8.461 -0.7549  0.4366 -1.1576
 2190TIP3    H228130   4.243   6.295   8.530 -0.8196  0.7251 -1.6888
 2191TIP3   OH228131   2.758   2.260   6.968  0.0016 -0.0142 -0.1916
 2191TIP3    H128132   2.813   2.269   6.891  0.1528  0.3386 -0.0465
 2191TIP3    H228133   2.668   2.269   6.935 -0.0676 -1.8575 -0.6204
 2192TIP3   OH228134   2.888   2.523   0.901 -0.8565  0.1056 -0.2640
 2192TIP3    H128135   2.825   2.536   0.972 -1.7654  2.5552 -1.4125
 2192TIP3    H228136   2.972   2.511   0.946 -1.7254 -0.6928  1.2447
 2193TIP3   OH228137   2.037   2.765   1.025 -0.0533 -0.2516 -0.5782
 2193TIP3    H128138   2.065   2.853   1.049 -1.3166 -0.1472  0.6523
 2193TIP3    H228139   2.055   2.712   1.102 -0.5251 -0.7759 -0.8163
 2194TIP3   OH228140   2.952   0.261   8.363  0.0206 -0.3962 -0.6627
 2194TIP3    H128141   2.945   0.304   8.277  2.0022  1.1458 -0.1364
 2194TIP3    H228142   2.935   0.168   8.345 -2.0234  0.2094 -2.2633
 2195TIP3   OH228143   2.437   0.783   8.142  0.1722  0.5691  0.2918
 2195TIP3    H128144   2.377   0.733   8.198 -0.7595  1.7947  0.4275
 2195TIP3    H228145   2.410   0.874   8.154 -0.0814  0.8711 -2.2145
 2196TIP3   OH228146   3.693   3.680   6.899 -0.2662  0.0222 -0.0974
 2196TIP3    H128147   3.683   3.765   6.942 -0.2542  0.4423 -0.9106
 2196TIP3    H228148   3.616   3.672   6.843 -1.0934 -1.2313  1.1646
 2197TIP3   OH228149   6.862   3.304   0.833 -0.1131 -0.7612  0.2193
 2197TIP3    H128150   6.930   3.323   0.769 -0.0936 -1.4975  0.0209
 2197TIP3    H228151   6.870   3.375   0.897 -0.3595  0.1710 -0.7627
 2198TIP3   OH228152   5.636   5.865   1.399 -0.1979 -0.0190  0.1838
 2198TIP3    H128153   5.569   5.852   1.466 -0.0720 -0.7404  0.1743
 2198TIP3    H228154   5.674   5.950   1.419 -0.4298 -0.0565  0.7905
 2199TIP3   OH228155   0.702   4.850   6.914 -0.3011  0.3367  0.2309
 2199TIP3    H128156   0.621   4.860   6.865 -0.6367 -1.5561  0.3425
 2199TIP3    H228157   0.768   4.830   6.847  0.0983  1.8119  0.1464
 2200TIP3   OH228158   6.872   1.440   0.306 -0.4569 -0.1353 -0.0279
 2200TIP3    H128159   6.859   1.406   0.395  0.4387  0.4994  0.3570
 2200TIP3    H228160   6.945   1.389   0.271 -1.2830 -0.8921 -0.6863
 2201TIP3   OH228161   2.835   5.197   1.728  0.3482 -0.5729  0.0795
 2201TIP3    H128162   2.835   5.260   1.656  0.1985  0.7086  1.1699
 2201TIP3    H228163   2.744   5.189   1.754  0.3778 -1.1771  0.0086
 2202TIP3   OH228164   5.988   6.657   8.169  0.0595  0.0324  0.0306
 2202TIP3    H128165   6.057   6.668   8.103  0.6071 -0.3532  0.5285
 2202TIP3    H228166   5.939   6.580   8.140 -1.2336  1.2554 -1.2343
 2203TIP3   OH228167   0.156   4.665   1.821 -0.1367 -0.0802 -0.0593
 2203TIP3    H128168   0.219   4.683   1.751  1.0793  1.2098  1.2873
 2203TIP3    H228169   0.073   4.701   1.790  0.7850  2.1236 -0.1459
 2204TIP3   OH228170   0.859   2.495   1.043  0.1724 -0.2926 -0.3660
 2204TIP3    H128171   0.928   2.478   0.978 -0.7323 -0.4805 -1.3066
 2204TIP3    H228172   0.866   2.421   1.104  0.1445 -0.8738 -1.0458
 2205TIP3   OH228173   3.755   3.220   2.195  0.1735 -0.4157  0.1129
 2205TIP3    H128174   3.690   3.233   2.127  1.3775 -0.5695 -1.1117
 2205TIP3    H228175   3.836   3.197   2.148  1.4771  1.0994  1.4731
 2206TIP3   OH228176   6.048   5.602   7.384  0.1041  0.2177 -0.0761
 2206TIP3    H128177   6.034   5.633   7.295  0.4582 -3.0450 -1.4155
 2206TIP3    H228178   5.969   5.628   7.431 -1.3886 -0.3347 -2.1270
 2207TIP3   OH228179   2.599   5.316   0.028 -0.1400 -0.5311  0.1195
 2207TIP3    H128180   2.617   5.295   0.120 -1.4094 -0.6135  0.3675
 2207TIP3    H228181   2.568   5.234  -0.009 -1.1744 -0.1082  0.0370
 2208TIP3   OH228182   3.229   6.762   0.271 -0.5714  0.0535 -0.6633
 2208TIP3    H128183   3.211   6.856   0.276 -1.5554 -0.2084  2.1037
 2208TIP3    H228184   3.195   6.736   0.185 -1.2696  2.0015 -1.0361
 2209TIP3   OH228185   6.707   3.509   8.500 -0.2794 -0.0680 -0.4423
 2209TIP3    H128186   6.670   3.569   8.565  0.9121  0.3588 -0.1445
 2209TIP3    H228187   6.634   3.452   8.477 -0.6772 -0.4253  1.4858
 2210TIP3   OH228188   1.889   1.317   0.951  0.5301  0.9030 -0.7451
 2210TIP3    H128189   1.982   1.338   0.958  1.0192 -1.3793  0.6823
 2210TIP3    H228190   1.855   1.325   1.040 -0.4529  0.8891 -1.1049
 2211TIP3   OH228191   6.329   0.970   0.235  0.1371  0.3012 -0.2705
 2211TIP3    H128192   6.412   0.992   0.193 -0.2069 -1.3206 -1.9026
 2211TIP3    H228193   6.354   0.942   0.323  1.1790  0.9843 -0.3236
 2212TIP3   OH228194   6.174   2.973   0.591 -0.1246 -0.3319  0.5981
 2212TIP3    H128195   6.249   2.990   0.647 -0.0789 -1.6834  0.9877
 2212TIP3    H228196   6.106   3.032   0.623  0.8180  1.1220  0.0612
 2213TIP3   OH228197   5.860   2.108   8.329  0.0054  0.2962  0.1153
 2213TIP3    H128198   5.922   2.051   8.376  1.7061  0.3765 -1.8780
 2213TIP3    H228199   5.800   2.048   8.286  0.0189  0.1222  0.3377
 2214TIP3   OH228200   3.936   2.148   0.610  0.1540 -0.1918 -0.0751
 2214TIP3    H128201   4.025   2.134   0.641 -0.0793 -0.3784  0.5311
 2214TIP3    H228202   3.934   2.240   0.584  0.3000  0.0458  0.7144
 2215TIP3   OH228203   6.556   0.799   8.040  0.4223 -0.1491  0.0828
 2215TIP3    H128204   6.500   0.773   7.967 -1.5859 -0.9884  1.8286
 2215TIP3    H228205   6.621   0.857   8.000  0.0482 -1.3749 -2.5231
 2216TIP3   OH228206   4.298   2.014   0.080  0.6139 -0.0450 -0.2696
 2216TIP3    H128207   4.240   2.075   0.124  1.1255 -0.1720  0.5970
 2216TIP3    H228208   4.257   1.998  -0.005  0.1674  1.0295 -0.2618
 2217TIP3   OH228209   0.646   5.893   2.413  0.0373  0.7415 -0.0803
 2217TIP3    H128210   0.686   5.948   2.346  0.0567 -0.6010 -1.2442
 2217TIP3    H228211   0.559   5.931   2.426 -0.3927  0.4373 -1.7174
 2218TIP3   OH228212   5.156   2.970   8.020 -0.1949  0.1592 -0.3491
 2218TIP3    H128213   5.078   2.965   7.964 -1.1673 -0.6499  1.0085
 2218TIP3    H228214   5.191   2.881   8.021 -0.5825  0.0018  0.8312
 2219TIP3   OH228215   6.239   1.265   8.464  0.1645  0.4442 -0.2561
 2219TIP3    H128216   6.165   1.205   8.457  0.4358 -0.1217  1.2328
 2219TIP3    H228217   6.294   1.227   8.533  1.5023  1.2087 -0.8592
 2220TIP3   OH228218   5.155   4.255   0.456 -0.2432  1.0148  0.0766
 2220TIP3    H128219   5.143   4.228   0.547  1.9700  0.5221  0.2811
 2220TIP3    H228220   5.085   4.318   0.441 -1.6640 -0.1093  1.5885
 2221TIP3   OH228221   5.984   4.752   1.082  0.0680  0.0685  0.1155
 2221TIP3    H128222   5.969   4.770   1.174 -1.4466  1.6335 -0.3769
 2221TIP3    H228223   5.952   4.830   1.036  0.9284 -0.5887 -1.7237
 2222TIP3   OH228224   5.361   6.287   7.898  0.4116  0.0079 -0.2599
 2222TIP3    H128225   5.445   6.245   7.918 -0.0690 -1.0425 -0.3653
 2222TIP3    H228226   5.379   6.344   7.824  1.4646  1.3260  0.9383
 2223TIP3   OH228227   5.589   4.171   8.160  0.2588  0.0877 -0.5844
 2223TIP3    H128228   5.588   4.211   8.073  1.3227  0.9617 -0.2118
 2223TIP3    H228229   5.658   4.105   8.155  1.3154  1.1069 -0.0145
 2224TIP3   OH228230   5.387   4.377   6.886 -0.2121  0.2050  0.7124
 2224TIP3    H128231   5.384   4.287   6.856 -1.1695  0.1769  0.8767
 2224TIP3    H228232   5.456   4.417   6.833  0.7763 -0.8085  1.2024
 2225TIP3   OH228233   0.390   6.302   0.561 -0.1297  0.2516  0.2625
 2225TIP3    H128234   0.448   6.361   0.514 -0.5988 -0.3873 -1.1664
 2225TIP3    H228235   0.441   6.273   0.637  1.9355 -1.2241 -1.5370
 2226TIP3   OH228236   2.753   1.638   0.358 -0.1153 -0.7399 -0.4426
 2226TIP3    H128237   2.690   1.673   0.422 -0.1336 -0.7320 -0.4648
 2226TIP3    H228238   2.698   1.611   0.285  0.1125  1.5629 -1.5480
 2227TIP3   OH228239   0.703   2.719   6.900  0.1047  0.4763  0.1394
 2227TIP3    H128240   0.653   2.706   6.820 -1.2252  0.8709  0.8778
 2227TIP3    H228241   0.700   2.634   6.944 -0.9026  0.7957  0.7132
 2228TIP3   OH228242   4.933   3.145   0.699 -0.2989 -0.3888 -0.2313
 2228TIP3    H128243   4.912   3.052   0.693  0.9411 -0.9404  2.2040
 2228TIP3    H228244   5.014   3.155   0.648  0.1428 -0.9187  0.3397
 2229TIP3   OH228245   0.649   3.712   0.371 -0.7025  0.3525 -0.2758
 2229TIP3    H128246   0.650   3.722   0.276  1.0787 -2.0310 -0.5869
 2229TIP3    H228247   0.741   3.712   0.396 -1.0533 -0.9974  1.1769
 2230TIP3   OH228248   1.602   3.393   7.369  0.8330  0.0928 -0.1625
 2230TIP3    H128249   1.690   3.410   7.336  0.3123  2.3873 -0.5561
 2230TIP3    H228250   1.552   3.472   7.345 -0.9085 -0.4563  1.4458
 2231TIP3   OH228251   1.074   5.554   0.491  0.6506  0.0474 -0.2064
 2231TIP3    H128252   1.023   5.625   0.452  0.5455 -1.4202 -2.9524
 2231TIP3    H228253   1.165   5.577   0.471  0.9918  1.3625  2.4560
 2232TIP3   OH228254   3.604   4.810   1.051 -0.4826 -0.3323  0.1290
 2232TIP3    H128255   3.551   4.838   0.976 -1.2992  1.5930  1.3561
 2232TIP3    H228256   3.548   4.748   1.097  0.1893 -1.8665 -1.0129
 2233TIP3   OH228257   5.028   4.577   1.235  0.0886 -0.0195  0.5185
 2233TIP3    H128258   5.102   4.524   1.206  0.1308  0.3802 -0.1474
 2233TIP3    H228259   4.953   4.519   1.227  0.3976 -0.6332  1.8155
 2234TIP3   OH228260   1.593   6.630   0.911  0.2190  0.4032 -0.2256
 2234TIP3    H128261   1.535   6.699   0.943 -0.8163 -0.3174 -0.5191
 2234TIP3    H228262   1.659   6.676   0.860 -1.3949  1.0828 -1.8129
 2235TIP3   OH228263   4.293   6.137   1.475  0.6152  0.0936  0.3423
 2235TIP3    H128264   4.316   6.228   1.452 -0.8854  0.5911  0.7128
 2235TIP3    H228265   4.235   6.109   1.405  0.1630 -0.1837  0.8273
 2236TIP3   OH228266   1.972   0.352   0.627 -0.1372 -1.0394  0.0509
 2236TIP3    H128267   2.064   0.339   0.649  0.0537  1.0834  0.6829
 2236TIP3    H228268   1.954   0.442   0.652 -1.9104 -0.8301 -1.7757
 2237TIP3   OH228269   3.482   0.613   8.550  0.0992 -0.1345  0.1980
 2237TIP3    H128270   3.403   0.583   8.504  0.4573  0.3726 -0.7856
 2237TIP3    H228271   3.452   0.687   8.603 -0.1050  0.0114 -0.1168
 2238TIP3   OH228272   6.206   0.944   8.326  0.1517 -0.3010 -0.2115
 2238TIP3    H128273   6.293   0.935   8.366 -0.2750  0.0225  0.8086
 2238TIP3    H228274   6.223   0.937   8.232  1.0670 -2.0644  0.0270
 2239TIP3   OH228275   4.000   6.527   1.335 -0.1496  0.3103  0.0347
 2239TIP3    H128276   4.067   6.583   1.375  1.2626 -0.9806 -0.3993
 2239TIP3    H228277   3.969   6.577   1.260  2.5109 -0.1610 -1.5259
 2240TIP3   OH228278   5.840   3.452   0.437  0.1324 -0.0530 -0.1529
 2240TIP3    H128279   5.875   3.414   0.357  1.5254 -0.5459  0.6514
 2240TIP3    H228280   5.887   3.407   0.508 -0.7686  0.6495  0.9363
 2241TIP3   OH228281   3.147   5.871   7.188 -0.2249 -0.4545  0.2484
 2241TIP3    H128282   3.123   5.952   7.143 -0.3831  1.0170  2.7846
 2241TIP3    H228283   3.083   5.806   7.158 -2.5187  1.3514  0.9851
 2242TIP3   OH228284   4.959   4.703   7.414  0.1295 -0.0375 -0.2044
 2242TIP3    H128285   5.022   4.654   7.360  0.1853 -0.8481  0.5571
 2242TIP3    H228286   4.885   4.721   7.356  0.4649 -0.3168 -0.7238
 2243TIP3   OH228287   5.767   3.980   0.684  0.7980  0.0868  0.1550
 2243TIP3    H128288   5.790   4.020   0.768  1.9180  0.4742 -0.3170
 2243TIP3    H228289   5.845   3.930   0.659 -0.2218 -1.6685  0.2699
 2244TIP3   OH228290   4.502   5.125   6.393  0.4441  0.1007  0.5660
 2244TIP3    H128291   4.446   5.187   6.440  0.6311  1.0055 -0.3719
 2244TIP3    H228292   4.579   5.176   6.369  0.2053 -0.2130 -1.0112
 2245TIP3   OH228293   0.442   5.954   1.085  0.0071 -0.3482  0.7899
 2245TIP3    H128294   0.432   5.920   0.996 -1.3395 -0.9660  1.1430
 2245TIP3    H228295   0.536   5.947   1.103  0.3443  0.0511 -0.6715
 2246TIP3   OH228296   2.547   4.754   7.924  0.3117 -0.1363 -0.1389
 2246TIP3    H128297   2.617   4.709   7.971  0.0580 -0.0091  0.3753
 2246TIP3    H228298   2.467   4.717   7.960  0.0999  0.6992  0.2773
 2247TIP3   OH228299   6.633   4.864   1.707 -0.0096  0.0128 -0.3257
 2247TIP3    H128300   6.718   4.894   1.675 -0.4076 -1.0135 -2.5290
 2247TIP3    H228301   6.581   4.850   1.628 -0.8706 -3.3054  0.6613
 2248TIP3   OH228302   3.658   4.595   6.978 -0.1018 -0.7749  0.3144
 2248TIP3    H128303   3.694   4.523   7.031 -0.4320 -1.4228 -0.3157
 2248TIP3    H228304   3.661   4.562   6.888 -0.2500  0.0152  0.0101
 2249TIP3   OH228305   5.057   2.448   6.793 -0.3539 -0.4288 -0.5063
 2249TIP3    H128306   5.044   2.374   6.733 -2.5625 -0.7506  0.2615
 2249TIP3    H228307   5.038   2.411   6.879  0.4473  0.5870  0.1167
 2250TIP3   OH228308   3.302   2.761   5.948  0.1411  0.1389 -0.3663
 2250TIP3    H128309   3.219   2.714   5.950  0.5712 -0.6121  1.5550
 2250TIP3    H228310   3.284   2.844   5.993  0.5381 -0.2602  0.5537
 2251TIP3   OH228311   3.422   5.831   1.005  0.1568 -0.0177  0.1812
 2251TIP3    H128312   3.410   5.879   1.087  0.1108  0.1143  0.0970
 2251TIP3    H228313   3.340   5.844   0.957 -0.9232 -2.2510  1.2183
 2252TIP3   OH228314   4.433   3.164   7.340 -0.4762 -0.2416 -0.0609
 2252TIP3    H128315   4.433   3.075   7.373 -2.2101 -0.1245  0.3256
 2252TIP3    H228316   4.437   3.155   7.245  2.9678 -0.6035 -0.0132
 2253TIP3   OH228317   6.738   1.667   8.388  0.3297 -0.1936  0.0470
 2253TIP3    H128318   6.675   1.642   8.456 -0.1154  0.4365 -0.1231
 2253TIP3    H228319   6.819   1.625   8.414 -0.7176 -3.1437 -1.0480
 2254TIP3   OH228320   6.546   3.799   1.812 -0.3838 -0.2154  0.3447
 2254TIP3    H128321   6.508   3.742   1.744  0.2667  0.1779 -0.3572
 2254TIP3    H228322   6.494   3.879   1.807  0.6555  0.4269 -0.7998
 2255TIP3   OH228323   3.065   4.410   6.459  0.4790  0.4300 -0.2961
 2255TIP3    H128324   3.021   4.405   6.373  1.7066 -0.9188 -0.8818
 2255TIP3    H228325   3.131   4.478   6.448  1.1671 -0.2942 -0.6851
 2256TIP3   OH228326   2.238   5.869   0.341  0.3021  0.3191 -0.0614
 2256TIP3    H128327   2.252   5.936   0.274  1.0596 -0.8159 -1.0766
 2256TIP3    H228328   2.326   5.845   0.370 -0.0166  1.3419  1.9585
 2257TIP3   OH228329   2.734   0.937   2.325 -0.5942 -0.7927  0.3570
 2257TIP3    H128330   2.655   0.913   2.373 -0.0936 -0.8542  1.1803
 2257TIP3    H228331   2.788   0.858   2.326 -0.7490 -0.9250 -0.6925
 2258TIP3   OH228332   5.970   4.246   1.328 -0.0887 -0.1208  0.2157
 2258TIP3    H128333   5.877   4.262   1.344 -0.3091 -0.0652 -0.9751
 2258TIP3    H228334   5.986   4.285   1.242  1.3537  1.0278  0.9736
 2259TIP3   OH228335   0.250   3.940   1.657  0.0302  0.2494 -0.1811
 2259TIP3    H128336   0.198   4.001   1.605 -0.0009 -0.6377 -1.2443
 2259TIP3    H228337   0.288   3.880   1.592 -2.5798 -2.9291  0.9256
 2260TIP3   OH228338   2.771   1.049   0.364  0.1649 -0.4617 -0.3187
 2260TIP3    H128339   2.788   1.045   0.270  0.0763 -0.6494 -0.3264
 2260TIP3    H228340   2.735   0.963   0.386  1.0287 -0.7352  0.0541
 2261TIP3   OH228341   0.819   5.283   7.623 -0.3917  0.1407  0.0582
 2261TIP3    H128342   0.850   5.207   7.672 -0.3918 -0.4975 -0.8875
 2261TIP3    H228343   0.807   5.250   7.533  1.4171  1.6827 -0.8291
 2262TIP3   OH228344   3.310   0.993   7.299 -0.2658 -0.2835 -0.2103
 2262TIP3    H128345   3.288   0.924   7.363 -2.3103  1.2666  0.8827
 2262TIP3    H228346   3.318   0.946   7.216 -0.9755 -1.9538  0.6115
 2263TIP3   OH228347   0.308   4.122   0.169 -0.4426 -0.5192 -0.0185
 2263TIP3    H128348   0.312   4.032   0.202 -0.0935 -1.9114 -3.4703
 2263TIP3    H228349   0.400   4.145   0.154 -0.5525  0.3556  0.5583
 2264TIP3   OH228350   0.822   3.281   0.381  0.4921 -0.5393  0.5145
 2264TIP3    H128351   0.915   3.302   0.384  0.8275 -1.6664 -0.7904
 2264TIP3    H228352   0.788   3.308   0.466  1.8334  0.6523  0.7046
 2265TIP3   OH228353   3.625   4.319   2.008 -0.2360  0.0767  0.4388
 2265TIP3    H128354   3.538   4.341   1.974  0.4467  0.4916 -1.1181
 2265TIP3    H228355   3.622   4.224   2.023 -0.9274  0.0730  0.2967
 2266TIP3   OH228356   5.563   4.026   7.812 -0.2237 -0.1378  0.7017
 2266TIP3    H128357   5.572   3.931   7.817 -0.4159 -0.1233  1.6941
 2266TIP3    H228358   5.501   4.047   7.882  1.0794  0.8751  1.6105
 2267TIP3   OH228359   5.194   4.573   7.330  0.2710  0.2327 -0.1484
 2267TIP3    H128360   5.281   4.609   7.308  0.2296  0.6055  0.2599
 2267TIP3    H228361   5.205   4.478   7.325  0.5582  0.2910 -0.6369
 2268TIP3   OH228362   2.598   2.836   8.144 -0.2250  0.4212  0.0514
 2268TIP3    H128363   2.670   2.862   8.202 -0.6528  1.8462 -0.0423
 2268TIP3    H228364   2.579   2.914   8.092 -1.3523 -0.1635 -0.4434
 2269TIP3   OH228365   6.818   4.271   0.729 -0.2319 -0.1178 -0.1362
 2269TIP3    H128366   6.730   4.233   0.729  0.2790 -1.4349 -1.4451
 2269TIP3    H228367   6.809   4.353   0.681 -1.1556  0.9427  1.7621
 2270TIP3   OH228368   3.886   2.218   0.277 -0.5378 -0.2283 -0.2274
 2270TIP3    H128369   3.981   2.220   0.286 -0.7412  1.2407  2.5325
 2270TIP3    H228370   3.871   2.182   0.189  2.5245 -0.5063 -0.7390
 2271TIP3   OH228371   4.838   2.238   1.513  0.5191  0.1034 -0.8588
 2271TIP3    H128372   4.760   2.273   1.471 -0.3191 -0.8300 -0.1359
 2271TIP3    H228373   4.805   2.175   1.577  1.7045  1.6260  1.3948
 2272TIP3   OH228374   5.177   3.629   8.258  0.0094 -0.1959  0.0777
 2272TIP3    H128375   5.207   3.695   8.321 -0.2500  0.3105 -0.3228
 2272TIP3    H228376   5.082   3.643   8.254 -0.6498 -2.8345  2.5908
 2273TIP3   OH228377   3.609   6.072   6.985 -0.4566  0.1373  0.1563
 2273TIP3    H128378   3.620   6.165   6.967 -0.0449 -0.0458 -0.5970
 2273TIP3    H228379   3.523   6.051   6.950  0.7748 -0.4551 -2.8056
 2274TIP3   OH228380   3.768   4.690   7.226  0.1956  0.0008  0.0213
 2274TIP3    H128381   3.777   4.617   7.287 -0.8051  0.3904  0.6701
 2274TIP3    H228382   3.711   4.656   7.157 -1.1248  0.4391  0.8453
 2275TIP3   OH228383   5.402   2.526   1.620 -0.0096  0.4623  0.3879
 2275TIP3    H128384   5.492   2.553   1.599  0.9844 -2.7285 -0.0065
 2275TIP3    H228385   5.413   2.457   1.685 -1.8325 -2.4350 -2.1410
 2276TIP3   OH228386   1.337   3.502   7.118 -0.7962 -0.1623  0.1409
 2276TIP3    H128387   1.275   3.446   7.071 -1.1743 -0.4490  0.9613
 2276TIP3    H228388   1.319   3.486   7.210  0.6610 -0.4375  0.4122
 2277TIP3   OH228389   0.424   1.605   8.248  0.2630 -0.0322 -0.0476
 2277TIP3    H128390   0.495   1.541   8.252  0.8978  0.6425 -0.2454
 2277TIP3    H228391   0.351   1.564   8.294  0.1274 -1.5646 -1.5222
 2278TIP3   OH228392   0.361   5.542   0.664  0.4919 -0.3267 -0.4899
 2278TIP3    H128393   0.287   5.551   0.724  0.9491 -1.9130  0.3824
 2278TIP3    H228394   0.330   5.579   0.581  0.5229  3.9974  1.1410
 2279TIP3   OH228395   2.670   5.388   7.890  0.1374  0.0397 -0.0122
 2279TIP3    H128396   2.641   5.296   7.887 -1.0487  0.3718  0.4730
 2279TIP3    H228397   2.656   5.420   7.801  1.8240 -0.5882 -0.5399
 2280TIP3   OH228398   5.391   5.121   1.336  0.1161 -0.4058  0.2293
 2280TIP3    H128399   5.428   5.034   1.351 -1.7680 -1.6443 -1.7287
 2280TIP3    H228400   5.296   5.108   1.341 -0.2359  1.3670 -0.9692
 2281TIP3   OH228401   3.628   2.438   7.759  0.2859  0.0248  0.0453
 2281TIP3    H128402   3.704   2.466   7.709 -1.1349  0.2416 -2.1580
 2281TIP3    H228403   3.659   2.365   7.812  2.1083  0.3832 -0.4829
 2282TIP3   OH228404   5.379   5.061   7.204 -0.5504  0.8700 -0.1223
 2282TIP3    H128405   5.401   5.035   7.115  2.6613 -2.1540  1.2971
 2282TIP3    H228406   5.320   4.993   7.235 -0.0615  0.7636  0.6144
 2283TIP3   OH228407   1.640   1.044   6.725 -0.1401  0.0106 -0.6379
 2283TIP3    H128408   1.700   1.001   6.664 -1.0883  1.6956 -2.9236
 2283TIP3    H228409   1.616   1.126   6.680 -1.5460  0.9484  1.6767
 2284TIP3   OH228410   6.101   6.463   7.510 -0.3449  0.4733  0.2704
 2284TIP3    H128411   6.120   6.554   7.534  0.5874  0.6271 -0.9394
 2284TIP3    H228412   6.108   6.415   7.592 -0.9488  1.5004  0.9520
 2285TIP3   OH228413   1.119   6.483   6.988  0.0426 -0.0874 -0.5462
 2285TIP3    H128414   1.152   6.495   6.899  1.4944  2.3162  0.2218
 2285TIP3    H228415   1.040   6.430   6.978  0.5807 -0.5076 -3.1638
 2286TIP3   OH228416   3.170   4.387   7.352 -1.1466  0.1216  0.2668
 2286TIP3    H128417   3.093   4.372   7.296 -0.1900  0.1959 -1.1129
 2286TIP3    H228418   3.222   4.308   7.344 -1.3274 -0.1727  1.6752
 2287TIP3   OH228419   6.915   5.910   0.007 -0.0068 -0.2527 -1.0020
 2287TIP3    H128420   6.917   5.927   0.101 -0.4693 -2.2581 -0.5854
 2287TIP3    H228421   6.985   5.965  -0.029  0.4147  0.2796  0.5481
 2288TIP3   OH228422   3.111   4.101   8.552  0.0839  0.7748 -0.6203
 2288TIP3    H128423   3.205   4.112   8.534  0.0876  1.1462 -0.3818
 2288TIP3    H228424   3.069   4.108   8.466  0.2868  0.4087 -0.7560
 2289TIP3   OH228425   1.450   2.429   1.649 -0.4896  0.5787  0.3440
 2289TIP3    H128426   1.470   2.348   1.695 -0.1483  0.7708  0.5367
 2289TIP3    H228427   1.497   2.497   1.698  0.5623  0.6786 -0.7752
 2290TIP3   OH228428   5.896   2.372   8.262  0.2014 -1.0995 -0.1399
 2290TIP3    H128429   5.828   2.384   8.197  1.2077 -0.6012 -1.1303
 2290TIP3    H228430   5.883   2.282   8.293 -1.5935 -0.6486  0.5451
 2291TIP3   OH228431   2.327   0.403   8.126 -0.1191 -0.0333  0.3818
 2291TIP3    H128432   2.418   0.405   8.094  0.3639  1.9816  1.6655
 2291TIP3    H228433   2.313   0.313   8.154  0.2768 -1.2782 -2.9259
 2292TIP3   OH228434   1.816   0.062   8.107 -0.2137  0.8746  0.1928
 2292TIP3    H128435   1.850   0.052   8.018 -0.2798  1.6672  0.0721
 2292TIP3    H228436   1.722   0.052   8.099 -0.1668  0.3304  0.2746
 2293TIP3   OH228437   0.163   0.105   8.544  0.6161  0.5467  0.2167
 2293TIP3    H128438   0.234   0.155   8.503 -0.0135  0.7346 -0.6748
 2293TIP3    H228439   0.151   0.030   8.486 -0.4720  0.9561 -0.1105
 2294TIP3   OH228440   5.106   0.869   7.991  0.6073  0.3502  0.3369
 2294TIP3    H128441   5.041   0.801   7.975  1.0157  0.0993 -0.2981
 2294TIP3    H228442   5.144   0.847   8.076 -0.6037  0.8867  1.0345
 2295TIP3   OH228443   1.912   0.342   0.901  1.0118 -0.4005 -0.4369
 2295TIP3    H128444   1.955   0.273   0.951 -0.3905 -1.0765 -0.1024
 2295TIP3    H228445   1.911   0.310   0.811  3.3812  0.7396 -0.9391
 2296TIP3   OH228446   4.544   1.949   0.397 -0.5035  0.1188  0.9757
 2296TIP3    H128447   4.549   2.043   0.381 -0.9506  0.2149  1.3527
 2296TIP3    H228448   4.484   1.917   0.330 -2.4648  0.5372  2.4260
 2297TIP3   OH228449   6.617   0.410   2.154 -0.0939  0.0053  0.0578
 2297TIP3    H128450   6.536   0.367   2.128 -0.1466 -0.6009  1.1412
 2297TIP3    H228451   6.596   0.504   2.157 -0.5188 -0.0754 -0.4515
 2298TIP3   OH228452   4.289   3.055   6.806 -0.2980 -0.7478  0.0558
 2298TIP3    H128453   4.275   3.082   6.897 -2.0513  0.0579 -0.4117
 2298TIP3    H228454   4.363   3.108   6.776 -0.4994 -0.1278  0.6463
 2299TIP3   OH228455   3.945   6.001   7.185  0.8471  0.6993  0.0809
 2299TIP3    H128456   3.877   5.943   7.151  0.3792  0.5664  1.1982
 2299TIP3    H228457   3.975   5.959   7.266  0.2650  2.1390  1.0930
 2300TIP3   OH228458   2.820   1.506   7.247 -0.2091  0.4466 -0.7149
 2300TIP3    H128459   2.732   1.476   7.272 -0.5390  2.7788  1.2713
 2300TIP3    H228460   2.840   1.456   7.168 -2.2703 -1.9873  0.1431
 2301TIP3   OH228461   2.152   5.773   0.651 -0.4329  0.1287 -0.2586
 2301TIP3    H128462   2.097   5.757   0.574 -0.2250 -0.0297 -0.3761
 2301TIP3    H228463   2.200   5.691   0.663  0.1276  0.4181 -0.4441
 2302TIP3   OH228464   1.083   2.960   1.394 -0.3767 -1.2193  0.4867
 2302TIP3    H128465   1.092   2.899   1.321 -1.8903  1.2318 -1.9191
 2302TIP3    H228466   0.990   2.980   1.398 -0.0066  0.5075  1.5751
 2303TIP3   OH228467   5.871   5.831   7.067  0.0954  0.0451  1.1104
 2303TIP3    H128468   5.819   5.896   7.019  0.2277  1.0744  2.3222
 2303TIP3    H228469   5.912   5.881   7.138  1.8334 -0.9787  0.8664
 2304TIP3   OH228470   1.503   5.762   0.203 -0.6182  0.6798  0.2112
 2304TIP3    H128471   1.597   5.782   0.199 -0.1790 -0.9687  1.3006
 2304TIP3    H228472   1.478   5.747   0.112  0.2652  0.7480 -0.0554
 2305TIP3   OH228473   4.309   0.667   6.903 -0.2986  0.0942 -0.2607
 2305TIP3    H128474   4.346   0.618   6.977 -1.2041 -1.0729 -0.5497
 2305TIP3    H228475   4.350   0.629   6.826 -0.9418 -0.1677 -0.4824
 2306TIP3   OH228476   4.422   6.458   0.088  0.1078  0.1023  0.1683
 2306TIP3    H128477   4.345   6.418   0.129 -0.0546  0.4177  0.1820
 2306TIP3    H228478   4.440   6.536   0.142  0.5536 -0.0729  0.2789
 2307TIP3   OH228479   3.280   6.066   1.151  0.1269 -0.5360 -0.0951
 2307TIP3    H128480   3.248   6.125   1.220  0.8960 -1.5106  1.1503
 2307TIP3    H228481   3.217   5.994   1.151  1.3552 -1.6637  1.2348
 2308TIP3   OH228482   5.708   2.005   0.181 -0.1169 -0.2165  0.3669
 2308TIP3    H128483   5.659   1.938   0.134  0.8026 -0.9064  0.3647
 2308TIP3    H228484   5.698   1.982   0.273 -2.2521  1.3663  0.5836
 2309TIP3   OH228485   6.438   5.157   0.349 -0.5528  0.2856 -0.2769
 2309TIP3    H128486   6.425   5.218   0.422 -0.1725  0.8782 -0.7022
 2309TIP3    H228487   6.357   5.106   0.346 -0.5932  0.2964  0.5233
 2310TIP3   OH228488   1.637   2.641   7.837  0.1425  0.7879 -0.2609
 2310TIP3    H128489   1.602   2.613   7.922  0.5946 -1.7298 -0.8278
 2310TIP3    H228490   1.716   2.690   7.858  0.2724  0.1557  0.7741
 2311TIP3   OH228491   1.504   6.203   8.158 -0.1794 -0.4051  0.3916
 2311TIP3    H128492   1.411   6.186   8.176 -0.5255 -0.2809 -1.1412
 2311TIP3    H228493   1.504   6.282   8.105  0.9081  0.2356  1.3166
 2312TIP3   OH228494   0.570   1.032   6.438  0.0508 -0.1936 -0.3289
 2312TIP3    H128495   0.659   1.060   6.461  0.3656 -0.2576 -1.4496
 2312TIP3    H228496   0.514   1.102   6.470  0.4127 -0.5287  1.1278
 2313TIP3   OH228497   5.553   1.849   7.610 -0.5422  0.2135  0.2184
 2313TIP3    H128498   5.587   1.796   7.682  0.5067  0.4561 -0.0854
 2313TIP3    H228499   5.616   1.921   7.602  0.1430 -0.5422 -1.8297
 2314TIP3   OH228500   4.558   6.349   1.298 -0.2539 -0.0212  0.1629
 2314TIP3    H128501   4.522   6.260   1.296  0.0655 -0.2071  1.8084
 2314TIP3    H228502   4.642   6.340   1.343 -0.5957  1.2406  1.0901
 2315TIP3   OH228503   3.009   4.458   7.738 -0.6771  0.0680 -0.3768
 2315TIP3    H128504   2.983   4.520   7.805 -1.0309  0.0847 -0.5254
 2315TIP3    H228505   2.928   4.442   7.688 -0.9162 -1.4744  0.4383
 2316TIP3   OH228506   5.203   6.579   7.181 -0.2480  0.2450  0.1717
 2316TIP3    H128507   5.272   6.644   7.167  0.2627 -0.5221 -1.0882
 2316TIP3    H228508   5.227   6.536   7.263  0.3504  0.4880  0.1294
 2317TIP3   OH228509   6.235   0.030   1.456  0.0836  0.0761  0.8372
 2317TIP3    H128510   6.218   0.114   1.412 -0.5341 -0.3793  0.1827
 2317TIP3    H228511   6.252   0.054   1.547 -2.5566  0.7367  1.2235
 2318TIP3   OH228512   3.846   4.602   1.457 -0.4833  0.2412  0.1863
 2318TIP3    H128513   3.844   4.558   1.373 -0.5033 -0.3128  0.4728
 2318TIP3    H228514   3.775   4.666   1.452 -0.6292  0.0582 -0.1340
 2319TIP3   OH228515   2.081   1.574   7.840 -0.1918  0.3126  0.1555
 2319TIP3    H128516   2.107   1.537   7.925 -2.0099  1.5659  1.3274
 2319TIP3    H228517   2.164   1.586   7.793  0.7841 -1.1754  1.4186
 2320TIP3   OH228518   1.217   2.365   0.631  1.1009  0.3437  0.5441
 2320TIP3    H128519   1.248   2.424   0.562  0.1164 -0.1970 -0.3805
 2320TIP3    H228520   1.186   2.287   0.585 -0.3673  0.3129  1.5129
 2321TIP3   OH228521   3.041   2.122   0.148 -0.1720  0.3284  0.9948
 2321TIP3    H128522   3.106   2.094   0.084 -0.2508  0.8781  0.6664
 2321TIP3    H228523   3.071   2.084   0.231  0.0094 -0.2661  0.6646
 2322TIP3   OH228524   6.232   4.781   2.026  0.4645  0.3963  0.0948
 2322TIP3    H128525   6.204   4.697   1.991 -0.8307  0.8368  0.0207
 2322TIP3    H228526   6.307   4.807   1.972  0.1952 -0.1976 -0.5657
 2323TIP3   OH228527   0.178   5.038   2.033 -0.2157 -0.6149  0.0396
 2323TIP3    H128528   0.269   5.011   2.038  0.1135  0.0626 -1.5318
 2323TIP3    H228529   0.181   5.133   2.023 -0.9797 -0.7121 -1.5094
 2324TIP3   OH228530   5.855   3.686   1.951 -0.2062  0.0254 -0.2214
 2324TIP3    H128531   5.781   3.626   1.951 -1.0687  1.0351 -1.2333
 2324TIP3    H228532   5.903   3.665   2.031 -0.7498 -1.6447 -0.2968
 2325TIP3   OH228533   4.967   2.338   0.154  0.3835 -0.4044 -0.4404
 2325TIP3    H128534   4.873   2.355   0.157  0.1234 -1.6743 -0.8631
 2325TIP3    H228535   4.993   2.356   0.064  0.3175 -1.1157 -0.6095
 2326TIP3   OH228536   1.378   1.873   0.093  0.0081 -0.2553 -0.1628
 2326TIP3    H128537   1.470   1.888   0.072  0.2370 -1.0446  0.2287
 2326TIP3    H228538   1.368   1.778   0.088 -0.9439 -0.1325 -0.8330
 2327TIP3   OH228539   4.271   4.553   0.880  0.3491  0.1350 -0.2808
 2327TIP3    H128540   4.247   4.607   0.804  0.4241  0.4172 -0.1041
 2327TIP3    H228541   4.345   4.501   0.850 -0.8240 -1.1821 -1.0337
 2328TIP3   OH228542   0.858   1.240   6.780 -0.0224 -0.2763 -0.3143
 2328TIP3    H128543   0.920   1.176   6.746  0.5983 -0.8094  1.6911
 2328TIP3    H228544   0.832   1.292   6.704  0.6906 -1.8749 -1.6957
 2329TIP3   OH228545   1.372   5.099   0.262  0.3915 -0.0565 -0.5108
 2329TIP3    H128546   1.280   5.077   0.277  0.3088  0.9247  0.6209
 2329TIP3    H228547   1.421   5.032   0.310  0.1846  0.8438  1.0470
 2330TIP3   OH228548   2.369   3.610   0.401  0.1803  0.2756  0.4735
 2330TIP3    H128549   2.317   3.586   0.478 -2.9263  0.3839 -1.4399
 2330TIP3    H228550   2.330   3.692   0.370  2.0989  0.8272 -0.6195
 2331TIP3   OH228551   6.258   0.513   1.609 -0.0186 -0.6774  0.6709
 2331TIP3    H128552   6.325   0.526   1.541 -0.7197 -0.5129 -0.0006
 2331TIP3    H228553   6.307   0.514   1.691  0.4763  2.4194  0.4392
 2332TIP3   OH228554   6.587   4.292   7.867 -0.2492 -0.9425 -0.3690
 2332TIP3    H128555   6.679   4.316   7.858 -0.0447 -1.5852 -0.1030
 2332TIP3    H228556   6.589   4.197   7.882 -0.8548 -0.7429  1.1427
 2333TIP3   OH228557   0.317   4.387   7.202 -0.1323 -0.9023 -0.4983
 2333TIP3    H128558   0.389   4.334   7.169 -0.1296 -0.6655 -0.8784
 2333TIP3    H228559   0.272   4.419   7.124  0.3853  0.3743 -0.2945
 2334TIP3   OH228560   4.184   3.019   1.160  0.0215 -0.4012  0.5006
 2334TIP3    H128561   4.194   3.046   1.252 -0.8839  0.9274  0.2230
 2334TIP3    H228562   4.144   2.932   1.165 -2.1709  0.5894  1.3704
 2335TIP3   OH228563   2.352   5.048   0.277 -0.2377 -0.4435  0.3670
 2335TIP3    H128564   2.424   4.986   0.275 -0.0440 -0.2896  1.9456
 2335TIP3    H228565   2.380   5.117   0.336 -0.3628  1.3061 -1.4949
 2336TIP3   OH228566   4.746   5.052   2.017  0.1449  0.1037 -0.0158
 2336TIP3    H128567   4.795   5.086   2.092 -0.0238  0.9994 -0.2907
 2336TIP3    H228568   4.679   4.996   2.055  1.1673 -0.8899  0.3881
 2337TIP3   OH228569   5.228   1.386   1.777  0.0857 -0.3595  0.4060
 2337TIP3    H128570   5.303   1.327   1.785 -0.6067 -1.2968  0.1568
 2337TIP3    H228571   5.250   1.462   1.831  1.2728 -0.5540  0.2081
 2338TIP3   OH228572   6.040   6.788   7.239 -0.3179 -0.2228 -0.3761
 2338TIP3    H128573   6.116   6.791   7.298  0.7332 -1.1978 -1.6077
 2338TIP3    H228574   5.992   6.710   7.266  1.7195 -2.4000 -2.4870
 2339TIP3   OH228575   2.261   0.000   7.083 -0.2346 -0.3380 -0.2088
 2339TIP3    H128576   2.353   0.006   7.057  0.0480 -1.0543  0.5683
 2339TIP3    H228577   2.213  -0.013   7.002  0.4927 -1.3380 -0.4927
 2340TIP3   OH228578   4.187   1.701   0.467 -0.2804 -0.4295  0.7944
 2340TIP3    H128579   4.163   1.611   0.443 -1.5282  0.1715 -0.2902
 2340TIP3    H228580   4.252   1.726   0.401  0.2187 -0.6024  1.2190
 2341TIP3   OH228581   0.600   4.352   0.984  0.2839  0.1788  0.2078
 2341TIP3    H128582   0.624   4.314   1.069 -0.9017  0.6963  0.7980
 2341TIP3    H228583   0.634   4.442   0.988  0.6771  0.0450 -0.0793
 2342TIP3   OH228584   6.227   4.700   2.504 -0.0312  0.2668  0.0258
 2342TIP3    H128585   6.172   4.672   2.432  0.1791  0.0780 -0.0641
 2342TIP3    H228586   6.229   4.795   2.498  0.5501  0.2237 -0.6428
 2343TIP3   OH228587   3.203   4.994   0.819 -0.4540 -0.0923  0.3693
 2343TIP3    H128588   3.236   5.069   0.867  0.2890 -0.3835  0.3303
 2343TIP3    H228589   3.153   4.944   0.883  0.0867 -0.2002  0.7187
 2344TIP3   OH228590   6.113   5.881   2.200  0.0293  0.0497 -0.1415
 2344TIP3    H128591   6.162   5.804   2.229  0.6153  0.9355  1.2913
 2344TIP3    H228592   6.179   5.942   2.168 -0.2240  0.7399  0.6073
 2345TIP3   OH228593   5.417   4.231   1.384 -0.1182 -0.1090  0.0667
 2345TIP3    H128594   5.445   4.140   1.393  2.1575  0.5656  0.4654
 2345TIP3    H228595   5.498   4.281   1.383 -1.2575  1.8436 -1.4063
 2346TIP3   OH228596   0.695   2.685   6.351 -0.2497 -0.1442 -0.2633
 2346TIP3    H128597   0.630   2.732   6.299  0.3123  1.3398  0.3263
 2346TIP3    H228598   0.759   2.654   6.286 -1.5044 -1.6093 -0.8406
 2347TIP3   OH228599   1.780   3.487   6.732 -0.2084 -0.2097  0.2933
 2347TIP3    H128600   1.848   3.553   6.749 -1.0956  0.3348  1.8995
 2347TIP3    H228601   1.714   3.502   6.799 -1.7839 -0.9501 -1.0112
 2348TIP3   OH228602   3.557   0.782   0.593 -0.4674  0.0158  0.0114
 2348TIP3    H128603   3.615   0.743   0.528 -0.7191 -0.9049  0.3349
 2348TIP3    H228604   3.534   0.867   0.556  0.6358  0.1665 -0.3787
 2349TIP3   OH228605   6.876   5.032   6.045 -0.5102 -0.4797  0.6822
 2349TIP3    H128606   6.844   5.111   6.001 -1.5243 -1.4354 -0.3465
 2349TIP3    H228607   6.812   5.014   6.114 -0.4842 -0.6244  0.6700
 2350TIP3   OH228608   3.845   1.689   8.206 -0.1577 -0.1097 -0.0655
 2350TIP3    H128609   3.904   1.675   8.132 -1.5511  0.4727 -1.3428
 2350TIP3    H228610   3.813   1.602   8.229  0.8154 -0.3737  0.3324
 2351TIP3   OH228611   1.775   1.934   2.197 -0.7796  0.0445  0.4491
 2351TIP3    H128612   1.807   2.004   2.253 -0.2043 -0.1657  0.3861
 2351TIP3    H228613   1.833   1.934   2.121 -0.9283 -0.3334  0.3276
 2352TIP3   OH228614   1.753   6.535   7.704  0.2003 -0.2863 -0.4040
 2352TIP3    H128615   1.784   6.493   7.784  0.3219  0.3650 -0.1093
 2352TIP3    H228616   1.828   6.534   7.645 -0.0849 -1.4142 -0.7929
 2353TIP3   OH228617   5.665   1.601   1.467  0.0844  0.1475 -0.0555
 2353TIP3    H128618   5.740   1.542   1.462 -1.2610 -1.5611 -1.6428
 2353TIP3    H228619   5.665   1.647   1.383 -0.0371  0.9322  0.3658
 2354TIP3   OH228620   4.306   3.814   6.723 -0.1568  0.1876 -0.6858
 2354TIP3    H128621   4.257   3.885   6.764 -0.7444 -1.8459  2.4544
 2354TIP3    H228622   4.396   3.845   6.719 -0.6135  1.5643 -0.5841
 2355TIP3   OH228623   4.750   1.836   7.781 -1.0222  0.2092 -0.3164
 2355TIP3    H128624   4.778   1.927   7.792 -0.4235  0.2750 -2.1242
 2355TIP3    H228625   4.704   1.816   7.862 -0.5414  1.8892  0.4232
 2356TIP3   OH228626   0.666   1.025   7.060 -0.0460 -0.2568  0.3226
 2356TIP3    H128627   0.623   1.104   7.026  0.6823 -0.0753 -0.2132
 2356TIP3    H228628   0.734   1.005   6.995 -1.1485 -2.1696 -0.3094
 2357TIP3   OH228629   6.412   5.017   8.142  0.1094  0.0625  0.0495
 2357TIP3    H128630   6.484   5.003   8.205  1.2430  0.2732 -1.1481
 2357TIP3    H228631   6.424   4.948   8.077  0.7478  1.5325 -1.4686
 2358TIP3   OH228632   0.070   1.573   8.098 -0.3518  0.2823  0.6511
 2358TIP3    H128633   0.082   1.535   8.185 -1.6391 -0.3488  0.5822
 2358TIP3    H228634   0.071   1.667   8.112  1.3500  0.2406  1.0568
 2359TIP3   OH228635   1.025   0.405   1.050 -0.1461 -0.4369 -0.0366
 2359TIP3    H128636   1.051   0.427   1.139  0.2030 -0.0834 -0.2239
 2359TIP3    H228637   1.097   0.436   0.995 -0.4091 -0.5494 -0.4531
 2360TIP3   OH228638   4.721   0.935   6.129  0.1226  0.1466 -0.1359
 2360TIP3    H128639   4.700   1.018   6.171  1.2517 -0.1612  1.1011
 2360TIP3    H228640   4.726   0.872   6.201  0.9630 -0.6455 -0.8614
 2361TIP3   OH228641   4.204   5.578   1.996 -0.5180 -0.4875 -0.2414
 2361TIP3    H128642   4.181   5.486   1.989 -0.0973 -0.5700 -0.6121
 2361TIP3    H228643   4.297   5.581   1.976 -0.2517 -0.1287  0.9413
 2362TIP3   OH228644   5.043   0.813   0.513  0.2808 -0.2956  0.1123
 2362TIP3    H128645   4.972   0.812   0.450  0.7263 -1.4758 -0.4020
 2362TIP3    H228646   5.035   0.730   0.560  1.3031 -0.4547  0.0426
 2363TIP3   OH228647   2.574   2.681   0.644 -0.7276  0.2499  0.5386
 2363TIP3    H128648   2.626   2.602   0.626 -1.0197 -0.0266  0.9046
 2363TIP3    H228649   2.538   2.705   0.559  0.0538  0.4887  0.2604
 2364TIP3   OH228650   2.729   2.622   7.385  0.0141  0.3964  0.3303
 2364TIP3    H128651   2.793   2.648   7.318 -1.5529 -0.2121 -1.4906
 2364TIP3    H228652   2.781   2.615   7.465  2.2235 -0.0387 -1.0319
 2365TIP3   OH228653   4.486   6.103   0.428 -0.6194  0.0066 -0.1337
 2365TIP3    H128654   4.448   6.054   0.500 -2.9753  1.4651 -0.3043
 2365TIP3    H228655   4.563   6.052   0.402 -2.3326 -3.0200  0.3660
 2366TIP3   OH228656   0.039   0.979   0.754  0.2174  0.4512  0.0155
 2366TIP3    H128657  -0.046   1.014   0.729  0.5541  2.2286  1.1466
 2366TIP3    H228658   0.044   0.995   0.849  1.1946 -0.9923  0.2287
 2367TIP3   OH228659   5.465   0.962   8.537 -0.8876 -0.1207 -0.0976
 2367TIP3    H128660   5.470   0.991   8.446 -2.7064 -2.1340 -0.9290
 2367TIP3    H228661   5.377   0.989   8.566 -0.4280  0.2680  0.9908
 2368TIP3   OH228662   5.687   5.995   6.937  0.4861  0.1750 -0.2353
 2368TIP3    H128663   5.664   6.088   6.928  1.8673  0.5783  0.1924
 2368TIP3    H228664   5.693   5.964   6.846 -2.2974 -0.1619 -0.4130
 2369TIP3   OH228665   1.420   0.586   0.849  0.3407 -0.2966  0.1876
 2369TIP3    H128666   1.478   0.601   0.775 -0.6539 -0.6756 -0.6869
 2369TIP3    H228667   1.467   0.623   0.924  1.4411 -0.0747 -0.5902
 2370TIP3   OH228668   1.201   2.972   8.372  0.9129 -0.1106 -0.0717
 2370TIP3    H128669   1.158   2.953   8.456  1.5202 -2.0235 -0.1691
 2370TIP3    H228670   1.137   3.025   8.324 -0.0801 -0.3319  0.9737
 2371TIP3   OH228671   0.809   4.220   6.447 -0.1857 -0.4844  0.5585
 2371TIP3    H128672   0.740   4.154   6.446 -0.2546 -0.4112 -0.5941
 2371TIP3    H228673   0.801   4.265   6.363 -1.2785  2.2059  1.9850
 2372TIP3   OH228674   4.541   0.557   1.648  0.2162  0.7376 -0.0479
 2372TIP3    H128675   4.539   0.494   1.576 -0.8010 -0.1095  0.6880
 2372TIP3    H228676   4.489   0.630   1.617 -0.6359  0.1642 -0.0069
 2373TIP3   OH228677   0.212   3.996   1.034  0.4279 -1.1246 -0.1875
 2373TIP3    H128678   0.157   4.045   0.973 -0.9869 -1.7169  0.5674
 2373TIP3    H228679   0.301   4.024   1.014 -0.1224 -0.2696 -1.5691
 2374TIP3   OH228680   2.597   3.444   7.404  0.1189  0.4199  0.1292
 2374TIP3    H128681   2.608   3.426   7.497 -0.2697  0.0520  0.1083
 2374TIP3    H228682   2.675   3.406   7.363 -0.3242 -0.5626  0.1728
 2375TIP3   OH228683   3.860   1.443   6.986 -0.0511 -0.4293 -0.0886
 2375TIP3    H128684   3.766   1.449   6.970  0.1797  0.3744 -1.2935
 2375TIP3    H228685   3.897   1.520   6.942  0.9531  0.6002  2.3855
 2376TIP3   OH228686   6.333   4.756   8.297 -0.1498  0.4376  0.2310
 2376TIP3    H128687   6.412   4.709   8.323 -0.8864 -0.9791  0.0761
 2376TIP3    H228688   6.315   4.816   8.369  0.5315  0.0633  0.7208
 2377TIP3   OH228689   1.493   6.392   2.681 -0.2026  0.2865  0.4955
 2377TIP3    H128690   1.585   6.414   2.698  0.5960 -3.0056  1.1388
 2377TIP3    H228691   1.460   6.360   2.765 -1.3704 -0.2987 -0.1613
 2378TIP3   OH228692   6.834   2.529   6.997  0.4402 -0.1038 -0.1290
 2378TIP3    H128693   6.921   2.496   6.976  1.3045  1.8714  0.1276
 2378TIP3    H228694   6.835   2.538   7.092  0.2944  0.7703 -0.2031
 2379TIP3   OH228695   3.329   0.658   7.842  0.0034 -0.2841  0.0104
 2379TIP3    H128696   3.339   0.753   7.848  1.0187 -0.3115 -0.8741
 2379TIP3    H228697   3.286   0.632   7.923  0.4732  0.8377  0.6286
 2380TIP3   OH228698   1.425   4.333   7.506 -0.0200  0.4501 -0.7365
 2380TIP3    H128699   1.361   4.281   7.555 -0.1076 -1.3219 -2.6088
 2380TIP3    H228700   1.502   4.334   7.563 -0.3010 -1.0482 -0.2638
 2381TIP3   OH228701   4.738   2.039   1.707  0.0683  0.1156 -0.0939
 2381TIP3    H128702   4.776   2.009   1.790  0.7992 -2.4483 -1.2540
 2381TIP3    H228703   4.652   1.998   1.703 -0.6688  1.5829  0.1040
 2382TIP3   OH228704   1.122   2.510   0.876 -0.2481 -0.3489  0.6725
 2382TIP3    H128705   1.097   2.600   0.856  3.1108  0.8802  1.2698
 2382TIP3    H228706   1.176   2.483   0.801 -0.3550 -1.4720  0.9857
 2383TIP3   OH228707   6.356   0.163   7.110  0.2944 -0.1151 -0.0581
 2383TIP3    H128708   6.268   0.126   7.116  0.4709 -0.6150 -0.5093
 2383TIP3    H228709   6.380   0.155   7.018  0.9597 -0.3325  0.1238
 2384TIP3   OH228710   5.670   5.916   0.294  0.4481  0.1494 -0.3770
 2384TIP3    H128711   5.603   5.924   0.362 -0.1883  0.0915 -0.9852
 2384TIP3    H228712   5.648   5.835   0.248  0.5463  0.4732 -1.0007
 2385TIP3   OH228713   0.555   3.240   6.716 -0.1792  0.1733 -0.8742
 2385TIP3    H128714   0.517   3.257   6.629 -0.5469 -0.3548 -0.8169
 2385TIP3    H228715   0.488   3.267   6.778 -0.4074 -0.6075 -0.7709
 2386TIP3   OH228716   4.365   0.629   6.645  0.4146  0.3177  0.8250
 2386TIP3    H128717   4.333   0.685   6.574  0.4417  0.8165  1.1972
 2386TIP3    H228718   4.458   0.650   6.652  0.7872 -0.9238 -0.0670
 2387TIP3   OH228719   2.839   0.731   6.202  0.3076  0.4722 -0.1566
 2387TIP3    H128720   2.886   0.718   6.285 -0.1609 -0.2079  0.0172
 2387TIP3    H228721   2.895   0.691   6.136 -1.0549 -2.6246  0.3548
 2388TIP3   OH228722   5.034   0.266   7.326 -0.0850 -0.0352 -0.1871
 2388TIP3    H128723   4.998   0.199   7.268 -2.1274 -1.1995  2.1953
 2388TIP3    H228724   5.057   0.339   7.268 -0.7216 -1.5929 -2.5403
 2389TIP3   OH228725   5.188   3.822   7.578 -0.0343  0.2790  0.0018
 2389TIP3    H128726   5.229   3.750   7.626  0.1209  0.3465 -0.0262
 2389TIP3    H228727   5.262   3.876   7.549 -0.1726  0.8680  0.6914
 2390TIP3   OH228728   4.987   6.721   7.926  0.7026  0.4509 -0.1016
 2390TIP3    H128729   5.074   6.753   7.949  0.1200  1.6617  0.6028
 2390TIP3    H228730   4.927   6.781   7.972 -0.5009 -1.7050  1.3288
 2391TIP3   OH228731   6.260   2.353   0.902 -0.2413 -0.0939  0.0593
 2391TIP3    H128732   6.309   2.433   0.917  0.3161 -0.6689  1.4672
 2391TIP3    H228733   6.168   2.380   0.904 -0.0465  0.6092 -0.2005
 2392TIP3   OH228734   2.332   6.895   1.311  0.0323  0.2276  0.3858
 2392TIP3    H128735   2.383   6.911   1.390 -0.1383 -0.6044  0.6761
 2392TIP3    H228736   2.292   6.979   1.290  3.1766  1.5570 -1.0741
 2393TIP3   OH228737   6.450   4.016   0.105  0.2609  0.0883  0.3108
 2393TIP3    H128738   6.525   3.958   0.098 -0.2956 -0.5401 -0.7215
 2393TIP3    H228739   6.431   4.019   0.199  1.8206  0.6148  0.6369
 2394TIP3   OH228740   2.181   6.320   6.569  0.2259  0.3929 -0.3098
 2394TIP3    H128741   2.238   6.351   6.640 -2.0887  0.6408  1.5850
 2394TIP3    H228742   2.206   6.374   6.494  2.6118  0.2996  0.3246
 2395TIP3   OH228743   1.910   5.119   1.115  0.7021 -0.3976 -0.2914
 2395TIP3    H128744   1.894   5.210   1.139  0.7423 -0.8253  1.5221
 2395TIP3    H228745   2.000   5.102   1.142  1.0878 -0.6877 -1.6620
 2396TIP3   OH228746   5.889   4.441   7.494 -0.1150  0.1195  0.5969
 2396TIP3    H128747   5.981   4.430   7.519  0.2412  1.6098  0.0541
 2396TIP3    H228748   5.891   4.455   7.399 -0.8671  0.5613  0.6364
 2397TIP3   OH228749   4.726   2.665   8.396  0.3928 -0.2801  0.5442
 2397TIP3    H128750   4.813   2.706   8.389  0.3816 -0.0008  1.8401
 2397TIP3    H228751   4.740   2.588   8.451 -0.0053 -0.8024 -0.0698
 2398TIP3   OH228752   1.161   4.767   1.527  0.3740  0.5768 -0.2030
 2398TIP3    H128753   1.156   4.693   1.587  0.8051 -1.0515 -2.0989
 2398TIP3    H228754   1.164   4.728   1.440 -1.3850  2.8777 -1.4042
 2399TIP3   OH228755   3.662   6.300   1.912  0.1259 -0.4104 -0.0283
 2399TIP3    H128756   3.669   6.374   1.852 -1.0144 -0.9397 -0.8315
 2399TIP3    H228757   3.658   6.341   1.999 -2.0000  0.6108 -0.5270
 2400TIP3   OH228758   0.076   1.899   1.888  0.6534 -0.0888  0.2127
 2400TIP3    H128759   0.117   1.893   1.974  0.2385  0.3320  0.4434
 2400TIP3    H228760   0.013   1.970   1.896 -1.9045 -2.2230  0.6373
 2401TIP3   OH228761   2.770   5.686   7.836  0.3516  1.0637  0.1716
 2401TIP3    H128762   2.833   5.659   7.770  0.9772  2.6009  0.0808
 2401TIP3    H228763   2.685   5.672   7.795  0.5238 -1.9594  0.6595
 2402TIP3   OH228764   5.990   4.964   0.304 -0.4115  0.5049  1.0279
 2402TIP3    H128765   6.017   4.899   0.239 -0.8827  1.6114 -0.3154
 2402TIP3    H228766   5.895   4.951   0.313 -0.2831  0.0577  1.8642
 2403TIP3   OH228767   3.858   4.131   7.189  0.1165 -0.6569 -0.2483
 2403TIP3    H128768   3.866   4.173   7.275 -0.0376 -0.4773 -0.3203
 2403TIP3    H228769   3.827   4.043   7.209 -1.5545 -0.1051 -0.1994
 2404TIP3   OH228770   5.786   1.076   8.304  0.1886  0.4706 -0.0538
 2404TIP3    H128771   5.862   1.088   8.362  0.8140 -0.1580 -0.7347
 2404TIP3    H228772   5.778   0.981   8.295  0.8483  0.5642 -1.9572
 2405TIP3   OH228773   2.777   3.521   6.442 -0.1162  0.2982  0.0053
 2405TIP3    H128774   2.690   3.560   6.452  0.6616  1.9461  0.6888
 2405TIP3    H228775   2.828   3.557   6.515  1.2213 -0.4120 -0.5404
 2406TIP3   OH228776   3.572   6.242   8.308 -0.0079  0.2239  0.3985
 2406TIP3    H128777   3.645   6.181   8.310 -0.1655  0.0257  2.6390
 2406TIP3    H228778   3.494   6.187   8.321 -0.2742  0.7297  1.0007
 2407TIP3   OH228779   5.151   6.426   6.374 -0.7296 -0.3793 -0.0625
 2407TIP3    H128780   5.102   6.499   6.412 -2.3277 -1.3012 -0.2635
 2407TIP3    H228781   5.238   6.433   6.414 -1.0412  1.2239  0.4277
 2408TIP3   OH228782   1.863   0.391   6.939  0.0918  0.1524  0.5541
 2408TIP3    H128783   1.926   0.326   6.908 -1.3989 -1.5742  0.9618
 2408TIP3    H228784   1.814   0.417   6.861  0.7705  0.9032  0.3697
 2409TIP3   OH228785   4.411   4.650   1.136 -0.0181 -0.7176  0.1255
 2409TIP3    H128786   4.481   4.594   1.170 -1.5713 -2.1850  1.1279
 2409TIP3    H228787   4.345   4.588   1.105 -0.6643  0.6176 -1.2784
 2410TIP3   OH228788   2.537   3.211   5.813  0.5176  0.1629  0.3775
 2410TIP3    H128789   2.595   3.192   5.739  0.5812  1.4316  0.0774
 2410TIP3    H228790   2.585   3.181   5.890  0.5935 -0.8652 -0.0577
 2411TIP3   OH228791   1.288   0.648   0.440 -0.1682  0.7729 -0.0468
 2411TIP3    H128792   1.369   0.599   0.427 -0.1854  0.1622  1.8257
 2411TIP3    H228793   1.310   0.738   0.419  0.4105  0.2973 -1.5830
 2412TIP3   OH228794   3.924   5.151   0.574 -0.1972  0.3559  0.4945
 2412TIP3    H128795   3.859   5.112   0.632  1.0522 -0.0559  1.6489
 2412TIP3    H228796   3.923   5.244   0.597  0.0972  0.2386  1.0053
 2413TIP3   OH228797   0.462   1.740   6.912  0.1602  0.0629 -0.6574
 2413TIP3    H128798   0.413   1.674   6.960 -0.0105  0.8697  0.3212
 2413TIP3    H228799   0.517   1.691   6.851 -0.5978 -0.9230 -0.5623
 2414TIP3   OH228800   2.531   1.456   6.543 -0.0908 -0.4573 -0.1198
 2414TIP3    H128801   2.439   1.429   6.543  0.1637 -1.6051 -2.5575
 2414TIP3    H228802   2.535   1.527   6.479  0.8224 -0.8438 -0.5048
 2415TIP3   OH228803   1.639   4.637   0.445  0.2697  0.0634 -0.3756
 2415TIP3    H128804   1.634   4.601   0.533  0.5131  0.6343 -0.1248
 2415TIP3    H228805   1.638   4.560   0.387 -0.9482 -0.2716  0.0727
 2416TIP3   OH228806   0.972   1.473   0.113 -0.1837 -0.5688  0.1040
 2416TIP3    H128807   0.939   1.551   0.158  1.1331  0.1494 -0.1162
 2416TIP3    H228808   0.997   1.413   0.183  1.1890  0.2557  0.3475
 2417TIP3   OH228809   4.359   5.780   7.587  0.4099 -0.0212  0.6167
 2417TIP3    H128810   4.436   5.747   7.633  1.0994 -0.2400 -0.6527
 2417TIP3    H228811   4.390   5.860   7.544 -0.8199  1.5019  2.3524
 2418TIP3   OH228812   1.269   5.218   2.545 -0.0607 -0.3920 -0.3530
 2418TIP3    H128813   1.282   5.248   2.635 -0.1835 -0.0935 -0.4334
 2418TIP3    H228814   1.187   5.260   2.517 -0.2645 -0.8505 -0.4471
 2419TIP3   OH228815   3.627   6.229   0.856 -0.1717 -0.3619  0.1249
 2419TIP3    H128816   3.549   6.177   0.873 -0.1589  0.0376  1.5407
 2419TIP3    H228817   3.681   6.217   0.934  0.4040  0.7190 -0.0845
 2420TIP3   OH228818   3.544   0.922   7.691  0.1512  0.2496  0.1478
 2420TIP3    H128819   3.546   1.013   7.721 -0.8028  0.2295  0.3210
 2420TIP3    H228820   3.544   0.871   7.772  1.0659  0.0810  0.0438
 2421TIP3   OH228821   6.163   3.493   0.674 -0.2696  0.4180  0.3419
 2421TIP3    H128822   6.120   3.408   0.669 -0.1070  0.4072 -2.0784
 2421TIP3    H228823   6.110   3.543   0.737 -1.6428 -0.7722  0.1895
 2422TIP3   OH228824   5.029   4.761   0.404  0.3513 -1.3396  0.6573
 2422TIP3    H128825   5.047   4.689   0.465 -1.9108 -2.4820  0.0984
 2422TIP3    H228826   5.010   4.836   0.459 -0.3260 -2.0126  1.3658
 2423TIP3   OH228827   1.372   6.538   0.740  0.0155 -0.4720 -0.3265
 2423TIP3    H128828   1.368   6.598   0.814 -0.1464 -0.5904 -0.2373
 2423TIP3    H228829   1.455   6.492   0.749 -0.5545 -1.3851  0.4908
 2424TIP3   OH228830   1.965   2.866   0.617 -0.0402 -0.7116 -0.0676
 2424TIP3    H128831   1.903   2.805   0.577 -0.2116  0.3435 -1.5378
 2424TIP3    H228832   1.958   2.945   0.562  0.0946  0.6706  1.8054
 2425TIP3   OH228833   1.093   3.275   2.484  0.0531 -0.1763 -0.0033
 2425TIP3    H128834   1.018   3.227   2.520  0.5130 -1.2960 -0.4898
 2425TIP3    H228835   1.153   3.207   2.455  1.7833  0.6555  1.4017
 2426TIP3   OH228836   1.934   1.688   1.725 -0.0058  0.0166  0.2792
 2426TIP3    H128837   1.931   1.772   1.681 -0.4158  0.1860  0.6194
 2426TIP3    H228838   1.908   1.624   1.658  0.6257  0.1130 -0.0683
 2427TIP3   OH228839   3.100   1.456   8.255  0.4851  0.5024  0.1580
 2427TIP3    H128840   3.162   1.484   8.188  2.4074 -1.4304  1.0095
 2427TIP3    H228841   3.110   1.361   8.259 -1.4743  0.2946  1.4011
 2428TIP3   OH228842   2.768   4.720   1.190  0.3059 -0.3942 -0.0157
 2428TIP3    H128843   2.726   4.710   1.104  0.0026 -1.9421  0.2880
 2428TIP3    H228844   2.764   4.633   1.229  0.7743  0.2038  1.4308
 2429TIP3   OH228845   1.849   3.568   6.420 -0.7480 -0.6463 -0.3785
 2429TIP3    H128846   1.774   3.612   6.461 -0.8171  0.1240 -1.3071
 2429TIP3    H228847   1.860   3.612   6.336  2.6088  1.3957  0.9182
 2430TIP3   OH228848   1.571   3.998   7.931  0.0278 -0.3023 -0.2151
 2430TIP3    H128849   1.533   3.917   7.963  0.0458  0.2514  1.2988
 2430TIP3    H228850   1.614   3.974   7.849 -0.8507 -1.5873 -0.3190
 2431TIP3   OH228851   5.440   5.730   6.705 -1.0181  0.5571  0.1917
 2431TIP3    H128852   5.433   5.698   6.795 -1.9664  2.3293  0.7976
 2431TIP3    H228853   5.459   5.824   6.714  0.3778  0.4965 -1.4792
 2432TIP3   OH228854   5.319   6.122   7.033  0.3048 -0.3636 -0.8348
 2432TIP3    H128855   5.288   6.031   7.041 -2.9914  0.6805 -0.3527
 2432TIP3    H228856   5.395   6.126   7.090 -1.3871 -2.0874  1.7594
 2433TIP3   OH228857   3.590   2.558   1.278  0.4230  0.6557  0.2366
 2433TIP3    H128858   3.602   2.490   1.344 -0.2311 -1.0848 -1.3291
 2433TIP3    H228859   3.550   2.631   1.325  0.3622 -0.3595  1.8354
 2434TIP3   OH228860   5.550   5.770   7.030 -0.2114  0.0999 -0.2587
 2434TIP3    H128861   5.585   5.855   7.004 -0.2809 -0.4418 -2.2209
 2434TIP3    H228862   5.523   5.783   7.122 -2.1012  2.8150 -1.0613
 2435TIP3   OH228863   4.006   5.393   0.714 -0.2402 -0.1132  0.0671
 2435TIP3    H128864   3.931   5.404   0.772 -0.6518 -0.0599 -0.4695
 2435TIP3    H228865   3.996   5.462   0.648  1.6275  1.5243  1.3914
 2436TIP3   OH228866   2.611   0.805   0.321  0.0023 -0.3508 -0.3932
 2436TIP3    H128867   2.688   0.780   0.270 -0.6545 -1.8496 -0.7041
 2436TIP3    H228868   2.549   0.839   0.258  0.1614  0.2546 -0.2285
 2437TIP3   OH228869   0.164   2.095   7.835  0.8850 -0.5148  0.1066
 2437TIP3    H128870   0.121   2.139   7.909 -0.5889 -1.5578 -0.0679
 2437TIP3    H228871   0.094   2.042   7.796  1.6544 -0.0714 -1.9957
 2438TIP3   OH228872   1.070   4.077   1.639 -0.6556  0.0172 -0.0819
 2438TIP3    H128873   1.049   4.058   1.548  0.4541  0.7401 -0.5091
 2438TIP3    H228874   1.083   3.991   1.679  2.9602 -0.3188 -1.6486
 2439TIP3   OH228875   2.414   5.952   6.996 -0.1571 -0.1362  0.4560
 2439TIP3    H128876   2.486   5.915   6.945 -0.0710 -1.6158  1.5638
 2439TIP3    H228877   2.341   5.892   6.981 -0.8664  0.8025  0.1155
 2440TIP3   OH228878   6.372   4.040   7.788 -0.7031  0.0201 -0.1517
 2440TIP3    H128879   6.356   4.043   7.694 -0.9546 -2.4194 -0.2535
 2440TIP3    H228880   6.290   4.009   7.826 -0.9376  1.9156  1.0286
 2441TIP3   OH228881   3.414   5.618   6.799  0.0983 -0.0303 -0.2444
 2441TIP3    H128882   3.509   5.624   6.805 -0.0720  2.1949  1.5681
 2441TIP3    H228883   3.383   5.705   6.823 -2.4680 -1.2249  1.1296
 2442TIP3   OH228884   1.317   6.694   7.445 -0.0750  0.0798  0.0799
 2442TIP3    H128885   1.296   6.602   7.429  1.8638 -0.5883  0.9655
 2442TIP3    H228886   1.382   6.691   7.516 -1.0999  2.2377  1.1850
 2443TIP3   OH228887   2.908   0.298   8.100  0.7275 -0.1886 -0.3528
 2443TIP3    H128888   2.945   0.378   8.062  3.2313 -2.2303 -2.6094
 2443TIP3    H228889   2.870   0.251   8.025 -0.0867 -1.4104  0.7833
 2444TIP3   OH228890   4.366   2.564   0.795 -0.4160  0.0335 -0.4708
 2444TIP3    H128891   4.405   2.477   0.788 -1.4170 -0.5032  0.3619
 2444TIP3    H228892   4.366   2.583   0.889 -2.0772  0.0324 -0.4372
 2445TIP3   OH228893   3.268   1.330   0.999  0.9233 -0.1759 -0.4727
 2445TIP3    H128894   3.255   1.425   1.010 -0.1357 -0.4937  1.4443
 2445TIP3    H228895   3.358   1.315   1.028  0.8897  0.1698 -0.1730
 2446TIP3   OH228896   3.843   0.836   0.052 -0.3287 -0.1103  0.3428
 2446TIP3    H128897   3.820   0.747   0.078  0.3255 -0.3584  0.0851
 2446TIP3    H228898   3.899   0.825  -0.024  1.6124  0.4096  1.6255
 2447TIP3   OH228899   3.430   4.377   0.438  0.3988  0.1220  0.3390
 2447TIP3    H128900   3.516   4.347   0.408 -0.2264 -2.0976  0.5690
 2447TIP3    H228901   3.397   4.431   0.367  1.7868  0.6497  0.0652
 2448TIP3   OH228902   3.859   2.012   7.149 -0.3394  0.5476  0.3948
 2448TIP3    H128903   3.878   1.998   7.242 -0.5444  3.0334  0.8855
 2448TIP3    H228904   3.777   2.062   7.149 -1.1232 -0.6476 -1.2302
 2449TIP3   OH228905   1.099   0.014   7.202  0.2190 -0.4253 -0.1433
 2449TIP3    H128906   1.191  -0.015   7.197  0.0343 -0.8874 -1.0414
 2449TIP3    H228907   1.095   0.091   7.144  0.3042  0.3416  0.8465
 2450TIP3   OH228908   0.213   5.579   1.144 -0.1680  0.3201  0.2585
 2450TIP3    H128909   0.135   5.613   1.099  0.1496  0.1079 -0.4712
 2450TIP3    H228910   0.262   5.533   1.076  0.0062 -0.5808  0.9721
 2451TIP3   OH228911   5.520   2.673   1.041 -0.5146  0.2260  0.4218
 2451TIP3    H128912   5.549   2.587   1.071 -0.2255  0.2263  0.1569
 2451TIP3    H228913   5.425   2.665   1.031 -0.7292  0.4545  2.0617
 2452TIP3   OH228914   4.319   5.067   7.762 -0.0557  0.1352 -0.4583
 2452TIP3    H128915   4.415   5.071   7.766 -0.0112  1.4963 -1.8350
 2452TIP3    H228916   4.299   4.974   7.749  1.0237 -0.2580  0.5215
 2453TIP3   OH228917   0.853   6.214   0.997 -0.3874 -0.5450 -0.0406
 2453TIP3    H128918   0.911   6.265   0.940 -0.6750  0.9372  0.9426
 2453TIP3    H228919   0.892   6.126   0.999  0.4784 -0.2095 -1.2694
 2454TIP3   OH228920   2.755   6.905   1.332 -0.1948  0.1060 -0.0477
 2454TIP3    H128921   2.749   6.961   1.409  1.5020 -0.4921  0.5527
 2454TIP3    H228922   2.667   6.871   1.320 -0.3294 -0.4003  2.0958
 2455TIP3   OH228923   5.005   4.765   8.237 -0.1151 -0.2482 -0.0539
 2455TIP3    H128924   5.056   4.684   8.232  0.9885  0.2445  1.9617
 2455TIP3    H228925   4.919   4.737   8.271  0.0281 -0.6455 -0.0144
 2456TIP3   OH228926   5.323   4.662   7.726  0.3025 -0.1713  0.3355
 2456TIP3    H128927   5.340   4.597   7.658  0.3426 -0.3537  0.5176
 2456TIP3    H228928   5.227   4.669   7.729  0.2919  2.0067 -1.7741
 2457TIP3   OH228929   6.481   3.368   8.427 -0.2995 -0.0966 -0.7115
 2457TIP3    H128930   6.415   3.372   8.496 -0.7617 -0.8978 -1.0852
 2457TIP3    H228931   6.432   3.344   8.348  0.5510 -1.8215 -0.7779
 2458TIP3   OH228932   5.691   2.242   0.009  0.0906 -0.0595 -0.1346
 2458TIP3    H128933   5.694   2.174   0.076  0.7744  0.2745  0.1833
 2458TIP3    H228934   5.741   2.206  -0.064  2.6935  1.0745  0.9820
 2459TIP3   OH228935   0.301   2.364   7.650  0.0182 -0.4830 -0.4904
 2459TIP3    H128936   0.215   2.397   7.624 -0.5314 -1.3104  0.2437
 2459TIP3    H228937   0.347   2.442   7.683  0.0591  0.2241 -2.1213
 2460TIP3   OH228938   2.064   2.142   6.723 -0.7250  0.4144 -0.4989
 2460TIP3    H128939   2.113   2.214   6.683 -0.8597  1.6599  1.4849
 2460TIP3    H228940   1.995   2.123   6.659  1.8904 -1.0542 -3.1280
 2461TIP3   OH228941   6.703   2.787   8.098 -0.1719 -0.3457 -0.2221
 2461TIP3    H128942   6.683   2.702   8.137 -1.0594  0.7086  1.7497
 2461TIP3    H228943   6.749   2.834   8.166 -0.5597  1.1161 -0.9324
 2462TIP3   OH228944   3.042   3.280   0.591  0.3042 -0.5645  0.2057
 2462TIP3    H128945   3.012   3.243   0.673  0.6518 -1.5043 -0.0789
 2462TIP3    H228946   3.111   3.221   0.561  1.2125  0.5737 -0.0298
 2463TIP3   OH228947   5.905   5.439   0.453  0.1293  0.3599  0.4580
 2463TIP3    H128948   5.905   5.450   0.358 -1.1137 -0.8861  0.2884
 2463TIP3    H228949   5.922   5.346   0.467 -2.3159 -0.0545  1.3060
 2464TIP3   OH228950   0.108   0.510   1.553  0.1547 -0.2472 -0.4224
 2464TIP3    H128951   0.086   0.435   1.608 -0.3927  0.1778 -0.0477
 2464TIP3    H228952   0.053   0.500   1.475 -1.2366  0.6769  0.3989
 2465TIP3   OH228953   2.020   4.012   6.295 -0.8720  0.1864 -0.7698
 2465TIP3    H128954   2.019   3.967   6.379  0.4380  0.5352 -0.5415
 2465TIP3    H228955   1.942   4.067   6.296 -0.5180  0.7102  0.5247
 2466TIP3   OH228956   2.399   4.931   7.066  0.0194  0.0412  0.5174
 2466TIP3    H128957   2.449   4.853   7.040  0.8934 -0.2974  2.8972
 2466TIP3    H228958   2.312   4.917   7.030  0.6906 -1.0610 -0.7781
 2467TIP3   OH228959   3.766   3.650   7.443  0.3077  0.6439 -0.7064
 2467TIP3    H128960   3.788   3.594   7.369 -1.6097 -2.9001  1.1566
 2467TIP3    H228961   3.836   3.635   7.506 -0.0976  0.5105 -0.2836
 2468TIP3   OH228962   6.218   0.902   2.232 -0.6639  0.0790 -0.8808
 2468TIP3    H128963   6.304   0.944   2.227 -1.3238  1.5180 -0.6667
 2468TIP3    H228964   6.233   0.822   2.283  0.4582  0.5419 -0.4569
 2469TIP3   OH228965   1.284   3.797   8.213  0.2177  0.3422 -0.0842
 2469TIP3    H128966   1.323   3.815   8.128  1.1558 -2.1134 -0.2633
 2469TIP3    H228967   1.224   3.725   8.197 -0.6373  0.7546  1.1149
 2470TIP3   OH228968   3.651   6.088   8.017 -0.1589 -0.1614 -0.2355
 2470TIP3    H128969   3.563   6.110   8.049 -0.6477  0.7234 -2.0503
 2470TIP3    H228970   3.641   6.002   7.977 -0.3984  0.2337 -1.0574
 2471TIP3   OH228971   1.640   5.479   0.903 -0.2317 -0.0746  0.4252
 2471TIP3    H128972   1.693   5.465   0.981 -1.3260  0.6250  1.3253
 2471TIP3    H228973   1.584   5.402   0.898 -0.3271 -0.0094  0.4769
 2472TIP3   OH228974   2.204   2.825   0.804  0.0815  0.1622 -0.1494
 2472TIP3    H128975   2.141   2.879   0.758 -0.9847 -1.2041 -0.3798
 2472TIP3    H228976   2.155   2.786   0.876  1.1744  0.5822  0.8597
 2473TIP3   OH228977   2.736   0.660   1.233 -0.2145 -0.1975 -0.5928
 2473TIP3    H128978   2.791   0.596   1.187  0.6765 -0.2148  0.4741
 2473TIP3    H228979   2.797   0.718   1.277 -1.0240  1.0705 -1.0729
 2474TIP3   OH228980   6.058   1.565   7.704  0.3651  0.0182 -0.6447
 2474TIP3    H128981   6.083   1.553   7.796 -0.2010  0.2247 -0.4635
 2474TIP3    H228982   6.136   1.603   7.663  1.4113 -2.0735 -0.7340
 2475TIP3   OH228983   4.822   6.918   0.114  0.1226  0.1989  0.1212
 2475TIP3    H128984   4.847   6.847   0.173  0.1711  0.7506  0.7784
 2475TIP3    H228985   4.762   6.877   0.051  1.0339 -0.6738 -0.2131
 2476TIP3   OH228986   6.728   3.528   7.674  0.5524  0.2914  0.1268
 2476TIP3    H128987   6.677   3.512   7.594  0.0848  0.4097  0.3971
 2476TIP3    H228988   6.758   3.441   7.701  0.3558  0.1983  0.0536
 2477TIP3   OH228989   1.442   4.546   0.023 -0.3822 -0.1317 -0.2755
 2477TIP3    H128990   1.426   4.624   0.076  4.0566  0.8232  0.0554
 2477TIP3    H228991   1.398   4.563  -0.060 -2.2178  1.1801  0.9025
 2478TIP3   OH228992   3.711   4.544   6.394  0.0746  0.5247 -0.0420
 2478TIP3    H128993   3.769   4.572   6.323 -0.1068 -0.6341 -0.6830
 2478TIP3    H228994   3.644   4.612   6.399  0.5352  1.0161 -0.4533
 2479TIP3   OH228995   1.576   4.436   0.224  0.0884  0.7501 -0.4479
 2479TIP3    H128996   1.535   4.478   0.148 -0.9909 -0.8417 -0.8119
 2479TIP3    H228997   1.636   4.371   0.185 -0.2790  0.1026  0.0597
 2480TIP3   OH228998   4.443   2.901   7.391 -0.3094  0.0931  0.0905
 2480TIP3    H128999   4.365   2.870   7.345 -0.0671 -0.2922 -0.0653
 2480TIP3    H229000   4.451   2.843   7.467 -1.0502  1.1035  0.9566
 2481TIP3   OH229001   2.752   3.630   6.723 -0.0706 -0.7818 -0.0322
 2481TIP3    H129002   2.725   3.539   6.733 -1.9048 -0.2741 -0.1105
 2481TIP3    H229003   2.689   3.667   6.661  0.4023  0.6428  0.2997
 2482TIP3   OH229004   2.029   1.987   0.252 -0.2878  0.3018  0.6817
 2482TIP3    H129005   1.938   1.981   0.223 -0.0652 -2.4546  0.2922
 2482TIP3    H229006   2.080   1.990   0.171  0.0364 -0.8919  0.8111
 2483TIP3   OH229007   0.895   5.549   8.179  0.0469  0.3543 -0.5673
 2483TIP3    H129008   0.941   5.615   8.126 -0.2783  0.2324 -1.0131
 2483TIP3    H229009   0.899   5.470   8.126 -1.1945  0.4911 -0.8951
 2484TIP3   OH229010   0.522   5.147   1.279  0.0102 -0.4553  0.4267
 2484TIP3    H129011   0.469   5.078   1.319  0.2485 -0.5153  0.6348
 2484TIP3    H229012   0.495   5.227   1.324  0.7602 -0.6168  1.1806
 2485TIP3   OH229013   3.102   5.997   0.396  0.3544 -0.7895  0.8120
 2485TIP3    H129014   3.162   5.927   0.370  1.5787 -0.1063  1.7036
 2485TIP3    H229015   3.032   5.994   0.330  2.1657 -0.5824 -1.2226
 2486TIP3   OH229016   2.766   3.072   1.562 -0.1641 -0.0955 -0.1835
 2486TIP3    H129017   2.674   3.053   1.579  0.7106 -3.1517  2.0774
 2486TIP3    H229018   2.801   3.102   1.645  1.1726 -0.4711 -0.5788
 2487TIP3   OH229019   6.633   4.152   8.431  0.0260 -0.4885 -0.0638
 2487TIP3    H129020   6.647   4.079   8.370  0.5807  0.5836 -1.2735
 2487TIP3    H229021   6.563   4.122   8.489 -0.4342 -1.6181 -1.1540
 2488TIP3   OH229022   0.194   6.865   0.807  0.2854  0.5543  0.0667
 2488TIP3    H129023   0.266   6.803   0.813 -0.1744  0.0350  0.3178
 2488TIP3    H229024   0.117   6.811   0.787 -0.1377  1.0300  0.3894
 2489TIP3   OH229025   2.973   2.504   8.285  0.1454 -0.7046 -0.0354
 2489TIP3    H129026   2.930   2.501   8.371  1.6404  0.9589  0.8316
 2489TIP3    H229027   2.929   2.575   8.239 -0.4745 -1.4219 -0.5835
 2490TIP3   OH229028   0.892   4.183   0.790 -0.4302  0.1707  0.7748
 2490TIP3    H129029   0.906   4.188   0.885 -1.9565  1.0434  0.9821
 2490TIP3    H229030   0.936   4.260   0.756  2.3462 -1.4324  0.4077
 2491TIP3   OH229031   1.261   4.669   7.011  0.3988  0.3518  0.5105
 2491TIP3    H129032   1.170   4.666   7.039 -0.0951  2.1897 -0.6933
 2491TIP3    H229033   1.302   4.735   7.067  1.7540 -2.2785  2.8378
 2492TIP3   OH229034   0.793   4.114   7.083  0.1150 -0.0486 -0.4104
 2492TIP3    H129035   0.826   4.030   7.050  1.1584 -0.7102  2.0785
 2492TIP3    H229036   0.822   4.178   7.018  1.1738 -1.3571 -1.2871
 2493TIP3   OH229037   4.828   4.506   1.970 -0.8824 -0.1652  0.9972
 2493TIP3    H129038   4.833   4.588   2.018 -1.1542 -0.0733  0.8682
 2493TIP3    H229039   4.888   4.447   2.017 -1.9407 -0.4080  2.1005
 2494TIP3   OH229040   1.723   3.259   6.272 -0.0535 -0.2652 -0.0105
 2494TIP3    H129041   1.671   3.228   6.198  1.0093 -1.1401 -0.4160
 2494TIP3    H229042   1.658   3.284   6.338 -0.9985 -0.1640 -0.9569
 2495TIP3   OH229043   6.564   5.710   2.035  0.1899 -0.1670  0.4369
 2495TIP3    H129044   6.655   5.733   2.049 -0.7289  3.5492  1.4390
 2495TIP3    H229045   6.530   5.687   2.121 -0.4732  1.4501  0.6338
 2496TIP3   OH229046   0.901   5.096   1.641  0.1816  0.0083  0.1432
 2496TIP3    H129047   0.963   5.077   1.571  0.0142  0.0564 -0.0208
 2496TIP3    H229048   0.929   5.180   1.676 -0.6539  0.7574 -0.9148
 2497TIP3   OH229049   2.887   3.419   0.222  0.0591  0.1947  0.4552
 2497TIP3    H129050   2.844   3.346   0.177 -1.5037 -0.0171  2.1819
 2497TIP3    H229051   2.940   3.378   0.290  0.7192  0.5944  0.1876
 2498TIP3   OH229052   5.753   6.664   0.334 -0.3158 -0.1036 -0.5535
 2498TIP3    H129053   5.807   6.743   0.337  0.8688 -0.9154  1.6266
 2498TIP3    H229054   5.808   6.599   0.290 -0.2363 -0.4309  0.0232
 2499TIP3   OH229055   4.223   3.550   6.754 -0.1745 -0.0829  0.0779
 2499TIP3    H129056   4.241   3.644   6.756 -1.4378  0.1859 -0.2762
 2499TIP3    H229057   4.143   3.539   6.806 -1.4113 -0.6029 -1.8132
 2500TIP3   OH229058   3.683   3.568   5.992  0.4394  0.2938 -0.0466
 2500TIP3    H129059   3.644   3.499   5.939 -0.3449  0.7834 -0.1261
 2500TIP3    H229060   3.610   3.627   6.011  0.9710  0.7744  0.5335
 2501TIP3   OH229061   0.308   0.348   8.469  0.3624  0.0656  0.1541
 2501TIP3    H129062   0.260   0.425   8.500 -0.0471  0.4045 -1.2206
 2501TIP3    H229063   0.393   0.383   8.442  0.6457 -0.1867  0.7242
 2502TIP3   OH229064   4.339   4.226   1.023 -0.2320 -0.3143  0.0685
 2502TIP3    H129065   4.374   4.294   0.965  1.2534 -2.3384 -1.5517
 2502TIP3    H229066   4.416   4.186   1.063 -1.0990 -0.7734  1.3557
 2503TIP3   OH229067   5.538   1.339   8.554  0.7506 -0.0575 -0.7543
 2503TIP3    H129068   5.570   1.418   8.596 -0.0457 -0.5738  0.9042
 2503TIP3    H229069   5.577   1.267   8.604 -1.5107 -0.7040  0.2414
 2504TIP3   OH229070   4.727   4.677   0.762 -0.2445  0.5594 -0.1639
 2504TIP3    H129071   4.646   4.629   0.740 -0.8344  2.1979 -1.8233
 2504TIP3    H229072   4.706   4.724   0.842 -0.3608 -0.3003  0.3228
 2505TIP3   OH229073   1.924   6.227   0.581 -0.1229  0.5007  0.3944
 2505TIP3    H129074   1.991   6.167   0.547 -0.6331 -0.0089  0.2873
 2505TIP3    H229075   1.900   6.281   0.505 -0.2124  0.3340  0.3039
 2506TIP3   OH229076   6.541   3.640   0.127 -0.1387  0.3051 -0.1271
 2506TIP3    H129077   6.566   3.697   0.199  0.7920 -0.7175  0.3843
 2506TIP3    H229078   6.550   3.552   0.162 -1.8923 -0.1727 -0.7945
 2507TIP3   OH229079   1.451   1.010   1.102 -0.2298 -0.6041  0.2986
 2507TIP3    H129080   1.489   1.085   1.055 -0.6364 -1.1366 -0.9317
 2507TIP3    H229081   1.527   0.954   1.122  0.1216  0.2693  1.5387
 2508TIP3   OH229082   0.356   4.794   0.945  0.1922 -0.4335  0.4305
 2508TIP3    H129083   0.435   4.799   0.999 -0.4325 -0.7518  1.3967
 2508TIP3    H229084   0.289   4.759   1.004 -1.4280  2.4453  0.5052
 2509TIP3   OH229085   0.386   0.811   1.462  0.6083  0.3965 -0.1334
 2509TIP3    H129086   0.307   0.853   1.426  0.8390  0.5654 -0.4534
 2509TIP3    H229087   0.441   0.885   1.489  0.2204  0.2727  1.0742
 2510TIP3   OH229088   2.739   5.967   8.139 -0.4913 -0.3636  0.0050
 2510TIP3    H129089   2.806   5.927   8.193 -2.2696 -1.4805  1.5102
 2510TIP3    H229090   2.701   6.035   8.195 -1.9271 -1.1005 -0.0372
 2511TIP3   OH229091   6.309   5.652   6.699  0.4653 -0.6042  0.1442
 2511TIP3    H129092   6.287   5.725   6.642 -0.6360  0.3893  1.7424
 2511TIP3    H229093   6.401   5.666   6.722  0.2025  0.4518  0.6276
 2512TIP3   OH229094   3.035   4.485   0.566 -0.1177  0.3935  0.6603
 2512TIP3    H129095   3.059   4.569   0.605  0.2399 -0.1137  1.5616
 2512TIP3    H229096   3.025   4.504   0.473  0.0832  1.4050  0.8289
 2513TIP3   OH229097   4.800   4.748   1.676  0.4981  0.4494 -0.4929
 2513TIP3    H129098   4.725   4.702   1.639  0.2502  0.4925 -0.0520
 2513TIP3    H229099   4.857   4.764   1.602  0.5033 -0.4068 -0.6887
 2514TIP3   OH229100   4.664   4.638   8.056 -0.7330 -0.1523  0.8445
 2514TIP3    H129101   4.676   4.724   8.016 -1.0945  0.1028  1.2708
 2514TIP3    H229102   4.592   4.598   8.007 -0.3089 -0.3680  0.3972
 2515TIP3   OH229103   5.321   0.256   0.690 -0.0159  0.0736 -0.3604
 2515TIP3    H129104   5.412   0.287   0.683 -0.4149  1.1645 -0.8907
 2515TIP3    H229105   5.304   0.214   0.606 -0.7129  1.9218 -1.2091
 2516TIP3   OH229106   2.913   5.735   6.657 -0.0312  0.3785 -0.5133
 2516TIP3    H129107   2.916   5.642   6.636 -2.4578  0.4587 -1.5169
 2516TIP3    H229108   2.823   5.751   6.687  0.4222  2.3294 -0.0213
 2517TIP3   OH229109   1.103   5.335   1.443  0.5741 -0.5603 -0.6655
 2517TIP3    H129110   1.198   5.334   1.433  0.5054 -1.9573 -1.2794
 2517TIP3    H229111   1.076   5.245   1.430 -0.8183 -0.2351 -0.1904
 2518TIP3   OH229112   0.066   3.202   0.534 -0.9922 -0.1955 -0.1734
 2518TIP3    H129113   0.025   3.288   0.541 -2.1832 -0.7966  0.5313
 2518TIP3    H229114   0.139   3.215   0.473 -0.9381  1.3745  0.1825
 2519TIP3   OH229115   1.218   2.796   0.198 -0.4032 -0.3147 -0.1513
 2519TIP3    H129116   1.225   2.707   0.232 -1.3813 -0.4873 -0.3579
 2519TIP3    H229117   1.124   2.808   0.182 -0.4164  1.0612  0.7095
 2520TIP3   OH229118   1.056   4.200   6.837 -0.9357 -0.2185  0.3863
 2520TIP3    H129119   0.964   4.219   6.857 -0.4782  0.0980  2.4594
 2520TIP3    H229120   1.058   4.106   6.820 -1.6766 -0.1863  0.1025
 2521TIP3   OH229121   6.887   4.584   7.823  0.4899 -0.0095 -0.0666
 2521TIP3    H129122   6.840   4.581   7.906 -0.5790  1.0368 -0.6137
 2521TIP3    H229123   6.954   4.651   7.835 -0.3213  0.8706 -0.3638
 2522TIP3   OH229124   0.952   1.792   0.073  0.2877  0.3827 -0.5478
 2522TIP3    H129125   0.996   1.763   0.153  0.7881  2.9938  0.2274
 2522TIP3    H229126   1.023   1.821   0.016 -0.1844  0.4256 -1.1171
 2523TIP3   OH229127   5.592   5.207   0.588  0.2586 -0.1800  0.0810
 2523TIP3    H129128   5.681   5.186   0.615  1.0731  3.6704  1.0049
 2523TIP3    H229129   5.547   5.229   0.670 -0.4077  1.3947 -0.6641
 2524TIP3   OH229130   4.123   1.414   7.797  0.5122 -0.1256  0.0100
 2524TIP3    H129131   4.189   1.483   7.789  0.8224 -0.1713  1.7727
 2524TIP3    H229132   4.064   1.428   7.723  0.4904  2.1121  0.4048
 2525TIP3   OH229133   6.089   5.575   8.382 -0.4888  0.1131 -0.1638
 2525TIP3    H129134   6.157   5.508   8.386  1.1574  1.7301  0.1268
 2525TIP3    H229135   6.096   5.611   8.293 -1.3007 -0.0250 -0.2919
 2526TIP3   OH229136   1.831   2.163   2.343 -0.5044  0.2486 -0.1546
 2526TIP3    H129137   1.921   2.193   2.354 -0.5546  0.2405  0.3159
 2526TIP3    H229138   1.778   2.237   2.371 -0.6585  0.5946 -1.3373
 2527TIP3   OH229139   1.283   2.391   6.803 -0.0470  0.0421 -0.0618
 2527TIP3    H129140   1.230   2.466   6.777 -0.6861 -1.1256 -2.4438
 2527TIP3    H229141   1.260   2.374   6.894 -0.5940  2.1144  0.2213
 2528TIP3   OH229142   4.264   5.270   8.428  0.1313  0.4092 -0.2824
 2528TIP3    H129143   4.226   5.186   8.402 -1.4973  1.0192  0.0372
 2528TIP3    H229144   4.353   5.248   8.457  0.0808 -1.0445 -1.1533
 2529TIP3   OH229145   0.075   6.799   8.407  0.0343  0.0455 -0.4518
 2529TIP3    H129146   0.053   6.716   8.448  1.1405 -0.2169 -0.3626
 2529TIP3    H229147   0.010   6.861   8.441 -0.0489 -0.5153  0.4341
 2530TIP3   OH229148   1.364   4.472   7.996 -0.1909  0.3721  0.3780
 2530TIP3    H129149   1.342   4.480   7.903 -0.1457 -4.6512 -0.3689
 2530TIP3    H229150   1.459   4.476   7.999 -0.1817  0.3292  0.1602
 2531TIP3   OH229151   5.355   0.376   6.353 -0.9177 -0.2604  0.1139
 2531TIP3    H129152   5.422   0.312   6.378  1.0415  2.0852  1.4030
 2531TIP3    H229153   5.307   0.394   6.434 -1.7082 -0.3601 -0.3191
 2532TIP3   OH229154   4.411   3.078   1.823  0.2615 -0.0987 -0.5043
 2532TIP3    H129155   4.321   3.091   1.793  0.3521 -1.2652 -1.3503
 2532TIP3    H229156   4.411   2.989   1.859  0.8008  0.3280  0.5962
 2533TIP3   OH229157   1.470   5.976   1.803 -0.1073 -0.4604 -0.4309
 2533TIP3    H129158   1.496   6.044   1.865  3.2105 -2.1383  0.2977
 2533TIP3    H229159   1.383   5.949   1.832 -0.0981  1.1642  1.3283
 2534TIP3   OH229160   3.129   1.238   7.337 -0.1724 -0.6385  0.4739
 2534TIP3    H129161   3.175   1.162   7.301 -0.7071 -0.0680 -1.5667
 2534TIP3    H229162   3.136   1.305   7.269 -1.8840  0.2845  1.1388
 2535TIP3   OH229163   0.804   4.174   7.729 -0.0460 -0.2269 -0.2575
 2535TIP3    H129164   0.826   4.120   7.653  1.0175 -1.0364  0.5897
 2535TIP3    H229165   0.718   4.142   7.757 -0.1647 -0.3498 -0.7481
 2536TIP3   OH229166   6.670   2.661   2.190  0.2611 -0.2115 -0.4854
 2536TIP3    H129167   6.628   2.577   2.208  1.5690 -0.6551  0.7872
 2536TIP3    H229168   6.697   2.656   2.099 -0.6874 -0.6979 -0.7517
 2537TIP3   OH229169   5.011   4.180   2.606 -0.3067 -0.4224 -0.7733
 2537TIP3    H129170   4.947   4.219   2.665  0.5197 -2.3497  1.5747
 2537TIP3    H229171   4.997   4.086   2.613  2.7154 -0.9380 -0.1133
 2538TIP3   OH229172   4.953   0.824   8.476 -0.3755 -0.5479  0.1089
 2538TIP3    H129173   4.875   0.870   8.443  0.6623  1.1508 -0.0872
 2538TIP3    H229174   4.986   0.777   8.400  0.8906  1.7827 -0.8918
 2539TIP3   OH229175   0.188   0.044   7.975  0.1742 -0.0719 -0.2853
 2539TIP3    H129176   0.120  -0.017   8.005  0.3287 -1.4654 -2.5195
 2539TIP3    H229177   0.229   0.075   8.056 -3.1350  0.9465  1.1735
 2540TIP3   OH229178   1.704   2.763   0.531 -0.0933  0.0487 -0.0109
 2540TIP3    H129179   1.627   2.712   0.506 -0.0619 -0.4321  0.8500
 2540TIP3    H229180   1.669   2.841   0.575 -0.1082  0.2793 -0.4234
 2541TIP3   OH229181   4.894   0.200   1.703 -0.4878  0.1608  0.1873
 2541TIP3    H129182   4.842   0.161   1.634  2.1172 -2.6629 -0.4023
 2541TIP3    H229183   4.873   0.150   1.781  0.7109 -0.5253  0.0979
 2542TIP3   OH229184   6.879   0.683   2.064  0.5082  0.1394 -0.0840
 2542TIP3    H129185   6.792   0.696   2.024  1.0139 -0.0758 -1.2937
 2542TIP3    H229186   6.869   0.604   2.117  0.0922 -0.1881 -0.6327
 2543TIP3   OH229187   1.756   1.039   1.659  0.3843 -0.2547  0.3000
 2543TIP3    H129188   1.739   1.070   1.748  1.7592  1.2093  0.1107
 2543TIP3    H229189   1.750   0.944   1.665 -0.9329 -0.1195  1.6380
 2544TIP3   OH229190   5.386   4.676   0.276  0.0067 -0.0040 -0.0511
 2544TIP3    H129191   5.456   4.642   0.333  1.4175  0.1195 -1.6346
 2544TIP3    H229192   5.427   4.683   0.190 -2.0142  0.0072 -1.0576
 2545TIP3   OH229193   3.470   5.993   0.506  0.3711 -0.5633 -0.0149
 2545TIP3    H129194   3.435   5.904   0.496  1.4973 -1.1675  1.1710
 2545TIP3    H229195   3.392   6.048   0.516 -0.4854 -0.9984 -3.2976
 2546TIP3   OH229196   3.251   5.640   1.451 -0.3702 -0.3479  0.1059
 2546TIP3    H129197   3.181   5.670   1.509 -1.5553 -2.2107 -0.2879
 2546TIP3    H229198   3.226   5.671   1.364 -0.0691  0.0022  0.1402
 2547TIP3   OH229199   3.036   3.894   0.903  0.1760  0.5329  0.1716
 2547TIP3    H129200   2.987   3.955   0.958 -1.4004  0.0211 -0.6027
 2547TIP3    H229201   3.089   3.843   0.965  0.3957  1.6637  0.9503
 2548TIP3   OH229202   2.773   2.575   6.588  0.4313 -0.0698  0.3253
 2548TIP3    H129203   2.868   2.590   6.592  0.4131 -0.0804  0.8507
 2548TIP3    H229204   2.758   2.505   6.652 -0.1137  0.8392  1.2233
 2549TIP3   OH229205   3.594   3.249   1.970 -0.2172 -0.1373 -0.1483
 2549TIP3    H129206   3.645   3.230   1.891 -0.9678 -0.0599 -0.6589
 2549TIP3    H229207   3.508   3.275   1.937 -0.4924  0.0303  0.6941
 2550TIP3   OH229208   0.106   1.259   1.408 -0.2649  0.3756 -0.1657
 2550TIP3    H129209   0.085   1.352   1.414 -0.4226  0.5852 -2.8888
 2550TIP3    H229210   0.037   1.222   1.353  0.2982 -1.1890  0.1264
 2551TIP3   OH229211   3.465   4.741   0.330 -0.8323  0.1016  0.0054
 2551TIP3    H129212   3.432   4.822   0.292 -1.2141  0.6428  1.4162
 2551TIP3    H229213   3.416   4.671   0.286 -0.2552  0.5835 -1.4690
 2552TIP3   OH229214   0.339   6.148   7.520 -0.0480  0.4959 -0.4394
 2552TIP3    H129215   0.426   6.108   7.518 -0.5800 -1.1644  2.6451
 2552TIP3    H229216   0.341   6.208   7.595 -1.8032 -0.4171  0.4126
 2553TIP3   OH229217   0.366   6.442   1.823  0.6150  0.1833  0.0379
 2553TIP3    H129218   0.435   6.389   1.862 -0.4518 -0.7208  0.7655
 2553TIP3    H229219   0.336   6.498   1.894 -0.9490 -1.0647  0.4245
 2554TIP3   OH229220   6.047   3.495   8.392 -0.2300  0.6200  0.0239
 2554TIP3    H129221   5.966   3.462   8.354  0.0155  0.1379 -0.0853
 2554TIP3    H229222   6.083   3.554   8.326  1.0906 -1.5231 -1.3012
 2555TIP3   OH229223   6.910   0.179   0.972 -0.5109  0.3847 -0.3305
 2555TIP3    H129224   6.849   0.149   1.040  0.5389 -1.8294 -0.2738
 2555TIP3    H229225   6.996   0.168   1.012  0.0157  2.6168 -0.7310
 2556TIP3   OH229226   3.961   5.814   6.847 -0.0810  0.4206 -0.0807
 2556TIP3    H129227   4.043   5.774   6.877 -0.6525  0.1412  1.1957
 2556TIP3    H229228   3.903   5.808   6.923 -1.4764  0.0821 -1.1467
 2557TIP3   OH229229   0.714   6.262   0.704  0.2737  0.1175  0.1808
 2557TIP3    H129230   0.667   6.246   0.786 -1.4322  1.4572 -0.4754
 2557TIP3    H229231   0.803   6.284   0.732 -0.5272  1.6100  1.8016
 2558TIP3   OH229232   4.103   0.767   1.120 -0.3215 -0.8248 -0.0760
 2558TIP3    H129233   4.112   0.860   1.100 -0.4204 -1.1991 -2.1270
 2558TIP3    H229234   4.192   0.739   1.143  0.1551 -0.6321 -1.5595
 2559TIP3   OH229235   1.038   4.251   7.341  0.3922  0.0606 -0.1175
 2559TIP3    H129236   0.952   4.288   7.322  0.2086 -0.5605 -0.5350
 2559TIP3    H229237   1.086   4.262   7.259  1.2303  1.7576  0.5443
 2560TIP3   OH229238   6.145   3.963   7.921 -0.0132 -0.0792 -0.0782
 2560TIP3    H129239   6.134   3.953   8.016  2.3093 -1.6614  0.1096
 2560TIP3    H229240   6.095   3.892   7.883  0.6982 -0.7081  0.1253
 2561TIP3   OH229241   3.810   5.190   6.470 -0.2020  0.3437 -0.0422
 2561TIP3    H129242   3.795   5.282   6.446 -0.3817  0.5451  0.8118
 2561TIP3    H229243   3.905   5.182   6.473 -0.0062 -0.4472 -3.6050
 2562TIP3   OH229244   0.691   5.240   6.696  0.1752 -0.6270  0.0531
 2562TIP3    H129245   0.639   5.198   6.628 -0.5696  0.0070  0.2072
 2562TIP3    H229246   0.696   5.332   6.669  0.7969 -0.5852  0.3003
 2563TIP3   OH229247   3.589   4.770   2.222  0.1752 -0.2492 -0.7274
 2563TIP3    H129248   3.533   4.848   2.215 -1.0684 -1.1386 -1.1169
 2563TIP3    H229249   3.559   4.713   2.150  1.3818 -0.8928 -0.7470
 2564TIP3   OH229250   1.898   4.210   2.613  0.2814 -0.1114  0.0241
 2564TIP3    H129251   1.857   4.238   2.531 -1.1873  0.9717  1.0707
 2564TIP3    H229252   1.930   4.291   2.653  1.7281 -0.7185  0.1821
 2565TIP3   OH229253   5.018   5.729   8.266 -0.0783  0.4504  0.7836
 2565TIP3    H129254   5.086   5.684   8.316 -0.0050 -1.3154 -0.7753
 2565TIP3    H229255   5.057   5.812   8.241  0.5255  0.5851  2.1160
 2566TIP3   OH229256   0.843   2.075   0.708  0.3670 -0.1382 -0.1980
 2566TIP3    H129257   0.785   2.069   0.784  1.3440 -0.7366  0.5228
 2566TIP3    H229258   0.928   2.099   0.745  0.6515  0.4452 -1.2093
 2567TIP3   OH229259   4.273   3.734   0.543 -0.2901  0.6254  0.4310
 2567TIP3    H129260   4.228   3.774   0.617  1.1352  0.8499  1.2148
 2567TIP3    H229261   4.354   3.699   0.580  0.1945  0.2492 -0.9208
 2568TIP3   OH229262   0.028   2.227   0.374  0.2347 -0.1285  0.1463
 2568TIP3    H129263   0.009   2.146   0.421 -1.8918  1.2296  1.8736
 2568TIP3    H229264  -0.027   2.224   0.296  1.7645 -1.2187 -0.9412
 2569TIP3   OH229265   4.727   2.533   0.204  0.3889  0.4926 -0.0374
 2569TIP3    H129266   4.793   2.594   0.170  1.3757 -0.2819  0.4514
 2569TIP3    H229267   4.722   2.553   0.297  3.4903 -2.5403  0.9827
 2570TIP3   OH229268   1.770   6.538   8.194 -0.7160  0.4516 -0.1285
 2570TIP3    H129269   1.824   6.583   8.129 -0.0055 -0.8671 -0.4836
 2570TIP3    H229270   1.694   6.595   8.206  1.6127  3.4440  1.8880
 2571TIP3   OH229271   4.502   6.890   1.047 -0.1409 -0.6629  0.0437
 2571TIP3    H129272   4.454   6.971   1.029 -0.1392 -0.7218 -0.2292
 2571TIP3    H229273   4.455   6.851   1.120  0.9744  0.5228  1.4722
 2572TIP3   OH229274   5.852   5.090   0.885  0.7463  0.1007 -0.4296
 2572TIP3    H129275   5.842   5.173   0.839  0.5119 -1.0180 -2.4853
 2572TIP3    H229276   5.874   5.027   0.817  0.7779 -1.5671  1.0621
 2573TIP3   OH229277   1.435   1.262   0.946  0.0300  0.1307  0.7870
 2573TIP3    H129278   1.385   1.343   0.942 -2.0035 -0.8000  3.9335
 2573TIP3    H229279   1.378   1.196   0.906 -0.5747 -0.5806  2.6846
 2574TIP3   OH229280   6.086   4.862   7.926 -0.3438 -0.1649  0.1722
 2574TIP3    H129281   6.072   4.777   7.968  0.5095 -1.2382 -1.6139
 2574TIP3    H229282   6.152   4.905   7.980 -0.5353 -0.7663  0.9031
 2575TIP3   OH229283   2.742   2.525   8.081  0.0897  0.8647 -0.4199
 2575TIP3    H129284   2.706   2.509   7.994 -0.3451  1.2853 -0.3250
 2575TIP3    H229285   2.739   2.440   8.125 -0.2210  0.7696 -0.6226
 2576TIP3   OH229286   0.431   5.642   8.156 -0.1619 -0.0745 -0.0500
 2576TIP3    H129287   0.481   5.569   8.120 -0.1332 -0.8550  1.4997
 2576TIP3    H229288   0.479   5.720   8.129  2.2064 -0.8005  1.7847
 2577TIP3   OH229289   6.205   4.390   2.147 -0.3606  0.1197  0.5259
 2577TIP3    H129290   6.182   4.298   2.131 -1.3930  0.1725  1.4894
 2577TIP3    H229291   6.153   4.413   2.225 -1.3972  1.9982 -0.6553
 2578TIP3   OH229292   4.393   0.509   8.457  0.2831  0.4902  0.3117
 2578TIP3    H129293   4.333   0.434   8.460 -0.8457  1.3718  0.7614
 2578TIP3    H229294   4.337   0.583   8.434  1.6213  0.9889 -1.5954
 2579TIP3   OH229295   6.633   2.357   0.363  0.0179  0.4827  0.6018
 2579TIP3    H129296   6.619   2.421   0.293 -0.6965  1.2064  1.3801
 2579TIP3    H229297   6.681   2.285   0.321 -2.0233  0.0247 -1.1130
 2580TIP3   OH229298   0.378   2.708   8.155  0.3705 -0.0893 -0.8902
 2580TIP3    H129299   0.341   2.675   8.237  0.2431  0.5275 -0.6987
 2580TIP3    H229300   0.338   2.794   8.143  2.8413  1.2975  0.1134
 2581TIP3   OH229301   4.494   4.769   1.432 -0.8097  0.0109  0.4558
 2581TIP3    H129302   4.515   4.732   1.518  0.4047  0.4956  0.3774
 2581TIP3    H229303   4.565   4.741   1.375 -1.2035  0.3351 -0.2076
 2582TIP3   OH229304   5.610   0.771   1.118  0.3607  0.0668  0.4410
 2582TIP3    H129305   5.523   0.800   1.145  0.8356  1.8122  0.2205
 2582TIP3    H229306   5.615   0.796   1.025 -0.4484 -3.8775 -0.8647
 2583TIP3   OH229307   4.140   3.887   0.223  0.6042  0.0706 -0.2892
 2583TIP3    H129308   4.176   3.959   0.275  1.4548 -0.3985 -0.2163
 2583TIP3    H229309   4.101   3.828   0.288 -0.3694  0.5958 -0.3703
 2584TIP3   OH229310   3.345   4.386   8.341 -0.2365 -0.4231 -0.1724
 2584TIP3    H129311   3.313   4.299   8.368 -1.1416  0.0317  0.2686
 2584TIP3    H229312   3.438   4.373   8.323 -0.0740 -1.2154  1.1317
 2585TIP3   OH229313   1.862   4.946   8.245 -0.3417 -0.0314  0.0642
 2585TIP3    H129314   1.911   4.867   8.223  0.7986  0.0597  2.0160
 2585TIP3    H229315   1.914   5.018   8.208 -1.4079 -0.1695 -1.7575
 2586TIP3   OH229316   5.868   3.970   1.818  0.1667  0.2693  0.2109
 2586TIP3    H129317   5.787   3.967   1.767  0.3755 -2.1476 -0.0844
 2586TIP3    H229318   5.882   3.880   1.846  3.3965  0.3144 -0.7947
 2587TIP3   OH229319   1.201   1.640   0.068  0.0912 -0.4899 -0.1307
 2587TIP3    H129320   1.255   1.590   0.007 -0.7778 -1.2054 -0.3361
 2587TIP3    H229321   1.114   1.600   0.061 -0.2580  0.0735  0.8313
 2588TIP3   OH229322   1.092   5.093   0.892 -0.0971  0.0839 -0.2443
 2588TIP3    H129323   1.177   5.057   0.915  0.0563 -0.2623 -1.3105
 2588TIP3    H229324   1.032   5.019   0.895 -0.5939  0.5086  1.5158
 2589TIP3   OH229325   4.433   6.699   6.459 -0.1669  0.1965 -0.2525
 2589TIP3    H129326   4.394   6.619   6.492 -1.0998  0.9001  0.4078
 2589TIP3    H229327   4.495   6.670   6.392 -1.2998 -1.0091 -0.8241
 2590TIP3   OH229328   6.295   3.400   7.390 -0.1204 -0.4292  0.1899
 2590TIP3    H129329   6.376   3.390   7.341  0.7203  0.8802  1.2416
 2590TIP3    H229330   6.268   3.491   7.374 -0.5096 -0.3644  1.1258
 2591TIP3   OH229331   3.729   2.144   6.587  0.4687 -0.0655 -0.2388
 2591TIP3    H129332   3.801   2.148   6.649  0.8975  1.6704 -0.8050
 2591TIP3    H229333   3.665   2.207   6.620 -0.8446 -1.6049  0.2725
 2592TIP3   OH229334   5.100   2.201   0.777  0.1037 -0.1354  0.4249
 2592TIP3    H129335   5.027   2.148   0.745 -0.4687  1.6208 -1.3825
 2592TIP3    H229336   5.060   2.285   0.800  1.4249  0.5698  0.2174
 2593TIP3   OH229337   4.710   1.636   8.540 -0.1444  0.7717  0.0178
 2593TIP3    H129338   4.662   1.719   8.540  0.8292  1.3915 -1.6074
 2593TIP3    H229339   4.664   1.582   8.475 -1.4132 -0.4008  1.8238
 2594TIP3   OH229340   0.047   1.910   0.800  0.5751 -0.2098  0.1108
 2594TIP3    H129341   0.110   1.953   0.858 -0.5401  0.5564  0.7874
 2594TIP3    H229342  -0.026   1.972   0.793 -0.9915 -1.8827  0.9233
 2595TIP3   OH229343   1.435   1.925   7.359 -0.4770  0.3452  0.3768
 2595TIP3    H129344   1.450   1.937   7.452 -2.2502 -0.1699  0.7701
 2595TIP3    H229345   1.488   1.993   7.317  1.0489  0.0242  1.6778
 2596TIP3   OH229346   5.359   0.285   7.898 -0.1378  0.4494 -0.2672
 2596TIP3    H129347   5.332   0.269   7.988  1.4507  0.5286  0.2515
 2596TIP3    H229348   5.334   0.376   7.882 -2.3829 -0.1708 -0.6885
 2597TIP3   OH229349   5.009   6.607   6.561  0.2437  0.1117  0.3511
 2597TIP3    H129350   5.011   6.677   6.627 -2.0223 -0.0973  0.7249
 2597TIP3    H229351   4.952   6.641   6.492  2.8049  0.4504 -1.7532
 2598TIP3   OH229352   3.155   5.178   1.289  0.8771  0.0714  0.4796
 2598TIP3    H129353   3.169   5.102   1.345  3.3983 -1.1181 -1.5378
 2598TIP3    H229354   3.182   5.253   1.344 -0.8233 -0.5031  2.2001
 2599TIP3   OH229355   2.550   1.528   7.576  0.4877 -0.5498  0.2553
 2599TIP3    H129356   2.510   1.508   7.661  0.5798 -0.6318  0.2794
 2599TIP3    H229357   2.595   1.612   7.590  1.2203 -0.9788  0.5284
 2600TIP3   OH229358   0.733   3.967   2.132 -0.1066  0.5038  0.1111
 2600TIP3    H129359   0.706   3.954   2.041 -0.3601  1.4218  0.0396
 2600TIP3    H229360   0.829   3.957   2.130 -0.1982 -0.4234 -0.0697
 2601TIP3   OH229361   3.583   6.657   0.919  0.0908 -0.1200 -0.3595
 2601TIP3    H129362   3.677   6.643   0.928 -0.1639 -1.0336  1.4418
 2601TIP3    H229363   3.546   6.568   0.915 -0.6034  0.1755 -3.1627
 2602TIP3   OH229364   0.967   1.102   7.819  0.3345  0.1151  0.4222
 2602TIP3    H129365   0.966   1.086   7.724  2.3346  2.1343 -0.0361
 2602TIP3    H229366   1.046   1.056   7.849  0.5262  0.6977  0.8243
 2603TIP3   OH229367   3.512   2.498   1.031 -0.0700  0.1934 -0.1027
 2603TIP3    H129368   3.555   2.499   1.117  1.1571  1.5013 -0.6962
 2603TIP3    H229369   3.462   2.579   1.028 -0.7453 -0.2223 -0.3424
 2604TIP3   OH229370   2.533   4.772   6.839 -0.0952  0.9422  0.2505
 2604TIP3    H129371   2.607   4.798   6.784 -1.2466  0.6278 -1.5412
 2604TIP3    H229372   2.557   4.685   6.871  0.2288  0.7446 -0.5032
 2605TIP3   OH229373   5.248   4.399   1.207 -0.6662  0.2447  0.3106
 2605TIP3    H129374   5.288   4.351   1.279 -0.5536  1.1891  0.9013
 2605TIP3    H229375   5.303   4.379   1.131 -0.2998 -0.1181  0.6685
 2606TIP3   OH229376   1.026   4.468   7.575  0.0139 -0.3474 -0.0553
 2606TIP3    H129377   1.064   4.436   7.493  1.6243  1.3291 -0.0407
 2606TIP3    H229378   0.935   4.438   7.573  0.7198 -2.6415 -1.1602
 2607TIP3   OH229379   3.169   0.160   8.534  0.4798 -0.3517  0.5630
 2607TIP3    H129380   3.136   0.233   8.482  2.1082  0.2312  0.3181
 2607TIP3    H229381   3.155   0.186   8.625 -0.4992 -0.4932  0.4663
 2608TIP3   OH229382   1.063   2.768   7.592 -0.7350  0.1986  0.3127
 2608TIP3    H129383   1.067   2.712   7.670 -0.4712 -1.3317 -0.7439
 2608TIP3    H229384   1.144   2.747   7.544 -1.3690  0.3331 -0.8521
 2609TIP3   OH229385   4.176   6.194   7.746 -0.3302  0.1413 -0.2770
 2609TIP3    H129386   4.227   6.149   7.813 -0.6297  1.4528  0.8711
 2609TIP3    H229387   4.230   6.189   7.667  0.2760 -0.9426  0.1948
 2610TIP3   OH229388   2.813   4.850   7.919 -0.3430 -0.5363 -0.2092
 2610TIP3    H129389   2.844   4.765   7.951  0.9581  0.6318  1.8439
 2610TIP3    H229390   2.720   4.836   7.902  0.4183 -3.1574 -2.9885
 2611TIP3   OH229391   5.920   3.670   1.115 -0.8033 -0.4926  0.3709
 2611TIP3    H129392   5.851   3.607   1.097  0.2418 -0.9315 -2.6134
 2611TIP3    H229393   6.001   3.624   1.093  0.3268  0.7034  1.7572
 2612TIP3   OH229394   2.354   2.597   6.759 -0.5331  0.2992 -0.6153
 2612TIP3    H129395   2.432   2.618   6.709 -0.7308  1.6735 -0.3916
 2612TIP3    H229396   2.310   2.529   6.708 -0.4513  1.2785 -2.0241
 2613TIP3   OH229397   3.088   0.252   7.156  0.0989  0.1509  0.1261
 2613TIP3    H129398   3.100   0.203   7.075 -1.2741  1.2596 -0.7881
 2613TIP3    H229399   3.101   0.343   7.131  1.4178  0.4113  1.5524
 2614TIP3   OH229400   2.615   1.669   2.507 -0.2558 -0.3588 -0.6598
 2614TIP3    H129401   2.556   1.667   2.431 -1.5537  0.1911  0.2836
 2614TIP3    H229402   2.559   1.698   2.579  0.7394 -1.6549  0.6912
 2615TIP3   OH229403   2.089   1.340   1.542 -0.3833  0.5297  0.0944
 2615TIP3    H129404   2.119   1.406   1.605 -0.6923  0.5866  0.1796
 2615TIP3    H229405   2.004   1.371   1.512  1.2030  2.4300 -3.0422
 2616TIP3   OH229406   4.344   5.490   0.511 -0.3069  0.8227  0.2720
 2616TIP3    H129407   4.320   5.397   0.510  0.5617  0.5875 -0.4634
 2616TIP3    H229408   4.337   5.516   0.603  0.5111 -0.2793  0.6716
 2617TIP3   OH229409   1.080   3.580   8.163  0.2618  0.1740 -0.5573
 2617TIP3    H129410   1.101   3.519   8.093 -0.1872 -1.3024  0.5319
 2617TIP3    H229411   1.145   3.561   8.231 -2.1587 -1.8635  1.3562
 2618TIP3   OH229412   5.685   3.541   1.093 -0.2100 -0.1038  0.2826
 2618TIP3    H129413   5.668   3.548   0.999  1.3345 -0.2415 -0.0284
 2618TIP3    H229414   5.606   3.500   1.128 -0.0876 -1.7219 -1.2211
 2619TIP3   OH229415   3.835   1.063   6.899  0.2080 -0.0427 -0.0228
 2619TIP3    H129416   3.761   1.081   6.840 -0.2204 -1.7935 -0.0566
 2619TIP3    H229417   3.815   1.115   6.977 -1.9078 -1.6386  0.5942
 2620TIP3   OH229418   5.444   6.720   8.423 -0.3412  0.2132  0.7979
 2620TIP3    H129419   5.403   6.635   8.409 -1.0282  0.7776 -0.9400
 2620TIP3    H229420   5.473   6.719   8.514 -3.9611 -0.3161  2.0889
 2621TIP3   OH229421   5.510   5.367   2.309 -0.4303  0.4841  0.2042
 2621TIP3    H129422   5.538   5.280   2.279  0.2168 -0.4017  3.0816
 2621TIP3    H229423   5.591   5.412   2.332 -0.7258  2.0962 -1.6206
 2622TIP3   OH229424   2.999   2.141   1.349 -0.0617  0.8134  0.2722
 2622TIP3    H129425   2.940   2.216   1.341 -0.3416  1.0122  3.1649
 2622TIP3    H229426   3.085   2.179   1.365  0.0849  0.5273  0.1830
 2623TIP3   OH229427   3.304   1.273   0.616 -0.6859  0.0901 -0.9443
 2623TIP3    H129428   3.254   1.354   0.628  0.7048  1.0692 -1.3858
 2623TIP3    H229429   3.253   1.206   0.659 -1.7797  1.2552 -0.3631
 2624TIP3   OH229430   2.723   6.740   0.078 -0.4900  0.6008  0.2299
 2624TIP3    H129431   2.667   6.665   0.096  0.2566 -0.2805 -0.9792
 2624TIP3    H229432   2.742   6.734  -0.015  0.7885  1.4525  0.4136
 2625TIP3   OH229433   6.291   0.140   1.687  0.1956  0.7542  0.3505
 2625TIP3    H129434   6.294   0.061   1.742 -0.0926  0.2378 -0.3651
 2625TIP3    H229435   6.246   0.205   1.741  0.3371  0.4007  0.9071
 2626TIP3   OH229436   2.386   3.622   5.895  0.4455 -0.0212 -0.4252
 2626TIP3    H129437   2.473   3.589   5.870  0.4715  0.0012 -0.3640
 2626TIP3    H229438   2.325   3.573   5.839  0.3797 -1.1290  0.5708
 2627TIP3   OH229439   1.802   6.859   0.396  0.1468 -0.3391  0.6570
 2627TIP3    H129440   1.897   6.859   0.382 -0.0099  0.4340 -0.5164
 2627TIP3    H229441   1.788   6.790   0.461  1.4514 -0.8692  0.4123
 2628TIP3   OH229442   2.736   4.025   0.815 -0.4065  0.0040 -0.1803
 2628TIP3    H129443   2.825   4.056   0.802 -0.2705  0.2625  1.2583
 2628TIP3    H229444   2.735   3.937   0.778  0.5015 -0.0886  0.0058
 2629TIP3   OH229445   6.144   0.723   0.338  0.5899  0.1390 -1.2320
 2629TIP3    H129446   6.135   0.693   0.247  1.7829 -0.1120 -1.2796
 2629TIP3    H229447   6.236   0.707   0.360  0.7396  1.7365 -0.5288
 2630TIP3   OH229448   6.655   4.326   0.212  0.5962 -0.1353  0.3127
 2630TIP3    H129449   6.607   4.386   0.269 -1.6428 -1.6434  0.1489
 2630TIP3    H229450   6.722   4.287   0.268  1.3827  1.6752  0.6810
 2631TIP3   OH229451   1.549   5.530   2.341  0.3048 -0.5467 -0.4202
 2631TIP3    H129452   1.459   5.544   2.370  0.2814 -0.9691 -0.2721
 2631TIP3    H229453   1.600   5.596   2.387  0.3013 -1.3572  0.8112
 2632TIP3   OH229454   6.506   4.405   1.075 -0.1568 -0.2397 -0.2099
 2632TIP3    H129455   6.504   4.329   1.133  1.0382 -0.9496 -1.0475
 2632TIP3    H229456   6.423   4.402   1.028 -0.4219 -0.6097  0.2798
 2633TIP3   OH229457   3.369   2.202   7.761 -0.3850  0.0148  0.9015
 2633TIP3    H129458   3.345   2.231   7.849  0.2939  0.0674  1.0757
 2633TIP3    H229459   3.460   2.173   7.770 -0.8922 -1.7943  0.6521
 2634TIP3   OH229460   0.723   1.811   7.992 -0.3303  0.4375  0.1636
 2634TIP3    H129461   0.806   1.763   7.992 -2.2777 -3.3211  0.8507
 2634TIP3    H229462   0.695   1.809   8.083 -1.3286  1.4491 -0.1014
 2635TIP3   OH229463   6.863   3.024   0.352 -0.4532 -0.7475 -0.0732
 2635TIP3    H129464   6.918   3.096   0.382  0.6955 -1.4985 -0.2643
 2635TIP3    H229465   6.809   3.062   0.283 -0.8230  0.2296  0.7450
 2636TIP3   OH229466   2.938   5.113   7.014  0.3525  0.0576 -0.0311
 2636TIP3    H129467   2.981   5.033   6.982 -0.0369 -0.4951  0.7930
 2636TIP3    H229468   2.884   5.084   7.088  1.3363  1.3155  1.2387
 2637TIP3   OH229469   6.018   0.976   7.739 -0.0384 -0.0891 -0.1282
 2637TIP3    H129470   6.018   0.930   7.655 -0.3231 -0.6357  0.1655
 2637TIP3    H229471   6.070   1.055   7.723  0.4092 -0.4832 -0.6536
 2638TIP3   OH229472   3.691   0.713   0.357  0.3196  0.0130  0.2867
 2638TIP3    H129473   3.786   0.713   0.365  0.3883  0.4792 -0.4075
 2638TIP3    H229474   3.674   0.659   0.280  0.0726  0.5536 -0.0427
 2639TIP3   OH229475   5.364   6.901   1.137 -0.7048  0.5760  0.5470
 2639TIP3    H129476   5.337   6.853   1.215  0.3747 -1.7052 -0.3945
 2639TIP3    H229477   5.283   6.941   1.105 -0.8282  3.7152  4.0545
 2640TIP3   OH229478   4.545   1.316   0.723 -0.2020 -0.0758 -0.1809
 2640TIP3    H129479   4.585   1.275   0.646 -1.9556 -0.7213 -0.7946
 2640TIP3    H229480   4.537   1.245   0.787 -1.2514 -0.2047 -0.4379
 2641TIP3   OH229481   2.004   3.000   0.327  0.5751 -0.7636 -0.0721
 2641TIP3    H129482   2.013   3.091   0.298  1.1312 -0.3574  1.2989
 2641TIP3    H229483   2.089   2.978   0.366 -0.0096 -1.4033  0.8816
 2642TIP3   OH229484   2.837   0.870   7.211 -0.0940  0.0493  0.1013
 2642TIP3    H129485   2.855   0.962   7.192  0.1224 -0.4832 -2.7196
 2642TIP3    H229486   2.811   0.869   7.303  2.2633  2.5676  0.9209
 2643TIP3   OH229487   4.274   6.411   1.500 -0.1457 -0.1788 -0.2064
 2643TIP3    H129488   4.275   6.485   1.439 -3.1755  0.7170  0.6410
 2643TIP3    H229489   4.275   6.451   1.587 -1.7556 -1.0638  0.2669
 2644TIP3   OH229490   6.244   1.592   6.143  0.4683 -0.2050 -0.3143
 2644TIP3    H129491   6.316   1.574   6.082 -0.2913  0.3725 -1.4194
 2644TIP3    H229492   6.165   1.579   6.091 -0.2113 -0.1680  0.6911
 2645TIP3   OH229493   1.408   0.097   6.779 -0.3175  0.1075 -0.5547
 2645TIP3    H129494   1.331   0.045   6.802 -1.9598  1.4917 -2.4866
 2645TIP3    H229495   1.372   0.172   6.731  2.1231  1.7748  0.0627
 2646TIP3   OH229496   2.695   3.210   0.055 -0.4884 -0.0263 -0.2140
 2646TIP3    H129497   2.751   3.270   0.006  0.1730 -0.4308  0.0357
 2646TIP3    H229498   2.654   3.155  -0.011 -0.3801  0.0932 -0.3809
 2647TIP3   OH229499   3.623   4.476   2.276  0.1648  0.0993 -0.1787
 2647TIP3    H129500   3.611   4.431   2.192 -0.0435 -0.3688  0.0961
 2647TIP3    H229501   3.620   4.569   2.254  1.0045 -0.0069 -0.8158
 2648TIP3   OH229502   6.070   1.935   7.896 -0.7518  0.2762  0.2064
 2648TIP3    H129503   6.151   1.964   7.854  0.0574  0.9234  2.1252
 2648TIP3    H229504   6.093   1.922   7.987 -2.3977 -1.3515  0.4452
 2649TIP3   OH229505   1.915   5.838   2.520 -0.2521 -0.5037  0.1873
 2649TIP3    H129506   1.945   5.888   2.596 -2.3133  0.3331  0.5311
 2649TIP3    H229507   1.987   5.843   2.458  1.7797 -1.7413  2.2583
 2650TIP3   OH229508   2.194   5.474   6.589 -0.0178 -0.6573 -0.2709
 2650TIP3    H129509   2.227   5.537   6.525 -0.7923 -0.6673 -0.6988
 2650TIP3    H229510   2.228   5.390   6.559  2.5728 -0.2743  1.3431
 2651TIP3   OH229511   0.585   3.289   7.766 -0.7829  0.0077 -0.5365
 2651TIP3    H129512   0.570   3.340   7.846 -0.1762 -1.6360  0.6897
 2651TIP3    H229513   0.666   3.242   7.783 -0.0417  0.4523 -2.6168
 2652TIP3   OH229514   1.061   1.662   1.375 -0.4710  0.2261  0.6188
 2652TIP3    H129515   1.029   1.746   1.343 -0.8716  0.0745  0.6196
 2652TIP3    H229516   1.034   1.599   1.308  0.5437  0.2070  0.2033
 2653TIP3   OH229517   2.005   0.195   2.605  0.7589  0.2156 -0.1239
 2653TIP3    H129518   2.037   0.117   2.559  0.7358  0.1482 -0.0237
 2653TIP3    H229519   1.983   0.165   2.693 -2.6853 -0.4832 -1.0709
 2654TIP3   OH229520   2.762   1.041   6.527  0.0238  0.0578 -0.4808
 2654TIP3    H129521   2.848   1.022   6.491  0.3487  1.5322 -0.5405
 2654TIP3    H229522   2.706   0.971   6.494  0.8974 -0.1448 -1.6003
 2655TIP3   OH229523   0.872   5.472   1.398 -0.3816  0.2404  0.2506
 2655TIP3    H129524   0.957   5.439   1.429  0.8060  1.2832 -1.6504
 2655TIP3    H229525   0.820   5.393   1.384  0.3258 -0.4434  1.2936
 2656TIP3   OH229526   4.778   1.935   1.975 -0.4502 -0.1430  0.6345
 2656TIP3    H129527   4.687   1.926   2.004 -0.6513  2.6476  1.1659
 2656TIP3    H229528   4.830   1.921   2.054 -0.4238 -1.4306  0.3966
 2657TIP3   OH229529   3.649   5.352   7.289  0.1137 -0.6536  0.5521
 2657TIP3    H129530   3.602   5.333   7.208  0.7790 -0.1028  0.0246
 2657TIP3    H229531   3.582   5.387   7.349  0.0201  1.1218 -0.5341
 2658TIP3   OH229532   5.458   3.215   1.085  0.0248 -0.3459  1.0043
 2658TIP3    H129533   5.478   3.240   1.175 -0.6818  0.8647  0.8487
 2658TIP3    H229534   5.365   3.194   1.085  0.0896 -0.6471  0.6228
 2659TIP3   OH229535   0.583   3.942   1.431 -0.6779  0.3924  0.1051
 2659TIP3    H129536   0.679   3.939   1.437 -0.6778 -1.8953 -0.0139
 2659TIP3    H229537   0.553   3.916   1.518 -1.1998  0.8064  0.0551
 2660TIP3   OH229538   2.737   2.409   0.298 -0.2268  0.7310 -0.4564
 2660TIP3    H129539   2.755   2.343   0.232  0.1021  1.1108 -0.7569
 2660TIP3    H229540   2.698   2.361   0.371 -0.0359  0.2185 -0.6882
 2661TIP3   OH229541   1.554   5.724   0.901  0.3866  0.0875  0.1718
 2661TIP3    H129542   1.593   5.637   0.893  1.0703  0.4836 -1.2079
 2661TIP3    H229543   1.483   5.713   0.964  0.7856 -1.3467  0.4132
 2662TIP3   OH229544   4.303   0.850   7.237 -0.4305 -0.1823 -0.1217
 2662TIP3    H129545   4.298   0.913   7.165  0.0073 -0.6359 -0.5536
 2662TIP3    H229546   4.245   0.886   7.304 -1.6453 -0.2467 -1.0871
 2663TIP3   OH229547   1.728   3.992   0.717 -0.5434  0.0518  0.2830
 2663TIP3    H129548   1.788   3.918   0.725 -1.6709 -0.9478 -0.2110
 2663TIP3    H229549   1.768   4.062   0.769  1.5596 -0.2182 -0.8791
 2664TIP3   OH229550   1.486   3.495   0.771  0.0151 -0.0847 -0.4084
 2664TIP3    H129551   1.459   3.561   0.836  0.7901  0.0694 -0.2223
 2664TIP3    H229552   1.477   3.412   0.816 -1.5970 -0.1829 -0.8590
 2665TIP3   OH229553   5.686   1.736   0.553 -0.0256 -0.1093  0.4618
 2665TIP3    H129554   5.653   1.700   0.470  1.4747  0.9847 -0.6736
 2665TIP3    H229555   5.625   1.703   0.619 -0.7722 -1.7538 -0.9449
 2666TIP3   OH229556   2.063   1.888   8.498  0.7113  0.2371  0.3836
 2666TIP3    H129557   2.047   1.807   8.449  0.9514  0.5741 -0.2568
 2666TIP3    H229558   1.985   1.941   8.481  1.1527  0.6800 -0.3071
 2667TIP3   OH229559   1.567   0.130   1.881  0.0008  0.4125 -0.0299
 2667TIP3    H129560   1.581   0.059   1.944 -0.8171  2.0920  2.1436
 2667TIP3    H229561   1.491   0.177   1.914  0.9669  2.7768 -0.9512
 2668TIP3   OH229562   3.355   3.406   1.288  0.0976 -0.0386 -0.4136
 2668TIP3    H129563   3.329   3.496   1.269  0.5885 -0.0774 -1.3189
 2668TIP3    H229564   3.350   3.399   1.384 -2.4499  0.1680 -0.4781
 2669TIP3   OH229565   4.324   6.800   7.308  0.0145  0.7524  0.4383
 2669TIP3    H129566   4.318   6.710   7.274  0.1843  1.2227 -0.9017
 2669TIP3    H229567   4.269   6.800   7.386 -1.7519  0.0241 -0.7471
 2670TIP3   OH229568   2.827   3.775   0.774  0.4673  0.5438  0.2290
 2670TIP3    H129569   2.898   3.818   0.823  0.5552 -0.1132  0.6901
 2670TIP3    H229570   2.873   3.716   0.715  0.3626  1.3799 -0.7052
 2671TIP3   OH229571   6.589   5.082   7.549  0.4737 -0.3136  0.2035
 2671TIP3    H129572   6.649   5.148   7.515 -1.6364  1.1617 -0.9120
 2671TIP3    H229573   6.588   5.096   7.644  1.5776 -0.1210  0.1938
 2672TIP3   OH229574   5.772   3.613   7.857 -0.3499  0.4063  0.3071
 2672TIP3    H129575   5.836   3.545   7.881  0.1154  0.9062  0.4944
 2672TIP3    H229576   5.688   3.577   7.887  0.1154  0.6971  2.0954
 2673TIP3   OH229577   1.401   4.104   0.902 -0.2015 -0.0072  0.8873
 2673TIP3    H129578   1.476   4.085   0.959  0.3034 -1.9311 -0.3551
 2673TIP3    H229579   1.408   4.042   0.831 -1.1568  1.9437 -1.0286
 2674TIP3   OH229580   0.187   4.519   1.420 -0.0102  0.2918  0.1982
 2674TIP3    H129581   0.156   4.609   1.409 -2.1118 -0.5317 -1.3889
 2674TIP3    H229582   0.143   4.489   1.499 -0.4325  0.2390 -0.0531
 2675TIP3   OH229583   3.153   1.116   2.006 -0.1940  0.0473 -0.2119
 2675TIP3    H129584   3.070   1.077   2.032 -0.5872  0.8027 -0.3090
 2675TIP3    H229585   3.217   1.046   2.017 -0.7772 -0.4186  0.2547
 2676TIP3   OH229586   2.377   3.105   0.760 -0.0137 -0.1548  0.3601
 2676TIP3    H129587   2.294   3.091   0.806 -0.2944 -0.0713 -0.1184
 2676TIP3    H229588   2.427   3.025   0.775 -1.0975 -1.1993 -1.2925
 2677TIP3   OH229589   3.194   0.000   6.253  0.0502 -0.4266 -0.1315
 2677TIP3    H129590   3.230   0.085   6.279  0.4272 -0.3184 -0.9874
 2677TIP3    H229591   3.138  -0.026   6.327 -1.2126  1.2336 -0.4393
 2678TIP3   OH229592   5.177   3.043   8.291  0.0474 -0.2194 -0.1762
 2678TIP3    H129593   5.161   3.040   8.196 -0.6254  1.3406 -0.1502
 2678TIP3    H229594   5.143   3.129   8.317  0.8818 -0.3417  1.3657
 2679TIP3   OH229595   1.912   6.104   8.301  0.2419 -0.8540  0.0683
 2679TIP3    H129596   1.851   6.162   8.255 -1.7346 -1.0632  2.2427
 2679TIP3    H229597   1.974   6.163   8.343  1.2186 -0.6050 -1.6389
 2680TIP3   OH229598   4.310   2.254   6.069  0.6717 -0.3498  0.4772
 2680TIP3    H129599   4.223   2.261   6.109 -0.6657 -0.9523 -2.1382
 2680TIP3    H229600   4.338   2.345   6.058 -0.2014 -0.1120  0.1675
 2681TIP3   OH229601   5.627   0.748   6.838 -0.9584  0.2099 -0.1915
 2681TIP3    H129602   5.622   0.826   6.783  0.1871  0.4622  0.0372
 2681TIP3    H229603   5.537   0.733   6.867 -1.0265  2.2034  0.7828
 2682TIP3   OH229604   2.707   6.423   8.168  0.7531  0.2884 -0.1157
 2682TIP3    H129605   2.780   6.460   8.119 -0.1843  0.4801 -1.4102
 2682TIP3    H229606   2.630   6.471   8.137  0.0947  0.3418  1.4750
 2683TIP3   OH229607   0.210   5.718   6.368  0.5004 -0.3176 -0.4166
 2683TIP3    H129608   0.297   5.682   6.350  0.0553 -1.1350 -1.0305
 2683TIP3    H229609   0.202   5.793   6.310  1.7364  1.3258  1.4161
 2684TIP3   OH229610   1.119   3.728   0.780  0.3478 -0.1031 -0.1446
 2684TIP3    H129611   1.100   3.812   0.823 -1.1956 -0.6483  0.2807
 2684TIP3    H229612   1.148   3.753   0.692 -1.1112  0.8651 -0.3892
 2685TIP3   OH229613   3.284   5.853   7.849 -0.6527  0.4899 -0.9844
 2685TIP3    H129614   3.199   5.855   7.805 -0.4869 -0.7570 -1.3776
 2685TIP3    H229615   3.341   5.908   7.794 -1.3177  1.7919 -0.4179
 2686TIP3   OH229616   0.303   3.549   1.673 -0.0120 -0.1729 -0.0870
 2686TIP3    H129617   0.270   3.604   1.744 -1.0459  1.2445 -1.5789
 2686TIP3    H229618   0.360   3.486   1.716  1.1336  1.9612  1.7737
 2687TIP3   OH229619   1.299   5.954   0.205  0.3337 -0.0852 -0.6221
 2687TIP3    H129620   1.327   6.039   0.171  1.1864  0.0280  0.3383
 2687TIP3    H229621   1.374   5.897   0.190  0.5597 -0.1441  0.6284
 2688TIP3   OH229622   1.137   6.214   8.457  0.4331 -0.1832 -0.3219
 2688TIP3    H129623   1.146   6.202   8.363  2.4144  1.3851 -0.3852
 2688TIP3    H229624   1.091   6.297   8.467 -2.1132 -1.5401  0.1553
 2689TIP3   OH229625   4.893   2.935   0.414  0.1799  0.3519 -0.2755
 2689TIP3    H129626   4.948   2.861   0.388  1.7415  0.8780  1.3529
 2689TIP3    H229627   4.844   2.904   0.489  0.0695  0.6429 -0.2240
 2690TIP3   OH229628   3.696   6.215   2.374  0.8894  0.1921 -0.0473
 2690TIP3    H129629   3.768   6.155   2.392  0.3018 -1.2093 -2.0045
 2690TIP3    H229630   3.637   6.205   2.449  0.5531 -2.1390 -0.5357
 2691TIP3   OH229631   1.505   5.298   7.981  0.4902 -0.3619  0.0849
 2691TIP3    H129632   1.468   5.298   8.069 -2.0455 -0.0777 -0.8829
 2691TIP3    H229633   1.530   5.207   7.965  1.5784 -0.3002  1.2935
 2692TIP3   OH229634   3.984   3.920   0.514  0.0345 -0.4098  0.1020
 2692TIP3    H129635   3.971   3.977   0.590 -1.0634 -1.3081  0.6019
 2692TIP3    H229636   3.969   3.832   0.547 -0.5238 -0.8109 -1.1835
 2693TIP3   OH229637   3.160   3.129   0.805  0.5575  0.1563 -0.0634
 2693TIP3    H129638   3.249   3.140   0.771  0.6318  1.0584  0.3949
 2693TIP3    H229639   3.167   3.150   0.898 -0.4990  2.3377 -0.3982
 2694TIP3   OH229640   5.084   5.871   0.145  0.1635 -0.3071  0.6089
 2694TIP3    H129641   5.057   5.831   0.063  0.0045 -0.0438  0.5295
 2694TIP3    H229642   5.153   5.932   0.120  1.3220 -1.4676  0.9004
 2695TIP3   OH229643   6.050   1.232   6.632  0.7232 -0.0534 -0.3670
 2695TIP3    H129644   6.105   1.153   6.624 -0.1780 -0.7797  0.4022
 2695TIP3    H229645   5.983   1.220   6.565 -1.9150 -2.0768  2.3913
 2696TIP3   OH229646   3.910   2.990   8.465 -0.4079  0.9881  0.3002
 2696TIP3    H129647   3.885   2.897   8.466 -2.9238  1.5948 -0.3526
 2696TIP3    H229648   3.994   2.991   8.419 -0.9930 -0.8482 -0.9232
 2697TIP3   OH229649   1.866   6.828   1.135  0.4177 -0.4276  0.3555
 2697TIP3    H129650   1.929   6.810   1.205 -0.4340 -1.9342  0.7738
 2697TIP3    H229651   1.920   6.861   1.063  1.4191  0.3380  1.4044
 2698TIP3   OH229652   0.767   0.696   0.002 -0.2358  0.2966 -0.3264
 2698TIP3    H129653   0.807   0.658  -0.076  1.5752  1.5573 -0.0648
 2698TIP3    H229654   0.840   0.723   0.057 -1.4280 -1.0032  2.1050
 2699TIP3   OH229655   4.082   2.565   1.207 -0.4335  0.2868 -0.7817
 2699TIP3    H129656   4.134   2.588   1.284 -0.4657 -0.5442 -0.5023
 2699TIP3    H229657   4.040   2.647   1.181 -1.5486  0.3035  0.9367
 2700TIP3   OH229658   6.276   4.425   8.406  0.2152  0.4832 -0.7916
 2700TIP3    H129659   6.273   4.334   8.376  1.3052 -0.1702  0.8732
 2700TIP3    H229660   6.366   4.437   8.436 -0.0580  1.9375 -0.4710
 2701TIP3   OH229661   1.665   2.396   6.856 -0.1498  1.1190 -0.1805
 2701TIP3    H129662   1.690   2.488   6.866 -4.3655  2.8717 -2.7419
 2701TIP3    H229663   1.708   2.368   6.775  1.4646  0.5987  0.8143
 2702TIP3   OH229664   5.187   1.105   0.727  0.6614 -0.2955 -0.0700
 2702TIP3    H129665   5.202   1.147   0.811 -0.3785 -0.7025  0.3254
 2702TIP3    H229666   5.191   1.011   0.745 -1.0208 -0.4121 -0.1773
 2703TIP3   OH229667   0.410   0.650   8.072 -0.0372 -0.6420  0.5217
 2703TIP3    H129668   0.472   0.719   8.096 -2.2126  0.6981  2.8437
 2703TIP3    H229669   0.358   0.637   8.152 -3.5428 -0.7727 -1.5873
 2704TIP3   OH229670   6.041   4.308   7.067  0.0152 -0.3802 -0.3393
 2704TIP3    H129671   6.015   4.311   6.975  0.8832  2.8435 -0.5959
 2704TIP3    H229672   6.130   4.343   7.067  0.3638 -1.1502  1.6618
 2705TIP3   OH229673   6.794   3.941   7.098 -0.2117 -0.0009  0.0015
 2705TIP3    H129674   6.738   3.864   7.102  0.4664 -0.9735 -4.5440
 2705TIP3    H229675   6.870   3.914   7.047  0.8816  3.2533 -0.3315
 2706TIP3   OH229676   1.906   3.430   5.903  0.1819  0.1931  0.0759
 2706TIP3    H129677   1.831   3.373   5.883 -0.5384  1.6429 -1.6944
 2706TIP3    H229678   1.953   3.384   5.972 -0.8163 -2.1345 -0.6662
 2707TIP3   OH229679   3.325   5.043   8.209 -0.0370 -0.4646 -0.5068
 2707TIP3    H129680   3.285   4.983   8.272 -0.8431 -0.4102 -0.9653
 2707TIP3    H229681   3.415   5.054   8.242 -1.0420  1.3637  1.9401
 2708TIP3   OH229682   4.568   6.291   7.657  0.2734  0.5324  0.6782
 2708TIP3    H129683   4.604   6.380   7.657 -1.0399  1.0998 -0.5591
 2708TIP3    H229684   4.490   6.296   7.711 -0.4170  0.4208 -0.2842
 2709TIP3   OH229685   1.100   4.855   2.225 -0.0354 -0.3466  0.4209
 2709TIP3    H129686   1.017   4.820   2.256  0.5208 -1.8010  0.3435
 2709TIP3    H229687   1.135   4.904   2.300 -1.3157  1.0236  0.1825
 2710TIP3   OH229688   4.333   5.303   7.072  0.2048  0.1838 -0.2708
 2710TIP3    H129689   4.347   5.349   6.990  0.8073  1.9399  0.7563
 2710TIP3    H229690   4.419   5.302   7.115 -0.6022  1.9417  1.5855
 2711TIP3   OH229691   0.355   6.328   8.004 -0.2796 -0.1454 -0.3571
 2711TIP3    H129692   0.366   6.273   8.082 -1.5263 -1.6473 -1.1701
 2711TIP3    H229693   0.292   6.395   8.031  2.9056  2.4668  1.3358
 2712TIP3   OH229694   0.546   2.975   0.365 -0.5043  0.3552  0.3262
 2712TIP3    H129695   0.572   2.890   0.332  0.9304 -0.4382  3.1559
 2712TIP3    H229696   0.593   3.038   0.311 -0.2535 -0.7004 -0.7128
 2713TIP3   OH229697   5.879   4.811   7.426  0.3243 -0.2355 -0.9208
 2713TIP3    H129698   5.966   4.774   7.442  0.0299 -0.6279 -0.1807
 2713TIP3    H229699   5.889   4.904   7.447  0.3602 -0.4367 -0.0183
 2714TIP3   OH229700   4.568   5.790   0.673  0.6995  0.0065  0.5447
 2714TIP3    H129701   4.558   5.779   0.767 -1.3361  1.2163  0.5256
 2714TIP3    H229702   4.486   5.830   0.644  0.9837 -0.9316 -1.8530
 2715TIP3   OH229703   5.541   4.029   0.104 -0.4954  0.4551  0.0001
 2715TIP3    H129704   5.505   4.022   0.016  0.3948  0.1577 -0.3521
 2715TIP3    H229705   5.629   4.063   0.091  0.4099 -1.5174  0.5900
 2716TIP3   OH229706   0.835   0.603   7.352 -0.1081 -0.4109  0.1403
 2716TIP3    H129707   0.861   0.511   7.352 -1.2052 -0.7776 -2.1546
 2716TIP3    H229708   0.745   0.603   7.385 -0.8216 -0.4460 -1.7178
 2717TIP3   OH229709   3.454   1.675   7.071  0.2965  0.1962 -0.6595
 2717TIP3    H129710   3.547   1.661   7.088  0.0855 -0.1587  0.2705
 2717TIP3    H229711   3.426   1.736   7.139 -0.2664 -0.1072 -0.6081
 2718TIP3   OH229712   6.383   1.253   6.751 -0.0590  0.5276 -0.1935
 2718TIP3    H129713   6.324   1.222   6.683  1.1040  0.9356 -1.4356
 2718TIP3    H229714   6.389   1.347   6.738  0.4294  0.5694  0.2634
 2719TIP3   OH229715   4.980   1.571   7.541 -0.4622  0.2198 -0.1257
 2719TIP3    H129716   4.987   1.480   7.571  1.2637  0.4579  0.2816
 2719TIP3    H229717   5.069   1.596   7.518 -1.0049  1.6325 -0.8096
 2720TIP3   OH229718   2.600   2.277   0.525  0.3136  0.2062  0.0131
 2720TIP3    H129719   2.616   2.316   0.611  1.1041 -0.6638  0.2769
 2720TIP3    H229720   2.645   2.192   0.529 -0.2210 -0.1307 -1.0202
 2721TIP3   OH229721   0.599   5.538   1.606  0.0284  0.8924 -0.1245
 2721TIP3    H129722   0.522   5.576   1.564 -0.4295 -1.1110 -1.2389
 2721TIP3    H229723   0.611   5.454   1.561  2.0713  0.5682  0.9416
 2722TIP3   OH229724   3.729   0.776   7.519 -0.2674 -0.1600  0.3458
 2722TIP3    H129725   3.793   0.847   7.520  0.1989 -0.5718  0.3180
 2722TIP3    H229726   3.660   0.804   7.579  0.6275 -0.3443  1.4848
 2723TIP3   OH229727   3.432   1.984   6.964 -0.3051  0.4317  0.1698
 2723TIP3    H129728   3.476   1.904   6.934 -0.8452 -0.0825  0.7367
 2723TIP3    H229729   3.355   1.991   6.907 -0.7503  0.0440  0.7193
 2724TIP3   OH229730   4.898   4.925   0.083  0.0632  0.8539 -0.0199
 2724TIP3    H129731   4.886   4.986   0.010 -1.8491 -0.8433 -1.2305
 2724TIP3    H229732   4.810   4.896   0.105  0.7340  0.1555  1.9881
 2725TIP3   OH229733   6.750   4.028   0.938  0.5227 -0.4631 -0.3044
 2725TIP3    H129734   6.671   4.025   0.884 -0.8376 -1.4713  1.5998
 2725TIP3    H229735   6.718   4.021   1.028  2.7790 -0.6102  0.5639
 2726TIP3   OH229736   2.430   1.164   1.113 -0.7333 -0.2769  0.0377
 2726TIP3    H129737   2.492   1.209   1.171 -0.6021  0.1808 -0.4538
 2726TIP3    H229738   2.425   1.075   1.149 -0.7248  0.0188  0.8045
 2727TIP3   OH229739   3.046   1.455   0.431 -0.1213 -0.0720 -0.2768
 2727TIP3    H129740   3.061   1.397   0.506  0.2770 -1.8658 -1.6605
 2727TIP3    H229741   2.950   1.462   0.425 -0.1497  0.2458  0.5140
 2728TIP3   OH229742   6.891   2.866   2.259 -0.2985  0.0248  0.4932
 2728TIP3    H129743   6.805   2.827   2.274 -0.5318 -0.2226 -1.3413
 2728TIP3    H229744   6.873   2.952   2.221  0.2656  0.1453  0.4767
 2729TIP3   OH229745   6.070   3.670   8.062  0.0039  0.4200 -0.4339
 2729TIP3    H129746   6.037   3.699   7.977  0.9356 -0.1489 -0.9947
 2729TIP3    H229747   6.006   3.605   8.091 -0.4744  0.8235 -0.5465
 2730TIP3   OH229748   0.963   1.701   7.868 -0.2568  0.0033 -0.2042
 2730TIP3    H129749   0.961   1.792   7.837 -1.9012  0.0675 -0.0223
 2730TIP3    H229750   0.984   1.649   7.790 -0.1080  0.4865 -0.4896
 2731TIP3   OH229751   2.504   5.857   0.096  0.0698 -0.4197 -0.2226
 2731TIP3    H129752   2.485   5.769   0.129 -0.5374  0.2194  1.1911
 2731TIP3    H229753   2.420   5.890   0.064  0.0537  0.0546  0.2849
 2732TIP3   OH229754   2.653   3.149   8.344 -0.1578  0.2895  0.0469
 2732TIP3    H129755   2.658   3.244   8.336 -0.8030  0.4235  1.0882
 2732TIP3    H229756   2.729   3.117   8.295 -0.9982  1.2223 -1.9831
 2733TIP3   OH229757   5.412   3.432   0.116  0.2692 -0.1470 -0.3148
 2733TIP3    H129758   5.340   3.372   0.137  0.4447 -0.0575  0.6096
 2733TIP3    H229759   5.489   3.375   0.108  0.2336 -0.1627 -0.5458
 2734TIP3   OH229760   4.498   0.002   7.925  0.0064  0.0638  0.3236
 2734TIP3    H129761   4.478   0.065   7.856  0.2947 -0.2601 -0.0540
 2734TIP3    H229762   4.438  -0.071   7.910 -0.3112  0.2268  0.7486
 2735TIP3   OH229763   0.648   4.497   2.307 -0.2301  0.5810 -0.0843
 2735TIP3    H129764   0.635   4.559   2.235  2.6297  0.0325 -1.2349
 2735TIP3    H229765   0.738   4.467   2.296 -0.7544 -2.0378  1.8163
 2736TIP3   OH229766   1.101   3.882   7.788 -0.3233 -0.0652 -0.1415
 2736TIP3    H129767   1.094   3.970   7.826  0.6398  0.5567 -1.3305
 2736TIP3    H229768   1.068   3.892   7.699  1.6807 -0.3833 -0.9846
 2737TIP3   OH229769   5.569   1.158   7.099 -0.8684  0.4303  0.2454
 2737TIP3    H129770   5.598   1.133   7.011 -1.4727 -0.6974  0.3520
 2737TIP3    H229771   5.567   1.254   7.098 -0.9343  0.4223 -0.9802
 2738TIP3   OH229772   4.009   1.105   0.974  0.2354  0.1425  0.2131
 2738TIP3    H129773   4.095   1.082   1.009  0.1078 -1.7645 -0.6001
 2738TIP3    H229774   4.014   1.199   0.958  2.6637 -0.1436 -1.1109
 2739TIP3   OH229775   2.226   6.209   0.913 -0.3110  0.3734  0.3384
 2739TIP3    H129776   2.206   6.120   0.885  1.0371  0.0276  0.4177
 2739TIP3    H229777   2.317   6.205   0.942  1.0168  2.5593 -2.9928
 2740TIP3   OH229778   0.654   6.313   7.389 -0.2061  0.0442  0.3964
 2740TIP3    H129779   0.581   6.362   7.427 -1.1641 -3.1068  3.1407
 2740TIP3    H229780   0.712   6.295   7.463  2.0458  0.1982 -1.2311
 2741TIP3   OH229781   2.760   5.110   0.575 -0.1738 -0.1198  0.2698
 2741TIP3    H129782   2.824   5.041   0.557 -0.1108 -0.4755  1.7205
 2741TIP3    H229783   2.802   5.190   0.545  0.7179 -0.4218  0.6673
 2742TIP3   OH229784   0.531   4.906   6.667  0.6352  0.1550  0.1749
 2742TIP3    H129785   0.587   4.829   6.660  1.0147  0.2737  1.5899
 2742TIP3    H229786   0.447   4.872   6.697  0.4400  0.1672 -0.3449
 2743TIP3   OH229787   5.324   5.264   2.052 -0.4731  0.1303 -0.0692
 2743TIP3    H129788   5.395   5.223   2.003  0.0400  0.7172  0.1635
 2743TIP3    H229789   5.244   5.233   2.010 -0.0986 -0.9835  0.0082
 2744TIP3   OH229790   0.863   4.581   2.628 -0.4728  0.6392  0.4664
 2744TIP3    H129791   0.866   4.515   2.559  1.0608  0.2000  0.9100
 2744TIP3    H229792   0.770   4.594   2.645 -0.8183 -0.8410 -0.1765
 2745TIP3   OH229793   5.480   2.972   0.598  0.1099  0.7453  0.4889
 2745TIP3    H129794   5.500   2.911   0.669 -0.5135  3.0678  2.7898
 2745TIP3    H229795   5.481   2.917   0.519 -0.6628 -2.2822  2.4023
 2746TIP3   OH229796   4.060   4.390   7.311  0.0356  0.4405 -0.3637
 2746TIP3    H129797   4.096   4.325   7.372  0.4136  0.2264 -0.8129
 2746TIP3    H229798   4.048   4.469   7.364  0.9063  0.4319 -0.1407
 2747TIP3   OH229799   6.864   6.786   2.033  0.1860  0.0642  0.8305
 2747TIP3    H129800   6.936   6.831   2.077  1.1192 -0.1905 -0.3731
 2747TIP3    H229801   6.891   6.694   2.031 -1.2163 -0.4195  2.3361
 2748TIP3   OH229802   1.126   1.378   8.271 -0.1641 -0.4294  0.3348
 2748TIP3    H129803   1.098   1.287   8.278 -0.3374 -0.3267  1.0974
 2748TIP3    H229804   1.064   1.417   8.209  0.1392 -0.9088 -0.2822
 2749TIP3   OH229805   5.235   1.347   7.957 -0.1160  0.3256 -0.6183
 2749TIP3    H129806   5.230   1.280   8.025  1.3374  1.5766  0.8067
 2749TIP3    H229807   5.150   1.342   7.912 -0.6970 -1.2789  0.5596
 2750TIP3   OH229808   5.574   3.752   7.690  0.0951 -0.3987  0.1832
 2750TIP3    H129809   5.537   3.668   7.665  0.6369 -0.9336  1.1155
 2750TIP3    H229810   5.565   3.755   7.786 -2.8245  1.9807  0.0116
 2751TIP3   OH229811   4.728   6.449   7.873 -0.2920 -0.2092 -0.1140
 2751TIP3    H129812   4.782   6.371   7.884 -1.2593 -1.3328 -2.6174
 2751TIP3    H229813   4.788   6.513   7.833 -0.2459 -0.7464 -0.9376
 2752TIP3   OH229814   1.330   6.417   0.420  0.5094 -0.3184  0.0568
 2752TIP3    H129815   1.367   6.496   0.380 -1.3145 -0.8154 -2.9656
 2752TIP3    H229816   1.405   6.358   0.432  1.3737  0.4299 -1.4008
 2753TIP3   OH229817   0.191   2.422   1.610  0.1375 -0.1026 -0.3818
 2753TIP3    H129818   0.232   2.468   1.683 -0.2400  1.5954 -1.2030
 2753TIP3    H229819   0.153   2.343   1.649 -0.1373  0.8169  1.2632
 2754TIP3   OH229820   4.332   6.334   8.195 -0.3709  0.5311 -0.2064
 2754TIP3    H129821   4.312   6.283   8.274 -2.3579 -0.4754 -1.2865
 2754TIP3    H229822   4.253   6.328   8.143  0.4667  2.2284 -1.7437
 2755TIP3   OH229823   0.918   1.995   2.584  0.2650  0.3102 -0.1746
 2755TIP3    H129824   0.873   2.039   2.512  1.9387  1.0518 -0.8071
 2755TIP3    H229825   0.928   1.905   2.555  2.4291  0.9626 -1.6745
 2756TIP3   OH229826   4.386   5.428   7.983  0.4175  0.5637  0.2261
 2756TIP3    H129827   4.463   5.477   8.009  1.1505 -1.2890  1.7686
 2756TIP3    H229828   4.346   5.480   7.913  3.0619  1.5593 -0.6347
 2757TIP3   OH229829   5.499   0.027   8.278  0.1558  0.7401 -0.2797
 2757TIP3    H129830   5.494  -0.035   8.351 -0.1778  2.6540  1.4447
 2757TIP3    H229831   5.581   0.075   8.294 -0.0212  1.3183 -1.0621
 2758TIP3   OH229832   6.678   5.239   7.024 -0.3005 -0.4639 -0.0422
 2758TIP3    H129833   6.744   5.278   7.081  0.1345  0.3476 -1.0862
 2758TIP3    H229834   6.712   5.151   7.005  1.8676  0.7666 -2.6266
 2759TIP3   OH229835   6.239   5.506   1.461  0.0935 -0.3198  0.3445
 2759TIP3    H129836   6.156   5.460   1.453 -0.6217  1.2004 -2.0746
 2759TIP3    H229837   6.233   5.553   1.544 -1.0913 -0.9305  0.6233
 2760TIP3   OH229838   0.522   6.610   1.660  0.0067  0.0283  0.5062
 2760TIP3    H129839   0.487   6.697   1.681  2.5652  0.7326  2.3291
 2760TIP3    H229840   0.476   6.551   1.720 -1.1867  0.2128 -0.2025
 2761TIP3   OH229841   1.266   2.466   1.106 -0.6122 -0.5043 -0.4481
 2761TIP3    H129842   1.201   2.419   1.158 -0.9810 -0.3778 -0.7836
 2761TIP3    H229843   1.223   2.479   1.021 -0.0938 -0.5438 -0.7199
 2762TIP3   OH229844   0.875   0.268   8.338  0.1834  0.0055 -0.4340
 2762TIP3    H129845   0.963   0.239   8.362  0.1277 -0.7150 -1.0521
 2762TIP3    H229846   0.851   0.212   8.265 -0.9684 -0.1104  0.0134
 2763TIP3   OH229847   6.403   0.070   7.512 -0.1593  0.3023  0.1316
 2763TIP3    H129848   6.374   0.150   7.556  0.5419 -0.7516  2.6957
 2763TIP3    H229849   6.478   0.098   7.459 -0.2316  1.4319  0.5978
 2764TIP3   OH229850   2.425   1.171   0.643  0.2251 -0.0644 -0.5197
 2764TIP3    H129851   2.441   1.091   0.593 -0.1912 -0.0255 -0.7266
 2764TIP3    H229852   2.489   1.169   0.714 -1.0099 -1.5617  0.6356
 2765TIP3   OH229853   6.918   3.203   1.952  0.1627  0.2870  0.6190
 2765TIP3    H129854   6.836   3.201   1.903  1.0603 -0.1757 -0.9205
 2765TIP3    H229855   6.896   3.164   2.037 -0.9232 -1.1038 -0.2536
 2766TIP3   OH229856   4.687   2.613   7.186  0.4464 -0.3372  0.1695
 2766TIP3    H129857   4.668   2.641   7.276  1.3589  0.3914  0.1349
 2766TIP3    H229858   4.756   2.671   7.156  1.7092 -1.9884 -0.2398
 2767TIP3   OH229859   5.474   2.060   0.325  0.6689  0.3101 -0.0130
 2767TIP3    H129860   5.475   2.090   0.234  0.7091  1.8777  0.4889
 2767TIP3    H229861   5.447   1.968   0.319 -0.1407  0.6200 -1.5314
 2768TIP3   OH229862   6.452   1.748   7.746  0.4059 -0.1849 -0.4484
 2768TIP3    H129863   6.534   1.724   7.704  0.9581  2.0348 -0.7245
 2768TIP3    H229864   6.465   1.838   7.775 -1.6363 -0.0763  0.2656
 2769TIP3   OH229865   2.939   5.635   0.907  0.4458  0.2988 -0.5143
 2769TIP3    H129866   2.927   5.715   0.958  1.1840 -1.5672  2.9240
 2769TIP3    H229867   3.028   5.641   0.874  0.6561  0.7471  0.1061
 2770TIP3   OH229868   2.905   2.545   7.590  0.4027  0.0535  0.3133
 2770TIP3    H129869   2.870   2.458   7.570  0.0635 -0.4981  2.9644
 2770TIP3    H229870   2.997   2.541   7.563  0.5885 -1.4201  1.0903
 2771TIP3   OH229871   2.556   3.305   1.532 -0.6443  0.2083 -0.2312
 2771TIP3    H129872   2.508   3.245   1.589  1.3999 -0.7287  0.6208
 2771TIP3    H229873   2.597   3.367   1.592  0.4978 -0.0130 -0.7491
 2772TIP3   OH229874   5.445   4.310   0.407 -0.2793  0.0948  0.0147
 2772TIP3    H129875   5.349   4.305   0.408 -0.2306 -0.9458  0.4749
 2772TIP3    H229876   5.464   4.402   0.426 -1.1811  0.2508  0.2021
 2773TIP3   OH229877   2.374   0.743   6.429  0.0792  0.1265 -0.0400
 2773TIP3    H129878   2.396   0.829   6.395  2.1844  0.5069  2.0820
 2773TIP3    H229879   2.451   0.689   6.412  0.4112 -0.2046  2.1844
 2774TIP3   OH229880   0.776   4.416   0.209  0.6516 -0.0468 -0.4215
 2774TIP3    H129881   0.712   4.463   0.155 -0.2097  0.2773  0.8420
 2774TIP3    H229882   0.825   4.484   0.254 -1.5397 -0.2197  2.5085
 2775TIP3   OH229883   0.959   5.088   7.782 -0.7173 -0.4795 -0.0298
 2775TIP3    H129884   0.987   5.109   7.870 -0.8495 -0.1037 -0.0756
 2775TIP3    H229885   1.034   5.045   7.742  0.2230  1.5012 -0.5177
 2776TIP3   OH229886   3.919   0.193   7.997 -0.1157 -0.3235 -0.0186
 2776TIP3    H129887   3.937   0.111   8.044 -2.1854  0.1416  1.7424
 2776TIP3    H229888   3.825   0.189   7.978 -0.3530  1.8484  0.5366
 2777TIP3   OH229889   0.984   3.125   8.535 -0.3729  0.2401  0.3937
 2777TIP3    H129890   0.911   3.143   8.594 -0.0432  0.2285  0.8085
 2777TIP3    H229891   0.944   3.115   8.449 -0.8949 -0.1286  0.6814
 2778TIP3   OH229892   0.803   4.956   8.141  0.9730 -0.1287 -0.1353
 2778TIP3    H129893   0.869   4.934   8.074  1.6894  0.9637  0.1776
 2778TIP3    H229894   0.847   5.018   8.198  0.2719 -0.8289  1.2149
 2779TIP3   OH229895   0.101   1.244   0.199 -0.1978  0.3354  0.1369
 2779TIP3    H129896   0.196   1.242   0.213 -0.0844  1.8679 -0.2223
 2779TIP3    H229897   0.070   1.161   0.235  1.4006 -0.6716 -0.7029
 2780TIP3   OH229898   5.935   1.251   1.095  0.1718  0.0473  0.1444
 2780TIP3    H129899   5.954   1.287   1.009  1.8360 -0.7024  0.1618
 2780TIP3    H229900   5.969   1.161   1.092  0.9488  0.2496  1.8057
 2781TIP3   OH229901   1.926   2.905   6.562 -0.1289 -0.1574 -0.8995
 2781TIP3    H129902   1.898   2.925   6.651  0.2177 -0.0697 -0.8085
 2781TIP3    H229903   1.972   2.821   6.570 -0.4442 -0.3476 -1.0626
 2782TIP3   OH229904   0.445   3.439   0.853  0.0083  0.3386 -0.3109
 2782TIP3    H129905   0.480   3.499   0.787  0.8677 -0.8318 -0.9432
 2782TIP3    H229906   0.485   3.355   0.832 -0.8188 -0.3564  0.8503
 2783TIP3   OH229907   4.273   5.275   7.584 -0.0399 -0.2398 -0.2804
 2783TIP3    H129908   4.306   5.200   7.634  0.1713  0.3741  0.5372
 2783TIP3    H229909   4.352   5.319   7.552 -0.1473 -0.1555 -0.4318
 2784TIP3   OH229910   5.860   2.254   0.795 -0.8852 -0.0103 -0.4920
 2784TIP3    H129911   5.790   2.315   0.769 -0.2114  0.4028 -1.3785
 2784TIP3    H229912   5.922   2.308   0.843  0.5854  0.4532 -2.7485
 2785TIP3   OH229913   4.155   3.143   1.775  0.4185  0.1762 -0.0641
 2785TIP3    H129914   4.077   3.088   1.780  1.2675 -0.9676  1.6544
 2785TIP3    H229915   4.126   3.223   1.731 -1.3370 -0.8146 -0.8157
 2786TIP3   OH229916   5.846   1.045   0.291  0.3085  0.0444 -0.0402
 2786TIP3    H129917   5.774   1.086   0.243  0.2365 -0.1194 -0.0740
 2786TIP3    H229918   5.919   1.045   0.228  1.1603  2.5722  0.8226
 2787TIP3   OH229919   2.324   1.681   1.445  0.2588  0.1496 -0.1511
 2787TIP3    H129920   2.317   1.755   1.507  0.5888  0.5354 -0.5682
 2787TIP3    H229921   2.412   1.646   1.460 -0.6398 -1.5826  1.6087
 2788TIP3   OH229922   2.627   2.100   7.386  0.3843  0.9971 -0.1855
 2788TIP3    H129923   2.685   2.053   7.446  0.4790  0.7343 -0.4788
 2788TIP3    H229924   2.641   2.058   7.301 -1.0418  0.1950 -0.0557
 2789TIP3   OH229925   6.262   3.030   0.012 -0.2200  0.3510  0.0839
 2789TIP3    H129926   6.175   3.024   0.052  0.5374 -0.5315  1.7118
 2789TIP3    H229927   6.265   3.118  -0.025 -1.5723  0.6335  0.5844
 2790TIP3   OH229928   3.240   6.202   0.527 -0.4300 -0.5491  0.0573
 2790TIP3    H129929   3.169   6.255   0.561  0.6271 -0.1688  1.7695
 2790TIP3    H229930   3.197   6.134   0.475 -1.9623  0.2559  0.2346
 2791TIP3   OH229931   4.371   4.884   0.650 -0.2330 -0.2261 -0.1749
 2791TIP3    H129932   4.462   4.914   0.642 -0.4638 -0.0752 -3.7191
 2791TIP3    H229933   4.356   4.831   0.571 -2.1355 -3.5758  2.1578
 2792TIP3   OH229934   6.596   5.631   6.738 -0.4570  0.1750  0.6066
 2792TIP3    H129935   6.691   5.647   6.739 -0.3495 -0.3276  2.1681
 2792TIP3    H229936   6.587   5.537   6.750 -1.1639  0.0681 -0.6150
 2793TIP3   OH229937   4.642   6.016   0.070  0.6495 -0.5134  0.0810
 2793TIP3    H129938   4.636   6.102   0.028  1.3051 -1.5462 -2.2889
 2793TIP3    H229939   4.551   5.987   0.079  0.4939 -0.7410 -1.7982
 2794TIP3   OH229940   6.516   6.460   2.536  0.0747 -0.1308 -0.3253
 2794TIP3    H129941   6.524   6.555   2.546 -1.4178  0.6856 -4.8995
 2794TIP3    H229942   6.469   6.432   2.614  1.3375  2.6672  1.6183
 2795TIP3   OH229943   1.682   3.550   1.306  0.8138  0.1200  0.4427
 2795TIP3    H129944   1.704   3.610   1.234  2.8859  2.5435  2.8793
 2795TIP3    H229945   1.731   3.470   1.286  0.1567  0.1442 -1.5197
 2796TIP3   OH229946   0.838   2.381   8.102  0.0629  0.1147 -0.3094
 2796TIP3    H129947   0.819   2.287   8.102  0.6811 -0.0139 -0.4922
 2796TIP3    H229948   0.796   2.414   8.181 -0.0759 -0.3352 -0.1944
 2797TIP3   OH229949   6.154   5.752   0.454 -0.3930  0.3116 -0.6312
 2797TIP3    H129950   6.216   5.756   0.381  0.0974 -2.1811 -0.4500
 2797TIP3    H229951   6.210   5.745   0.531 -0.9229  1.8916 -0.0640
 2798TIP3   OH229952   1.522   0.418   0.578  0.1669 -0.0439 -0.1190
 2798TIP3    H129953   1.554   0.336   0.540  0.8382 -0.3913  1.1412
 2798TIP3    H229954   1.465   0.390   0.649  1.5424  0.5399  1.2615
 2799TIP3   OH229955   5.976   2.108   6.836  0.5017 -0.0894  0.1240
 2799TIP3    H129956   6.007   2.155   6.914  0.7363 -0.3153  0.1691
 2799TIP3    H229957   5.916   2.042   6.870  2.1089 -1.5222  0.3434
 2800TIP3   OH229958   6.686   4.589   1.107 -0.0379 -0.0790  0.1236
 2800TIP3    H129959   6.647   4.508   1.075  3.3582 -0.8948 -2.4217
 2800TIP3    H229960   6.717   4.567   1.195  1.1366 -1.7146 -0.6500
 2801TIP3   OH229961   2.875   1.755   7.769  0.3000 -0.2951  0.0370
 2801TIP3    H129962   2.961   1.729   7.737  0.0962 -0.4733 -0.3680
 2801TIP3    H229963   2.826   1.778   7.690  0.3291  0.8956  0.3428
 2802TIP3   OH229964   6.058   0.618   0.896  0.0037  0.8350 -0.8233
 2802TIP3    H129965   6.041   0.664   0.978 -0.4217  0.2437 -0.5664
 2802TIP3    H229966   6.003   0.662   0.831 -2.0242 -0.5693 -0.1571
 2803TIP3   OH229967   2.098   0.950   2.131  0.1876 -0.4804 -0.4621
 2803TIP3    H129968   2.096   1.016   2.061 -1.9672 -0.3589 -0.3577
 2803TIP3    H229969   2.023   0.895   2.114  1.0887 -2.0210  0.3405
 2804TIP3   OH229970   4.267   1.315   0.272  0.6716 -0.1929 -0.5664
 2804TIP3    H129971   4.289   1.370   0.197  1.5033  1.2800  0.7176
 2804TIP3    H229972   4.342   1.255   0.281 -0.4509 -1.9782 -2.2655
 2805TIP3   OH229973   1.461   2.094   1.735  0.5613  0.0729 -0.9462
 2805TIP3    H129974   1.520   2.119   1.664  1.2846 -1.3540 -0.8861
 2805TIP3    H229975   1.397   2.036   1.695  0.1981  0.2733 -0.6698
 2806TIP3   OH229976   4.082   0.397   1.688  0.0192  0.1160  0.7687
 2806TIP3    H129977   4.096   0.305   1.708  0.7506  0.4448  1.8676
 2806TIP3    H229978   4.130   0.444   1.756 -1.4053  1.3154  1.0013
 2807TIP3   OH229979   3.724   5.212   8.437 -0.5398 -0.2213 -0.5791
 2807TIP3    H129980   3.673   5.291   8.455 -1.6887 -1.0440 -0.0614
 2807TIP3    H229981   3.805   5.243   8.396 -0.1779  1.3386  1.2228
 2808TIP3   OH229982   4.390   2.521   6.822  0.4669  1.1159 -0.0046
 2808TIP3    H129983   4.382   2.456   6.753  1.9781  1.2284 -0.3175
 2808TIP3    H229984   4.440   2.477   6.891 -0.0191  1.3876  0.5314
 2809TIP3   OH229985   5.346   6.833   7.224  0.0631 -0.7974 -0.8176
 2809TIP3    H129986   5.284   6.869   7.161  0.6014  0.0218 -0.9010
 2809TIP3    H229987   5.428   6.824   7.174  0.9002  1.2254  0.0850
 2810TIP3   OH229988   2.450   5.944   1.172 -0.0083 -0.3644 -0.6669
 2810TIP3    H129989   2.427   5.892   1.250  1.0078  2.2930  1.5518
 2810TIP3    H229990   2.534   5.908   1.144  0.2547 -0.5090  0.2752
 2811TIP3   OH229991   3.391   3.203   0.630  0.4870 -0.0042 -0.4836
 2811TIP3    H129992   3.468   3.148   0.641  0.5716  0.1418 -0.3304
 2811TIP3    H229993   3.334   3.155   0.569  1.3894  0.6040 -1.8610
 2812TIP3   OH229994   4.902   5.907   1.637  0.2700  0.7132 -0.7532
 2812TIP3    H129995   4.849   5.828   1.638  0.6842  0.4273  0.1318
 2812TIP3    H229996   4.838   5.979   1.644 -0.1220  0.4898 -1.8316
 2813TIP3   OH229997   4.032   2.692   6.036 -0.4784 -0.1914  0.0800
 2813TIP3    H129998   3.941   2.721   6.030 -0.1113  1.5001  1.7535
 2813TIP3    H229999   4.075   2.759   6.089  1.3337 -1.9055  0.8911
 2814TIP3   OH230000   3.059   2.171   6.900  0.5265 -0.8175  0.1212
 2814TIP3    H130001   3.097   2.255   6.928 -0.0726 -0.7658  0.8007
 2814TIP3    H230002   3.033   2.185   6.809 -1.9227  0.5913  0.9538
 2815TIP3   OH230003   0.686   2.198   0.380  0.6241  0.0162 -0.2044
 2815TIP3    H130004   0.616   2.230   0.323  0.9324 -0.5991 -0.9445
 2815TIP3    H230005   0.749   2.271   0.385 -0.7783  1.1954  1.7577
 2816TIP3   OH230006   6.459   3.514   0.949  0.0617  0.3984  0.3173
 2816TIP3    H130007   6.514   3.591   0.941 -0.9034  1.0982  0.2918
 2816TIP3    H230008   6.519   3.445   0.977  0.8763  1.2339  0.6828
 2817TIP3   OH230009   3.452   2.555   7.548  0.3116  0.2032 -0.1784
 2817TIP3    H130010   3.390   2.628   7.543 -0.3103 -0.3583 -0.9972
 2817TIP3    H230011   3.481   2.554   7.639 -0.3829  0.8869  0.0616
 2818TIP3   OH230012   4.538   0.989   7.020 -0.1486  0.2473 -0.2326
 2818TIP3    H130013   4.443   0.991   7.028 -0.1546  1.1375 -0.3902
 2818TIP3    H230014   4.560   1.075   6.985  0.8898  0.8834  1.7967
 2819TIP3   OH230015   3.704   2.519   6.862 -0.0026 -0.1889 -0.2643
 2819TIP3    H130016   3.624   2.472   6.888 -0.2113 -0.1841 -0.8800
 2819TIP3    H230017   3.763   2.451   6.830 -0.3375 -0.0389 -1.2386
 2820TIP3   OH230018   5.412   3.253   7.078 -0.6941  0.5816 -0.3419
 2820TIP3    H130019   5.348   3.249   7.007 -0.5824  2.4161 -0.6089
 2820TIP3    H230020   5.435   3.346   7.083  0.8200  0.1777  0.7525
 2821TIP3   OH230021   4.828   6.309   1.310 -0.0563  0.0021  0.1822
 2821TIP3    H130022   4.902   6.325   1.252 -0.2029 -0.6276 -0.1962
 2821TIP3    H230023   4.810   6.215   1.300 -0.4419  0.0028  0.8182
 2822TIP3   OH230024   4.614   6.835   8.193  0.6849 -0.1139  0.4635
 2822TIP3    H130025   4.610   6.926   8.163  1.0322 -0.2440  0.0168
 2822TIP3    H230026   4.544   6.828   8.257  0.1791  0.2694 -0.0380
 2823TIP3   OH230027   2.609   3.433   8.020  0.2944  0.1541 -0.1302
 2823TIP3    H130028   2.568   3.519   8.018 -2.1089 -0.9255 -2.7677
 2823TIP3    H230029   2.617   3.407   7.928  0.2668 -2.7328  0.5717
 2824TIP3   OH230030   2.775   4.191   1.422  0.2417  0.7233 -0.5406
 2824TIP3    H130031   2.758   4.195   1.516 -3.0522  2.2977 -1.0470
 2824TIP3    H230032   2.839   4.261   1.406  0.1140  1.0793  0.4521
 2825TIP3   OH230033   1.339   0.830   1.471  0.1400  0.3123 -0.3213
 2825TIP3    H130034   1.278   0.793   1.407 -2.2781 -0.6017  2.2705
 2825TIP3    H230035   1.382   0.754   1.510  0.6143  0.7484  0.0246
 2826TIP3   OH230036   4.908   3.611   5.818  0.2281  0.2029  0.4081
 2826TIP3    H130037   4.986   3.613   5.873 -0.2625 -1.3439  1.2140
 2826TIP3    H230038   4.866   3.528   5.839 -0.1231 -0.3319 -2.1594
 2827TIP3   OH230039   0.119   4.121   0.810  0.5066  0.0352  0.0556
 2827TIP3    H130040   0.156   4.066   0.741 -0.2816 -0.0242 -0.3279
 2827TIP3    H230041   0.026   4.129   0.787 -0.2611 -1.6951  2.1842
 2828TIP3   OH230042   5.321   4.084   6.754  0.4375 -0.1193  0.3825
 2828TIP3    H130043   5.294   4.151   6.692  1.4606  1.8431  1.9421
 2828TIP3    H230044   5.404   4.051   6.721  0.5749  0.3310  0.2828
 2829TIP3   OH230045   2.182   2.677   2.028  0.1607 -0.1261 -0.3851
 2829TIP3    H130046   2.100   2.631   2.047 -0.0208 -0.3941 -1.7242
 2829TIP3    H230047   2.221   2.692   2.114 -2.8386  2.9630  0.6341
 2830TIP3   OH230048   4.791   3.014   1.207 -0.1467  0.6324 -0.0087
 2830TIP3    H130049   4.839   3.076   1.261 -0.3342  0.8051 -0.0400
 2830TIP3    H230050   4.843   2.933   1.212  0.8400  1.1732 -1.0869
 2831TIP3   OH230051   2.552   2.693   1.452  0.3583  0.1007 -0.3642
 2831TIP3    H130052   2.565   2.729   1.539  0.6567 -0.2378 -0.2638
 2831TIP3    H230053   2.517   2.765   1.400  1.7570  0.8014 -0.3845
 2832TIP3   OH230054   6.042   0.994   0.809 -0.7121  0.2733  0.3176
 2832TIP3    H130055   6.072   1.085   0.814 -1.4736  0.6282 -1.0203
 2832TIP3    H230056   6.101   0.954   0.744 -1.8056  0.4484 -0.8250
 2833TIP3   OH230057   1.405   3.164   0.449 -0.0134  0.3192  0.1218
 2833TIP3    H130058   1.409   3.253   0.484 -0.0029  0.1577  0.5456
 2833TIP3    H230059   1.480   3.158   0.390 -0.2095  0.6985 -0.1675
 2834TIP3   OH230060   2.110   0.725   2.401  0.1080  0.5072 -0.8362
 2834TIP3    H130061   2.177   0.756   2.340  1.6275 -0.1235  0.4261
 2834TIP3    H230062   2.148   0.741   2.488  0.5493 -3.5907 -0.0506
 2835TIP3   OH230063   0.981   3.028   0.712  0.0601 -0.1068 -0.3146
 2835TIP3    H130064   1.039   3.019   0.637 -0.9176  0.5175 -1.1761
 2835TIP3    H230065   1.007   2.958   0.772  0.7885 -0.6769 -1.2767
 2836TIP3   OH230066   1.624   6.351   1.021  0.5494  0.3142 -0.6173
 2836TIP3    H130067   1.578   6.426   0.984 -0.4690 -0.7604 -1.5995
 2836TIP3    H230068   1.690   6.328   0.956  0.7441  0.2333 -0.3954
 2837TIP3   OH230069   2.839   3.926   0.429 -0.2483 -0.8159  0.3066
 2837TIP3    H130070   2.861   3.975   0.350 -1.9450 -0.7920 -0.1859
 2837TIP3    H230071   2.910   3.862   0.437 -0.0072 -0.7840 -1.2046
 2838TIP3   OH230072   0.744   2.456   6.484  0.5429  0.2469  0.2087
 2838TIP3    H130073   0.734   2.539   6.437  0.0927 -0.1640 -0.4464
 2838TIP3    H230074   0.824   2.466   6.534  1.2162  0.6040 -0.8986
 2839TIP3   OH230075   3.514   2.400   6.338 -0.0697  0.5115  0.2729
 2839TIP3    H130076   3.467   2.344   6.399 -0.2946  1.5645  1.0894
 2839TIP3    H230077   3.462   2.399   6.258 -2.1501  2.5373  1.5018
 2840TIP3   OH230078   1.184   4.260   0.745 -0.0405  0.2844  0.1447
 2840TIP3    H130079   1.248   4.224   0.807  1.5020  2.9325  0.2727
 2840TIP3    H230080   1.231   4.332   0.702 -1.3472 -0.8497 -3.5314
 2841TIP3   OH230081   5.295   2.145   0.554  0.2078 -0.2764 -0.4225
 2841TIP3    H130082   5.380   2.123   0.516  0.3596  0.3222 -0.4427
 2841TIP3    H230083   5.232   2.127   0.485  0.0118 -3.1170  0.3821
 2842TIP3   OH230084   2.765   2.187   0.106  0.1161 -0.5262  0.2397
 2842TIP3    H130085   2.853   2.151   0.099  0.0030 -0.9951  1.0820
 2842TIP3    H230086   2.712   2.115   0.140 -0.8807 -0.6662 -1.4790
 2843TIP3   OH230087   2.393   3.242   8.455 -0.5231 -0.2182 -0.1082
 2843TIP3    H130088   2.425   3.174   8.396 -0.7248 -0.0256 -0.4438
 2843TIP3    H230089   2.360   3.194   8.531 -1.0123 -0.5242 -0.5044
 2844TIP3   OH230090   3.734   2.348   8.028 -0.1715  0.4254 -0.0932
 2844TIP3    H130091   3.762   2.439   8.024  0.9305  0.1334  0.5871
 2844TIP3    H230092   3.687   2.340   8.111 -0.6212  0.4619 -0.3403
 2845TIP3   OH230093   1.428   2.475   0.227 -0.0899  0.5177 -0.1937
 2845TIP3    H130094   1.451   2.384   0.208  1.9127  0.4665  2.0676
 2845TIP3    H230095   1.333   2.474   0.234 -0.0888 -1.4926  0.1752
 2846TIP3   OH230096   4.108   4.915   1.572 -0.0271 -0.3974  0.2616
 2846TIP3    H130097   4.052   4.981   1.533 -0.0228 -0.6159 -0.1201
 2846TIP3    H230098   4.196   4.938   1.544 -0.0686 -0.7932 -0.2075
 2847TIP3   OH230099   4.998   5.185   1.694  0.1467 -0.1619 -0.5277
 2847TIP3    H130100   4.939   5.213   1.764 -1.2610  1.3605 -2.2272
 2847TIP3    H230101   5.051   5.263   1.675 -0.1926 -0.2207 -1.8027
 2848TIP3   OH230102   0.808   1.352   1.859 -0.2839  0.7841  0.2537
 2848TIP3    H130103   0.803   1.391   1.772 -2.0240 -0.1667 -0.1269
 2848TIP3    H230104   0.742   1.398   1.911 -2.2872 -1.4203 -0.1710
 2849TIP3   OH230105   0.478   6.259   0.191  0.3414 -0.3640  0.2383
 2849TIP3    H130106   0.390   6.294   0.174 -0.8774 -2.8288  0.9741
 2849TIP3    H230107   0.531   6.290   0.117 -1.3829  0.3913 -0.7452
 2850TIP3   OH230108   2.596   0.452   2.074 -0.6154 -0.4829  0.0096
 2850TIP3    H130109   2.636   0.532   2.108  2.5791 -1.6638 -0.6613
 2850TIP3    H230110   2.662   0.384   2.086 -1.5500 -2.1754 -3.1181
 2851TIP3   OH230111   1.854   2.041   8.419  1.1173 -0.2229  0.4068
 2851TIP3    H130112   1.931   2.073   8.373  0.2308 -0.4295 -1.3006
 2851TIP3    H230113   1.793   2.115   8.420  0.8223 -0.4626  0.5624
 2852TIP3   OH230114   6.546   3.393   6.615 -0.6334  0.0215  0.1499
 2852TIP3    H130115   6.509   3.305   6.610  2.0138 -1.2196  0.7081
 2852TIP3    H230116   6.621   3.392   6.554  0.5032  1.2930  1.4335
 2853TIP3   OH230117   6.508   1.396   7.363 -0.4832  0.0086 -0.1660
 2853TIP3    H130118   6.595   1.369   7.393  0.9443  1.7636 -2.4254
 2853TIP3    H230119   6.525   1.443   7.281 -3.3624  2.3397  0.4587
 2854TIP3   OH230120   5.197   2.543   0.163 -0.0171 -0.0490 -0.3821
 2854TIP3    H130121   5.176   2.629   0.198  0.8047 -0.2731  0.7284
 2854TIP3    H230122   5.273   2.514   0.215 -3.0537 -3.4940  2.7129
 2855TIP3   OH230123   0.159   3.920   6.538  0.6399  0.6092 -0.6133
 2855TIP3    H130124   0.209   3.997   6.564  1.2362  0.0609 -0.1224
 2855TIP3    H230125   0.129   3.881   6.620 -0.3725  0.7758 -0.8881
 2856TIP3   OH230126   6.182   3.235   6.291 -0.1987  0.1792 -0.3176
 2856TIP3    H130127   6.158   3.299   6.358 -2.1928  0.4394 -1.2023
 2856TIP3    H230128   6.233   3.285   6.227  0.3600  0.3026  0.2266
 2857TIP3   OH230129   2.219   5.925   6.285 -0.3008  0.0624 -0.0779
 2857TIP3    H130130   2.127   5.952   6.292 -0.6494 -1.4802  2.7589
 2857TIP3    H230131   2.265   6.006   6.262 -1.9977  1.6987  1.8326
 2858TIP3   OH230132   5.562   2.604   7.615 -0.0190 -0.3056  0.3555
 2858TIP3    H130133   5.531   2.533   7.559  0.6075 -0.5925  0.3698
 2858TIP3    H230134   5.564   2.681   7.558 -1.8972  0.0038  0.6418
 2859TIP3   OH230135   4.769   0.020   7.914 -0.1672  0.1664 -0.4411
 2859TIP3    H130136   4.799   0.016   7.823 -0.4777 -1.4599 -0.4926
 2859TIP3    H230137   4.674   0.025   7.907 -0.1367  1.4255 -0.2070
 2860TIP3   OH230138   4.469   5.894   8.103  0.3661 -0.0909 -0.2340
 2860TIP3    H130139   4.544   5.946   8.074 -0.3236  0.0880 -1.8271
 2860TIP3    H230140   4.494   5.804   8.087  0.8889 -0.1686  0.8950
 2861TIP3   OH230141   1.532   3.444   6.436  0.4047  0.3870 -0.0237
 2861TIP3    H130142   1.440   3.465   6.422  0.6199  1.6975  0.3853
 2861TIP3    H230143   1.575   3.529   6.445  1.3555 -0.2319  1.6754
 2862TIP3   OH230144   0.738   4.957   2.132  0.0539  0.1970  0.0860
 2862TIP3    H130145   0.768   4.975   2.043 -2.1138  2.3486 -0.3240
 2862TIP3    H230146   0.787   5.020   2.187  0.8783 -0.6536  0.3511
 2863TIP3   OH230147   5.441   5.532   7.741 -0.1537  0.3474 -0.2944
 2863TIP3    H130148   5.518   5.589   7.732  2.1653 -2.0545  2.3191
 2863TIP3    H230149   5.436   5.487   7.656 -0.1310  2.0948 -1.2834
 2864TIP3   OH230150   0.319   3.102   6.492 -0.1778  0.3349 -0.5727
 2864TIP3    H130151   0.377   3.176   6.479  1.3199 -0.6076  0.4174
 2864TIP3    H230152   0.277   3.089   6.406  0.8312  1.2351 -1.2268
 2865TIP3   OH230153   0.605   4.575   2.731  0.4019  0.2017  0.7511
 2865TIP3    H130154   0.565   4.602   2.648  0.6035  2.8357  1.4286
 2865TIP3    H230155   0.574   4.485   2.744 -3.4307  1.2577  0.1054
 2866TIP3   OH230156   5.332   6.382   2.299  0.2176  0.1874  0.0753
 2866TIP3    H130157   5.247   6.358   2.263  0.5812 -2.0118  0.5237
 2866TIP3    H230158   5.328   6.356   2.391  1.4363 -0.1776  0.0455
 2867TIP3   OH230159   1.170   0.404   7.279  0.1396  0.4188  0.7038
 2867TIP3    H130160   1.097   0.418   7.218  0.7032 -1.4611 -0.4730
 2867TIP3    H230161   1.170   0.483   7.334 -2.5089  0.6675  0.4817
 2868TIP3   OH230162   3.361   6.791   2.109 -0.6053 -0.3956 -0.0335
 2868TIP3    H130163   3.401   6.770   2.193 -1.0161 -0.0865  0.2449
 2868TIP3    H230164   3.426   6.845   2.063 -1.2714  1.4432  1.0477
 2869TIP3   OH230165   2.475   5.192   1.666 -0.6126 -0.2333 -0.4217
 2869TIP3    H130166   2.389   5.186   1.624 -0.2387  0.7555 -1.3829
 2869TIP3    H230167   2.455   5.205   1.759 -1.4559 -2.2802 -0.2687
 2870TIP3   OH230168   5.995   6.474   1.148  0.0725  0.0410  0.4449
 2870TIP3    H130169   6.077   6.437   1.180  0.1000  0.2699  0.6456
 2870TIP3    H230170   5.992   6.451   1.055  1.6397  2.2359 -0.2317
 2871TIP3   OH230171   4.499   6.065   1.279  0.3548  0.1038 -0.0852
 2871TIP3    H130172   4.510   5.974   1.250 -0.2269  0.0178 -0.0499
 2871TIP3    H230173   4.446   6.059   1.358  0.2055  0.4784 -0.1519
 2872TIP3   OH230174   3.743   4.467   0.486 -0.5598 -0.1110 -0.4956
 2872TIP3    H130175   3.707   4.408   0.420 -2.3588 -0.2168  0.5445
 2872TIP3    H230176   3.732   4.421   0.569 -0.4226  0.9710  0.1380
 2873TIP3   OH230177   2.912   1.185   8.121  0.6321 -0.1112 -0.6538
 2873TIP3    H130178   2.963   1.159   8.044  0.3225  1.0070 -1.2526
 2873TIP3    H230179   2.948   1.270   8.146  0.0446  0.0008 -0.1822
 2874TIP3   OH230180   4.290   5.040   5.997  0.7305  0.1864  0.1439
 2874TIP3    H130181   4.227   5.022   6.067  0.0243  2.4216  0.1787
 2874TIP3    H230182   4.375   5.019   6.036  0.2942  0.6956  1.4438
 2875TIP3   OH230183   2.672   2.009   1.298 -0.5463 -0.3323  0.2983
 2875TIP3    H130184   2.587   1.983   1.263 -0.1797 -0.7189 -0.3151
 2875TIP3    H230185   2.729   2.013   1.222 -0.3956  1.5495  0.4592
 2876TIP3   OH230186   0.085   1.640   0.015  0.2257 -0.3476 -0.2797
 2876TIP3    H130187   0.010   1.652   0.073 -0.1162  0.3286 -0.8525
 2876TIP3    H230188   0.159   1.630   0.074 -0.0996  0.4302  0.2849
 2877TIP3   OH230189   0.787   4.319   6.873 -0.1528 -0.2067 -0.9508
 2877TIP3    H130190   0.791   4.405   6.832  0.9854  1.0073  1.4677
 2877TIP3    H230191   0.693   4.303   6.885 -0.3712  1.5682  0.1537
 2878TIP3   OH230192   3.889   0.959   7.806  0.5253 -0.0866 -0.5695
 2878TIP3    H130193   3.878   0.983   7.714 -0.5942  0.1459 -0.3845
 2878TIP3    H230194   3.919   1.039   7.849  1.7700 -0.3846 -0.8460
 2879TIP3   OH230195   1.632   2.088   6.322  0.6092 -0.0607 -0.2569
 2879TIP3    H130196   1.567   2.104   6.253  2.3122 -0.0434 -1.9166
 2879TIP3    H230197   1.639   1.993   6.327  0.8327 -0.0514 -0.4247
 2880TIP3   OH230198   4.083   4.543   6.383  0.0911  0.6183  0.4944
 2880TIP3    H130199   4.173   4.529   6.352  0.0817 -0.3053  0.8583
 2880TIP3    H230200   4.031   4.544   6.303  0.2550 -0.2614  0.3724
 2881TIP3   OH230201   0.849   0.688   2.348 -0.3907 -0.2954  0.1061
 2881TIP3    H130202   0.904   0.629   2.297 -0.6734 -2.0488  1.7246
 2881TIP3    H230203   0.910   0.733   2.406 -0.5660 -2.0065  1.6793
 2882TIP3   OH230204   2.341   0.784   7.749  0.0626 -0.0673  0.2911
 2882TIP3    H130205   2.278   0.856   7.755  0.8338  0.5829  0.5969
 2882TIP3    H230206   2.307   0.729   7.678 -0.3740  0.7386 -0.1389
 2883TIP3   OH230207   6.317   3.542   6.700 -0.1963  0.1090 -0.2351
 2883TIP3    H130208   6.409   3.527   6.679 -0.1488  1.0619 -0.7522
 2883TIP3    H230209   6.282   3.454   6.714  0.5816 -0.3366 -0.9355
 2884TIP3   OH230210   5.669   5.298   2.680 -0.4460 -0.0340 -0.5085
 2884TIP3    H130211   5.678   5.348   2.599 -0.2630 -0.3933 -0.7166
 2884TIP3    H230212   5.676   5.207   2.652  0.8116 -0.1294  0.0511
 2885TIP3   OH230213   5.387   5.290   1.741  0.1044  0.1788  0.1541
 2885TIP3    H130214   5.447   5.253   1.676 -0.5185 -0.9100  0.1930
 2885TIP3    H230215   5.409   5.246   1.823 -1.2156 -0.7605  0.0278
 2886TIP3   OH230216   0.149   2.963   1.459  0.1955 -0.3763 -0.0688
 2886TIP3    H130217   0.190   3.028   1.515 -0.1617 -2.1073  2.3635
 2886TIP3    H230218   0.189   2.880   1.484 -1.1240 -1.4436 -1.2741
 2887TIP3   OH230219   1.122   0.964   0.609 -0.0916 -0.3269  0.2222
 2887TIP3    H130220   1.092   0.882   0.648 -0.1493 -0.6947 -0.5731
 2887TIP3    H230221   1.216   0.964   0.622  0.0189 -0.9395 -0.5444
 2888TIP3   OH230222   1.185   4.984   0.018 -0.5786  0.5435  0.5573
 2888TIP3    H130223   1.148   5.070   0.038  1.2892  1.7039 -0.6216
 2888TIP3    H230224   1.251   5.002  -0.050 -0.6621 -1.9377 -0.2667
 2889TIP3   OH230225   3.140   1.489   0.704  0.0171 -0.4863  0.1754
 2889TIP3    H130226   3.054   1.492   0.746 -0.6836 -0.7695 -1.1983
 2889TIP3    H230227   3.201   1.511   0.774 -1.0086 -1.9205  1.5881
 2890TIP3   OH230228   0.087   1.167   7.840 -0.4365  0.7621 -0.2381
 2890TIP3    H130229   0.050   1.244   7.883  0.0743  1.9714 -1.8419
 2890TIP3    H230230   0.179   1.189   7.825 -0.4816  0.2122 -1.4905
 2891TIP3   OH230231   0.126   6.272   0.868 -0.5297 -0.2114  0.0998
 2891TIP3    H130232   0.189   6.201   0.884 -1.8794 -1.9866 -1.9240
 2891TIP3    H230233   0.177   6.340   0.824  1.1509  0.9353  3.4339
 2892TIP3   OH230234   2.076   5.781   8.000  0.2101  0.3698 -0.8894
 2892TIP3    H130235   2.086   5.705   7.942  1.8175  0.1369 -0.3305
 2892TIP3    H230236   2.033   5.746   8.078  1.2320 -0.0387 -0.5032
 2893TIP3   OH230237   4.337   4.029   8.525 -0.3865 -0.5094  0.1033
 2893TIP3    H130238   4.309   4.074   8.605 -1.7601 -0.1398 -0.5427
 2893TIP3    H230239   4.408   4.083   8.491 -0.7903  0.1676  0.3098
 2894TIP3   OH230240   2.856   6.840   0.295 -0.3062  0.3428 -0.3117
 2894TIP3    H130241   2.822   6.807   0.212  0.8059 -0.5087 -0.4450
 2894TIP3    H230242   2.812   6.925   0.307 -1.1127  0.0854 -1.3347
 2895TIP3   OH230243   6.419   3.593   1.706  0.1145  0.9713 -0.1732
 2895TIP3    H130244   6.364   3.555   1.637 -0.6422  1.9615 -0.1281
 2895TIP3    H230245   6.438   3.519   1.765  0.1555  0.2799 -1.0335
 2896TIP3   OH230246   0.940   0.829   2.105 -0.7326  0.2865  0.2975
 2896TIP3    H130247   0.865   0.778   2.136 -1.5375  0.5368 -1.1681
 2896TIP3    H230248   0.937   0.910   2.156 -1.4585  0.2920  0.2588
 2897TIP3   OH230249   6.114   4.608   7.237 -0.1785  0.1293  0.0065
 2897TIP3    H130250   6.094   4.650   7.320 -0.1824  0.7838 -0.3254
 2897TIP3    H230251   6.210   4.613   7.229 -0.1737  0.0284 -0.0143
 2898TIP3   OH230252   2.465   2.970   1.879 -0.1540  0.6660  0.2196
 2898TIP3    H130253   2.370   2.970   1.874 -0.1321 -1.2082 -1.3727
 2898TIP3    H230254   2.486   2.894   1.935  0.4139  1.5928  1.3059
 2899TIP3   OH230255   4.706   5.576   7.193  0.0858  0.3152 -0.6651
 2899TIP3    H130256   4.785   5.598   7.243 -0.6483  0.8303  0.3135
 2899TIP3    H230257   4.727   5.599   7.103  0.3292  2.4434 -0.1054
 2900TIP3   OH230258   2.257   4.992   6.577 -0.0936  0.0098 -0.1231
 2900TIP3    H130259   2.326   5.013   6.514 -0.7337 -0.4308 -0.9892
 2900TIP3    H230260   2.182   4.966   6.523 -1.0547  0.8056  0.7866
 2901TIP3   OH230261   5.498   3.967   0.700 -0.0550 -0.2102 -0.2106
 2901TIP3    H130262   5.589   3.985   0.677 -0.6227  2.9828 -0.3840
 2901TIP3    H230263   5.503   3.929   0.788  1.5475 -3.3105 -1.5083
 2902TIP3   OH230264   0.659   3.671   0.901 -0.4787 -0.0982 -0.0830
 2902TIP3    H130265   0.714   3.706   0.831  0.6555  1.7943  1.6178
 2902TIP3    H230266   0.721   3.626   0.960 -0.8867  0.9314  1.1900
 2903TIP3   OH230267   2.035   0.490   7.617 -0.0796 -0.0583 -0.3235
 2903TIP3    H130268   2.014   0.470   7.525 -0.1425  0.3270 -0.3939
 2903TIP3    H230269   2.022   0.407   7.663 -0.1618 -0.2255 -0.6435
 2904TIP3   OH230270   2.019   5.905   7.239 -0.6318  0.0778  0.2834
 2904TIP3    H130271   1.992   5.959   7.164  1.6162  0.4863 -0.3362
 2904TIP3    H230272   2.019   5.966   7.313  0.8598  0.7349 -0.2051
 2905TIP3   OH230273   4.418   4.713   7.067  0.0110 -0.2736  0.1626
 2905TIP3    H130274   4.322   4.716   7.068 -0.0226 -0.4907 -1.0165
 2905TIP3    H230275   4.445   4.802   7.090 -0.4348 -0.4990  1.6991
 2906TIP3   OH230276   1.311   1.453   6.730  0.4868  0.0987  0.0435
 2906TIP3    H130277   1.234   1.469   6.785  0.9549  2.4805  0.0888
 2906TIP3    H230278   1.325   1.358   6.737 -1.7888 -0.2554  0.8679
 2907TIP3   OH230279   3.618   3.575   2.044 -0.2533 -0.3098  0.6803
 2907TIP3    H130280   3.538   3.537   2.081 -1.2533  0.8035 -0.2667
 2907TIP3    H230281   3.592   3.662   2.015  1.1596 -0.1631 -0.2373
 2908TIP3   OH230282   3.829   4.110   0.361 -0.3752  0.4780  0.0479
 2908TIP3    H130283   3.864   4.043   0.419 -2.1062  0.2577  0.9112
 2908TIP3    H230284   3.756   4.066   0.315 -0.5226  1.3211 -0.5477
 2909TIP3   OH230285   2.896   4.988   8.531  0.0073 -0.0811 -0.2494
 2909TIP3    H130286   2.840   4.917   8.500  0.0291 -0.8660  1.3952
 2909TIP3    H230287   2.843   5.067   8.518 -0.8038 -0.6160 -0.2895
 2910TIP3   OH230288   2.873   6.869   8.060 -0.0074 -0.3001 -0.1978
 2910TIP3    H130289   2.941   6.834   8.002 -0.5253  0.0600 -1.0498
 2910TIP3    H230290   2.919   6.894   8.140  0.6117 -1.4648 -0.1754
 2911TIP3   OH230291   3.228   3.332   0.054 -0.1087 -0.3260 -0.3654
 2911TIP3    H130292   3.321   3.324   0.075 -0.6685 -0.8873  2.3174
 2911TIP3    H230293   3.196   3.241   0.051 -0.7865 -0.1098 -0.0258
 2912TIP3   OH230294   5.457   4.838   1.344  0.6515  0.2823 -0.4498
 2912TIP3    H130295   5.458   4.841   1.248 -1.4676 -0.7851 -0.5638
 2912TIP3    H230296   5.385   4.780   1.365 -0.2859  2.1163  1.8156
 2913TIP3   OH230297   4.845   3.752   8.026 -0.0257 -0.2525 -0.5066
 2913TIP3    H130298   4.849   3.746   8.121 -0.5769 -0.0572 -0.4647
 2913TIP3    H230299   4.922   3.705   7.995 -0.1097 -0.7399  0.0200
 2914TIP3   OH230300   6.768   6.150   1.897  0.0228 -0.1930  0.6286
 2914TIP3    H130301   6.693   6.167   1.954 -0.5292 -0.1653 -0.0969
 2914TIP3    H230302   6.838   6.206   1.932 -1.2140  2.2694 -0.6368
 2915TIP3   OH230303   5.012   5.234   0.730  0.1026  0.3675  0.5000
 2915TIP3    H130304   4.979   5.255   0.643 -0.0733 -1.2569  0.1522
 2915TIP3    H230305   5.106   5.251   0.725  0.0715  0.4060  0.0379
 2916TIP3   OH230306   1.550   2.355   0.546  0.2761 -0.0156  0.9921
 2916TIP3    H130307   1.634   2.391   0.575  0.5364 -0.9048  1.3809
 2916TIP3    H230308   1.560   2.260   0.555  0.7730 -0.5416 -2.9116
 2917TIP3   OH230309   2.453   4.125   8.371 -0.5343  0.4091  0.3751
 2917TIP3    H130310   2.429   4.194   8.432 -4.7902  1.0275 -1.5955
 2917TIP3    H230311   2.434   4.044   8.417 -2.8292  0.8499  0.3441
 2918TIP3   OH230312   6.829   2.197   6.845  0.3165 -0.6536  0.0100
 2918TIP3    H130313   6.769   2.205   6.771  2.5247 -0.5262 -1.8454
 2918TIP3    H230314   6.875   2.114   6.829  1.1182 -0.4178  1.0229
 2919TIP3   OH230315   4.485   3.170   0.214  0.1018  0.1321  0.0535
 2919TIP3    H130316   4.403   3.134   0.249 -0.2989  0.2019 -0.8058
 2919TIP3    H230317   4.547   3.097   0.217  0.4964  0.4710  2.1801
 2920TIP3   OH230318   0.769   1.984   0.074 -0.1112  0.5193  0.2266
 2920TIP3    H130319   0.831   1.914   0.093 -1.1455  0.0365  2.0727
 2920TIP3    H230320   0.705   1.980   0.145 -1.1301  2.2963 -0.5082
 2921TIP3   OH230321   4.834   3.462   8.425 -0.4644 -0.2631 -0.0231
 2921TIP3    H130322   4.808   3.540   8.376 -1.6110 -0.5851  0.0462
 2921TIP3    H230323   4.776   3.393   8.393 -0.1514 -0.8471  0.6501
 2922TIP3   OH230324   0.682   1.089   7.878 -0.3619 -0.3000  0.0401
 2922TIP3    H130325   0.752   1.071   7.815  0.8206 -0.4968  1.3510
 2922TIP3    H230326   0.725   1.082   7.963 -1.4477  1.8978  0.8365
 2923TIP3   OH230327   6.378   4.195   6.881  0.4170  0.4852 -0.4888
 2923TIP3    H130328   6.470   4.178   6.863  0.5046  1.6585 -1.2755
 2923TIP3    H230329   6.337   4.200   6.795 -0.4904 -0.4667 -0.1396
 2924TIP3   OH230330   2.296   5.780   1.008  0.1497 -0.1657 -0.0011
 2924TIP3    H130331   2.299   5.816   0.920  2.1896 -1.1655 -0.4102
 2924TIP3    H230332   2.335   5.849   1.063  1.4090 -0.5894 -0.3354
 2925TIP3   OH230333   5.496   1.202   0.737 -0.4546  0.1882  0.0048
 2925TIP3    H130334   5.584   1.177   0.765 -0.4578 -0.8303 -0.8560
 2925TIP3    H230335   5.457   1.122   0.702 -0.3529  1.3725 -3.1404
 2926TIP3   OH230336   2.171   4.201   8.121 -0.4478  0.6788 -0.3884
 2926TIP3    H130337   2.191   4.138   8.191  0.9695  0.4648 -0.9713
 2926TIP3    H230338   2.108   4.155   8.066  0.6806 -0.3102 -0.8905
 2927TIP3   OH230339   0.332   3.915   2.103  0.2757 -0.2606  0.4215
 2927TIP3    H130340   0.387   3.940   2.029 -0.9593  0.2103 -0.3673
 2927TIP3    H230341   0.375   3.954   2.179  0.5384  0.9055 -0.2959
 2928TIP3   OH230342   0.569   2.007   6.787  0.2147 -0.2816  0.2693
 2928TIP3    H130343   0.526   2.092   6.772 -0.0028 -0.1939  1.3145
 2928TIP3    H230344   0.540   1.953   6.714 -0.2156  0.3340 -0.0310
 2929TIP3   OH230345   5.353   1.842   8.091  0.0621 -0.2865  0.6682
 2929TIP3    H130346   5.346   1.773   8.156  0.9543 -1.0184  0.0215
 2929TIP3    H230347   5.375   1.796   8.009 -0.1621  0.6793  0.0457
 2930TIP3   OH230348   6.678   5.573   0.471  0.0566  0.3107  0.3445
 2930TIP3    H130349   6.770   5.595   0.457  0.5037 -1.4461  0.3094
 2930TIP3    H230350   6.630   5.637   0.420  1.2600  1.1882  0.2755
 2931TIP3   OH230351   1.938   1.831   7.756  0.1547  0.2248 -0.0153
 2931TIP3    H130352   1.936   1.902   7.819  0.5607  1.0053 -0.8504
 2931TIP3    H230353   1.995   1.766   7.794 -0.4822  0.1944  0.9111
 2932TIP3   OH230354   3.963   2.942   0.184  0.1797  0.3492 -0.1015
 2932TIP3    H130355   3.898   2.873   0.198  0.3308  0.0244 -0.9575
 2932TIP3    H230356   3.940   2.981   0.100  1.6575 -0.4308 -0.9080
 2933TIP3   OH230357   1.362   4.244   6.817  0.2288  0.3092  0.5719
 2933TIP3    H130358   1.435   4.306   6.828  1.2434 -0.6899 -0.2620
 2933TIP3    H230359   1.400   4.159   6.836 -0.5541 -0.3021 -0.4822
 2934TIP3   OH230360   6.266   1.122   1.151 -0.0113  0.2226 -0.3299
 2934TIP3    H130361   6.326   1.053   1.123  1.0490  0.4948  1.2024
 2934TIP3    H230362   6.184   1.076   1.169  1.0185 -0.8774  1.8469
 2935TIP3   OH230363   3.879   3.764   7.137 -0.1445  0.1630  0.0560
 2935TIP3    H130364   3.812   3.698   7.151  0.2329 -0.9325 -2.6785
 2935TIP3    H230365   3.840   3.825   7.074  1.8789 -1.4417 -2.9503
 2936TIP3   OH230366   0.384   5.498   0.033 -0.2083  0.2406 -0.6499
 2936TIP3    H130367   0.433   5.427   0.074  0.0633  0.2707 -0.9195
 2936TIP3    H230368   0.292   5.472   0.042 -0.1487  0.2371 -0.0474
 2937TIP3   OH230369   2.941   1.658   8.000  0.3138 -0.1162  0.0782
 2937TIP3    H130370   2.925   1.567   7.975  1.3707 -0.7870  1.7107
 2937TIP3    H230371   2.902   1.709   7.929 -2.2477 -1.7557  0.1728
 2938TIP3   OH230372   5.111   1.431   6.691  0.5021 -0.2060  0.3875
 2938TIP3    H130373   5.164   1.496   6.646 -1.3761  1.2762  0.1932
 2938TIP3    H230374   5.117   1.353   6.636  3.2815 -0.4903  0.9472
 2939TIP3   OH230375   1.374   1.446   7.631  0.5626  0.2220  0.2740
 2939TIP3    H130376   1.338   1.391   7.700 -1.5759  1.1644 -0.0192
 2939TIP3    H230377   1.365   1.535   7.665 -0.5479  0.7030 -1.1939
 2940TIP3   OH230378   1.108   3.992   8.098  0.5105 -1.0241 -0.2570
 2940TIP3    H130379   1.141   3.942   8.173 -0.6859 -0.0852  0.9513
 2940TIP3    H230380   1.166   4.068   8.092 -1.0556  0.4279  1.6265
 2941TIP3   OH230381   2.682   3.755   0.299  0.6007 -0.1169  0.1742
 2941TIP3    H130382   2.745   3.809   0.346  1.6608  0.6152 -1.9744
 2941TIP3    H230383   2.731   3.721   0.224 -1.3706 -0.0658 -1.2040
 2942TIP3   OH230384   4.479   2.670   0.313  0.3889  0.1105  0.2661
 2942TIP3    H130385   4.529   2.715   0.381  0.6723  0.7882 -0.3764
 2942TIP3    H230386   4.401   2.636   0.358  1.1778 -0.5542  1.1828
 2943TIP3   OH230387   5.627   5.745   8.334 -0.1891 -0.1856 -0.0121
 2943TIP3    H130388   5.650   5.825   8.382 -0.3305  0.3911 -0.8804
 2943TIP3    H230389   5.556   5.772   8.276  0.8382 -0.5343 -1.4900
 2944TIP3   OH230390   1.548   4.335   1.762  0.0378 -0.2263  0.5148
 2944TIP3    H130391   1.538   4.355   1.669  0.2681 -1.9613  0.0850
 2944TIP3    H230392   1.458   4.328   1.795 -0.0451 -0.1654  0.3010
 2945TIP3   OH230393   3.806   2.159   6.317  0.4019 -0.2149 -0.5216
 2945TIP3    H130394   3.782   2.146   6.409  0.9383  1.5255 -0.0910
 2945TIP3    H230395   3.751   2.098   6.269 -0.4086 -0.6569  0.8988
 2946TIP3   OH230396   3.744   6.863   1.766  0.2820  0.3763 -0.2916
 2946TIP3    H130397   3.752   6.928   1.836 -1.9890 -0.3334  0.7041
 2946TIP3    H230398   3.831   6.861   1.725  1.0462  2.3609  1.1138
 2947TIP3   OH230399   2.034   6.098   7.464 -0.1870 -0.2058  0.0219
 2947TIP3    H130400   1.959   6.137   7.419  0.8224  0.6079 -1.0231
 2947TIP3    H230401   2.108   6.154   7.441  0.8369 -1.2494  0.6384
 2948TIP3   OH230402   2.116   3.564   7.370  0.3470  0.1201 -0.5921
 2948TIP3    H130403   2.032   3.608   7.386 -0.2994 -0.6931 -1.5637
 2948TIP3    H230404   2.181   3.618   7.414 -0.8985 -0.2366  1.8217
 2949TIP3   OH230405   3.243   1.447   7.625  0.1364 -0.8170  0.3553
 2949TIP3    H130406   3.154   1.479   7.639 -0.5919 -2.4330 -0.2961
 2949TIP3    H230407   3.278   1.503   7.556 -0.9510 -1.1317 -0.4753
 2950TIP3   OH230408   4.857   5.341   1.872 -0.0438  0.3499  0.6962
 2950TIP3    H130409   4.773   5.350   1.917 -0.3035 -1.6650  0.7190
 2950TIP3    H230410   4.921   5.334   1.942  0.0542  1.1180  0.6878
 2951TIP3   OH230411   3.185   3.649   7.387 -0.3691 -0.3176 -0.7884
 2951TIP3    H130412   3.198   3.665   7.480 -1.7513 -0.7773 -0.4858
 2951TIP3    H230413   3.273   3.650   7.349  0.0298  3.1158 -0.0578
 2952TIP3   OH230414   5.557   4.120   6.340 -0.2806  0.3008 -0.0604
 2952TIP3    H130415   5.556   4.200   6.392 -0.6584  2.4574 -3.0990
 2952TIP3    H230416   5.465   4.093   6.336 -0.0545 -0.9402  1.7185
 2953TIP3   OH230417   2.372   0.151   8.265 -0.0605  0.2254 -0.1750
 2953TIP3    H130418   2.312   0.097   8.317 -0.6196  1.7010  0.7939
 2953TIP3    H230419   2.414   0.208   8.330  1.6874 -0.1025 -0.9659
 2954TIP3   OH230420   5.854   3.597   6.662 -0.5855  0.1782 -0.3681
 2954TIP3    H130421   5.761   3.616   6.653 -0.3021  1.0272 -1.9047
 2954TIP3    H230422   5.896   3.650   6.594  0.7430 -2.2879 -1.6362
 2955TIP3   OH230423   4.520   1.904   2.098 -0.3256  0.2913  0.4662
 2955TIP3    H130424   4.517   1.995   2.128  1.5795  0.6897 -0.4279
 2955TIP3    H230425   4.440   1.865   2.133 -2.2157  2.7918 -0.7284
 2956TIP3   OH230426   3.668   4.355   0.751  0.3178 -0.0532 -0.7685
 2956TIP3    H130427   3.661   4.432   0.808  0.5573 -1.3105  1.0836
 2956TIP3    H230428   3.762   4.334   0.751  0.0137 -1.7082  0.8037
 2957TIP3   OH230429   0.927   1.692   2.566 -0.0683  0.0909 -0.1449
 2957TIP3    H130430   0.877   1.613   2.543  0.9220 -0.4795 -0.3874
 2957TIP3    H230431   1.004   1.689   2.509 -0.7275  2.0171 -1.2120
 2958TIP3   OH230432   0.739   3.398   1.968  0.2395 -0.7269 -0.3453
 2958TIP3    H130433   0.719   3.364   1.881 -0.2465  1.8688 -1.3556
 2958TIP3    H230434   0.653   3.422   2.004  0.5387 -0.6433  0.3232
 2959TIP3   OH230435   6.675   6.120   0.473 -0.3601 -0.5615 -0.2949
 2959TIP3    H130436   6.677   6.154   0.383  0.7268  0.0803 -0.0416
 2959TIP3    H230437   6.760   6.077   0.484  0.1305  0.6645  0.9179
 2960TIP3   OH230438   0.186   6.643   0.216 -0.3398  0.4467  0.3711
 2960TIP3    H130439   0.110   6.696   0.240  0.0548  1.1962 -0.0076
 2960TIP3    H230440   0.220   6.609   0.299 -2.3596 -1.7289  0.4273
 2961TIP3   OH230441   2.724   6.083   6.487 -0.0939  0.1933  0.0323
 2961TIP3    H130442   2.815   6.072   6.515 -0.7041  0.5806  2.4511
 2961TIP3    H230443   2.699   5.998   6.452  0.6745 -0.5159  1.1407
 2962TIP3   OH230444   6.672   0.098   0.574  0.3656  0.1839 -0.6520
 2962TIP3    H130445   6.670   0.163   0.644  1.1724  0.4281 -0.8440
 2962TIP3    H230446   6.600   0.124   0.516  0.7857  1.0278 -0.8224
 2963TIP3   OH230447   0.570   3.159   1.055  0.1501 -0.3033 -0.1694
 2963TIP3    H130448   0.581   3.079   1.005 -2.8869 -0.6894 -0.3676
 2963TIP3    H230449   0.478   3.161   1.079  0.7170  1.6753  2.3783
 2964TIP3   OH230450   2.178   0.726   1.711 -0.1638  0.9592  0.3454
 2964TIP3    H130451   2.132   0.688   1.786  2.4617  0.9576  2.0599
 2964TIP3    H230452   2.210   0.651   1.662  0.1782  0.9495  0.5801
 2965TIP3   OH230453   1.582   3.714   0.446 -0.3153  0.0681 -0.2540
 2965TIP3    H130454   1.622   3.675   0.524 -1.0009  0.2962  0.2187
 2965TIP3    H230455   1.646   3.699   0.377  0.6189  0.4679  0.5018
 2966TIP3   OH230456   6.070   2.993   0.309 -0.2109 -0.5458  0.1637
 2966TIP3    H130457   6.109   2.914   0.271 -0.9426 -0.8157 -0.0592
 2966TIP3    H230458   6.084   2.984   0.403  1.6377  0.1386 -0.0207
 2967TIP3   OH230459   5.200   4.587   6.793  0.7320  0.2056 -0.2316
 2967TIP3    H130460   5.265   4.530   6.835  1.8717  1.1586 -0.6473
 2967TIP3    H230461   5.212   4.573   6.699  1.5837  1.6865 -0.3721
 2968TIP3   OH230462   6.250   4.156   6.628 -0.7806  0.0858 -1.0426
 2968TIP3    H130463   6.333   4.158   6.581  2.1839  1.5253  3.5160
 2968TIP3    H230464   6.220   4.066   6.620  2.8508 -1.3358 -0.6075
 2969TIP3   OH230465   5.762   6.021   0.514 -0.0735  0.0852  0.2635
 2969TIP3    H130466   5.764   5.926   0.524  0.8460 -0.0057 -0.5722
 2969TIP3    H230467   5.730   6.035   0.425 -2.8749  0.6797  1.2702
 2970TIP3   OH230468   6.558   6.655   0.537 -0.3900  0.1318  0.2540
 2970TIP3    H130469   6.618   6.722   0.568  0.9148 -0.8291 -0.1171
 2970TIP3    H230470   6.558   6.589   0.606  0.0645 -0.5191 -0.3557
 2971TIP3   OH230471   4.488   0.482   7.099  0.0302  0.1987 -0.3919
 2971TIP3    H130472   4.494   0.427   7.177  1.6543  0.4744 -0.2816
 2971TIP3    H230473   4.483   0.571   7.133 -1.0320  0.2200 -0.5894
 2972TIP3   OH230474   0.876   0.039   1.718  0.2814  0.7754 -0.4855
 2972TIP3    H130475   0.811   0.073   1.656  1.5791  2.0832 -1.1793
 2972TIP3    H230476   0.870  -0.057   1.709 -1.2027  0.8813 -0.8670
 2973TIP3   OH230477   4.902   2.439   6.259 -0.4801 -0.3418  0.9675
 2973TIP3    H130478   4.918   2.464   6.168  0.5425 -0.2685  1.1526
 2973TIP3    H230479   4.883   2.345   6.255  1.5691 -0.8055  0.8521
 2974TIP3   OH230480   2.519   1.498   0.301 -0.2619 -0.1326  0.1103
 2974TIP3    H130481   2.462   1.442   0.353  0.5241  0.6208  1.8919
 2974TIP3    H230482   2.567   1.438   0.244  0.1601 -1.2468  1.5695
 2975TIP3   OH230483   6.393   4.039   1.848 -0.2869 -0.0310  0.0446
 2975TIP3    H130484   6.384   4.036   1.943  1.3068  1.5259  0.2881
 2975TIP3    H230485   6.303   4.038   1.816 -0.9070  0.8326  1.6244
 2976TIP3   OH230486   4.403   6.439   7.822 -0.0467  0.0619 -0.4422
 2976TIP3    H130487   4.461   6.500   7.867  0.5678 -1.2817  0.6268
 2976TIP3    H230488   4.316   6.479   7.830  0.6287  2.0093 -1.9150
 2977TIP3   OH230489   1.129   3.986   7.220  0.5517  0.1427  0.3046
 2977TIP3    H130490   1.091   4.060   7.268  0.5254 -0.9752  2.1016
 2977TIP3    H230491   1.202   4.025   7.172  0.4020  1.3982  1.0261
 2978TIP3   OH230492   4.350   4.226   1.400  0.3909 -0.6869 -0.3052
 2978TIP3    H130493   4.419   4.275   1.445 -1.5823  0.9133  1.1351
 2978TIP3    H230494   4.353   4.139   1.440  0.7360 -0.2364  0.6748
 2979TIP3   OH230495   1.211   2.687   8.253 -0.9417 -0.3846  0.3078
 2979TIP3    H130496   1.204   2.687   8.349 -0.6619  0.1591  0.3327
 2979TIP3    H230497   1.224   2.779   8.230 -1.7654 -0.4066 -0.3165
 2980TIP3   OH230498   2.763   6.503   1.319 -0.3188  0.2224 -0.4077
 2980TIP3    H130499   2.677   6.540   1.301 -1.1590 -1.2253  0.4765
 2980TIP3    H230500   2.817   6.531   1.245 -0.9449  2.9238  0.0188
 2981TIP3   OH230501   1.872   5.339   6.895 -0.1673  0.8367  0.3551
 2981TIP3    H130502   1.863   5.308   6.986  0.7591  0.6014  0.3721
 2981TIP3    H230503   1.804   5.291   6.847  2.0220 -2.3532  0.1201
 2982TIP3   OH230504   6.348   4.749   7.029 -0.1439  0.1411 -0.4631
 2982TIP3    H130505   6.382   4.689   7.096 -2.6959  0.0969  0.9228
 2982TIP3    H230506   6.278   4.701   6.987 -0.8598  1.3999 -0.7715
 2983TIP3   OH230507   5.352   0.827   1.169 -0.1586  0.6973 -0.4527
 2983TIP3    H130508   5.278   0.851   1.114 -1.0056 -1.6664 -0.4505
 2983TIP3    H230509   5.323   0.846   1.258  0.0311  1.6423 -0.5835
 2984TIP3   OH230510   3.411   6.820   1.711  0.1855 -0.2437 -0.0170
 2984TIP3    H130511   3.438   6.909   1.732 -0.6263 -0.4362  2.0363
 2984TIP3    H230512   3.328   6.830   1.664 -0.4927  0.0699  1.2219
 2985TIP3   OH230513   5.556   2.446   6.228 -0.0275 -0.2989 -0.0233
 2985TIP3    H130514   5.645   2.476   6.211  0.9762 -2.1922  1.5320
 2985TIP3    H230515   5.515   2.443   6.141  0.7047  2.5338 -0.5532
 2986TIP3   OH230516   0.461   5.625   7.326  0.1734  0.2852  0.0540
 2986TIP3    H130517   0.503   5.548   7.288  0.7818  0.8339 -0.4146
 2986TIP3    H230518   0.513   5.646   7.403 -0.5706 -0.3348  0.7475
 2987TIP3   OH230519   0.114   1.552   1.381 -0.4390 -0.2894  0.1729
 2987TIP3    H130520   0.037   1.554   1.437 -1.1175  1.7467 -0.7753
 2987TIP3    H230521   0.094   1.611   1.308  1.9487  0.2136 -0.1693
 2988TIP3   OH230522   0.575   2.452   1.197  0.4289  0.8947 -0.5604
 2988TIP3    H130523   0.532   2.457   1.111  0.5892 -0.4353 -0.7483
 2988TIP3    H230524   0.506   2.474   1.260 -0.2336 -0.0740 -0.9275
 2989TIP3   OH230525   5.284   6.278   8.174  0.3313 -0.0995  0.0460
 2989TIP3    H130526   5.199   6.313   8.198  0.4431 -0.1323  0.4899
 2989TIP3    H230527   5.287   6.286   8.078 -0.7721 -1.4398 -0.1431
 2990TIP3   OH230528   5.528   1.512   2.007  0.0901 -0.2316  0.2689
 2990TIP3    H130529   5.586   1.532   1.934  1.7914  0.2116  1.6506
 2990TIP3    H230530   5.573   1.441   2.054  0.4283  1.2402  2.3172
 2991TIP3   OH230531   1.739   6.321   0.195  0.2892  0.2138 -0.1442
 2991TIP3    H130532   1.713   6.368   0.117 -1.0234 -0.0311  0.1159
 2991TIP3    H230533   1.736   6.228   0.169  0.7937  0.1732 -0.0680
 2992TIP3   OH230534   3.245   4.878   7.923 -0.1941 -0.1117 -0.2576
 2992TIP3    H130535   3.334   4.900   7.897 -0.2133  2.2984  1.4151
 2992TIP3    H230536   3.192   4.951   7.890 -1.1550 -0.2662  0.8832
 2993TIP3   OH230537   5.079   5.490   0.196  0.0044 -0.3711  0.1739
 2993TIP3    H130538   5.029   5.408   0.199 -0.3621 -0.2556 -1.8090
 2993TIP3    H230539   5.012   5.558   0.194  0.3053 -0.0515  0.6733
 2994TIP3   OH230540   6.743   1.674   7.850 -0.2298  0.2976  0.2070
 2994TIP3    H130541   6.711   1.638   7.767  1.4584 -0.3582 -0.1904
 2994TIP3    H230542   6.800   1.607   7.886 -0.8758  0.5943  1.9102
 2995TIP3   OH230543   3.362   1.624   7.483 -0.0057 -0.1560 -0.1566
 2995TIP3    H130544   3.443   1.638   7.433  0.2518  1.9751  0.7461
 2995TIP3    H230545   3.386   1.648   7.573 -1.3244 -0.7228  0.3651
 2996TIP3   OH230546   4.442   5.700   1.724 -0.4709 -0.6311  0.4096
 2996TIP3    H130547   4.410   5.642   1.793  0.4993 -3.4614 -1.3509
 2996TIP3    H230548   4.498   5.645   1.669 -0.4148  1.6928 -2.1204
 2997TIP3   OH230549   1.110   3.339   7.583  0.1956  0.6207 -0.4619
 2997TIP3    H130550   1.076   3.250   7.575  0.4713  0.5419 -0.8052
 2997TIP3    H230551   1.038   3.390   7.619  0.1171  0.2059 -0.0314
 2998TIP3   OH230552   2.621   3.613   6.084 -0.5878 -0.0910  0.3308
 2998TIP3    H130553   2.611   3.568   6.001 -0.2987 -1.6878  1.1283
 2998TIP3    H230554   2.599   3.705   6.065  1.0462 -0.0902 -1.8378
 2999TIP3   OH230555   5.934   0.797   1.704  0.2358 -0.1047 -0.0553
 2999TIP3    H130556   5.840   0.810   1.712  0.2856  0.5143 -0.4722
 2999TIP3    H230557   5.950   0.795   1.610  0.6072 -0.4702  0.0112
 3000TIP3   OH230558   6.334   3.442   1.474  0.5120 -0.3778  0.1546
 3000TIP3    H130559   6.339   3.347   1.482 -0.0881 -0.4377 -0.1434
 3000TIP3    H230560   6.277   3.458   1.399 -1.5681  0.1929  1.7344
 3001TIP3   OH230561   3.350   5.372   1.437  0.1709  0.3833 -0.1098
 3001TIP3    H130562   3.429   5.377   1.383 -1.3704 -0.1602 -2.5738
 3001TIP3    H230563   3.325   5.464   1.451  1.0168  0.5511  0.4520
 3002TIP3   OH230564   5.351   4.414   8.540 -0.2614 -0.2223 -0.3592
 3002TIP3    H130565   5.298   4.446   8.613 -1.8970 -1.9325 -0.7150
 3002TIP3    H230566   5.435   4.391   8.580 -0.0633  1.6263  0.4034
 3003TIP3   OH230567   5.875   2.064   1.042  0.5436  0.1287  0.1037
 3003TIP3    H130568   5.958   2.108   1.060  0.5845 -0.4416  1.4056
 3003TIP3    H230569   5.865   2.002   1.114 -1.0497  0.2396 -0.0012
 3004TIP3   OH230570   1.512   3.086   2.094 -0.4889  0.0399 -0.1113
 3004TIP3    H130571   1.596   3.133   2.091 -0.8761  0.7835  0.2471
 3004TIP3    H230572   1.458   3.139   2.152 -0.4346 -1.7293  1.6293
 3005TIP3   OH230573   5.294   1.602   1.961  0.0968  0.3424  0.2080
 3005TIP3    H130574   5.385   1.571   1.955  0.6337  2.0708 -1.8140
 3005TIP3    H230575   5.297   1.672   2.027 -0.3034 -1.1073  1.8385
 3006TIP3   OH230576   2.612   1.873   8.114 -0.2535  0.1830 -0.2939
 3006TIP3    H130577   2.520   1.894   8.093 -0.2796  1.5378  0.9889
 3006TIP3    H230578   2.607   1.825   8.197  0.2317  1.5106  0.5483
 3007TIP3   OH230579   6.118   5.528   1.152 -0.1803 -0.1736  0.0806
 3007TIP3    H130580   6.123   5.444   1.198  0.1818 -0.5772 -0.6867
 3007TIP3    H230581   6.162   5.513   1.068 -1.6762  0.2725 -0.8240
 3008TIP3   OH230582   4.668   0.502   8.407  0.1987  0.3569 -0.5673
 3008TIP3    H130583   4.575   0.513   8.426  0.5099  1.1206  0.6161
 3008TIP3    H230584   4.705   0.463   8.486  0.9580  0.4281 -0.8711
 3009TIP3   OH230585   2.063   3.892   0.697  0.1966 -0.2690 -0.1289
 3009TIP3    H130586   2.038   3.801   0.713 -0.4270 -0.3350 -1.3904
 3009TIP3    H230587   2.153   3.897   0.729  0.6565 -1.6457 -1.0923
 3010TIP3   OH230588   6.068   3.464   7.694 -0.2636  0.2597  0.1182
 3010TIP3    H130589   6.105   3.539   7.647 -0.4964  0.1649 -0.2118
 3010TIP3    H230590   5.983   3.449   7.653  0.3687 -1.0843 -0.7794
 3011TIP3   OH230591   2.523   5.030   1.959 -0.2726 -0.1344  0.1120
 3011TIP3    H130592   2.547   5.120   1.936  0.3638 -0.4243 -0.3974
 3011TIP3    H230593   2.428   5.028   1.950 -0.1763  0.1112 -1.3396
 3012TIP3   OH230594   0.691   2.443   7.048 -0.3144 -0.2832  0.5561
 3012TIP3    H130595   0.710   2.373   7.111 -0.1241 -0.5753  0.1796
 3012TIP3    H230596   0.695   2.400   6.963  0.3245  0.2937  0.2841
 3013TIP3   OH230597   2.063   0.210   6.821 -0.3041  0.0656  0.0458
 3013TIP3    H130598   2.138   0.171   6.778  0.2726  1.0031  0.1759
 3013TIP3    H230599   1.993   0.145   6.812 -0.1815  0.1651 -2.1768
 3014TIP3   OH230600   4.962   3.581   0.226  0.1135 -0.1669  0.4233
 3014TIP3    H130601   5.036   3.641   0.236  0.6106 -0.8896  1.2948
 3014TIP3    H230602   5.003   3.496   0.208 -0.6030 -0.1058 -1.7610
 3015TIP3   OH230603   1.460   1.559   1.565  0.4780 -0.2417 -0.1298
 3015TIP3    H130604   1.430   1.555   1.656 -0.7508 -2.7359 -0.5614
 3015TIP3    H230605   1.405   1.626   1.525 -1.0286 -1.1638  0.3211
 3016TIP3   OH230606   1.845   1.279   7.442 -0.2163 -0.3893  0.0041
 3016TIP3    H130607   1.760   1.311   7.471  0.2987  1.5257 -0.4583
 3016TIP3    H230608   1.845   1.294   7.347 -0.1225 -2.2939 -0.3341
 3017TIP3   OH230609   5.953   0.754   8.293 -0.3349  0.0258  0.0597
 3017TIP3    H130610   6.048   0.762   8.299 -0.0839 -1.4741 -1.2751
 3017TIP3    H230611   5.921   0.784   8.378  1.2754  1.1417  0.3193
 3018TIP3   OH230612   2.529   4.389   7.234 -0.0495  0.1959  0.7649
 3018TIP3    H130613   2.481   4.307   7.237  1.3116 -0.7107 -0.8294
 3018TIP3    H230614   2.462   4.457   7.243 -1.3368 -1.0503  0.8141
 3019TIP3   OH230615   2.919   2.081   8.382  0.1583 -0.4284 -0.0837
 3019TIP3    H130616   2.985   2.097   8.449  0.9540 -1.3389 -0.6175
 3019TIP3    H230617   2.850   2.032   8.426  0.3189 -0.3522  0.2515
 3020TIP3   OH230618   4.477   5.192   8.091 -0.2615 -0.1241  0.7725
 3020TIP3    H130619   4.559   5.230   8.060 -0.1447 -0.8222  0.2016
 3020TIP3    H230620   4.412   5.260   8.075 -0.0455 -0.1295 -0.2028
 3021TIP3   OH230621   3.340   0.347   7.448  0.0344  0.3370 -0.1773
 3021TIP3    H130622   3.383   0.363   7.532 -1.6766 -1.3076  1.1092
 3021TIP3    H230623   3.402   0.379   7.382  0.9215  2.8078  1.7229
 3022TIP3   OH230624   0.338   2.063   7.512 -0.4190 -0.2658 -0.2190
 3022TIP3    H130625   0.405   2.112   7.465  0.9449 -0.9471  0.9449
 3022TIP3    H230626   0.359   1.971   7.495  2.1379 -0.7589  4.0719
 3023TIP3   OH230627   2.887   0.004   0.781  0.6355 -0.3341  0.1360
 3023TIP3    H130628   2.872   0.059   0.858 -0.7860  0.4801 -0.6795
 3023TIP3    H230629   2.959   0.046   0.734  1.3693 -0.7182  0.9015
 3024TIP3   OH230630   6.839   3.833   1.746 -0.6082  0.3047  0.1058
 3024TIP3    H130631   6.851   3.866   1.657 -0.8546 -1.1955 -0.5098
 3024TIP3    H230632   6.745   3.816   1.752 -0.5225 -0.0414  0.4904
 3025TIP3   OH230633   4.371   2.143   6.331 -0.4643 -0.4633 -0.2969
 3025TIP3    H130634   4.464   2.123   6.321  0.3265  1.2686  2.5576
 3025TIP3    H230635   4.348   2.187   6.249  1.8437  1.0349 -0.2516
 3026TIP3   OH230636   0.587   1.259   7.537 -1.0113  0.9337 -1.0904
 3026TIP3    H130637   0.678   1.253   7.507  0.0301  1.6779  1.6179
 3026TIP3    H230638   0.558   1.168   7.543 -0.0488  0.6274 -0.8962
 3027TIP3   OH230639   6.213   5.066   6.767  0.5930 -0.4196 -0.0155
 3027TIP3    H130640   6.272   5.032   6.700 -1.9498 -0.9032 -2.1586
 3027TIP3    H230641   6.175   5.145   6.729 -0.6909 -0.5217  0.9804
 3028TIP3   OH230642   4.385   5.121   0.171 -0.5816 -0.0943 -0.5431
 3028TIP3    H130643   4.313   5.184   0.172 -0.8144 -0.3357  0.7532
 3028TIP3    H230644   4.446   5.154   0.106 -0.4233  1.8019  0.4883
 3029TIP3   OH230645   1.628   0.932   8.279  0.4564 -0.8117  0.7104
 3029TIP3    H130646   1.594   0.850   8.315 -1.4404  0.3699  1.7751
 3029TIP3    H230647   1.691   0.963   8.345  1.2095 -1.3969  0.2853
 3030TIP3   OH230648   0.761   6.145   6.679 -0.0104 -0.3798 -0.5309
 3030TIP3    H130649   0.689   6.083   6.663 -0.8010  0.5429 -0.6520
 3030TIP3    H230650   0.798   6.119   6.763 -2.4390  0.9174  1.0464
 3031TIP3   OH230651   5.369   0.670   6.631  0.5815  0.3303 -0.0797
 3031TIP3    H130652   5.334   0.753   6.597 -2.4742 -1.1376 -0.9107
 3031TIP3    H230653   5.309   0.603   6.596  2.3829 -2.1524  1.2925
 3032TIP3   OH230654   4.432   2.757   6.689 -0.3073  0.3352 -0.2250
 3032TIP3    H130655   4.436   2.669   6.727  0.5484 -0.6451 -2.4577
 3032TIP3    H230656   4.343   2.788   6.709 -0.3205 -0.6256  1.3789
 3033TIP3   OH230657   5.831   0.633   0.061 -0.3015 -0.4204 -0.5653
 3033TIP3    H130658   5.751   0.635   0.115  0.1749  0.3202  0.1545
 3033TIP3    H230659   5.806   0.585  -0.018 -1.2616 -0.8096 -0.0458
 3034TIP3   OH230660   5.544   6.158   0.628 -0.1746 -0.9065 -0.8091
 3034TIP3    H130661   5.509   6.087   0.682 -0.7086  0.3265  0.5458
 3034TIP3    H230662   5.638   6.145   0.630 -0.1351 -0.6017  0.9155
 3035TIP3   OH230663   5.609   6.098   1.759 -0.5100  0.1319  0.0247
 3035TIP3    H130664   5.666   6.102   1.836 -0.9946 -3.3096  0.6979
 3035TIP3    H230665   5.523   6.077   1.794 -0.8852 -0.7804 -1.3860
 3036TIP3   OH230666   4.508   5.871   1.928  0.2782  0.6609 -0.2269
 3036TIP3    H130667   4.482   5.838   1.842  0.0684 -0.1125  0.1222
 3036TIP3    H230668   4.519   5.792   1.981 -0.8098  1.1677  0.7969
 3037TIP3   OH230669   2.668   0.327   6.944  0.0604  0.3705 -0.3270
 3037TIP3    H130670   2.612   0.253   6.967 -0.4134  0.4167 -1.3173
 3037TIP3    H230671   2.657   0.388   7.017  1.2072 -0.9104  1.0048
 3038TIP3   OH230672   3.577   5.192   0.948  0.4835 -0.3428 -0.5036
 3038TIP3    H130673   3.491   5.183   0.988  0.5726  0.2020 -0.1788
 3038TIP3    H230674   3.562   5.250   0.873  0.5277 -0.4230 -0.5745
 3039TIP3   OH230675   6.785   5.574   7.421  0.0366  0.4364 -0.5648
 3039TIP3    H130676   6.792   5.661   7.460 -0.2928  0.0448  0.4034
 3039TIP3    H230677   6.711   5.534   7.467  1.1756 -0.9328  0.1456
 3040TIP3   OH230678   5.580   3.628   0.808  0.0775 -0.0577 -0.4524
 3040TIP3    H130679   5.490   3.636   0.775  0.5444 -0.7113 -1.9786
 3040TIP3    H230680   5.605   3.538   0.787  1.2282  0.2438 -0.4261
 3041TIP3   OH230681   1.640   4.335   7.963  0.5921 -0.3444  0.3795
 3041TIP3    H130682   1.553   4.299   7.944  0.2009  0.7644 -0.0480
 3041TIP3    H230683   1.682   4.340   7.877  1.5075 -1.8824  0.7099
 3042TIP3   OH230684   0.201   5.489   8.154  0.0346  0.0391 -1.1314
 3042TIP3    H130685   0.244   5.417   8.200 -0.1777  0.4974 -0.1915
 3042TIP3    H230686   0.271   5.554   8.141 -0.1151  0.3004 -0.6285
 3043TIP3   OH230687   1.089   5.321   6.494  0.4141  0.3000 -0.2796
 3043TIP3    H130688   1.032   5.258   6.449  0.2307 -0.7677  1.3736
 3043TIP3    H230689   1.178   5.296   6.468  0.3146 -0.3589  0.0038
 3044TIP3   OH230690   6.018   4.516   1.686  0.0946 -0.3035  0.0859
 3044TIP3    H130691   6.102   4.554   1.659 -0.4562  0.2883 -0.8815
 3044TIP3    H230692   6.011   4.537   1.779  1.2774 -0.8701  0.3097
 3045TIP3   OH230693   6.606   2.016   7.080 -0.3369 -0.1844  0.1791
 3045TIP3    H130694   6.693   2.052   7.060 -0.1584 -1.0450 -0.6495
 3045TIP3    H230695   6.553   2.041   7.005  0.1659 -2.8778 -1.1940
 3046TIP3   OH230696   1.896   2.192   7.145  0.0076 -0.0061  0.1091
 3046TIP3    H130697   1.873   2.228   7.231 -0.5372 -0.2955  0.0889
 3046TIP3    H230698   1.954   2.258   7.106 -2.9993  2.2462 -1.0321
 3047TIP3   OH230699   0.843   3.183   7.202 -0.1825 -0.4593 -0.6270
 3047TIP3    H130700   0.768   3.128   7.223  1.0109 -1.9591 -0.0277
 3047TIP3    H230701   0.868   3.155   7.113  0.3788 -0.8657 -0.3506
 3048TIP3   OH230702   2.634   3.704   8.401 -0.4291 -0.0189  0.4191
 3048TIP3    H130703   2.602   3.615   8.419  0.6575 -1.1522 -2.5909
 3048TIP3    H230704   2.698   3.721   8.470 -0.5331 -1.6331  0.9627
 3049TIP3   OH230705   6.246   5.464   0.665  0.1691  0.0463 -0.4102
 3049TIP3    H130706   6.286   5.391   0.712  1.9835  0.6756 -0.9064
 3049TIP3    H230707   6.284   5.460   0.577 -0.5847  0.9147 -0.7945
 3050TIP3   OH230708   0.604   1.398   8.256 -0.0298 -0.4401 -0.2132
 3050TIP3    H130709   0.540   1.327   8.248  1.6825 -2.2910  1.3718
 3050TIP3    H230710   0.670   1.380   8.190  0.2190 -0.0775 -0.0702
 3051TIP3   OH230711   6.525   4.695   6.551  0.5898 -0.0385  0.1249
 3051TIP3    H130712   6.430   4.700   6.540  0.3884  0.0406  1.6941
 3051TIP3    H230713   6.559   4.689   6.461 -0.8538  0.4307 -0.4894
 3052TIP3   OH230714   1.975   0.218   0.223 -0.1743 -0.5674  0.1591
 3052TIP3    H130715   1.948   0.306   0.251  0.7117 -0.5004  0.8738
 3052TIP3    H230716   1.980   0.168   0.304  1.0700 -0.7705 -0.0272
 3053TIP3   OH230717   6.644   1.895   0.948 -0.4472 -0.8513  0.1649
 3053TIP3    H130718   6.572   1.838   0.920 -1.4694  0.0727  0.8231
 3053TIP3    H230719   6.661   1.871   1.039  2.3815 -3.3471 -0.8640
 3054TIP3   OH230720   2.684   3.240   0.423 -0.0138  0.3075 -0.3954
 3054TIP3    H130721   2.772   3.211   0.446  0.6980  1.4121 -1.5820
 3054TIP3    H230722   2.691   3.335   0.418 -1.5180  0.4927  0.3974
 3055TIP3   OH230723   2.512   0.853   2.431  0.3027 -0.0542  0.1154
 3055TIP3    H130724   2.445   0.906   2.388  1.1776  0.2894 -0.8645
 3055TIP3    H230725   2.463   0.794   2.488 -0.8886 -0.3567 -1.1765
 3056TIP3   OH230726   3.669   4.631   7.840  0.3880 -0.3439  0.0757
 3056TIP3    H130727   3.694   4.639   7.748  4.4862  0.8207  1.0577
 3056TIP3    H230728   3.657   4.721   7.870  1.7780 -0.5034  1.2237
 3057TIP3   OH230729   5.397   0.308   1.181  0.1151 -0.1456 -0.3787
 3057TIP3    H130730   5.433   0.328   1.267 -3.1551  1.6661  0.7209
 3057TIP3    H230731   5.339   0.233   1.196  0.4705 -0.6296 -1.3131
 3058TIP3   OH230732   6.859   5.750   2.041  0.2798  0.1155 -0.0336
 3058TIP3    H130733   6.829   5.770   1.952  1.1321 -2.0051 -0.8511
 3058TIP3    H230734   6.951   5.778   2.041  1.0093 -2.1094 -0.6715
 3059TIP3   OH230735   3.814   0.730   1.607  0.4229  0.4175  0.4671
 3059TIP3    H130736   3.823   0.812   1.559 -0.4977  0.0672 -0.3209
 3059TIP3    H230737   3.795   0.757   1.697  1.6297  1.0705  0.5460
 3060TIP3   OH230738   5.441   6.213   0.378  0.5252 -0.5513  0.3120
 3060TIP3    H130739   5.487   6.214   0.462 -1.3981 -1.9869  1.4764
 3060TIP3    H230740   5.350   6.196   0.401 -0.6969  2.1870 -1.8557
 3061TIP3   OH230741   6.195   1.977   6.743  0.3618 -0.2961 -0.2880
 3061TIP3    H130742   6.117   2.031   6.735  1.1459  0.9767  0.3074
 3061TIP3    H230743   6.169   1.891   6.708 -1.0737  0.2967 -0.7441
 3062TIP3   OH230744   2.221   4.858   0.761 -0.1642 -0.0162  0.3638
 3062TIP3    H130745   2.132   4.853   0.727  0.3045 -1.1565 -0.7702
 3062TIP3    H230746   2.254   4.942   0.728 -0.9234  0.6037  1.1279
 3063TIP3   OH230747   2.790   0.930   1.757  0.0226  0.4795 -0.0280
 3063TIP3    H130748   2.883   0.912   1.773 -0.1504 -0.1158  0.3125
 3063TIP3    H230749   2.765   0.866   1.690  0.3377  1.9030 -1.5895
 3064TIP3   OH230750   0.343   6.658   7.934 -0.2805 -0.3532 -0.1774
 3064TIP3    H130751   0.437   6.662   7.916 -0.5868  1.2437 -1.6554
 3064TIP3    H230752   0.319   6.746   7.961 -1.4633 -0.5593 -0.4812
 3065TIP3   OH230753   4.141   0.523   8.278 -0.4193  1.1620  0.1906
 3065TIP3    H130754   4.078   0.487   8.216  0.0235  2.2255 -0.9268
 3065TIP3    H230755   4.226   0.497   8.244 -0.1969  1.0416  0.8288
 3066TIP3   OH230756   2.141   0.935   6.587  0.3084 -0.0773  0.5288
 3066TIP3    H130757   2.070   0.898   6.534 -0.1409  0.8099  0.4841
 3066TIP3    H230758   2.197   0.980   6.523 -0.3484  1.1766  0.8012
 3067TIP3   OH230759   5.273   5.945   1.426  0.0567 -0.4549  0.1884
 3067TIP3    H130760   5.277   5.853   1.398 -0.5508 -0.7219  0.9602
 3067TIP3    H230761   5.312   5.945   1.513  1.2885  0.2570 -0.3398
 3068TIP3   OH230762   0.883   6.386   7.945  0.0845  0.6102 -0.0157
 3068TIP3    H130763   0.892   6.477   7.916 -0.9022  0.8860  0.4857
 3068TIP3    H230764   0.943   6.379   8.019 -0.7631  1.2544  0.7722
 3069TIP3   OH230765   3.388   5.855   7.021 -0.1597  0.1204 -0.3093
 3069TIP3    H130766   3.300   5.842   7.055  0.1633  0.9038  0.8848
 3069TIP3    H230767   3.382   5.934   6.967 -0.4203 -0.4857 -1.2040
 3070TIP3   OH230768   1.186   2.025   2.725 -0.3121 -0.2774  0.3412
 3070TIP3    H130769   1.103   2.070   2.706 -1.0496 -1.3094  1.0328
 3070TIP3    H230770   1.163   1.932   2.725  1.3157 -0.7584 -1.7773
 3071TIP3   OH230771   0.647   2.939   0.937 -0.1829 -0.4179 -0.4942
 3071TIP3    H130772   0.614   2.887   0.863 -2.3332  0.4056 -0.1727
 3071TIP3    H230773   0.663   2.874   1.006 -0.7329 -0.9131 -0.8189
 3072TIP3   OH230774   6.312   0.876   0.736  0.6039 -0.2063 -0.4260
 3072TIP3    H130775   6.312   0.852   0.644  0.2269 -0.2279 -0.4244
 3072TIP3    H230776   6.341   0.796   0.781 -1.8896 -1.1477 -0.3232
 3073TIP3   OH230777   6.608   1.024   1.469  0.3365  0.0403  0.3862
 3073TIP3    H130778   6.608   0.985   1.556  0.4823 -0.5171  0.1362
 3073TIP3    H230779   6.515   1.030   1.446  0.3585 -1.2314 -0.0539
 3074TIP3   OH230780   1.366   0.975   2.447 -0.4062  0.5686  0.6052
 3074TIP3    H130781   1.322   1.048   2.403  1.1174  0.1128 -1.8836
 3074TIP3    H230782   1.424   1.016   2.511 -2.0635  1.2951  1.7290
 3075TIP3   OH230783   1.457   0.142   1.275  0.0968 -0.1510  0.3442
 3075TIP3    H130784   1.500   0.074   1.223  1.3011  1.7875 -1.3024
 3075TIP3    H230785   1.364   0.128   1.260  0.2681 -1.8174  0.5892
 3076TIP3   OH230786   2.515   4.968   8.290 -0.3068  0.0787  0.2020
 3076TIP3    H130787   2.428   4.938   8.265  0.3195  0.0199 -2.2301
 3076TIP3    H230788   2.510   5.064   8.280  0.1677 -0.0040 -1.1229
 3077TIP3   OH230789   2.961   5.227   1.012  0.8265  0.9364  0.7705
 3077TIP3    H130790   2.988   5.138   1.035 -1.9604 -0.1251  0.2894
 3077TIP3    H230791   2.991   5.280   1.086  0.3572 -0.8280  2.3034
 3078TIP3   OH230792   2.493   2.795   7.236  0.4061 -0.0434  0.1817
 3078TIP3    H130793   2.542   2.868   7.198  0.5063 -0.1306  0.1413
 3078TIP3    H230794   2.559   2.743   7.282  0.7494 -1.3020 -1.6102
 3079TIP3   OH230795   5.833   5.021   1.315 -0.1457 -0.3500  0.4829
 3079TIP3    H130796   5.906   4.968   1.347  1.6844  1.1231 -1.0339
 3079TIP3    H230797   5.809   5.076   1.389  0.8929 -0.2485  0.7606
 3080TIP3   OH230798   1.878   4.588   0.686 -0.0505 -0.0674 -0.1107
 3080TIP3    H130799   1.894   4.671   0.642  0.3209 -0.3123 -0.4366
 3080TIP3    H230800   1.902   4.521   0.622 -0.2272 -0.4248  0.1939
 3081TIP3   OH230801   6.611   1.768   1.614  0.0033 -0.0598  0.0127
 3081TIP3    H130802   6.631   1.803   1.701 -1.0602  0.1232  0.1969
 3081TIP3    H230803   6.537   1.821   1.584 -0.4333 -0.9364 -0.4838
 3082TIP3   OH230804   1.837   4.380   8.139  0.0596 -0.2274 -0.6832
 3082TIP3    H130805   1.779   4.445   8.180  2.7636  2.8720 -1.3658
 3082TIP3    H230806   1.811   4.379   8.047  0.0443 -0.0654 -0.6804
 3083TIP3   OH230807   6.697   2.003   1.766 -0.2265  0.4988 -0.3824
 3083TIP3    H130808   6.624   2.054   1.731  0.7797  0.7068 -2.2682
 3083TIP3    H230809   6.735   1.959   1.690  0.5383 -1.0198  0.8233
 3084TIP3   OH230810   2.888   4.896   7.636  0.4017  0.2639  0.1839
 3084TIP3    H130811   2.909   4.814   7.592  1.0307  0.5710 -0.1160
 3084TIP3    H230812   2.858   4.870   7.723  1.2253 -0.2618  0.3237
 3085TIP3   OH230813   0.996   5.783   7.128  0.1344 -0.1980  0.6228
 3085TIP3    H130814   0.914   5.774   7.177 -0.2747 -0.9399 -0.1620
 3085TIP3    H230815   1.033   5.695   7.129  0.5853 -0.0086  0.3926
 3086TIP3   OH230816   1.818   5.691   1.671  0.0996  0.4953  0.2055
 3086TIP3    H130817   1.822   5.692   1.576 -0.6294 -0.0602  0.1597
 3086TIP3    H230818   1.795   5.781   1.695  0.3724  0.6583 -0.1310
 3087TIP3   OH230819   1.032   1.642   7.147 -0.4091 -0.3303  0.1992
 3087TIP3    H130820   0.987   1.690   7.216  0.0864  0.8813 -0.2941
 3087TIP3    H230821   0.968   1.637   7.076 -0.3005  0.0317  0.0737
 3088TIP3   OH230822   5.214   3.016   1.128  0.1352 -0.2439 -0.4931
 3088TIP3    H130823   5.159   2.950   1.087  0.9005 -0.5020 -1.1273
 3088TIP3    H230824   5.235   2.980   1.214  0.6465 -0.8916 -0.8808
 3089TIP3   OH230825   0.339   1.365   7.472 -0.3861  0.4847 -0.0327
 3089TIP3    H130826   0.322   1.273   7.493  0.4306  1.0666  3.9334
 3089TIP3    H230827   0.434   1.370   7.465 -0.3368  1.1811  0.9521
 3090TIP3   OH230828   2.125   3.886   7.862  0.8423  0.0444 -0.6412
 3090TIP3    H130829   2.151   3.866   7.952  0.9791  1.8492 -0.2465
 3090TIP3    H230830   2.204   3.870   7.810  0.8519 -0.7117 -0.4000
 3091TIP3   OH230831   4.059   6.143   2.615 -0.3535 -0.4661  0.0944
 3091TIP3    H130832   4.076   6.183   2.700 -0.3186  0.9162 -0.5430
 3091TIP3    H230833   4.146   6.126   2.578 -0.2783  1.6771 -0.8860
 3092TIP3   OH230834   1.194   5.333   6.738  0.2033 -0.7099  0.1508
 3092TIP3    H130835   1.175   5.424   6.761  1.5970 -0.0235 -1.1771
 3092TIP3    H230836   1.132   5.313   6.668  1.0712 -0.1100 -0.8338
 3093TIP3   OH230837   4.782   5.722   6.968  0.6908  0.2577 -0.0022
 3093TIP3    H130838   4.750   5.776   6.896  1.8955 -1.0085 -1.5697
 3093TIP3    H230839   4.826   5.649   6.925 -0.6311 -1.8585  2.0162
 3094TIP3   OH230840   3.900   5.098   0.182 -0.3654 -0.1962  0.2261
 3094TIP3    H130841   3.847   5.092   0.261 -0.2855  0.2622  0.3192
 3094TIP3    H230842   3.845   5.062   0.113 -0.7042  0.0427  0.3679
 3095TIP3   OH230843   2.060   5.935   8.488  0.5425  0.0474 -0.3486
 3095TIP3    H130844   2.008   5.982   8.423 -0.5611 -0.2490  0.3016
 3095TIP3    H230845   2.146   5.926   8.447  0.3048  1.1626 -1.1641
 3096TIP3   OH230846   6.217   5.954   1.755 -0.8767 -0.5275 -0.0591
 3096TIP3    H130847   6.303   5.924   1.784 -0.6108  0.0399 -0.2551
 3096TIP3    H230848   6.230   5.984   1.665  0.0809  4.7124  1.4314
 3097TIP3   OH230849   0.462   3.532   1.951 -0.3760 -0.2854  0.4526
 3097TIP3    H130850   0.532   3.570   2.005  0.6599 -0.6718 -0.5639
 3097TIP3    H230851   0.399   3.603   1.940  0.1692  0.2769  0.8768
 3098TIP3   OH230852   3.306   3.242   7.547 -0.0657 -0.1305  0.4623
 3098TIP3    H130853   3.398   3.266   7.561 -0.3017  0.7078  0.6619
 3098TIP3    H230854   3.270   3.316   7.497 -0.1831 -1.2968 -1.2756
 3099TIP3   OH230855   2.911   5.992   6.940  0.0921 -0.0150  0.3437
 3099TIP3    H130856   2.996   6.036   6.936 -0.0206  0.1008 -1.4208
 3099TIP3    H230857   2.932   5.900   6.953  0.4553  0.0910  0.5294
 3100TIP3   OH230858   6.144   4.898   8.464  0.0045 -0.2618 -0.2024
 3100TIP3    H130859   6.100   4.825   8.507 -3.7102  0.3717 -2.5407
 3100TIP3    H230860   6.129   4.973   8.522  2.4988 -0.8614  1.4206
 3101TIP3   OH230861   4.845   4.278   6.824 -0.7847  0.1456  0.0015
 3101TIP3    H130862   4.916   4.316   6.876  0.3096 -2.1655  0.3286
 3101TIP3    H230863   4.801   4.354   6.785  2.2838  1.7023 -0.7894
 3102TIP3   OH230864   3.153   6.456   0.927 -0.2759  0.5895  0.6524
 3102TIP3    H130865   3.152   6.362   0.949 -0.8564  0.6544  0.9335
 3102TIP3    H230866   3.240   6.471   0.890 -0.6494 -0.3631 -0.7113
 3103TIP3   OH230867   0.322   4.210   8.075  0.5640  0.0387  0.1895
 3103TIP3    H130868   0.378   4.288   8.082 -0.9119  1.0994  0.7247
 3103TIP3    H230869   0.294   4.210   7.983  0.6186  0.1121  0.1718
 3104TIP3   OH230870   1.708   0.757   6.303 -0.0300 -0.3494  0.7092
 3104TIP3    H130871   1.768   0.728   6.371 -1.1680 -0.8782  1.5150
 3104TIP3    H230872   1.670   0.838   6.337 -0.0597 -0.2158  0.3678
 3105TIP3   OH230873   4.108   5.996   1.266 -0.3521  0.2565  0.1408
 3105TIP3    H130874   4.045   5.928   1.246 -0.6999  0.3608  0.8546
 3105TIP3    H230875   4.056   6.076   1.277  0.1983  1.0512 -2.4434
 3106TIP3   OH230876   4.588   4.482   1.266  0.0308 -0.3990 -0.2863
 3106TIP3    H130877   4.593   4.470   1.361  0.2362  0.9836 -0.1029
 3106TIP3    H230878   4.669   4.444   1.233 -0.4082 -1.6326 -0.0147
 3107TIP3   OH230879   2.379   6.420   6.710  0.2224 -0.8507  0.0087
 3107TIP3    H130880   2.418   6.375   6.785  0.6101  0.6742  0.7509
 3107TIP3    H230881   2.435   6.397   6.636 -0.0682 -2.2270  0.1953
 3108TIP3   OH230882   1.666   1.834   1.170 -0.3284 -0.2238  0.8192
 3108TIP3    H130883   1.619   1.759   1.136  1.4836 -1.3567  0.6830
 3108TIP3    H230884   1.705   1.803   1.251  3.3984 -0.6996 -0.9502
 3109TIP3   OH230885   2.534   2.875   0.066 -0.3694  0.5525 -0.0076
 3109TIP3    H130886   2.582   2.792   0.071 -1.0348  0.2124  1.4858
 3109TIP3    H230887   2.576   2.931   0.131 -1.2355  0.6473  0.4915
 3110TIP3   OH230888   6.284   2.225   6.454 -0.1694  0.4017 -0.0296
 3110TIP3    H130889   6.270   2.283   6.380  0.5900  1.4892  0.6486
 3110TIP3    H230890   6.376   2.199   6.447 -0.4944 -0.7499 -0.3232
 3111TIP3   OH230891   6.446   5.724   7.931 -0.4580  0.0325 -0.1158
 3111TIP3    H130892   6.461   5.745   7.838  1.2363 -3.5211 -0.7991
 3111TIP3    H230893   6.506   5.782   7.978  0.6149  0.0795 -1.4682
 3112TIP3   OH230894   3.029   0.138   0.519 -0.1588 -0.2106  0.1494
 3112TIP3    H130895   2.969   0.206   0.551 -1.0277 -1.0082  0.2483
 3112TIP3    H230896   3.113   0.183   0.509 -0.6364  0.7955  0.5421
 3113TIP3   OH230897   6.538   1.584   0.020 -0.2031 -0.3874  0.0402
 3113TIP3    H130898   6.529   1.540  -0.064  0.4786 -0.1534 -0.1668
 3113TIP3    H230899   6.472   1.544   0.076 -0.8439 -0.3604 -0.6825
 3114TIP3   OH230900   5.056   5.789   7.872  0.4754  0.4470 -0.0882
 3114TIP3    H130901   5.060   5.719   7.808 -1.5431 -1.1753  1.3939
 3114TIP3    H230902   4.984   5.844   7.843  0.2503  0.3082  0.1955
 3115TIP3   OH230903   4.516   4.122   1.201  0.2945  0.1899 -0.0109
 3115TIP3    H130904   4.556   4.062   1.264 -2.2412 -0.3304  1.2262
 3115TIP3    H230905   4.453   4.173   1.253 -0.5693  1.0361 -1.8022
 3116TIP3   OH230906   1.607   6.724   7.817  0.1521 -0.0326 -0.4019
 3116TIP3    H130907   1.631   6.816   7.814  0.4783 -0.0743  0.4390
 3116TIP3    H230908   1.682   6.678   7.777 -0.9447  0.1797 -2.8656
 3117TIP3   OH230909   3.596   3.187   7.095  0.1900  0.1585  0.6181
 3117TIP3    H130910   3.588   3.092   7.102 -0.9638 -0.0601 -2.3574
 3117TIP3    H230911   3.669   3.201   7.035 -0.8076  1.0531 -0.4369
 3118TIP3   OH230912   6.733   2.247   7.490 -0.1088  0.7850 -0.5415
 3118TIP3    H130913   6.811   2.194   7.472 -0.2780  0.8189 -1.4346
 3118TIP3    H230914   6.699   2.270   7.403  0.2285  2.7664 -0.1921
 3119TIP3   OH230915   2.455   4.149   1.601 -0.4009  0.5333  0.3455
 3119TIP3    H130916   2.362   4.158   1.619 -0.7672  0.7397 -1.4494
 3119TIP3    H230917   2.465   4.061   1.565  0.1556  0.4107  0.7710
 3120TIP3   OH230918   1.060   1.712   8.318  0.3764  0.2481  0.4430
 3120TIP3    H130919   1.122   1.697   8.246  1.4075 -2.9030  1.7966
 3120TIP3    H230920   1.112   1.759   8.384  0.3838  0.3416  0.3705
 3121TIP3   OH230921   0.251   6.239   1.511  0.0400  0.5100 -0.2942
 3121TIP3    H130922   0.301   6.169   1.468  0.8782  0.4204  0.7708
 3121TIP3    H230923   0.208   6.195   1.584  0.0286  0.9717 -0.0219
 3122TIP3   OH230924   6.875   2.523   0.307  0.1200  0.0717 -0.0965
 3122TIP3    H130925   6.826   2.543   0.228 -1.5475 -1.6973  0.4397
 3122TIP3    H230926   6.809   2.508   0.374  1.4479 -0.5597  1.1349
 3123TIP3   OH230927   3.464   0.355   1.390  0.6935  0.3859 -0.5891
 3123TIP3    H130928   3.382   0.343   1.344 -0.9697 -0.3702  2.3003
 3123TIP3    H230929   3.486   0.268   1.423  0.9396  1.0713  1.2245
 3124TIP3   OH230930   4.736   1.483   1.239  0.5788 -0.4198  0.4190
 3124TIP3    H130931   4.817   1.493   1.290  0.8939  2.1459 -0.4470
 3124TIP3    H230932   4.766   1.458   1.151  0.3015 -0.9169  0.4606
 3125TIP3   OH230933   3.180   2.367   1.754  0.3552 -0.3583  0.2617
 3125TIP3    H130934   3.129   2.448   1.753 -0.5083 -0.8577 -1.9329
 3125TIP3    H230935   3.241   2.377   1.681  0.6890 -1.4160  0.3832
 3126TIP3   OH230936   3.362   1.962   0.934  0.4854 -0.0974  0.4945
 3126TIP3    H130937   3.454   1.961   0.909  0.0591  0.1092 -1.2076
 3126TIP3    H230938   3.324   2.034   0.885 -0.6349 -0.3165  0.9971
 3127TIP3   OH230939   0.044   1.926   7.588 -0.3973 -0.3056 -0.5047
 3127TIP3    H130940   0.058   1.981   7.510 -0.1093  0.8796  0.3474
 3127TIP3    H230941   0.112   1.859   7.582  0.2575  0.3566 -0.7834
 3128TIP3   OH230942   0.930   4.918   7.415 -0.3056 -0.5462  0.3451
 3128TIP3    H130943   1.021   4.896   7.431  0.1222  0.6839 -0.2321
 3128TIP3    H230944   0.911   4.990   7.475  0.9111  3.1603 -3.2487
 3129TIP3   OH230945   0.629   1.209   0.299  0.1468 -0.1844  0.4614
 3129TIP3    H130946   0.686   1.197   0.375 -0.5186  0.0919  1.0041
 3129TIP3    H230947   0.665   1.148   0.234  0.4040 -0.8100  1.1637
 3130TIP3   OH230948   2.158   0.649   6.974  0.5295  0.4940 -0.2473
 3130TIP3    H130949   2.096   0.683   6.909 -0.2399 -0.3005  0.0365
 3130TIP3    H230950   2.135   0.694   7.055  0.2168  0.0894 -0.1086
 3131TIP3   OH230951   2.072   6.770   1.310 -0.9469 -0.3632 -0.1875
 3131TIP3    H130952   2.080   6.682   1.345  0.4476 -0.0726  0.2875
 3131TIP3    H230953   2.144   6.778   1.248 -2.4444 -0.3306 -1.9996
 3132TIP3   OH230954   4.366   6.847   6.673  0.0834  0.2224  0.4739
 3132TIP3    H130955   4.415   6.803   6.603 -0.2616  0.5397  0.0255
 3132TIP3    H230956   4.429   6.910   6.710  0.8111 -1.1087  1.6005
 3133TIP3   OH230957   4.522   6.391   7.304 -0.6096  0.0529  0.3010
 3133TIP3    H130958   4.542   6.298   7.290 -1.2268 -0.3729  1.9823
 3133TIP3    H230959   4.605   6.429   7.332 -0.8398 -0.5266  1.8913
 3134TIP3   OH230960   1.002   4.082   2.130 -0.4688 -0.0948 -0.1493
 3134TIP3    H130961   1.076   4.023   2.112  0.2038  1.0892 -1.5079
 3134TIP3    H230962   1.028   4.129   2.209  0.3350  0.4206 -0.7007
 3135TIP3   OH230963   0.800   3.991   7.350  0.1493 -0.0473  0.7119
 3135TIP3    H130964   0.806   4.040   7.268  0.8607  0.9679  1.3555
 3135TIP3    H230965   0.708   3.966   7.356  0.1403 -0.3525 -0.5142
 3136TIP3   OH230966   0.862   0.091   0.204  0.1973 -0.6736 -0.1627
 3136TIP3    H130967   0.925   0.162   0.216 -0.7191  0.0900  0.3383
 3136TIP3    H230968   0.777   0.134   0.208 -0.3688 -1.7044 -0.6337
 3137TIP3   OH230969   6.678   4.653   7.990 -0.1119  0.7421 -0.0017
 3137TIP3    H130970   6.620   4.616   8.057  0.1526 -0.2395 -0.2973
 3137TIP3    H230971   6.698   4.741   8.022 -0.3472  0.4524  0.9861
 3138TIP3   OH230972   0.509   5.149   6.529  0.7252 -0.2399 -0.0765
 3138TIP3    H130973   0.505   5.069   6.581 -4.0137  0.7365  1.5692
 3138TIP3    H230974   0.426   5.150   6.480  1.6523  2.5712 -1.8497
 3139TIP3   OH230975   1.586   2.217   0.217 -0.2411  0.2362 -0.3312
 3139TIP3    H130976   1.650   2.252   0.278 -0.7140 -1.6633  1.4035
 3139TIP3    H230977   1.627   2.139   0.181 -0.7061  0.2774 -0.9691
 3140TIP3   OH230978   0.302   3.944   1.340 -0.3157 -0.2465 -0.3272
 3140TIP3    H130979   0.292   3.850   1.355 -4.1173  0.0238 -0.1932
 3140TIP3    H230980   0.221   3.970   1.296  0.1719  3.1567  0.5032
 3141TIP3   OH230981   5.096   2.595   0.625 -0.3395 -0.5034 -0.1360
 3141TIP3    H130982   5.148   2.535   0.678 -1.1859 -0.1719  1.1037
 3141TIP3    H230983   5.014   2.548   0.609 -1.0645  0.3439  0.9585
 3142TIP3   OH230984   4.546   6.200   8.443 -0.1410 -0.0836  0.1930
 3142TIP3    H130985   4.602   6.258   8.390 -1.5059  1.3725  0.2621
 3142TIP3    H230986   4.457   6.232   8.427 -0.8598 -1.6003  0.9820
 3143TIP3   OH230987   4.610   4.102   0.804  0.3569  0.5440  0.2889
 3143TIP3    H130988   4.650   4.019   0.777 -1.4946 -1.1271  2.2901
 3143TIP3    H230989   4.561   4.131   0.727  0.6759 -0.4637 -0.3152
 3144TIP3   OH230990   3.442   3.901   1.476  1.2640  0.0126  0.2319
 3144TIP3    H130991   3.411   3.849   1.549 -0.8345  1.0246  0.1356
 3144TIP3    H230992   3.424   3.992   1.501  0.1045  0.3662 -1.6660
 3145TIP3   OH230993   2.415   0.556   0.060 -0.1849 -0.5519  0.7431
 3145TIP3    H130994   2.366   0.519   0.134  0.0356 -2.4029  0.0113
 3145TIP3    H230995   2.505   0.526   0.074 -0.2963 -1.6481 -0.6855
 3146TIP3   OH230996   5.298   2.690   7.658  0.0275 -0.6106 -0.5085
 3146TIP3    H130997   5.383   2.647   7.654  0.6324  0.4696  0.2974
 3146TIP3    H230998   5.285   2.709   7.751 -1.4880 -1.4988 -0.5041
 3147TIP3   OH230999   1.791   3.352   0.819  0.3776 -0.7307  0.2850
 3147TIP3    H131000   1.772   3.262   0.794  0.8456 -0.6542 -0.3888
 3147TIP3    H231001   1.714   3.382   0.867  0.0140 -1.3214  0.0647
 3148TIP3   OH231002   0.932   0.775   7.796  0.9201  0.0158  0.4864
 3148TIP3    H131003   0.929   0.869   7.778  1.2797 -0.0996 -0.2143
 3148TIP3    H231004   1.015   0.747   7.756 -0.0826 -0.9438 -1.0080
 3149TIP3   OH231005   6.167   0.290   8.246  0.0998  0.1162  0.3737
 3149TIP3    H131006   6.132   0.204   8.222 -0.4516  0.1572  1.0014
 3149TIP3    H231007   6.178   0.286   8.341 -0.2295  0.8430  0.4475
 3150TIP3   OH231008   3.917   6.254   7.126  0.1770  0.1233  0.3309
 3150TIP3    H131009   3.855   6.258   7.054 -0.6543  0.0660  1.0226
 3150TIP3    H231010   3.917   6.163   7.153  0.9023  0.0364  0.0570
 3151TIP3   OH231011   3.250   6.679   0.710  0.3024 -0.0999 -0.1153
 3151TIP3    H131012   3.159   6.655   0.726 -0.0702  0.8454 -0.7192
 3151TIP3    H231013   3.279   6.719   0.792  0.2982 -0.7347  0.2013
 3152TIP3   OH231014   5.992   2.777   0.572 -0.4159 -0.8225  0.0015
 3152TIP3    H131015   6.067   2.834   0.581 -1.6535  0.7866  0.6132
 3152TIP3    H231016   6.011   2.724   0.494  0.3076  1.1676 -1.2438
 3153TIP3   OH231017   5.166   4.763   2.121 -0.2317 -0.0406 -0.6386
 3153TIP3    H131018   5.178   4.801   2.208  2.2199  0.5643 -1.1614
 3153TIP3    H231019   5.078   4.725   2.123 -0.5107  0.5701  1.8478
 3154TIP3   OH231020   5.233   6.721   0.116  0.3304 -0.2058  1.0938
 3154TIP3    H131021   5.202   6.783   0.183  1.5146  0.4887  1.0425
 3154TIP3    H231022   5.269   6.648   0.167  1.3655  0.3885  1.2486
 3155TIP3   OH231023   0.676   4.885   2.523  0.1984  0.3607 -0.0061
 3155TIP3    H131024   0.612   4.867   2.454  1.7913 -0.1026 -1.4412
 3155TIP3    H231025   0.630   4.943   2.584 -0.5811  2.9421 -2.7679
 3156TIP3   OH231026   5.689   0.548   1.617  0.3798 -0.5167 -0.4733
 3156TIP3    H131027   5.683   0.639   1.647 -0.3617 -0.7540  0.1319
 3156TIP3    H231028   5.721   0.500   1.693 -0.0133 -0.8819 -0.5327
 3157TIP3   OH231029   3.630   0.338   1.167  0.1334 -0.2221 -0.5697
 3157TIP3    H131030   3.621   0.242   1.169 -0.7789 -0.1498 -0.2202
 3157TIP3    H231031   3.563   0.368   1.229  0.0298  0.6653 -1.1055
 3158TIP3   OH231032   0.384   1.172   1.305  0.1375  0.0327 -0.3127
 3158TIP3    H131033   0.375   1.081   1.334 -1.6742  0.7852  1.7973
 3158TIP3    H231034   0.294   1.202   1.293  0.7214  1.4132 -1.4761
 3159TIP3   OH231035   6.052   2.905   6.276 -0.2513 -0.2709 -0.1935
 3159TIP3    H131036   6.098   2.986   6.255  0.2149  0.1390  2.1611
 3159TIP3    H231037   6.120   2.848   6.312 -0.7125 -1.4860 -1.1757
 3160TIP3   OH231038   2.775   1.906   8.540  0.8012  0.3189  0.4222
 3160TIP3    H131039   2.822   1.874   8.617  0.7089 -0.9863 -0.0431
 3160TIP3    H231040   2.716   1.834   8.516 -0.9184  1.6121  0.5545
 3161TIP3   OH231041   1.647   3.648   2.463 -0.0690  0.4115  0.3949
 3161TIP3    H131042   1.717   3.583   2.460  1.3020  1.8470 -2.4817
 3161TIP3    H231043   1.587   3.621   2.393 -0.7125  0.9852  0.7170
 3162TIP3   OH231044   0.926   3.683   0.399 -0.2442  0.1001  0.4020
 3162TIP3    H131045   1.007   3.671   0.449  0.2240 -0.4666 -0.4540
 3162TIP3    H231046   0.947   3.648   0.313 -1.1524  0.7105 -0.0763
 3163TIP3   OH231047   0.714   1.835   7.157  0.5661 -0.0688  0.3384
 3163TIP3    H131048   0.745   1.874   7.239  0.5606  1.2464 -0.2627
 3163TIP3    H231049   0.635   1.885   7.136  1.0089  0.1547 -0.8753
 3164TIP3   OH231050   2.889   5.980   0.244 -0.2453 -0.1851  0.1270
 3164TIP3    H131051   2.841   6.059   0.269  1.6361  0.7940  0.9170
 3164TIP3    H231052   2.855   5.956   0.158 -1.1146  1.2818  0.0339
 3165TIP3   OH231053   0.926   1.813   7.335  0.2736 -0.4936 -0.8733
 3165TIP3    H131054   0.987   1.843   7.403 -0.1850  0.4310 -0.8583
 3165TIP3    H231055   0.861   1.761   7.383  1.2409 -1.8216 -0.9417
 3166TIP3   OH231056   6.015   0.535   8.156  0.2617  0.3131  0.6089
 3166TIP3    H131057   6.049   0.475   8.223  0.9595  2.9338  2.7959
 3166TIP3    H231058   5.958   0.594   8.203 -1.0785  0.9032 -1.6099
 3167TIP3   OH231059   1.664   1.785   1.556  0.1963  0.6131 -0.0129
 3167TIP3    H131060   1.571   1.763   1.556  0.2397  0.4119 -0.5316
 3167TIP3    H231061   1.706   1.714   1.506  0.2668  2.1136 -2.2477
 3168TIP3   OH231062   3.358   4.667   8.071  0.6614 -0.2135 -0.2774
 3168TIP3    H131063   3.282   4.699   8.120  0.9107 -1.2329  0.8017
 3168TIP3    H231064   3.364   4.726   7.996 -2.6893 -1.5078 -1.7749
 3169TIP3   OH231065   5.605   2.787   1.782 -0.7128  0.2379  0.1550
 3169TIP3    H131066   5.694   2.817   1.803 -1.5830  2.4042  0.9293
 3169TIP3    H231067   5.607   2.693   1.800  0.9083  0.5671  2.0035
 3170TIP3   OH231068   4.081   6.889   1.313  0.2435 -0.3608 -0.3304
 3170TIP3    H131069   4.142   6.956   1.345 -0.6298  0.1992  0.1947
 3170TIP3    H231070   3.996   6.931   1.314 -0.3488 -1.5163  0.1115
 3171TIP3   OH231071   0.791   2.773   0.189  0.0486  0.2753 -0.1239
 3171TIP3    H131072   0.766   2.681   0.176  0.6063  0.1091 -0.0609
 3171TIP3    H231073   0.828   2.774   0.278  0.5333  0.4525 -0.3276
 3172TIP3   OH231074   3.180   5.705   0.647 -0.2203 -0.4125  0.1624
 3172TIP3    H131075   3.234   5.627   0.652 -0.1707 -0.6249 -2.3217
 3172TIP3    H231076   3.118   5.687   0.576  0.9249  2.3987 -1.7448
 3173TIP3   OH231077   1.995   1.663   0.934 -0.0627 -0.7533 -0.0915
 3173TIP3    H131078   2.026   1.750   0.960  1.0248 -0.3953 -2.2868
 3173TIP3    H231079   2.046   1.602   0.988  3.1718 -0.1033 -2.1282
 3174TIP3   OH231080   0.930   6.803   0.625 -0.0560  0.1275  0.0239
 3174TIP3    H131081   0.903   6.741   0.693  0.1367  0.2703  0.2291
 3174TIP3    H231082   0.886   6.885   0.648 -1.0297 -0.1656 -0.7461
 3175TIP3   OH231083   3.846   3.062   6.626  0.5475  0.1957 -0.1948
 3175TIP3    H131084   3.807   3.059   6.713  1.1151 -1.8898  0.0395
 3175TIP3    H231085   3.779   3.024   6.569  1.4374 -1.6261 -0.0896
 3176TIP3   OH231086   1.518   5.243   2.457 -0.5883 -0.4404  0.0115
 3176TIP3    H131087   1.557   5.157   2.475 -1.1271 -0.5256  0.8597
 3176TIP3    H231088   1.425   5.231   2.477 -0.8401  0.0844 -0.8058
 3177TIP3   OH231089   1.772   6.712   7.003 -0.5391 -0.3837  0.4564
 3177TIP3    H131090   1.844   6.762   7.043 -1.0007 -0.0134  0.8473
 3177TIP3    H231091   1.709   6.779   6.976  0.6194 -0.4354 -2.7713
 3178TIP3   OH231092   0.575   4.706   8.248  0.4059 -0.0869 -0.6504
 3178TIP3    H131093   0.653   4.679   8.198  0.1548 -1.9945 -0.1026
 3178TIP3    H231094   0.501   4.674   8.196  0.1301 -1.9027  0.7676
 3179TIP3   OH231095   0.316   2.993   7.684  0.1210  0.4725 -0.1777
 3179TIP3    H131096   0.319   3.068   7.744 -1.0298  0.2773  0.1397
 3179TIP3    H231097   0.239   3.009   7.630  1.1821  0.6841 -1.6846
 3180TIP3   OH231098   6.763   2.115   0.901 -0.4401 -0.1048  0.2739
 3180TIP3    H131099   6.711   2.035   0.898  0.3194 -0.5845 -0.4736
 3180TIP3    H231100   6.702   2.183   0.872 -0.5136 -0.7500 -1.1759
 3181TIP3   OH231101   4.238   3.409   6.477  0.0304  0.0006 -0.1788
 3181TIP3    H131102   4.247   3.476   6.545  1.3563 -0.7466  0.4321
 3181TIP3    H231103   4.164   3.356   6.505 -1.2236  1.3432 -0.8181
 3182TIP3   OH231104   1.832   1.001   7.538 -0.0631  0.0238  0.6450
 3182TIP3    H131105   1.784   1.081   7.560  0.9874  0.9243 -0.1838
 3182TIP3    H231106   1.924   1.025   7.551  0.2181 -1.5237  1.8032
 3183TIP3   OH231107   5.668   1.898   1.387 -0.9620  0.1956 -0.0894
 3183TIP3    H131108   5.696   1.985   1.414  0.1025  0.2348 -1.1992
 3183TIP3    H231109   5.579   1.890   1.420 -0.5275  1.0671  1.4144
 3184TIP3   OH231110   3.700   4.852   6.928  0.1724 -0.1835 -0.6662
 3184TIP3    H131111   3.776   4.857   6.987 -0.3495 -0.4290  0.0427
 3184TIP3    H231112   3.686   4.758   6.915 -1.8119 -0.3185  1.6439
 3185TIP3   OH231113   0.143   2.108   8.223 -0.2023 -1.0806  0.6921
 3185TIP3    H131114   0.200   2.043   8.183  1.4732  0.5679  0.2684
 3185TIP3    H231115   0.054   2.077   8.205  0.5170 -3.3751  0.7923
 3186TIP3   OH231116   6.701   6.075   6.939  0.3732  0.0299 -0.4074
 3186TIP3    H131117   6.657   6.104   6.859  0.1298  3.6033  0.8529
 3186TIP3    H231118   6.774   6.022   6.908  0.2774  1.2640 -3.0270
 3187TIP3   OH231119   1.538   5.165   7.714  0.5149 -0.3167 -0.0032
 3187TIP3    H131120   1.483   5.230   7.757  0.3385 -0.1148 -0.5252
 3187TIP3    H231121   1.619   5.213   7.693  0.8175 -0.5606  0.5876
 3188TIP3   OH231122   1.599   0.685   2.681 -0.1624 -0.0363 -0.2027
 3188TIP3    H131123   1.533   0.719   2.621 -0.5004  2.0561  1.2585
 3188TIP3    H231124   1.556   0.610   2.723 -0.8063 -0.0151 -0.8066
 3189TIP3   OH231125   4.982   0.549   6.302  0.2394  0.4888  0.3126
 3189TIP3    H131126   4.958   0.557   6.209 -0.6585  1.7603  0.6304
 3189TIP3    H231127   5.077   0.541   6.301  0.2851  0.9222 -0.7110
 3190TIP3   OH231128   3.207   5.445   1.023 -0.6150  0.1087  0.1229
 3190TIP3    H131129   3.162   5.479   1.101 -0.3888 -0.9897  0.7477
 3190TIP3    H231130   3.300   5.465   1.038 -0.3260 -1.7794  1.0540
 3191TIP3   OH231131   3.156   3.882   0.626  0.1998 -0.0605  0.4429
 3191TIP3    H131132   3.197   3.967   0.610 -0.9372  0.4674  0.2646
 3191TIP3    H231133   3.144   3.878   0.720  1.0476 -0.4119  0.5456
 3192TIP3   OH231134   6.616   6.509   1.259 -0.1703  0.0250 -0.2213
 3192TIP3    H131135   6.618   6.464   1.344 -2.4188  0.0201 -0.1014
 3192TIP3    H231136   6.615   6.602   1.281  0.3104  0.0446 -0.2861
 3193TIP3   OH231137   6.383   0.408   8.049 -0.4602  0.1712 -0.3227
 3193TIP3    H131138   6.406   0.335   7.992 -0.5509  0.5839 -0.9093
 3193TIP3    H231139   6.299   0.384   8.088  0.6439 -1.0963  1.3936
 3194TIP3   OH231140   5.682   1.832   7.183  0.6922 -0.5660 -0.0622
 3194TIP3    H131141   5.745   1.887   7.229  0.1487 -0.0933  0.1426
 3194TIP3    H231142   5.712   1.742   7.198  1.5649 -0.3313 -0.3596
 3195TIP3   OH231143   5.281   4.568   2.374  0.3480 -0.2670 -0.2239
 3195TIP3    H131144   5.332   4.561   2.454  1.1255 -0.1966 -0.7041
 3195TIP3    H231145   5.344   4.557   2.303  0.2220  2.5120 -0.9051
 3196TIP3   OH231146   4.832   4.463   6.262  0.1488 -0.3343  0.6736
 3196TIP3    H131147   4.740   4.478   6.284  0.2988 -0.0485  1.1148
 3196TIP3    H231148   4.874   4.443   6.345  0.8600  1.4331  0.7804
 3197TIP3   OH231149   1.468   6.430   7.662 -0.3035 -0.3135 -0.3268
 3197TIP3    H131150   1.494   6.398   7.576 -0.6710 -0.3771 -0.4130
 3197TIP3    H231151   1.546   6.476   7.695  0.5534 -2.0572  0.1751
 3198TIP3   OH231152   0.653   5.270   1.567 -0.4430  0.6586  0.1936
 3198TIP3    H131153   0.713   5.203   1.600 -2.9202 -1.6317  0.3099
 3198TIP3    H231154   0.566   5.241   1.595 -1.8168  2.9799 -1.3460
 3199TIP3   OH231155   0.536   5.276   0.091 -0.0146  0.8433  0.2018
 3199TIP3    H131156   0.543   5.262  -0.003  0.2343 -0.8066  0.4454
 3199TIP3    H231157   0.475   5.209   0.121  0.4177  0.9289  1.3140
 3200TIP3   OH231158   2.521   4.406   1.511 -0.0913  0.0216  0.0316
 3200TIP3    H131159   2.481   4.344   1.571 -3.9631  0.8199 -1.4501
 3200TIP3    H231160   2.550   4.354   1.437 -2.3911 -0.2154 -0.7529
 3201TIP3   OH231161   2.975   4.686   0.042  0.5301  0.3748  0.2045
 3201TIP3    H131162   2.908   4.675  -0.026 -0.4909  0.7026  1.1286
 3201TIP3    H231163   3.058   4.675  -0.004 -0.1699 -0.8796 -0.8171
 3202TIP3   OH231164   4.547   4.869   7.422 -0.4488  0.2746 -0.3615
 3202TIP3    H131165   4.469   4.924   7.429  0.6863  1.9929 -0.4718
 3202TIP3    H231166   4.612   4.925   7.380  0.9678 -0.9720  0.0694
 3203TIP3   OH231167   1.718   6.113   6.783 -0.8871 -0.1092 -0.4964
 3203TIP3    H131168   1.769   6.170   6.725 -2.3950  0.7544 -1.0261
 3203TIP3    H231169   1.776   6.039   6.803  1.0473  1.4931  0.0410
 3204TIP3   OH231170   4.203   6.224   0.850 -0.5444  0.6544 -0.1748
 3204TIP3    H131171   4.140   6.273   0.901 -0.7638  1.6280 -1.3281
 3204TIP3    H231172   4.279   6.214   0.908 -1.2400  0.6377  0.7504
 3205TIP3   OH231173   2.392   5.061   0.633  0.2531  0.4016 -0.2479
 3205TIP3    H131174   2.384   5.139   0.578  1.9466  2.3796  2.0930
 3205TIP3    H231175   2.379   5.093   0.722 -0.3717 -2.2985  0.7217
 3206TIP3   OH231176   6.756   4.170   7.584 -0.0554 -0.3569  0.3918
 3206TIP3    H131177   6.700   4.247   7.574  1.8267  1.0105 -0.2051
 3206TIP3    H231178   6.815   4.192   7.656  2.0492 -0.1904 -1.2844
 3207TIP3   OH231179   5.683   2.178   1.487  0.1076 -0.0847 -0.6474
 3207TIP3    H131180   5.609   2.218   1.534  0.8745  1.5032 -0.7578
 3207TIP3    H231181   5.673   2.206   1.397  2.7767  3.3056 -0.0934
 3208TIP3   OH231182   5.000   2.944   1.530  0.0405 -0.4626  0.2500
 3208TIP3    H131183   4.985   2.850   1.526 -0.3772 -0.4175  0.6748
 3208TIP3    H231184   4.982   2.968   1.621 -5.8933  0.9921 -0.9071
 3209TIP3   OH231185   5.636   6.441   0.444  1.0473 -0.4101  0.5728
 3209TIP3    H131186   5.682   6.518   0.412 -0.1753 -0.0782 -0.4489
 3209TIP3    H231187   5.705   6.384   0.477  2.1176  0.3626 -0.2718
 3210TIP3   OH231188   6.210   3.668   7.572  0.3746  0.7229 -0.2742
 3210TIP3    H131189   6.300   3.697   7.555  1.1003 -1.8900 -1.4140
 3210TIP3    H231190   6.170   3.665   7.485  0.0491 -0.6297 -0.0964
 3211TIP3   OH231191   1.709   4.009   7.636 -0.1159 -0.2270 -0.1518
 3211TIP3    H131192   1.631   4.005   7.581 -0.0340  0.7023 -0.3641
 3211TIP3    H231193   1.731   4.103   7.640  0.4408 -0.3767  0.6752
 3212TIP3   OH231194   5.347   1.829   8.467 -0.6083  0.1084 -0.1853
 3212TIP3    H131195   5.266   1.879   8.481 -0.3663  0.2210  0.9231
 3212TIP3    H231196   5.321   1.738   8.481 -0.6723  0.0899 -0.4261
 3213TIP3   OH231197   1.405   6.816   0.953 -0.0456  0.1779 -0.1024
 3213TIP3    H131198   1.313   6.836   0.970 -0.8136 -1.3614 -2.0222
 3213TIP3    H231199   1.440   6.896   0.912 -0.7819  0.4444 -0.2216
 3214TIP3   OH231200   2.141   2.682   8.007 -0.5480  0.0725  0.2432
 3214TIP3    H131201   2.160   2.600   8.054 -0.9801  0.4619  1.1266
 3214TIP3    H231202   2.211   2.742   8.033 -1.2238  0.5361  1.0299
 3215TIP3   OH231203   2.480   5.238   7.192 -0.2824 -0.2810 -0.2660
 3215TIP3    H131204   2.472   5.144   7.173  0.4034 -0.2829 -0.5705
 3215TIP3    H231205   2.457   5.245   7.285 -0.6419 -0.7053 -0.3160
 3216TIP3   OH231206   1.806   4.289   0.347  0.5414 -0.4477  0.2702
 3216TIP3    H131207   1.787   4.203   0.382 -0.2637  0.0830  1.1951
 3216TIP3    H231208   1.884   4.318   0.394  0.2576 -0.2920  0.6502
 3217TIP3   OH231209   4.240   0.186   0.913  0.3382  0.2893  0.3161
 3217TIP3    H131210   4.261   0.092   0.914 -2.7534 -0.5993 -2.0033
 3217TIP3    H231211   4.201   0.203   0.999 -0.1107 -0.8592  0.3585
 3218TIP3   OH231212   6.266   4.373   7.305 -0.1940  0.1857 -0.6024
 3218TIP3    H131213   6.319   4.309   7.258 -1.7720 -1.4655 -0.2563
 3218TIP3    H231214   6.240   4.437   7.239  1.3750  0.4931 -0.9629
 3219TIP3   OH231215   5.818   6.304   7.230 -0.5720  0.0917 -0.3693
 3219TIP3    H131216   5.823   6.339   7.141 -0.4581  0.4189 -0.2367
 3219TIP3    H231217   5.851   6.375   7.285 -0.3749 -0.2148 -0.0927
 3220TIP3   OH231218   6.674   5.407   2.121 -0.7550  0.0043 -0.6366
 3220TIP3    H131219   6.655   5.352   2.044 -2.0045 -1.4290  0.6185
 3220TIP3    H231220   6.589   5.442   2.146 -0.7719 -1.2814  1.3132
 3221TIP3   OH231221   3.509   3.256   8.438  0.0191  0.2841  0.6681
 3221TIP3    H131222   3.586   3.214   8.400 -0.4788 -0.1605  0.1171
 3221TIP3    H231223   3.525   3.256   8.532 -0.0750 -1.4053  0.7182
 3222TIP3   OH231224   2.791   0.124   1.579 -0.3459 -0.8050  0.4838
 3222TIP3    H131225   2.771   0.141   1.671 -2.5152  0.6975 -0.1913
 3222TIP3    H231226   2.847   0.197   1.552  1.4628 -1.9707  0.8951
 3223TIP3   OH231227   6.014   4.955   1.618  0.2298 -0.0050 -0.3180
 3223TIP3    H131228   6.070   5.025   1.583 -1.6380  1.3117 -0.8317
 3223TIP3    H231229   6.045   4.876   1.574 -0.7191  1.2800 -3.6065
 3224TIP3   OH231230   3.047   6.681   6.548 -0.5298 -0.5177  0.3222
 3224TIP3    H131231   2.991   6.654   6.475 -0.1269 -0.9200  0.1634
 3224TIP3    H231232   3.040   6.777   6.549  0.5956 -0.3829 -1.1671
 3225TIP3   OH231233   6.874   1.986   0.518  0.2500 -0.1852 -0.0095
 3225TIP3    H131234   6.782   1.967   0.505  0.2314  0.4105 -0.7780
 3225TIP3    H231235   6.892   1.955   0.607 -0.8835  0.4263  0.4519
 3226TIP3   OH231236   5.230   6.446   7.426 -0.2116  0.3316  0.3215
 3226TIP3    H131237   5.324   6.426   7.429 -0.2312 -0.1717 -1.6197
 3226TIP3    H231238   5.187   6.362   7.440 -0.4195  0.6398  1.7295
 3227TIP3   OH231239   5.850   5.401   0.956 -0.6939  0.0268 -0.3378
 3227TIP3    H131240   5.870   5.491   0.979 -0.1032  0.0535 -0.9655
 3227TIP3    H231241   5.907   5.380   0.883  0.3830 -1.3914  0.8350
 3228TIP3   OH231242   3.451   6.890   7.216 -0.4130 -0.2843 -0.0385
 3228TIP3    H131243   3.384   6.933   7.270 -1.6007  1.7899 -2.9246
 3228TIP3    H231244   3.405   6.817   7.174 -0.4022  0.1176 -0.7477
 3229TIP3   OH231245   2.930   0.458   0.014 -0.1405  0.3655 -0.8098
 3229TIP3    H131246   2.953   0.405  -0.062 -0.1154  1.8795 -1.9103
 3229TIP3    H231247   3.000   0.442   0.077  2.1857  2.2656 -2.7525
 3230TIP3   OH231248   0.633   1.325   0.006 -0.1304  0.6282 -0.0189
 3230TIP3    H131249   0.649   1.366  -0.079 -1.1097 -1.3365 -1.2404
 3230TIP3    H231250   0.537   1.318   0.010 -0.1642 -4.8572 -1.7940
 3231TIP3   OH231251   6.778   3.480   1.786 -0.5751  0.5454 -0.0453
 3231TIP3    H131252   6.716   3.497   1.856 -2.4195  0.4146 -1.5627
 3231TIP3    H231253   6.759   3.391   1.758 -0.3090  0.8029 -1.1041
 3232TIP3   OH231254   4.120   6.677   1.520  0.0997 -0.3277 -0.2492
 3232TIP3    H131255   4.077   6.761   1.535 -0.9509 -0.9442  0.2545
 3232TIP3    H231256   4.200   6.681   1.573 -0.5931 -0.1489  0.8119
 3233TIP3   OH231257   1.536   0.288   6.888  0.1652 -0.0569  0.0096
 3233TIP3    H131258   1.479   0.337   6.947  0.5332  1.4107 -0.7848
 3233TIP3    H231259   1.476   0.232   6.838 -0.6385  1.4400 -0.7992
 3234TIP3   OH231260   3.628   0.989   6.723  0.1623  0.2917  0.0993
 3234TIP3    H131261   3.565   0.981   6.795  1.3200 -1.0519  1.0063
 3234TIP3    H231262   3.581   0.957   6.646 -0.1384 -1.1829  0.8634
 3235TIP3   OH231263   4.304   0.968   0.518 -0.5030 -0.3115 -0.8070
 3235TIP3    H131264   4.340   1.035   0.576  0.2721 -0.7641 -0.7493
 3235TIP3    H231265   4.229   0.932   0.566 -1.7718  1.4134 -1.4012
 3236TIP3   OH231266   1.026   6.426   0.051 -0.1445 -0.4235 -0.4139
 3236TIP3    H131267   1.018   6.489   0.123 -1.3172 -1.1374  0.1159
 3236TIP3    H231268   0.963   6.456  -0.014  0.3390 -0.2349 -0.8006
 3237TIP3   OH231269   2.557   6.502   8.449  0.0763 -0.3500 -0.0391
 3237TIP3    H131270   2.610   6.549   8.383 -0.0528  0.1253  0.1906
 3237TIP3    H231271   2.622   6.462   8.507  0.2110  1.3332  1.0231
 3238TIP3   OH231272   6.198   1.520   6.991 -0.3064  0.1823  0.3896
 3238TIP3    H131273   6.241   1.528   6.906  0.5501  0.7777  0.8663
 3238TIP3    H231274   6.207   1.427   7.014  3.1884  0.7037  1.6926
 3239TIP3   OH231275   4.349   3.752   1.398 -0.1616  1.2079  0.1977
 3239TIP3    H131276   4.363   3.845   1.410 -1.6223  2.1464 -3.8916
 3239TIP3    H231277   4.397   3.730   1.319 -2.1360 -0.8111 -0.5524
 3240TIP3   OH231278   1.423   4.386   7.052 -0.0002 -1.1720 -0.3505
 3240TIP3    H131279   1.418   4.469   7.100 -1.7357 -1.9399  0.9280
 3240TIP3    H231280   1.416   4.411   6.960 -3.3584  0.0359  0.0620
 3241TIP3   OH231281   2.565   5.505   7.421 -0.0362 -0.1423  0.1532
 3241TIP3    H131282   2.554   5.530   7.329  2.9370 -1.3882 -0.6827
 3241TIP3    H231283   2.514   5.426   7.431 -1.3037  0.6217 -0.0637
 3242TIP3   OH231284   4.381   5.965   0.143  0.4261  0.2814  0.2053
 3242TIP3    H131285   4.353   5.914   0.219  0.3003  0.2010  0.1057
 3242TIP3    H231286   4.300   5.986   0.098  0.4168  1.1446  0.6091
 3243TIP3   OH231287   1.396   4.210   7.805 -1.2095 -0.4527 -0.0836
 3243TIP3    H131288   1.417   4.138   7.865 -0.2907  0.1876  0.3751
 3243TIP3    H231289   1.309   4.188   7.772  0.2282 -3.4598 -2.3859
 3244TIP3   OH231290   3.964   3.182   7.144  0.5723  0.4414 -0.1301
 3244TIP3    H131291   3.984   3.249   7.079  0.8075  2.5951  2.0376
 3244TIP3    H231292   4.023   3.202   7.217 -1.0206 -0.6689  1.5253
 3245TIP3   OH231293   6.808   2.846   0.082  0.1872 -0.3103  0.7625
 3245TIP3    H131294   6.830   2.919   0.024  2.6462 -1.9602 -0.5373
 3245TIP3    H231295   6.712   2.848   0.087  0.0033  1.2250 -1.5994
 3246TIP3   OH231296   5.346   5.795   0.313  0.0997  0.4378 -0.4066
 3246TIP3    H131297   5.301   5.879   0.300 -0.2192  0.5304  1.1300
 3246TIP3    H231298   5.402   5.809   0.389  0.2983 -0.6476 -0.3337
 3247TIP3   OH231299   3.967   1.933   7.945  0.1016 -0.0573  0.6916
 3247TIP3    H131300   4.006   2.006   7.994  1.6733 -0.1442 -0.3444
 3247TIP3    H231301   4.035   1.866   7.945 -0.8214 -1.0178  0.4962
 3248TIP3   OH231302   3.245   0.051   8.043  0.0036 -0.2861 -0.4965
 3248TIP3    H131303   3.191   0.087   8.113 -0.3697 -2.3177  0.3285
 3248TIP3    H231304   3.333   0.048   8.081 -0.1239 -1.0037 -0.2411
 3249TIP3   OH231305   0.333   1.982   1.359  0.0129  0.4488 -0.3124
 3249TIP3    H131306   0.371   1.917   1.300 -0.7140 -1.5594  1.3079
 3249TIP3    H231307   0.261   2.020   1.310  0.2671 -0.1853 -1.2008
 3250TIP3   OH231308   1.971   4.977   7.540  0.1581 -0.1372 -0.1439
 3250TIP3    H131309   1.880   4.992   7.514  0.2460  0.0514 -0.3463
 3250TIP3    H231310   2.009   4.927   7.467  0.6495  1.1664 -0.8100
 3251TIP3   OH231311   2.030   5.360   1.789  0.5124  0.0726 -0.3195
 3251TIP3    H131312   2.020   5.339   1.881  0.2949  0.5690 -0.2282
 3251TIP3    H231313   1.942   5.384   1.759  0.6278  0.1666 -0.5916
 3252TIP3   OH231314   1.251   2.231   6.114 -0.1106 -0.2818 -0.0040
 3252TIP3    H131315   1.318   2.290   6.080  0.2931 -0.4098  0.5511
 3252TIP3    H231316   1.295   2.146   6.122 -0.2884 -0.3312  0.5109
 3253TIP3   OH231317   4.028   3.334   1.440 -0.0646  0.4862  0.0387
 3253TIP3    H131318   4.097   3.271   1.457 -0.0256  0.7099  0.7624
 3253TIP3    H231319   4.070   3.420   1.449  0.0078  0.6306 -1.4654
 3254TIP3   OH231320   2.033   3.454   0.178 -0.6234  0.6098  0.5249
 3254TIP3    H131321   2.103   3.517   0.158  0.3916 -1.3153 -2.6314
 3254TIP3    H231322   2.075   3.388   0.233  0.3652 -0.8578 -1.8476
 3255TIP3   OH231323   2.413   2.879   1.301 -0.0645 -0.0441 -0.4403
 3255TIP3    H131324   2.432   2.973   1.307 -0.9525  0.0422  1.5759
 3255TIP3    H231325   2.365   2.870   1.219 -0.7413  1.4188 -0.2351
 3256TIP3   OH231326   5.857   2.874   7.524  0.3498  0.1855  0.1866
 3256TIP3    H131327   5.793   2.907   7.586  0.1874 -1.3707  0.8687
 3256TIP3    H231328   5.844   2.928   7.446 -0.5437  1.0833  0.9286
 3257TIP3   OH231329   5.137   4.236   0.736 -0.2349  0.2054 -0.9374
 3257TIP3    H131330   5.177   4.319   0.763  1.3525 -0.8482  0.1725
 3257TIP3    H231331   5.060   4.228   0.792 -0.2235  0.7838 -0.8321
 3258TIP3   OH231332   3.773   0.408   0.940 -0.2218 -0.0495 -0.2563
 3258TIP3    H131333   3.733   0.489   0.907 -1.0638 -1.3354 -2.5924
 3258TIP3    H231334   3.740   0.400   1.030 -0.9942  1.6226 -0.3508
 3259TIP3   OH231335   0.845   4.363   7.970 -0.3206 -0.4005 -0.0585
 3259TIP3    H131336   0.938   4.379   7.953 -0.4146  0.8639  0.4780
 3259TIP3    H231337   0.842   4.273   8.003  1.1077  0.4351  2.6762
 3260TIP3   OH231338   0.439   1.849   1.873  0.2257 -0.3338 -0.0044
 3260TIP3    H131339   0.410   1.938   1.890 -1.5058 -0.9078  0.2397
 3260TIP3    H231340   0.510   1.834   1.937  0.7299  0.9261 -0.2391
 3261TIP3   OH231341   0.639   6.801   0.162  0.1181 -0.2312 -0.0139
 3261TIP3    H131342   0.643   6.710   0.191  0.8927 -0.1392  0.1788
 3261TIP3    H231343   0.719   6.841   0.196 -1.0460  0.9783  1.3827
 3262TIP3   OH231344   2.311   6.153   2.436 -0.4499  0.2102 -0.2787
 3262TIP3    H131345   2.349   6.228   2.389 -0.3752  0.4737  0.1910
 3262TIP3    H231346   2.308   6.083   2.371 -0.3256  0.5601 -0.6686
 3263TIP3   OH231347   1.667   5.413   8.440 -0.2212  0.4395  0.3214
 3263TIP3    H131348   1.679   5.320   8.418 -1.5965  0.4714 -0.7176
 3263TIP3    H231349   1.579   5.417   8.478 -0.3300  1.3741 -0.0122
 3264TIP3   OH231350   0.726   3.832   0.648  0.2157  0.4278 -0.2704
 3264TIP3    H131351   0.672   3.782   0.587  0.2621  0.6739 -0.5177
 3264TIP3    H231352   0.796   3.868   0.594  0.2486  0.6625 -0.0736
 3265TIP3   OH231353   2.984   6.716   0.497  0.2645 -0.2741 -0.4169
 3265TIP3    H131354   2.919   6.757   0.439  0.9050  2.6906  0.7750
 3265TIP3    H231355   3.066   6.760   0.475  0.7427  0.0925  1.8530
 3266TIP3   OH231356   2.961   1.808   0.210  0.2269  0.0315 -0.3759
 3266TIP3    H131357   2.926   1.742   0.270  0.9879  0.4806  0.5894
 3266TIP3    H231358   3.020   1.861   0.264  0.9129  0.4702 -1.5166
 3267TIP3   OH231359   1.434   5.220   2.142 -0.1988  0.7330  0.2459
 3267TIP3    H131360   1.402   5.131   2.154 -0.8046  1.0367  0.9979
 3267TIP3    H231361   1.442   5.230   2.047  1.8052 -0.7683  0.2030
 3268TIP3   OH231362   0.017   4.896   1.601 -0.5889 -0.1062  0.1114
 3268TIP3    H131363   0.027   4.909   1.695  3.7460  1.0983 -0.2768
 3268TIP3    H231364   0.044   4.980   1.562  0.3249 -1.3476 -2.1748
 3269TIP3   OH231365   3.418   4.572   0.656  0.5809 -0.1053  0.2495
 3269TIP3    H131366   3.502   4.617   0.657  0.0417  0.9400  0.3595
 3269TIP3    H231367   3.428   4.503   0.590  1.3713  0.2870 -0.0527
 3270TIP3   OH231368   4.945   4.171   1.374  0.5800 -0.1639 -0.2193
 3270TIP3    H131369   5.000   4.190   1.450  0.5072  0.4515 -0.3113
 3270TIP3    H231370   5.006   4.139   1.308  0.9296  1.0163 -0.5018
 3271TIP3   OH231371   0.419   4.914   0.685  0.2380 -0.5417  0.5011
 3271TIP3    H131372   0.360   4.948   0.752  0.4241 -0.2626  0.5263
 3271TIP3    H231373   0.498   4.889   0.732  1.0016  1.1729  0.1964
 3272TIP3   OH231374   4.530   1.370   1.976  0.0094 -0.5153 -0.2539
 3272TIP3    H131375   4.497   1.342   1.890  0.0995 -1.2901 -0.0469
 3272TIP3    H231376   4.465   1.434   2.007 -0.7101 -1.1805 -0.3461
 3273TIP3   OH231377   5.112   1.748   7.279 -0.1069  0.2907 -0.3653
 3273TIP3    H131378   5.086   1.819   7.338 -1.9508  1.4850 -2.4813
 3273TIP3    H231379   5.100   1.784   7.191  2.3386 -1.4831 -1.5407
 3274TIP3   OH231380   1.687   4.563   6.950 -0.5371 -0.2901 -0.2281
 3274TIP3    H131381   1.611   4.558   6.891  0.7121 -2.2464 -1.8383
 3274TIP3    H231382   1.762   4.550   6.892  1.2589  3.3906  1.0084
 3275TIP3   OH231383   3.223   1.181   1.236 -0.8709 -0.0452  0.8313
 3275TIP3    H131384   3.232   1.265   1.280 -1.0107  0.8249 -0.7337
 3275TIP3    H231385   3.271   1.191   1.154  2.6244 -2.8429  2.2641
 3276TIP3   OH231386   0.825   0.793   1.150 -0.3245 -0.1835 -0.7028
 3276TIP3    H131387   0.784   0.813   1.235  1.2277 -0.5164  0.1488
 3276TIP3    H231388   0.808   0.871   1.097  0.1971  0.7857  0.5079
 3277TIP3   OH231389   1.972   1.111   6.769  0.2380  0.3746  0.0047
 3277TIP3    H131390   2.029   1.049   6.725 -0.9212  0.0501 -1.0919
 3277TIP3    H231391   1.916   1.147   6.700 -0.5161  1.0830  0.9463
 3278TIP3   OH231392   0.395   1.803   1.142 -0.2462  0.2727  0.4171
 3278TIP3    H131393   0.481   1.815   1.182  0.2091  0.3674 -0.5638
 3278TIP3    H231394   0.407   1.830   1.051 -1.0057 -0.8361 -0.0371
 3279TIP3   OH231395   5.930   6.749   0.685  0.0745 -0.1267 -0.0104
 3279TIP3    H131396   5.870   6.764   0.612 -0.2951  1.1061  0.5161
 3279TIP3    H231397   6.006   6.803   0.664  0.9000 -1.4449 -0.5220
 3280TIP3   OH231398   2.565   4.069   8.129  0.0030  0.2260 -0.1645
 3280TIP3    H131399   2.646   4.021   8.146 -1.4259 -2.0634  0.5599
 3280TIP3    H231400   2.524   4.079   8.215 -0.1124  2.1317 -0.4062
 3281TIP3   OH231401   0.372   2.836   1.224 -0.6454 -0.8169  0.0609
 3281TIP3    H131402   0.331   2.794   1.149 -0.2627  0.2142 -0.7496
 3281TIP3    H231403   0.329   2.922   1.231  1.6569  0.5488 -1.1729
 3282TIP3   OH231404   6.273   3.159   1.503 -0.0727  0.1790  0.7941
 3282TIP3    H131405   6.322   3.078   1.492  0.5946  0.7060 -0.2810
 3282TIP3    H231406   6.181   3.132   1.508  0.1894 -0.6726  1.0187
 3283TIP3   OH231407   6.830   5.067   2.191 -0.1557 -0.3810  0.0855
 3283TIP3    H131408   6.775   5.093   2.117 -0.2070 -0.3700  0.1274
 3283TIP3    H231409   6.916   5.051   2.152 -0.1159 -0.1197  0.0642
 3284TIP3   OH231410   3.389   2.770   8.442  0.3516  0.0032  0.3067
 3284TIP3    H131411   3.448   2.839   8.474 -0.2761  0.0614  1.3581
 3284TIP3    H231412   3.323   2.818   8.391 -2.4994  0.8571  4.3008
 3285TIP3   OH231413   6.300   1.325   1.441 -0.5448 -0.0878  0.9756
 3285TIP3    H131414   6.304   1.372   1.357 -0.5864  1.7405  1.9424
 3285TIP3    H231415   6.212   1.288   1.443 -0.9607  0.8480  0.6978
 3286TIP3   OH231416   0.206   0.767   7.580  0.4839 -0.4596 -0.3299
 3286TIP3    H131417   0.271   0.804   7.640  0.8526 -2.4204  0.5768
 3286TIP3    H231418   0.221   0.673   7.585 -2.4114 -0.9965 -0.1053
 3287TIP3   OH231419   4.282   1.945   7.294  0.5161 -0.0886 -0.3268
 3287TIP3    H131420   4.292   1.853   7.270  2.4971  0.2119 -0.8579
 3287TIP3    H231421   4.212   1.946   7.360  1.4941 -2.1847  0.8272
 3288TIP3   OH231422   4.780   2.212   8.177  0.1162  0.0448  0.5693
 3288TIP3    H131423   4.725   2.263   8.117  0.0997  0.6844  1.1149
 3288TIP3    H231424   4.867   2.215   8.137  0.1572  0.6746  0.6954
 3289TIP3   OH231425   5.827   0.485   0.627  0.3136 -0.1405  0.5616
 3289TIP3    H131426   5.795   0.523   0.545  1.1201  0.0308  0.3113
 3289TIP3    H231427   5.879   0.555   0.667  0.3455 -0.3943  0.9724
 3290TIP3   OH231428   2.400   0.180   2.277  0.3015  0.1776 -0.2125
 3290TIP3    H131429   2.363   0.092   2.275 -0.7650  0.4527  2.8354
 3290TIP3    H231430   2.494   0.166   2.269  0.0407 -1.0645 -1.5458
 3291TIP3   OH231431   6.587   4.758   6.910 -0.2115 -0.5572 -0.4399
 3291TIP3    H131432   6.492   4.754   6.925 -0.0970 -0.1914  0.4327
 3291TIP3    H231433   6.617   4.668   6.924 -0.4088 -0.6522 -0.6099
 3292TIP3   OH231434   2.100   6.559   1.695  0.7185  0.4095 -0.6340
 3292TIP3    H131435   2.132   6.495   1.632 -0.0520  0.1526 -0.7786
 3292TIP3    H231436   2.004   6.551   1.691  0.6486  0.3288  0.6112
 3293TIP3   OH231437   0.931   2.050   1.920 -0.3936  0.0304 -0.6191
 3293TIP3    H131438   0.896   2.133   1.889  0.1538  0.2264 -0.7269
 3293TIP3    H231439   0.950   2.000   1.841  0.1275  0.1662 -0.5890
 3294TIP3   OH231440   3.239   3.108   7.770 -0.2357  0.1224  0.2661
 3294TIP3    H131441   3.276   3.024   7.742 -2.7866 -0.7197 -0.7924
 3294TIP3    H231442   3.254   3.167   7.696 -2.9457 -0.8795 -1.2261
 3295TIP3   OH231443   1.330   3.221   2.280  0.2594  0.2828 -0.3692
 3295TIP3    H131444   1.290   3.307   2.276 -0.8262 -0.1800  0.2074
 3295TIP3    H231445   1.414   3.235   2.324  0.5314  1.1730 -1.1308
 3296TIP3   OH231446   0.593   5.705   7.522  0.1295  0.4515 -0.1626
 3296TIP3    H131447   0.678   5.679   7.557 -0.4649  0.1675  1.1014
 3296TIP3    H231448   0.534   5.705   7.597 -0.5148  2.8413 -0.5661
 3297TIP3   OH231449   6.734   1.205   8.436  0.0796  0.5162  0.4900
 3297TIP3    H131450   6.731   1.113   8.463  1.1856  0.5376  0.7324
 3297TIP3    H231451   6.682   1.208   8.356 -0.6789 -0.1486  0.9418
 3298TIP3   OH231452   3.373   2.849   7.735 -0.3318  0.1200 -0.3662
 3298TIP3    H131453   3.452   2.893   7.766  0.7357 -0.8959 -1.5654
 3298TIP3    H231454   3.359   2.778   7.798 -0.4129  0.4221 -0.0417
 3299TIP3   OH231455   1.509   4.880   0.370  0.2097 -0.2576 -0.1503
 3299TIP3    H131456   1.470   4.831   0.297  1.5648 -1.3224 -0.2160
 3299TIP3    H231457   1.502   4.821   0.445  0.0230  0.2938  0.2708
 3300TIP3   OH231458   4.827   1.501   0.574  0.7995 -0.0465 -0.3016
 3300TIP3    H131459   4.824   1.412   0.539  0.9497 -1.1472  2.2675
 3300TIP3    H231460   4.749   1.508   0.629 -0.3056  2.1843 -1.9798
 3301TIP3   OH231461   4.551   2.975   7.754 -0.1100  0.3229 -0.3112
 3301TIP3    H131462   4.606   2.946   7.681  1.8783  0.7164  0.9540
 3301TIP3    H231463   4.566   2.910   7.823  0.0421  1.3024  0.6147
 3302TIP3   OH231464   3.576   5.252   7.719 -0.3182  0.1532  0.0115
 3302TIP3    H131465   3.587   5.260   7.814  0.7169  2.2387 -0.2360
 3302TIP3    H231466   3.642   5.187   7.693  0.7764  1.0428  0.4942
 3303TIP3   OH231467   1.453   6.490   2.399 -0.3394 -0.1142  0.1333
 3303TIP3    H131468   1.487   6.557   2.340  0.3581 -1.4203 -1.0160
 3303TIP3    H231469   1.487   6.513   2.485  1.3048  0.0883 -0.5438
 3304TIP3   OH231470   6.108   3.494   6.973  0.4597 -0.3560 -0.6014
 3304TIP3    H131471   6.199   3.525   6.967  0.5347  0.0839  1.7689
 3304TIP3    H231472   6.055   3.571   6.952  0.6714  0.6673  2.2333
 3305TIP3   OH231473   2.457   5.940   8.074  0.3701 -0.0414  0.1681
 3305TIP3    H131474   2.536   5.930   8.127  1.1402  0.4768 -0.8514
 3305TIP3    H231475   2.434   5.850   8.049  0.9005 -0.1675  0.1087
 3306TIP3   OH231476   2.963   2.362   7.879  0.0826  0.7175  0.1082
 3306TIP3    H131477   3.016   2.347   7.957  0.7671 -0.3880 -0.5415
 3306TIP3    H231478   3.015   2.420   7.825 -0.3187  1.3475  0.3859
 3307TIP3   OH231479   1.663   4.454   8.449 -0.5315  0.2164  0.1540
 3307TIP3    H131480   1.690   4.398   8.522 -0.8305 -0.9922 -0.6273
 3307TIP3    H231481   1.582   4.495   8.478 -0.6608 -0.2747  0.4921
 3308TIP3   OH231482   6.306   6.857   2.368  0.4617 -0.4788 -0.3600
 3308TIP3    H131483   6.287   6.939   2.322  0.2735 -0.6676 -0.6205
 3308TIP3    H231484   6.228   6.839   2.419 -0.0433 -1.1871 -1.3321
 3309TIP3   OH231485   6.582   3.179   6.333  0.3833  0.3605  0.1646
 3309TIP3    H131486   6.613   3.146   6.248 -0.7169  0.8077 -0.4356
 3309TIP3    H231487   6.649   3.240   6.361  0.9401 -0.0714 -0.2134
 3310TIP3   OH231488   4.884   5.155   1.141 -0.0378  0.1122 -0.4104
 3310TIP3    H131489   4.817   5.178   1.206  0.1633 -0.7754  0.1219
 3310TIP3    H231490   4.834   5.140   1.060 -0.7249 -2.1896  0.3706
 3311TIP3   OH231491   2.530   6.759   7.075  0.0221  0.8172 -0.1720
 3311TIP3    H131492   2.601   6.697   7.053  0.9935  1.0249  2.1324
 3311TIP3    H231493   2.469   6.708   7.127 -1.3525  0.7708 -1.7604
 3312TIP3   OH231494   5.353   0.510   7.624  0.3609 -0.3522 -0.3040
 3312TIP3    H131495   5.311   0.424   7.620  0.4234 -0.4181  0.3763
 3312TIP3    H231496   5.323   0.555   7.546 -2.8903  0.5025  1.2961
 3313TIP3   OH231497   0.241   6.593   7.210  0.0630 -0.0506  0.0726
 3313TIP3    H131498   0.214   6.530   7.277  0.6689 -0.5299 -0.1210
 3313TIP3    H231499   0.203   6.676   7.239  0.1245 -0.2952  0.8887
 3314TIP3   OH231500   0.811   2.961   1.814 -1.1935  1.0129  0.6695
 3314TIP3    H131501   0.768   2.902   1.876  3.0724 -2.4826  0.8497
 3314TIP3    H231502   0.881   3.002   1.865 -0.8155  2.1349 -0.6862
 3315TIP3   OH231503   3.159   0.664   0.143  0.1239 -0.3314  0.4070
 3315TIP3    H131504   3.147   0.720   0.066 -1.4875 -0.5135  0.4859
 3315TIP3    H231505   3.245   0.689   0.178 -0.0756  1.3320 -0.1749
 3316TIP3   OH231506   2.647   4.775   0.927  0.5095 -0.4719  0.1858
 3316TIP3    H131507   2.552   4.787   0.932  0.5979 -0.2766  1.6853
 3316TIP3    H231508   2.681   4.864   0.917  0.5953 -0.4387  0.7710
 3317TIP3   OH231509   2.420   5.254   0.446  0.0331 -0.5579  0.3829
 3317TIP3    H131510   2.502   5.271   0.399  0.5005  0.6259  1.5658
 3317TIP3    H231511   2.359   5.320   0.412 -0.0648 -0.6403  0.3988
 3318TIP3   OH231512   2.673   3.877   1.793  0.6559  0.4260  0.2722
 3318TIP3    H131513   2.752   3.928   1.777  1.1303 -0.4881 -0.3005
 3318TIP3    H231514   2.689   3.832   1.876  0.1089  1.4178  0.9448
 3319TIP3   OH231515   3.646   4.522   6.715  0.0032 -0.3455  1.1607
 3319TIP3    H131516   3.582   4.549   6.650 -0.4271 -1.2153  1.2228
 3319TIP3    H231517   3.718   4.585   6.704 -0.4003 -0.0009  0.3899
 3320TIP3   OH231518   3.160   5.529   7.521 -0.0977  0.7671 -0.1450
 3320TIP3    H131519   3.172   5.527   7.426  0.9553  1.2812 -0.0434
 3320TIP3    H231520   3.120   5.445   7.542  1.8406 -0.3629 -0.7776
 3321TIP3   OH231521   0.469   6.916   6.665 -0.1274  0.1687  0.7797
 3321TIP3    H131522   0.506   6.834   6.632 -0.9781  0.3550 -0.7260
 3321TIP3    H231523   0.541   6.959   6.711  1.0114 -0.2874 -0.5393
 3322TIP3   OH231524   4.342   5.239   5.837 -0.0301  0.6822  0.3776
 3322TIP3    H131525   4.406   5.207   5.773 -0.2751  3.4959 -1.4689
 3322TIP3    H231526   4.316   5.161   5.886  2.4410 -1.0917 -0.9109
 3323TIP3   OH231527   3.168   4.911   2.080  0.4056  0.4036 -0.6973
 3323TIP3    H131528   3.072   4.906   2.084  0.4892 -1.2441 -0.0817
 3323TIP3    H231529   3.188   4.886   1.990  0.2445  1.4305 -1.0327
 3324TIP3   OH231530   2.972   5.190   8.285 -0.3725  0.3070  0.1275
 3324TIP3    H131531   2.898   5.131   8.266 -0.9876  1.1640 -0.2018
 3324TIP3    H231532   2.959   5.264   8.226  1.8692 -0.4093 -1.4073
 3325TIP3   OH231533   0.663   0.705   1.967  0.5536 -0.6312 -0.4592
 3325TIP3    H131534   0.663   0.799   1.952  1.9492 -0.6965 -1.0928
 3325TIP3    H231535   0.571   0.681   1.973  0.1852  0.7942 -0.0796
 3326TIP3   OH231536   4.756   5.401   1.362  0.3199  0.3799  0.3428
 3326TIP3    H131537   4.786   5.456   1.289 -1.5662  0.0441 -0.7503
 3326TIP3    H231538   4.714   5.326   1.320  2.0182 -1.4829  1.8133
 3327TIP3   OH231539   3.360   6.723   7.011  0.3009 -0.3811 -0.0677
 3327TIP3    H131540   3.407   6.794   6.967  0.0515 -0.2401 -0.1097
 3327TIP3    H231541   3.267   6.742   6.995  0.2558 -1.2715 -0.9426
 3328TIP3   OH231542   5.913   4.175   7.723 -0.5620  0.0565  0.3868
 3328TIP3    H131543   5.986   4.119   7.749  0.5742  1.0412 -0.5674
 3328TIP3    H231544   5.889   4.222   7.803  1.0879  1.0682  0.3317
 3329TIP3   OH231545   3.922   4.757   2.117  0.0598 -0.4787  0.5206
 3329TIP3    H131546   3.888   4.671   2.094  0.7898 -0.6939  0.2224
 3329TIP3    H231547   3.891   4.772   2.206 -0.7409 -0.6971  0.2817
 3330TIP3   OH231548   5.001   5.394   7.107  0.1517  0.1759 -0.0940
 3330TIP3    H131549   4.986   5.423   7.017  0.2116 -0.5819 -0.3510
 3330TIP3    H231550   5.056   5.463   7.145  2.2922 -0.6858 -1.3987
 3331TIP3   OH231551   6.439   3.134   6.677 -0.1447  0.3358  0.1152
 3331TIP3    H131552   6.461   3.115   6.768 -0.8405  1.0310  0.4361
 3331TIP3    H231553   6.437   3.048   6.635 -2.6984 -0.3579  1.4271
 3332TIP3   OH231554   2.764   0.659   2.051 -0.6948  0.3648  0.4249
 3332TIP3    H131555   2.848   0.621   2.076  0.4132  2.4599  0.0573
 3332TIP3    H231556   2.753   0.632   1.959 -0.9332 -0.7053  0.7463
 3333TIP3   OH231557   1.159   2.578   0.332 -0.0954  0.2170  0.5794
 3333TIP3    H131558   1.099   2.514   0.370  0.6195 -1.4785 -0.9592
 3333TIP3    H231559   1.138   2.660   0.376 -2.3818 -0.6487  1.2620
 3334TIP3   OH231560   6.252   1.267   6.982  0.0964 -1.0230 -0.4447
 3334TIP3    H131561   6.187   1.197   6.986 -0.9526 -0.2675 -2.8122
 3334TIP3    H231562   6.300   1.250   6.901  0.4196  0.4751 -0.5828
 3335TIP3   OH231563   5.381   6.720   8.157 -0.0678  0.1284 -0.0256
 3335TIP3    H131564   5.295   6.762   8.161 -0.2271 -0.0635 -1.2369
 3335TIP3    H231565   5.427   6.752   8.235 -1.1795  0.3473  0.5526
 3336TIP3   OH231566   0.883   5.683   2.112 -0.0074  0.1190 -0.2190
 3336TIP3    H131567   0.809   5.744   2.109 -0.8812 -0.6445  2.5798
 3336TIP3    H231568   0.944   5.723   2.175  0.9420 -0.3479 -0.8244
 3337TIP3   OH231569   0.727   1.606   0.619  0.3847  0.8022  0.7131
 3337TIP3    H131570   0.685   1.520   0.621  0.6119  0.4991 -2.4648
 3337TIP3    H231571   0.803   1.596   0.676  1.0097 -1.5173 -0.3887
 3338TIP3   OH231572   4.613   3.729   2.112 -0.4462  0.2859  0.2798
 3338TIP3    H131573   4.654   3.783   2.044 -0.5898 -0.6186 -0.5466
 3338TIP3    H231574   4.573   3.792   2.172 -0.4516  1.1037 -0.5598
 3339TIP3   OH231575   5.936   6.671   1.746 -0.0754 -0.0742 -0.3133
 3339TIP3    H131576   5.980   6.605   1.800 -0.2391  0.8406  0.9888
 3339TIP3    H231577   5.979   6.665   1.661  0.5433 -1.2205  0.0644
 3340TIP3   OH231578   0.351   5.726   2.392 -0.1827 -0.0244 -0.1530
 3340TIP3    H131579   0.269   5.710   2.438  0.8546 -0.7038  1.5497
 3340TIP3    H231580   0.365   5.820   2.401 -1.3136  0.3030 -1.4690
 3341TIP3   OH231581   0.587   6.726   1.382  0.8146  0.3233 -0.2080
 3341TIP3    H131582   0.498   6.761   1.382  1.1251  1.1519  0.2390
 3341TIP3    H231583   0.596   6.683   1.468  1.0391  0.7759 -0.0002
 3342TIP3   OH231584   3.295   5.975   8.515 -0.2758 -0.7422 -0.5256
 3342TIP3    H131585   3.278   5.881   8.524 -1.0395 -0.5474  0.1530
 3342TIP3    H231586   3.367   5.980   8.452 -1.8414 -1.6561 -2.4671
 3343TIP3   OH231587   2.327   0.510   2.033 -0.3765  0.2553 -0.4569
 3343TIP3    H131588   2.416   0.479   2.052 -0.3936 -0.6206 -1.6976
 3343TIP3    H231589   2.327   0.601   2.061  0.6113 -0.0082  0.4758
 3344TIP3   OH231590   1.022   0.026   8.271 -0.4901  0.3196 -0.1797
 3344TIP3    H131591   1.074  -0.034   8.324 -2.3119  0.5871  2.0708
 3344TIP3    H231592   0.940  -0.021   8.255 -0.5935  0.8846 -1.4065
 3345TIP3   OH231593   6.811   6.772   1.061  0.3356  0.1136  0.0827
 3345TIP3    H131594   6.740   6.750   1.121  0.4653 -0.2968  0.0942
 3345TIP3    H231595   6.770   6.777   0.975  0.2048  0.3781  0.1619
 3346TIP3   OH231596   6.422   0.171   7.862 -0.6787 -0.2643  0.0776
 3346TIP3    H131597   6.501   0.200   7.817 -1.1855  0.1025 -0.5946
 3346TIP3    H231598   6.356   0.165   7.793 -1.4192  0.1145  0.7408
 3347TIP3   OH231599   3.523   5.388   7.007 -0.1631  0.8522  0.0993
 3347TIP3    H131600   3.525   5.318   6.941 -2.1732  0.4872  0.3603
 3347TIP3    H231601   3.435   5.423   7.002 -1.0269 -0.3815  3.7547
 3348TIP3   OH231602   3.589   0.894   7.982  0.5682  0.0658 -0.3397
 3348TIP3    H131603   3.640   0.968   8.013 -1.6055  1.2934  0.5367
 3348TIP3    H231604   3.651   0.821   7.981  1.7805  0.8295  3.1505
 3349TIP3   OH231605   5.902   5.663   1.041 -0.0306 -0.0499  0.2220
 3349TIP3    H131606   5.950   5.698   0.966  0.7293 -0.4716  0.5056
 3349TIP3    H231607   5.969   5.632   1.101 -0.6225  0.4228  1.1603
 3350TIP3   OH231608   3.414   4.965   2.228  0.1061 -0.0077  0.5678
 3350TIP3    H131609   3.408   5.054   2.261  1.3149 -0.3566  1.8473
 3350TIP3    H231610   3.326   4.944   2.197 -0.3518  1.3741  0.8817
 3351TIP3   OH231611   6.071   6.815   1.279  1.0351 -0.3698  0.2795
 3351TIP3    H131612   6.118   6.843   1.357 -0.5314 -0.6652  1.3796
 3351TIP3    H231613   6.008   6.751   1.311  0.4570 -0.6062 -1.2596
 3352TIP3   OH231614   4.608   4.169   6.996  0.2699  0.0668  0.3116
 3352TIP3    H131615   4.630   4.082   6.962 -0.2557  0.9599 -2.6268
 3352TIP3    H231616   4.679   4.225   6.965  0.0331  0.8769  1.2142
 3353TIP3   OH231617   4.385   0.164   0.071  0.0214  0.6647 -0.2392
 3353TIP3    H131618   4.374   0.195  -0.018 -0.1211 -1.8992 -1.1968
 3353TIP3    H231619   4.313   0.101   0.084  1.8943 -1.4517  0.4831
 3354TIP3   OH231620   5.354   1.634   0.924 -0.1230 -0.3960 -0.5729
 3354TIP3    H131621   5.399   1.683   0.993  0.2012 -0.8935 -0.4293
 3354TIP3    H231622   5.422   1.611   0.861 -0.2561 -0.7349 -0.5973
 3355TIP3   OH231623   6.001   1.339   7.356  0.8639  0.2247 -0.0158
 3355TIP3    H131624   5.942   1.292   7.415  0.5683 -1.4195 -1.5225
 3355TIP3    H231625   6.075   1.279   7.343  1.2613  0.8481 -0.7410
 3356TIP3   OH231626   1.052   2.212   1.595  0.3257 -0.4642 -0.0629
 3356TIP3    H131627   0.991   2.255   1.535  0.7063  1.0163  0.5693
 3356TIP3    H231628   1.040   2.258   1.678  1.1157 -1.2637  0.5091
 3357TIP3   OH231629   6.083   6.456   1.870 -0.4740 -0.1991  0.0151
 3357TIP3    H131630   6.147   6.409   1.818 -0.3508  0.7825 -0.7616
 3357TIP3    H231631   6.102   6.430   1.961 -0.6721 -1.9017 -0.3990
 3358TIP3   OH231632   3.150   6.295   7.765  0.1337  0.9120  0.1543
 3358TIP3    H131633   3.242   6.270   7.758 -0.4512 -1.6358  0.6201
 3358TIP3    H231634   3.149   6.360   7.836  1.4050 -0.2996  1.3627
 3359TIP3   OH231635   2.530   2.358   6.572 -0.3437 -0.0240  0.9066
 3359TIP3    H131636   2.508   2.365   6.479 -1.1424  0.3325  1.1132
 3359TIP3    H231637   2.455   2.397   6.617  0.8106  1.4704  1.6395
 3360TIP3   OH231638   2.207   3.908   6.672 -0.1666 -0.2408  0.2784
 3360TIP3    H131639   2.119   3.892   6.638 -0.5882  0.5154  0.9758
 3360TIP3    H231640   2.256   3.942   6.596 -1.3049  2.1585  0.5138
 3361TIP3   OH231641   5.594   6.621   7.542  0.2168 -0.3779 -0.5879
 3361TIP3    H131642   5.641   6.654   7.466  0.0781 -1.0054 -0.9500
 3361TIP3    H231643   5.566   6.533   7.517  0.3876 -0.6897  0.2772
 3362TIP3   OH231644   6.201   0.588   7.806  0.1787  0.6488  0.3379
 3362TIP3    H131645   6.155   0.505   7.800 -0.7055  1.1173  0.4252
 3362TIP3    H231646   6.133   0.651   7.831  0.6709  1.5390 -0.5209
 3363TIP3   OH231647   3.770   5.361   8.069  0.0660  0.3324  0.3958
 3363TIP3    H131648   3.687   5.312   8.068  0.3809 -0.1999 -0.0358
 3363TIP3    H231649   3.824   5.316   8.133  1.1373 -1.2280 -1.5250
 3364TIP3   OH231650   3.937   6.023   2.396  0.3335 -0.0182 -0.7775
 3364TIP3    H131651   4.003   5.957   2.375 -1.3539 -1.7657 -0.8873
 3364TIP3    H231652   3.962   6.055   2.482  1.1412 -0.8856 -0.6724
 3365TIP3   OH231653   3.006   5.539   6.243 -0.2348 -0.7849  0.4601
 3365TIP3    H131654   3.078   5.602   6.231 -1.3537  0.3353 -0.5181
 3365TIP3    H231655   3.047   5.454   6.230  0.6768 -0.1088 -1.4484
 3366TIP3   OH231656   5.182   3.999   7.130 -0.0598  0.6803  0.1896
 3366TIP3    H131657   5.109   4.036   7.081 -0.3944  1.2574  1.0899
 3366TIP3    H231658   5.187   4.052   7.210  1.7061  1.0291 -0.1059
 3367TIP3   OH231659   5.239   2.517   6.437  0.2955 -0.5268 -0.0538
 3367TIP3    H131660   5.303   2.584   6.411 -0.4595 -0.0869 -0.8469
 3367TIP3    H231661   5.256   2.502   6.530 -0.6897  2.1191  0.6633
 3368TIP3   OH231662   2.401   5.658   0.238  0.2582 -0.2300  0.6562
 3368TIP3    H131663   2.361   5.624   0.158  0.5437 -0.5172  0.6343
 3368TIP3    H231664   2.413   5.581   0.294 -0.3583  0.0256  1.1677
 3369TIP3   OH231665   3.955   0.922   7.475  0.0745 -0.1932  0.0356
 3369TIP3    H131666   4.014   0.861   7.518 -0.9535 -1.9680 -0.9416
 3369TIP3    H231667   3.950   0.890   7.384  0.0688  1.8041 -0.7128
 3370TIP3   OH231668   6.089   2.828   7.059  0.3092  0.4982 -0.4423
 3370TIP3    H131669   6.064   2.804   6.969  1.2466 -1.8855 -0.1289
 3370TIP3    H231670   6.005   2.844   7.103 -0.3962 -1.5075 -0.9452
 3371TIP3   OH231671   2.110   1.456   8.142  0.5196 -0.0741 -0.0659
 3371TIP3    H131672   2.163   1.513   8.197 -0.0637  1.0461 -0.6131
 3371TIP3    H231673   2.134   1.367   8.167 -0.2432  0.3773  2.5104
 3372TIP3   OH231674   0.838   3.284   2.686 -0.1815 -0.1887 -0.8760
 3372TIP3    H131675   0.863   3.359   2.740 -0.2392  0.3913 -1.6407
 3372TIP3    H231676   0.762   3.314   2.636  0.3439 -0.4417 -1.8495
 3373TIP3   OH231677   2.751   1.848   1.524  0.0789  0.6858 -0.0911
 3373TIP3    H131678   2.734   1.890   1.440 -1.4907 -0.4882 -0.3898
 3373TIP3    H231679   2.701   1.767   1.521  2.8113 -1.1385  0.5620
 3374TIP3   OH231680   5.705   1.255   6.607  0.2488  0.2499  0.2092
 3374TIP3    H131681   5.762   1.219   6.539 -0.3228  0.4907 -0.4036
 3374TIP3    H231682   5.686   1.344   6.578  2.2212  1.3762  2.0571
 3375TIP3   OH231683   5.623   3.767   6.907 -0.1237  0.1999 -0.5921
 3375TIP3    H131684   5.609   3.734   6.818 -1.7021 -0.7965 -0.0192
 3375TIP3    H231685   5.535   3.778   6.943  0.4664  1.3887  0.5863
 3376TIP3   OH231686   2.260   6.087   1.683 -0.6011  0.2078  0.0066
 3376TIP3    H131687   2.268   6.079   1.588 -0.9921  2.8568 -0.3283
 3376TIP3    H231688   2.346   6.119   1.712 -0.9749  0.9754  0.3016
 3377TIP3   OH231689   3.596   1.350   7.014  0.4816 -0.5225  0.1872
 3377TIP3    H131690   3.652   1.280   7.049  0.8592 -0.0578  0.5185
 3377TIP3    H231691   3.546   1.381   7.089 -0.5039 -1.1762 -0.1733
 3378TIP3   OH231692   6.629   3.598   1.993  0.0000 -0.4756  0.5473
 3378TIP3    H131693   6.586   3.615   1.909  0.3712  1.2641  0.6734
 3378TIP3    H231694   6.574   3.642   2.058  0.4435 -0.6433  1.0399
 3379TIP3   OH231695   4.889   5.882   7.481  0.1387  0.5256  0.2833
 3379TIP3    H131696   4.890   5.937   7.403 -1.8070 -0.3032 -0.3937
 3379TIP3    H231697   4.929   5.800   7.453 -1.9592 -0.3466 -0.3926
 3380TIP3   OH231698   6.353   0.769   6.528  0.0280 -0.9366 -0.1890
 3380TIP3    H131699   6.417   0.717   6.479  2.3777 -0.4434  2.1286
 3380TIP3    H231700   6.350   0.853   6.481  2.5016 -0.3378  0.5747
 3381TIP3   OH231701   1.074   4.153   7.803  0.0155  0.1294 -1.1242
 3381TIP3    H131702   0.982   4.173   7.786 -0.0010  0.7692 -0.3382
 3381TIP3    H231703   1.114   4.237   7.823  1.0849  0.0598 -2.7698
 3382TIP3   OH231704   4.883   5.093   6.428  0.3814  0.1009 -0.0612
 3382TIP3    H131705   4.883   5.055   6.340  0.8477  1.0937 -0.5126
 3382TIP3    H231706   4.825   5.169   6.421 -0.7842 -0.6709  0.8979
 3383TIP3   OH231707   4.108   0.731   7.571  0.1651 -0.0774 -0.0666
 3383TIP3    H131708   4.041   0.673   7.607 -0.5839  0.1177 -1.1149
 3383TIP3    H231709   4.184   0.718   7.629 -0.0853 -1.8459 -0.0769
 3384TIP3   OH231710   1.440   1.449   1.834 -0.1943  0.1660  0.0404
 3384TIP3    H131711   1.355   1.407   1.841  0.8108 -1.6428  2.4157
 3384TIP3    H231712   1.438   1.520   1.899 -0.2148  0.7812 -0.6161
 3385TIP3   OH231713   0.781   1.595   7.015  1.1124 -0.1563 -0.1761
 3385TIP3    H131714   0.763   1.681   7.052  1.0047 -0.2159 -0.0902
 3385TIP3    H231715   0.699   1.569   6.973  1.1352 -0.2322 -0.1735
 3386TIP3   OH231716   5.592   6.500   1.222  0.2840 -0.5591  0.2074
 3386TIP3    H131717   5.573   6.441   1.150  1.1639  0.6875 -1.1111
 3386TIP3    H231718   5.615   6.583   1.179 -0.3262  0.5657  1.9585
 3387TIP3   OH231719   4.357   5.165   0.723  0.3757 -0.0629 -0.0940
 3387TIP3    H131720   4.363   5.071   0.706 -0.2965  0.0006 -0.7257
 3387TIP3    H231721   4.426   5.203   0.669  1.1552 -0.2501  0.7478
 3388TIP3   OH231722   0.333   1.265   7.013 -0.0996 -0.2887 -0.3588
 3388TIP3    H131723   0.259   1.211   6.984  0.4433 -1.7216  0.7688
 3388TIP3    H231724   0.368   1.218   7.088  0.8701  1.3021  0.2321
 3389TIP3   OH231725   1.826   0.386   2.539  0.4157 -0.0077  0.3759
 3389TIP3    H131726   1.744   0.360   2.497 -1.2446  2.6521  1.7234
 3389TIP3    H231727   1.855   0.307   2.585 -2.9694 -0.3978  2.1932
 3390TIP3   OH231728   2.323   1.587   6.940  0.0295  0.5333 -0.4443
 3390TIP3    H131729   2.323   1.498   6.974  0.3113 -0.8651 -3.7407
 3390TIP3    H231730   2.234   1.618   6.952 -0.4120 -0.6966 -0.4314
 3391TIP3   OH231731   3.314   5.308   1.740 -0.0646  0.5448 -0.3269
 3391TIP3    H131732   3.360   5.275   1.662  0.1511  0.8721 -0.3382
 3391TIP3    H231733   3.380   5.358   1.788  0.6104 -1.9430  1.5326
 3392TIP3   OH231734   1.789   2.469   0.674  0.4531 -0.0909  0.2515
 3392TIP3    H131735   1.791   2.541   0.738 -1.3150 -0.3172  0.6218
 3392TIP3    H231736   1.872   2.476   0.627  1.1081  1.0617  1.5112
 3393TIP3   OH231737   2.320   2.635   7.067 -0.5860  0.0498  0.2194
 3393TIP3    H131738   2.405   2.624   7.110 -0.5672  0.6607  0.3370
 3393TIP3    H231739   2.256   2.618   7.137 -0.5560  0.6960  0.4057
 3394TIP3   OH231740   6.136   0.337   0.738  0.0503  0.0448  0.1995
 3394TIP3    H131741   6.210   0.325   0.797  1.0278  1.2641 -0.7129
 3394TIP3    H231742   6.064   0.362   0.795  0.5177 -0.4829  1.0427
 3395TIP3   OH231743   4.858   1.182   1.268 -0.0221 -0.0990 -0.1659
 3395TIP3    H131744   4.893   1.149   1.351  0.8013  1.6694  0.2465
 3395TIP3    H231745   4.805   1.258   1.292  0.9081  0.9567 -1.2904
 3396TIP3   OH231746   3.287   3.728   8.335  0.3832  0.4244  0.6351
 3396TIP3    H131747   3.263   3.693   8.250  0.3309 -1.4187  1.3632
 3396TIP3    H231748   3.243   3.813   8.339 -0.1564  0.2489 -0.8895
 3397TIP3   OH231749   0.748   6.099   2.256 -0.4773 -0.3433  0.2210
 3397TIP3    H131750   0.809   6.171   2.248 -1.5441  0.5789  0.1164
 3397TIP3    H231751   0.690   6.108   2.180  1.5114 -3.4626 -1.9332
 3398TIP3   OH231752   3.528   4.087   7.080 -0.1767 -0.1402  0.2956
 3398TIP3    H131753   3.453   4.120   7.031 -0.2630 -0.4386  0.2239
 3398TIP3    H231754   3.523   4.132   7.165 -0.4117 -0.1288  0.2768
 3399TIP3   OH231755   6.412   6.243   7.566 -0.2527  0.2137 -0.3717
 3399TIP3    H131756   6.400   6.249   7.661 -0.0220 -0.8125 -0.2675
 3399TIP3    H231757   6.362   6.165   7.541 -0.8026  0.8118 -1.1913
 3400TIP3   OH231758   0.741   2.421   8.345 -0.6214 -0.4053  0.4750
 3400TIP3    H131759   0.658   2.457   8.376 -2.0498 -0.4352 -2.8458
 3400TIP3    H231760   0.730   2.326   8.351 -0.5666 -0.3982  0.6725
 3401TIP3   OH231761   0.293   1.159   2.464  0.4393 -0.1861  0.7728
 3401TIP3    H131762   0.226   1.091   2.461  1.1708 -1.0148  2.0510
 3401TIP3    H231763   0.259   1.225   2.525 -0.4187  0.8077 -0.7213
 3402TIP3   OH231764   0.748   3.350   2.992  0.4927  0.3140  0.5130
 3402TIP3    H131765   0.822   3.363   2.933 -0.6957 -0.2872 -1.2192
 3402TIP3    H231766   0.742   3.432   3.042  0.7349  1.4474 -1.2157
 3403TIP3   OH231767   4.904   4.195   0.002 -0.1147 -0.2800 -0.3916
 3403TIP3    H131768   4.972   4.191   0.069 -0.3785 -2.0671 -0.1902
 3403TIP3    H231769   4.912   4.283  -0.034  2.0032 -0.2817 -0.0667
 3404TIP3   OH231770   3.719   1.898   1.310 -0.7842 -0.3393  0.3593
 3404TIP3    H131771   3.646   1.890   1.249 -1.0202 -0.1947  0.6173
 3404TIP3    H231772   3.724   1.992   1.329  1.2816  0.0876 -1.8421
 3405TIP3   OH231773   1.407   0.038   1.536 -0.0137  0.4949  0.2275
 3405TIP3    H131774   1.452   0.056   1.454  1.1488  0.6864  0.8884
 3405TIP3    H231775   1.396   0.124   1.577 -1.3336  0.4938 -0.0882
 3406TIP3   OH231776   5.258   1.341   0.084  0.4978 -0.3810 -0.5721
 3406TIP3    H131777   5.272   1.309   0.173 -1.6326 -1.7761 -0.6719
 3406TIP3    H231778   5.346   1.348   0.047  1.6890  2.6097  2.3515
 3407TIP3   OH231779   6.440   1.493   8.355  0.3083 -0.1223  0.1206
 3407TIP3    H131780   6.422   1.433   8.282 -0.0194 -2.0639  1.7082
 3407TIP3    H231781   6.357   1.539   8.369 -0.4761 -1.6926  0.9207
 3408TIP3   OH231782   3.152   3.512   0.489 -0.1190 -0.2931  0.6572
 3408TIP3    H131783   3.225   3.522   0.550 -0.3496  1.5046  0.7134
 3408TIP3    H231784   3.096   3.446   0.528 -0.7042  1.4182  2.9230
 3409TIP3   OH231785   2.528   6.407   1.907 -0.1589  0.5514 -0.0919
 3409TIP3    H131786   2.507   6.488   1.954  1.7576  0.2522  1.3857
 3409TIP3    H231787   2.603   6.430   1.852  1.3659 -0.5231  1.4493
 3410TIP3   OH231788   1.640   0.760   7.129 -0.3012  0.2053 -0.0341
 3410TIP3    H131789   1.707   0.694   7.142  0.1959  0.3776 -1.5472
 3410TIP3    H231790   1.607   0.779   7.217  0.4810 -1.0631  0.5521
 3411TIP3   OH231791   5.014   5.696   6.623 -0.0353 -0.0517  0.0587
 3411TIP3    H131792   4.945   5.645   6.581  0.0240  0.0957 -0.2167
 3411TIP3    H231793   5.023   5.656   6.710 -0.8194  0.2551  0.2883
 3412TIP3   OH231794   2.921   0.693   2.402 -0.2414  0.0250 -0.1644
 3412TIP3    H131795   2.860   0.622   2.383 -0.8529  0.7724 -1.0424
 3412TIP3    H231796   2.971   0.705   2.321  0.4937 -0.0036  0.2694
 3413TIP3   OH231797   2.915   4.963   1.594 -0.4357  0.1136  0.1074
 3413TIP3    H131798   2.983   4.927   1.651 -1.3975 -0.1121  1.1646
 3413TIP3    H231799   2.881   5.038   1.643 -2.4565 -1.0982  0.6929
 3414TIP3   OH231800   4.689   5.959   0.347 -0.1890 -0.2887  0.4120
 3414TIP3    H131801   4.779   5.931   0.364 -0.1766 -0.3023  0.3199
 3414TIP3    H231802   4.686   5.975   0.253 -0.3841 -0.6584  0.3537
 3415TIP3   OH231803   2.705   1.628   8.504 -0.3085  0.8362  0.1554
 3415TIP3    H131804   2.761   1.606   8.430 -2.0367  0.4336 -1.0643
 3415TIP3    H231805   2.737   1.572   8.575  1.7290  1.6278 -0.0594
 3416TIP3   OH231806   2.964   3.527   7.300 -0.0094  0.8396  0.1735
 3416TIP3    H131807   3.000   3.439   7.288 -0.4142  0.6903  0.0613
 3416TIP3    H231808   3.041   3.583   7.309  0.2796  0.6339 -0.8339
 3417TIP3   OH231809   0.595   6.078   8.454 -0.1513 -0.0718  0.3690
 3417TIP3    H131810   0.580   6.127   8.373 -0.5407  1.3838  1.2875
 3417TIP3    H231811   0.636   6.141   8.513 -0.6503 -0.8561  1.5941
 3418TIP3   OH231812   4.013   5.108   0.858 -0.7266 -0.0407 -0.5562
 3418TIP3    H131813   3.927   5.097   0.817 -0.9133  1.8970 -0.7596
 3418TIP3    H231814   4.030   5.202   0.853  1.2956 -0.3578 -0.2705
 3419TIP3   OH231815   4.091   0.980   6.806  0.0149  0.4737 -0.0438
 3419TIP3    H131816   4.003   1.016   6.821  0.7987  2.2202  0.5539
 3419TIP3    H231817   4.085   0.940   6.719 -1.7878 -0.8599  0.6228
 3420TIP3   OH231818   1.817   1.244   6.581 -0.6720 -0.1324  0.5493
 3420TIP3    H131819   1.736   1.290   6.604  0.4137  1.5463  1.2013
 3420TIP3    H231820   1.877   1.314   6.553  0.5959 -1.3179  0.1837
 3421TIP3   OH231821   0.533   1.016   1.523 -0.9674  0.2149  0.3832
 3421TIP3    H131822   0.509   1.044   1.611 -1.0513 -0.6028  0.6311
 3421TIP3    H231823   0.598   1.081   1.494  0.1501 -0.2972  1.6073
 3422TIP3   OH231824   6.007   5.833   1.606  0.0779  0.0218  0.2582
 3422TIP3    H131825   6.088   5.834   1.656  0.5166 -0.6619 -0.4052
 3422TIP3    H231826   5.984   5.740   1.599 -0.5171  0.1763  0.0563
 3423TIP3   OH231827   3.892   6.142   7.724  0.2653 -0.3390  0.1349
 3423TIP3    H131828   3.864   6.228   7.754  0.0383 -1.2976  2.9955
 3423TIP3    H231829   3.986   6.151   7.709  0.0930  0.6021 -0.4356
 3424TIP3   OH231830   1.506   4.613   1.214  0.3122 -0.0992  0.4749
 3424TIP3    H131831   1.523   4.532   1.166 -2.7913 -0.3240 -0.4722
 3424TIP3    H231832   1.447   4.663   1.157  0.1932  1.7331  2.0835
 3425TIP3   OH231833   3.452   5.414   7.500  0.0424  0.1737  0.0868
 3425TIP3    H131834   3.502   5.371   7.570 -0.9984 -1.0074  0.1331
 3425TIP3    H231835   3.375   5.450   7.544 -0.0428  0.4340 -0.2714
 3426TIP3   OH231836   5.966   2.720   7.695  0.9337  0.5438 -1.0131
 3426TIP3    H131837   5.922   2.782   7.637 -0.0301  1.8903  1.0636
 3426TIP3    H231838   6.041   2.768   7.730  1.2961 -0.1290 -0.8464
 3427TIP3   OH231839   0.905   1.841   0.570  0.0573 -0.1296 -0.0072
 3427TIP3    H131840   0.879   1.924   0.608 -0.7034 -0.1544 -0.4588
 3427TIP3    H231841   0.823   1.794   0.556  0.4342 -0.7038 -0.3205
 3428TIP3   OH231842   6.020   0.386   7.923  0.2324 -0.1638 -0.0985
 3428TIP3    H131843   6.052   0.308   7.968  0.5973 -0.3262 -0.6226
 3428TIP3    H231844   6.018   0.454   7.990  0.9996 -0.3326  0.1092
 3429TIP3   OH231845   5.425   2.240   1.607  0.8272  0.1242 -0.3048
 3429TIP3    H131846   5.365   2.183   1.559  0.1636  2.1867 -2.0663
 3429TIP3    H231847   5.437   2.196   1.691 -0.9286 -1.7591 -0.9530
 3430TIP3   OH231848   5.518   2.932   8.079  0.0253  0.2979 -0.0903
 3430TIP3    H131849   5.497   2.866   8.013 -2.4875 -1.0988  1.9202
 3430TIP3    H231850   5.613   2.940   8.076  0.3264 -2.5548 -1.2537
 3431TIP3   OH231851   3.103   4.462   7.058  0.2266 -0.0282  0.3951
 3431TIP3    H131852   3.074   4.551   7.080 -0.4771 -0.2283  0.2810
 3431TIP3    H231853   3.029   4.423   7.012  1.0042 -0.2399 -0.7009
 3432TIP3   OH231854   0.364   2.122   0.813 -0.4942  0.0043  0.2681
 3432TIP3    H131855   0.285   2.156   0.771  0.1615  0.0291 -0.9865
 3432TIP3    H231856   0.432   2.129   0.746 -0.2262 -3.4307 -0.0006
 3433TIP3   OH231857   1.146   4.353   8.478 -0.5325 -0.4638 -0.2396
 3433TIP3    H131858   1.122   4.275   8.528  0.9723 -0.7297  0.1340
 3433TIP3    H231859   1.238   4.338   8.454 -0.0800  1.3575  0.1879
 3434TIP3   OH231860   0.058   2.480   7.625 -0.0870  0.2351 -0.2328
 3434TIP3    H131861   0.004   2.558   7.637  0.8090  0.7348  0.7168
 3434TIP3    H231862  -0.002   2.407   7.639 -1.1178  0.7009 -1.9224
 3435TIP3   OH231863   4.079   0.552   0.153  0.0326 -0.0358  0.1824
 3435TIP3    H131864   4.154   0.608   0.171 -0.0570  0.3272 -0.5220
 3435TIP3    H231865   4.040   0.589   0.073 -0.2079 -0.9189 -0.1223
 3436TIP3   OH231866   6.678   6.081   7.524 -0.3256 -0.5947  0.2807
 3436TIP3    H131867   6.750   6.143   7.511 -0.2872 -0.6383  0.2862
 3436TIP3    H231868   6.611   6.132   7.569 -0.3295 -0.5318  0.2050
 3437TIP3   OH231869   5.274   0.519   2.457  0.0830 -0.6958  0.1292
 3437TIP3    H131870   5.339   0.454   2.482 -1.6070 -2.9599 -1.0139
 3437TIP3    H231871   5.226   0.537   2.537  0.5569 -0.8274  0.4488
 3438TIP3   OH231872   1.787   5.760   0.245  0.1752 -0.0580 -0.6586
 3438TIP3    H131873   1.799   5.694   0.313 -2.4024  0.4332  0.3628
 3438TIP3    H231874   1.857   5.824   0.261 -1.5022  1.1290  2.9130
 3439TIP3   OH231875   0.048   3.951   1.257 -0.7191 -0.2762 -0.5006
 3439TIP3    H131876  -0.023   3.888   1.243 -3.2101  2.4098 -0.7432
 3439TIP3    H231877   0.068   3.983   1.169 -1.0441  0.8318 -0.1817
 3440TIP3   OH231878   4.809   1.285   1.957  0.2794 -0.2200  0.3343
 3440TIP3    H131879   4.730   1.338   1.963 -0.1266 -0.7825  0.1283
 3440TIP3    H231880   4.810   1.254   1.866  0.1997 -1.0279  0.6047
 3441TIP3   OH231881   5.479   0.959   0.614 -0.1328 -0.6609 -0.3022
 3441TIP3    H131882   5.550   0.953   0.550 -0.0515  0.0924 -0.2903
 3441TIP3    H231883   5.419   0.888   0.590  0.3803 -0.9988 -0.6059
 3442TIP3   OH231884   3.111   1.811   8.240  0.0305  0.4958 -0.0900
 3442TIP3    H131885   3.051   1.811   8.314  0.2605  2.5023  0.1532
 3442TIP3    H231886   3.055   1.803   8.163 -0.5712  2.2238  0.1443
 3443TIP3   OH231887   2.798   1.313   6.588 -0.0694  0.1781  0.0349
 3443TIP3    H131888   2.711   1.349   6.607  0.1066  1.0263 -0.6828
 3443TIP3    H231889   2.781   1.224   6.558 -0.8417  0.7520 -1.3531
 3444TIP3   OH231890   6.681   2.418   1.120  0.0848  0.3829  0.4458
 3444TIP3    H131891   6.720   2.436   1.034 -1.5804  1.0810 -0.2207
 3444TIP3    H231892   6.667   2.504   1.159  0.4538  0.0847  1.2532
 3445TIP3   OH231893   0.023   4.753   1.363  0.7762  0.8520 -0.1283
 3445TIP3    H131894   0.038   4.773   1.456 -0.8743  0.0122  0.3460
 3445TIP3    H231895  -0.050   4.808   1.338 -1.0648 -1.3638  0.0533
 3446TIP3   OH231896   6.602   0.551   8.201  0.0196  0.0601 -0.1022
 3446TIP3    H131897   6.537   0.494   8.161 -0.4345  0.0056  0.6791
 3446TIP3    H231898   6.600   0.631   8.149 -1.1316  0.2972  0.2791
 3447TIP3   OH231899   2.141   3.473   7.130  0.2318 -0.1731 -1.0931
 3447TIP3    H131900   2.125   3.506   7.218  0.7459  0.6362 -1.2906
 3447TIP3    H231901   2.234   3.452   7.129  0.3594  0.3870 -1.6162
 3448TIP3   OH231902   2.927   0.467   2.195  0.3584 -0.5983  0.1430
 3448TIP3    H131903   2.848   0.421   2.164 -0.6815  1.2847 -0.1748
 3448TIP3    H231904   2.947   0.426   2.279 -2.2025  0.1568  1.2364
 3449TIP3   OH231905   2.782   5.011   0.846  0.2538 -0.3783  0.0359
 3449TIP3    H131906   2.782   5.051   0.759  0.6033  0.7500  0.5357
 3449TIP3    H231907   2.871   5.022   0.878  0.1074 -0.7178  0.5745
 3450TIP3   OH231908   0.164   6.088   6.531 -0.2030  0.5060  0.5357
 3450TIP3    H131909   0.254   6.118   6.517 -0.1685  0.0275 -0.3994
 3450TIP3    H231910   0.110   6.155   6.489 -0.2080  0.1364 -0.0623
 3451TIP3   OH231911   1.865   1.660   0.002 -0.2873  0.5184  0.0496
 3451TIP3    H131912   1.915   1.674   0.082 -0.6590 -0.6392  0.5079
 3451TIP3    H231913   1.775   1.641   0.032 -0.5343  0.5406 -0.6509
 3452TIP3   OH231914   5.408   1.206   6.660 -0.1657  0.1957  0.8002
 3452TIP3    H131915   5.325   1.162   6.680  1.9136 -4.2766  0.7750
 3452TIP3    H231916   5.441   1.233   6.745 -0.9140  0.5987  0.9764
 3453TIP3   OH231917   4.430   4.048   7.835  0.2086 -0.8499 -0.3040
 3453TIP3    H131918   4.445   4.000   7.753  1.5737 -0.7133 -0.1475
 3453TIP3    H231919   4.514   4.086   7.856 -0.9127  2.1368 -0.7222
 3454TIP3   OH231920   4.509   5.475   7.590 -0.2363 -0.2334  0.1331
 3454TIP3    H131921   4.497   5.514   7.503 -0.8845 -0.2622  0.2077
 3454TIP3    H231922   4.602   5.452   7.593  0.1803  1.3030  0.0747
 3455TIP3   OH231923   1.010   0.632   1.512  0.2313  0.8874  0.6484
 3455TIP3    H131924   0.943   0.700   1.501 -1.4164 -0.3698  2.1421
 3455TIP3    H231925   1.061   0.660   1.588  0.2013  0.9441  0.6475
 3456TIP3   OH231926   0.477   2.258   7.391  0.7515  0.1522 -0.3254
 3456TIP3    H131927   0.396   2.305   7.376 -0.8929 -2.2533  0.4425
 3456TIP3    H231928   0.505   2.284   7.479 -0.5036 -0.7543  0.3659
 3457TIP3   OH231929   2.196   5.929   8.257  0.1631 -0.5325 -0.1558
 3457TIP3    H131930   2.163   5.934   8.167 -1.4327  0.0476  0.4386
 3457TIP3    H231931   2.252   6.006   8.266 -1.3754  0.6112 -0.0148
 3458TIP3   OH231932   6.615   1.393   0.489  0.1488  0.0743 -0.6013
 3458TIP3    H131933   6.574   1.424   0.569  0.0796  3.7296 -1.8439
 3458TIP3    H231934   6.692   1.344   0.518 -1.7707 -1.7992  1.6526
 3459TIP3   OH231935   5.705   0.494   6.922  0.1758  0.7448 -0.3989
 3459TIP3    H131936   5.665   0.579   6.904 -1.2016  0.2140  0.0765
 3459TIP3    H231937   5.689   0.442   6.844 -2.2605 -0.2477  0.6755
 3460TIP3   OH231938   0.661   2.485   0.094 -0.2100 -0.4346 -0.2814
 3460TIP3    H131939   0.739   2.429   0.096 -0.2023 -0.4889 -1.4588
 3460TIP3    H231940   0.588   2.425   0.111  0.0731 -0.1064  2.7290
 3461TIP3   OH231941   0.534   5.144   2.902  0.1398  0.0890  0.0351
 3461TIP3    H131942   0.521   5.094   2.822 -1.8384 -0.7007  0.8035
 3461TIP3    H231943   0.612   5.105   2.942  1.1680  0.5098 -1.4519
 3462TIP3   OH231944   0.883   0.590   8.321  0.7038 -0.1912  0.2349
 3462TIP3    H131945   0.890   0.660   8.256  0.5290 -0.3331  0.0610
 3462TIP3    H231946   0.853   0.514   8.271 -1.9609  0.3416  0.8678
 3463TIP3   OH231947   0.605   4.787   1.618  0.3713 -0.9894  0.1976
 3463TIP3    H131948   0.670   4.756   1.556  0.3798 -0.2340 -0.1794
 3463TIP3    H231949   0.634   4.876   1.641 -1.0970 -0.2001 -0.8334
 3464TIP3   OH231950   3.604   4.259   1.465  0.2064 -1.0340 -0.0178
 3464TIP3    H131951   3.547   4.270   1.389  0.9436 -0.7334 -0.5417
 3464TIP3    H231952   3.661   4.185   1.443  0.6633 -0.7212  0.0796
 3465TIP3   OH231953   3.449   6.043   0.179 -0.0936  0.4142 -0.2002
 3465TIP3    H131954   3.388   6.028   0.107  1.7487 -1.3002 -1.5145
 3465TIP3    H231955   3.472   5.956   0.210 -0.0784  1.0958  1.8473
 3466TIP3   OH231956   2.267   4.906   8.239  0.5005  0.1900 -0.1288
 3466TIP3    H131957   2.197   4.880   8.178  0.9224 -0.1084 -0.4899
 3466TIP3    H231958   2.283   4.828   8.292  1.7090 -0.2952 -1.1549
 3467TIP3   OH231959   1.485   2.603   0.459  0.0288 -0.2564 -0.1735
 3467TIP3    H131960   1.504   2.516   0.496 -1.5930 -0.9917 -0.9813
 3467TIP3    H231961   1.444   2.584   0.375 -0.9350  1.3038 -0.0740
 3468TIP3   OH231962   3.933   5.842   7.492 -0.4293  0.0893  0.0032
 3468TIP3    H131963   3.906   5.763   7.445 -1.4604  0.1553  0.4486
 3468TIP3    H231964   3.995   5.810   7.557 -3.1734 -0.9664  2.3447
 3469TIP3   OH231965   3.815   1.052   0.573  1.1370  0.1065  0.3315
 3469TIP3    H131966   3.809   1.020   0.483  0.8505  1.6181 -0.2258
 3469TIP3    H231967   3.841   0.976   0.624  0.4037 -1.0139 -0.8886
 3470TIP3   OH231968   5.701   6.839   1.488 -0.0014  0.2629 -0.3478
 3470TIP3    H131969   5.791   6.869   1.485  0.2408 -0.4957 -1.3875
 3470TIP3    H231970   5.707   6.744   1.478 -0.8223 -0.0279  1.4757
 3471TIP3   OH231971   6.188   5.590   7.076 -0.3340  0.6573 -0.1298
 3471TIP3    H131972   6.263   5.610   7.131 -1.3568  1.9355  0.8789
 3471TIP3    H231973   6.225   5.546   6.999  1.1334 -1.2744  1.5752
 3472TIP3   OH231974   0.146   2.402   1.226 -0.4971  0.5162 -0.1181
 3472TIP3    H131975   0.109   2.428   1.310  0.7459 -1.0714  0.9734
 3472TIP3    H231976   0.240   2.392   1.242 -0.4561 -1.4782 -1.2076
 3473TIP3   OH231977   0.305   1.550   7.009 -0.1590 -0.2133  0.1868
 3473TIP3    H131978   0.259   1.576   7.089  0.0567  1.4525 -0.1983
 3473TIP3    H231979   0.308   1.454   7.014 -2.7637 -0.3619  0.7233
 3474TIP3   OH231980   0.990   0.776   0.792 -0.6428  0.0383 -0.6679
 3474TIP3    H131981   0.929   0.710   0.825 -2.0639  1.0524 -1.2073
 3474TIP3    H231982   1.070   0.761   0.843 -1.4146 -1.1341  0.2591
 3475TIP3   OH231983   6.028   3.926   0.613 -0.1728 -0.4765  0.2788
 3475TIP3    H131984   5.996   3.982   0.542  0.3491 -0.1950  0.2610
 3475TIP3    H231985   6.075   3.856   0.568 -0.0762 -0.4474  0.3341
 3476TIP3   OH231986   6.388   0.781   7.815 -0.4489 -0.2225 -0.0021
 3476TIP3    H131987   6.408   0.794   7.722  1.6425 -3.0474 -0.0851
 3476TIP3    H231988   6.340   0.699   7.818 -0.8074  0.0185  1.4003
 3477TIP3   OH231989   5.607   2.105   6.757  0.1942 -0.1873 -0.4767
 3477TIP3    H131990   5.680   2.076   6.811  1.0256  0.3961 -1.2536
 3477TIP3    H231991   5.530   2.062   6.794  0.6547  0.5499  1.4380
 3478TIP3   OH231992   3.725   6.255   7.342 -0.2844  0.4485 -0.4207
 3478TIP3    H131993   3.745   6.176   7.392 -0.6990  0.3524 -0.4085
 3478TIP3    H231994   3.802   6.267   7.287  0.4152  0.8631  0.6210
 3479TIP3   OH231995   6.731   4.698   0.033  0.1588  0.6244 -0.2166
 3479TIP3    H131996   6.804   4.639   0.053  1.1609  1.8889  0.0216
 3479TIP3    H231997   6.668   4.683   0.103  0.3645 -0.2002 -0.2000
 3480TIP3   OH231998   3.923   3.698   1.438 -0.2116  0.3238  0.4125
 3480TIP3    H131999   4.009   3.657   1.446 -0.1852  0.5710  1.6274
 3480TIP3    H232000   3.922   3.766   1.506 -1.4576  0.1465  0.6072
 3481TIP3   OH232001   6.566   2.200   0.570  0.4064  0.5121 -0.1485
 3481TIP3    H132002   6.557   2.265   0.500  3.0087 -0.3669 -1.4216
 3481TIP3    H232003   6.568   2.253   0.651  1.2936  1.9455 -1.0512
 3482TIP3   OH232004   2.310   5.926   7.757  0.2712 -0.1993  0.1987
 3482TIP3    H132005   2.318   5.924   7.662  1.1943  1.2689  0.2099
 3482TIP3    H232006   2.375   5.990   7.785 -1.7560  1.3432  1.6307
 3483TIP3   OH232007   5.654   5.139   2.277 -0.3508 -0.1542 -0.5018
 3483TIP3    H132008   5.642   5.076   2.206 -0.1844 -0.0376 -0.6358
 3483TIP3    H232009   5.637   5.090   2.357  0.1481 -0.4662 -0.5853
 3484TIP3   OH232010   2.408   5.272   7.467 -0.2976  0.0334  0.2206
 3484TIP3    H132011   2.338   5.334   7.486 -0.7579 -0.3938 -0.0629
 3484TIP3    H232012   2.393   5.198   7.526  0.2421  0.1795  0.5499
 3485TIP3   OH232013   5.236   0.877   8.231 -0.0578  0.0640  0.0452
 3485TIP3    H132014   5.318   0.910   8.269  0.0081  0.8746 -0.7558
 3485TIP3    H232015   5.218   0.796   8.279  2.0291 -0.9826 -0.8247
 3486TIP3   OH232016   2.189   3.060   7.945 -0.1567  0.0771  0.2866
 3486TIP3    H132017   2.145   3.047   7.861  0.1725  1.6790 -0.1646
 3486TIP3    H232018   2.158   2.987   8.000  2.1052 -2.9851 -2.1302
 3487TIP3   OH232019   3.871   6.451   1.559 -0.2543 -0.0368  0.6225
 3487TIP3    H132020   3.917   6.369   1.575 -1.3232 -0.8918 -0.4720
 3487TIP3    H232021   3.901   6.479   1.473 -0.3058  0.4384  0.7555
 3488TIP3   OH232022   4.379   6.737   7.643  0.0477 -0.2391 -0.3636
 3488TIP3    H132023   4.390   6.832   7.651  0.4902 -0.1219 -1.9081
 3488TIP3    H232024   4.287   6.726   7.621  0.4778  0.0823 -2.5911
 3489TIP3   OH232025   6.255   4.039   0.758 -0.0345  0.8014 -0.0583
 3489TIP3    H132026   6.292   3.962   0.801  1.4550  1.6864  0.3043
 3489TIP3    H232027   6.171   4.009   0.723  0.3009 -0.8511  0.4789
 3490TIP3   OH232028   2.130   0.814   1.318  0.2605  0.0907  0.1373
 3490TIP3    H132029   2.115   0.761   1.240  1.0447  0.3087 -0.1757
 3490TIP3    H232030   2.058   0.878   1.319  0.1985  0.0294 -0.3565
 3491TIP3   OH232031   6.143   3.777   2.527  0.2565 -0.3316 -0.1627
 3491TIP3    H132032   6.128   3.835   2.602 -0.6810 -1.0865  0.2556
 3491TIP3    H232033   6.056   3.761   2.492  0.7066  0.1898 -1.5772
 3492TIP3   OH232034   6.396   0.445   1.375  0.0002 -0.1569 -0.0196
 3492TIP3    H132035   6.454   0.368   1.373  0.4032  0.1428 -1.9840
 3492TIP3    H232036   6.310   0.411   1.351  0.2298  0.0116 -1.1390
 3493TIP3   OH232037   6.723   3.678   8.263 -0.3685  0.2588 -0.1731
 3493TIP3    H132038   6.817   3.673   8.245 -0.2589 -0.2958  0.4894
 3493TIP3    H232039   6.713   3.631   8.346 -1.4769 -1.2818 -1.1156
 3494TIP3   OH232040   3.337   1.035   8.512  0.5782  0.1930 -0.0562
 3494TIP3    H132041   3.357   1.060   8.602  0.0243  0.1514  0.0867
 3494TIP3    H232042   3.397   0.964   8.493 -0.9288 -1.5101  1.1637
 3495TIP3   OH232043   0.205   5.270   0.067 -0.1307  0.0654  0.1504
 3495TIP3    H132044   0.162   5.186   0.054  1.1020 -0.8032  1.4711
 3495TIP3    H232045   0.172   5.302   0.151 -0.2893  0.7326 -0.1546
 3496TIP3   OH232046   4.790   5.460   8.330  0.4405 -0.2492  0.3468
 3496TIP3    H132047   4.882   5.447   8.352  0.4532 -1.2605 -0.2325
 3496TIP3    H232048   4.782   5.425   8.241 -0.3689  0.4047  0.1541
 3497TIP3   OH232049   1.171   0.945   8.519 -0.0808  0.3633  0.4338
 3497TIP3    H132050   1.188   0.861   8.476 -0.0156  0.4193  0.3497
 3497TIP3    H232051   1.100   0.927   8.580  0.4315  0.0740  0.9523
 3498TIP3   OH232052   4.100   5.671   0.325 -0.3471 -0.0785 -0.3058
 3498TIP3    H132053   4.051   5.728   0.265  0.1459  1.8189  1.0001
 3498TIP3    H232054   4.186   5.713   0.332  0.4353 -1.6368 -0.1562
 3499TIP3   OH232055   2.140   3.456   1.241  0.2773  0.0218 -0.1054
 3499TIP3    H132056   2.208   3.440   1.306 -0.3860 -0.0717  0.5803
 3499TIP3    H232057   2.157   3.393   1.171  0.2878 -0.6844  0.5311
 3500TIP3   OH232058   2.415   0.829   0.541 -0.3012 -0.1499  0.1327
 3500TIP3    H132059   2.353   0.851   0.471 -0.7808  1.0655  0.9053
 3500TIP3    H232060   2.484   0.780   0.497 -0.9490 -0.0500 -1.0579
 3501TIP3   OH232061   4.780   3.998   6.856 -0.0031  0.3127  0.0914
 3501TIP3    H132062   4.826   4.080   6.841  0.1155 -0.0794 -1.8415
 3501TIP3    H232063   4.820   3.962   6.935 -0.7086  2.5386  1.5660
 3502TIP3   OH232064   6.850   5.921   1.017 -0.4804  0.8160 -0.5988
 3502TIP3    H132065   6.905   5.933   0.939  1.8848  0.8652  0.9633
 3502TIP3    H232066   6.801   5.842   1.000  0.2181  0.6513 -2.0225
 3503TIP3   OH232067   6.401   1.114   0.837  0.0461  0.7715 -0.6419
 3503TIP3    H132068   6.316   1.152   0.860 -1.4166 -1.8421 -1.3062
 3503TIP3    H232069   6.380   1.043   0.776  2.3911 -1.7529  1.2096
 3504TIP3   OH232070   1.194   5.599   0.749  0.4923 -0.4315  0.1292
 3504TIP3    H132071   1.182   5.694   0.747  3.7775  0.1044 -0.8850
 3504TIP3    H232072   1.145   5.567   0.673  1.0561  0.7598 -0.7691
 3505TIP3   OH232073   4.063   0.863   1.834 -0.1773  0.2908 -0.7894
 3505TIP3    H132074   4.023   0.945   1.806  0.4891  0.8219 -0.2412
 3505TIP3    H232075   4.065   0.809   1.756 -1.7587  0.3200 -0.8842
 3506TIP3   OH232076   4.565   2.613   1.318  0.6477  0.8101  0.2435
 3506TIP3    H132077   4.538   2.684   1.260 -0.7642  0.3409  0.3028
 3506TIP3    H232078   4.651   2.586   1.283  1.2775  2.5927  0.2935
 3507TIP3   OH232079   0.468   4.027   0.703  0.0378  0.0362 -0.1506
 3507TIP3    H132080   0.520   3.969   0.758  0.8023 -0.2303 -1.1315
 3507TIP3    H232081   0.532   4.082   0.659 -0.5405  0.0856 -0.9511
 3508TIP3   OH232082   4.830   2.873   0.736  0.0945 -0.2576 -0.0101
 3508TIP3    H132083   4.787   2.814   0.798 -0.9890 -0.8395 -1.2506
 3508TIP3    H232084   4.921   2.844   0.734 -0.2778 -1.4721 -0.0904
 3509TIP3   OH232085   0.543   6.031   0.319  0.3236 -0.2664 -0.0869
 3509TIP3    H132086   0.602   6.043   0.394  0.4000 -1.8686  0.1468
 3509TIP3    H232087   0.520   6.120   0.292  2.7543  0.4402 -0.1119
 3510TIP3   OH232088   3.850   6.556   0.346  0.1327 -0.4257 -0.0290
 3510TIP3    H132089   3.892   6.477   0.311  2.0721 -0.0343  1.2368
 3510TIP3    H232090   3.774   6.570   0.289  0.3135 -2.6050 -0.9112
 3511TIP3   OH232091   6.263   6.366   7.295 -0.6464 -0.0404 -0.1813
 3511TIP3    H132092   6.203   6.398   7.228 -0.0523  1.8245  0.0992
 3511TIP3    H232093   6.225   6.399   7.377  0.1156  0.1112  0.1123
 3512TIP3   OH232094   3.047   4.851   1.017 -0.1175  0.6533 -0.0815
 3512TIP3    H132095   3.078   4.765   1.046 -0.1127  0.5940 -0.2634
 3512TIP3    H232096   3.010   4.890   1.096  0.9028  0.9413  0.2654
 3513TIP3   OH232097   3.515   0.865   8.422 -0.2531  0.0767 -0.3701
 3513TIP3    H132098   3.545   0.784   8.463  0.7685  0.5921 -0.0643
 3513TIP3    H232099   3.464   0.836   8.346 -0.3201 -0.8532  0.0131
 3514TIP3   OH232100   4.199   2.997   8.506 -0.0522  0.5605  0.1312
 3514TIP3    H132101   4.272   2.989   8.445  1.1189  0.8680  1.4156
 3514TIP3    H232102   4.215   2.930   8.573 -1.0479  0.5159  0.3505
 3515TIP3   OH232103   1.488   4.203   7.239  0.0607 -0.2612  0.1975
 3515TIP3    H132104   1.473   4.259   7.163 -0.0546 -2.7384 -1.7358
 3515TIP3    H232105   1.445   4.249   7.311 -0.3926  1.8941 -1.3301
 3516TIP3   OH232106   5.788   5.639   2.120 -0.5610 -0.0031  0.2910
 3516TIP3    H132107   5.823   5.655   2.208 -0.1279  0.3610  0.0591
 3516TIP3    H232108   5.801   5.545   2.106 -0.1493  0.0315  0.4151
 3517TIP3   OH232109   6.895   6.490   2.098 -1.0150  0.3241  0.0905
 3517TIP3    H132110   6.961   6.485   2.168 -0.1009 -0.0509 -0.7622
 3517TIP3    H232111   6.897   6.404   2.058 -0.0960  1.0959 -1.6328
 3518TIP3   OH232112   6.451   2.959   1.514  0.8407  0.4757 -0.3145
 3518TIP3    H132113   6.514   2.888   1.510 -0.1311 -0.4299 -0.1437
 3518TIP3    H232114   6.477   3.011   1.590  0.0966 -1.1767  1.1382
 3519TIP3   OH232115   0.497   5.720   0.881  0.2621 -0.0620  0.1228
 3519TIP3    H132116   0.536   5.651   0.934  0.6010 -1.1202 -1.4471
 3519TIP3    H232117   0.439   5.674   0.820  0.1162  1.0774 -0.6374
 3520TIP3   OH232118   4.033   1.789   7.151  0.3619  0.8612  0.1114
 3520TIP3    H132119   3.972   1.858   7.127  0.7634  1.3690  0.5406
 3520TIP3    H232120   4.039   1.795   7.246 -0.9899 -0.9318  0.3712
 3521TIP3   OH232121   4.875   3.581   6.508 -0.2292 -0.2819 -0.3872
 3521TIP3    H132122   4.874   3.670   6.545 -1.5110  0.3470 -1.8237
 3521TIP3    H232123   4.928   3.589   6.429  1.6202 -1.3763  0.6780
 3522TIP3   OH232124   4.799   3.174   8.301  0.0014 -0.4464 -0.3719
 3522TIP3    H132125   4.777   3.138   8.387 -1.6999  0.3567 -0.4244
 3522TIP3    H232126   4.830   3.099   8.251 -1.1148 -1.3628  0.2629
 3523TIP3   OH232127   1.591   5.823   2.463 -0.6624 -0.2107  0.3037
 3523TIP3    H132128   1.563   5.872   2.386 -0.2160 -0.9230 -0.3285
 3523TIP3    H232129   1.684   5.843   2.472 -0.5139 -0.7864  0.1389
 3524TIP3   OH232130   1.395   4.954   2.095  0.1428  0.4464  0.0626
 3524TIP3    H132131   1.384   4.881   2.034 -2.8014 -0.1208  1.0868
 3524TIP3    H232132   1.400   4.913   2.181  1.7782  1.3402  0.4182
 3525TIP3   OH232133   1.683   2.405   2.358  0.1399 -0.4918  0.0542
 3525TIP3    H132134   1.671   2.428   2.266 -2.2058 -1.2625  0.0957
 3525TIP3    H232135   1.637   2.473   2.406  2.3289  0.5522  0.7812
 3526TIP3   OH232136   1.076   4.124   1.287 -0.0581  0.6172  0.4967
 3526TIP3    H132137   1.092   4.034   1.318  0.0078  0.2876 -0.4564
 3526TIP3    H232138   1.161   4.155   1.257  0.1057  1.3487  1.6486
 3527TIP3   OH232139   6.808   2.964   8.282 -0.6283  0.7427 -0.0038
 3527TIP3    H132140   6.887   2.952   8.335 -0.2301  0.9037 -0.5375
 3527TIP3    H232141   6.809   3.058   8.260  0.9836  0.1989 -2.8943
 3528TIP3   OH232142   3.343   0.608   7.155 -0.1695  0.1925  0.4758
 3528TIP3    H132143   3.328   0.593   7.249 -0.7740 -1.4170  0.1595
 3528TIP3    H232144   3.379   0.696   7.150  0.6099  0.0200  2.2997
 3529TIP3   OH232145   0.464   0.435   6.703 -0.1180  0.3316  0.0342
 3529TIP3    H132146   0.400   0.447   6.632 -0.7282  1.2120  0.7134
 3529TIP3    H232147   0.547   0.418   6.658 -0.8259 -0.9391 -0.8664
 3530TIP3   OH232148   2.286   6.485   8.384 -0.4772  0.5185  0.1477
 3530TIP3    H132149   2.286   6.571   8.342 -0.0314 -0.2087 -1.4048
 3530TIP3    H232150   2.372   6.479   8.427 -0.4399  0.7677  0.1068
 3531TIP3   OH232151   6.466   5.591   1.599 -0.4655  0.1613 -0.0945
 3531TIP3    H132152   6.406   5.568   1.528  1.7709 -0.4483 -1.9058
 3531TIP3    H232153   6.505   5.507   1.626  1.3202  0.7618 -0.6697
 3532TIP3   OH232154   1.536   0.853   1.299 -0.0080  0.6944 -0.0256
 3532TIP3    H132155   1.462   0.877   1.244 -0.9778 -1.0352  0.4761
 3532TIP3    H232156   1.500   0.848   1.387  0.6195 -0.5066  0.1797
 3533TIP3   OH232157   1.493   6.492   1.445  0.0655  0.0670  0.0231
 3533TIP3    H132158   1.400   6.503   1.466 -0.2042 -1.9205  0.0946
 3533TIP3    H232159   1.498   6.513   1.351  0.3109  3.8311  0.7339
 3534TIP3   OH232160   5.044   5.139   7.201  0.5364 -0.3653 -0.3562
 3534TIP3    H132161   5.108   5.177   7.261 -1.1039  1.4987  0.3391
 3534TIP3    H232162   5.028   5.206   7.135 -1.2486 -0.4049 -0.0370
 3535TIP3   OH232163   5.855   6.738   0.038 -0.5343 -0.1277  0.0354
 3535TIP3    H132164   5.919   6.667   0.030 -0.3599  0.1775 -1.5920
 3535TIP3    H232165   5.812   6.742  -0.047  0.2736  2.4676 -0.3370
 3536TIP3   OH232166   2.689   6.646   7.660  0.7561 -0.4871  0.3164
 3536TIP3    H132167   2.687   6.600   7.576 -1.0539 -1.3675  0.7938
 3536TIP3    H232168   2.634   6.723   7.648  0.5920 -0.5489  0.6465
 3537TIP3   OH232169   3.785   5.930   0.353 -0.9111  0.5796 -0.2212
 3537TIP3    H132170   3.719   5.997   0.371 -0.5945  0.7435  0.3492
 3537TIP3    H232171   3.784   5.873   0.429 -1.7971 -0.5975 -1.0832
 3538TIP3   OH232172   1.879   3.380   7.286  0.1641 -0.5748 -0.1648
 3538TIP3    H132173   1.839   3.293   7.295 -1.5148  0.2536  0.9764
 3538TIP3    H232174   1.958   3.376   7.340  0.1922 -1.4381 -0.2596
 3539TIP3   OH232175   3.788   3.913   7.383  0.8571  0.2398  0.0426
 3539TIP3    H132176   3.765   3.829   7.421  1.7042 -0.5191 -1.0466
 3539TIP3    H232177   3.876   3.900   7.347  0.6995  1.3596 -0.8201
 3540TIP3   OH232178   3.639   0.189   7.881 -0.0855 -0.1263  0.3584
 3540TIP3    H132179   3.689   0.252   7.828 -0.4006  2.0068  2.4347
 3540TIP3    H232180   3.614   0.121   7.819  0.5914  1.5979 -1.9608
 3541TIP3   OH232181   5.763   1.081   0.857 -0.3511 -0.3128  0.4385
 3541TIP3    H132182   5.848   1.040   0.842  0.1871  0.1566  2.0050
 3541TIP3    H232183   5.776   1.173   0.834 -0.1891 -0.0834  1.3779
 3542TIP3   OH232184   5.299   1.112   7.172 -0.0977  0.0764 -0.0378
 3542TIP3    H132185   5.390   1.132   7.149  0.1832 -1.2135 -0.1329
 3542TIP3    H232186   5.303   1.080   7.262 -0.4265 -0.1387 -0.0984
 3543TIP3   OH232187   3.369   4.246   7.899  0.7315  0.2198 -0.5958
 3543TIP3    H132188   3.413   4.322   7.937  0.9371 -0.2620  0.1516
 3543TIP3    H232189   3.436   4.205   7.844  1.6800 -1.2125  1.4974
 3544TIP3   OH232190   3.528   1.181   7.818  0.1838  0.0067 -0.0762
 3544TIP3    H132191   3.458   1.206   7.879  1.1119 -0.3660  1.1808
 3544TIP3    H232192   3.609   1.192   7.868  0.8472 -2.6214 -0.3955
 3545TIP3   OH232193   1.566   5.487   7.817 -0.0583  0.1268 -0.0112
 3545TIP3    H132194   1.661   5.494   7.818 -0.1543  2.0841  0.5582
 3545TIP3    H232195   1.545   5.434   7.894  0.5100  1.8597  1.4192
 3546TIP3   OH232196   6.526   6.203   1.326  0.4832 -0.5290 -0.1629
 3546TIP3    H132197   6.477   6.194   1.245 -0.9547 -1.9835  0.8131
 3546TIP3    H232198   6.477   6.267   1.378  0.3321 -1.0124  0.3005
 3547TIP3   OH232199   4.484   5.118   5.442  0.0145  0.1160  0.3254
 3547TIP3    H132200   4.571   5.151   5.420 -0.6702  0.7361 -1.7200
 3547TIP3    H232201   4.495   5.075   5.527  2.2717  0.2555  0.1664
 3548TIP3   OH232202   1.087   0.369   6.665  0.1972 -0.0291  0.0622
 3548TIP3    H132203   1.161   0.313   6.642  1.3120  1.9252 -1.4401
 3548TIP3    H232204   1.018   0.308   6.691  2.0533 -1.9544  0.7316
 3549TIP3   OH232205   1.899   5.568   2.530  0.0659 -0.2203  0.7650
 3549TIP3    H132206   1.966   5.546   2.594  0.8682  1.1186  0.4215
 3549TIP3    H232207   1.867   5.654   2.558  0.5074  0.4416 -0.6681
 3550TIP3   OH232208   4.053   0.336   7.033 -0.0690 -0.4103  0.1661
 3550TIP3    H132209   4.149   0.332   7.035  0.0734  0.3823  4.4824
 3550TIP3    H232210   4.025   0.245   7.046  0.2172 -0.4002  0.9328
 3551TIP3   OH232211   5.428   3.845   0.949 -0.1180  0.4437 -0.5014
 3551TIP3    H132212   5.461   3.756   0.958 -0.0379  0.5169 -0.0478
 3551TIP3    H232213   5.336   3.839   0.974 -0.2302  0.4053 -0.9127
 3552TIP3   OH232214   2.745   6.715   2.064 -0.3411  0.8904 -0.4441
 3552TIP3    H132215   2.766   6.682   2.151 -2.1657 -0.3343 -0.4282
 3552TIP3    H232216   2.767   6.809   2.069 -1.0806  1.0130  1.5560
 3553TIP3   OH232217   1.168   6.618   1.250  0.2842  0.3974  0.1725
 3553TIP3    H132218   1.141   6.530   1.224 -1.2945  0.8160  0.2965
 3553TIP3    H232219   1.255   6.628   1.211 -0.5304 -0.2941 -1.9938
 3554TIP3   OH232220   2.721   2.477   7.797  0.1871 -0.2548  0.1498
 3554TIP3    H132221   2.707   2.464   7.703  1.4107 -0.9485  0.0458
 3554TIP3    H232222   2.802   2.430   7.816  0.5970  0.8857  1.3258
 3555TIP3   OH232223   5.824   2.759   6.349  0.0012 -0.4348 -0.4895
 3555TIP3    H132224   5.906   2.803   6.328  0.2670 -0.0692  1.2058
 3555TIP3    H232225   5.833   2.672   6.309  0.6904  0.0300 -1.3715
 3556TIP3   OH232226   6.377   3.696   8.341  0.1221 -0.8786 -0.4034
 3556TIP3    H132227   6.376   3.773   8.283  1.2780 -0.1636  0.4768
 3556TIP3    H232228   6.464   3.657   8.327  0.3474 -0.8025  0.6800
 3557TIP3   OH232229   6.179   0.223   6.505  0.0456 -0.1141  0.3672
 3557TIP3    H132230   6.148   0.307   6.469 -0.5102 -0.6938 -0.5504
 3557TIP3    H232231   6.274   0.233   6.510 -0.0667  0.8091  0.9026
 3558TIP3   OH232232   1.923   1.244   7.875 -0.1035  0.5433  0.3163
 3558TIP3    H132233   1.942   1.309   7.807 -1.9440  0.9052  0.0818
 3558TIP3    H232234   1.943   1.289   7.957 -0.0553  0.9202  0.1012
 3559TIP3   OH232235   3.513   3.725   8.532 -0.2080  0.5708  0.3395
 3559TIP3    H132236   3.462   3.692   8.606 -0.9032 -1.9235 -1.1508
 3559TIP3    H232237   3.449   3.737   8.462  0.7584  0.7991 -0.5235
 3560TIP3   OH232238   0.080   4.609   7.245  0.0162  0.1694  0.0702
 3560TIP3    H132239   0.082   4.621   7.340 -0.5392 -1.7264  0.3740
 3560TIP3    H232240  -0.010   4.581   7.226  0.2085  0.1992 -0.9635
 3561TIP3   OH232241   5.398   6.002   0.827  0.4707  0.2470  0.2282
 3561TIP3    H132242   5.402   5.952   0.909 -1.1678  1.3429  1.0309
 3561TIP3    H232243   5.324   6.061   0.839  0.1078  0.3606 -2.1126
 3562TIP3   OH232244   4.985   1.330   7.840 -0.1556 -0.3224  0.2797
 3562TIP3    H132245   5.017   1.294   7.758  2.4406 -1.2422  1.5776
 3562TIP3    H232246   4.962   1.253   7.892  0.0782  0.1476  1.0956
 3563TIP3   OH232247   3.627   2.152   7.865 -0.1928 -0.0197 -0.5179
 3563TIP3    H132248   3.674   2.074   7.835  1.3869  0.4943  0.4990
 3563TIP3    H232249   3.690   2.199   7.919 -2.6019 -0.5675  3.1276
 3564TIP3   OH232250   6.863   4.294   7.811 -0.1633 -0.2308  0.0181
 3564TIP3    H132251   6.904   4.262   7.891  0.5561  0.3895 -0.0835
 3564TIP3    H232252   6.887   4.387   7.807 -0.6077 -0.1327 -0.6568
 3565TIP3   OH232253   5.662   4.233   0.580  0.4312 -1.0226 -0.5780
 3565TIP3    H132254   5.667   4.137   0.583  0.6053 -1.1049 -2.2777
 3565TIP3    H232255   5.580   4.251   0.533  0.4506 -0.3425 -0.3554
 3566TIP3   OH232256   4.524   1.392   1.384 -0.2633 -0.0367  0.0403
 3566TIP3    H132257   4.464   1.347   1.325 -0.1683 -0.4378  0.2475
 3566TIP3    H232258   4.589   1.433   1.327 -1.1242  1.0076 -0.2385
 3567TIP3   OH232259   4.970   6.676   1.371  0.5462  0.3491 -0.1255
 3567TIP3    H132260   4.988   6.593   1.416  0.2327 -0.2721 -1.1193
 3567TIP3    H232261   5.056   6.717   1.360  0.6799  0.2655  0.5557
 3568TIP3   OH232262   5.465   1.194   1.508 -0.3970  0.0496 -0.5027
 3568TIP3    H132263   5.501   1.142   1.436 -0.3484  0.9691 -1.1693
 3568TIP3    H232264   5.480   1.141   1.586  0.8416 -0.3436 -0.9864
 3569TIP3   OH232265   3.321   1.595   8.525 -0.1388  0.2069  0.4184
 3569TIP3    H132266   3.309   1.623   8.435  1.7654 -3.2524 -1.1167
 3569TIP3    H232267   3.240   1.548   8.547 -0.4735  0.7734  0.4012
 3570TIP3   OH232268   4.528   2.822   8.057  0.0631 -0.1150 -0.4357
 3570TIP3    H132269   4.540   2.771   8.137  0.3715  0.1169 -0.3328
 3570TIP3    H232270   4.460   2.775   8.008 -0.2152 -0.1927  0.0183
 3571TIP3   OH232271   1.969   0.850   0.991 -0.1487  0.8089  0.1819
 3571TIP3    H132272   1.907   0.891   1.052 -1.4325 -0.6719 -0.0585
 3571TIP3    H232273   1.958   0.898   0.909 -0.7536  0.7755  0.2374
 3572TIP3   OH232274   2.293   0.480   7.737 -0.1423  0.2690 -0.4209
 3572TIP3    H132275   2.358   0.518   7.796 -0.0845 -0.5203  0.0382
 3572TIP3    H232276   2.210   0.521   7.762  0.0689  0.7808 -0.5590
 3573TIP3   OH232277   4.672   1.564   7.333 -0.0094 -0.4312 -0.0989
 3573TIP3    H132278   4.668   1.654   7.299 -2.1628  0.6934  2.6537
 3573TIP3    H232279   4.756   1.560   7.380 -1.7853  2.0024  3.7870
 3574TIP3   OH232280   6.154   3.723   0.493 -0.0283 -0.1643  0.0952
 3574TIP3    H132281   6.130   3.680   0.411  2.2487 -0.4505 -0.5066
 3574TIP3    H232282   6.143   3.654   0.559 -0.6283 -0.3297 -0.1704
 3575TIP3   OH232283   4.175   2.327   7.842 -0.0646 -0.0045 -0.0098
 3575TIP3    H132284   4.140   2.238   7.844 -2.9834  1.0250 -0.7093
 3575TIP3    H232285   4.230   2.333   7.921 -1.7150 -1.7098  1.3544
 3576TIP3   OH232286   0.146   4.325   0.218  0.2086  0.0373 -0.5378
 3576TIP3    H132287   0.136   4.354   0.309 -0.2265 -1.1544 -0.1902
 3576TIP3    H232288   0.210   4.254   0.222  0.0227 -0.1718 -1.1315
 3577TIP3   OH232289   4.033   5.033   7.417 -0.1991  1.1771 -0.5497
 3577TIP3    H132290   4.041   5.089   7.340 -2.1579  0.9921 -0.9254
 3577TIP3    H232291   4.036   5.094   7.491  5.5229  1.1570 -0.2890
 3578TIP3   OH232292   4.530   4.992   2.451 -0.2420  0.0020  0.0586
 3578TIP3    H132293   4.461   4.970   2.388 -0.5659  1.0341  0.0440
 3578TIP3    H232294   4.611   4.984   2.401 -0.5330  1.4404 -0.7062
 3579TIP3   OH232295   1.908   2.749   7.190  0.1832  0.4252  0.1176
 3579TIP3    H132296   1.879   2.758   7.281 -0.9491  0.9455 -0.2732
 3579TIP3    H232297   1.880   2.830   7.147 -0.7724 -0.4896 -1.0601
 3580TIP3   OH232298   6.487   3.750   7.424 -0.6794  0.1006  0.5830
 3580TIP3    H132299   6.503   3.657   7.404 -1.4082  0.1688 -0.3682
 3580TIP3    H232300   6.469   3.790   7.340  2.3917  1.7292  0.5757
 3581TIP3   OH232301   6.258   4.834   0.686 -0.3390  0.0614  0.0756
 3581TIP3    H132302   6.206   4.753   0.683 -0.6634  0.2413  0.7131
 3581TIP3    H232303   6.348   4.803   0.691 -0.3686 -0.2531 -0.9404
 3582TIP3   OH232304   3.195   5.492   7.266  0.1557 -0.0038  0.2347
 3582TIP3    H132305   3.227   5.403   7.280 -1.6088 -0.6503  0.4804
 3582TIP3    H232306   3.211   5.509   7.173  0.3273 -0.6637  0.1410
 3583TIP3   OH232307   1.222   4.782   8.319  0.0657  0.5393 -0.1628
 3583TIP3    H132308   1.276   4.839   8.374 -0.2181  0.5033  0.1550
 3583TIP3    H232309   1.133   4.795   8.351  0.1012 -0.7955  0.5490
 3584TIP3   OH232310   6.396   6.735   0.764 -0.3627 -0.1855 -0.0852
 3584TIP3    H132311   6.412   6.687   0.845 -0.8557 -1.2112 -0.5714
 3584TIP3    H232312   6.360   6.670   0.704  1.0358  0.2970 -1.5010
 3585TIP3   OH232313   2.320   6.142   1.392  0.2308  0.0671 -0.0648
 3585TIP3    H132314   2.271   6.204   1.337  0.1806 -0.6090 -0.7957
 3585TIP3    H232315   2.396   6.118   1.339  0.8978  0.4239  0.7100
 3586TIP3   OH232316   4.326   6.536   7.211 -0.7015  0.4647  0.2192
 3586TIP3    H132317   4.394   6.491   7.261  0.2156  1.1784 -0.3482
 3586TIP3    H232318   4.276   6.466   7.170  0.1719 -0.0638  0.0358
 3587TIP3   OH232319   6.677   2.832   0.916 -0.5540  0.5717 -0.1025
 3587TIP3    H132320   6.665   2.855   1.008 -0.1451 -0.5025  0.2331
 3587TIP3    H232321   6.698   2.915   0.873 -2.2214  1.3644  0.4856
 3588TIP3   OH232322   1.258   4.842   0.505  0.9201 -0.4569  0.5611
 3588TIP3    H132323   1.231   4.908   0.442  0.6033 -1.5743 -0.5269
 3588TIP3    H232324   1.178   4.822   0.555  0.7501 -0.7480  0.1823
 3589TIP3   OH232325   0.676   6.677   7.171  0.2649  0.8552 -0.1429
 3589TIP3    H132326   0.634   6.667   7.256  0.7761 -2.0264 -0.1323
 3589TIP3    H232327   0.769   6.686   7.191  0.8064 -2.9134 -0.3345
 3590TIP3   OH232328   5.758   0.256   8.522 -0.5879 -0.8961 -0.1389
 3590TIP3    H132329   5.777   0.339   8.478 -0.3332  0.0947  1.7325
 3590TIP3    H232330   5.683   0.276   8.579 -0.8526 -2.0965 -0.0514
 3591TIP3   OH232331   5.670   2.219   7.069 -0.3280  0.3111  0.0144
 3591TIP3    H132332   5.590   2.212   7.121 -1.0737 -1.4920 -1.2884
 3591TIP3    H232333   5.739   2.184   7.125 -0.7808  0.1140  0.4510
 3592TIP3   OH232334   4.548   3.252   7.807 -0.1249 -0.2659  0.0427
 3592TIP3    H132335   4.605   3.287   7.738 -1.2853 -0.2950 -0.9516
 3592TIP3    H232336   4.561   3.157   7.804 -1.2365 -0.4044 -1.1340
 3593TIP3   OH232337   4.682   0.814   1.092  0.3899 -0.1536  0.0618
 3593TIP3    H132338   4.664   0.758   1.017  0.4769  1.7121 -1.4156
 3593TIP3    H232339   4.596   0.841   1.124  0.3620  0.2815 -0.3625
 3594TIP3   OH232340   4.964   4.499   1.479  0.6048 -0.1682 -0.2245
 3594TIP3    H132341   4.876   4.530   1.500  1.1779  1.0102  0.5779
 3594TIP3    H232342   4.990   4.551   1.402  1.3572  1.0389  0.7926
 3595TIP3   OH232343   2.021   0.110   1.465  0.2191  0.2902 -0.3800
 3595TIP3    H132344   1.982   0.194   1.490 -1.7983 -0.8815  0.7623
 3595TIP3    H232345   2.103   0.133   1.422 -0.4235  2.8431 -0.4120
 3596TIP3   OH232346   3.849   2.888   8.164 -0.1360 -0.1719 -0.3339
 3596TIP3    H132347   3.931   2.886   8.213 -0.6256  2.2016  0.7543
 3596TIP3    H232348   3.861   2.959   8.101 -1.3910  0.3312 -0.0371
 3597TIP3   OH232349   3.358   6.055   2.166  0.2653  0.0019 -0.4223
 3597TIP3    H132350   3.420   6.127   2.182  0.1121  0.0775 -0.1733
 3597TIP3    H232351   3.319   6.076   2.081 -0.1133  0.4566 -0.1424
 3598TIP3   OH232352   0.207   6.764   1.429 -0.3213  0.8583  0.7831
 3598TIP3    H132353   0.251   6.685   1.460  1.4748  2.3695  2.3387
 3598TIP3    H232354   0.218   6.761   1.334 -2.5821 -1.9671  0.4792
 3599TIP3   OH232355   3.742   0.658   0.745  0.1937  0.3671  0.2177
 3599TIP3    H132356   3.774   0.698   0.826  0.8114  0.0169  0.1550
 3599TIP3    H232357   3.667   0.711   0.720  1.3457  1.8978 -0.1824
 3600TIP3   OH232358   2.612   4.277   2.261 -0.2235  0.8479  0.1946
 3600TIP3    H132359   2.648   4.345   2.317  1.6951 -0.0553  0.1299
 3600TIP3    H232360   2.521   4.267   2.291 -0.7156  3.7053 -0.1242
 3601TIP3   OH232361   0.966   3.672   7.474  0.2559  0.1728  0.0412
 3601TIP3    H132362   0.946   3.675   7.381  0.6519 -0.1768 -0.0594
 3601TIP3    H232363   0.900   3.728   7.515 -2.0603 -2.3057 -0.0584
 3602TIP3   OH232364   2.391   2.963   6.542  0.1993  0.5965  0.1342
 3602TIP3    H132365   2.363   3.049   6.512 -1.3892 -0.4671 -1.7068
 3602TIP3    H232366   2.482   2.955   6.514 -0.6824  0.3569 -3.0397
 3603TIP3   OH232367   6.717   1.962   7.701  0.2837 -0.0816  0.6393
 3603TIP3    H132368   6.693   2.010   7.622  0.2333  0.9008  1.2435
 3603TIP3    H232369   6.802   1.923   7.680  0.9618  1.3730  0.5955
 3604TIP3   OH232370   2.316   0.823   0.180  0.8426 -0.1897  0.4051
 3604TIP3    H132371   2.354   0.889   0.122 -1.6300 -1.9155 -3.6461
 3604TIP3    H232372   2.374   0.748   0.172 -0.4299 -1.0676 -1.6290
 3605TIP3   OH232373   4.035   3.141   0.953  0.6630  0.5729 -0.3208
 3605TIP3    H132374   4.104   3.081   0.981  1.9789  1.4196 -1.6255
 3605TIP3    H232375   4.012   3.190   1.032  1.9648  0.6592  0.0275
 3606TIP3   OH232376   3.702   4.594   7.535 -0.2552 -0.0474 -0.5724
 3606TIP3    H132377   3.621   4.623   7.491 -0.6146  0.6178  0.4797
 3606TIP3    H232378   3.760   4.670   7.529 -0.3988  0.1375  0.2976
 3607TIP3   OH232379   0.726   6.032   0.527  0.0643 -0.2002 -0.0905
 3607TIP3    H132380   0.752   5.960   0.584  1.0993  0.5250  0.3899
 3607TIP3    H232381   0.746   6.111   0.578 -0.3242  0.4402 -0.9044
 3608TIP3   OH232382   0.691   6.759   7.690  0.1117 -0.0178  0.5878
 3608TIP3    H132383   0.716   6.681   7.641  5.5131  3.0535 -2.5589
 3608TIP3    H232384   0.632   6.806   7.632 -0.5185 -0.2444  1.0325
 3609TIP3   OH232385   5.489   2.938   6.356  0.8832  0.5660  0.3629
 3609TIP3    H132386   5.409   2.934   6.302  0.5840  2.8877  0.5256
 3609TIP3    H232387   5.524   2.849   6.354 -1.2396 -0.3155 -0.4338
 3610TIP3   OH232388   3.366   2.739   0.952  0.5900 -0.0379  0.5333
 3610TIP3    H132389   3.322   2.765   1.033 -1.9509  4.6026 -1.9046
 3610TIP3    H232390   3.301   2.688   0.905  1.6770 -1.8185  0.8725
 3611TIP3   OH232391   6.836   0.013   7.695  0.3269 -0.0463  0.0628
 3611TIP3    H132392   6.832   0.108   7.705 -1.2798 -0.0457 -0.3642
 3611TIP3    H232393   6.751  -0.018   7.727  0.1542 -1.1770 -1.3924
 3612TIP3   OH232394   0.856   2.844   7.421  0.3774  0.7904  0.3070
 3612TIP3    H132395   0.873   2.755   7.452  0.3996  0.8903  0.5845
 3612TIP3    H232396   0.763   2.844   7.398 -0.1618  1.2909  2.3342
 3613TIP3   OH232397   5.428   1.322   7.403  0.5871  0.4816  0.2806
 3613TIP3    H132398   5.445   1.361   7.488 -1.3110  0.7049  0.6007
 3613TIP3    H232399   5.357   1.374   7.366  0.9402  0.0007 -1.1795
 3614TIP3   OH232400   0.854   6.005   8.249 -0.0377 -0.7065 -0.1351
 3614TIP3    H132401   0.842   6.053   8.167  1.8100  0.8727  0.4482
 3614TIP3    H232402   0.937   5.960   8.239 -1.5209 -3.6324 -0.5011
 3615TIP3   OH232403   5.112   4.550   1.715 -0.4156  0.4192 -0.1949
 3615TIP3    H132404   5.068   4.557   1.630 -0.3431  0.1101 -0.2595
 3615TIP3    H232405   5.156   4.465   1.712  0.5769  0.9248 -0.3135
 3616TIP3   OH232406   2.830   6.658   8.372  0.1061 -0.1317 -0.4348
 3616TIP3    H132407   2.885   6.588   8.408 -1.9219 -1.4110  0.3500
 3616TIP3    H232408   2.854   6.663   8.280  3.4942  1.3280  0.3833
 3617TIP3   OH232409   2.986   0.628   6.436 -0.1146 -0.3794  0.4421
 3617TIP3    H132410   3.068   0.666   6.465  0.3332 -0.6322 -0.4367
 3617TIP3    H232411   2.935   0.616   6.516  1.0758 -1.1214  1.1218
 3618TIP3   OH232412   3.603   2.971   7.837 -0.1038  0.0907 -0.6627
 3618TIP3    H132413   3.587   3.056   7.797  0.3836  1.2817  1.5300
 3618TIP3    H232414   3.666   2.988   7.907 -0.9440 -1.8430  0.6665
 3619TIP3   OH232415   4.054   5.644   2.208  1.0043  0.1633  0.9423
 3619TIP3    H132416   4.050   5.550   2.223  0.5811  0.0567  0.2312
 3619TIP3    H232417   4.099   5.653   2.124 -0.9767  0.4523 -0.1513
 3620TIP3   OH232418   1.549   6.184   1.941  0.7355 -0.1757  0.4940
 3620TIP3    H132419   1.492   6.258   1.920  0.0612 -0.9784 -0.6786
 3620TIP3    H232420   1.637   6.222   1.946  0.2930  0.8450  0.8113
 3621TIP3   OH232421   3.633   0.348   7.291 -1.1616  0.0215  0.0456
 3621TIP3    H132422   3.637   0.388   7.378 -0.2363  1.6913 -0.7227
 3621TIP3    H232423   3.681   0.408   7.234 -0.2784 -1.8815 -1.3254
 3622TIP3   OH232424   0.358   1.712   7.699 -0.5587  0.0907 -0.2708
 3622TIP3    H132425   0.372   1.773   7.771 -0.4878 -1.3749  1.0098
 3622TIP3    H232426   0.437   1.658   7.698 -0.8911 -0.3954 -0.9332
 3623TIP3   OH232427   1.134   0.732   1.751 -0.3392  0.1426 -0.4664
 3623TIP3    H132428   1.178   0.816   1.765 -1.6560  1.3073 -2.7354
 3623TIP3    H232429   1.193   0.667   1.789  1.6417  1.9241 -0.3417
 3624TIP3   OH232430   2.683   3.016   7.530  0.0788  0.7045 -0.1210
 3624TIP3    H132431   2.740   2.946   7.560 -1.9328 -1.0425 -0.1195
 3624TIP3    H232432   2.700   3.089   7.589  1.8530  0.0483  0.2136
 3625TIP3   OH232433   0.912   1.109   1.204 -0.2326  0.1163  0.1960
 3625TIP3    H132434   0.868   1.083   1.123 -1.1089 -1.3306  1.1023
 3625TIP3    H232435   0.982   1.045   1.215  0.6228  1.0010 -0.0023
 3626TIP3   OH232436   5.065   5.508   2.495 -0.1828 -0.1556 -0.5691
 3626TIP3    H132437   4.973   5.496   2.518 -0.1414 -0.2701 -0.4607
 3626TIP3    H232438   5.081   5.443   2.426 -0.0491 -0.4954 -0.2244
 3627TIP3   OH232439   4.514   6.127   7.189  0.2230  0.6125 -0.2935
 3627TIP3    H132440   4.426   6.098   7.167 -0.1567 -0.0761  1.9132
 3627TIP3    H232441   4.571   6.069   7.138 -0.5990 -1.1461  0.6789
 3628TIP3   OH232442   2.512   4.520   1.034 -0.2524  0.1742 -0.2627
 3628TIP3    H132443   2.509   4.580   0.960  0.8725  1.3928  0.6457
 3628TIP3    H232444   2.455   4.560   1.100 -0.5667 -0.4569 -0.1443
 3629TIP3   OH232445   3.152   3.388   7.778  0.2764 -0.2883 -0.3738
 3629TIP3    H132446   3.097   3.309   7.773  0.7619 -0.6818  0.4106
 3629TIP3    H232447   3.216   3.368   7.846  0.5844  0.6795 -0.3762
 3630TIP3   OH232448   0.216   6.604   2.708  0.3319  0.0991 -0.3679
 3630TIP3    H132449   0.178   6.539   2.650 -1.3792  0.7659 -0.0736
 3630TIP3    H232450   0.204   6.687   2.662 -1.5215  0.7043  1.0728
 3631TIP3   OH232451   0.416   0.626   2.045  0.4332  0.0913  0.2877
 3631TIP3    H132452   0.366   0.551   2.077 -0.7077  0.7368  0.0837
 3631TIP3    H232453   0.353   0.677   1.994  1.5670  0.4100 -0.8399
 3632TIP3   OH232454   0.050   0.492   7.075 -0.3437  0.1269 -0.0020
 3632TIP3    H132455   0.068   0.444   7.156  0.8937 -0.5947 -0.6687
 3632TIP3    H232456  -0.007   0.435   7.025 -0.8126  0.4118  0.2061
 3633TIP3   OH232457   1.706   4.933   7.086  0.1371 -0.1489  0.3492
 3633TIP3    H132458   1.791   4.966   7.057  0.7643 -2.9099 -1.3082
 3633TIP3    H232459   1.727   4.856   7.139 -1.3328  0.0024  1.2219
 3634TIP3   OH232460   2.896   1.837   0.494 -0.6393 -0.2156 -0.1458
 3634TIP3    H132461   2.959   1.821   0.564  1.2472  0.6324 -1.5528
 3634TIP3    H232462   2.861   1.750   0.473  0.5788 -0.8240  0.2290
 3635TIP3   OH232463   3.770   0.780   6.801 -0.4816  0.3492 -0.0911
 3635TIP3    H132464   3.738   0.851   6.745 -0.6628  1.1450  1.0046
 3635TIP3    H232465   3.818   0.824   6.871 -0.8391 -0.5874  0.7698
 3636TIP3   OH232466   6.389   4.407   6.110  0.1211  0.5207  0.5320
 3636TIP3    H132467   6.370   4.330   6.056  0.0852 -0.6056  2.0695
 3636TIP3    H232468   6.484   4.402   6.126 -0.1613 -0.3351  2.1935
 3637TIP3   OH232469   3.929   1.684   6.111 -0.1971 -0.3703 -0.0962
 3637TIP3    H132470   3.989   1.631   6.059 -1.3234 -1.7384 -0.0874
 3637TIP3    H232471   3.962   1.773   6.103  0.8016 -0.8243 -1.5152
 3638TIP3   OH232472   5.496   4.695   0.692 -0.4751  0.3688  0.6188
 3638TIP3    H132473   5.537   4.609   0.687 -2.3384 -0.5423  0.3423
 3638TIP3    H232474   5.516   4.735   0.607  3.3436  1.7349  1.9135
 3639TIP3   OH232475   1.776   4.297   7.151 -0.4025  0.2901 -0.4979
 3639TIP3    H132476   1.716   4.226   7.174  1.0432 -1.7317 -2.4248
 3639TIP3    H232477   1.734   4.342   7.078 -0.6310  0.4196 -0.2867
 3640TIP3   OH232478   1.630   5.891   1.297 -0.7521 -0.0143  1.0513
 3640TIP3    H132479   1.607   5.958   1.362  0.0220  0.9348  0.3848
 3640TIP3    H232480   1.595   5.926   1.214  2.4800  1.2810  0.0694
 3641TIP3   OH232481   0.187   3.958   2.478  0.2318  0.3025 -0.0044
 3641TIP3    H132482   0.156   3.895   2.544 -1.2364  2.3496  1.3975
 3641TIP3    H232483   0.124   4.030   2.484  1.0082  1.2754 -2.5652
 3642TIP3   OH232484   5.466   0.028   0.798 -0.5468 -0.5821  0.5846
 3642TIP3    H132485   5.509   0.002   0.716 -1.0371 -0.6105  0.3344
 3642TIP3    H232486   5.428   0.114   0.779 -0.8025 -0.6613  0.7272
 3643TIP3   OH232487   2.298   1.007   2.357 -0.6897  0.2713 -0.1068
 3643TIP3    H132488   2.242   1.048   2.423  0.3450  1.6333 -0.0348
 3643TIP3    H232489   2.242   1.000   2.279 -1.4763 -0.0117  0.4714
 3644TIP3   OH232490   2.924   0.814   1.324 -0.3252  0.3659  0.6635
 3644TIP3    H132491   2.946   0.847   1.236  1.3357 -1.2124  0.4234
 3644TIP3    H232492   2.913   0.893   1.377 -2.3513  1.4167 -1.1179
 3645TIP3   OH232493   6.370   1.039   7.164  0.4869  0.3138 -0.3946
 3645TIP3    H132494   6.298   1.094   7.133 -0.4163 -0.3111  0.5261
 3645TIP3    H232495   6.445   1.098   7.171 -0.0989  1.1076 -0.7800
 3646TIP3   OH232496   0.558   0.470   0.924 -0.3156  0.4820 -0.3594
 3646TIP3    H132497   0.597   0.393   0.965 -2.8528 -1.2158 -0.8840
 3646TIP3    H232498   0.631   0.531   0.913  1.8016 -1.7750  0.2068
 3647TIP3   OH232499   6.310   2.846   1.882 -0.0032  0.2018 -0.7962
 3647TIP3    H132500   6.223   2.809   1.898 -0.1320  1.5199  2.1857
 3647TIP3    H232501   6.370   2.777   1.909 -0.2039  0.6491  0.8798
 3648TIP3   OH232502   5.643   5.003   0.214 -0.3940 -0.5407 -0.3021
 3648TIP3    H132503   5.647   5.016   0.119 -2.1514 -0.0691 -0.3452
 3648TIP3    H232504   5.663   4.910   0.226  3.0926 -0.0121 -0.7849
 3649TIP3   OH232505   0.732   2.128   8.390 -0.2793 -0.1975 -0.1643
 3649TIP3    H132506   0.709   2.092   8.475 -0.6469  0.1794 -0.0946
 3649TIP3    H232507   0.783   2.060   8.347  0.4276 -0.1537  0.5908
 3650TIP3   OH232508   0.065   4.553   0.875 -0.7404 -0.0206  0.1129
 3650TIP3    H132509   0.033   4.465   0.895 -1.7906  0.4799  0.7157
 3650TIP3    H232510   0.087   4.550   0.782 -1.1160 -0.8148  0.0396
 3651TIP3   OH232511   2.842   3.670   7.503 -0.6007 -0.3111  0.1199
 3651TIP3    H132512   2.896   3.634   7.433  0.9019 -0.0586  1.0973
 3651TIP3    H232513   2.817   3.594   7.556  0.0778 -0.2741  0.5068
 3652TIP3   OH232514   2.029   3.333   7.585  0.0931 -0.2877  0.3635
 3652TIP3    H132515   1.991   3.419   7.567 -0.7148 -0.9362 -1.1624
 3652TIP3    H232516   2.065   3.304   7.501  1.7157 -0.8253  1.1898
 3653TIP3   OH232517   0.854   6.686   1.764  0.1160  0.5739 -0.4383
 3653TIP3    H132518   0.777   6.650   1.808 -0.0361 -0.0128 -1.1618
 3653TIP3    H232519   0.919   6.694   1.833 -0.5028  0.8033  0.1261
 3654TIP3   OH232520   4.084   2.394   6.464 -0.2088 -0.1286 -0.6576
 3654TIP3    H132521   4.176   2.421   6.471  0.0726 -1.1181 -0.3227
 3654TIP3    H232522   4.036   2.460   6.513  0.2325  0.8360 -1.4874
 3655TIP3   OH232523   4.883   5.559   1.182  0.2689 -0.4259  0.1971
 3655TIP3    H132524   4.948   5.569   1.252  1.1084  1.3210 -0.7721
 3655TIP3    H232525   4.934   5.568   1.101 -1.1343  0.6595 -0.5953
 3656TIP3   OH232526   0.902   6.800   1.120  0.0562  0.0678  0.3099
 3656TIP3    H132527   0.863   6.886   1.135  0.4392  0.4855 -0.9492
 3656TIP3    H232528   0.971   6.816   1.055  0.7630 -1.0411  0.7545
 3657TIP3   OH232529   3.210   3.745   6.945  0.0175 -0.1120 -0.0701
 3657TIP3    H132530   3.200   3.738   6.850 -1.1969 -2.0382  0.1554
 3657TIP3    H232531   3.124   3.723   6.980 -0.2282  2.7540  1.4792
 3658TIP3   OH232532   3.965   0.158   7.422 -0.1294  0.0264 -0.5022
 3658TIP3    H132533   4.032   0.216   7.387 -0.6027  0.7519 -0.2365
 3658TIP3    H232534   3.967   0.081   7.365  1.3059 -0.2235 -0.1582
 3659TIP3   OH232535   6.239   6.524   1.005  0.3600  0.0867  0.0439
 3659TIP3    H132536   6.215   6.503   0.915 -1.4384  1.1618  0.2312
 3659TIP3    H232537   6.307   6.461   1.027 -0.3142 -1.2453 -1.5206
 3660TIP3   OH232538   5.955   2.439   0.989 -0.4308 -0.3935 -0.1266
 3660TIP3    H132539   5.873   2.475   1.023 -0.4106 -1.2963  0.9358
 3660TIP3    H232540   6.020   2.460   1.057  0.1059 -0.1458 -0.7130
 3661TIP3   OH232541   1.457   5.479   1.693  0.6767 -0.0366 -0.2530
 3661TIP3    H132542   1.372   5.445   1.664  0.0862 -0.4541  1.8469
 3661TIP3    H232543   1.456   5.571   1.665 -0.7021  0.1117  0.2028
 3662TIP3   OH232544   2.246   2.982   0.512 -0.1572 -0.0291 -0.1226
 3662TIP3    H132545   2.280   3.068   0.484  1.8476 -1.0395 -0.9923
 3662TIP3    H232546   2.302   2.957   0.586 -1.0770 -0.3732  0.4754
 3663TIP3   OH232547   2.104   3.032   7.684 -0.1462 -0.6769 -0.1567
 3663TIP3    H132548   2.071   2.987   7.606 -0.8013 -0.8772  0.2347
 3663TIP3    H232549   2.028   3.074   7.722  0.2898 -0.0451  0.0264
 3664TIP3   OH232550   0.459   3.990   1.844  0.4546 -0.0181  0.3108
 3664TIP3    H132551   0.532   3.948   1.797 -0.6984 -1.8118  0.0018
 3664TIP3    H232552   0.391   4.002   1.777 -0.6111 -1.1217  1.1388
 3665TIP3   OH232553   6.353   2.167   0.041  0.0874  0.4303  0.0391
 3665TIP3    H132554   6.426   2.148  -0.017 -0.7735 -0.1156 -0.9069
 3665TIP3    H232555   6.332   2.082   0.082  0.7119  0.8142  1.2058
 3666TIP3   OH232556   1.849   3.534   7.605  0.0366  0.0516  0.2088
 3666TIP3    H132557   1.876   3.584   7.682 -1.0425  0.8233  0.1083
 3666TIP3    H232558   1.777   3.478   7.637  0.1032 -0.1954 -0.0666
 3667TIP3   OH232559   5.697   4.452   8.246  0.5003  0.0409 -0.6154
 3667TIP3    H132560   5.788   4.482   8.252  0.4505  0.1684 -0.4838
 3667TIP3    H232561   5.702   4.357   8.261  0.2184  0.4859  3.6032
 3668TIP3   OH232562   4.657   3.537   7.523 -0.5890 -0.0884 -0.0173
 3668TIP3    H132563   4.563   3.556   7.527 -1.0272 -1.9301 -0.6174
 3668TIP3    H232564   4.692   3.607   7.468 -1.5818  0.6564  0.2432
 3669TIP3   OH232565   3.392   5.529   0.740  0.4546  0.0771 -0.1499
 3669TIP3    H132566   3.400   5.529   0.836 -0.5886 -1.5805 -0.0274
 3669TIP3    H232567   3.451   5.460   0.711  0.0860 -0.0435 -0.6262
 3670TIP3   OH232568   2.544   3.682   0.756  0.1901 -0.3773 -0.3514
 3670TIP3    H132569   2.514   3.595   0.728  2.1957 -0.9518 -0.9103
 3670TIP3    H232570   2.625   3.695   0.707 -0.1541  1.8984 -0.3859
 3671TIP3   OH232571   3.593   2.404   0.023 -0.2245  0.2032 -0.4598
 3671TIP3    H132572   3.517   2.461   0.017  0.8266  1.6175 -0.9018
 3671TIP3    H232573   3.588   2.365   0.111  0.5755  3.3176  1.1064
 3672TIP3   OH232574   1.468   4.857   6.950  0.4574  0.2423 -0.0179
 3672TIP3    H132575   1.464   4.812   6.866  2.1538  1.0054 -0.5575
 3672TIP3    H232576   1.559   4.889   6.956  0.7960 -0.8990  2.6641
 3673TIP3   OH232577   6.795   5.829   7.521 -0.3182 -0.0596 -0.0782
 3673TIP3    H132578   6.737   5.905   7.518  0.5496  0.5990 -2.2759
 3673TIP3    H232579   6.883   5.865   7.515  0.2384 -1.1572  1.0386
 3674TIP3   OH232580   2.796   3.696   7.159  0.3951  0.9688  0.1269
 3674TIP3    H132581   2.822   3.643   7.235  0.7799  1.5817  0.4345
 3674TIP3    H232582   2.729   3.644   7.115  0.4006  0.4578  0.7081
 3675TIP3   OH232583   2.261   6.121   7.982 -0.1488 -0.3511  0.3494
 3675TIP3    H132584   2.273   6.195   8.041  0.3642 -0.0166 -0.1647
 3675TIP3    H232585   2.325   6.056   8.010 -0.4201 -0.5028  0.6320
 3676TIP3   OH232586   5.507   2.760   0.769 -0.1004 -0.3518  0.0840
 3676TIP3    H132587   5.522   2.761   0.863  0.6416  1.0368 -0.0168
 3676TIP3    H232588   5.456   2.680   0.753 -1.5655  0.1561  1.8542
 3677TIP3   OH232589   6.345   5.454   1.909 -0.3950  0.5724  0.5168
 3677TIP3    H132590   6.373   5.536   1.951  0.4439  0.6914 -0.2498
 3677TIP3    H232591   6.424   5.400   1.908 -0.7262  0.0921  0.2072
 3678TIP3   OH232592   1.888   0.338   1.822 -0.4847  0.2651  0.2446
 3678TIP3    H132593   1.958   0.402   1.814 -0.1048 -0.1229  0.3711
 3678TIP3    H232594   1.871   0.333   1.916 -0.1401 -0.1964  0.2914
 3679TIP3   OH232595   3.322   0.949   7.874  0.2567 -0.3452 -0.1568
 3679TIP3    H132596   3.292   1.036   7.848 -0.4179 -0.2670  0.8193
 3679TIP3    H232597   3.412   0.962   7.904  0.0826  0.0566  0.1937
 3680TIP3   OH232598   5.141   5.987   8.162 -0.6127  0.0054 -0.1387
 3680TIP3    H132599   5.226   5.971   8.121 -1.0281  0.0901 -1.0622
 3680TIP3    H232600   5.156   6.062   8.219 -0.1818  0.3469 -0.6860
 3681TIP3   OH232601   4.792   0.037   1.881  0.5080 -0.3549  0.4705
 3681TIP3    H132602   4.807   0.005   1.970  0.4446  0.3697  0.7487
 3681TIP3    H232603   4.726  -0.023   1.846  0.6369 -0.7347  0.8627
 3682TIP3   OH232604   5.862   6.631   1.323 -0.0518 -0.1586  0.3446
 3682TIP3    H132605   5.775   6.605   1.352 -0.1566 -0.8190 -0.5230
 3682TIP3    H232606   5.888   6.564   1.260  1.5945 -0.6671  1.4684
 3683TIP3   OH232607   2.168   2.182   7.665 -0.1307  0.1141  0.4625
 3683TIP3    H132608   2.129   2.266   7.693  1.1122  0.5931  0.7993
 3683TIP3    H232609   2.257   2.205   7.638  0.5781 -1.2720  1.5645
 3684TIP3   OH232610   2.369   6.128   8.289 -0.4085  0.1639  0.1296
 3684TIP3    H132611   2.461   6.154   8.295 -0.5226  0.5338  0.2924
 3684TIP3    H232612   2.324   6.207   8.259 -0.5898 -0.1827 -0.5404
 3685TIP3   OH232613   4.181   6.256   0.548  0.5406  0.4462  0.2250
 3685TIP3    H132614   4.218   6.266   0.636 -1.9189 -3.4728  1.9765
 3685TIP3    H232615   4.088   6.278   0.560  0.4166  1.2525 -1.8423
 3686TIP3   OH232616   2.673   0.871   0.969 -0.4770  0.3181 -0.2956
 3686TIP3    H132617   2.707   0.884   0.880 -0.6432 -0.7718 -0.5423
 3686TIP3    H232618   2.752   0.861   1.023 -0.3590 -0.7918 -0.6343
 3687TIP3   OH232619   2.480   1.248   8.361  0.2356 -0.4131 -0.4180
 3687TIP3    H132620   2.565   1.293   8.355  0.2657  0.0370  2.3226
 3687TIP3    H232621   2.422   1.312   8.401 -0.0932 -2.2222  2.2506
 3688TIP3   OH232622   6.876   1.514   7.073 -0.0552  0.2408 -0.2000
 3688TIP3    H132623   6.928   1.528   7.152 -1.7535 -0.7746  1.1768
 3688TIP3    H232624   6.935   1.470   7.012  0.4852 -1.7670  1.6520
 3689TIP3   OH232625   0.939   5.949   1.017  0.1087 -0.0746  0.7719
 3689TIP3    H132626   1.025   5.937   1.058  0.9680 -0.1008 -0.9528
 3689TIP3    H232627   0.922   5.866   0.974 -0.3979  0.2098  0.4209
 3690TIP3   OH232628   4.413   6.209   1.018  0.2100  0.1124  0.0420
 3690TIP3    H132629   4.428   6.129   1.069  1.4354 -0.3712 -1.0289
 3690TIP3    H232630   4.501   6.243   1.002 -0.2859  1.4839  0.1586
 3691TIP3   OH232631   0.634   2.786   2.551 -0.2855 -0.0402 -0.2636
 3691TIP3    H132632   0.646   2.836   2.631 -0.8022  0.0904 -0.2617
 3691TIP3    H232633   0.677   2.702   2.568 -0.0277  0.1433 -0.0086
 3692TIP3   OH232634   3.252   0.379   2.226  0.5419 -0.3198 -0.3094
 3692TIP3    H132635   3.266   0.473   2.238  0.3680 -0.3489  0.1262
 3692TIP3    H232636   3.168   0.362   2.267  0.4209 -0.6120 -0.6705
 3693TIP3   OH232637   6.256   1.877   0.116 -0.4833 -0.3663  0.1618
 3693TIP3    H132638   6.174   1.864   0.164 -0.8184  0.6579 -0.1183
 3693TIP3    H232639   6.324   1.846   0.177 -0.6911  2.8027  2.2530
 3694TIP3   OH232640   2.796   0.358   6.697 -0.1477 -0.0757 -0.6378
 3694TIP3    H132641   2.758   0.368   6.784 -0.7123 -0.4055 -0.8409
 3694TIP3    H232642   2.764   0.273   6.666  1.6901 -0.9279 -0.3607
 3695TIP3   OH232643   6.127   2.206   8.148 -0.4764  0.0204 -0.5736
 3695TIP3    H132644   6.036   2.231   8.162 -0.1965  0.6702  0.1732
 3695TIP3    H232645   6.163   2.276   8.093  0.1599  1.0495  1.0558
 3696TIP3   OH232646   3.238   2.609   1.987  0.2927 -0.1254  0.6154
 3696TIP3    H132647   3.289   2.583   1.910 -1.9088 -1.0482 -0.6047
 3696TIP3    H232648   3.263   2.700   2.002  0.5067  0.2116 -1.4311
 3697TIP3   OH232649   1.336   0.558   1.826  0.4185  0.3033 -0.9134
 3697TIP3    H132650   1.414   0.585   1.874 -0.2149  0.8925 -0.1882
 3697TIP3    H232651   1.338   0.462   1.829 -0.0792  0.3059  1.1138
 3698TIP3   OH232652   4.454   4.043   6.331 -0.0711 -0.5154  0.5840
 3698TIP3    H132653   4.452   4.135   6.302  0.6655 -0.6784 -0.0133
 3698TIP3    H232654   4.502   4.045   6.414 -0.6873 -0.2743  0.9440
 3699TIP3   OH232655   3.805   1.738   0.947  0.5915 -0.4231  0.3286
 3699TIP3    H132656   3.758   1.657   0.926  0.4433 -0.6445  1.4322
 3699TIP3    H232657   3.782   1.799   0.876 -0.4611 -0.8881  0.2576
 3700TIP3   OH232658   1.830   0.010   7.834  0.0126  0.0908 -0.1227
 3700TIP3    H132659   1.833  -0.041   7.753  1.4742 -0.5611  0.2945
 3700TIP3    H232660   1.850   0.100   7.807  0.3954 -0.1068 -0.5120
 3701TIP3   OH232661   5.178   0.015   7.034 -0.0812 -0.1277 -0.4630
 3701TIP3    H132662   5.179   0.077   6.961  1.5885 -0.3143 -0.6442
 3701TIP3    H232663   5.089   0.017   7.067  0.1226  3.0591  0.1512
 3702TIP3   OH232664   5.623   4.821   1.565  0.2026 -0.5206 -0.2589
 3702TIP3    H132665   5.663   4.908   1.561  2.2350 -1.4136 -0.4222
 3702TIP3    H232666   5.592   4.805   1.476 -0.1799  0.0179 -0.2287
 3703TIP3   OH232667   5.188   1.071   0.046  0.3451 -0.3804 -0.1668
 3703TIP3    H132668   5.128   1.062  -0.028  0.3661  0.3696 -0.2785
 3703TIP3    H232669   5.215   1.162   0.044  0.8704 -0.5199  0.3669
 3704TIP3   OH232670   0.076   1.209   8.479 -1.0247  0.7051  0.3475
 3704TIP3    H132671   0.088   1.190   8.572 -1.0665 -0.2653  0.1681
 3704TIP3    H232672  -0.019   1.214   8.467 -1.1186 -1.2034  0.0025
 3705TIP3   OH232673   3.177   4.711   0.658 -0.1975 -0.5931 -0.3785
 3705TIP3    H132674   3.173   4.730   0.751  1.0582  0.0526 -0.4316
 3705TIP3    H232675   3.266   4.677   0.644  0.4113  1.3554 -1.6734
 3706TIP3   OH232676   3.745   6.157   0.582  0.1758 -0.1463 -0.0415
 3706TIP3    H132677   3.700   6.170   0.666 -0.7097 -1.0018 -0.3564
 3706TIP3    H232678   3.675   6.165   0.517  0.3796 -1.9338 -0.5217
 3707TIP3   OH232679   1.380   2.993   7.989 -0.2198 -0.2729  0.4062
 3707TIP3    H132680   1.286   2.990   8.010 -0.2827 -1.5048  0.0455
 3707TIP3    H232681   1.417   2.919   8.037  1.0924  1.8029  2.7958
 3708TIP3   OH232682   4.195   6.042   1.750  0.2188  0.1500 -0.1004
 3708TIP3    H132683   4.193   5.969   1.688  1.4896  0.3525 -0.4086
 3708TIP3    H232684   4.162   6.117   1.701 -1.8763 -0.3461  0.4549
 3709TIP3   OH232685   1.160   5.251   7.020 -0.7747  0.5996 -0.3190
 3709TIP3    H132686   1.233   5.244   6.958 -0.6366  0.9885 -0.2041
 3709TIP3    H232687   1.086   5.209   6.975 -0.2663 -0.5676 -0.0884
 3710TIP3   OH232688   0.175   5.900   7.794  0.1404 -0.0065  0.2582
 3710TIP3    H132689   0.186   5.979   7.741 -0.7326 -0.4022 -0.5424
 3710TIP3    H232690   0.202   5.926   7.882  5.0629 -0.2428 -0.9093
 3711TIP3   OH232691   1.815   2.756   8.209  0.0381 -0.3872 -0.9487
 3711TIP3    H132692   1.788   2.701   8.283 -0.0745 -0.3859 -0.9883
 3711TIP3    H232693   1.746   2.822   8.202  1.0320  0.7928  0.1682
 3712TIP3   OH232694   4.686   6.065   1.655 -0.1631  0.0549  0.3410
 3712TIP3    H132695   4.659   6.157   1.650  0.6392  0.4325  2.1949
 3712TIP3    H232696   4.606   6.015   1.642 -0.6374  1.0168 -0.5380
 3713TIP3   OH232697   1.881   3.712   7.388 -0.2552 -0.0163  0.0084
 3713TIP3    H132698   1.875   3.644   7.455  2.6698  2.2416  2.8841
 3713TIP3    H232699   1.808   3.771   7.406  0.1236  0.2156  0.8115
 3714TIP3   OH232700   5.943   3.372   0.933 -0.0591 -0.8686  0.5412
 3714TIP3    H132701   5.860   3.329   0.954 -0.0166 -1.1490  0.1374
 3714TIP3    H232702   5.959   3.351   0.841 -0.9685  1.5548 -0.2503
 3715TIP3   OH232703   5.398   0.868   6.952  0.5824 -0.0763  0.0980
 3715TIP3    H132704   5.371   0.913   7.031 -0.0152  0.9641 -0.6688
 3715TIP3    H232705   5.435   0.937   6.896  0.7756 -0.7429 -0.6169
 3716TIP3   OH232706   4.408   1.601   7.853  0.2196 -0.1517  0.4389
 3716TIP3    H132707   4.499   1.573   7.859  0.2278 -0.5946 -1.2260
 3716TIP3    H232708   4.382   1.579   7.763 -1.9087 -1.2354  1.2398
 3717TIP3   OH232709   4.031   0.669   8.475  0.2280 -0.6518 -0.0232
 3717TIP3    H132710   4.064   0.598   8.420 -0.5698 -0.2669 -1.0325
 3717TIP3    H232711   4.089   0.743   8.455  0.0854 -0.5801 -0.1777
 3718TIP3   OH232712   0.387   0.182   1.866  0.6569  0.4465  0.2381
 3718TIP3    H132713   0.385   0.110   1.929 -0.2089 -0.3965 -0.7076
 3718TIP3    H232714   0.304   0.176   1.819  1.8108  0.1341 -1.9312
 3719TIP3   OH232715   6.903   0.068   0.414  0.3595  0.2399 -0.0387
 3719TIP3    H132716   6.968   0.110   0.470  1.8020 -1.5754 -0.2596
 3719TIP3    H232717   6.826   0.057   0.469  1.0955  0.2118  1.0040
 3720TIP3   OH232718   2.633   4.967   0.232  0.9391  0.1464 -0.0709
 3720TIP3    H132719   2.721   4.934   0.252  0.1223 -1.7026  0.7378
 3720TIP3    H232720   2.596   4.900   0.175  0.2310  1.1820 -0.8439
 3721TIP3   OH232721   0.540   3.612   1.310 -0.3908  0.6492 -0.1200
 3721TIP3    H132722   0.576   3.530   1.274 -1.5466 -0.4233  1.0511
 3721TIP3    H232723   0.527   3.668   1.234 -1.2063 -0.9331 -1.2029
 3722TIP3   OH232724   1.033   4.350   6.526  0.3385  0.2216  0.0899
 3722TIP3    H132725   0.992   4.429   6.561  0.6261 -0.6545  2.5766
 3722TIP3    H232726   0.960   4.296   6.497  0.0194  0.5147  0.3348
 3723TIP3   OH232727   2.605   2.532   7.152 -0.2083 -0.0809  0.0668
 3723TIP3    H132728   2.617   2.438   7.142 -0.0532 -0.1749  1.0377
 3723TIP3    H232729   2.658   2.556   7.228 -0.7417  0.6784  0.2211
 3724TIP3   OH232730   4.542   0.013   7.177 -0.4295  0.1527  0.0037
 3724TIP3    H132731   4.468  -0.043   7.201  0.0928 -0.3309  0.5138
 3724TIP3    H232732   4.620  -0.036   7.207 -0.0102  1.5900  1.3900
 3725TIP3   OH232733   4.722   0.299   0.444 -0.2080 -0.5760  0.1119
 3725TIP3    H132734   4.650   0.269   0.388 -2.3677  0.2590  2.2430
 3725TIP3    H232735   4.719   0.394   0.438 -1.9768 -0.2990  3.1313
 3726TIP3   OH232736   2.886   2.147   0.760 -0.1220 -0.1019  0.1796
 3726TIP3    H132737   2.867   2.116   0.672 -2.3341 -1.3967  1.0273
 3726TIP3    H232738   2.836   2.228   0.769 -0.1128 -0.1119  0.3312
 3727TIP3   OH232739   2.850   6.203   7.192  0.2261 -0.5584  0.4467
 3727TIP3    H132740   2.907   6.202   7.116  0.4852  2.4657  0.4790
 3727TIP3    H232741   2.837   6.110   7.214  0.3730 -1.5492 -3.0363
 3728TIP3   OH232742   6.301   5.969   7.276  0.2244  0.0549 -0.0138
 3728TIP3    H132743   6.367   6.023   7.232 -0.5915  0.6700 -0.4926
 3728TIP3    H232744   6.338   5.953   7.363 -0.5806  3.5605  1.1247
 3729TIP3   OH232745   6.442   5.663   7.155 -0.0575 -0.5168  0.0428
 3729TIP3    H132746   6.528   5.704   7.147 -0.4086  0.1582 -0.3034
 3729TIP3    H232747   6.446   5.589   7.094 -0.1174  0.2064 -0.8671
 3730TIP3   OH232748   0.946   4.628   6.352 -0.5841 -0.2551 -0.2918
 3730TIP3    H132749   0.929   4.597   6.441 -1.5778  0.4734 -0.2167
 3730TIP3    H232750   0.867   4.677   6.328 -0.3437 -0.4686 -1.5883
 3731TIP3   OH232751   0.899   6.305   6.963 -0.1939 -0.3619 -1.0536
 3731TIP3    H132752   0.855   6.228   6.996 -1.7140  0.0018 -2.1232
 3731TIP3    H232753   0.871   6.312   6.872 -0.2828  1.5529 -0.9349
 3732TIP3   OH232754   1.544   1.798   2.228 -0.3535  0.2259 -0.1949
 3732TIP3    H132755   1.625   1.839   2.198 -0.4275  0.8979  0.4947
 3732TIP3    H232756   1.530   1.834   2.315 -1.7048  0.5532 -0.5365
 3733TIP3   OH232757   2.784   4.367   0.741  0.3041 -0.0251  0.1991
 3733TIP3    H132758   2.850   4.434   0.720  1.8697 -1.7253 -0.6280
 3733TIP3    H232759   2.718   4.376   0.672 -0.6919  2.0305  1.3180
 3734TIP3   OH232760   3.499   4.915   7.792 -0.2221  0.5011 -0.0757
 3734TIP3    H132761   3.472   4.869   7.712 -1.8606  1.4871 -0.1344
 3734TIP3    H232762   3.590   4.940   7.776 -0.2363 -0.1495 -1.2446
 3735TIP3   OH232763   1.938   4.651   0.936  0.1242  0.2734  0.1916
 3735TIP3    H132764   1.917   4.638   0.843  0.0875  0.7499  0.1287
 3735TIP3    H232765   1.934   4.746   0.948  3.0655  0.5196 -0.0443
 3736TIP3   OH232766   6.804   2.174   8.384  0.3815  0.1779  0.0036
 3736TIP3    H132767   6.886   2.143   8.423  0.3704  1.0393  0.7364
 3736TIP3    H232768   6.739   2.109   8.411  0.6902 -0.1469 -0.0204
 3737TIP3   OH232769   2.011   2.661   6.937  0.1577 -0.2781  0.8047
 3737TIP3    H132770   1.966   2.668   7.021  0.5116 -0.0588  0.9790
 3737TIP3    H232771   1.976   2.733   6.885  1.5797  1.0303  1.5537
 3738TIP3   OH232772   4.562   2.417   7.020  0.3248  0.0088  0.1486
 3738TIP3    H132773   4.599   2.474   7.087  0.6690  0.0094 -0.0417
 3738TIP3    H232774   4.626   2.347   7.009  1.3567  1.1626 -1.7285
 3739TIP3   OH232775   3.801   2.619   8.098 -0.2372  0.1681  0.1806
 3739TIP3    H132776   3.806   2.714   8.103  0.2505  0.1912 -0.5698
 3739TIP3    H232777   3.741   2.594   8.168 -0.1117  1.0004  0.5902
 3740TIP3   OH232778   5.446   2.509   7.375 -0.1381 -0.0049  0.2842
 3740TIP3    H132779   5.373   2.462   7.335 -2.3470  1.4758  2.3045
 3740TIP3    H232780   5.449   2.593   7.329  0.3024 -0.0692  0.1950
 3741TIP3   OH232781   1.201   0.711   7.737  0.6493 -0.6577 -0.4519
 3741TIP3    H132782   1.230   0.798   7.711  0.8387 -0.5654  0.0594
 3741TIP3    H232783   1.211   0.657   7.659 -1.6955  0.2851 -1.5076
 3742TIP3   OH232784   5.914   3.569   6.247  0.6117  0.2303  0.2945
 3742TIP3    H132785   5.921   3.641   6.311 -0.5333  0.5046  0.1472
 3742TIP3    H232786   5.822   3.572   6.219  0.2539 -1.9731  1.0669
 3743TIP3   OH232787   1.324   3.775   7.931 -0.3402 -0.1132 -0.5168
 3743TIP3    H132788   1.269   3.815   7.864  0.1466 -0.7895 -1.3334
 3743TIP3    H232789   1.409   3.763   7.888  0.0024 -0.4724  0.2461
 3744TIP3   OH232790   4.270   4.050   0.413  0.4589 -0.1506 -0.1787
 3744TIP3    H132791   4.340   4.089   0.466  0.3601 -1.0200  0.6125
 3744TIP3    H232792   4.230   3.984   0.470  0.1390 -0.8910 -1.2224
 3745TIP3   OH232793   4.623   3.242   1.234 -0.1788  0.2497  0.2299
 3745TIP3    H132794   4.672   3.160   1.231 -0.2934  0.0918  1.7331
 3745TIP3    H232795   4.633   3.280   1.147 -0.2013 -1.4003 -0.5256
 3746TIP3   OH232796   5.707   5.470   8.123 -0.3388 -0.3569 -0.4558
 3746TIP3    H132797   5.755   5.403   8.172 -1.2535 -0.5261  0.2409
 3746TIP3    H232798   5.774   5.517   8.074  0.5001 -0.7437  0.3049
 3747TIP3   OH232799   6.592   4.414   7.594 -0.0558 -0.4805  0.5272
 3747TIP3    H132800   6.586   4.503   7.560 -1.4656 -1.1191 -1.1043
 3747TIP3    H232801   6.554   4.418   7.681 -0.8336  0.3944  0.1598
 3748TIP3   OH232802   2.114   0.237   7.958  0.5590  0.5256 -0.1519
 3748TIP3    H132803   2.210   0.238   7.949  0.7203 -1.4414  0.7947
 3748TIP3    H232804   2.082   0.265   7.873  1.9563  2.3803 -0.1382
 3749TIP3   OH232805   6.046   1.479   1.288  0.0404  0.5717  0.2081
 3749TIP3    H132806   5.973   1.479   1.350  0.1236 -0.5624  0.3245
 3749TIP3    H232807   6.025   1.409   1.226  0.7658  0.5990 -0.0771
 3750TIP3   OH232808   5.015   0.683   7.209  0.0485 -0.5248  0.0874
 3750TIP3    H132809   5.012   0.601   7.160 -0.0974  0.5000 -1.7054
 3750TIP3    H232810   5.058   0.745   7.151 -0.5196  0.8796  1.0889
 3751TIP3   OH232811   0.612   1.810   8.266 -0.0270 -0.1012  0.0867
 3751TIP3    H132812   0.547   1.742   8.249  0.7562 -0.9591  0.4094
 3751TIP3    H232813   0.654   1.784   8.348 -0.7732  1.6337  1.0814
 3752TIP3   OH232814   3.941   4.273   0.996 -0.0455  0.2867 -0.2986
 3752TIP3    H132815   3.972   4.363   0.987 -1.2437  0.7812  0.3236
 3752TIP3    H232816   3.899   4.270   1.082  0.0362 -0.8988 -0.2749
 3753TIP3   OH232817   3.254   5.493   7.006  0.9505 -0.0832 -0.3342
 3753TIP3    H132818   3.293   5.562   6.952 -0.1524  0.1134 -0.8989
 3753TIP3    H232819   3.176   5.465   6.958 -0.1857  0.2492  1.2329
 3754TIP3   OH232820   2.596   5.989   7.844  0.1161  0.1691 -0.3430
 3754TIP3    H132821   2.662   5.920   7.838  0.6566  0.6339  0.1085
 3754TIP3    H232822   2.563   5.984   7.934 -0.7892 -0.3406 -0.6893
 3755TIP3   OH232823   1.662   1.788   1.935  0.3112 -0.2232  0.1381
 3755TIP3    H132824   1.639   1.697   1.955 -1.0495  0.0436 -0.0608
 3755TIP3    H232825   1.689   1.786   1.843 -0.6712 -0.2992 -0.1680
 3756TIP3   OH232826   1.709   1.514   7.801  0.4745  0.6783 -0.3083
 3756TIP3    H132827   1.653   1.438   7.818  1.9978 -0.3448  0.2864
 3756TIP3    H232828   1.784   1.478   7.753  1.5060  1.7028  0.4950
 3757TIP3   OH232829   4.667   4.044   0.118 -0.6498 -0.6609  0.1632
 3757TIP3    H132830   4.670   4.079   0.029 -0.6306  0.6398  0.6615
 3757TIP3    H232831   4.702   3.955   0.109  0.8138 -0.0298 -0.8948
 3758TIP3   OH232832   1.318   4.601   7.735 -0.1188  0.2888  0.1572
 3758TIP3    H132833   1.330   4.685   7.779 -2.4202  0.1591  1.1558
 3758TIP3    H232834   1.350   4.615   7.646  0.7542  1.8115  0.6756
 3759TIP3   OH232835   2.898   3.354   8.469  0.4715 -0.2749 -0.1935
 3759TIP3    H132836   2.976   3.410   8.471 -0.0797  0.4854  0.4926
 3759TIP3    H232837   2.855   3.376   8.386  0.5003 -0.0103 -0.1398
 3760TIP3   OH232838   6.876   2.997   7.933 -0.8274  0.3673 -0.6036
 3760TIP3    H132839   6.835   3.079   7.907 -2.4169 -0.2117 -0.0349
 3760TIP3    H232840   6.807   2.949   7.980  0.5464 -0.5937  0.5145
 3761TIP3   OH232841   1.077   4.851   6.265 -0.1191  0.0836 -0.2258
 3761TIP3    H132842   1.104   4.818   6.180  1.2274 -0.4746  0.3970
 3761TIP3    H232843   1.031   4.778   6.306 -0.9602  0.4226 -0.5401
 3762TIP3   OH232844   0.085   5.533   0.749  0.5449 -0.1489  0.2698
 3762TIP3    H132845   0.090   5.454   0.695  2.0575  0.7198 -0.9602
 3762TIP3    H232846   0.006   5.521   0.802 -1.0679 -1.0752 -2.1411
 3763TIP3   OH232847   4.598   0.703   5.993  0.1127 -0.2369  0.2271
 3763TIP3    H132848   4.604   0.786   6.040  0.6280  0.0695 -0.3619
 3763TIP3    H232849   4.687   0.668   5.992 -0.3429 -1.5761  1.7987
 3764TIP3   OH232850   4.321   3.747   1.117 -0.0896 -0.0777  0.3010
 3764TIP3    H132851   4.285   3.804   1.185  2.4037  0.1035  1.5717
 3764TIP3    H232852   4.355   3.807   1.051  0.4702 -0.1321  0.5312
 3765TIP3   OH232853   6.706   1.387   8.060  0.0139  0.4607  0.8489
 3765TIP3    H132854   6.777   1.411   7.999 -0.9669  1.9564  0.2429
 3765TIP3    H232855   6.703   1.460   8.123 -1.6246  0.9451  0.2626
 3766TIP3   OH232856   3.190   5.015   1.776  0.1195 -0.1811  0.2072
 3766TIP3    H132857   3.247   5.064   1.716 -0.1838  0.9353  0.8143
 3766TIP3    H232858   3.201   4.924   1.749 -0.2225  0.3085 -1.7308
 3767TIP3   OH232859   1.696   2.902   8.493 -0.1546 -0.3191  0.1977
 3767TIP3    H132860   1.725   2.811   8.489 -1.5556 -0.8594  1.6909
 3767TIP3    H232861   1.758   2.945   8.551  0.0450 -0.4955  0.1157
 3768TIP3   OH232862   2.386   1.786   0.908  0.0107 -0.3967 -0.2985
 3768TIP3    H132863   2.344   1.726   0.847 -2.9391 -0.0725  1.2293
 3768TIP3    H232864   2.361   1.753   0.995  1.3929  0.9615  0.6673
 3769TIP3   OH232865   4.912   3.178   6.753  0.3081 -0.2059  0.0240
 3769TIP3    H132866   4.969   3.103   6.768  1.8858  0.5276 -1.9101
 3769TIP3    H232867   4.864   3.188   6.835 -0.3223 -3.5681  0.2016
 3770TIP3   OH232868   6.022   1.095   8.458  0.2037  0.3610  0.1513
 3770TIP3    H132869   6.079   1.031   8.414 -0.2601 -0.8885  1.2855
 3770TIP3    H232870   6.010   1.059   8.546  0.1413  2.1828  0.9339
 3771TIP3   OH232871   6.556   6.334   0.626 -0.1327  0.1845  0.7372
 3771TIP3    H132872   6.618   6.268   0.598 -0.2382  0.0526  0.8119
 3771TIP3    H232873   6.482   6.285   0.661 -0.8522  0.3124 -0.5385
 3772TIP3   OH232874   4.072   4.450   6.766 -0.1428  0.1220 -0.2408
 3772TIP3    H132875   4.154   4.452   6.814 -1.4330 -1.8077  2.2903
 3772TIP3    H232876   4.009   4.493   6.823 -1.8758 -2.7741  0.2860
 3773TIP3   OH232877   5.341   5.765   0.974 -0.2277 -0.2190 -0.0405
 3773TIP3    H132878   5.288   5.802   1.044  0.1314 -2.0757  1.2816
 3773TIP3    H232879   5.405   5.710   1.018  1.8673  0.7497 -1.6857
 3774TIP3   OH232880   2.323   2.174   1.056 -0.4937 -0.5318  0.2785
 3774TIP3    H132881   2.316   2.131   1.141 -1.4687  3.2672  2.3601
 3774TIP3    H232882   2.232   2.195   1.033 -0.1320 -0.3575 -1.0706
 3775TIP3   OH232883   5.170   5.517   1.100  0.4258 -0.2441 -0.6558
 3775TIP3    H132884   5.252   5.470   1.083  0.1100 -0.7131 -0.9348
 3775TIP3    H232885   5.195   5.592   1.152  1.0947 -0.1543 -1.0933
 3776TIP3   OH232886   3.218   5.196   7.990 -0.2399 -0.7054  0.2605
 3776TIP3    H132887   3.240   5.120   8.044  0.8704  0.0640  0.9240
 3776TIP3    H232888   3.181   5.260   8.051  1.8842  0.5335  0.3408
 3777TIP3   OH232889   0.833   3.233   1.011 -0.6430 -0.5740 -0.9100
 3777TIP3    H132890   0.744   3.203   1.028 -0.1493 -1.0380  1.2512
 3777TIP3    H232891   0.887   3.154   1.017  0.2563  0.1163  1.2825
 3778TIP3   OH232892   2.515   3.738   6.293  0.3593 -0.6228  0.2967
 3778TIP3    H132893   2.546   3.813   6.242 -0.9615  0.4487  1.0005
 3778TIP3    H232894   2.553   3.662   6.249 -0.1654  0.3035 -1.8963
 3779TIP3   OH232895   3.713   2.776   7.643 -0.3083  0.1402 -0.6874
 3779TIP3    H132896   3.637   2.801   7.695  0.3636  1.3798 -0.2528
 3779TIP3    H232897   3.677   2.751   7.558 -1.1279  2.0612 -0.9477
 3780TIP3   OH232898   2.306   6.630   2.740 -0.1331  0.3841  0.6826
 3780TIP3    H132899   2.214   6.650   2.725  0.0536 -0.3870 -1.8555
 3780TIP3    H232900   2.352   6.713   2.727 -0.0740 -0.0629 -2.6907
 3781TIP3   OH232901   6.667   4.048   1.211 -0.1658 -0.5086  0.1165
 3781TIP3    H132902   6.579   4.080   1.190  0.0175  0.2899  0.5368
 3781TIP3    H232903   6.652   3.967   1.259 -0.6337 -1.3479 -1.3682
 3782TIP3   OH232904   4.334   3.263   8.431  0.0667 -0.7355  0.9667
 3782TIP3    H132905   4.382   3.181   8.422  1.5810 -0.1810  3.1442
 3782TIP3    H232906   4.397   3.324   8.468 -1.3845  1.0666  0.6324
 3783TIP3   OH232907   3.254   2.350   6.987 -0.1234 -0.3804  0.2146
 3783TIP3    H132908   3.266   2.425   6.929 -1.9992 -0.1217  0.0929
 3783TIP3    H232909   3.341   2.333   7.022  0.1704  2.8633  1.4851
 3784TIP3   OH232910   6.059   5.925   8.229  0.5646  0.0029 -0.4862
 3784TIP3    H132911   6.103   5.852   8.272 -1.3858 -0.2083  1.3207
 3784TIP3    H232912   6.093   5.924   8.140  3.6661 -0.5139  0.5733
 3785TIP3   OH232913   0.678   0.038   1.190  0.1465  0.2777 -0.3690
 3785TIP3    H132914   0.675   0.113   1.250  1.1116 -1.2017  1.6798
 3785TIP3    H232915   0.655  -0.037   1.246  0.2494 -1.0842 -2.0839
 3786TIP3   OH232916   2.805   1.324   0.377  0.6292 -0.3486  0.1313
 3786TIP3    H132917   2.792   1.236   0.412 -0.1340  0.2507  1.4507
 3786TIP3    H232918   2.759   1.381   0.438  0.5322  0.9170 -1.0604
 3787TIP3   OH232919   0.303   0.076   7.412 -0.0548 -0.2530  0.0002
 3787TIP3    H132920   0.308   0.079   7.507 -0.6414 -0.9114  0.0606
 3787TIP3    H232921   0.245   0.002   7.393  0.7566 -0.6983 -0.8828
 3788TIP3   OH232922   3.267   0.690   1.434 -0.5220 -0.6602  0.2984
 3788TIP3    H132923   3.290   0.653   1.519 -0.2095  0.3399  0.6546
 3788TIP3    H232924   3.340   0.747   1.411 -1.0200 -0.2145 -0.2136
 3789TIP3   OH232925   1.411   6.344   2.933 -0.3632  0.5290 -0.1011
 3789TIP3    H132926   1.416   6.249   2.924  1.1875  0.6446 -0.6310
 3789TIP3    H232927   1.450   6.362   3.018  0.4377  0.7850 -0.5203
 3790TIP3   OH232928   2.477   3.113   7.317 -0.6998  0.2159  0.2632
 3790TIP3    H132929   2.509   3.125   7.228 -2.5352 -1.8910 -0.7933
 3790TIP3    H232930   2.551   3.075   7.365  0.1226  0.7963 -0.5142
 3791TIP3   OH232931   3.515   1.070   1.297  0.0084  0.0711  0.9401
 3791TIP3    H132932   3.422   1.087   1.277  0.1681 -1.5709 -1.6505
 3791TIP3    H232933   3.516   0.983   1.336  0.5278 -0.4671 -0.2227
 3792TIP3   OH232934   1.086   2.519   1.394  0.1443 -0.5346 -0.4599
 3792TIP3    H132935   0.994   2.493   1.384 -0.7865  1.5305  1.5739
 3792TIP3    H232936   1.107   2.565   1.313 -1.1953  0.3570 -0.3430
 3793TIP3   OH232937   2.325   4.575   1.594 -0.7116  0.3141  0.3342
 3793TIP3    H132938   2.399   4.528   1.555 -1.6636 -0.9932  0.0661
 3793TIP3    H232939   2.345   4.578   1.688 -0.1198  0.3496  0.2096
 3794TIP3   OH232940   1.351   5.548   2.544  0.3084  0.0806  0.4304
 3794TIP3    H132941   1.279   5.488   2.522  0.6585 -0.1091 -0.2372
 3794TIP3    H232942   1.311   5.613   2.601 -0.2889 -0.2891  0.4427
 3795TIP3   OH232943   5.666   1.535   1.764  0.4780  0.1090  0.3542
 3795TIP3    H132944   5.638   1.516   1.674 -1.2207  2.1458  0.3533
 3795TIP3    H232945   5.762   1.536   1.760  0.4393 -0.4498 -1.2972
 3796TIP3   OH232946   3.412   5.768   8.292  0.3979 -0.1908  0.4978
 3796TIP3    H132947   3.499   5.787   8.256  0.0044  0.9674  0.0972
 3796TIP3    H232948   3.359   5.749   8.215  0.0677  0.0873  0.6579
 3797TIP3   OH232949   6.720   0.579   1.361 -1.0699  0.1121  0.4295
 3797TIP3    H132950   6.695   0.489   1.339  1.9606 -1.2095  1.8408
 3797TIP3    H232951   6.669   0.600   1.439 -0.2490 -1.2213  1.3500
 3798TIP3   OH232952   3.540   5.195   8.017  0.3071 -0.6822  0.0066
 3798TIP3    H132953   3.535   5.102   8.040 -1.3177 -0.6203  0.0282
 3798TIP3    H232954   3.473   5.237   8.072 -0.0387  0.2692 -1.0991
 3799TIP3   OH232955   2.140   4.453   7.037  0.3171 -0.1121 -0.1558
 3799TIP3    H132956   2.086   4.390   6.989 -1.8737  0.0630  1.8621
 3799TIP3    H232957   2.194   4.400   7.095  0.3243 -0.2245 -0.2658
 3800TIP3   OH232958   6.600   4.471   6.975 -0.0412  0.1240 -0.1553
 3800TIP3    H132959   6.595   4.379   6.999 -0.3750  0.0467 -0.5201
 3800TIP3    H232960   6.542   4.480   6.899  1.4056  0.2448 -1.2988
 3801TIP3   OH232961   3.131   2.801   6.858 -0.6594  0.0081  0.0681
 3801TIP3    H132962   3.088   2.716   6.860  1.2512 -1.0286 -0.1364
 3801TIP3    H232963   3.149   2.821   6.950 -0.0644 -0.4035  0.0495
 3802TIP3   OH232964   2.751   3.438   1.329 -0.7401 -0.1446 -0.6265
 3802TIP3    H132965   2.720   3.350   1.310 -1.6741  0.3983 -1.8357
 3802TIP3    H232966   2.783   3.434   1.419  0.0952 -1.9210 -0.9712
 3803TIP3   OH232967   4.161   2.459   8.398 -0.1931  0.2589 -0.5273
 3803TIP3    H132968   4.125   2.522   8.335  0.2436  0.1564 -0.8833
 3803TIP3    H232969   4.245   2.433   8.361 -0.3790 -0.5538 -0.3961
 3804TIP3   OH232970   5.438   1.805   7.374  0.3807  0.3622  0.3169
 3804TIP3    H132971   5.511   1.750   7.346  0.0950  0.1670 -0.0697
 3804TIP3    H232972   5.465   1.840   7.459  0.9097  0.2783  0.1875
 3805TIP3   OH232973   1.960   2.234   6.048  0.0879 -0.2692 -0.0392
 3805TIP3    H132974   1.959   2.260   6.140  1.6704 -1.9568  0.5231
 3805TIP3    H232975   1.966   2.316   6.000  1.9138  0.5795  1.5100
 3806TIP3   OH232976   2.179   3.838   1.266  0.4203  0.0133  0.8698
 3806TIP3    H132977   2.166   3.887   1.185  1.7113 -0.2326  0.4892
 3806TIP3    H232978   2.238   3.767   1.242 -0.4293 -1.0032  1.6938
 3807TIP3   OH232979   4.755   1.654   0.869  0.0112  0.6603 -0.1347
 3807TIP3    H132980   4.758   1.745   0.842 -0.1170  0.2106 -1.7713
 3807TIP3    H232981   4.663   1.629   0.862 -0.1648  0.7109  1.5075
 3808TIP3   OH232982   4.476   0.010   1.462 -0.2976 -0.2258  0.1444
 3808TIP3    H132983   4.426   0.091   1.465 -1.1077 -0.5747 -1.9408
 3808TIP3    H232984   4.434  -0.041   1.392  2.3517 -0.9662 -1.0165
 3809TIP3   OH232985   1.614   5.435   2.040  0.1537 -0.1805 -0.2355
 3809TIP3    H132986   1.541   5.391   1.996  0.5001 -2.1368  1.0019
 3809TIP3    H232987   1.614   5.523   2.004 -2.0006 -0.5130 -1.2251
 3810TIP3   OH232988   6.241   0.584   6.181  0.3536  0.0495 -0.0550
 3810TIP3    H132989   6.164   0.639   6.175 -0.0944 -0.7498 -3.3386
 3810TIP3    H232990   6.309   0.632   6.133  0.6105 -1.1620 -0.9501
 3811TIP3   OH232991   6.544   3.587   1.322 -0.6510  0.1183 -0.0112
 3811TIP3    H132992   6.536   3.682   1.309 -1.3215 -0.1202 -1.6028
 3811TIP3    H232993   6.522   3.574   1.414 -0.8227  1.4842  0.1654
 3812TIP3   OH232994   5.726   6.271   6.810 -0.4156 -0.1989 -0.4760
 3812TIP3    H132995   5.660   6.320   6.761 -0.4293  2.8561  2.3016
 3812TIP3    H232996   5.767   6.214   6.744 -2.9571  0.8185 -3.1336
 3813TIP3   OH232997   2.701   3.701   1.295  0.2990 -0.3926  0.4959
 3813TIP3    H132998   2.739   3.613   1.292  2.1467  0.3357  0.8351
 3813TIP3    H232999   2.679   3.715   1.387 -3.1176 -1.6643 -0.0021
 3814TIP3   OH233000   0.521   0.461   0.079 -0.3750 -0.2461  0.2609
 3814TIP3    H133001   0.569   0.455  -0.003 -0.5495 -0.4927  0.1765
 3814TIP3    H233002   0.474   0.544   0.074  0.9782  0.5996  0.8548
 3815TIP3   OH233003   4.820   2.493   8.128 -0.2616 -0.3591 -0.2358
 3815TIP3    H133004   4.749   2.435   8.100  1.2268 -1.9607 -0.9072
 3815TIP3    H233005   4.874   2.505   8.050  0.2839  0.7320  0.2814
 3816TIP3   OH233006   3.718   3.935   6.966 -0.2471  0.0240 -0.3174
 3816TIP3    H133007   3.722   3.975   6.880 -3.7888 -1.1922 -1.2393
 3816TIP3    H233008   3.644   3.978   7.010 -0.3372 -1.3278  0.9635
 3817TIP3   OH233009   3.090   2.205   0.938  0.0057  0.3049 -0.0070
 3817TIP3    H133010   3.035   2.196   0.860 -0.7441 -0.8345  0.6197
 3817TIP3    H233011   3.062   2.287   0.978 -1.3843 -0.3235  0.3764
 3818TIP3   OH233012   6.091   4.681   7.522 -0.0549 -0.0662 -0.0215
 3818TIP3    H133013   6.114   4.589   7.522  1.0224  0.1269 -2.1342
 3818TIP3    H233014   6.149   4.721   7.586  1.5372 -0.4743 -1.1458
 3819TIP3   OH233015   0.850   5.704   1.837  0.0001  0.0785 -0.4611
 3819TIP3    H133016   0.901   5.663   1.908 -1.0158 -0.0079  0.2439
 3819TIP3    H233017   0.915   5.747   1.783  0.7049  1.8402  1.6184
 3820TIP3   OH233018   0.615   6.428   7.827  0.3590  0.2287 -0.5337
 3820TIP3    H133019   0.568   6.435   7.910 -0.3247  0.4480 -0.9284
 3820TIP3    H233020   0.704   6.405   7.852  0.0865 -0.0345  0.2447
 3821TIP3   OH233021   5.789   5.949   1.170  0.1335 -0.2765 -0.1563
 3821TIP3    H133022   5.746   6.024   1.212 -0.1206 -1.3678  1.6334
 3821TIP3    H233023   5.882   5.970   1.174  0.2741 -1.0683  2.6020
 3822TIP3   OH233024   5.802   2.214   7.891  0.2196  0.4909  1.1851
 3822TIP3    H133025   5.744   2.284   7.861  0.8935  0.4637 -0.2394
 3822TIP3    H233026   5.769   2.192   7.978 -0.5728  1.9407  1.2831
 3823TIP3   OH233027   1.779   0.209   6.354 -0.0965 -0.1567 -0.3169
 3823TIP3    H133028   1.759   0.247   6.268  0.2186  0.0349 -0.3119
 3823TIP3    H233029   1.694   0.192   6.394 -0.2556 -0.9810 -0.9806
 3824TIP3   OH233030   4.360   1.405   0.023  0.1600  0.0084  0.1415
 3824TIP3    H133031   4.360   1.475  -0.042  1.2133  2.4504  2.5741
 3824TIP3    H233032   4.435   1.350  -0.001  1.1879  1.4801 -0.1603
 3825TIP3   OH233033   3.464   2.821   7.197  0.6957  0.2169 -0.0797
 3825TIP3    H133034   3.500   2.815   7.108  0.0829  0.3590 -0.3434
 3825TIP3    H233035   3.527   2.876   7.244  0.4599  1.0752 -0.7317
 3826TIP3   OH233036   1.058   0.424   8.139 -0.7635  0.1870 -0.0305
 3826TIP3    H133037   1.048   0.406   8.046  1.4720  0.6849 -0.4205
 3826TIP3    H233038   1.042   0.339   8.181 -1.2419 -0.1648 -0.8928
 3827TIP3   OH233039   1.222   0.644   7.425  0.4321 -0.0695  0.1330
 3827TIP3    H133040   1.317   0.643   7.437  0.3154  1.6342  1.6767
 3827TIP3    H233041   1.205   0.723   7.373  0.0042 -1.7415 -2.4612
 3828TIP3   OH233042   0.303   3.045   8.236  0.3203 -0.0020  0.2718
 3828TIP3    H133043   0.251   2.985   8.183 -0.1110  0.0718  0.6098
 3828TIP3    H233044   0.281   3.023   8.327  0.5455  0.3251  0.4106
 3829TIP3   OH233045   2.227   3.823   0.365  0.0461  0.5897  0.2265
 3829TIP3    H133046   2.141   3.863   0.346  0.7802  1.5870 -1.2234
 3829TIP3    H233047   2.263   3.875   0.436  0.0272  1.0938 -0.1226
 3830TIP3   OH233048   3.643   2.612   8.318 -0.5398 -0.9520 -0.6786
 3830TIP3    H133049   3.553   2.643   8.327 -0.1317  0.4227 -0.9647
 3830TIP3    H233050   3.659   2.562   8.397 -0.7194  1.0872  0.7288
 3831TIP3   OH233051   2.704   4.407   0.421 -0.5607  0.7550 -0.0233
 3831TIP3    H133052   2.615   4.371   0.425 -0.7797  1.3411  3.6233
 3831TIP3    H233053   2.703   4.479   0.483  2.2576  1.4381 -0.6430
 3832TIP3   OH233054   5.795   0.475   7.804 -0.0879 -0.2331  0.4920
 3832TIP3    H133055   5.878   0.436   7.832 -1.0836 -1.4118  2.0242
 3832TIP3    H233056   5.749   0.493   7.886 -2.2502 -1.7415 -0.3055
 3833TIP3   OH233057   5.943   5.588   1.869 -0.0204 -0.3185 -0.5222
 3833TIP3    H133058   5.855   5.599   1.834 -0.2916 -1.3057 -0.1839
 3833TIP3    H233059   5.960   5.668   1.919 -0.5941  0.0169 -0.8579
 3834TIP3   OH233060   4.785   6.141   7.076  0.3774 -0.5259 -0.3637
 3834TIP3    H133061   4.795   6.234   7.093 -0.0056 -0.4981 -0.2874
 3834TIP3    H233062   4.772   6.135   6.981 -3.8325 -0.0913  0.0074
 3835TIP3   OH233063   3.831   0.795   8.169 -0.6197  0.2786 -0.0039
 3835TIP3    H133064   3.772   0.723   8.192  0.4526 -0.2973  1.0773
 3835TIP3    H233065   3.908   0.782   8.225 -0.4071  2.3071  0.2651
 3836TIP3   OH233066   5.297   5.867   7.949 -0.3134 -0.1322  0.4838
 3836TIP3    H133067   5.344   5.830   7.874  0.6455 -0.0110  1.0162
 3836TIP3    H233068   5.208   5.833   7.940 -0.0558 -0.6114 -0.3703
 3837TIP3   OH233069   1.596   0.471   7.955  0.3094  0.0608 -0.1503
 3837TIP3    H133070   1.643   0.549   7.983 -0.2033  0.4286 -0.3123
 3837TIP3    H233071   1.526   0.503   7.899  0.9029 -0.6148 -1.3077
 3838TIP3   OH233072   4.585   0.148   0.647  0.4001  0.4924 -0.8978
 3838TIP3    H133073   4.644   0.200   0.593  0.0609  0.9269 -0.8585
 3838TIP3    H233074   4.612   0.058   0.632  1.3631  0.7061 -0.5365
 3839TIP3   OH233075   1.256   3.230   0.040  0.4926  0.3865  0.3742
 3839TIP3    H133076   1.298   3.163  -0.015 -1.0339 -0.2233 -0.0839
 3839TIP3    H233077   1.163   3.210   0.036 -0.0214  2.5762  0.2046
 3840TIP3   OH233078   6.472   2.085   6.846  0.4324  0.0144  0.3068
 3840TIP3    H133079   6.404   2.020   6.834 -0.1969  0.5176  1.0314
 3840TIP3    H233080   6.427   2.169   6.839  1.0275  0.3592  0.5038
 3841TIP3   OH233081   1.877   2.831   1.971 -0.1199 -0.0812  0.2544
 3841TIP3    H133082   1.944   2.897   1.956  1.1051 -1.3917 -0.1825
 3841TIP3    H233083   1.889   2.804   2.062 -0.2435 -0.1165  0.2613
 3842TIP3   OH233084   0.354   5.552   1.867 -0.4158 -0.3542 -0.6823
 3842TIP3    H133085   0.449   5.569   1.868 -0.3399 -0.6624 -1.4163
 3842TIP3    H233086   0.329   5.570   1.776 -0.9933 -0.6449 -0.5788
 3843TIP3   OH233087   6.128   1.784   8.137 -0.5670 -0.3851 -0.1462
 3843TIP3    H133088   6.212   1.761   8.098  0.1051  0.3866  0.7850
 3843TIP3    H233089   6.099   1.704   8.181  0.4459 -0.2347  0.8321
 3844TIP3   OH233090   0.331   4.390   2.261 -0.5981  0.4679 -0.3003
 3844TIP3    H133091   0.305   4.482   2.262 -0.0826  0.6243 -0.5197
 3844TIP3    H233092   0.258   4.343   2.300  0.0956  1.2224  2.1141
 3845TIP3   OH233093   3.132   5.273   0.504  0.2562 -0.5683 -0.6361
 3845TIP3    H133094   3.144   5.269   0.599  0.7691  0.0885 -0.6641
 3845TIP3    H233095   3.158   5.186   0.473 -0.3111 -0.9226 -0.1412
 3846TIP3   OH233096   6.371   1.462   7.771  0.2668 -0.7650  0.3288
 3846TIP3    H133097   6.400   1.550   7.795 -0.0972 -0.2032 -1.1790
 3846TIP3    H233098   6.426   1.404   7.824 -0.7822  0.3428  2.7877
 3847TIP3   OH233099   4.463   2.031   6.005 -0.6144 -0.2182 -0.7935
 3847TIP3    H133100   4.397   2.098   5.986 -0.6244 -0.3101 -1.0891
 3847TIP3    H233101   4.531   2.045   5.938  0.1505  0.5175  0.1015
 3848TIP3   OH233102   6.278   4.647   1.702  0.4937 -0.2557 -0.1206
 3848TIP3    H133103   6.359   4.600   1.682  0.5379  0.1711 -0.9874
 3848TIP3    H233104   6.307   4.726   1.748  0.5283 -0.3629  0.0417
 3849TIP3   OH233105   6.220   4.215   8.265  0.2588 -0.1087  0.2421
 3849TIP3    H133106   6.169   4.193   8.343  0.9401  0.3861  0.8500
 3849TIP3    H233107   6.226   4.133   8.216 -1.4347 -0.0881 -0.0519
 3850TIP3   OH233108   6.482   5.298   1.635 -0.2769  0.5617 -0.1075
 3850TIP3    H133109   6.505   5.306   1.727 -1.1494 -1.0580  0.3024
 3850TIP3    H233110   6.523   5.215   1.608 -1.7415 -0.0525 -0.5721
 3851TIP3   OH233111   4.542   0.712   7.237 -0.2660  0.8439  0.0622
 3851TIP3    H133112   4.619   0.678   7.283 -1.0604 -0.1882  0.6851
 3851TIP3    H233113   4.500   0.770   7.300 -0.6945  0.3781  0.2174
 3852TIP3   OH233114   3.079   0.695   8.198 -0.7808  0.5828  0.1994
 3852TIP3    H133115   3.044   0.678   8.286 -2.6208  0.6839 -0.4802
 3852TIP3    H233116   3.045   0.624   8.145 -1.1230  1.4629 -0.7885
 3853TIP3   OH233117   1.831   0.892   8.526 -0.0534  0.4660 -0.0930
 3853TIP3    H133118   1.902   0.837   8.559 -0.1332  0.4944  0.1239
 3853TIP3    H233119   1.752   0.839   8.538 -0.1867  0.7986  0.5196
 3854TIP3   OH233120   3.902   1.319   0.584 -0.6416  0.4790  0.7596
 3854TIP3    H133121   3.835   1.353   0.524  1.2208  1.0847 -1.0814
 3854TIP3    H233122   3.906   1.225   0.566  1.8080  1.0089 -2.2648
 3855TIP3   OH233123   6.370   1.483   6.412  0.2892 -0.1006 -0.8238
 3855TIP3    H133124   6.455   1.487   6.455  0.9506  0.0689 -2.0905
 3855TIP3    H233125   6.352   1.389   6.404  0.6119 -0.1476 -1.0207
 3856TIP3   OH233126   1.468   1.344   0.409  0.3019  0.4442 -0.2194
 3856TIP3    H133127   1.389   1.355   0.463  0.6847 -0.1117  0.4624
 3856TIP3    H233128   1.469   1.422   0.352 -0.4159  0.7498  0.1727
 3857TIP3   OH233129   4.906   3.268   0.427 -0.1245  0.6117 -0.4126
 3857TIP3    H133130   4.882   3.176   0.433  0.0333  0.4624 -1.8968
 3857TIP3    H233131   4.995   3.268   0.391  0.4721  1.3121  0.9617
 3858TIP3   OH233132   3.609   5.261   6.066 -0.0700 -0.3024  0.4736
 3858TIP3    H133133   3.589   5.209   5.989  1.0252  0.0106 -0.0503
 3858TIP3    H233134   3.700   5.289   6.052 -0.3487  1.0047  1.1491
 3859TIP3   OH233135   0.943   4.813   8.361 -0.0373 -0.0926 -0.3634
 3859TIP3    H133136   0.975   4.735   8.407 -0.0821  0.7941  1.2542
 3859TIP3    H233137   0.888   4.779   8.291 -0.8198 -1.5212  0.8813
 3860TIP3   OH233138   2.500   6.528   0.816 -0.1308 -0.1804 -0.3038
 3860TIP3    H133139   2.592   6.527   0.791 -0.6257  1.3541 -2.5223
 3860TIP3    H233140   2.459   6.460   0.762 -0.6142  0.5723 -0.9037
 3861TIP3   OH233141   1.825   5.562   7.894  0.0806 -0.4160 -0.4165
 3861TIP3    H133142   1.920   5.558   7.882  0.2235  3.7308 -2.0894
 3861TIP3    H233143   1.813   5.573   7.989  1.2865 -0.6523 -0.2249
 3862TIP3   OH233144   1.163   4.249   7.084 -0.0244  0.8579 -0.1699
 3862TIP3    H133145   1.252   4.275   7.056  0.4643 -0.0655  0.4905
 3862TIP3    H233146   1.115   4.239   7.002  0.1382  2.4909 -0.5108
 3863TIP3   OH233147   4.813   4.944   6.208 -0.2406 -0.1458  0.1456
 3863TIP3    H133148   4.816   4.848   6.213  1.5275 -0.1816 -0.7055
 3863TIP3    H233149   4.901   4.969   6.180 -1.3637  1.5561 -2.3090
 3864TIP3   OH233150   4.901   4.485   8.510  0.0184  0.1524  0.2712
 3864TIP3    H133151   4.808   4.496   8.530 -0.1597 -0.5197 -0.1434
 3864TIP3    H233152   4.920   4.551   8.444  0.0431  0.8368  0.9527
 3865TIP3   OH233153   3.991   2.426   0.536 -0.3880 -0.0405  0.0546
 3865TIP3    H133154   3.942   2.480   0.475 -0.1357  1.7226  1.3309
 3865TIP3    H233155   4.069   2.399   0.487 -0.6586  0.5256 -0.7062
 3866TIP3   OH233156   2.740   4.973   7.108 -0.4482 -0.1965 -0.0414
 3866TIP3    H133157   2.721   4.880   7.107 -1.0652 -0.0766 -0.1581
 3866TIP3    H233158   2.727   5.000   7.199 -1.5713  0.0175 -0.2441
 3867TIP3   OH233159   3.163   1.183   8.299 -0.2741 -0.0423 -0.8274
 3867TIP3    H133160   3.207   1.120   8.356  1.0586 -0.8458 -2.6298
 3867TIP3    H233161   3.111   1.129   8.239  0.3462  0.5708 -1.9602
 3868TIP3   OH233162   5.455   5.514   0.080 -0.3665  0.0856 -0.4953
 3868TIP3    H133163   5.402   5.593   0.066 -0.7126  0.2760  1.5534
 3868TIP3    H233164   5.391   5.446   0.101  0.0333 -0.3354 -0.6353
 3869TIP3   OH233165   3.223   1.709   7.950  0.4205  0.4479 -0.7359
 3869TIP3    H133166   3.211   1.800   7.922  0.2497 -0.2393 -3.1372
 3869TIP3    H233167   3.134   1.678   7.966  0.4691  0.6644 -0.0412
 3870TIP3   OH233168   4.959   1.944   5.839  0.1926 -0.8403 -0.3331
 3870TIP3    H133169   4.950   1.877   5.907 -0.8572 -1.3485 -0.9536
 3870TIP3    H233170   5.051   1.971   5.844  0.1298 -0.8382  1.3014
 3871TIP3   OH233171   4.224   4.925   0.865  1.0234  0.2740  0.0734
 3871TIP3    H133172   4.176   4.999   0.827  2.0823  1.3793  0.8225
 3871TIP3    H233173   4.281   4.895   0.795  0.7032  0.2546 -0.1840
 3872TIP3   OH233174   0.695   4.259   2.089  0.1009 -0.2871 -0.1461
 3872TIP3    H133175   0.720   4.170   2.113  1.0217 -1.5142 -4.6902
 3872TIP3    H233176   0.775   4.310   2.100  0.8122 -1.0572 -1.4990
 3873TIP3   OH233177   5.723   2.811   6.607  0.2679  0.2818 -0.1140
 3873TIP3    H133178   5.752   2.801   6.516 -1.8342  2.0619 -1.0718
 3873TIP3    H233179   5.708   2.721   6.637  3.4427 -0.5279 -0.5810
 3874TIP3   OH233180   6.661   6.818   0.783 -0.3238 -0.2291 -0.0377
 3874TIP3    H133181   6.572   6.792   0.806 -0.8687  0.3601 -1.3731
 3874TIP3    H233182   6.653   6.908   0.752  0.5724 -0.4867 -1.0849
 3875TIP3   OH233183   4.221   2.867   0.675  0.1802  0.1447  0.3782
 3875TIP3    H133184   4.293   2.896   0.729 -0.9264  2.6159  0.6639
 3875TIP3    H233185   4.152   2.843   0.737 -0.5221  1.4304  0.1288
 3876TIP3   OH233186   2.796   2.800   8.418 -0.7971  0.3718  0.7973
 3876TIP3    H133187   2.782   2.779   8.510 -1.7063  0.5704  0.7134
 3876TIP3    H233188   2.735   2.743   8.371 -0.9126  0.8439  0.3717
 3877TIP3   OH233189   6.209   4.999   0.442  0.0428 -0.1703  0.0939
 3877TIP3    H133190   6.121   4.986   0.406 -0.4527  0.9248  0.8401
 3877TIP3    H233191   6.213   4.940   0.517  0.8331 -1.9558 -1.2689
 3878TIP3   OH233192   0.460   5.023   2.083  0.4673  0.3194 -0.8818
 3878TIP3    H133193   0.522   4.983   2.144  0.5094  0.0336 -1.1055
 3878TIP3    H233194   0.510   5.035   2.002 -0.1816 -1.4766 -1.6269
 3879TIP3   OH233195   3.133   5.800   7.602  0.0382 -0.3682  0.0469
 3879TIP3    H133196   3.175   5.850   7.532 -1.1505  0.1860 -0.2966
 3879TIP3    H233197   3.152   5.708   7.581  0.7450 -0.1536 -0.2934
 3880TIP3   OH233198   6.441   2.306   7.445 -0.3626  0.0765 -0.6865
 3880TIP3    H133199   6.462   2.215   7.423 -1.3659 -0.5234  0.6935
 3880TIP3    H233200   6.346   2.310   7.444 -0.3240  1.2021 -1.0191
 3881TIP3   OH233201   0.846   2.245   7.194  0.4887 -0.3579  0.0537
 3881TIP3    H133202   0.923   2.231   7.139  1.0351 -1.2882  1.0036
 3881TIP3    H233203   0.776   2.195   7.152  0.4333  0.3384 -0.7090
 3882TIP3   OH233204   6.707   3.074   0.812 -0.5848  0.1797  0.1224
 3882TIP3    H133205   6.775   3.142   0.818  0.5543 -0.8628 -0.4561
 3882TIP3    H233206   6.670   3.085   0.724 -0.5780  0.2104  0.1233
 3883TIP3   OH233207   6.733   1.068   6.943  0.1083  0.3327  0.0041
 3883TIP3    H133208   6.681   1.105   7.014 -0.6073  0.5948 -0.6374
 3883TIP3    H233209   6.766   0.985   6.977 -1.1683 -0.0886  0.2641
 3884TIP3   OH233210   4.502   0.125   6.810 -0.2516  0.3275  0.6851
 3884TIP3    H133211   4.457   0.183   6.871  0.0766  0.2829  0.9672
 3884TIP3    H233212   4.584   0.170   6.789  0.3059 -0.3305  1.4109
 3885TIP3   OH233213   6.400   2.579   0.980  0.1063  0.3869  0.1346
 3885TIP3    H133214   6.462   2.625   1.037 -0.7052 -0.5194  1.8175
 3885TIP3    H233215   6.431   2.598   0.891  2.4698  0.3944  0.8913
 3886TIP3   OH233216   2.796   2.862   6.716  0.3930  0.5269  0.0863
 3886TIP3    H133217   2.786   2.778   6.759  0.1867  1.2051  1.4112
 3886TIP3    H233218   2.706   2.895   6.705  0.3933  0.0649 -1.5169
 3887TIP3   OH233219   2.118   0.949   7.622 -0.1749 -0.2282 -0.1717
 3887TIP3    H133220   2.165   1.017   7.574 -0.1740 -0.0651  0.0550
 3887TIP3    H233221   2.141   0.868   7.578  0.9688 -0.2485  0.4295
 3888TIP3   OH233222   5.630   0.419   2.023  0.1711 -0.0823  0.1191
 3888TIP3    H133223   5.648   0.326   2.039  1.1252  0.2465  1.0613
 3888TIP3    H233224   5.694   0.445   1.957  0.6921  0.1823  0.7219
 3889TIP3   OH233225   5.045   1.144   1.487  0.7193  0.0648 -0.0305
 3889TIP3    H133226   5.085   1.072   1.438  1.8227 -0.3102  1.3523
 3889TIP3    H233227   5.101   1.220   1.470 -0.3910  0.6131 -1.4131
 3890TIP3   OH233228   1.218   5.396   8.204  0.0238  0.3350  0.5691
 3890TIP3    H133229   1.301   5.352   8.221  0.4920  0.5191 -1.0271
 3890TIP3    H233230   1.233   5.445   8.123 -2.1372 -1.0816 -0.8043
 3891TIP3   OH233231   2.399   3.713   1.160  0.2990 -0.1710 -0.5588
 3891TIP3    H133232   2.419   3.625   1.193 -0.1792 -0.5440 -1.2251
 3891TIP3    H233233   2.461   3.770   1.204  0.0217 -0.7203  0.5732
 3892TIP3   OH233234   5.745   2.672   6.938 -0.3999  0.4560 -0.1956
 3892TIP3    H133235   5.753   2.739   7.006  0.9420  1.3375 -1.1715
 3892TIP3    H233236   5.829   2.675   6.891 -0.9159 -0.8102 -1.2597
 3893TIP3   OH233237   4.596   0.944   1.911 -0.6693  0.5005  0.3050
 3893TIP3    H133238   4.528   0.877   1.912 -0.4046  0.2116 -0.1762
 3893TIP3    H233239   4.677   0.895   1.897 -0.5240  0.9573 -0.5149
 3894TIP3   OH233240   4.850   3.528   0.873  1.3357 -0.1751  0.3157
 3894TIP3    H133241   4.856   3.445   0.826  3.1835  1.7189 -3.1995
 3894TIP3    H233242   4.933   3.535   0.920  0.8821 -0.5657  1.2069
 3895TIP3   OH233243   5.147   3.321   0.210  0.0721  0.3293 -0.6473
 3895TIP3    H133244   5.093   3.243   0.197 -1.6414  1.1182  1.1659
 3895TIP3    H233245   5.174   3.317   0.301 -0.1399  1.8913 -0.4911
 3896TIP3   OH233246   2.762   5.638   1.395  0.5034  0.2937 -0.9555
 3896TIP3    H133247   2.667   5.647   1.397  0.5793  1.4386  1.2612
 3896TIP3    H233248   2.795   5.727   1.414  2.0575  0.0893 -2.3902
 3897TIP3   OH233249   4.702   1.549   0.247  0.1125 -0.4284  0.4173
 3897TIP3    H133250   4.787   1.590   0.260  0.1416 -0.5166  0.5024
 3897TIP3    H233251   4.673   1.581   0.161  0.1609 -0.2755  0.4577
 3898TIP3   OH233252   0.939   1.828   1.208 -0.2061 -0.1975  0.0616
 3898TIP3    H133253   0.845   1.849   1.205 -0.4284 -0.4807  2.6388
 3898TIP3    H233254   0.981   1.909   1.236  0.0427 -0.6200  0.9566
 3899TIP3   OH233255   1.851   4.902   0.958  0.1194 -0.6583 -0.3977
 3899TIP3    H133256   1.893   4.980   0.995 -0.2358 -0.9680  0.7262
 3899TIP3    H233257   1.824   4.928   0.870  1.6105 -0.0931 -0.7151
 3900TIP3   OH233258   4.576   1.505   8.334  0.7588  1.1592  0.0664
 3900TIP3    H133259   4.497   1.555   8.313  0.3862  0.3176 -0.6375
 3900TIP3    H233260   4.635   1.521   8.261 -0.4419 -1.5739 -1.6653
 3901TIP3   OH233261   0.874   3.483   6.995 -0.1892 -0.2506 -0.4416
 3901TIP3    H133262   0.801   3.544   6.995  0.8795  1.1098 -1.7728
 3901TIP3    H233263   0.833   3.397   6.982 -1.6435  0.2672  0.5009
 3902TIP3   OH233264   3.484   4.284   1.196 -0.0737  0.5640  0.4899
 3902TIP3    H133265   3.495   4.364   1.145 -0.9440  0.1827 -0.3450
 3902TIP3    H233266   3.403   4.245   1.162 -0.0047 -0.3476  1.3142
 3903TIP3   OH233267   2.565   1.901   6.889  0.5005 -0.1336 -0.3504
 3903TIP3    H133268   2.629   1.832   6.905 -0.6671 -0.9213  1.1833
 3903TIP3    H233269   2.541   1.932   6.976 -0.1434  1.1611 -0.9569
 3904TIP3   OH233270   6.264   5.200   8.486 -0.1324 -0.0476  0.3151
 3904TIP3    H133271   6.304   5.133   8.430  0.0916 -0.5384  1.0489
 3904TIP3    H233272   6.185   5.158   8.521 -1.0456  0.7455 -0.7305
 3905TIP3   OH233273   1.320   1.730   1.767  0.2647 -0.1435  0.0573
 3905TIP3    H133274   1.347   1.781   1.844  1.8116 -1.3779  0.4019
 3905TIP3    H233275   1.260   1.665   1.802 -1.2872  1.0464 -0.2947
 3906TIP3   OH233276   3.405   1.042   6.877 -0.1565  0.1402 -0.6512
 3906TIP3    H133277   3.313   1.045   6.848 -0.5620 -1.1724  0.3867
 3906TIP3    H233278   3.422   1.129   6.911 -2.0733 -0.4041  2.0454
 3907TIP3   OH233279   5.297   3.189   7.936 -0.5491 -0.3465  0.0496
 3907TIP3    H133280   5.238   3.118   7.962  0.5727 -0.8720  1.2717
 3907TIP3    H233281   5.285   3.255   8.005 -0.5534  0.0494 -0.3301
 3908TIP3   OH233282   0.589   3.930   2.355  0.2751  0.3079 -0.5221
 3908TIP3    H133283   0.663   3.922   2.415 -0.1374 -2.1911 -0.2167
 3908TIP3    H233284   0.629   3.941   2.269  0.9115  1.5335 -0.1006
 3909TIP3   OH233285   0.230   0.614   8.279 -0.4451  0.0080 -0.6483
 3909TIP3    H133286   0.135   0.626   8.270 -0.3191  0.6859 -1.2063
 3909TIP3    H233287   0.245   0.611   8.373 -0.9304  0.8330 -0.5280
 3910TIP3   OH233288   1.930   2.545   2.100 -0.0638 -0.3949  0.7182
 3910TIP3    H133289   1.936   2.619   2.161  0.1603  0.5247 -0.3848
 3910TIP3    H233290   1.837   2.524   2.098 -0.0036 -0.8584  1.8422
 3911TIP3   OH233291   1.543   4.839   7.334 -0.6618 -0.6467  0.3302
 3911TIP3    H133292   1.475   4.899   7.304  0.1862 -0.2283 -0.8369
 3911TIP3    H233293   1.592   4.889   7.399 -1.2579 -0.8322  0.9277
 3912TIP3   OH233294   0.660   1.622   1.214  0.2589 -0.2165  0.6096
 3912TIP3    H133295   0.664   1.711   1.250 -2.8401  0.2149  0.1384
 3912TIP3    H233296   0.618   1.570   1.283 -0.5647 -0.6509 -0.1933
 3913TIP3   OH233297   0.853   2.271   0.114 -0.0447 -0.3941 -0.2033
 3913TIP3    H133298   0.815   2.190   0.080  2.4051 -1.6694 -0.0840
 3913TIP3    H233299   0.922   2.242   0.173 -0.5130  1.8041  1.5760
 3914TIP3   OH233300   5.791   3.187   2.563  0.1398  0.3141  0.1362
 3914TIP3    H133301   5.882   3.156   2.563  0.6684  1.6903 -1.4249
 3914TIP3    H233302   5.755   3.153   2.481 -0.1345  1.3589 -0.1941
 3915TIP3   OH233303   5.787   1.916   6.924 -0.2839 -0.9132 -0.1035
 3915TIP3    H133304   5.718   1.914   6.990 -1.6941 -0.4410 -1.5294
 3915TIP3    H233305   5.828   1.829   6.931 -0.5122 -0.9369  1.2551
 3916TIP3   OH233306   4.915   0.952   0.891 -0.1894  0.3241 -0.0835
 3916TIP3    H133307   4.835   0.936   0.941 -0.2697 -0.3246 -0.4083
 3916TIP3    H233308   4.956   1.027   0.934 -0.4978  0.0743  0.6586
 3917TIP3   OH233309   0.322   4.738   1.621 -0.1887  0.4980  0.1415
 3917TIP3    H133310   0.310   4.794   1.544  1.3885  0.0546 -0.4726
 3917TIP3    H233311   0.413   4.754   1.648 -0.3845 -0.1666  1.2523
 3918TIP3   OH233312   1.285   2.518   7.106  0.1529  0.0844 -0.2546
 3918TIP3    H133313   1.316   2.579   7.039 -0.2442  0.2702 -0.2747
 3918TIP3    H233314   1.257   2.574   7.178 -0.7823 -0.0246 -0.5080
 3919TIP3   OH233315   4.538   2.829   0.573 -0.1034 -0.0334 -0.0438
 3919TIP3    H133316   4.477   2.878   0.627  1.1633  0.1841  1.2458
 3919TIP3    H233317   4.582   2.895   0.520 -0.5495 -0.1278 -0.5423
 3920TIP3   OH233318   0.322   2.243   7.125  0.0293 -0.5997 -0.1552
 3920TIP3    H133319   0.412   2.258   7.096  0.9369 -0.9153  2.3124
 3920TIP3    H233320   0.311   2.148   7.123 -1.0450 -0.4925 -2.5070
 3921TIP3   OH233321   2.623   1.401   1.210  0.1742 -0.5506  0.2769
 3921TIP3    H133322   2.712   1.437   1.214 -0.0384 -0.0145  0.2508
 3921TIP3    H233323   2.621   1.334   1.278  0.4735 -0.2851  0.5508
 3922TIP3   OH233324   2.656   5.939   7.511 -0.0002  0.0429  0.2245
 3922TIP3    H133325   2.647   5.976   7.423 -2.0603  0.2045  0.4498
 3922TIP3    H233326   2.644   6.014   7.570  1.1007 -0.1099  0.6693
 3923TIP3   OH233327   2.429   1.058   8.171  0.3756  0.0027  0.3252
 3923TIP3    H133328   2.373   1.076   8.095  2.6728 -2.8460 -2.2769
 3923TIP3    H233329   2.438   1.143   8.214 -4.8879  0.8772  0.3668
 3924TIP3   OH233330   4.171   0.349   7.364  0.1350 -0.0037 -0.3281
 3924TIP3    H133331   4.183   0.408   7.290  1.4431 -0.4460 -0.4984
 3924TIP3    H233332   4.227   0.275   7.345 -0.6658 -0.8218  0.3971
 3925TIP3   OH233333   3.455   3.677   7.322 -0.1029  0.1541  0.0958
 3925TIP3    H133334   3.543   3.639   7.327  0.4213  1.0206 -1.5973
 3925TIP3    H233335   3.452   3.718   7.236 -2.2154  0.0809  0.0786
 3926TIP3   OH233336   5.350   1.270   1.160  0.2207  0.3492  0.0250
 3926TIP3    H133337   5.375   1.285   1.252  1.0012 -2.5730  0.4166
 3926TIP3    H233338   5.430   1.289   1.111  0.4946 -0.1984  0.2419
 3927TIP3   OH233339   6.598   2.643   6.520 -0.4288  0.1467 -0.2038
 3927TIP3    H133340   6.541   2.627   6.445  0.1698 -1.1356 -0.4053
 3927TIP3    H233341   6.595   2.563   6.571 -0.4747  0.8470  0.9258
 3928TIP3   OH233342   3.493   5.918   7.625  0.3259  0.3891 -0.1232
 3928TIP3    H133343   3.554   5.991   7.609  0.9000 -0.5115 -2.3829
 3928TIP3    H233344   3.544   5.840   7.605 -1.1588 -0.4726 -0.6425
 3929TIP3   OH233345   3.102   0.347   7.687  0.3000  0.1983 -0.4105
 3929TIP3    H133346   3.007   0.347   7.698  0.5513  1.6348  3.5327
 3929TIP3    H233347   3.123   0.435   7.655  0.3532  0.2220 -0.3119
 3930TIP3   OH233348   2.996   6.664   0.755  0.3869 -0.2819 -0.5858
 3930TIP3    H133349   2.966   6.750   0.783  0.0250 -0.5143 -0.2529
 3930TIP3    H233350   3.009   6.673   0.660 -0.4311 -0.0878 -0.6884
 3931TIP3   OH233351   5.258   2.224   8.313 -0.0859  0.9363 -0.6723
 3931TIP3    H133352   5.199   2.278   8.261 -1.3976  1.6376  1.3804
 3931TIP3    H233353   5.211   2.142   8.326  0.6769  0.3634 -1.4092
 3932TIP3   OH233354   3.934   3.790   1.166 -0.1266  0.3745 -0.0760
 3932TIP3    H133355   4.006   3.747   1.119  0.9971  1.5770  0.4850
 3932TIP3    H233356   3.925   3.740   1.247  0.8111  0.8313  0.3304
 3933TIP3   OH233357   2.671   0.637   7.665 -0.4250 -0.0346  0.7060
 3933TIP3    H133358   2.644   0.726   7.690  0.6925  0.9016 -1.2093
 3933TIP3    H233359   2.601   0.581   7.699 -1.1909  1.5658  1.9257
 3934TIP3   OH233360   2.639   4.005   7.748 -0.7717 -0.4798  0.2491
 3934TIP3    H133361   2.595   3.920   7.735  1.0626 -1.0945 -2.9742
 3934TIP3    H233362   2.732   3.985   7.743 -0.2591  1.6199  0.4902
 3935TIP3   OH233363   4.135   1.257   6.569 -0.1925  0.0400 -0.3801
 3935TIP3    H133364   4.040   1.247   6.571 -0.3096  0.5236 -2.0601
 3935TIP3    H233365   4.151   1.326   6.505  1.3164 -0.2596 -0.3679
 3936TIP3   OH233366   5.575   0.264   0.989 -0.3139  0.4165  0.5229
 3936TIP3    H133367   5.658   0.294   1.026 -1.3094  0.8081  2.5911
 3936TIP3    H233368   5.508   0.297   1.050 -1.9126 -0.7368 -0.5276
 3937TIP3   OH233369   1.784   0.201   1.188 -0.4428  0.2582 -0.5072
 3937TIP3    H133370   1.869   0.190   1.147 -0.4847 -1.7440 -0.1962
 3937TIP3    H233371   1.773   0.121   1.241 -1.9389  1.0731  0.4831
 3938TIP3   OH233372   0.476   2.300   0.208 -0.3077 -0.3095 -0.1627
 3938TIP3    H133373   0.398   2.338   0.250 -0.6026 -2.0263  0.9129
 3938TIP3    H233374   0.441   2.231   0.152  0.3582 -0.2003 -0.7192
 3939TIP3   OH233375   5.295   2.267   6.370 -0.4018 -0.1963  0.7900
 3939TIP3    H133376   5.309   2.284   6.276  1.3069 -1.9337  0.6852
 3939TIP3    H233377   5.287   2.355   6.408 -1.2158  0.5563 -0.9521
 3940TIP3   OH233378   1.016   3.165   1.640 -0.4878  0.5260  0.1211
 3940TIP3    H133379   0.976   3.090   1.596  0.4515  1.5158 -2.6515
 3940TIP3    H233380   0.957   3.238   1.622 -0.7694  0.7337  1.7504
 3941TIP3   OH233381   1.377   1.981   7.629 -0.2905  0.1573  0.6864
 3941TIP3    H133382   1.281   1.987   7.629 -0.3955 -0.9793  1.9605
 3941TIP3    H233383   1.406   2.055   7.681 -0.3592  1.2821 -0.7821
 3942TIP3   OH233384   4.745   3.893   0.705 -0.0307  0.3551  0.0545
 3942TIP3    H133385   4.690   3.823   0.668 -1.0319  1.0992  0.0654
 3942TIP3    H233386   4.822   3.895   0.649  0.6304 -1.5983  0.8313
 3943TIP3   OH233387   1.838   6.331   7.887  0.4560  0.0784  0.2643
 3943TIP3    H133388   1.850   6.250   7.837  0.0430  0.6197 -0.7291
 3943TIP3    H233389   1.809   6.301   7.974  0.9930 -0.8617  0.1392
 3944TIP3   OH233390   1.714   1.382   1.824 -0.1408 -0.1065  0.1719
 3944TIP3    H133391   1.723   1.290   1.846  0.2472  0.1212  1.0351
 3944TIP3    H233392   1.619   1.397   1.820 -0.2434 -0.1993  1.6593
 3945TIP3   OH233393   6.222   2.691   6.368 -0.2649  0.2542  0.3511
 3945TIP3    H133394   6.306   2.654   6.340 -0.6224  0.3718 -0.9304
 3945TIP3    H233395   6.165   2.615   6.379  0.1147  0.1327  1.6903
 3946TIP3   OH233396   4.111   2.447   0.822  0.4117 -0.3931 -0.0560
 3946TIP3    H133397   4.182   2.511   0.814  1.1499 -1.2519 -0.6425
 3946TIP3    H233398   4.054   2.464   0.747 -1.1671  1.6207  1.4906
 3947TIP3   OH233399   5.851   5.938   2.297 -0.1929  0.0137  0.2644
 3947TIP3    H133400   5.943   5.925   2.272 -0.6318 -0.8453 -1.0108
 3947TIP3    H233401   5.818   5.851   2.316 -1.2736  0.0236 -1.3213
 3948TIP3   OH233402   3.941   2.561   7.111  0.6007  0.7786  0.0127
 3948TIP3    H133403   3.941   2.471   7.077 -1.1934 -0.1440  2.1763
 3948TIP3    H233404   3.998   2.557   7.187  0.0492  1.3117  0.4646
 3949TIP3   OH233405   6.150   6.315   1.305  0.2593 -0.3504  0.5026
 3949TIP3    H133406   6.072   6.316   1.361  0.3943  2.0706  0.7729
 3949TIP3    H233407   6.223   6.318   1.366  0.5231 -1.1713  0.2302
 3950TIP3   OH233408   4.065   2.951   6.191 -0.1517  0.0665 -0.0851
 3950TIP3    H133409   3.983   2.997   6.175 -1.0430 -1.2238  0.5847
 3950TIP3    H233410   4.130   3.020   6.203 -1.7449  1.2581  2.6161
 3951TIP3   OH233411   1.246   5.518   0.125  0.3123  0.3177 -0.7265
 3951TIP3    H133412   1.247   5.448   0.191  0.2603  1.4404  0.5206
 3951TIP3    H233413   1.196   5.588   0.166 -2.3176  0.0176 -3.1316
 3952TIP3   OH233414   5.733   4.022   6.932  0.3785  0.4857  0.0091
 3952TIP3    H133415   5.824   3.996   6.935  0.2711 -0.4276 -2.2938
 3952TIP3    H233416   5.684   3.940   6.923 -0.5164  1.0464 -0.4427
 3953TIP3   OH233417   4.381   0.739   0.930 -0.3727 -0.1284 -0.3650
 3953TIP3    H133418   4.295   0.696   0.934 -1.6641  2.3235  3.0324
 3953TIP3    H233419   4.386   0.791   1.010  3.4254  1.5715 -1.4584
 3954TIP3   OH233420   5.508   5.750   1.948  0.2300 -0.0769 -0.4139
 3954TIP3    H133421   5.552   5.803   2.014  1.0898 -0.8926 -0.3117
 3954TIP3    H233422   5.489   5.667   1.991  2.0841 -1.1631 -1.5306
 3955TIP3   OH233423   3.135   5.005   0.100 -0.0063  0.0360 -0.0248
 3955TIP3    H133424   3.206   4.974   0.045  0.7336  1.2397  0.2044
 3955TIP3    H233425   3.055   4.982   0.052  0.5893  0.1532 -1.1011
 3956TIP3   OH233426   2.844   1.148   7.301 -0.7158  0.0014  0.6630
 3956TIP3    H133427   2.911   1.209   7.270 -1.7119  0.0224 -1.6399
 3956TIP3    H233428   2.778   1.204   7.342  0.0165  0.1095  1.7135
 3957TIP3   OH233429   1.675   6.252   1.249 -0.3336  0.3843  0.2833
 3957TIP3    H133430   1.677   6.280   1.157  0.0662 -0.5973 -0.0218
 3957TIP3    H233431   1.590   6.211   1.260  0.2218 -0.9359 -0.1156
 3958TIP3   OH233432   0.147   1.520   7.611  0.7430  0.4536 -0.1274
 3958TIP3    H133433   0.211   1.567   7.664  0.9919  0.2266 -0.2200
 3958TIP3    H233434   0.200   1.471   7.548  0.4525  0.6189 -0.4968
 3959TIP3   OH233435   0.796   3.939   0.182 -0.6057 -0.4751  0.5909
 3959TIP3    H133436   0.849   3.861   0.164 -0.2218  0.1182 -0.9384
 3959TIP3    H233437   0.727   3.937   0.116 -0.4777  0.5899  0.4186
 3960TIP3   OH233438   1.406   3.600   7.440 -0.1408  0.1239  0.2447
 3960TIP3    H133439   1.335   3.664   7.442 -0.1471  0.1942 -1.2920
 3960TIP3    H233440   1.369   3.522   7.482 -1.0945  0.1929 -0.4481
 3961TIP3   OH233441   0.866   5.962   7.558 -0.7530  0.2547  0.1085
 3961TIP3    H133442   0.771   5.951   7.557 -0.6897 -0.6062  1.5123
 3961TIP3    H233443   0.894   5.926   7.642  0.9199 -0.4375 -0.6896
 3962TIP3   OH233444   1.288   1.364   8.494 -0.6165 -0.1528 -0.4450
 3962TIP3    H133445   1.222   1.382   8.427 -1.4301  0.6605  0.5447
 3962TIP3    H233446   1.252   1.290   8.543  0.5885 -1.6230 -1.6643
 3963TIP3   OH233447   1.700   4.711   7.641 -0.5966  0.3435 -0.3468
 3963TIP3    H133448   1.727   4.673   7.724  2.1331  0.4972 -1.0586
 3963TIP3    H233449   1.696   4.637   7.581 -1.1177  0.4251 -0.4163
 3964TIP3   OH233450   1.804   6.246   0.824  0.2491 -0.1925 -0.5396
 3964TIP3    H133451   1.791   6.154   0.846  2.3981 -0.4593 -0.1445
 3964TIP3    H233452   1.836   6.246   0.734 -2.9208  0.4757 -1.7688
 3965TIP3   OH233453   3.734   6.560   1.777  0.3044 -0.0103 -0.2337
 3965TIP3    H133454   3.809   6.605   1.816 -0.0180  1.3619 -1.1159
 3965TIP3    H233455   3.767   6.529   1.693 -0.1562  0.7898 -0.7215
 3966TIP3   OH233456   6.290   3.184   7.090  0.2623 -0.0825 -0.1210
 3966TIP3    H133457   6.249   3.170   7.005 -0.9245  1.4594  0.1482
 3966TIP3    H233458   6.295   3.097   7.130  2.2091 -1.0742 -2.3098
 3967TIP3   OH233459   0.243   5.826   2.041 -0.5115  0.5993  0.1063
 3967TIP3    H133460   0.265   5.764   1.972 -1.6356 -0.0212  0.2854
 3967TIP3    H233461   0.296   5.903   2.021  1.5416 -0.6684  0.3546
 3968TIP3   OH233462   4.915   2.726   0.120 -0.5982  0.0574 -0.3282
 3968TIP3    H133463   4.979   2.663   0.088 -2.2067 -2.0996  0.4685
 3968TIP3    H233464   4.932   2.806   0.069  1.8384 -0.8146 -1.0163
 3969TIP3   OH233465   2.308   4.611   1.227 -0.0398  0.2500 -0.5659
 3969TIP3    H133466   2.347   4.679   1.282 -0.7888 -0.1049  0.4402
 3969TIP3    H233467   2.222   4.646   1.204 -0.0085  0.0918 -0.9181
 3970TIP3   OH233468   1.564   1.312   7.870 -0.4096 -0.0463  0.2441
 3970TIP3    H133469   1.471   1.312   7.845 -0.3734  1.1181  0.0390
 3970TIP3    H233470   1.563   1.303   7.966 -0.6882 -0.9608  0.1634
 3971TIP3   OH233471   3.069   0.309   6.698 -0.5267 -0.0293 -0.3838
 3971TIP3    H133472   2.980   0.342   6.697 -0.3227  0.5549  0.0249
 3971TIP3    H233473   3.100   0.318   6.608 -0.4885  0.8757 -0.2888
 3972TIP3   OH233474   3.646   3.967   0.201  0.2255 -0.5530 -0.1918
 3972TIP3    H133475   3.713   3.990   0.136  2.1161 -1.3357  1.3764
 3972TIP3    H233476   3.629   3.874   0.185  0.9412 -0.8318  0.6064
 3973TIP3   OH233477   4.728   2.200   7.576  0.2983 -1.2330 -0.1355
 3973TIP3    H133478   4.745   2.293   7.594  2.3312 -1.5932 -0.0485
 3973TIP3    H233479   4.738   2.157   7.661 -2.2213 -1.3810  0.1546
 3974TIP3   OH233480   5.306   0.339   0.406  0.0056  0.4296  0.9268
 3974TIP3    H133481   5.222   0.378   0.431  0.5540  2.8860 -0.7150
 3974TIP3    H233482   5.305   0.340   0.310  2.1250  1.0484  0.8732
 3975TIP3   OH233483   0.835   0.990   0.319 -0.2096  0.2606  0.5102
 3975TIP3    H133484   0.845   1.035   0.402 -0.8589  2.0195 -0.3178
 3975TIP3    H233485   0.781   0.913   0.339  1.5934 -0.6871  2.0995
 3976TIP3   OH233486   2.117   5.432   0.705 -0.7630  0.7381 -0.0991
 3976TIP3    H133487   2.081   5.430   0.617 -2.9412  0.5591  0.7441
 3976TIP3    H233488   2.086   5.352   0.746 -1.1992  1.6133  1.3465
 3977TIP3   OH233489   0.759   2.075   8.091  0.1669  0.1026  0.1940
 3977TIP3    H133490   0.754   1.990   8.047  1.4199 -0.0800  0.3820
 3977TIP3    H233491   0.845   2.076   8.133  0.1140  1.4026  0.3188
 3978TIP3   OH233492   0.854   1.412   2.485  0.2887 -0.2721 -0.0925
 3978TIP3    H133493   0.828   1.332   2.531 -1.2626 -0.4101 -1.1370
 3978TIP3    H233494   0.840   1.392   2.392  2.2767  0.3793 -0.5961
 3979TIP3   OH233495   5.324   2.782   8.271  0.2445 -0.4163 -0.0516
 3979TIP3    H133496   5.281   2.861   8.239  0.3593 -0.4586 -0.3090
 3979TIP3    H233497   5.324   2.722   8.197  0.5221 -0.5101  0.0211
 3980TIP3   OH233498   3.708   5.460   1.716  0.4073  0.1052  0.0621
 3980TIP3    H133499   3.633   5.467   1.775  0.4481  2.4731 -0.0593
 3980TIP3    H233500   3.783   5.488   1.769  0.8448 -0.1183 -0.4273
 3981TIP3   OH233501   5.554   3.798   7.315 -0.6026  0.2796  0.3779
 3981TIP3    H133502   5.486   3.837   7.370 -2.3353 -0.5183 -1.0842
 3981TIP3    H233503   5.520   3.712   7.291 -0.3141  0.8640 -2.5200
 3982TIP3   OH233504   3.839   0.367   8.424  0.6093  0.1530  0.4767
 3982TIP3    H133505   3.776   0.316   8.372  0.6135 -1.2956  1.8172
 3982TIP3    H233506   3.919   0.365   8.372  0.6956 -1.5017  0.6001
 3983TIP3   OH233507   5.822   6.287   2.255  0.0854 -0.4361 -0.0906
 3983TIP3    H133508   5.903   6.318   2.213 -0.8224 -0.2416 -1.8062
 3983TIP3    H233509   5.786   6.365   2.298 -0.1569 -0.0247 -1.0004
 3984TIP3   OH233510   1.541   1.160   2.515  0.1968 -0.2361  0.1995
 3984TIP3    H133511   1.549   1.170   2.610 -0.5650 -0.3112  0.2826
 3984TIP3    H233512   1.596   1.228   2.479 -0.4938  0.6169  0.7147
 3985TIP3   OH233513   2.309   1.901   7.389 -0.3886  0.0224  0.1134
 3985TIP3    H133514   2.316   1.921   7.482 -0.7537  2.9141 -0.4010
 3985TIP3    H233515   2.372   1.830   7.375 -0.0307 -0.2029  2.4577
 3986TIP3   OH233516   5.213   3.307   0.500 -0.0051 -0.1657  0.5507
 3986TIP3    H133517   5.210   3.231   0.559  0.3264 -0.6310 -0.0238
 3986TIP3    H233518   5.305   3.330   0.495 -0.2342  1.1458  1.7978
 3987TIP3   OH233519   1.617   1.269   8.534 -0.4825 -0.4879  0.1522
 3987TIP3    H133520   1.588   1.347   8.487  0.4174 -1.4254 -2.1122
 3987TIP3    H233521   1.553   1.202   8.510 -1.0260 -0.5956  1.7663
 3988TIP3   OH233522   0.344   5.455   2.662 -0.0275 -0.0225 -0.3137
 3988TIP3    H133523   0.338   5.429   2.754 -1.8319  3.4820  0.7404
 3988TIP3    H233524   0.423   5.508   2.657  0.3901 -0.6853 -0.9802
 3989TIP3   OH233525   0.105   4.846   0.756  0.2917 -0.3346 -0.5762
 3989TIP3    H133526   0.168   4.783   0.792  2.1036  1.1021 -1.0594
 3989TIP3    H233527   0.101   4.824   0.663 -0.2390 -0.6627 -0.4796
 3990TIP3   OH233528   2.590   0.015   7.287  0.1883 -0.6754  0.4759
 3990TIP3    H133529   2.628  -0.043   7.221  1.5134  0.0537  0.5679
 3990TIP3    H233530   2.659   0.078   7.306 -0.9073  0.3812  1.0484
 3991TIP3   OH233531   1.088   5.602   6.784 -0.1292  0.3155 -0.5053
 3991TIP3    H133532   1.023   5.672   6.793  1.5134  1.8847 -0.2572
 3991TIP3    H233533   1.172   5.647   6.784  1.0038 -1.6734 -0.4854
 3992TIP3   OH233534   1.820   6.878   7.549  0.0393 -0.5261  0.2701
 3992TIP3    H133535   1.775   6.926   7.480 -2.0788 -0.9519  1.2742
 3992TIP3    H233536   1.912   6.879   7.523 -0.4525  0.8450 -1.6152
 3993TIP3   OH233537   3.668   2.224   7.166  0.3959 -0.2985  0.1491
 3993TIP3    H133538   3.642   2.283   7.236  1.1974 -0.0127  0.2229
 3993TIP3    H233539   3.604   2.239   7.097 -1.4649 -1.8382  1.4299
 3994TIP3   OH233540   1.754   5.966   1.707 -1.2448  0.0364  0.2279
 3994TIP3    H133541   1.746   6.058   1.682 -0.6615  0.5312  1.7184
 3994TIP3    H233542   1.664   5.937   1.721 -1.3804  1.3729  2.8949
 3995TIP3   OH233543   5.577   0.447   7.396 -0.0408  0.0197 -0.2203
 3995TIP3    H133544   5.490   0.443   7.357 -0.6067  1.0899  0.8761
 3995TIP3    H233545   5.625   0.509   7.340 -0.1108 -0.2523 -0.5819
 3996TIP3   OH233546   1.628   2.003   0.027 -0.4763 -0.2425 -0.5690
 3996TIP3    H133547   1.710   1.975  -0.014  1.0119 -0.1650  2.1645
 3996TIP3    H233548   1.613   2.091  -0.008  2.7989  1.3985  1.6707
 3997TIP3   OH233549   3.529   0.336   8.312 -0.4153  0.3348  0.0358
 3997TIP3    H133550   3.524   0.296   8.399  0.4612 -1.6132 -0.7597
 3997TIP3    H233551   3.474   0.414   8.319  0.0645  0.5584  2.4894
 3998TIP3   OH233552   2.126   3.422   8.456  0.3273 -0.0489  0.5720
 3998TIP3    H133553   2.118   3.338   8.411 -0.7094  0.3734 -0.0752
 3998TIP3    H233554   2.129   3.399   8.549  0.4575 -0.8242  0.3817
 3999TIP3   OH233555   4.085   3.913   7.345 -0.0289  0.0293 -0.5040
 3999TIP3    H133556   4.069   3.845   7.410  0.5387  1.6680  1.4461
 3999TIP3    H233557   4.180   3.912   7.332 -0.0889  0.0311 -0.9659
 4000TIP3   OH233558   0.789   0.230   7.972  0.2701  0.1098  0.4860
 4000TIP3    H133559   0.777   0.233   7.877 -1.8023  1.4844  0.7276
 4000TIP3    H233560   0.708   0.190   8.005  0.4908  0.6435  1.7461
 4001TIP3   OH233561   3.372   6.208   8.126 -0.3546 -0.0275  0.8599
 4001TIP3    H133562   3.374   6.281   8.064 -2.0079 -0.6099  0.0502
 4001TIP3    H233563   3.322   6.240   8.201 -0.9090 -0.2457  0.5904
 4002TIP3   OH233564   0.202   5.713   7.413 -0.1936  0.0627 -0.5134
 4002TIP3    H133565   0.291   5.698   7.382  1.1232 -0.1327  2.9627
 4002TIP3    H233566   0.200   5.805   7.439 -1.0862  0.1038 -0.6849
 4003TIP3   OH233567   4.915   6.280   7.981  0.4486  0.5090  0.1099
 4003TIP3    H133568   4.984   6.216   7.963  1.1917  1.1759  0.5237
 4003TIP3    H233569   4.960   6.352   8.025 -0.4941  1.0196  0.2613
 4004TIP3   OH233570   5.875   0.795   6.930  0.3787  0.5740  0.6798
 4004TIP3    H133571   5.891   0.858   6.860 -0.5775  0.9470  0.7948
 4004TIP3    H233572   5.786   0.764   6.915  0.6049 -0.2716  1.0081
 4005TIP3   OH233573   5.036   4.332   7.054 -0.5514  0.3243  0.1032
 4005TIP3    H133574   4.991   4.333   7.139  0.0604 -0.1412  0.4372
 4005TIP3    H233575   5.127   4.354   7.074 -0.3637  0.0375 -0.4100
 4006TIP3   OH233576   2.467   3.897   1.505 -0.5232 -0.0719  0.3804
 4006TIP3    H133577   2.529   3.824   1.500 -1.1423 -0.5231 -1.7180
 4006TIP3    H233578   2.384   3.857   1.531 -0.4250  0.2094  1.1479
 4007TIP3   OH233579   2.515   2.271   8.551  0.1458  0.0263  0.1373
 4007TIP3    H133580   2.599   2.253   8.593  0.4551  1.6149  0.2614
 4007TIP3    H233581   2.517   2.218   8.470  1.2943  0.1062  0.0984
 4008TIP3   OH233582   1.457   0.230   7.844  0.3865 -0.7808 -0.9360
 4008TIP3    H133583   1.402   0.291   7.894  2.2100 -0.5273  0.8878
 4008TIP3    H233584   1.471   0.273   7.760  0.1203  0.4599 -0.3626
 4009TIP3   OH233585   6.634   5.003   8.297 -0.0103  0.4356 -0.0052
 4009TIP3    H133586   6.699   5.073   8.300  0.0634  0.4539 -1.4222
 4009TIP3    H233587   6.684   4.922   8.309  0.0035  0.5580  0.8405
 4010TIP3   OH233588   5.415   1.794   0.305  0.0322  0.8676 -0.0680
 4010TIP3    H133589   5.325   1.799   0.336  0.1178  0.3151  0.2888
 4010TIP3    H233590   5.450   1.714   0.345  0.6514  1.0276 -0.2729
 4011TIP3   OH233591   0.177   3.419   0.740  0.2306  0.1574  0.3433
 4011TIP3    H133592   0.232   3.486   0.779  1.1795 -0.3970  0.0023
 4011TIP3    H233593   0.234   3.376   0.676 -0.4238 -0.8053  0.3863
 4012TIP3   OH233594   6.646   5.963   0.714 -0.1925 -0.1945  0.4759
 4012TIP3    H133595   6.619   6.009   0.635  0.0278 -0.6339  0.1389
 4012TIP3    H233596   6.715   5.903   0.685  0.8790  0.6212  1.2482
 4013TIP3   OH233597   6.620   6.781   1.303 -0.1752 -0.2173  0.4602
 4013TIP3    H133598   6.691   6.818   1.356 -1.0498  1.1471  0.7293
 4013TIP3    H233599   6.597   6.850   1.241  1.2574 -2.0034 -2.2382
 4014TIP3   OH233600   4.585   1.280   8.489 -0.0164  0.2639 -0.1903
 4014TIP3    H133601   4.553   1.208   8.433  0.1473  1.2022 -1.5480
 4014TIP3    H233602   4.584   1.356   8.431  2.6979  0.7566  0.3129
 4015TIP3   OH233603   6.813   2.750   7.566 -0.2871  0.8975  0.1245
 4015TIP3    H133604   6.862   2.805   7.506  1.1819 -0.3716  0.1086
 4015TIP3    H233605   6.723   2.780   7.559  0.2312  2.2281 -1.0430
 4016TIP3   OH233606   4.137   2.544   7.325  0.1463  0.1490 -0.5637
 4016TIP3    H133607   4.211   2.485   7.313  0.3495  0.1431  0.6111
 4016TIP3    H233608   4.091   2.510   7.402 -0.6434  0.6005 -0.8223
 4017TIP3   OH233609   1.569   1.776   8.276 -0.0733 -0.6545 -0.3288
 4017TIP3    H133610   1.651   1.757   8.230  0.2240 -1.9717  0.6862
 4017TIP3    H233611   1.597   1.816   8.359 -0.4779 -0.8467 -0.0976
 4018TIP3   OH233612   4.547   5.290   0.590  0.0952  0.2079 -0.2261
 4018TIP3    H133613   4.524   5.369   0.639 -2.2010 -1.3040  1.2857
 4018TIP3    H233614   4.643   5.286   0.595  0.0652  0.5615  3.5824
 4019TIP3   OH233615   4.142   6.265   6.725 -0.4789 -0.4735  0.1477
 4019TIP3    H133616   4.231   6.232   6.711 -0.7249 -0.2984 -2.2980
 4019TIP3    H233617   4.155   6.350   6.768  0.7097  0.5028 -1.9862
 4020TIP3   OH233618   6.175   4.913   1.303 -0.1293 -0.5168 -0.3382
 4020TIP3    H133619   6.147   4.948   1.218 -1.5857  2.7299  1.3063
 4020TIP3    H233620   6.235   4.979   1.337  0.6496 -1.9076  1.0887
 4021TIP3   OH233621   1.220   4.960   2.483  0.1427 -0.4246 -0.3835
 4021TIP3    H133622   1.260   5.046   2.495 -1.1268  0.4452 -1.9816
 4021TIP3    H233623   1.140   4.963   2.537 -0.6114 -0.0523 -1.4807
 4022TIP3   OH233624   3.683   5.062   6.677  0.3733 -0.1005  0.2607
 4022TIP3    H133625   3.702   5.131   6.614  1.2507 -0.9547 -0.4285
 4022TIP3    H233626   3.637   4.995   6.627  0.3071 -0.4054  0.7244
 4023TIP3   OH233627   6.722   0.345   7.080 -0.1574 -0.9415  0.3626
 4023TIP3    H133628   6.696   0.432   7.112  2.7611 -0.1532  0.9192
 4023TIP3    H233629   6.689   0.342   6.990  0.6456  1.2800 -0.0840
 4024TIP3   OH233630   3.551   4.487   8.029 -0.1791 -0.2131  0.7148
 4024TIP3    H133631   3.601   4.534   7.962  0.7784 -2.1274  0.0084
 4024TIP3    H233632   3.474   4.542   8.045  1.1413  1.8207  0.3486
 4025TIP3   OH233633   0.971   2.962   7.012  0.0477  0.2700 -0.2934
 4025TIP3    H133634   1.060   2.971   6.978  0.6319 -1.6116  0.5767
 4025TIP3    H233635   0.922   2.919   6.942  1.0883 -3.0190  0.8161
 4026TIP3   OH233636   3.434   3.978   6.802 -0.9676  0.3920  0.2295
 4026TIP3    H133637   3.484   4.004   6.725 -0.0923  0.1403  0.6987
 4026TIP3    H233638   3.397   3.892   6.780  0.0775 -0.1257  0.4307
 4027TIP3   OH233639   3.935   5.983   6.456  0.6307  0.1070  0.1208
 4027TIP3    H133640   3.991   5.905   6.455 -0.5073 -0.7210 -0.7656
 4027TIP3    H233641   3.846   5.949   6.447 -0.1712  1.3124  2.6215
 4028TIP3   OH233642   4.872   5.216   6.896 -0.2860 -0.9104 -0.0756
 4028TIP3    H133643   4.908   5.158   6.964 -2.5727 -2.9024 -0.3943
 4028TIP3    H233644   4.915   5.188   6.815  0.5092 -0.3398  0.1370
 4029TIP3   OH233645   4.410   3.985   1.528 -0.4273  0.0737  0.2787
 4029TIP3    H133646   4.332   3.958   1.577  0.1138 -0.6388  0.7913
 4029TIP3    H233647   4.482   3.971   1.590  0.2350 -0.4426 -0.5826
 4030TIP3   OH233648   0.822   4.012   8.383 -0.1893  0.2542 -0.2785
 4030TIP3    H133649   0.840   3.925   8.346  0.3430 -0.1559  0.8998
 4030TIP3    H233650   0.742   4.001   8.434 -0.6153  0.6825 -0.8446
 4031TIP3   OH233651   4.035   4.804   7.256  0.7068 -0.4996 -1.0419
 4031TIP3    H133652   3.984   4.883   7.274 -0.3391 -1.2078 -0.8086
 4031TIP3    H233653   3.971   4.742   7.222  1.6777 -0.9689 -2.0453
 4032TIP3   OH233654   5.350   0.929   5.871  0.2325 -0.0443 -0.8337
 4032TIP3    H133655   5.267   0.882   5.865  0.4191 -0.3390 -1.1360
 4032TIP3    H233656   5.325   1.021   5.878 -0.2622 -0.2995  2.5753
 4033TIP3   OH233657   0.816   3.001   1.491  0.1755 -0.5921  0.0381
 4033TIP3    H133658   0.767   3.081   1.473  0.4099 -0.5141 -0.2571
 4033TIP3    H233659   0.763   2.931   1.454  0.2112 -0.5246 -0.1402
 4034TIP3   OH233660   1.754   0.011   1.460  0.5728 -0.0311  0.4382
 4034TIP3    H133661   1.742   0.065   1.538 -0.4349 -0.4652  0.6066
 4034TIP3    H233662   1.839   0.036   1.426  0.4294  1.1603  0.9048
 4035TIP3   OH233663   3.202   1.675   0.472 -0.0152  0.1495  0.3796
 4035TIP3    H133664   3.151   1.594   0.478  0.6331 -0.2494  0.5513
 4035TIP3    H233665   3.215   1.689   0.378  1.5509 -1.0209  0.3884
 4036TIP3   OH233666   0.027   0.748   7.151  0.5071 -0.3237 -0.3967
 4036TIP3    H133667   0.023   0.797   7.069  0.2600  1.2714  0.5065
 4036TIP3    H233668   0.040   0.657   7.125  0.1507  0.1005 -2.1984
 4037TIP3   OH233669   5.182   3.276   1.114  0.2363  0.1641  0.8057
 4037TIP3    H133670   5.180   3.180   1.107  0.1566  0.2533 -0.9674
 4037TIP3    H233671   5.196   3.293   1.207 -1.9175 -1.5409  1.5443
 4038TIP3   OH233672   5.613   1.441   7.051 -0.1734 -0.0617  0.0496
 4038TIP3    H133673   5.630   1.509   6.986  0.2575 -0.1846  0.0298
 4038TIP3    H233674   5.589   1.489   7.131 -1.8588  0.0713 -0.5040
 4039TIP3   OH233675   5.813   1.312   0.482  0.7514  0.0604  0.4489
 4039TIP3    H133676   5.805   1.242   0.418  3.8408 -1.3986  1.4538
 4039TIP3    H233677   5.855   1.384   0.435  0.5409  0.0175  0.1948
 4040TIP3   OH233678   5.439   5.830   1.630 -0.3305 -0.4090  0.1342
 4040TIP3    H133679   5.414   5.740   1.610  1.3227 -0.9626  0.3825
 4040TIP3    H233680   5.487   5.824   1.712 -1.2819  0.8973  0.8158
 4041TIP3   OH233681   6.467   3.395   7.119 -0.3787 -0.3520 -0.2482
 4041TIP3    H133682   6.395   3.333   7.118 -0.4265 -0.3415 -2.2606
 4041TIP3    H233683   6.437   3.468   7.065  1.0313 -0.2565 -0.9722
 4042TIP3   OH233684   5.768   2.493   0.221 -0.2373  0.2546 -0.4763
 4042TIP3    H133685   5.742   2.434   0.150 -1.0186 -0.3188  0.2667
 4042TIP3    H233686   5.744   2.580   0.189 -0.3764  0.0246 -1.0135
 4043TIP3   OH233687   5.804   6.094   1.979 -0.3114 -0.0610  0.4235
 4043TIP3    H133688   5.879   6.144   1.947  0.0245  0.3734  1.8164
 4043TIP3    H233689   5.835   6.003   1.979 -0.7787 -0.2684 -1.7073
 4044TIP3   OH233690   1.824   0.864   6.945 -0.6716  0.1556 -0.5280
 4044TIP3    H133691   1.788   0.953   6.943  1.9171  1.3484  1.1120
 4044TIP3    H233692   1.787   0.825   7.024 -0.7395  0.2463 -0.5153
 4045TIP3   OH233693   5.160   1.119   6.741  0.4936  0.0806  0.2433
 4045TIP3    H133694   5.149   1.167   6.659  1.1572 -0.1528  0.0114
 4045TIP3    H233695   5.124   1.032   6.723  0.9723 -0.0862  0.0804
 4046TIP3   OH233696   2.297   2.710   0.345  0.1434  0.5014 -0.0921
 4046TIP3    H133697   2.354   2.786   0.360 -1.5687  1.8607 -0.1800
 4046TIP3    H233698   2.337   2.665   0.271  0.5744  1.9767 -0.8023
 4047TIP3   OH233699   0.755   4.914   7.767 -0.2776 -0.1556  0.0273
 4047TIP3    H133700   0.756   4.882   7.857 -0.6852  1.2807  0.5729
 4047TIP3    H233701   0.827   4.977   7.763 -1.3821  1.1396 -0.1095
 4048TIP3   OH233702   6.809   2.512   1.507  0.6505 -0.2744  0.2182
 4048TIP3    H133703   6.755   2.504   1.585  0.4905 -1.5907  0.0044
 4048TIP3    H233704   6.813   2.423   1.472  0.9839  0.2328 -1.0934
 4049TIP3   OH233705   4.860   1.475   6.463  0.4213  0.7628 -0.2592
 4049TIP3    H133706   4.903   1.548   6.507  2.8693  1.7899 -3.9013
 4049TIP3    H233707   4.931   1.416   6.440 -1.3090 -2.1046  1.0997
 4050TIP3   OH233708   3.867   4.805   8.485  0.1431 -0.2390 -0.4923
 4050TIP3    H133709   3.962   4.795   8.483  0.0229 -1.4187 -1.2286
 4050TIP3    H233710   3.837   4.774   8.399 -1.1421 -2.6963  0.7532
 4051TIP3   OH233711   5.327   4.925   0.402 -0.4545 -0.5629 -0.0284
 4051TIP3    H133712   5.316   4.842   0.354 -1.5192 -0.0215 -0.7661
 4051TIP3    H233713   5.421   4.934   0.412 -0.3184 -1.9045  0.1274
 4052TIP3   OH233714   2.658   1.995   0.488 -0.3277  0.3111 -0.1276
 4052TIP3    H133715   2.631   1.946   0.566 -0.9292 -0.8323 -1.0394
 4052TIP3    H233716   2.745   1.962   0.468 -0.7823 -0.5272 -0.8152
 4053TIP3   OH233717   4.943   0.823   1.181 -0.0330 -0.8629 -0.5955
 4053TIP3    H133718   4.849   0.835   1.167 -0.0982 -1.6382 -0.8529
 4053TIP3    H233719   4.959   0.730   1.165  0.6215 -0.9402  0.3734
 4054TIP3   OH233720   0.094   3.443   2.058  0.3943  0.5116  0.0437
 4054TIP3    H133721   0.040   3.376   2.017 -0.3774  1.0996  0.0698
 4054TIP3    H233722   0.057   3.526   2.027  0.1607  0.9637  1.4308
 4055TIP3   OH233723   2.137   6.085   0.475  0.1188  0.0807 -0.0300
 4055TIP3    H133724   2.156   5.994   0.497 -0.3108  0.4646  2.1029
 4055TIP3    H233725   2.212   6.113   0.422  0.6524 -1.2668 -0.0125
 4056TIP3   OH233726   4.714   4.856   6.829  0.0902 -0.2953 -0.4414
 4056TIP3    H133727   4.725   4.891   6.741 -2.3584 -1.3449 -1.2630
 4056TIP3    H233728   4.673   4.927   6.878  1.0434  0.1342 -0.2437
 4057TIP3   OH233729   4.222   2.010   8.373  0.5782  0.3129  0.0017
 4057TIP3    H133730   4.169   2.090   8.376 -1.5174 -0.9262 -1.6086
 4057TIP3    H233731   4.285   2.025   8.302  0.3115  0.5822 -0.1801
 4058TIP3   OH233732   6.384   3.243   0.787  0.4738 -0.0655 -0.5876
 4058TIP3    H133733   6.455   3.179   0.777  0.5024 -0.1544  0.1179
 4058TIP3    H233734   6.312   3.193   0.826  0.1708  0.1272 -0.8934
 4059TIP3   OH233735   0.645   1.497   0.237 -0.1326  0.0538 -0.0331
 4059TIP3    H133736   0.738   1.480   0.225  0.4115  1.4246  1.7960
 4059TIP3    H233737   0.609   1.414   0.268  0.6523 -0.2376  0.1108
 4060TIP3   OH233738   1.623   4.552   8.170 -0.1966 -0.1969 -0.4138
 4060TIP3    H133739   1.598   4.489   8.238  0.7662  0.8258  0.9465
 4060TIP3    H233740   1.619   4.637   8.214 -1.6418  0.7487 -2.2620
 4061TIP3   OH233741   5.131   2.772   1.001  0.2114 -0.3908 -0.1344
 4061TIP3    H133742   5.183   2.692   1.001  0.9129  0.0547  0.2015
 4061TIP3    H233743   5.080   2.768   1.082  1.6168  0.3539  0.8297
 4062TIP3   OH233744   2.626   2.520   1.256 -0.1498 -0.2438  0.4739
 4062TIP3    H133745   2.600   2.595   1.310  0.5833  1.2298 -1.1083
 4062TIP3    H233746   2.624   2.554   1.167 -0.6292 -2.3885 -0.3764
 4063TIP3   OH233747   5.268   5.313   0.114 -0.4192 -0.2649 -0.7638
 4063TIP3    H133748   5.242   5.221   0.120 -1.6175  0.0997  3.9569
 4063TIP3    H233749   5.188   5.362   0.136  0.9261  1.6851  0.0764
 4064TIP3   OH233750   6.800   5.271   1.348  0.8192  0.1675 -0.2004
 4064TIP3    H133751   6.894   5.283   1.339  0.8695  0.9786  1.1117
 4064TIP3    H233752   6.766   5.360   1.361 -0.1297 -0.1190 -0.5969
 4065TIP3   OH233753   5.844   5.733   8.081  0.0318 -0.8163 -0.4450
 4065TIP3    H133754   5.851   5.767   8.170  1.3322  0.7832 -1.0903
 4065TIP3    H233755   5.751   5.741   8.060 -0.2641 -1.0321  0.6945
 4066TIP3   OH233756   0.886   3.974   6.612 -0.0188  0.4543 -0.0541
 4066TIP3    H133757   0.880   4.070   6.608 -0.5777  0.4822  1.0382
 4066TIP3    H233758   0.951   3.958   6.680  1.3635  0.0466 -1.4243
 4067TIP3   OH233759   0.495   2.937   0.081 -0.1534 -0.1154 -0.2546
 4067TIP3    H133760   0.440   2.859   0.069  0.1347 -0.2086 -1.0697
 4067TIP3    H233761   0.585   2.905   0.070 -0.0567  0.4053 -1.0883
 4068TIP3   OH233762   0.437   3.975   7.645  0.0114  0.1964  0.1999
 4068TIP3    H133763   0.438   4.029   7.724 -1.0911  0.9015 -0.2417
 4068TIP3    H233764   0.346   3.976   7.617  0.1187 -1.2553 -0.2785
 4069TIP3   OH233765   1.108   5.222   7.306 -0.3217  0.0235  0.3803
 4069TIP3    H133766   1.180   5.213   7.368 -0.9303  0.4228  1.1805
 4069TIP3    H233767   1.149   5.225   7.220  0.5015 -1.2445  0.7071
 4070TIP3   OH233768   0.332   4.678   8.095  0.2163  0.3587 -0.1571
 4070TIP3    H133769   0.325   4.585   8.073 -0.9965  0.4937 -0.3881
 4070TIP3    H233770   0.297   4.724   8.018  0.3260  0.9871  0.1616
 4071TIP3   OH233771   2.789   4.393   0.143  0.7710 -0.5283  0.2356
 4071TIP3    H133772   2.746   4.309   0.128  0.3028 -0.4284  0.9739
 4071TIP3    H233773   2.765   4.417   0.232 -1.0516  1.5003 -0.6909
 4072TIP3   OH233774   4.740   0.492   7.820  0.0227  0.1270 -0.1949
 4072TIP3    H133775   4.691   0.509   7.739  0.7817 -0.9821 -0.9292
 4072TIP3    H233776   4.823   0.455   7.789 -0.9139 -3.4583  1.1113
 4073TIP3   OH233777   0.929   2.757   1.171 -0.7267  0.5362 -0.4854
 4073TIP3    H133778   0.924   2.692   1.101  0.7560 -0.8700  0.6539
 4073TIP3    H233779   0.905   2.710   1.251  0.4591  1.3303  0.3885
 4074TIP3   OH233780   1.546   2.587   8.084  0.3218 -0.2793  0.1573
 4074TIP3    H133781   1.461   2.543   8.090  0.1763 -0.1520 -0.8844
 4074TIP3    H233782   1.533   2.670   8.130 -0.1911 -0.1525 -0.2063
 4075TIP3   OH233783   2.096   4.098   1.399 -0.7261  0.1993 -0.1914
 4075TIP3    H133784   2.110   4.175   1.343  0.2033 -0.3546 -0.7473
 4075TIP3    H233785   2.119   4.024   1.343 -2.1511 -0.5277  0.1717
 4076TIP3   OH233786   6.702   5.579   8.335 -0.3853 -0.3772  0.0145
 4076TIP3    H133787   6.627   5.638   8.345 -1.3830 -1.5198 -0.3417
 4076TIP3    H233788   6.685   5.508   8.397 -0.7363 -1.7240 -1.5323
 4077TIP3   OH233789   0.032   3.344   7.290 -0.0907 -0.1919  0.1802
 4077TIP3    H133790  -0.050   3.306   7.256  0.5020 -0.1678 -1.3707
 4077TIP3    H233791   0.050   3.293   7.369 -1.0866 -0.8739 -0.0008
 4078TIP3   OH233792   4.547   0.450   6.829  0.0645 -0.5459 -0.1654
 4078TIP3    H133793   4.635   0.489   6.825 -0.1761 -0.0395 -0.7015
 4078TIP3    H233794   4.517   0.468   6.918 -0.3581  1.2671 -0.6148
 4079TIP3   OH233795   2.944   6.597   6.780 -0.1125  0.4463  0.0661
 4079TIP3    H133796   2.990   6.632   6.704  1.6997  2.7784  2.0686
 4079TIP3    H233797   2.859   6.641   6.779  1.3724  3.6376  1.4168
 4080TIP3   OH233798   0.851   4.718   7.223 -0.0142  0.1906 -0.3242
 4080TIP3    H133799   0.816   4.636   7.257 -1.1775  1.0144  0.5771
 4080TIP3    H233800   0.834   4.782   7.293  0.1147  1.3642 -1.3299
 4081TIP3   OH233801   2.682   4.139   7.070  0.0412 -0.3510 -0.1777
 4081TIP3    H133802   2.698   4.071   7.004 -0.1740 -0.9957  0.4335
 4081TIP3    H233803   2.589   4.132   7.089 -0.2019  0.7899 -0.8410
 4082TIP3   OH233804   1.463   6.126   0.672  0.2708  0.5115 -0.0472
 4082TIP3    H133805   1.537   6.068   0.688  0.7539  0.7683 -1.2871
 4082TIP3    H233806   1.397   6.071   0.630  0.7612  0.8606 -1.2991
 4083TIP3   OH233807   3.798   1.435   6.202 -0.1964 -0.3317  0.0708
 4083TIP3    H133808   3.828   1.525   6.196  0.0919 -0.3957  0.5421
 4083TIP3    H233809   3.827   1.405   6.288  1.6918 -1.5690 -0.9330
 4084TIP3   OH233810   1.494   5.667   8.142 -0.5696  0.1167  0.6601
 4084TIP3    H133811   1.433   5.686   8.213  2.3141  0.1406  3.3486
 4084TIP3    H233812   1.544   5.748   8.130  1.1899 -0.8452  1.0158
 4085TIP3   OH233813   4.824   5.119   8.457  0.0700  0.3985  0.1174
 4085TIP3    H133814   4.899   5.157   8.410  0.1354  0.6049  0.3832
 4085TIP3    H233815   4.788   5.055   8.396 -0.7125  1.6544 -0.7940
 4086TIP3   OH233816   6.064   0.166   1.072 -0.7284 -0.7329  0.0245
 4086TIP3    H133817   6.063   0.084   1.122 -0.5374 -0.4159  0.5615
 4086TIP3    H233818   6.120   0.147   0.997  1.0909 -0.4953  1.2365
 4087TIP3   OH233819   3.268   1.276   6.946  0.1590  0.0069 -0.2310
 4087TIP3    H133820   3.208   1.289   7.019 -0.2515 -0.5381 -0.4614
 4087TIP3    H233821   3.286   1.364   6.914  1.2150  0.3503  1.1956
 4088TIP3   OH233822   5.191   2.109   6.707 -0.0371 -0.2435 -0.0329
 4088TIP3    H133823   5.154   2.045   6.647 -1.1140 -0.5344  0.8986
 4088TIP3    H233824   5.267   2.066   6.745 -0.7870 -1.0139  0.6278
 4089TIP3   OH233825   4.407   6.449   0.600  0.4406  0.8656  0.0432
 4089TIP3    H133826   4.372   6.408   0.521 -1.3631 -0.4184  1.4233
 4089TIP3    H233827   4.344   6.518   0.621 -0.1646 -0.0496  1.3697
 4090TIP3   OH233828   1.142   6.386   6.687  0.2459 -0.2513 -0.0108
 4090TIP3    H133829   1.119   6.423   6.602 -2.4951 -1.6859 -0.0318
 4090TIP3    H233830   1.202   6.314   6.666  1.5237  0.8966 -0.4370
 4091TIP3   OH233831   5.992   5.109   0.025 -0.3316  0.3628  0.1598
 4091TIP3    H133832   5.976   5.092   0.118  0.8461  1.9005  0.6941
 4091TIP3    H233833   5.905   5.118  -0.013 -0.8285  1.0068  1.3873
 4092TIP3   OH233834   5.655   1.722   7.827 -0.4941  0.3155 -0.4082
 4092TIP3    H133835   5.708   1.644   7.844  0.7938  0.8361 -1.7501
 4092TIP3    H233836   5.709   1.795   7.860 -1.6404  0.6782  0.7572
 4093TIP3   OH233837   5.405   2.811   0.349 -0.9736  0.1373  0.4794
 4093TIP3    H133838   5.435   2.726   0.317  0.2374  1.0479 -0.8748
 4093TIP3    H233839   5.393   2.864   0.270 -2.3642  1.0423  1.2561
 4094TIP3   OH233840   6.086   6.648   1.518  0.5937 -0.5579  0.0155
 4094TIP3    H133841   6.027   6.597   1.463 -0.6338  2.9157 -2.1789
 4094TIP3    H233842   6.161   6.667   1.461  1.9104 -1.3497  1.4018
 4095TIP3   OH233843   4.083   5.646   7.144  0.4814  0.2516 -0.4565
 4095TIP3    H133844   4.099   5.570   7.200 -0.4443  0.6840  0.4292
 4095TIP3    H233845   4.169   5.685   7.130  0.8941 -0.6557 -0.4852
 4096TIP3   OH233846   0.445   3.917   0.349  0.0831 -0.1678  0.1839
 4096TIP3    H133847   0.536   3.924   0.380 -0.4184  0.3230  1.6664
 4096TIP3    H233848   0.415   3.832   0.381 -0.6774  0.6647  1.8313
 4097TIP3   OH233849   0.166   3.019   8.483  0.0557  0.0629 -0.3697
 4097TIP3    H133850   0.079   3.046   8.512 -0.0332  0.9391 -1.3992
 4097TIP3    H233851   0.190   2.948   8.543 -1.3958 -0.2500 -0.1187
 4098TIP3   OH233852   0.008   5.306   2.349  0.0775 -0.2217  0.0708
 4098TIP3    H133853   0.008   5.399   2.329  0.5134 -0.1777  0.2560
 4098TIP3    H233854  -0.052   5.267   2.286 -0.6676  0.2847  0.4616
 4099TIP3   OH233855   1.162   6.337   1.194  0.6612  0.3105  0.0981
 4099TIP3    H133856   1.136   6.299   1.278 -0.7183 -0.2165 -0.5461
 4099TIP3    H233857   1.251   6.306   1.180 -0.0806 -1.9163  0.0528
 4100TIP3   OH233858   4.184   6.320   7.135  0.0097 -0.1082  0.3012
 4100TIP3    H133859   4.199   6.226   7.134  1.3044  0.0848 -0.8036
 4100TIP3    H233860   4.089   6.329   7.139 -0.1030 -1.4255  2.2975
 4101TIP3   OH233861   4.514   1.578   0.732 -0.3100  0.2508  0.1155
 4101TIP3    H133862   4.492   1.603   0.642  0.6716  1.0422  0.0797
 4101TIP3    H233863   4.504   1.483   0.733 -0.5025  0.2492 -0.7786
 4102TIP3   OH233864   2.408   4.337   0.007 -0.0458 -0.0892 -0.0642
 4102TIP3    H133865   2.504   4.341   0.001  0.0320  2.3477  1.1842
 4102TIP3    H233866   2.385   4.414   0.060 -2.7716 -0.0875 -1.1120
 4103TIP3   OH233867   0.744   2.428   7.819 -0.1212  0.1171  0.5696
 4103TIP3    H133868   0.728   2.413   7.913 -0.0851 -0.1317  0.5355
 4103TIP3    H233869   0.826   2.382   7.801 -0.2038  0.0430  0.3817
 4104TIP3   OH233870   4.072   2.882   1.573 -0.0363 -0.0633  0.5379
 4104TIP3    H133871   4.056   2.788   1.569  2.5545 -0.6458  1.9195
 4104TIP3    H233872   3.987   2.920   1.595 -1.1538 -2.0442 -0.1176
 4105TIP3   OH233873   5.022   2.714   7.626 -0.5122  0.0504  0.3879
 4105TIP3    H133874   5.003   2.632   7.580 -1.9558  0.0035  1.0448
 4105TIP3    H233875   5.117   2.723   7.618 -0.2461 -1.9230  0.6732
 4106TIP3   OH233876   2.671   5.480   0.925  0.6195  0.1172 -0.4837
 4106TIP3    H133877   2.666   5.386   0.908 -0.9566  0.4339 -2.0638
 4106TIP3    H233878   2.761   5.495   0.953  0.4767 -2.0804  1.4189
 4107TIP3   OH233879   4.836   5.055   7.606  0.0806  0.4226  0.5931
 4107TIP3    H133880   4.821   5.022   7.518  1.5425  2.2587 -0.4278
 4107TIP3    H233881   4.895   4.991   7.646  0.2827  0.1224 -0.1727
 4108TIP3   OH233882   0.955   2.298   1.230  0.1973  0.3363 -0.4993
 4108TIP3    H133883   0.903   2.302   1.311 -0.2933  2.5139 -0.8746
 4108TIP3    H233884   0.983   2.206   1.225 -4.6226 -1.4267 -0.9344
 4109TIP3   OH233885   0.528   2.783   7.581  0.1275 -0.4675  0.1799
 4109TIP3    H133886   0.479   2.864   7.596 -1.5274 -1.2832 -0.5582
 4109TIP3    H233887   0.499   2.753   7.495  2.8633 -0.4068 -0.8984
 4110TIP3   OH233888   3.538   2.093   6.304 -0.4164  0.2786 -0.1888
 4110TIP3    H133889   3.444   2.111   6.297 -0.7441 -0.1945  2.1317
 4110TIP3    H233890   3.574   2.172   6.344  0.1373  0.3200 -0.7550
 4111TIP3   OH233891   6.661   5.113   1.528  0.0574  0.3833 -0.1202
 4111TIP3    H133892   6.671   5.030   1.482  2.0700  0.8636 -0.6228
 4111TIP3    H233893   6.694   5.179   1.467 -1.7480  1.6342  0.1611
 4112TIP3   OH233894   3.437   1.014   0.484  0.7022  0.6636 -0.0233
 4112TIP3    H133895   3.367   1.020   0.418  0.6463  0.6712  0.0360
 4112TIP3    H233896   3.426   1.093   0.536  1.3474  1.1405 -0.5942
 4113TIP3   OH233897   0.748   4.561   1.252 -0.3785  0.1837  0.0872
 4113TIP3    H133898   0.722   4.469   1.256  0.2432  0.0108  0.2767
 4113TIP3    H233899   0.804   4.566   1.174  1.4153 -0.0970  1.2875
 4114TIP3   OH233900   1.186   2.163   8.423  0.3490  0.2257  0.3383
 4114TIP3    H133901   1.252   2.162   8.353 -0.5719  0.4379 -0.5513
 4114TIP3    H233902   1.168   2.256   8.437 -0.0502  0.1522  0.3033
 4115TIP3   OH233903   4.623   6.686   1.509 -0.2914 -0.2000  0.0528
 4115TIP3    H133904   4.643   6.592   1.513  0.3479 -0.2357 -2.5827
 4115TIP3    H233905   4.615   6.706   1.416  0.6027  2.5930  0.4700
 4116TIP3   OH233906   3.609   3.579   8.009 -0.1198 -0.0278  0.5398
 4116TIP3    H133907   3.600   3.542   7.921 -1.0141  2.0322 -0.2878
 4116TIP3    H233908   3.552   3.524   8.064 -2.5375  0.9010 -0.9191
 4117TIP3   OH233909   1.820   5.746   8.496  0.2100  0.1102 -0.1895
 4117TIP3    H133910   1.858   5.833   8.482 -1.0778  0.8466  0.7490
 4117TIP3    H233911   1.791   5.746   8.587 -3.2423  0.1282 -1.1431
 4118TIP3   OH233912   4.440   1.996   1.249 -0.1481 -0.0990 -0.3053
 4118TIP3    H133913   4.473   1.917   1.207 -0.5166  0.0844 -0.9561
 4118TIP3    H233914   4.419   1.969   1.339 -0.4805 -0.7921 -0.5869
 4119TIP3   OH233915   2.815   3.963   8.128 -0.2393  0.0123 -0.0582
 4119TIP3    H133916   2.860   3.912   8.060 -1.0178  0.3652 -0.8611
 4119TIP3    H233917   2.885   3.992   8.186  0.4237 -0.4789 -0.5918
 4120TIP3   OH233918   4.040   4.385   2.127 -0.2322  0.0768 -0.3266
 4120TIP3    H133919   4.130   4.390   2.095  0.8456 -1.3107  2.1982
 4120TIP3    H233920   4.017   4.293   2.121 -1.4196  0.3753 -0.6666
 4121TIP3   OH233921   3.062   6.013   2.180  0.6295  0.7650 -0.2409
 4121TIP3    H133922   3.136   5.977   2.231  0.9503  0.9516 -0.5731
 4121TIP3    H233923   3.101   6.081   2.126  0.5520 -0.3298 -1.7478
 4122TIP3   OH233924   3.473   4.371   6.526  0.5095 -0.0740  0.2366
 4122TIP3    H133925   3.427   4.440   6.479  0.6883 -0.7405 -0.9637
 4122TIP3    H233926   3.454   4.388   6.619  0.4389  1.4782 -0.0410
 4123TIP3   OH233927   0.325   0.570   1.190  0.3749  0.5087  0.2565
 4123TIP3    H133928   0.374   0.651   1.171 -0.8995  1.1772 -0.2523
 4123TIP3    H233929   0.266   0.594   1.261 -1.0659  0.4610 -0.8873
 4124TIP3   OH233930   1.125   5.297   2.217 -0.0979  0.2098  0.7303
 4124TIP3    H133931   1.220   5.300   2.207 -0.1070 -1.6744 -0.4272
 4124TIP3    H233932   1.111   5.303   2.312  1.1885  0.1523  0.9438
 4125TIP3   OH233933   6.830   3.677   6.781 -0.2642  0.2400  0.5184
 4125TIP3    H133934   6.753   3.645   6.829  0.4003  0.3974  1.7130
 4125TIP3    H233935   6.839   3.615   6.708 -1.6969  0.4015  0.1633
 4126TIP3   OH233936   4.955   2.020   0.309 -0.1400 -0.4616 -1.0211
 4126TIP3    H133937   4.893   2.059   0.371  1.1927  0.8101 -0.4169
 4126TIP3    H233938   5.020   2.089   0.294  2.0019 -2.2403 -0.4004
 4127TIP3   OH233939   0.445   2.472   8.356  0.3482 -0.4304 -0.4908
 4127TIP3    H133940   0.390   2.548   8.373  0.4970 -0.2590 -0.7745
 4127TIP3    H233941   0.391   2.397   8.381  0.6522 -0.1831  1.0201
 4128TIP3   OH233942   5.465   6.791   7.759  0.1719  0.1125  0.6428
 4128TIP3    H133943   5.554   6.825   7.773  0.3531 -0.1383  0.1277
 4128TIP3    H233944   5.476   6.721   7.694 -0.0884 -1.3814  2.1432
 4129TIP3   OH233945   0.609   4.553   0.041  0.3373 -0.0146  0.0509
 4129TIP3    H133946   0.586   4.522  -0.047 -0.0066 -3.2212  1.1244
 4129TIP3    H233947   0.529   4.593   0.074  0.4857  1.2781 -1.0452
 4130TIP3   OH233948   1.641   0.923   0.765  0.3984 -0.2278 -0.2585
 4130TIP3    H133949   1.644   0.829   0.777  1.2322 -0.2253 -0.4040
 4130TIP3    H233950   1.688   0.959   0.841  1.3244  0.0027 -0.9283
 4131TIP3   OH233951   3.594   1.725   8.426 -0.0323  0.1238  0.8373
 4131TIP3    H133952   3.610   1.644   8.474  1.3442 -0.7867 -1.0245
 4131TIP3    H233953   3.522   1.704   8.367  0.8535 -0.0721 -0.2253
 4132TIP3   OH233954   6.906   3.750   2.251 -0.5090  0.1358  0.3962
 4132TIP3    H133955   6.882   3.688   2.319  0.5369  0.1159  0.7582
 4132TIP3    H233956   6.925   3.696   2.174 -1.8888  0.1714  0.0103
 4133TIP3   OH233957   1.616   6.814   1.233  0.6564  0.0162 -0.0809
 4133TIP3    H133958   1.699   6.808   1.185  1.3425  0.5408  1.0091
 4133TIP3    H233959   1.641   6.822   1.325 -0.6371 -2.2351  0.5646
 4134TIP3   OH233960   4.604   0.882   7.733 -0.7650 -0.9054  0.5190
 4134TIP3    H133961   4.608   0.841   7.820 -0.1080 -0.1980  0.8352
 4134TIP3    H233962   4.691   0.867   7.696  0.1299  1.6836  1.3589
 4135TIP3   OH233963   5.010   5.062   0.312 -0.2176 -0.1780 -0.3937
 4135TIP3    H133964   4.999   4.985   0.256 -2.2511 -1.5584  1.7158
 4135TIP3    H233965   4.961   5.131   0.266  1.5363 -0.0734 -2.2498
 4136TIP3   OH233966   3.362   3.760   0.870  0.1684  0.5134  0.1528
 4136TIP3    H133967   3.451   3.741   0.839  0.0715 -0.1270  0.2573
 4136TIP3    H233968   3.325   3.675   0.890 -0.6316  0.7437 -0.3102
 4137TIP3   OH233969   5.264   3.637   1.462  0.1726  0.0391 -0.1296
 4137TIP3    H133970   5.236   3.642   1.554  3.3327  0.4114  0.9171
 4137TIP3    H233971   5.354   3.607   1.466  0.2779 -0.3386 -3.1946
 4138TIP3   OH233972   2.865   6.367   7.412  0.7411 -0.2202 -0.2780
 4138TIP3    H133973   2.891   6.301   7.476  0.6318 -0.1704 -0.1829
 4138TIP3    H233974   2.831   6.317   7.338  0.7879 -0.2745 -0.2627
 4139TIP3   OH233975   1.375   5.340   1.418 -0.2856 -0.1252  0.0535
 4139TIP3    H133976   1.425   5.381   1.347 -2.5785 -0.5915 -1.9599
 4139TIP3    H233977   1.421   5.258   1.434  0.4989  0.1616 -0.6009
 4140TIP3   OH233978   1.168   0.493   0.636 -0.0636  0.2626  0.1904
 4140TIP3    H133979   1.206   0.553   0.572  0.4608  0.4766  0.6914
 4140TIP3    H233980   1.206   0.520   0.719 -1.8717  0.9459  0.8285
 4141TIP3   OH233981   3.014   6.908   8.287  0.0426  0.6073 -0.2464
 4141TIP3    H133982   2.964   6.857   8.350  0.0010 -1.5794 -1.9364
 4141TIP3    H233983   3.105   6.897   8.314 -0.0311  0.4209 -0.0677
 4142TIP3   OH233984   4.619   1.904   8.522 -0.2053 -0.1622  0.3899
 4142TIP3    H133985   4.615   1.910   8.427  1.4335  1.0285  0.3488
 4142TIP3    H233986   4.542   1.853   8.547 -1.6972  1.1102 -1.4227
 4143TIP3   OH233987   1.728   0.040   6.068 -0.2627 -0.1944  0.0988
 4143TIP3    H133988   1.742   0.132   6.090 -1.2673 -0.1258  0.4920
 4143TIP3    H233989   1.640   0.037   6.032  0.7612 -0.5573 -2.5813
 4144TIP3   OH233990   2.138   4.770   7.342  0.4147 -0.0352  0.4109
 4144TIP3    H133991   2.220   4.756   7.390 -0.2291  0.7657  1.8078
 4144TIP3    H233992   2.166   4.793   7.253  1.8307  2.1903  1.3346
 4145TIP3   OH233993   2.050   0.759   0.099  0.4128 -0.0683  0.4344
 4145TIP3    H133994   2.071   0.694   0.032  0.4942 -0.5535  0.9209
 4145TIP3    H233995   2.135   0.785   0.136  0.2857 -0.9434  1.3926
 4146TIP3   OH233996   3.380   2.481   1.515  0.2722 -0.1247 -0.1069
 4146TIP3    H133997   3.471   2.453   1.513 -0.0140 -1.0888 -0.4164
 4146TIP3    H233998   3.379   2.556   1.575  1.3139  0.1209 -0.3744
 4147TIP3   OH233999   5.884   3.404   6.839  0.4982 -0.1284 -0.6865
 4147TIP3    H134000   5.874   3.472   6.773  0.7246 -1.7205 -2.4550
 4147TIP3    H234001   5.978   3.394   6.850  0.4814  0.8431  0.7424
 4148TIP3   OH234002   4.252   0.460   1.469 -0.0789 -0.7207  0.6487
 4148TIP3    H134003   4.187   0.516   1.427 -0.8950 -2.1960 -0.1379
 4148TIP3    H234004   4.204   0.415   1.539  0.1901 -1.4630  0.3719
 4149TIP3   OH234005   2.353   1.460   8.500 -0.2042 -0.3008  0.6185
 4149TIP3    H134006   2.307   1.402   8.560 -1.1815  0.4496  0.6228
 4149TIP3    H234007   2.311   1.546   8.512  1.6266  0.5826  1.0866
 4150TIP3   OH234008   1.091   6.364   0.563 -0.4339  0.8711 -0.1155
 4150TIP3    H134009   1.181   6.377   0.533 -0.2733  0.1269  0.0296
 4150TIP3    H234010   1.037   6.378   0.486 -0.1010  0.0692 -0.5088
 4151TIP3   OH234011   5.062   3.653   2.166 -0.5349 -0.5598 -0.3506
 4151TIP3    H134012   4.993   3.586   2.173 -2.0124  0.7995 -1.0610
 4151TIP3    H234013   5.028   3.727   2.217  0.3164  0.2173 -0.8866
 4152TIP3   OH234014   6.548   6.736   8.150 -0.4156 -0.2504  0.4575
 4152TIP3    H134015   6.588   6.822   8.164  1.8026 -1.3032  0.9637
 4152TIP3    H234016   6.531   6.703   8.238 -0.2264 -0.7751  0.2994
 4153TIP3   OH234017   2.512   0.290   8.480 -0.3394 -0.1436  0.4057
 4153TIP3    H134018   2.561   0.223   8.528 -1.8254 -1.8579 -0.3461
 4153TIP3    H234019   2.570   0.365   8.478  2.2949 -2.0492 -0.4240
 4154TIP3   OH234020   0.717   2.043   0.946  0.0751 -0.1450  0.0613
 4154TIP3    H134021   0.648   1.977   0.948  0.5013 -0.5993  0.2138
 4154TIP3    H234022   0.721   2.077   1.035  0.3555 -0.4517  0.1686
 4155TIP3   OH234023   3.166   6.020   8.090 -0.2196 -0.0875 -0.4970
 4155TIP3    H134024   3.202   5.946   8.042  0.3729 -0.7134  0.8559
 4155TIP3    H234025   3.238   6.082   8.096  0.1591 -0.6156  0.7523
 4156TIP3   OH234026   3.351   0.864   0.786 -0.3163 -0.0322 -0.2486
 4156TIP3    H134027   3.404   0.852   0.708  0.3340  0.2126  0.1524
 4156TIP3    H234028   3.315   0.776   0.804  1.0017 -0.4930  0.2259
 4157TIP3   OH234029   4.989   1.563   0.263  0.4938  0.5551 -0.3034
 4157TIP3    H134030   4.989   1.523   0.350  0.1531  0.5178 -0.3204
 4157TIP3    H234031   5.061   1.626   0.266  1.4996 -0.5601 -0.5085
 4158TIP3   OH234032   4.465   3.169   0.544  0.0812  0.3075  0.1353
 4158TIP3    H134033   4.464   3.238   0.477 -0.5618  1.2786  1.0945
 4158TIP3    H234034   4.545   3.186   0.594  0.4128 -0.2374 -0.2091
 4159TIP3   OH234035   1.635   4.713   2.136  0.0257 -0.3721 -0.1857
 4159TIP3    H134036   1.693   4.780   2.174 -0.4626 -0.6654  1.1191
 4159TIP3    H234037   1.671   4.630   2.167 -1.7444 -0.5223  1.6891
 4160TIP3   OH234038   4.602   5.279   0.310  0.2395 -0.0916  0.1499
 4160TIP3    H134039   4.555   5.268   0.393 -0.5917  0.3535 -0.2448
 4160TIP3    H234040   4.539   5.324   0.254  0.9590  0.0124 -0.5782
 4161TIP3   OH234041   4.164   1.475   7.092 -0.2199 -0.1513  0.4714
 4161TIP3    H134042   4.208   1.396   7.123 -1.1345  0.0668  2.5361
 4161TIP3    H234043   4.080   1.476   7.138 -1.3976  0.6704 -1.5375
 4162TIP3   OH234044   1.000   2.527   6.947  0.0130  0.1047 -0.1162
 4162TIP3    H134045   0.946   2.574   7.010 -0.9736  0.4263 -1.1819
 4162TIP3    H234046   1.089   2.536   6.982 -0.4554  0.6195  1.0094
 4163TIP3   OH234047   5.413   4.764   7.068 -0.4476 -0.0343  0.3752
 4163TIP3    H134048   5.325   4.798   7.050  0.0305  1.5912  0.8968
 4163TIP3    H234049   5.399   4.692   7.129 -1.3602  0.9438  1.3637
 4164TIP3   OH234050   4.501   0.554   0.151  0.0532  0.7004  0.0837
 4164TIP3    H134051   4.464   0.637   0.181 -0.4686  0.3091  0.5370
 4164TIP3    H234052   4.470   0.544   0.061  0.4003  1.1620 -0.0869
 4165TIP3   OH234053   2.481   0.021   1.543 -0.7885 -0.0361  0.1664
 4165TIP3    H134054   2.550   0.088   1.542 -0.1542 -0.6201 -2.4957
 4165TIP3    H234055   2.484  -0.015   1.631  1.9122  0.3823  0.3342
 4166TIP3   OH234056   2.251   5.535   1.091 -0.0964  0.2398  0.6115
 4166TIP3    H134057   2.236   5.625   1.062 -2.6506 -0.8713 -1.8796
 4166TIP3    H234058   2.308   5.497   1.024 -1.2294 -0.7292  0.1723
 4167TIP3   OH234059   2.622   1.987   2.455 -0.0838  0.9841  0.1304
 4167TIP3    H134060   2.531   2.007   2.431 -0.0372 -0.1785 -1.1559
 4167TIP3    H234061   2.614   1.922   2.525 -0.2621  0.5222 -0.3100
 4168TIP3   OH234062   4.108   4.520   8.350  0.3149 -0.0897 -0.5167
 4168TIP3    H134063   4.092   4.566   8.268  0.0916 -0.4494 -0.6770
 4168TIP3    H234064   4.041   4.452   8.353  1.4666 -1.2995 -0.9555
 4169TIP3   OH234065   2.755   6.587   0.645  0.7004  0.4249 -0.7843
 4169TIP3    H134066   2.767   6.492   0.638  0.7708  0.0454  2.6904
 4169TIP3    H234067   2.838   6.619   0.678 -0.2946  1.1991  1.0671
 4170TIP3   OH234068   5.990   5.061   7.454 -0.0033 -0.1411 -0.4445
 4170TIP3    H134069   6.007   5.150   7.424 -0.2014  0.2809  0.6587
 4170TIP3    H234070   5.942   5.072   7.536  1.7037 -1.2494  0.7545
 4171TIP3   OH234071   2.759   0.623   6.620 -0.3284 -0.1805  0.5337
 4171TIP3    H134072   2.748   0.655   6.709  0.7794 -1.2820  1.1022
 4171TIP3    H234073   2.756   0.528   6.628  0.4433 -0.3180 -0.4914
 4172TIP3   OH234074   6.691   4.555   0.781 -0.0021 -0.1711  0.0326
 4172TIP3    H134075   6.674   4.479   0.836  0.3344  1.2320  2.1766
 4172TIP3    H234076   6.780   4.583   0.805  0.9538 -0.5885 -2.6256
 4173TIP3   OH234077   5.122   4.196   0.177  0.0265  0.3850  0.4920
 4173TIP3    H134078   5.133   4.234   0.264 -2.0616  0.7980  0.6199
 4173TIP3    H234079   5.191   4.130   0.171  2.2028  2.4596  1.2064
 4174TIP3   OH234080   4.771   5.671   1.740  0.3642 -0.1961  0.0173
 4174TIP3    H134081   4.740   5.636   1.824 -1.1569 -1.2908 -0.9528
 4174TIP3    H234082   4.720   5.625   1.674  1.0792  1.0960 -1.5147
 4175TIP3   OH234083   6.495   3.198   1.250 -0.0668  0.0853  0.6292
 4175TIP3    H134084   6.454   3.232   1.329  1.2993  1.6794  0.7013
 4175TIP3    H234085   6.429   3.141   1.211 -1.2106  0.2395  2.2663
 4176TIP3   OH234086   2.160   0.441   2.566  0.3556 -0.6936  0.4321
 4176TIP3    H134087   2.107   0.517   2.585 -1.2087 -1.5687 -0.2556
 4176TIP3    H234088   2.101   0.366   2.576  1.9536 -1.8778  1.5495
 4177TIP3   OH234089   3.435   4.646   2.023  0.2059 -0.5022 -0.5652
 4177TIP3    H134090   3.425   4.565   1.973 -2.7278  0.0149 -0.9960
 4177TIP3    H234091   3.365   4.703   1.992  1.3259  1.7110  0.7046
 4178TIP3   OH234092   0.381   4.222   7.792  0.3625  0.2020 -0.2121
 4178TIP3    H134093   0.468   4.257   7.813  2.0540 -2.3817 -2.2453
 4178TIP3    H234094   0.355   4.269   7.713  1.1412 -0.7533 -1.0666
 4179TIP3   OH234095   6.265   5.465   7.892 -0.6091 -0.1223  0.1763
 4179TIP3    H134096   6.351   5.507   7.890  1.5800 -4.0640 -2.1574
 4179TIP3    H234097   6.274   5.395   7.957 -2.3538 -0.1939  0.3964
 4180TIP3   OH234098   0.355   2.113   1.971  0.2345  0.3844 -0.1398
 4180TIP3    H134099   0.340   2.208   1.968 -1.8777  0.0839 -0.8575
 4180TIP3    H234100   0.301   2.083   2.044 -0.0205 -0.3890 -0.6397
 4181TIP3   OH234101   2.030   6.253   1.492  0.0367 -0.0220  0.0910
 4181TIP3    H134102   2.041   6.342   1.460 -0.3475 -0.0142 -0.0172
 4181TIP3    H234103   2.120   6.222   1.507  0.1500  1.1173  2.1477
 4182TIP3   OH234104   6.126   1.254   0.825  0.3586 -0.2323 -0.0048
 4182TIP3    H134105   6.163   1.338   0.855 -0.8094  0.0075  0.8646
 4182TIP3    H234106   6.034   1.274   0.807 -0.5345 -1.7343  2.3022
 4183TIP3   OH234107   4.857   2.183   6.285 -0.3804  0.3258 -0.0636
 4183TIP3    H134108   4.925   2.141   6.337 -0.8459  0.9952  1.1128
 4183TIP3    H234109   4.802   2.110   6.255  0.6905 -0.1943 -0.8164
 4184TIP3   OH234110   6.129   4.103   2.187  0.6391 -0.7374 -0.1644
 4184TIP3    H134111   6.138   4.102   2.283  2.4617  0.2781 -0.2667
 4184TIP3    H234112   6.093   4.017   2.165 -0.7354 -0.6354  1.4821
 4185TIP3   OH234113   4.156   1.028   0.103 -0.5182 -0.4395 -0.0455
 4185TIP3    H134114   4.214   1.005   0.175  1.4101 -0.7666 -1.6148
 4185TIP3    H234115   4.125   1.116   0.124 -0.2132 -0.6269  1.2812
 4186TIP3   OH234116   0.468   0.904   7.345  0.2911 -0.0778  0.0300
 4186TIP3    H134117   0.449   0.874   7.434  1.0656  2.7963  1.2677
 4186TIP3    H234118   0.560   0.883   7.332 -0.0795 -1.4461 -0.5538
 4187TIP3   OH234119   5.525   1.158   8.319 -0.0438 -0.4017 -0.0619
 4187TIP3    H134120   5.617   1.131   8.316 -0.2725 -1.2144 -0.0965
 4187TIP3    H234121   5.526   1.242   8.365  0.5704 -1.1155  1.3246
 4188TIP3   OH234122   0.754   3.780   7.688 -0.3730  0.1121 -0.6249
 4188TIP3    H134123   0.693   3.731   7.633 -0.2814  0.6219 -1.1955
 4188TIP3    H234124   0.709   3.788   7.772 -2.7299  3.4100 -1.9479
 4189TIP3   OH234125   1.491   2.075   0.607 -0.1214  0.0127 -0.3540
 4189TIP3    H134126   1.497   1.980   0.603 -0.6246 -0.0243 -0.3650
 4189TIP3    H234127   1.407   2.095   0.565  0.6093  0.5540 -1.6155
 4190TIP3   OH234128   6.778   4.515   1.359 -0.2932  0.1541  0.3013
 4190TIP3    H134129   6.729   4.594   1.382 -1.7012 -0.1490 -1.4513
 4190TIP3    H234130   6.870   4.540   1.367 -0.6988  2.0985 -0.5773
 4191TIP3   OH234131   6.059   4.740   0.167 -0.0585  0.0555  0.0548
 4191TIP3    H134132   6.037   4.686   0.091  1.9752 -0.7634  0.0041
 4191TIP3    H234133   6.019   4.693   0.241 -1.1560  0.3015 -0.3585
 4192TIP3   OH234134   0.462   4.232   1.591 -0.0671 -0.1264 -0.1806
 4192TIP3    H134135   0.471   4.322   1.558 -0.7711 -0.2826 -0.8159
 4192TIP3    H234136   0.543   4.216   1.639 -0.0878  0.9756  0.2473
 4193TIP3   OH234137   6.413   4.420   2.592  0.1376 -0.1577 -0.4542
 4193TIP3    H134138   6.462   4.431   2.673  1.4619  1.7002 -1.4385
 4193TIP3    H234139   6.324   4.448   2.614  0.3434 -0.2036  0.4928
 4194TIP3   OH234140   1.063   0.476   1.296  0.3680 -0.3143 -0.6026
 4194TIP3    H134141   1.041   0.525   1.375 -2.6909 -2.1584 -0.1545
 4194TIP3    H234142   1.049   0.384   1.320  0.5449 -1.0206 -2.9279
 4195TIP3   OH234143   1.325   3.441   6.716  0.5062 -0.1105 -0.1027
 4195TIP3    H134144   1.288   3.452   6.629  0.3903 -1.3961 -0.2405
 4195TIP3    H234145   1.369   3.524   6.735  1.2431 -0.1042 -1.7245
 4196TIP3   OH234146   5.757   3.946   7.618  0.3416  0.1645  0.3676
 4196TIP3    H134147   5.707   3.866   7.637  3.4242 -1.6111  1.8083
 4196TIP3    H234148   5.710   4.015   7.665 -2.0149 -0.8440 -0.3191
 4197TIP3   OH234149   0.248   0.599   0.023 -0.4678  0.7387 -0.2655
 4197TIP3    H134150   0.230   0.525   0.082  0.7479 -0.6446 -1.5368
 4197TIP3    H234151   0.239   0.677   0.078 -0.9641 -0.3983  1.3274
 4198TIP3   OH234152   0.421   0.028   8.162  0.0484  0.2243 -0.3031
 4198TIP3    H134153   0.357  -0.034   8.197 -1.3371  0.5639 -2.0996
 4198TIP3    H234154   0.432   0.093   8.231 -1.6004  0.1658  0.0612
 4199TIP3   OH234155   5.659   2.509   1.837  0.0516  0.3119 -0.1774
 4199TIP3    H134156   5.722   2.445   1.805  0.7823  0.0759  1.6229
 4199TIP3    H234157   5.662   2.501   1.932 -1.2348  1.7055  0.0287
 4200TIP3   OH234158   4.149   3.453   7.780  0.6075 -0.7405  0.6507
 4200TIP3    H134159   4.099   3.376   7.754  0.3209 -0.4494  0.3196
 4200TIP3    H234160   4.118   3.522   7.722 -0.8099  0.1953  2.4084
 4201TIP3   OH234161   4.844   2.935   6.571  0.5215 -0.1958  0.4992
 4201TIP3    H134162   4.791   2.944   6.651  0.2480  0.8933  0.2124
 4201TIP3    H234163   4.854   3.025   6.539 -0.5938 -0.7250 -1.4799
 4202TIP3   OH234164   4.931   2.785   6.163 -0.3245  0.2017  0.2388
 4202TIP3    H134165   5.019   2.768   6.196  0.3232  2.0391 -0.4258
 4202TIP3    H234166   4.902   2.701   6.128  1.5841 -0.2046 -0.4840
 4203TIP3   OH234167   1.555   4.574   7.207 -0.1017  0.1486  0.7380
 4203TIP3    H134168   1.513   4.659   7.220 -1.1520 -0.2197 -0.0656
 4203TIP3    H234169   1.596   4.581   7.121 -1.6601 -0.7055 -0.1105
 4204TIP3   OH234170   4.269   2.315   1.546  0.0839 -0.4729  0.0287
 4204TIP3    H134171   4.334   2.385   1.560  0.2518 -0.3110 -1.3953
 4204TIP3    H234172   4.318   2.234   1.560 -0.2477 -0.3545  2.2644
 4205TIP3   OH234173   1.010   1.223   0.513 -0.6752  0.4967 -0.2574
 4205TIP3    H134174   1.056   1.142   0.532 -0.1687 -0.5348 -4.7657
 4205TIP3    H234175   0.924   1.211   0.553  0.0988 -1.2558  1.0398
 4206TIP3   OH234176   3.975   3.505   7.021 -0.0453 -0.2043 -0.1625
 4206TIP3    H134177   4.035   3.506   7.095  0.1373 -0.8778 -0.2879
 4206TIP3    H234178   4.007   3.574   6.963  0.8652 -0.8018 -0.4070
 4207TIP3   OH234179   1.982   1.080   1.489  0.1512  0.1400  0.9008
 4207TIP3    H134180   2.027   1.161   1.513 -0.2562  0.0645  1.9799
 4207TIP3    H234181   1.916   1.069   1.557 -0.9941 -0.1543 -0.2357
 4208TIP3   OH234182   1.521   5.125   1.253 -0.1867  0.4688 -0.1570
 4208TIP3    H134183   1.591   5.178   1.292  1.1291 -1.7521  0.6839
 4208TIP3    H234184   1.559   5.037   1.246 -2.3183 -0.4235 -1.3382
 4209TIP3   OH234185   1.960   1.185   7.055 -0.0040 -0.2244  0.1434
 4209TIP3    H134186   1.962   1.179   6.960 -1.4838 -1.8977  0.1546
 4209TIP3    H234187   1.961   1.279   7.074 -0.9367  0.1646 -1.5744
 4210TIP3   OH234188   1.329   6.891   7.733 -0.0149  0.4487 -0.3669
 4210TIP3    H134189   1.423   6.878   7.741 -0.1735  0.2579  1.6757
 4210TIP3    H234190   1.306   6.951   7.804 -1.7775 -1.5404  0.8835
 4211TIP3   OH234191   2.244   4.107   1.845  0.1062  0.3969  0.2367
 4211TIP3    H134192   2.232   4.165   1.770  1.3002 -0.2236 -0.4640
 4211TIP3    H234193   2.178   4.135   1.908 -1.9247 -0.0042 -1.5965
 4212TIP3   OH234194   5.755   3.620   1.367 -0.6659  0.6400  0.1364
 4212TIP3    H134195   5.797   3.705   1.379  2.7401 -0.9679  0.8774
 4212TIP3    H234196   5.778   3.595   1.277 -1.1582  0.2731  0.1110
 4213TIP3   OH234197   3.786   1.246   7.920 -0.1254  0.0242  0.0449
 4213TIP3    H134198   3.797   1.241   8.015 -0.7377  2.0664  0.2705
 4213TIP3    H234199   3.874   1.233   7.884  0.3575  0.6437  0.9801
 4214TIP3   OH234200   0.992   0.613   6.387  0.2248 -0.0456  0.4663
 4214TIP3    H134201   1.060   0.568   6.337  2.5338  1.1869  2.2677
 4214TIP3    H234202   1.038   0.645   6.465 -2.6571  0.1493  2.2046
 4215TIP3   OH234203   6.105   2.762   0.176 -0.1078  0.0204 -0.2177
 4215TIP3    H134204   6.099   2.715   0.093 -0.4928  0.6935 -0.5740
 4215TIP3    H234205   6.056   2.708   0.238  0.0484 -0.4035 -0.4593
 4216TIP3   OH234206   1.452   4.606   1.715  0.0835  0.1649 -0.2803
 4216TIP3    H134207   1.547   4.601   1.714  0.0667 -0.2285 -0.0211
 4216TIP3    H234208   1.424   4.566   1.633  0.1248 -0.0793 -0.1747
 4217TIP3   OH234209   2.133   2.592   7.260  0.1971  0.7339  0.5442
 4217TIP3    H134210   2.053   2.645   7.263 -0.5431 -0.3922  1.2824
 4217TIP3    H234211   2.142   2.557   7.348  0.3206 -0.8531 -0.0680
 4218TIP3   OH234212   1.895   3.201   7.757  0.0564 -0.4381 -0.2064
 4218TIP3    H134213   1.951   3.239   7.689  0.6361  0.8922  0.9572
 4218TIP3    H234214   1.806   3.225   7.732  0.3445  0.9176 -0.0007
 4219TIP3   OH234215   4.150   3.827   0.782 -0.2527 -0.0529  0.1397
 4219TIP3    H134216   4.133   3.892   0.850 -1.5412 -0.0589 -0.1366
 4219TIP3    H234217   4.096   3.752   0.807  1.2116 -1.0301  0.4528
 4220TIP3   OH234218   3.714   0.512   7.518 -0.5814  0.1191 -0.0140
 4220TIP3    H134219   3.652   0.518   7.590  1.1537  1.9677  1.4307
 4220TIP3    H234220   3.728   0.602   7.490  0.9733 -0.3046 -0.7064
 4221TIP3   OH234221   6.632   3.183   0.588  0.1646 -0.5611 -0.5249
 4221TIP3    H134222   6.539   3.190   0.568  0.1100  0.0552 -0.0855
 4221TIP3    H234223   6.675   3.178   0.502 -0.1378  1.0054 -0.7919
 4222TIP3   OH234224   5.210   0.659   7.432 -0.3786 -0.2447 -0.9570
 4222TIP3    H134225   5.134   0.717   7.427  0.4574  1.0791  0.6481
 4222TIP3    H234226   5.244   0.657   7.343 -0.9453  1.0208 -1.2241
 4223TIP3   OH234227   2.518   6.363   7.484  0.0256 -0.0663 -0.4247
 4223TIP3    H134228   2.552   6.302   7.549  0.5374 -0.2270 -0.8367
 4223TIP3    H234229   2.570   6.346   7.405  0.4014  1.1181 -0.4494
 4224TIP3   OH234230   0.079   0.279   7.635 -0.0324 -0.6519 -0.4470
 4224TIP3    H134231   0.082   0.315   7.724 -1.2291 -1.6500  0.0261
 4224TIP3    H234232   0.128   0.197   7.642 -0.5218 -0.9578 -0.5961
 4225TIP3   OH234233   5.712   0.593   7.224  0.6049  0.7005 -0.3637
 4225TIP3    H134234   5.746   0.681   7.240 -0.0758  0.8222  0.4561
 4225TIP3    H234235   5.767   0.559   7.153  0.9943  1.7097 -0.5629
 4226TIP3   OH234236   3.107   3.261   1.479 -0.3065  0.2004 -0.2398
 4226TIP3    H134237   3.054   3.339   1.463 -0.9168 -0.2737 -0.6105
 4226TIP3    H234238   3.197   3.293   1.483 -0.5080  0.8644 -0.8118
 4227TIP3   OH234239   3.898   4.461   7.840 -0.6776 -0.2372  0.7148
 4227TIP3    H134240   3.812   4.502   7.846 -0.8900 -0.5750  0.0339
 4227TIP3    H234241   3.885   4.384   7.785 -0.0883 -0.7034  1.2169
 4228TIP3   OH234242   4.958   2.725   8.153  0.2226 -0.2370 -0.7552
 4228TIP3    H134243   4.896   2.653   8.158 -0.3412  0.2888  0.5508
 4228TIP3    H234244   5.031   2.691   8.102  0.3521 -2.0240  0.5238
 4229TIP3   OH234245   0.758   6.774   2.465  0.1570 -0.0874  0.1800
 4229TIP3    H134246   0.721   6.687   2.482  0.9701 -0.4438  0.1682
 4229TIP3    H234247   0.805   6.764   2.382  1.8374 -0.1527  1.1021
 4230TIP3   OH234248   5.965   5.455   1.505  0.1739  0.1913  0.4900
 4230TIP3    H134249   5.916   5.521   1.457 -0.4728 -0.4028  0.3129
 4230TIP3    H234250   5.913   5.439   1.584  1.1985  1.1209  1.3839
 4231TIP3   OH234251   4.606   3.388   0.980  0.0849  0.1643 -0.1455
 4231TIP3    H134252   4.693   3.364   0.947 -0.9883 -2.0928 -1.5913
 4231TIP3    H234253   4.598   3.481   0.958  1.5501  0.0539 -1.3904
 4232TIP3   OH234254   3.926   0.450   8.069  0.1460 -0.0826 -0.3588
 4232TIP3    H134255   3.943   0.489   7.983 -1.8865 -0.7706 -1.1125
 4232TIP3    H234256   3.950   0.358   8.059 -2.0191 -0.6450 -0.8816
 4233TIP3   OH234257   0.313   1.302   7.772  0.1490 -0.0343 -0.4958
 4233TIP3    H134258   0.365   1.353   7.710  0.2554  0.2781 -0.1546
 4233TIP3    H234259   0.293   1.364   7.843  0.7429 -0.6181  0.1910
 4234TIP3   OH234260   2.331   1.656   7.772 -0.4209  0.4283  0.4180
 4234TIP3    H134261   2.324   1.742   7.732  0.6761  0.7676  0.9123
 4234TIP3    H234262   2.407   1.663   7.830  0.1207 -1.0821 -0.0704
 4235TIP3   OH234263   2.118   1.869   7.135 -0.1956  0.5390  0.3571
 4235TIP3    H134264   2.213   1.872   7.141 -0.1352  1.3366 -0.6378
 4235TIP3    H234265   2.100   1.791   7.082 -0.0829  0.5255  0.3385
 4236TIP3   OH234266   0.792   5.829   8.479 -0.2428 -0.3627  0.7422
 4236TIP3    H134267   0.820   5.907   8.431 -0.8827 -0.2215  0.5913
 4236TIP3    H234268   0.761   5.862   8.563 -0.2503 -0.4865  0.7886
 4237TIP3   OH234269   1.438   0.136   0.834  0.1990 -0.1603  0.3298
 4237TIP3    H134270   1.367   0.200   0.835 -0.1608 -0.5534  0.3261
 4237TIP3    H234271   1.517   0.188   0.846  0.0031  0.3994 -0.6709
 4238TIP3   OH234272   1.421   5.939   8.336 -0.8379 -0.5433  0.0871
 4238TIP3    H134273   1.463   5.855   8.354  0.9342  0.4955  1.1114
 4238TIP3    H234274   1.473   5.977   8.265  0.9541  1.3176  2.2161
 4239TIP3   OH234275   5.569   3.697   6.656 -0.0589 -0.3141  0.1131
 4239TIP3    H134276   5.563   3.777   6.604  1.0959 -0.2378  0.0802
 4239TIP3    H234277   5.536   3.628   6.598  0.6939 -0.1452 -0.5307
 4240TIP3   OH234278   1.212   4.171   7.551 -0.0876  0.2393 -0.2451
 4240TIP3    H134279   1.143   4.130   7.604  0.5632 -0.9921 -0.3110
 4240TIP3    H234280   1.169   4.190   7.467 -0.6844  0.6928  0.1516
 4241TIP3   OH234281   6.763   6.784   6.598 -0.3325 -0.0261  0.4995
 4241TIP3    H134282   6.843   6.750   6.639 -0.3008  1.2143  1.5064
 4241TIP3    H234283   6.725   6.843   6.663 -1.2980  0.5411 -0.5378
 4242TIP3   OH234284   3.613   4.176   7.408  1.0978 -0.3261 -0.8652
 4242TIP3    H134285   3.640   4.085   7.414 -0.1319 -0.7924 -1.9795
 4242TIP3    H234286   3.545   4.185   7.475  2.3869  0.2657  0.4271
 4243TIP3   OH234287   3.714   6.352   6.949 -0.2256 -0.0822 -0.2839
 4243TIP3    H134288   3.650   6.404   6.998  0.3466  0.4881 -0.1322
 4243TIP3    H234289   3.758   6.415   6.892  0.8919 -0.2816  0.3356
 4244TIP3   OH234290   5.474   2.362   5.987  0.2708 -0.1088 -0.3060
 4244TIP3    H134291   5.562   2.341   5.956 -0.2441 -1.8034 -0.7475
 4244TIP3    H234292   5.429   2.277   5.988 -1.0130  0.5535  1.0088
 4245TIP3   OH234293   1.988   3.666   0.950  0.3905 -0.0089 -0.0546
 4245TIP3    H134294   2.074   3.704   0.968  0.7413 -0.0548 -1.4990
 4245TIP3    H234295   1.992   3.578   0.987  0.7983  0.1453  0.2782
 4246TIP3   OH234296   4.327   4.484   6.854 -0.4557  0.6556  0.0274
 4246TIP3    H134297   4.404   4.507   6.801  0.4117 -0.5857  0.6864
 4246TIP3    H234298   4.362   4.466   6.941 -0.7928 -3.6576 -0.4956
 4247TIP3   OH234299   0.738   1.642   7.484  0.4083  0.4021  0.0182
 4247TIP3    H134300   0.703   1.605   7.403  1.7468 -0.8787 -0.0222
 4247TIP3    H234301   0.678   1.713   7.506  0.0036  0.7616 -2.0696
 4248TIP3   OH234302   5.011   0.035   0.755 -0.0845 -0.0458  0.4219
 4248TIP3    H134303   5.060  -0.042   0.728  0.0565  0.7339 -1.7801
 4248TIP3    H234304   4.987   0.078   0.673 -2.1263  1.0468  1.5054
 4249TIP3   OH234305   6.569   4.643   8.371  0.2851 -0.3830  0.3329
 4249TIP3    H134306   6.577   4.556   8.410  1.6447  0.1715  1.4087
 4249TIP3    H234307   6.604   4.702   8.438 -0.5117  0.9923 -0.4080
 4250TIP3   OH234308   6.917   0.914   7.765 -0.2757  0.2021  0.5312
 4250TIP3    H134309   6.949   1.004   7.766 -0.3596  0.2440 -0.1275
 4250TIP3    H234310   6.964   0.873   7.692 -0.9697 -0.0107  0.2000
 4251TIP3   OH234311   2.807   4.409   7.303 -0.0815 -0.0962  0.5107
 4251TIP3    H134312   2.823   4.486   7.357  0.4136 -1.3638  2.2496
 4251TIP3    H234313   2.712   4.402   7.299 -0.1349  0.6345  0.2489
 4252TIP3   OH234314   5.032   2.173   7.286  0.5643  0.3079  0.1764
 4252TIP3    H134315   5.024   2.260   7.247 -1.1936 -0.0933 -0.4125
 4252TIP3    H234316   5.066   2.118   7.216  1.2853  0.4123  0.4314
 4253TIP3   OH234317   2.357   1.343   0.453  0.1127  0.1949  0.3642
 4253TIP3    H134318   2.385   1.285   0.524 -0.8051 -0.2406  0.3779
 4253TIP3    H234319   2.309   1.286   0.393  1.2336  0.4647 -0.8460
 4254TIP3   OH234320   3.603   0.037   0.459 -0.0163 -0.1622  0.2746
 4254TIP3    H134321   3.521  -0.004   0.484 -0.6793 -0.5575 -2.2268
 4254TIP3    H234322   3.653  -0.032   0.416 -0.4601  1.1201 -2.5301
 4255TIP3   OH234323   5.010   2.431   0.941 -0.6253 -0.6465 -0.6892
 4255TIP3    H134324   4.973   2.402   1.024 -3.0233 -0.1360 -1.4870
 4255TIP3    H234325   5.099   2.459   0.962 -1.8878  1.6632  2.2054
 4256TIP3   OH234326   4.405   4.159   7.200  0.2452  0.1197 -0.4228
 4256TIP3    H134327   4.355   4.237   7.178  2.6396  2.2198  1.0364
 4256TIP3    H234328   4.485   4.166   7.148  1.1706 -0.5219  0.8615
 4257TIP3   OH234329   3.687   6.850   1.274  0.1503 -0.9233 -0.1335
 4257TIP3    H134330   3.746   6.912   1.317 -0.5647  1.1028 -1.9014
 4257TIP3    H234331   3.657   6.793   1.344  1.1230  0.5058  1.5206
 4258TIP3   OH234332   1.971   3.593   8.258 -0.5583  0.2857  0.0987
 4258TIP3    H134333   1.982   3.566   8.349 -1.4896 -1.9527 -0.3758
 4258TIP3    H234334   2.020   3.528   8.208 -1.0486  0.7749 -1.0460
 4259TIP3   OH234335   0.449   1.664   0.696 -0.0110 -0.2078  0.0662
 4259TIP3    H134336   0.384   1.675   0.627 -0.7344 -0.2572  0.7338
 4259TIP3    H234337   0.506   1.593   0.665 -0.0386  0.0923 -0.6885
 4260TIP3   OH234338   3.558   2.012   0.629 -0.1546  0.8772  0.3463
 4260TIP3    H134339   3.518   1.927   0.643 -1.5346  1.2096 -1.3010
 4260TIP3    H234340   3.652   1.995   0.626 -0.3163 -0.3454  1.4172
 4261TIP3   OH234341   1.956   6.354   6.780  0.6325  0.4595 -0.2373
 4261TIP3    H134342   1.942   6.437   6.735  1.3131  0.3117 -0.7457
 4261TIP3    H234343   2.016   6.306   6.723  1.5455  0.2794  0.8323
 4262TIP3   OH234344   0.405   3.646   6.712 -0.3447 -0.3938  0.2346
 4262TIP3    H134345   0.328   3.599   6.745  0.5777 -2.3051 -0.1659
 4262TIP3    H234346   0.410   3.621   6.620  0.7236 -0.2637  0.2482
 4263TIP3   OH234347   3.829   6.062   1.022 -0.0049 -0.0759 -0.8056
 4263TIP3    H134348   3.834   6.148   1.064 -1.2258 -0.3638 -0.0338
 4263TIP3    H234349   3.919   6.045   0.992  0.7764  0.4433  1.0914
 4264TIP3   OH234350   1.520   5.155   7.071 -0.4742  0.4170  0.5967
 4264TIP3    H134351   1.491   5.215   7.002 -1.1412  0.4667  0.9085
 4264TIP3    H234352   1.596   5.111   7.034 -1.0411  0.1747 -0.3195
 4265TIP3   OH234353   0.211   4.839   7.152 -0.4799  0.0982 -0.0146
 4265TIP3    H134354   0.176   4.752   7.172 -1.7226  0.4641 -0.5241
 4265TIP3    H234355   0.288   4.847   7.208 -1.1701 -0.7587  1.0942
 4266TIP3   OH234356   3.263   0.914   2.162 -0.0492 -0.1850 -0.2130
 4266TIP3    H134357   3.170   0.899   2.179  0.1325  0.3355  1.3839
 4266TIP3    H234358   3.285   0.852   2.093 -1.6182 -0.1921 -0.7346
 4267TIP3   OH234359   3.162   3.102   7.084  0.6397 -0.0515  0.1957
 4267TIP3    H134360   3.111   3.071   7.010  1.2775 -2.2696  0.5983
 4267TIP3    H234361   3.222   3.166   7.047 -0.4920  0.4857 -0.7816
 4268TIP3   OH234362   5.067   3.377   7.052  0.6381  0.4665  0.3612
 4268TIP3    H134363   5.119   3.314   7.002  0.7999  1.4495 -0.7698
 4268TIP3    H234364   5.001   3.324   7.098  0.2930 -0.4662 -1.1442
 4269TIP3   OH234365   3.918   1.724   1.389  0.2420 -0.1128 -0.4615
 4269TIP3    H134366   3.895   1.694   1.477  0.9212  1.2376  0.2060
 4269TIP3    H234367   3.852   1.789   1.368  0.7116  0.3626 -0.4841
 4270TIP3   OH234368   6.829   1.277   0.575  0.0469 -0.4601  0.2619
 4270TIP3    H134369   6.885   1.312   0.644 -0.0964 -0.6892  0.4960
 4270TIP3    H234370   6.813   1.186   0.600  1.2513 -1.0189 -0.8774
 4271TIP3   OH234371   1.022   5.069   2.080  0.0214  0.3276 -0.2007
 4271TIP3    H134372   1.064   5.000   2.131  0.1169  1.2398  0.9994
 4271TIP3    H234373   1.025   5.146   2.137 -2.9507  0.5477 -0.1693
 4272TIP3   OH234374   3.607   6.821   8.087 -0.0878 -0.1263  0.1496
 4272TIP3    H134375   3.572   6.910   8.092 -1.7303 -0.7568  0.6362
 4272TIP3    H234376   3.636   6.801   8.176 -0.9478 -0.5299  0.3486
 4273TIP3   OH234377   1.783   0.921   6.560 -0.0839  0.2807 -0.0043
 4273TIP3    H134378   1.776   0.826   6.566  0.4559  0.3077  1.5321
 4273TIP3    H234379   1.867   0.937   6.517 -0.1469  0.0687 -0.2056
 4274TIP3   OH234380   6.901   0.195   8.287  0.1433 -0.2497 -0.0673
 4274TIP3    H134381   6.827   0.161   8.338 -0.6550  0.1018 -0.9737
 4274TIP3    H234382   6.970   0.209   8.352 -0.0953 -1.9006  0.5954
 4275TIP3   OH234383   2.306   2.724   7.793 -0.4517 -0.4528  0.3544
 4275TIP3    H134384   2.228   2.720   7.848 -0.0117 -0.2550  1.0005
 4275TIP3    H234385   2.275   2.762   7.710 -0.8588  0.5569  0.9534
 4276TIP3   OH234386   2.905   5.560   7.640  0.0781  0.2908  0.4761
 4276TIP3    H134387   2.998   5.558   7.617 -0.2430  0.7925 -0.9622
 4276TIP3    H234388   2.862   5.602   7.566 -1.2149  0.8357  1.4763
 4277TIP3   OH234389   4.015   6.252   1.302 -0.4399 -0.6075  0.2496
 4277TIP3    H134390   4.072   6.329   1.309 -1.0957  0.6295 -4.3870
 4277TIP3    H234391   3.934   6.286   1.265 -1.2317 -3.3667 -0.7926
 4278TIP3   OH234392   1.397   3.771   7.077 -0.0079 -0.6493 -0.1319
 4278TIP3    H134393   1.384   3.688   7.124  0.6082 -0.0177  1.2030
 4278TIP3    H234394   1.467   3.815   7.125 -0.9124  1.0385 -0.3113
 4279TIP3   OH234395   0.161   5.434   7.299 -0.0839 -0.0895  0.2702
 4279TIP3    H134396   0.164   5.512   7.354 -0.6923 -0.3965  0.7661
 4279TIP3    H234397   0.221   5.372   7.341  0.9484  0.3467 -0.5263
 4280TIP3   OH234398   1.681   4.976   7.537 -0.2694 -0.1953  0.3016
 4280TIP3    H134399   1.705   4.891   7.573 -1.0299 -0.1262  0.9932
 4280TIP3    H234400   1.645   5.024   7.611 -1.7326 -0.0086 -0.4914
 4281TIP3   OH234401   4.994   1.715   0.639 -0.1191  0.2309 -0.3551
 4281TIP3    H134402   4.978   1.620   0.637 -0.2096  0.1841  1.4889
 4281TIP3    H234403   4.921   1.752   0.589 -0.1727 -0.6457 -0.9560
 4282TIP3   OH234404   2.037   3.444   1.651 -0.2512  0.0589  0.0613
 4282TIP3    H134405   2.083   3.396   1.720 -1.1627  1.0913  1.4620
 4282TIP3    H234406   1.948   3.408   1.652 -0.1405 -0.2699 -0.9459
 4283TIP3   OH234407   6.064   0.332   1.552  0.3661  0.1709 -0.1125
 4283TIP3    H134408   6.150   0.374   1.559  0.9823 -1.0142 -0.2966
 4283TIP3    H234409   6.047   0.296   1.639  1.4022 -2.0597 -0.7558
 4284TIP3   OH234410   0.087   6.740   6.719 -0.1760 -0.3242  0.1737
 4284TIP3    H134411   0.104   6.830   6.748 -1.2420 -0.1589  0.3098
 4284TIP3    H234412   0.164   6.717   6.667 -0.9691  1.5713 -2.0037
 4285TIP3   OH234413   1.557   2.694   7.579 -0.1532  0.3610  0.1015
 4285TIP3    H134414   1.497   2.768   7.578 -0.9121 -0.2435 -0.8079
 4285TIP3    H234415   1.571   2.675   7.672 -1.1333  0.6904  0.3218
 4286TIP3   OH234416   5.908   0.256   6.931 -0.4611  0.6296 -0.7527
 4286TIP3    H134417   5.849   0.331   6.934  1.0938  1.9306  2.5560
 4286TIP3    H234418   5.873   0.195   6.996  1.8124  1.5937  1.5645
 4287TIP3   OH234419   4.912   1.487   1.030 -0.6481  0.0028  0.1552
 4287TIP3    H134420   4.876   1.533   0.955  0.4668  2.0417  0.8121
 4287TIP3    H234421   5.007   1.491   1.018 -0.4565  0.1148  1.5116
 4288TIP3   OH234422   4.807   2.891   7.617 -0.2473 -0.1579  0.5434
 4288TIP3    H134423   4.873   2.824   7.631  0.5260  0.6528  0.8705
 4288TIP3    H234424   4.813   2.913   7.524 -0.3480 -0.3766  0.4843
 4289TIP3   OH234425   4.674   5.738   7.548 -0.7682  0.0117 -0.3183
 4289TIP3    H134426   4.747   5.793   7.518  0.3234  0.8384  3.3993
 4289TIP3    H234427   4.714   5.674   7.607 -2.6253 -2.0936 -1.1933
 4290TIP3   OH234428   6.853   4.212   0.379  0.4865  0.3280 -0.1016
 4290TIP3    H134429   6.776   4.172   0.418 -0.1261  0.8543 -0.7455
 4290TIP3    H234430   6.926   4.179   0.431 -0.0870 -0.8537 -0.0195
 4291TIP3   OH234431   4.063   0.773   6.962  0.3974  0.0664  0.2629
 4291TIP3    H134432   4.051   0.848   6.903 -0.2076  0.9314  1.4585
 4291TIP3    H234433   4.152   0.743   6.944  0.8154  1.3596  0.0902
 4292TIP3   OH234434   5.348   6.699   0.458  0.4610  0.0576  0.0588
 4292TIP3    H134435   5.345   6.794   0.453  1.9416  0.1418  0.1348
 4292TIP3    H234436   5.405   6.680   0.533 -1.0495 -0.9197  1.0030
 4293TIP3   OH234437   0.279   3.012   0.276 -0.3383 -0.5862  0.0601
 4293TIP3    H134438   0.232   2.931   0.297  0.1548 -0.9815 -0.3341
 4293TIP3    H234439   0.363   2.982   0.242 -1.0426  0.0170 -2.4130
 4294TIP3   OH234440   3.503   0.096   1.426  0.0930 -0.3296  0.2024
 4294TIP3    H134441   3.435   0.028   1.425  0.1109 -0.3436 -0.1139
 4294TIP3    H234442   3.561   0.072   1.353  0.9439 -0.8341  1.0282
 4295TIP3   OH234443   6.916   2.284   7.945  0.2255 -0.3489 -0.5409
 4295TIP3    H134444   6.861   2.320   7.875 -0.4933  0.1905  0.2787
 4295TIP3    H234445   6.867   2.302   8.025  1.6706  0.3046  0.2379
 4296TIP3   OH234446   6.916   0.758   1.661 -0.4622  0.1047 -0.7212
 4296TIP3    H134447   6.825   0.739   1.636  0.2930 -2.8274 -1.5787
 4296TIP3    H234448   6.956   0.672   1.676  2.9648  1.0307 -3.2890
 4297TIP3   OH234449   1.200   3.484   1.462 -0.1409  0.3024  0.3719
 4297TIP3    H134450   1.281   3.535   1.464 -1.1010  1.8378  0.9230
 4297TIP3    H234451   1.230   3.393   1.467  1.5749  0.8007 -0.0832
 4298TIP3   OH234452   6.876   5.661   6.692  0.2238  0.3634 -0.0669
 4298TIP3    H134453   6.905   5.572   6.675 -1.7164  0.0228 -1.8510
 4298TIP3    H234454   6.886   5.706   6.608 -0.3477  1.3857  0.3986
 4299TIP3   OH234455   5.931   0.835   7.481 -0.3353 -0.1389  0.3649
 4299TIP3    H134456   5.926   0.825   7.386 -1.5278  0.1737  0.3803
 4299TIP3    H234457   5.926   0.745   7.515 -1.6034 -0.1638  0.1723
 4300TIP3   OH234458   5.835   5.614   8.533  0.1160  0.3554  0.2296
 4300TIP3    H134459   5.908   5.588   8.477  0.1758  0.1623  0.3952
 4300TIP3    H234460   5.785   5.675   8.480 -0.9568 -1.3459 -0.8127
 4301TIP3   OH234461   0.105   3.208   8.092 -0.0612 -0.1403 -0.4332
 4301TIP3    H134462   0.083   3.147   8.022  0.2294 -0.8803  0.1078
 4301TIP3    H234463   0.189   3.177   8.126  0.1263  0.6013 -0.1843
 4302TIP3   OH234464   1.345   5.276   6.413 -0.4215  0.6142  0.1203
 4302TIP3    H134465   1.315   5.191   6.382  0.2520  0.1171  0.7728
 4302TIP3    H234466   1.394   5.313   6.339 -0.4169  0.2810 -0.0447
 4303TIP3   OH234467   6.243   2.414   7.997 -0.2923  0.1647  0.3083
 4303TIP3    H134468   6.208   2.504   7.995 -0.9687 -0.1013 -1.3068
 4303TIP3    H234469   6.290   2.405   7.915 -2.0743 -1.6464 -0.5803
 4304TIP3   OH234470   0.312   1.070   1.023  0.1289  0.4571 -0.0803
 4304TIP3    H134471   0.221   1.097   1.010 -0.1042 -0.1623  0.2203
 4304TIP3    H234472   0.331   1.014   0.947  0.2912  0.6663 -0.1936
 4305TIP3   OH234473   6.772   0.161   8.055 -0.0453 -0.7664  0.1191
 4305TIP3    H134474   6.780   0.233   8.118  0.9246  0.8589 -1.7664
 4305TIP3    H234475   6.823   0.090   8.093  0.6505  0.2207  1.0849
 4306TIP3   OH234476   6.586   1.686   0.469  0.2309 -0.1132 -0.4007
 4306TIP3    H134477   6.632   1.768   0.485  0.4543 -0.3954  0.4890
 4306TIP3    H234478   6.652   1.618   0.485 -0.7119 -0.5706  1.9870
 4307TIP3   OH234479   6.217   1.372   8.197 -0.1772  0.2376  0.0091
 4307TIP3    H134480   6.237   1.336   8.283 -0.1019  1.8614  0.7046
 4307TIP3    H234481   6.294   1.352   8.144  0.9974  1.6542  1.1234
 4308TIP3   OH234482   2.276   1.146   1.434  0.0167 -0.1751 -0.0888
 4308TIP3    H134483   2.207   1.203   1.468  0.6358  0.0186  0.9096
 4308TIP3    H234484   2.255   1.060   1.470  0.7022  0.0405  0.8715
 4309TIP3   OH234485   6.075   3.157   7.815  0.0493  0.2079  0.4507
 4309TIP3    H134486   6.157   3.206   7.814 -0.1263  0.6118  2.3179
 4309TIP3    H234487   6.102   3.065   7.803  0.5929  0.4892 -0.6187
 4310TIP3   OH234488   4.115   4.111   8.154 -0.0889  0.6266 -0.2124
 4310TIP3    H134489   4.105   4.033   8.100  1.8596 -0.7403  1.2362
 4310TIP3    H234490   4.026   4.140   8.171 -0.7879  0.0975 -2.6596
 4311TIP3   OH234491   4.759   5.343   8.041  0.9868 -0.6565 -0.0249
 4311TIP3    H134492   4.770   5.438   8.038  0.1914 -0.5826 -0.9889
 4311TIP3    H234493   4.826   5.309   7.981  2.1430 -0.8127  1.2983
 4312TIP3   OH234494   5.483   5.215   0.269 -0.4773 -0.4173 -0.3540
 4312TIP3    H134495   5.568   5.173   0.256  0.8307  1.7124  0.7668
 4312TIP3    H234496   5.464   5.258   0.185  0.5281  0.7020 -0.0293
 4313TIP3   OH234497   3.937   5.568   1.854  0.2453 -0.4820  0.1760
 4313TIP3    H134498   4.022   5.522   1.856  0.5825  0.1337  1.7597
 4313TIP3    H234499   3.960   5.660   1.864 -0.5976 -0.2831  0.2899
 4314TIP3   OH234500   4.713   3.856   0.384  0.2702  0.2174  0.2078
 4314TIP3    H134501   4.633   3.803   0.395  0.1648  0.4838  0.7674
 4314TIP3    H234502   4.685   3.946   0.400  0.8576  0.2199  1.3721
 4315TIP3   OH234503   3.596   6.663   7.541  0.1950 -0.3298 -0.1579
 4315TIP3    H134504   3.534   6.661   7.614 -1.4545 -0.3431 -1.4973
 4315TIP3    H234505   3.619   6.756   7.532 -0.9509 -0.0786 -0.6839
 4316TIP3   OH234506   6.641   4.467   0.522  0.1516  0.5165 -0.1024
 4316TIP3    H134507   6.648   4.494   0.613  0.4358 -0.4983  0.1924
 4316TIP3    H234508   6.637   4.548   0.472 -1.8815  1.1300  0.9392
 4317TIP3   OH234509   0.796   0.137   0.559 -0.0556  0.3016 -0.6557
 4317TIP3    H134510   0.724   0.200   0.565 -0.0247  0.4272 -1.4468
 4317TIP3    H234511   0.875   0.190   0.568 -0.0623  0.0794  0.8537
 4318TIP3   OH234512   5.174   6.887   7.582 -0.5549  0.9613 -0.1981
 4318TIP3    H134513   5.261   6.906   7.547  1.2393 -2.9124  1.6298
 4318TIP3    H234514   5.175   6.923   7.671 -0.3673 -0.0739  0.2245
 4319TIP3   OH234515   2.293   1.508   2.051 -0.0826 -0.0868 -0.1483
 4319TIP3    H134516   2.290   1.416   2.078 -0.5088  0.2379  0.9935
 4319TIP3    H234517   2.382   1.521   2.019  0.4079 -0.5672  0.9752
 4320TIP3   OH234518   0.594   6.854   0.582 -0.0649 -0.5129 -0.5472
 4320TIP3    H134519   0.527   6.895   0.637  0.1206 -0.4977 -0.3305
 4320TIP3    H234520   0.670   6.911   0.590 -0.1887 -0.2548 -1.2025
 4321TIP3   OH234521   6.436   4.073   1.083  0.2501  0.0172  0.0848
 4321TIP3    H134522   6.413   4.143   1.145 -0.4212  0.2503 -0.4108
 4321TIP3    H234523   6.387   3.997   1.114  1.5266 -0.4574  1.0389
 4322TIP3   OH234524   6.434   2.939   0.770  0.2174 -0.4035  0.1331
 4322TIP3    H134525   6.415   2.935   0.864 -0.7886 -1.8725 -0.1060
 4322TIP3    H234526   6.520   2.897   0.761  0.4976  0.0916  0.4211
 4323TIP3   OH234527   4.489   4.713   0.418  0.1595 -0.2199 -0.1661
 4323TIP3    H134528   4.442   4.788   0.381  0.4188  1.1508  2.0770
 4323TIP3    H234529   4.456   4.638   0.369 -0.7205  1.2424 -1.9556
 4324TIP3   OH234530   3.105   1.014   1.456  0.2428  0.5865  0.6587
 4324TIP3    H134531   3.156   1.041   1.380  1.2324  0.0666  1.1100
 4324TIP3    H234532   3.111   1.088   1.516  4.1712 -0.8881  2.5036
 4325TIP3   OH234533   5.233   2.014   7.463  0.0566 -0.1525  0.5055
 4325TIP3    H134534   5.282   1.935   7.441 -1.3454 -0.7353 -0.7376
 4325TIP3    H234535   5.141   1.984   7.467 -0.4485  1.3313  0.4095
 4326TIP3   OH234536   1.171   4.471   1.634 -0.1139  0.2913 -0.8372
 4326TIP3    H134537   1.094   4.491   1.687  0.2893  1.8612 -0.8024
 4326TIP3    H234538   1.136   4.442   1.550 -0.8225 -3.5654  0.5501
 4327TIP3   OH234539   5.427   6.024   6.795  0.4411 -0.0608 -0.3059
 4327TIP3    H134540   5.334   6.031   6.774  0.1912 -0.8004  0.4723
 4327TIP3    H234541   5.441   6.085   6.867  0.0875 -1.3700  0.9260
 4328TIP3   OH234542   4.885   0.335   0.958 -0.0204 -0.3798  0.0098
 4328TIP3    H134543   4.940   0.335   0.880  1.4987  1.5973  0.9874
 4328TIP3    H234544   4.944   0.309   1.029 -0.2191  1.9009  1.1173
 4329TIP3   OH234545   1.020   3.134   7.438 -0.6454 -0.0609 -0.0679
 4329TIP3    H134546   1.111   3.107   7.420 -0.6343  0.6574 -1.1636
 4329TIP3    H234547   0.984   3.154   7.352 -1.4562  0.8898  0.4851
 4330TIP3   OH234548   3.732   5.815   0.620  0.0184 -0.0189 -0.5418
 4330TIP3    H134549   3.660   5.764   0.584  1.3219 -1.4362 -1.2228
 4330TIP3    H234550   3.708   5.828   0.712 -1.5866  0.4615 -1.0024
 4331TIP3   OH234551   0.293   5.008   8.053  0.2218 -0.1165  0.5283
 4331TIP3    H134552   0.388   4.995   8.055  0.3016  0.0906 -0.9536
 4331TIP3    H234553   0.268   4.991   7.962 -1.3722 -1.5386  1.1794
 4332TIP3   OH234554   6.350   1.023   1.414 -0.0636 -0.3016 -0.2096
 4332TIP3    H134555   6.275   0.967   1.392  0.0100 -1.4771  2.1745
 4332TIP3    H234556   6.315   1.112   1.410 -1.3423 -0.7650 -0.0970
 4333TIP3   OH234557   4.214   3.131   1.412 -0.7511 -0.0886 -0.1412
 4333TIP3    H134558   4.302   3.135   1.450 -0.2473  0.9813 -1.3202
 4333TIP3    H234559   4.166   3.071   1.468  0.2589  0.5576  1.4901
 4334TIP3   OH234560   3.484   1.286   1.530  1.0003  0.6117  0.0248
 4334TIP3    H134561   3.559   1.346   1.530  0.3270  1.4867 -0.4845
 4334TIP3    H234562   3.479   1.255   1.439  0.7045  0.6191  0.0385
 4335TIP3   OH234563   3.856   0.495   7.130 -0.2343  0.1574  0.3658
 4335TIP3    H134564   3.931   0.436   7.123 -0.2427  0.2339 -0.5880
 4335TIP3    H234565   3.802   0.474   7.053  0.7173  2.6895 -1.1332
 4336TIP3   OH234566   4.649   3.414   6.681  0.1586  0.1543 -0.1349
 4336TIP3    H134567   4.625   3.402   6.589 -2.7950 -0.0150  0.5476
 4336TIP3    H234568   4.588   3.481   6.713  2.8781  2.2223  1.1099
 4337TIP3   OH234569   0.067   4.405   1.652  0.1945  0.1629 -0.3302
 4337TIP3    H134570   0.124   4.356   1.711 -0.7668 -1.3788 -0.6189
 4337TIP3    H234571   0.017   4.463   1.710  1.3315  0.8355  0.0188
 4338TIP3   OH234572   0.583   0.369   1.545  0.3690  0.2768  0.3357
 4338TIP3    H134573   0.503   0.421   1.552 -0.4937 -0.7793 -0.9978
 4338TIP3    H234574   0.598   0.361   1.450  2.5170  1.1046  0.5494
 4339TIP3   OH234575   5.500   0.337   1.463  0.0579 -0.0908  0.1407
 4339TIP3    H134576   5.527   0.334   1.555  3.3829 -0.2978 -0.7105
 4339TIP3    H234577   5.575   0.376   1.418 -1.5535  0.1723 -2.4797
 4340TIP3   OH234578   0.421   1.284   6.724 -0.0706  0.0965  0.0250
 4340TIP3    H134579   0.410   1.235   6.643  0.4950  0.5672 -0.3386
 4340TIP3    H234580   0.348   1.255   6.779 -1.1156  0.6015 -1.0553
 4341TIP3   OH234581   2.024   4.735   8.149  0.0303  0.5558 -0.1281
 4341TIP3    H134582   2.007   4.702   8.060 -0.6545 -0.4179  0.3417
 4341TIP3    H234583   2.058   4.659   8.196 -1.4264  0.5311  0.9428
 4342TIP3   OH234584   3.688   0.564   8.186  0.7269 -0.0234  0.1578
 4342TIP3    H134585   3.742   0.522   8.120  0.9168 -0.4829  0.6060
 4342TIP3    H234586   3.654   0.492   8.240 -0.5358  0.2222 -0.2673
 4343TIP3   OH234587   3.818   4.668   0.692 -0.8655 -0.0280  0.3576
 4343TIP3    H134588   3.837   4.603   0.624  0.3320  1.3093 -0.6315
 4343TIP3    H234589   3.888   4.732   0.684 -1.1865  0.6196  2.3173
 4344TIP3   OH234590   6.315   4.353   0.439  0.2785  0.3051  0.2671
 4344TIP3    H134591   6.260   4.355   0.517 -0.7444  3.0940 -0.4220
 4344TIP3    H234592   6.402   4.380   0.470  0.1573  0.3001  0.6166
 4345TIP3   OH234593   6.060   0.958   0.134 -0.3891  0.3602 -0.2351
 4345TIP3    H134594   6.151   0.980   0.156 -1.0445  0.2784  3.1222
 4345TIP3    H234595   6.054   0.864   0.146 -0.6820  0.1767 -1.6424
 4346TIP3   OH234596   4.144   6.583   0.709  0.0791  0.6087  1.2347
 4346TIP3    H134597   4.075   6.634   0.667  0.6515 -1.4850 -2.7446
 4346TIP3    H234598   4.111   6.493   0.706  1.7605 -0.0608  1.9970
 4347TIP3   OH234599   0.020   4.233   6.279 -0.7300 -0.1541 -0.6465
 4347TIP3    H134600   0.009   4.141   6.305 -0.9086 -0.4806 -1.8207
 4347TIP3    H234601   0.094   4.232   6.219  1.0405  0.9137  1.3932
 4348TIP3   OH234602   5.543   3.925   6.537  0.3787  0.2186 -0.2746
 4348TIP3    H134603   5.547   3.960   6.447  0.1763 -0.1319 -0.4213
 4348TIP3    H234604   5.557   4.002   6.592 -0.5208  0.6289 -0.5877
 4349TIP3   OH234605   0.842   0.478   1.972 -0.0277  0.2506  0.5498
 4349TIP3    H134606   0.767   0.432   1.935  0.4854  1.3263 -2.0540
 4349TIP3    H234607   0.810   0.567   1.988  0.3017  0.3237  0.8111
 4350TIP3   OH234608   2.559   0.063   7.797  0.1498 -0.0491 -0.5132
 4350TIP3    H134609   2.511   0.007   7.858 -0.2560 -0.3984 -1.1391
 4350TIP3    H234610   2.548   0.020   7.712 -0.4523  1.1639 -1.0616
 4351TIP3   OH234611   3.941   2.085   0.953 -0.3031  0.0798  0.2483
 4351TIP3    H134612   3.913   2.175   0.966  0.6584  0.7064 -1.6691
 4351TIP3    H234613   3.882   2.050   0.886  0.7740  0.0682 -0.7302
 4352TIP3   OH234614   3.362   2.380   0.424  0.3827  0.4456 -0.1669
 4352TIP3    H134615   3.449   2.370   0.387  0.5070  0.2382  0.1781
 4352TIP3    H234616   3.359   2.318   0.497 -0.9626 -1.5481 -1.7977
 4353TIP3   OH234617   2.868   6.136   8.461 -0.3117 -0.2776 -0.8594
 4353TIP3    H134618   2.919   6.096   8.390  0.6531  0.8794 -0.8673
 4353TIP3    H234619   2.806   6.069   8.487  1.2336 -1.7915 -0.8503
 4354TIP3   OH234620   1.535   4.381   0.980  0.6423 -0.4977 -0.0839
 4354TIP3    H134621   1.528   4.294   1.020  0.7066 -0.3451  0.2616
 4354TIP3    H234622   1.446   4.416   0.980  0.4067 -1.0479 -1.3337
 4355TIP3   OH234623   6.283   2.538   8.286 -0.0383 -0.3291 -0.0257
 4355TIP3    H134624   6.256   2.457   8.329 -1.7315 -0.0515 -0.5064
 4355TIP3    H234625   6.324   2.590   8.356 -0.6520 -0.8165  0.7094
 4356TIP3   OH234626   3.271   5.759   1.747 -0.1842  0.1308 -0.0194
 4356TIP3    H134627   3.273   5.713   1.831  0.1262  2.1369  1.1359
 4356TIP3    H234628   3.348   5.725   1.700  0.3996 -0.0767  1.0504
 4357TIP3   OH234629   1.765   6.271   8.146  0.1143 -0.8398 -0.2643
 4357TIP3    H134630   1.766   6.357   8.189 -0.9496 -1.4789  1.0759
 4357TIP3    H234631   1.676   6.238   8.159  0.2336 -1.7596 -1.5827
 4358TIP3   OH234632   0.613   2.976   6.532 -0.4741  0.3504  0.5212
 4358TIP3    H134633   0.526   3.015   6.529 -0.3178  0.6959 -2.0854
 4358TIP3    H234634   0.652   2.997   6.446  1.5109 -1.2791  0.9353
 4359TIP3   OH234635   5.997   5.372   2.127 -0.2994 -0.0486  0.4917
 4359TIP3    H134636   6.048   5.438   2.080  0.1390 -1.2865 -0.8598
 4359TIP3    H234637   5.958   5.318   2.057  1.8735 -3.1168  1.4419
 4360TIP3   OH234638   2.311   3.216   8.142 -0.8727  0.4311  0.1842
 4360TIP3    H134639   2.272   3.167   8.069 -0.0960 -0.1905  0.1814
 4360TIP3    H234640   2.400   3.182   8.149 -1.4903 -0.8903  2.6468
 4361TIP3   OH234641   2.132   1.464   1.078  0.6835 -0.2676 -0.1022
 4361TIP3    H134642   2.169   1.375   1.076  1.5916  0.0995 -0.2910
 4361TIP3    H234643   2.096   1.472   1.166  1.6078 -0.4448  0.3136
 4362TIP3   OH234644   0.592   2.207   7.680  0.3850  0.4848 -0.1407
 4362TIP3    H134645   0.634   2.123   7.699 -0.1307 -0.0216 -1.1616
 4362TIP3    H234646   0.657   2.273   7.706 -0.2654 -0.0889  3.3552
 4363TIP3   OH234647   2.650   6.190   7.623 -0.2403  0.0082 -0.1403
 4363TIP3    H134648   2.638   6.157   7.711  1.4076 -0.0820  0.0916
 4363TIP3    H234649   2.745   6.199   7.614 -0.3220 -0.6988 -2.1614
 4364TIP3   OH234650   1.117   2.675   6.328 -0.2428 -0.3756 -0.0697
 4364TIP3    H134651   1.143   2.752   6.277 -0.3414 -0.7216 -0.6432
 4364TIP3    H234652   1.034   2.648   6.290 -0.9826  0.1390  1.1327
 4365TIP3   OH234653   0.346   6.570   2.079 -0.2618 -0.0539 -0.1351
 4365TIP3    H134654   0.418   6.555   2.141  0.0942 -0.5267 -0.6562
 4365TIP3    H234655   0.269   6.580   2.135  0.1839  0.3347  0.4247
 4366TIP3   OH234656   3.489   0.132   8.141  0.2927  0.1015 -0.0545
 4366TIP3    H134657   3.509   0.192   8.213 -3.0558  1.2463  0.0911
 4366TIP3    H234658   3.521   0.178   8.063  2.4644 -0.4096  0.4666
 4367TIP3   OH234659   3.299   6.470   7.991 -0.3072  0.3673 -0.4772
 4367TIP3    H134660   3.375   6.522   8.014 -1.4324  1.2171  1.5378
 4367TIP3    H234661   3.224   6.526   8.012 -1.5889  0.3080 -4.0774
 4368TIP3   OH234662   1.048   1.799   0.823  0.2690  0.3625  0.0059
 4368TIP3    H134663   1.129   1.844   0.796  0.0793 -0.6306 -2.4913
 4368TIP3    H234664   0.988   1.813   0.749 -2.3920  2.1797  2.3100
 4369TIP3   OH234665   5.789   2.886   7.129  0.3268 -0.0998  0.9138
 4369TIP3    H134666   5.766   2.952   7.064  0.6461 -0.9738 -0.1179
 4369TIP3    H234667   5.788   2.933   7.212 -0.6509  0.9179  0.3594
 4370TIP3   OH234668   5.108   2.261   1.449  0.2116  0.2204 -0.4910
 4370TIP3    H134669   5.028   2.259   1.501  0.3955 -2.2544 -0.1765
 4370TIP3    H234670   5.156   2.182   1.475  2.3400  1.1592 -1.3236
 4371TIP3   OH234671   4.829   0.931   6.735  0.5440 -0.0703  0.3933
 4371TIP3    H134672   4.910   0.882   6.719 -0.0465 -0.5691 -1.2429
 4371TIP3    H234673   4.843   0.973   6.820  2.7044  0.2516 -0.0723
 4372TIP3   OH234674   5.642   5.756   6.241  0.0246 -0.5067 -0.0033
 4372TIP3    H134675   5.591   5.677   6.222  0.7029 -0.8194 -0.5465
 4372TIP3    H234676   5.733   5.729   6.229  0.4231 -0.2596  1.9819
 4373TIP3   OH234677   2.910   6.473   7.841  0.5314  0.5591 -0.2861
 4373TIP3    H134678   2.882   6.383   7.830  0.8937  0.3966  0.1117
 4373TIP3    H234679   2.931   6.481   7.934  3.4607  0.1776 -0.8251
 4374TIP3   OH234680   4.052   3.200   7.727 -0.6481 -0.3693  0.2054
 4374TIP3    H134681   4.140   3.161   7.724 -0.1172  0.7962 -0.1841
 4374TIP3    H234682   4.002   3.154   7.660 -0.1883 -0.7031  0.0867
 4375TIP3   OH234683   0.933   3.739   7.199  0.9198 -0.0092  0.2341
 4375TIP3    H134684   0.993   3.813   7.188  1.0235 -0.2886 -1.3179
 4375TIP3    H234685   0.859   3.760   7.142 -1.1368  0.9179  3.0082
 4376TIP3   OH234686   6.392   0.600   0.392  0.1434 -0.2297  0.0189
 4376TIP3    H134687   6.470   0.644   0.423  0.1693  1.2961 -2.0203
 4376TIP3    H234688   6.412   0.574   0.302 -0.4671 -3.0482  0.5782
 4377TIP3   OH234689   4.081   4.560   0.379  0.1371  0.2983  0.0032
 4377TIP3    H134690   4.066   4.467   0.395  0.0422  0.2746 -0.2195
 4377TIP3    H234691   3.993   4.599   0.377 -0.1174 -0.1484 -3.2142
 4378TIP3   OH234692   0.823   0.967   6.861 -0.0500 -0.4678  0.3899
 4378TIP3    H134693   0.739   0.977   6.816 -0.5041 -2.1066  0.8150
 4378TIP3    H234694   0.876   1.041   6.830 -1.3543  0.1032 -0.5397
 4379TIP3   OH234695   2.311   5.989   0.742  0.4975 -0.3616 -0.7775
 4379TIP3    H134696   2.401   5.980   0.709  0.6459 -1.9155 -0.0311
 4379TIP3    H234697   2.259   5.932   0.685 -0.0716  0.6684 -1.3208
 4380TIP3   OH234698   5.016   1.622   1.910  0.7103 -0.2076 -0.4817
 4380TIP3    H134699   5.077   1.553   1.938  0.1837  0.1464  1.7419
 4380TIP3    H234700   5.072   1.697   1.893  1.3587 -1.2339 -3.5156
 4381TIP3   OH234701   2.622   6.357   6.574  0.1440 -0.0596  0.4256
 4381TIP3    H134702   2.665   6.290   6.522  1.1700 -0.4749  1.7407
 4381TIP3    H234703   2.677   6.366   6.652 -0.5051  1.6174  0.7382
 4382TIP3   OH234704   0.797   2.831   7.711 -0.0482 -0.1832 -0.0471
 4382TIP3    H134705   0.713   2.804   7.674 -0.0875  0.3255 -0.3341
 4382TIP3    H234706   0.837   2.749   7.740 -0.6382 -0.4311  0.0894
 4383TIP3   OH234707   1.330   1.656   7.431  0.4284 -0.3862 -0.1732
 4383TIP3    H134708   1.388   1.610   7.370  0.7011 -0.6831  0.3054
 4383TIP3    H234709   1.371   1.742   7.442  0.9835 -0.7191  0.4404
 4384TIP3   OH234710   1.936   1.268   0.682 -0.1145  0.0268 -0.0019
 4384TIP3    H134711   1.893   1.289   0.765 -0.1439 -1.4692  0.3760
 4384TIP3    H234712   1.874   1.298   0.615 -1.5731 -1.6748  0.5277
 4385TIP3   OH234713   6.276   6.597   1.701  0.3320 -0.1077  0.2145
 4385TIP3    H134714   6.197   6.600   1.647 -0.5696  0.8029  1.4877
 4385TIP3    H234715   6.255   6.654   1.776  1.0513 -2.1701  2.1095
 4386TIP3   OH234716   5.638   2.389   7.771  0.0182 -0.3150 -0.0205
 4386TIP3    H134717   5.645   2.471   7.723 -0.7024 -1.0404 -1.4398
 4386TIP3    H234718   5.573   2.405   7.839 -0.0092  0.3310 -0.1991
 4387TIP3   OH234719   5.750   3.705   7.168 -0.5409  0.3496  0.1007
 4387TIP3    H134720   5.687   3.754   7.220  1.1008  3.7061 -0.7771
 4387TIP3    H234721   5.721   3.716   7.078  0.3288  0.4943 -0.1749
 4388TIP3   OH234722   0.372   3.925   8.124 -0.3013 -0.1807  0.0576
 4388TIP3    H134723   0.393   3.999   8.066 -0.7332  0.7743  1.0922
 4388TIP3    H234724   0.312   3.871   8.073 -1.2381  1.0195 -0.1487
 4389TIP3   OH234725   5.653   5.479   2.877  0.6412 -0.1844  0.2444
 4389TIP3    H134726   5.633   5.417   2.808 -1.3557  1.1405 -0.4619
 4389TIP3    H234727   5.682   5.558   2.831  2.5332 -0.3263  1.0933
 4390TIP3   OH234728   6.111   0.949   1.857  0.3821 -0.2195  0.6469
 4390TIP3    H134729   6.195   0.965   1.814  0.9637 -1.7872  1.1542
 4390TIP3    H234730   6.066   0.887   1.800  0.8170 -1.6716  1.8076
 4391TIP3   OH234731   6.761   2.474   8.473  0.0056 -0.7101  0.6204
 4391TIP3    H134732   6.785   2.399   8.419  2.3447 -0.5751  1.3469
 4391TIP3    H234733   6.836   2.485   8.532 -0.7834  1.4961  1.2917
 4392TIP3   OH234734   3.481   2.360   7.365  0.2596  0.2161  0.4755
 4392TIP3    H134735   3.457   2.271   7.390 -2.1374  0.5383 -0.4236
 4392TIP3    H234736   3.489   2.407   7.448 -1.5893 -0.1343  0.8958
 4393TIP3   OH234737   5.658   2.262   1.032 -0.2469  0.3467  0.1971
 4393TIP3    H134738   5.733   2.202   1.027 -2.3095 -2.2955 -2.4026
 4393TIP3    H234739   5.666   2.317   0.953 -1.4221 -0.5601 -0.5900
 4394TIP3   OH234740   0.748   0.277   1.028  0.0523 -0.0728 -0.0144
 4394TIP3    H134741   0.728   0.216   1.099  1.4696 -1.2516 -0.5896
 4394TIP3    H234742   0.829   0.321   1.056  0.4675 -0.3475 -0.7616
 4395TIP3   OH234743   6.217   6.821   1.871 -0.1447  0.3733 -0.8728
 4395TIP3    H134744   6.280   6.852   1.936 -0.6010  1.4243 -0.9104
 4395TIP3    H234745   6.144   6.785   1.923  0.3436 -0.5831 -0.8290
 4396TIP3   OH234746   2.564   2.346   1.012  0.0177  0.0576 -0.0901
 4396TIP3    H134747   2.476   2.310   1.016 -0.1534  0.4071 -0.6748
 4396TIP3    H234748   2.567   2.409   1.084 -0.4468  0.5671 -0.5111
 4397TIP3   OH234749   4.082   3.439   2.000 -0.1223 -0.1758 -0.0734
 4397TIP3    H134750   4.055   3.352   2.029  2.9952 -0.8992  1.0545
 4397TIP3    H234751   4.071   3.494   2.077  0.6499 -0.2774  0.1206
 4398TIP3   OH234752   2.367   4.014   6.459  0.2106 -0.1805 -0.3714
 4398TIP3    H134753   2.448   4.047   6.497  0.4469 -0.4833 -0.6060
 4398TIP3    H234754   2.329   4.090   6.414 -1.1060  0.7561  2.0994
 4399TIP3   OH234755   4.516   4.966   6.149 -0.5829  0.1636 -0.1219
 4399TIP3    H134756   4.512   5.002   6.238  0.1223 -2.4661  1.0676
 4399TIP3    H234757   4.603   4.926   6.144 -1.6641 -2.2743 -0.8920
 4400TIP3   OH234758   3.763   6.300   1.172 -0.3158 -0.6755  0.2540
 4400TIP3    H134759   3.675   6.270   1.194 -0.6785  1.0222  1.2872
 4400TIP3    H234760   3.758   6.395   1.178  1.9970 -0.5787  2.0107
 4401TIP3   OH234761   4.707   4.238   7.575  0.0361 -0.0499 -0.6265
 4401TIP3    H134762   4.776   4.172   7.573 -0.4371 -0.5466 -0.6998
 4401TIP3    H234763   4.752   4.319   7.600  0.7130 -0.2788 -1.0658
 4402TIP3   OH234764   1.809   4.825   0.336 -0.1797 -0.7051 -0.5971
 4402TIP3    H134765   1.772   4.876   0.264 -0.4835 -0.7695 -0.4846
 4402TIP3    H234766   1.734   4.782   0.377  0.0290 -0.9200 -0.4377
 4403TIP3   OH234767   4.676   1.277   0.197  0.0026 -0.0207  0.3595
 4403TIP3    H134768   4.659   1.268   0.103 -0.6492  0.6766  0.3999
 4403TIP3    H234769   4.731   1.355   0.204 -1.4072  0.9806  0.6866
 4404TIP3   OH234770   4.770   0.741   7.356  0.0302 -0.1093  0.2446
 4404TIP3    H134771   4.849   0.714   7.307 -0.6775 -0.3331 -0.8059
 4404TIP3    H234772   4.745   0.825   7.316  0.5762  0.7229  1.5849
 4405TIP3   OH234773   3.430   0.260   8.549  0.2399  0.1494  0.3315
 4405TIP3    H134774   3.339   0.230   8.546 -0.2639  1.2520  2.4426
 4405TIP3    H234775   3.424   0.349   8.584  2.2005 -0.3223  2.0612
 4406TIP3   OH234776   1.946   2.998   0.045 -0.3928  0.2807  0.1615
 4406TIP3    H134777   1.998   2.946   0.106  0.0221 -0.4695 -0.8015
 4406TIP3    H234778   1.975   2.970  -0.042 -2.7371 -0.5687 -0.4524
 4407TIP3   OH234779   1.538   5.995   0.393  0.4058  0.2789 -0.8274
 4407TIP3    H134780   1.519   5.908   0.358  0.6613 -0.2559  0.3173
 4407TIP3    H234781   1.623   5.986   0.436 -0.4321  0.5481  0.9935
 4408TIP3   OH234782   5.138   2.747   0.397  0.4422 -0.1394  0.2558
 4408TIP3    H134783   5.134   2.692   0.475 -1.9917 -0.9573 -0.3555
 4408TIP3    H234784   5.220   2.796   0.406  0.1602 -0.0404  3.4053
 4409TIP3   OH234785   1.236   3.098   0.811  0.1625 -0.1919 -0.0120
 4409TIP3    H134786   1.146   3.082   0.784 -0.0825  0.7927  0.1517
 4409TIP3    H234787   1.281   3.123   0.730 -0.2170  1.2936  0.1902
 4410TIP3   OH234788   6.222   6.082   1.494 -0.4178 -0.2244  0.2001
 4410TIP3    H134789   6.267   6.159   1.459 -0.4541 -1.1163 -2.0179
 4410TIP3    H234790   6.133   6.113   1.512  0.1305  0.7294  1.3685
 4411TIP3   OH234791   3.348   2.207   0.657  0.0865  0.0521 -0.1976
 4411TIP3    H134792   3.269   2.156   0.639 -1.3939  1.8013  1.0232
 4411TIP3    H234793   3.418   2.141   0.665 -1.1289 -1.4943 -1.7325
 4412TIP3   OH234794   0.969   4.639   0.289  0.1230 -0.2248  1.0668
 4412TIP3    H134795   1.043   4.589   0.255 -0.1106  1.0121 -1.4387
 4412TIP3    H234796   0.946   4.699   0.219 -2.1581  0.6444  2.4555
 4413TIP3   OH234797   2.626   1.674   7.866 -0.8326 -0.1527 -0.0664
 4413TIP3    H134798   2.655   1.696   7.955  1.4905 -1.3237 -0.4390
 4413TIP3    H234799   2.704   1.687   7.812 -1.5023 -1.7247 -1.5241
 4414TIP3   OH234800   6.055   3.938   8.175 -0.2530  0.1574  0.0078
 4414TIP3    H134801   6.054   3.844   8.160  0.0519  0.0207  0.8191
 4414TIP3    H234802   6.062   3.948   8.270  1.2793  0.9979 -0.1679
 4415TIP3   OH234803   0.506   2.553   7.723  0.0513  0.1190  0.2541
 4415TIP3    H134804   0.591   2.525   7.757  0.3912  0.0258 -0.6466
 4415TIP3    H234805   0.522   2.641   7.688 -0.2848  0.2023  0.3069
 4416TIP3   OH234806   2.251   4.410   6.617 -0.3434 -0.6476  0.2984
 4416TIP3    H134807   2.244   4.316   6.635  0.2257 -0.6609  0.4937
 4416TIP3    H234808   2.168   4.447   6.647 -0.2309 -0.9680  1.0459
 4417TIP3   OH234809   4.588   5.340   7.159  0.1358  0.3913 -0.4847
 4417TIP3    H134810   4.619   5.430   7.165  1.2356 -0.0187  0.3374
 4417TIP3    H234811   4.650   5.298   7.100 -0.1823  0.0935 -0.6070
 4418TIP3   OH234812   5.554   5.475   8.388  0.2568 -0.1815 -0.4469
 4418TIP3    H134813   5.581   5.565   8.372 -0.4139  0.2154  0.5486
 4418TIP3    H234814   5.538   5.471   8.483 -1.2571 -0.9007 -0.6984
 4419TIP3   OH234815   4.227   1.231   7.212  0.4690 -0.3169  0.0031
 4419TIP3    H134816   4.296   1.252   7.276  0.2931  3.3793 -0.7797
 4419TIP3    H234817   4.145   1.245   7.259  0.3359  0.7027 -0.4984
 4420TIP3   OH234818   6.477   6.090   1.701 -0.1992  0.0442 -0.4228
 4420TIP3    H134819   6.473   6.010   1.753 -0.2999 -0.3344 -1.0082
 4420TIP3    H234820   6.569   6.113   1.699 -0.0635 -0.5389 -0.9831
 4421TIP3   OH234821   3.520   1.639   6.254  0.1380 -0.0948 -0.4548
 4421TIP3    H134822   3.448   1.652   6.193 -0.2129 -2.1861 -0.5592
 4421TIP3    H234823   3.544   1.547   6.245  1.4249  0.0183  1.1133
 4422TIP3   OH234824   2.007   1.673   8.313  0.3717 -0.0281 -0.0079
 4422TIP3    H134825   1.950   1.708   8.245  1.6165  1.2220 -0.4594
 4422TIP3    H234826   1.949   1.655   8.387 -0.4102  2.9397  0.2320
 4423TIP3   OH234827   6.775   6.491   7.266  0.1542  0.3698  0.6847
 4423TIP3    H134828   6.818   6.538   7.338 -1.1199 -0.5400  2.1097
 4423TIP3    H234829   6.683   6.513   7.274  0.0418  0.6864 -1.0672
 4424TIP3   OH234830   0.465   3.752   1.084 -0.0080  0.0978 -0.0758
 4424TIP3    H134831   0.475   3.846   1.100 -1.5433  0.5962 -1.7041
 4424TIP3    H234832   0.528   3.732   1.015  0.2363 -0.0565  0.1888
 4425TIP3   OH234833   2.933   4.753   1.912 -0.0989  0.3050 -0.1537
 4425TIP3    H134834   2.925   4.659   1.894 -0.1039  0.5444 -1.4790
 4425TIP3    H234835   3.023   4.775   1.887  0.8795  0.1403  2.7944
 4426TIP3   OH234836   2.017   3.147   6.766  0.0337 -0.4161  0.3121
 4426TIP3    H134837   1.969   3.180   6.690 -0.0896 -0.0421  0.5487
 4426TIP3    H234838   2.006   3.215   6.833 -0.8249 -1.2623  1.0584
 4427TIP3   OH234839   4.305   2.827   1.982 -0.6767  0.2053 -0.3181
 4427TIP3    H134840   4.220   2.827   2.025 -0.8294 -1.2768 -0.5559
 4427TIP3    H234841   4.295   2.765   1.909  1.0563 -1.3087  0.6410
 4428TIP3   OH234842   3.190   4.210   1.694 -0.4042 -0.2936 -0.2113
 4428TIP3    H134843   3.170   4.246   1.781  1.2306  0.6605 -0.1933
 4428TIP3    H234844   3.239   4.130   1.712  0.9743  0.5139 -0.2019
 4429TIP3   OH234845   2.259   5.012   1.918 -0.1334  0.0677 -0.2259
 4429TIP3    H134846   2.234   4.920   1.919  1.8800 -0.5461 -0.6878
 4429TIP3    H234847   2.250   5.038   1.827  0.0232  0.0913 -0.2359
 4430TIP3   OH234848   0.320   3.183   1.617 -0.7993  0.0890 -0.3111
 4430TIP3    H134849   0.261   3.247   1.657 -1.2149 -0.4988  0.0296
 4430TIP3    H234850   0.388   3.170   1.683 -2.3624 -2.1335  1.0056
 4431TIP3   OH234851   4.135   3.344   0.341 -0.0386  0.8751 -0.1837
 4431TIP3    H134852   4.214   3.397   0.343  0.3343  0.3188  0.1255
 4431TIP3    H234853   4.128   3.313   0.251  2.0289 -1.9029  0.4966
 4432TIP3   OH234854   2.720   6.310   0.540  0.1937 -0.7178 -0.6367
 4432TIP3    H134855   2.637   6.316   0.588  0.6488 -1.3985  0.2746
 4432TIP3    H234856   2.765   6.235   0.579  1.9397  0.5875  0.0107
 4433TIP3   OH234857   1.626   1.256   0.747  0.1074  0.1515  0.3416
 4433TIP3    H134858   1.612   1.165   0.770 -1.9427 -0.2543 -2.0152
 4433TIP3    H234859   1.588   1.305   0.820 -0.4363 -0.9211  0.8023
 4434TIP3   OH234860   6.357   0.500   1.880  0.3124  0.3831 -0.2108
 4434TIP3    H134861   6.311   0.554   1.944  0.4173  1.7640 -1.2757
 4434TIP3    H234862   6.349   0.411   1.914  0.0679  1.0461  1.5268
 4435TIP3   OH234863   1.121   4.175   0.173 -0.1340 -0.2528  0.2468
 4435TIP3    H134864   1.159   4.087   0.166 -1.8175 -0.9729 -0.7333
 4435TIP3    H234865   1.029   4.163   0.147 -0.6421  1.6487  0.9732
 4436TIP3   OH234866   2.457   2.714   1.986  0.2431  0.8090  0.1846
 4436TIP3    H134867   2.384   2.652   1.990 -0.3862  1.5923  1.5014
 4436TIP3    H234868   2.535   2.659   1.980 -0.3317 -0.1127  0.8486
 4437TIP3   OH234869   4.472   2.490   1.566 -0.2826  0.3663 -0.2773
 4437TIP3    H134870   4.556   2.502   1.611 -0.8275  0.8054  0.6597
 4437TIP3    H234871   4.485   2.529   1.480  0.3057  0.9316  0.0571
 4438TIP3   OH234872   0.980   2.186   6.935  0.2074 -0.0208 -0.2874
 4438TIP3    H134873   0.965   2.092   6.943 -0.9171  0.1002 -0.7699
 4438TIP3    H234874   0.956   2.206   6.844 -2.3208  1.1829  0.5546
 4439TIP3   OH234875   6.868   5.799   0.709  0.4488  0.7799 -0.4410
 4439TIP3    H134876   6.872   5.724   0.649  1.1222  0.1842  0.3267
 4439TIP3    H234877   6.945   5.789   0.765 -0.0686  1.4271  0.4099
 4440TIP3   OH234878   0.605   3.925   8.523  0.1147  0.0145 -0.6443
 4440TIP3    H134879   0.601   3.855   8.588  1.8522  0.4326 -0.0375
 4440TIP3    H234880   0.513   3.942   8.500 -0.4746 -0.7971  0.9855
 4441TIP3   OH234881   6.155   1.995   7.604 -0.4097  0.0147 -0.2459
 4441TIP3    H134882   6.102   1.986   7.525 -0.2522  0.3798 -0.3979
 4441TIP3    H234883   6.146   2.088   7.628  1.1814  0.3876 -1.0044
 4442TIP3   OH234884   4.928   6.749   1.093  0.1217  0.3608  0.5868
 4442TIP3    H134885   4.951   6.690   1.165  0.2866  1.0458  1.1001
 4442TIP3    H234886   4.986   6.824   1.104 -0.0344  0.5891 -0.1097
 4443TIP3   OH234887   2.513   2.257   7.966 -0.5294 -0.3000 -0.1050
 4443TIP3    H134888   2.501   2.285   8.057 -1.8659  0.0457 -0.3583
 4443TIP3    H234889   2.605   2.272   7.948 -0.3373  0.0333  1.0627
 4444TIP3   OH234890   4.641   6.790   8.517 -0.0252  0.3253 -0.6877
 4444TIP3    H134891   4.554   6.795   8.478  0.2126  1.7779 -1.0851
 4444TIP3    H234892   4.693   6.744   8.451 -0.6434 -1.3007 -0.0953
 4445TIP3   OH234893   5.333   6.532   1.809  0.0961 -0.0830 -0.1309
 4445TIP3    H134894   5.305   6.552   1.898  1.2478 -1.6665  0.6349
 4445TIP3    H234895   5.302   6.443   1.794 -0.0417  0.1438 -1.3276
 4446TIP3   OH234896   3.402   3.464   0.715  0.1302  0.9325  0.2418
 4446TIP3    H134897   3.396   3.374   0.683  0.8895  0.7350  0.6356
 4446TIP3    H234898   3.356   3.462   0.799  1.1701  0.6213  0.8195
 4447TIP3   OH234899   2.627   5.207   0.961  0.1323  0.4029 -0.1325
 4447TIP3    H134900   2.698   5.149   0.933  0.9829  1.9145 -1.2200
 4447TIP3    H234901   2.637   5.213   1.056  1.9843  1.1995 -0.3432
 4448TIP3   OH234902   1.296   2.967   7.393  0.8585 -0.6783  0.5331
 4448TIP3    H134903   1.323   3.058   7.381  0.4355 -0.6711 -0.3958
 4448TIP3    H234904   1.317   2.948   7.485  2.0533 -0.0167  0.4234
 4449TIP3   OH234905   5.259   0.397   1.591 -0.2353 -0.2434 -0.7959
 4449TIP3    H134906   5.299   0.455   1.655 -1.2005 -0.6480  0.1955
 4449TIP3    H234907   5.333   0.347   1.555  0.4137  0.5624 -0.6206
 4450TIP3   OH234908   2.657   2.765   1.739  0.3907  0.0175  0.2992
 4450TIP3    H134909   2.591   2.812   1.790  0.0619 -1.6259  1.4992
 4450TIP3    H234910   2.680   2.690   1.794  0.6986 -1.3521 -1.5925
 4451TIP3   OH234911   1.379   1.872   2.019  0.1164  0.2876  0.4150
 4451TIP3    H134912   1.471   1.863   2.045  0.2823  2.0483  0.5831
 4451TIP3    H234913   1.331   1.882   2.102  0.2789  3.0066  0.2602
 4452TIP3   OH234914   0.150   6.810   1.154 -0.2196  0.6306 -0.6264
 4452TIP3    H134915   0.180   6.898   1.176 -0.8475  0.5594  0.6268
 4452TIP3    H234916   0.071   6.825   1.101 -1.2361  0.8816  0.8710
 4453TIP3   OH234917   5.431   3.862   2.373 -0.0914 -0.2787 -0.4247
 4453TIP3    H134918   5.495   3.805   2.415  0.9672  0.9499 -0.2870
 4453TIP3    H234919   5.445   3.849   2.279 -0.1251 -0.5427 -0.3922
 4454TIP3   OH234920   2.810   2.793   7.655  1.2404 -0.7066  0.2015
 4454TIP3    H134921   2.729   2.753   7.686  1.9739 -0.2940  2.8799
 4454TIP3    H234922   2.868   2.719   7.638  0.3029 -1.0189 -1.9906
 4455TIP3   OH234923   6.792   3.250   8.236  0.0761  0.0450 -0.4335
 4455TIP3    H134924   6.879   3.264   8.198  0.1448 -0.7317 -0.5680
 4455TIP3    H234925   6.742   3.326   8.207  0.7935  0.6664 -0.0951
 4456TIP3   OH234926   1.979   6.848   6.776 -0.5045 -0.1509  0.7791
 4456TIP3    H134927   1.955   6.757   6.760 -1.0611  0.2597 -0.8711
 4456TIP3    H234928   2.075   6.847   6.782 -0.5399 -0.9083  1.2808
 4457TIP3   OH234929   5.882   3.409   2.714  0.4172 -0.5583 -0.1271
 4457TIP3    H134930   5.918   3.441   2.631 -1.5071 -1.1043 -1.2537
 4457TIP3    H234931   5.829   3.333   2.689 -1.8974  0.4797  1.2572
 4458TIP3   OH234932   1.035   1.629   6.640  0.3055 -0.1935 -0.5207
 4458TIP3    H134933   0.951   1.673   6.646 -0.3528 -1.5094  0.6101
 4458TIP3    H234934   1.099   1.699   6.631 -0.6296  1.0640  1.8262
 4459TIP3   OH234935   0.512   2.463   8.091 -0.5819  0.4438 -0.5278
 4459TIP3    H134936   0.512   2.370   8.113 -0.8780  0.0161 -2.2495
 4459TIP3    H234937   0.499   2.507   8.175 -0.1540 -1.0429  0.3520
 4460TIP3   OH234938   3.486   6.704   0.090  0.4425 -0.3655  0.1243
 4460TIP3    H134939   3.537   6.678   0.167 -0.0925  1.4626  1.1621
 4460TIP3    H234940   3.411   6.752   0.126 -1.9161 -2.6918 -1.3628
 4461TIP3   OH234941   6.790   3.901   8.037  0.0452 -0.0044 -0.5176
 4461TIP3    H134942   6.814   3.808   8.038 -0.9289 -0.3151  1.7148
 4461TIP3    H234943   6.867   3.946   8.071 -0.3578 -0.3560  0.9863
 4462TIP3   OH234944   6.703   5.539   1.364 -0.1256 -0.0726 -0.1640
 4462TIP3    H134945   6.726   5.628   1.337 -0.9683  0.0202 -0.6244
 4462TIP3    H234946   6.611   5.546   1.389  0.6074 -0.1223  2.8920
 4463TIP3   OH234947   4.634   2.921   6.765 -0.6603  0.1497  0.4721
 4463TIP3    H134948   4.646   2.909   6.859 -1.7345  0.6484  0.6933
 4463TIP3    H234949   4.571   2.853   6.740  1.5027 -1.6722 -0.4202
 4464TIP3   OH234950   6.193   6.605   8.412 -0.4996  0.2621  0.3147
 4464TIP3    H134951   6.253   6.652   8.470 -0.9313  1.0347  0.1515
 4464TIP3    H234952   6.153   6.674   8.359  0.1869 -0.4494 -1.2044
 4465TIP3   OH234953   3.606   1.375   0.839  0.3073  0.3273 -0.6074
 4465TIP3    H134954   3.573   1.340   0.922 -0.6980 -1.4535 -1.6854
 4465TIP3    H234955   3.694   1.339   0.832 -0.1824 -0.8451 -1.0109
 4466TIP3   OH234956   4.882   6.400   1.932  0.7933 -0.9080 -0.0495
 4466TIP3    H134957   4.961   6.420   1.981 -1.1257  0.4026  2.7768
 4466TIP3    H234958   4.848   6.321   1.972 -1.3957  0.7884  1.6893
 4467TIP3   OH234959   1.443   3.037   8.481  0.4715 -0.1431 -0.3151
 4467TIP3    H134960   1.515   2.976   8.496 -0.5495 -1.3853 -0.3265
 4467TIP3    H234961   1.393   2.998   8.409 -0.1593  0.7470 -0.3744
 4468TIP3   OH234962   2.223   5.857   1.876 -0.6170 -0.1514 -0.3455
 4468TIP3    H134963   2.186   5.773   1.847  1.0917 -0.3763 -2.0976
 4468TIP3    H234964   2.209   5.916   1.801  1.2563  0.1267 -0.5282
 4469TIP3   OH234965   4.840   3.240   7.875  0.4514  0.4057 -0.0075
 4469TIP3    H134966   4.854   3.277   7.962  0.6793  1.7685 -0.6045
 4469TIP3    H234967   4.837   3.316   7.816  1.8949 -0.5555 -1.4090
 4470TIP3   OH234968   5.813   6.456   8.109  0.0738 -0.0527  0.2749
 4470TIP3    H134969   5.815   6.374   8.059 -0.8872 -1.4793  2.4453
 4470TIP3    H234970   5.720   6.476   8.117  0.3135  2.0486 -1.3289
 4471TIP3   OH234971   2.266   3.489   7.697  0.4441  0.1341  0.4500
 4471TIP3    H134972   2.267   3.531   7.783  1.4008 -1.4174  1.2443
 4471TIP3    H234973   2.180   3.448   7.691  0.6304 -0.3413  0.9783
 4472TIP3   OH234974   5.458   3.510   7.059  0.1876 -0.5741 -0.5554
 4472TIP3    H134975   5.444   3.581   7.121  1.5239 -0.4145 -0.4119
 4472TIP3    H234976   5.410   3.536   6.981 -0.0083  0.0917 -0.2116
 4473TIP3   OH234977   4.870   4.570   7.644 -0.3035  0.2979  0.1717
 4473TIP3    H134978   4.896   4.629   7.573 -0.1033 -0.6892 -0.5961
 4473TIP3    H234979   4.935   4.585   7.713 -0.4666  1.2185  0.1397
 4474TIP3   OH234980   5.774   0.150   8.253  0.3780 -0.0738  0.7232
 4474TIP3    H134981   5.735   0.197   8.179 -0.8050 -0.2407  1.2214
 4474TIP3    H234982   5.747   0.199   8.330 -0.0246 -0.9754  1.1775
 4475TIP3   OH234983   0.957   1.271   1.560  0.4186 -0.1200 -0.0403
 4475TIP3    H134984   0.980   1.178   1.562  0.3913 -0.1089  2.0944
 4475TIP3    H234985   1.039   1.316   1.577  0.0883  0.1652  0.8339
 4476TIP3   OH234986   2.747   0.576   7.157  0.0382  0.5039  0.4539
 4476TIP3    H134987   2.771   0.659   7.116  0.8677  0.0407 -0.0138
 4476TIP3    H234988   2.830   0.528   7.165 -0.4380 -0.3036  0.6593
 4477TIP3   OH234989   5.746   2.759   0.162  0.7102 -0.1656  0.4786
 4477TIP3    H134990   5.717   2.753   0.253  1.2743  0.4501  0.7114
 4477TIP3    H234991   5.786   2.846   0.155  0.4604 -0.1032 -0.4254
 4478TIP3   OH234992   0.132   5.178   1.566  0.2272 -0.8375  0.6136
 4478TIP3    H134993   0.075   5.221   1.630  0.2120 -1.0274  0.7263
 4478TIP3    H234994   0.146   5.245   1.499 -2.0000 -1.4726 -0.5969
 4479TIP3   OH234995   6.334   6.812   0.454  0.8223 -0.0194 -0.1080
 4479TIP3    H134996   6.377   6.848   0.376  1.9933  1.8245  1.3270
 4479TIP3    H234997   6.399   6.755   0.493  1.3279  1.2980  1.0406
 4480TIP3   OH234998   6.506   4.011   2.563  0.5426 -0.3900  0.5277
 4480TIP3    H134999   6.575   3.958   2.523 -0.3652 -1.6032  0.5221
 4480TIP3    H235000   6.519   3.999   2.657  0.7144 -0.1254  0.5374
 4481TIP3   OH235001   0.405   3.333   7.228  0.3079 -0.1689  0.6115
 4481TIP3    H135002   0.392   3.422   7.262 -1.8327 -0.3232  0.3422
 4481TIP3    H235003   0.447   3.346   7.143 -0.3489  0.6325  0.3910
 4482TIP3   OH235004   2.271   5.675   8.534 -0.1054  0.1101  0.3233
 4482TIP3    H135005   2.233   5.593   8.566 -0.2550  0.0536  0.0106
 4482TIP3    H235006   2.199   5.717   8.486  0.4200 -0.3314 -0.8940
 4483TIP3   OH235007   1.603   2.326   7.106  0.6353  0.7603  0.0965
 4483TIP3    H135008   1.627   2.349   7.016  0.2655  1.1148  0.0819
 4483TIP3    H235009   1.685   2.328   7.154  0.7391  1.2674 -0.0941
 4484TIP3   OH235010   2.144   0.409   7.129  0.4111 -0.0865  0.2739
 4484TIP3    H135011   2.186   0.426   7.213  1.3648  0.7509 -0.3524
 4484TIP3    H235012   2.187   0.469   7.067  0.3795 -1.3069 -0.9948
 4485TIP3   OH235013   5.125   4.798   0.138  0.2998  0.5605  0.8203
 4485TIP3    H135014   5.116   4.774   0.230  1.0312  2.8989  1.5657
 4485TIP3    H235015   5.042   4.840   0.116 -0.5498 -1.4917 -0.1500
 4486TIP3   OH235016   5.548   5.246   1.510  0.2364  0.5068 -0.2196
 4486TIP3    H135017   5.620   5.199   1.552 -0.6606 -0.4540  0.2947
 4486TIP3    H235018   5.519   5.187   1.440 -0.7006  0.4249  0.2299
 4487TIP3   OH235019   6.767   0.282   0.766 -0.2718 -0.1713 -0.4272
 4487TIP3    H135020   6.783   0.376   0.778 -0.8384  0.1018 -1.6742
 4487TIP3    H235021   6.814   0.241   0.838 -0.8593  1.1277  0.7653
 4488TIP3   OH235022   1.623   4.569   0.778  0.0588 -0.5300 -0.5749
 4488TIP3    H135023   1.620   4.485   0.824 -1.4176 -1.2793 -1.9468
 4488TIP3    H235024   1.715   4.582   0.757  0.8643 -0.0567  2.6442
 4489TIP3   OH235025   1.534   0.379   7.629  0.0735  0.3091  0.4236
 4489TIP3    H135026   1.495   0.370   7.542  0.1124  0.2994  0.4070
 4489TIP3    H235027   1.565   0.469   7.632  2.3483 -0.3663 -0.5322
 4490TIP3   OH235028   3.487   4.779   8.305  0.1742  0.2696 -0.2711
 4490TIP3    H135029   3.463   4.751   8.217 -1.1698  0.1711  0.1036
 4490TIP3    H235030   3.540   4.857   8.293  3.0789 -1.6881 -1.3135
 4491TIP3   OH235031   4.101   5.939   2.084  0.6186  0.0019  0.0067
 4491TIP3    H135032   4.114   6.033   2.101 -0.8460  0.1672  0.4137
 4491TIP3    H235033   4.099   5.900   2.171 -1.5829  0.0480  0.0377
 4492TIP3   OH235034   5.642   6.230   7.665  0.2552  0.4195  0.0749
 4492TIP3    H135035   5.633   6.192   7.577 -2.1840  1.6073 -0.2805
 4492TIP3    H235036   5.737   6.233   7.680  0.9275  2.0326 -3.3898
 4493TIP3   OH235037   4.476   1.521   6.737  0.7842 -0.1640  0.0644
 4493TIP3    H135038   4.390   1.546   6.769  1.5684  0.9738  1.4161
 4493TIP3    H235039   4.473   1.538   6.643 -0.8292 -1.3043 -0.1280
 4494TIP3   OH235040   2.683   1.189   1.719  0.4886 -0.2340 -0.3216
 4494TIP3    H135041   2.725   1.103   1.719 -1.4030 -1.2289 -1.4968
 4494TIP3    H235042   2.666   1.208   1.811  1.1897 -0.9918 -0.0274
 4495TIP3   OH235043   4.134   6.005   0.359 -0.0014 -0.4935  0.6424
 4495TIP3    H135044   4.167   6.020   0.270  0.2232 -0.3122  0.7560
 4495TIP3    H235045   4.146   6.089   0.403 -3.0790  0.4803 -0.0706
 4496TIP3   OH235046   2.766   2.683   0.117 -0.3743 -0.3078  0.0377
 4496TIP3    H135047   2.719   2.667   0.199 -0.3243 -0.7706 -0.0203
 4496TIP3    H235048   2.852   2.644   0.131 -0.4286 -0.5513 -0.3005
 4497TIP3   OH235049   0.846   1.166   0.045 -0.0905  0.0213  0.1049
 4497TIP3    H135050   0.882   1.210   0.122 -0.4563 -1.0096  0.8781
 4497TIP3    H235051   0.772   1.221   0.018 -0.1117  0.2538  0.6354
 4498TIP3   OH235052   2.613   6.438   7.864  0.1949  0.2167  0.2044
 4498TIP3    H135053   2.669   6.363   7.883  0.2833  0.2745  0.1698
 4498TIP3    H235054   2.657   6.485   7.793  0.8544  1.0623  1.1333
 4499TIP3   OH235055   2.157   0.032   8.399  0.0853  0.0052  0.6273
 4499TIP3    H135056   2.140   0.096   8.469  0.3526 -0.8236  1.4622
 4499TIP3    H235057   2.154  -0.053   8.442  1.9673 -0.4420 -0.0208
 4500TIP3   OH235058   6.081   6.336   2.144  0.0106 -0.2449  0.5905
 4500TIP3    H135059   6.116   6.423   2.127 -2.4281  0.7506  0.3881
 4500TIP3    H235060   6.152   6.277   2.117  1.0320  1.5933 -1.0460
 4501TIP3   OH235061   2.723   2.358   0.774  0.1184 -0.3266  0.0492
 4501TIP3    H135062   2.802   2.409   0.790 -0.2515  0.7776 -1.4547
 4501TIP3    H235063   2.669   2.372   0.852  0.2889  1.0899 -0.0673
 4502TIP3   OH235064   0.094   5.560   8.472 -0.4563  0.0178  0.4647
 4502TIP3    H135065   0.067   5.634   8.417 -1.2666 -1.2647 -0.9310
 4502TIP3    H235066   0.113   5.490   8.411 -1.3673 -1.4713  1.7995
 4503TIP3   OH235067   1.040   2.217   0.815 -0.1331  0.1145  0.2925
 4503TIP3    H135068   1.061   2.273   0.890  1.2336  0.4268 -0.3010
 4503TIP3    H235069   1.079   2.261   0.740  0.4279 -1.3001 -0.2834
 4504TIP3   OH235070   2.002   5.378   8.362 -0.0812  0.8521  0.3334
 4504TIP3    H135071   1.994   5.387   8.457 -0.1752  0.3650  0.3765
 4504TIP3    H235072   2.076   5.434   8.338  1.2048 -0.5227  0.9515
 4505TIP3   OH235073   1.031   2.947   6.153  0.1144  0.1357 -0.2687
 4505TIP3    H135074   1.063   2.976   6.067  1.7406 -1.6899 -0.3531
 4505TIP3    H235075   1.108   2.953   6.210  0.0197 -2.0782  0.1581
 4506TIP3   OH235076   1.678   0.751   6.026 -0.2478 -0.5344  0.1911
 4506TIP3    H135077   1.680   0.764   6.121 -0.1882 -1.1683  0.2821
 4506TIP3    H235078   1.747   0.808   5.993  1.1786 -1.8773  0.7426
 4507TIP3   OH235079   2.989   0.566   1.499  0.5221 -0.0516  0.3142
 4507TIP3    H135080   3.008   0.647   1.453 -1.6343  0.1028 -0.4209
 4507TIP3    H235081   2.894   0.561   1.501  0.5824 -1.7899  1.7460
 4508TIP3   OH235082   5.306   5.611   6.941  0.7465 -0.1657  0.4646
 4508TIP3    H135083   5.379   5.646   6.992  0.8158 -0.9109  0.8994
 4508TIP3    H235084   5.315   5.516   6.950  0.6868 -0.3156 -0.8421
 4509TIP3   OH235085   1.443   3.986   7.520  0.1436 -0.1882  0.1361
 4509TIP3    H135086   1.376   3.933   7.476  1.3744  0.6466 -2.9845
 4509TIP3    H235087   1.401   4.071   7.532  0.5545  0.3417 -1.8345
 4510TIP3   OH235088   4.596   2.229   0.316  0.2935 -0.1047 -0.4241
 4510TIP3    H135089   4.678   2.255   0.356  0.4994 -0.7680 -0.3924
 4510TIP3    H235090   4.620   2.194   0.230  0.2997 -2.0886  0.3293
 4511TIP3   OH235091   6.228   0.837   1.064 -0.4741 -0.0076  0.2670
 4511TIP3    H135092   6.275   0.791   1.134 -1.7772 -2.5773 -0.4218
 4511TIP3    H235093   6.278   0.818   0.985 -0.1616  1.1382  0.1751
 4512TIP3   OH235094   5.783   6.510   0.787  0.1693 -0.2300  0.2940
 4512TIP3    H135095   5.837   6.586   0.766  1.6672 -1.4632 -0.5428
 4512TIP3    H235096   5.839   6.455   0.842 -0.5884 -1.0797  0.2435
 4513TIP3   OH235097   3.834   2.399   7.378 -0.3225 -0.2258 -0.5401
 4513TIP3    H135098   3.834   2.468   7.443  2.1030  1.0460 -1.7636
 4513TIP3    H235099   3.807   2.442   7.296  0.7388 -0.7973 -1.2169
 4514TIP3   OH235100   2.920   6.111   0.601  0.0414 -0.2841 -0.1854
 4514TIP3    H135101   2.988   6.084   0.538 -0.3465  0.6501 -1.0294
 4514TIP3    H235102   2.964   6.107   0.686  0.8372 -0.7326 -0.6002
 4515TIP3   OH235103   4.972   5.477   0.882  0.2196 -0.6135  0.3744
 4515TIP3    H135104   5.054   5.489   0.930  1.7959  0.1336 -2.3590
 4515TIP3    H235105   4.963   5.382   0.874  0.1837 -0.7356  1.6561
 4516TIP3   OH235106   4.151   5.846   2.379  0.0911  1.0630 -0.3772
 4516TIP3    H135107   4.105   5.776   2.331  0.4494  0.2352  0.4691
 4516TIP3    H235108   4.244   5.829   2.362  0.1857  1.2106  0.0036
 4517TIP3   OH235109   5.120   3.377   6.645 -0.4977 -0.1249  0.7884
 4517TIP3    H135110   5.166   3.306   6.690 -1.2642  0.9798  3.5235
 4517TIP3    H235111   5.190   3.429   6.606  0.3093 -0.6378  1.4945
 4518TIP3   OH235112   5.268   3.874   8.371 -0.4253  0.0074  0.2414
 4518TIP3    H135113   5.349   3.847   8.414  0.0159  1.4739  0.4077
 4518TIP3    H235114   5.285   3.964   8.342 -2.9706  1.6019  3.0387
 4519TIP3   OH235115   0.336   2.082   0.087  0.1163 -0.6851 -0.2861
 4519TIP3    H135116   0.298   2.039   0.163 -0.4171 -1.8422 -1.1850
 4519TIP3    H235117   0.348   2.012   0.023  1.2438  0.1408 -1.0016
 4520TIP3   OH235118   3.391   4.442   2.425  0.4673 -0.5884  0.0071
 4520TIP3    H135119   3.480   4.447   2.389  1.1058  1.4222  1.6205
 4520TIP3    H235120   3.342   4.507   2.375  0.1552 -0.9789 -0.1994
 4521TIP3   OH235121   3.815   4.746   6.658  0.4609 -0.2072 -0.2707
 4521TIP3    H135122   3.885   4.810   6.667  0.1865  0.0510  0.0294
 4521TIP3    H235123   3.743   4.794   6.618 -0.8982  0.5638  2.7937
 4522TIP3   OH235124   3.053   1.734   8.518  0.5699 -0.2788 -0.4699
 4522TIP3    H135125   2.978   1.676   8.510 -1.1189  1.8114 -0.7372
 4522TIP3    H235126   3.045   1.773   8.605 -0.6307  2.3974 -1.6713
 4523TIP3   OH235127   0.802   4.784   1.436  0.7331  0.2883  0.7522
 4523TIP3    H135128   0.847   4.852   1.386  0.0177  0.4623  0.3401
 4523TIP3    H235129   0.764   4.726   1.370  1.0545 -0.3349  1.0991
 4524TIP3   OH235130   1.773   1.609   1.371  0.7175 -0.0729 -0.0863
 4524TIP3    H135131   1.861   1.606   1.335  0.0260  0.1409 -1.9124
 4524TIP3    H235132   1.739   1.520   1.358  0.3843  0.0653 -0.1744
 4525TIP3   OH235133   0.074   4.335   7.323 -0.3498  0.0865  0.1864
 4525TIP3    H135134   0.009   4.379   7.268  0.8696  1.1656 -0.4590
 4525TIP3    H235135   0.158   4.367   7.290  0.4526  2.1640  3.6955
 4526TIP3   OH235136   6.177   1.212   7.617  0.0826  0.2652  0.6665
 4526TIP3    H135137   6.235   1.171   7.682 -0.9116 -1.1888  0.7134
 4526TIP3    H235138   6.216   1.297   7.600  0.8944  0.3159  2.4858
 4527TIP3   OH235139   3.915   4.403   6.558  0.7070 -0.1746 -0.1017
 4527TIP3    H135140   3.956   4.465   6.498  1.2138 -0.9455 -0.5648
 4527TIP3    H235141   3.961   4.416   6.641  3.3601 -2.3508 -1.0677
 4528TIP3   OH235142   6.072   3.837   8.455  0.6269  0.2141  0.2757
 4528TIP3    H135143   6.099   3.767   8.514  1.6830 -1.5597 -2.1476
 4528TIP3    H235144   6.128   3.911   8.478  0.7170 -0.2684  1.7311
 4529TIP3   OH235145   4.072   6.351   8.074 -0.1761 -0.3100  0.5660
 4529TIP3    H135146   4.079   6.366   7.980  2.2426 -0.6357  0.6163
 4529TIP3    H235147   3.978   6.338   8.089 -0.5484 -1.2631 -1.9545
 4530TIP3   OH235148   2.979   0.554   7.521  0.7794  0.4164 -0.0933
 4530TIP3    H135149   2.969   0.498   7.444  0.1653  0.6623 -0.2005
 4530TIP3    H235150   2.920   0.627   7.505  0.3104  0.2567  0.8073
 4531TIP3   OH235151   6.853   0.692   7.428  0.8071 -0.0748  0.1859
 4531TIP3    H135152   6.872   0.599   7.422  0.0243 -0.1507 -2.0111
 4531TIP3    H235153   6.894   0.730   7.350  0.0695  1.1932  0.3841
 4532TIP3   OH235154   4.142   3.867   7.961 -0.8916  0.2054  0.7167
 4532TIP3    H135155   4.162   3.907   7.876 -4.0057  0.6240  0.0560
 4532TIP3    H235156   4.120   3.776   7.940  0.7918 -0.4242  1.4911
 4533TIP3   OH235157   0.664   6.532   8.151  0.1275  0.2889  0.0769
 4533TIP3    H135158   0.614   6.553   8.230 -1.0980 -0.9619 -0.3247
 4533TIP3    H235159   0.648   6.606   8.093  0.6930  1.0200  0.8256
 4534TIP3   OH235160   4.878   1.013   6.982 -0.0434 -0.2565  0.4004
 4534TIP3    H135161   4.857   0.991   7.073  0.2674 -0.0819  0.5136
 4534TIP3    H235162   4.947   1.079   6.988  0.2987 -0.5738  0.0292
 4535TIP3   OH235163   3.360   0.523   0.342  0.4191  0.3759 -0.0165
 4535TIP3    H135164   3.311   0.593   0.385  1.4013  0.4422  1.0339
 4535TIP3    H235165   3.420   0.491   0.409 -0.4706 -1.9534 -0.2215
 4536TIP3   OH235166   0.658   5.176   2.518  0.3438  0.0762 -0.2380
 4536TIP3    H135167   0.689   5.235   2.587  1.6711 -0.5102 -0.3180
 4536TIP3    H235168   0.571   5.149   2.547  0.4844  0.6181  0.7119
 4537TIP3   OH235169   3.807   4.124   8.430 -0.0416  0.3552 -0.4987
 4537TIP3    H135170   3.820   4.218   8.437 -1.6825  0.5682  0.0724
 4537TIP3    H235171   3.878   4.086   8.481  0.6753  1.2757 -0.7953
 4538TIP3   OH235172   5.813   6.124   6.625 -0.6292  0.2299 -0.0922
 4538TIP3    H135173   5.907   6.134   6.610 -0.8285  2.5615 -0.1470
 4538TIP3    H235174   5.781   6.082   6.546  0.4100 -1.0792  0.1376
 4539TIP3   OH235175   4.961   6.074   0.475  0.0386  0.0893  0.1596
 4539TIP3    H135176   4.866   6.080   0.483  0.1010 -0.0130  1.1394
 4539TIP3    H235177   4.986   6.007   0.539  0.7650  0.0990 -0.1072
 4540TIP3   OH235178   6.639   4.489   2.358 -0.4620  0.0026  0.4191
 4540TIP3    H135179   6.621   4.403   2.396 -1.6761  1.0512  2.3838
 4540TIP3    H235180   6.733   4.490   2.342 -0.5435 -1.9381 -0.3412
 4541TIP3   OH235181   3.705   6.715   7.117 -0.1710  0.2606  0.1229
 4541TIP3    H135182   3.625   6.715   7.169 -1.0072 -0.1139 -1.1094
 4541TIP3    H235183   3.751   6.635   7.142 -0.3981  0.2586  0.5316
 4542TIP3   OH235184   5.693   5.057   2.573  0.3551 -0.3005  0.3797
 4542TIP3    H135185   5.769   5.034   2.626 -0.6851 -0.3405  1.9188
 4542TIP3    H235186   5.643   4.976   2.565 -1.3400  0.4706  2.4989
 4543TIP3   OH235187   5.902   5.095   8.117 -0.0868 -0.1048  0.4533
 4543TIP3    H135188   5.829   5.033   8.128 -0.7696  1.0060  2.9349
 4543TIP3    H235189   5.980   5.044   8.141 -0.6748 -0.0520  2.7903
 4544TIP3   OH235190   2.922   4.037   0.182 -0.0308 -0.4293 -0.1921
 4544TIP3    H135191   2.988   4.032   0.113  0.8683 -1.0994  0.6950
 4544TIP3    H235192   2.935   4.124   0.222 -0.1868 -0.2653 -0.4937
 4545TIP3   OH235193   2.632   1.724   1.112  0.1961 -0.3811 -0.2131
 4545TIP3    H135194   2.628   1.808   1.067  1.5197  1.3289  2.6364
 4545TIP3    H235195   2.548   1.682   1.092  0.6404  0.1933 -4.0822
 4546TIP3   OH235196   5.618   3.258   0.122 -0.1603  0.8207 -0.1772
 4546TIP3    H135197   5.650   3.212   0.200 -0.6463 -0.1237 -0.5249
 4546TIP3    H235198   5.545   3.205   0.091  1.1544  0.1535 -2.3380
 4547TIP3   OH235199   5.911   4.732   1.346  0.2131 -0.2468  0.0051
 4547TIP3    H135200   5.847   4.704   1.412 -1.2152  0.8392 -0.8672
 4547TIP3    H235201   5.995   4.720   1.389 -0.6302 -0.4512  1.7009
 4548TIP3   OH235202   0.544   0.962   6.731 -0.6033 -0.7144  0.1463
 4548TIP3    H135203   0.452   0.945   6.749 -1.1754  0.4596 -1.4650
 4548TIP3    H235204   0.549   0.968   6.635  0.4171  2.9156  0.2836
 4549TIP3   OH235205   2.502   4.727   6.451  0.1522 -0.2510 -0.2307
 4549TIP3    H135206   2.505   4.650   6.509  0.8632  0.3592  0.5784
 4549TIP3    H235207   2.418   4.720   6.406  0.3494 -1.6717 -0.4110
 4550TIP3   OH235208   3.246   0.284   0.381  0.0655  0.0239 -0.1487
 4550TIP3    H135209   3.286   0.372   0.377 -2.8508  1.4229 -0.8444
 4550TIP3    H235210   3.302   0.230   0.325  1.8227  1.4405  0.1392
 4551TIP3   OH235211   1.220   2.746   6.973 -0.0402  0.3050  0.1233
 4551TIP3    H135212   1.229   2.840   6.958  0.5103  0.5109  1.5388
 4551TIP3    H235213   1.178   2.740   7.059  2.6777 -0.6877  1.5204
 4552TIP3   OH235214   0.599   3.087   7.269 -0.0043 -0.0533 -0.2268
 4552TIP3    H135215   0.532   3.155   7.279 -0.8156 -0.7583 -0.7872
 4552TIP3    H235216   0.550   3.008   7.248  1.0057 -0.5924 -0.6044
 4553TIP3   OH235217   3.841   6.141   1.791 -0.1027  0.3109 -0.3372
 4553TIP3    H135218   3.782   6.177   1.858 -0.0421  0.4520 -0.3604
 4553TIP3    H235219   3.920   6.193   1.797  1.0307 -1.4535  1.4204
 4554TIP3   OH235220   3.424   3.700   1.263  0.3397 -0.2273  0.2134
 4554TIP3    H135221   3.503   3.724   1.214  0.8194  0.2200  1.1644
 4554TIP3    H235222   3.430   3.752   1.343 -0.0490 -1.4499  1.0643
 4555TIP3   OH235223   1.838   2.988   1.630  0.5291 -0.0844  0.5170
 4555TIP3    H135224   1.902   3.033   1.685  1.5915 -1.0325  0.0927
 4555TIP3    H235225   1.771   2.958   1.691  1.6769 -1.1026  1.3298
 4556TIP3   OH235226   0.579   5.503   1.038  0.4866 -0.1392  0.6454
 4556TIP3    H135227   0.601   5.535   1.126 -0.9533 -0.7817  1.2668
 4556TIP3    H235228   0.627   5.421   1.031  1.0434  0.1805  0.5970
 4557TIP3   OH235229   5.187   5.111   6.403 -0.3343 -0.8012  0.1696
 4557TIP3    H135230   5.115   5.049   6.418 -1.3974  0.1011 -1.0296
 4557TIP3    H235231   5.259   5.056   6.370 -0.5756 -1.6636  1.0297
 4558TIP3   OH235232   5.946   2.942   1.144 -0.0440  0.0306  1.0716
 4558TIP3    H135233   5.896   2.945   1.063 -0.0646  2.3924  1.1161
 4558TIP3    H235234   5.896   2.883   1.201 -1.8718  0.9672  0.5046
 4559TIP3   OH235235   6.089   0.930   1.395  1.1129  0.3989  0.8740
 4559TIP3    H135236   6.052   0.941   1.307  0.5008  0.9744  1.1920
 4559TIP3    H235237   6.081   0.836   1.412  1.6931  0.2023  0.1274
 4560TIP3   OH235238   3.793   2.316   8.381  0.1993 -0.1389 -0.5530
 4560TIP3    H135239   3.760   2.349   8.464  0.4878 -1.0482 -0.0668
 4560TIP3    H235240   3.715   2.311   8.325 -0.9044 -3.6944  1.0362
 4561TIP3   OH235241   1.560   1.064   7.406  0.4656 -0.0543  0.4339
 4561TIP3    H135242   1.470   1.071   7.373  0.0982  0.4537  1.5048
 4561TIP3    H235243   1.614   1.059   7.327 -0.5682 -1.4175 -0.2302
 4562TIP3   OH235244   1.369   0.546   1.550 -0.6199 -0.4053  0.3213
 4562TIP3    H135245   1.441   0.483   1.561 -1.1700 -0.8344  1.7135
 4562TIP3    H235246   1.332   0.555   1.638 -1.2975  0.9909 -0.0860
 4563TIP3   OH235247   2.721   4.653   1.506  1.1933 -0.6805 -0.1965
 4563TIP3    H135248   2.743   4.708   1.431  0.4398 -1.1243 -0.7630
 4563TIP3    H235249   2.683   4.714   1.570  0.0239 -0.5748 -0.9613
 4564TIP3   OH235250   4.380   1.509   8.118 -0.1402 -0.1807 -0.0530
 4564TIP3    H135251   4.348   1.563   8.045  0.0960  1.2153  0.8416
 4564TIP3    H235252   4.367   1.419   8.089 -0.4345  0.3502 -1.6505
 4565TIP3   OH235253   6.845   1.145   7.573  0.3839  0.1462  0.4671
 4565TIP3    H135254   6.814   1.221   7.525  0.3368  0.5313  1.1021
 4565TIP3    H235255   6.876   1.180   7.657  2.0443 -0.2794  0.0778
 4566TIP3   OH235256   4.859   3.939   7.109  0.1784  0.6150 -0.8407
 4566TIP3    H135257   4.926   3.898   7.163 -0.1213 -1.1421 -1.7403
 4566TIP3    H235258   4.777   3.920   7.155  0.2128  2.6706  0.2047
 4567TIP3   OH235259   0.022   0.625   1.209 -0.6757  0.3683 -0.2492
 4567TIP3    H135260  -0.066   0.606   1.242 -0.5076 -0.7357 -0.3808
 4567TIP3    H235261   0.021   0.719   1.191 -2.2643  0.1571 -1.4961
 4568TIP3   OH235262   6.449   2.380   7.018  0.0562  0.3196 -0.4620
 4568TIP3    H135263   6.523   2.406   6.964  0.6284  0.8839  0.5651
 4568TIP3    H235264   6.372   2.411   6.970  0.4026 -0.9623 -1.9275
 4569TIP3   OH235265   3.623   2.733   6.703  0.0756 -0.2277  0.2027
 4569TIP3    H135266   3.640   2.676   6.778 -3.0295 -2.6122 -0.7048
 4569TIP3    H235267   3.675   2.694   6.632  1.6266  0.9881  0.6054
 4570TIP3   OH235268   0.507   4.590   0.430  0.0361  0.4254 -0.6007
 4570TIP3    H135269   0.601   4.602   0.443 -0.0765  1.4653 -0.6965
 4570TIP3    H235270   0.482   4.524   0.494  0.7030  0.6520 -0.0982
 4571TIP3   OH235271   0.431   2.591   7.095 -0.8060  0.2391 -0.3044
 4571TIP3    H135272   0.402   2.618   7.008  1.0474  1.8265 -0.4947
 4571TIP3    H235273   0.513   2.544   7.079 -0.1058  1.1136  0.5974
 4572TIP3   OH235274   4.496   5.644   7.002 -0.6195 -0.2690  0.0687
 4572TIP3    H135275   4.530   5.558   7.025 -0.9009 -0.3952  0.0118
 4572TIP3    H235276   4.575   5.698   6.990 -0.3559 -0.9235 -1.4804
 4573TIP3   OH235277   2.451   3.433   0.988 -0.3954  0.1529 -0.4231
 4573TIP3    H135278   2.436   3.469   1.076 -0.2462 -0.7964  0.0037
 4573TIP3    H235279   2.546   3.426   0.982 -0.4063  0.2132 -0.6688
 4574TIP3   OH235280   2.507   5.732   1.552  0.8576  0.0187 -0.2206
 4574TIP3    H135281   2.451   5.710   1.477 -1.4083 -0.7314  1.5741
 4574TIP3    H235282   2.529   5.648   1.592 -1.0422  0.4719  1.9867
 4575TIP3   OH235283   1.795   3.303   1.244 -0.7672 -0.3601 -0.1778
 4575TIP3    H135284   1.714   3.257   1.222 -1.1838  0.6152 -0.7128
 4575TIP3    H235285   1.831   3.330   1.160  1.0504 -2.2653 -0.1034
 4576TIP3   OH235286   6.907   5.883   7.116  0.8263 -0.5614  0.5758
 4576TIP3    H135287   6.828   5.876   7.062  0.0981  1.9705  1.1836
 4576TIP3    H235288   6.900   5.810   7.178 -1.8940  0.4455  1.6168
 4577TIP3   OH235289   6.296   4.415   7.038  0.1521 -0.3626 -0.2396
 4577TIP3    H135290   6.327   4.370   6.960  0.5598  0.0586 -0.3259
 4577TIP3    H235291   6.246   4.490   7.004  0.5912 -0.0045 -0.0973
 4578TIP3   OH235292   5.605   4.251   7.577 -0.3182 -0.4729  0.2671
 4578TIP3    H135293   5.548   4.213   7.643  0.4820 -1.7868  0.2488
 4578TIP3    H235294   5.568   4.337   7.559 -0.9342 -0.3636  1.9226
 4579TIP3   OH235295   1.173   3.463   7.340  0.2069  0.2541  0.3193
 4579TIP3    H135296   1.124   3.420   7.411  0.0176  2.6657  1.7656
 4579TIP3    H235297   1.107   3.512   7.292  0.6893  0.6560  0.0550
 4580TIP3   OH235298   6.758   5.813   1.791 -0.1951 -0.0112  0.2338
 4580TIP3    H135299   6.797   5.870   1.724  0.5760 -1.6081 -0.7267
 4580TIP3    H235300   6.665   5.810   1.769  0.1699 -1.1206 -1.2540
 4581TIP3   OH235301   2.602   5.109   7.937 -0.3524  0.4011 -0.0205
 4581TIP3    H135302   2.550   5.093   8.016  0.6254 -0.2606  0.5073
 4581TIP3    H235303   2.597   5.027   7.888 -0.5640  0.6524 -0.4264
 4582TIP3   OH235304   4.265   1.601   8.378  0.5868 -0.0573 -0.0257
 4582TIP3    H135305   4.261   1.561   8.291 -0.4033 -2.4227  1.0287
 4582TIP3    H235306   4.176   1.630   8.395  0.7773  0.3831  0.2429
 4583TIP3   OH235307   2.358   6.695   1.005 -0.1928  0.7402  0.0036
 4583TIP3    H135308   2.406   6.639   0.944  0.6602  1.7693 -0.2858
 4583TIP3    H235309   2.354   6.644   1.086  0.1800  0.0762 -0.3892
 4584TIP3   OH235310   1.881   0.481   7.396  0.1796 -0.4481 -0.0874
 4584TIP3    H135311   1.858   0.566   7.434 -1.6371 -1.4941  1.3591
 4584TIP3    H235312   1.866   0.491   7.302  0.3802  0.9296  0.0098
 4585TIP3   OH235313   6.709   3.209   7.572 -0.0044 -0.1551  0.0267
 4585TIP3    H135314   6.803   3.193   7.565 -0.1867 -1.2200 -0.1414
 4585TIP3    H235315   6.671   3.122   7.583 -0.9101  0.3312  0.8436
 4586TIP3   OH235316   1.065   2.496   7.339  0.0084 -0.5390 -0.1934
 4586TIP3    H135317   0.986   2.486   7.393  0.3276  0.9762  0.5892
 4586TIP3    H235318   1.037   2.550   7.265 -0.2041 -1.8515 -1.0997
 4587TIP3   OH235319   6.911   6.785   6.994 -0.1856  0.3362  0.2093
 4587TIP3    H135320   6.936   6.743   6.912  2.7335  1.4468  0.4081
 4587TIP3    H235321   6.863   6.863   6.967 -0.8121 -0.2206 -0.3336
 4588TIP3   OH235322   4.221   3.979   1.208 -0.3287 -0.3072 -0.0476
 4588TIP3    H135323   4.294   4.029   1.171 -1.3604  1.3874  0.1256
 4588TIP3    H235324   4.143   4.016   1.168 -1.1138 -2.2137 -0.3537
 4589TIP3   OH235325   2.750   5.911   0.032  0.1764 -0.1201  0.9262
 4589TIP3    H135326   2.769   5.860  -0.048 -1.5251 -0.0131  0.4124
 4589TIP3    H235327   2.656   5.902   0.044  0.1768  1.1195  2.0890
 4590TIP3   OH235328   6.642   0.340   8.373 -0.2334 -0.1238 -0.0581
 4590TIP3    H135329   6.658   0.419   8.322  0.0804  0.6202  1.1355
 4590TIP3    H235330   6.675   0.362   8.461 -2.0139 -0.8457  0.8383
 4591TIP3   OH235331   1.549   5.641   6.749 -0.0936 -0.4412 -0.2697
 4591TIP3    H135332   1.460   5.662   6.721 -0.6696 -2.1030  0.1792
 4591TIP3    H235333   1.538   5.601   6.836  1.3114  1.3093  0.7838
 4592TIP3   OH235334   0.266   1.672   2.113 -0.7032  0.4393  0.3516
 4592TIP3    H135335   0.229   1.586   2.091 -0.5434  0.3310  0.5009
 4592TIP3    H235336   0.350   1.652   2.154 -0.7129  0.6639  0.4835
 4593TIP3   OH235337   3.931   5.242   8.258 -0.2947  0.0510  0.2909
 4593TIP3    H135338   3.979   5.194   8.325  1.2213  3.1583  1.6297
 4593TIP3    H235339   3.993   5.248   8.185 -0.0301  0.8885  0.5737
 4594TIP3   OH235340   0.494   5.922   0.677 -0.0396 -0.0176  0.0172
 4594TIP3    H135341   0.511   5.860   0.747  0.9264  0.8335  0.5638
 4594TIP3    H235342   0.572   5.917   0.621 -0.0379  0.5466 -0.0387
 4595TIP3   OH235343   5.699   0.894   0.470 -0.1260 -0.2395  0.1107
 4595TIP3    H135344   5.729   0.821   0.417 -1.3632 -0.2979 -0.5435
 4595TIP3    H235345   5.732   0.972   0.424  1.1886 -0.3622  0.8080
 4596TIP3   OH235346   2.660   4.192   2.016  0.3693 -0.2125 -0.2724
 4596TIP3    H135347   2.653   4.209   2.110  1.3718 -0.6820 -0.1028
 4596TIP3    H235348   2.747   4.222   1.992  0.3610 -0.6724 -0.9213
 4597TIP3   OH235349   0.343   3.293   0.556 -0.4718  0.5500 -0.5805
 4597TIP3    H135350   0.383   3.209   0.581 -1.3536 -0.2475 -1.7438
 4597TIP3    H235351   0.381   3.313   0.471 -0.2273  1.3724 -0.2824
 4598TIP3   OH235352   5.812   1.958   7.823  0.3686  0.6993  0.0456
 4598TIP3    H135353   5.801   2.053   7.827  0.5636  0.7848 -1.1053
 4598TIP3    H235354   5.900   1.943   7.856  0.9175  1.0809 -1.1895
 4599TIP3   OH235355   0.965   5.422   7.946  0.8358 -0.3927 -0.2243
 4599TIP3    H135356   1.010   5.347   7.984  1.3540  0.9153  1.9422
 4599TIP3    H235357   1.025   5.454   7.879  1.2801 -1.0530 -0.1523
 4600TIP3   OH235358   4.482   4.153   6.587  0.0441  0.5469  0.4673
 4600TIP3    H135359   4.560   4.209   6.586  0.3923  0.0916  1.5872
 4600TIP3    H235360   4.411   4.212   6.612 -0.3249  1.3508 -2.1535
 4601TIP3   OH235361   5.488   5.524   1.611  0.7052 -0.9211 -0.2252
 4601TIP3    H135362   5.455   5.496   1.525 -0.8640  0.0503  0.0238
 4601TIP3    H235363   5.468   5.451   1.669  2.8286 -2.0944 -0.8359
 4602TIP3   OH235364   5.311   4.217   7.606 -0.1470 -0.1479  0.0609
 4602TIP3    H135365   5.295   4.258   7.691 -1.4919 -1.2490  0.3608
 4602TIP3    H235366   5.234   4.239   7.554  0.2727 -0.2183 -0.6053
 4603TIP3   OH235367   4.940   1.465   1.436  0.0563  0.6182 -0.6146
 4603TIP3    H135368   4.977   1.544   1.474  0.2881 -0.4901  1.6700
 4603TIP3    H235369   5.016   1.412   1.414 -0.0713 -0.0125  0.3578
 4604TIP3   OH235370   3.405   0.180   6.902  0.5239 -0.8257  0.0319
 4604TIP3    H135371   3.450   0.205   6.822 -0.1625  0.8365  0.1153
 4604TIP3    H235372   3.474   0.167   6.966  0.9767  2.5682  0.4096
 4605TIP3   OH235373   1.239   2.205   7.114 -0.0064 -0.1314 -0.4240
 4605TIP3    H135374   1.224   2.113   7.135 -3.5606  0.6629  1.3052
 4605TIP3    H235375   1.169   2.227   7.052 -0.1107  1.7122  0.2897
 4606TIP3   OH235376   3.036   2.607   0.116 -0.4760 -0.4969  0.4498
 4606TIP3    H135377   3.105   2.671   0.101  2.0799 -3.0121  0.5308
 4606TIP3    H235378   3.071   2.549   0.184 -2.7444 -1.8268  0.6052
 4607TIP3   OH235379   0.508   6.502   7.590  0.2450 -0.5007  0.2520
 4607TIP3    H135380   0.573   6.476   7.655  0.3297 -1.1795 -0.1017
 4607TIP3    H235381   0.427   6.459   7.619  0.1130 -0.2293  0.2957
 4608TIP3   OH235382   4.536   4.376   8.271  0.2500 -0.7306  0.4766
 4608TIP3    H135383   4.619   4.340   8.237 -0.5780 -1.2878 -1.0647
 4608TIP3    H235384   4.470   4.344   8.210 -1.0586  0.0767  1.4293
 4609TIP3   OH235385   5.904   1.547   7.187 -0.1851 -0.1013  0.0464
 4609TIP3    H135386   5.923   1.480   7.253  1.1145 -0.3959 -0.5750
 4609TIP3    H235387   5.821   1.521   7.149 -0.7241 -0.1834  1.2349
 4610TIP3   OH235388   1.446   3.679   6.702 -0.1089  0.8664  0.2825
 4610TIP3    H135389   1.509   3.696   6.633 -0.7492  1.5140 -0.1512
 4610TIP3    H235390   1.499   3.653   6.777  0.5620 -0.5132 -0.6317
 4611TIP3   OH235391   5.879   0.479   1.412 -0.0583  0.0517  0.5025
 4611TIP3    H135392   5.798   0.492   1.462  0.3994 -0.8362  1.5185
 4611TIP3    H235393   5.930   0.418   1.465  2.0160  1.8670  0.7645
 4612TIP3   OH235394   3.875   0.748   0.981 -0.3564 -0.6554  0.0706
 4612TIP3    H135395   3.820   0.783   1.052 -1.0868 -0.4991 -0.5575
 4612TIP3    H235396   3.961   0.737   1.021 -0.2468  1.2862  0.4660
 4613TIP3   OH235397   1.152   1.894   8.480 -0.5314  0.1742 -0.0316
 4613TIP3    H135398   1.149   1.987   8.460 -0.1385  0.3366  0.6249
 4613TIP3    H235399   1.230   1.884   8.535 -0.8759 -0.4493  0.3572
 4614TIP3   OH235400   1.084   0.400   8.450  0.4304 -0.2212 -0.2187
 4614TIP3    H135401   0.992   0.396   8.424  0.7603 -1.7057 -1.3087
 4614TIP3    H235402   1.082   0.406   8.545 -0.8001 -0.4937 -0.2106
 4615TIP3   OH235403   4.975   1.942   7.432 -0.0339  0.2737 -0.6866
 4615TIP3    H135404   4.912   2.005   7.398 -1.8285 -0.7050  0.6294
 4615TIP3    H235405   4.921   1.871   7.467  1.7605 -0.3039  1.1131
 4616TIP3   OH235406   5.397   3.820   0.469 -0.3784  0.1440 -0.1676
 4616TIP3    H135407   5.367   3.842   0.557 -2.9214 -0.2525 -0.8495
 4616TIP3    H235408   5.447   3.896   0.440 -1.0834  1.0480  0.9411
 4617TIP3   OH235409   2.274   2.066   8.357  0.2002  0.0617 -0.2062
 4617TIP3    H135410   2.228   1.991   8.396 -0.3930 -0.5807 -2.0270
 4617TIP3    H235411   2.204   2.124   8.328  0.6507  1.9418  2.1720
 4618TIP3   OH235412   4.282   3.003   8.030 -0.2411  0.6010  0.3341
 4618TIP3    H135413   4.282   3.004   7.934 -1.9304  1.7699  0.2985
 4618TIP3    H235414   4.373   3.019   8.054 -0.0183  1.7562 -1.1027
 4619TIP3   OH235415   1.840   5.464   2.289 -0.1314 -0.6824 -0.3442
 4619TIP3    H135416   1.874   5.535   2.236 -0.4600 -0.4120 -0.1956
 4619TIP3    H235417   1.884   5.474   2.374  0.1664 -0.9318 -0.4691
 4620TIP3   OH235418   6.394   5.576   8.179  0.5888 -0.4979 -0.0481
 4620TIP3    H135419   6.471   5.521   8.168  0.8483  0.0641 -1.2170
 4620TIP3    H235420   6.403   5.643   8.111  0.3174  1.0247  1.3597
 4621TIP3   OH235421   6.686   5.931   2.284 -0.2956  0.2510 -0.6102
 4621TIP3    H135422   6.741   5.906   2.358 -2.0836 -0.5122  0.5564
 4621TIP3    H235423   6.747   5.959   2.216  1.5473 -1.3233  0.2936
 4622TIP3   OH235424   4.248   0.517   1.884  0.1147 -0.4200 -0.7358
 4622TIP3    H135425   4.305   0.593   1.885 -1.6869  1.0125 -0.9638
 4622TIP3    H235426   4.274   0.466   1.961  0.8054  0.8518 -0.1041
 4623TIP3   OH235427   5.903   5.596   7.143  0.9767  0.6592  0.2517
 4623TIP3    H135428   5.969   5.551   7.091 -1.1981 -1.2525 -1.0741
 4623TIP3    H235429   5.874   5.669   7.088  1.0307  0.6723  0.2404
 4624TIP3   OH235430   5.792   3.172   8.415  0.2679 -0.5966  0.3422
 4624TIP3    H135431   5.718   3.169   8.476 -0.3759  1.3954 -0.2789
 4624TIP3    H235432   5.760   3.130   8.336  0.9856 -2.8522  1.1668
 4625TIP3   OH235433   0.571   0.261   0.632  0.1174 -0.1527 -0.3635
 4625TIP3    H135434   0.590   0.200   0.703  0.9599 -1.0961 -1.3661
 4625TIP3    H235435   0.533   0.337   0.676 -1.2295 -1.4727  0.8968
 4626TIP3   OH235436   6.080   6.634   0.422 -0.2787  0.2184 -0.4962
 4626TIP3    H135437   6.082   6.585   0.340  0.7396  1.1956 -1.0877
 4626TIP3    H235438   6.172   6.657   0.439 -0.6770  1.5991 -0.0588
 4627TIP3   OH235439   2.649   2.627   1.016 -0.0169 -0.0888  0.1291
 4627TIP3    H135440   2.577   2.608   0.956 -1.7291 -1.2892  2.3782
 4627TIP3    H235441   2.637   2.718   1.041 -2.6739 -0.9627  2.6331
 4628TIP3   OH235442   0.388   5.361   2.947  0.1469 -0.0905 -0.1291
 4628TIP3    H135443   0.374   5.354   3.042  1.3650 -1.0176  0.0070
 4628TIP3    H235444   0.439   5.283   2.925  0.2581  0.3471 -1.4749
 4629TIP3   OH235445   2.614   3.373   6.814  0.3531  0.4076  0.4853
 4629TIP3    H135446   2.684   3.337   6.868 -1.4182 -1.3504  1.7367
 4629TIP3    H235447   2.625   3.331   6.729  1.0142  0.4339  0.5504
 4630TIP3   OH235448   0.096   3.689   8.264  0.4863 -0.4748 -0.4164
 4630TIP3    H135449   0.128   3.618   8.209  1.4647 -0.1498 -0.2891
 4630TIP3    H235450   0.127   3.769   8.221 -0.6240 -0.1059 -0.5751
 4631TIP3   OH235451   5.206   0.437   6.567  0.2071 -0.3095  0.0353
 4631TIP3    H135452   5.118   0.399   6.564  1.6877 -4.2382 -0.3711
 4631TIP3    H235453   5.245   0.401   6.646  1.6478  0.9515 -0.0557
 4632TIP3   OH235454   4.381   1.364   1.004  0.1786 -0.6463 -0.4371
 4632TIP3    H135455   4.334   1.367   0.921 -1.0173 -1.9605  0.1540
 4632TIP3    H235456   4.427   1.279   1.003  1.3737 -0.0187 -0.3809
 4633TIP3   OH235457   5.490   6.497   8.065 -0.0429 -0.2880  0.1712
 4633TIP3    H135458   5.462   6.570   8.120  1.3702 -1.6807  2.9511
 4633TIP3    H235459   5.416   6.481   8.006 -0.1770  3.6971 -1.0519
 4634TIP3   OH235460   5.006   4.338   8.246 -0.3811 -0.1022 -0.5112
 4634TIP3    H135461   4.968   4.250   8.243  0.5245 -0.4937 -0.5856
 4634TIP3    H235462   4.984   4.369   8.334  1.2625 -1.3050  0.3709
 4635TIP3   OH235463   3.715   0.361   6.947  0.4211  0.0585  0.0866
 4635TIP3    H135464   3.675   0.350   6.861  0.6293 -0.9959  0.1159
 4635TIP3    H235465   3.704   0.276   6.990  1.2257  0.2586  0.7112
 4636TIP3   OH235466   2.547   3.430   7.677 -0.4032 -0.6939 -1.0230
 4636TIP3    H135467   2.493   3.509   7.671  0.6436  0.0764 -0.6678
 4636TIP3    H235468   2.484   3.358   7.683 -1.3793  0.1503 -0.8396
 4637TIP3   OH235469   0.563   5.632   8.382 -0.4217  0.3998  0.2200
 4637TIP3    H135470   0.516   5.632   8.299 -0.8464 -1.0682  0.4256
 4637TIP3    H235471   0.497   5.609   8.447 -0.1946  1.9475  1.0637
 4638TIP3   OH235472   3.574   1.494   0.045 -0.0701 -0.1187  0.2647
 4638TIP3    H135473   3.486   1.530   0.034 -0.7830 -1.4699  1.1796
 4638TIP3    H235474   3.583   1.484   0.140  0.9432 -0.2952  0.1545
 4639TIP3   OH235475   1.742   0.216   6.720  0.4844 -0.1384 -0.0295
 4639TIP3    H135476   1.705   0.265   6.647  0.0952 -0.2392  0.0965
 4639TIP3    H235477   1.676   0.224   6.790  0.8362 -0.0703  0.2983
 4640TIP3   OH235478   0.656   4.662   7.717 -0.0651  0.0240 -0.0612
 4640TIP3    H135479   0.692   4.749   7.701  1.5464 -0.2259  1.8728
 4640TIP3    H235480   0.709   4.603   7.662  0.2338  0.0332  0.2164
 4641TIP3   OH235481   6.696   1.021   0.710  0.4819 -0.3205  0.2656
 4641TIP3    H135482   6.658   0.954   0.766  1.9749 -1.3049  0.1612
 4641TIP3    H235483   6.622   1.059   0.664 -0.4479 -1.5790  0.6691
 4642TIP3   OH235484   5.784   2.342   6.813  0.3627 -0.2115 -0.4913
 4642TIP3    H135485   5.749   2.301   6.892  2.2590 -2.2130 -0.5906
 4642TIP3    H235486   5.857   2.395   6.844 -0.1299  0.6187 -0.7166
 4643TIP3   OH235487   2.442   0.107   1.968 -0.5264 -0.3269 -0.4662
 4643TIP3    H135488   2.465   0.116   2.060 -0.8558  0.2059 -0.4351
 4643TIP3    H235489   2.521   0.133   1.921 -0.6046  0.1457 -0.3414
 4644TIP3   OH235490   5.367   1.563   7.193  0.1229  0.3498  0.5246
 4644TIP3    H135491   5.390   1.656   7.187  0.0704  0.2991 -0.7460
 4644TIP3    H235492   5.279   1.563   7.232 -1.0465  1.0514 -1.8840
 4645TIP3   OH235493   0.952   5.461   1.992 -0.7377 -0.0039  0.1762
 4645TIP3    H135494   0.914   5.534   2.040 -3.8353 -1.2880 -0.0580
 4645TIP3    H235495   1.003   5.413   2.057 -2.6508 -0.2314  1.6216
 4646TIP3   OH235496   3.834   3.536   0.994  0.2318 -0.1133  0.1397
 4646TIP3    H135497   3.917   3.546   1.042 -0.0526  1.0946  0.4014
 4646TIP3    H235498   3.768   3.525   1.063  0.2175 -1.6703 -0.0772
 4647TIP3   OH235499   1.894   5.826   1.143 -0.3548  0.4247  0.2156
 4647TIP3    H135500   1.805   5.834   1.178 -0.3277 -0.8103  0.6022
 4647TIP3    H235501   1.949   5.868   1.209 -0.5050 -0.1541  0.7168
 4648TIP3   OH235502   6.313   4.346   7.802 -0.1924 -0.2969  0.3084
 4648TIP3    H135503   6.264   4.313   7.877 -0.3113 -0.7559  0.0362
 4648TIP3    H235504   6.405   4.327   7.824 -0.0873  0.9545  1.0064
 4649TIP3   OH235505   4.907   2.431   7.230  0.0103 -0.4947  0.1271
 4649TIP3    H135506   4.922   2.401   7.140 -1.1594  0.1542 -0.3039
 4649TIP3    H235507   4.831   2.489   7.224  2.5342  3.2221  0.8107
 4650TIP3   OH235508   2.037   1.550   6.708 -0.3353  0.4120 -0.2587
 4650TIP3    H135509   2.014   1.474   6.655  0.2656  0.4580 -0.5859
 4650TIP3    H235510   2.014   1.625   6.654 -2.0045  0.5027  0.5036
 4651TIP3   OH235511   2.404   5.714   7.929 -0.0962  0.1551  0.3915
 4651TIP3    H135512   2.418   5.628   7.890 -0.1668 -0.0129  0.7317
 4651TIP3    H235513   2.384   5.771   7.855 -2.3522 -0.5899  0.3467
 4652TIP3   OH235514   1.116   3.822   0.060 -0.0225  0.4178 -0.0881
 4652TIP3    H135515   1.207   3.809   0.088 -0.6983 -0.7486  1.7228
 4652TIP3    H235516   1.076   3.735   0.066 -1.8143  1.2726  1.3121
 4653TIP3   OH235517   4.652   0.989   0.717  0.2708 -0.5302  0.2654
 4653TIP3    H135518   4.650   0.899   0.748 -0.8088 -1.0436 -1.1723
 4653TIP3    H235519   4.645   0.982   0.622 -0.0155  1.0764  0.1334
 4654TIP3   OH235520   4.714   4.215   1.035  0.5928 -0.1637 -0.1473
 4654TIP3    H135521   4.654   4.184   1.103  1.3764 -0.1904  0.5518
 4654TIP3    H235522   4.680   4.178   0.954 -0.8712  0.6149  0.0923
 4655TIP3   OH235523   5.198   4.952   7.030  0.4006  0.5154 -0.0682
 4655TIP3    H135524   5.119   4.916   6.990  0.1712  0.4208  0.4724
 4655TIP3    H235525   5.172   4.978   7.118  0.8521  0.9321 -0.0530
 4656TIP3   OH235526   6.113   4.987   2.133 -0.1013 -0.4937  0.0090
 4656TIP3    H135527   6.140   4.918   2.072  0.3708 -0.2400 -0.0756
 4656TIP3    H235528   6.096   4.941   2.215 -1.2395 -0.9062 -0.4430
 4657TIP3   OH235529   4.791   1.763   7.517  0.1524 -0.6944  0.4830
 4657TIP3    H135530   4.851   1.689   7.527 -0.7710 -1.4279  0.7409
 4657TIP3    H235531   4.779   1.797   7.605  1.4728  0.5205  0.2279
 4658TIP3   OH235532   4.819   1.078   2.204 -0.3755 -0.2825  0.3339
 4658TIP3    H135533   4.758   1.143   2.239  0.2712 -0.3712  1.6464
 4658TIP3    H235534   4.853   1.118   2.124 -0.2471  0.8510  0.9392
 4659TIP3   OH235535   4.030   5.822   1.859  0.4401 -0.2127 -0.2813
 4659TIP3    H135536   4.045   5.873   1.939  1.3038 -0.1909 -0.4478
 4659TIP3    H235537   4.107   5.840   1.805 -1.1323  1.5041 -2.0570
 4660TIP3   OH235538   4.424   3.498   7.890  0.1484  0.1807 -0.4390
 4660TIP3    H135539   4.357   3.485   7.823 -3.4082  0.9645  2.6017
 4660TIP3    H235540   4.443   3.411   7.923 -1.6312  0.1209  0.5373
 4661TIP3   OH235541   4.223   0.145   7.216 -0.0364 -0.2591  0.3193
 4661TIP3    H135542   4.279   0.178   7.146  0.9485  0.9901  1.6455
 4661TIP3    H235543   4.259   0.058   7.236  0.5404 -0.0504  0.2135
 4662TIP3   OH235544   4.221   0.175   6.283 -0.3900 -0.0980 -0.5310
 4662TIP3    H135545   4.210   0.131   6.368 -0.9069  2.6242  0.9202
 4662TIP3    H235546   4.140   0.223   6.269  0.7243  1.7282 -1.1598
 4663TIP3   OH235547   6.509   1.435   0.713 -0.1468  0.2372  0.4900
 4663TIP3    H135548   6.563   1.510   0.736  1.5986 -1.5619  2.9237
 4663TIP3    H235549   6.422   1.455   0.749  0.1194  1.3523  0.5211
 4664TIP3   OH235550   5.160   0.451   0.179 -0.6719  0.3366 -0.2340
 4664TIP3    H135551   5.108   0.379   0.142 -0.1661  1.0633 -2.5063
 4664TIP3    H235552   5.100   0.495   0.239 -0.5349 -2.8253  2.4829
 4665TIP3   OH235553   5.930   3.573   7.319  0.5047 -0.3184 -0.0332
 4665TIP3    H135554   5.868   3.617   7.260 -0.3488 -0.7982  0.4803
 4665TIP3    H235555   5.915   3.613   7.404  1.6287  0.2625 -0.0966
 4666TIP3   OH235556   2.374   0.937   1.612  0.1983  0.1580 -0.4058
 4666TIP3    H135557   2.364   0.959   1.705  0.1036 -2.4083  0.2857
 4666TIP3    H235558   2.319   0.859   1.601 -0.2295  0.7374 -2.7789
 4667TIP3   OH235559   4.440   0.694   0.532  0.3094  0.1195  0.0519
 4667TIP3    H135560   4.407   0.772   0.488  0.0599 -0.2982 -0.5062
 4667TIP3    H235561   4.365   0.634   0.534  1.0938 -0.9883 -1.5609
 4668TIP3   OH235562   3.439   3.562   6.271  0.2250 -0.0529  0.1477
 4668TIP3    H135563   3.360   3.584   6.321 -1.0649  0.6615 -2.0762
 4668TIP3    H235564   3.422   3.473   6.239  0.3855  0.0513 -0.2252
 4669TIP3   OH235565   2.633   0.576   6.388 -0.5305  0.3827  0.1094
 4669TIP3    H135566   2.668   0.617   6.309 -2.6231  2.8014  0.2937
 4669TIP3    H235567   2.695   0.600   6.457  0.5149 -0.4721 -0.5095
 4670TIP3   OH235568   3.314   2.784   7.488  0.1277  0.1534 -0.3587
 4670TIP3    H135569   3.311   2.810   7.580 -1.9774 -0.6439 -0.1314
 4670TIP3    H235570   3.290   2.863   7.440  0.0386  0.2717 -0.1257
 4671TIP3   OH235571   2.301   0.672   8.378 -0.6428 -0.4461  0.1666
 4671TIP3    H135572   2.340   0.633   8.456 -1.1993 -1.8633 -0.2389
 4671TIP3    H235573   2.220   0.624   8.364  0.1946 -1.3391 -2.1717
 4672TIP3   OH235574   2.549   0.975   0.104 -0.1007  0.4482  0.0152
 4672TIP3    H135575   2.584   0.986   0.016  1.3312 -0.2639  0.4610
 4672TIP3    H235576   2.550   1.064   0.142  4.0442  0.2077  0.9663
 4673TIP3   OH235577   1.886   5.283   8.128 -0.1723  0.0765  0.2339
 4673TIP3    H135578   1.891   5.319   8.217  0.6459  1.5904 -0.3917
 4673TIP3    H235579   1.822   5.338   8.084  0.7270  0.4771 -0.6056
 4674TIP3   OH235580   1.223   1.288   1.873 -0.0944  0.0307 -0.3304
 4674TIP3    H135581   1.137   1.247   1.886 -0.5408  0.9345 -0.3876
 4674TIP3    H235582   1.248   1.318   1.960  0.6836 -1.2032 -0.1029
 4675TIP3   OH235583   2.872   4.066   1.095 -0.4833 -0.3026 -0.3011
 4675TIP3    H135584   2.900   4.040   1.182 -2.3721 -0.6136  0.2582
 4675TIP3    H235585   2.881   4.161   1.094 -0.7582 -0.2657  0.3618
 4676TIP3   OH235586   5.900   6.114   7.693  0.1622 -0.0739 -0.2293
 4676TIP3    H135587   5.896   6.035   7.639 -0.2953  1.1742 -2.1119
 4676TIP3    H235588   5.973   6.163   7.658 -0.2545  0.8519  0.1774
 4677TIP3   OH235589   2.753   5.377   8.364 -0.3144 -0.2482 -0.1621
 4677TIP3    H135590   2.682   5.440   8.359 -1.8779 -1.9515 -0.7661
 4677TIP3    H235591   2.761   5.357   8.458  0.7376  1.3759  0.1209
 4678TIP3   OH235592   0.483   1.098   1.780 -0.1360  0.3711 -0.1385
 4678TIP3    H135593   0.429   1.118   1.857 -0.6569  0.8130 -0.6132
 4678TIP3    H235594   0.562   1.058   1.816 -1.6434 -2.2990  0.4733
 4679TIP3   OH235595   0.884   6.503   8.382 -0.7046 -0.3463 -0.0414
 4679TIP3    H135596   0.808   6.538   8.336 -0.8921 -2.0361 -1.0975
 4679TIP3    H235597   0.945   6.480   8.313 -0.2461 -1.2901  0.6540
 4680TIP3   OH235598   0.953   4.868   0.537  0.2292  0.0764  0.3563
 4680TIP3    H135599   0.888   4.826   0.481  0.9312 -0.8419  0.2080
 4680TIP3    H235600   0.947   4.961   0.516 -0.9043 -0.0141  0.2229
 4681TIP3   OH235601   3.249   4.941   1.442 -0.5271 -0.6345 -0.2597
 4681TIP3    H135602   3.301   4.880   1.389 -0.3098  0.4746 -1.3560
 4681TIP3    H235603   3.221   4.889   1.518 -1.8292 -2.6479 -1.9961
 4682TIP3   OH235604   4.299   6.485   0.939  0.0663  0.6739 -0.6669
 4682TIP3    H135605   4.275   6.493   0.846 -0.4385 -0.8645 -0.6955
 4682TIP3    H235606   4.352   6.405   0.943 -2.9473 -1.4244  0.8944
 4683TIP3   OH235607   4.771   6.791   7.236  0.1989 -0.3671 -0.6650
 4683TIP3    H135608   4.714   6.774   7.312  0.9367  0.8887  0.2037
 4683TIP3    H235609   4.847   6.735   7.252  1.3124  1.4308  0.6759
 4684TIP3   OH235610   6.553   4.514   1.639 -0.2007 -0.1199 -0.3657
 4684TIP3    H135611   6.529   4.423   1.653  1.1697 -0.2865  1.2006
 4684TIP3    H235612   6.511   4.538   1.556 -0.8144 -2.0739 -0.6571
 4685TIP3   OH235613   1.663   4.133   8.486 -0.2381  0.0396  0.3726
 4685TIP3    H135614   1.726   4.200   8.509  2.9345 -2.8093  0.7502
 4685TIP3    H235615   1.653   4.141   8.391 -0.8145  1.6497  0.5347
 4686TIP3   OH235616   2.269   4.248   7.162  0.0175  0.3827  0.0258
 4686TIP3    H135617   2.307   4.190   7.097 -0.0202  0.1907  0.1757
 4686TIP3    H235618   2.266   4.197   7.242  0.4059  0.7388  0.2734
 4687TIP3   OH235619   1.832   1.405   8.161  0.4992  0.4270 -0.2549
 4687TIP3    H135620   1.922   1.438   8.162 -0.0590  2.0482  2.0874
 4687TIP3    H235621   1.777   1.483   8.161 -0.9059 -0.5078  0.7691
 4688TIP3   OH235622   6.173   1.536   0.902 -0.1370 -0.3303 -0.0160
 4688TIP3    H135623   6.233   1.512   0.972 -0.6481 -0.1655  0.4903
 4688TIP3    H235624   6.181   1.631   0.894  0.1526 -0.3828 -0.4059
 4689TIP3   OH235625   6.883   4.184   8.324 -0.1772 -0.3988  0.0349
 4689TIP3    H135626   6.929   4.200   8.407 -0.4903 -2.6091  0.7153
 4689TIP3    H235627   6.791   4.178   8.349 -0.4587  0.5155 -0.7519
 4690TIP3   OH235628   0.013   5.927   1.616 -0.4154  0.0951  0.1992
 4690TIP3    H135629   0.040   5.936   1.524  0.8376  0.8802  0.6241
 4690TIP3    H235630   0.088   5.959   1.666 -1.1689 -0.1277  1.4992
 4691TIP3   OH235631   2.067   0.561   8.459  0.3312 -0.0986 -0.1307
 4691TIP3    H135632   2.009   0.568   8.383 -0.6954 -0.6252  0.5923
 4691TIP3    H235633   2.076   0.467   8.474 -1.5301 -0.0057  1.9182
 4692TIP3   OH235634   2.546   6.869   1.113 -0.0702 -0.0212 -0.4774
 4692TIP3    H135635   2.479   6.889   1.179 -1.1692  0.1126 -1.5852
 4692TIP3    H235636   2.501   6.813   1.050 -0.5024  3.2806 -3.4319
 4693TIP3   OH235637   6.577   6.858   7.880 -0.4733 -0.3364 -0.3409
 4693TIP3    H135638   6.510   6.926   7.877  0.5563  0.7054 -0.2241
 4693TIP3    H235639   6.553   6.804   7.955 -1.8351 -0.6818 -0.9976
 4694TIP3   OH235640   5.696   3.411   0.704  0.6724  0.5746  0.2756
 4694TIP3    H135641   5.720   3.452   0.621 -0.1824 -0.2304 -0.3921
 4694TIP3    H235642   5.752   3.334   0.710  0.3322  0.3160  0.1616
 4695TIP3   OH235643   5.630   3.267   7.311 -0.1764  0.0615  0.4100
 4695TIP3    H135644   5.556   3.256   7.250  0.5462  1.7940 -0.8794
 4695TIP3    H235645   5.698   3.308   7.258  2.4114 -2.9825  1.1228
 4696TIP3   OH235646   2.241   0.373   0.794  0.2315  0.4066 -0.3674
 4696TIP3    H135647   2.190   0.443   0.835 -0.1387  0.7353 -1.3381
 4696TIP3    H235648   2.289   0.332   0.866  3.1218  3.7920 -0.1181
 4697TIP3   OH235649   5.891   5.684   6.184  0.2293  0.0753 -0.9996
 4697TIP3    H135650   5.917   5.595   6.162 -1.5711 -0.5138 -0.9342
 4697TIP3    H235651   5.956   5.713   6.247  2.1430 -0.3292 -2.7006
 4698TIP3   OH235652   2.066   5.668   0.280  0.1738  0.1444 -0.5583
 4698TIP3    H135653   2.023   5.654   0.364 -0.0701  0.5918 -0.6063
 4698TIP3    H235654   2.124   5.743   0.295 -0.7787  1.0062 -1.1141
 4699TIP3   OH235655   6.235   3.386   2.294  0.1670  0.0524  0.0233
 4699TIP3    H135656   6.304   3.419   2.352  0.5265  0.7966 -0.7969
 4699TIP3    H235657   6.279   3.371   2.210 -0.4688 -0.3930 -0.2387
 4700TIP3   OH235658   0.028   6.571   8.535  0.4332 -0.2918  0.1025
 4700TIP3    H135659   0.031   6.571   8.631 -0.2995 -1.3720  0.1455
 4700TIP3    H235660   0.073   6.490   8.510 -1.2524 -1.1217 -0.3602
 4701TIP3   OH235661   4.855   0.109   2.273 -0.0530 -0.3969 -0.1788
 4701TIP3    H135662   4.799   0.185   2.288 -0.6169 -0.8892  0.2703
 4701TIP3    H235663   4.917   0.109   2.346  0.6850  0.2749 -0.7963
 4702TIP3   OH235664   4.707   2.257   6.740  0.0836 -0.0796  0.1855
 4702TIP3    H135665   4.641   2.189   6.726 -0.1684  0.5893 -2.3441
 4702TIP3    H235666   4.788   2.219   6.704  0.2371  0.4620 -0.0400
 4703TIP3   OH235667   0.371   4.365   0.851 -0.3684 -0.2314 -0.0265
 4703TIP3    H135668   0.314   4.356   0.927 -0.5254 -0.4309 -0.1673
 4703TIP3    H235669   0.460   4.353   0.885 -0.4140  0.0212  0.1816
 4704TIP3   OH235670   5.655   0.081   0.573  0.5338  0.8244  0.2717
 4704TIP3    H135671   5.713   0.076   0.497 -0.2541  1.7119 -0.4078
 4704TIP3    H235672   5.712   0.108   0.645  1.1926  0.4591 -0.0996
 4705TIP3   OH235673   1.145   5.875   1.928  0.2360 -0.1987 -0.1985
 4705TIP3    H135674   1.173   5.784   1.932  2.2070  0.3881  1.1908
 4705TIP3    H235675   1.103   5.891   2.013  0.7083  0.3807 -0.0612
 4706TIP3   OH235676   1.777   2.241   6.639 -0.0907  0.3991 -0.1219
 4706TIP3    H135677   1.736   2.284   6.564  0.0217  0.0668 -0.3821
 4706TIP3    H235678   1.809   2.158   6.603 -1.8145 -0.6936  0.7479
 4707TIP3   OH235679   6.580   3.277   1.015 -0.2831  0.4169 -0.3704
 4707TIP3    H135680   6.527   3.238   1.084 -0.4901  0.5208 -0.4696
 4707TIP3    H235681   6.615   3.203   0.967 -0.7281  0.3531 -0.5996
 4708TIP3   OH235682   4.912   5.358   7.806  0.3481  0.0508  0.3018
 4708TIP3    H135683   4.897   5.264   7.800  1.0790 -0.1393  1.1685
 4708TIP3    H235684   5.006   5.369   7.788  0.5736  0.4402  1.6101
 4709TIP3   OH235685   1.079   4.428   7.836 -0.1327 -0.0528  0.5334
 4709TIP3    H135686   1.141   4.499   7.856 -1.4406  0.7918  1.7663
 4709TIP3    H235687   1.061   4.438   7.742  2.4390 -1.0646 -0.1608
 4710TIP3   OH235688   4.968   4.473   6.522 -0.4328  0.1260  0.4437
 4710TIP3    H135689   5.053   4.515   6.505 -0.0953 -0.4779  0.6069
 4710TIP3    H235690   4.961   4.475   6.618  0.0165 -1.0042  0.5143
 4711TIP3   OH235691   6.043   0.231   0.463  0.4957 -0.2390  0.0801
 4711TIP3    H135692   6.070   0.284   0.539  0.5409  1.0673 -0.8232
 4711TIP3    H235693   5.976   0.283   0.420 -0.8213 -1.7741  0.1816
 4712TIP3   OH235694   3.313   4.495   6.711 -0.1925 -0.0713 -0.6748
 4712TIP3    H135695   3.288   4.558   6.779  1.3085 -1.3871  1.2124
 4712TIP3    H235696   3.342   4.549   6.638 -1.6697  1.3998 -0.2408
 4713TIP3   OH235697   0.740   1.970   2.138 -0.4076  0.2868 -0.8996
 4713TIP3    H135698   0.789   2.011   2.067 -1.4083  1.9033 -0.7156
 4713TIP3    H235699   0.713   1.885   2.103  3.4145 -1.2721 -0.6156
 4714TIP3   OH235700   2.868   4.360   7.017  0.2324  0.3503 -0.3134
 4714TIP3    H135701   2.823   4.277   7.000 -0.2824  0.8043 -1.2418
 4714TIP3    H235702   2.842   4.384   7.106 -1.4336  0.6239 -0.8442
 4715TIP3   OH235703   5.265   3.030   1.430 -0.3287  0.0248  0.1178
 4715TIP3    H135704   5.315   3.030   1.512 -1.7507  0.3639  1.0109
 4715TIP3    H235705   5.181   2.990   1.452 -0.8638  0.4312 -1.0931
 4716TIP3   OH235706   5.942   5.433   0.179  0.0013 -0.1158  0.6332
 4716TIP3    H135707   5.886   5.478   0.116  0.3535 -0.8099 -0.1922
 4716TIP3    H235708   6.030   5.464   0.160  0.0197  0.2673  1.3153
 4717TIP3   OH235709   5.163   6.899   8.466  0.1968 -0.0938 -0.1102
 4717TIP3    H135710   5.194   6.851   8.543 -1.8271 -0.3971  0.5729
 4717TIP3    H235711   5.215   6.864   8.394 -0.5120 -2.6499  0.5154
 4718TIP3   OH235712   5.954   1.503   1.739  0.4349 -0.1716  0.3403
 4718TIP3    H135713   5.990   1.579   1.783  1.1957 -0.6951  0.6429
 4718TIP3    H235714   6.009   1.430   1.768  1.0919 -0.5161 -1.6139
 4719TIP3   OH235715   3.021   0.814   7.012  0.2025 -0.2976  0.1023
 4719TIP3    H135716   3.038   0.908   7.010 -1.0396 -0.0786 -1.7031
 4719TIP3    H235717   2.963   0.802   7.088  0.0741  0.4307  0.1224
 4720TIP3   OH235718   0.396   3.021   0.607 -0.2484 -0.3693  0.2101
 4720TIP3    H135719   0.431   3.029   0.518  1.0969 -2.2127  0.5253
 4720TIP3    H235720   0.367   2.930   0.613  1.5382 -0.8787  2.2722
 4721TIP3   OH235721   1.487   0.505   1.254  0.4063 -0.2817 -0.3857
 4721TIP3    H135722   1.514   0.474   1.340  1.0145  0.5286 -0.2775
 4721TIP3    H235723   1.519   0.438   1.193  1.5750  0.0532 -0.1450
 4722TIP3   OH235724   6.269   0.924   8.051 -0.4308  0.1922  0.1592
 4722TIP3    H135725   6.293   0.945   7.961 -1.3376  1.1181  0.1113
 4722TIP3    H235726   6.270   0.828   8.055 -0.7916  0.1325 -0.9520
 4723TIP3   OH235727   5.809   3.177   8.101  0.1549 -0.2227  0.4057
 4723TIP3    H135728   5.861   3.100   8.074  1.3014  0.6438  0.0235
 4723TIP3    H235729   5.729   3.171   8.049  0.3992 -0.9705  0.0985
 4724TIP3   OH235730   5.985   6.196   8.260 -0.7433 -0.2321  0.2250
 4724TIP3    H135731   5.958   6.208   8.169 -0.9706  0.7531  0.4077
 4724TIP3    H235732   5.980   6.101   8.274 -1.5928 -0.3175 -0.5167
 4725TIP3   OH235733   1.491   3.226   6.848  0.1415  0.3588 -0.1667
 4725TIP3    H135734   1.454   3.304   6.806 -0.3831 -0.1102 -0.5993
 4725TIP3    H235735   1.540   3.183   6.778  2.5469  1.5877  0.6846
 4726TIP3   OH235736   4.216   6.817   0.883  0.1773 -0.2556  0.2824
 4726TIP3    H135737   4.211   6.723   0.865  0.0789 -0.6157  2.0250
 4726TIP3    H235738   4.142   6.854   0.834  1.1895 -0.7982 -1.7923
 4727TIP3   OH235739   0.119   2.219   6.579  0.0751  0.1670 -0.1572
 4727TIP3    H135740   0.027   2.233   6.601  0.0539  0.0066 -0.1436
 4727TIP3    H235741   0.159   2.305   6.588  0.4039 -0.1593  2.0789
 4728TIP3   OH235742   3.035   1.691   7.250  0.4984 -0.2391  0.4914
 4728TIP3    H135743   3.046   1.736   7.333  2.0977 -1.7872  1.1655
 4728TIP3    H235744   2.953   1.642   7.260 -1.2915  2.3529 -0.2655
 4729TIP3   OH235745   6.655   5.848   0.312  0.6165  0.0755  0.0152
 4729TIP3    H135746   6.634   5.787   0.241  3.5810  1.4590 -2.2949
 4729TIP3    H235747   6.594   5.921   0.300  0.9339  0.1874 -1.0133
 4730TIP3   OH235748   2.544   6.770   0.604  0.2970 -0.0417  0.4771
 4730TIP3    H135749   2.624   6.722   0.625 -0.3127 -1.1886  0.2644
 4730TIP3    H235750   2.479   6.701   0.584 -0.6516  0.8669  0.3417
 4731TIP3   OH235751   5.687   2.482   0.807  0.4665  0.1535 -0.0468
 4731TIP3    H135752   5.652   2.501   0.720 -3.0116  1.6100  1.4524
 4731TIP3    H235753   5.754   2.548   0.822 -0.6300  1.4722 -0.7509
 4732TIP3   OH235754   0.290   6.706   8.252 -0.2452  0.2702 -0.1859
 4732TIP3    H135755   0.217   6.722   8.311 -0.4546 -0.7362 -0.1637
 4732TIP3    H235756   0.260   6.635   8.195  0.9476 -0.6091  0.2411
 4733TIP3   OH235757   5.981   4.181   7.326  0.7119 -0.3363  0.2015
 4733TIP3    H135758   5.993   4.213   7.236 -0.1937 -4.0027 -1.4210
 4733TIP3    H235759   6.056   4.124   7.341 -0.2402 -1.4603  0.8709
 4734TIP3   OH235760   4.060   0.259   8.286 -0.5504  0.0188 -0.0624
 4734TIP3    H135761   3.976   0.214   8.274 -0.6781 -0.3602  1.8836
 4734TIP3    H235762   4.117   0.223   8.218 -1.8092 -0.1005 -1.0813
 4735TIP3   OH235763   1.712   1.415   0.546 -0.2875 -0.6200  0.3268
 4735TIP3    H135764   1.648   1.431   0.477 -0.1840  1.7827  0.6891
 4735TIP3    H235765   1.679   1.338   0.593 -4.5629  2.0325  2.2159
 4736TIP3   OH235766   1.982   6.563   7.518 -0.6237 -0.2746 -0.1438
 4736TIP3    H135767   2.002   6.656   7.519 -0.1687 -0.3638 -0.5199
 4736TIP3    H235768   2.046   6.524   7.578 -1.0583 -0.3025  0.3096
 4737TIP3   OH235769   6.534   0.860   6.868  0.2050  0.1538  0.1453
 4737TIP3    H135770   6.524   0.861   6.964  0.9053  2.2616  0.2602
 4737TIP3    H235771   6.615   0.811   6.854  0.5318  0.5123  0.7077
 4738TIP3   OH235772   3.815   6.764   0.089  0.0722 -0.3218  0.3566
 4738TIP3    H135773   3.755   6.820   0.040 -0.6570 -0.1229  1.4582
 4738TIP3    H235774   3.850   6.820   0.157  0.0090 -0.9628  0.9267
 4739TIP3   OH235775   1.288   4.245   1.178 -0.1368  0.1086 -0.4594
 4739TIP3    H135776   1.271   4.326   1.129  0.9384  1.5993  1.4455
 4739TIP3    H235777   1.369   4.264   1.226  0.0015 -2.0412  0.2364
 4740TIP3   OH235778   6.587   0.133   2.357  0.6896 -0.2524  0.7112
 4740TIP3    H135779   6.494   0.154   2.350  0.1501 -1.8013  2.5607
 4740TIP3    H235780   6.631   0.218   2.356 -0.7233  0.5011 -0.1335
 4741TIP3   OH235781   0.982   1.033   7.073 -0.0843 -0.2881 -0.5840
 4741TIP3    H135782   0.943   1.121   7.069 -0.8047 -0.6149 -0.9148
 4741TIP3    H235783   0.934   0.983   7.008  0.4926 -0.8693 -0.5682
 4742TIP3   OH235784   4.270   6.427   7.575 -0.5232 -0.3335 -0.1717
 4742TIP3    H135785   4.284   6.520   7.559  2.1381 -0.4868  0.7341
 4742TIP3    H235786   4.323   6.408   7.653 -1.9846 -2.3693  0.3989
 4743TIP3   OH235787   1.913   0.875   0.482 -0.8040  0.4923  0.4316
 4743TIP3    H135788   2.007   0.880   0.466 -0.6908  1.1693  1.2426
 4743TIP3    H235789   1.874   0.896   0.397 -0.2463 -1.4370 -0.3468
 4744TIP3   OH235790   1.148   1.629   2.411 -1.0015  0.1867 -0.8041
 4744TIP3    H135791   1.164   1.687   2.336  0.1276 -2.1886 -2.5539
 4744TIP3    H235792   1.230   1.582   2.423 -2.1353 -1.7788 -0.2074
 4745TIP3   OH235793   0.617   3.205   1.410  0.2864  0.3775 -0.6988
 4745TIP3    H135794   0.650   3.239   1.327  0.0192 -0.0984 -1.0019
 4745TIP3    H235795   0.592   3.283   1.459 -0.7075  0.6220 -1.5476
 4746TIP3   OH235796   3.509   2.570   7.991  0.5324  0.5043 -0.7161
 4746TIP3    H135797   3.422   2.582   7.952 -0.0647 -0.5906  0.2333
 4746TIP3    H235798   3.557   2.517   7.927 -0.5545 -1.5805  0.1109
 4747TIP3   OH235799   3.836   1.893   0.600  0.1214 -0.2095  0.2671
 4747TIP3    H135800   3.875   1.821   0.649  0.7519  0.6556  1.0598
 4747TIP3    H235801   3.878   1.971   0.634  0.6041  0.4365 -1.6820
 4748TIP3   OH235802   2.455   4.992   2.242 -0.2990  0.1173  0.6603
 4748TIP3    H135803   2.367   4.963   2.264 -0.6383  1.8694  1.7945
 4748TIP3    H235804   2.457   4.994   2.146 -1.4508 -0.0284  0.6235
 4749TIP3   OH235805   4.969   4.594   0.612  0.4385  0.6081  0.4591
 4749TIP3    H135806   4.891   4.633   0.651  0.5068  0.4295  0.7817
 4749TIP3    H235807   5.022   4.566   0.687 -0.9006 -2.7383  0.2917
 4750TIP3   OH235808   6.036   1.705   0.456  0.2328  0.4046  0.0697
 4750TIP3    H135809   6.091   1.750   0.392 -0.3795 -0.1033 -0.8222
 4750TIP3    H235810   6.065   1.613   0.452 -0.1326  0.2831  0.1816
 4751TIP3   OH235811   0.379   6.092   7.846 -0.0458  0.3640 -0.5065
 4751TIP3    H135812   0.472   6.079   7.828 -0.2757 -1.3470 -0.6789
 4751TIP3    H235813   0.370   6.185   7.864  1.2084  1.2013 -3.5611
 4752TIP3   OH235814   2.896   4.019   1.824  0.3888 -0.2230 -0.4647
 4752TIP3    H135815   2.958   3.975   1.881 -2.1632  0.9083  3.6595
 4752TIP3    H235816   2.900   4.111   1.851 -2.0204  0.1111 -0.9734
 4753TIP3   OH235817   2.402   3.437   7.214 -0.2353  0.1885  0.4436
 4753TIP3    H135818   2.452   3.404   7.288  0.8628 -0.5036 -0.5570
 4753TIP3    H235819   2.460   3.500   7.172 -1.1469  1.1626  0.5932
 4754TIP3   OH235820   5.881   4.328   0.882  0.8211  0.1157  0.2140
 4754TIP3    H135821   5.815   4.260   0.888 -0.7466  1.5440  0.0136
 4754TIP3    H235822   5.910   4.327   0.791  1.6748 -1.0154  0.4774
 4755TIP3   OH235823   0.093   5.990   2.203  0.2309  0.5180 -0.2223
 4755TIP3    H135824   0.062   5.928   2.269 -0.3402  1.4543  0.4254
 4755TIP3    H235825   0.174   5.952   2.170  2.1932  1.4027  3.1434
 4756TIP3   OH235826   4.823   6.768   6.844 -0.2792  0.4958  0.2598
 4756TIP3    H135827   4.916   6.770   6.825 -0.6147 -0.2778 -1.7690
 4756TIP3    H235828   4.785   6.832   6.783 -1.4750 -2.3558 -2.2559
 4757TIP3   OH235829   2.318   4.168   6.756  0.0809 -0.3251 -0.4017
 4757TIP3    H135830   2.250   4.104   6.778 -1.2493  1.3879  0.7947
 4757TIP3    H235831   2.382   4.119   6.703 -0.7940 -2.6213  0.5554
 4758TIP3   OH235832   1.388   5.931   2.310 -0.7619  0.3916  0.0252
 4758TIP3    H135833   1.380   5.863   2.243 -0.0931  0.2078  0.1271
 4758TIP3    H235834   1.307   5.923   2.361 -0.2598 -1.0111  0.6540
 4759TIP3   OH235835   4.523   4.544   0.632 -0.5873  0.2586 -0.2134
 4759TIP3    H135836   4.434   4.510   0.624  0.2303 -1.7825 -1.4896
 4759TIP3    H235837   4.531   4.607   0.561 -0.6492 -0.4602 -0.8670
 4760TIP3   OH235838   0.199   5.837   8.295  0.6356 -0.0730 -0.1039
 4760TIP3    H135839   0.273   5.841   8.355 -0.5745  1.4139  1.4123
 4760TIP3    H235840   0.230   5.880   8.215  1.0532  1.7902  0.9917
 4761TIP3   OH235841   0.475   6.666   7.360  0.2327 -0.0568 -0.8144
 4761TIP3    H135842   0.400   6.633   7.310 -0.0727 -1.0615  0.2785
 4761TIP3    H235843   0.468   6.624   7.445  1.3573  0.7973 -0.2714
 4762TIP3   OH235844   2.760   1.448   0.611 -0.0956 -0.2942  0.1381
 4762TIP3    H135845   2.682   1.497   0.584  0.3698 -0.2466 -1.1842
 4762TIP3    H235846   2.794   1.497   0.686 -0.2648  0.8029 -0.4694
 4763TIP3   OH235847   4.415   2.982   0.867 -0.0246  0.2270  0.3594
 4763TIP3    H135848   4.496   2.940   0.895  0.2301 -0.2835 -1.0563
 4763TIP3    H235849   4.439   3.073   0.852  0.5817 -0.1548 -1.1231
 4764TIP3   OH235850   0.984   4.987   7.101 -0.1605  0.1955  0.1858
 4764TIP3    H135851   0.906   4.938   7.127 -0.7225  0.8460 -0.2321
 4764TIP3    H235852   1.047   4.970   7.170 -1.3391  1.2129  1.5670
 4765TIP3   OH235853   6.895   0.189   6.623  0.4423  0.2878  0.7606
 4765TIP3    H135854   6.896   0.225   6.534 -0.1429  0.6022  0.8759
 4765TIP3    H235855   6.982   0.150   6.634  0.8434  1.0446  0.3706
 4766TIP3   OH235856   4.805   6.817   2.118  0.0514  0.1177  0.1547
 4766TIP3    H135857   4.827   6.741   2.171  0.5267 -1.3375 -1.9947
 4766TIP3    H235858   4.821   6.892   2.176  1.5186 -1.3116  1.7108
 4767TIP3   OH235859   4.765   2.106   7.845 -0.3188 -0.6573  0.0581
 4767TIP3    H135860   4.723   2.173   7.898 -0.4143 -0.7122  0.0529
 4767TIP3    H235861   4.822   2.059   7.905  0.1326 -0.2474 -0.0464
 4768TIP3   OH235862   2.216   4.477   7.436  0.4162  0.1433  1.1609
 4768TIP3    H135863   2.165   4.529   7.499  1.2192  0.8639  1.2232
 4768TIP3    H235864   2.149   4.428   7.387 -0.2774  0.3085  1.9111
 4769TIP3   OH235865   4.542   2.511   7.434 -0.0712 -0.2980  0.0988
 4769TIP3    H135866   4.500   2.464   7.362 -0.6929 -0.8568  0.8074
 4769TIP3    H235867   4.480   2.505   7.506  0.4088  0.5127  0.5987
 4770TIP3   OH235868   6.522   5.572   0.704  0.1964  0.1368 -0.4549
 4770TIP3    H135869   6.456   5.509   0.676  1.0306 -0.2994 -1.5107
 4770TIP3    H235870   6.594   5.561   0.642  1.3645  0.4397  0.7926
 4771TIP3   OH235871   4.302   4.272   7.740 -0.2353  0.3106 -0.2737
 4771TIP3    H135872   4.341   4.193   7.776 -1.5826 -0.3216 -0.1623
 4771TIP3    H235873   4.213   4.248   7.717 -0.6630  1.7776 -0.3014
 4772TIP3   OH235874   1.322   1.605   0.344 -0.1536  0.2635  0.2880
 4772TIP3    H135875   1.278   1.597   0.259 -1.2653  2.6115  0.5669
 4772TIP3    H235876   1.256   1.577   0.407  0.6244 -1.3379  0.4297
 4773TIP3   OH235877   4.022   4.989   7.872  0.8776 -0.5716  0.2118
 4773TIP3    H135878   4.014   5.046   7.795 -0.3784 -3.5384 -2.0524
 4773TIP3    H235879   4.114   4.962   7.872  0.6416 -1.4837 -1.0676
 4774TIP3   OH235880   3.033   6.515   8.494  0.2234 -0.0383 -0.2526
 4774TIP3    H135881   3.128   6.522   8.497  0.3934 -2.1312  2.2080
 4774TIP3    H235882   3.004   6.549   8.578 -1.0037 -1.4375 -0.0762
 4775TIP3   OH235883   2.184   5.519   1.479 -0.5286 -0.0079  0.6558
 4775TIP3    H135884   2.108   5.461   1.470  0.1815 -0.6811 -1.7949
 4775TIP3    H235885   2.159   5.599   1.432 -0.0622  0.1306  0.6347
 4776TIP3   OH235886   2.093   3.206   8.310  0.5296  0.1629  0.1345
 4776TIP3    H135887   2.073   3.113   8.311 -1.5904  0.5809  0.1736
 4776TIP3    H235888   2.171   3.213   8.255  1.6610 -1.7725  1.3864
 4777TIP3   OH235889   6.436   4.877   7.912  0.5012  0.0672 -0.8840
 4777TIP3    H135890   6.415   4.787   7.935 -0.3050  0.5966  0.5529
 4777TIP3    H235891   6.427   4.880   7.816 -1.0323 -0.9645 -0.7984
 4778TIP3   OH235892   1.604   3.362   8.225 -0.2836 -0.0238  0.2486
 4778TIP3    H135893   1.570   3.440   8.270  0.4367 -0.0189  0.8118
 4778TIP3    H235894   1.598   3.293   8.291  1.6478  0.1910  0.7074
 4779TIP3   OH235895   1.795   0.730   7.455 -0.0361  0.0802 -0.6054
 4779TIP3    H135896   1.816   0.823   7.464  2.3069 -0.4959  0.6780
 4779TIP3    H235897   1.749   0.708   7.536 -1.1039  0.2284 -1.1626
 4780TIP3   OH235898   5.052   2.678   6.609 -0.1855  0.5822  0.2239
 4780TIP3    H135899   5.136   2.723   6.608 -0.2929  0.7926  0.4767
 4780TIP3    H235900   5.055   2.623   6.687  0.4816 -0.8957 -0.8017
 4781TIP3   OH235901   5.887   5.319   8.279 -0.2534 -0.7139  0.1195
 4781TIP3    H135902   5.909   5.253   8.213  0.4331 -0.0270 -0.3470
 4781TIP3    H235903   5.971   5.354   8.307 -0.6082 -0.1092  0.4399
 4782TIP3   OH235904   1.235   4.097   6.522 -0.1363  0.1742 -0.4014
 4782TIP3    H135905   1.288   4.150   6.463 -0.1097  0.0135 -0.5232
 4782TIP3    H235906   1.181   4.044   6.464  0.3137 -0.4137 -0.2850
 4783TIP3   OH235907   4.601   5.533   1.540  0.0840 -0.8140  0.4106
 4783TIP3    H135908   4.522   5.529   1.486 -0.6482 -0.6611  1.4316
 4783TIP3    H235909   4.669   5.490   1.488 -0.5038 -0.3583 -0.7632
 4784TIP3   OH235910   5.645   3.617   6.162  0.4913  0.0251  0.4457
 4784TIP3    H135911   5.597   3.687   6.205 -2.3618 -1.3083 -0.3627
 4784TIP3    H235912   5.602   3.537   6.191  0.2711 -1.0831 -2.5697
 4785TIP3   OH235913   6.241   6.721   7.754 -0.6332  0.5134 -0.3621
 4785TIP3    H135914   6.146   6.728   7.758 -0.5465  1.4053  0.7105
 4785TIP3    H235915   6.262   6.726   7.660 -1.5281  2.2127 -0.5045
 4786TIP3   OH235916   1.032   2.022   2.200  0.1845  0.2380  0.8208
 4786TIP3    H135917   1.017   2.048   2.109  1.1072 -0.8205  0.3493
 4786TIP3    H235918   0.944   2.014   2.237 -0.3542 -1.9539 -0.7381
 4787TIP3   OH235919   3.016   2.188   6.611 -0.4398 -0.2304 -0.0633
 4787TIP3    H135920   3.055   2.129   6.547  0.0413 -0.8588  0.7867
 4787TIP3    H235921   3.052   2.274   6.590 -0.4280 -0.3992 -0.7394
 4788TIP3   OH235922   3.210   0.703   1.138 -0.1647 -0.0345  0.6623
 4788TIP3    H135923   3.132   0.659   1.103 -1.6871  1.7145  1.6355
 4788TIP3    H235924   3.207   0.686   1.232 -0.0707  1.0240  0.8723
 4789TIP3   OH235925   6.705   0.265   1.393  0.0782 -0.1206  0.2102
 4789TIP3    H135926   6.644   0.231   1.459 -1.4686  1.5226 -0.2923
 4789TIP3    H235927   6.792   0.245   1.428 -0.6903  0.4486  2.6433
 4790TIP3   OH235928   2.254   2.947   7.052  0.0995  0.9633 -0.2204
 4790TIP3    H135929   2.322   3.010   7.030  0.8238 -0.1073 -1.1778
 4790TIP3    H235930   2.254   2.943   7.147  0.9728  1.4065 -0.1967
 4791TIP3   OH235931   5.435   2.380   7.941 -0.1949  0.1682 -0.4466
 4791TIP3    H135932   5.369   2.315   7.965 -0.5209  0.7598  0.2899
 4791TIP3    H235933   5.385   2.460   7.924  0.2541  0.3897 -0.7521
 4792TIP3   OH235934   4.749   6.092   8.095  0.0964  0.3723 -0.7184
 4792TIP3    H135935   4.670   6.143   8.081  0.6862  0.9919 -1.9530
 4792TIP3    H235936   4.820   6.148   8.063  0.8729 -0.7687 -1.0591
 4793TIP3   OH235937   0.326   3.732   0.570 -0.3941  0.0776  0.4263
 4793TIP3    H135938   0.385   3.658   0.553 -0.3765  0.3529 -0.8734
 4793TIP3    H235939   0.343   3.757   0.661  0.1398 -1.0364  0.6463
 4794TIP3   OH235940   0.272   0.843   0.146  0.6017 -0.5405  0.2322
 4794TIP3    H135941   0.358   0.808   0.169  0.8389  0.2144  0.5293
 4794TIP3    H235942   0.218   0.825   0.223  0.5462 -0.8387  0.1240
 4795TIP3   OH235943   5.725   2.181   0.468 -0.3684  0.6065 -0.0129
 4795TIP3    H135944   5.788   2.110   0.457 -0.2541  0.7813 -0.5200
 4795TIP3    H235945   5.668   2.175   0.391 -0.2184  1.1946 -0.1765
 4796TIP3   OH235946   6.064   2.620   8.130 -0.0124  0.0611 -0.3077
 4796TIP3    H135947   6.123   2.575   8.191  0.3995  0.2169 -0.5894
 4796TIP3    H235948   6.009   2.550   8.095 -1.1393  0.1387  1.2149
 4797TIP3   OH235949   0.141   1.682   1.141 -0.3691  0.6496 -0.1872
 4797TIP3    H135950   0.210   1.748   1.138 -0.3106  0.6841  1.3594
 4797TIP3    H235951   0.187   1.598   1.136 -0.3003  0.6947 -0.3028
 4798TIP3   OH235952   6.303   3.340   8.219 -0.4594 -0.8384  0.2727
 4798TIP3    H135953   6.251   3.419   8.230 -0.8954 -0.8811 -1.1877
 4798TIP3    H235954   6.358   3.358   8.143 -1.6218 -2.4278 -1.0334
 4799TIP3   OH235955   4.969   0.883   0.213 -0.1736 -0.4406 -0.3417
 4799TIP3    H135956   4.990   0.832   0.135  2.9255 -0.7223  0.5586
 4799TIP3    H235957   5.027   0.959   0.208 -0.4567 -0.0881  1.3287
 4800TIP3   OH235958   3.759   5.438   6.294 -0.7436  0.8150 -0.3950
 4800TIP3    H135959   3.765   5.529   6.265 -0.9385  0.7442 -0.6590
 4800TIP3    H235960   3.807   5.389   6.227 -1.3617  0.6280 -0.7042
 4801TIP3   OH235961   4.818   2.865   7.188  0.0752  0.5322  0.4114
 4801TIP3    H135962   4.754   2.927   7.152  0.1864 -0.7736 -2.2516
 4801TIP3    H235963   4.896   2.918   7.206 -0.7079  1.5952  0.7319
 4802TIP3   OH235964   3.343   3.980   1.038 -0.4290  0.1381 -0.3693
 4802TIP3    H135965   3.426   3.935   1.050 -0.4902  0.3193  0.8495
 4802TIP3    H235966   3.287   3.915   0.995 -0.7241 -1.2454  1.9407
 4803TIP3   OH235967   5.615   5.482   0.455 -0.2435 -0.0938  0.3161
 4803TIP3    H135968   5.610   5.564   0.406 -0.4085 -0.2607  0.0469
 4803TIP3    H235969   5.705   5.478   0.487  0.5704 -1.0252 -1.8464
 4804TIP3   OH235970   4.225   6.045   7.142 -0.1743 -0.3269 -0.1858
 4804TIP3    H135971   4.136   6.022   7.116  0.0939  0.3323 -1.8069
 4804TIP3    H235972   4.273   5.961   7.140 -0.5341 -0.5325 -0.2700
 4805TIP3   OH235973   3.542   3.084   1.480 -0.4063 -0.0249  0.2372
 4805TIP3    H135974   3.520   3.099   1.388  0.0657 -1.5748 -0.1638
 4805TIP3    H235975   3.628   3.124   1.491  0.8055 -2.1658 -0.7926
 4806TIP3   OH235976   5.901   1.749   7.556  0.0161  0.3538 -0.1750
 4806TIP3    H135977   5.883   1.813   7.625  1.1045 -0.2316  0.7045
 4806TIP3    H235978   5.964   1.689   7.596 -1.0128 -1.3132 -0.9434
 4807TIP3   OH235979   1.019   2.377   8.404  0.1937  0.2947  0.8013
 4807TIP3    H135980   0.985   2.331   8.480  0.3219 -3.2385 -1.0807
 4807TIP3    H235981   0.944   2.386   8.346  0.4400  1.4838  0.6334
 4808TIP3   OH235982   1.608   0.689   1.042 -0.5477  0.2107  0.8256
 4808TIP3    H135983   1.598   0.666   1.134  1.7593 -2.2728  0.5841
 4808TIP3    H235984   1.694   0.655   1.018 -2.1552 -1.8128 -2.9344
 4809TIP3   OH235985   3.051   2.645   1.695 -0.2099 -0.1716  0.1465
 4809TIP3    H135986   3.133   2.694   1.689  0.1567 -0.8675 -0.7766
 4809TIP3    H235987   2.993   2.701   1.747  1.0844 -0.0219  1.4681
 4810TIP3   OH235988   5.775   4.429   2.445 -1.0371 -0.1280 -0.1717
 4810TIP3    H135989   5.689   4.395   2.420 -1.4551  0.8134 -0.0447
 4810TIP3    H235990   5.787   4.398   2.535 -1.3217 -0.1122 -0.1256
 4811TIP3   OH235991   2.279   2.387   0.112 -0.3318  0.5802  0.5428
 4811TIP3    H135992   2.312   2.388   0.202 -0.8793 -1.5518  0.8198
 4811TIP3    H235993   2.355   2.364   0.059 -0.4676 -0.2563  0.7071
 4812TIP3   OH235994   6.129   4.066   1.772  0.2510 -0.2159  0.4923
 4812TIP3    H135995   6.074   3.989   1.753  0.5877 -0.5640  0.9212
 4812TIP3    H235996   6.080   4.139   1.734 -0.0356 -0.6495  0.0073
 4813TIP3   OH235997   0.593   0.203   0.165 -0.1034  0.8762 -0.1568
 4813TIP3    H135998   0.546   0.286   0.174  0.1480  1.2879 -2.1107
 4813TIP3    H235999   0.537   0.138   0.207 -0.7524  1.8729  0.5620
 4814TIP3   OH236000   0.252   0.386   2.020  0.4509 -0.1515 -0.3268
 4814TIP3    H136001   0.295   0.332   1.953 -0.9458  0.9931 -2.2574
 4814TIP3    H236002   0.196   0.325   2.067  0.5911 -0.8005 -0.9717
 4815TIP3   OH236003   4.005   5.374   0.009  0.3205 -0.1506 -0.5855
 4815TIP3    H136004   3.968   5.407   0.091  0.1044  0.1093 -0.7865
 4815TIP3    H236005   4.032   5.284   0.029  0.8998  0.1354 -0.0421
 4816TIP3   OH236006   3.998   6.318   1.943 -0.3221 -0.4941 -0.1657
 4816TIP3    H136007   4.087   6.335   1.911 -0.2191  1.6132  1.1030
 4816TIP3    H236008   4.007   6.316   2.038 -1.4441 -1.6793 -0.0521
 4817TIP3   OH236009   1.022   6.103   1.671  0.0087 -0.6768  0.1691
 4817TIP3    H136010   1.095   6.163   1.655 -0.5221 -0.1726 -0.4051
 4817TIP3    H236011   1.015   6.100   1.766  1.1436 -1.1861  0.2499
 4818TIP3   OH236012   3.219   4.070   8.053 -0.0631 -0.1165  0.1424
 4818TIP3    H136013   3.271   4.141   8.015  1.2850 -0.7201  0.7610
 4818TIP3    H236014   3.209   4.007   7.982 -0.6146  0.3409 -0.1927
 4819TIP3   OH236015   4.956   4.004   1.996 -0.5826  0.4793 -0.1140
 4819TIP3    H136016   4.936   4.095   2.019 -1.6222  0.0081  0.9086
 4819TIP3    H236017   4.877   3.972   1.953 -0.8561 -0.4182  1.0063
 4820TIP3   OH236018   6.680   5.405   1.117  0.3297  0.6249 -0.0555
 4820TIP3    H136019   6.683   5.323   1.166  1.6107 -0.0387 -1.1887
 4820TIP3    H236020   6.614   5.457   1.162  0.8660 -0.2661  1.8733
 4821TIP3   OH236021   4.388   0.519   1.175  0.1116  0.0272  0.9250
 4821TIP3    H136022   4.351   0.554   1.256  0.6799  0.4415  1.0179
 4821TIP3    H236023   4.440   0.591   1.139 -0.9969  0.2123 -0.3872
 4822TIP3   OH236024   6.525   6.728   2.500  0.4815 -0.1431  0.0688
 4822TIP3    H136025   6.598   6.789   2.494 -0.0481  0.5496  0.6525
 4822TIP3    H236026   6.447   6.781   2.485  0.1351 -1.1009 -2.0078
 4823TIP3   OH236027   5.977   5.747   1.338  0.2143  0.0477 -0.0019
 4823TIP3    H136028   6.055   5.692   1.332 -0.3277 -0.7715  0.2857
 4823TIP3    H236029   6.002   5.818   1.397 -0.1037 -1.7574  2.4692
 4824TIP3   OH236030   4.347   4.629   7.446 -0.0931 -0.3423  0.3218
 4824TIP3    H136031   4.412   4.688   7.408 -0.2311  0.6054  1.5009
 4824TIP3    H236032   4.395   4.577   7.509 -0.2887 -0.3417  0.4738
 4825TIP3   OH236033   0.584   6.000   7.486 -0.1744  0.3340  0.1285
 4825TIP3    H136034   0.564   5.912   7.456 -1.3128  0.1695  1.2782
 4825TIP3    H236035   0.599   6.050   7.406  1.7621 -1.1565 -0.5059
 4826TIP3   OH236036   3.213   1.986   7.669  0.3563 -0.0237 -0.1274
 4826TIP3    H136037   3.288   2.041   7.695  1.4640 -1.5980  0.1353
 4826TIP3    H236038   3.167   1.970   7.751 -1.4790  2.5350 -0.5326
 4827TIP3   OH236039   3.036   4.263   1.457 -0.2579 -0.4364 -0.4875
 4827TIP3    H136040   3.066   4.185   1.411  0.1672 -1.1661  0.9633
 4827TIP3    H236041   3.073   4.255   1.545 -0.3300  1.3310 -0.2504
 4828TIP3   OH236042   3.575   1.464   0.313 -0.0795 -0.1525 -0.2027
 4828TIP3    H136043   3.542   1.473   0.402 -2.6245  2.4023 -1.2690
 4828TIP3    H236044   3.665   1.496   0.318 -0.7128  1.5468  1.1629
 4829TIP3   OH236045   2.863   0.547   1.775 -0.6431 -0.2177  0.3966
 4829TIP3    H136046   2.893   0.458   1.757 -1.3449 -0.2686 -0.6124
 4829TIP3    H236047   2.805   0.568   1.702 -0.4180  1.1059  0.5718
 4830TIP3   OH236048   5.996   4.600   7.849  0.3131  0.2701 -0.4919
 4830TIP3    H136049   5.932   4.531   7.869 -1.4519  1.3700 -1.9239
 4830TIP3    H236050   5.999   4.603   7.754  0.4747  2.0118 -0.4761
 4831TIP3   OH236051   6.909   2.625   8.293  0.4399  0.0509 -0.3064
 4831TIP3    H136052   6.833   2.605   8.238  0.8097 -1.3019 -0.3597
 4831TIP3    H236053   6.883   2.595   8.380 -0.1770  2.2573  0.3229
 4832TIP3   OH236054   4.806   2.477   7.695  0.2269  0.0642  0.1713
 4832TIP3    H136055   4.853   2.487   7.777  1.3296 -1.0138 -0.2983
 4832TIP3    H236056   4.871   2.495   7.627  0.0058 -1.4417 -0.4958
 4833TIP3   OH236057   3.410   0.815   0.164  0.2681  0.4780 -0.4018
 4833TIP3    H136058   3.467   0.797   0.239 -0.5805  0.0962  0.1640
 4833TIP3    H236059   3.373   0.901   0.182  1.2161  1.0493 -1.1281
 4834TIP3   OH236060   3.009   1.131   7.575  0.2901 -0.0421  0.1647
 4834TIP3    H136061   3.033   1.164   7.488  0.4375  0.7783  0.5071
 4834TIP3    H236062   2.916   1.153   7.584 -0.0273 -1.1706 -0.2435
 4835TIP3   OH236063   1.964   4.791   1.416 -0.2099 -0.0845  0.7056
 4835TIP3    H136064   1.874   4.761   1.404 -0.6624  1.8110 -1.3924
 4835TIP3    H236065   2.006   4.773   1.331  1.4672 -1.0125  1.6675
 4836TIP3   OH236066   1.625   4.149   8.217  0.2109 -0.8335 -0.6477
 4836TIP3    H136067   1.675   4.220   8.177  1.2904 -0.5575  1.0863
 4836TIP3    H236068   1.592   4.098   8.143  1.9571 -0.2561 -1.8864
 4837TIP3   OH236069   1.760   2.015   7.351  0.0894  0.5718  0.0380
 4837TIP3    H136070   1.812   1.995   7.429 -0.6110  0.3076  0.4428
 4837TIP3    H236071   1.699   2.083   7.380  0.2266  0.9106 -0.4472
 4838TIP3   OH236072   2.686   3.707   7.849 -0.3574 -0.5114  0.3589
 4838TIP3    H136073   2.759   3.648   7.829 -1.3876 -1.2252 -1.5404
 4838TIP3    H236074   2.701   3.733   7.940  1.4778 -1.7376  0.4716
 4839TIP3   OH236075   4.121   4.560   1.702 -0.0149  0.0762 -0.0820
 4839TIP3    H136076   4.192   4.497   1.700  0.2269  0.2819  1.3860
 4839TIP3    H236077   4.131   4.606   1.785 -1.4249  0.6120 -0.1737
 4840TIP3   OH236078   4.689   0.574   0.370  0.0260 -0.0958 -0.4346
 4840TIP3    H136079   4.640   0.578   0.288  0.2337  0.2982 -0.5405
 4840TIP3    H236080   4.626   0.602   0.437  0.4506  1.7118 -0.7294
 4841TIP3   OH236081   1.434   0.972   0.585  0.0957  0.1287 -0.7297
 4841TIP3    H136082   1.500   0.965   0.654 -0.2924 -1.2856 -0.4699
 4841TIP3    H236083   1.474   0.932   0.508  0.6386  1.9650 -1.4543
 4842TIP3   OH236084   3.077   4.356   0.115 -0.6031 -0.1300 -0.3605
 4842TIP3    H136085   2.984   4.377   0.128 -0.4495 -0.1996  0.9485
 4842TIP3    H236086   3.078   4.262   0.095 -0.8324 -0.0853 -0.5852
 4843TIP3   OH236087   0.931   1.720   1.603  0.4100  0.4093 -0.4065
 4843TIP3    H136088   0.958   1.704   1.513 -0.4521 -0.8479 -0.4720
 4843TIP3    H236089   0.958   1.810   1.621  0.6132  0.6712 -1.9050
 4844TIP3   OH236090   0.010   5.687   0.469  0.1173  0.2332  0.2108
 4844TIP3    H136091   0.099   5.722   0.471 -0.4377  1.8146 -0.7200
 4844TIP3    H236092  -0.004   5.664   0.377  0.0903 -1.5165  0.6228
 4845TIP3   OH236093   4.253   3.617   8.118  0.0686 -0.3583  0.4235
 4845TIP3    H136094   4.263   3.522   8.113  0.9095 -0.3662  1.6909
 4845TIP3    H236095   4.321   3.652   8.060  0.7386 -0.5380  1.0781
 4846TIP3   OH236096   1.470   4.509   1.473 -0.5509  0.5300  0.3407
 4846TIP3    H136097   1.452   4.552   1.389 -2.0309  0.2595  0.4950
 4846TIP3    H236098   1.465   4.416   1.453 -2.0597  0.4638  0.9360
 4847TIP3   OH236099   1.080   6.545   6.483  0.1994 -0.0474 -0.3861
 4847TIP3    H136100   0.985   6.553   6.493  0.5940  2.8823  3.3576
 4847TIP3    H236101   1.103   6.609   6.415 -0.3382  1.1006  0.4863
 4848TIP3   OH236102   4.196   3.711   0.014  0.0632  0.1620 -0.3858
 4848TIP3    H136103   4.290   3.706   0.001  0.4401 -2.7922  2.2499
 4848TIP3    H236104   4.184   3.775   0.084  0.3134 -0.5594  0.3332
 4849TIP3   OH236105   4.272   4.950   8.006 -0.3731  0.5130  0.1305
 4849TIP3    H136106   4.309   5.004   7.936 -0.5190 -1.2876 -1.3819
 4849TIP3    H236107   4.337   4.955   8.076  0.5212  1.0887 -0.7159
 4850TIP3   OH236108   3.242   1.381   7.940 -0.0601  0.1463  0.4307
 4850TIP3    H136109   3.235   1.382   7.844 -0.6916 -0.2009  0.4618
 4850TIP3    H236110   3.321   1.431   7.959 -0.5373  1.1775 -0.2238
 4851TIP3   OH236111   2.409   2.245   7.499 -0.4030 -0.4157  0.9963
 4851TIP3    H136112   2.469   2.189   7.449 -0.1490  1.0418 -0.4184
 4851TIP3    H236113   2.464   2.318   7.528 -1.1333  0.1076  1.0848
 4852TIP3   OH236114   2.612   0.394   7.309  0.3034  0.0512 -0.1116
 4852TIP3    H136115   2.685   0.338   7.335 -0.0192  0.1403  1.0578
 4852TIP3    H236116   2.653   0.473   7.273  0.7880  0.1775  0.7043
 4853TIP3   OH236117   6.834   5.178   8.345 -0.2924 -0.1013 -0.3979
 4853TIP3    H136118   6.890   5.148   8.417 -1.4483  0.9362  0.9847
 4853TIP3    H236119   6.894   5.190   8.272  1.2298  0.4725  0.8831
 4854TIP3   OH236120   4.365   6.052   7.869  0.6996 -0.7549  0.3025
 4854TIP3    H136121   4.443   6.047   7.814  1.0311 -1.2741  0.8152
 4854TIP3    H236122   4.399   6.053   7.959  0.1862  0.4282  0.5064
 4855TIP3   OH236123   3.840   5.629   8.099  0.3931  0.9001  0.1427
 4855TIP3    H136124   3.819   5.536   8.092 -0.9999  1.2178 -0.2804
 4855TIP3    H236125   3.887   5.649   8.018 -0.1236  0.7613 -0.1933
 4856TIP3   OH236126   5.082   4.968   6.174 -0.0687  1.1125  0.2035
 4856TIP3    H136127   5.176   4.951   6.177 -0.0558  1.2516  2.1981
 4856TIP3    H236128   5.075   5.064   6.174 -0.1922  1.1084  0.6800
 4857TIP3   OH236129   3.802   2.978   7.254  0.2636 -0.8705  0.0684
 4857TIP3    H136130   3.849   2.905   7.294 -0.3575 -0.2609  2.0386
 4857TIP3    H236131   3.871   3.037   7.224  0.7625 -1.5438 -0.1346
 4858TIP3   OH236132   4.261   2.483   7.622  0.4432  0.0690 -0.2664
 4858TIP3    H136133   4.240   2.391   7.611  0.6771 -0.0639  0.3395
 4858TIP3    H236134   4.242   2.502   7.714  0.9320  0.4767 -0.2401
 4859TIP3   OH236135   1.009   0.300   2.497 -0.5090  0.4718  0.0335
 4859TIP3    H136136   1.068   0.320   2.569  0.1920 -2.4787  0.4063
 4859TIP3    H236137   0.945   0.239   2.533 -2.6217  2.0237 -0.8873
 4860TIP3   OH236138   2.291   4.365   7.704 -0.3336  0.3145 -0.0866
 4860TIP3    H136139   2.324   4.400   7.621  0.8779  2.5921  1.2670
 4860TIP3    H236140   2.288   4.270   7.690  4.7395  0.0141 -1.1792
 4861TIP3   OH236141   2.705   4.956   1.439  0.3922 -0.0997 -0.1633
 4861TIP3    H136142   2.787   4.978   1.483  0.4811  1.9254 -1.2037
 4861TIP3    H236143   2.640   4.956   1.509  0.8904  0.8339  0.3305
 4862TIP3   OH236144   6.834   6.638   7.496  0.2904 -0.4859  0.2092
 4862TIP3    H136145   6.813   6.722   7.454  0.8557 -0.5187 -0.1388
 4862TIP3    H236146   6.766   6.628   7.563 -0.7481 -0.5300 -0.8233
 4863TIP3   OH236147   2.055   0.537   0.289 -0.0398  0.7843  0.4691
 4863TIP3    H136148   1.966   0.514   0.317 -0.3395  1.6286  0.2405
 4863TIP3    H236149   2.043   0.586   0.208  0.6100  1.2375  0.6391
 4864TIP3   OH236150   1.641   6.385   6.566 -0.0638 -0.5434  0.5968
 4864TIP3    H136151   1.557   6.341   6.580 -0.0029 -0.3997  1.5076
 4864TIP3    H236152   1.706   6.319   6.589  0.0411 -0.2031  1.3006
 4865TIP3   OH236153   3.120   2.426   0.294 -0.3483 -0.0845 -0.3174
 4865TIP3    H136154   3.134   2.348   0.239 -0.9037  0.1801 -0.8521
 4865TIP3    H236155   3.202   2.437   0.341  0.4492  0.1608 -1.7205
 4866TIP3   OH236156   3.918   2.380   6.792 -0.1369 -0.0246  0.0225
 4866TIP3    H136157   3.979   2.307   6.806 -0.3294 -0.1546  0.1885
 4866TIP3    H236158   3.974   2.452   6.760  0.1519 -0.0487  0.4622
 4867TIP3   OH236159   6.697   5.119   0.382  0.1254 -0.1710  0.2192
 4867TIP3    H136160   6.614   5.127   0.335  0.8181  1.4326 -0.7912
 4867TIP3    H236161   6.757   5.081   0.319  0.8141  1.0942  0.0909
 4868TIP3   OH236162   5.531   6.021   2.635 -0.2691 -0.0746 -0.3390
 4868TIP3    H136163   5.439   5.996   2.634  0.0296 -1.2420 -1.3025
 4868TIP3    H236164   5.553   6.030   2.728 -0.8371 -1.8576  0.0048
 4869TIP3   OH236165   0.131   2.788   0.348  0.3574  0.1245 -0.2334
 4869TIP3    H136166   0.093   2.718   0.401 -0.2178 -0.1734 -1.0258
 4869TIP3    H236167   0.078   2.865   0.368 -0.7901 -0.3250 -1.4489
 4870TIP3   OH236168   6.646   1.882   7.994 -0.3095 -0.3969 -0.2887
 4870TIP3    H136169   6.692   1.816   7.942  0.9434  1.5283 -1.7930
 4870TIP3    H236170   6.636   1.956   7.934 -1.9479  0.6723  1.2242
 4871TIP3   OH236171   0.106   5.924   1.337  0.3662  0.5477  0.2118
 4871TIP3    H136172   0.158   5.908   1.258  1.6576  0.3915  1.0569
 4871TIP3    H236173   0.018   5.942   1.304  0.8623  0.4791 -1.2591
 4872TIP3   OH236174   3.909   3.906   6.657 -0.5503  0.3904 -0.2908
 4872TIP3    H136175   3.988   3.957   6.675 -1.2901  1.2064  0.7669
 4872TIP3    H236176   3.909   3.894   6.562  0.7439  0.5182 -0.3292
 4873TIP3   OH236177   4.687   2.003   6.165 -0.0831  0.2523 -0.0772
 4873TIP3    H136178   4.696   1.909   6.183  0.1214  0.2173 -0.3558
 4873TIP3    H236179   4.601   2.011   6.124 -0.6288  0.3563  1.0455
 4874TIP3   OH236180   6.507   3.375   1.842  0.0677 -0.1122  0.1634
 4874TIP3    H136181   6.527   3.310   1.909 -0.4523  0.0765  0.5062
 4874TIP3    H236182   6.558   3.347   1.765  0.0551 -0.7702  0.3889
 4875TIP3   OH236183   4.004   4.302   0.469 -0.3538 -0.1403 -0.0391
 4875TIP3    H136184   3.968   4.219   0.437 -1.0412 -0.3099  1.1220
 4875TIP3    H236185   3.980   4.305   0.562  1.1530  0.5593  0.3601
 4876TIP3   OH236186   5.355   6.422   0.014  0.1155  0.1900  0.0966
 4876TIP3    H136187   5.438   6.403  -0.029 -0.5831 -0.4475 -1.0138
 4876TIP3    H236188   5.376   6.424   0.107  1.1434 -1.2072 -0.0726
 4877TIP3   OH236189   5.543   3.784   7.948  0.3711 -0.4654 -0.1912
 4877TIP3    H136190   5.588   3.714   7.995  0.1647 -0.1089  0.5630
 4877TIP3    H236191   5.464   3.800   8.000 -1.2347 -1.8073 -2.0213
 4878TIP3   OH236192   0.990   3.083   7.802  0.1962  0.3170  0.1593
 4878TIP3    H136193   0.956   3.016   7.860  0.6344  0.4695  0.5982
 4878TIP3    H236194   0.999   3.161   7.858 -3.1118  1.6822 -0.9354
 4879TIP3   OH236195   1.794   2.758   7.458  0.1526  0.3111  0.4092
 4879TIP3    H136196   1.812   2.827   7.521 -0.6596  1.7907 -0.9203
 4879TIP3    H236197   1.718   2.712   7.494  0.0745  0.7490  0.8134
 4880TIP3   OH236198   1.782   2.501   0.191  0.2979 -0.4331 -0.8742
 4880TIP3    H136199   1.817   2.448   0.262  0.8252  0.9193 -0.0893
 4880TIP3    H236200   1.829   2.584   0.197 -2.1196  1.0083 -0.5741
 4881TIP3   OH236201   4.637   0.113   7.527 -0.7849  0.0841 -0.1046
 4881TIP3    H136202   4.654   0.021   7.508 -0.8522  0.2916 -1.1948
 4881TIP3    H236203   4.719   0.145   7.565 -1.4886 -0.9837  2.5689
 4882TIP3   OH236204   6.910   3.770   0.258  0.0463  0.1486 -0.0251
 4882TIP3    H136205   6.923   3.711   0.184  0.3033  1.3069 -0.9311
 4882TIP3    H236206   6.923   3.858   0.222  0.7115  0.7177  1.5104
 4883TIP3   OH236207   1.735   4.586   6.273  0.5016 -0.4040 -0.8052
 4883TIP3    H136208   1.736   4.669   6.321  0.5930 -0.9416  0.1522
 4883TIP3    H236209   1.667   4.597   6.207  0.9850  0.6823 -1.1506
 4884TIP3   OH236210   3.875   5.310   7.454 -0.3795 -0.4231 -0.3604
 4884TIP3    H136211   3.810   5.330   7.386  0.0129 -0.7087 -0.8245
 4884TIP3    H236212   3.954   5.356   7.427 -0.3112 -0.2751  0.0775
 4885TIP3   OH236213   4.375   2.692   0.048 -0.2621  0.1659  0.1767
 4885TIP3    H136214   4.303   2.741   0.088 -0.5392  0.9431 -1.2058
 4885TIP3    H236215   4.427   2.661   0.122 -1.4845  0.4008  1.1706
 4886TIP3   OH236216   1.859   5.398   1.153 -0.5264 -0.0063 -0.4569
 4886TIP3    H136217   1.924   5.428   1.090 -0.5888  0.9290 -0.0988
 4886TIP3    H236218   1.909   5.368   1.228 -0.4984  1.4284  0.1287
 4887TIP3   OH236219   3.792   3.230   8.351  0.1021 -0.2696 -0.0069
 4887TIP3    H136220   3.835   3.281   8.419 -1.5929  0.1836  0.7679
 4887TIP3    H236221   3.809   3.139   8.375 -0.3351 -0.1131  0.9460
 4888TIP3   OH236222   4.096   2.738   6.419 -0.7099  0.2665  0.1677
 4888TIP3    H136223   4.180   2.692   6.411 -0.1771  0.9168  1.6159
 4888TIP3    H236224   4.092   2.793   6.340 -0.5178 -0.8874 -0.6762
 4889TIP3   OH236225   6.013   3.072   1.484 -0.5965  0.3149  0.0118
 4889TIP3    H136226   5.958   3.057   1.407  0.0125  2.6405 -0.9791
 4889TIP3    H236227   5.953   3.102   1.552 -0.8635  0.5048 -0.3082
 4890TIP3   OH236228   5.308   2.073   1.041 -0.0279  0.6372 -0.3288
 4890TIP3    H136229   5.331   2.027   1.122  0.3649  0.8530 -0.3116
 4890TIP3    H236230   5.285   2.162   1.070  1.3819  1.1055 -0.5643
 4891TIP3   OH236231   6.822   0.229   1.940  0.6783 -0.1436 -0.5860
 4891TIP3    H136232   6.736   0.196   1.966  0.6482 -0.6406 -1.2926
 4891TIP3    H236233   6.876   0.221   2.018  0.1076  0.0843 -0.1632
 4892TIP3   OH236234   1.046   1.499   1.146  0.0074 -0.1334 -0.6006
 4892TIP3    H136235   1.005   1.570   1.096  2.1113  0.5374 -1.4921
 4892TIP3    H236236   1.139   1.520   1.145  0.3320 -1.0022  2.2291
 4893TIP3   OH236237   5.006   5.126   7.999  0.4636  0.1360  0.2754
 4893TIP3    H136238   5.066   5.187   7.956 -0.1920  0.7029  0.1552
 4893TIP3    H236239   5.018   5.142   8.093 -1.2150  1.9845  0.2430
 4894TIP3   OH236240   5.688   5.361   7.511  0.2560  0.3440  0.2569
 4894TIP3    H136241   5.658   5.271   7.526  0.5332  0.1847 -0.1009
 4894TIP3    H236242   5.729   5.357   7.424 -3.7404  1.7994 -1.9874
 4895TIP3   OH236243   0.985   3.431   8.444 -0.0399 -0.1892  0.1206
 4895TIP3    H136244   1.049   3.487   8.401  1.5181 -1.0471  1.2101
 4895TIP3    H236245   0.994   3.346   8.400 -0.5752 -0.2622  0.1435
 4896TIP3   OH236246   6.191   5.491   6.523 -0.1875 -0.7006 -0.4929
 4896TIP3    H136247   6.227   5.538   6.448  1.4708 -1.6713 -0.3577
 4896TIP3    H236248   6.240   5.524   6.598 -0.4046 -1.2036 -0.1236
 4897TIP3   OH236249   1.042   6.593   1.934  0.2283 -0.0178 -0.0007
 4897TIP3    H136250   0.990   6.573   2.012  0.0456  0.8596  0.1148
 4897TIP3    H236251   1.129   6.615   1.969  0.6694 -1.3947 -0.1863
 4898TIP3   OH236252   1.016   0.491   7.056  0.4696  1.0632  0.0338
 4898TIP3    H136253   0.939   0.460   7.009  1.7172 -2.3782 -0.0005
 4898TIP3    H236254   1.037   0.575   7.015 -2.1134  1.1978 -1.2066
 4899TIP3   OH236255   3.296   3.583   7.664 -0.3583  0.1492 -0.8429
 4899TIP3    H136256   3.354   3.519   7.623  1.4915 -0.7254  2.7540
 4899TIP3    H236257   3.236   3.531   7.717  1.4937  1.1535  2.5574
 4900TIP3   OH236258   2.817   3.661   0.087 -0.2342 -0.5012  1.1172
 4900TIP3    H136259   2.831   3.582   0.139  1.8435 -0.3131  0.9122
 4900TIP3    H236260   2.905   3.695   0.070 -0.7101 -0.6088 -2.5957
 4901TIP3   OH236261   6.197   6.515   0.688 -0.3627 -0.0600 -0.0244
 4901TIP3    H136262   6.162   6.575   0.622  0.8150  0.8377  0.1208
 4901TIP3    H236263   6.201   6.430   0.644 -1.0446  0.1953 -0.5953
 4902TIP3   OH236264   3.017   4.001   1.358 -0.3807 -0.6564  1.1327
 4902TIP3    H136265   3.074   3.924   1.372 -1.5761 -1.8514 -0.2873
 4902TIP3    H236266   2.935   3.978   1.402 -0.2931  0.4613  1.9389
 4903TIP3   OH236267   5.872   3.262   7.665 -0.1087 -0.0987 -0.1812
 4903TIP3    H136268   5.945   3.221   7.710 -1.6723 -1.2505  1.4550
 4903TIP3    H236269   5.908   3.291   7.582  2.1450 -0.7719  0.4965
 4904TIP3   OH236270   2.329   4.729   0.421 -0.0187 -0.4160  0.8600
 4904TIP3    H136271   2.241   4.756   0.396  0.9252  3.0361  0.8052
 4904TIP3    H236272   2.320   4.698   0.512 -1.4616 -1.5814  0.3604
 4905TIP3   OH236273   5.998   4.934   2.398  0.2841 -0.5887 -0.6883
 4905TIP3    H136274   6.073   4.916   2.454  0.4648  0.7028 -0.4959
 4905TIP3    H236275   5.953   4.849   2.391  0.3624 -0.8400  1.2274
 4906TIP3   OH236276   6.763   4.943   0.593  0.5224 -0.7936  0.3474
 4906TIP3    H136277   6.744   5.002   0.520  2.4328 -1.6621 -0.9384
 4906TIP3    H236278   6.811   4.998   0.655  0.5461 -0.5013  0.0779
 4907TIP3   OH236279   4.401   2.356   0.457  0.5835 -0.6424 -0.1109
 4907TIP3    H136280   4.430   2.447   0.465  1.4893 -1.0321  1.4133
 4907TIP3    H236281   4.465   2.315   0.400  0.0585 -0.3048 -0.9710
 4908TIP3   OH236282   3.691   0.618   1.297 -0.0890  0.0560  0.2871
 4908TIP3    H136283   3.647   0.538   1.327 -0.6574 -0.3042 -1.4169
 4908TIP3    H236284   3.631   0.655   1.233  0.7831  1.1500  0.0901
 4909TIP3   OH236285   2.383   2.588   0.837 -0.0861 -0.1702 -0.0441
 4909TIP3    H136286   2.423   2.657   0.784  0.6247 -0.1731  0.4681
 4909TIP3    H236287   2.354   2.523   0.774  0.9184 -0.2603 -0.4308
 4910TIP3   OH236288   6.480   1.164   0.089  0.3834 -0.4454  0.0058
 4910TIP3    H136289   6.548   1.127   0.033  0.3875  0.6032 -0.7180
 4910TIP3    H236290   6.526   1.226   0.145 -0.0952  1.0583 -1.2140
 4911TIP3   OH236291   1.921   1.350   0.346  0.1686  0.1590 -0.2774
 4911TIP3    H136292   1.914   1.356   0.250 -0.9655 -0.3571 -0.2552
 4911TIP3    H236293   1.876   1.428   0.378 -0.8639 -0.4478 -0.1736
 4912TIP3   OH236294   6.700   0.992   0.360  0.1527 -0.0592 -0.2473
 4912TIP3    H136295   6.790   0.967   0.383 -0.0863  0.7085  1.7949
 4912TIP3    H236296   6.710   1.075   0.313  0.5974 -1.0378 -1.9626
 4913TIP3   OH236297   5.913   4.316   0.605  0.0086 -0.5447 -0.4498
 4913TIP3    H136298   5.821   4.292   0.606  0.4143 -2.2395 -1.2065
 4913TIP3    H236299   5.919   4.387   0.541 -0.7706 -0.3542 -0.3192
 4914TIP3   OH236300   1.196   0.692   8.443  0.3632  0.1421 -1.0491
 4914TIP3    H136301   1.242   0.639   8.508 -1.5372  0.1570  0.3940
 4914TIP3    H236302   1.169   0.630   8.376 -2.2754 -0.9462  0.8649
 4915TIP3   OH236303   5.568   1.109   0.179 -0.3073  0.2633  0.0032
 4915TIP3    H136304   5.501   1.075   0.238 -0.5603  0.2674 -0.2822
 4915TIP3    H236305   5.561   1.054   0.101 -0.1175  0.3964 -0.1078
 4916TIP3   OH236306   6.256   0.657   8.114  0.9572  0.0537 -0.0553
 4916TIP3    H136307   6.164   0.648   8.088  0.8088  1.3686 -0.0214
 4916TIP3    H236308   6.304   0.604   8.050  0.3902  1.2834 -1.5587
 4917TIP3   OH236309   5.628   1.641   6.837  0.6974 -0.3682  0.1807
 4917TIP3    H136310   5.722   1.643   6.855  1.2658 -0.5413 -2.4254
 4917TIP3    H236311   5.620   1.672   6.747 -1.3889 -3.7094 -0.9335
 4918TIP3   OH236312   6.679   3.687   0.914  0.1547 -0.0361  0.4362
 4918TIP3    H136313   6.721   3.770   0.892  0.8091 -0.8348 -1.5758
 4918TIP3    H236314   6.725   3.622   0.862 -1.8998 -1.3408  0.1146
 4919TIP3   OH236315   2.792   3.429   8.205  0.0026  0.5690  0.0483
 4919TIP3    H136316   2.856   3.490   8.168  0.0048  0.2000 -0.5641
 4919TIP3    H236317   2.712   3.446   8.156 -0.5577  1.4546  1.2245
 4920TIP3   OH236318   2.771   5.672   0.321 -0.6193  0.0269 -0.2974
 4920TIP3    H136319   2.793   5.742   0.259 -0.9467 -0.7176 -1.2649
 4920TIP3    H236320   2.789   5.710   0.407 -2.9569  2.1255 -0.6322
 4921TIP3   OH236321   3.643   1.598   6.815 -0.4089  0.3436 -0.3547
 4921TIP3    H136322   3.558   1.590   6.857  0.3078 -0.5191  1.0262
 4921TIP3    H236323   3.654   1.692   6.800 -1.5895  0.4627 -0.5503
 4922TIP3   OH236324   0.807   4.132   0.378  0.5710  0.0251  0.0989
 4922TIP3    H136325   0.777   4.204   0.322  1.0758  1.7263  1.8948
 4922TIP3    H236326   0.805   4.055   0.321  0.5052  1.5330 -2.0745
 4923TIP3   OH236327   2.356   4.571   7.870  0.3495 -0.3463  0.1357
 4923TIP3    H136328   2.332   4.507   7.802 -1.4234  0.2999  0.1095
 4923TIP3    H236329   2.362   4.519   7.950 -1.5892 -0.5373  0.2122
 4924TIP3   OH236330   1.286   4.193   8.096 -0.6576  0.0330  0.5274
 4924TIP3    H136331   1.303   4.191   8.190 -1.3437  2.0977  0.7564
 4924TIP3    H236332   1.306   4.283   8.071  0.7236 -0.7939 -1.5756
 4925TIP3   OH236333   4.050   0.053   6.918 -0.1206  0.7550  0.5128
 4925TIP3    H136334   4.116  -0.010   6.888 -0.8977  0.7134 -1.2441
 4925TIP3    H236335   3.993   0.002   6.975  0.2370  0.2979  0.4718
 4926TIP3   OH236336   3.467   5.779   0.159  0.1179 -0.2495  0.4387
 4926TIP3    H136337   3.380   5.784   0.199 -0.2781  2.0686 -0.5626
 4926TIP3    H236338   3.515   5.717   0.214 -2.1996 -1.7547  0.9038
 4927TIP3   OH236339   0.106   2.459   0.001 -0.1324  0.2407  0.2601
 4927TIP3    H136340   0.162   2.397  -0.045 -0.4756 -0.1396  0.3472
 4927TIP3    H236341   0.125   2.444   0.094 -0.5296 -0.0477  0.3007
 4928TIP3   OH236342   5.478   0.275   1.730  0.1706  0.2263 -0.6978
 4928TIP3    H136343   5.441   0.350   1.778  0.2104 -0.3176  0.1955
 4928TIP3    H236344   5.504   0.213   1.798  0.6902 -0.3515 -1.4102
 4929TIP3   OH236345   5.837   0.426   1.831  0.3495  0.0713  0.1427
 4929TIP3    H136346   5.887   0.493   1.877 -0.2274  0.8981 -0.3812
 4929TIP3    H236347   5.902   0.363   1.801  1.2320  1.5977 -1.3321
 4930TIP3   OH236348   3.032   2.152   6.328  0.0348 -0.3992  0.7069
 4930TIP3    H136349   2.974   2.226   6.309  0.5749 -0.0344  0.4695
 4930TIP3    H236350   3.004   2.084   6.267  0.5138  0.1220 -0.1163
 4931TIP3   OH236351   3.427   5.737   2.519 -0.0508 -0.0326 -0.1890
 4931TIP3    H136352   3.380   5.658   2.546 -0.5375  0.4660  0.4520
 4931TIP3    H236353   3.514   5.706   2.494 -0.4795 -0.8753 -0.6993
 4932TIP3   OH236354   5.655   2.505   6.619  0.2391 -0.9018  0.5423
 4932TIP3    H136355   5.619   2.423   6.586 -0.1623 -0.1488 -0.9633
 4932TIP3    H236356   5.652   2.496   6.714 -1.9162 -1.7337  0.4483
 4933TIP3   OH236357   6.281   1.446   7.509  0.0743  0.2991 -0.6725
 4933TIP3    H136358   6.309   1.458   7.600 -2.2004  2.0548 -0.1195
 4933TIP3    H236359   6.362   1.434   7.460  1.3414 -1.2705  1.6213
 4934TIP3   OH236360   5.409   5.452   8.071  0.2341 -0.7096  0.8304
 4934TIP3    H136361   5.429   5.424   7.982  0.7104  0.8354  0.4182
 4934TIP3    H236362   5.493   5.453   8.116  0.1315 -0.5702  1.0236
 4935TIP3   OH236363   4.702   0.657   1.880 -0.1654  0.3202 -0.3832
 4935TIP3    H136364   4.677   0.661   1.788 -1.1498  0.8844 -0.1006
 4935TIP3    H236365   4.797   0.644   1.878  0.3149  3.0919 -1.5128
 4936TIP3   OH236366   2.425   6.827   2.254 -0.0590  0.1386 -0.2748
 4936TIP3    H136367   2.511   6.869   2.250  0.3267 -0.5066  0.7559
 4936TIP3    H236368   2.442   6.735   2.232 -0.8002  0.3538 -1.9096
 4937TIP3   OH236369   2.886   5.944   7.644  0.3392  0.0111 -0.3777
 4937TIP3    H136370   2.819   5.901   7.591 -0.8256  2.2543 -0.8671
 4937TIP3    H236371   2.955   5.879   7.653 -0.6894 -1.4423 -2.2097
 4938TIP3   OH236372   0.818   0.413   6.857 -0.4336 -0.2808  0.7636
 4938TIP3    H136373   0.846   0.322   6.843 -0.7621 -0.6512  2.3491
 4938TIP3    H236374   0.778   0.438   6.774  1.8471 -0.7282 -0.5802
 4939TIP3   OH236375   3.746   5.861   7.052 -0.6051 -0.4979 -0.0377
 4939TIP3    H136376   3.713   5.776   7.080 -0.4551 -0.6071 -0.1942
 4939TIP3    H236377   3.669   5.917   7.050 -0.9608 -0.9997 -1.3522
 4940TIP3   OH236378   2.330   3.090   0.133 -0.5136  0.7240 -0.2349
 4940TIP3    H136379   2.269   3.020   0.112 -2.4363  1.5379  2.1827
 4940TIP3    H236380   2.413   3.045   0.149 -0.6053 -0.5023 -2.6730
 4941TIP3   OH236381   0.578   1.532   6.745 -0.1322 -0.2134  0.4315
 4941TIP3    H136382   0.601   1.525   6.652  0.2762 -0.5093  0.5522
 4941TIP3    H236383   0.539   1.447   6.767 -3.7035  1.0515 -0.3804
 4942TIP3   OH236384   1.445   3.833   1.593  0.0666  0.0789  0.4423
 4942TIP3    H136385   1.452   3.928   1.593 -2.3693  0.3312  0.9718
 4942TIP3    H236386   1.473   3.807   1.681 -1.2071  0.5532  1.0153
 4943TIP3   OH236387   0.865   3.020   6.716  0.2492 -0.1775 -1.2031
 4943TIP3    H136388   0.937   3.009   6.654  0.8938  1.4334 -0.7842
 4943TIP3    H236389   0.786   3.009   6.662  0.7910 -1.4112 -1.7740
 4944TIP3   OH236390   3.768   2.760   0.248  0.2640 -0.6146 -0.2493
 4944TIP3    H136391   3.779   2.759   0.343  2.1480 -1.2244 -0.4158
 4944TIP3    H236392   3.773   2.668   0.222  0.1287 -0.4309 -0.9608
 4945TIP3   OH236393   6.241   3.295   6.727 -0.3248 -0.3257  0.1506
 4945TIP3    H136394   6.317   3.248   6.693 -0.0216  0.6992 -0.6442
 4945TIP3    H236395   6.195   3.231   6.782  1.3951 -0.8204  1.0880
 4946TIP3   OH236396   0.375   6.853   1.649 -0.0784  0.1366 -0.2686
 4946TIP3    H136397   0.328   6.867   1.731 -1.0340 -1.2263 -0.5426
 4946TIP3    H236398   0.309   6.820   1.589  0.6693  0.8641 -1.5175
 4947TIP3   OH236399   5.272   2.194   7.065 -0.2979  0.6639 -0.0404
 4947TIP3    H136400   5.346   2.227   7.014 -0.1444  0.3569 -0.0203
 4947TIP3    H236401   5.312   2.151   7.141 -0.5300  1.2364  0.4166
 4948TIP3   OH236402   4.588   2.022   7.026  0.1813  0.1899  0.3651
 4948TIP3    H136403   4.510   2.074   7.047 -0.6259 -1.5528  1.9194
 4948TIP3    H236404   4.573   1.993   6.936 -0.9571 -0.0981  0.6376
 4949TIP3   OH236405   4.201   0.580   7.176  0.5958 -0.6240 -0.4208
 4949TIP3    H136406   4.131   0.605   7.115 -1.9072 -0.2548  2.4018
 4949TIP3    H236407   4.234   0.663   7.210 -0.9344 -0.8232  1.7128
 4950TIP3   OH236408   2.881   2.793   1.496 -0.1495 -0.4098 -0.2519
 4950TIP3    H136409   2.821   2.719   1.506 -0.7898  0.1513  0.1477
 4950TIP3    H236410   2.844   2.862   1.551 -0.1002  0.5427 -1.3574
 4951TIP3   OH236411   5.886   4.464   7.224  0.0390 -0.4823 -0.0200
 4951TIP3    H136412   5.902   4.384   7.174 -0.6834  0.3276 -1.6397
 4951TIP3    H236413   5.958   4.523   7.201 -0.7084  0.1744 -0.7552
 4952TIP3   OH236414   0.907   3.670   1.211 -0.1067 -0.4405  0.2853
 4952TIP3    H136415   0.859   3.748   1.181 -1.7287 -1.2698  0.6066
 4952TIP3    H236416   0.910   3.613   1.134 -0.9101 -0.9835  0.6458
 4953TIP3   OH236417   4.008   6.602   8.254 -0.6111  0.3445  0.2169
 4953TIP3    H136418   4.043   6.607   8.343  0.2469 -0.1211 -0.0800
 4953TIP3    H236419   4.085   6.586   8.199 -1.1475  0.5016 -0.5955
 4954TIP3   OH236420   3.957   1.903   1.712  0.3691  0.0862  0.0134
 4954TIP3    H136421   4.036   1.937   1.754 -0.3170 -0.8222  2.1591
 4954TIP3    H236422   3.984   1.819   1.674  0.3013 -0.5795  1.3875
 4955TIP3   OH236423   6.762   5.540   7.158 -0.7718 -0.7457 -0.4158
 4955TIP3    H136424   6.783   5.548   7.251  1.3715  0.6352 -0.9518
 4955TIP3    H236425   6.812   5.464   7.129 -2.5394 -2.0657 -0.2324
 4956TIP3   OH236426   2.453   1.607   2.323  0.6129 -0.2877  0.1877
 4956TIP3    H136427   2.494   1.532   2.279  0.1469 -1.3480  1.4942
 4956TIP3    H236428   2.366   1.614   2.284 -0.0724 -1.6789  1.3714
 4957TIP3   OH236429   2.486   2.322   7.001 -0.8839  0.7420  0.8920
 4957TIP3    H136430   2.484   2.410   6.964 -1.2896  0.1451 -0.5900
 4957TIP3    H236431   2.415   2.276   6.955  0.6782 -0.9431  0.0642
 4958TIP3   OH236432   4.167   1.600   1.679  0.1656  0.4530 -0.3930
 4958TIP3    H136433   4.239   1.595   1.616  0.2530 -0.1185 -0.2576
 4958TIP3    H236434   4.088   1.602   1.625  0.1594 -1.4449 -0.5454
 4959TIP3   OH236435   2.834   4.285   7.589  0.2500  0.1015 -0.7788
 4959TIP3    H136436   2.785   4.317   7.514  0.5441 -0.3677 -1.1776
 4959TIP3    H236437   2.886   4.212   7.555  0.4598 -0.0560 -0.1437
 4960TIP3   OH236438   5.837   6.108   0.780  0.6366 -0.7475 -0.2234
 4960TIP3    H136439   5.779   6.047   0.826  0.7586 -0.2673  0.5900
 4960TIP3    H236440   5.866   6.060   0.702  0.7683 -1.7420  0.4276
 4961TIP3   OH236441   4.745   0.019   1.560 -0.0627  0.0573  0.0412
 4961TIP3    H136442   4.724  -0.069   1.529 -0.4997 -0.0892  0.7180
 4961TIP3    H236443   4.727   0.076   1.486  0.7166 -0.4745 -0.5742
 4962TIP3   OH236444   4.737   5.941   6.791 -0.0238 -0.5376 -0.3795
 4962TIP3    H136445   4.772   6.030   6.795  1.0805 -0.9858  0.1413
 4962TIP3    H236446   4.645   5.953   6.765 -0.1881  0.8203  0.7239
 4963TIP3   OH236447   2.849   1.034   0.116 -0.8546 -0.3097  0.3774
 4963TIP3    H136448   2.854   1.111   0.059 -1.0385  0.1968  1.0390
 4963TIP3    H236449   2.861   0.959   0.056 -1.1940  0.2035 -0.3488
 4964TIP3   OH236450   5.159   5.599   8.459 -0.3214  0.2552  0.4583
 4964TIP3    H136451   5.242   5.640   8.482  0.5593 -1.6478  0.8639
 4964TIP3    H236452   5.103   5.614   8.535 -0.4943  1.8007  0.0658
 4965TIP3   OH236453   3.960   1.745   7.622 -0.6872 -0.1507 -0.3205
 4965TIP3    H136454   4.008   1.673   7.581 -1.0083  0.1107 -1.1960
 4965TIP3    H236455   4.023   1.784   7.683  0.1290 -0.0132 -1.2083
 4966TIP3   OH236456   5.339   5.740   0.019 -0.2361  0.4408  0.0878
 4966TIP3    H136457   5.348   5.812  -0.044 -0.7440  0.3653 -0.0790
 4966TIP3    H236458   5.370   5.775   0.102  0.9172  0.3886 -0.3122
 4967TIP3   OH236459   3.522   3.261   0.165  0.5383  0.5530 -0.0368
 4967TIP3    H136460   3.498   3.323   0.234  1.2959  1.4478 -0.5487
 4967TIP3    H236461   3.541   3.179   0.211 -1.2041  0.4660  0.5842
 4968TIP3   OH236462   0.646   3.652   2.137  0.1940 -0.6785 -0.5048
 4968TIP3    H136463   0.645   3.611   2.223  1.4008 -1.5149 -0.8491
 4968TIP3    H236464   0.684   3.738   2.151 -0.2448 -0.5529 -0.0993
 4969TIP3   OH236465   0.086   4.761   0.302  0.6047 -0.4289  0.3175
 4969TIP3    H136466   0.149   4.770   0.374  0.6499  2.1747  0.0459
 4969TIP3    H236467   0.141   4.749   0.224  0.5882 -2.2180  0.5536
 4970TIP3   OH236468   6.696   1.670   1.202  0.1175  0.2733  0.2148
 4970TIP3    H136469   6.707   1.633   1.290  1.7239 -1.2476 -0.5601
 4970TIP3    H236470   6.759   1.742   1.199  1.0723 -0.5419 -0.0938
 4971TIP3   OH236471   1.197   3.077   1.069  0.2665  0.0860 -0.5415
 4971TIP3    H136472   1.114   3.031   1.081  0.1593  0.3357 -0.3057
 4971TIP3    H236473   1.209   3.081   0.975 -0.0949  0.2340 -0.5815
 4972TIP3   OH236474   3.029   2.194   7.415 -0.0430 -0.4481 -0.0063
 4972TIP3    H136475   3.059   2.135   7.345  0.2918  0.2995 -0.5097
 4972TIP3    H236476   2.948   2.232   7.381  1.2387  1.6053 -1.0102
 4973TIP3   OH236477   4.433   4.770   0.107 -0.5580 -0.0563 -0.0408
 4973TIP3    H136478   4.382   4.826   0.167 -2.3785 -0.6781 -0.9293
 4973TIP3    H236479   4.523   4.799   0.119 -1.1755  1.5769  1.1282
 4974TIP3   OH236480   0.078   2.415   0.937 -0.1017 -0.0898 -0.3085
 4974TIP3    H136481   0.093   2.399   1.030 -2.3079  0.5232  0.1917
 4974TIP3    H236482  -0.005   2.463   0.933  0.0694  0.1320 -2.5793
 4975TIP3   OH236483   6.496   2.045   7.359 -0.2588  0.1143 -0.0829
 4975TIP3    H136484   6.506   1.971   7.419  0.5224 -0.4680 -0.8913
 4975TIP3    H236485   6.554   2.023   7.285 -1.4612  0.6251 -1.2126
 4976TIP3   OH236486   1.124   3.353   6.993  0.2692  0.1362  0.5929
 4976TIP3    H136487   1.115   3.267   6.951 -1.4456 -0.3353  1.7987
 4976TIP3    H236488   1.039   3.394   6.980 -0.3609 -0.0306  3.4918
 4977TIP3   OH236489   0.847   3.682   8.399  0.6578  0.5158  0.0985
 4977TIP3    H136490   0.911   3.612   8.409 -0.9404 -1.0825 -0.4179
 4977TIP3    H236491   0.818   3.675   8.308  1.9438  3.2447 -0.6564
 4978TIP3   OH236492   5.470   6.466   7.110 -0.1619  0.1163  0.2110
 4978TIP3    H136493   5.409   6.457   7.037  0.7212 -0.1818 -0.5054
 4978TIP3    H236494   5.539   6.523   7.077  1.6332 -2.1074 -0.1468
 4979TIP3   OH236495   6.894   2.823   0.738 -0.4221  0.4401 -0.7876
 4979TIP3    H136496   6.845   2.814   0.819  0.0412 -0.1240 -0.5595
 4979TIP3    H236497   6.946   2.902   0.749  1.0658 -0.6242  0.2596
 4980TIP3   OH236498   1.873   5.091   7.906 -0.3603  0.0290 -0.3384
 4980TIP3    H136499   1.858   5.174   7.953 -1.0283 -0.3933  0.2177
 4980TIP3    H236500   1.812   5.030   7.947  0.8792 -1.0270  0.0004
 4981TIP3   OH236501   6.615   5.982   7.875 -0.1590 -0.0053  0.6175
 4981TIP3    H136502   6.615   5.929   7.955  2.3935  0.4288  0.9843
 4981TIP3    H236503   6.694   5.956   7.829 -0.2623  1.5678 -0.5341
 4982TIP3   OH236504   1.635   1.208   8.178  0.1608 -0.6747 -0.2295
 4982TIP3    H136505   1.705   1.272   8.173 -0.3770 -0.2029 -3.2963
 4982TIP3    H236506   1.680   1.124   8.193  1.0112  0.0423  1.5800
 4983TIP3   OH236507   0.000   5.405   1.836 -0.4058 -0.3535  0.3899
 4983TIP3    H136508  -0.017   5.319   1.798  0.9728 -0.4675 -0.0279
 4983TIP3    H236509  -0.068   5.416   1.902 -1.2720 -1.2806 -0.3221
 4984TIP3   OH236510   6.718   0.933   7.432  0.4720  0.4395 -0.2596
 4984TIP3    H136511   6.754   0.998   7.492 -0.5218 -0.2016  1.1072
 4984TIP3    H236512   6.779   0.859   7.437 -0.0213  0.0663  0.6481
 4985TIP3   OH236513   3.027   3.189   0.278 -0.4487 -0.1151  0.0465
 4985TIP3    H136514   3.054   3.206   0.188 -0.2646  0.6331  0.2356
 4985TIP3    H236515   2.969   3.114   0.272  2.0158 -2.1286 -0.3270
 4986TIP3   OH236516   2.405   0.971   1.907  0.1606  0.5248  0.3578
 4986TIP3    H136517   2.322   0.975   1.955  0.1597  1.3848  0.2978
 4986TIP3    H236518   2.470   0.946   1.972 -0.2170 -0.6061  0.3096
 4987TIP3   OH236519   2.410   0.446   2.414  0.2376  0.4675 -0.4367
 4987TIP3    H136520   2.415   0.371   2.354 -0.2400 -0.0220  0.1270
 4987TIP3    H236521   2.334   0.428   2.468 -0.0285  1.4866 -0.4504
 4988TIP3   OH236522   0.461   1.224   8.117  0.6618 -0.1762 -0.1034
 4988TIP3    H136523   0.468   1.128   8.123 -0.0549 -0.1558  1.4292
 4988TIP3    H236524   0.532   1.249   8.058  0.4523 -1.7071 -1.0653
 4989TIP3   OH236525   6.194   3.083   1.153 -0.1985 -0.2363  0.3304
 4989TIP3    H136526   6.149   3.155   1.198 -1.4990 -0.2532 -0.9016
 4989TIP3    H236527   6.130   3.012   1.150  0.6287 -1.0019  0.3605
 4990TIP3   OH236528   2.448   5.085   6.370 -0.0839  0.0409  0.2230
 4990TIP3    H136529   2.427   5.057   6.281  1.8420 -1.7176  0.2587
 4990TIP3    H236530   2.543   5.088   6.373 -0.0885  2.8248  1.4712
 4991TIP3   OH236531   6.625   5.819   8.105  0.0742  0.8572 -0.2223
 4991TIP3    H136532   6.596   5.854   8.189 -0.0252 -0.2623  0.2207
 4991TIP3    H236533   6.706   5.772   8.126 -0.3771 -0.1016 -0.6041
 4992TIP3   OH236534   4.396   3.456   6.248 -0.2065 -0.5830 -0.1272
 4992TIP3    H136535   4.347   3.454   6.330  0.0877 -0.8056  0.0451
 4992TIP3    H236536   4.483   3.423   6.271  0.6382  1.5563 -0.0346
 4993TIP3   OH236537   4.406   6.680   0.216  0.1517 -0.5250  0.0647
 4993TIP3    H136538   4.497   6.701   0.237  0.5420 -0.0437 -1.8917
 4993TIP3    H236539   4.373   6.758   0.172 -1.1165 -0.8229  0.4539
 4994TIP3   OH236540   1.514   3.124   1.621  0.3729  0.5926 -0.4720
 4994TIP3    H136541   1.446   3.190   1.608 -1.2570 -0.7868  0.5476
 4994TIP3    H236542   1.493   3.084   1.705  0.8303 -1.6977 -1.3687
 4995TIP3   OH236543   3.270   1.741   0.226  0.2093 -0.4342 -0.1537
 4995TIP3    H136544   3.349   1.781   0.262  0.6390 -1.3045 -0.1124
 4995TIP3    H236545   3.296   1.707   0.141  0.5620 -2.8569  0.8457
 4996TIP3   OH236546   5.366   2.096   8.044  0.1195 -0.0406 -0.2843
 4996TIP3    H136547   5.398   2.009   8.068 -0.4771 -0.6090 -1.4378
 4996TIP3    H236548   5.346   2.089   7.951 -1.7551  0.7525  0.0079
 4997TIP3   OH236549   4.641   1.828   7.228  0.0107  0.0925  0.5997
 4997TIP3    H136550   4.699   1.895   7.264 -0.5330  0.5375  0.6565
 4997TIP3    H236551   4.603   1.869   7.150 -0.3334 -0.1457  0.6405
 4998TIP3   OH236552   1.687   3.285   5.844  0.7864 -0.0473 -0.1462
 4998TIP3    H136553   1.648   3.224   5.907 -1.7828  0.1278 -1.4133
 4998TIP3    H236554   1.622   3.290   5.773  0.9666  3.9545 -0.2471
 4999TIP3   OH236555   4.568   0.739   0.751  0.2173 -0.2753  0.7657
 4999TIP3    H136556   4.496   0.727   0.814  0.3480  0.1698  1.0007
 4999TIP3    H236557   4.528   0.720   0.666  0.0371 -0.8832  0.9767
 5000TIP3   OH236558   3.640   0.851   7.236 -0.2347  0.0654  0.6867
 5000TIP3    H136559   3.716   0.796   7.215 -1.4703 -1.5576  0.2951
 5000TIP3    H236560   3.643   0.861   7.331 -0.2794 -1.1569  0.8342
 5001TIP3   OH236561   0.356   6.056   7.045  0.4868  0.0225  0.4985
 5001TIP3    H136562   0.384   6.034   6.956 -0.2095 -0.7561  0.4552
 5001TIP3    H236563   0.431   6.102   7.083  0.5778  0.8878 -0.6710
 5002TIP3   OH236564   0.580   3.000   7.916  0.3512  0.3386 -0.0153
 5002TIP3    H136565   0.489   2.972   7.927  0.4428  0.0809  0.1007
 5002TIP3    H236566   0.579   3.058   7.840  0.2314 -0.3413 -0.5427
 5003TIP3   OH236567   6.538   4.400   8.509  0.2346  0.1365 -0.1762
 5003TIP3    H136568   6.537   4.411   8.604 -0.2492  0.6484 -0.2348
 5003TIP3    H236569   6.606   4.334   8.493 -0.2470 -0.5557  0.5763
 5004TIP3   OH236570   2.245   6.892   2.458  0.0936 -0.2723 -0.6968
 5004TIP3    H136571   2.301   6.847   2.395  1.3810 -1.1007  0.9686
 5004TIP3    H236572   2.156   6.874   2.428  0.6533 -1.3114 -1.8043
 5005TIP3   OH236573   4.107   5.247   8.047 -0.1172  0.2018  0.2576
 5005TIP3    H136574   4.098   5.184   7.975  0.7768  0.4563 -0.0965
 5005TIP3    H236575   4.166   5.314   8.012 -1.9638  1.8794  0.2205
 5006TIP3   OH236576   4.739   1.820   0.534 -0.4472  0.5256 -0.2252
 5006TIP3    H136577   4.692   1.880   0.477  0.0300  0.2665 -0.9018
 5006TIP3    H236578   4.686   1.740   0.535 -1.2261  1.0213  0.8941
 5007TIP3   OH236579   6.865   5.881   8.295 -0.2652  0.7355  0.1744
 5007TIP3    H136580   6.958   5.861   8.283 -0.7015 -0.6429 -1.3656
 5007TIP3    H236581   6.853   5.886   8.389  0.7785 -2.3816  0.5936
 5008TIP3   OH236582   5.549   3.357   1.317 -0.3860  0.3199 -0.0149
 5008TIP3    H136583   5.531   3.420   1.387 -0.5447 -0.3074  0.5071
 5008TIP3    H236584   5.637   3.324   1.335 -0.1509  0.6534 -0.5006
 5009TIP3   OH236585   2.345   3.189   7.573 -0.1822  0.0267 -0.2194
 5009TIP3    H136586   2.267   3.146   7.609  0.3392  1.6087  3.2130
 5009TIP3    H236587   2.362   3.143   7.491 -2.7344 -2.6300  0.5646
 5010TIP3   OH236588   6.064   6.841   0.188  0.0365  0.0774  0.0603
 5010TIP3    H136589   6.090   6.926   0.152 -0.2587  0.4744  0.7707
 5010TIP3    H236590   5.994   6.810   0.130 -0.2376  0.5786  0.1224
 5011TIP3   OH236591   5.023   2.983   7.350  0.1280  0.3857 -0.6695
 5011TIP3    H136592   5.065   2.982   7.436 -0.7861  0.1349 -0.2203
 5011TIP3    H236593   5.088   2.944   7.291  0.5118 -0.0209  0.0128
 5012TIP3   OH236594   3.010   1.466   6.626 -0.3257  0.2555 -0.3352
 5012TIP3    H136595   2.934   1.409   6.614  0.3130 -0.6102 -0.3880
 5012TIP3    H236596   3.055   1.464   6.542 -0.7830  1.5896 -0.6285
 5013TIP3   OH236597   6.096   0.736   6.588 -0.1315  0.0362  0.0416
 5013TIP3    H136598   6.191   0.747   6.578 -0.0684  0.3122  0.8321
 5013TIP3    H236599   6.059   0.813   6.545 -0.0044 -0.1443 -0.3932
 5014TIP3   OH236600   6.636   2.969   1.186  0.3052  0.2452 -0.7623
 5014TIP3    H136601   6.585   3.050   1.195  1.0891  0.5360  2.1145
 5014TIP3    H236602   6.723   2.992   1.219  0.7333 -1.5862 -0.5191
 5015TIP3   OH236603   5.060   4.860   7.978 -0.2543  0.3115 -0.1617
 5015TIP3    H136604   5.012   4.943   7.975  0.1006  0.6198  1.6014
 5015TIP3    H236605   5.029   4.817   8.058 -0.0369 -1.0238 -0.7644
 5016TIP3   OH236606   6.146   5.663   8.121  0.1509  0.0738 -0.4055
 5016TIP3    H136607   6.234   5.625   8.133 -0.4600 -0.8437  1.6757
 5016TIP3    H236608   6.116   5.628   8.038  0.9896 -1.2652 -0.1773
 5017TIP3   OH236609   6.894   3.966   6.324  0.6338  0.1702  0.3148
 5017TIP3    H136610   6.938   3.915   6.255 -2.0976 -0.4297 -1.1322
 5017TIP3    H236611   6.923   3.927   6.406  1.1058 -1.6164 -0.6561
 5018TIP3   OH236612   4.957   2.840   8.411  0.1579 -0.3837 -0.3933
 5018TIP3    H136613   5.021   2.907   8.435  1.1347 -1.2892 -0.3751
 5018TIP3    H236614   4.964   2.832   8.316 -0.2660 -0.1712 -0.4476
 5019TIP3   OH236615   6.875   5.071   0.806 -0.3841 -0.3897  0.3574
 5019TIP3    H136616   6.932   5.000   0.777 -0.6436 -0.5493  0.2320
 5019TIP3    H236617   6.931   5.126   0.860 -0.1950 -0.7209  0.5009
 5020TIP3   OH236618   0.248   6.134   8.513  0.1062  0.4826 -0.5148
 5020TIP3    H136619   0.308   6.066   8.481 -1.0973 -0.6624 -0.4014
 5020TIP3    H236620   0.256   6.131   8.608 -2.0652 -1.5599 -0.3283
 5021TIP3   OH236621   1.188   4.953   1.719 -0.1169  0.3512 -0.1658
 5021TIP3    H136622   1.204   4.885   1.654 -0.4273  0.8587 -0.7800
 5021TIP3    H236623   1.115   4.919   1.772  2.7175 -2.0077  2.6903
 5022TIP3   OH236624   4.643   1.986   8.262  0.2683  0.0537 -0.8275
 5022TIP3    H136625   4.570   2.047   8.248  0.4413  0.8606  1.3072
 5022TIP3    H236626   4.721   2.036   8.240  0.3074  0.0284 -0.7486
 5023TIP3   OH236627   5.875   0.782   1.242 -0.3267 -0.6650  0.6610
 5023TIP3    H136628   5.906   0.710   1.297  0.9624 -1.1285 -0.6271
 5023TIP3    H236629   5.782   0.790   1.265 -0.6534 -3.0741  0.5087
 5024TIP3   OH236630   3.172   0.381   0.137  0.5622 -0.3973 -0.4427
 5024TIP3    H136631   3.200   0.368   0.228  0.1173  0.2680 -0.2016
 5024TIP3    H236632   3.165   0.476   0.127  0.0464 -0.4858 -0.9992
 5025TIP3   OH236633   6.639   4.039   6.265  0.4035 -0.1159 -0.3174
 5025TIP3    H136634   6.584   3.984   6.321 -1.2095  0.7595 -0.9649
 5025TIP3    H236635   6.728   4.022   6.294 -0.2505 -1.1042  1.2293
 5026TIP3   OH236636   1.071   1.551   1.798 -0.0703 -0.1909  0.1655
 5026TIP3    H136637   1.008   1.612   1.759 -1.1327 -1.1400  0.3556
 5026TIP3    H236638   1.115   1.511   1.723  1.0277  1.1471  0.0353
 5027TIP3   OH236639   1.620   0.658   7.670 -0.0286  0.0987 -0.0809
 5027TIP3    H136640   1.585   0.743   7.695  0.6436  0.1745  0.6310
 5027TIP3    H236641   1.699   0.648   7.722  1.2282  0.0770 -1.8918
 5028TIP3   OH236642   0.635   2.761   1.137 -0.8521 -0.1149  0.1730
 5028TIP3    H136643   0.545   2.783   1.162 -0.5048  0.2816  1.1420
 5028TIP3    H236644   0.689   2.796   1.209  0.0065 -1.0533  0.0060
 5029TIP3   OH236645   2.181   2.230   6.439  0.0147 -0.0451  0.0262
 5029TIP3    H136646   2.105   2.190   6.397  0.3349 -1.1602  0.4743
 5029TIP3    H236647   2.243   2.245   6.368  0.9523 -2.8200  0.1276
 5030TIP3   OH236648   3.282   6.553   0.007  0.1731  0.4669 -1.0878
 5030TIP3    H136649   3.311   6.496   0.078  0.7064 -0.5063 -2.0701
 5030TIP3    H236650   3.358   6.608  -0.013  0.2242  0.3151 -1.3157
 5031TIP3   OH236651   5.424   0.106   0.146 -0.3986 -0.0966  0.4430
 5031TIP3    H136652   5.495   0.052   0.110 -1.5874 -0.9534 -0.7338
 5031TIP3    H236653   5.372   0.045   0.199 -1.8329 -0.2146 -0.9988
 5032TIP3   OH236654   2.045   3.641   6.790  0.4927 -0.2438  0.1359
 5032TIP3    H136655   2.109   3.652   6.720  0.6437  0.0418  0.3178
 5032TIP3    H236656   1.987   3.717   6.782  0.8915  0.1303  0.7179
 5033TIP3   OH236657   4.784   2.243   7.010  0.3840 -0.3714 -0.2086
 5033TIP3    H136658   4.773   2.244   6.915  0.9602  2.3091 -0.3101
 5033TIP3    H236659   4.727   2.171   7.039  0.8212 -1.8127 -2.5942
 5034TIP3   OH236660   0.964   3.587   0.153  0.2918  0.6415  0.5532
 5034TIP3    H136661   1.019   3.523   0.109  1.0291  1.0387  0.8915
 5034TIP3    H236662   0.878   3.577   0.111  0.7079  0.2834 -0.2402
 5035TIP3   OH236663   0.772   0.992   8.125  0.3455 -0.1516 -0.4195
 5035TIP3    H136664   0.790   0.997   8.218  0.5775 -0.1708 -0.4641
 5035TIP3    H236665   0.725   0.909   8.114  0.5192 -0.2587 -0.3532
 5036TIP3   OH236666   0.647   5.815   2.128  0.8702 -0.0051  0.1663
 5036TIP3    H136667   0.631   5.903   2.094  2.0387 -0.2117 -0.9972
 5036TIP3    H236668   0.659   5.828   2.223  0.6787  1.0391  0.0641
 5037TIP3   OH236669   0.385   1.597   1.441 -0.2240 -0.7915  0.1969
 5037TIP3    H136670   0.441   1.533   1.399 -0.1079  1.2905 -3.1929
 5037TIP3    H236671   0.297   1.579   1.406 -0.7340 -0.8254  1.4349
 5038TIP3   OH236672   2.782   3.772   2.063  0.2915 -0.0834 -0.1933
 5038TIP3    H136673   2.744   3.701   2.011 -0.4678  0.4206 -0.3397
 5038TIP3    H236674   2.850   3.729   2.115 -1.0002 -1.1683  0.6691
 5039TIP3   OH236675   4.074   1.345   8.514  0.5288 -0.6679 -0.6085
 5039TIP3    H136676   4.092   1.386   8.430  1.6765 -1.3887 -0.7240
 5039TIP3    H236677   4.159   1.336   8.556 -0.1997  2.6776  2.1226
 5040TIP3   OH236678   4.172   4.558   7.835  0.6299  0.0976 -0.6175
 5040TIP3    H136679   4.192   4.571   7.928  1.1601 -1.1746 -0.5280
 5040TIP3    H236680   4.101   4.493   7.835  1.9242 -1.3908 -1.1068
 5041TIP3   OH236681   6.825   5.023   6.929  0.1685  0.7616 -0.2454
 5041TIP3    H136682   6.763   5.026   6.856 -0.0889 -0.4262 -0.0861
 5041TIP3    H236683   6.893   4.962   6.899 -0.4640 -0.5442  0.9071
 5042TIP3   OH236684   1.206   0.042   1.307  0.3756  0.4112 -0.5172
 5042TIP3    H136685   1.235   0.022   1.395  0.3278 -0.0211 -0.5998
 5042TIP3    H236686   1.190  -0.043   1.266  1.2068  0.5766 -1.2189
 5043TIP3   OH236687   5.780   0.032   0.957  0.0178  0.2489  0.1132
 5043TIP3    H136688   5.823  -0.053   0.967 -1.0814 -0.2068  1.3165
 5043TIP3    H236689   5.818   0.070   0.878 -1.0768 -2.3537 -1.8110
 5044TIP3   OH236690   0.103   0.812   8.026 -0.0284  0.4675 -0.0254
 5044TIP3    H136691   0.155   0.733   8.041 -1.1389 -0.2620  0.0508
 5044TIP3    H236692   0.100   0.820   7.930 -0.9306 -0.2768 -0.0658
 5045TIP3   OH236693   4.164   1.748   7.835 -0.1639  0.1463  0.1857
 5045TIP3    H136694   4.236   1.686   7.839 -0.2619 -0.0858 -1.1037
 5045TIP3    H236695   4.203   1.828   7.798 -0.1488  0.6908  1.3508
 5046TIP3   OH236696   0.801   6.559   6.431  0.1947  0.2308 -0.1536
 5046TIP3    H136697   0.743   6.543   6.505 -0.1784 -1.8846 -0.8389
 5046TIP3    H236698   0.810   6.474   6.388  0.5214  1.3536 -2.4658
 5047TIP3   OH236699   2.088   2.397   7.051  0.4090  0.3211  0.3690
 5047TIP3    H136700   2.134   2.447   6.983  0.4742  0.4783  0.5272
 5047TIP3    H236701   2.083   2.458   7.125  0.1351  0.2276  0.4242
 5048TIP3   OH236702   0.471   0.865   2.224 -0.2546 -0.0764  0.4309
 5048TIP3    H136703   0.469   0.811   2.145  1.9666  0.0991  0.1970
 5048TIP3    H236704   0.495   0.805   2.294 -1.1532 -0.0156  0.8079
 5049TIP3   OH236705   5.419   0.075   0.463 -0.1830 -0.0743  0.0745
 5049TIP3    H136706   5.508   0.064   0.496 -0.2122  0.5958  0.3783
 5049TIP3    H236707   5.406   0.170   0.458 -1.0509 -0.1598  0.5054
 5050TIP3   OH236708   2.302   1.645   2.720 -0.3296 -0.3434 -0.0065
 5050TIP3    H136709   2.292   1.592   2.641  0.7050 -2.1813  1.0193
 5050TIP3    H236710   2.226   1.624   2.773 -0.8556  0.6443 -0.3339
 5051TIP3   OH236711   4.383   1.678   7.156  0.0688 -0.0377 -0.4542
 5051TIP3    H136712   4.477   1.697   7.151  0.4134 -1.4520  0.1720
 5051TIP3    H236713   4.361   1.641   7.071  0.0082  0.5021 -0.6822
 5052TIP3   OH236714   3.560   2.112   8.341  0.6568 -0.3728  0.0928
 5052TIP3    H136715   3.602   2.051   8.281  0.8555  0.0886 -0.2413
 5052TIP3    H236716   3.531   2.184   8.285 -0.9187 -0.8426  0.2511
 5053TIP3   OH236717   2.597   1.628   1.442 -0.3005  0.1515 -0.5226
 5053TIP3    H136718   2.656   1.623   1.366  0.0700 -0.8349 -0.1872
 5053TIP3    H236719   2.612   1.546   1.488 -0.7287  0.6280  0.4768
 5054TIP3   OH236720   5.136   6.302   8.430  0.3378 -0.3270  0.0223
 5054TIP3    H136721   5.082   6.379   8.412 -0.3176 -0.6530  0.5596
 5054TIP3    H236722   5.217   6.337   8.467 -0.4574  0.0445  1.4559
 5055TIP3   OH236723   5.021   4.833   7.640  0.2353  0.5671 -0.4836
 5055TIP3    H136724   5.060   4.755   7.678 -1.7237 -0.2674 -0.0925
 5055TIP3    H236725   4.992   4.806   7.553  0.0197  1.0211 -0.5564
 5056TIP3   OH236726   2.342   5.454   7.801 -0.4361 -0.4949 -0.2134
 5056TIP3    H136727   2.331   5.359   7.797 -1.8442 -0.3444 -0.3778
 5056TIP3    H236728   2.350   5.481   7.710 -1.8537 -0.2790 -0.2883
 5057TIP3   OH236729   6.280   6.739   1.138  0.0262  0.5296  0.3740
 5057TIP3    H136730   6.254   6.675   1.072 -0.1543  0.7314  0.2459
 5057TIP3    H236731   6.197   6.766   1.178  0.2425 -0.7812  1.8124
 5058TIP3   OH236732   0.860   5.114   2.332 -0.7024  0.3559  0.2257
 5058TIP3    H136733   0.899   5.202   2.334 -0.7317  0.3566  1.4668
 5058TIP3    H236734   0.791   5.117   2.398  0.1172 -0.9586  1.1901
 5059TIP3   OH236735   0.890   1.658   0.987 -0.8766  0.1464 -0.0163
 5059TIP3    H136736   0.937   1.729   0.942 -0.7673  0.5511  0.7295
 5059TIP3    H236737   0.828   1.703   1.043 -2.1971 -0.3819 -1.0033
 5060TIP3   OH236738   5.299   5.677   0.719 -0.1353  0.2270  0.1815
 5060TIP3    H136739   5.320   5.714   0.805  1.2557 -3.0232  1.4438
 5060TIP3    H236740   5.207   5.698   0.706 -0.1795  1.4847  2.1253
 5061TIP3   OH236741   2.104   5.070   7.749 -0.2463 -0.3452  0.7920
 5061TIP3    H136742   2.043   5.053   7.678  0.6476 -0.2640 -0.0244
 5061TIP3    H236743   2.050   5.076   7.827 -1.3783  0.5660 -0.0197
 5062TIP3   OH236744   1.154   0.866   7.268 -0.0351  0.1747 -0.0959
 5062TIP3    H136745   1.083   0.902   7.216  0.2833 -1.5734 -1.8432
 5062TIP3    H236746   1.225   0.929   7.259 -0.5487  0.7249 -0.3495
 5063TIP3   OH236747   3.086   6.543   7.629 -0.5136 -0.1409  0.0797
 5063TIP3    H136748   3.052   6.489   7.700  0.4504  1.3965  1.7697
 5063TIP3    H236749   3.008   6.568   7.580 -1.2299 -0.9829  0.7436
 5064TIP3   OH236750   5.521   4.847   7.598  0.1765  0.2803 -0.4688
 5064TIP3    H136751   5.453   4.832   7.664  1.0800  1.6174  0.8125
 5064TIP3    H236752   5.564   4.928   7.625  0.0544  1.3753 -3.1680
 5065TIP3   OH236753   0.063   2.876   7.102  0.1117  0.3020 -0.1977
 5065TIP3    H136754   0.037   2.791   7.067 -0.2536  0.6526 -0.7998
 5065TIP3    H236755   0.129   2.907   7.040 -1.1237  1.2897 -1.0724
 5066TIP3   OH236756   1.064   1.125   8.336 -0.2737 -0.2372  0.0463
 5066TIP3    H136757   1.087   1.085   8.420 -1.6981 -0.6041  0.2846
 5066TIP3    H236758   1.049   1.051   8.278 -1.1141 -0.0256 -0.0175
 5067TIP3   OH236759   5.112   5.046   8.257 -0.5966  0.4075  0.0008
 5067TIP3    H136760   5.179   5.020   8.320  0.3385  0.6148 -0.8684
 5067TIP3    H236761   5.061   4.966   8.241 -0.9065  0.3770  1.0586
 5068TIP3   OH236762   2.531   0.075   6.976  0.0340 -0.6706  0.4384
 5068TIP3    H136763   2.511   0.031   6.894  1.1079 -1.1290  0.4036
 5068TIP3    H236764   2.557   0.005   7.035  1.9545 -0.1024  0.3245
 5069TIP3   OH236765   3.632   1.489   7.865 -0.4891  0.1377  0.4989
 5069TIP3    H136766   3.658   1.520   7.778  0.9624  1.1918  1.2588
 5069TIP3    H236767   3.687   1.412   7.880  0.7215  1.0942  1.2245
 5070TIP3   OH236768   3.664   0.987   0.177 -0.2952  0.6433  0.7245
 5070TIP3    H136769   3.713   0.955   0.102 -0.2490 -0.4308  1.1888
 5070TIP3    H236770   3.683   0.924   0.247  0.4477  2.1445  1.9350
 5071TIP3   OH236771   5.358   5.345   6.978 -0.1537 -0.2580  0.0648
 5071TIP3    H136772   5.338   5.252   6.983 -1.1174 -0.2178 -2.2066
 5071TIP3    H236773   5.449   5.351   7.008  1.0668 -2.4108 -2.7212
 5072TIP3   OH236774   5.923   3.789   7.469 -0.0782  0.4541  0.3715
 5072TIP3    H136775   5.861   3.827   7.407 -1.2704 -1.2140  0.4692
 5072TIP3    H236776   5.938   3.858   7.534  0.2271  1.7920 -1.0501
 5073TIP3   OH236777   4.703   0.112   1.294  0.0265  0.4971 -0.5299
 5073TIP3    H136778   4.691   0.017   1.285 -0.1696  0.4230  0.4368
 5073TIP3    H236779   4.636   0.149   1.236 -1.1716  0.0447  0.5200
 5074TIP3   OH236780   1.450   5.576   6.489 -0.5601 -0.1313 -0.5751
 5074TIP3    H136781   1.483   5.486   6.483 -0.9114 -0.3197  0.1578
 5074TIP3    H236782   1.355   5.566   6.487 -0.7209 -0.0462  2.1010
 5075TIP3   OH236783   5.013   0.184   0.036 -0.4032  0.7054  0.2670
 5075TIP3    H136784   4.956   0.109   0.056  2.7313 -1.1940  3.2257
 5075TIP3    H236785   5.082   0.148  -0.019 -0.3181  2.1790 -0.6414
 5076TIP3   OH236786   2.211   6.281   1.172  0.0286  0.7361 -0.1401
 5076TIP3    H136787   2.240   6.261   1.083 -0.3771 -0.4495 -0.0249
 5076TIP3    H236788   2.115   6.276   1.167  0.0331 -1.9833  0.8966
 5077TIP3   OH236789   0.830   5.623   7.604 -0.2598 -0.0412 -0.5968
 5077TIP3    H136790   0.886   5.570   7.548 -1.1055 -0.8118 -0.7348
 5077TIP3    H236791   0.830   5.577   7.689 -0.5863  0.0139 -0.5655
 5078TIP3   OH236792   6.273   5.539   0.926 -0.1357  0.1580  0.2152
 5078TIP3    H136793   6.266   5.533   0.831  1.2079 -0.6171  0.1363
 5078TIP3    H236794   6.331   5.614   0.941 -1.0359  0.8157  0.4678
 5079TIP3   OH236795   4.427   3.431   7.276 -0.3667 -0.2633  0.1141
 5079TIP3    H136796   4.443   3.339   7.299  4.6517  0.5089  0.8508
 5079TIP3    H236797   4.432   3.478   7.359  1.3772  1.0066 -0.6501
 5080TIP3   OH236798   3.761   3.261   1.458  0.1069  0.6645 -0.1508
 5080TIP3    H136799   3.854   3.277   1.443 -0.1846  1.5980 -1.0329
 5080TIP3    H236800   3.750   3.275   1.552  1.0255 -0.4176  0.1411
 5081TIP3   OH236801   4.689   3.979   6.136 -0.5774 -0.4410 -0.2223
 5081TIP3    H136802   4.706   3.932   6.054 -1.0532 -0.5037 -0.2862
 5081TIP3    H236803   4.647   4.060   6.109  0.1582 -0.0154 -0.1036
 5082TIP3   OH236804   5.174   6.733   0.726  0.2274  0.3310 -0.3099
 5082TIP3    H136805   5.248   6.761   0.778  0.1570  1.2757 -0.7040
 5082TIP3    H236806   5.205   6.655   0.680  0.3087 -0.4826  1.0597
 5083TIP3   OH236807   5.612   1.004   7.690 -0.3659  0.6835 -0.0223
 5083TIP3    H136808   5.519   0.992   7.713 -0.4999 -4.0366 -1.7803
 5083TIP3    H236809   5.654   0.923   7.720  2.2745  0.7535 -3.0854
 5084TIP3   OH236810   2.916   0.836   0.775  0.2680  0.5151 -0.3332
 5084TIP3    H136811   2.973   0.808   0.703  0.4676  1.0522 -0.3868
 5084TIP3    H236812   2.882   0.921   0.747 -0.4786  0.2457 -0.2536
 5085TIP3   OH236813   1.290   1.679   1.147 -0.9862 -0.1342  0.1644
 5085TIP3    H136814   1.331   1.637   1.071 -0.6016 -0.6153  0.6264
 5085TIP3    H236815   1.258   1.763   1.114  0.4382  0.2985 -0.1949
 5086TIP3   OH236816   0.742   1.983   7.756  0.1187  0.0417 -0.2112
 5086TIP3    H136817   0.837   1.987   7.743  0.1712 -0.5686 -0.0081
 5086TIP3    H236818   0.730   1.921   7.827 -0.6016 -2.3176 -2.2366
 5087TIP3   OH236819   0.777   4.639   8.081  0.4652  0.1639 -0.1028
 5087TIP3    H136820   0.771   4.580   8.005  0.3239 -0.3192  0.2756
 5087TIP3    H236821   0.835   4.709   8.052  1.3801 -0.6303 -0.2749
 5088TIP3   OH236822   3.534   1.777   1.151 -0.3261  0.0652  0.1415
 5088TIP3    H136823   3.462   1.755   1.093 -1.3251  1.0134  0.9781
 5088TIP3    H236824   3.613   1.762   1.099 -1.1702  0.3812 -1.2560
 5089TIP3   OH236825   4.929   1.182   8.394  0.3275 -0.3251  0.4520
 5089TIP3    H136826   4.897   1.226   8.472  2.3308  0.9736  0.6023
 5089TIP3    H236827   4.897   1.236   8.321  1.2675  0.3965  0.5564
 5090TIP3   OH236828   6.082   2.262   1.679  0.5101 -1.0366  0.1478
 5090TIP3    H136829   6.152   2.249   1.615  0.2204  0.0267 -0.4034
 5090TIP3    H236830   6.117   2.325   1.742 -0.4806  0.7585 -1.0299
 5091TIP3   OH236831   6.836   6.851   1.496 -0.1293  0.1465 -0.4322
 5091TIP3    H136832   6.900   6.781   1.507  1.8828  1.9944  0.2549
 5091TIP3    H236833   6.807   6.870   1.585 -0.8135  0.0795 -0.6347
 5092TIP3   OH236834   3.818   0.072   8.331 -0.5485  0.4289  0.3800
 5092TIP3    H136835   3.816  -0.011   8.285  2.9477  0.3071  0.2399
 5092TIP3    H236836   3.747   0.065   8.396 -2.6511 -1.1395 -1.9099
 5093TIP3   OH236837   1.834   1.405   1.588 -0.1751 -0.2264  0.0853
 5093TIP3    H136838   1.784   1.348   1.529  1.2822 -2.4975  0.8671
 5093TIP3    H236839   1.806   1.378   1.675  1.6518 -0.8970  0.5041
 5094TIP3   OH236840   0.367   1.199   0.230  0.2392  0.2700 -0.2640
 5094TIP3    H136841   0.462   1.200   0.247  0.5958  1.3941 -2.0237
 5094TIP3    H236842   0.360   1.199   0.135 -1.5589 -0.1183 -0.1619
 5095TIP3   OH236843   0.736   3.347   8.478  0.2144 -0.7633  0.4816
 5095TIP3    H136844   0.822   3.389   8.475  0.1586 -0.5786  1.2841
 5095TIP3    H236845   0.715   3.331   8.386 -0.9648  3.4039 -0.2011
 5096TIP3   OH236846   2.119   1.039   7.203  0.4187  0.6027  0.4135
 5096TIP3    H136847   2.064   1.091   7.144  1.2968  1.1295  0.0343
 5096TIP3    H236848   2.155   1.104   7.264 -1.7897 -0.1230  2.6628
 5097TIP3   OH236849   1.301   0.026   8.150  0.4117  0.2475  0.3309
 5097TIP3    H136850   1.212   0.033   8.113 -0.3954 -1.1983  1.9067
 5097TIP3    H236851   1.302   0.089   8.222  1.2127  1.3639 -0.6125
 5098TIP3   OH236852   5.853   5.384   6.430  0.5115  0.1577  0.0734
 5098TIP3    H136853   5.924   5.408   6.370  0.1571  1.6553  0.1990
 5098TIP3    H236854   5.832   5.293   6.407  3.0279 -0.6391  0.6459
 5099TIP3   OH236855   2.770   2.182   7.845  0.1692  0.7185  0.1098
 5099TIP3    H136856   2.809   2.097   7.867 -0.5116  0.1820 -0.6850
 5099TIP3    H236857   2.843   2.243   7.846  0.8966 -0.1137 -0.5547
 5100TIP3   OH236858   4.412   6.838   8.371 -0.4574 -0.2650 -0.4542
 5100TIP3    H136859   4.340   6.776   8.369 -1.1629  0.4840  0.4782
 5100TIP3    H236860   4.369   6.924   8.362  0.3809  0.1525 -0.5494
 5101TIP3   OH236861   2.105   2.714   7.596 -0.2687  0.2153 -0.2886
 5101TIP3    H136862   2.010   2.713   7.586 -0.2368 -1.6705 -0.7918
 5101TIP3    H236863   2.128   2.625   7.623  1.0376  1.5285  3.5560
 5102TIP3   OH236864   4.004   4.790   1.279  0.5170 -0.7184 -0.0449
 5102TIP3    H136865   4.027   4.855   1.212 -0.4824 -1.0164 -0.7015
 5102TIP3    H236866   3.975   4.714   1.229  2.2128 -1.9219  0.6957
 5103TIP3   OH236867   0.969   4.351   0.503  0.6020 -0.3495 -0.1556
 5103TIP3    H136868   1.060   4.344   0.474  0.3477 -0.4245 -0.9593
 5103TIP3    H236869   0.921   4.294   0.443 -0.2021  0.9825 -0.8036
 5104TIP3   OH236870   4.958   4.886   6.976  0.1042 -0.2949 -0.0672
 5104TIP3    H136871   4.902   4.900   6.900  0.8721  0.2437 -0.5452
 5104TIP3    H236872   4.898   4.862   7.046 -0.5391 -1.5484 -1.0256
 5105TIP3   OH236873   1.151   6.441   1.750  0.0298 -0.3591 -0.6552
 5105TIP3    H136874   1.097   6.472   1.677 -1.3601 -0.8761  0.1176
 5105TIP3    H236875   1.094   6.447   1.826  1.4546  0.1729  0.4130
 5106TIP3   OH236876   3.551   1.653   0.855 -0.4138  0.3244  0.4204
 5106TIP3    H136877   3.551   1.560   0.832  0.1493 -0.0034  1.6493
 5106TIP3    H236878   3.525   1.698   0.774  1.2362 -0.7663 -0.8040
 5107TIP3   OH236879   4.126   6.058   0.077  0.1101 -0.5061 -0.3831
 5107TIP3    H136880   4.042   6.067   0.122 -0.1622 -0.5889 -0.8691
 5107TIP3    H236881   4.104   6.014  -0.005  0.8670 -2.2367  0.2799
 5108TIP3   OH236882   2.870   5.295   0.760  0.0597  0.3328  0.2159
 5108TIP3    H136883   2.898   5.245   0.837 -2.3275 -0.7529  0.4921
 5108TIP3    H236884   2.942   5.355   0.742  1.4706 -0.6686  2.1641
 5109TIP3   OH236885   5.950   4.907   0.694  0.0006  0.3475 -0.2678
 5109TIP3    H136886   6.039   4.918   0.727  0.2767 -0.2466 -0.7879
 5109TIP3    H236887   5.926   4.818   0.718  0.4720 -0.3511 -2.2119
 5110TIP3   OH236888   5.251   5.816   7.482 -0.3706 -0.3492  0.0988
 5110TIP3    H136889   5.199   5.786   7.557 -2.2164  2.2786  0.0081
 5110TIP3    H236890   5.190   5.813   7.408  0.6771 -0.5121 -0.7812
 5111TIP3   OH236891   1.334   3.483   0.465 -0.0336  0.1728  0.1715
 5111TIP3    H136892   1.370   3.518   0.546  0.6714 -0.3653  0.0968
 5111TIP3    H236893   1.388   3.521   0.396  0.1220 -0.2960  0.0299
 5112TIP3   OH236894   2.957   3.624   6.927 -0.3768 -0.0102  0.7037
 5112TIP3    H136895   2.888   3.627   6.860 -0.2951  0.5571  0.6437
 5112TIP3    H236896   2.911   3.635   7.010 -0.4000 -0.0100  0.6908
 5113TIP3   OH236897   5.835   4.057   8.036 -0.2564 -0.0990 -0.8822
 5113TIP3    H136898   5.924   4.052   8.071 -0.3181  0.4556 -0.6318
 5113TIP3    H236899   5.827   3.980   7.980  0.3615 -0.1854 -0.8599
 5114TIP3   OH236900   1.688   5.489   8.150 -0.5584 -0.6057  0.3749
 5114TIP3    H136901   1.620   5.553   8.126  0.0799 -0.2346 -0.5145
 5114TIP3    H236902   1.674   5.473   8.243 -1.3291  0.1168  0.3964
 5115TIP3   OH236903   0.065   2.028   8.532 -0.0423  0.8203 -0.1044
 5115TIP3    H136904   0.106   1.949   8.496  2.6338  1.8691  0.3590
 5115TIP3    H236905   0.084   2.024   8.626  1.1833  2.5067 -0.2290
 5116TIP3   OH236906   5.286   1.265   0.333 -0.1800  0.1237  0.2039
 5116TIP3    H136907   5.204   1.312   0.351  0.5032  1.7308 -0.6573
 5116TIP3    H236908   5.262   1.172   0.336 -1.7427  0.5183  1.2792
 5117TIP3   OH236909   3.721   0.891   1.844  0.3155 -0.1100  0.2263
 5117TIP3    H136910   3.701   0.974   1.799  0.0421 -0.5595 -0.4924
 5117TIP3    H236911   3.712   0.912   1.937 -2.1935  0.0680  0.0161
 5118TIP3   OH236912   1.761   6.205   1.532 -0.2202 -0.0109  0.0697
 5118TIP3    H136913   1.709   6.254   1.469 -0.9243  1.7312  1.9183
 5118TIP3    H236914   1.849   6.203   1.494 -0.6776  0.7155 -1.0912
 5119TIP3   OH236915   6.121   6.185   1.047  0.4347  0.1622  0.5636
 5119TIP3    H136916   6.145   6.202   1.138  1.3115 -1.2730  0.6297
 5119TIP3    H236917   6.106   6.091   1.043  0.0953  0.2462 -0.7094
 5120TIP3   OH236918   2.039   5.969   2.094  0.2754 -0.1785 -0.3924
 5120TIP3    H136919   2.112   5.953   2.034  2.5975  0.9807  1.8900
 5120TIP3    H236920   2.059   5.915   2.171  0.6798  2.6270  1.6435
 5121TIP3   OH236921   0.181   0.440   6.751 -0.6092 -0.3176 -0.0630
 5121TIP3    H136922   0.087   0.447   6.760 -0.6473  3.4207 -1.6295
 5121TIP3    H236923   0.196   0.436   6.656  0.8270 -0.3902  0.1403
 5122TIP3   OH236924   3.267   1.178   7.666 -0.0921  0.6590 -0.2473
 5122TIP3    H136925   3.280   1.272   7.654 -2.8475  1.0082 -1.1629
 5122TIP3    H236926   3.188   1.158   7.616  1.3077 -2.5035 -1.4531
 5123TIP3   OH236927   0.442   5.133   1.010  0.3374  0.5235 -0.3017
 5123TIP3    H136928   0.362   5.085   1.033 -0.7528  1.4106 -2.0401
 5123TIP3    H236929   0.480   5.158   1.095  0.3171 -2.2797  0.6390
 5124TIP3   OH236930   4.909   3.393   1.911 -0.4175  0.4155 -0.1251
 5124TIP3    H136931   4.906   3.486   1.886  2.7991  0.0917 -2.3231
 5124TIP3    H236932   4.884   3.346   1.832 -0.9361 -0.6396  0.6471
 5125TIP3   OH236933   6.468   5.822   1.781  0.1409 -0.4285  0.0142
 5125TIP3    H136934   6.468   5.746   1.724 -0.6469 -1.9211  1.8924
 5125TIP3    H236935   6.490   5.788   1.868  0.1542  1.5438  0.8587
 5126TIP3   OH236936   0.312   0.628   0.741  0.3889 -0.1867 -0.6908
 5126TIP3    H136937   0.294   0.581   0.822 -0.9717 -0.4791 -1.1321
 5126TIP3    H236938   0.336   0.561   0.677  1.4174  0.0374 -0.5561
 5127TIP3   OH236939   6.771   1.743   6.991 -0.0445  0.2501 -0.5038
 5127TIP3    H136940   6.863   1.761   6.972  0.2795  0.2986  1.0237
 5127TIP3    H236941   6.770   1.653   7.022 -0.9509 -0.7779 -3.1895
 5128TIP3   OH236942   0.389   5.722   0.176 -0.5551 -0.1450  0.1114
 5128TIP3    H136943   0.387   5.796   0.115  1.2394  1.1201  1.4480
 5128TIP3    H236944   0.372   5.645   0.122  1.2741  0.8723 -2.0923
 5129TIP3   OH236945   3.806   5.396   0.894  0.0057  0.0528  0.2809
 5129TIP3    H136946   3.715   5.382   0.870  0.2290 -3.4464  1.0144
 5129TIP3    H236947   3.816   5.350   0.977  2.7159 -0.7292 -0.3962
 5130TIP3   OH236948   4.631   6.589   1.045 -0.5968  0.9525  0.2735
 5130TIP3    H136949   4.570   6.566   1.114  0.0719 -0.5685  0.4029
 5130TIP3    H236950   4.628   6.515   0.984  0.1276  1.4590 -0.4108
 5131TIP3   OH236951   5.794   0.098   7.870  0.5488  0.0332 -0.2318
 5131TIP3    H136952   5.732   0.061   7.933  1.5671  0.2404  0.9123
 5131TIP3    H236953   5.778   0.047   7.790 -0.7183 -0.2730  0.1838
 5132TIP3   OH236954   1.349   4.783   0.165 -0.0855 -0.6595 -0.0602
 5132TIP3    H136955   1.263   4.740   0.171 -0.7300  0.5508 -0.1937
 5132TIP3    H236956   1.331   4.866   0.121  0.9626  0.1263  0.9244
 5133TIP3   OH236957   5.243   4.669   1.393  0.1993  0.1562 -0.1392
 5133TIP3    H136958   5.285   4.590   1.425  1.4447  0.8616  0.0372
 5133TIP3    H236959   5.183   4.639   1.324  1.0930 -0.8692 -0.4910
 5134TIP3   OH236960   0.683   0.982   1.929  0.0127  0.4244  0.7119
 5134TIP3    H136961   0.681   1.044   2.003 -1.1784  1.6179 -0.2687
 5134TIP3    H236962   0.770   0.995   1.890 -0.1134  1.3174  0.6904
 5135TIP3   OH236963   6.491   2.564   1.438  0.0264  0.4231  0.3218
 5135TIP3    H136964   6.450   2.480   1.419  0.8033  0.5903 -2.4835
 5135TIP3    H236965   6.538   2.550   1.521  1.7952 -2.5693 -1.0447
 5136TIP3   OH236966   3.426   6.550   1.849  0.0732  0.3628 -0.5266
 5136TIP3    H136967   3.358   6.485   1.865  0.8900 -0.9234 -2.0002
 5136TIP3    H236968   3.406   6.585   1.762  0.1475  1.4498 -0.1157
 5137TIP3   OH236969   4.138   1.638   7.425  0.7402  0.1431 -0.7495
 5137TIP3    H136970   4.227   1.605   7.417  0.9138  0.7937 -1.6999
 5137TIP3    H236971   4.083   1.572   7.382  0.8134 -0.0569 -0.5325
 5138TIP3   OH236972   5.014   5.538   6.864  0.5457 -0.5321  0.0703
 5138TIP3    H136973   5.012   5.469   6.798 -0.6672  0.3276 -0.8309
 5138TIP3    H236974   5.106   5.545   6.890  1.3528  0.2400 -2.7405
 5139TIP3   OH236975   1.689   2.221   8.141 -0.2137 -0.1768  0.8183
 5139TIP3    H136976   1.759   2.161   8.113 -0.0871  0.1026  0.5281
 5139TIP3    H236977   1.725   2.265   8.218  0.4812  0.9447 -0.1044
 5140TIP3   OH236978   2.207   0.695   7.524 -0.6525  0.7370 -0.2754
 5140TIP3    H136979   2.273   0.641   7.481 -0.4928  0.7871 -0.0926
 5140TIP3    H236980   2.148   0.632   7.565  0.9184  0.6859  2.0702
 5141TIP3   OH236981   2.082   4.811   0.359 -0.4204  0.6515  0.4597
 5141TIP3    H136982   2.104   4.845   0.272  0.6638  1.4641  1.0237
 5141TIP3    H236983   1.992   4.781   0.351 -0.5223  1.2339 -0.7973
 5142TIP3   OH236984   0.230   4.987   1.131  0.6321 -0.3251 -0.0320
 5142TIP3    H136985   0.206   4.901   1.094  2.1989 -0.8363  0.0549
 5142TIP3    H236986   0.149   5.037   1.129 -0.7900 -2.3836  1.5561
 5143TIP3   OH236987   6.736   6.141   1.634 -0.0918 -0.4493  0.3638
 5143TIP3    H136988   6.758   6.108   1.721 -0.1148 -2.7228 -0.4298
 5143TIP3    H236989   6.809   6.114   1.578 -1.1224 -1.0419 -0.7509
 5144TIP3   OH236990   5.138   2.009   8.458  0.3848 -0.1881 -0.3320
 5144TIP3    H136991   5.135   2.097   8.498  0.1284  0.9182 -2.6354
 5144TIP3    H236992   5.058   1.967   8.489 -0.0142  0.7719 -0.0002
 5145TIP3   OH236993   3.049   3.122   8.510  0.1239 -0.2853 -0.1109
 5145TIP3    H136994   3.035   3.060   8.439  0.2348 -1.0144  0.4960
 5145TIP3    H236995   2.980   3.188   8.498 -1.2839 -1.5960  0.3956
 5146TIP3   OH236996   3.464   5.039   0.610  0.2678 -0.0903  1.1141
 5146TIP3    H136997   3.384   5.042   0.557  0.8306  1.7905  0.2785
 5146TIP3    H236998   3.520   4.977   0.564  0.9841  1.9537 -0.9786
 5147TIP3   OH236999   0.006   6.265   2.309 -0.2677  0.0161 -0.0616
 5147TIP3    H137000   0.034   6.175   2.292  0.9558  0.3741 -0.0542
 5147TIP3    H237001  -0.080   6.272   2.268 -0.5840 -1.2881  0.3484
 5148TIP3   OH237002   6.869   5.540   7.787  0.1111  0.7926 -0.1006
 5148TIP3    H137003   6.864   5.612   7.851 -1.6072 -0.7523  1.6170
 5148TIP3    H237004   6.787   5.545   7.739 -0.0622 -0.0622  0.0910
 5149TIP3   OH237005   1.101   4.027   8.454  0.3548 -0.3517 -0.7692
 5149TIP3    H137006   1.109   3.952   8.512  0.5832  0.2649  0.0059
 5149TIP3    H237007   1.013   4.020   8.417 -0.0538 -0.3610  0.1913
 5150TIP3   OH237008   4.160   1.442   0.490 -0.0875 -0.2300 -0.1603
 5150TIP3    H137009   4.087   1.382   0.478 -0.1025 -0.3723  0.5591
 5150TIP3    H237010   4.221   1.421   0.419 -0.0788 -1.1199  0.1016
 5151TIP3   OH237011   2.514   6.607   1.618 -0.0898  0.1361 -0.2962
 5151TIP3    H137012   2.610   6.601   1.626 -0.1339  0.0802  0.2445
 5151TIP3    H237013   2.489   6.671   1.684 -0.4322  0.1100 -0.4029
 5152TIP3   OH237014   2.221   1.023   6.891 -0.4293 -0.8295  0.4126
 5152TIP3    H137015   2.149   1.026   6.955 -2.1598 -2.6663 -1.3109
 5152TIP3    H237016   2.225   1.112   6.857 -1.4390 -0.5159  1.0389
 5153TIP3   OH237017   3.265   0.600   8.388  0.2553  0.9341  0.4268
 5153TIP3    H137018   3.239   0.577   8.299 -1.0109 -3.1611  1.6045
 5153TIP3    H237019   3.229   0.687   8.402  0.4575  1.7097 -2.9544
 5154TIP3   OH237020   6.630   0.087   1.118  0.0762 -0.3884 -0.1557
 5154TIP3    H137021   6.678   0.144   1.178  0.3829 -1.4589  0.6464
 5154TIP3    H237022   6.541   0.124   1.115 -0.3054 -0.9735  1.9378
 5155TIP3   OH237023   0.910   6.784   1.416  1.4980  0.0381  0.1939
 5155TIP3    H137024   0.904   6.811   1.324  1.7126 -0.0701  0.1483
 5155TIP3    H237025   0.819   6.769   1.442  1.3950  0.5490  0.1461
 5156TIP3   OH237026   0.013   0.811   8.464  0.2762  0.0304 -0.2695
 5156TIP3    H137027   0.021   0.717   8.448  1.6550  0.2654 -1.0722
 5156TIP3    H237028  -0.024   0.846   8.383 -1.3645  0.0524  0.4545
 5157TIP3   OH237029   4.311   5.975   6.516  0.1704 -0.3574 -0.2529
 5157TIP3    H137030   4.340   6.057   6.476 -2.0680 -0.5322 -2.4703
 5157TIP3    H237031   4.256   6.002   6.590  0.3270  0.1151 -0.3060
 5158TIP3   OH237032   2.186   2.111   1.323 -0.1859 -0.1846 -0.1075
 5158TIP3    H137033   2.113   2.056   1.293 -0.4509  0.3634 -0.4746
 5158TIP3    H237034   2.152   2.200   1.320 -0.8856 -0.1856  3.6061
 5159TIP3   OH237035   0.671   4.842   0.791  0.1832 -0.1029 -0.5761
 5159TIP3    H137036   0.647   4.766   0.845 -1.4227  0.6093 -0.2128
 5159TIP3    H237037   0.696   4.909   0.855  2.1239 -0.4477 -0.9142
 5160TIP3   OH237038   2.876   5.408   0.259 -0.0563  0.3228 -0.1841
 5160TIP3    H137039   2.831   5.491   0.274 -0.4121  0.4076 -1.6023
 5160TIP3    H237040   2.955   5.433   0.209  1.0219  0.0470  1.3016
 5161TIP3   OH237041   1.694   0.262   7.133  0.6143  0.8278  0.4195
 5161TIP3    H137042   1.670   0.197   7.067 -0.6911  0.4306  1.2398
 5161TIP3    H237043   1.725   0.337   7.082 -0.1974  0.4700 -0.6559
 5162TIP3   OH237044   3.281   2.214   1.381 -0.3947 -0.4280  0.5772
 5162TIP3    H137045   3.287   2.283   1.447 -0.9267  0.4108 -0.2200
 5162TIP3    H237046   3.310   2.255   1.300  0.7001 -1.5781  0.3544
 5163TIP3   OH237047   5.578   5.732   8.030 -0.8535 -0.7023 -0.8184
 5163TIP3    H137048   5.559   5.815   8.075  1.1068 -0.1311 -0.9669
 5163TIP3    H237049   5.509   5.672   8.060 -1.4183  0.5514  0.4828
 5164TIP3   OH237050   2.069   1.058   8.427  0.2381 -0.1050 -0.5473
 5164TIP3    H137051   1.989   1.017   8.460  0.7683  0.2666  1.2843
 5164TIP3    H237052   2.136   1.038   8.493  1.4930  0.2421 -1.6608
 5165TIP3   OH237053   4.011   1.102   1.709  0.1885  0.3873  0.2932
 5165TIP3    H137054   3.953   1.135   1.641 -0.7078  0.9612  1.3167
 5165TIP3    H237055   4.085   1.164   1.710 -0.7349  1.5190  1.1380
 5166TIP3   OH237056   5.482   4.213   7.305 -0.0908 -0.2955  0.4850
 5166TIP3    H137057   5.541   4.205   7.230 -0.0300 -2.4171  0.7041
 5166TIP3    H237058   5.536   4.189   7.380 -0.8146 -0.7337  0.8769
 5167TIP3   OH237059   6.693   4.936   6.644 -0.8983  0.1366  0.1825
 5167TIP3    H137060   6.765   4.877   6.668  0.0144 -0.6377 -3.7671
 5167TIP3    H237061   6.617   4.878   6.633 -0.2660 -0.3223 -2.6037
 5168TIP3   OH237062   3.607   3.353   7.343  0.2871 -0.2702  0.1591
 5168TIP3    H137063   3.656   3.401   7.276 -3.3521  0.7050 -2.1539
 5168TIP3    H237064   3.593   3.266   7.305 -0.0112 -0.4216  0.6034
 5169TIP3   OH237065   3.548   1.697   8.007  0.2142 -0.2723  0.9143
 5169TIP3    H137066   3.639   1.728   8.004  0.0451  0.1581 -1.0651
 5169TIP3    H237067   3.551   1.611   7.966 -0.5432  0.6547 -1.2517
 5170TIP3   OH237068   2.602   5.479   7.155 -0.1415 -0.4069  0.3352
 5170TIP3    H137069   2.562   5.391   7.154  1.2668 -1.1308  2.1666
 5170TIP3    H237070   2.694   5.464   7.134 -0.3273  0.9782 -1.7238
 5171TIP3   OH237071   0.255   3.361   2.620 -0.7185 -0.2427  0.1172
 5171TIP3    H137072   0.305   3.438   2.592  0.3684 -0.3922  1.5777
 5171TIP3    H237073   0.165   3.379   2.590  0.1828 -0.1079 -2.8477
 5172TIP3   OH237074   4.432   3.853   5.952 -0.3247  0.0946 -1.0340
 5172TIP3    H137075   4.350   3.899   5.968 -0.1995 -0.0240  0.0110
 5172TIP3    H237076   4.483   3.913   5.897 -0.8928  0.3959 -1.2408
 5173TIP3   OH237077   1.720   5.253   1.443  0.2633  0.1289 -0.4077
 5173TIP3    H137078   1.736   5.299   1.525 -0.0353 -0.0860 -0.2265
 5173TIP3    H237079   1.734   5.161   1.464 -1.2562 -0.0939 -0.2095
 5174TIP3   OH237080   5.269   6.087   0.131 -0.2871  0.5584 -0.3353
 5174TIP3    H137081   5.310   6.148   0.192  0.6052 -0.0068 -0.3450
 5174TIP3    H237082   5.263   6.136   0.048 -1.1602  1.2006  0.0966
 5175TIP3   OH237083   1.768   5.191   0.204 -0.0286  0.2029 -0.5169
 5175TIP3    H137084   1.857   5.207   0.235  0.3863  2.0068 -2.4071
 5175TIP3    H237085   1.780   5.145   0.121 -0.8545  0.2452 -0.6632
 5176TIP3   OH237086   6.053   6.064   0.461 -0.2110 -0.4909 -0.1409
 5176TIP3    H137087   5.960   6.045   0.470 -0.0986 -1.4337 -0.7896
 5176TIP3    H237088   6.087   5.992   0.408  0.6085  0.5928 -1.1488
 5177TIP3   OH237089   6.455   4.483   6.723  0.5231  0.7087  0.4162
 5177TIP3    H137090   6.433   4.422   6.652 -2.3216  1.2095  0.7311
 5177TIP3    H237091   6.485   4.562   6.678  0.3463  0.4508 -0.1705
 5178TIP3   OH237092   3.639   2.012   0.959 -0.0292  0.3110 -0.5987
 5178TIP3    H137093   3.670   2.089   0.912 -1.2759  1.1014 -0.1719
 5178TIP3    H237094   3.622   2.043   1.048 -0.0821 -0.5658 -0.2926
 5179TIP3   OH237095   2.685   2.281   8.203  0.0616  0.2116  0.1033
 5179TIP3    H137096   2.632   2.205   8.229 -0.1189  0.1979 -0.3019
 5179TIP3    H237097   2.761   2.278   8.261 -0.7169  0.6334  1.1765
 5180TIP3   OH237098   0.196   4.855   8.259 -0.5920  0.2113 -0.1479
 5180TIP3    H137099   0.238   4.919   8.202  1.4641  0.3609  1.4356
 5180TIP3    H237100   0.224   4.770   8.225 -2.8559  0.0506 -1.8916
 5181TIP3   OH237101   1.459   0.704   8.317  0.2890  0.1325 -0.1994
 5181TIP3    H137102   1.369   0.723   8.290  0.8217  4.0195  0.0806
 5181TIP3    H237103   1.473   0.612   8.294 -3.7908 -0.7267  0.0372
 5182TIP3   OH237104   0.541   1.393   1.323 -0.2619 -0.2499 -0.2112
 5182TIP3    H137105   0.621   1.353   1.356  0.4438  2.3434  1.5600
 5182TIP3    H237106   0.495   1.322   1.278  1.7033 -2.4921  1.0895
 5183TIP3   OH237107   0.572   4.148   7.218 -0.3005  0.1805 -0.8025
 5183TIP3    H137108   0.638   4.125   7.153  0.1921 -0.0896 -0.2248
 5183TIP3    H237109   0.488   4.129   7.175 -0.0637  1.6311 -1.9573
 5184TIP3   OH237110   0.470   3.193   2.754  0.1375 -0.9183  0.4138
 5184TIP3    H137111   0.526   3.268   2.771  3.0758 -2.3248 -2.0420
 5184TIP3    H237112   0.388   3.230   2.723  0.7465  1.2352  1.2201
 5185TIP3   OH237113   1.110   1.657   7.614  0.2267 -0.1691  0.1508
 5185TIP3    H137114   1.179   1.641   7.550 -0.5353  0.0206 -0.7571
 5185TIP3    H237115   1.102   1.753   7.617  0.6938 -0.1486  1.0271
 5186TIP3   OH237116   0.823   3.078   8.336  0.7386 -0.0361 -0.5624
 5186TIP3    H137117   0.785   2.997   8.303  1.4846 -0.6472  0.0295
 5186TIP3    H237118   0.808   3.142   8.267 -0.6075 -0.4578 -0.6818
 5187TIP3   OH237119   2.907   6.571   1.063  0.0855  0.0057 -0.2338
 5187TIP3    H137120   2.913   6.666   1.070  1.4857  0.0306 -1.2205
 5187TIP3    H237121   2.971   6.549   0.995 -1.5994 -1.4605 -1.4171
 5188TIP3   OH237122   5.376   2.352   6.621  0.1674 -0.3531  0.1970
 5188TIP3    H137123   5.453   2.322   6.573  1.0960  0.7294  0.9692
 5188TIP3    H237124   5.316   2.276   6.620  1.7393 -1.6566  0.6500
 5189TIP3   OH237125   1.925   1.926   1.586 -0.0103  0.4267  0.5255
 5189TIP3    H137126   1.836   1.891   1.597 -0.9475  2.0145 -1.2746
 5189TIP3    H237127   1.942   1.972   1.667 -0.3604 -0.8366  1.3419
 5190TIP3   OH237128   6.865   4.961   7.772  0.0096 -0.0433  0.1219
 5190TIP3    H137129   6.853   5.055   7.782  0.7631  0.5331 -3.2528
 5190TIP3    H237130   6.840   4.925   7.857 -2.4599  2.9709  0.8710
 5191TIP3   OH237131   3.671   2.536   1.743  0.5520  0.1391  0.6968
 5191TIP3    H137132   3.585   2.572   1.765  0.7504  0.6634  0.6301
 5191TIP3    H237133   3.654   2.444   1.723  0.0459  0.1740  0.9410
 5192TIP3   OH237134   0.692   5.931   1.232 -0.3290 -0.1882 -0.3910
 5192TIP3    H137135   0.738   6.014   1.246 -0.4675 -0.3101  0.9186
 5192TIP3    H237136   0.761   5.865   1.231 -0.4210 -0.3411  1.3037
 5193TIP3   OH237137   6.606   6.403   1.584  0.4319 -0.5392 -0.5628
 5193TIP3    H137138   6.689   6.446   1.565  0.7871  0.2069  2.1980
 5193TIP3    H237139   6.630   6.311   1.598  0.3303 -0.8668 -2.3331
 5194TIP3   OH237140   2.709   3.445   0.953  0.4832  0.2227  0.1004
 5194TIP3    H137141   2.798   3.445   0.989  0.7924 -0.5146 -0.6249
 5194TIP3    H237142   2.722   3.447   0.858 -0.2903  0.6376 -0.0019
 5195TIP3   OH237143   5.408   5.061   6.874  0.6954 -1.1527 -0.6401
 5195TIP3    H137144   5.340   4.995   6.885 -1.1744  0.5880 -1.1669
 5195TIP3    H237145   5.434   5.054   6.782 -1.2203  0.2905 -1.3786
 5196TIP3   OH237146   6.054   2.029   0.632  0.4982 -0.1180  0.4531
 5196TIP3    H137147   6.010   2.075   0.704  0.6815  0.8804 -0.0552
 5196TIP3    H237148   5.982   2.003   0.573  0.5335  1.3535 -0.2866
 5197TIP3   OH237149   5.237   4.270   2.380 -0.4299 -0.1455  0.2421
 5197TIP3    H137150   5.189   4.232   2.454  0.4586 -0.4826  0.6651
 5197TIP3    H237151   5.196   4.354   2.365 -0.3509  0.1286  1.4253
 5198TIP3   OH237152   3.298   0.932   1.606  0.0200 -0.0823  0.0441
 5198TIP3    H137153   3.236   0.925   1.533  0.5883 -0.1661 -0.4375
 5198TIP3    H237154   3.327   1.023   1.603  1.3521 -0.5025 -0.9407
 5199TIP3   OH237155   1.774   6.499   6.352  0.2936  0.0530 -0.4750
 5199TIP3    H137156   1.824   6.420   6.331  0.9957 -0.1932  1.8190
 5199TIP3    H237157   1.707   6.469   6.413  1.9515  1.5001  2.2270
 5200TIP3   OH237158   5.751   4.505   1.924  0.1045 -0.2143  0.5252
 5200TIP3    H137159   5.715   4.460   1.848 -1.0045 -0.1229  0.9692
 5200TIP3    H237160   5.729   4.449   1.998  1.2662 -0.3578  0.7859
 5201TIP3   OH237161   1.705   5.545   0.637  0.5119  1.0367 -0.3929
 5201TIP3    H137162   1.684   5.528   0.729  4.0218  1.2979  0.6022
 5201TIP3    H237163   1.651   5.621   0.614 -2.8123 -0.8875  0.3249
 5202TIP3   OH237164   5.659   5.629   7.392 -0.2587  0.0766 -0.5145
 5202TIP3    H137165   5.736   5.639   7.337 -0.7626 -1.1919 -1.4869
 5202TIP3    H237166   5.655   5.536   7.413 -1.5267  0.1102 -0.4873
 5203TIP3   OH237167   4.044   0.458   0.895  0.2623 -0.1935 -0.3126
 5203TIP3    H137168   3.948   0.450   0.902  0.4896 -2.9712  1.0856
 5203TIP3    H237169   4.075   0.448   0.985  1.8615  2.7773 -0.4186
 5204TIP3   OH237170   1.857   1.636   0.604 -0.2504 -0.5027  0.0880
 5204TIP3    H137171   1.803   1.566   0.568  1.5954 -1.3017 -1.3530
 5204TIP3    H237172   1.877   1.609   0.693  0.2235 -1.7145 -0.3737
 5205TIP3   OH237173   3.926   3.645   6.746 -0.2114 -0.2401 -0.3749
 5205TIP3    H137174   3.843   3.644   6.794 -0.7989  1.6814 -1.2530
 5205TIP3    H237175   3.945   3.737   6.733  1.5325 -0.6654 -1.1458
 5206TIP3   OH237176   5.163   5.409   1.650  0.1667 -0.4974 -0.2222
 5206TIP3    H137177   5.255   5.385   1.654  0.4211  0.4971  0.0639
 5206TIP3    H237178   5.143   5.446   1.736  0.1959  1.6470 -1.0598
 5207TIP3   OH237179   6.636   1.582   7.609  0.4439 -0.3049  0.1004
 5207TIP3    H137180   6.573   1.513   7.587  0.2287 -0.3722  0.8959
 5207TIP3    H237181   6.698   1.582   7.536 -0.9004  0.2866 -1.1016
 5208TIP3   OH237182   5.595   6.701   0.945 -0.4133  0.1476 -0.0630
 5208TIP3    H137183   5.556   6.614   0.950 -0.5687  0.2686  1.0447
 5208TIP3    H237184   5.638   6.703   0.859 -2.8094  0.0033 -1.3506
 5209TIP3   OH237185   0.824   5.375   7.065  0.1042  0.4390 -0.2890
 5209TIP3    H137186   0.881   5.444   7.031  0.3554  0.3643 -0.0278
 5209TIP3    H237187   0.868   5.294   7.039  0.3799  0.3792  0.3355
 5210TIP3   OH237188   5.428   1.402   0.539 -0.0476  0.1746 -0.6609
 5210TIP3    H137189   5.359   1.377   0.478 -2.8681  1.8141  1.6002
 5210TIP3    H237190   5.441   1.325   0.594 -1.3459  0.3645 -0.0569
 5211TIP3   OH237191   6.842   0.421   7.462  0.3842 -0.0899 -0.3376
 5211TIP3    H137192   6.811   0.363   7.394  0.5473 -1.6574  0.8652
 5211TIP3    H237193   6.891   0.364   7.522 -0.2960  1.0866  1.4252
 5212TIP3   OH237194   0.611   1.252   6.915 -0.2037 -0.3249  0.0382
 5212TIP3    H137195   0.687   1.244   6.857  0.3290  1.7301  0.3852
 5212TIP3    H237196   0.535   1.243   6.857  0.2978 -1.2258 -0.4918
 5213TIP3   OH237197   4.080   0.880   1.456 -0.1966  0.3719  0.8474
 5213TIP3    H137198   4.000   0.908   1.412  1.3277  1.4919 -1.3837
 5213TIP3    H237199   4.132   0.959   1.464  0.0704  0.0099  3.8578
 5214TIP3   OH237200   1.597   1.764   6.853  0.2763  0.9853  0.3424
 5214TIP3    H137201   1.659   1.816   6.803  0.7542  0.8245  0.7574
 5214TIP3    H237202   1.533   1.734   6.789  0.3157  1.6069  0.0015
 5215TIP3   OH237203   0.269   5.727   0.459 -0.2184  0.5644  0.6535
 5215TIP3    H137204   0.318   5.796   0.504 -0.4900  2.2075 -1.4140
 5215TIP3    H237205   0.294   5.736   0.367 -0.6435 -1.8206  0.2469
 5216TIP3   OH237206   2.578   1.317   0.075 -0.4366  0.6670  0.1930
 5216TIP3    H137207   2.541   1.388   0.023 -1.4824 -0.3020 -0.4276
 5216TIP3    H237208   2.673   1.329   0.069 -0.5702  1.3029 -0.8965
 5217TIP3   OH237209   4.103   5.968   8.356  0.3529  0.1938  0.4641
 5217TIP3    H137210   4.043   5.987   8.284  1.2074 -0.4513 -0.4524
 5217TIP3    H237211   4.189   5.988   8.321  0.8538 -0.8482  1.0465
 5218TIP3   OH237212   0.632   6.119   7.724  0.9097 -0.4782 -0.2331
 5218TIP3    H137213   0.607   6.075   7.642 -0.0010  0.0483 -0.2525
 5218TIP3    H237214   0.689   6.191   7.695 -1.0424  0.9935 -0.6653
 5219TIP3   OH237215   3.037   1.780   1.696 -0.1735 -0.7895  0.5050
 5219TIP3    H137216   3.046   1.818   1.783 -0.8225 -0.6121  0.4948
 5219TIP3    H237217   2.943   1.764   1.686 -0.0513 -1.2349  0.0186
 5220TIP3   OH237218   3.999   3.595   7.957  0.3995  0.1452  0.4178
 5220TIP3    H137219   4.061   3.530   7.922 -0.4191 -0.1809 -0.4793
 5220TIP3    H237220   3.930   3.600   7.891 -0.6902  0.2781  1.5349
 5221TIP3   OH237221   0.746   4.802   2.823  0.6274 -0.1257 -0.6262
 5221TIP3    H137222   0.834   4.774   2.796  1.0767 -0.0024  0.6280
 5221TIP3    H237223   0.689   4.731   2.794  1.2528 -0.6050 -0.7268
 5222TIP3   OH237224   5.309   0.654   0.022  0.5214  0.2275  0.2012
 5222TIP3    H137225   5.253   0.593   0.070  1.4442 -0.5377  0.3310
 5222TIP3    H237226   5.289   0.739   0.060 -0.9387  0.0564 -0.1193
 5223TIP3   OH237227   4.645   5.193   1.259 -0.3466 -0.1119 -0.7044
 5223TIP3    H137228   4.613   5.214   1.172 -0.5378  1.1019 -0.3619
 5223TIP3    H237229   4.607   5.107   1.279 -0.3063 -0.3965 -1.7955
 5224TIP3   OH237230   5.644   2.637   8.029  0.0999  0.0747 -0.1403
 5224TIP3    H137231   5.566   2.656   7.976  1.4660  1.8296 -1.6416
 5224TIP3    H237232   5.688   2.565   7.984  0.1985  0.1796 -0.2103
 5225TIP3   OH237233   0.680   4.636   1.903  0.2505  0.0454 -0.2682
 5225TIP3    H137234   0.640   4.669   1.984 -0.0830  1.6770 -1.0437
 5225TIP3    H237235   0.616   4.574   1.868 -0.5834  0.9151 -0.3234
 5226TIP3   OH237236   4.831   5.570   7.650 -0.3081 -0.2477  0.3161
 5226TIP3    H137237   4.897   5.553   7.582  2.2480  0.4162  2.4556
 5226TIP3    H237238   4.838   5.495   7.709 -2.4371 -0.7763 -0.0103
 5227TIP3   OH237239   5.302   3.629   0.723  0.1606 -0.4811 -0.1908
 5227TIP3    H137240   5.262   3.689   0.785  0.8704  0.4624 -0.6253
 5227TIP3    H237241   5.288   3.542   0.761  1.5680  0.1190  1.9010
 5228TIP3   OH237242   0.853   5.699   0.909 -0.0845 -0.0280  0.0193
 5228TIP3    H137243   0.873   5.618   0.861 -2.4635 -0.8235  0.2096
 5228TIP3    H237244   0.874   5.678   1.000  1.0936  0.2454 -0.1827
 5229TIP3   OH237245   1.910   0.416   2.123  0.5106  0.3122  0.1179
 5229TIP3    H137246   1.989   0.427   2.176  1.0868 -0.5682 -0.5366
 5229TIP3    H237247   1.849   0.482   2.158  1.0503  0.1145  1.5093
 5230TIP3   OH237248   0.931   6.713   7.228  0.5250 -0.0118  1.0321
 5230TIP3    H137249   0.980   6.795   7.227  0.4522  0.0296  0.3411
 5230TIP3    H237250   0.989   6.651   7.183  0.1723 -0.0931  0.6834
 5231TIP3   OH237251   6.115   0.662   0.063 -0.2805  0.3002 -0.0101
 5231TIP3    H137252   6.128   0.655  -0.032  1.3962  0.1448  0.2099
 5231TIP3    H237253   6.021   0.650   0.074 -0.6606  1.2343 -1.7337
 5232TIP3   OH237254   4.650   0.932   1.403  0.1246 -0.0154 -0.2833
 5232TIP3    H137255   4.681   0.851   1.445 -0.1946  0.0112  0.0081
 5232TIP3    H237256   4.561   0.912   1.375 -0.0916  0.3553  0.1299
 5233TIP3   OH237257   3.898   6.528   7.192  0.4208  0.4475  0.5515
 5233TIP3    H137258   3.946   6.533   7.275  0.8731 -0.4547  0.3670
 5233TIP3    H237259   3.874   6.435   7.184  0.5970  0.4692 -0.4305
 5234TIP3   OH237260   3.785   6.065   8.386  1.2568 -0.4567 -0.1982
 5234TIP3    H137261   3.859   6.049   8.328  2.5823  0.2979  1.2002
 5234TIP3    H237262   3.769   5.981   8.428 -0.5571 -1.3593 -2.4781
 5235TIP3   OH237263   5.820   1.529   7.887 -0.0796  0.5640  0.2593
 5235TIP3    H137264   5.898   1.563   7.930 -0.4506 -0.0783  1.4989
 5235TIP3    H237265   5.827   1.434   7.896 -1.3557  0.5210  1.0726
 5236TIP3   OH237266   5.837   1.359   8.180 -0.3235  0.7341 -0.4733
 5236TIP3    H137267   5.748   1.392   8.167  0.0069  1.1804 -1.7154
 5236TIP3    H237268   5.846   1.288   8.117 -0.5167 -0.8025  1.1609
 5237TIP3   OH237269   4.501   5.231   7.391  0.2240  0.4291  0.2739
 5237TIP3    H137270   4.533   5.265   7.307  0.0853  0.4983  0.2494
 5237TIP3    H237271   4.568   5.258   7.455  0.2446  0.5226  0.2126
 5238TIP3   OH237272   1.146   4.607   1.313  0.4708  0.1853  0.2752
 5238TIP3    H137273   1.110   4.518   1.320  1.2136 -0.0771  0.9652
 5238TIP3    H237274   1.185   4.610   1.226 -0.5837  0.2362 -0.2036
 5239TIP3   OH237275   3.397   6.158   1.885 -0.2521 -0.4162 -0.0127
 5239TIP3    H137276   3.487   6.191   1.884 -0.2301 -0.4632  0.2671
 5239TIP3    H237277   3.349   6.221   1.939 -0.1338 -1.0379  0.8332
 5240TIP3   OH237278   5.375   5.428   1.386 -0.8251 -0.0162 -0.8570
 5240TIP3    H137279   5.416   5.346   1.412 -0.6574 -0.0306 -1.1566
 5240TIP3    H237280   5.424   5.455   1.307 -0.4349  0.7056 -0.3799
 5241TIP3   OH237281   3.555   6.267   2.155 -0.2253  0.1122  0.0544
 5241TIP3    H137282   3.616   6.245   2.225 -0.1217 -1.3206 -0.4694
 5241TIP3    H237283   3.498   6.334   2.194  0.1501 -0.2765  1.3330
 5242TIP3   OH237284   2.975   2.576   6.884 -0.3176  0.2304  0.4077
 5242TIP3    H137285   2.916   2.513   6.842  1.2664 -0.9257 -0.1927
 5242TIP3    H237286   2.966   2.560   6.977  0.3383 -1.1924  0.2503
 5243TIP3   OH237287   2.616   3.056   0.252 -0.6805  0.4765  0.4501
 5243TIP3    H137288   2.636   3.101   0.334 -0.8021  0.4666  0.4846
 5243TIP3    H237289   2.659   3.110   0.185  0.5994 -0.2673  0.6409
 5244TIP3   OH237290   5.541   1.042   1.032 -0.0466 -0.8524 -0.5182
 5244TIP3    H137291   5.478   0.977   1.001 -0.7890  0.4655 -1.8969
 5244TIP3    H237292   5.611   1.039   0.967  0.0526 -0.4851 -0.4262
 5245TIP3   OH237293   1.307   0.978   7.818 -0.3808 -0.1348 -0.2237
 5245TIP3    H137294   1.328   0.952   7.908 -1.4573 -0.5375 -0.0776
 5245TIP3    H237295   1.383   0.948   7.767  0.0787 -0.2309  0.4870
 5246TIP3   OH237296   6.411   5.997   0.957 -0.0531  0.5975  0.2814
 5246TIP3    H137297   6.369   6.076   0.924  0.2354  1.3304  1.5867
 5246TIP3    H237298   6.495   6.027   0.993  0.1980 -0.3461  0.5305
 5247TIP3   OH237299   0.132   2.151   1.731  0.7194 -0.0758 -0.6316
 5247TIP3    H137300   0.180   2.165   1.812  0.9938  0.2671 -0.8518
 5247TIP3    H237301   0.176   2.077   1.689  0.3921 -0.4457 -0.3285
 5248TIP3   OH237302   3.693   5.046   0.370 -0.3638 -0.2236  0.2802
 5248TIP3    H137303   3.694   4.990   0.448  2.5902 -1.4255 -0.5083
 5248TIP3    H237304   3.650   4.993   0.303 -0.2763 -0.3252  0.3055
 5249TIP3   OH237305   4.140   2.865   6.714 -0.1024 -0.0003 -0.7157
 5249TIP3    H137306   4.190   2.938   6.751 -0.6396  0.9406 -1.7880
 5249TIP3    H237307   4.069   2.907   6.665 -1.1120 -1.2722 -0.4195
 5250TIP3   OH237308   3.162   4.821   8.206 -0.2307 -0.3647 -0.3406
 5250TIP3    H137309   3.079   4.818   8.252  0.2018 -1.1387  0.4046
 5250TIP3    H237310   3.153   4.895   8.145 -1.1082  0.1563  0.3999
 5251TIP3   OH237311   0.982   2.313   1.846 -0.5888 -0.4756 -0.0255
 5251TIP3    H137312   1.076   2.309   1.864 -0.7925 -0.4759  1.1376
 5251TIP3    H237313   0.945   2.357   1.922 -1.4452  0.2399 -0.8363
 5252TIP3   OH237314   5.006   4.974   0.611 -0.2000  0.4038 -0.1054
 5252TIP3    H137315   4.982   5.058   0.649 -0.4897 -0.5138  1.8280
 5252TIP3    H237316   5.077   4.942   0.666  1.5094  0.3770 -2.1886
 5253TIP3   OH237317   6.378   5.688   0.267  0.4315 -0.3334 -0.2798
 5253TIP3    H137318   6.441   5.723   0.203  0.7494  0.5498  0.4853
 5253TIP3    H237319   6.304   5.659   0.214  0.8589  0.0044 -1.0877
 5254TIP3   OH237320   0.723   0.249   7.708  0.2405 -0.3669 -0.9400
 5254TIP3    H137321   0.637   0.256   7.665  0.0540  0.9361 -0.4070
 5254TIP3    H237322   0.775   0.196   7.648 -1.4242 -2.7105 -0.4543
 5255TIP3   OH237323   1.510   6.221   6.893  0.1067 -0.5544 -0.1871
 5255TIP3    H137324   1.468   6.137   6.875  0.6478 -1.0137  0.6460
 5255TIP3    H237325   1.603   6.205   6.882  0.1821  0.0923 -0.5929
 5256TIP3   OH237326   2.533   4.924   1.658  0.0532 -0.0225  0.4489
 5256TIP3    H137327   2.523   5.019   1.672 -0.8540 -0.1145  0.4441
 5256TIP3    H237328   2.446   4.888   1.675  0.7819 -1.0927  2.2665
 5257TIP3   OH237329   1.558   3.319   8.523  0.5231 -0.5239 -0.2838
 5257TIP3    H137330   1.627   3.302   8.587 -0.4980 -0.8908  0.7559
 5257TIP3    H237331   1.517   3.234   8.508  0.1065 -0.2645 -0.6524
 5258TIP3   OH237332   0.371   1.341   0.907 -0.4366 -0.2171  0.1081
 5258TIP3    H137333   0.440   1.395   0.945 -1.2038  0.3387  0.7535
 5258TIP3    H237334   0.345   1.283   0.978 -0.6158 -0.4376 -0.1370
 5259TIP3   OH237335   2.867   0.017   6.950 -0.1031  0.0981  0.1203
 5259TIP3    H137336   2.922   0.080   6.997  2.3359 -1.8057  0.0186
 5259TIP3    H237337   2.826   0.068   6.880  0.6527  1.8193  0.8664
 5260TIP3   OH237338   0.381   2.172   6.662 -0.5675 -0.0724 -0.1988
 5260TIP3    H137339   0.305   2.180   6.604 -1.9516  1.4842  1.7349
 5260TIP3    H237340   0.455   2.199   6.608 -1.6944  0.5884 -1.4665
 5261TIP3   OH237341   0.519   1.074   0.729 -0.4060 -0.1281  0.3504
 5261TIP3    H137342   0.475   0.996   0.762 -0.8664 -1.6370 -3.3559
 5261TIP3    H237343   0.450   1.141   0.729 -1.7358 -1.3586 -1.5616
 5262TIP3   OH237344   3.604   3.927   8.347 -0.0323  0.0993  0.4911
 5262TIP3    H137345   3.610   3.849   8.402  0.6772  0.3607  0.8010
 5262TIP3    H237346   3.680   3.980   8.371  0.0615  0.4179 -0.4412
 5263TIP3   OH237347   1.300   6.731   2.044  0.1563  0.5708  0.8161
 5263TIP3    H137348   1.371   6.739   2.107  0.9429 -0.4964  0.1031
 5263TIP3    H237349   1.339   6.755   1.960 -0.0851 -0.7689  0.2902
 5264TIP3   OH237350   2.327   3.674   7.514  0.2034  0.3306  0.5474
 5264TIP3    H137351   2.406   3.710   7.553 -1.3703  2.0876  2.3534
 5264TIP3    H237352   2.302   3.601   7.571 -0.6551  1.2207  1.3555
 5265TIP3   OH237353   0.770   4.422   7.628  0.1938  0.0410  0.0730
 5265TIP3    H137354   0.688   4.408   7.581  0.7717  0.5400 -1.1415
 5265TIP3    H237355   0.798   4.334   7.653  0.0066 -0.2774 -0.7846
 5266TIP3   OH237356   5.611   0.147   7.323 -0.5234 -0.4391  0.0880
 5266TIP3    H137357   5.613   0.143   7.227  0.2509  0.1166  0.0736
 5266TIP3    H237358   5.615   0.240   7.343  3.2818 -0.5630  0.6729
 5267TIP3   OH237359   6.756   4.705   0.429 -0.1419  0.6819 -0.3115
 5267TIP3    H137360   6.822   4.698   0.360 -1.6892  0.8497 -1.8650
 5267TIP3    H237361   6.773   4.790   0.470  3.0963 -0.9010  2.0803
 5268TIP3   OH237362   6.760   6.841   2.430 -0.3149 -0.0956  0.4520
 5268TIP3    H137363   6.722   6.927   2.415  3.2721  1.4350 -0.7991
 5268TIP3    H237364   6.767   6.802   2.342 -0.0064 -0.7946  0.7755
 5269TIP3   OH237365   2.960   4.241   0.366 -0.1767  0.1243 -0.3184
 5269TIP3    H137366   2.872   4.254   0.402 -0.5652 -1.2426 -0.7279
 5269TIP3    H237367   3.018   4.265   0.437 -0.9216 -1.3710  0.8564
 5270TIP3   OH237368   6.298   0.690   1.273  0.2532 -0.7814 -0.6188
 5270TIP3    H137369   6.249   0.668   1.353  1.8697  0.4032  0.7538
 5270TIP3    H237370   6.356   0.615   1.260 -0.0587 -1.0065 -0.7441
 5271TIP3   OH237371   1.596   1.594   7.051 -0.0896  0.4037 -0.2258
 5271TIP3    H137372   1.685   1.570   7.026 -0.5053  0.4927 -1.9793
 5271TIP3    H237373   1.579   1.675   7.003 -1.2059  0.2168 -0.1731
 5272TIP3   OH237374   3.661   6.677   2.107 -0.0216  0.1698 -0.3948
 5272TIP3    H137375   3.703   6.597   2.137 -2.0410 -0.9559 -0.3610
 5272TIP3    H237376   3.682   6.743   2.173 -0.2858 -0.9621  0.8473
 5273TIP3   OH237377   6.458   6.588   7.387  0.3695  0.5741  0.4148
 5273TIP3    H137378   6.510   6.602   7.466 -1.8660 -1.0320  2.3279
 5273TIP3    H237379   6.442   6.493   7.386 -0.9556  0.7801 -1.1027
 5274TIP3   OH237380   0.761   5.790   7.272 -0.1415  0.1292  0.3448
 5274TIP3    H137381   0.760   5.780   7.368 -0.6528  1.7338  0.5453
 5274TIP3    H237382   0.711   5.716   7.240  1.4471 -1.3941  1.1809
 5275TIP3   OH237383   3.670   1.127   6.177 -0.2015 -0.1606 -0.2756
 5275TIP3    H137384   3.698   1.036   6.189  1.4215  0.2355 -0.8007
 5275TIP3    H237385   3.743   1.179   6.212 -1.2773  0.9486  0.3919
 5276TIP3   OH237386   6.098   6.449   7.088  0.2239  0.3610  0.3855
 5276TIP3    H137387   6.004   6.451   7.073  0.2220 -1.3681 -0.0900
 5276TIP3    H237388   6.136   6.473   7.003  0.1812 -1.9716 -0.3586
 5277TIP3   OH237389   4.223   5.306   1.395 -0.1150 -0.0495 -0.1966
 5277TIP3    H137390   4.167   5.340   1.465  0.6487  1.8164 -0.4367
 5277TIP3    H237391   4.224   5.212   1.409 -2.3140 -0.0286  0.5449
 5278TIP3   OH237392   4.325   5.434   6.822  0.1595  0.7704  0.0032
 5278TIP3    H137393   4.390   5.427   6.752  0.1559  1.3368 -0.0617
 5278TIP3    H237394   4.241   5.427   6.776  0.1623  0.1130  0.0783
 5279TIP3   OH237395   5.544   4.848   8.342  0.0103  0.0879  0.8303
 5279TIP3    H137396   5.497   4.776   8.386  0.3316 -0.7958 -0.2379
 5279TIP3    H237397   5.482   4.921   8.344 -0.9213 -0.6721  0.5850
 5280TIP3   OH237398   3.936   0.772   7.235 -0.2239 -0.3105 -0.4761
 5280TIP3    H137399   3.924   0.780   7.140 -2.0866  0.8043 -0.1991
 5280TIP3    H237400   3.933   0.678   7.251  0.3611 -0.5322 -1.5249
 5281TIP3   OH237401   4.129   4.192   7.065 -1.0323 -0.2329  0.0514
 5281TIP3    H137402   4.124   4.285   7.044 -0.3623 -0.1359  0.2902
 5281TIP3    H237403   4.048   4.173   7.112 -2.5862 -0.4506 -2.5051
 5282TIP3   OH237404   3.637   3.353   7.822 -0.2506 -0.0684  0.3457
 5282TIP3    H137405   3.709   3.416   7.827  1.3320 -1.5163 -1.9447
 5282TIP3    H237406   3.646   3.300   7.901  0.7710  0.2182  0.4359
 5283TIP3   OH237407   2.562   3.595   7.018  0.4456  0.1519  0.5266
 5283TIP3    H137408   2.504   3.668   6.996  0.2401 -0.6305 -1.8407
 5283TIP3    H237409   2.537   3.525   6.957  0.6101 -1.9600  2.7123
 5284TIP3   OH237410   2.230   5.531   8.284  0.1903 -0.1646 -0.0024
 5284TIP3    H137411   2.282   5.566   8.357 -1.3631  0.8853  0.6549
 5284TIP3    H237412   2.288   5.538   8.208  0.0404  4.1758  0.0049
 5285TIP3   OH237413   0.257   4.255   1.783  0.3553  0.4440  0.1410
 5285TIP3    H137414   0.304   4.227   1.705  1.5678  1.3841  0.4992
 5285TIP3    H237415   0.326   4.267   1.849 -0.6495 -0.4555  1.3994
 5286TIP3   OH237416   2.515   3.136   1.308 -1.1412 -0.5110 -0.6297
 5286TIP3    H137417   2.516   3.190   1.387 -0.8173 -2.1878  0.5743
 5286TIP3    H237418   2.606   3.133   1.279 -1.3748  0.7426 -1.5560
 5287TIP3   OH237419   0.637   2.692   7.302  0.0601  0.7683 -0.1796
 5287TIP3    H137420   0.581   2.629   7.256  1.6216 -2.6919  2.2544
 5287TIP3    H237421   0.611   2.777   7.265 -2.2764 -1.1629 -3.6612
 5288TIP3   OH237422   4.984   6.484   6.990  0.0845  0.1112 -0.4534
 5288TIP3    H137423   5.047   6.529   7.047  0.9903  0.2299 -1.5181
 5288TIP3    H237424   4.912   6.459   7.048  0.3819  1.3774  0.4973
 5289TIP3   OH237425   2.580   1.111   6.943  0.2941 -0.2007  0.6654
 5289TIP3    H137426   2.561   1.035   6.998  0.2302  0.1390  1.1254
 5289TIP3    H237427   2.517   1.177   6.971  0.2924 -0.0061  0.2090
 5290TIP3   OH237428   0.601   0.390   8.387 -0.2228  0.4343 -0.5340
 5290TIP3    H137429   0.678   0.337   8.405 -0.3820  0.3371 -0.1198
 5290TIP3    H237430   0.604   0.407   8.293 -0.0514 -0.1222 -0.6276
 5291TIP3   OH237431   6.141   2.899   8.080 -0.3523 -0.4914  0.0483
 5291TIP3    H137432   6.087   2.937   8.149  0.7350  0.2172  0.5303
 5291TIP3    H237433   6.119   2.805   8.081 -1.7723 -0.1804  0.0254
 5292TIP3   OH237434   5.855   0.619   0.356  0.4959  0.5156 -0.6898
 5292TIP3    H137435   5.945   0.652   0.346  0.1686  1.0658 -2.2548
 5292TIP3    H237436   5.860   0.528   0.326  1.0288 -0.3813  1.8593
 5293TIP3   OH237437   0.025   1.355   6.839  0.1725 -0.1843 -0.1837
 5293TIP3    H137438   0.088   1.284   6.851  1.3099  0.7890 -0.2945
 5293TIP3    H237439  -0.020   1.333   6.757  0.4113 -0.8356 -0.1493
 5294TIP3   OH237440   1.077   5.984   0.358  0.7208  0.2533 -0.1375
 5294TIP3    H137441   1.042   6.061   0.312 -1.3747  0.6625  1.9575
 5294TIP3    H237442   1.172   5.996   0.354  0.5360  1.6764 -1.9119
 5295TIP3   OH237443   4.523   0.270   7.302 -0.0939 -0.0977  0.1321
 5295TIP3    H137444   4.518   0.183   7.261 -1.7367 -0.5208  1.1413
 5295TIP3    H237445   4.574   0.255   7.381  1.9557  0.4549 -1.0218
 5296TIP3   OH237446   6.341   5.788   0.642  0.4687  0.4837  0.0158
 5296TIP3    H137447   6.427   5.749   0.658  1.2910  1.8695 -0.8295
 5296TIP3    H237448   6.351   5.880   0.668  0.7961  1.9811 -4.5934
 5297TIP3   OH237449   6.455   5.780   8.357  0.4825  0.4457  0.1151
 5297TIP3    H137450   6.466   5.861   8.308 -0.5908  0.6666  0.2174
 5297TIP3    H237451   6.426   5.716   8.292  0.0211  0.4903  0.2709
 5298TIP3   OH237452   1.432   1.547   0.938  0.3396 -0.3633 -0.0391
 5298TIP3    H137453   1.503   1.593   0.893 -0.8683  0.9340 -0.7071
 5298TIP3    H237454   1.474   1.508   1.015  1.9690 -0.5385 -0.9641
 5299TIP3   OH237455   5.433   2.168   7.305 -1.1822 -0.0453 -0.7127
 5299TIP3    H137456   5.448   2.259   7.333  0.9928 -0.5434 -0.1336
 5299TIP3    H237457   5.366   2.136   7.366 -2.5707  1.3638 -1.4114
 5300TIP3   OH237458   4.526   5.737   8.441  0.7778 -0.1330 -0.2102
 5300TIP3    H137459   4.455   5.801   8.438 -0.6626 -1.4808  2.1532
 5300TIP3    H237460   4.606   5.788   8.430 -0.1203  2.5132  3.6028
 5301TIP3   OH237461   2.143   5.804   1.429 -0.2822 -0.0297 -0.0397
 5301TIP3    H137462   2.071   5.748   1.458  1.3229 -2.0580  0.2405
 5301TIP3    H237463   2.101   5.869   1.372 -2.1713 -1.9576 -0.9941
 5302TIP3   OH237464   1.338   4.547   8.284 -0.3062  0.3410  0.0907
 5302TIP3    H137465   1.332   4.520   8.192 -1.0381 -0.7298  0.4405
 5302TIP3    H237466   1.300   4.635   8.286  1.8154  1.3746 -1.0060
 5303TIP3   OH237467   4.772   6.677   0.754 -0.0454  0.8509 -0.3635
 5303TIP3    H137468   4.852   6.725   0.734  0.2911  0.0071 -1.1293
 5303TIP3    H237469   4.800   6.586   0.760 -0.5741  0.7731  1.5639
 5304TIP3   OH237470   3.622   5.408   1.284 -0.1628 -0.0505  0.1427
 5304TIP3    H137471   3.628   5.502   1.304  1.4869 -0.0235 -0.3214
 5304TIP3    H237472   3.675   5.397   1.204 -2.5978 -0.9424 -1.4553
 5305TIP3   OH237473   4.945   6.170   0.867 -0.0237  0.7514 -0.2205
 5305TIP3    H137474   5.018   6.160   0.928 -0.5706 -1.0612  0.1924
 5305TIP3    H237475   4.959   6.102   0.801 -1.8955 -0.3965  0.4864
 5306TIP3   OH237476   1.452   3.859   2.450  0.3346  0.1669 -0.1737
 5306TIP3    H137477   1.378   3.802   2.430 -0.5778  1.8302 -1.8591
 5306TIP3    H237478   1.524   3.799   2.471 -0.9395 -1.5379 -0.4520
 5307TIP3   OH237479   1.748   6.418   2.655 -0.0314  0.4359 -0.0721
 5307TIP3    H137480   1.838   6.431   2.685  0.1219  1.3941 -0.8916
 5307TIP3    H237481   1.753   6.426   2.560 -0.9140  0.0488 -0.1602
 5308TIP3   OH237482   1.086   6.819   7.528  0.3338  0.0039  0.9666
 5308TIP3    H137483   1.153   6.759   7.494  1.6174  1.4536  0.8205
 5308TIP3    H237484   1.127   6.906   7.523 -2.3091  1.2838 -1.1666
 5309TIP3   OH237485   3.227   0.364   1.958  0.2486 -0.2293  0.4372
 5309TIP3    H137486   3.234   0.359   2.053  2.7544  0.1222  0.3511
 5309TIP3    H237487   3.317   0.376   1.928 -0.4004 -0.8670 -2.0290
 5310TIP3   OH237488   0.576   5.124   1.838  0.5037 -0.4134  0.3238
 5310TIP3    H137489   0.603   5.215   1.842 -0.9538  0.0305  0.5958
 5310TIP3    H237490   0.501   5.124   1.778  1.4143 -1.6863 -0.8918
 5311TIP3   OH237491   5.206   3.425   1.850 -1.3337 -0.3690 -0.1047
 5311TIP3    H137492   5.248   3.346   1.816 -2.0597 -0.1158 -1.6953
 5311TIP3    H237493   5.112   3.407   1.843 -1.5112  0.6881 -0.6965
 5312TIP3   OH237494   3.489   4.284   6.861 -0.4212  0.8451  1.0481
 5312TIP3    H137495   3.488   4.377   6.838 -3.2930  0.3556 -1.5775
 5312TIP3    H237496   3.582   4.261   6.869  0.4312  3.5122 -0.1979
 5313TIP3   OH237497   5.470   0.554   0.331  0.1412 -0.3368 -0.4975
 5313TIP3    H137498   5.497   0.593   0.414 -0.7530  1.0278 -0.8188
 5313TIP3    H237499   5.376   0.541   0.340  0.0892 -0.4658 -1.1762
 5314TIP3   OH237500   1.874   4.204   0.855  0.2623 -0.4845  0.5675
 5314TIP3    H137501   1.844   4.292   0.876  0.6389 -0.3737  0.6535
 5314TIP3    H237502   1.967   4.203   0.881  0.0169 -1.2071  1.4855
 5315TIP3   OH237503   5.589   4.130   6.709  0.1382  0.2579 -0.1722
 5315TIP3    H137504   5.586   4.220   6.675  0.8239 -0.0568 -1.0951
 5315TIP3    H237505   5.640   4.137   6.789 -1.2466  0.9597  0.7035
 5316TIP3   OH237506   2.736   3.073   2.051 -0.0398 -0.6528  0.2367
 5316TIP3    H137507   2.803   3.010   2.079 -0.7461 -2.5173 -1.8892
 5316TIP3    H237508   2.662   3.056   2.109  0.4075 -0.4641  0.8742
 5317TIP3   OH237509   5.664   0.077   1.224  0.0271 -0.5496  0.3645
 5317TIP3    H137510   5.699   0.054   1.310 -1.0840 -0.1824  0.9400
 5317TIP3    H237511   5.695   0.167   1.209 -1.8271  0.3731  1.5732
 5318TIP3   OH237512   6.711   5.253   6.347 -0.1932  0.0830 -0.3024
 5318TIP3    H137513   6.687   5.343   6.326  1.1822 -0.2361 -3.9652
 5318TIP3    H237514   6.633   5.202   6.326  0.7156 -0.0598 -4.0132
 5319TIP3   OH237515   3.381   3.779   0.459 -0.0376  0.0772 -0.1100
 5319TIP3    H137516   3.314   3.777   0.527  1.2572  0.7120  1.2329
 5319TIP3    H237517   3.380   3.869   0.426  0.6178  0.2864  0.4180
 5320TIP3   OH237518   3.525   4.994   7.119  0.3603 -0.4472 -0.3876
 5320TIP3    H137519   3.462   5.041   7.064  1.3864  1.2224 -0.2036
 5320TIP3    H237520   3.576   4.942   7.057 -0.7706 -1.3563 -0.5980
 5321TIP3   OH237521   4.612   6.572   0.416 -0.0097  0.3789  0.1663
 5321TIP3    H137522   4.517   6.580   0.419  0.0898  1.4775  0.8408
 5321TIP3    H237523   4.629   6.479   0.433 -0.9558  0.1416 -0.1255
 5322TIP3   OH237524   3.245   5.684   8.083 -0.3565  0.0998 -0.2908
 5322TIP3    H137525   3.263   5.669   7.991 -0.5605 -0.0465 -0.3092
 5322TIP3    H237526   3.215   5.599   8.115  1.3588 -0.3193  0.3207
 5323TIP3   OH237527   2.296   1.754   8.340  0.2191  0.1339 -0.1531
 5323TIP3    H137528   2.205   1.728   8.324 -0.9207  2.1391  2.2356
 5323TIP3    H237529   2.315   1.817   8.270 -0.9696  1.1227  0.3590
 5324TIP3   OH237530   6.392   4.877   0.085  0.1141 -0.0674 -0.4509
 5324TIP3    H137531   6.360   4.787   0.083 -1.6902  0.4955  0.4201
 5324TIP3    H237532   6.400   4.897   0.179  2.6645  0.0066 -0.6129
 5325TIP3   OH237533   6.702   5.187   8.052 -0.3212  0.0287  0.3862
 5325TIP3    H137534   6.690   5.099   8.089  0.8067 -0.8231 -1.1648
 5325TIP3    H237535   6.797   5.200   8.050 -0.2667 -0.1336 -2.4062
 5326TIP3   OH237536   4.602   3.493   2.238  0.0936  0.2098  0.3064
 5326TIP3    H137537   4.623   3.581   2.208  1.1806 -0.0199  0.3588
 5326TIP3    H237538   4.511   3.499   2.269  0.5485  1.6034  1.4437
 5327TIP3   OH237539   0.699   5.319   8.237 -0.0216  0.3531  0.4966
 5327TIP3    H137540   0.776   5.331   8.293 -0.2582  0.4404  0.8098
 5327TIP3    H237541   0.632   5.285   8.297 -0.0315 -0.3399  0.0903
 5328TIP3   OH237542   1.040   5.807   1.660  0.0087 -0.0049 -0.9278
 5328TIP3    H137543   1.128   5.787   1.692 -0.2109 -0.2806 -0.5004
 5328TIP3    H237544   1.038   5.902   1.653  0.4325 -0.0135 -1.2028
 5329TIP3   OH237545   2.439   0.471   1.362 -0.0962  0.4786  0.2850
 5329TIP3    H137546   2.348   0.466   1.392 -0.0163  0.2505  0.5009
 5329TIP3    H237547   2.449   0.560   1.328 -0.0587  0.9117  1.3898
 5330TIP3   OH237548   4.732   1.460   6.784  0.4007 -0.0944  0.2627
 5330TIP3    H137549   4.643   1.485   6.760  1.1452  0.8811 -1.6696
 5330TIP3    H237550   4.768   1.418   6.706  1.3941 -1.1741  1.2647
 5331TIP3   OH237551   4.825   2.686   0.945 -0.1559  0.6826  0.1823
 5331TIP3    H137552   4.899   2.634   0.914  0.9138  1.3553  1.4966
 5331TIP3    H237553   4.806   2.651   1.032 -0.6920  1.2172  0.2875
 5332TIP3   OH237554   4.051   1.162   7.887 -0.8549  0.2343 -0.1371
 5332TIP3    H137555   4.099   1.211   7.820 -1.7846  2.7295  0.9371
 5332TIP3    H237556   4.102   1.173   7.967 -0.5608 -1.4467 -0.0556
 5333TIP3   OH237557   2.999   4.597   0.304  0.0652 -0.0428 -0.1744
 5333TIP3    H137558   2.938   4.667   0.281  0.1941 -0.2506 -1.1926
 5333TIP3    H237559   3.016   4.552   0.222 -1.2502 -2.2966  0.6938
 5334TIP3   OH237560   0.935   4.860   0.108  0.3446  0.1939 -0.5126
 5334TIP3    H137561   1.023   4.888   0.082  0.4739  0.8727  0.6063
 5334TIP3    H237562   0.883   4.870   0.029  1.1538  0.3152 -1.0463
 5335TIP3   OH237563   0.398   5.096   1.627  0.1821  0.4932  0.3697
 5335TIP3    H137564   0.308   5.128   1.641  0.2322  1.0711 -0.5375
 5335TIP3    H237565   0.389   5.026   1.563  0.4406  1.0060 -0.2400
 5336TIP3   OH237566   1.918   0.999   0.731 -0.0010  0.1702 -0.2267
 5336TIP3    H137567   1.940   1.091   0.715  0.0674  0.0410 -0.9358
 5336TIP3    H237568   1.897   0.964   0.644  0.1079 -0.5181  0.0164
 5337TIP3   OH237569   5.242   6.524   1.068  0.5229  0.3941 -0.1493
 5337TIP3    H137570   5.265   6.609   1.104 -2.0655  2.3129 -2.5432
 5337TIP3    H237571   5.325   6.487   1.038  1.7153  2.1117  0.8443
 5338TIP3   OH237572   3.436   6.334   0.100  0.0577 -0.0576 -0.0102
 5338TIP3    H137573   3.443   6.242   0.075  0.7421  0.2127 -0.8601
 5338TIP3    H237574   3.367   6.336   0.166 -0.9041 -0.9947 -0.9540
 5339TIP3   OH237575   4.321   4.940   6.653  0.3253 -0.2824 -0.1477
 5339TIP3    H137576   4.289   5.007   6.593 -2.4269 -0.7657  0.5911
 5339TIP3    H237577   4.263   4.948   6.729  1.6123 -1.7953  1.0515
 5340TIP3   OH237578   2.577   1.949   2.169  0.1455  0.2254  0.4265
 5340TIP3    H137579   2.666   1.936   2.204  1.0082  1.5730 -1.1329
 5340TIP3    H237580   2.531   1.998   2.237  0.9236  0.4273  0.8171
 5341TIP3   OH237581   2.597   5.765   2.079 -0.0476 -0.0011  0.3718
 5341TIP3    H137582   2.574   5.737   2.168  0.4749  0.7552  0.7603
 5341TIP3    H237583   2.630   5.685   2.037 -0.1394 -0.3286  0.9098
 5342TIP3   OH237584   5.900   6.901   0.417  0.3821  0.4964  0.2369
 5342TIP3    H137585   5.946   6.820   0.394  1.0487  0.8590  0.2480
 5342TIP3    H237586   5.967   6.969   0.410 -0.8890  1.5931 -3.0255
 5343TIP3   OH237587   2.352   1.201   0.101 -0.2926 -0.3074 -0.1752
 5343TIP3    H137588   2.438   1.241   0.090 -0.8620  0.4480 -2.3772
 5343TIP3    H237589   2.347   1.135   0.032 -1.4067 -0.4584  0.0301
 5344TIP3   OH237590   1.936   5.712   2.167 -0.0509 -0.0604 -0.2697
 5344TIP3    H137591   1.870   5.772   2.133 -1.2781 -0.9308  0.4616
 5344TIP3    H237592   1.975   5.757   2.242 -1.1649 -0.2538  0.4523
 5345TIP3   OH237593   3.067   5.530   0.444  0.2398 -0.5614  0.4094
 5345TIP3    H137594   2.978   5.537   0.410  0.7548  1.5775 -0.6642
 5345TIP3    H237595   3.077   5.437   0.465 -2.2006 -0.8711  0.5171
 5346TIP3   OH237596   2.102   0.073   0.477  0.2134 -0.4164 -0.5306
 5346TIP3    H137597   2.040   0.121   0.532 -0.1741 -1.5398  0.0240
 5346TIP3    H237598   2.185   0.120   0.488 -0.0669 -0.1020  0.3065
 5347TIP3   OH237599   0.867   1.727   6.234  0.1311 -0.3456 -0.2001
 5347TIP3    H137600   0.935   1.679   6.186  0.5116  1.3757 -1.4817
 5347TIP3    H237601   0.916   1.784   6.294 -0.2903 -0.8772  0.6749
 5348TIP3   OH237602   1.211   5.762   7.848 -0.2586  0.4709 -0.5841
 5348TIP3    H137603   1.163   5.751   7.766 -2.2425 -1.3127  0.7465
 5348TIP3    H237604   1.214   5.857   7.861 -0.8564  0.7356 -2.1306
 5349TIP3   OH237605   0.326   2.888   6.673  0.0273  0.0007  0.0251
 5349TIP3    H137606   0.316   2.973   6.630 -1.1881 -0.4564 -0.6534
 5349TIP3    H237607   0.328   2.824   6.602 -1.2836 -0.7142  0.5811
 5350TIP3   OH237608   0.539   5.127   0.523 -0.4784 -0.0290  0.7754
 5350TIP3    H137609   0.561   5.200   0.581  1.3755 -0.0182  0.1407
 5350TIP3    H237610   0.526   5.053   0.583 -0.7678  0.4524  1.3241
 5351TIP3   OH237611   2.823   1.052   1.985 -0.0533  0.1814 -0.0796
 5351TIP3    H137612   2.783   1.001   1.915  0.2259  0.4013 -0.4009
 5351TIP3    H237613   2.758   1.119   2.007 -1.1270 -1.3153  1.4920
 5352TIP3   OH237614   5.823   6.188   7.986 -0.4008 -0.5093  0.7006
 5352TIP3    H137615   5.744   6.139   7.969 -0.4924 -0.0726 -0.1789
 5352TIP3    H237616   5.888   6.152   7.926 -0.3643  0.1745  0.3217
 5353TIP3   OH237617   1.848   3.962   8.275 -0.0869 -0.0979  0.2269
 5353TIP3    H137618   1.889   4.027   8.217  0.5704  0.2726  1.0816
 5353TIP3    H237619   1.822   3.891   8.217 -0.4513  0.7484 -0.6762
 5354TIP3   OH237620   4.639   3.517   7.095 -0.4271  0.3286 -0.4005
 5354TIP3    H137621   4.573   3.538   7.030 -1.6529  0.9142  0.9621
 5354TIP3    H237622   4.589   3.489   7.172  0.9401 -0.0272  0.4011
 5355TIP3   OH237623   5.858   4.647   0.733  0.1821 -0.4963  0.0424
 5355TIP3    H137624   5.813   4.588   0.793 -2.0932  1.4297  0.3857
 5355TIP3    H237625   5.860   4.600   0.649 -1.7936 -0.9989  0.2349
 5356TIP3   OH237626   5.042   6.489   0.272 -0.4102 -0.6164 -0.7183
 5356TIP3    H137627   5.071   6.399   0.288 -0.3473 -0.7178 -1.3711
 5356TIP3    H237628   5.035   6.495   0.177 -1.5532 -0.2805 -0.6281
 5357TIP3   OH237629   3.002   3.059   6.843  0.3351  0.0527  0.2470
 5357TIP3    H137630   2.993   2.964   6.834 -1.8386  0.1963  0.2802
 5357TIP3    H237631   2.968   3.095   6.761 -0.2143  0.8286  0.7936
 5358TIP3   OH237632   0.963   4.958   2.663  0.1914  0.0349  0.2061
 5358TIP3    H137633   0.982   4.891   2.728 -0.1098  0.0673  0.3311
 5358TIP3    H237634   0.874   4.936   2.632  0.2678  0.1153 -0.0735
 5359TIP3   OH237635   6.328   6.186   2.132 -0.0432 -0.1224  0.7114
 5359TIP3    H137636   6.378   6.109   2.105  1.8768  1.0622  0.7134
 5359TIP3    H237637   6.349   6.197   2.224 -1.0310 -0.0985  0.9433
 5360TIP3   OH237638   1.108   4.635   0.757  0.7856 -0.5910  0.0892
 5360TIP3    H137639   1.161   4.605   0.832  2.2171  1.4016 -0.0617
 5360TIP3    H237640   1.063   4.713   0.789 -0.6667 -1.2037 -0.3773
 5361TIP3   OH237641   3.958   3.238   8.008  0.2247  0.3492  0.7041
 5361TIP3    H137642   4.011   3.249   8.087  0.0974  0.7000  0.7424
 5361TIP3    H237643   4.009   3.281   7.939 -0.1152  0.8847  0.7856
 5362TIP3   OH237644   0.887   3.715   2.341 -0.4301  0.5134 -0.3234
 5362TIP3    H137645   0.810   3.660   2.354 -0.7723  1.0528  0.0074
 5362TIP3    H237646   0.893   3.767   2.421  0.7988 -0.1337  0.0344
 5363TIP3   OH237647   2.640   4.552   6.941  0.4044  0.6999  0.0947
 5363TIP3    H137648   2.716   4.494   6.948  0.9872  1.6067  3.2374
 5363TIP3    H237649   2.564   4.494   6.940  1.0500 -0.1801  0.8851
 5364TIP3   OH237650   2.825   0.141   7.855 -0.2788  0.1325  0.1010
 5364TIP3    H137651   2.737   0.117   7.827 -0.0261 -1.0530  0.2668
 5364TIP3    H237652   2.846   0.080   7.926  0.4989  0.7017  0.3817
 5365TIP3   OH237653   0.198   1.330   8.125 -0.0416 -0.2471 -0.4750
 5365TIP3    H137654   0.284   1.293   8.105 -0.1042 -0.3096 -0.6275
 5365TIP3    H237655   0.218   1.412   8.171  0.1235  0.4088 -1.6819
 5366TIP3   OH237656   4.460   2.967   1.459 -0.2776 -1.1042 -0.4872
 5366TIP3    H137657   4.540   3.016   1.477 -0.4353 -0.8555 -0.4503
 5366TIP3    H237658   4.451   2.908   1.534 -0.8686 -0.1530  0.2115
 5367TIP3   OH237659   6.746   2.527   0.886 -0.3800 -0.3250  0.0148
 5367TIP3    H137660   6.698   2.608   0.872 -1.0388 -0.3349  1.9315
 5367TIP3    H237661   6.755   2.489   0.799 -0.1191  1.7473 -0.9202
 5368TIP3   OH237662   5.324   0.748   0.563 -0.0222 -0.1408 -0.3489
 5368TIP3    H137663   5.231   0.771   0.566 -0.0575 -0.0290 -1.9077
 5368TIP3    H237664   5.334   0.683   0.633 -1.0497  0.5892  0.5047
 5369TIP3   OH237665   4.953   3.225   7.252 -0.4166 -0.3871  0.2344
 5369TIP3    H137666   4.930   3.280   7.327 -0.8160 -0.0484 -0.1281
 5369TIP3    H237667   4.977   3.141   7.290  0.8755  0.2324  0.8633
 5370TIP3   OH237668   0.405   3.712   7.720  0.3002 -0.3425 -0.2647
 5370TIP3    H137669   0.465   3.655   7.673  0.6782  0.5869 -0.9459
 5370TIP3    H237670   0.415   3.798   7.678  0.4339  0.4626  1.3111
 5371TIP3   OH237671   0.806   2.525   7.454  0.0334 -0.0789  0.3056
 5371TIP3    H137672   0.726   2.564   7.419 -0.6801 -0.1870  1.7303
 5371TIP3    H237673   0.783   2.434   7.472  1.3576 -0.9609 -1.9318
 5372TIP3   OH237674   5.715   4.036   1.444  0.1210  0.0795  0.1531
 5372TIP3    H137675   5.657   3.966   1.473 -0.1910 -0.2938 -1.2609
 5372TIP3    H237676   5.713   4.100   1.514  0.0119 -1.0937  1.2586
 5373TIP3   OH237677   4.132   5.230   0.251 -0.2332 -0.0387 -0.6483
 5373TIP3    H137678   4.129   5.234   0.346  0.2188 -0.0679 -0.6313
 5373TIP3    H237679   4.051   5.184   0.226 -1.0395  1.1794 -0.3643
 5374TIP3   OH237680   5.009   1.696   1.596 -0.4221  0.6119 -0.2840
 5374TIP3    H137681   5.056   1.764   1.548 -1.7755  2.5803  0.9976
 5374TIP3    H237682   5.063   1.679   1.673 -0.4602  0.8619 -0.1990
 5375TIP3   OH237683   5.039   2.313   7.030  0.1821 -0.0521  0.3032
 5375TIP3    H137684   5.113   2.252   7.021  0.5313  0.4313 -0.1347
 5375TIP3    H237685   4.962   2.259   7.013  0.4852 -0.3915 -0.0191
 5376TIP3   OH237686   2.895   1.528   1.778  0.3686  0.0225 -0.0072
 5376TIP3    H137687   2.846   1.514   1.859  0.4273 -0.7727 -0.1027
 5376TIP3    H237688   2.961   1.459   1.778  1.9074  1.4379  0.4173
 5377TIP3   OH237689   2.068   6.437   2.893  0.0871  0.5170 -0.8067
 5377TIP3    H137690   2.052   6.434   2.799  3.2733 -1.5516 -1.4608
 5377TIP3    H237691   2.058   6.346   2.922  2.9173  0.3490 -0.0375
 5378TIP3   OH237692   2.219   1.519   1.711 -0.4346  0.2378 -0.0243
 5378TIP3    H137693   2.271   1.446   1.744  0.9561  1.5127  0.7790
 5378TIP3    H237694   2.271   1.555   1.640 -1.9631 -0.5972 -1.6518
 5379TIP3   OH237695   2.271   4.768   6.726 -0.1405  0.5350  0.2412
 5379TIP3    H137696   2.252   4.850   6.679  1.3410  0.4556 -0.5780
 5379TIP3    H237697   2.365   4.773   6.743 -0.2912 -0.3999  1.3869
 5380TIP3   OH237698   4.799   3.872   6.352  0.3893  0.2705 -0.6132
 5380TIP3    H137699   4.839   3.791   6.322  0.8747  0.3690 -0.2498
 5380TIP3    H237700   4.754   3.907   6.275 -0.6000 -0.7992 -0.5419
 5381TIP3   OH237701   0.356   4.141   7.072 -0.0300  0.0680 -0.1248
 5381TIP3    H137702   0.297   4.083   7.023 -0.5298  1.2801 -1.0106
 5381TIP3    H237703   0.397   4.196   7.005  0.4514  0.7269  0.6840
 5382TIP3   OH237704   1.655   6.883   8.438  0.5344 -0.3332  0.0181
 5382TIP3    H137705   1.690   6.824   8.504  1.3574  0.2894  0.1608
 5382TIP3    H237706   1.574   6.916   8.475  0.1135 -1.2825 -0.0224
 5383TIP3   OH237707   6.150   1.459   0.480  0.5665  0.8161  0.0360
 5383TIP3    H137708   6.141   1.443   0.386 -0.5536  1.8904 -0.0722
 5383TIP3    H237709   6.162   1.373   0.519 -1.6827  0.0512 -0.8343
 5384TIP3   OH237710   3.536   4.672   0.011  0.2838 -0.0548 -0.3374
 5384TIP3    H137711   3.508   4.703  -0.075 -0.0002  0.2117 -0.1560
 5384TIP3    H237712   3.501   4.584   0.018  0.5191 -0.1675 -0.5935
 5385TIP3   OH237713   4.205   4.681   8.086  0.3648 -0.2813  0.0017
 5385TIP3    H137714   4.252   4.734   8.022 -1.1042  0.9531 -0.1005
 5385TIP3    H237715   4.272   4.653   8.148  1.3814  0.6066 -0.6627
 5386TIP3   OH237716   5.049   4.499   2.268 -0.3899 -0.4021  0.2703
 5386TIP3    H137717   5.116   4.547   2.316 -1.7831 -1.6002  3.7826
 5386TIP3    H237718   4.986   4.566   2.240  0.8925  0.4287 -0.6981
 5387TIP3   OH237719   5.082   6.798   6.727 -0.0422 -0.0581  0.1533
 5387TIP3    H137720   5.102   6.887   6.756 -0.5502  0.0541  0.1680
 5387TIP3    H237721   5.164   6.750   6.740 -0.1284  0.0846  1.3785
 5388TIP3   OH237722   1.427   6.638   0.147  0.0828  0.6248  0.1782
 5388TIP3    H137723   1.387   6.702   0.088  2.5962  1.3355 -0.8993
 5388TIP3    H237724   1.434   6.558   0.094 -1.1217  0.0563  0.8332
 5389TIP3   OH237725   5.334   5.533   7.288  0.1422 -0.0640 -0.1088
 5389TIP3    H137726   5.414   5.579   7.310  0.4299 -0.2732 -0.6731
 5389TIP3    H237727   5.265   5.599   7.294  0.4022  0.1936  0.0659
 5390TIP3   OH237728   2.573   5.673   7.660 -0.9258  0.4200  0.0114
 5390TIP3    H137729   2.550   5.609   7.594  0.7778  1.4765 -1.7023
 5390TIP3    H237730   2.578   5.756   7.613 -0.3310  1.3427  1.6024
 5391TIP3   OH237731   4.861   1.094   6.476 -0.5665 -0.1314  0.3140
 5391TIP3    H137732   4.821   1.057   6.554 -1.3662 -2.1126 -0.9779
 5391TIP3    H237733   4.849   1.028   6.408  0.3946  1.3762 -1.4290
 5392TIP3   OH237734   0.313   2.921   6.966 -0.0463 -0.5489  0.0405
 5392TIP3    H137735   0.403   2.927   6.997  0.0787  2.3934 -0.6278
 5392TIP3    H237736   0.319   2.935   6.871 -1.1688 -1.0471 -0.1250
 5393TIP3   OH237737   6.068   6.476   0.105 -0.2357  0.5139 -0.3524
 5393TIP3    H137738   5.990   6.435   0.143 -0.5268  2.5577  1.4468
 5393TIP3    H237739   6.049   6.479   0.011 -0.9473 -1.7450 -0.3479
 5394TIP3   OH237740   1.311   4.968   7.187 -0.2317 -0.4847  0.1162
 5394TIP3    H137741   1.303   5.063   7.184  2.8487 -0.0865  1.0362
 5394TIP3    H237742   1.374   4.947   7.119  0.6595 -1.6224  1.2486
 5395TIP3   OH237743   1.418   3.109   7.101  0.9067  0.8206 -0.5565
 5395TIP3    H137744   1.406   3.163   7.179  3.2048  1.2155 -0.4117
 5395TIP3    H237745   1.412   3.171   7.028 -2.4955  0.2709 -0.8885
 5396TIP3   OH237746   2.969   3.461   1.085  0.3849  0.2571 -0.1366
 5396TIP3    H137747   3.028   3.388   1.101  0.1021  0.3968  1.9304
 5396TIP3    H237748   2.950   3.496   1.173 -3.6606 -0.4990 -0.5085
 5397TIP3   OH237749   1.718   5.221   6.678  0.0527 -0.0418  0.4675
 5397TIP3    H137750   1.758   5.144   6.637 -1.2113 -0.3304 -0.2926
 5397TIP3    H237751   1.685   5.273   6.605  0.5025  1.0197  0.9976
 5398TIP3   OH237752   5.324   4.217   1.884 -0.1256  0.3544 -0.4963
 5398TIP3    H137753   5.267   4.282   1.925 -1.7011 -0.0870 -1.8459
 5398TIP3    H237754   5.277   4.134   1.894  1.2856 -0.3904  0.1462
 5399TIP3   OH237755   3.215   3.105   1.962  0.3407  0.4956  0.4001
 5399TIP3    H137756   3.181   3.094   1.873  0.1970 -2.0366  0.7009
 5399TIP3    H237757   3.219   3.200   1.974 -0.5504  0.9083 -1.9426
 5400TIP3   OH237758   6.302   6.372   8.351 -0.1085 -0.1902 -0.0642
 5400TIP3    H137759   6.280   6.462   8.376 -1.5905 -0.5591  0.0514
 5400TIP3    H237760   6.353   6.382   8.271  1.3415  0.8230  0.9234
 5401TIP3   OH237761   4.692   3.711   7.318 -0.1404  0.0858  0.5827
 5401TIP3    H137762   4.783   3.740   7.328 -0.2766  1.2626 -1.0450
 5401TIP3    H237763   4.692   3.658   7.238 -0.6285 -1.2272  1.4216
 5402TIP3   OH237764   0.589   1.043   1.165  0.3717 -0.1215  0.4627
 5402TIP3    H137765   0.628   1.097   1.234  0.5999 -1.2517  1.2492
 5402TIP3    H237766   0.519   1.097   1.130  1.4331  1.2134  0.2987
 5403TIP3   OH237767   3.876   2.728   8.418 -0.5933 -0.5069 -0.3379
 5403TIP3    H137768   3.895   2.659   8.482 -0.5219  0.4225  0.6694
 5403TIP3    H237769   3.793   2.703   8.379 -1.1403 -0.5869  0.8445
 5404TIP3   OH237770   5.245   2.957   7.177 -0.3156 -0.5082  0.0127
 5404TIP3    H137771   5.330   2.926   7.209  0.6559 -1.6304 -3.2695
 5404TIP3    H237772   5.217   2.891   7.115 -2.2787  1.1836 -1.0165
 5405TIP3   OH237773   3.043   5.923   1.148 -0.7086  0.9220  0.2604
 5405TIP3    H137774   3.030   5.982   1.074  0.1841  0.1857 -0.4965
 5405TIP3    H237775   2.973   5.946   1.209 -1.1117  1.9259 -0.5582
 5406TIP3   OH237776   3.476   1.394   8.156 -0.3022 -0.2056 -0.2821
 5406TIP3    H137777   3.567   1.378   8.180 -0.4780  0.4621  0.9053
 5406TIP3    H237778   3.450   1.469   8.210 -1.2005  0.3832 -1.4905
 5407TIP3   OH237779   1.886   2.775   7.939  0.0787 -0.2422  1.0608
 5407TIP3    H137780   1.981   2.769   7.925 -0.2425 -1.7122 -0.9791
 5407TIP3    H237781   1.875   2.772   8.034  2.1202  1.2902  1.4133
 5408TIP3   OH237782   4.402   2.282   6.669 -0.2707 -0.2175 -0.4149
 5408TIP3    H137783   4.370   2.332   6.594 -1.2617  1.0982  0.8136
 5408TIP3    H237784   4.442   2.204   6.631 -0.4066  0.5785 -2.3125
 5409TIP3   OH237785   5.199   2.289   7.537 -0.3753 -0.3719  0.4883
 5409TIP3    H137786   5.136   2.272   7.607  0.6239 -1.5385  1.1226
 5409TIP3    H237787   5.180   2.223   7.470 -0.0748 -0.4775  0.5066
 5410TIP3   OH237788   1.864   1.291   0.082  0.0350  0.5557  0.3888
 5410TIP3    H137789   1.773   1.293   0.050 -0.4364  0.1076  1.6644
 5410TIP3    H237790   1.915   1.263   0.006 -1.0038 -0.1199 -0.0840
 5411TIP3   OH237791   1.284   0.248   8.311 -0.5398  0.1035  0.3906
 5411TIP3    H137792   1.218   0.306   8.350  0.6149  0.7204  1.4770
 5411TIP3    H237793   1.344   0.227   8.383 -0.0781 -1.2405 -0.3428
 5412TIP3   OH237794   4.049   4.290   7.598 -0.4119 -0.0333  0.3423
 5412TIP3    H137795   3.958   4.292   7.567 -0.1599  0.1357 -0.4012
 5412TIP3    H237796   4.067   4.379   7.627 -0.0411  0.2992 -0.8474
 5413TIP3   OH237797   6.269   6.393   0.303 -0.3766 -0.6050 -0.1940
 5413TIP3    H137798   6.216   6.412   0.226  0.9652 -0.8223 -1.2036
 5413TIP3    H237799   6.304   6.305   0.287  0.7899 -0.2236  0.1380
 5414TIP3   OH237800   0.853   3.851   1.601  0.3701  0.3347 -0.0410
 5414TIP3    H137801   0.843   3.934   1.553 -2.4806 -0.2147 -0.5710
 5414TIP3    H237802   0.924   3.806   1.556  1.7823  2.3130  0.0633
 5415TIP3   OH237803   4.055   1.565   0.240  0.2723  1.1302  0.2522
 5415TIP3    H137804   4.020   1.654   0.235 -2.1686  0.2127 -1.4156
 5415TIP3    H237805   4.057   1.535   0.149  0.9611 -0.5357  0.7703
 5416TIP3   OH237806   5.588   5.289   0.863 -0.1128 -0.2500 -0.0174
 5416TIP3    H137807   5.670   5.338   0.873  0.3943 -0.8055 -1.2387
 5416TIP3    H237808   5.520   5.348   0.896  0.7791  0.1891  1.0845
 5417TIP3   OH237809   6.681   5.766   7.008  0.3603 -0.2473 -0.4856
 5417TIP3    H137810   6.730   5.705   7.062  0.3864 -1.5839 -1.9445
 5417TIP3    H237811   6.630   5.710   6.949 -1.3304  1.1190 -0.3983
 5418TIP3   OH237812   5.150   6.476   2.024  0.0302 -0.6380  0.7825
 5418TIP3    H137813   5.213   6.531   2.071 -0.5308 -0.3152  1.1572
 5418TIP3    H237814   5.125   6.408   2.087 -0.7105 -0.2153  0.9498
 5419TIP3   OH237815   4.213   3.192   6.216 -0.6192  0.0208 -0.1185
 5419TIP3    H137816   4.158   3.245   6.158  0.5004 -0.0907 -1.3370
 5419TIP3    H237817   4.185   3.215   6.304 -1.7298  0.9108 -0.6823
 5420TIP3   OH237818   5.071   4.624   7.823  0.7441  0.1466  0.4231
 5420TIP3    H137819   5.062   4.709   7.866  1.1849 -0.2558  1.3372
 5420TIP3    H237820   5.071   4.560   7.894  0.4501 -0.6277 -0.2462
 5421TIP3   OH237821   4.684   1.003   7.254  0.2322 -0.1082  0.5878
 5421TIP3    H137822   4.676   1.098   7.266  2.7005  0.0398  1.5697
 5421TIP3    H237823   4.619   0.982   7.186 -0.9184  2.1315  0.8960
 5422TIP3   OH237824   2.638   5.980   6.837  0.3851  0.2380 -0.0955
 5422TIP3    H137825   2.719   6.018   6.872  0.6845  0.8360 -1.3627
 5422TIP3    H237826   2.665   5.895   6.802  0.3705  0.2287 -0.0840
 5423TIP3   OH237827   5.452   2.299   6.912 -0.5004 -0.1702  0.0308
 5423TIP3    H137828   5.536   2.262   6.886 -0.1019  1.0607 -0.4642
 5423TIP3    H237829   5.414   2.333   6.831 -1.3926 -0.5216  0.2837
 5424TIP3   OH237830   3.373   4.092   8.459  0.2150 -0.1206  0.4543
 5424TIP3    H137831   3.433   4.093   8.533 -1.7224 -0.5963  2.1166
 5424TIP3    H237832   3.407   4.024   8.401  2.5763  1.2414  0.1258
 5425TIP3   OH237833   4.254   0.168   1.487  0.1211 -1.0651  0.2142
 5425TIP3    H137834   4.180   0.190   1.431  0.0487 -1.6359  0.0825
 5425TIP3    H237835   4.217   0.171   1.576  0.7169  1.9511  0.4763
 5426TIP3   OH237836   4.274   3.077   0.360 -0.2847  0.0771  0.0389
 5426TIP3    H137837   4.184   3.107   0.374 -0.2012  0.6982 -0.6730
 5426TIP3    H237838   4.321   3.104   0.439 -0.7943 -0.5932  0.5882
 5427TIP3   OH237839   6.447   2.579   6.285 -0.4933  0.4722 -0.1096
 5427TIP3    H137840   6.415   2.491   6.265  0.7557 -0.4826  1.7710
 5427TIP3    H237841   6.517   2.594   6.221 -0.9315  0.2408 -0.6506
 5428TIP3   OH237842   0.352   0.803   7.832 -0.0921 -0.1192  0.2236
 5428TIP3    H137843   0.386   0.751   7.905  0.8037 -0.4284 -0.4019
 5428TIP3    H237844   0.369   0.894   7.859 -0.2510 -0.2085  0.6359
 5429TIP3   OH237845   2.369   5.561   0.652 -0.1491  0.8275  0.3515
 5429TIP3    H137846   2.434   5.533   0.588 -0.2353  0.4533  0.4269
 5429TIP3    H237847   2.287   5.522   0.623 -0.8589  3.1591 -1.0499
 5430TIP3   OH237848   4.553   1.135   1.234 -0.4088 -0.8368  0.0226
 5430TIP3    H137849   4.623   1.069   1.239 -0.6322 -1.1763 -1.0762
 5430TIP3    H237850   4.472   1.084   1.227 -0.7200 -0.4421  0.6353
 5431TIP3   OH237851   5.861   6.321   0.534  0.0609 -0.0877  0.0424
 5431TIP3    H137852   5.927   6.384   0.562 -0.3873  0.8347 -0.9109
 5431TIP3    H237853   5.861   6.255   0.603  0.4617  1.0118  1.1430
 5432TIP3   OH237854   4.782   4.913   1.289  0.1075  0.5292  0.4871
 5432TIP3    H137855   4.864   4.949   1.323  0.7839 -0.3595 -0.1588
 5432TIP3    H237856   4.804   4.877   1.204 -0.9989  0.4181  0.2267
 5433TIP3   OH237857   0.579   4.345   7.416 -0.2490  0.6013 -0.1665
 5433TIP3    H137858   0.500   4.397   7.429 -0.9786 -0.7984  1.5680
 5433TIP3    H237859   0.550   4.271   7.362 -1.3231 -2.0760  3.6528
 5434TIP3   OH237860   2.989   6.244   8.126  0.0666  0.7085 -0.0625
 5434TIP3    H137861   3.056   6.278   8.186 -0.2380  0.5681  0.3682
 5434TIP3    H237862   3.030   6.168   8.085  0.2956  0.8324 -0.0623
 5435TIP3   OH237863   3.313   5.558   7.778  0.7163 -0.3857  0.4836
 5435TIP3    H137864   3.306   5.647   7.743  0.5587  0.4481  2.5324
 5435TIP3    H237865   3.407   5.543   7.785  0.8283 -1.3249 -2.0033
 5436TIP3   OH237866   6.154   1.554   0.214  0.0773  0.2942 -0.2979
 5436TIP3    H137867   6.154   1.576   0.121  1.8806  2.0336  0.0595
 5436TIP3    H237868   6.246   1.557   0.240 -0.3476 -0.5340  1.4733
 5437TIP3   OH237869   1.072   1.980   1.715 -0.3083  0.6487 -0.4476
 5437TIP3    H137870   1.157   1.937   1.702 -0.6514 -0.0532 -0.4361
 5437TIP3    H237871   1.077   2.059   1.661 -0.1214 -0.0460 -1.4831
 5438TIP3   OH237872   0.496   3.197   0.023  0.3693  0.3212 -0.2994
 5438TIP3    H137873   0.500   3.103   0.039 -0.4136  0.3158 -0.0620
 5438TIP3    H237874   0.583   3.229   0.044  0.9970 -0.5091 -1.4942
 5439TIP3   OH237875   6.421   2.859   6.573  0.6929 -0.0707  0.5588
 5439TIP3    H137876   6.407   2.869   6.479  0.7271 -2.7889  0.1828
 5439TIP3    H237877   6.497   2.801   6.579  0.9628  0.4186  2.2956
 5440TIP3   OH237878   3.165   5.374   0.762 -0.0831 -0.6331  0.1615
 5440TIP3    H137879   3.145   5.408   0.849 -1.3341 -1.3275  0.1741
 5440TIP3    H237880   3.241   5.424   0.733 -1.6221  1.9119  0.2924
 5441TIP3   OH237881   2.668   0.518   1.498 -0.1391  0.6755  0.3491
 5441TIP3    H137882   2.659   0.599   1.548 -1.6691  1.1269 -0.6026
 5441TIP3    H237883   2.588   0.512   1.446 -0.1329 -1.5267  0.4806
 5442TIP3   OH237884   3.247   2.028   6.505  0.4216  0.4509 -0.1133
 5442TIP3    H137885   3.214   2.062   6.422  0.4587 -0.9299 -0.7194
 5442TIP3    H237886   3.318   1.968   6.480  1.1539  0.8293  0.9788
 5443TIP3   OH237887   2.207   3.890   1.607  0.1062 -0.3991  0.8297
 5443TIP3    H137888   2.153   3.820   1.570  0.9793 -1.1334  0.8987
 5443TIP3    H237889   2.157   3.970   1.592 -1.1700 -1.0949  1.2236
 5444TIP3   OH237890   1.256   5.647   8.301  0.1160 -0.0192 -0.5170
 5444TIP3    H137891   1.184   5.643   8.364  0.5911 -1.2545 -0.0025
 5444TIP3    H237892   1.263   5.558   8.267  1.8731 -0.1469  0.0285
 5445TIP3   OH237893   4.937   6.106   7.646 -0.4512 -0.5535  0.1002
 5445TIP3    H137894   4.978   6.098   7.732  0.4653  0.3014 -0.2309
 5445TIP3    H237895   4.929   6.016   7.614  0.2678 -0.8002  0.5948
 5446TIP3   OH237896   5.023   0.328   0.711 -0.3887 -0.0438  0.5805
 5446TIP3    H137897   5.089   0.283   0.764  1.1962  1.8171  0.2713
 5446TIP3    H237898   4.984   0.258   0.657 -0.1342 -1.5126  2.2030
 5447TIP3   OH237899   3.612   4.362   8.258  0.2346  0.2493  0.2417
 5447TIP3    H137900   3.612   4.267   8.246  1.8582 -0.0676  2.2979
 5447TIP3    H237901   3.601   4.396   8.169 -2.2370 -1.8095 -0.3737
 5448TIP3   OH237902   0.616   6.605   1.111  0.4151 -0.8189 -0.5980
 5448TIP3    H137903   0.606   6.607   1.206 -1.8035 -0.3714 -0.7748
 5448TIP3    H237904   0.694   6.657   1.094 -1.0761  2.1241  0.8366
 5449TIP3   OH237905   4.255   3.685   7.056  0.3745 -0.0421 -0.0813
 5449TIP3    H137906   4.187   3.749   7.035  0.6769 -0.1583 -1.5265
 5449TIP3    H237907   4.224   3.642   7.136 -0.4103  1.0656  0.2426
 5450TIP3   OH237908   4.908   4.487   8.010  0.3930  0.3126  0.2303
 5450TIP3    H137909   4.936   4.496   8.101  0.2867  1.5465  0.1644
 5450TIP3    H237910   4.817   4.517   8.011 -0.2308 -1.4920  0.0423
 5451TIP3   OH237911   2.387   4.972   7.346  0.3840 -0.2446  0.2066
 5451TIP3    H137912   2.401   4.886   7.385  1.1563 -0.5038 -0.6220
 5451TIP3    H237913   2.391   4.957   7.252 -0.0367  0.6062  0.0457
 5452TIP3   OH237914   6.552   4.599   0.236  0.5000  0.3244 -0.2815
 5452TIP3    H137915   6.535   4.693   0.241  0.4161  0.3744 -1.2171
 5452TIP3    H237916   6.468   4.561   0.208  0.8426  0.1222 -1.0786
 5453TIP3   OH237917   6.814   3.903   0.674  0.5029  0.8279 -0.0489
 5453TIP3    H137918   6.818   3.960   0.750 -0.2074 -0.9941  1.4416
 5453TIP3    H237919   6.880   3.836   0.690  0.3697  0.4265 -1.0632
 5454TIP3   OH237920   0.069   5.307   7.880  0.0971 -0.1892  0.4282
 5454TIP3    H137921   0.164   5.311   7.870  0.0016 -2.2335 -2.5669
 5454TIP3    H237922   0.044   5.397   7.900  2.7171  0.1314  3.0680
 5455TIP3   OH237923   1.111   2.929   8.088 -0.0987 -0.5659 -0.0390
 5455TIP3    H137924   1.029   2.979   8.085  0.9829  1.3676  0.6797
 5455TIP3    H237925   1.083   2.837   8.089 -2.2583  0.0365  0.3564
 5456TIP3   OH237926   5.933   1.077   8.061 -0.0517  0.2731 -0.0469
 5456TIP3    H137927   6.025   1.062   8.078 -0.3844 -1.3884  0.4736
 5456TIP3    H237928   5.889   1.058   8.144 -0.8623  1.1332 -0.2567
 5457TIP3   OH237929   5.446   1.053   7.443  0.3135  0.4085 -1.0637
 5457TIP3    H137930   5.430   1.147   7.433 -0.8201  0.2517 -0.9047
 5457TIP3    H237931   5.502   1.046   7.521 -3.3687  0.7553  1.9295
 5458TIP3   OH237932   6.735   6.881   7.359  0.3224  0.0353  0.2579
 5458TIP3    H137933   6.677   6.953   7.383  0.3580 -0.4666  1.9463
 5458TIP3    H237934   6.807   6.924   7.311 -0.7432  0.8178 -0.7076
 5459TIP3   OH237935   2.574   0.858   2.093 -0.2723 -0.3282 -0.1376
 5459TIP3    H137936   2.615   0.775   2.072 -0.2515 -0.0498 -1.2691
 5459TIP3    H237937   2.644   0.910   2.133  0.4812  0.0868 -1.9045
 5460TIP3   OH237938   1.408   4.781   0.938 -0.0731  0.1400  0.3599
 5460TIP3    H137939   1.475   4.737   0.885  0.6895  1.7140 -0.0172
 5460TIP3    H237940   1.348   4.710   0.964  1.6664 -1.3006  0.6401
 5461TIP3   OH237941   3.769   4.135   6.046 -0.8174  0.2007 -0.0050
 5461TIP3    H137942   3.809   4.057   6.084  2.0814  0.4038 -2.2752
 5461TIP3    H237943   3.679   4.109   6.025 -0.6374 -1.7448  1.4109
 5462TIP3   OH237944   2.161   5.279   8.092 -0.1000  0.4477  0.2812
 5462TIP3    H137945   2.096   5.306   8.027  0.7095  0.3035 -0.6123
 5462TIP3    H237946   2.148   5.339   8.165 -1.5047  0.1540  0.2930
 5463TIP3   OH237947   2.909   3.003   8.277  0.4235  0.2502 -0.2853
 5463TIP3    H137948   2.994   2.975   8.242  0.1369  1.1232 -1.8128
 5463TIP3    H237949   2.887   2.938   8.344  1.8844 -0.4783 -0.4762
 5464TIP3   OH237950   2.468   2.002   7.841  0.4468  0.2351  0.7988
 5464TIP3    H137951   2.531   1.941   7.878  1.2925  1.4838  1.5018
 5464TIP3    H237952   2.468   2.077   7.901  0.3740  1.4535 -0.6526
 5465TIP3   OH237953   4.566   4.826   0.973  0.0901  0.0584 -0.5956
 5465TIP3    H137954   4.526   4.764   1.034  0.2559  0.3815 -0.1545
 5465TIP3    H237955   4.492   4.864   0.926 -0.0081 -0.5138 -0.9092
 5466TIP3   OH237956   0.015   4.028   0.178  0.1713  0.1508  0.2363
 5466TIP3    H137957  -0.013   4.106   0.225  1.1939  0.2608  0.6929
 5466TIP3    H237958   0.060   4.061   0.100  2.4766  0.1321  1.4725
 5467TIP3   OH237959   6.906   3.869   7.715  0.1596  0.3498  0.5687
 5467TIP3    H137960   6.921   3.832   7.802 -0.6907 -1.0986  0.1381
 5467TIP3    H237961   6.810   3.876   7.708  0.2255  0.5767 -0.1957
 5468TIP3   OH237962   4.990   6.441   1.502 -0.4172  0.3090 -0.0853
 5468TIP3    H137963   5.028   6.362   1.539  2.0708  1.2104 -0.5535
 5468TIP3    H237964   4.929   6.409   1.435 -0.5493 -1.1900  0.7018
 5469TIP3   OH237965   4.683   6.846   0.480 -0.1022  0.3532  0.0740
 5469TIP3    H137966   4.649   6.868   0.393 -0.8803 -0.4798  0.1458
 5469TIP3    H237967   4.640   6.764   0.501  0.3765  0.3584  1.0931
 5470TIP3   OH237968   0.913   3.770   2.069 -0.9935 -0.0900 -0.1066
 5470TIP3    H137969   0.937   3.750   2.159 -0.9997  1.4951  0.2751
 5470TIP3    H237970   0.848   3.703   2.046  0.3669 -1.6555  0.3960
 5471TIP3   OH237971   1.301   2.667   7.764  0.0805  0.0883 -0.2583
 5471TIP3    H137972   1.383   2.626   7.789  0.6072  1.5318  0.4979
 5471TIP3    H237973   1.233   2.610   7.801  0.7518 -0.5242  0.0484
 5472TIP3   OH237974   3.493   1.912   0.257 -0.4222  0.1443  0.2273
 5472TIP3    H137975   3.468   1.985   0.200  0.1854 -0.0540 -0.3091
 5472TIP3    H237976   3.583   1.933   0.282 -0.5414  0.0088  0.7682
 5473TIP3   OH237977   3.966   4.822   0.954 -0.6968 -0.1615  0.4708
 5473TIP3    H137978   3.913   4.901   0.967 -1.1700 -0.5120  0.7259
 5473TIP3    H237979   4.050   4.854   0.921 -1.0412  0.4095  0.1440
 5474TIP3   OH237980   4.602   0.235   0.896  0.2848 -0.0638 -0.3157
 5474TIP3    H137981   4.596   0.210   0.804  1.1653 -0.2680 -0.3297
 5474TIP3    H237982   4.681   0.191   0.928 -2.1488 -3.5138  1.6497
 5475TIP3   OH237983   3.866   1.223   1.514 -0.7101 -0.2159 -0.3664
 5475TIP3    H137984   3.824   1.300   1.553  2.6073  0.8848  1.4173
 5475TIP3    H237985   3.880   1.247   1.422 -0.1810  1.1123  0.0435
 5476TIP3   OH237986   4.162   2.271   0.266 -0.1684 -0.2688 -0.1901
 5476TIP3    H137987   4.160   2.340   0.199 -0.9732 -1.0525 -0.9931
 5476TIP3    H237988   4.244   2.286   0.312  0.4013  0.3122 -1.3341
 5477TIP3   OH237989   3.496   6.213   1.203 -0.1324  0.1811  0.0019
 5477TIP3    H137990   3.419   6.177   1.160  0.1477  1.1416 -1.3628
 5477TIP3    H237991   3.464   6.242   1.289 -1.0922 -0.2123 -0.2162
 5478TIP3   OH237992   6.009   0.971   6.765 -0.5799  0.0216  0.1344
 5478TIP3    H137993   6.011   0.976   6.669  1.0403  1.5019  0.1895
 5478TIP3    H237994   6.101   0.958   6.790 -0.6217  1.9346  1.5249
 5479TIP3   OH237995   5.213   3.980   0.685  0.3261  0.2608 -0.4541
 5479TIP3    H137996   5.167   4.061   0.708 -0.7464 -1.0233  2.3090
 5479TIP3    H237997   5.302   3.993   0.719 -0.0877 -0.0137  0.7704
 5480TIP3   OH237998   3.784   5.011   1.059 -0.2787 -0.0485  0.0043
 5480TIP3    H137999   3.734   4.929   1.057  0.5038 -0.5710  0.9092
 5480TIP3    H238000   3.720   5.079   1.038 -1.1824 -0.7806  0.3350
 5481TIP3   OH238001   6.149   5.207   1.850  0.3391 -0.7047  0.0137
 5481TIP3    H138002   6.066   5.162   1.867 -0.0400 -0.8873 -2.0828
 5481TIP3    H238003   6.170   5.184   1.760  2.2232  0.0795  0.2253
 5482TIP3   OH238004   6.258   0.597   8.395  0.1015  0.0950 -0.2919
 5482TIP3    H138005   6.263   0.599   8.299 -0.4110 -0.0327 -0.3264
 5482TIP3    H238006   6.325   0.659   8.424  0.1801  0.2235 -0.7370
 5483TIP3   OH238007   2.001   4.273   6.874 -0.7127  0.0086 -0.5978
 5483TIP3    H138008   1.978   4.202   6.814 -0.5157 -0.0108 -0.6516
 5483TIP3    H238009   1.960   4.351   6.837 -0.1647  0.0928 -1.0357
 5484TIP3   OH238010   0.467   3.366   0.313 -0.0783 -0.2911  0.5977
 5484TIP3    H138011   0.477   3.395   0.223 -0.9443 -0.8153  0.3222
 5484TIP3    H238012   0.547   3.319   0.333 -0.0813 -0.5703 -0.0508
 5485TIP3   OH238013   2.007   5.559   0.024  0.7883  0.3649 -0.6744
 5485TIP3    H138014   2.020   5.608   0.105 -2.6181 -0.2573  0.4036
 5485TIP3    H238015   1.934   5.603  -0.019  1.0565 -0.6885 -2.3089
 5486TIP3   OH238016   5.061   0.677   7.737  0.0311 -0.0972  0.2838
 5486TIP3    H138017   5.140   0.697   7.686 -0.5703 -2.1929 -1.6127
 5486TIP3    H238018   4.991   0.722   7.690 -0.3720 -1.0956 -0.0849
 5487TIP3   OH238019   0.692   0.830   1.414  0.0265 -0.4510  0.0627
 5487TIP3    H138020   0.704   0.783   1.496 -0.2236  0.7238  0.7983
 5487TIP3    H238021   0.622   0.893   1.432 -0.2824 -0.4126 -1.1593
 5488TIP3   OH238022   6.675   5.631   0.143 -0.4476  0.3678  0.2888
 5488TIP3    H138023   6.697   5.695   0.076 -1.5862  1.3797  0.8434
 5488TIP3    H238024   6.627   5.563   0.096  0.0012  0.3520 -0.1560
 5489TIP3   OH238025   1.493   3.489   0.200  0.4847  0.0313  0.3574
 5489TIP3    H138026   1.579   3.529   0.211  1.0269 -1.1901  0.6706
 5489TIP3    H238027   1.501   3.403   0.240 -0.3610 -0.7912 -1.1435
 5490TIP3   OH238028   0.825   3.401   7.544  0.0300  0.0745 -0.3919
 5490TIP3    H138029   0.855   3.418   7.455  0.0248 -0.4558 -0.4963
 5490TIP3    H238030   0.754   3.464   7.558  0.4230  0.5620 -0.5465
 5491TIP3   OH238031   2.999   0.832   2.125 -0.0941 -0.1211 -0.5482
 5491TIP3    H138032   2.911   0.855   2.095 -1.1074 -1.5607  1.0738
 5491TIP3    H238033   3.035   0.777   2.055 -0.5161  0.3726 -1.1645
 5492TIP3   OH238034   4.944   4.070   0.355 -0.1926 -0.6192 -0.2440
 5492TIP3    H138035   4.851   4.092   0.349  0.2964  1.2755 -1.8918
 5492TIP3    H238036   4.984   4.114   0.280  1.9574 -1.8882  0.0840
 5493TIP3   OH238037   6.344   0.370   0.550  0.3180  0.2880 -0.0932
 5493TIP3    H138038   6.272   0.369   0.612 -0.8855 -0.4205 -1.4414
 5493TIP3    H238039   6.350   0.461   0.521 -0.6847  0.1754 -0.6798
 5494TIP3   OH238040   4.714   2.104   1.092 -0.2270 -0.1567  0.5040
 5494TIP3    H138041   4.789   2.155   1.121 -0.0693 -0.6668  1.0058
 5494TIP3    H238042   4.639   2.148   1.132 -0.1870  0.2243  0.1759
 5495TIP3   OH238043   0.596   3.726   8.216 -0.3116 -0.3988  0.1548
 5495TIP3    H138044   0.528   3.793   8.218 -1.4723 -1.5029 -0.5924
 5495TIP3    H238045   0.592   3.686   8.302  2.0974  2.0445  1.5402
 5496TIP3   OH238046   2.008   0.767   6.779  0.0652  0.1937  0.1272
 5496TIP3    H138047   1.938   0.820   6.818  1.2291  2.2949 -0.4919
 5496TIP3    H238048   2.058   0.828   6.725  1.9566 -1.3933 -0.0511
 5497TIP3   OH238049   0.691   0.296   7.097 -0.4936  0.1590 -0.4077
 5497TIP3    H138050   0.679   0.203   7.076 -0.8210  0.0651  0.1521
 5497TIP3    H238051   0.743   0.331   7.025 -0.5032 -0.4249 -0.7044
 5498TIP3   OH238052   1.085   3.620   7.734 -0.3236  0.0470  0.4381
 5498TIP3    H138053   1.018   3.635   7.667  0.0191  2.5382  0.5495
 5498TIP3    H238054   1.080   3.698   7.789  0.5221 -1.1979  2.3684
 5499TIP3   OH238055   1.580   0.754   2.305  0.2681 -0.1836  0.3844
 5499TIP3    H138056   1.625   0.680   2.263  1.0907 -0.2355  1.3388
 5499TIP3    H238057   1.580   0.732   2.398 -2.9848 -0.8771  0.3437
 5500TIP3   OH238058   5.003   5.383   6.661  0.5252 -0.0292  0.2476
 5500TIP3    H138059   4.965   5.399   6.574 -0.5574 -1.0968  0.4981
 5500TIP3    H238060   5.032   5.292   6.658  0.0323 -0.2203  1.1747
 5501TIP3   OH238061   5.571   3.633   0.179 -0.3873  0.5334  0.1258
 5501TIP3    H138062   5.545   3.634   0.271  1.3576 -0.7889  0.6760
 5501TIP3    H238063   5.511   3.570   0.138 -0.2092 -0.0241  0.6981
 5502TIP3   OH238064   1.684   0.067   0.182 -0.2438  0.0321 -0.2387
 5502TIP3    H138065   1.596   0.032   0.192  0.1140 -0.9515 -0.4109
 5502TIP3    H238066   1.733   0.030   0.256 -0.0276  0.7726 -0.0010
 5503TIP3   OH238067   5.114   4.151   7.350 -0.1304 -0.4447 -0.1470
 5503TIP3    H138068   5.039   4.179   7.298  0.2281  0.0545 -0.4001
 5503TIP3    H238069   5.077   4.126   7.434 -0.5904 -0.2927 -0.3030
 5504TIP3   OH238070   4.692   1.962   0.861 -0.5394  0.3652 -0.3363
 5504TIP3    H138071   4.620   1.899   0.854 -1.3260  1.3744 -2.0012
 5504TIP3    H238072   4.663   2.023   0.929 -0.7875  0.1822 -0.2753
 5505TIP3   OH238073   2.873   1.996   8.124 -0.0443 -0.0788  0.0298
 5505TIP3    H138074   2.779   1.976   8.124  0.0987 -0.7600  0.3147
 5505TIP3    H238075   2.892   2.017   8.216  0.4816 -1.8878  0.3647
 5506TIP3   OH238076   5.248   0.567   6.179  0.0609  0.5648 -0.3126
 5506TIP3    H138077   5.288   0.495   6.228 -0.7357  0.6540  0.4926
 5506TIP3    H238078   5.301   0.643   6.203  0.2810  0.4279 -0.3604
 5507TIP3   OH238079   0.774   4.445   8.270 -0.5692 -0.2905  1.0853
 5507TIP3    H138080   0.866   4.419   8.259 -0.1114  0.7582  2.2364
 5507TIP3    H238081   0.763   4.517   8.208 -1.0302 -1.2572 -0.0168
 5508TIP3   OH238082   6.161   4.393   7.569 -0.2903 -0.0273 -0.3134
 5508TIP3    H138083   6.214   4.355   7.639  0.3718  0.0896 -0.7396
 5508TIP3    H238084   6.211   4.375   7.489  0.3381  2.2077 -0.4811
 5509TIP3   OH238085   5.472   2.762   7.201 -0.3675  0.1680  0.2411
 5509TIP3    H138086   5.457   2.693   7.136 -0.5007 -0.1419  0.5977
 5509TIP3    H238087   5.480   2.842   7.149 -1.6771  0.1107 -0.0806
 5510TIP3   OH238088   2.226   5.726   6.935  0.3829  0.0280  0.2801
 5510TIP3    H138089   2.303   5.708   6.880  0.4960  0.0504  0.4317
 5510TIP3    H238090   2.153   5.729   6.873  0.4990 -0.0257  0.1391
 5511TIP3   OH238091   5.039   0.541   1.166 -0.0208 -0.3641  0.1565
 5511TIP3    H138092   4.943   0.544   1.168 -0.0301  2.1083 -1.1016
 5511TIP3    H238093   5.060   0.519   1.075  0.6432 -0.9528  0.4401
 5512TIP3   OH238094   6.214   3.083   1.960 -0.2451 -0.0310  0.0335
 5512TIP3    H138095   6.256   3.006   1.923  0.1096  0.2842 -0.2390
 5512TIP3    H238096   6.127   3.053   1.987 -0.9248 -0.0650 -1.9966
 5513TIP3   OH238097   0.014   6.273   7.956  0.3098 -0.3137 -0.4244
 5513TIP3    H138098   0.054   6.222   7.885  0.0939 -0.7679 -0.2238
 5513TIP3    H238099   0.010   6.213   8.030  0.8965  0.2803  0.1030
 5514TIP3   OH238100   4.857   3.796   6.664  0.2012 -0.5193 -0.2043
 5514TIP3    H138101   4.877   3.870   6.722 -0.8065  0.6370 -1.2724
 5514TIP3    H238102   4.779   3.824   6.616 -0.3343 -2.3781 -0.4928
 5515TIP3   OH238103   5.287   0.283   8.217  0.3243  0.2852 -0.2676
 5515TIP3    H138104   5.290   0.189   8.202  0.4929  0.3028 -0.3518
 5515TIP3    H238105   5.331   0.295   8.302  0.6479  0.3237 -0.4373
 5516TIP3   OH238106   6.619   0.542   1.839  0.3277 -0.0154  0.2296
 5516TIP3    H138107   6.629   0.631   1.873  0.8476 -0.1149  0.3423
 5516TIP3    H238108   6.529   0.518   1.862  0.0939  0.5746 -0.0320
 5517TIP3   OH238109   5.449   1.239   1.841  0.3005 -0.1909 -0.0466
 5517TIP3    H138110   5.490   1.159   1.808 -0.6518 -2.4672  3.6999
 5517TIP3    H238111   5.508   1.268   1.911 -1.1395  0.3189  0.9919
 5518TIP3   OH238112   1.660   2.637   1.431  0.5504 -0.3148  0.0714
 5518TIP3    H138113   1.603   2.582   1.377 -0.0585  0.0236  0.3542
 5518TIP3    H238114   1.610   2.718   1.444  0.8613 -0.2239  0.7719
 5519TIP3   OH238115   6.790   3.718   1.183 -0.3834  0.5465 -0.1580
 5519TIP3    H138116   6.853   3.647   1.183 -0.8725  0.1042 -0.3785
 5519TIP3    H238117   6.725   3.693   1.117 -1.5948  0.2641  1.0971
 5520TIP3   OH238118   6.846   0.210   7.268  0.5860  0.6606 -0.3988
 5520TIP3    H138119   6.932   0.249   7.283  0.6743  0.6761 -0.9314
 5520TIP3    H238120   6.816   0.248   7.185 -0.5210  1.6865  0.4284
 5521TIP3   OH238121   1.367   2.203   0.823  0.3736 -0.3092  0.4957
 5521TIP3    H138122   1.374   2.136   0.756  0.0804 -1.9472  2.0271
 5521TIP3    H238123   1.347   2.283   0.775 -1.4965 -1.7122 -1.2516
 5522TIP3   OH238124   2.287   3.536   6.874 -0.4460  0.4808 -0.2669
 5522TIP3    H138125   2.198   3.568   6.861 -0.3179  0.4265 -1.3493
 5522TIP3    H238126   2.300   3.471   6.805  0.3442  0.3008  0.0397
 5523TIP3   OH238127   5.449   0.614   7.056  0.7113 -0.2277 -0.6945
 5523TIP3    H138128   5.543   0.624   7.070  0.6464  0.6131 -0.7759
 5523TIP3    H238129   5.413   0.701   7.075  0.0537 -0.3258 -1.4205
 5524TIP3   OH238130   1.214   6.443   7.227  0.0932 -0.1803 -0.4617
 5524TIP3    H138131   1.308   6.459   7.220 -0.0100  0.1893 -1.1756
 5524TIP3    H238132   1.178   6.478   7.145 -0.7733  0.5004  0.1817
 5525TIP3   OH238133   0.933   5.085   8.335 -0.0569  0.1339 -0.1838
 5525TIP3    H138134   0.884   5.117   8.412 -0.1876  0.4145 -0.3820
 5525TIP3    H238135   0.954   4.994   8.356 -0.2141  0.1681  0.1272
 5526TIP3   OH238136   1.365   2.719   8.486  0.0908 -0.2286 -0.3546
 5526TIP3    H138137   1.295   2.778   8.513 -0.4009 -0.3665 -1.3057
 5526TIP3    H238138   1.438   2.741   8.544  0.5259  2.5329 -1.7658
 5527TIP3   OH238139   6.829   0.919   8.248  0.3052 -0.3625  0.2929
 5527TIP3    H138140   6.843   0.842   8.193 -1.4883  0.6177 -1.7042
 5527TIP3    H238141   6.899   0.980   8.222 -0.9221  0.3526 -1.5041
 5528TIP3   OH238142   5.130   4.804   0.915 -0.8154 -0.4847  0.3099
 5528TIP3    H138143   5.207   4.755   0.944 -1.7036 -2.4782 -0.5504
 5528TIP3    H238144   5.148   4.825   0.824 -0.7062  0.2955  0.5024
 5529TIP3   OH238145   2.841   1.646   7.499 -0.5293 -0.2414  0.1415
 5529TIP3    H138146   2.831   1.592   7.421  1.2409 -0.3909 -0.0365
 5529TIP3    H238147   2.900   1.716   7.472 -1.3158  0.7324  0.8771
 5530TIP3   OH238148   0.029   6.164   7.689 -0.6803 -0.3711  0.8845
 5530TIP3    H138149  -0.045   6.142   7.633  0.1676  0.1725 -0.5135
 5530TIP3    H238150   0.035   6.259   7.685 -0.1671 -0.3829  1.3042
 5531TIP3   OH238151   2.285   1.282   6.783  0.0159 -0.0041  0.5480
 5531TIP3    H138152   2.236   1.340   6.724 -0.3386 -0.5803  0.2692
 5531TIP3    H238153   2.345   1.235   6.726  0.9329  0.7110  0.8915
 5532TIP3   OH238154   5.908   1.674   6.909 -0.1911 -0.1120 -0.6451
 5532TIP3    H138155   5.924   1.581   6.890  0.3245 -0.2022  0.1881
 5532TIP3    H238156   5.962   1.720   6.844  2.5096 -0.4196  1.2157
 5533TIP3   OH238157   0.795   5.329   3.140  0.0424  0.1418 -0.3102
 5533TIP3    H138158   0.862   5.268   3.172  1.0278  0.5248 -1.5719
 5533TIP3    H238159   0.715   5.277   3.136  0.2141 -0.3118  1.2742
 5534TIP3   OH238160   4.194   1.047   7.652 -0.2303  0.0750 -0.0637
 5534TIP3    H138161   4.105   1.052   7.687  0.6954 -0.9048  2.6966
 5534TIP3    H238162   4.215   0.954   7.651  0.6813  0.2658 -1.0189
 5535TIP3   OH238163   0.928   5.413   0.304  0.0374  0.4531 -0.5224
 5535TIP3    H138164   0.853   5.372   0.346  1.2479 -2.0325 -0.6338
 5535TIP3    H238165   0.992   5.424   0.375  0.1918  1.0415 -0.7463
 5536TIP3   OH238166   3.615   0.023   7.433 -0.1839  0.0990 -0.1686
 5536TIP3    H138167   3.580   0.011   7.345 -2.6536  2.2395  0.3924
 5536TIP3    H238168   3.688   0.084   7.421 -1.5600  1.7275 -0.6395
 5537TIP3   OH238169   5.184   2.750   7.022 -0.4295  0.3538 -0.3976
 5537TIP3    H138170   5.125   2.785   6.955 -0.2048 -0.3723 -0.9928
 5537TIP3    H238171   5.252   2.705   6.972  1.1724  1.9749  0.2277
 5538TIP3   OH238172   0.472   0.362   7.280  0.3804 -0.5487 -0.5104
 5538TIP3    H138173   0.493   0.448   7.315 -3.4680  0.0405  0.7616
 5538TIP3    H238174   0.556   0.328   7.249  2.2773  3.0466  0.1549
 5539TIP3   OH238175   6.686   3.458   8.076 -0.1157 -0.8372 -0.6441
 5539TIP3    H138176   6.744   3.532   8.094 -0.6190 -0.8146  1.0288
 5539TIP3    H238177   6.601   3.498   8.059 -0.7205 -1.0202  1.6294
 5540TIP3   OH238178   4.772   3.234   6.992  0.0788  0.1108  0.5796
 5540TIP3    H138179   4.722   3.315   6.992 -0.0706  0.2575 -3.7434
 5540TIP3    H238180   4.810   3.228   7.079 -1.6680  3.6566  1.7389
 5541TIP3   OH238181   3.659   3.533   8.390  0.0503  0.4289  0.1833
 5541TIP3    H138182   3.619   3.589   8.456  1.5254  0.3058  1.2380
 5541TIP3    H238183   3.703   3.464   8.440  1.7927  0.7190 -0.8457
 5542TIP3   OH238184   6.346   5.680   7.446  0.3494  0.4540 -0.4087
 5542TIP3    H138185   6.362   5.682   7.352  1.3843 -1.0800 -0.2953
 5542TIP3    H238186   6.261   5.637   7.455 -0.0800  1.2372 -0.6624
 5543TIP3   OH238187   5.106   3.536   7.290  0.0605  0.3587  0.2575
 5543TIP3    H138188   5.100   3.475   7.364  1.4228  1.9601  1.7596
 5543TIP3    H238189   5.106   3.479   7.213 -1.7818 -1.3489  1.4091
 5544TIP3   OH238190   6.097   1.095   2.067 -0.3056  0.1629 -0.4317
 5544TIP3    H138191   6.149   1.053   2.136 -2.8354  0.6141  1.9441
 5544TIP3    H238192   6.091   1.030   1.998  1.8020 -0.5779  0.0278
 5545TIP3   OH238193   6.862   1.835   8.170  0.1375 -0.6501 -0.3066
 5545TIP3    H138194   6.797   1.863   8.107  1.0638 -1.5775 -1.7290
 5545TIP3    H238195   6.815   1.773   8.227 -0.5042 -0.4272 -0.5885
 5546TIP3   OH238196   1.411   5.694   2.133 -0.2029  0.1877 -0.1749
 5546TIP3    H138197   1.472   5.657   2.196 -0.3032  1.2974  0.6177
 5546TIP3    H238198   1.463   5.710   2.055 -0.2919 -2.1091 -0.7581
 5547TIP3   OH238199   0.294   2.729   0.975  0.2931  0.6797  0.8000
 5547TIP3    H138200   0.204   2.756   0.957  0.4940  0.3461 -0.8744
 5547TIP3    H238201   0.346   2.808   0.961  0.1948  1.1003  2.6468
 5548TIP3   OH238202   5.611   6.172   2.419  0.1491  0.6548 -0.1200
 5548TIP3    H138203   5.666   6.230   2.470  0.2257 -0.2657  0.8844
 5548TIP3    H238204   5.588   6.101   2.479 -1.2304  0.4515 -0.8352
 5549TIP3   OH238205   0.348   4.912   1.372  0.1054  0.1057  0.4950
 5549TIP3    H138206   0.386   4.828   1.349  1.1355  0.4949  0.7285
 5549TIP3    H238207   0.297   4.938   1.295 -1.3186 -1.3209  0.9006
 5550TIP3   OH238208   6.016   0.995   1.117  0.1263  0.0528  0.0068
 5550TIP3    H138209   6.077   0.944   1.063  0.0253  1.2539 -1.3136
 5550TIP3    H238210   5.949   0.932   1.143  0.2584 -0.5982 -1.1650
 5551TIP3   OH238211   3.812   0.127   1.960  0.2105 -0.5498  0.0290
 5551TIP3    H138212   3.902   0.120   1.989  0.3403  0.9071  0.0314
 5551TIP3    H238213   3.792   0.221   1.962 -0.7362 -0.6558 -1.6382
 5552TIP3   OH238214   1.398   3.895   0.729 -0.1334 -0.5402 -0.3123
 5552TIP3    H138215   1.458   3.941   0.670  1.1894 -1.1030  0.5382
 5552TIP3    H238216   1.327   3.865   0.672 -1.7219  3.4593 -0.7556
 5553TIP3   OH238217   2.770   2.317   7.545  0.2295  0.4901  0.3150
 5553TIP3    H138218   2.756   2.262   7.622  2.5337 -2.5353 -1.1636
 5553TIP3    H238219   2.766   2.255   7.471 -2.6941  3.3371 -2.1948
 5554TIP3   OH238220   6.573   5.110   1.081  0.2934  0.7069 -0.4432
 5554TIP3    H138221   6.576   5.111   0.986 -1.2642  0.1967 -0.5291
 5554TIP3    H238222   6.510   5.178   1.105  0.1281  0.3552  0.1704
 5555TIP3   OH238223   5.444   5.525   2.076 -0.0013  0.3656 -0.0572
 5555TIP3    H138224   5.536   5.501   2.066  0.5733 -0.8527  5.0391
 5555TIP3    H238225   5.398   5.441   2.084 -0.9005  0.9205  0.9033
 5556TIP3   OH238226   4.732   6.392   8.286  0.6800  0.0407 -0.0783
 5556TIP3    H138227   4.711   6.464   8.227 -0.8333  0.0423  0.4179
 5556TIP3    H238228   4.813   6.354   8.251  2.0649  2.5413  0.1891
 5557TIP3   OH238229   4.475   3.852   8.089  0.3490 -0.4030  0.1201
 5557TIP3    H138230   4.430   3.936   8.094  0.1122 -0.5258  0.0982
 5557TIP3    H238231   4.492   3.839   7.996  0.4259 -0.3567  0.1277
 5558TIP3   OH238232   3.895   5.757   0.160 -0.0017  0.3990 -0.2316
 5558TIP3    H138233   3.851   5.816   0.221 -0.3783  0.5633 -0.6590
 5558TIP3    H238234   3.829   5.736   0.095 -1.1675 -3.5576  1.9229
 5559TIP3   OH238235   1.270   5.876   1.475  0.1983  0.1169  0.8029
 5559TIP3    H138236   1.177   5.897   1.466  0.1619  0.8482  2.4837
 5559TIP3    H238237   1.311   5.916   1.399 -0.8206  0.0330  0.1890
 5560TIP3   OH238238   6.640   5.013   6.165  0.5200  0.0626  0.4853
 5560TIP3    H138239   6.566   5.074   6.173 -1.6105 -1.7868 -2.6976
 5560TIP3    H238240   6.621   4.944   6.229 -1.1827 -0.8877 -0.9518
 5561TIP3   OH238241   6.342   3.107   8.053 -0.0676 -0.2758 -0.3186
 5561TIP3    H138242   6.331   3.165   8.129  1.3523 -0.2660 -0.0944
 5561TIP3    H238243   6.278   3.037   8.067  1.0310 -0.9798  1.5920
 5562TIP3   OH238244   3.870   4.381   8.348  0.3527 -0.5495  0.0485
 5562TIP3    H138245   3.894   4.392   8.256  0.2917  4.7575  0.3774
 5562TIP3    H238246   3.775   4.373   8.348  0.4611 -2.0057 -0.3625
 5563TIP3   OH238247   0.039   4.517   0.589  0.0831  0.6844  0.0273
 5563TIP3    H138248   0.077   4.431   0.569  0.6827  0.9778 -0.1329
 5563TIP3    H238249  -0.019   4.535   0.515  0.9478  0.9807 -0.6064
 5564TIP3   OH238250   4.975   5.050   2.231  0.0093 -0.0821  0.2720
 5564TIP3    H138251   4.919   4.975   2.252  0.5922 -1.2619 -2.0453
 5564TIP3    H238252   5.057   5.032   2.277  0.4648 -1.4099 -0.9710
 5565TIP3   OH238253   2.701   4.222   1.685  0.3878 -0.5643 -0.1935
 5565TIP3    H138254   2.610   4.195   1.673  0.3955 -0.6037 -0.1619
 5565TIP3    H238255   2.718   4.213   1.779  0.0473  0.6483  0.0008
 5566TIP3   OH238256   4.578   6.023   7.692 -0.0802  0.0085 -0.6930
 5566TIP3    H138257   4.579   5.973   7.610 -0.7870  0.7027 -1.1410
 5566TIP3    H238258   4.588   6.114   7.665 -0.6222  0.2724 -0.0289
 5567TIP3   OH238259   6.397   2.661   0.074 -0.0767 -0.0769 -0.5466
 5567TIP3    H138260   6.318   2.607   0.073 -0.7302  0.8124  0.4895
 5567TIP3    H238261   6.384   2.723   0.002 -0.4556  0.2255 -0.2254
 5568TIP3   OH238262   5.056   6.200   1.622 -0.1503  0.4429  0.4911
 5568TIP3    H138263   5.075   6.150   1.543 -0.2175  1.2417 -0.0398
 5568TIP3    H238264   4.987   6.150   1.666 -1.3957  0.8958 -0.8631
 5569TIP3   OH238265   5.848   1.855   1.206 -0.0715  0.1805  0.3309
 5569TIP3    H138266   5.855   1.760   1.209  0.9418  0.1248 -1.6933
 5569TIP3    H238267   5.780   1.877   1.269 -0.7436 -1.9233  0.3993
 5570TIP3   OH238268   2.006   4.361   7.655 -0.1997 -0.7640  0.1149
 5570TIP3    H138269   2.100   4.349   7.662  0.0276  0.5693 -0.4803
 5570TIP3    H238270   1.995   4.439   7.601 -1.6543 -1.3117 -0.4445
 5571TIP3   OH238271   2.295   2.538   1.094  0.4715  0.2563  0.1235
 5571TIP3    H138272   2.328   2.621   1.127 -0.8426  0.8431  0.0313
 5571TIP3    H238273   2.294   2.548   0.999  1.5582 -0.3720  0.0328
 5572TIP3   OH238274   1.567   0.333   1.446  0.1902 -0.3795 -0.2326
 5572TIP3    H138275   1.600   0.297   1.529  1.6959  0.6438 -0.3509
 5572TIP3    H238276   1.542   0.256   1.396 -1.4099 -1.0039  1.3986
 5573TIP3   OH238277   3.432   6.319   7.732  0.0477 -0.4508 -0.6831
 5573TIP3    H138278   3.485   6.365   7.797 -0.4185  0.8518 -1.1919
 5573TIP3    H238279   3.484   6.323   7.652  0.3592 -1.5340 -0.5440
 5574TIP3   OH238280   1.011   3.938   6.860  0.1721 -0.1857  0.2613
 5574TIP3    H138281   1.088   3.884   6.876  0.2413 -0.8518 -2.0106
 5574TIP3    H238282   0.940   3.893   6.906  0.6023 -1.1256  0.0278
 5575TIP3   OH238283   0.350   3.870   8.405 -0.2743 -0.7100 -0.1936
 5575TIP3    H138284   0.328   3.845   8.316 -2.1595 -2.2401  0.6125
 5575TIP3    H238285   0.346   3.965   8.405  0.7066 -0.6274 -1.9189
 5576TIP3   OH238286   5.795   6.680   7.888 -0.0058 -0.3678  1.0259
 5576TIP3    H138287   5.726   6.732   7.928 -1.1534  0.0963 -1.3624
 5576TIP3    H238288   5.787   6.593   7.928 -0.4229  0.3017  2.4442
 5577TIP3   OH238289   0.448   0.390   7.960  0.4250 -0.0079 -0.7139
 5577TIP3    H138290   0.371   0.380   8.016 -0.7562 -1.8045 -2.5254
 5577TIP3    H238291   0.455   0.484   7.945 -0.7921  0.2641  0.2891
 5578TIP3   OH238292   5.576   0.343   0.152 -0.6901  0.1730  0.1183
 5578TIP3    H138293   5.510   0.274   0.160 -0.4421 -0.1352 -0.4594
 5578TIP3    H238294   5.538   0.417   0.199 -1.1565 -0.2144  0.3645
 5579TIP3   OH238295   0.703   6.791   6.375  0.3052 -0.1294  0.4757
 5579TIP3    H138296   0.756   6.712   6.387  3.5201  1.3137 -2.3505
 5579TIP3    H238297   0.751   6.859   6.423 -0.2295  0.7964 -0.2682
 5580TIP3   OH238298   3.134   3.252   1.084  0.3576  0.3517  0.1153
 5580TIP3    H138299   3.228   3.258   1.101  0.8227 -3.5761 -0.2255
 5580TIP3    H238300   3.101   3.196   1.154 -1.5755  0.8690 -0.3302
 5581TIP3   OH238301   0.869   5.133   0.446 -0.2390  0.2831 -0.6627
 5581TIP3    H138302   0.812   5.193   0.494 -0.8831 -1.4495  0.9014
 5581TIP3    H238303   0.811   5.092   0.381 -0.1463  0.3405 -0.7820
 5582TIP3   OH238304   1.388   5.806   7.191 -0.0010  0.2693  0.6407
 5582TIP3    H138305   1.409   5.738   7.127 -0.7885 -0.1788  0.8471
 5582TIP3    H238306   1.456   5.872   7.179  1.0060 -0.7311  0.7085
 5583TIP3   OH238307   3.703   4.333   0.245 -0.2485  0.4251 -0.8805
 5583TIP3    H138308   3.762   4.260   0.262 -1.4820 -0.1344  1.3186
 5583TIP3    H238309   3.727   4.363   0.157  1.3397 -1.5915 -1.2087
 5584TIP3   OH238310   0.262   1.785   7.458  0.1019 -0.1481 -0.1887
 5584TIP3    H138311   0.280   1.767   7.550 -2.0102  2.0290  0.7666
 5584TIP3    H238312   0.324   1.731   7.410  0.6941 -2.0190  2.4791
 5585TIP3   OH238313   1.669   5.415   2.631  0.2204  0.1494 -0.3669
 5585TIP3    H138314   1.624   5.387   2.551  1.9788 -0.8282 -1.0783
 5585TIP3    H238315   1.740   5.471   2.600  0.0674  0.9249  0.6381
 5586TIP3   OH238316   2.214   0.477   1.550  0.0770 -0.6039  0.1344
 5586TIP3    H138317   2.124   0.451   1.533  0.2586 -1.1986  0.0474
 5586TIP3    H238318   2.241   0.424   1.625  0.9495 -1.8159 -1.0012
 5587TIP3   OH238319   5.441   3.524   8.240  0.2837  0.1586 -0.4493
 5587TIP3    H138320   5.354   3.541   8.275  0.2146 -0.6658 -0.2007
 5587TIP3    H238321   5.497   3.512   8.317  0.4000 -0.3316 -0.6041
 5588TIP3   OH238322   6.900   0.968   1.177 -0.0396  0.5453  0.5072
 5588TIP3    H138323   6.826   0.928   1.222  0.0372  1.9306  1.9514
 5588TIP3    H238324   6.868   0.987   1.089 -0.9414 -0.0935  0.6885
 5589TIP3   OH238325   4.277   3.062   7.686 -0.1201  0.3983  0.1677
 5589TIP3    H138326   4.370   3.040   7.690  0.1432  1.5797  1.0633
 5589TIP3    H238327   4.250   3.033   7.599  0.8493 -0.8182  0.2403
 5590TIP3   OH238328   4.931   5.469   2.122  0.1101  0.5668  0.2326
 5590TIP3    H138329   4.858   5.475   2.061 -0.9398  0.4954  1.4534
 5590TIP3    H238330   4.894   5.493   2.207  1.0734 -1.1764  1.2098
 5591TIP3   OH238331   5.911   5.112   1.986 -0.2986 -0.1158 -0.3287
 5591TIP3    H138332   5.843   5.052   1.955 -1.3592  0.4001  0.9152
 5591TIP3    H238333   5.960   5.061   2.052 -0.7954  0.1668  0.2654
 5592TIP3   OH238334   2.361   5.992   7.503 -0.0452 -0.0203  0.4472
 5592TIP3    H138335   2.435   6.014   7.446  0.2304  0.8144  1.1045
 5592TIP3    H238336   2.291   6.051   7.474 -0.5559 -0.9819 -0.3411
 5593TIP3   OH238337   6.278   0.903   6.788 -0.9455  0.1177 -0.2384
 5593TIP3    H138338   6.288   0.948   6.704 -1.4320  1.5835  0.4417
 5593TIP3    H238339   6.366   0.901   6.824 -0.9297  0.6423 -0.2350
 5594TIP3   OH238340   1.557   0.410   8.241  1.2048 -0.3214  0.1446
 5594TIP3    H138341   1.547   0.427   8.147  0.0581 -0.0860  0.2942
 5594TIP3    H238342   1.493   0.340   8.260 -1.1055  1.9359  1.3534
 5595TIP3   OH238343   4.036   4.897   8.148  0.3818  0.1295  0.1284
 5595TIP3    H138344   4.033   4.941   8.063 -2.3750  0.4704  0.3008
 5595TIP3    H238345   4.070   4.810   8.128 -2.3568 -0.6512 -1.8862
 5596TIP3   OH238346   2.033   3.362   6.914 -0.3929 -0.1764 -0.3649
 5596TIP3    H138347   2.095   3.377   6.986  0.7043  0.1071 -1.3333
 5596TIP3    H238348   2.067   3.415   6.842  0.1117 -2.5069 -1.9632
 5597TIP3   OH238349   2.079   5.487   7.857 -0.1799 -0.3659  0.6810
 5597TIP3    H138350   2.081   5.459   7.766  1.7951 -0.6125  0.7430
 5597TIP3    H238351   2.167   5.466   7.890 -0.9852 -0.7109  2.7731
 5598TIP3   OH238352   0.443   4.353   0.563  0.3078  0.0148  0.2058
 5598TIP3    H138353   0.525   4.309   0.584  1.0929  1.3143 -0.0576
 5598TIP3    H238354   0.403   4.371   0.648  1.0056  0.6683  0.4094
 5599TIP3   OH238355   4.234   5.722   6.896  0.0532 -0.2765  0.2116
 5599TIP3    H138356   4.238   5.666   6.818  0.9689  0.8262 -0.5602
 5599TIP3    H238357   4.300   5.685   6.955  1.7810  0.8358 -0.9241
 5600TIP3   OH238358   0.385   5.712   7.688  0.6554  0.6502  0.4032
 5600TIP3    H138359   0.320   5.643   7.670  2.0372 -1.1736  1.9767
 5600TIP3    H238360   0.332   5.788   7.713 -1.0552  1.2070 -3.9835
 5601TIP3   OH238361   5.588   3.491   7.999 -0.5143  0.1405 -0.5133
 5601TIP3    H138362   5.574   3.400   7.976  1.4807 -0.5666  0.8077
 5601TIP3    H238363   5.539   3.503   8.081 -0.2754  0.0625 -0.3565
 5602TIP3   OH238364   4.163   3.284   7.384  0.2430 -0.2968 -0.7599
 5602TIP3    H138365   4.253   3.253   7.379  0.8854  1.2886  0.0983
 5602TIP3    H238366   4.149   3.303   7.477 -0.9090 -0.3386 -0.9049
 5603TIP3   OH238367   0.604   1.870   7.527 -0.1359 -0.7791  0.1472
 5603TIP3    H138368   0.604   1.939   7.461 -3.9129 -0.9778 -0.3159
 5603TIP3    H238369   0.666   1.899   7.593 -0.3619  2.2547 -0.8293
 5604TIP3   OH238370   0.336   3.206   7.873  0.4002  0.3037 -0.2115
 5604TIP3    H138371   0.247   3.242   7.866 -0.0107 -0.5995  0.1442
 5604TIP3    H238372   0.392   3.282   7.884 -0.7706  0.8158  4.1136
 5605TIP3   OH238373   3.912   1.187   7.379  0.4159 -0.7869  0.3760
 5605TIP3    H138374   3.835   1.166   7.431 -0.2593 -2.4149 -1.1955
 5605TIP3    H238375   3.975   1.118   7.401  0.4958 -0.9016 -0.2131
 5606TIP3   OH238376   1.861   4.764   7.283 -0.1989 -0.6094  0.2108
 5606TIP3    H138377   1.854   4.669   7.285  1.4177 -1.0187 -3.7041
 5606TIP3    H238378   1.955   4.781   7.283 -0.4391  0.8902 -0.4362
 5607TIP3   OH238379   4.549   4.672   6.701 -0.0562 -0.1211  0.1259
 5607TIP3    H138380   4.605   4.594   6.707 -0.7270 -0.5308  1.2813
 5607TIP3    H238381   4.591   4.736   6.759 -1.2128 -0.7202  1.6751
 5608TIP3   OH238382   3.208   2.841   0.208 -0.4555 -0.3618 -0.3582
 5608TIP3    H138383   3.253   2.803   0.284 -1.3580 -0.5404  0.0923
 5608TIP3    H238384   3.279   2.872   0.153  0.3106 -2.0480 -0.4039
 5609TIP3   OH238385   2.027   5.061   1.483 -0.6013  0.2121  0.2477
 5609TIP3    H138386   1.991   4.972   1.475 -0.6564 -0.0684  2.7801
 5609TIP3    H238387   2.097   5.064   1.419 -2.3074 -0.7122 -1.7730
 5610TIP3   OH238388   5.058   6.644   7.553 -0.2042  0.7237  0.3942
 5610TIP3    H138389   5.132   6.584   7.539 -0.7207  0.5228 -1.9320
 5610TIP3    H238390   5.098   6.731   7.557  0.2860  0.4933  0.5500
 5611TIP3   OH238391   4.162   0.384   7.666  0.1461  0.3507 -0.2997
 5611TIP3    H138392   4.090   0.443   7.686 -0.5595 -0.6004  0.0972
 5611TIP3    H238393   4.166   0.381   7.571 -1.5696 -0.9578 -0.3948
 5612TIP3   OH238394   0.968   2.051   8.255 -0.1177  0.1478 -0.1933
 5612TIP3    H138395   1.011   1.966   8.265 -2.1391 -0.8576  0.7279
 5612TIP3    H238396   1.013   2.108   8.317 -0.6099 -1.1104  1.4053
 5613TIP3   OH238397   5.787   2.951   0.921  0.1410  0.3925  0.6196
 5613TIP3    H138398   5.781   3.046   0.915 -0.3975  0.3342  0.1358
 5613TIP3    H238399   5.794   2.921   0.830 -0.4930 -0.0755  0.7178
 5614TIP3   OH238400   2.018   2.357   7.907 -0.0752 -0.5416  0.6761
 5614TIP3    H138401   1.963   2.419   7.955  1.4190  0.1586  1.5207
 5614TIP3    H238402   1.980   2.271   7.928 -1.3751 -0.0365  0.5162
 5615TIP3   OH238403   5.944   3.857   1.448 -0.5504 -0.3364 -0.1934
 5615TIP3    H138404   5.894   3.928   1.488  0.1263 -0.6711  1.2978
 5615TIP3    H238405   6.024   3.898   1.417  1.2045 -0.8151  3.2597
 5616TIP3   OH238406   3.223   4.033   7.570  0.4978  0.1407  0.4518
 5616TIP3    H138407   3.252   4.079   7.490  2.0947 -0.8082  0.4391
 5616TIP3    H238408   3.175   4.099   7.619  0.7139  1.1540 -0.6430
 5617TIP3   OH238409   5.410   4.102   1.089  0.1195 -0.6172 -0.1936
 5617TIP3    H138410   5.450   4.015   1.082  1.6561  0.0078  0.2649
 5617TIP3    H238411   5.420   4.125   1.182  0.3327  0.3126 -0.4353
 5618TIP3   OH238412   4.614   6.368   1.628  0.4336  0.7885  0.0607
 5618TIP3    H138413   4.527   6.374   1.666  0.3059 -3.9325  1.1233
 5618TIP3    H238414   4.673   6.394   1.698  0.1023  4.8204 -0.9123
 5619TIP3   OH238415   2.252   5.516   7.520 -0.0324 -0.2711  0.2554
 5619TIP3    H138416   2.203   5.460   7.460  0.3776  1.0690 -1.3838
 5619TIP3    H238417   2.238   5.605   7.488  1.1400  0.3944  1.4770
 5620TIP3   OH238418   6.343   3.224   0.499  0.1299 -0.0039  0.5922
 5620TIP3    H138419   6.307   3.136   0.513 -0.7921  0.5273  1.8196
 5620TIP3    H238420   6.330   3.241   0.406  0.2967 -1.1502  0.3455
 5621TIP3   OH238421   3.757   4.326   7.623  0.7354  0.2546 -0.3816
 5621TIP3    H138422   3.727   4.410   7.587 -2.0038 -0.0881  0.8315
 5621TIP3    H238423   3.684   4.266   7.606  2.6081 -1.9340 -1.1841
 5622TIP3   OH238424   0.056   3.597   7.529 -0.0122  0.5148  0.0473
 5622TIP3    H138425  -0.034   3.578   7.553 -0.3317 -1.3282 -2.2897
 5622TIP3    H238426   0.051   3.666   7.464  0.3243  0.8452  0.3644
 5623TIP3   OH238427   1.701   3.040   7.009 -0.6226  0.2633 -0.4144
 5623TIP3    H138428   1.698   3.061   7.103  1.4099 -0.7337 -0.0623
 5623TIP3    H238429   1.615   3.067   6.976 -1.3699  0.7361  1.7040
 5624TIP3   OH238430   0.194   4.301   0.502  0.6057 -0.1879  0.4467
 5624TIP3    H138431   0.187   4.225   0.560  0.4314  0.5114  1.3665
 5624TIP3    H238432   0.283   4.334   0.518  0.2026  0.6199  1.1258
 5625TIP3   OH238433   3.269   3.031   7.356  0.9208 -0.6164 -0.2235
 5625TIP3    H138434   3.262   3.109   7.412  0.0866  0.9195 -2.3172
 5625TIP3    H238435   3.362   3.022   7.338  1.0601 -0.3287  0.3343
 5626TIP3   OH238436   1.390   4.626   7.462  0.3591 -0.3889  0.0553
 5626TIP3    H138437   1.462   4.647   7.402 -0.1794 -0.8830 -0.7745
 5626TIP3    H238438   1.383   4.531   7.461  1.4891 -0.5790  2.2948
 5627TIP3   OH238439   2.669   5.766   1.060  0.7880 -0.1307 -0.1532
 5627TIP3    H138440   2.684   5.679   1.022 -0.3668 -0.1710 -0.5543
 5627TIP3    H238441   2.702   5.827   0.994 -1.3517 -0.1927 -1.4111
 5628TIP3   OH238442   4.058   1.502   1.336  0.6479 -0.2823  0.0809
 5628TIP3    H138443   4.142   1.546   1.324  0.8283  0.3158  2.8602
 5628TIP3    H238444   3.997   1.573   1.357  0.2328 -1.0110  1.4354
 5629TIP3   OH238445   4.839   6.650   7.704  0.0215  0.8152  0.3045
 5629TIP3    H138446   4.876   6.692   7.782 -0.0885  1.4689  0.0126
 5629TIP3    H238447   4.916   6.617   7.657  0.1146  0.7323  0.5115
 5630TIP3   OH238448   3.010   0.810   6.728 -0.5236  0.1692  0.3745
 5630TIP3    H138449   2.995   0.792   6.821 -0.2734 -1.2328  0.1528
 5630TIP3    H238450   2.928   0.850   6.698 -0.7590  0.2346  1.0895
 5631TIP3   OH238451   1.662   4.743   8.343  1.1323 -0.2955 -0.2907
 5631TIP3    H138452   1.725   4.722   8.412  1.7282 -0.3644 -0.8452
 5631TIP3    H238453   1.692   4.827   8.308 -0.0050  0.4645  0.4874
 5632TIP3   OH238454   0.741   1.004   7.343  0.1590  0.3031 -0.0193
 5632TIP3    H138455   0.720   0.964   7.258  2.7888 -0.7781 -0.2618
 5632TIP3    H238456   0.751   1.097   7.323 -0.7761  0.3054 -0.5568
 5633TIP3   OH238457   3.219   4.186   1.188  0.8303 -0.4830  0.0617
 5633TIP3    H138458   3.264   4.116   1.142 -0.3535 -0.8567 -0.5653
 5633TIP3    H238459   3.132   4.151   1.207 -0.0887  1.0634 -0.9866
 5634TIP3   OH238460   4.757   5.258   0.831  0.5115  0.0524  0.6751
 5634TIP3    H138461   4.735   5.171   0.864  0.5890 -0.8811 -1.5155
 5634TIP3    H238462   4.850   5.252   0.809  0.7412  0.9970  1.3222
 5635TIP3   OH238463   2.683   3.202   6.618  0.4163  0.2617  0.3488
 5635TIP3    H138464   2.633   3.134   6.573 -0.9534  0.7425  1.0888
 5635TIP3    H238465   2.775   3.176   6.607 -0.0751 -2.1911  1.3462
 5636TIP3   OH238466   5.164   1.488   1.034  0.2331  0.4703  0.3720
 5636TIP3    H138467   5.222   1.528   0.970 -2.0419  0.7475 -1.6733
 5636TIP3    H238468   5.222   1.448   1.099  2.6181  1.9587 -0.7359
 5637TIP3   OH238469   4.286   2.585   8.062  0.0835 -0.3987 -0.4630
 5637TIP3    H138470   4.228   2.634   8.121  0.5072 -2.1888  1.5910
 5637TIP3    H238471   4.364   2.568   8.115  2.1708  1.1099 -2.8313
 5638TIP3   OH238472   4.993   1.333   8.145 -0.0221  0.0132 -0.5277
 5638TIP3    H138473   4.982   1.399   8.077  2.2376 -0.6266 -1.6371
 5638TIP3    H238474   5.078   1.353   8.185  0.4600 -1.8160 -0.5146
 5639TIP3   OH238475   6.829   0.499   6.757  0.0866  0.2305  0.0071
 5639TIP3    H138476   6.800   0.544   6.678  1.5476  1.2784  0.0238
 5639TIP3    H238477   6.756   0.443   6.781 -0.1344 -0.6926 -2.4954
 5640TIP3   OH238478   4.827   1.105   7.556  0.3828 -0.3111 -0.2322
 5640TIP3    H138479   4.887   1.171   7.589 -1.1671  0.5221  1.0534
 5640TIP3    H238480   4.779   1.149   7.485 -0.2361 -0.2295  0.2280
 5641TIP3   OH238481   5.670   0.777   1.434 -0.4162 -0.6447 -0.3414
 5641TIP3    H138482   5.641   0.687   1.451  0.5646 -0.9959 -0.4955
 5641TIP3    H238483   5.697   0.810   1.520 -1.3601 -0.2752 -0.1766
 5642TIP3   OH238484   6.562   6.660   1.697  0.6317 -0.1168 -0.0218
 5642TIP3    H138485   6.474   6.651   1.661 -0.5095  0.7087  2.3576
 5642TIP3    H238486   6.601   6.573   1.688 -0.1635 -0.3464 -1.6429
 5643TIP3   OH238487   5.360   1.361   6.922  0.3977  0.0812 -0.3945
 5643TIP3    H138488   5.286   1.406   6.963  1.8642  0.5403  1.9642
 5643TIP3    H238489   5.434   1.380   6.980  2.0324 -1.6842 -1.7857
 5644TIP3   OH238490   0.704   0.392   1.294 -0.1941 -0.2178 -0.2987
 5644TIP3    H138491   0.733   0.478   1.264 -0.7444  0.2406  0.4485
 5644TIP3    H238492   0.775   0.360   1.349 -0.7837  0.6351  1.0238
 5645TIP3   OH238493   2.820   1.452   0.110  0.7553 -0.5368  0.0290
 5645TIP3    H138494   2.812   1.429   0.203 -0.2157 -0.5334 -0.0443
 5645TIP3    H238495   2.891   1.397   0.078  0.7116 -0.9589  0.6390
 5646TIP3   OH238496   2.811   3.260   7.406  0.1641 -0.4676 -0.0291
 5646TIP3    H138497   2.782   3.169   7.406  1.1882 -0.8169 -0.9956
 5646TIP3    H238498   2.904   3.256   7.382  0.0841  0.8582 -0.6541
 5647TIP3   OH238499   0.576   6.177   7.178 -0.5366 -0.2324 -0.3013
 5647TIP3    H138500   0.657   6.155   7.132 -0.0610 -0.4099  0.5980
 5647TIP3    H238501   0.604   6.235   7.249 -1.3706  0.7321 -0.7493
 5648TIP3   OH238502   2.476   2.894   6.835  0.2671  0.0454  0.4499
 5648TIP3    H138503   2.488   2.955   6.762 -1.8868  0.2696  0.2340
 5648TIP3    H238504   2.525   2.933   6.907  1.3995  0.4563 -0.4993
 5649TIP3   OH238505   0.058   1.789   7.298  0.8686 -0.4050  0.1027
 5649TIP3    H138506   0.060   1.842   7.219 -1.9800 -1.5346 -0.8253
 5649TIP3    H238507   0.144   1.803   7.338  3.2778 -1.3160 -4.1674
 5650TIP3   OH238508   0.891   5.480   0.717 -0.0532 -0.1524 -0.6070
 5650TIP3    H138509   0.805   5.514   0.692  0.2470  0.5902 -0.6407
 5650TIP3    H238510   0.945   5.491   0.638  0.6740  1.4285  0.0519
 5651TIP3   OH238511   4.214   4.797   7.702 -0.2773 -0.4558  0.3319
 5651TIP3    H138512   4.164   4.727   7.743 -1.8327  0.0366 -0.6107
 5651TIP3    H238513   4.209   4.778   7.608 -0.2375  0.5809  0.1071
 5652TIP3   OH238514   6.155   1.831   6.970  0.4725 -0.5101  0.5217
 5652TIP3    H138515   6.238   1.792   6.944  1.3637  0.9524  1.1090
 5652TIP3    H238516   6.142   1.904   6.909  1.0715  1.0540  2.1761
 5653TIP3   OH238517   6.686   2.692   7.183  0.2875  0.9278 -0.5109
 5653TIP3    H138518   6.676   2.778   7.223  0.6015  1.3193 -1.2679
 5653TIP3    H238519   6.763   2.654   7.226 -1.1124  0.0907  1.4400
 5654TIP3   OH238520   5.726   4.877   8.118 -0.0304 -0.4428 -0.1924
 5654TIP3    H138521   5.706   4.807   8.180 -2.6406  0.6456  0.2825
 5654TIP3    H238522   5.696   4.843   8.033  0.2685 -0.5457 -0.2580
 5655TIP3   OH238523   0.049   2.444   2.276  0.5259  0.3075  0.4987
 5655TIP3    H138524   0.117   2.511   2.284  1.8283 -0.4277 -2.8394
 5655TIP3    H238525  -0.018   2.484   2.221  0.5422 -0.5360 -0.1601
 5656TIP3   OH238526   0.617   0.021   7.072  0.0184  0.5441 -0.3473
 5656TIP3    H138527   0.634  -0.054   7.130 -0.0937  0.7531 -0.0391
 5656TIP3    H238528   0.522   0.028   7.070 -0.0584 -0.4865 -1.8935
 5657TIP3   OH238529   6.685   2.811   0.342 -0.2656  0.1549 -0.2221
 5657TIP3    H138530   6.750   2.879   0.321 -1.1622  0.8902 -0.6793
 5657TIP3    H238531   6.676   2.761   0.261 -0.8217  0.5375 -0.4057
 5658TIP3   OH238532   4.966   5.796   1.396  0.1040  0.6448  0.3724
 5658TIP3    H138533   5.014   5.715   1.415 -1.3848 -0.3418  0.1208
 5658TIP3    H238534   4.952   5.837   1.481 -0.2795 -0.0664  0.6594
 5659TIP3   OH238535   6.144   3.479   6.455  0.0945  0.0479  0.3812
 5659TIP3    H138536   6.175   3.516   6.538  1.1707  3.1977 -1.2791
 5659TIP3    H238537   6.063   3.526   6.437  0.1983 -0.1600 -0.6622
 5660TIP3   OH238538   2.594   4.130   7.463 -0.0335 -0.1961  0.1657
 5660TIP3    H138539   2.623   4.080   7.386  1.0057  0.4888  0.0842
 5660TIP3    H238540   2.650   4.099   7.534  1.6222  1.7409 -0.1723
 5661TIP3   OH238541   0.018   1.641   0.895 -0.0964 -0.0043 -0.1691
 5661TIP3    H138542   0.043   1.731   0.872 -2.2626  1.1979  1.7322
 5661TIP3    H238543   0.041   1.633   0.988 -1.1712 -0.9384  0.0327
 5662TIP3   OH238544   2.180   4.343   0.301 -0.0641  0.0579 -0.2487
 5662TIP3    H138545   2.143   4.254   0.302 -0.6544  0.2911  1.3612
 5662TIP3    H238546   2.268   4.332   0.267 -0.1326 -1.1562 -0.0810
 5663TIP3   OH238547   6.056   4.098   2.480  0.3273 -0.2281 -0.2992
 5663TIP3    H138548   6.092   4.041   2.548 -1.5753  0.1797  1.1269
 5663TIP3    H238549   5.971   4.059   2.460 -0.1649  1.0307 -0.7090
 5664TIP3   OH238550   4.260   2.838   7.189 -0.2497  0.4283 -0.0375
 5664TIP3    H138551   4.174   2.820   7.226  0.1379 -1.1111  0.2150
 5664TIP3    H238552   4.290   2.753   7.156  1.4459  0.7813  0.4789
 5665TIP3   OH238553   3.631   5.682   7.542  0.4331 -0.0048  0.2633
 5665TIP3    H138554   3.716   5.678   7.497 -0.6725 -1.6092 -1.9170
 5665TIP3    H238555   3.567   5.689   7.471 -1.3785 -1.2450  1.6714
 5666TIP3   OH238556   3.810   1.561   0.371  0.2372  0.5603  0.2056
 5666TIP3    H138557   3.896   1.572   0.330  2.0845  0.3652  3.6412
 5666TIP3    H238558   3.819   1.605   0.456 -1.9234 -2.2329  2.0516
 5667TIP3   OH238559   0.150   3.042   0.731  0.2741  0.3612 -0.3336
 5667TIP3    H138560   0.238   3.057   0.696  0.1046  2.1535 -0.0623
 5667TIP3    H238561   0.093   3.089   0.671 -0.3879  0.1697  0.1436
 5668TIP3   OH238562   2.018   1.715   0.249 -0.2352  0.3273 -0.4827
 5668TIP3    H138563   2.040   1.651   0.317 -0.2632 -0.4957 -1.2333
 5668TIP3    H238564   2.018   1.799   0.295 -1.2031 -0.3074  0.7609
 5669TIP3   OH238565   2.117   5.376   7.321  0.1506 -0.2321  0.0450
 5669TIP3    H138566   2.140   5.399   7.231  1.1764 -0.2965  0.2711
 5669TIP3    H238567   2.132   5.281   7.325 -0.2489 -0.2922  0.1904
 5670TIP3   OH238568   4.888   5.774   8.520 -0.2838 -0.2167  0.3306
 5670TIP3    H138569   4.844   5.858   8.509  2.0218  0.9405 -0.9367
 5670TIP3    H238570   4.926   5.756   8.434 -1.1610 -2.8750  0.4235
 5671TIP3   OH238571   4.307   4.409   6.577  0.4572 -0.1857  0.4094
 5671TIP3    H138572   4.259   4.432   6.656 -0.5629  1.4620 -0.6263
 5671TIP3    H238573   4.250   4.346   6.532  0.4808 -0.2187  0.4263
 5672TIP3   OH238574   6.541   5.112   0.016 -0.0546 -0.4366  0.1295
 5672TIP3    H138575   6.476   5.049   0.048  1.0813 -1.1443  1.1661
 5672TIP3    H238576   6.581   5.069  -0.059 -1.2462  0.3155 -0.9843
 5673TIP3   OH238577   0.559   4.762   1.117  0.1458 -0.3929 -0.2855
 5673TIP3    H138578   0.615   4.697   1.074 -1.5990 -1.2440 -1.4174
 5673TIP3    H238579   0.512   4.712   1.183  0.2916  0.1838  0.2613
 5674TIP3   OH238580   4.838   5.622   8.075  0.0605  0.5749  0.1691
 5674TIP3    H138581   4.890   5.669   8.140  0.1183 -0.1071  0.6210
 5674TIP3    H238582   4.875   5.651   7.991  0.9945  0.3129  0.4719
 5675TIP3   OH238583   1.712   4.709   1.379 -0.1760  0.1130 -0.1659
 5675TIP3    H138584   1.666   4.707   1.295 -1.0373  0.4733  0.2834
 5675TIP3    H238585   1.648   4.675   1.442  0.1094  0.7965  0.5044
 5676TIP3   OH238586   4.621   2.508   0.664  0.4972 -0.8999  0.0528
 5676TIP3    H138587   4.549   2.571   0.666  1.9055  0.7749 -0.0070
 5676TIP3    H238588   4.589   2.434   0.715 -1.6937 -0.7075 -0.9394
 5677TIP3   OH238589   0.290   6.055   0.515  0.2789 -0.3599 -0.2508
 5677TIP3    H138590   0.360   6.006   0.558  1.2453 -0.0167 -1.3644
 5677TIP3    H238591   0.324   6.144   0.508  0.3308 -0.4648 -1.9575
 5678TIP3   OH238592   0.384   5.378   1.340  0.1947 -0.7177 -0.2299
 5678TIP3    H138593   0.407   5.471   1.347 -0.4039 -0.5248 -0.7107
 5678TIP3    H238594   0.288   5.378   1.338  0.1957 -1.1222 -2.8761
 5679TIP3   OH238595   0.931   1.545   0.386  0.5083 -0.0333 -0.0657
 5679TIP3    H138596   1.006   1.496   0.420  1.4785  1.1298 -0.4516
 5679TIP3    H238597   0.889   1.583   0.463  1.4362  0.8319  0.0435
 5680TIP3   OH238598   2.376   1.462   5.872  0.3689 -0.3851 -0.1491
 5680TIP3    H138599   2.389   1.400   5.944 -0.9558 -0.5835 -0.0498
 5680TIP3    H238600   2.434   1.535   5.893 -1.2140  0.3565  2.0814
 5681TIP3   OH238601   4.077   4.879   0.257 -0.1839 -0.3943 -0.2167
 5681TIP3    H138602   4.024   4.950   0.222  1.9761  0.5988 -1.7273
 5681TIP3    H238603   4.081   4.815   0.185 -0.7476 -1.2847  0.5267
 5682TIP3   OH238604   5.685   5.610   1.784 -0.1142 -0.7318 -0.3736
 5682TIP3    H138605   5.638   5.658   1.852 -0.6108  1.1802 -1.9491
 5682TIP3    H238606   5.617   5.583   1.722  0.3831 -1.9791 -0.3986
 5683TIP3   OH238607   1.388   5.903   2.657  0.1338  0.7038 -0.3756
 5683TIP3    H138608   1.298   5.870   2.654 -0.1320  1.0159  2.0566
 5683TIP3    H238609   1.433   5.857   2.585 -1.7403 -0.0866 -1.1132
 5684TIP3   OH238610   6.861   1.885   1.339 -0.0335  0.3803  0.0623
 5684TIP3    H138611   6.904   1.969   1.329 -0.4873  0.7141  0.7885
 5684TIP3    H238612   6.864   1.867   1.433 -1.2620  0.3231  0.1184
 5685TIP3   OH238613   4.702   4.990   6.587 -0.6395  0.4018  0.1427
 5685TIP3    H138614   4.652   5.070   6.568 -0.2444  1.1180  1.8835
 5685TIP3    H238615   4.768   4.986   6.518 -1.1075  1.2075 -0.3686
 5686TIP3   OH238616   0.639   5.306   0.337  0.1093 -0.8437 -0.5334
 5686TIP3    H138617   0.597   5.230   0.378 -0.5276 -0.2862 -0.1324
 5686TIP3    H238618   0.590   5.318   0.255 -0.8563  0.0941  0.1565
 5687TIP3   OH238619   5.169   1.904   0.776 -0.4442  0.2672 -0.1384
 5687TIP3    H138620   5.090   1.871   0.733 -1.2764 -0.0974  1.5882
 5687TIP3    H238621   5.218   1.825   0.799 -0.6848  0.3834  0.7961
 5688TIP3   OH238622   0.583   0.535   0.390 -0.8221 -0.1993 -0.1236
 5688TIP3    H138623   0.547   0.542   0.302 -1.6252  0.8868  0.2773
 5688TIP3    H238624   0.526   0.471   0.434 -0.1595 -1.0706 -0.5042
 5689TIP3   OH238625   3.796   1.004   1.137 -0.4155  0.1799 -0.1854
 5689TIP3    H138626   3.740   0.970   1.067 -0.1442 -0.1117 -0.2637
 5689TIP3    H238627   3.869   1.047   1.091 -1.6468  2.4983 -0.1412
 5690TIP3   OH238628   3.166   5.289   6.268  0.8007  0.0281 -0.0364
 5690TIP3    H138629   3.258   5.316   6.259  0.3145  1.4029 -1.4033
 5690TIP3    H238630   3.168   5.194   6.264  1.9797  0.0588 -2.8173
 5691TIP3   OH238631   1.688   5.105   0.467 -0.3770  0.0105 -0.5541
 5691TIP3    H138632   1.650   5.162   0.400 -2.4828  0.8697  1.2321
 5691TIP3    H238633   1.647   5.020   0.452 -2.2712  0.6542  0.6700
 5692TIP3   OH238634   3.207   5.974   1.409  0.1017  0.1296  0.0260
 5692TIP3    H138635   3.223   5.973   1.503 -1.9654  0.9427  0.4578
 5692TIP3    H238636   3.170   5.888   1.390  0.5344 -0.0407 -0.0507
 5693TIP3   OH238637   5.252   6.762   1.362 -0.0005 -0.2592  0.3545
 5693TIP3    H138638   5.317   6.824   1.395  0.7084 -0.7710 -0.0648
 5693TIP3    H238639   5.279   6.677   1.397  0.4124 -0.7120 -1.0059
 5694TIP3   OH238640   0.600   2.169   7.068 -0.3395 -0.1102  0.6177
 5694TIP3    H138641   0.648   2.161   6.985  2.5564 -0.6402  2.2096
 5694TIP3    H238642   0.539   2.094   7.068 -1.6232  0.8384 -1.6803
 5695TIP3   OH238643   0.608   2.096   1.745  0.0924  0.3961  0.1174
 5695TIP3    H138644   0.643   2.183   1.762  1.8136 -0.5792  2.0472
 5695TIP3    H238645   0.541   2.084   1.812  0.4250 -0.0334  0.3800
 5696TIP3   OH238646   4.035   5.623   1.458 -0.0998  0.2756 -0.0009
 5696TIP3    H138647   4.031   5.639   1.363  1.3929  1.0862  0.0503
 5696TIP3    H238648   3.944   5.631   1.487 -0.5329  0.3648 -1.3121
 5697TIP3   OH238649   1.369   2.958   1.239  0.5175  0.0997  0.2928
 5697TIP3    H138650   1.316   3.026   1.196  0.0793  0.9317  2.0447
 5697TIP3    H238651   1.349   2.878   1.191 -0.3763  0.8806 -0.6781
 5698TIP3   OH238652   0.146   3.810   0.833  0.2581 -0.6255  0.1391
 5698TIP3    H138653   0.177   3.868   0.903  2.6764  0.6573 -1.8651
 5698TIP3    H238654   0.163   3.722   0.866 -2.5046 -0.3539  2.7978
 5699TIP3   OH238655   6.372   1.823   8.419 -0.0202  0.0758 -1.0191
 5699TIP3    H138656   6.430   1.748   8.422 -1.2359 -0.8770 -0.6673
 5699TIP3    H238657   6.322   1.819   8.500 -0.7660  0.7135 -1.4249
 5700TIP3   OH238658   4.098   4.280   6.122  0.1490 -0.2555  0.5965
 5700TIP3    H138659   4.187   4.309   6.143  0.4054 -0.9462  0.4686
 5700TIP3    H238660   4.081   4.208   6.182  0.2560 -1.1279 -0.3849
 5701TIP3   OH238661   1.686   2.279   8.467  0.2562 -0.0756  0.3380
 5701TIP3    H138662   1.756   2.324   8.515  0.6276  0.1497 -0.4023
 5701TIP3    H238663   1.611   2.338   8.474  0.6720  0.5618 -0.4206
 5702TIP3   OH238664   6.414   3.614   8.031  0.1820  0.1997  0.5205
 5702TIP3    H138665   6.328   3.655   8.041 -0.9223 -1.7459 -0.3747
 5702TIP3    H238666   6.426   3.604   7.937  1.1370 -0.0847  0.6575
 5703TIP3   OH238667   3.216   0.442   1.538  0.4262 -0.2345 -0.1229
 5703TIP3    H138668   3.276   0.490   1.481 -0.2895 -0.1491 -0.8174
 5703TIP3    H238669   3.133   0.489   1.530 -0.1982 -1.3869 -0.5461
 5704TIP3   OH238670   5.205   1.366   1.497  0.1699 -0.3714 -0.3323
 5704TIP3    H138671   5.205   1.388   1.590 -1.9288  2.0607 -0.7936
 5704TIP3    H238672   5.292   1.389   1.467  0.7023 -0.6648  0.8951
 5705TIP3   OH238673   2.952   0.946   8.349  0.0208  0.0893  0.4285
 5705TIP3    H138674   2.864   0.973   8.322 -0.8515 -0.1095  2.8098
 5705TIP3    H238675   2.938   0.864   8.395  1.7136 -0.7875 -0.5594
 5706TIP3   OH238676   6.011   6.170   1.848  0.2385  0.3099  0.0672
 5706TIP3    H138677   6.031   6.082   1.880  0.7178  0.3897 -0.0028
 5706TIP3    H238678   6.089   6.196   1.799  0.2909  0.9731  0.4988
 5707TIP3   OH238679   2.167   5.119   7.213  0.2968  0.1803 -0.6788
 5707TIP3    H138680   2.191   5.042   7.265 -1.9899 -0.1163  0.0341
 5707TIP3    H238681   2.139   5.083   7.128  0.6885  0.3674 -0.8894
 5708TIP3   OH238682   4.430   1.144   8.316  0.0845  0.3452  0.2104
 5708TIP3    H138683   4.422   1.058   8.275 -1.4600  0.0343  1.0877
 5708TIP3    H238684   4.419   1.206   8.244 -0.2733 -0.1997 -0.2142
 5709TIP3   OH238685   3.817   1.496   8.480  0.3164 -0.6359  0.2105
 5709TIP3    H138686   3.742   1.531   8.528 -0.0621 -0.2117 -0.6642
 5709TIP3    H238687   3.859   1.436   8.541 -1.4999 -1.9203  0.2892
 5710TIP3   OH238688   4.766   4.541   6.794  0.5875 -0.3053  0.1111
 5710TIP3    H138689   4.716   4.544   6.875  0.6220  0.2276  0.1201
 5710TIP3    H238690   4.836   4.606   6.807 -0.5636  1.2545 -1.0887
 5711TIP3   OH238691   1.180   0.678   8.137  0.3641  0.4177  0.6253
 5711TIP3    H138692   1.245   0.640   8.078  0.7807 -1.7094  2.3364
 5711TIP3    H238693   1.103   0.621   8.128 -0.4733  1.5300  0.3689
 5712TIP3   OH238694   1.048   0.294   0.320 -0.2130  0.2230  0.4181
 5712TIP3    H138695   1.020   0.359   0.255  0.0003 -1.1240 -1.0766
 5712TIP3    H238696   1.007   0.323   0.401 -2.2900  0.7812 -0.7526
 5713TIP3   OH238697   2.083   4.202   6.505  0.2544  0.0070  0.3703
 5713TIP3    H138698   2.065   4.108   6.508  1.6833 -0.3966 -1.6471
 5713TIP3    H238699   2.100   4.221   6.412 -0.0793  2.2869  0.7046
 5714TIP3   OH238700   0.204   2.354   2.010 -0.1422 -0.1845  0.0477
 5714TIP3    H138701   0.218   2.415   2.083  1.6539  0.2148 -0.5737
 5714TIP3    H238702   0.129   2.302   2.036 -0.3316  0.8037  1.6107
 5715TIP3   OH238703   4.574   4.434   7.269  0.1161  0.9446 -0.5040
 5715TIP3    H138704   4.574   4.353   7.318  0.9133  0.1320 -1.7862
 5715TIP3    H238705   4.604   4.500   7.332  1.4930 -0.1227  0.0240
 5716TIP3   OH238706   5.254   6.013   0.488  0.1568 -0.2952  0.1832
 5716TIP3    H138707   5.302   5.948   0.539  1.1063 -1.9157 -2.5634
 5716TIP3    H238708   5.163   6.001   0.514  0.5138 -1.5890  0.9256
 5717TIP3   OH238709   2.550   0.345   7.746  0.2115  0.2461  0.0599
 5717TIP3    H138710   2.556   0.253   7.773  1.3620  0.7383  1.6580
 5717TIP3    H238711   2.464   0.353   7.705  0.4939 -1.7572 -1.0138
 5718TIP3   OH238712   0.921   5.367   1.734 -0.3847 -0.4637 -0.0508
 5718TIP3    H138713   0.914   5.446   1.679  2.3403 -0.4274 -0.4931
 5718TIP3    H238714   0.954   5.399   1.817  0.1658 -1.0747 -0.0331
 5719TIP3   OH238715   2.900   0.334   0.648 -0.2377 -0.0223 -0.2746
 5719TIP3    H138716   2.963   0.404   0.659  0.6042 -0.9310  0.8740
 5719TIP3    H238717   2.887   0.298   0.735  1.3274 -2.9700 -1.1282
 5720TIP3   OH238718   3.357   2.253   1.091  0.6135 -0.6383 -0.6873
 5720TIP3    H138719   3.274   2.226   1.049 -0.1536 -0.7024  0.8198
 5720TIP3    H238720   3.377   2.337   1.050  0.4784 -1.1929 -1.9639
 5721TIP3   OH238721   1.909   6.520   1.122 -0.5237  0.6774 -0.3337
 5721TIP3    H138722   1.984   6.544   1.067 -0.2490  3.4071  1.0387
 5721TIP3    H238723   1.840   6.581   1.098 -1.8550 -0.8291 -0.5199
 5722TIP3   OH238724   5.183   5.681   1.601  0.6022  0.3705  0.1645
 5722TIP3    H138725   5.193   5.604   1.656  0.2673 -0.0199 -0.3134
 5722TIP3    H238726   5.155   5.750   1.662  2.5453  0.5729  0.8956
 5723TIP3   OH238727   6.329   4.744   7.658 -0.0092  0.7358 -0.3555
 5723TIP3    H138728   6.421   4.718   7.661 -0.2106 -0.1001 -0.8832
 5723TIP3    H238729   6.292   4.710   7.739  0.2082  1.3785  0.0254
 5724TIP3   OH238730   4.476   3.945   7.584  0.5356  0.0385  0.3423
 5724TIP3    H138731   4.443   3.906   7.503  1.1063 -2.1110  1.0802
 5724TIP3    H238732   4.571   3.934   7.579  0.6685  0.8883  0.8339
 5725TIP3   OH238733   1.097   3.329   0.467 -0.4010  0.3399  0.4475
 5725TIP3    H138734   1.069   3.405   0.518  0.4202  1.2102 -0.3624
 5725TIP3    H238735   1.188   3.346   0.445 -0.8112  0.2033 -1.6208
 5726TIP3   OH238736   2.962   0.877   1.053  0.2357  0.3777  0.0277
 5726TIP3    H138737   2.952   0.851   0.961  0.8494 -0.8136  0.2681
 5726TIP3    H238738   3.057   0.879   1.066  0.1710  1.4005  0.4221
 5727TIP3   OH238739   2.861   1.937   7.243 -0.3513 -0.3119  0.4145
 5727TIP3    H138740   2.922   1.990   7.191 -0.9252 -0.5195 -0.4957
 5727TIP3    H238741   2.846   1.859   7.190 -2.9476  0.6005 -0.3536
 5728TIP3   OH238742   1.718   4.050   0.440 -0.0593 -0.7934  0.1510
 5728TIP3    H138743   1.705   4.024   0.531 -0.0839 -4.1635 -0.6821
 5728TIP3    H238744   1.633   4.086   0.414 -0.2296 -0.3249  1.2813
 5729TIP3   OH238745   3.775   0.715   7.916  0.5469  0.0305  0.8065
 5729TIP3    H138746   3.813   0.723   8.003  0.8493 -1.6789  0.8650
 5729TIP3    H238747   3.821   0.782   7.864 -1.5646  3.0114  2.4950
 5730TIP3   OH238748   5.018   5.664   0.688  0.3434  0.0828  0.1446
 5730TIP3    H138749   4.949   5.649   0.623 -0.6958  1.0239  1.0010
 5730TIP3    H238750   5.006   5.595   0.753  0.9173 -0.4131 -0.2658
 5731TIP3   OH238751   4.357   2.621   7.079 -0.2419  0.2080 -0.0490
 5731TIP3    H138752   4.328   2.623   6.988 -1.5552 -0.4231  0.3360
 5731TIP3    H238753   4.425   2.554   7.081 -1.5479 -1.1626 -0.2123
 5732TIP3   OH238754   3.141   4.794   0.388 -0.2986 -0.2920  0.0166
 5732TIP3    H138755   3.105   4.713   0.353 -0.7535  0.7319 -2.1026
 5732TIP3    H238756   3.165   4.774   0.478  0.0333 -2.8927 -0.5749
 5733TIP3   OH238757   0.405   4.571   7.366  0.1649  0.2217  0.5257
 5733TIP3    H138758   0.426   4.657   7.329 -0.0585  0.7902  1.6828
 5733TIP3    H238759   0.374   4.520   7.291 -1.9301  1.8704  0.1617
 5734TIP3   OH238760   4.446   3.564   6.916  0.0604 -0.4197 -0.1176
 5734TIP3    H138761   4.374   3.553   6.854  1.1015  0.8608 -1.6480
 5734TIP3    H238762   4.419   3.638   6.970 -0.4527 -0.9482  0.3529
 5735TIP3   OH238763   5.337   5.759   8.188  0.5209  0.3824 -0.1159
 5735TIP3    H138764   5.279   5.684   8.177  1.2518 -0.0527 -1.1919
 5735TIP3    H238765   5.335   5.804   8.104  1.5999  0.4446 -0.1283
 5736TIP3   OH238766   6.438   3.648   0.569  0.2062  0.0465 -0.4706
 5736TIP3    H138767   6.378   3.717   0.540  0.6125 -0.0467 -1.5655
 5736TIP3    H238768   6.522   3.671   0.530  1.0846  0.5245  1.5578
 5737TIP3   OH238769   2.425   0.907   6.756  0.5650 -0.0185  0.0911
 5737TIP3    H138770   2.360   0.902   6.826  1.1767 -3.7029  0.5841
 5737TIP3    H238771   2.376   0.890   6.676  0.6770 -1.9196  0.3728
 5738TIP3   OH238772   6.151   2.883   7.805  0.1199 -0.0883  0.2044
 5738TIP3    H138773   6.242   2.868   7.779  0.0707  0.1856 -0.1268
 5738TIP3    H238774   6.152   2.876   7.901  0.8201  1.6015  0.3574
 5739TIP3   OH238775   5.696   5.976   7.475  0.0448 -0.0782  0.1389
 5739TIP3    H138776   5.728   5.992   7.386  1.7259 -0.0087  0.7352
 5739TIP3    H238777   5.601   5.987   7.468  0.1965  0.4425 -1.5303
 5740TIP3   OH238778   6.716   1.987   2.049 -0.3461  0.4147 -0.3665
 5740TIP3    H138779   6.757   1.901   2.054 -0.6046  0.3280  0.4943
 5740TIP3    H238780   6.697   2.000   1.956 -0.3088 -0.4558 -0.4996
 5741TIP3   OH238781   2.383   4.028   0.959 -0.1275  0.7381 -0.4145
 5741TIP3    H138782   2.321   4.065   1.021  0.8493  0.0184  1.0573
 5741TIP3    H238783   2.347   3.941   0.939 -1.1373  1.4568 -1.9632
 5742TIP3   OH238784   3.861   6.645   7.514 -0.6977 -0.0325  1.0156
 5742TIP3    H138785   3.888   6.555   7.495  2.6618  1.2575 -1.3575
 5742TIP3    H238786   3.770   6.638   7.540 -0.1111 -4.2704  2.7253
 5743TIP3   OH238787   3.555   1.841   6.475  0.0392 -0.3877 -0.3153
 5743TIP3    H138788   3.574   1.919   6.423 -1.1367  0.3736  0.3660
 5743TIP3    H238789   3.538   1.773   6.409 -0.9403  0.4329 -0.9410
 5744TIP3   OH238790   1.179   1.875   6.907 -0.2846  0.3450  0.1141
 5744TIP3    H138791   1.229   1.801   6.942  0.4305  2.1975  3.3934
 5744TIP3    H238792   1.146   1.843   6.823  3.2639 -2.2759 -0.5326
 5745TIP3   OH238793   3.165   2.831   1.433 -0.1856 -0.5157 -0.0695
 5745TIP3    H138794   3.080   2.820   1.475 -1.1287  3.2595 -0.6261
 5745TIP3    H238795   3.228   2.792   1.494 -2.2056 -3.3995  0.3567
 5746TIP3   OH238796   3.834   2.746   6.956 -0.0807 -0.1830 -0.3886
 5746TIP3    H138797   3.889   2.703   7.021 -1.3042 -1.1863  0.0239
 5746TIP3    H238798   3.776   2.677   6.923 -2.4032  1.1730  0.5926
 5747TIP3   OH238799   2.861   4.530   6.643  0.7423  0.0202 -0.5396
 5747TIP3    H138800   2.918   4.471   6.593  0.2132 -0.4130 -0.6378
 5747TIP3    H238801   2.798   4.472   6.685 -0.4008  0.5773 -1.4255
 5748TIP3   OH238802   1.234   1.843   2.258  0.1138  0.6795 -0.1163
 5748TIP3    H138803   1.169   1.911   2.241 -0.1338  0.5550  0.3280
 5748TIP3    H238804   1.268   1.862   2.345  0.9563  0.9645 -0.4945
 5749TIP3   OH238805   5.632   2.020   8.221 -0.8481 -0.2018 -0.0380
 5749TIP3    H138806   5.607   2.094   8.165 -0.4234  0.0562  0.1090
 5749TIP3    H238807   5.576   1.948   8.191 -1.2035  0.1534 -0.2416
 5750TIP3   OH238808   1.691   6.064   0.159  0.2421 -0.4290 -0.6456
 5750TIP3    H138809   1.621   6.050   0.223  0.2837 -2.0206 -0.8974
 5750TIP3    H238810   1.760   6.004   0.186  1.0182  0.2410 -1.1147
 5751TIP3   OH238811   2.334   5.185   8.503 -0.2912  0.6396  0.2285
 5751TIP3    H138812   2.410   5.128   8.520  0.7162  1.3110 -1.6284
 5751TIP3    H238813   2.356   5.228   8.420 -2.1852  1.7915  0.2812
 5752TIP3   OH238814   4.283   5.531   7.761 -0.2511  0.5281  0.1885
 5752TIP3    H138815   4.234   5.455   7.729 -1.1663  0.6044  1.3787
 5752TIP3    H238816   4.342   5.552   7.688 -0.8704 -0.5279 -0.6640
 5753TIP3   OH238817   4.524   4.745   7.736 -0.2919  0.2150  0.0784
 5753TIP3    H138818   4.447   4.787   7.699  0.6123 -0.6271 -3.0326
 5753TIP3    H238819   4.508   4.651   7.725  0.9707  0.0118 -0.2021
 5754TIP3   OH238820   1.759   5.933   0.530  0.1036  0.4297 -0.1888
 5754TIP3    H138821   1.709   5.896   0.603 -0.7881 -0.8024 -1.3765
 5754TIP3    H238822   1.842   5.961   0.570 -0.2206 -0.5126  1.2428
 5755TIP3   OH238823   2.824   5.735   0.582 -0.6516 -0.6418  0.1784
 5755TIP3    H138824   2.859   5.823   0.568 -2.2437  0.1279  0.7528
 5755TIP3    H238825   2.814   5.729   0.677 -1.3911 -1.0884  0.0780
 5756TIP3   OH238826   1.477   3.102   6.454  0.4372 -0.4795 -0.0923
 5756TIP3    H138827   1.472   3.052   6.372  0.6187 -3.3265  1.4782
 5756TIP3    H238828   1.395   3.151   6.458  0.5088 -0.1218 -2.0314
 5757TIP3   OH238829   6.024   1.316   6.261  0.3075 -0.6273 -0.5158
 5757TIP3    H138830   6.105   1.270   6.282 -0.6833 -2.6774 -0.9520
 5757TIP3    H238831   5.956   1.266   6.306 -0.9586 -0.2878 -1.9756
 5758TIP3   OH238832   1.304   2.134   0.255 -0.8558 -0.5398  0.3873
 5758TIP3    H138833   1.399   2.148   0.249 -0.9770  0.8305  1.1802
 5758TIP3    H238834   1.289   2.051   0.210  1.1832 -2.7457  3.3729
 5759TIP3   OH238835   0.613   2.715   7.919  0.0787 -0.2214  0.1797
 5759TIP3    H138836   0.627   2.801   7.880 -1.3647  0.4508  1.0685
 5759TIP3    H238837   0.677   2.710   7.990 -0.0362  0.2491  0.3186
 5760TIP3   OH238838   3.907   3.483   0.302  0.3373  0.1506 -0.2632
 5760TIP3    H138839   3.871   3.542   0.369 -0.8544 -1.4480  0.5653
 5760TIP3    H238840   3.984   3.444   0.343  0.2569  0.0062 -0.2501
 5761TIP3   OH238841   3.044   5.615   0.076  0.0367 -0.1306  0.4501
 5761TIP3    H138842   3.045   5.675   0.002 -0.8712 -1.1246 -0.4133
 5761TIP3    H238843   2.990   5.541   0.046  1.6659 -1.7100  1.1916
 5762TIP3   OH238844   0.343   5.035   3.072  0.4889 -0.0888  0.1578
 5762TIP3    H138845   0.287   4.991   3.007 -1.1552  0.5346  1.1017
 5762TIP3    H238846   0.418   5.066   3.021 -0.9797  0.8296 -1.5827
 5763TIP3   OH238847   2.588   3.740   7.591  0.7056 -0.1780  0.2138
 5763TIP3    H138848   2.621   3.711   7.676 -0.5144 -1.8958  0.1405
 5763TIP3    H238849   2.648   3.701   7.527  0.4881 -0.5381  0.2236
 5764TIP3   OH238850   5.285   5.254   0.876 -0.2555 -0.2401  0.7843
 5764TIP3    H138851   5.206   5.220   0.918 -2.1706  0.9409 -1.5715
 5764TIP3    H238852   5.350   5.186   0.887 -2.1087 -2.0145  1.4095
 5765TIP3   OH238853   6.476   1.749   7.044  0.1414 -0.7958  0.0173
 5765TIP3    H138854   6.569   1.747   7.023  0.1737 -3.7333 -0.0435
 5765TIP3    H238855   6.468   1.814   7.114  2.5215 -1.5481  1.0840
 5766TIP3   OH238856   5.030   5.112   6.685  0.0283 -0.2277 -0.4805
 5766TIP3    H138857   5.061   5.022   6.697  1.7655  0.3130 -0.6429
 5766TIP3    H238858   4.978   5.108   6.605  0.3662 -1.0397 -0.6787
 5767TIP3   OH238859   3.233   1.236   1.604 -0.2670  0.6635  0.3129
 5767TIP3    H138860   3.311   1.288   1.583 -0.5572  0.4907 -1.2735
 5767TIP3    H238861   3.174   1.297   1.648  0.3890  1.0220  0.7134
 5768TIP3   OH238862   2.967   5.964   8.281 -0.7400 -0.3804  0.7289
 5768TIP3    H138863   3.014   5.889   8.318 -1.9961 -2.7060 -2.0000
 5768TIP3    H238864   3.024   5.995   8.210  0.0073  1.7415  2.1253
 5769TIP3   OH238865   6.673   3.803   0.451  0.0993  0.0752  0.4773
 5769TIP3    H138866   6.722   3.830   0.373 -1.2045  1.2545  0.0261
 5769TIP3    H238867   6.732   3.821   0.524  0.3364  1.5496 -0.0480
 5770TIP3   OH238868   3.301   2.542   8.273  0.0295 -0.4035  0.2366
 5770TIP3    H138869   3.205   2.540   8.267 -0.1357  0.6821  1.8976
 5770TIP3    H238870   3.320   2.619   8.327  1.7210 -1.8246  1.8034
 5771TIP3   OH238871   2.538   1.495   7.144 -0.0595 -0.1027  0.1266
 5771TIP3    H138872   2.511   1.549   7.071  1.8610 -1.2147 -1.5217
 5771TIP3    H238873   2.533   1.405   7.111  1.5150 -0.5896  1.0666
 5772TIP3   OH238874   1.221   5.616   6.200  0.5019  0.3423 -0.3493
 5772TIP3    H138875   1.209   5.615   6.295 -0.0635 -1.0865 -0.4096
 5772TIP3    H238876   1.170   5.691   6.170 -0.7015 -0.1857  0.3226
 5773TIP3   OH238877   2.689   0.106   6.665  0.3141  0.5973 -0.0837
 5773TIP3    H138878   2.724   0.091   6.577  1.0822  0.5329  0.2239
 5773TIP3    H238879   2.626   0.035   6.678  0.5285  0.3416 -0.4123
 5774TIP3   OH238880   1.393   0.008   0.368 -0.3866  0.6250  0.1455
 5774TIP3    H138881   1.436   0.013   0.453 -0.9387  0.4467  0.4455
 5774TIP3    H238882   1.413  -0.080   0.335  3.5323  2.0784 -1.9660
 5775TIP3   OH238883   4.686   1.260   0.476  0.2319  0.3192 -0.2625
 5775TIP3    H138884   4.684   1.287   0.384 -1.1649 -2.3333 -1.1371
 5775TIP3    H238885   4.719   1.170   0.474  1.7193  0.7103  2.0674
 5776TIP3   OH238886   3.463   5.554   1.004  0.4604 -0.5036  0.0549
 5776TIP3    H138887   3.522   5.543   1.079  0.0727  0.9490  0.6016
 5776TIP3    H238888   3.467   5.647   0.984 -0.9485 -0.5417 -0.4911
 5777TIP3   OH238889   4.074   6.383   0.134 -0.5258  0.5091 -0.3987
 5777TIP3    H138890   4.018   6.370   0.057  0.3429  0.4874 -1.0391
 5777TIP3    H238891   4.057   6.307   0.189  0.0490 -0.3302 -1.3396
 5778TIP3   OH238892   0.240   3.308   1.867 -0.7680  0.0142 -0.6122
 5778TIP3    H138893   0.267   3.367   1.938 -0.8252  0.2773 -0.8084
 5778TIP3    H238894   0.157   3.271   1.898  0.0365 -1.1633  0.2011
 5779TIP3   OH238895   4.639   3.484   8.170  0.1334  0.1976  0.2661
 5779TIP3    H138896   4.578   3.415   8.148  1.4169 -0.3665 -1.8698
 5779TIP3    H238897   4.588   3.565   8.163 -0.7459 -0.3637  0.1168
 5780TIP3   OH238898   0.606   1.875   1.585 -0.1883  0.0710  0.3262
 5780TIP3    H138899   0.693   1.837   1.599  0.3500  0.5295 -1.5724
 5780TIP3    H238900   0.597   1.941   1.654  1.7807  1.3573 -0.5692
 5781TIP3   OH238901   5.022   4.791   1.514  0.2374 -0.0319 -0.3171
 5781TIP3    H138902   5.092   4.768   1.453 -0.7646 -1.7435 -0.8819
 5781TIP3    H238903   5.006   4.884   1.498  1.4006  0.0427 -1.1800
 5782TIP3   OH238904   3.728   2.251   0.820  0.0418  0.6403 -0.6007
 5782TIP3    H138905   3.781   2.224   0.745  2.8748  1.2892  1.0178
 5782TIP3    H238906   3.684   2.331   0.790  1.7413  1.3459 -1.3988
 5783TIP3   OH238907   0.805   5.694   6.573  0.0843  0.4876 -0.2621
 5783TIP3    H138908   0.791   5.781   6.535  1.2963  1.0701  0.5923
 5783TIP3    H238909   0.839   5.710   6.661  1.5938 -0.8312 -0.5510
 5784TIP3   OH238910   2.856   3.432   1.597  0.2686  0.9569  0.3232
 5784TIP3    H138911   2.789   3.464   1.657  1.0084  2.2576  0.4751
 5784TIP3    H238912   2.894   3.356   1.641 -0.2344  0.9703  0.7934
 5785TIP3   OH238913   5.362   4.687   8.462 -0.4532 -0.0017  0.2121
 5785TIP3    H138914   5.307   4.742   8.407  1.6223 -1.1020 -3.3280
 5785TIP3    H238915   5.316   4.603   8.468 -1.3815  0.5781  1.5149
 5786TIP3   OH238916   3.288   1.552   6.892  0.2060  0.3971  0.0189
 5786TIP3    H138917   3.299   1.595   6.807  0.3962  1.6442  0.6505
 5786TIP3    H238918   3.363   1.582   6.943 -0.9407  1.2482  1.2620
 5787TIP3   OH238919   0.483   0.798   1.154  0.1438  0.4017  0.1350
 5787TIP3    H138920   0.477   0.786   1.249 -0.3904  2.0722  0.3382
 5787TIP3    H238921   0.513   0.888   1.143 -1.0913  0.6651 -1.2925
 5788TIP3   OH238922   5.656   5.221   8.352 -0.5067  0.3184  0.3773
 5788TIP3    H138923   5.595   5.293   8.369 -0.2455  0.4656  0.7100
 5788TIP3    H238924   5.739   5.265   8.334 -0.6174  0.1422 -0.6531
 5789TIP3   OH238925   2.336   3.805   6.923  0.0687 -0.0150  0.6921
 5789TIP3    H138926   2.317   3.843   6.837 -1.9793  1.4068  1.7138
 5789TIP3    H238927   2.330   3.710   6.908 -1.5177  0.2349 -0.4843
 5790TIP3   OH238928   6.882   4.261   1.169 -0.8704  0.0094 -0.1455
 5790TIP3    H138929   6.868   4.225   1.081 -0.0603 -2.4292  0.6317
 5790TIP3    H238930   6.801   4.242   1.216 -0.1658 -1.7022  0.4898
 5791TIP3   OH238931   5.128   4.545   0.101 -0.3738  0.9459  0.1292
 5791TIP3    H138932   5.043   4.520   0.065  0.4220 -0.8744 -0.6119
 5791TIP3    H238933   5.123   4.640   0.110 -2.5601  0.8592  0.3392
 5792TIP3   OH238934   2.750   3.936   6.887  0.0611 -0.8716 -0.1045
 5792TIP3    H138935   2.764   3.984   6.805 -1.8073  0.5682  0.3538
 5792TIP3    H238936   2.748   3.844   6.861  0.0818 -0.4776 -1.5854
 5793TIP3   OH238937   5.251   3.353   8.128 -0.1286 -0.1869 -0.1905
 5793TIP3    H138938   5.215   3.330   8.213 -0.1302  0.4784 -0.0086
 5793TIP3    H238939   5.297   3.436   8.142  2.7332 -1.6498 -0.0512
 5794TIP3   OH238940   3.230   2.922   8.224 -0.2362  0.5924  0.0023
 5794TIP3    H138941   3.300   2.893   8.167 -0.4523  1.3051 -0.6396
 5794TIP3    H238942   3.160   2.948   8.165 -0.0587  2.3979  0.5391
 5795TIP3   OH238943   6.608   3.018   7.341  0.3927  0.5544 -0.5447
 5795TIP3    H138944   6.584   3.011   7.434  1.7958  2.6703  0.0473
 5795TIP3    H238945   6.697   2.982   7.337  0.2516  0.2666 -1.1169
 5796TIP3   OH238946   1.834   6.440   1.717 -0.2402  0.5041  0.6302
 5796TIP3    H138947   1.816   6.355   1.676  1.1836 -0.2985  1.5810
 5796TIP3    H238948   1.748   6.478   1.733 -0.8895 -0.4661 -0.4024
 5797TIP3   OH238949   1.351   5.009   6.312 -0.2531 -0.1907  0.3025
 5797TIP3    H138950   1.431   4.957   6.323 -0.1391 -0.5048 -1.6413
 5797TIP3    H238951   1.280   4.947   6.332 -0.0409  0.2718  2.6860
 5798TIP3   OH238952   2.593   1.378   8.010 -0.0245  0.0133  0.3609
 5798TIP3    H138953   2.586   1.453   7.951 -0.6626 -0.9278 -0.8092
 5798TIP3    H238954   2.549   1.307   7.964 -1.8138 -0.4320  2.5868
 5799TIP3   OH238955   4.689   4.161   7.870  0.3974  0.2431  0.0301
 5799TIP3    H138956   4.739   4.222   7.816 -0.4504  0.5849 -0.3891
 5799TIP3    H238957   4.728   4.075   7.850  0.4024  0.4241 -0.7682
 5800TIP3   OH238958   1.725   4.573   1.672  0.4495  0.3367 -0.4808
 5800TIP3    H138959   1.817   4.577   1.647  0.6661 -2.2937 -0.3725
 5800TIP3    H238960   1.726   4.542   1.763 -0.5150  0.3961 -0.4442
 5801TIP3   OH238961   1.776   2.604   8.430  0.2235  0.1703 -0.2132
 5801TIP3    H138962   1.842   2.544   8.464  0.8353  0.5528 -0.7081
 5801TIP3    H238963   1.698   2.549   8.416  0.2231 -0.1566  0.9780
 5802TIP3   OH238964   2.314   4.084   0.108 -0.1264  0.4656 -0.2008
 5802TIP3    H138965   2.385   4.025   0.132 -0.6842 -0.6125 -1.0701
 5802TIP3    H238966   2.358   4.162   0.074  0.6252  0.7544  1.3572
 5803TIP3   OH238967   1.378   1.486   8.033 -0.0530 -0.2432  0.8351
 5803TIP3    H138968   1.399   1.565   7.983 -0.4560 -0.0960  0.8984
 5803TIP3    H238969   1.299   1.508   8.082  0.8076 -0.1027  2.2072
 5804TIP3   OH238970   3.773   4.246   6.299 -0.0162 -0.3278  0.0926
 5804TIP3    H138971   3.860   4.207   6.307  0.0511 -0.6115 -1.7012
 5804TIP3    H238972   3.749   4.233   6.208 -2.0248 -0.3952  0.5923
 5805TIP3   OH238973   3.723   1.337   6.719  0.0100 -0.0177 -0.2734
 5805TIP3    H138974   3.709   1.429   6.741  0.1233 -0.3646  1.3824
 5805TIP3    H238975   3.762   1.300   6.798 -0.1008 -1.5095 -0.8972
 5806TIP3   OH238976   6.235   6.817   6.529  0.8137 -0.0890 -0.2819
 5806TIP3    H138977   6.265   6.727   6.547 -0.4174 -0.5527 -0.4762
 5806TIP3    H238978   6.316   6.868   6.525  1.6405 -1.3942 -1.3707
 5807TIP3   OH238979   0.995   4.569   8.516 -0.3437 -0.5401  0.3016
 5807TIP3    H138980   1.078   4.521   8.518 -0.1434 -0.2506 -0.5556
 5807TIP3    H238981   0.933   4.513   8.563  0.8843  0.3614  3.2105
 5808TIP3   OH238982   6.577   1.002   8.228 -0.2361  0.3551 -0.1321
 5808TIP3    H138983   6.508   0.944   8.195  0.1859 -0.3848  0.2512
 5808TIP3    H238984   6.658   0.953   8.213  0.1844  1.0856 -0.3003
 5809TIP3   OH238985   2.826   3.453   0.647  0.1776 -0.5209  0.4865
 5809TIP3    H138986   2.752   3.460   0.588  1.9455  4.7829 -1.7306
 5809TIP3    H238987   2.892   3.405   0.597  0.1880  0.0449 -0.0541
 5810TIP3   OH238988   3.807   1.174   0.809  0.1714 -0.0664  0.0484
 5810TIP3    H138989   3.813   1.140   0.719 -0.3658 -0.3731  0.1243
 5810TIP3    H238990   3.858   1.113   0.861 -0.3353 -0.4565  0.0984
 5811TIP3   OH238991   6.617   1.254   0.967  0.2366 -0.3963 -0.0744
 5811TIP3    H138992   6.609   1.348   0.950 -0.0971 -0.4829 -0.4108
 5811TIP3    H238993   6.543   1.215   0.920 -0.1420 -0.7414  0.7819
 5812TIP3   OH238994   5.145   0.517   7.934 -0.0840 -0.3620  0.0011
 5812TIP3    H138995   5.071   0.501   7.991 -1.4536 -0.7760 -1.7906
 5812TIP3    H238996   5.110   0.571   7.863  1.2493 -0.7853 -1.0319
 5813TIP3   OH238997   3.907   6.245   0.352 -0.5202 -0.4284  0.4886
 5813TIP3    H138998   3.911   6.206   0.440  1.5215 -0.4737  0.4107
 5813TIP3    H238999   3.832   6.201   0.310 -0.7627 -1.3039  1.7733
 5814TIP3   OH239000   0.427   5.868   8.446 -0.2659  0.2711 -0.0268
 5814TIP3    H139001   0.486   5.940   8.469 -0.4693  0.3867  0.1387
 5814TIP3    H239002   0.485   5.798   8.416 -0.1293  0.8655 -1.1812
 5815TIP3   OH239003   1.748   3.727   8.160 -0.2713 -0.4062  0.0587
 5815TIP3    H139004   1.799   3.646   8.155  1.5770  0.5656  1.7298
 5815TIP3    H239005   1.695   3.717   8.239 -2.3886 -1.1799 -1.3750
 5816TIP3   OH239006   6.645   3.429   0.250  0.2635 -0.0119  0.6636
 5816TIP3    H139007   6.729   3.450   0.291 -1.0142 -0.1844  3.5392
 5816TIP3    H239008   6.651   3.335   0.230  0.3675 -0.2815  1.8960
 5817TIP3   OH239009   0.049   0.176   1.426 -0.0212 -0.5143 -0.4981
 5817TIP3    H139010   0.131   0.176   1.376  0.4235 -0.0697  0.2129
 5817TIP3    H239011   0.023   0.084   1.429  1.3710 -0.9053  0.7249
 5818TIP3   OH239012   5.840   3.422   8.219  0.2129 -0.7059  0.0801
 5818TIP3    H139013   5.797   3.443   8.136 -0.1573 -1.1104  0.1687
 5818TIP3    H239014   5.880   3.336   8.204  0.1964 -0.7523  0.3016
 5819TIP3   OH239015   1.203   2.350   7.802 -0.4586  0.5092  0.4449
 5819TIP3    H139016   1.208   2.343   7.897  0.3087  2.9070  0.6480
 5819TIP3    H239017   1.109   2.346   7.782 -1.1975  4.7298  1.9141
 5820TIP3   OH239018   0.487   3.489   7.978  0.9610  0.7951  0.2661
 5820TIP3    H139019   0.438   3.566   7.947  0.5523  0.2985 -0.3330
 5820TIP3    H239020   0.459   3.479   8.069 -0.8530 -0.0724 -0.3347
 5821TIP3   OH239021   3.479   3.118   6.728  0.2569 -0.6994 -0.7468
 5821TIP3    H139022   3.537   3.069   6.787  1.2818  0.3590 -0.8481
 5821TIP3    H239023   3.411   3.055   6.705 -0.1638 -1.1711  1.5325
 5822TIP3   OH239024   2.579   5.619   8.509  0.1424 -0.1397  0.4281
 5822TIP3    H139025   2.494   5.660   8.493 -0.4185 -0.2752  2.7083
 5822TIP3    H239026   2.566   5.567   8.589  2.5865  0.5632  1.3774
 5823TIP3   OH239027   0.398   6.911   0.293 -0.3485 -0.2683 -0.8383
 5823TIP3    H139028   0.483   6.881   0.259  1.1436  1.5862  0.9630
 5823TIP3    H239029   0.370   6.842   0.352 -1.1059 -1.7635 -2.8271
 5824TIP3   OH239030   2.373   1.850   1.654  0.1287 -0.4763  0.6379
 5824TIP3    H139031   2.426   1.788   1.703  1.5741  1.8040  2.1551
 5824TIP3    H239032   2.338   1.910   1.721 -1.2980  0.2801 -0.7208
 5825TIP3   OH239033   0.786   5.039   2.947  0.5771 -0.3915 -0.1239
 5825TIP3    H139034   0.774   4.972   2.879 -2.7790 -0.2809  0.2138
 5825TIP3    H239035   0.870   5.080   2.924 -0.2268 -0.5021 -4.0684
 5826TIP3   OH239036   5.440   3.755   6.289  0.2263  0.1754  0.4310
 5826TIP3    H139037   5.345   3.748   6.285  0.3610 -1.8534 -1.3979
 5826TIP3    H239038   5.465   3.696   6.360  0.1888 -0.5054 -0.1168
 5827TIP3   OH239039   2.848   2.535   1.545 -0.1805 -0.5399  0.7262
 5827TIP3    H139040   2.921   2.579   1.590 -0.0839  0.0156  0.0460
 5827TIP3    H239041   2.801   2.489   1.615  0.4307 -0.3581  1.2725
 5828TIP3   OH239042   5.707   2.465   1.234 -0.4940 -0.2090  0.3185
 5828TIP3    H139043   5.746   2.535   1.181 -1.3814  0.1472  0.1271
 5828TIP3    H239044   5.690   2.395   1.172 -3.6985  1.0634 -0.4065
 5829TIP3   OH239045   3.023   0.252   1.055 -0.2391  0.2975 -0.4638
 5829TIP3    H139046   2.930   0.231   1.051 -0.6022  1.9847 -1.6619
 5829TIP3    H239047   3.063   0.194   0.989 -0.5910  0.3300 -0.7083
 5830TIP3   OH239048   5.433   6.117   7.440 -0.0480  0.3711 -0.2857
 5830TIP3    H139049   5.431   6.094   7.347 -1.9398  1.0196 -0.4665
 5830TIP3    H239050   5.342   6.143   7.459  0.5172  1.1504  1.5107
 5831TIP3   OH239051   4.919   3.724   7.656 -0.2434  0.1460  0.0254
 5831TIP3    H139052   5.012   3.718   7.681 -0.4024 -2.8878  0.2767
 5831TIP3    H239053   4.920   3.757   7.567  0.8763  2.5128  0.8248
 5832TIP3   OH239054   5.017   2.249   8.047 -0.3853  0.3287 -0.0590
 5832TIP3    H139055   5.097   2.198   8.032 -0.3048  0.8179 -1.4009
 5832TIP3    H239056   5.047   2.330   8.086 -0.0344  1.0921 -1.8143
 5833TIP3   OH239057   4.031   5.903   0.593  0.1227 -0.3377  0.2352
 5833TIP3    H139058   3.935   5.899   0.598  0.1003 -1.1766 -0.5918
 5833TIP3    H239059   4.049   5.922   0.501  0.7207  2.2092  0.7921
 5834TIP3   OH239060   1.961   6.226   1.118 -0.4548 -0.1231  0.5934
 5834TIP3    H139061   1.947   6.250   1.027  0.6987  0.1122  0.4581
 5834TIP3    H239062   1.908   6.289   1.168  0.9855  1.5375  0.1628
 5835TIP3   OH239063   1.601   6.710   7.485  0.2799 -0.4338  0.0694
 5835TIP3    H139064   1.684   6.707   7.533 -0.9621 -2.4026  2.3762
 5835TIP3    H239065   1.569   6.799   7.497  0.4283 -0.6117  2.3433
 5836TIP3   OH239066   0.521   4.337   6.937 -0.0670 -0.4040 -0.1442
 5836TIP3    H139067   0.527   4.432   6.947 -0.4332 -0.1615 -1.8400
 5836TIP3    H239068   0.500   4.325   6.844 -2.7603 -2.0043  0.5558
 5837TIP3   OH239069   1.615   3.791   7.442 -0.1106 -0.1336 -0.0382
 5837TIP3    H139070   1.565   3.848   7.500  0.7314  1.0763 -0.4640
 5837TIP3    H239071   1.555   3.718   7.422 -1.5557  1.0644 -0.2274
 5838TIP3   OH239072   0.332   3.326   6.892 -0.2188 -0.1206  0.0728
 5838TIP3    H139073   0.295   3.406   6.854 -1.2371 -0.4492  0.3175
 5838TIP3    H239074   0.256   3.280   6.928  0.3062 -1.3411 -0.3195
 5839TIP3   OH239075   5.496   3.848   2.080 -0.0506  0.0665 -0.6260
 5839TIP3    H139076   5.427   3.897   2.035 -1.5681 -2.0037 -0.7379
 5839TIP3    H239077   5.543   3.803   2.010 -0.3685 -0.6651 -0.3818
 5840TIP3   OH239078   1.494   0.645   7.414  0.1088 -0.4410  0.3382
 5840TIP3    H139079   1.529   0.559   7.389  3.1760  0.7243  0.1771
 5840TIP3    H239080   1.537   0.665   7.497 -1.3283  0.5412  0.8796
 5841TIP3   OH239081   0.811   3.410   0.637  0.1131 -0.5218  0.3406
 5841TIP3    H139082   0.892   3.420   0.687  0.8375  0.2307 -0.9428
 5841TIP3    H239083   0.775   3.326   0.667  1.4161 -0.9189  0.8585
 5842TIP3   OH239084   1.047   0.923   8.091  0.2212  0.0806  0.2205
 5842TIP3    H139085   1.091   0.842   8.113  0.5747 -0.1555 -1.2612
 5842TIP3    H239086   0.969   0.896   8.043  0.4463  0.6061 -0.4638
 5843TIP3   OH239087   6.913   2.732   7.824  0.0485 -0.3940  0.0651
 5843TIP3    H139088   6.900   2.822   7.854  0.8515 -0.5507  0.9224
 5843TIP3    H239089   6.881   2.732   7.734  0.6386  0.9134 -0.1699
 5844TIP3   OH239090   6.892   5.596   6.371  0.3454 -0.0470 -0.7259
 5844TIP3    H139091   6.965   5.658   6.373 -0.2090  0.6239 -0.9544
 5844TIP3    H239092   6.909   5.537   6.445 -0.0452  1.4535  0.6018
 5845TIP3   OH239093   3.832   0.968   1.403  0.1747 -0.3128  0.1508
 5845TIP3    H139094   3.820   0.994   1.312  1.2641 -0.9604 -0.1994
 5845TIP3    H239095   3.838   1.051   1.451 -0.4124  0.0295 -0.3545
 5846TIP3   OH239096   4.220   1.313   1.663 -0.0626 -0.6311  0.6690
 5846TIP3    H139097   4.213   1.408   1.660  1.3421 -0.4916 -2.5465
 5846TIP3    H239098   4.307   1.297   1.701 -0.2554 -0.6326  1.1115
 5847TIP3   OH239099   4.994   4.238   7.929  0.2821  0.6527 -0.9058
 5847TIP3    H139100   5.084   4.269   7.914  0.6435  0.0799 -0.0247
 5847TIP3    H239101   4.948   4.315   7.962  0.7866  0.6551 -0.1624
 5848TIP3   OH239102   6.774   4.468   7.188  0.1374 -0.1453 -0.0563
 5848TIP3    H139103   6.741   4.502   7.105 -1.5176  2.0245  1.3750
 5848TIP3    H239104   6.696   4.455   7.242  1.3016  1.3798  2.1527
 5849TIP3   OH239105   0.540   1.698   0.417 -0.5608 -0.1068 -0.1911
 5849TIP3    H139106   0.579   1.629   0.363  0.4880  0.3977 -0.0989
 5849TIP3    H239107   0.602   1.710   0.488 -0.3454  1.4490 -0.6042
 5850TIP3   OH239108   5.878   0.822   7.209 -0.2582 -0.1255  0.5091
 5850TIP3    H139109   5.844   0.909   7.230  0.3039  0.5764 -1.2446
 5850TIP3    H239110   5.891   0.825   7.114  1.5653 -1.4914  0.6808
 5851TIP3   OH239111   0.568   6.258   8.232 -0.2741 -0.1908  0.3526
 5851TIP3    H139112   0.555   6.349   8.205 -0.4564 -0.7536 -1.6357
 5851TIP3    H239113   0.629   6.222   8.167 -0.5714 -1.6185  0.8144
 5852TIP3   OH239114   4.384   5.760   0.354 -0.2305  0.2164  0.1775
 5852TIP3    H139115   4.457   5.812   0.386 -0.2398  1.3049 -1.4242
 5852TIP3    H239116   4.410   5.669   0.371  2.0613  0.4944 -1.3793
 5853TIP3   OH239117   0.002   3.424   0.387  0.2873  0.2165 -0.0366
 5853TIP3    H139118   0.065   3.378   0.331  2.2914  0.0980  2.1640
 5853TIP3    H239119   0.038   3.513   0.395 -1.8509  1.3420 -1.6533
 5854TIP3   OH239120   1.827   3.240   0.112  0.6527  0.2010  0.0187
 5854TIP3    H139121   1.897   3.305   0.108  1.8799 -0.9189  2.0382
 5854TIP3    H239122   1.861   3.165   0.063  0.1681  0.2146 -0.3565
 5855TIP3   OH239123   3.821   2.757   6.375 -0.0475 -0.4989  0.0864
 5855TIP3    H139124   3.915   2.756   6.395 -0.5645 -0.7989  2.8230
 5855TIP3    H239125   3.793   2.847   6.395  0.0434  0.4572 -3.3475
 5856TIP3   OH239126   0.118   0.982   2.356  0.2027 -0.1766  0.0720
 5856TIP3    H139127   0.133   1.017   2.268  0.6423  2.1251  1.0015
 5856TIP3    H239128   0.031   0.942   2.351 -0.1303  0.6353 -1.1941
 5857TIP3   OH239129   4.176   5.020   8.328 -0.2571 -0.1912  0.5325
 5857TIP3    H139130   4.266   4.992   8.312 -0.7044 -1.1605 -0.4410
 5857TIP3    H239131   4.127   4.988   8.252 -1.1841  1.5279  0.3577
 5858TIP3   OH239132   1.627   0.672   0.664 -0.5605 -0.2302 -0.4594
 5858TIP3    H139133   1.615   0.728   0.587  1.2232  0.3750 -0.3410
 5858TIP3    H239134   1.630   0.583   0.628 -3.3339 -0.3325 -0.6566
 5859TIP3   OH239135   0.053   0.277   7.920  0.6502  0.1560  0.1518
 5859TIP3    H139136  -0.034   0.248   7.948  1.2047 -2.3090 -0.4173
 5859TIP3    H239137   0.111   0.204   7.941  2.0709  0.5046 -2.1169
 5860TIP3   OH239138   3.920   5.608   0.522  0.3227  0.5405 -1.0709
 5860TIP3    H139139   3.988   5.646   0.466  1.0843  2.1586  0.8439
 5860TIP3    H239140   3.864   5.682   0.545 -0.8084 -0.3641 -0.8132
 5861TIP3   OH239141   5.353   0.638   8.061  0.2212  0.2863  0.9524
 5861TIP3    H139142   5.353   0.580   8.137  1.2730 -2.3098 -0.8564
 5861TIP3    H239143   5.274   0.615   8.013  0.3625  0.7503  0.4902
 5862TIP3   OH239144   0.148   5.006   8.478 -0.5953 -0.2944  0.0558
 5862TIP3    H139145   0.160   4.977   8.388 -2.3585  0.1066 -0.3499
 5862TIP3    H239146   0.195   4.941   8.531  0.5615 -0.4616 -1.1386
 5863TIP3   OH239147   3.296   0.712   0.515 -0.5147  0.0037  0.2065
 5863TIP3    H139148   3.228   0.774   0.542 -0.9310 -0.0004 -0.7736
 5863TIP3    H239149   3.376   0.744   0.556 -1.3239 -0.7802  2.5472
 5864TIP3   OH239150   2.942   1.531   6.897  0.9918  0.0925 -0.4082
 5864TIP3    H139151   2.863   1.476   6.901  0.1238  1.2709 -0.5880
 5864TIP3    H239152   2.987   1.503   6.818  0.5420 -0.3155 -0.5282
 5865TIP3   OH239153   5.953   6.765   6.948 -0.0439  0.4003 -0.1063
 5865TIP3    H139154   6.000   6.814   7.016  0.2305  0.8177 -0.5923
 5865TIP3    H239155   5.895   6.706   6.997  1.7489 -0.9140  0.5453
 5866TIP3   OH239156   0.766   4.603   0.488 -0.0509 -0.6943  0.6042
 5866TIP3    H139157   0.798   4.629   0.574  0.0648 -0.8076  0.5947
 5866TIP3    H239158   0.844   4.601   0.433 -0.2477  0.3281  0.2579
 5867TIP3   OH239159   3.277   5.965   7.431 -0.7649  0.2996  0.0287
 5867TIP3    H139160   3.259   5.932   7.343  2.6013  1.2525 -1.1664
 5867TIP3    H239161   3.348   5.909   7.463 -0.8269  1.0136  1.4983
 5868TIP3   OH239162   5.175   5.347   7.899 -0.3105  0.2564 -0.2650
 5868TIP3    H139163   5.206   5.423   7.947 -1.4392  0.4217  0.2316
 5868TIP3    H239164   5.255   5.304   7.868  0.6109 -0.7543  3.0850
 5869TIP3   OH239165   2.677   0.493   0.099  0.2259 -0.6651  0.3639
 5869TIP3    H139166   2.767   0.505   0.072 -0.5422  1.3865 -1.5597
 5869TIP3    H239167   2.665   0.554   0.172 -0.4246  1.7267 -1.6023
 5870TIP3   OH239168   6.330   0.262   0.948  0.3274  0.5676 -0.3589
 5870TIP3    H139169   6.359   0.199   0.881 -0.7281  1.8630 -2.1229
 5870TIP3    H239170   6.411   0.292   0.989  0.9222 -1.1185 -0.2135
 5871TIP3   OH239171   1.493   3.172   7.832 -0.1513 -0.6513 -0.2739
 5871TIP3    H139172   1.454   3.102   7.885 -1.4729 -0.6896 -1.2330
 5871TIP3    H239173   1.480   3.251   7.884 -0.2895 -0.8699  0.0270
 5872TIP3   OH239174   2.308   6.552   0.497 -0.1002  0.4423  0.6763
 5872TIP3    H139175   2.366   6.524   0.426 -1.7010 -1.7731  0.1304
 5872TIP3    H239176   2.283   6.471   0.542 -1.9172  1.4024  1.5254
 5873TIP3   OH239177   0.600   6.907   7.401 -0.0858  0.0067  0.2050
 5873TIP3    H139178   0.560   6.833   7.357 -0.7080 -0.2063  1.1022
 5873TIP3    H239179   0.527   6.965   7.424  0.4395  1.1731 -0.9555
 5874TIP3   OH239180   3.202   5.181   7.012  0.1046 -0.4298 -0.3669
 5874TIP3    H139181   3.108   5.176   7.028  0.0229 -2.4115 -1.1697
 5874TIP3    H239182   3.210   5.230   6.930 -0.3906 -1.7480 -1.2390
 5875TIP3   OH239183   6.465   1.240   8.246 -0.0266 -0.1447  0.1194
 5875TIP3    H139184   6.517   1.171   8.205  0.4503 -0.0567  0.5738
 5875TIP3    H239185   6.413   1.194   8.312 -1.3702 -0.4122 -1.0665
 5876TIP3   OH239186   5.824   6.454   6.995 -0.2457  0.6381  0.2483
 5876TIP3    H139187   5.756   6.520   6.998  0.8269  1.9218 -1.6308
 5876TIP3    H239188   5.803   6.401   6.918 -0.9588 -1.1310  1.5893
 5877TIP3   OH239189   6.550   1.219   7.928 -1.2597  0.0061  0.0037
 5877TIP3    H139190   6.589   1.287   7.983  1.1972  1.5606 -3.3497
 5877TIP3    H239191   6.608   1.144   7.938  0.5876  1.0441 -1.9852
 5878TIP3   OH239192   5.120   1.983   8.181  0.4682  0.5909 -0.2343
 5878TIP3    H139193   5.205   1.974   8.136  0.6535 -1.9578  0.4630
 5878TIP3    H239194   5.142   1.977   8.274 -0.3939  0.9418 -0.0003
 5879TIP3   OH239195   2.266   3.598   7.952  0.2471  0.2905 -0.1961
 5879TIP3    H139196   2.275   3.583   8.046  0.9541 -0.3165 -0.3529
 5879TIP3    H239197   2.294   3.688   7.939  2.5199 -0.3550 -0.1328
 5880TIP3   OH239198   5.622   1.560   7.332  0.0690  0.1842  0.5521
 5880TIP3    H139199   5.697   1.524   7.378  0.7099  0.3904 -0.3028
 5880TIP3    H239200   5.547   1.508   7.362  0.9840 -2.0765 -0.8539
 5881TIP3   OH239201   5.345   5.995   1.875 -0.2410  0.2915  0.0352
 5881TIP3    H139202   5.364   5.904   1.855  1.1226  0.4122  0.6443
 5881TIP3    H239203   5.293   5.993   1.956  0.7961  0.0784  0.7136
 5882TIP3   OH239204   0.234   2.446   0.296  0.5238 -0.5650 -0.1278
 5882TIP3    H139205   0.200   2.531   0.322  0.8389 -0.7281  0.8395
 5882TIP3    H239206   0.161   2.386   0.310  0.1549 -0.4102 -1.2290
 5883TIP3   OH239207   3.768   3.671   0.148  0.5444 -0.8467 -0.1979
 5883TIP3    H139208   3.682   3.631   0.135  1.1928 -1.7932 -2.0097
 5883TIP3    H239209   3.820   3.601   0.188  0.4003 -0.1784  1.1730
 5884TIP3   OH239210   1.636   5.919   7.258 -0.0796 -0.3223 -0.3526
 5884TIP3    H139211   1.670   5.834   7.287  2.0787  0.5679 -0.0730
 5884TIP3    H239212   1.658   5.923   7.165 -0.6782 -0.2932 -0.4932
 5885TIP3   OH239213   4.524   3.179   6.812 -0.4531  0.6834  0.1283
 5885TIP3    H139214   4.599   3.124   6.836 -0.1620  0.8856 -0.3153
 5885TIP3    H239215   4.563   3.257   6.774 -0.9078  0.2363 -1.3034
 5886TIP3   OH239216   5.157   5.311   7.619 -0.4908  0.3507 -0.1385
 5886TIP3    H139217   5.157   5.311   7.523  0.7700 -0.1571 -0.1551
 5886TIP3    H239218   5.163   5.218   7.642 -1.7631  0.3963  0.4551
 5887TIP3   OH239219   1.704   1.119   7.743  0.1307 -0.3310  0.2107
 5887TIP3    H139220   1.660   1.191   7.788 -1.6292 -0.9208 -0.4544
 5887TIP3    H239221   1.779   1.098   7.798 -0.3214  0.8474  1.3287
 5888TIP3   OH239222   0.451   0.952   8.168 -0.4329 -0.2184 -0.0235
 5888TIP3    H139223   0.479   0.901   8.244  0.1624 -0.2952 -0.2888
 5888TIP3    H239224   0.358   0.971   8.184 -1.0509 -2.5330 -0.5374
 5889TIP3   OH239225   6.864   6.252   7.432 -0.0877  0.0477  0.5137
 5889TIP3    H139226   6.957   6.258   7.409 -0.0970 -1.7178 -0.1413
 5889TIP3    H239227   6.822   6.322   7.383  0.3922 -1.5003 -2.3035
 5890TIP3   OH239228   5.650   1.279   1.146 -0.3473 -0.2961  0.3389
 5890TIP3    H139229   5.613   1.193   1.124  1.0639 -0.5656 -1.1634
 5890TIP3    H239230   5.744   1.265   1.147 -0.1108  1.1350  0.6000
 5891TIP3   OH239231   2.069   4.053   0.239 -0.2605 -0.0855  0.3603
 5891TIP3    H139232   2.002   4.068   0.172  0.8660  1.2500 -0.5478
 5891TIP3    H239233   2.149   4.039   0.189  0.5639  0.7241  1.4120
 5892TIP3   OH239234   1.673   3.759   7.771  0.5820  0.1279 -0.0688
 5892TIP3    H139235   1.690   3.823   7.701 -0.8243  0.2529 -0.3344
 5892TIP3    H239236   1.759   3.741   7.809  0.8240  4.2343  1.8614
 5893TIP3   OH239237   6.314   0.956   1.684  0.1063 -0.3417  0.5303
 5893TIP3    H139238   6.407   0.933   1.689  0.0494 -0.7263 -0.1081
 5893TIP3    H239239   6.302   0.987   1.594 -0.3622 -0.1944  0.6417
 5894TIP3   OH239240   0.376   6.793   1.927 -0.0916  0.1216 -0.2682
 5894TIP3    H139241   0.351   6.720   1.983  0.5074  0.1084 -0.0017
 5894TIP3    H239242   0.472   6.790   1.926 -0.0405  1.2020  0.1679
 5895TIP3   OH239243   5.522   4.042   0.363  0.3872  0.3388 -0.4558
 5895TIP3    H139244   5.533   4.016   0.271  0.2400 -0.7880 -0.1749
 5895TIP3    H239245   5.493   4.133   0.359 -1.5611 -0.2639 -1.6071
 5896TIP3   OH239246   1.306   4.488   0.650 -0.3480 -0.6793  0.2674
 5896TIP3    H139247   1.227   4.537   0.670  0.7518  1.3357  0.0062
 5896TIP3    H239248   1.297   4.464   0.557  0.1792  1.3591 -0.3719
 5897TIP3   OH239249   2.420   2.842   6.181 -0.4404 -0.2118  0.5290
 5897TIP3    H139250   2.501   2.874   6.221  0.2081 -1.6960  0.5014
 5897TIP3    H239251   2.379   2.919   6.143  2.1858  0.2711 -1.6094
 5898TIP3   OH239252   3.657   2.659   7.388  0.1847 -0.7176 -0.0271
 5898TIP3    H139253   3.599   2.607   7.444  1.2321 -1.8924  0.0238
 5898TIP3    H239254   3.601   2.691   7.317 -0.9313 -0.1213  1.0843
 5899TIP3   OH239255   0.594   2.901   7.064 -0.3118  0.4208  0.2117
 5899TIP3    H139256   0.638   2.854   6.993 -1.9455  0.0674 -0.6102
 5899TIP3    H239257   0.617   2.993   7.050  1.4952  0.1135  0.8130
 5900TIP3   OH239258   0.937   4.639   1.653  0.7481 -0.2318 -0.0048
 5900TIP3    H139259   0.928   4.706   1.585  0.3688 -0.9571 -0.6936
 5900TIP3    H239260   0.888   4.564   1.618 -0.6979 -0.1527  1.6901
 5901TIP3   OH239261   5.778   5.957   6.413  0.1406 -0.6047  0.0034
 5901TIP3    H139262   5.711   5.920   6.355 -0.7945  2.4910 -1.0617
 5901TIP3    H239263   5.853   5.899   6.401 -1.1075 -2.0090 -1.6916
 5902TIP3   OH239264   5.805   2.973   0.619  0.5226 -0.0835 -0.2364
 5902TIP3    H139265   5.843   3.060   0.632 -0.6033  0.7116 -1.8756
 5902TIP3    H239266   5.863   2.930   0.556 -0.6064  0.7424 -1.9295
 5903TIP3   OH239267   1.457   5.249   6.809  0.1939  0.4740  0.0402
 5903TIP3    H139268   1.385   5.299   6.770  1.6826  1.8806 -1.0505
 5903TIP3    H239269   1.521   5.241   6.738  1.3889 -0.1712  1.1476
 5904TIP3   OH239270   4.433   3.916   0.926  0.3281 -0.1175  0.2078
 5904TIP3    H139271   4.370   3.907   0.854 -0.0242  2.8710 -0.0044
 5904TIP3    H239272   4.504   3.969   0.890  0.9547  0.0364  1.5951
 5905TIP3   OH239273   4.757   3.922   7.756 -0.6074  0.3674 -0.0012
 5905TIP3    H139274   4.810   3.854   7.716 -1.1721  0.3685 -0.7824
 5905TIP3    H239275   4.684   3.874   7.796 -0.1482  0.3831  0.8673
 5906TIP3   OH239276   6.851   2.927   7.333  0.2940 -0.0929  0.0845
 5906TIP3    H139277   6.916   2.989   7.367  0.3658  1.5112 -2.6493
 5906TIP3    H239278   6.894   2.885   7.259 -1.6118  0.8930 -1.7006
 5907TIP3   OH239279   2.743   3.374   6.193 -0.1875 -0.4644  0.6924
 5907TIP3    H139280   2.806   3.398   6.261  0.4714 -1.2320  0.3673
 5907TIP3    H239281   2.712   3.458   6.159  1.2646 -0.0539  0.3228
 5908TIP3   OH239282   1.259   1.312   7.022  0.5238 -0.3120  0.4742
 5908TIP3    H139283   1.269   1.257   6.944  1.2084  0.4830 -0.0202
 5908TIP3    H239284   1.167   1.338   7.021  0.7981  0.6881 -0.7675
 5909TIP3   OH239285   6.529   2.344   0.787 -0.0698 -0.4761 -0.5720
 5909TIP3    H139286   6.439   2.324   0.814  0.3300 -0.5719  0.7433
 5909TIP3    H239287   6.530   2.439   0.774 -0.0201 -0.2631  0.8271
 5910TIP3   OH239288   2.826   6.031   1.300  0.0015  0.4497  0.4140
 5910TIP3    H139289   2.788   6.108   1.257  1.1730  0.9095  0.1845
 5910TIP3    H239290   2.752   5.992   1.347 -0.4839  2.0775  1.0843
 5911TIP3   OH239291   1.786   0.216   7.421  0.0801 -0.6163  0.2934
 5911TIP3    H139292   1.825   0.303   7.431 -0.6572 -0.2930  0.3902
 5911TIP3    H239293   1.734   0.221   7.341 -0.9243 -0.5906  0.9204
 5912TIP3   OH239294   2.038   3.750   0.009  1.3104 -0.3073 -0.2835
 5912TIP3    H139295   2.049   3.788  -0.078 -0.5938 -2.5928 -1.6469
 5912TIP3    H239296   2.126   3.731   0.039  2.0147  0.6316 -1.6576
 5913TIP3   OH239297   1.492   4.257   1.370  0.7981 -0.1263 -0.3763
 5913TIP3    H139298   1.539   4.197   1.311  0.8117 -0.3941 -0.0928
 5913TIP3    H239299   1.446   4.200   1.431 -1.3867  0.0611 -1.7319
 5914TIP3   OH239300   1.285   0.375   0.951  0.0051  0.6668 -0.4075
 5914TIP3    H139301   1.347   0.304   0.970 -0.6737  0.2567  0.3225
 5914TIP3    H239302   1.340   0.448   0.924  0.7847  0.1888 -0.1444
 5915TIP3   OH239303   2.873   0.055   7.561  0.2487  0.2913 -0.8749
 5915TIP3    H139304   2.859   0.086   7.651  2.0848 -0.0438 -0.4291
 5915TIP3    H239305   2.944  -0.009   7.569  1.7734  1.6070 -2.7913
 5916TIP3   OH239306   4.744   2.075   7.307 -0.9218 -0.2897  0.3738
 5916TIP3    H139307   4.729   2.111   7.395 -1.3202  0.0734  0.1607
 5916TIP3    H239308   4.800   2.139   7.264  0.5659 -1.2248  0.8759
 5917TIP3   OH239309   5.874   0.111   2.373  0.0285 -0.1113 -0.1803
 5917TIP3    H139310   5.900   0.024   2.345  0.7132  0.2606 -0.7461
 5917TIP3    H239311   5.893   0.167   2.297 -2.5465  0.1930 -0.6988
 5918TIP3   OH239312   2.240   6.341   8.153  0.0184 -0.6329  0.0264
 5918TIP3    H139313   2.244   6.387   8.237 -0.8278  1.1781 -0.8616
 5918TIP3    H239314   2.172   6.387   8.104  0.3081 -1.8159 -1.5601
 5919TIP3   OH239315   2.828   0.487   7.813  0.3140 -0.0678 -0.6280
 5919TIP3    H139316   2.775   0.430   7.757 -2.9221  1.1443  0.9226
 5919TIP3    H239317   2.801   0.576   7.790  0.2408  0.5329  1.5105
 5920TIP3   OH239318   0.027   5.263   6.852  0.0805 -0.1220  0.3265
 5920TIP3    H139319   0.078   5.243   6.773 -1.1394  1.8164 -1.0192
 5920TIP3    H239320  -0.034   5.189   6.860 -0.2854  0.0249 -0.9806
 5921TIP3   OH239321   4.112   0.689   0.703 -0.2598 -0.3270 -0.5392
 5921TIP3    H139322   4.181   0.652   0.648  1.2230  0.6878  0.5634
 5921TIP3    H239323   4.087   0.617   0.762 -1.7503 -1.3736 -2.3278
 5922TIP3   OH239324   4.661   3.599   6.249 -0.8216 -0.4289  0.6876
 5922TIP3    H139325   4.756   3.615   6.241 -1.1096  3.4082  2.6703
 5922TIP3    H239326   4.654   3.526   6.310  0.9087  0.4075  1.9826
 5923TIP3   OH239327   4.728   1.612   8.153 -0.0123  0.2023  0.1781
 5923TIP3    H139328   4.820   1.632   8.139  0.4437 -0.1412  2.4166
 5923TIP3    H239329   4.681   1.682   8.106  1.4027  1.1211  0.0827
 5924TIP3   OH239330   6.783   2.431   0.616 -0.3713 -0.4701 -0.1653
 5924TIP3    H139331   6.812   2.340   0.609 -0.9668 -0.5844 -1.2140
 5924TIP3    H239332   6.712   2.439   0.553 -0.6280  0.6109  0.2389
 5925TIP3   OH239333   6.501   5.857   0.078  0.3513 -0.5100  0.1436
 5925TIP3    H139334   6.485   5.820  -0.009  0.4549 -2.1911  0.8118
 5925TIP3    H239335   6.515   5.950   0.061  0.1065 -0.7471 -1.6094
 5926TIP3   OH239336   1.329   5.642   0.402  0.3136  0.3673  0.1070
 5926TIP3    H139337   1.382   5.706   0.355  2.2031  0.1376  1.7761
 5926TIP3    H239338   1.358   5.557   0.369 -1.0783  0.2848 -0.9852
 5927TIP3   OH239339   0.783   0.113   2.567  0.0660 -0.0401 -0.6929
 5927TIP3    H139340   0.697   0.091   2.604  0.6291  0.0870  0.7580
 5927TIP3    H239341   0.820   0.029   2.541  0.3922 -0.3779  0.7489
 5928TIP3   OH239342   4.172   4.202   6.440  0.1274 -0.7462  0.5775
 5928TIP3    H139343   4.242   4.209   6.375 -0.4056  1.6419  0.1623
 5928TIP3    H239344   4.100   4.160   6.393  0.1146 -0.0105 -0.0906
 5929TIP3   OH239345   4.120   0.358   1.153 -0.4403  0.3177  0.2845
 5929TIP3    H139346   4.085   0.313   1.230  1.2658  0.3660  1.1440
 5929TIP3    H239347   4.196   0.407   1.187  0.7825 -0.2149 -1.5334
 5930TIP3   OH239348   5.570   0.354   0.724  0.2247  0.2411 -0.1712
 5930TIP3    H139349   5.589   0.321   0.812  1.3760 -0.2254 -0.5738
 5930TIP3    H239350   5.655   0.385   0.692 -0.3828  1.3954 -0.7244
 5931TIP3   OH239351   2.337   0.500   0.303 -1.0315  0.6270  0.1995
 5931TIP3    H139352   2.358   0.411   0.278  0.1770  0.9095  0.1159
 5931TIP3    H239353   2.243   0.500   0.319 -1.0168 -0.6892  0.3507
 5932TIP3   OH239354   3.082   3.379   7.029 -0.4665 -0.7250 -0.7009
 5932TIP3    H139355   3.177   3.394   7.037 -0.1587 -2.2610 -1.0668
 5932TIP3    H239356   3.054   3.442   6.962  0.2716 -0.1880 -0.5237
 5933TIP3   OH239357   6.461   5.150   6.630  0.4043  0.1254 -0.6306
 5933TIP3    H139358   6.506   5.099   6.696 -0.7006  0.8598  0.7410
 5933TIP3    H239359   6.463   5.240   6.663 -0.2800  0.4889 -1.5165
 5934TIP3   OH239360   1.640   5.874   6.982  0.0376 -0.4080  0.7698
 5934TIP3    H139361   1.717   5.861   6.928  0.1077  0.3801  0.6691
 5934TIP3    H239362   1.576   5.914   6.923 -0.4360 -1.0097  0.8626
 5935TIP3   OH239363   0.311   6.671   0.455  0.3477  0.1212 -0.0011
 5935TIP3    H139364   0.393   6.720   0.466  0.2869  0.0464  0.8206
 5935TIP3    H239365   0.307   6.614   0.531  0.2141 -0.8823 -0.7421
 5936TIP3   OH239366   2.166   3.245   7.351 -0.1284 -0.3319 -0.1555
 5936TIP3    H139367   2.205   3.297   7.281  1.1405  0.2763  0.9622
 5936TIP3    H239368   2.240   3.204   7.396 -0.7474  0.5827  1.8332
 5937TIP3   OH239369   0.577   5.397   7.513 -0.2939  0.5949  0.5298
 5937TIP3    H139370   0.615   5.310   7.524 -0.6135  0.1664 -1.4369
 5937TIP3    H239371   0.650   5.453   7.487 -0.1562  0.8735  1.4532
 5938TIP3   OH239372   2.780   2.386   8.479 -0.6449  0.7538  0.5712
 5938TIP3    H139373   2.809   2.425   8.561  2.9155  0.5987 -0.4488
 5938TIP3    H239374   2.767   2.294   8.499  1.3385  0.4736  0.8401
 5939TIP3   OH239375   5.614   0.130   1.950  0.2043 -0.0137 -0.1115
 5939TIP3    H139376   5.568   0.056   1.990  0.0871  0.7575  1.2251
 5939TIP3    H239377   5.702   0.097   1.932 -0.1250 -0.7545 -0.4067
 5940TIP3   OH239378   2.137   6.876   8.135 -0.4611  0.4259 -0.6354
 5940TIP3    H139379   2.202   6.838   8.194 -0.2448  1.4362 -0.2092
 5940TIP3    H239380   2.098   6.947   8.185 -2.4631 -0.6407 -0.5922
 5941TIP3   OH239381   1.823   2.298   0.912 -0.6774 -0.3254 -0.0119
 5941TIP3    H139382   1.823   2.392   0.894  1.4561 -0.1581  0.6624
 5941TIP3    H239383   1.862   2.259   0.834  2.8297 -0.1515  1.4914
 5942TIP3   OH239384   3.252   5.419   0.204 -0.7240  0.4587 -0.5891
 5942TIP3    H139385   3.190   5.389   0.270  0.0252 -1.3051 -0.6267
 5942TIP3    H239386   3.199   5.443   0.129 -1.5599  2.0893  0.4771
 5943TIP3   OH239387   2.018   6.008   1.314 -0.1608 -0.0209 -0.0553
 5943TIP3    H139388   1.996   6.070   1.244  0.5238  0.1555 -0.1308
 5943TIP3    H239389   2.029   6.062   1.392  1.5158  0.1361 -0.3466
 5944TIP3   OH239390   6.688   6.194   8.198  0.0879 -0.1820  0.4899
 5944TIP3    H139391   6.724   6.250   8.267  1.3423 -0.3647  0.0247
 5944TIP3    H239392   6.650   6.255   8.135  1.8043  0.2213 -0.2110
 5945TIP3   OH239393   3.817   4.694   0.350 -0.1666  0.0776 -0.0435
 5945TIP3    H139394   3.817   4.757   0.278  1.1471 -0.1912 -0.3107
 5945TIP3    H239395   3.744   4.636   0.332 -0.8241  0.9635 -0.2962
 5946TIP3   OH239396   5.776   1.911   6.603  0.0398  0.3074  0.4234
 5946TIP3    H139397   5.857   1.877   6.640  0.0160  0.5121  0.6601
 5946TIP3    H239398   5.722   1.833   6.589  0.6560  0.0468 -0.6804
 5947TIP3   OH239399   4.514   1.996   7.710 -0.2919  0.7120  0.2867
 5947TIP3    H139400   4.509   1.945   7.629 -0.7497  0.7933  0.2650
 5947TIP3    H239401   4.576   1.947   7.764 -0.0413  0.6146 -0.0809
 5948TIP3   OH239402   6.075   2.351   0.521  0.2621  0.2463  0.5045
 5948TIP3    H139403   6.155   2.394   0.553 -0.2175  1.2614  0.3749
 5948TIP3    H239404   6.054   2.287   0.589  0.7268  0.5562  0.9518
 5949TIP3   OH239405   3.191   4.255   0.514  0.4252 -0.1436  0.7640
 5949TIP3    H139406   3.283   4.273   0.495  0.4788  0.9793  1.9124
 5949TIP3    H239407   3.168   4.319   0.582 -1.4431  0.1419 -0.0909
 5950TIP3   OH239408   6.453   4.943   7.236 -0.0366  0.2529  0.1906
 5950TIP3    H139409   6.535   4.895   7.242 -0.3410 -0.5587 -1.4514
 5950TIP3    H239410   6.394   4.885   7.187 -1.4914  0.9541  1.0263
 5951TIP3   OH239411   1.379   3.383   7.607  0.3106  0.0693  0.3258
 5951TIP3    H139412   1.285   3.382   7.622  0.2295  0.2448 -0.1593
 5951TIP3    H239413   1.406   3.291   7.613  0.0612 -0.0145  0.1713
 5952TIP3   OH239414   5.442   3.094   0.015 -0.6044 -0.2291 -0.1653
 5952TIP3    H139415   5.349   3.070   0.021 -0.5805 -0.5242 -0.9142
 5952TIP3    H239416   5.475   3.044  -0.059 -0.0510  0.5367 -0.4466
 5953TIP3   OH239417   1.056   0.212   6.978  1.0875 -0.1278 -0.1658
 5953TIP3    H139418   1.005   0.204   6.897 -2.0782 -0.5092  1.7135
 5953TIP3    H239419   1.040   0.302   7.007  2.6501  0.1816 -0.2080
 5954TIP3   OH239420   1.017   6.613   7.922  0.2024 -0.1330  0.1771
 5954TIP3    H139421   0.993   6.702   7.898  2.8304  1.0269  1.3976
 5954TIP3    H239422   1.099   6.597   7.876 -1.0504 -2.6950 -1.4305
 5955TIP3   OH239423   0.960   6.372   0.804  0.4509 -0.1923 -0.0413
 5955TIP3    H139424   0.991   6.451   0.850  1.0760 -0.7708  0.5573
 5955TIP3    H239425   0.993   6.383   0.714  0.5811  0.2025  0.0485
 5956TIP3   OH239426   4.300   2.625   0.551 -0.0970  0.0214  0.5152
 5956TIP3    H139427   4.325   2.607   0.642  0.9145 -0.3962  0.1616
 5956TIP3    H239428   4.300   2.720   0.545  2.2612  0.0600  0.3262
 5957TIP3   OH239429   2.763   4.976   8.165 -0.2646  0.2376 -0.0099
 5957TIP3    H139430   2.767   4.969   8.069  0.2985  1.6820 -0.1288
 5957TIP3    H239431   2.670   4.967   8.186 -0.5680  1.2025 -0.8406
 5958TIP3   OH239432   5.122   5.240   1.304  0.4388  0.0393  0.3018
 5958TIP3    H139433   5.054   5.234   1.236 -0.1005 -0.6491  0.8986
 5958TIP3    H239434   5.177   5.313   1.275 -0.4122  0.4548 -0.3182
 5959TIP3   OH239435   1.123   1.164   2.557  0.2986  0.1104  0.5475
 5959TIP3    H139436   1.047   1.216   2.528  0.3507  1.2226  2.2211
 5959TIP3    H239437   1.192   1.185   2.495 -0.6794 -0.7483 -0.8757
 5960TIP3   OH239438   6.314   4.624   7.898  0.1808 -0.2179  0.1348
 5960TIP3    H139439   6.345   4.534   7.905 -0.3283 -0.4374 -0.3245
 5960TIP3    H239440   6.226   4.622   7.938 -0.2168 -0.1419 -0.7155
 5961TIP3   OH239441   3.817   1.059   8.142  0.9611 -0.7289 -0.4595
 5961TIP3    H139442   3.847   1.096   8.225 -0.8749  1.6328 -0.7196
 5961TIP3    H239443   3.820   0.965   8.154  0.0977 -0.4588  2.5546
 5962TIP3   OH239444   2.158   6.489   0.184  0.9281 -0.6171  0.3089
 5962TIP3    H139445   2.198   6.572   0.210  0.2048 -0.6076  1.4615
 5962TIP3    H239446   2.068   6.493   0.218  0.5619 -1.4545 -0.4950
 5963TIP3   OH239447   4.009   1.662   6.891 -0.6392  0.1866 -0.3690
 5963TIP3    H139448   4.086   1.606   6.891 -0.4687  0.3145 -2.8955
 5963TIP3    H239449   4.015   1.711   6.973 -0.0559 -2.4191  1.2628
 5964TIP3   OH239450   4.528   3.379   0.024  0.4373 -0.0573 -0.7913
 5964TIP3    H139451   4.621   3.399   0.032  0.2258  0.6782 -0.0288
 5964TIP3    H239452   4.512   3.311   0.090 -0.1233  1.8907  1.2253
 5965TIP3   OH239453   0.640   5.604   1.287 -0.4804  0.0033 -0.1921
 5965TIP3    H139454   0.726   5.577   1.320 -0.7366 -1.0904 -0.3855
 5965TIP3    H239455   0.616   5.679   1.340 -0.0543 -0.5822  0.8536
 5966TIP3   OH239456   4.311   4.976   1.394  0.7889 -0.3128  0.1556
 5966TIP3    H139457   4.312   4.957   1.300  1.8897 -3.5762  0.6757
 5966TIP3    H239458   4.379   4.919   1.430  1.2055  1.6880  2.8405
 5967TIP3   OH239459   2.211   5.448   0.369  0.4721  0.2718 -0.0791
 5967TIP3    H139460   2.235   5.430   0.279 -0.6344 -0.4389 -0.2586
 5967TIP3    H239461   2.163   5.531   0.365 -1.9556 -1.0464 -0.6250
 5968TIP3   OH239462   5.599   6.152   1.274  0.4655  0.3343 -0.3566
 5968TIP3    H139463   5.642   6.227   1.233  1.3636 -0.1721 -0.3574
 5968TIP3    H239464   5.577   6.182   1.362 -0.2351  0.9728 -0.7321
 5969TIP3   OH239465   4.397   2.196   1.056 -0.0986 -0.0087  0.3321
 5969TIP3    H139466   4.304   2.219   1.058 -0.5060 -1.1501 -2.1427
 5969TIP3    H239467   4.403   2.115   1.106 -1.0155 -1.4595 -1.7655
 5970TIP3   OH239468   4.154   5.497   7.387 -0.2442  0.3206 -0.0475
 5970TIP3    H139469   4.241   5.499   7.427  0.3428  0.7706 -1.3029
 5970TIP3    H239470   4.101   5.555   7.442  0.1025 -0.3461  1.0183
 5971TIP3   OH239471   4.594   4.397   6.526  0.0672  0.2336  0.1383
 5971TIP3    H139472   4.609   4.447   6.446 -0.9532  0.3838  0.0248
 5971TIP3    H239473   4.509   4.428   6.558  0.3567  0.0205  1.1658
 5972TIP3   OH239474   2.669   4.914   6.362 -0.4676 -0.0708 -0.2274
 5972TIP3    H139475   2.632   4.835   6.402  0.4342 -0.9293 -1.0249
 5972TIP3    H239476   2.761   4.913   6.389 -1.1098  2.6871  2.7836
 5973TIP3   OH239477   2.152   1.330   7.209 -0.6949  0.6658 -0.4693
 5973TIP3    H139478   2.173   1.388   7.282 -1.3243  0.1376  0.1445
 5973TIP3    H239479   2.060   1.349   7.190 -0.9241 -0.1558 -0.2289
 5974TIP3   OH239480   2.281   3.236   1.054 -0.0299  0.5352 -0.3034
 5974TIP3    H139481   2.329   3.193   1.125 -0.0817  2.2808  0.8580
 5974TIP3    H239482   2.334   3.311   1.031 -0.5197  0.5554 -1.4409
 5975TIP3   OH239483   6.410   1.483   0.288  0.6963  0.1696  0.3900
 5975TIP3    H139484   6.372   1.401   0.258 -1.1242  0.4483  1.7711
 5975TIP3    H239485   6.470   1.456   0.358  1.1163 -0.0613 -0.0474
 5976TIP3   OH239486   5.244   4.447   0.842  0.0636  0.1629  0.7619
 5976TIP3    H139487   5.287   4.533   0.840  2.7547 -1.0038 -3.2015
 5976TIP3    H239488   5.307   4.389   0.883 -0.4578 -0.4466  0.7088
 5977TIP3   OH239489   2.041   2.429   6.258  0.3288 -0.8481  0.1781
 5977TIP3    H139490   1.992   2.499   6.303 -0.3897 -0.7902 -0.6530
 5977TIP3    H239491   2.024   2.351   6.309 -0.2927 -0.7404  0.1447
 5978TIP3   OH239492   4.535   5.212   1.023 -0.2294 -0.6060 -0.0687
 5978TIP3    H139493   4.512   5.280   0.959 -0.2088  0.9710  1.5389
 5978TIP3    H239494   4.452   5.171   1.045 -0.3514 -0.5717 -0.4565
 5979TIP3   OH239495   2.286   0.286   0.545  0.4808 -0.3842  0.4929
 5979TIP3    H139496   2.265   0.317   0.633 -0.5479  1.8749 -0.4807
 5979TIP3    H239497   2.360   0.339   0.518 -1.5854  1.7417 -1.3869
 5980TIP3   OH239498   3.188   6.289   0.226 -0.0383 -0.2057  0.5948
 5980TIP3    H139499   3.117   6.292   0.290 -0.1007 -1.2547  0.5785
 5980TIP3    H239500   3.145   6.270   0.142 -0.1073  2.2883 -0.0301
 5981TIP3   OH239501   5.452   4.473   7.542  0.1945  0.0628  0.4636
 5981TIP3    H139502   5.419   4.390   7.509 -0.1726  0.0551  0.8461
 5981TIP3    H239503   5.467   4.526   7.463  0.2400 -0.2914  0.2334
 5982TIP3   OH239504   2.486   3.481   0.017  0.6541  0.2014 -0.1326
 5982TIP3    H139505   2.537   3.451   0.092  0.3463  0.1125  0.0399
 5982TIP3    H239506   2.452   3.401  -0.023 -0.2640  0.3197  0.3964
 5983TIP3   OH239507   0.983   5.110   3.130 -0.2584  0.1750  0.0837
 5983TIP3    H139508   1.041   5.107   3.053 -1.2680 -0.0437 -0.6928
 5983TIP3    H239509   0.934   5.028   3.126 -0.7590  0.4450  0.6060
 5984TIP3   OH239510   5.776   1.657   0.052 -0.3614 -0.1108 -0.1027
 5984TIP3    H139511   5.693   1.705   0.052 -0.3552 -0.0985  0.1733
 5984TIP3    H239512   5.784   1.622  -0.037  0.1769  1.3294 -0.6488
 5985TIP3   OH239513   0.973   2.085   0.293 -0.5522  0.1042 -0.4281
 5985TIP3    H139514   1.043   2.032   0.255  0.6341  0.8796  0.6176
 5985TIP3    H239515   0.904   2.021   0.315 -0.6431 -0.5472 -2.3818
 5986TIP3   OH239516   5.390   4.930   6.596  0.2562 -0.0082  0.1349
 5986TIP3    H139517   5.351   4.885   6.522  2.4510  1.1949 -1.8975
 5986TIP3    H239518   5.443   5.000   6.557 -0.8948  2.7173  2.9804
 5987TIP3   OH239519   3.763   5.376   0.533 -0.2450  0.0814 -0.0075
 5987TIP3    H139520   3.822   5.449   0.515  1.5905 -1.5809 -1.2310
 5987TIP3    H239521   3.777   5.315   0.461 -2.5871 -0.9806  0.3420
 5988TIP3   OH239522   4.006   6.666   6.952  0.1787  0.7090 -0.2032
 5988TIP3    H139523   3.992   6.612   7.029 -0.0484  1.9018  0.6207
 5988TIP3    H239524   4.061   6.613   6.894 -1.9049 -1.3014 -0.4504
 5989TIP3   OH239525   6.366   6.394   1.443 -0.1253 -0.2402 -0.0139
 5989TIP3    H139526   6.430   6.395   1.513  0.7363  0.5926 -0.7910
 5989TIP3    H239527   6.368   6.482   1.406 -1.8984 -0.1044  0.0924
 5990TIP3   OH239528   1.438   4.830   2.385  0.0789  0.4233 -0.1217
 5990TIP3    H139529   1.369   4.870   2.437 -0.7448  2.7147 -2.7166
 5990TIP3    H239530   1.515   4.884   2.403  0.1499  0.3563 -0.2242
 5991TIP3   OH239531   6.697   4.313   6.255  0.3891 -0.2604  0.0122
 5991TIP3    H139532   6.662   4.225   6.240  0.0975 -0.3741  1.2610
 5991TIP3    H239533   6.792   4.301   6.253  0.3575 -0.4453 -0.6671
 5992TIP3   OH239534   2.402   3.850   8.425  0.2774 -0.7050 -0.3708
 5992TIP3    H139535   2.406   3.815   8.514 -0.8133 -1.2904 -0.5349
 5992TIP3    H239536   2.486   3.826   8.386  1.0397  0.1247  0.6870
 5993TIP3   OH239537   5.215   4.401   2.065 -0.0835  0.0142 -0.2695
 5993TIP3    H139538   5.156   4.461   2.112  1.2450  1.7467 -0.6936
 5993TIP3    H239539   5.301   4.418   2.104  0.2951 -1.8709 -0.2128
 5994TIP3   OH239540   0.245   2.667   8.391 -0.0602  0.1951 -0.4444
 5994TIP3    H139541   0.232   2.703   8.479 -0.3796 -0.8215 -0.0526
 5994TIP3    H239542   0.159   2.630   8.368  0.5826 -1.5213 -0.2382
 5995TIP3   OH239543   3.877   4.155   7.995 -0.2945 -0.3037 -0.1845
 5995TIP3    H139544   3.875   4.112   7.909  1.2353 -2.2405  0.6793
 5995TIP3    H239545   3.818   4.102   8.050  1.8449 -1.6164  0.9742
 5996TIP3   OH239546   6.791   4.853   0.993  0.1961 -0.2050  0.0411
 5996TIP3    H139547   6.811   4.895   0.910  0.1287  0.4637  0.3593
 5996TIP3    H239548   6.876   4.829   1.029  0.2673  0.1467  0.1094
 5997TIP3   OH239549   1.565   2.235   1.019 -0.5156  0.0002 -0.3890
 5997TIP3    H139550   1.495   2.239   0.954  0.0112 -1.8961 -1.1103
 5997TIP3    H239551   1.644   2.260   0.971 -0.2134 -0.8636 -0.3462
 5998TIP3   OH239552   1.335   1.672   7.002  0.4141  0.2944 -0.3308
 5998TIP3    H139553   1.404   1.612   7.029  0.5085  1.0408  1.2035
 5998TIP3    H239554   1.253   1.627   7.023  0.4610  0.1836 -0.3852
 5999TIP3   OH239555   6.073   1.922   8.393 -0.2684 -0.0641 -0.2822
 5999TIP3    H139556   6.147   1.887   8.442  0.4067  1.4464 -0.1691
 5999TIP3    H239557   6.084   1.887   8.305  0.4620 -0.0211 -0.2140
 6000TIP3   OH239558   5.810   0.548   7.538  0.1131  0.0042  0.4476
 6000TIP3    H139559   5.724   0.533   7.498 -1.2697  2.3867  2.3008
 6000TIP3    H239560   5.803   0.511   7.626  1.3729 -0.6256  0.3155
 6001TIP3   OH239561   3.663   5.229   1.513  0.0579  0.0212  0.0038
 6001TIP3    H139562   3.694   5.312   1.550  0.1376  0.3761 -0.8314
 6001TIP3    H239563   3.649   5.248   1.420  0.8198 -1.0962 -0.3691
 6002TIP3   OH239564   6.602   4.120   1.579  0.3486 -0.0593  0.2668
 6002TIP3    H139565   6.601   4.108   1.674 -0.3143  0.9281  0.4043
 6002TIP3    H239566   6.687   4.160   1.560  1.1050 -1.6021  0.2355
 6003TIP3   OH239567   1.548   5.400   2.891 -0.4411  0.1583 -0.5224
 6003TIP3    H139568   1.593   5.422   2.809 -0.6576  1.1133 -0.3985
 6003TIP3    H239569   1.618   5.371   2.949 -0.3645 -1.1396 -1.2354
 6004TIP3   OH239570   4.171   0.010   6.494 -1.0663 -0.0269  0.5003
 6004TIP3    H139571   4.233  -0.035   6.552 -0.7147  0.3681  0.4366
 6004TIP3    H239572   4.147   0.089   6.542  1.5079  1.8681 -1.0645
 6005TIP3   OH239573   3.300   0.179   1.613 -1.1179  0.5294 -0.0817
 6005TIP3    H139574   3.380   0.211   1.654 -0.3637 -0.3440 -0.8190
 6005TIP3    H239575   3.274   0.249   1.553  0.2743  0.0079 -1.3671
 6006TIP3   OH239576   4.388   0.428   0.851  0.4858 -0.2870 -0.0381
 6006TIP3    H139577   4.429   0.361   0.905 -0.9854 -1.8171 -0.7249
 6006TIP3    H239578   4.307   0.387   0.820 -0.6502  1.9537 -0.1973
 6007TIP3   OH239579   0.164   4.477   6.986  0.4322  0.3247 -0.0884
 6007TIP3    H139580   0.160   4.524   6.902  1.6114  2.3188  0.8903
 6007TIP3    H239581   0.108   4.528   7.044  0.6392 -0.2974  0.6708
 6008TIP3   OH239582   3.793   4.544   0.064 -0.1324  0.4665 -0.8176
 6008TIP3    H139583   3.711   4.585   0.088  0.9398  0.8975  2.6123
 6008TIP3    H239584   3.830   4.600  -0.005 -0.9765  2.4128  0.2670
 6009TIP3   OH239585   0.277   2.555   2.169 -0.1577 -0.4948 -0.5566
 6009TIP3    H139586   0.285   2.644   2.204  0.0936  0.1214 -2.1262
 6009TIP3    H239587   0.365   2.533   2.138  0.2129 -1.9916  1.3412
 6010TIP3   OH239588   2.790   4.637   7.430 -0.3708 -0.3108 -0.7096
 6010TIP3    H139589   2.885   4.647   7.425 -0.4284  0.3037 -0.6846
 6010TIP3    H239590   2.756   4.693   7.360 -0.6614 -1.8377 -1.8484
 6011TIP3   OH239591   2.707   0.187   0.446 -0.1152 -0.3207  0.2416
 6011TIP3    H139592   2.725   0.181   0.540 -1.6973  0.5593  0.6354
 6011TIP3    H239593   2.752   0.267   0.418 -0.2858 -0.1575  0.4277
 6012TIP3   OH239594   5.936   6.327   0.907  0.3897  0.3586  0.2863
 6012TIP3    H139595   6.005   6.279   0.951  1.0366  0.5860 -0.4489
 6012TIP3    H239596   5.891   6.261   0.854  0.4827  0.3273  0.2451
 6013TIP3   OH239597   3.402   0.256   0.906  0.3376  0.0206 -0.2338
 6013TIP3    H139598   3.462   0.201   0.956  0.2807  1.6806  1.7849
 6013TIP3    H239599   3.380   0.203   0.829  1.1823 -2.2694  1.0026
 6014TIP3   OH239600   4.522   0.277   1.164  0.3901  0.2098 -0.3428
 6014TIP3    H139601   4.534   0.273   1.069  0.5752 -1.4104 -0.2860
 6014TIP3    H239602   4.475   0.359   1.179 -0.8388 -0.1426 -1.9810
 6015TIP3   OH239603   4.340   1.803   0.248 -0.1508  0.0994 -0.2754
 6015TIP3    H139604   4.319   1.888   0.210 -1.5622  0.6131  1.4752
 6015TIP3    H239605   4.369   1.750   0.174 -2.1115  1.2059 -1.9464
 6016TIP3   OH239606   5.388   6.003   1.181 -0.5360  0.3144 -0.5116
 6016TIP3    H139607   5.468   6.046   1.209 -0.8436  0.8928 -0.5128
 6016TIP3    H239608   5.350   5.968   1.262 -1.6593  2.3789 -0.0846
 6017TIP3   OH239609   3.453   3.414   8.221  0.2675  0.5140 -0.0980
 6017TIP3    H139610   3.450   3.337   8.279  2.7103 -0.5713 -1.2490
 6017TIP3    H239611   3.511   3.475   8.267 -0.2896  0.9514  0.0237
 6018TIP3   OH239612   0.297   1.377   2.677 -0.3786 -1.2066  0.6209
 6018TIP3    H139613   0.377   1.324   2.684  1.0388  0.6664 -0.6839
 6018TIP3    H239614   0.297   1.430   2.757  0.3967 -0.2675  0.0004
 6019TIP3   OH239615   6.605   4.063   7.266 -0.1719  0.0880  0.1995
 6019TIP3    H139616   6.586   3.987   7.321  1.8194 -1.2374 -0.8113
 6019TIP3    H239617   6.683   4.037   7.216 -0.4431  2.1722 -1.4258
 6020TIP3   OH239618   5.649   2.701   0.449  0.5173 -0.2741 -0.0254
 6020TIP3    H139619   5.597   2.727   0.526 -1.5127 -1.1491 -1.0252
 6020TIP3    H239620   5.713   2.640   0.483  0.7289  0.5988  1.2213
 6021TIP3   OH239621   6.310   2.170   7.161  0.9132  0.0544 -0.7044
 6021TIP3    H139622   6.340   2.125   7.240  0.5618 -2.4791 -1.9138
 6021TIP3    H239623   6.386   2.218   7.130  1.7121 -0.7505 -0.0309
 6022TIP3   OH239624   3.997   1.649   0.666 -0.1487  0.2230 -0.2173
 6022TIP3    H139625   4.070   1.675   0.609 -1.7327  0.2398 -2.3394
 6022TIP3    H239626   3.995   1.554   0.661 -0.4756  0.2409 -0.4323
 6023TIP3   OH239627   2.405   6.829   7.988 -0.0314 -0.0440  0.3793
 6023TIP3    H139628   2.398   6.739   8.020 -0.1290 -0.4184 -0.6698
 6023TIP3    H239629   2.443   6.877   8.062 -2.0163 -0.4815  1.7790
 6024TIP3   OH239630   3.962   6.290   0.682 -0.2812 -0.3671 -0.6227
 6024TIP3    H139631   3.878   6.260   0.647 -0.0795 -1.2509 -0.3716
 6024TIP3    H239632   3.953   6.281   0.777 -0.8019  1.9508 -0.4011
 6025TIP3   OH239633   5.570   5.632   0.863 -0.4891  0.0749  0.3301
 6025TIP3    H139634   5.486   5.622   0.819 -0.5179 -0.0584  0.4151
 6025TIP3    H239635   5.555   5.597   0.951 -0.4649  0.4472  0.4856
 6026TIP3   OH239636   1.833   1.786   8.150  0.1007  0.0120 -0.0640
 6026TIP3    H139637   1.896   1.845   8.108 -1.5102  1.0902 -1.1200
 6026TIP3    H239638   1.787   1.745   8.076 -0.8003 -0.3051  0.6530
 6027TIP3   OH239639   0.332   5.413   0.932 -0.0785 -0.6458  0.5227
 6027TIP3    H139640   0.367   5.348   0.871  4.2490  0.6765  1.1879
 6027TIP3    H239641   0.408   5.438   0.985 -2.5942  1.5524  3.4329
 6028TIP3   OH239642   0.808   2.245   6.325  0.4576  0.1487 -0.0229
 6028TIP3    H139643   0.790   2.324   6.376 -0.9866  0.2788 -0.6812
 6028TIP3    H239644   0.903   2.238   6.323  0.5671  0.8404  1.6027
 6029TIP3   OH239645   5.040   0.422   8.185  0.1841  0.2153  0.3966
 6029TIP3    H139646   5.135   0.424   8.189  0.3182 -0.3546 -1.6300
 6029TIP3    H239647   5.018   0.329   8.191 -0.2226  0.3035  0.3411
 6030TIP3   OH239648   3.882   5.442   7.834 -0.0407 -0.1002  0.1281
 6030TIP3    H139649   3.937   5.366   7.816  0.3570  0.3739 -0.7223
 6030TIP3    H239650   3.841   5.423   7.918  0.7459 -0.8488  0.3525
 6031TIP3   OH239651   0.964   0.842   0.149 -0.0453  0.0828  0.0415
 6031TIP3    H139652   0.902   0.906   0.183 -0.2667  0.0120 -0.2269
 6031TIP3    H239653   1.001   0.800   0.226 -0.7131 -0.2416  0.1847
 6032TIP3   OH239654   2.814   1.323   7.035  0.1564 -0.0297  0.4972
 6032TIP3    H139655   2.749   1.287   6.974 -0.8891  0.4224  1.3059
 6032TIP3    H239656   2.888   1.262   7.029 -1.8994 -3.0661  2.5755
 6033TIP3   OH239657   1.137   1.049   1.507  0.5274  0.0499  0.4014
 6033TIP3    H139658   1.081   1.013   1.438  0.4348  1.6773 -0.4231
 6033TIP3    H239659   1.209   0.986   1.515 -1.3175 -2.0744  1.4484
 6034TIP3   OH239660   5.660   3.975   1.185  0.2073  0.8119 -0.1622
 6034TIP3    H139661   5.673   4.014   1.272  1.9970  0.3716 -0.2069
 6034TIP3    H239662   5.622   3.889   1.204 -0.4817  1.1631  0.1063
 6035TIP3   OH239663   0.706   2.829   8.214 -0.5632  0.5979  0.2724
 6035TIP3    H139664   0.776   2.774   8.250 -0.0016 -0.3288 -2.0312
 6035TIP3    H239665   0.625   2.784   8.238 -0.2815  0.7051  1.4429
 6036TIP3   OH239666   0.692   3.390   1.198  0.5053 -0.0387 -0.3398
 6036TIP3    H139667   0.652   3.357   1.117  0.1732 -2.0679  0.5781
 6036TIP3    H239668   0.785   3.397   1.178  0.3493  0.0368 -1.0647
 6037TIP3   OH239669   5.136   0.984   7.635  0.4724  0.3432  0.3819
 6037TIP3    H139670   5.214   0.944   7.672  1.7754 -0.1739 -2.6665
 6037TIP3    H239671   5.083   0.911   7.604  1.0888  0.7876 -1.8458
 6038TIP3   OH239672   0.069   5.446   6.566  0.2229 -0.0664 -0.2429
 6038TIP3    H139673   0.041   5.354   6.571  0.2220 -0.0195  0.7799
 6038TIP3    H239674   0.164   5.443   6.578  0.0825  0.1545  1.0292
 6039TIP3   OH239675   4.523   1.633   0.448  0.4008  0.2284  0.2537
 6039TIP3    H139676   4.472   1.677   0.381 -0.4858 -0.5146  0.4083
 6039TIP3    H239677   4.585   1.578   0.400  1.6200  1.6927  0.0590
 6040TIP3   OH239678   2.261   4.851   1.644  0.5145 -0.0655 -0.2413
 6040TIP3    H139679   2.199   4.805   1.700  0.6299  0.4503  0.3183
 6040TIP3    H239680   2.245   4.815   1.556 -1.2238  0.7032 -0.2786
 6041TIP3   OH239681   2.669   1.324   7.404  0.1414  0.2432 -0.2314
 6041TIP3    H139682   2.669   1.374   7.486  1.7333  0.9368 -0.6119
 6041TIP3    H239683   2.578   1.299   7.391 -0.1517  0.0881  1.7617
 6042TIP3   OH239684   3.929   6.678   0.579  0.0807 -0.2645  0.1897
 6042TIP3    H139685   3.839   6.707   0.597  0.6015  1.1302  0.6891
 6042TIP3    H239686   3.919   6.613   0.509 -1.2546  0.4744 -0.3574
 6043TIP3   OH239687   4.017   3.223   6.508 -0.0480  0.3010  0.1520
 6043TIP3    H139688   3.967   3.166   6.565 -1.0734  0.4422 -0.5774
 6043TIP3    H239689   3.961   3.236   6.431 -0.0647  2.6158  0.4623
 6044TIP3   OH239690   4.823   6.375   7.217  0.7126 -1.1527  0.1018
 6044TIP3    H139691   4.823   6.309   7.286 -0.4669  1.0928  2.4369
 6044TIP3    H239692   4.865   6.452   7.257 -1.2723  0.6924 -1.1456
 6045TIP3   OH239693   4.817   5.640   0.200 -0.1176 -0.1438  0.4498
 6045TIP3    H139694   4.837   5.685   0.118 -0.3888  0.0082  0.4646
 6045TIP3    H239695   4.747   5.578   0.177 -2.3389  1.9355  1.1274
 6046TIP3   OH239696   0.299   3.331   8.456  0.7394  0.2285 -0.7286
 6046TIP3    H139697   0.351   3.258   8.489  0.2129  0.3522  0.4091
 6046TIP3    H239698   0.208   3.305   8.471  0.5388  1.9216  1.6366
 6047TIP3   OH239699   0.868   3.135   6.332 -0.0526 -0.7774 -0.3225
 6047TIP3    H139700   0.933   3.105   6.269 -1.1085  3.6778 -4.1404
 6047TIP3    H239701   0.905   3.215   6.370 -1.7677 -0.2281  0.3210
 6048TIP3   OH239702   3.164   0.084   0.875 -0.1250  0.1541 -0.3417
 6048TIP3    H139703   3.173   0.134   0.793  1.5777  1.4421  0.5735
 6048TIP3    H239704   3.249   0.043   0.887 -0.2093  0.3412  1.0032
 6049TIP3   OH239705   2.822   5.149   7.526 -0.0064 -0.4801 -0.6205
 6049TIP3    H139706   2.890   5.216   7.537 -1.0515  0.1743  2.8580
 6049TIP3    H239707   2.843   5.081   7.589 -2.4711 -0.2853  0.5361
 6050TIP3   OH239708   2.994   5.770   2.056 -0.1913  0.5171  0.5254
 6050TIP3    H139709   3.027   5.857   2.080  0.4437  0.2504  0.6405
 6050TIP3    H239710   3.012   5.715   2.132 -1.5851  0.5250  0.8814
 6051TIP3   OH239711   5.327   5.311   8.316  0.1464 -0.6577  0.2825
 6051TIP3    H139712   5.331   5.343   8.225 -0.8816  0.5210  0.6270
 6051TIP3    H239713   5.363   5.383   8.368  2.3779 -1.9989  0.7138
 6052TIP3   OH239714   2.952   5.499   6.527  0.0271 -0.3225  0.0751
 6052TIP3    H139715   3.037   5.539   6.543  1.0728 -1.8722 -1.2760
 6052TIP3    H239716   2.922   5.538   6.445 -0.5010  0.1115  0.4704
 6053TIP3   OH239717   2.787   5.631   8.134  0.5665 -0.1483  0.4154
 6053TIP3    H139718   2.825   5.544   8.145 -1.0307 -0.9409 -0.0535
 6053TIP3    H239719   2.799   5.651   8.041  1.1075  0.2418  0.5614
 6054TIP3   OH239720   6.091   1.378   6.010  0.1135  0.0779 -0.5400
 6054TIP3    H139721   6.086   1.357   6.103  0.9026  1.0101 -0.2689
 6054TIP3    H239722   6.023   1.325   5.969 -0.6889  0.1698  0.6573
 6055TIP3   OH239723   6.334   2.039   8.240  0.3497  0.0046 -0.1689
 6055TIP3    H139724   6.275   1.999   8.303  0.8714 -1.3320 -0.4924
 6055TIP3    H239725   6.278   2.094   8.185 -0.1761  0.8205  1.1403
 6056TIP3   OH239726   2.429   3.799   7.945 -0.5140  0.5820  0.1267
 6056TIP3    H139727   2.448   3.826   8.035 -1.3029  0.0838  0.4504
 6056TIP3    H239728   2.512   3.764   7.912 -0.2594  0.6426  0.6987
 6057TIP3   OH239729   0.526   2.467   6.683  0.4947 -0.0796 -0.1937
 6057TIP3    H139730   0.433   2.450   6.696  0.3526  0.4283 -0.5278
 6057TIP3    H239731   0.532   2.561   6.671  0.9627 -0.1963 -0.9344
 6058TIP3   OH239732   1.398   3.394   1.201 -0.6180 -0.2608  0.3946
 6058TIP3    H139733   1.377   3.457   1.271 -1.9665  0.8888 -0.9808
 6058TIP3    H239734   1.452   3.328   1.244 -2.1790 -0.1255  2.7545
 6059TIP3   OH239735   1.073   5.842   0.646  0.2486 -0.1104 -0.3343
 6059TIP3    H139736   1.018   5.806   0.577 -0.8800  0.6119  0.1635
 6059TIP3    H239737   1.067   5.937   0.635  0.5299  0.0003  0.3770
 6060TIP3   OH239738   5.922   2.898   6.016  0.3408 -0.2726  0.2733
 6060TIP3    H139739   5.887   2.986   6.003 -0.4645 -0.6402 -0.1335
 6060TIP3    H239740   5.973   2.904   6.096 -1.4467  0.0831  1.4397
 6061TIP3   OH239741   5.507   1.805   1.096  0.2256  0.3552  0.1036
 6061TIP3    H139742   5.603   1.803   1.098  0.3084 -3.9502 -0.3576
 6061TIP3    H239743   5.484   1.880   1.151  3.8063  0.0190  2.3864
 6062TIP3   OH239744   4.583   2.263   1.409 -0.1433 -0.2523  0.1251
 6062TIP3    H139745   4.551   2.180   1.443 -1.3645 -0.5348 -1.5988
 6062TIP3    H239746   4.511   2.324   1.421  1.1143  0.9307  2.3908
 6063TIP3   OH239747   2.602   4.047   0.551 -0.3649  0.0354 -0.1549
 6063TIP3    H139748   2.686   4.011   0.521 -1.4168 -3.8511  1.0512
 6063TIP3    H239749   2.625   4.099   0.628  1.0257 -0.2167 -0.3669
 6064TIP3   OH239750   6.081   0.035   8.198  0.8818  0.4330  0.5280
 6064TIP3    H139751   6.062   0.078   8.115 -0.0353  2.5526  1.7710
 6064TIP3    H239752   6.019  -0.038   8.202 -1.9651  2.7046  1.0772
 6065TIP3   OH239753   6.575   6.189   6.702 -0.2338  0.1480  0.0757
 6065TIP3    H139754   6.492   6.234   6.689 -1.6723 -2.4693 -0.4592
 6065TIP3    H239755   6.599   6.156   6.616  0.9550  0.1999  0.3685
 6066TIP3   OH239756   3.154   5.735   8.393  0.2747 -0.1583 -0.0996
 6066TIP3    H139757   3.248   5.742   8.377  0.4035 -0.3764  0.5160
 6066TIP3    H239758   3.121   5.686   8.319  0.5595  0.3787 -0.5931
 6067TIP3   OH239759   5.103   1.210   7.010  0.0368 -0.1123  0.3201
 6067TIP3    H139760   5.187   1.210   7.054 -0.1494  0.4244  0.6942
 6067TIP3    H239761   5.123   1.186   6.919  0.5860 -0.0010  0.4085
 6068TIP3   OH239762   4.500   1.853   6.419 -0.4751  0.2023 -0.4854
 6068TIP3    H139763   4.467   1.766   6.439 -0.2656 -0.2616 -2.0412
 6068TIP3    H239764   4.573   1.838   6.358 -0.3289  1.4507 -0.6522
 6069TIP3   OH239765   4.687   6.763   1.245  0.0081 -0.0589 -0.5140
 6069TIP3    H139766   4.780   6.741   1.248  0.0714  0.1299 -1.1347
 6069TIP3    H239767   4.651   6.706   1.177 -0.2756  0.0978 -0.4961
 6070TIP3   OH239768   2.451   2.843   7.591 -0.0644 -0.1070 -0.6021
 6070TIP3    H139769   2.461   2.886   7.676 -0.4561 -0.3094 -0.4496
 6070TIP3    H239770   2.540   2.834   7.558  0.1685 -0.7944  0.1755
 6071TIP3   OH239771   0.246   6.532   0.768  0.3227 -0.1375 -0.6800
 6071TIP3    H139772   0.157   6.565   0.758  0.0935 -0.5671 -0.1372
 6071TIP3    H239773   0.260   6.530   0.863  1.4434  1.3174 -0.7731
 6072TIP3   OH239774   2.793   6.368   0.032 -0.2866 -0.1144 -0.1827
 6072TIP3    H139775   2.871   6.416   0.060  0.6956 -2.8295  2.2863
 6072TIP3    H239776   2.827   6.296  -0.022 -1.0250 -1.2895  0.8632
 6073TIP3   OH239777   5.412   2.195   0.101 -0.2467  0.5106  0.2847
 6073TIP3    H139778   5.419   2.177   0.008 -0.8450 -0.0172  0.3378
 6073TIP3    H239779   5.496   2.235   0.124  0.5035 -0.7475 -0.1649
 6074TIP3   OH239780   0.779   2.484   1.687 -1.1105  0.5592  0.7573
 6074TIP3    H139781   0.806   2.507   1.775  2.4748  2.4878 -0.6669
 6074TIP3    H239782   0.715   2.551   1.663 -0.3585  1.4061  1.0901
 6075TIP3   OH239783   2.878   2.735   1.224 -0.1005 -0.1603 -0.5309
 6075TIP3    H139784   2.856   2.643   1.236 -2.7668  0.4852  0.2443
 6075TIP3    H239785   2.881   2.771   1.312  0.5507  0.5845 -0.8408
 6076TIP3   OH239786   2.483   0.081   0.783 -0.6917 -0.3925  0.3263
 6076TIP3    H139787   2.572   0.092   0.748 -0.0982  0.2261  1.9517
 6076TIP3    H239788   2.443   0.016   0.725  1.4261 -2.0646  0.6026
 6077TIP3   OH239789   0.901   5.284   0.918 -0.1879 -0.4058  0.5047
 6077TIP3    H139790   0.902   5.354   0.852 -1.2061  0.0294  0.9280
 6077TIP3    H239791   0.970   5.224   0.890  0.2713  0.4329 -0.2350
 6078TIP3   OH239792   3.702   5.825   8.510 -0.0796  0.2577  0.2447
 6078TIP3    H139793   3.623   5.840   8.561  0.8019 -0.6988  2.0021
 6078TIP3    H239794   3.672   5.779   8.431 -1.1741 -0.9812  1.3476
 6079TIP3   OH239795   1.362   1.208   8.228  0.4273 -0.0854  0.3509
 6079TIP3    H139796   1.364   1.299   8.259 -0.5329 -0.2149  0.8437
 6079TIP3    H239797   1.448   1.194   8.187  0.7079  0.9353  0.5678
 6080TIP3   OH239798   1.890   5.196   7.142 -0.3950  0.2850  0.1819
 6080TIP3    H139799   1.917   5.112   7.107  0.3281  0.7920 -0.5152
 6080TIP3    H239800   1.931   5.201   7.228 -0.8467 -0.2739  0.4375
 6081TIP3   OH239801   0.655   6.335   8.538 -0.1505  0.0419 -0.0137
 6081TIP3    H139802   0.717   6.404   8.563  2.6818 -2.0573 -0.7568
 6081TIP3    H239803   0.652   6.338   8.442  0.1436 -0.9627 -0.0633
 6082TIP3   OH239804   0.951   2.691   6.652  0.8329 -0.3103  0.1571
 6082TIP3    H139805   0.907   2.654   6.729  0.1240 -1.5752 -0.8178
 6082TIP3    H239806   0.925   2.783   6.653  0.2248 -0.4704  1.0242
 6083TIP3   OH239807   5.373   1.645   7.866 -0.6354 -0.0724 -0.8017
 6083TIP3    H139808   5.453   1.643   7.813 -1.5746  0.5896 -2.3072
 6083TIP3    H239809   5.366   1.556   7.902  1.5863  0.2837  0.6819
 6084TIP3   OH239810   5.478   5.819   0.556  0.0642  0.3972  0.0122
 6084TIP3    H139811   5.435   5.761   0.618  1.2623 -0.4222  0.1120
 6084TIP3    H239812   5.561   5.841   0.597  1.0183 -0.3977 -1.4016
 6085TIP3   OH239813   1.097   5.766   7.595  0.1937  0.2149 -0.2387
 6085TIP3    H139814   1.004   5.752   7.610  0.3750 -1.3520 -0.3797
 6085TIP3    H239815   1.114   5.726   7.509  1.2736 -0.9788  0.4890
 6086TIP3   OH239816   3.885   6.604   0.882 -0.4470  0.5386 -0.1274
 6086TIP3    H139817   3.908   6.666   0.813  0.5165 -0.7111 -0.9871
 6086TIP3    H239818   3.921   6.642   0.962  0.9260  0.6968 -0.7830
 6087TIP3   OH239819   5.381   3.550   1.113  0.3276  0.6187 -0.3491
 6087TIP3    H139820   5.335   3.496   1.177  1.0151 -0.2223 -0.5607
 6087TIP3    H239821   5.347   3.522   1.028  0.4529  0.7394 -0.4403
 6088TIP3   OH239822   5.980   2.587   0.367 -0.2279  0.4913 -0.4863
 6088TIP3    H139823   6.030   2.512   0.398  1.6165  1.3711 -1.2137
 6088TIP3    H239824   5.906   2.549   0.319  0.8708 -0.8620 -1.1614
 6089TIP3   OH239825   3.274   3.825   7.821 -0.1787  0.3867 -0.3866
 6089TIP3    H139826   3.303   3.738   7.792  0.5173  0.6122 -0.3763
 6089TIP3    H239827   3.238   3.866   7.742  1.8660  1.0665 -1.0211
 6090TIP3   OH239828   2.593   3.043   7.039 -0.1522  0.1494 -1.0050
 6090TIP3    H139829   2.679   3.083   7.031  1.2645 -2.9129 -3.3325
 6090TIP3    H239830   2.533   3.104   6.997  1.0029  1.8457 -0.2870
 6091TIP3   OH239831   3.219   3.226   8.298 -0.0558  1.0842  0.1112
 6091TIP3    H139832   3.294   3.170   8.281 -0.8702  0.4510 -1.6184
 6091TIP3    H239833   3.227   3.250   8.391  1.7827  0.3435  0.1801
 6092TIP3   OH239834   0.012   5.852   6.509  0.1138 -0.2209  0.3399
 6092TIP3    H139835   0.071   5.801   6.454  0.2750  0.5404 -0.2004
 6092TIP3    H239836   0.054   5.938   6.516 -0.7328  0.2029  0.2766
 6093TIP3   OH239837   6.845   1.617   7.455 -0.2433 -0.4303  0.3442
 6093TIP3    H139838   6.909   1.614   7.526 -1.7905 -1.0355  1.7852
 6093TIP3    H239839   6.877   1.685   7.396  0.9489  0.2857  1.7673
 6094TIP3   OH239840   5.119   4.843   6.685  0.3034  0.4382 -0.1526
 6094TIP3    H139841   5.129   4.749   6.701 -4.1182 -0.5863 -1.8628
 6094TIP3    H239842   5.169   4.859   6.605  0.1418 -0.7597 -0.5149
 6095TIP3   OH239843   1.953   6.874   0.096  0.3031 -0.6866  0.2521
 6095TIP3    H139844   1.886   6.813   0.063  0.5220 -1.1454  0.6548
 6095TIP3    H239845   1.907   6.958   0.101 -0.3719 -1.0858  0.9447
 6096TIP3   OH239846   4.459   1.193   1.766 -0.2075 -0.4167  0.3611
 6096TIP3    H139847   4.508   1.188   1.684 -0.2565 -1.9721  0.3908
 6096TIP3    H239848   4.483   1.113   1.813 -1.7765 -0.5834  0.9432
 6097TIP3   OH239849   3.882   2.518   0.073 -0.0074 -0.3331  0.1094
 6097TIP3    H139850   3.865   2.492   0.164  1.1493  0.7347  0.6528
 6097TIP3    H239851   3.976   2.535   0.070 -0.4079  2.0030 -0.6703
 6098TIP3   OH239852   5.964   4.330   0.212 -0.5043 -0.4756  0.4237
 6098TIP3    H139853   6.048   4.360   0.176 -0.6033 -0.3650  0.2869
 6098TIP3    H239854   5.942   4.396   0.279 -0.2486 -0.7577  0.7918
 6099TIP3   OH239855   0.388   6.119   0.833 -0.1667 -0.0517  0.4928
 6099TIP3    H139856   0.422   6.043   0.786 -1.7793 -0.3631 -0.2485
 6099TIP3    H239857   0.463   6.153   0.881  1.2239 -0.5504 -1.2235
 6100TIP3   OH239858   1.665   0.171   0.556 -0.1988  0.2611  0.4932
 6100TIP3    H139859   1.711   0.124   0.626 -0.3258 -1.0162 -0.2348
 6100TIP3    H239860   1.729   0.179   0.486 -1.0031 -1.5354 -0.5328
 6101TIP3   OH239861   2.047   3.415   8.036  0.2784  0.1062 -0.1479
 6101TIP3    H139862   2.088   3.362   7.968  1.0278  1.0068 -0.4164
 6101TIP3    H239863   2.120   3.455   8.083 -0.2536  0.1359  0.6716
 6102TIP3   OH239864   1.764   4.234   1.195  0.1147 -1.0084  0.3511
 6102TIP3    H139865   1.795   4.300   1.133  1.2162 -2.0054 -0.1872
 6102TIP3    H239866   1.777   4.274   1.281  1.1015 -0.6518  0.0432
 6103TIP3   OH239867   3.201   3.703   8.056  0.5475  0.1354 -0.7212
 6103TIP3    H139868   3.250   3.739   7.982  0.4273 -0.6276 -1.1820
 6103TIP3    H239869   3.115   3.745   8.050  0.2999 -0.4479 -1.4485
 6104TIP3   OH239870   2.013   2.243   0.710  0.6908  0.6570  0.3102
 6104TIP3    H139871   2.069   2.166   0.702 -0.8403 -0.3188 -1.7439
 6104TIP3    H239872   2.035   2.298   0.635 -1.4296 -0.0536 -0.9358
 6105TIP3   OH239873   1.060   5.206   0.105  0.3265  0.4592 -0.3076
 6105TIP3    H139874   1.055   5.269   0.177  0.2868 -1.0415  1.0553
 6105TIP3    H239875   0.969   5.190   0.081  0.2633 -0.1926  0.3593
 6106TIP3   OH239876   0.104   0.090   1.684 -0.3810  0.0858 -0.4014
 6106TIP3    H139877   0.095   0.152   1.611 -1.2646 -0.2351 -0.5735
 6106TIP3    H239878   0.019   0.090   1.727  0.4107  1.0216  1.2651
 6107TIP3   OH239879   5.812   1.155   1.508 -0.2504  0.4832 -0.2023
 6107TIP3    H139880   5.756   1.108   1.445 -0.3670  0.0180  0.2413
 6107TIP3    H239881   5.769   1.142   1.592 -0.0972  1.1137 -0.0243
 6108TIP3   OH239882   3.776   2.664   1.028 -0.2329 -0.1293 -0.0266
 6108TIP3    H139883   3.706   2.618   1.073  0.5935 -1.1793  0.2185
 6108TIP3    H239884   3.733   2.708   0.954 -0.7516 -3.2940 -1.7593
 6109TIP3   OH239885   2.083   4.771   1.142 -0.4983  0.7075  0.6347
 6109TIP3    H139886   2.028   4.723   1.080  0.8592  1.5548 -1.3109
 6109TIP3    H239887   2.110   4.850   1.095  0.8030  1.2617  2.2179
 6110TIP3   OH239888   5.776   4.161   0.114 -0.2793  0.3506  0.0608
 6110TIP3    H139889   5.771   4.089   0.176  0.8419 -1.4744 -1.8080
 6110TIP3    H239890   5.853   4.211   0.142 -0.3378  0.1004  0.6803
 6111TIP3   OH239891   5.753   1.637   8.331  0.0635 -0.1718  0.0640
 6111TIP3    H139892   5.844   1.610   8.317  0.0250 -2.0118  2.6796
 6111TIP3    H239893   5.703   1.591   8.264  0.8045 -1.2410  0.2315
 6112TIP3   OH239894   2.208   6.568   1.952 -0.3787 -0.5367 -0.1806
 6112TIP3    H139895   2.186   6.575   1.860  0.5726 -2.2235 -0.5767
 6112TIP3    H239896   2.299   6.596   1.958 -0.4806 -0.2812  0.2765
 6113TIP3   OH239897   3.534   0.322   0.472  0.0859 -0.4331 -0.3651
 6113TIP3    H139898   3.604   0.377   0.508  0.5021 -0.6545 -0.8199
 6113TIP3    H239899   3.574   0.236   0.460 -0.1944 -0.5057 -0.8358
 6114TIP3   OH239900   6.155   3.272   0.255 -0.0511 -0.2920  0.0627
 6114TIP3    H139901   6.063   3.290   0.233 -0.2022  0.1288  0.9983
 6114TIP3    H239902   6.159   3.177   0.266 -0.3528 -0.3203 -0.0510
 6115TIP3   OH239903   5.702   4.755   0.261 -0.6525 -0.5291 -0.3980
 6115TIP3    H139904   5.674   4.697   0.191  0.0610 -2.1635  0.6200
 6115TIP3    H239905   5.772   4.707   0.306  0.0416  1.1642  0.4168
 6116TIP3   OH239906   5.312   3.994   6.305 -0.0533  0.2062 -0.1585
 6116TIP3    H139907   5.239   3.964   6.359  0.8791  0.1355  1.1231
 6116TIP3    H239908   5.367   3.916   6.294  0.5831  0.6022  0.1690
 6117TIP3   OH239909   4.004   6.720   1.086 -0.1426 -0.1522 -0.6046
 6117TIP3    H139910   4.012   6.790   1.151 -0.9769 -1.4515  0.9632
 6117TIP3    H239911   4.093   6.702   1.059  0.2383  0.3222  0.2925
 6118TIP3   OH239912   1.713   6.611   3.013  0.0928  0.3008 -0.7560
 6118TIP3    H139913   1.748   6.525   3.038  1.0624  0.7413 -0.5602
 6118TIP3    H239914   1.619   6.603   3.026  0.4454  0.4341  3.0487
 6119TIP3   OH239915   0.342   2.466   0.996  0.7548 -0.1805  0.0808
 6119TIP3    H139916   0.271   2.431   0.942  2.4269 -0.4835 -2.0583
 6119TIP3    H239917   0.312   2.553   1.023 -0.1987 -0.0659 -1.2665
 6120TIP3   OH239918   1.314   6.189   0.907  1.1088 -0.2602 -0.4034
 6120TIP3    H139919   1.363   6.223   0.832 -0.5320 -0.8056 -1.7837
 6120TIP3    H239920   1.243   6.251   0.920  0.7605 -0.7455  0.0322
 6121TIP3   OH239921   0.327   3.138   1.241 -0.0009 -0.4062  0.7200
 6121TIP3    H139922   0.332   3.182   1.326 -0.7085 -0.9458  1.0507
 6121TIP3    H239923   0.279   3.199   1.185  0.3956 -0.0848  0.7233
 6122TIP3   OH239924   0.095   0.960   7.301 -0.4552  0.0395 -0.0101
 6122TIP3    H139925   0.082   0.866   7.288 -0.4177  0.0564 -0.1677
 6122TIP3    H239926   0.053   0.978   7.385 -0.1404 -0.1849  0.1982
 6123TIP3   OH239927   6.183   4.310   0.668 -0.1768  0.2895 -0.1346
 6123TIP3    H139928   6.088   4.310   0.656 -0.1951  1.0077 -0.0450
 6123TIP3    H239929   6.205   4.218   0.683 -1.0053  0.2468  0.9914
 6124TIP3   OH239930   1.949   5.981   0.179  0.0888  0.0158  0.0928
 6124TIP3    H139931   1.986   6.058   0.221  0.3315  0.8176 -1.5164
 6124TIP3    H239932   2.014   5.954   0.114 -0.3324 -1.0820  0.0883
 6125TIP3   OH239933   1.670   6.562   7.247  0.3237  0.4280 -0.4632
 6125TIP3    H139934   1.690   6.592   7.159 -0.2597 -0.1087 -0.7855
 6125TIP3    H239935   1.656   6.642   7.297  0.6964  0.7350 -0.8478
 6126TIP3   OH239936   1.813   4.222   1.803 -0.1775 -0.1772  0.1649
 6126TIP3    H139937   1.722   4.252   1.805 -0.3521 -0.2954 -2.4904
 6126TIP3    H239938   1.833   4.212   1.710  2.7172  0.2869  0.6413
 6127TIP3   OH239939   4.318   4.417   7.123  0.2961  0.1422 -0.1526
 6127TIP3    H139940   4.410   4.427   7.146  0.7941  0.5055 -2.0713
 6127TIP3    H239941   4.273   4.486   7.171  1.4837  1.8730 -1.4169
 6128TIP3   OH239942   6.485   4.240   2.394 -0.3099 -0.2863  0.3630
 6128TIP3    H139943   6.468   4.301   2.466  1.9024 -1.0996  1.6826
 6128TIP3    H239944   6.476   4.153   2.434  3.9296 -0.8110  0.6802
 6129TIP3   OH239945   0.962   1.361   7.846  0.3546  0.0561 -0.2218
 6129TIP3    H139946   0.969   1.266   7.847 -3.1115 -0.3586 -1.5197
 6129TIP3    H239947   1.032   1.391   7.904  1.6671 -3.2337  0.1064
 6130TIP3   OH239948   0.644   5.386   1.831  0.1842  0.3455  0.1915
 6130TIP3    H139949   0.608   5.432   1.755  0.0917  1.5724  0.9535
 6130TIP3    H239950   0.738   5.400   1.827  0.3159 -0.6094 -0.3390
 6131TIP3   OH239951   4.462   0.717   5.743  0.4726 -0.0969  0.4632
 6131TIP3    H139952   4.551   0.732   5.710 -0.3518  1.2512 -1.2587
 6131TIP3    H239953   4.472   0.722   5.839  2.5470 -1.9191  0.4339
 6132TIP3   OH239954   2.580   2.005   0.217  0.4209  0.0024 -0.5494
 6132TIP3    H139955   2.593   1.995   0.311 -0.3057  1.3262 -0.2878
 6132TIP3    H239956   2.562   1.916   0.186  2.4096 -0.7341  0.2420
 6133TIP3   OH239957   2.390   1.329   1.803  0.1488  0.2470 -0.2026
 6133TIP3    H139958   2.389   1.233   1.801 -0.5471  0.2466  0.1293
 6133TIP3    H239959   2.469   1.350   1.853 -0.5668 -0.1803  1.1542
 6134TIP3   OH239960   0.894   6.442   0.381  0.2283  0.0238  0.2995
 6134TIP3    H139961   0.953   6.513   0.405 -0.9794  1.1592  0.0152
 6134TIP3    H239962   0.829   6.483   0.323 -1.3863 -0.9509  1.3338
 6135TIP3   OH239963   6.734   4.556   2.038 -0.0106  0.2092 -0.4701
 6135TIP3    H139964   6.762   4.570   1.948 -0.2726  0.8336 -0.4557
 6135TIP3    H239965   6.652   4.604   2.046  0.0123  0.1628  0.1032
 6136TIP3   OH239966   3.729   5.034   0.749 -0.0431  0.6185 -0.4843
 6136TIP3    H139967   3.707   4.946   0.719  0.0095  1.2584 -2.5290
 6136TIP3    H239968   3.645   5.076   0.767 -0.1008  0.3863 -0.2166
 6137TIP3   OH239969   3.686   5.852   0.889  0.2185 -0.0257  0.8063
 6137TIP3    H139970   3.717   5.938   0.916  0.3311  0.5242 -0.9511
 6137TIP3    H239971   3.593   5.852   0.911 -0.2225  1.3075 -0.8209
 6138TIP3   OH239972   6.513   3.661   7.779  0.2368  0.0681 -0.2060
 6138TIP3    H139973   6.598   3.619   7.767  0.9713  1.6715 -0.9589
 6138TIP3    H239974   6.521   3.744   7.732 -1.5845  0.4741  0.1370
 6139TIP3   OH239975   2.216   5.538   7.125 -0.1955 -0.0712 -0.3209
 6139TIP3    H139976   2.216   5.589   7.205  0.1042  0.5256 -0.6914
 6139TIP3    H239977   2.257   5.595   7.060  1.0638 -1.1328 -0.5187
 6140TIP3   OH239978   0.026   1.960   6.713  0.3933 -0.4354 -0.1987
 6140TIP3    H139979   0.023   2.005   6.629  0.5785  1.1337  0.5889
 6140TIP3    H239980  -0.066   1.945   6.736  0.2412  0.9245  0.1932
 6141TIP3   OH239981   6.298   6.713   0.096 -0.1418 -0.2617  0.7545
 6141TIP3    H139982   6.267   6.626   0.121  0.9099 -0.3741  1.7591
 6141TIP3    H239983   6.261   6.772   0.162 -1.2063  0.1321 -0.1709
 6142TIP3   OH239984   4.458   1.810   0.895 -0.1849 -0.1283  0.4807
 6142TIP3    H139985   4.470   1.732   0.840  0.7901 -0.4359  1.1039
 6142TIP3    H239986   4.364   1.819   0.903 -0.4202  0.4783 -2.0091
 6143TIP3   OH239987   3.548   5.813   7.962  0.3049  0.6412 -0.0570
 6143TIP3    H139988   3.453   5.812   7.954  0.1119 -0.5610  1.7687
 6143TIP3    H239989   3.576   5.729   7.924  0.6843  1.1370 -0.8991
 6144TIP3   OH239990   0.550   6.595   8.374  0.4234 -0.4625 -0.1480
 6144TIP3    H139991   0.481   6.650   8.339  1.0671  0.6801  0.3099
 6144TIP3    H239992   0.519   6.569   8.461  0.3813 -0.2725 -0.1040
 6145TIP3   OH239993   0.071   2.615   0.587 -0.6010 -0.0133  0.0218
 6145TIP3    H139994   0.026   2.672   0.649 -1.3430  0.1216 -0.6112
 6145TIP3    H239995   0.009   2.543   0.571 -0.2440 -0.2699 -0.2203
 6146TIP3   OH239996   1.443   2.965   1.862 -0.1678 -0.2082  0.1914
 6146TIP3    H139997   1.531   2.931   1.848  0.3772  1.2436 -0.1048
 6146TIP3    H239998   1.447   3.006   1.949 -0.3346  0.4991 -0.1287
 6147TIP3   OH239999   3.941   4.973   6.735 -0.1443 -0.0655  0.0929
 6147TIP3    H140000   3.994   5.036   6.685  0.4401  0.1230  0.9262
 6147TIP3    H240001   3.852   5.006   6.729  0.2333  1.2073  1.0221
 6148TIP3   OH240002   5.630   5.394   7.015  0.4503 -0.3596 -0.3753
 6148TIP3    H140003   5.662   5.384   7.104 -0.7997  0.4751  0.1944
 6148TIP3    H240004   5.681   5.466   6.978  0.3812 -0.1454 -0.0481
 6149TIP3   OH240005   5.490   2.561   6.970 -0.1652 -0.1289  0.0554
 6149TIP3    H140006   5.582   2.583   6.984  0.7512 -1.3623 -3.0880
 6149TIP3    H240007   5.489   2.465   6.967 -1.8067 -0.1834  1.3025
 6150TIP3   OH240008   6.880   4.462   0.058 -0.2812 -0.3481 -0.1087
 6150TIP3    H140009   6.960   4.432   0.099 -0.3081 -1.1035 -0.5879
 6150TIP3    H240010   6.813   4.400   0.087 -0.1228 -1.4717 -1.9915
 6151TIP3   OH240011   1.163   4.477   0.213 -0.4005 -0.2234  0.0823
 6151TIP3    H140012   1.212   4.425   0.277 -1.9601 -0.2329  1.3459
 6151TIP3    H240013   1.107   4.414   0.169 -0.3141 -0.0047 -0.3457
 6152TIP3   OH240014   6.058   4.181   1.061  0.1059  0.3098 -0.1739
 6152TIP3    H140015   6.042   4.088   1.071  0.8283  0.2682  0.7150
 6152TIP3    H240016   5.997   4.209   0.993 -2.0992 -0.2706  1.4462
 6153TIP3   OH240017   4.071   4.621   7.477  1.1249 -0.8802  0.0076
 6153TIP3    H140018   4.166   4.631   7.467  1.1021 -0.9831 -0.3476
 6153TIP3    H240019   4.035   4.704   7.444  1.1037 -0.7258  0.4127
 6154TIP3   OH240020   3.213   1.941   6.834  0.0268  0.3613 -0.2243
 6154TIP3    H140021   3.173   1.872   6.888 -0.7126  1.1910  0.3320
 6154TIP3    H240022   3.160   2.018   6.853 -0.0058  0.7655 -1.8732
 6155TIP3   OH240023   6.733   6.420   6.734 -0.5627 -0.3611  0.3041
 6155TIP3    H140024   6.778   6.406   6.818  0.2010  0.0602 -0.0322
 6155TIP3    H240025   6.708   6.331   6.706  3.0729 -1.1085 -1.1505
 6156TIP3   OH240026   2.219   4.050   7.402 -0.3650  0.1626 -0.3188
 6156TIP3    H140027   2.280   3.995   7.353  0.8531  1.8744 -0.8356
 6156TIP3    H240028   2.256   4.054   7.490 -1.2440 -0.9692  0.1243
 6157TIP3   OH240029   2.022   0.169   1.069 -0.1780  0.6201  0.0472
 6157TIP3    H140030   2.069   0.203   1.146  0.3995  1.1683 -0.5350
 6157TIP3    H240031   2.090   0.128   1.015 -0.3251  1.5208 -0.8586
 6158TIP3   OH240032   0.309   1.857   8.469  0.1082  0.5584  0.4161
 6158TIP3    H140033   0.323   1.768   8.503  0.2052  1.0316  1.6734
 6158TIP3    H240034   0.386   1.875   8.416  0.2732  0.0355  0.4722
 6159TIP3   OH240035   1.699   5.945   0.825  0.3283 -0.4035 -0.6450
 6159TIP3    H140036   1.792   5.934   0.845  0.3457 -0.7900 -0.9329
 6159TIP3    H240037   1.659   5.862   0.853  0.3985 -1.1095 -2.4827
 6160TIP3   OH240038   6.310   4.198   1.556 -0.0556 -0.1028  0.1480
 6160TIP3    H140039   6.401   4.177   1.574  0.0686 -0.9138 -1.2881
 6160TIP3    H240040   6.269   4.204   1.643  0.9970 -1.4159  0.7659
 6161TIP3   OH240041   3.002   3.715   0.363 -0.3211 -0.3250  0.4185
 6161TIP3    H140042   3.040   3.663   0.293 -0.9244  0.6794 -0.7021
 6161TIP3    H240043   3.053   3.694   0.441  0.0454 -1.8308 -0.2154
 6162TIP3   OH240044   6.101   0.088   7.086  0.0195  0.3047  0.0973
 6162TIP3    H140045   6.083   0.021   7.152 -0.5829  0.8636  0.5051
 6162TIP3    H240046   6.072   0.170   7.126  0.6424  0.8011 -0.4422
 6163TIP3   OH240047   5.579   3.200   7.956  0.6489 -0.2532  0.3511
 6163TIP3    H140048   5.489   3.185   7.984  0.6992 -0.5295  0.3665
 6163TIP3    H240049   5.589   3.149   7.876  0.4246  0.7560 -0.3396
 6164TIP3   OH240050   0.879   1.010   0.959 -0.1508 -0.5990  0.3330
 6164TIP3    H140051   0.887   1.097   0.920  0.1814 -1.0096 -0.5381
 6164TIP3    H240052   0.937   0.955   0.907 -0.7668 -1.4563  0.5327
 6165TIP3   OH240053   3.688   5.653   6.798  0.3449 -0.5060 -0.0337
 6165TIP3    H140054   3.718   5.743   6.800  0.4325 -0.5400  0.1661
 6165TIP3    H240055   3.691   5.629   6.705  1.6790 -0.7535  0.0529
 6166TIP3   OH240056   0.267   0.118   1.017  0.0203  0.0598  0.0256
 6166TIP3    H140057   0.244   0.082   0.932  1.0188 -0.2562 -0.1234
 6166TIP3    H240058   0.299   0.206   0.999 -0.1396  0.1372  0.1175
 6167TIP3   OH240059   5.872   5.757   7.561  0.3720  0.3030  0.4891
 6167TIP3    H140060   5.794   5.794   7.519  1.7654  1.3119 -1.3499
 6167TIP3    H240061   5.839   5.716   7.641 -2.1808 -0.1326 -0.6849
 6168TIP3   OH240062   5.033   1.506   6.925 -0.0729 -0.2012 -0.4479
 6168TIP3    H140063   5.029   1.426   6.977 -0.3237  0.6064  0.7994
 6168TIP3    H240064   5.066   1.477   6.840  0.6395 -1.5002  0.2421
 6169TIP3   OH240065   0.722   3.578   1.493 -0.2775  0.0358  0.4728
 6169TIP3    H140066   0.794   3.626   1.452 -1.1733  2.7569  1.8659
 6169TIP3    H240067   0.647   3.595   1.436 -0.6338  0.4244  1.0484
 6170TIP3   OH240068   3.824   6.056   1.462  0.3969  0.5006  0.2252
 6170TIP3    H140069   3.809   5.970   1.501 -0.1503 -0.0477 -1.1333
 6170TIP3    H240070   3.916   6.075   1.479  1.0785 -1.2717 -1.1546
 6171TIP3   OH240071   2.633   0.575   8.311 -0.3637  0.3695  0.3021
 6171TIP3    H140072   2.554   0.628   8.321  0.3457  1.3172  1.0279
 6171TIP3    H240073   2.607   0.505   8.251 -1.7525  0.6549  0.5256
 6172TIP3   OH240074   4.037   1.666   1.060  0.3430 -0.1872 -0.3377
 6172TIP3    H140075   3.943   1.687   1.058  0.1118 -0.8290  1.4779
 6172TIP3    H240076   4.078   1.736   1.011 -0.9990  0.7303 -0.2176
 6173TIP3   OH240077   6.781   5.221   7.385 -0.2774 -0.0785  0.0832
 6173TIP3    H140078   6.822   5.175   7.312  1.4431  1.5122 -0.0420
 6173TIP3    H240079   6.828   5.305   7.390 -1.0176  0.2783  2.3852
 6174TIP3   OH240080   4.201   2.654   1.795 -0.0739  0.7176  0.6668
 6174TIP3    H140081   4.213   2.596   1.720 -0.6250  2.4427 -0.8295
 6174TIP3    H240082   4.109   2.645   1.818  0.3669 -0.7866  2.0479
 6175TIP3   OH240083   1.801   5.688   1.417 -0.8881 -0.2261 -0.3360
 6175TIP3    H140084   1.743   5.623   1.378  1.5186 -1.0950 -2.8068
 6175TIP3    H240085   1.783   5.768   1.368 -0.0739 -0.4875 -1.0805
 6176TIP3   OH240086   3.971   0.242   0.670 -0.6357  0.5478 -0.0763
 6176TIP3    H140087   4.015   0.276   0.748  0.0575 -0.6114  0.0700
 6176TIP3    H240088   3.963   0.148   0.686  1.9532 -0.2261 -2.4499
 6177TIP3   OH240089   4.678   6.850   6.610 -0.2979 -0.1778 -0.0442
 6177TIP3    H140090   4.725   6.932   6.592  0.5311 -0.7398 -0.4669
 6177TIP3    H240091   4.715   6.787   6.549 -0.0177 -1.1986  1.1419
 6178TIP3   OH240092   2.022   5.478   0.956 -0.1421  0.1668  0.2307
 6178TIP3    H140093   2.107   5.479   1.001 -0.0688  0.4469  0.0909
 6178TIP3    H240094   2.044   5.472   0.863 -0.2841 -0.0721  0.2115
 6179TIP3   OH240095   5.666   2.067   7.423  0.2360 -0.2063  0.0680
 6179TIP3    H140096   5.625   2.104   7.502  0.1129  0.3466 -0.2521
 6179TIP3    H240097   5.594   2.059   7.360  0.0881 -1.7711  0.3938
 6180TIP3   OH240098   3.460   4.883   0.833  0.5126  0.2988 -0.3935
 6180TIP3    H140099   3.379   4.927   0.860 -1.1648 -2.6165 -0.2315
 6180TIP3    H240100   3.468   4.901   0.739 -1.5516 -0.9774 -0.8897
 6181TIP3   OH240101   5.717   6.681   6.610 -0.2699  0.6317 -0.3219
 6181TIP3    H140102   5.729   6.604   6.554  0.4527 -1.4746  2.4580
 6181TIP3    H240103   5.805   6.705   6.637 -0.5484  2.0068 -0.5774
 6182TIP3   OH240104   3.760   4.907   7.871  0.3988 -0.1525  0.3297
 6182TIP3    H140105   3.851   4.924   7.848  0.4834 -1.2405 -0.2294
 6182TIP3    H240106   3.755   4.924   7.965  0.7311  1.6446  0.0413
 6183TIP3   OH240107   5.783   5.374   7.228  0.6125  0.0163 -0.4609
 6183TIP3    H140108   5.818   5.459   7.201  0.7715 -0.8219 -3.1022
 6183TIP3    H240109   5.858   5.327   7.264  0.5090  0.9573  1.0931
 6184TIP3   OH240110   0.335   3.520   7.428  0.1969  0.5420  0.8589
 6184TIP3    H140111   0.349   3.427   7.449 -1.2142  0.1456  0.1932
 6184TIP3    H240112   0.245   3.537   7.458  0.7132  1.9355  1.7142
 6185TIP3   OH240113   6.238   4.374   0.956  0.1259 -0.1923 -0.2107
 6185TIP3    H140114   6.209   4.362   0.866  1.9545 -1.2641 -0.7216
 6185TIP3    H240115   6.185   4.312   1.006 -1.0910  0.6027 -0.4735
 6186TIP3   OH240116   4.960   0.166   1.169 -0.6651 -0.2058 -0.0719
 6186TIP3    H140117   5.013   0.179   1.247 -2.2579  1.0554  0.8678
 6186TIP3    H240118   4.879   0.125   1.201 -1.1630 -0.0828 -1.1100
 6187TIP3   OH240119   2.254   3.603   0.634  0.1718  0.0003 -0.1146
 6187TIP3    H140120   2.271   3.537   0.700 -0.9076  0.1595  0.3457
 6187TIP3    H240121   2.161   3.623   0.643  0.1621  0.5403 -1.2063
 6188TIP3   OH240122   6.184   1.560   8.488  0.3872 -0.3224 -0.3543
 6188TIP3    H140123   6.169   1.466   8.487 -2.6055  0.0477  0.2071
 6188TIP3    H240124   6.115   1.596   8.432 -0.2420  1.6840  1.5665
 6189TIP3   OH240125   3.927   2.762   7.351 -0.4025 -0.0325 -0.3643
 6189TIP3    H140126   3.847   2.713   7.369 -0.7003  1.1960  2.0702
 6189TIP3    H240127   3.986   2.698   7.311 -2.3685 -1.0983 -1.7252
 6190TIP3   OH240128   3.689   1.116   7.143  0.2600  0.1522 -0.2696
 6190TIP3    H140129   3.653   1.151   7.224 -3.3795 -1.4564 -0.9685
 6190TIP3    H240130   3.713   1.025   7.165  1.3086  0.3554 -0.5229
 6191TIP3   OH240131   1.098   0.903   1.208 -0.4096  0.1934 -0.0767
 6191TIP3    H140132   1.023   0.855   1.170  2.0602 -0.6876 -4.5671
 6191TIP3    H240133   1.161   0.834   1.229  0.9723  1.1162 -1.0855
 6192TIP3   OH240134   4.124   3.133   5.781  0.1942  0.0452  0.3867
 6192TIP3    H140135   4.044   3.184   5.770  0.0316 -0.2769  0.0572
 6192TIP3    H240136   4.188   3.197   5.813  0.1854  0.6230 -0.6757
 6193TIP3   OH240137   0.353   0.086   7.095 -0.1541 -0.5444  0.6154
 6193TIP3    H140138   0.367   0.126   7.181  1.2049 -1.3342  0.7920
 6193TIP3    H240139   0.339   0.160   7.036  0.9243  0.1339  1.1739
 6194TIP3   OH240140   3.309   2.263   8.003  0.4560 -0.6202 -0.2951
 6194TIP3    H140141   3.218   2.280   8.024 -0.5371 -3.8611 -1.3483
 6194TIP3    H240142   3.358   2.298   8.078 -2.1020 -3.1619  2.8956
 6195TIP3   OH240143   3.009   6.319   1.160 -0.4236  0.4207  0.6984
 6195TIP3    H140144   2.973   6.400   1.124 -0.8220  0.9356  2.1532
 6195TIP3    H240145   3.021   6.262   1.085 -1.1316  1.4626 -0.2360
 6196TIP3   OH240146   5.379   4.147   8.331  0.0546 -0.5824  0.2157
 6196TIP3    H140147   5.461   4.160   8.283  1.6579 -0.9104  2.6796
 6196TIP3    H240148   5.358   4.233   8.366  0.1607 -0.7911  0.7964
 6197TIP3   OH240149   0.588   2.646   0.622 -0.1841  1.1007  0.1817
 6197TIP3    H140150   0.514   2.706   0.612  0.5257  2.6202  2.9986
 6197TIP3    H240151   0.594   2.631   0.716  3.4030  1.5130  0.1559
 6198TIP3   OH240152   1.156   2.751   7.254  0.0390  0.4173 -0.0296
 6198TIP3    H140153   1.170   2.832   7.302  2.3274 -0.2143  0.4877
 6198TIP3    H240154   1.184   2.682   7.315 -0.5716 -0.6795 -0.9406
 6199TIP3   OH240155   3.986   2.612   6.657 -0.2588 -0.2085  0.1986
 6199TIP3    H140156   4.028   2.652   6.581  0.7071  0.0643  0.8578
 6199TIP3    H240157   3.969   2.686   6.716  0.4613 -0.6105  0.9255
 6200TIP3   OH240158   5.684   5.368   2.046  0.0688 -0.5641  0.0565
 6200TIP3    H140159   5.613   5.305   2.038 -0.5363 -0.2946  2.5738
 6200TIP3    H240160   5.752   5.322   2.096 -0.8102  0.9858  2.8830
 6201TIP3   OH240161   4.994   2.522   7.877  0.2802  0.8141 -0.7926
 6201TIP3    H140162   5.078   2.527   7.922  1.1089  0.1945 -2.2097
 6201TIP3    H240163   4.998   2.592   7.811  0.7973 -0.8173 -2.5869
 6202TIP3   OH240164   6.906   3.670   1.968  0.2943 -0.1658 -0.5019
 6202TIP3    H140165   6.906   3.688   1.874  1.6939 -2.0951 -0.9294
 6202TIP3    H240166   6.814   3.657   1.990  0.0832 -1.5474 -2.0241
 6203TIP3   OH240167   0.731   1.188   1.412  0.3266 -0.1383  0.4360
 6203TIP3    H140168   0.804   1.178   1.351 -0.4730  1.3843 -0.8201
 6203TIP3    H240169   0.769   1.231   1.489  1.0300 -0.7088  0.4209
 6204TIP3   OH240170   2.861   6.341   6.875  0.3004  0.5515 -0.2659
 6204TIP3    H140171   2.878   6.274   6.809  3.9778  0.1709  0.8393
 6204TIP3    H240172   2.875   6.424   6.830 -0.1235  0.4180 -0.6454
 6205TIP3   OH240173   2.182   3.255   0.292 -0.0850  0.2548  0.3106
 6205TIP3    H140174   2.253   3.276   0.353  0.4420  1.0476 -0.5511
 6205TIP3    H240175   2.224   3.200   0.226 -0.8718 -1.4288  1.1395
 6206TIP3   OH240176   6.382   5.298   1.116 -0.0490  0.6284  0.4802
 6206TIP3    H140177   6.295   5.263   1.134  1.3163 -2.2984  2.0466
 6206TIP3    H240178   6.381   5.386   1.153 -2.0742  0.3520  1.1880
 6207TIP3   OH240179   2.412   4.010   7.079  0.3041 -0.0281 -0.6420
 6207TIP3    H140180   2.412   3.940   7.013 -1.0725 -0.0714 -0.6119
 6207TIP3    H240181   2.403   3.963   7.162  2.0665  0.0231 -0.3856
 6208TIP3   OH240182   4.121   4.709   7.013 -0.1775  0.6525  0.0850
 6208TIP3    H140183   4.100   4.751   7.096  1.5978 -1.6932  1.8632
 6208TIP3    H240184   4.059   4.636   7.007  0.1183  0.4301 -0.3151
 6209TIP3   OH240185   1.640   2.134   1.530  0.3740  0.5033  0.3020
 6209TIP3    H140186   1.604   2.179   1.453 -3.1901 -2.4818 -0.0678
 6209TIP3    H240187   1.699   2.068   1.494  1.2183  1.1805  0.4198
 6210TIP3   OH240188   2.924   2.929   0.284 -0.2509  0.0510 -0.3411
 6210TIP3    H140189   3.018   2.916   0.276 -0.3663 -0.3253 -1.2089
 6210TIP3    H240190   2.890   2.846   0.316 -0.3836 -0.1138 -0.8920
 6211TIP3   OH240191   2.596   2.735   7.817  0.0866  0.3110 -0.2941
 6211TIP3    H140192   2.626   2.656   7.863 -1.7282 -0.2610 -0.0235
 6211TIP3    H240193   2.502   2.740   7.835 -0.2547  1.3613 -2.0579
 6212TIP3   OH240194   2.552   5.982   0.363  0.1962  0.4227  0.5123
 6212TIP3    H140195   2.618   6.049   0.345  0.2325  0.0656 -0.8724
 6212TIP3    H240196   2.555   5.925   0.285 -1.2173 -0.0290  0.7594
 6213TIP3   OH240197   6.070   0.429   7.521  0.4766  0.2649  0.0965
 6213TIP3    H140198   6.130   0.500   7.497  0.9463  0.4819  1.7738
 6213TIP3    H240199   5.987   0.473   7.537  0.6716  0.3957  0.7698
 6214TIP3   OH240200   2.152   6.513   7.749  0.1192  0.6111 -0.2798
 6214TIP3    H140201   2.127   6.509   7.841  0.7017 -2.8902 -0.1373
 6214TIP3    H240202   2.241   6.548   7.750 -0.1995  1.4433  0.3706
 6215TIP3   OH240203   1.306   6.683   0.513 -0.9078  0.2575  0.1750
 6215TIP3    H140204   1.314   6.610   0.574 -1.9472 -0.1363 -0.1451
 6215TIP3    H240205   1.358   6.753   0.553 -1.3128 -0.0916  1.3641
 6216TIP3   OH240206   3.335   1.821   1.948  0.0192  0.0076 -0.5366
 6216TIP3    H140207   3.361   1.741   1.902  1.4171  1.2559 -2.0873
 6216TIP3    H240208   3.418   1.867   1.964 -0.5291  0.1557  2.3541
 6217TIP3   OH240209   4.426   2.772   1.673  0.0813  0.5361 -0.2345
 6217TIP3    H140210   4.460   2.683   1.676  0.9989  0.8154 -1.5687
 6217TIP3    H240211   4.337   2.765   1.709 -0.0313 -0.9958 -0.7409
 6218TIP3   OH240212   2.095   6.717   0.510  0.2062  0.1814 -0.1652
 6218TIP3    H140213   2.168   6.664   0.480 -1.5588 -1.4736 -1.8798
 6218TIP3    H240214   2.109   6.802   0.468  0.5196 -0.5144 -1.5604
 6219TIP3   OH240215   2.619   1.933   0.734 -0.2940  0.2839 -0.5308
 6219TIP3    H140216   2.540   1.972   0.771 -0.6415 -0.8098 -0.0737
 6219TIP3    H240217   2.683   1.937   0.805 -0.7287 -1.1214 -0.0261
 6220TIP3   OH240218   5.520   2.937   6.794 -0.0120 -0.1200  1.0208
 6220TIP3    H140219   5.518   2.994   6.717 -0.7056 -1.0577  0.3180
 6220TIP3    H240220   5.571   2.860   6.766  0.1258 -0.2640  1.6480
 6221TIP3   OH240221   3.231   2.227   2.073 -0.5168 -0.0217 -0.3295
 6221TIP3    H140222   3.175   2.149   2.069  0.9430 -1.0840 -1.1777
 6221TIP3    H240223   3.307   2.204   2.020  0.6064  1.4767  0.5557
 6222TIP3   OH240224   1.398   0.015   0.007 -0.0773 -0.7009 -0.0519
 6222TIP3    H140225   1.313  -0.022  -0.014 -0.0871  0.1044 -1.5732
 6222TIP3    H240226   1.378   0.089   0.065 -0.3288 -1.0330  0.2908
 6223TIP3   OH240227   4.841   6.365   0.459  0.0915  0.2519  0.0938
 6223TIP3    H140228   4.765   6.331   0.412  0.2727 -0.3121  0.2026
 6223TIP3    H240229   4.898   6.400   0.390 -0.8171  1.8338  0.1012
 6224TIP3   OH240230   5.858   2.795   8.415 -0.2525  0.0490  0.1891
 6224TIP3    H140231   5.831   2.833   8.499  1.5372  0.9907  0.3879
 6224TIP3    H240232   5.777   2.788   8.365 -0.9288  2.5609  0.7909
 6225TIP3   OH240233   4.395   2.838   1.202 -0.1960  0.4094 -0.1203
 6225TIP3    H140234   4.446   2.869   1.277  1.2966  0.9917 -1.3207
 6225TIP3    H240235   4.393   2.913   1.142 -1.1409 -0.1246 -0.7839
 6226TIP3   OH240236   4.136   5.272   7.246  0.2213  0.6357 -0.6700
 6226TIP3    H140237   4.195   5.293   7.174  2.3048  0.6215  0.9524
 6226TIP3    H240238   4.153   5.340   7.311 -2.8116  1.6329 -0.7737
 6227TIP3   OH240239   0.013   3.032   1.241 -0.0991 -0.1229 -0.1484
 6227TIP3    H140240   0.061   2.989   1.311  0.7513 -0.0182 -0.6565
 6227TIP3    H240241   0.040   3.124   1.246  0.0328 -0.1303 -0.6565
 6228TIP3   OH240242   1.349   4.077   1.529 -0.4090 -0.0102  0.7400
 6228TIP3    H140243   1.268   4.105   1.572 -0.8361  0.5248 -0.3734
 6228TIP3    H240244   1.321   4.011   1.466  0.0966 -0.1941  0.7014
 6229TIP3   OH240245   3.021   6.845   1.192 -0.7511 -0.1856 -0.4181
 6229TIP3    H140246   3.012   6.896   1.112  1.4793  0.7607 -0.1380
 6229TIP3    H240247   2.956   6.882   1.252 -0.9057  0.5894 -1.0562
 6230TIP3   OH240248   0.384   0.754   1.764 -0.2117 -0.3035 -0.1377
 6230TIP3    H140249   0.456   0.719   1.712 -0.4543  1.0360 -1.4489
 6230TIP3    H240250   0.317   0.686   1.762 -0.0791 -0.4168 -1.3117
 6231TIP3   OH240251   5.366   6.538   1.482  0.8021 -0.1667  1.0565
 6231TIP3    H140252   5.447   6.573   1.518  1.1340 -0.6687  0.8207
 6231TIP3    H240253   5.377   6.443   1.488  1.2025 -0.3014 -1.0491
 6232TIP3   OH240254   0.512   5.359   7.250 -0.1430  0.1542 -0.0244
 6232TIP3    H140255   0.592   5.359   7.197 -0.6446  1.5979 -0.8354
 6232TIP3    H240256   0.542   5.374   7.339  0.5071  0.4168 -0.2791
 6233TIP3   OH240257   1.251   6.228   1.592  0.1700  0.7978 -0.0035
 6233TIP3    H140258   1.338   6.189   1.587  0.2937  1.0673  0.0596
 6233TIP3    H240259   1.252   6.282   1.670 -0.0970  0.7031  0.0688
 6234TIP3   OH240260   0.702   3.982   0.888 -0.2114  0.4226  0.1453
 6234TIP3    H140261   0.739   4.069   0.873  1.9068 -0.4892 -0.3257
 6234TIP3    H240262   0.721   3.934   0.807 -0.3129 -0.8062  0.8286
 6235TIP3   OH240263   5.090   1.265   7.597  0.0713  0.4665 -0.4163
 6235TIP3    H140264   5.147   1.292   7.525 -0.7037 -0.4495 -1.4097
 6235TIP3    H240265   5.121   1.177   7.620 -1.2015 -0.2426 -1.2940
 6236TIP3   OH240266   3.334   2.749   0.469 -0.4022 -0.0597  0.2914
 6236TIP3    H140267   3.357   2.840   0.484  0.5176 -0.3484  0.6606
 6236TIP3    H240268   3.417   2.702   0.474 -0.7382 -0.8055 -0.7809
 6237TIP3   OH240269   3.621   4.831   0.547 -0.2826 -0.0426  0.3911
 6237TIP3    H140270   3.574   4.789   0.475  0.4220 -0.3448  0.1023
 6237TIP3    H240271   3.687   4.767   0.574 -0.0964  0.3368  0.8531
 6238TIP3   OH240272   6.600   2.525   7.455 -0.4698 -0.5667  0.4066
 6238TIP3    H140273   6.530   2.570   7.409  0.8081 -0.7381 -1.8732
 6238TIP3    H240274   6.570   2.434   7.462 -1.0043 -0.3771  0.6253
 6239TIP3   OH240275   5.928   3.345   0.089  0.1805  0.1232 -0.5899
 6239TIP3    H140276   5.833   3.333   0.079  0.1164  0.2765 -0.1808
 6239TIP3    H240277   5.949   3.418   0.031  0.3661 -1.0961 -2.1277
 6240TIP3   OH240278   4.699   6.603   8.105  0.0715 -0.3224 -0.0425
 6240TIP3    H140279   4.682   6.580   8.014 -0.7334 -0.7361  0.2006
 6240TIP3    H240280   4.654   6.686   8.118 -0.8006 -0.8296  0.2780
 6241TIP3   OH240281   1.438   1.063   8.514 -0.0355 -0.3230  0.1889
 6241TIP3    H140282   1.360   1.007   8.518 -1.0450  0.9299 -0.9222
 6241TIP3    H240283   1.457   1.070   8.420  0.3012  0.8555  0.3312
 6242TIP3   OH240284   5.824   5.475   7.723 -0.2970  0.3128 -0.2469
 6242TIP3    H140285   5.762   5.477   7.650 -2.1194 -0.4410  1.2165
 6242TIP3    H240286   5.840   5.382   7.738 -0.5295  0.4354  0.7952
 6243TIP3   OH240287   1.485   5.011   8.082  0.5529  0.4980  0.7262
 6243TIP3    H140288   1.564   4.973   8.045 -0.0457  1.5080 -1.8222
 6243TIP3    H240289   1.413   4.960   8.044 -0.1395 -1.5612  4.3375
 6244TIP3   OH240290   2.170   5.304   1.211 -0.0204  0.2025 -0.2361
 6244TIP3    H140291   2.215   5.385   1.190 -1.0273  0.7564 -0.3272
 6244TIP3    H240292   2.110   5.328   1.282  1.6821 -1.1074  1.7498
 6245TIP3   OH240293   3.478   6.480   8.209 -0.1699 -0.4858 -0.2503
 6245TIP3    H140294   3.503   6.395   8.245  1.4771 -0.2034 -0.6476
 6245TIP3    H240295   3.549   6.538   8.234 -2.5155  1.4911  2.3596
 6246TIP3   OH240296   4.106   3.561   1.081  0.4644  0.4767  0.2947
 6246TIP3    H140297   4.127   3.468   1.073 -0.7342  0.2087  0.0492
 6246TIP3    H240298   4.191   3.604   1.092  0.9861 -0.7133  1.1198
 6247TIP3   OH240299   3.141   1.981   0.342  0.3271 -0.2864 -0.3460
 6247TIP3    H140300   3.165   1.998   0.433 -1.1061  0.8875 -0.1503
 6247TIP3    H240301   3.206   1.918   0.311  0.9539 -0.5605  1.4283
 6248TIP3   OH240302   3.313   1.346   1.954  0.6864  0.5961  0.6304
 6248TIP3    H140303   3.261   1.270   1.980  0.4925 -0.0216 -1.4056
 6248TIP3    H240304   3.396   1.309   1.925  0.6013  1.1439 -0.3430
 6249TIP3   OH240305   4.536   4.652   1.662  0.1443 -0.0098  0.2721
 6249TIP3    H140306   4.570   4.574   1.619  0.7830  0.6597 -0.4917
 6249TIP3    H240307   4.527   4.627   1.754  1.2669 -0.6890  0.2188
 6250TIP3   OH240308   4.969   3.885   0.562  0.4819  0.0006 -0.1502
 6250TIP3    H140309   5.048   3.903   0.613  0.9565  0.6686 -1.0859
 6250TIP3    H240310   4.974   3.947   0.488  0.3480 -1.6169 -1.5716
 6251TIP3   OH240311   4.199   2.232   0.662 -0.5941  0.0378  0.0672
 6251TIP3    H140312   4.255   2.273   0.597 -1.3109 -0.2082 -0.7257
 6251TIP3    H240313   4.178   2.303   0.723 -0.9840  0.6201 -0.7118
 6252TIP3   OH240314   3.757   5.693   1.507  0.0306 -0.0850  0.3801
 6252TIP3    H140315   3.758   5.774   1.558 -3.4383 -0.0841  0.6970
 6252TIP3    H240316   3.752   5.624   1.573 -1.0691 -0.2848  0.1024
 6253TIP3   OH240317   2.590   5.705   0.762 -0.0395 -0.5519 -0.5029
 6253TIP3    H140318   2.622   5.630   0.811  0.7210 -1.0801 -1.7448
 6253TIP3    H240319   2.506   5.677   0.726 -0.9692  0.0997  1.0441
 6254TIP3   OH240320   0.044   2.728   6.802  0.3380  0.5267 -0.2619
 6254TIP3    H140321   0.039   2.708   6.709  3.0871 -0.5381 -0.2830
 6254TIP3    H240322  -0.007   2.659   6.844  1.7203 -0.9403 -0.8752
 6255TIP3   OH240323   3.419   5.005   0.189 -0.2327 -0.1341 -0.8574
 6255TIP3    H140324   3.403   4.980   0.098 -3.0264  0.9700 -0.7685
 6255TIP3    H240325   3.446   5.097   0.184 -4.8129  1.4638 -0.5141
 6256TIP3   OH240326   0.029   5.793   2.385 -0.4819  0.5138  0.4361
 6256TIP3    H140327   0.038   5.719   2.324  0.0568  0.6010  0.4020
 6256TIP3    H240328   0.033   5.754   2.472  1.6481  0.6680  0.4492
 6257TIP3   OH240329   1.573   1.637   0.040  0.5434 -0.3622  0.0560
 6257TIP3    H140330   1.537   1.572  -0.020  1.3053 -0.3429 -0.4324
 6257TIP3    H240331   1.567   1.596   0.127 -2.9571  0.5908  0.4222
 6258TIP3   OH240332   4.803   5.908   7.866 -0.0731 -0.5385 -0.6385
 6258TIP3    H140333   4.740   5.925   7.796  0.6862 -0.3287 -1.2950
 6258TIP3    H240334   4.784   5.974   7.933 -3.0697 -2.8204  1.0051
 6259TIP3   OH240335   3.169   5.217   2.135  0.5807 -0.4740 -0.3506
 6259TIP3    H140336   3.112   5.148   2.169 -0.6270  1.3282  1.4813
 6259TIP3    H240337   3.253   5.201   2.178  0.0317 -0.2596  0.8348
 6260TIP3   OH240338   4.367   4.497   0.272 -0.0438 -0.2188  0.1675
 6260TIP3    H140339   4.279   4.535   0.269  0.2213  0.3694 -0.4077
 6260TIP3    H240340   4.367   4.433   0.202 -0.1721 -0.5861  0.4989
 6261TIP3   OH240341   4.332   2.344   7.294  0.3639  0.1319  0.1944
 6261TIP3    H140342   4.244   2.307   7.302  0.3717  0.1104  0.1799
 6261TIP3    H240343   4.365   2.346   7.384 -0.2589  1.6117  0.4209
 6262TIP3   OH240344   3.890   4.569   6.194  0.1645 -0.1974  0.1519
 6262TIP3    H140345   3.899   4.643   6.133 -3.4477  0.0642 -0.2814
 6262TIP3    H240346   3.869   4.494   6.138 -2.9888  0.0006  0.8696
 6263TIP3   OH240347   0.737   6.626   0.742 -0.4602 -0.2324 -0.0773
 6263TIP3    H140348   0.687   6.599   0.819 -0.6590 -1.4373 -0.5922
 6263TIP3    H240349   0.674   6.674   0.688  0.1080  2.0852  1.2227
 6264TIP3   OH240350   6.385   4.253   1.280  0.3467 -0.5734  0.9076
 6264TIP3    H140351   6.389   4.239   1.375 -0.0204 -0.6480  0.9134
 6264TIP3    H240352   6.332   4.331   1.270  1.5742  0.2722  0.8258
 6265TIP3   OH240353   2.346   6.725   8.259 -0.2681 -0.1737  0.3212
 6265TIP3    H140354   2.380   6.648   8.214 -0.9867 -0.1607 -0.2680
 6265TIP3    H240355   2.419   6.787   8.258 -0.7182  0.4554 -2.3457
 6266TIP3   OH240356   6.449   5.426   7.017 -0.4824 -0.2598 -0.0993
 6266TIP3    H140357   6.376   5.365   7.014 -0.8611  0.1885 -0.0250
 6266TIP3    H240358   6.516   5.386   6.962 -0.7893 -0.6609 -0.1814
 6267TIP3   OH240359   0.390   3.310   8.189 -0.1673  0.0199  0.0333
 6267TIP3    H140360   0.356   3.349   8.270 -0.4458  1.0812 -0.5671
 6267TIP3    H240361   0.376   3.216   8.199 -3.0428  0.3605 -0.0447
 6268TIP3   OH240362   6.901   4.946   1.881  0.2183 -0.0587 -0.3444
 6268TIP3    H140363   6.822   4.994   1.905  0.3182 -0.7644  1.5634
 6268TIP3    H240364   6.970   4.988   1.932  0.6493 -0.9119 -0.2197
 6269TIP3   OH240365   4.433   2.682   7.863 -0.1745  0.3716 -0.0670
 6269TIP3    H140366   4.378   2.639   7.929 -1.4500  0.9702 -0.6919
 6269TIP3    H240367   4.457   2.613   7.802 -0.1858  0.0864  0.2503
 6270TIP3   OH240368   3.260   4.493   7.595 -0.0146  0.3180 -0.5513
 6270TIP3    H140369   3.184   4.479   7.652  0.4154 -4.2104 -0.6796
 6270TIP3    H240370   3.233   4.455   7.511  2.0134 -0.4836 -0.8930
 6271TIP3   OH240371   5.337   4.318   6.573 -0.7145 -0.2982  0.2912
 6271TIP3    H140372   5.423   4.351   6.599 -0.3420  0.3925 -1.6745
 6271TIP3    H240373   5.287   4.397   6.554 -0.5354 -0.7442 -2.3016
 6272TIP3   OH240374   3.810   6.491   7.867 -0.2830  0.1458 -0.3160
 6272TIP3    H140375   3.729   6.542   7.879 -0.2801  0.0298  0.2429
 6272TIP3    H240376   3.804   6.421   7.932  0.1184 -0.0583 -0.4956
 6273TIP3   OH240377   6.140   6.440   8.027  0.3706 -0.3297  0.0378
 6273TIP3    H140378   6.199   6.516   8.029 -0.7545  0.6010 -0.8725
 6273TIP3    H240379   6.142   6.407   8.117 -2.6030  3.5933  1.8217
 6274TIP3   OH240380   0.268   5.991   0.218 -0.1589 -0.3451  0.1340
 6274TIP3    H140381   0.198   5.949   0.267 -0.7930  1.7635  1.1499
 6274TIP3    H240382   0.346   5.979   0.272  0.6568 -3.6623 -1.5089
 6275TIP3   OH240383   3.420   0.810   1.814  0.2158  0.4021 -0.0287
 6275TIP3    H140384   3.513   0.835   1.809  0.3204  0.2282  0.7865
 6275TIP3    H240385   3.384   0.832   1.728  1.3002 -0.7176 -0.8093
 6276TIP3   OH240386   5.438   0.014   1.464 -0.2224  0.0890 -0.0891
 6276TIP3    H140387   5.441   0.107   1.487  1.3400 -0.1398  0.7032
 6276TIP3    H240388   5.527  -0.018   1.479 -0.9019 -1.7094  0.3839
 6277TIP3   OH240389   5.829   3.079   7.337 -0.1348  0.6221  0.3092
 6277TIP3    H140390   5.877   3.162   7.330  0.3283  0.5091  1.8496
 6277TIP3    H240391   5.738   3.105   7.351  0.0044  0.8814  0.7608
 6278TIP3   OH240392   5.109   0.193   1.410  0.3716 -0.2956 -0.3430
 6278TIP3    H140393   5.169   0.268   1.408 -0.7188  0.5876 -1.6398
 6278TIP3    H240394   5.037   0.221   1.466  0.5206 -0.8472  0.1366
 6279TIP3   OH240395   2.275   6.539   1.273  0.0487  0.1691 -0.5221
 6279TIP3    H140396   2.263   6.454   1.230  0.7594  1.0512 -2.5516
 6279TIP3    H240397   2.221   6.532   1.352 -1.4613 -1.4819 -1.5975
 6280TIP3   OH240398   3.883   3.352   0.025  0.5294  0.7421 -0.4577
 6280TIP3    H140399   3.858   3.376   0.114  1.2578 -0.1735  0.0112
 6280TIP3    H240400   3.969   3.311   0.035  0.1879 -0.2617 -1.4492
 6281TIP3   OH240401   3.604   2.630   0.498 -0.3470 -0.0487 -0.0277
 6281TIP3    H140402   3.652   2.712   0.511  1.8584 -1.2557  0.0032
 6281TIP3    H240403   3.586   2.599   0.587 -1.0907  0.3383 -0.0388
 6282TIP3   OH240404   1.427   5.233   8.226 -0.0135  0.0299  0.1980
 6282TIP3    H140405   1.506   5.227   8.281  2.4080  0.7847 -2.8872
 6282TIP3    H240406   1.429   5.152   8.174 -1.3268  0.0600  0.0864
 6283TIP3   OH240407   3.067   1.760   6.989  0.3358 -0.2346 -0.4854
 6283TIP3    H140408   3.074   1.759   7.084 -3.2733 -0.0776 -0.0637
 6283TIP3    H240409   3.054   1.668   6.965  2.1011 -0.3834 -0.9786
 6284TIP3   OH240410   5.288   4.319   1.623  0.4127 -0.0596  0.3279
 6284TIP3    H140411   5.296   4.249   1.687 -0.9157  0.3364  0.9580
 6284TIP3    H240412   5.314   4.278   1.540  0.8402 -0.9536  0.8880
 6285TIP3   OH240413   2.931   6.749   7.784  0.1643 -0.1030  0.0406
 6285TIP3    H140414   2.954   6.663   7.819 -1.9129  0.0507  1.9715
 6285TIP3    H240415   2.847   6.736   7.741  0.4796  0.7212 -0.8619
 6286TIP3   OH240416   4.042   1.390   1.017  0.8433 -0.6723  0.0297
 6286TIP3    H140417   4.085   1.391   0.932 -0.4669 -1.3750 -0.6765
 6286TIP3    H240418   4.033   1.482   1.042  1.2766 -0.4690 -0.5662
 6287TIP3   OH240419   1.034   4.354   1.429  0.2284 -0.5892  0.2396
 6287TIP3    H140420   1.045   4.260   1.411 -2.7162 -0.9923  0.0470
 6287TIP3    H240421   0.944   4.362   1.460  0.4013  2.2048  0.2633
 6288TIP3   OH240422   4.876   1.532   2.148 -0.0492 -0.0907  0.5317
 6288TIP3    H140423   4.904   1.561   2.061  1.6988 -0.1058  1.0651
 6288TIP3    H240424   4.856   1.439   2.137 -0.9471  0.1550 -0.0805
 6289TIP3   OH240425   2.482   0.707   1.206 -0.1601  0.3746  0.4458
 6289TIP3    H140426   2.466   0.796   1.236 -0.5027  0.1557  0.9376
 6289TIP3    H240427   2.577   0.698   1.209 -0.1941  0.1345  2.2212
 6290TIP3   OH240428   0.093   2.130   1.332 -0.7949 -0.5531 -0.1599
 6290TIP3    H140429   0.003   2.139   1.364 -1.2682 -0.1745 -1.5435
 6290TIP3    H240430   0.117   2.218   1.304  0.3347 -0.4738  0.9709
 6291TIP3   OH240431   2.002   5.924   7.671  0.1850 -0.3679 -0.0425
 6291TIP3    H140432   1.925   5.898   7.621 -0.1357  0.4990 -0.0057
 6291TIP3    H240433   2.044   5.992   7.619  0.6003 -0.4108  0.2246
 6292TIP3   OH240434   3.547   2.859   6.953 -0.1076 -0.2169 -0.1684
 6292TIP3    H140435   3.540   2.853   6.858 -1.0193  5.1395 -0.7356
 6292TIP3    H240436   3.641   2.860   6.971  0.0703 -1.8747 -0.8439
 6293TIP3   OH240437   1.161   1.176   8.028  0.3855  0.2905 -0.1590
 6293TIP3    H140438   1.225   1.182   8.099  1.5274 -0.6642 -1.0876
 6293TIP3    H240439   1.124   1.088   8.036  0.0895  0.3894 -0.3971
 6294TIP3   OH240440   6.883   0.575   8.306  0.3264  0.1164  0.3025
 6294TIP3    H140441   6.792   0.563   8.336  0.5418 -1.8788  0.3067
 6294TIP3    H240442   6.885   0.536   8.219  1.0384  0.7590  0.0232
 6295TIP3   OH240443   2.799   0.072   1.068  0.3093 -0.1515  0.1124
 6295TIP3    H140444   2.800   0.037   1.157 -0.3837  0.2782  0.2981
 6295TIP3    H240445   2.709   0.057   1.037 -0.0106  1.4192  0.1955
 6296TIP3   OH240446   5.870   6.417   8.386 -0.2484  0.7207 -0.0892
 6296TIP3    H140447   5.902   6.333   8.355  0.5262  0.2617  1.8241
 6296TIP3    H240448   5.874   6.474   8.309  1.1752 -0.4420 -0.9313
 6297TIP3   OH240449   6.085   1.529   7.963  0.3005 -0.4112 -0.0159
 6297TIP3    H140450   6.135   1.598   8.007  2.6298 -2.8256  1.3724
 6297TIP3    H240451   6.096   1.452   8.018 -1.3091 -2.2189 -2.0410
 6298TIP3   OH240452   4.759   4.880   0.471  0.8202 -0.6362  0.0416
 6298TIP3    H140453   4.742   4.847   0.559  0.2094  1.7039  0.8611
 6298TIP3    H240454   4.830   4.943   0.482 -1.1984  1.8953 -0.5603
 6299TIP3   OH240455   2.683   4.976   7.372  0.2456 -0.3755  0.0467
 6299TIP3    H140456   2.591   4.961   7.394 -0.1372  0.1456 -1.1432
 6299TIP3    H240457   2.708   5.055   7.421 -0.4228  0.4320 -0.8909
 6300TIP3   OH240458   1.093   3.411   0.757 -0.1866 -0.8404  0.5472
 6300TIP3    H140459   1.091   3.385   0.849  1.4341 -0.5067  0.7102
 6300TIP3    H240460   1.142   3.493   0.756  2.1127 -2.1082 -0.8505
 6301TIP3   OH240461   5.290   2.922   6.172 -0.2797 -0.7470 -0.4279
 6301TIP3    H140462   5.296   2.949   6.081  0.4180 -0.7929 -0.4052
 6301TIP3    H240463   5.251   2.835   6.170 -0.1728 -0.7873 -0.6895
 6302TIP3   OH240464   5.553   6.791   0.120  0.2103  0.9509  0.6507
 6302TIP3    H140465   5.510   6.726   0.176 -0.2655  0.6251 -0.0805
 6302TIP3    H240466   5.644   6.790   0.150  0.9232 -2.1892 -1.1851
 6303TIP3   OH240467   3.498   3.892   7.512 -0.1213  0.2077 -0.1415
 6303TIP3    H140468   3.493   3.830   7.439 -0.3876  1.4611 -1.2248
 6303TIP3    H240469   3.407   3.908   7.536 -0.0716  0.3762 -0.0610
 6304TIP3   OH240470   5.042   3.814   8.540 -0.0413 -0.6198 -0.1300
 6304TIP3    H140471   5.097   3.878   8.496 -0.2815 -0.4226 -0.1457
 6304TIP3    H240472   5.102   3.743   8.563  0.1256 -0.6324 -0.5896
 6305TIP3   OH240473   6.087   1.065   7.371  0.1387 -0.4078 -0.1492
 6305TIP3    H140474   6.135   1.110   7.441 -0.8190 -0.6565  0.6841
 6305TIP3    H240475   6.011   1.028   7.414 -0.0632 -1.2402 -1.1927
 6306TIP3   OH240476   3.674   1.622   2.029 -0.0208  0.0581 -0.2998
 6306TIP3    H140477   3.746   1.683   2.042 -1.0567  1.2181  0.1674
 6306TIP3    H240478   3.695   1.577   1.947  1.5597 -0.1250  0.1712
 6307TIP3   OH240479   6.658   1.405   6.868 -0.3731 -0.1876  0.0184
 6307TIP3    H140480   6.749   1.416   6.896 -0.2346  1.0037 -0.8233
 6307TIP3    H240481   6.607   1.411   6.948  0.2511 -0.3650  0.4353
 6308TIP3   OH240482   2.491   6.247   6.924 -0.9812  0.1254  0.0923
 6308TIP3    H140483   2.476   6.154   6.938 -0.5744  0.2865  1.7519
 6308TIP3    H240484   2.495   6.285   7.012 -0.1125  1.5437 -0.5139
 6309TIP3   OH240485   2.434   4.144   7.885  0.2926 -0.4628 -0.4801
 6309TIP3    H140486   2.519   4.115   7.850  0.5780 -0.0006 -0.1840
 6309TIP3    H240487   2.433   4.111   7.975  1.4329  1.9472  0.5048
 6310TIP3   OH240488   5.078   6.233   0.297  0.0077 -0.1986 -0.0151
 6310TIP3    H140489   5.021   6.189   0.360  0.0137 -1.5021 -0.8828
 6310TIP3    H240490   5.121   6.162   0.250  0.6715  0.7541 -0.8937
 6311TIP3   OH240491   6.633   2.549   8.216  0.2489 -0.2239  0.7393
 6311TIP3    H140492   6.644   2.534   8.310  0.7674 -1.9263  0.4315
 6311TIP3    H240493   6.587   2.472   8.184 -1.1753  0.9650 -0.2038
 6312TIP3   OH240494   3.145   0.908   0.576  0.3279 -0.2014 -0.0906
 6312TIP3    H140495   3.128   0.974   0.509 -0.0069 -0.5133 -0.3172
 6312TIP3    H240496   3.110   0.945   0.656 -4.4082 -1.9962 -0.9956
 6313TIP3   OH240497   5.612   3.365   6.877  0.1846  0.5107 -0.0631
 6313TIP3    H140498   5.593   3.403   6.963  1.4350  0.0627  0.4280
 6313TIP3    H240499   5.695   3.404   6.850  1.0109 -1.1053  0.0294
 6314TIP3   OH240500   2.455   1.160   7.899  0.1043 -0.0283  0.3831
 6314TIP3    H140501   2.478   1.153   7.806 -1.2878  3.4814 -0.3730
 6314TIP3    H240502   2.379   1.103   7.909  0.7006 -1.0031 -0.3901
 6315TIP3   OH240503   2.968   1.330   1.003  0.2163 -0.2481 -0.8402
 6315TIP3    H140504   2.911   1.290   1.070 -1.5497  1.6847 -1.0976
 6315TIP3    H240505   3.047   1.355   1.051 -1.2319  1.6190  0.7576
 6316TIP3   OH240506   5.454   0.851   0.870 -0.3571  0.5213 -0.3058
 6316TIP3    H140507   5.374   0.799   0.879 -0.0284  0.2483  1.3551
 6316TIP3    H240508   5.476   0.845   0.777 -1.4979 -0.5478 -0.5403
 6317TIP3   OH240509   3.262   0.119   7.341  0.1603 -0.3513  0.0012
 6317TIP3    H140510   3.215   0.160   7.268  0.0781  0.2667  0.3994
 6317TIP3    H240511   3.280   0.190   7.402  1.4560 -0.6052 -0.0530
 6318TIP3   OH240512   1.162   4.537   6.768  0.0030  0.2507 -0.5581
 6318TIP3    H140513   1.111   4.546   6.688  0.1247 -1.5874 -0.8633
 6318TIP3    H240514   1.104   4.571   6.837  0.0696  2.2713 -1.4157
 6319TIP3   OH240515   4.352   6.663   1.645  0.0755 -0.5979  0.5073
 6319TIP3    H140516   4.401   6.620   1.715 -0.4242  0.2141  1.3681
 6319TIP3    H240517   4.420   6.702   1.590  0.5225 -2.0378 -0.0311
 6320TIP3   OH240518   4.495   5.613   7.353  0.4714 -0.1796 -0.0427
 6320TIP3    H140519   4.544   5.682   7.397  0.2095 -0.1532  0.2076
 6320TIP3    H240520   4.557   5.577   7.289  0.7477 -0.0067  0.1258
 6321TIP3   OH240521   0.084   6.232   2.028  0.5362 -0.0847 -0.2167
 6321TIP3    H140522   0.094   6.152   2.080  1.4098  0.5368  0.6157
 6321TIP3    H240523   0.165   6.236   1.976 -0.8687 -1.4116 -2.7535
 6322TIP3   OH240524   6.143   6.319   7.765  0.3571  0.8871  0.8830
 6322TIP3    H140525   6.149   6.223   7.765  0.0449  0.8461 -0.3527
 6322TIP3    H240526   6.077   6.339   7.831  0.8805  0.3002  1.6074
 6323TIP3   OH240527   3.775   2.136   0.044  0.1341 -0.0541  0.2682
 6323TIP3    H140528   3.781   2.191  -0.034  2.4431  0.8868  1.0444
 6323TIP3    H240529   3.766   2.047   0.009  1.2759  0.3233 -1.1050
 6324TIP3   OH240530   0.525   2.356   1.867 -1.2098 -0.6417 -0.4232
 6324TIP3    H140531   0.573   2.422   1.817  0.0876 -0.8925  0.4525
 6324TIP3    H240532   0.537   2.381   1.958 -4.0772  0.1629 -0.1625
 6325TIP3   OH240533   2.769   6.221   7.940  0.5544 -0.1042  0.0354
 6325TIP3    H140534   2.720   6.140   7.926  0.9136 -0.2828 -0.2034
 6325TIP3    H240535   2.824   6.202   8.017  0.0727  0.1819  0.4616
 6326TIP3   OH240536   0.375   2.878   7.261  0.2917  0.2801 -0.0280
 6326TIP3    H140537   0.365   2.816   7.189  0.5396  1.7711 -1.4178
 6326TIP3    H240538   0.289   2.920   7.269  0.0153 -0.4671  1.1506
 6327TIP3   OH240539   6.733   3.905   0.025 -0.1103 -0.0488 -0.5236
 6327TIP3    H140540   6.797   3.943   0.085 -0.1632 -1.4706  0.4561
 6327TIP3    H240541   6.773   3.915  -0.061 -0.4049  2.8014 -0.4314
 6328TIP3   OH240542   3.457   4.592   1.516 -0.3357  0.0070 -0.1484
 6328TIP3    H140543   3.501   4.524   1.566 -1.9419 -0.1188  1.1587
 6328TIP3    H240544   3.487   4.674   1.554 -0.7172 -0.0590  0.2945
 6329TIP3   OH240545   5.006   3.493   1.112 -0.2885 -0.5956 -0.0056
 6329TIP3    H140546   5.014   3.398   1.101 -1.9342 -0.8856  1.0110
 6329TIP3    H240547   4.993   3.505   1.207 -1.1157  0.5517 -0.2411
 6330TIP3   OH240548   2.497   4.864   7.671  0.3684  0.2102 -0.1324
 6330TIP3    H140549   2.460   4.949   7.696 -0.5430 -0.3624  0.5267
 6330TIP3    H240550   2.525   4.825   7.754  2.2549  0.5080 -0.5866
 6331TIP3   OH240551   6.676   6.266   2.184  0.2513 -0.0907 -0.2856
 6331TIP3    H140552   6.650   6.353   2.151  2.3478  0.4504 -0.6396
 6331TIP3    H240553   6.605   6.242   2.244 -1.1427  1.1756 -1.3272
 6332TIP3   OH240554   3.429   3.901   6.531  0.5420  0.4686 -0.0230
 6332TIP3    H140555   3.399   3.816   6.500  1.9803 -0.0326 -0.1156
 6332TIP3    H240556   3.474   3.939   6.456 -0.0878  1.3199  0.0200
 6333TIP3   OH240557   4.413   4.504   7.682  0.0589 -0.2973  0.9359
 6333TIP3    H140558   4.411   4.408   7.678 -0.2678 -0.2735  0.4645
 6333TIP3    H240559   4.325   4.530   7.709 -0.2311 -0.0832 -0.1787
 6334TIP3   OH240560   3.728   1.404   8.251  0.2198  0.3222 -0.5265
 6334TIP3    H140561   3.706   1.318   8.289  1.0412  0.1633 -0.3865
 6334TIP3    H240562   3.773   1.450   8.322  0.5553  0.5392 -0.8779
 6335TIP3   OH240563   3.705   4.123   1.139  0.1589 -0.3856  0.3708
 6335TIP3    H140564   3.638   4.174   1.184  1.5277  0.0528  1.9765
 6335TIP3    H240565   3.676   4.121   1.048 -1.5483  0.5750  0.8574
 6336TIP3   OH240566   2.989   1.507   7.678 -0.1501  0.3770  0.4175
 6336TIP3    H140567   2.950   1.472   7.758 -0.1684 -1.1278 -0.2201
 6336TIP3    H240568   2.915   1.546   7.631 -0.1186  1.3935  1.1538
 6337TIP3   OH240569   2.855   2.370   1.314  0.2300 -0.3098  0.2028
 6337TIP3    H140570   2.766   2.388   1.284 -0.8862 -1.9407  2.2725
 6337TIP3    H240571   2.874   2.440   1.377  0.1962 -0.2640  0.1624
 6338TIP3   OH240572   1.495   1.566   2.082  0.7109 -0.2083 -0.7461
 6338TIP3    H140573   1.496   1.644   2.137 -0.6625  1.5729 -3.0941
 6338TIP3    H240574   1.446   1.501   2.134 -2.0160  1.9298 -0.4142
 6339TIP3   OH240575   3.075   0.547   0.614  0.4632 -0.4194  0.5770
 6339TIP3    H140576   3.106   0.581   0.697 -1.0299 -0.5759  1.2304
 6339TIP3    H240577   3.141   0.574   0.550  0.4278  1.7839  1.4100
 6340TIP3   OH240578   4.332   4.928   0.335 -0.0544  0.3553  0.6599
 6340TIP3    H140579   4.237   4.933   0.345 -0.2524 -0.0440 -0.8766
 6340TIP3    H240580   4.356   5.007   0.287  0.0764 -0.5855 -0.9008
 6341TIP3   OH240581   3.544   3.377   6.781  0.4721  0.4046  0.2925
 6341TIP3    H140582   3.631   3.361   6.816  1.2197  0.0423 -1.6294
 6341TIP3    H240583   3.500   3.292   6.784  0.1737  0.5727  1.1902
 6342TIP3   OH240584   5.047   5.208   2.023  0.1677 -0.3811  0.0378
 6342TIP3    H140585   5.015   5.254   2.101 -0.8128  0.1245 -0.6388
 6342TIP3    H240586   5.022   5.117   2.037 -1.7317  0.0234 -0.5302
 6343TIP3   OH240587   2.627   3.514   0.456  0.2094 -0.1487 -0.7590
 6343TIP3    H140588   2.675   3.586   0.414 -1.7489  0.7516 -1.5965
 6343TIP3    H240589   2.534   3.537   0.445 -0.5057 -2.7305 -0.9341
 6344TIP3   OH240590   3.117   1.938   1.051  0.0557  0.0665 -0.7294
 6344TIP3    H140591   3.210   1.929   1.034 -0.1083  0.7561 -2.1002
 6344TIP3    H240592   3.095   2.026   1.019 -1.1779 -0.2945 -0.9247
 6345TIP3   OH240593   2.234   3.062   1.476 -0.1328  0.3742  0.1072
 6345TIP3    H140594   2.167   3.107   1.425  0.4436  0.0836 -0.9260
 6345TIP3    H240595   2.266   3.129   1.537 -0.1426  1.0213 -0.5796
 6346TIP3   OH240596   4.774   3.785   1.189  0.0378 -0.6224 -0.3497
 6346TIP3    H140597   4.833   3.800   1.116 -0.7547  2.9715 -0.4800
 6346TIP3    H240598   4.690   3.763   1.149  0.1626 -0.9532 -0.4238
 6347TIP3   OH240599   6.269   5.110   1.621 -0.3344 -0.3485 -0.1919
 6347TIP3    H140600   6.298   5.201   1.627 -1.8684  0.2793 -1.5924
 6347TIP3    H240601   6.284   5.086   1.530 -2.0532 -0.7125 -0.4137
 6348TIP3   OH240602   3.217   2.574   1.290 -0.3712 -0.3781  0.3700
 6348TIP3    H140603   3.280   2.546   1.356 -0.7471 -0.4977  0.6796
 6348TIP3    H240604   3.191   2.662   1.316  0.8989  0.3358 -0.6683
 6349TIP3   OH240605   3.175   1.029   6.706 -0.2150  0.1087 -0.4532
 6349TIP3    H140606   3.119   0.952   6.718  1.7659 -1.5691 -1.3704
 6349TIP3    H240607   3.186   1.035   6.611  1.0760  0.4472 -0.2862
 6350TIP3   OH240608   5.173   2.674   6.213 -0.1515  0.1480  0.1804
 6350TIP3    H140609   5.202   2.639   6.129  0.6783  1.9985 -0.3499
 6350TIP3    H240610   5.161   2.596   6.268  1.2501 -0.9811 -1.0143
 6351TIP3   OH240611   3.930   6.041   8.135  0.3227 -0.4146 -0.0026
 6351TIP3    H140612   3.839   6.019   8.120  0.6473 -1.5779 -0.4063
 6351TIP3    H240613   3.949   6.112   8.074 -0.3496 -0.0365  0.2191
 6352TIP3   OH240614   4.526   1.847   7.485 -0.2111  0.1498  0.2222
 6352TIP3    H140615   4.497   1.868   7.397 -1.6387 -2.9414 -0.1706
 6352TIP3    H240616   4.617   1.818   7.474 -0.3045  0.0140 -0.2013
 6353TIP3   OH240617   2.176   5.324   6.945 -0.0470 -0.1549  0.1196
 6353TIP3    H140618   2.213   5.389   7.005 -1.2132  0.0887  0.6118
 6353TIP3    H240619   2.195   5.240   6.987 -1.5598  0.0468  1.2982
 6354TIP3   OH240620   4.721   2.834   6.350  0.3261 -0.2070 -0.4457
 6354TIP3    H140621   4.765   2.863   6.270 -0.4680  2.0034 -0.1633
 6354TIP3    H240622   4.768   2.880   6.420 -0.5550 -0.1448  0.1135
 6355TIP3   OH240623   1.537   5.737   0.613  0.1231 -0.0548  0.5106
 6355TIP3    H140624   1.465   5.788   0.577 -1.1971 -1.6583  0.7752
 6355TIP3    H240625   1.520   5.734   0.707  0.3680 -0.6875  0.5422
 6356TIP3   OH240626   5.906   1.287   2.112 -0.3629  0.0199 -0.4408
 6356TIP3    H140627   5.956   1.368   2.115  0.5352 -0.4401  4.0541
 6356TIP3    H240628   5.971   1.218   2.102 -0.7091 -0.3380 -0.2753
 6357TIP3   OH240629   4.600   3.721   7.865  0.1083  0.8022 -0.1705
 6357TIP3    H140630   4.541   3.646   7.875  0.0867  0.8412  0.0057
 6357TIP3    H240631   4.675   3.700   7.921  0.0490  0.9639 -0.0285
 6358TIP3   OH240632   5.597   2.284   6.460  0.8672  0.1634 -0.3179
 6358TIP3    H140633   5.567   2.195   6.441  1.1961  0.1930 -0.9817
 6358TIP3    H240634   5.569   2.336   6.385 -0.5837  0.9208  0.7137
 6359TIP3   OH240635   5.178   2.969   7.593 -0.4342  0.1024  0.2382
 6359TIP3    H140636   5.246   2.915   7.632  0.0027  1.0664  0.8517
 6359TIP3    H240637   5.157   3.034   7.661 -1.7732 -0.0095 -0.0379
 6360TIP3   OH240638   4.248   1.857   6.146 -0.0808 -0.1842  0.1196
 6360TIP3    H140639   4.264   1.780   6.201 -0.5017  0.8605  1.7807
 6360TIP3    H240640   4.336   1.893   6.130  0.1908 -1.3755 -1.3003
 6361TIP3   OH240641   1.943   1.016   1.226 -0.3744  0.1645 -0.1052
 6361TIP3    H140642   1.921   1.053   1.312  1.5544  2.3856 -0.4490
 6361TIP3    H240643   1.996   1.084   1.184  2.2075 -2.4164 -1.4260
 6362TIP3   OH240644   1.144   0.979   7.588  0.2878  0.5390  0.2664
 6362TIP3    H140645   1.194   1.060   7.576 -1.8204  1.6860 -1.5555
 6362TIP3    H240646   1.145   0.937   7.502 -0.4015 -0.2793  0.6423
 6363TIP3   OH240647   3.174   3.876   7.252 -0.3618  0.1636 -0.8489
 6363TIP3    H140648   3.080   3.871   7.235 -0.2383  0.7208 -1.7286
 6363TIP3    H240649   3.192   3.799   7.306 -1.6511  1.0831  0.9641
 6364TIP3   OH240650   1.777   6.888   0.736  0.4720  0.4085 -0.3839
 6364TIP3    H140651   1.829   6.890   0.817  0.3515  1.3019 -0.3167
 6364TIP3    H240652   1.820   6.823   0.681  0.6094 -0.1412  0.3641
 6365TIP3   OH240653   2.980   3.847   1.606  0.4866  0.3115 -0.1844
 6365TIP3    H140654   3.058   3.820   1.655  0.0771  0.1306  0.3896
 6365TIP3    H240655   2.940   3.916   1.660  0.4056  0.6100 -0.6177
 6366TIP3   OH240656   5.672   0.028   7.626 -0.5424 -0.2707  0.6993
 6366TIP3    H140657   5.608  -0.016   7.570 -0.1506 -1.0243  0.8309
 6366TIP3    H240658   5.654   0.121   7.614 -0.6514 -0.4222 -0.4796
 6367TIP3   OH240659   5.919   3.029   2.294 -0.0653 -0.0385  0.1248
 6367TIP3    H140660   5.921   3.008   2.201  0.3291  1.1776 -0.1597
 6367TIP3    H240661   5.951   2.950   2.338 -0.9313 -0.8728 -0.7116
 6368TIP3   OH240662   6.211   6.270   0.558 -0.4170 -0.1436 -0.3893
 6368TIP3    H140663   6.243   6.307   0.475  1.8113 -0.3756  0.3141
 6368TIP3    H240664   6.164   6.190   0.531  0.4264 -0.3201 -1.4343
 6369TIP3   OH240665   1.943   0.336   8.163  0.3552  0.1371  0.6763
 6369TIP3    H140666   1.867   0.279   8.162 -0.3369  1.0008  1.6953
 6369TIP3    H240667   2.010   0.288   8.115 -1.4906  0.3360 -2.3352
 6370TIP3   OH240668   5.560   5.994   8.141 -0.2286 -0.3974  0.5595
 6370TIP3    H140669   5.546   6.027   8.052 -2.3427 -2.0510  0.1813
 6370TIP3    H240670   5.579   6.072   8.193 -2.2425  1.0842 -0.7561
 6371TIP3   OH240671   5.137   1.780   0.413 -0.2280  0.2306  0.0324
 6371TIP3    H140672   5.108   1.738   0.494  0.4174  1.7221  1.0729
 6371TIP3    H240673   5.116   1.873   0.424  2.7055  1.0292 -0.1268
 6372TIP3   OH240674   0.145   6.833   7.210  0.1900 -0.0576 -0.1413
 6372TIP3    H140675   0.201   6.890   7.157  0.1546 -0.7176 -0.9134
 6372TIP3    H240676   0.073   6.810   7.152  0.7106 -1.6721 -0.2060
 6373TIP3   OH240677   1.736   1.896   0.924  0.0653 -0.4221 -0.5672
 6373TIP3    H140678   1.828   1.918   0.907 -0.0382 -0.8507 -1.8000
 6373TIP3    H240679   1.732   1.880   1.018  1.2666 -0.4588 -0.5061
 6374TIP3   OH240680   4.458   5.963   1.643  0.0339  0.6255  0.9414
 6374TIP3    H140681   4.417   5.876   1.648  0.3420  0.4766  0.9238
 6374TIP3    H240682   4.399   6.013   1.586  0.5187  0.0365 -0.1142
 6375TIP3   OH240683   6.112   4.396   2.589 -0.3647 -0.1471 -0.2533
 6375TIP3    H140684   6.113   4.315   2.538 -3.2068  1.1625 -2.6489
 6375TIP3    H240685   6.026   4.397   2.631  0.2198  0.9557  0.9748
 6376TIP3   OH240686   1.083   5.064   1.442 -0.6626  0.3159  0.1328
 6376TIP3    H140687   1.148   5.008   1.485  0.2133  1.2537  0.0794
 6376TIP3    H240688   1.025   5.003   1.397 -2.3681 -0.8246  3.5404
 6377TIP3   OH240689   6.044   0.944   0.492 -0.5997  0.2094  0.1020
 6377TIP3    H140690   5.976   0.992   0.445 -1.0842 -1.1134 -0.5861
 6377TIP3    H240691   6.068   0.872   0.434 -0.3309 -0.7539  1.3484
 6378TIP3   OH240692   6.140   4.032   1.390 -0.1269  0.1548 -0.1621
 6378TIP3    H140693   6.184   4.087   1.454  0.7026 -1.1283  0.4171
 6378TIP3    H240694   6.092   4.093   1.334  1.6390  1.5628 -0.2350
 6379TIP3   OH240695   3.237   3.088   0.423  0.5000  0.4056 -0.4442
 6379TIP3    H140696   3.274   3.030   0.357 -0.0350 -0.1972 -0.2277
 6379TIP3    H240697   3.164   3.132   0.378 -0.4187 -0.6444 -0.0419
 6380TIP3   OH240698   4.422   4.965   8.227 -0.2032 -0.2584 -0.1584
 6380TIP3    H140699   4.455   5.047   8.190  0.4340 -0.2434  0.4167
 6380TIP3    H240700   4.501   4.918   8.254 -0.5848 -0.8862 -0.1220
 6381TIP3   OH240701   4.467   0.864   8.242  0.1732  0.2671  0.5974
 6381TIP3    H140702   4.515   0.915   8.177  0.6887 -0.7813  0.1283
 6381TIP3    H240703   4.534   0.835   8.304 -0.2818  1.0804  1.4885
 6382TIP3   OH240704   5.466   3.657   1.870  0.0483  0.1357 -0.2290
 6382TIP3    H140705   5.481   3.573   1.826 -2.5486  0.5378 -2.1157
 6382TIP3    H240706   5.418   3.634   1.950 -0.9864 -0.2036 -0.9240
 6383TIP3   OH240707   6.457   4.358   6.414  0.6649  0.6140 -0.3075
 6383TIP3    H140708   6.532   4.359   6.354  0.7770  0.1910 -0.1755
 6383TIP3    H240709   6.441   4.265   6.430 -0.2509  0.6814 -0.7880
 6384TIP3   OH240710   1.572   5.148   7.342  0.0069  0.1813  0.1120
 6384TIP3    H140711   1.571   5.124   7.250  1.4710  0.0265  0.1106
 6384TIP3    H240712   1.658   5.118   7.374 -0.2751  0.6664  1.4022
 6385TIP3   OH240713   4.274   3.309   1.140  0.2009 -0.2650  0.0764
 6385TIP3    H140714   4.244   3.218   1.153  0.6046 -0.2424  1.3667
 6385TIP3    H240715   4.342   3.321   1.206 -0.3042  1.1817  0.3789
 6386TIP3   OH240716   5.230   3.610   6.536  0.1798  0.9959  0.0345
 6386TIP3    H140717   5.315   3.593   6.496 -0.1628 -0.7050 -0.0590
 6386TIP3    H240718   5.183   3.663   6.472 -0.0457 -0.9544 -1.5113
 6387TIP3   OH240719   4.875   3.457   2.182  0.4290 -0.5281  0.1548
 6387TIP3    H140720   4.873   3.414   2.096 -1.5528 -0.5148  0.1488
 6387TIP3    H240721   4.787   3.445   2.217  1.2362 -0.6581  2.2828
 6388TIP3   OH240722   0.387   6.620   0.047  0.2592  0.0006  0.2176
 6388TIP3    H140723   0.331   6.597   0.120 -1.4659 -2.1527 -1.6227
 6388TIP3    H240724   0.375   6.715   0.036 -1.1592 -0.0153  1.3302
 6389TIP3   OH240725   1.464   4.101   1.981  0.3267 -0.2180  0.1903
 6389TIP3    H140726   1.512   4.184   1.980  0.3864 -0.1987 -2.5273
 6389TIP3    H240727   1.384   4.119   1.931  0.2736 -1.7614 -0.3214
 6390TIP3   OH240728   3.205   2.423   7.688  0.4652 -0.0528  0.3789
 6390TIP3    H140729   3.211   2.442   7.594  0.1476  0.0195  0.3723
 6390TIP3    H240730   3.244   2.336   7.697  1.2085  0.2700  0.2952
 6391TIP3   OH240731   2.186   5.237   6.389 -0.3490  0.6338  1.2557
 6391TIP3    H140732   2.190   5.291   6.311 -1.5899 -1.1851 -0.1729
 6391TIP3    H240733   2.271   5.192   6.391 -1.1394 -1.1110 -0.5270
 6392TIP3   OH240734   0.116   6.145   8.206 -0.1043  0.0635  0.0844
 6392TIP3    H140735   0.041   6.094   8.238 -0.5450 -0.0979 -1.1641
 6392TIP3    H240736   0.180   6.080   8.181  0.4979  0.2034  1.1851
 6393TIP3   OH240737   0.092   1.394   0.774 -0.0628 -0.2424  0.5305
 6393TIP3    H140738   0.187   1.387   0.786 -0.2163 -0.9908  1.4086
 6393TIP3    H240739   0.070   1.481   0.808  0.2338 -0.2733  0.8069
 6394TIP3   OH240740   1.550   1.797   7.809 -0.1182 -0.1111  0.3795
 6394TIP3    H140741   1.595   1.743   7.744 -1.4350 -1.0359  0.1928
 6394TIP3    H240742   1.565   1.887   7.779 -0.2189 -0.4940 -0.8967
 6395TIP3   OH240743   4.652   4.948   0.216  0.2707 -0.7637 -0.6292
 6395TIP3    H140744   4.581   5.010   0.233  0.7502  0.4944 -2.7519
 6395TIP3    H240745   4.685   4.923   0.302 -1.1129  0.5620  0.3181
 6396TIP3   OH240746   5.317   2.103   7.748  0.4437  0.0690 -0.2023
 6396TIP3    H140747   5.257   2.174   7.724  3.5446  2.7798 -0.6388
 6396TIP3    H240748   5.302   2.036   7.681 -0.7674  1.4925 -1.4356
 6397TIP3   OH240749   1.888   6.024   8.025 -0.5456 -0.1580  0.0086
 6397TIP3    H140750   1.881   6.106   8.073 -0.2478 -0.9351  1.4582
 6397TIP3    H240751   1.849   5.959   8.084 -0.5037 -1.0996 -0.9755
 6398TIP3   OH240752   1.579   1.328   7.462 -0.5777 -0.2825 -0.0314
 6398TIP3    H140753   1.574   1.234   7.479  4.2389 -0.6654  0.6487
 6398TIP3    H240754   1.511   1.367   7.517 -0.2187 -3.1507  2.7111
 6399TIP3   OH240755   6.803   5.180   1.754  0.3599 -0.1473 -1.2293
 6399TIP3    H140756   6.761   5.143   1.676 -1.1092  1.0802 -1.0587
 6399TIP3    H240757   6.734   5.181   1.821  0.9666  0.8700 -0.5888
 6400TIP3   OH240758   1.513   2.512   1.239  0.1650  0.4675  0.4136
 6400TIP3    H140759   1.431   2.508   1.190 -0.6980  1.8656  1.6462
 6400TIP3    H240760   1.577   2.548   1.178 -0.0864 -0.7014 -0.5786
 6401TIP3   OH240761   3.620   1.876   6.759  0.4362 -0.8395 -0.2796
 6401TIP3    H140762   3.645   1.963   6.791  0.2219 -1.2531  1.0641
 6401TIP3    H240763   3.580   1.893   6.674 -0.7783  0.5358  0.5148
 6402TIP3   OH240764   6.483   3.206   7.845  0.1118 -0.3941  0.2432
 6402TIP3    H140765   6.442   3.161   7.920  1.2256 -0.3813  0.8852
 6402TIP3    H240766   6.411   3.253   7.803 -0.5437 -0.4111  1.3020
 6403TIP3   OH240767   1.848   0.156   8.405  0.2971  0.2921 -0.2096
 6403TIP3    H140768   1.833   0.145   8.311 -0.3549 -1.7365  0.0740
 6403TIP3    H240769   1.803   0.081   8.445  2.0199  0.1311  1.5801
 6404TIP3   OH240770   2.153   0.484   1.243  0.0768  0.5128 -0.0722
 6404TIP3    H140771   2.170   0.543   1.169 -1.6515  1.6325  0.3827
 6404TIP3    H240772   2.123   0.541   1.313  0.3139 -0.7055  1.0588
 6405TIP3   OH240773   0.812   1.425   6.577 -0.0520  0.2359 -0.7195
 6405TIP3    H140774   0.859   1.401   6.498  0.4952 -1.2328  0.0240
 6405TIP3    H240775   0.870   1.488   6.621  0.4574 -0.2904 -0.6275
 6406TIP3   OH240776   4.967   3.000   7.817 -0.0053  0.6852  0.6193
 6406TIP3    H140777   4.943   3.092   7.802 -1.8456  0.2259  0.5047
 6406TIP3    H240778   4.920   2.952   7.748 -0.9935 -0.5433  2.0763
 6407TIP3   OH240779   0.209   3.297   1.039  0.2236 -0.7607 -0.3059
 6407TIP3    H140780   0.289   3.288   0.987  0.0855 -0.6601 -0.5392
 6407TIP3    H240781   0.169   3.379   1.008  0.9247  0.1270  1.0545
 6408TIP3   OH240782   6.537   4.861   0.356 -0.2516  0.1670 -0.4521
 6408TIP3    H140783   6.501   4.903   0.434 -0.0821  0.6999 -0.6561
 6408TIP3    H240784   6.616   4.816   0.387 -0.0085  0.6423 -0.3759
 6409TIP3   OH240785   2.541   2.091   8.338  0.2905  0.3821  0.0891
 6409TIP3    H140786   2.451   2.089   8.305  0.0495  2.0349  0.5513
 6409TIP3    H240787   2.565   1.999   8.347 -1.8646 -0.1486  1.3164
 6410TIP3   OH240788   1.201   2.122   0.520 -0.0774 -0.1757 -0.9893
 6410TIP3    H140789   1.250   2.143   0.441  2.7749 -0.3568  0.6130
 6410TIP3    H240790   1.177   2.030   0.510 -1.4987  0.3209 -2.4594
 6411TIP3   OH240791   0.793   3.524   7.850  0.6324 -0.0519  0.6281
 6411TIP3    H140792   0.841   3.600   7.816 -0.6845  0.3663 -0.3619
 6411TIP3    H240793   0.709   3.560   7.877 -0.2077 -1.2173 -0.3437
 6412TIP3   OH240794   1.455   1.934   8.060  0.3022  0.6397  0.3877
 6412TIP3    H140795   1.505   1.899   8.134 -0.3775 -1.6205 -0.1354
 6412TIP3    H240796   1.493   1.892   7.983 -1.4328 -0.0437 -0.1441
 6413TIP3   OH240797   1.817   6.435   2.371  0.3089 -0.1714 -0.0248
 6413TIP3    H140798   1.794   6.365   2.310  0.8574 -0.4467  0.0829
 6413TIP3    H240799   1.854   6.503   2.315 -0.9818  0.3941 -0.2373
 6414TIP3   OH240800   4.912   0.112   0.530 -0.1318 -0.3429  0.1869
 6414TIP3    H140801   4.847   0.178   0.504 -1.6030 -1.4813  0.8442
 6414TIP3    H240802   4.885   0.032   0.485  0.1387 -1.1178  1.3560
 6415TIP3   OH240803   3.690   3.237   0.492  0.0940 -0.3867 -0.2435
 6415TIP3    H140804   3.764   3.185   0.462  0.3135 -1.1158  1.4678
 6415TIP3    H240805   3.725   3.291   0.562 -0.6406  0.4592 -0.5039
 6416TIP3   OH240806   6.454   0.168   0.407 -0.1394 -0.1227 -0.1251
 6416TIP3    H140807   6.472   0.188   0.315 -0.9311 -2.3629 -0.8210
 6416TIP3    H240808   6.383   0.228   0.431  0.1133  0.5172 -0.9480
 6417TIP3   OH240809   2.994   4.298   8.031 -0.2664 -0.4703  0.2259
 6417TIP3    H140810   3.035   4.219   7.996  1.7027  1.6027 -2.6167
 6417TIP3    H240811   2.904   4.295   7.997 -0.2587 -1.5427  0.2643
 6418TIP3   OH240812   1.231   3.878   1.370  0.1482 -0.2005  0.3942
 6418TIP3    H140813   1.218   3.783   1.369 -0.9239 -0.0891 -1.3206
 6418TIP3    H240814   1.251   3.901   1.279 -1.9941  1.4675  0.2499
 6419TIP3   OH240815   1.972   6.814   7.153 -0.5222 -0.2761  0.2594
 6419TIP3    H140816   2.064   6.788   7.146 -0.7609 -1.0879  0.0288
 6419TIP3    H240817   1.975   6.909   7.166  0.3745 -0.3831  0.9795
 6420TIP3   OH240818   3.647   3.382   1.196  0.4171  0.6626  0.4155
 6420TIP3    H140819   3.554   3.397   1.214  0.4286  2.0591 -0.5143
 6420TIP3    H240820   3.683   3.350   1.279 -1.2938 -2.0698  0.1816
 6421TIP3   OH240821   6.745   1.001   7.939  0.1124  0.4894 -0.0952
 6421TIP3    H140822   6.813   1.037   7.996  0.7787 -0.3617 -0.3315
 6421TIP3    H240823   6.793   0.967   7.863 -0.6485  0.5194 -0.5934
 6422TIP3   OH240824   6.733   6.433   8.351 -0.4527  0.0084  0.1932
 6422TIP3    H140825   6.649   6.445   8.395  0.0781 -2.4532  2.1194
 6422TIP3    H240826   6.795   6.483   8.404 -0.5467  1.2820 -0.8472
 6423TIP3   OH240827   3.063   0.495   7.973 -0.0005  0.4356 -0.0111
 6423TIP3    H140828   2.994   0.512   7.909  0.7308  1.1033 -0.6446
 6423TIP3    H240829   3.125   0.440   7.927  0.1144  0.2141  0.4089
 6424TIP3   OH240830   6.368   6.464   7.816  0.1692  0.0743 -0.3718
 6424TIP3    H140831   6.288   6.419   7.842 -0.8389  0.7966 -2.0626
 6424TIP3    H240832   6.344   6.556   7.811  1.8140  0.6805  1.5754
 6425TIP3   OH240833   6.351   3.006   6.327  0.3115  0.0079  0.0884
 6425TIP3    H140834   6.285   3.072   6.306 -2.0438 -0.6740  4.2240
 6425TIP3    H240835   6.432   3.056   6.339 -1.1528  2.1393  2.0327
 6426TIP3   OH240836   3.521   0.015   7.688  0.6178  0.1194 -0.3006
 6426TIP3    H140837   3.440   0.065   7.699  2.3550  2.6632  2.8003
 6426TIP3    H240838   3.531   0.006   7.594 -3.2836 -0.4981 -0.8164
 6427TIP3   OH240839   4.875   2.403   0.691 -0.3558  0.4399 -0.0276
 6427TIP3    H140840   4.790   2.447   0.680 -0.4273  0.8291  1.6773
 6427TIP3    H240841   4.900   2.424   0.781  1.6614  0.4979 -0.5668
 6428TIP3   OH240842   1.404   5.438   8.468  0.2449 -0.6762  0.6846
 6428TIP3    H140843   1.348   5.479   8.534 -0.3350 -0.7546  0.2545
 6428TIP3    H240844   1.413   5.348   8.497  0.4201 -0.5801  0.9298
 6429TIP3   OH240845   5.868   1.429   1.490 -0.2615  0.0680 -0.0111
 6429TIP3    H140846   5.907   1.439   1.576  0.0603 -0.5777 -0.0736
 6429TIP3    H240847   5.869   1.335   1.474 -0.2465  0.1849 -0.7512
 6430TIP3   OH240848   3.032   0.317   1.768  0.2243  0.4265 -0.7487
 6430TIP3    H140849   3.098   0.342   1.704  0.7461  0.1196 -0.3376
 6430TIP3    H240850   3.075   0.327   1.853 -0.3359  0.4652 -0.4605
 6431TIP3   OH240851   2.942   4.989   1.224  0.3000  0.2927 -0.0390
 6431TIP3    H140852   2.975   5.063   1.274 -2.4154  0.0883  2.3519
 6431TIP3    H240853   2.847   5.000   1.226 -0.1529 -2.7428 -0.3638
 6432TIP3   OH240854   1.268   1.260   7.456 -0.0557 -0.5632  0.2154
 6432TIP3    H140855   1.187   1.262   7.506 -0.3450 -0.7989 -0.2288
 6432TIP3    H240856   1.336   1.286   7.518 -0.5578  0.3118  0.4203
 6433TIP3   OH240857   4.893   3.511   6.873 -0.3794 -0.1937 -0.3313
 6433TIP3    H140858   4.831   3.556   6.931  0.6712  1.5201 -0.4697
 6433TIP3    H240859   4.967   3.489   6.929 -1.1978 -2.5798 -0.0810
 6434TIP3   OH240860   6.231   3.677   1.159  0.2295  0.1959 -0.0499
 6434TIP3    H140861   6.303   3.616   1.176  0.8969  1.0923  0.4175
 6434TIP3    H240862   6.268   3.763   1.174 -0.3782  0.8213 -1.8126
 6435TIP3   OH240863   0.292   2.557   1.828 -0.6207  0.4219 -0.5220
 6435TIP3    H140864   0.385   2.578   1.824 -0.4181  0.0282  1.2656
 6435TIP3    H240865   0.282   2.509   1.910 -1.8385 -2.4755 -2.1963
 6436TIP3   OH240866   5.121   6.110   7.920  0.3418 -0.5244 -0.4645
 6436TIP3    H140867   5.200   6.143   7.878  0.8478 -0.2154  0.6917
 6436TIP3    H240868   5.148   6.026   7.959  0.5939  0.3430  1.3506
 6437TIP3   OH240869   3.093   3.573   1.589 -0.1816  0.0640 -0.0790
 6437TIP3    H140870   3.144   3.565   1.670  0.7135  2.3036 -0.3724
 6437TIP3    H240871   3.012   3.525   1.608  0.3597 -0.1894  1.8230
 6438TIP3   OH240872   2.172   2.850   0.122  0.2545 -0.4567 -0.5050
 6438TIP3    H140873   2.190   2.783   0.056  3.5294 -1.8259  1.5649
 6438TIP3    H240874   2.176   2.804   0.206 -0.0764  1.8634  0.8882
 6439TIP3   OH240875   1.303   6.161   7.864  0.3283 -0.1170  0.0484
 6439TIP3    H140876   1.334   6.250   7.879 -0.7666  0.1874  0.5834
 6439TIP3    H240877   1.381   6.113   7.837  1.3394  0.5497  1.6341
 6440TIP3   OH240878   1.413   6.400   1.845 -0.2521  0.0146  0.1558
 6440TIP3    H140879   1.461   6.464   1.897 -0.9145 -0.9300  2.0425
 6440TIP3    H240880   1.337   6.448   1.811 -0.0640  0.5409  0.4726
 6441TIP3   OH240881   1.562   4.858   6.691  0.7602  0.2220 -0.3683
 6441TIP3    H140882   1.550   4.827   6.601 -1.4089  1.7508 -0.6963
 6441TIP3    H240883   1.650   4.895   6.692  1.9372 -2.2784 -1.0041
 6442TIP3   OH240884   6.209   5.011   7.050 -0.7774  0.1217 -0.1278
 6442TIP3    H140885   6.259   4.930   7.044  0.1952  0.5549  1.6289
 6442TIP3    H240886   6.204   5.042   6.959  1.6445 -0.2427 -0.4560
 6443TIP3   OH240887   2.511   6.063   7.273  0.7863 -0.1923  0.2709
 6443TIP3    H140888   2.456   6.084   7.198  1.1249 -1.3183 -0.3088
 6443TIP3    H240889   2.600   6.063   7.239  0.7698 -3.7326 -0.1438
 6444TIP3   OH240890   3.083   2.075   1.733 -0.4008 -0.1049  0.1787
 6444TIP3    H140891   2.992   2.070   1.704 -0.7205  1.9925  0.7106
 6444TIP3    H240892   3.113   2.161   1.704  1.9661 -1.3597 -1.4092
 6445TIP3   OH240893   0.914   5.764   0.431  0.2465  0.0742 -0.1997
 6445TIP3    H140894   0.936   5.852   0.401 -1.9069  0.2493 -1.4515
 6445TIP3    H240895   0.858   5.729   0.363 -1.1931 -1.2295  1.5623
 6446TIP3   OH240896   5.541   1.599   0.724 -0.2205  0.7336  0.4436
 6446TIP3    H140897   5.503   1.542   0.657 -0.6904  1.2492  0.2608
 6446TIP3    H240898   5.573   1.539   0.792  1.9342  0.0807 -1.0425
 6447TIP3   OH240899   5.831   4.720   8.400  0.6655 -0.5410 -0.8241
 6447TIP3    H140900   5.850   4.813   8.409  1.0564 -0.5825 -1.2258
 6447TIP3    H240901   5.749   4.708   8.449  0.0587  0.2119 -1.6047
 6448TIP3   OH240902   2.533   6.852   7.558 -0.0766 -0.1485  0.2781
 6448TIP3    H140903   2.442   6.862   7.527 -0.1388 -1.6327 -0.1003
 6448TIP3    H240904   2.585   6.849   7.478  0.1272 -0.8345  0.4313
 6449TIP3   OH240905   4.347   5.559   1.430 -0.2040  0.1987 -0.0431
 6449TIP3    H140906   4.281   5.618   1.394 -1.6677 -0.3444  1.6627
 6449TIP3    H240907   4.327   5.474   1.393 -1.7227 -0.3652  1.9346
 6450TIP3   OH240908   4.570   3.676   1.582  0.3825 -0.0648  0.3943
 6450TIP3    H140909   4.490   3.695   1.533  0.7493  1.2167  0.2588
 6450TIP3    H240910   4.590   3.758   1.628  1.4187 -0.4747  0.7037
 6451TIP3   OH240911   0.494   0.137   7.927 -0.3721  0.1770 -0.0507
 6451TIP3    H140912   0.454   0.224   7.938 -2.7102 -0.5577 -1.8725
 6451TIP3    H240913   0.472   0.090   8.007  0.7921  1.1884  0.8913
 6452TIP3   OH240914   0.975   5.725   1.407  0.2398 -0.9142  0.5545
 6452TIP3    H140915   0.987   5.750   1.498 -0.8280  0.6320  0.3109
 6452TIP3    H240916   0.914   5.651   1.410  0.1009 -0.7815  1.0912
 6453TIP3   OH240917   5.874   3.032   0.083 -0.3878  0.8882  0.1653
 6453TIP3    H140918   5.858   3.110   0.029 -0.6741  1.4408  1.0295
 6453TIP3    H240919   5.912   3.067   0.164 -0.0091  0.0766  0.3438
 6454TIP3   OH240920   2.358   0.942   8.413 -0.2480 -0.3171 -0.2672
 6454TIP3    H140921   2.377   0.980   8.327  3.0180 -1.0311  0.0066
 6454TIP3    H240922   2.376   0.849   8.403  2.2507 -0.1387  1.5950
 6455TIP3   OH240923   6.826   4.954   0.216 -0.3071 -0.1602 -0.1307
 6455TIP3    H140924   6.891   4.905   0.265 -0.4786 -2.7828 -2.2705
 6455TIP3    H240925   6.844   4.932   0.124 -1.8319  2.0866 -1.0494
 6456TIP3   OH240926   2.999   3.608   1.320  0.5142  1.0799 -0.4922
 6456TIP3    H140927   3.027   3.605   1.412  1.1400  0.4523 -0.6935
 6456TIP3    H240928   2.925   3.668   1.320  0.2658  0.8043  0.4967
 6457TIP3   OH240929   0.287   3.684   1.427 -0.4727  0.0873 -0.3866
 6457TIP3    H140930   0.369   3.639   1.407 -0.5479  0.2937 -1.1796
 6457TIP3    H240931   0.266   3.657   1.516  1.7532  1.9042  0.8237
 6458TIP3   OH240932   6.023   0.231   1.804  0.4021 -0.8281 -0.1634
 6458TIP3    H140933   5.965   0.157   1.820 -0.6475 -0.1759 -0.8074
 6458TIP3    H240934   6.070   0.245   1.886 -0.4500 -1.2973  0.4070
 6459TIP3   OH240935   1.784   0.461   1.249  0.0154 -0.6989  0.5989
 6459TIP3    H140936   1.838   0.505   1.184  1.0684 -0.0171  1.8891
 6459TIP3    H240937   1.772   0.372   1.215 -1.2825  0.2181 -1.5473
 6460TIP3   OH240938   2.801   5.715   8.403 -0.2733  0.2010 -0.3844
 6460TIP3    H140939   2.721   5.679   8.441 -0.6053 -0.4030 -1.6188
 6460TIP3    H240940   2.798   5.690   8.311  2.6068 -2.0903  0.0116
 6461TIP3   OH240941   1.428   5.811   6.249  0.6043 -0.0435  0.0870
 6461TIP3    H140942   1.373   5.889   6.236  0.4293 -0.4172 -1.7812
 6461TIP3    H240943   1.375   5.739   6.214  1.8990 -0.5456 -0.9156
 6462TIP3   OH240944   1.348   4.091   6.196  0.2540  0.1456  0.3360
 6462TIP3    H140945   1.354   4.161   6.261  0.5075  0.4202  0.0216
 6462TIP3    H240946   1.329   4.136   6.114  0.5930 -0.1383  0.1000
 6463TIP3   OH240947   2.737   4.323   7.871  0.7347 -0.9301 -0.5412
 6463TIP3    H140948   2.676   4.250   7.856 -0.1872 -0.3970  0.4667
 6463TIP3    H240949   2.788   4.328   7.790 -1.5366 -0.4906 -2.0652
 6464TIP3   OH240950   1.256   0.670   1.246  0.0105  0.1689 -0.3726
 6464TIP3    H140951   1.194   0.599   1.261 -0.4970  0.4317 -1.1829
 6464TIP3    H240952   1.342   0.630   1.262 -0.3569 -0.1737  0.8304
 6465TIP3   OH240953   1.970   4.342   0.600 -0.1234 -0.0092 -0.1021
 6465TIP3    H140954   2.004   4.260   0.563  0.5727  0.7415 -1.1898
 6465TIP3    H240955   1.987   4.335   0.694  1.5113 -0.3996 -0.3967
 6466TIP3   OH240956   6.379   5.284   8.079  0.1024 -0.7283 -0.1778
 6466TIP3    H140957   6.391   5.191   8.097  0.2284 -0.3700  1.8414
 6466TIP3    H240958   6.459   5.311   8.033  0.2922 -1.4843 -0.3026
 6467TIP3   OH240959   6.822   5.822   7.803 -0.8301 -0.2307  1.1143
 6467TIP3    H140960   6.915   5.837   7.817  0.0096 -3.2910 -0.4527
 6467TIP3    H240961   6.811   5.828   7.708 -1.5165 -2.9545  0.9423
 6468TIP3   OH240962   5.690   6.818   7.355 -0.4454 -0.0363  0.6160
 6468TIP3    H140963   5.678   6.908   7.385  0.2239 -0.4829  2.3639
 6468TIP3    H240964   5.649   6.816   7.268  0.5012  2.2145  0.0501
 6469TIP3   OH240965   2.832   2.876   7.939  0.4113  0.1152  0.1518
 6469TIP3    H140966   2.840   2.897   7.845 -0.5958 -1.4109 -0.3085
 6469TIP3    H240967   2.749   2.831   7.946  1.3133 -1.4338  1.4873
 6470TIP3   OH240968   5.505   6.206   8.328 -0.6909 -0.5048 -0.5171
 6470TIP3    H140969   5.509   6.272   8.397  1.8082  0.0561 -1.0831
 6470TIP3    H240970   5.436   6.236   8.270 -0.3756  1.0206 -0.1626
 6471TIP3   OH240971   4.664   5.531   0.000 -0.3829 -0.0514  0.1783
 6471TIP3    H140972   4.633   5.619  -0.022  2.6903  0.7538 -1.3983
 6471TIP3    H240973   4.703   5.498  -0.080 -1.1718 -2.8172  0.8070
 6472TIP3   OH240974   6.592   3.357   6.044 -0.1052  0.0516  1.1096
 6472TIP3    H140975   6.623   3.268   6.031  1.6523  0.7997 -0.3423
 6472TIP3    H240976   6.503   3.347   6.078 -0.7880 -2.2700 -0.9883
 6473TIP3   OH240977   6.655   0.593   7.182  0.1435 -0.0519  0.2787
 6473TIP3    H140978   6.740   0.637   7.187  0.0304  0.1087  0.8551
 6473TIP3    H240979   6.594   0.652   7.225 -0.5453  0.4804 -1.3460
 6474TIP3   OH240980   5.925   2.351   1.359 -0.2360  0.0832  0.0431
 6474TIP3    H140981   5.909   2.262   1.390  0.9927 -0.8752 -1.8918
 6474TIP3    H240982   5.837   2.386   1.343 -0.7361 -0.8824  0.5580
 6475TIP3   OH240983   4.251   1.854   7.602  0.3063  0.1579  0.4721
 6475TIP3    H140984   4.343   1.871   7.581  0.2506 -0.8143 -0.6574
 6475TIP3    H240985   4.227   1.780   7.546 -1.2176  0.5069  0.6239
 6476TIP3   OH240986   3.297   2.930   1.172 -0.2874  0.2578 -0.4765
 6476TIP3    H140987   3.335   2.869   1.235 -1.6151 -0.6527 -0.5206
 6476TIP3    H240988   3.334   3.015   1.195  2.6400 -0.6959 -1.2120
 6477TIP3   OH240989   1.704   5.892   7.520 -0.3291 -0.7110  0.0338
 6477TIP3    H140990   1.617   5.890   7.559 -0.4341 -0.1033 -0.1549
 6477TIP3    H240991   1.689   5.924   7.431  0.0295 -1.0926 -0.1673
 6478TIP3   OH240992   4.780   4.638   8.318 -0.9065 -0.8634  0.0807
 6478TIP3    H140993   4.725   4.642   8.396 -2.0869 -0.8712 -0.7323
 6478TIP3    H240994   4.720   4.614   8.248 -0.2043  0.8492 -1.1662
 6479TIP3   OH240995   2.662   0.357   1.188 -0.1671  0.5055  0.3693
 6479TIP3    H140996   2.576   0.398   1.188  0.2432  1.4856  2.1560
 6479TIP3    H240997   2.691   0.362   1.280  1.5079 -0.3817 -0.0675
 6480TIP3   OH240998   3.273   2.538   6.807 -0.4936 -0.3921 -0.1927
 6480TIP3    H140999   3.275   2.633   6.817 -0.0096 -0.1791 -1.9787
 6480TIP3    H241000   3.210   2.522   6.737 -0.8301 -1.4283  0.3221
 6481TIP3   OH241001   3.206   6.737   1.526  0.2168 -0.4264 -0.0938
 6481TIP3    H141002   3.169   6.767   1.443  1.4967 -0.5545 -0.7309
 6481TIP3    H241003   3.203   6.641   1.520  1.2222 -0.4484 -0.4362
 6482TIP3   OH241004   3.209   4.642   8.441  0.2204 -0.1027  0.2921
 6482TIP3    H141005   3.190   4.660   8.349  2.1216 -0.9466 -0.3009
 6482TIP3    H241006   3.274   4.572   8.439  2.4021  1.7055  2.1766
 6483TIP3   OH241007   3.952   0.551   0.422  0.2871  0.0759  0.6269
 6483TIP3    H141008   4.002   0.534   0.342  0.3551 -1.0888  0.9045
 6483TIP3    H241009   3.874   0.496   0.414 -0.1314  0.6102  0.9685
 6484TIP3   OH241010   4.205   5.260   0.505  0.1354  0.5766  1.0640
 6484TIP3    H141011   4.134   5.255   0.568  0.4791  0.1183  1.4267
 6484TIP3    H241012   4.271   5.199   0.539 -0.3734 -1.0105 -0.6033
 6485TIP3   OH241013   6.011   4.270   1.622 -0.1488 -0.3886 -0.2280
 6485TIP3    H141014   6.006   4.361   1.650  1.1640 -0.3811  0.0413
 6485TIP3    H241015   6.019   4.275   1.526  2.5062 -0.0501 -0.0630
 6486TIP3   OH241016   2.046   5.136   0.281  0.1056  0.2100  0.7736
 6486TIP3    H141017   2.016   5.078   0.211 -0.0971  1.3392 -0.1037
 6486TIP3    H241018   2.119   5.090   0.322 -0.9740 -1.3087  1.0644
 6487TIP3   OH241019   0.627   3.638   7.253 -0.3249 -0.2434  0.0714
 6487TIP3    H141020   0.647   3.544   7.259 -0.6396 -0.3393 -0.3001
 6487TIP3    H241021   0.660   3.663   7.167 -2.4850 -0.5956 -0.9342
 6488TIP3   OH241022   4.931   4.839   1.899  0.0705  0.6088 -0.3634
 6488TIP3    H141023   4.866   4.903   1.929 -1.0750 -0.3147 -0.7969
 6488TIP3    H241024   4.890   4.798   1.823  1.8291  1.0766 -1.6196
 6489TIP3   OH241025   1.788   0.623   6.533 -0.4461 -0.2764 -0.2464
 6489TIP3    H141026   1.850   0.565   6.579 -1.4101 -1.5758 -0.5208
 6489TIP3    H241027   1.711   0.568   6.518 -0.5216  0.3605 -2.6169
 6490TIP3   OH241028   3.405   3.258   6.516  0.1109 -0.0695 -0.0097
 6490TIP3    H141029   3.433   3.231   6.604 -2.7567 -0.2175  0.9620
 6490TIP3    H241030   3.466   3.214   6.457  1.4960 -0.8051  1.8579
 6491TIP3   OH241031   2.313   3.249   1.694  0.4140  0.0197  0.0619
 6491TIP3    H141032   2.368   3.313   1.739 -0.5887  2.1010 -1.5036
 6491TIP3    H241033   2.238   3.236   1.753  1.3949 -1.0271  1.1231
 6492TIP3   OH241034   0.327   4.137   8.346  0.0496  0.1696 -0.3450
 6492TIP3    H141035   0.329   4.167   8.254 -1.0068 -0.4561 -0.5865
 6492TIP3    H241036   0.405   4.176   8.385 -0.4114  1.9164 -1.0613
 6493TIP3   OH241037   4.789   0.994   0.431  0.1041 -0.2597  1.1246
 6493TIP3    H141038   4.859   0.980   0.494  0.4393  1.5962  1.2305
 6493TIP3    H241039   4.833   0.997   0.346  0.0420 -0.0138  1.0991
 6494TIP3   OH241040   0.743   3.874   1.144  0.9469 -0.2748 -0.1925
 6494TIP3    H141041   0.726   3.905   1.055  3.3221  0.4836 -0.4541
 6494TIP3    H241042   0.673   3.913   1.196  0.0988  0.1041 -1.5676
 6495TIP3   OH241043   1.196   5.218   1.848  0.6588 -0.2063 -0.2352
 6495TIP3    H141044   1.200   5.131   1.808 -0.2841  0.0104 -0.8508
 6495TIP3    H241045   1.156   5.203   1.934  0.6330 -0.3986 -0.2809
 6496TIP3   OH241046   2.974   6.644   7.209  0.4824 -0.2355  0.0701
 6496TIP3    H141047   3.030   6.673   7.281 -0.2622 -0.3211  0.6978
 6496TIP3    H241048   3.009   6.688   7.132 -0.2760  1.9336  0.8924
 6497TIP3   OH241049   1.584   0.626   1.912 -0.3023 -0.2762  0.3815
 6497TIP3    H141050   1.622   0.657   1.994  0.4522  1.9144 -0.7186
 6497TIP3    H241051   1.657   0.624   1.851 -1.0527 -0.8236 -0.5208
 6498TIP3   OH241052   2.440   0.920   7.106 -0.2239 -0.2881  0.3525
 6498TIP3    H141053   2.357   0.933   7.061  0.4021  0.0691 -0.7443
 6498TIP3    H241054   2.432   0.834   7.148 -0.5600 -0.9816 -1.0924
 6499TIP3   OH241055   4.002   0.073   7.694  0.1600  0.1648 -0.0809
 6499TIP3    H141056   3.976   0.162   7.718 -0.9272 -0.0947 -0.2467
 6499TIP3    H241057   4.005   0.074   7.598  0.7377  0.1720 -0.0692
 6500TIP3   OH241058   1.202   1.944   7.206  0.3978  0.0708 -0.5520
 6500TIP3    H141059   1.164   1.872   7.158 -0.2302 -0.3812  0.5853
 6500TIP3    H241060   1.291   1.915   7.228 -0.3689 -1.0616  1.2687
 6501TIP3   OH241061   2.898   1.618   8.295  0.0009 -0.6735  0.0909
 6501TIP3    H141062   2.878   1.636   8.203  0.1530 -1.8761 -0.2042
 6501TIP3    H241063   2.981   1.570   8.292 -0.0004 -0.7305  0.8555
 6502TIP3   OH241064   1.002   3.661   1.460 -0.0187 -0.5238 -0.5501
 6502TIP3    H141065   1.072   3.598   1.480 -2.2317 -2.5634  1.4391
 6502TIP3    H241066   0.995   3.659   1.365  0.5042 -2.8088 -0.6014
 6503TIP3   OH241067   2.850   6.702   1.539 -0.1519  0.1261  0.5204
 6503TIP3    H141068   2.832   6.793   1.516 -1.0051  0.1864  1.3793
 6503TIP3    H241069   2.867   6.659   1.455  0.6492  1.1455  0.1338
 6504TIP3   OH241070   1.397   5.416   7.310  0.0064 -0.1361 -0.0764
 6504TIP3    H141071   1.398   5.329   7.269 -0.6135  0.1053 -0.6215
 6504TIP3    H241072   1.490   5.436   7.324  0.3889  0.4351 -2.8525
 6505TIP3   OH241073   6.674   6.335   7.717 -0.0356  0.3812  0.1837
 6505TIP3    H141074   6.724   6.347   7.798 -1.0400  3.6044  0.4892
 6505TIP3    H241075   6.593   6.293   7.744  0.9345 -1.5809  0.2426
 6506TIP3   OH241076   6.022   5.294   7.362 -0.3016  0.3143 -0.0528
 6506TIP3    H141077   6.095   5.246   7.323  0.7666  0.9516  1.0636
 6506TIP3    H241078   6.062   5.374   7.397 -1.5121  0.6228  0.6980
 6507TIP3   OH241079   5.196   5.040   7.705 -0.2575 -0.1701 -0.6646
 6507TIP3    H141080   5.235   5.007   7.786 -1.4352  0.7410  0.3088
 6507TIP3    H241081   5.140   4.968   7.675 -0.3333 -0.2639 -0.3061
 6508TIP3   OH241082   1.924   5.673   8.227  0.6233  0.2983 -0.2827
 6508TIP3    H141083   1.846   5.706   8.272 -1.2904 -1.0549 -2.4130
 6508TIP3    H241084   1.980   5.641   8.298 -1.2199  0.3318  1.2824
 6509TIP3   OH241085   3.361   1.517   2.433  0.2416  0.1113 -0.2901
 6509TIP3    H141086   3.427   1.449   2.449 -0.4092 -0.6782 -0.8581
 6509TIP3    H241087   3.384   1.552   2.347 -0.7042 -0.9572 -1.0187
 6510TIP3   OH241088   3.360   0.122   0.674 -0.3322 -0.1074 -0.6538
 6510TIP3    H141089   3.346   0.053   0.610  0.8419  0.5190 -1.6388
 6510TIP3    H241090   3.422   0.181   0.632 -0.1087  0.7262  0.7779
 6511TIP3   OH241091   4.000   6.357   0.971  0.6006 -0.4341 -0.0808
 6511TIP3    H141092   3.960   6.430   0.925 -0.0828 -0.1075  0.9899
 6511TIP3    H241093   4.029   6.393   1.055  0.3237 -1.3597  0.4351
 6512TIP3   OH241094   0.298   1.353   1.808 -0.1145  0.0669  0.1429
 6512TIP3    H141095   0.308   1.265   1.842 -0.2055 -0.3264 -0.8006
 6512TIP3    H241096   0.290   1.408   1.885 -0.1161 -0.7565  0.7441
 6513TIP3   OH241097   2.645   5.227   0.298 -0.4154  0.0398 -0.2913
 6513TIP3    H141098   2.737   5.253   0.300 -0.7764  1.3699  1.8852
 6513TIP3    H241099   2.646   5.137   0.264  1.6300  0.1349 -0.5896
 6514TIP3   OH241100   1.726   1.044   1.027 -0.0606 -0.3338 -0.3210
 6514TIP3    H141101   1.763   1.042   1.115 -0.2802  0.7777 -0.1809
 6514TIP3    H241102   1.756   1.128   0.991  0.9081 -1.2470 -1.7068
 6515TIP3   OH241103   3.055   2.268   8.133 -0.7618  0.5932  0.4551
 6515TIP3    H141104   3.089   2.195   8.185  0.5493  0.8532  0.0040
 6515TIP3    H241105   3.016   2.327   8.197  1.1369  1.0774  1.2474
 6516TIP3   OH241106   0.220   4.022   0.573  0.0227 -0.0180  0.1491
 6516TIP3    H141107   0.308   4.021   0.610 -0.2211  0.7789  0.7925
 6516TIP3    H241108   0.220   3.951   0.509  1.5394  0.8465 -0.8543
 6517TIP3   OH241109   6.172   2.288   7.487 -0.7135 -0.1725 -0.2634
 6517TIP3    H141110   6.105   2.224   7.463 -1.7145  0.6728  0.1702
 6517TIP3    H241111   6.123   2.370   7.500  0.1859  0.1258  1.5535
 6518TIP3   OH241112   4.637   3.641   0.657  0.4765  0.1664 -0.2724
 6518TIP3    H141113   4.553   3.603   0.682 -0.5954  2.2181 -0.5686
 6518TIP3    H241114   4.679   3.574   0.604 -0.4121 -1.3757  0.8836
 6519TIP3   OH241115   1.850   2.098   7.619 -0.1794 -0.0315 -0.2122
 6519TIP3    H141116   1.910   2.062   7.684 -1.7101 -0.8294  0.8072
 6519TIP3    H241117   1.770   2.116   7.667 -0.6560  1.4414 -1.4483
 6520TIP3   OH241118   0.706   2.302   6.811 -0.2902  0.9297 -0.0961
 6520TIP3    H141119   0.793   2.328   6.780 -0.4799  0.2722 -1.2450
 6520TIP3    H241120   0.646   2.357   6.760 -0.5518  1.6151  0.9272
 6521TIP3   OH241121   4.844   0.821   6.363 -0.2010  0.7194 -0.0178
 6521TIP3    H141122   4.836   0.743   6.418 -0.9224 -0.4291 -1.6855
 6521TIP3    H241123   4.939   0.832   6.351 -0.1025 -0.5443 -0.6053
 6522TIP3   OH241124   6.336   2.007   7.850 -0.0391  0.0684 -0.1607
 6522TIP3    H141125   6.419   2.053   7.857 -0.7422  1.3230  0.1816
 6522TIP3    H241126   6.309   2.021   7.759  0.1042 -0.3266 -0.2678
 6523TIP3   OH241127   4.507   5.930   7.408 -0.1300  0.1918 -0.4717
 6523TIP3    H141128   4.477   6.021   7.418  1.3370  0.5216  1.7405
 6523TIP3    H241129   4.558   5.930   7.328  0.0258  1.3910 -0.3982
 6524TIP3   OH241130   5.583   4.347   0.120  0.0097 -0.1844 -0.3441
 6524TIP3    H141131   5.662   4.294   0.111 -0.1241 -0.3056 -0.8543
 6524TIP3    H241132   5.548   4.323   0.205 -0.1952 -1.1300 -0.6820
 6525TIP3   OH241133   1.050   6.798   2.162  0.0611  0.4614  0.0332
 6525TIP3    H141134   1.000   6.731   2.209 -0.6297  0.7765 -0.2417
 6525TIP3    H241135   1.141   6.773   2.175 -0.1076  0.6456  1.6747
 6526TIP3   OH241136   4.004   1.421   7.534  0.5214 -0.1877  0.8143
 6526TIP3    H141137   4.088   1.390   7.499  0.9469  0.8980  0.8531
 6526TIP3    H241138   3.940   1.394   7.468  0.8159 -1.4257  0.9988
 6527TIP3   OH241139   4.550   2.048   6.612  0.3647 -0.4435 -0.6324
 6527TIP3    H141140   4.561   1.970   6.667 -0.5537  0.0318  0.2689
 6527TIP3    H241141   4.529   2.014   6.525 -2.2788 -1.2379  0.2375
 6528TIP3   OH241142   1.119   5.899   8.263  0.6639 -0.1698 -0.4504
 6528TIP3    H141143   1.202   5.861   8.234  2.4154  2.5776  0.6481
 6528TIP3    H241144   1.134   5.924   8.354 -1.0313  1.3618 -0.5354
 6529TIP3   OH241145   4.370   6.755   0.479 -0.3254  0.1217  0.0707
 6529TIP3    H141146   4.294   6.810   0.498  0.9997  2.4068 -0.8493
 6529TIP3    H241147   4.382   6.763   0.385 -0.2287 -2.0606 -0.1538
 6530TIP3   OH241148   1.350   2.056   1.355  0.2490  0.0602  0.3940
 6530TIP3    H141149   1.419   2.067   1.290  0.4243  0.0961  0.5828
 6530TIP3    H241150   1.350   2.138   1.404  0.0484  0.0728  0.3716
 6531TIP3   OH241151   3.737   1.161   7.596 -0.3219  0.0281  0.2141
 6531TIP3    H141152   3.654   1.161   7.548 -0.2935 -2.0144  0.0717
 6531TIP3    H241153   3.723   1.224   7.667 -0.9068  1.9380 -1.4978
 6532TIP3   OH241154   5.123   5.396   6.352  0.2826 -0.2503 -0.5473
 6532TIP3    H141155   5.143   5.303   6.340  1.9326 -0.2768  1.8113
 6532TIP3    H241156   5.028   5.399   6.363 -0.1400 -1.2833 -3.0878
 6533TIP3   OH241157   6.180   2.292   8.402  0.1156 -0.5267  0.1960
 6533TIP3    H141158   6.169   2.247   8.319  0.3406  1.0829 -0.7550
 6533TIP3    H241159   6.241   2.237   8.452  3.9481  0.7288 -2.6012
 6534TIP3   OH241160   2.773   2.324   6.711 -0.3700 -0.3743 -0.1111
 6534TIP3    H141161   2.829   2.290   6.641 -1.0818 -1.0911 -0.3433
 6534TIP3    H241162   2.689   2.341   6.669 -0.5338  0.0775  0.3788
 6535TIP3   OH241163   6.380   2.915   1.036  0.3192  0.0710  0.0702
 6535TIP3    H141164   6.309   2.962   1.079  1.5506  1.1423  0.9872
 6535TIP3    H241165   6.448   2.906   1.102  1.3172 -0.3441 -0.9661
 6536TIP3   OH241166   4.912   4.402   0.426  0.3194 -0.6287  0.8869
 6536TIP3    H141167   4.828   4.442   0.400  0.9295 -0.0781 -0.2890
 6536TIP3    H241168   4.945   4.460   0.495  2.3110  2.4883 -2.3256
 6537TIP3   OH241169   1.321   2.464   8.162  0.5818  0.4028 -0.1033
 6537TIP3    H141170   1.267   2.542   8.177  0.4343  0.3748 -0.4804
 6537TIP3    H241171   1.258   2.395   8.143  0.7936  0.7467 -2.2829
 6538TIP3   OH241172   4.371   0.773   1.814  0.2525  0.1731  0.1092
 6538TIP3    H141173   4.377   0.782   1.719 -0.6110  0.9211  0.1110
 6538TIP3    H241174   4.306   0.839   1.840 -0.1642 -0.6152  1.1197
 6539TIP3   OH241175   5.198   2.939   8.546 -0.0723  0.0388 -0.1246
 6539TIP3    H141176   5.246   2.857   8.532 -0.0935  0.2624 -1.6653
 6539TIP3    H241177   5.179   2.971   8.458 -1.9160  0.6355  0.4525
 6540TIP3   OH241178   3.947   4.192   6.797  0.2230 -0.0293 -0.4271
 6540TIP3    H141179   4.008   4.262   6.775  1.1654 -0.2364  1.3860
 6540TIP3    H241180   3.989   4.112   6.767  0.9251 -0.1843  0.9326
 6541TIP3   OH241181   6.261   2.045   0.942  0.3240 -0.6957  0.0877
 6541TIP3    H141182   6.217   2.099   1.008  1.3541 -0.2965  0.4675
 6541TIP3    H241183   6.278   2.105   0.870 -0.3734 -1.0205 -0.3597
 6542TIP3   OH241184   1.249   2.284   1.839  0.0272 -0.5913  0.1828
 6542TIP3    H141185   1.305   2.226   1.786  1.0805  0.7333 -0.2115
 6542TIP3    H241186   1.304   2.309   1.913 -1.3557 -2.2207  1.8460
 6543TIP3   OH241187   1.008   2.352   0.422 -0.2061  0.1978  0.6954
 6543TIP3    H141188   0.961   2.330   0.502  1.7245 -0.2342  1.7862
 6543TIP3    H241189   1.024   2.268   0.379 -0.9150  0.3934  0.0436
 6544TIP3   OH241190   1.902   0.351   1.467  1.0578 -0.0988 -0.3219
 6544TIP3    H141191   1.846   0.361   1.390 -0.4117 -0.9453  0.5774
 6544TIP3    H241192   1.857   0.399   1.536  1.4534 -0.7776  0.4272
 6545TIP3   OH241193   3.507   2.777   1.380 -0.2295 -0.0020 -0.0625
 6545TIP3    H141194   3.567   2.846   1.407 -0.8712  0.8781 -0.8242
 6545TIP3    H241195   3.445   2.769   1.452 -0.1040  0.1461  0.0633
 6546TIP3   OH241196   5.619   3.258   7.583  0.1823  0.4504  0.2089
 6546TIP3    H141197   5.640   3.283   7.493  0.9578 -1.7879 -0.2877
 6546TIP3    H241198   5.703   3.245   7.626 -0.1786  0.4255  0.9332
 6547TIP3   OH241199   5.097   3.360   7.624  0.0842  0.2931 -0.3364
 6547TIP3    H141200   5.107   3.411   7.705 -1.3377  2.6222 -1.4996
 6547TIP3    H241201   5.182   3.319   7.611  1.8328  3.4072  0.1099
 6548TIP3   OH241202   1.067   0.857   2.384  0.3936  0.2164 -0.0141
 6548TIP3    H141203   1.148   0.900   2.413  0.2064  0.2170  0.5126
 6548TIP3    H241204   1.018   0.927   2.340 -1.3666  1.5224  3.5764
 6549TIP3   OH241205   0.214   3.806   7.924  0.5726 -0.2379  0.3749
 6549TIP3    H141206   0.193   3.886   7.877 -0.5501 -1.5023 -1.4002
 6549TIP3    H241207   0.273   3.759   7.866  0.7310 -0.9804  1.1193
 6550TIP3   OH241208   1.206   4.829   7.429  0.3820  0.1194  0.2848
 6550TIP3    H141209   1.265   4.756   7.445 -0.2119 -0.2368  0.9312
 6550TIP3    H241210   1.240   4.871   7.350  0.5202 -1.0919 -0.3357
 6551TIP3   OH241211   2.642   4.136   0.092  0.4654  0.5688 -0.0444
 6551TIP3    H141212   2.723   4.092   0.065 -0.4958 -1.0509 -0.4051
 6551TIP3    H241213   2.612   4.087   0.169 -0.2878  1.0164 -0.0383
 6552TIP3   OH241214   3.044   1.838   0.759  0.4770  1.1164 -0.0051
 6552TIP3    H141215   3.132   1.805   0.775 -0.2324 -1.1403 -0.3636
 6552TIP3    H241216   2.991   1.800   0.830 -1.1070 -2.0285 -2.5688
 6553TIP3   OH241217   2.396   4.371   8.060 -0.5407  1.1292 -0.6456
 6553TIP3    H141218   2.439   4.329   7.985  0.0520  1.4952 -0.5185
 6553TIP3    H241219   2.309   4.330   8.064  0.0073 -0.0724 -0.5260
 6554TIP3   OH241220   3.386   0.557   8.131  0.1351  0.4215  0.2915
 6554TIP3    H141221   3.387   0.645   8.166 -0.2647  0.7251 -0.4384
 6554TIP3    H241222   3.474   0.544   8.095  0.6023  0.0418  1.5426
 6555TIP3   OH241223   0.898   2.665   7.150 -0.7771  0.0325 -0.5762
 6555TIP3    H141224   0.922   2.757   7.146 -0.7379  0.0117 -0.8928
 6555TIP3    H241225   0.832   2.660   7.219  0.4212  0.0153  0.5956
 6556TIP3   OH241226   6.643   0.700   2.414 -0.4465 -0.2327  0.2965
 6556TIP3    H141227   6.720   0.665   2.458  0.3807 -2.2710 -2.5180
 6556TIP3    H241228   6.577   0.631   2.423 -0.1497 -0.8577 -1.7690
 6557TIP3   OH241229   1.567   3.545   6.901  0.2187  0.8388 -0.3358
 6557TIP3    H141230   1.483   3.516   6.938  0.4409  2.4143  1.6084
 6557TIP3    H241231   1.630   3.532   6.972  1.4986  0.4278 -1.4960
 6558TIP3   OH241232   0.178   5.890   0.808  0.0801 -0.5846 -0.2475
 6558TIP3    H141233   0.237   5.909   0.881 -0.5572 -0.3190  0.2112
 6558TIP3    H241234   0.234   5.848   0.742  0.7891 -0.2750  0.1437
 6559TIP3   OH241235   2.044   6.449   8.004 -0.1646 -0.0809 -0.4484
 6559TIP3    H141236   1.980   6.395   7.958 -0.7310  0.8425 -0.7760
 6559TIP3    H241237   2.004   6.536   8.008  0.5276  0.2104  0.4692
 6560TIP3   OH241238   2.204   2.862   1.825 -0.4421  0.3990 -0.1114
 6560TIP3    H141239   2.162   2.932   1.876 -0.8732 -0.4029  0.6477
 6560TIP3    H241240   2.228   2.796   1.889 -1.9983 -1.1408 -1.0483
 6561TIP3   OH241241   6.766   0.043   6.828 -0.0895 -0.6751 -0.0495
 6561TIP3    H141242   6.805   0.062   6.743 -2.0687 -2.3993 -1.4250
 6561TIP3    H241243   6.753   0.129   6.868  1.3169  0.1410 -1.2483
 6562TIP3   OH241244   5.948   6.801   7.706 -0.1301  0.5029  0.0921
 6562TIP3    H141245   5.876   6.843   7.659  0.7407  1.6884 -0.2359
 6562TIP3    H241246   5.906   6.747   7.773 -1.3085  1.5212  0.1915
 6563TIP3   OH241247   2.880   5.388   7.309 -0.1802 -0.2000 -0.4719
 6563TIP3    H141248   2.957   5.365   7.361 -3.0999  0.5521  4.8531
 6563TIP3    H241249   2.815   5.321   7.330 -2.7416  2.2052 -0.0712
 6564TIP3   OH241250   5.680   4.214   7.121 -0.1827 -0.2993 -0.5297
 6564TIP3    H141251   5.709   4.305   7.118  1.0421 -0.6886 -1.1356
 6564TIP3    H241252   5.692   4.182   7.031 -0.2641 -1.1582 -0.2427
 6565TIP3   OH241253   4.064   3.505   0.671 -0.6451 -0.0424 -0.0528
 6565TIP3    H141254   4.106   3.423   0.700 -0.5252 -0.1221 -0.4472
 6565TIP3    H241255   4.136   3.567   0.663 -0.7938  0.2330  0.6833
 6566TIP3   OH241256   0.159   4.049   7.835  0.0167  0.0332 -0.0882
 6566TIP3    H141257   0.234   4.108   7.829 -0.6756  1.1335  1.3833
 6566TIP3    H241258   0.087   4.098   7.795 -0.1069 -0.6885 -0.7685
 6567TIP3   OH241259   1.760   0.904   0.253 -0.1014  0.1397  0.0764
 6567TIP3    H141260   1.794   0.948   0.175  0.3346  2.5805  1.5375
 6567TIP3    H241261   1.693   0.963   0.287 -0.3384 -0.8969  1.5139
 6568TIP3   OH241262   1.789   2.099   0.592  0.6787  0.6082  0.3456
 6568TIP3    H141263   1.695   2.085   0.603  0.6043  1.9005  1.7258
 6568TIP3    H241264   1.808   2.176   0.647  2.4785  0.5656 -0.1629
 6569TIP3   OH241265   0.258   4.733   0.038  0.5213 -0.2582 -0.1516
 6569TIP3    H141266   0.310   4.666   0.082  0.8028 -0.0177 -0.1155
 6569TIP3    H241267   0.216   4.686  -0.035 -0.4312 -0.7973  0.7059
 6570TIP3   OH241268   5.253   3.403   0.883  0.5836  0.5009 -1.1712
 6570TIP3    H141269   5.305   3.332   0.844 -0.2966 -0.2652 -0.9831
 6570TIP3    H241270   5.214   3.364   0.961 -1.4644  0.5956 -2.0996
 6571TIP3   OH241271   3.708   5.597   7.053  0.0233  0.1024  0.5133
 6571TIP3    H141272   3.698   5.599   6.957 -0.1904 -1.7560  0.4446
 6571TIP3    H241273   3.640   5.536   7.081  0.3009  0.3893  1.8342
 6572TIP3   OH241274   5.579   5.110   8.113 -0.2587 -0.4092 -0.0291
 6572TIP3    H141275   5.598   5.166   8.189  0.8425  0.8677 -1.1962
 6572TIP3    H241276   5.623   5.028   8.132 -1.3528 -0.7070  1.4245
 6573TIP3   OH241277   5.346   4.104   8.001  0.6118 -0.1109 -0.8676
 6573TIP3    H141278   5.379   4.098   8.091  0.3133 -1.4065 -0.8218
 6573TIP3    H241279   5.251   4.102   8.011  0.5763 -0.0268 -1.2009
 6574TIP3   OH241280   6.489   4.278   2.113  0.4545 -0.0194  0.4684
 6574TIP3    H141281   6.515   4.246   2.200 -1.4208 -0.0196  1.0607
 6574TIP3    H241282   6.469   4.370   2.127  2.0301  0.5045 -0.4195
 6575TIP3   OH241283   4.710   4.517   5.893 -0.5368  0.2765  0.3954
 6575TIP3    H141284   4.616   4.533   5.895 -0.9247 -1.6960  0.1557
 6575TIP3    H241285   4.721   4.434   5.940  1.1783  0.7965  1.0012
 6576TIP3   OH241286   4.648   6.754   1.760  0.5647 -0.5574  0.0478
 6576TIP3    H141287   4.621   6.797   1.679 -0.2858 -1.8523 -0.3889
 6576TIP3    H241288   4.711   6.688   1.732 -0.8533 -2.0491  0.1978
 6577TIP3   OH241289   6.792   5.239   7.694 -0.8630  0.0229  0.1521
 6577TIP3    H141290   6.854   5.275   7.757 -1.3055 -0.1804  0.7165
 6577TIP3    H241291   6.834   5.252   7.609 -1.2379  2.4116  0.2506
 6578TIP3   OH241292   0.523   5.414   8.052  0.3572  0.1943  0.5351
 6578TIP3    H141293   0.575   5.419   7.971 -2.2545  0.8447 -1.2327
 6578TIP3    H241294   0.586   5.388   8.119  3.1867  2.0731 -1.1690
 6579TIP3   OH241295   3.500   2.378   8.188 -0.3522  0.2878 -0.2603
 6579TIP3    H141296   3.491   2.440   8.115 -2.8544 -0.9394 -1.1071
 6579TIP3    H241297   3.442   2.413   8.256  0.7230  0.5453  0.5573
 6580TIP3   OH241298   3.038   5.771   1.591 -0.4680  0.6444 -0.1162
 6580TIP3    H141299   2.961   5.773   1.649  1.0114  0.9074  1.9679
 6580TIP3    H241300   3.112   5.758   1.651  1.1271  0.3902 -2.0509
 6581TIP3   OH241301   4.200   5.501   8.197  0.5637 -0.7454  0.1483
 6581TIP3    H141302   4.173   5.539   8.114  2.4950  3.0111  1.0319
 6581TIP3    H241303   4.275   5.444   8.174 -0.4255 -1.6920 -0.8679
 6582TIP3   OH241304   1.404   3.914   0.441  0.5635  0.3613  0.5391
 6582TIP3    H141305   1.402   3.954   0.354  0.4240  0.9433  0.8082
 6582TIP3    H241306   1.474   3.849   0.436  0.6222  0.4650  0.0226
 6583TIP3   OH241307   0.571   4.221   0.125 -0.3664  0.2638  0.2815
 6583TIP3    H141308   0.587   4.250   0.036 -1.5097  0.8981  0.2611
 6583TIP3    H241309   0.621   4.282   0.180 -0.8560  0.8306  0.1210
 6584TIP3   OH241310   2.219   1.513   7.410  0.5874 -0.1834 -0.6464
 6584TIP3    H141311   2.283   1.545   7.346 -1.9485  1.1667 -2.7183
 6584TIP3    H241312   2.177   1.593   7.443 -1.9946 -1.0413 -1.6178
 6585TIP3   OH241313   3.932   2.506   7.879 -0.1794 -0.1421  0.2127
 6585TIP3    H141314   4.019   2.466   7.878 -0.6379 -1.1799 -0.1569
 6585TIP3    H241315   3.933   2.565   7.954  0.8559 -0.0989  0.1814
 6586TIP3   OH241316   0.241   3.564   1.000 -0.4506  1.0909  0.5484
 6586TIP3    H141317   0.224   3.615   1.079  2.7046  0.0192  2.0816
 6586TIP3    H241318   0.337   3.562   0.993 -0.5797 -0.9835 -1.8754
 6587TIP3   OH241319   3.657   4.592   0.903 -0.1551 -0.1217  0.1423
 6587TIP3    H141320   3.665   4.648   0.979 -0.3894  0.9696 -0.6147
 6587TIP3    H241321   3.719   4.628   0.840 -1.4718  0.3178 -0.9538
 6588TIP3   OH241322   0.044   0.705   0.649  0.0378  0.1589  0.1425
 6588TIP3    H141323   0.050   0.713   0.554 -1.9588  2.1173  0.0833
 6588TIP3    H241324   0.047   0.795   0.681  1.8289 -0.5104  2.0739
 6589TIP3   OH241325   1.148   0.014   0.975  0.2845 -0.7674 -0.3211
 6589TIP3    H141326   1.097   0.065   0.912  0.8132 -0.9827 -0.9362
 6589TIP3    H241327   1.161   0.072   1.049 -2.9878 -1.4746  0.9873
 6590TIP3   OH241328   2.236   3.397   6.259  0.2867 -0.1998  0.0573
 6590TIP3    H141329   2.173   3.415   6.329  1.3685  2.1261  0.5496
 6590TIP3    H241330   2.202   3.446   6.184  1.0604  0.3753  0.0789
 6591TIP3   OH241331   0.741   5.045   0.968  0.2803 -0.3313 -0.1846
 6591TIP3    H141332   0.663   5.057   1.023  0.4565 -2.1316  0.5432
 6591TIP3    H241333   0.774   5.133   0.954 -0.1515  0.2681  2.0921
 6592TIP3   OH241334   2.455   3.463   1.271  0.2515  0.8381 -0.2775
 6592TIP3    H141335   2.546   3.434   1.271  0.1319  0.4606 -0.2912
 6592TIP3    H241336   2.425   3.452   1.361  0.2010  0.9080 -0.2853
 6593TIP3   OH241337   0.366   4.529   0.170 -1.0152  0.0107  0.7863
 6593TIP3    H141338   0.413   4.547   0.251 -0.4957  0.2250  0.4372
 6593TIP3    H241339   0.338   4.438   0.179  0.4188 -0.4731  0.5229
 6594TIP3   OH241340   0.247   2.271   8.421  0.4040  0.1736  0.1590
 6594TIP3    H141341   0.260   2.200   8.484 -1.1308 -1.4952 -1.2681
 6594TIP3    H241342   0.182   2.237   8.360 -0.0097  2.6470 -0.9198
 6595TIP3   OH241343   1.771   5.315   7.678  0.5022 -0.2791  0.4204
 6595TIP3    H141344   1.751   5.399   7.636 -0.4338 -0.3307  0.7431
 6595TIP3    H241345   1.862   5.323   7.705  0.3047  0.7950  0.8169
 6596TIP3   OH241346   5.468   2.822   7.458  0.3835  0.4801 -0.1941
 6596TIP3    H141347   5.476   2.803   7.365 -0.3361  0.4043 -0.2399
 6596TIP3    H241348   5.382   2.789   7.483  1.1277 -0.8104  0.8262
 6597TIP3   OH241349   1.791   3.477   7.040 -0.2857  0.0110  0.3102
 6597TIP3    H141350   1.856   3.429   6.989  0.5373  0.0772  1.2722
 6597TIP3    H241351   1.814   3.461   7.131 -0.5177  1.5028  0.6700
 6598TIP3   OH241352   5.941   4.643   2.387 -0.2252  0.0529 -0.3727
 6598TIP3    H141353   5.897   4.561   2.412 -1.4412  0.3435 -1.4877
 6598TIP3    H241354   5.945   4.640   2.292  3.6357 -0.6733 -0.3578
 6599TIP3   OH241355   4.256   1.274   1.259  0.2315  0.4260 -0.1595
 6599TIP3    H141356   4.177   1.312   1.298  0.4061  0.7704 -0.1323
 6599TIP3    H241357   4.269   1.324   1.179 -0.9280 -1.2083 -1.4330
 6600TIP3   OH241358   3.994   4.538   0.953  0.0117  0.3912  0.6959
 6600TIP3    H141359   4.088   4.554   0.940  0.6982 -3.5494 -0.5953
 6600TIP3    H241360   3.952   4.618   0.921  2.8598  1.0197 -2.0499
 6601TIP3   OH241361   0.002   6.845   8.128 -0.0958  0.2530  0.3035
 6601TIP3    H141362   0.037   6.837   8.217 -1.4962 -0.8356  0.7994
 6601TIP3    H241363  -0.015   6.754   8.102 -0.4709  0.6239 -0.7659
 6602TIP3   OH241364   1.855   0.602   1.015  0.0799 -0.5878  0.1842
 6602TIP3    H141365   1.898   0.537   0.959 -0.4143 -0.2954 -0.5481
 6602TIP3    H241366   1.901   0.683   0.997 -2.0142  0.1977 -2.1776
 6603TIP3   OH241367   1.673   3.378   7.731  0.0630 -0.1827  0.4558
 6603TIP3    H141368   1.724   3.404   7.807  0.3111  2.3880 -0.4874
 6603TIP3    H241369   1.585   3.360   7.766  0.9606 -2.4483  1.7634
 6604TIP3   OH241370   4.077   0.944   8.391  0.1649 -0.3162  0.2650
 6604TIP3    H141371   4.126   0.942   8.473  0.5507  1.0701  0.0871
 6604TIP3    H241372   4.001   0.999   8.410 -0.0791 -0.5070 -0.1357
 6605TIP3   OH241373   4.725   5.912   8.332  0.6506  0.0149  0.3419
 6605TIP3    H141374   4.695   5.973   8.399  0.5588 -0.7805  1.0427
 6605TIP3    H241375   4.731   5.965   8.252  1.4911  1.1488  1.1351
 6606TIP3   OH241376   4.920   4.795   1.085 -0.5860  0.0999  1.0890
 6606TIP3    H141377   4.986   4.799   1.016 -2.5220 -0.7665 -0.9546
 6606TIP3    H241378   4.948   4.722   1.141 -0.3218 -0.9296 -0.3329
 6607TIP3   OH241379   3.488   3.624   0.230  0.7297  0.7995  0.0050
 6607TIP3    H141380   3.503   3.545   0.282  0.5808 -0.0658 -1.2069
 6607TIP3    H241381   3.437   3.681   0.287  1.9774  0.5936  1.3906
 6608TIP3   OH241382   2.280   6.570   6.946 -0.3624  0.2779 -0.2671
 6608TIP3    H141383   2.304   6.515   6.871 -3.0170 -0.3944 -0.7333
 6608TIP3    H241384   2.296   6.660   6.916  1.4322 -0.0832 -0.4994
 6609TIP3   OH241385   1.257   5.518   7.936 -0.0940 -0.2078 -0.1952
 6609TIP3    H141386   1.345   5.483   7.920  0.2429  0.9360 -0.9697
 6609TIP3    H241387   1.265   5.611   7.918 -1.3788 -0.0150  0.1539
 6610TIP3   OH241388   3.453   4.474   1.009 -0.0207  0.5120  0.1925
 6610TIP3    H141389   3.530   4.516   0.971  0.7490  0.4883  1.6450
 6610TIP3    H241390   3.427   4.408   0.945  3.0326 -1.6236  0.9523
 6611TIP3   OH241391   1.722   4.324   7.680 -0.0851 -0.1078 -0.4746
 6611TIP3    H141392   1.815   4.305   7.694 -0.2257 -0.8742 -0.5365
 6611TIP3    H241393   1.719   4.370   7.596  0.2405 -0.0655 -0.4627
 6612TIP3   OH241394   3.095   3.510   8.225 -0.1730  0.0404 -0.1484
 6612TIP3    H141395   3.119   3.551   8.142 -0.1763  0.9525  0.2873
 6612TIP3    H241396   3.165   3.447   8.241  0.7762  1.0958  0.0029
 6613TIP3   OH241397   0.860   1.438   8.410  0.1689  0.0868 -0.3054
 6613TIP3    H141398   0.912   1.436   8.490  0.0668 -0.8114 -0.2441
 6613TIP3    H241399   0.901   1.373   8.353 -1.0407 -0.8784 -0.1378
 6614TIP3   OH241400   2.520   6.160   1.764  0.0726  0.0184 -0.0472
 6614TIP3    H141401   2.536   6.238   1.817  1.8396  0.1257 -0.6630
 6614TIP3    H241402   2.562   6.089   1.813 -0.3342 -0.2916 -0.1473
 6615TIP3   OH241403   0.095   3.985   8.196 -0.3377 -1.0814  0.6279
 6615TIP3    H141404   0.053   4.060   8.237 -1.1273 -0.3309 -1.4249
 6615TIP3    H241405   0.189   3.997   8.214 -0.0944  1.9743 -1.9080
 6616TIP3   OH241406   5.410   3.120   6.592 -0.1637 -0.2899 -0.2527
 6616TIP3    H141407   5.444   3.062   6.525  0.9327 -1.1557  1.0004
 6616TIP3    H241408   5.402   3.205   6.548  2.7844 -0.2380 -0.9150
 6617TIP3   OH241409   0.861   6.393   6.715 -0.2510 -0.1123 -0.3289
 6617TIP3    H141410   0.953   6.398   6.692  0.2050  0.2259  1.4097
 6617TIP3    H241411   0.830   6.313   6.671  0.5136  0.4539 -1.9772
 6618TIP3   OH241412   2.467   1.067   7.331  0.0667 -0.1811 -0.6109
 6618TIP3    H141413   2.403   1.053   7.261 -0.5096 -2.8424  0.3471
 6618TIP3    H241414   2.539   1.007   7.310  0.0242 -0.7885  0.8771
 6619TIP3   OH241415   1.421   4.955   8.424 -0.5015  0.1271  0.1385
 6619TIP3    H141416   1.458   4.867   8.435 -1.5393 -0.3226  0.1648
 6619TIP3    H241417   1.491   5.006   8.382 -0.6041 -1.2813 -1.8883
 6620TIP3   OH241418   1.500   2.887   1.471 -0.1429 -0.0857  0.1204
 6620TIP3    H141419   1.528   2.967   1.516  0.2826 -0.0181 -0.2534
 6620TIP3    H241420   1.470   2.917   1.385  0.7338 -0.3941 -0.3151
 6621TIP3   OH241421   1.306   1.694   7.860  0.1234  0.1482  0.3667
 6621TIP3    H141422   1.391   1.736   7.845  0.1926  0.0336  0.4334
 6621TIP3    H241423   1.245   1.743   7.805 -0.0885  1.3280  1.6081
 6622TIP3   OH241424   6.274   0.701   2.033  0.2273 -0.5633 -0.5018
 6622TIP3    H141425   6.223   0.770   2.075 -1.8626 -2.6032  0.5928
 6622TIP3    H241426   6.362   0.710   2.070 -0.4187  0.4798  0.8603
 6623TIP3   OH241427   2.615   4.692   7.230  0.3056 -0.1236 -0.0002
 6623TIP3    H141428   2.536   4.715   7.280  0.2170 -0.2088 -0.1012
 6623TIP3    H241429   2.583   4.638   7.157  0.2244  1.4146 -1.1439
 6624TIP3   OH241430   5.453   4.256   0.853  0.2543  0.1432  0.0985
 6624TIP3    H141431   5.427   4.206   0.777 -2.9674  0.1014  1.0706
 6624TIP3    H241432   5.473   4.191   0.920 -0.9035  0.1384  0.4530
 6625TIP3   OH241433   0.187   3.537   6.814  0.2317 -0.5744 -0.0993
 6625TIP3    H141434   0.142   3.564   6.895 -0.5513 -1.3335 -0.2688
 6625TIP3    H241435   0.121   3.544   6.746  1.1940  1.2136 -0.9442
 6626TIP3   OH241436   4.354   3.513   7.533  0.2048  0.0794 -0.0926
 6626TIP3    H141437   4.275   3.562   7.510 -1.1006 -1.5073  0.8067
 6626TIP3    H241438   4.341   3.487   7.624  1.9285  0.0456  0.1778
 6627TIP3   OH241439   2.370   4.638   7.099  0.6926 -0.1321  0.5054
 6627TIP3    H141440   2.323   4.566   7.057  1.1555  1.2773 -2.8181
 6627TIP3    H241441   2.311   4.713   7.091  1.4811  0.5546  0.9068
 6628TIP3   OH241442   0.991   1.146   1.898 -0.2638 -0.1047 -0.0395
 6628TIP3    H141443   0.924   1.211   1.879 -0.0753  0.1374  0.1124
 6628TIP3    H241444   0.968   1.070   1.845 -0.9315 -0.2023  0.3822
 6629TIP3   OH241445   2.505   4.799   1.271 -0.5593 -0.4536 -0.1131
 6629TIP3    H141446   2.556   4.803   1.190 -0.1334 -2.5527  0.0104
 6629TIP3    H241447   2.564   4.834   1.337 -0.2083 -0.5032 -0.3943
 6630TIP3   OH241448   3.643   5.676   1.266  0.1819  0.1479 -0.7375
 6630TIP3    H141449   3.628   5.769   1.249  0.0143  0.0605 -1.0690
 6630TIP3    H241450   3.728   5.673   1.310  0.9021  0.3146 -2.0878
 6631TIP3   OH241451   1.105   1.372   6.503  0.0118 -0.1220  0.1778
 6631TIP3    H141452   1.054   1.414   6.434 -1.3513 -0.6321  0.8300
 6631TIP3    H241453   1.109   1.438   6.573  2.5453  0.9126 -0.8312
 6632TIP3   OH241454   1.242   3.015   6.920 -0.4654 -0.1749  0.2668
 6632TIP3    H141455   1.309   3.049   6.980 -1.7837  2.2348  0.4924
 6632TIP3    H241456   1.249   3.070   6.842 -0.8740 -1.2063 -0.5223
 6633TIP3   OH241457   4.845   3.625   1.644  0.0956 -0.3275  0.2851
 6633TIP3    H141458   4.758   3.651   1.615  0.8814 -0.1705 -2.1313
 6633TIP3    H241459   4.900   3.702   1.630  0.4066  0.1184  3.2820
 6634TIP3   OH241460   3.562   6.443   0.698  0.1647  0.6322  0.2434
 6634TIP3    H141461   3.625   6.399   0.755 -0.8636 -0.6996  0.4029
 6634TIP3    H241462   3.521   6.372   0.649 -0.6944  1.5435 -0.3936
 6635TIP3   OH241463   5.938   3.405   7.949  0.0971  0.0641  0.8120
 6635TIP3    H141464   5.923   3.313   7.971  0.3209 -0.0201  0.6148
 6635TIP3    H241465   5.982   3.402   7.864  0.7271  0.3342  1.1296
 6636TIP3   OH241466   0.998   5.109   6.343  0.0741  0.0817 -0.1137
 6636TIP3    H141467   1.039   5.159   6.272  1.6818 -0.4254  0.4090
 6636TIP3    H241468   1.004   5.018   6.315  4.1398 -0.5741  2.1156
 6637TIP3   OH241469   1.466   5.601   7.032  0.2051 -0.2229  0.3140
 6637TIP3    H141470   1.436   5.560   7.114  0.7358 -1.4828 -0.1022
 6637TIP3    H241471   1.560   5.584   7.030  0.5832  1.7248  0.4967
 6638TIP3   OH241472   1.875   6.758   1.814 -0.2832  0.3298 -0.1886
 6638TIP3    H141473   1.925   6.758   1.732 -1.5611  0.7986 -1.0033
 6638TIP3    H241474   1.786   6.735   1.788 -0.3900 -1.2183  1.3231
 6639TIP3   OH241475   4.162   5.882   1.512 -0.0681  0.4659  0.3266
 6639TIP3    H141476   4.149   5.920   1.425  1.0894 -0.4059 -0.2469
 6639TIP3    H241477   4.169   5.788   1.496  0.8220  0.3618  1.2861
 6640TIP3   OH241478   4.658   4.893   7.966 -0.3073 -0.7651 -0.0094
 6640TIP3    H141479   4.624   4.980   7.946  0.9699 -0.2219  0.0413
 6640TIP3    H241480   4.653   4.846   7.883  3.0456  0.8243 -1.3254
 6641TIP3   OH241481   2.369   1.170   2.115 -0.0214 -0.6534 -0.3481
 6641TIP3    H141482   2.436   1.172   2.184 -0.0251 -2.7281 -0.2368
 6641TIP3    H241483   2.287   1.190   2.160 -0.1111 -2.5691  0.4147
 6642TIP3   OH241484   3.706   0.628   6.138  0.6356  0.1925  0.2689
 6642TIP3    H141485   3.793   0.588   6.137  0.7068  0.3482 -0.2878
 6642TIP3    H241486   3.670   0.609   6.051 -0.8295 -1.8936  1.2665
 6643TIP3   OH241487   3.197   4.934   7.567 -0.1921 -0.0593 -0.3139
 6643TIP3    H141488   3.196   4.995   7.642 -1.3303 -0.9710  0.4452
 6643TIP3    H241489   3.236   4.984   7.496  0.0731  1.1402  0.6435
 6644TIP3   OH241490   0.495   5.138   8.382  0.2163 -0.2282 -0.1221
 6644TIP3    H141491   0.508   5.104   8.293  0.3300  0.6518 -0.4510
 6644TIP3    H241492   0.480   5.060   8.435 -1.0495 -0.6942 -1.1196
 6645TIP3   OH241493   1.873   0.652   2.313  0.4720  0.0675 -0.0562
 6645TIP3    H141494   1.928   0.665   2.390 -1.0905  0.6598  0.9883
 6645TIP3    H241495   1.806   0.590   2.342 -0.9105  1.3014 -0.5107
 6646TIP3   OH241496   2.198   2.467   7.735  0.0814 -0.4257 -0.0181
 6646TIP3    H141497   2.258   2.533   7.768  0.1248 -0.7298  0.5163
 6646TIP3    H241498   2.149   2.436   7.812  0.2187 -1.1679 -0.2146
 6647TIP3   OH241499   5.915   4.820   1.863  0.5397 -0.0764 -0.0876
 6647TIP3    H141500   5.829   4.857   1.882  0.4197 -0.0479 -0.6651
 6647TIP3    H241501   5.952   4.878   1.796  0.4977 -0.7830 -0.7318
 6648TIP3   OH241502   1.222   6.019   7.457  0.8418  0.0403  0.0085
 6648TIP3    H141503   1.210   6.110   7.483  0.1398  0.5762 -1.9476
 6648TIP3    H241504   1.142   5.975   7.484  0.2746  0.5064 -0.8498
 6649TIP3   OH241505   0.466   2.408   0.542  0.1353  0.1203 -0.3467
 6649TIP3    H141506   0.530   2.461   0.589  0.0648  0.7162 -0.9103
 6649TIP3    H241507   0.404   2.471   0.505 -0.6222 -0.4304 -0.0411
 6650TIP3   OH241508   4.145   4.656   0.641  0.1931 -0.2871 -0.2150
 6650TIP3    H141509   4.120   4.638   0.550 -0.3291 -0.4972 -0.0330
 6650TIP3    H241510   4.116   4.746   0.656 -0.1898 -0.4266 -0.0997
 6651TIP3   OH241511   0.672   5.804   1.527 -0.1231 -0.4148 -0.0042
 6651TIP3    H141512   0.668   5.725   1.581  1.2319  0.2449  1.1405
 6651TIP3    H241513   0.757   5.798   1.483 -0.2227  0.1721 -0.2803
 6652TIP3   OH241514   0.615   2.193   6.522 -0.4556  0.4901 -0.7371
 6652TIP3    H141515   0.626   2.284   6.550  0.7985  0.6679 -1.7092
 6652TIP3    H241516   0.667   2.186   6.443 -0.4226 -1.1266 -0.6050
 6653TIP3   OH241517   4.913   5.355   7.375 -0.3391 -0.1211  0.1788
 6653TIP3    H141518   4.955   5.439   7.361 -2.5540  1.0414  0.0326
 6653TIP3    H241519   4.958   5.295   7.315 -0.5983  1.6320 -1.9121
 6654TIP3   OH241520   1.206   3.766   6.563  0.5172  0.5772  0.4132
 6654TIP3    H141521   1.290   3.720   6.558  0.9234  1.1658  1.4623
 6654TIP3    H241522   1.230   3.855   6.589 -0.4492  0.6999  0.9141
 6655TIP3   OH241523   4.344   4.258   8.076  0.0114 -0.0750 -0.3482
 6655TIP3    H141524   4.345   4.180   8.020  0.7145 -1.1363  1.0655
 6655TIP3    H241525   4.277   4.240   8.141  2.0109 -0.7855  1.6365
 6656TIP3   OH241526   3.863   2.537   7.618 -0.0393 -0.4844  0.1736
 6656TIP3    H141527   3.836   2.627   7.638  0.1149 -0.3468 -0.2217
 6656TIP3    H241528   3.895   2.502   7.701 -0.2417 -0.2252  0.3625
 6657TIP3   OH241529   6.733   2.125   8.125  0.5803 -0.5859 -0.0747
 6657TIP3    H141530   6.739   2.137   8.220  0.8685  0.1935 -0.1843
 6657TIP3    H241531   6.703   2.035   8.115  1.4516 -1.0002  0.7414
 6658TIP3   OH241532   5.665   3.505   8.418 -0.5421  0.3583 -0.3907
 6658TIP3    H141533   5.719   3.511   8.497 -0.5751 -2.0949 -0.0846
 6658TIP3    H241534   5.727   3.483   8.349 -0.6774  1.2323 -0.7907
 6659TIP3   OH241535   5.659   4.328   2.124 -0.6329  0.1577 -0.0684
 6659TIP3    H141536   5.639   4.250   2.176  0.1391  0.5591  0.8760
 6659TIP3    H241537   5.734   4.303   2.070 -1.2622 -0.1741 -0.8035
 6660TIP3   OH241538   5.898   3.852   7.857 -0.0459 -0.1762  0.0768
 6660TIP3    H141539   5.835   3.780   7.851 -3.2827  2.4501 -0.5577
 6660TIP3    H241540   5.873   3.912   7.787  1.3179  2.3826  1.6301
 6661TIP3   OH241541   6.330   1.939   0.628  0.4831  0.6579  0.3117
 6661TIP3    H141542   6.250   1.991   0.624 -0.9489 -1.2173  2.4379
 6661TIP3    H241543   6.319   1.872   0.560 -0.3736 -0.3324  1.3868
 6662TIP3   OH241544   1.499   3.255   0.937  0.0101  0.3686  0.8860
 6662TIP3    H141545   1.424   3.196   0.923  1.2070 -0.9509 -0.4078
 6662TIP3    H241546   1.518   3.248   1.031  0.2832 -1.5940  0.7286
 6663TIP3   OH241547   5.997   5.181   0.494 -0.7122 -0.1788  0.0905
 6663TIP3    H141548   5.998   5.109   0.557 -0.7500 -0.2296  0.0327
 6663TIP3    H241549   6.034   5.144   0.414 -2.4808 -0.6913 -0.5383
 6664TIP3   OH241550   0.600   1.509   0.956 -0.3251 -0.0640 -0.0918
 6664TIP3    H141551   0.635   1.527   1.044 -0.5523  0.7259 -0.1506
 6664TIP3    H241552   0.573   1.595   0.924  0.5125 -0.2101 -1.2686
 6665TIP3   OH241553   0.058   6.444   7.678 -0.3162  0.1051  0.3514
 6665TIP3    H141554   0.037   6.486   7.761  0.2424 -2.0592  1.6677
 6665TIP3    H241555   0.013   6.497   7.612  0.1711  2.5495  1.8753
 6666TIP3   OH241556   5.675   5.941   0.901 -0.2115  0.0361  0.1197
 6666TIP3    H141557   5.707   5.934   0.990 -1.5503 -0.3079  0.6017
 6666TIP3    H241558   5.590   5.898   0.902 -0.9313  1.3255 -0.9632
 6667TIP3   OH241559   0.378   6.686   6.995 -0.1837 -0.2884 -0.4626
 6667TIP3    H141560   0.345   6.645   7.075  1.8256 -0.2677  0.4440
 6667TIP3    H241561   0.300   6.721   6.951 -1.4468 -1.2467  0.9342
 6668TIP3   OH241562   2.425   3.197   6.904 -0.1291  0.8123  0.0237
 6668TIP3    H141563   2.341   3.239   6.884  0.7313  1.7203 -1.8632
 6668TIP3    H241564   2.490   3.266   6.893  1.0275 -0.2526 -0.0580
 6669TIP3   OH241565   0.548   2.846   2.297  0.3626  0.1649  0.4974
 6669TIP3    H141566   0.466   2.798   2.292  1.6341 -2.0201 -1.1066
 6669TIP3    H241567   0.590   2.814   2.377  0.3549  0.0731  0.4648
 6670TIP3   OH241568   5.093   6.299   2.215  0.3180 -0.3346  0.2467
 6670TIP3    H141569   5.141   6.217   2.207  2.0449  0.6473  0.2489
 6670TIP3    H241570   5.005   6.278   2.183  0.4705 -2.3831  1.0398
 6671TIP3   OH241571   3.062   3.066   1.281 -0.0213  0.4566  0.2588
 6671TIP3    H141572   3.069   3.117   1.362 -1.0250  0.0793  0.6076
 6671TIP3    H241573   3.123   2.994   1.292  0.7878  1.1083  0.1245
 6672TIP3   OH241574   2.029   2.896   8.337  0.0218 -0.0344 -0.2699
 6672TIP3    H141575   1.951   2.841   8.326  0.0131  0.2176 -1.5281
 6672TIP3    H241576   2.102   2.835   8.341 -0.0716 -0.1830 -0.8273
 6673TIP3   OH241577   5.413   6.489   0.284  0.2472 -0.0961 -0.0644
 6673TIP3    H141578   5.383   6.554   0.348 -1.5462  0.3021 -1.2167
 6673TIP3    H241579   5.456   6.422   0.336 -0.0103  0.8314  1.4152
 6674TIP3   OH241580   0.773   1.965   6.518 -0.2866 -0.8810 -0.0659
 6674TIP3    H141581   0.846   1.916   6.479 -0.9533 -0.3957 -2.0580
 6674TIP3    H241582   0.794   2.057   6.502  0.8985 -0.3769  3.5419
 6675TIP3   OH241583   0.307   0.525   6.494 -0.4193 -0.6075 -0.3155
 6675TIP3    H141584   0.317   0.619   6.477  0.0971 -0.7950 -1.1123
 6675TIP3    H241585   0.321   0.484   6.409 -1.8295 -1.3377 -0.2209
 6676TIP3   OH241586   4.308   0.761   7.762 -0.3522  0.2196  0.8253
 6676TIP3    H141587   4.390   0.719   7.735 -0.6330  0.1803  0.0027
 6676TIP3    H241588   4.320   0.780   7.855  0.3464 -0.3508  0.8571
 6677TIP3   OH241589   5.129   1.360   7.333  0.6053 -0.3456  0.3845
 6677TIP3    H141590   5.061   1.421   7.304  0.3249 -1.0434 -0.4908
 6677TIP3    H241591   5.119   1.285   7.274  2.7808 -0.0554 -0.4469
 6678TIP3   OH241592   6.161   0.321   1.277 -0.3065 -0.8249  0.5093
 6678TIP3    H141593   6.132   0.281   1.195 -0.1416  0.8931 -0.4327
 6678TIP3    H241594   6.080   0.341   1.324 -0.6638  1.8626 -1.0856
 6679TIP3   OH241595   2.002   5.252   2.102 -0.7805 -0.6032  0.1777
 6679TIP3    H141596   2.050   5.218   2.178 -1.7409 -1.6030  0.3596
 6679TIP3    H241597   1.920   5.285   2.138  0.9650  4.3170  0.4173
 6680TIP3   OH241598   6.761   2.200   0.176 -0.6191  0.1981 -0.0518
 6680TIP3    H141599   6.732   2.114   0.207  1.1396 -0.6276 -0.5671
 6680TIP3    H241600   6.786   2.186   0.085  0.5309  1.0313  0.1123
 6681TIP3   OH241601   5.180   6.439   0.602 -0.4914 -0.1935 -0.0651
 6681TIP3    H141602   5.184   6.414   0.509  0.4209 -1.3253  0.2476
 6681TIP3    H241603   5.087   6.458   0.618 -0.5018  1.0804 -1.4531
 6682TIP3   OH241604   2.854   0.265   7.360 -0.0915 -1.0499  0.3740
 6682TIP3    H141605   2.931   0.227   7.318  2.7450  0.6170  3.5770
 6682TIP3    H241606   2.852   0.224   7.447  0.3513  2.4763  2.2421
 6683TIP3   OH241607   4.763   5.001   0.951 -0.1702 -0.4694  0.3453
 6683TIP3    H141608   4.692   4.938   0.957  0.4495 -1.1712  0.3699
 6683TIP3    H241609   4.838   4.957   0.990  0.5968 -0.2106 -0.8128
 6684TIP3   OH241610   6.349   4.024   0.376 -0.0959 -0.3006 -0.2252
 6684TIP3    H141611   6.285   4.094   0.381 -0.1780 -0.3866 -0.0665
 6684TIP3    H241612   6.303   3.946   0.407 -0.1151 -0.5018 -0.7500
 6685TIP3   OH241613   1.302   1.950   2.491  0.2158 -0.8205  0.1260
 6685TIP3    H141614   1.279   1.994   2.572 -1.2447 -1.1327 -0.0974
 6685TIP3    H241615   1.395   1.928   2.501  0.6206  1.0277  0.8092
 6686TIP3   OH241616   6.089   2.206   7.797  0.1288  0.5605  0.0898
 6686TIP3    H141617   5.997   2.220   7.775  0.1839  0.6742 -0.0659
 6686TIP3    H241618   6.087   2.173   7.887 -0.1440 -0.5941 -0.3255
 6687TIP3   OH241619   5.354   0.585   1.033  0.7047 -0.4997 -0.4264
 6687TIP3    H141620   5.428   0.551   1.082  1.4724  1.7218  0.0561
 6687TIP3    H241621   5.332   0.668   1.075 -1.2022 -0.4411 -1.3898
 6688TIP3   OH241622   4.409   3.060   7.087  0.6922 -0.0318  0.0769
 6688TIP3    H141623   4.377   2.979   7.126 -1.3667  0.9046  0.4836
 6688TIP3    H241624   4.472   3.032   7.021  1.0924 -1.8696  1.1842
 6689TIP3   OH241625   4.398   1.583   7.585 -0.0042 -0.0248 -0.5723
 6689TIP3    H141626   4.444   1.500   7.577  0.9616  0.2805  1.2720
 6689TIP3    H241627   4.465   1.649   7.569 -0.0221  0.4013  0.9149
 6690TIP3   OH241628   2.090   6.310   8.475 -0.0436 -0.3911  0.5088
 6690TIP3    H141629   2.161   6.364   8.440  2.9951 -3.9133  0.5555
 6690TIP3    H241630   2.115   6.292   8.565 -2.6067  0.5300  1.4926
 6691TIP3   OH241631   5.793   3.317   1.418  0.2422 -0.0114 -0.6500
 6691TIP3    H141632   5.778   3.401   1.460 -2.1500  0.5318 -2.4161
 6691TIP3    H241633   5.889   3.307   1.418  0.4727  0.5173  3.5790
 6692TIP3   OH241634   6.318   4.581   2.258  0.1015 -0.1328 -0.0864
 6692TIP3    H141635   6.320   4.660   2.204 -0.6458 -0.8518 -1.2165
 6692TIP3    H241636   6.282   4.513   2.200  1.1824 -1.4275  0.6968
 6693TIP3   OH241637   5.231   0.017   7.874 -0.2635 -0.3901 -0.1457
 6693TIP3    H141638   5.284   0.094   7.892  0.9044 -1.3181  0.5590
 6693TIP3    H241639   5.294  -0.054   7.861 -1.2781 -1.0929 -1.5641
 6694TIP3   OH241640   6.638   4.607   7.401  0.2435 -0.4260  1.0711
 6694TIP3    H141641   6.664   4.698   7.393 -0.5364 -0.3427 -3.9633
 6694TIP3    H241642   6.721   4.558   7.406  0.9158  0.4419 -0.7399
 6695TIP3   OH241643   4.835   5.644   2.332 -0.0479 -0.0671  0.1992
 6695TIP3    H141644   4.820   5.574   2.395 -1.0322 -0.5900 -0.5740
 6695TIP3    H241645   4.784   5.718   2.366  0.2686 -0.0091  0.5525
 6696TIP3   OH241646   3.401   0.811   8.173 -0.4672  0.0861  0.3820
 6696TIP3    H141647   3.463   0.866   8.125 -0.3995 -0.3533 -0.0411
 6696TIP3    H241648   3.315   0.842   8.146 -0.4372 -0.6046 -0.5646
 6697TIP3   OH241649   1.758   6.685   0.062 -0.2535 -0.2652  0.1861
 6697TIP3    H141650   1.745   6.667   0.155 -0.7646  0.2773  0.2208
 6697TIP3    H241651   1.770   6.599   0.022 -2.1677 -0.6748  0.4270
 6698TIP3   OH241652   3.254   6.030   1.699 -0.3523  0.0514  0.3769
 6698TIP3    H141653   3.311   6.076   1.761  3.1558 -1.0598 -1.7701
 6698TIP3    H241654   3.259   5.938   1.725 -2.7575  0.0935  1.2180
 6699TIP3   OH241655   5.319   3.234   6.807 -0.4522 -0.3572 -0.2004
 6699TIP3    H141656   5.327   3.173   6.733  0.0302 -1.7245  0.9480
 6699TIP3    H241657   5.404   3.278   6.811  0.5661 -2.3327  1.2439
 6700TIP3   OH241658   2.235   2.122   7.962 -0.6477 -0.1423 -0.0581
 6700TIP3    H141659   2.262   2.213   7.945 -0.3869 -0.1190  0.4818
 6700TIP3    H241660   2.174   2.102   7.890 -0.2355  0.2526 -0.5301
 6701TIP3   OH241661   3.302   2.561   0.683  0.1123  0.5947 -0.0386
 6701TIP3    H141662   3.288   2.634   0.622 -2.8306 -0.1087 -0.3977
 6701TIP3    H241663   3.284   2.483   0.630  0.3631 -0.1959  1.0279
 6702TIP3   OH241664   1.298   1.930   1.601 -1.0876 -0.0353  0.4868
 6702TIP3    H141665   1.309   1.942   1.507 -1.8742  2.8266  0.6772
 6702TIP3    H241666   1.302   1.835   1.614  3.4350 -0.4308 -1.8217
 6703TIP3   OH241667   3.023   1.122   6.964 -0.7455 -0.1010  0.5428
 6703TIP3    H141668   3.100   1.138   6.910 -0.7644  0.9540  0.8091
 6703TIP3    H241669   2.953   1.104   6.901 -0.0169 -2.4807  0.3264
 6704TIP3   OH241670   6.440   5.937   1.360  0.3815 -0.2023 -0.6628
 6704TIP3    H141671   6.487   6.019   1.347 -0.8134  0.3164 -1.9706
 6704TIP3    H241672   6.387   5.952   1.438  1.1308 -0.1985 -0.1498
 6705TIP3   OH241673   1.806   6.649   1.501  0.6342  0.1374 -0.0383
 6705TIP3    H141674   1.737   6.646   1.568  2.3621 -1.0980  1.8006
 6705TIP3    H241675   1.820   6.743   1.485 -0.6693  0.4274  0.4011
 6706TIP3   OH241676   6.392   5.365   0.116  0.4771  0.0245 -0.1773
 6706TIP3    H141677   6.443   5.317   0.180 -0.0285 -0.3852 -0.0782
 6706TIP3    H241678   6.367   5.300   0.051  0.9185  0.4197 -0.7533
 6707TIP3   OH241679   3.580   5.606   7.808 -0.2091  0.6922  0.1334
 6707TIP3    H141680   3.663   5.568   7.836  0.1486  0.4263 -1.2387
 6707TIP3    H241681   3.587   5.615   7.713 -1.1791  2.0491  0.1491
 6708TIP3   OH241682   1.931   5.582   0.502 -0.1521  0.1528 -0.1093
 6708TIP3    H141683   1.920   5.493   0.468 -0.2768  0.2395 -0.2972
 6708TIP3    H241684   1.851   5.600   0.550 -0.5933  0.5534 -0.9590
 6709TIP3   OH241685   4.092   3.899   7.016  0.4686 -0.4160 -0.5979
 6709TIP3    H141686   4.087   3.994   7.021  1.9595 -0.3771  1.0978
 6709TIP3    H241687   4.047   3.869   7.095 -1.4641 -1.2459 -1.9275
 6710TIP3   OH241688   4.681   5.510   0.925  0.0332 -0.5812 -1.0512
 6710TIP3    H141689   4.765   5.548   0.952  0.7368 -0.9795 -2.5555
 6710TIP3    H241690   4.702   5.421   0.899 -1.4144 -1.7453  1.3768
 6711TIP3   OH241691   1.477   4.872   1.650  0.5139  0.2801 -0.1721
 6711TIP3    H141692   1.450   4.781   1.660  0.2009  0.3913  0.0125
 6711TIP3    H241693   1.397   4.923   1.661  0.6000  0.5545 -0.7817
 6712TIP3   OH241694   6.699   5.292   0.614  0.0441 -0.4732  0.0612
 6712TIP3    H141695   6.679   5.370   0.563 -2.0550 -1.1993 -0.3250
 6712TIP3    H241696   6.702   5.221   0.549 -1.7632 -1.2674  0.7817
 6713TIP3   OH241697   3.360   4.707   1.278  0.3029  0.2441  0.6610
 6713TIP3    H141698   3.311   4.636   1.236 -0.8742  1.0380  0.6533
 6713TIP3    H241699   3.390   4.669   1.361  0.9559 -0.7094  0.0081
 6714TIP3   OH241700   6.216   4.655   1.018  0.3295  0.4562 -0.0137
 6714TIP3    H141701   6.226   4.562   1.001  0.8242  0.5738 -0.3825
 6714TIP3    H241702   6.122   4.667   1.031  0.1653  0.0366 -0.7601
 6715TIP3   OH241703   3.606   4.084   8.122 -0.0125 -0.0317 -0.2019
 6715TIP3    H141704   3.606   4.024   8.197 -0.6985 -0.3654 -0.4616
 6715TIP3    H241705   3.568   4.033   8.051 -3.4515  1.5637  0.2763
 6716TIP3   OH241706   3.713   4.850   0.150 -0.0987 -0.0230 -0.0004
 6716TIP3    H141707   3.776   4.844   0.078  0.2513 -0.8574  0.3588
 6716TIP3    H241708   3.632   4.814   0.115 -0.7139  2.0238 -0.7994
 6717TIP3   OH241709   1.734   0.192   1.662  0.1001 -0.2827  0.3523
 6717TIP3    H141710   1.803   0.244   1.704 -1.6679  2.7084 -0.1165
 6717TIP3    H241711   1.680   0.160   1.734  0.7162 -0.7276  0.6208
 6718TIP3   OH241712   3.067   5.291   8.554  0.0224 -0.3740 -0.4386
 6718TIP3    H141713   3.090   5.223   8.617 -0.3992  1.2248  1.5523
 6718TIP3    H241714   3.045   5.244   8.474  1.4144 -2.4490  0.3247
 6719TIP3   OH241715   6.480   0.863   0.485  0.0921 -0.1873  0.3919
 6719TIP3    H141716   6.526   0.819   0.556 -0.3521  0.1710  0.9073
 6719TIP3    H241717   6.549   0.915   0.442  0.2335  0.1368  0.9920
 6720TIP3   OH241718   4.334   0.228   8.372  0.0562  0.2055 -0.4035
 6720TIP3    H141719   4.263   0.170   8.342 -0.7327  2.1336 -2.5946
 6720TIP3    H241720   4.350   0.286   8.297  3.3093  0.4939  0.3802
 6721TIP3   OH241721   1.050   6.673   0.429 -0.4368 -0.6995 -0.1826
 6721TIP3    H141722   1.145   6.686   0.436 -0.5011 -0.3137  0.0057
 6721TIP3    H241723   1.014   6.716   0.507 -0.6910 -1.7373  0.2951
 6722TIP3   OH241724   6.365   2.355   6.717  0.6853  0.0319 -0.0941
 6722TIP3    H141725   6.440   2.387   6.667 -0.0332  0.0619 -1.1767
 6722TIP3    H241726   6.323   2.292   6.660 -0.0920 -0.0240  0.5233
 6723TIP3   OH241727   0.625   0.359   1.823 -0.1579 -0.1284 -0.0123
 6723TIP3    H141728   0.535   0.331   1.837 -0.0559 -0.3783  0.1632
 6723TIP3    H241729   0.643   0.336   1.732 -0.0517 -0.7162  0.1534
 6724TIP3   OH241730   0.768   5.974   0.164 -0.5396  0.2028 -0.1027
 6724TIP3    H141731   0.680   5.998   0.195 -0.5688  0.2163 -0.1950
 6724TIP3    H241732   0.814   6.057   0.156 -0.3344  0.1485  0.4961
 6725TIP3   OH241733   1.886   6.041   7.058 -0.5076 -0.0078  0.0971
 6725TIP3    H141734   1.795   6.014   7.044 -0.6166  0.7808 -0.8339
 6725TIP3    H241735   1.885   6.136   7.045  0.7071 -0.1678 -1.5361
 6726TIP3   OH241736   5.335   3.604   6.834  0.1111  0.4831 -0.1738
 6726TIP3    H141737   5.381   3.648   6.762  0.8594  0.3280  0.2060
 6726TIP3    H241738   5.242   3.622   6.817  0.4174  3.6376  0.8670
 6727TIP3   OH241739   0.741   1.665   8.464  0.0371 -0.1985  0.0612
 6727TIP3    H141740   0.814   1.701   8.514  0.8493 -1.5557 -0.1234
 6727TIP3    H241741   0.774   1.584   8.427 -0.5914  0.6537 -2.5509
 6728TIP3   OH241742   4.514   5.058   6.842 -0.2607 -1.1958  0.1306
 6728TIP3    H141743   4.491   5.146   6.811  0.9747 -1.1591 -0.7436
 6728TIP3    H241744   4.498   5.002   6.767 -0.2006 -1.5857  0.4094
 6729TIP3   OH241745   2.832   5.411   6.980 -0.1191  0.2933 -0.2318
 6729TIP3    H141746   2.904   5.432   6.921 -1.0383  1.4566 -0.9914
 6729TIP3    H241747   2.858   5.329   7.022  0.5183 -0.6437 -2.3264
 6730TIP3   OH241748   0.870   4.509   0.733  0.0555  0.5823  0.0823
 6730TIP3    H141749   0.957   4.548   0.731 -0.9229  3.0038 -3.0047
 6730TIP3    H241750   0.873   4.439   0.668 -0.4697  1.2480 -0.6851
 6731TIP3   OH241751   4.343   0.290   7.001 -0.7142  0.0487 -0.1417
 6731TIP3    H141752   4.402   0.361   7.027  0.9005 -1.1192 -0.4322
 6731TIP3    H241753   4.307   0.319   6.918  0.1319  0.4418 -0.3893
 6732TIP3   OH241754   0.534   2.183   8.194  0.8452  0.4455 -0.1137
 6732TIP3    H141755   0.618   2.141   8.176  0.4709 -0.7634  0.7891
 6732TIP3    H241756   0.527   2.181   8.290  0.4652  1.9448 -0.0799
 6733TIP3   OH241757   2.936   3.801   7.946 -0.3204  0.5347  0.2653
 6733TIP3    H141758   2.960   3.717   7.907  2.1185  1.7116 -0.9517
 6733TIP3    H241759   2.914   3.857   7.871 -1.0150  1.2608  0.9927
 6734TIP3   OH241760   0.726   5.141   7.388  0.5178  0.2975 -0.1519
 6734TIP3    H141761   0.678   5.069   7.429  1.7618  0.1493  1.1270
 6734TIP3    H241762   0.769   5.102   7.312 -0.2358  0.1127 -0.4879
 6735TIP3   OH241763   2.967   2.468   7.168 -0.4555 -0.4522 -0.0437
 6735TIP3    H141764   2.913   2.401   7.210 -0.1431 -1.4632 -1.1752
 6735TIP3    H241765   3.057   2.436   7.178 -0.1821  0.4329  0.4661
 6736TIP3   OH241766   0.664   2.057   7.345 -0.2067  0.3603 -0.4299
 6736TIP3    H141767   0.742   2.104   7.375 -0.1394 -0.5022  0.8704
 6736TIP3    H241768   0.594   2.123   7.345  0.4582  1.0938 -1.4101
 6737TIP3   OH241769   3.537   4.131   7.666 -0.8245 -0.3450  0.0549
 6737TIP3    H141770   3.620   4.105   7.706  0.3160  1.7194 -0.8309
 6737TIP3    H241771   3.504   4.051   7.627 -1.2203 -2.1339  3.6014
 6738TIP3   OH241772   0.575   0.075   8.450  0.1586  0.0119  0.3825
 6738TIP3    H141773   0.572  -0.010   8.493 -0.8258  0.4188  1.1421
 6738TIP3    H241774   0.603   0.136   8.518  2.0970  0.1436 -0.4604
 6739TIP3   OH241775   6.765   0.494   0.063 -0.0560 -0.0454 -0.4472
 6739TIP3    H141776   6.772   0.571   0.121 -0.3669  1.4705 -2.3322
 6739TIP3    H241777   6.841   0.441   0.085 -0.1460  0.4786  1.3222
 6740TIP3   OH241778   2.800   5.661   7.397 -0.0046  0.1557 -0.3241
 6740TIP3    H141779   2.715   5.617   7.408 -0.2017  0.5279 -0.3149
 6740TIP3    H241780   2.842   5.615   7.325 -0.6246  0.5670 -0.9751
 6741TIP3   OH241781   3.469   4.804   1.724 -0.2483  0.1425 -0.1237
 6741TIP3    H141782   3.467   4.866   1.651 -0.3793 -0.7209 -0.8755
 6741TIP3    H241783   3.377   4.793   1.749 -0.3549 -0.6675 -0.8134
 6742TIP3   OH241784   3.271   3.457   0.943 -0.5960  0.3505  0.0845
 6742TIP3    H141785   3.206   3.387   0.947 -0.0437 -0.1215  1.6408
 6742TIP3    H241786   3.235   3.526   0.999  0.0373  0.2595  0.6082
 6743TIP3   OH241787   0.843   1.256   7.379 -0.4607  0.3465  0.6540
 6743TIP3    H141788   0.878   1.288   7.296 -0.4543 -1.7626 -0.2263
 6743TIP3    H241789   0.893   1.302   7.446 -0.6807  2.3482 -0.4739
 6744TIP3   OH241790   5.043   5.053   1.464 -0.4546 -0.1684 -0.2367
 6744TIP3    H141791   5.093   5.100   1.397 -0.9788 -0.0125 -0.5251
 6744TIP3    H241792   5.040   5.114   1.538  0.4810 -0.5076  0.0832
 6745TIP3   OH241793   0.107   6.426   1.724  0.1529  0.3080 -0.1270
 6745TIP3    H141794   0.199   6.403   1.715  0.3163  0.8827  0.0496
 6745TIP3    H241795   0.095   6.444   1.817  0.2883  1.9336 -0.3870
 6746TIP3   OH241796   0.284   2.747   7.833  0.6156  0.7520  0.6067
 6746TIP3    H141797   0.303   2.819   7.773  2.2797  0.0027  0.1690
 6746TIP3    H241798   0.188   2.747   7.841  0.0560 -0.1901 -3.4984
 6747TIP3   OH241799   5.625   2.696   8.322  0.4331  0.6310 -0.2569
 6747TIP3    H141800   5.596   2.656   8.240 -1.1655  1.5443 -0.1653
 6747TIP3    H241801   5.581   2.645   8.390  2.1132 -0.4228  0.1166
 6748TIP3   OH241802   0.618   2.954   2.775 -0.3280  0.7795  0.0672
 6748TIP3    H141803   0.667   2.982   2.853 -0.1378  0.9155 -0.0977
 6748TIP3    H241804   0.559   3.027   2.757 -0.6279  0.5928  0.2967
 6749TIP3   OH241805   0.559   3.890   7.407  0.3223 -0.3547  0.5133
 6749TIP3    H141806   0.539   3.940   7.486 -1.3322  0.3623 -0.3162
 6749TIP3    H241807   0.476   3.849   7.383  0.6628 -0.1599 -1.1192
 6750TIP3   OH241808   3.553   0.018   1.978  0.0587  0.3245 -0.3765
 6750TIP3    H141809   3.528   0.089   1.919  0.1227  1.4519  0.9143
 6750TIP3    H241810   3.644   0.036   1.999  0.0148 -0.0154  0.1161
 6751TIP3   OH241811   4.133   0.751   0.371 -0.1393  0.2183  0.0179
 6751TIP3    H141812   4.059   0.808   0.351  0.2864  1.0269  0.6735
 6751TIP3    H241813   4.108   0.706   0.451 -0.0040  0.3485  0.1338
 6752TIP3   OH241814   1.026   4.697   7.709 -0.4303 -0.2324 -0.2482
 6752TIP3    H141815   1.032   4.611   7.667  1.1136 -0.1025 -0.3426
 6752TIP3    H241816   0.962   4.744   7.655 -1.1547 -1.2352 -0.3100
 6753TIP3   OH241817   1.384   1.431   7.253  0.6088 -0.1140  0.1633
 6753TIP3    H141818   1.314   1.440   7.317 -0.9810  0.6676 -1.5910
 6753TIP3    H241819   1.345   1.380   7.181  2.7260 -2.0918  0.2999
 6754TIP3   OH241820   4.072   3.265   6.900  0.2421  0.1548 -0.2771
 6754TIP3    H141821   4.145   3.302   6.950  2.2040  0.1097 -2.8959
 6754TIP3    H241822   4.114   3.216   6.829 -2.2956 -3.0445  0.1707
 6755TIP3   OH241823   0.453   0.766   6.430 -0.2312  0.1985  0.1035
 6755TIP3    H141824   0.465   0.857   6.404  0.1623 -0.3106 -1.5770
 6755TIP3    H241825   0.537   0.741   6.469 -0.6809  0.8335  1.5543
 6756TIP3   OH241826   0.461   2.199   1.496  0.2248  0.4229  0.4556
 6756TIP3    H141827   0.488   2.155   1.577  2.2988  0.1659 -0.3002
 6756TIP3    H241828   0.427   2.128   1.441  0.7228  0.2440  0.3689
 6757TIP3   OH241829   0.863   6.783   6.129  0.1375 -0.3615  1.0245
 6757TIP3    H141830   0.812   6.797   6.209 -1.3459 -0.8836  0.2106
 6757TIP3    H241831   0.798   6.762   6.062  1.1641  1.6855 -0.7449
 6758TIP3   OH241832   0.242   5.145   6.700  0.4654 -0.0003 -0.0653
 6758TIP3    H141833   0.245   5.068   6.756 -2.4834  1.1820  1.9480
 6758TIP3    H241834   0.268   5.113   6.613 -0.0087 -3.0935  0.8305
 6759TIP3   OH241835   5.992   3.723   6.955 -0.2244 -0.0655 -0.0840
 6759TIP3    H141836   5.898   3.711   6.949 -0.7260  3.6338 -2.7559
 6759TIP3    H241837   6.003   3.810   6.994  2.2371 -1.1693  1.9944
 6760TIP3   OH241838   5.736   4.418   6.918 -0.4514 -0.0806 -0.2633
 6760TIP3    H141839   5.689   4.409   6.835 -1.3099  1.0317  0.0702
 6760TIP3    H241840   5.822   4.452   6.893  0.0806 -1.7706 -0.8481
 6761TIP3   OH241841   1.206   5.650   7.348 -0.2340  0.3412  0.5287
 6761TIP3    H141842   1.275   5.584   7.356 -0.4955  0.0106  0.1094
 6761TIP3    H241843   1.234   5.706   7.276  0.6300  1.4907  1.7109
 6762TIP3   OH241844   1.832   2.770   0.846  0.1586  0.2769 -0.0428
 6762TIP3    H141845   1.881   2.794   0.768 -0.8709  2.9890  0.0371
 6762TIP3    H241846   1.899   2.754   0.913  1.0146  2.2405 -0.3783
 6763TIP3   OH241847   2.173   3.587   6.072  0.0660 -0.1252 -0.1310
 6763TIP3    H141848   2.110   3.581   6.001  0.4373  2.7443 -0.8250
 6763TIP3    H241849   2.246   3.638   6.036  1.3831 -0.6781  1.5857
 6764TIP3   OH241850   3.461   4.629   7.181  0.5007  0.3662 -0.2473
 6764TIP3    H141851   3.493   4.539   7.179 -0.7286 -0.0999 -0.1537
 6764TIP3    H241852   3.508   4.673   7.110  1.9849 -0.0187  0.4468
 6765TIP3   OH241853   6.656   3.482   7.405 -0.0610 -0.0277  0.0127
 6765TIP3    H141854   6.715   3.526   7.344 -0.9334 -0.4483 -1.1743
 6765TIP3    H241855   6.673   3.389   7.393 -1.8166 -0.2387 -1.3265
 6766TIP3   OH241856   1.868   3.906   1.832 -0.4184  0.0129  0.1278
 6766TIP3    H141857   1.925   3.916   1.908 -2.6049  0.5883  1.7825
 6766TIP3    H241858   1.857   3.996   1.799  1.0542 -0.3041 -1.3425
 6767TIP3   OH241859   5.514   6.388   7.399 -0.1498  0.0280 -0.4122
 6767TIP3    H141860   5.548   6.399   7.309  2.0090 -0.5368  0.2678
 6767TIP3    H241861   5.524   6.295   7.417 -1.5048 -0.0304  0.0976
 6768TIP3   OH241862   3.153   0.945   8.103  0.3657 -0.1173 -0.0602
 6768TIP3    H141863   3.105   0.868   8.133  0.8415 -0.3537  0.0902
 6768TIP3    H241864   3.147   0.942   8.008  0.9145 -0.6770 -0.0797
 6769TIP3   OH241865   0.886   1.282   8.154 -0.4961  0.2174  0.0026
 6769TIP3    H141866   0.877   1.243   8.067 -0.1030  0.4571 -0.1491
 6769TIP3    H241867   0.913   1.210   8.211 -0.4345  0.1291 -0.1406
 6770TIP3   OH241868   6.909   5.100   1.169 -0.3139  0.4419 -0.4945
 6770TIP3    H141869   6.830   5.117   1.221  0.8375  3.0948  0.5220
 6770TIP3    H241870   6.895   5.147   1.087  0.1527  0.8414 -0.3502
 6771TIP3   OH241871   6.796   6.101   1.281  0.1939  0.8862  0.9498
 6771TIP3    H141872   6.714   6.149   1.295 -0.4337  1.1267 -2.5713
 6771TIP3    H241873   6.856   6.164   1.242  0.8128 -0.1155  0.2024
 6772TIP3   OH241874   5.160   6.281   6.879 -0.0007 -0.1056 -0.0656
 6772TIP3    H141875   5.104   6.336   6.932  1.7865  1.9506 -0.1799
 6772TIP3    H241876   5.207   6.226   6.942 -0.5679 -0.3187  0.1767
 6773TIP3   OH241877   0.934   3.796   8.089  0.8357 -0.3278 -0.3228
 6773TIP3    H141878   1.004   3.860   8.079 -0.2054  1.1971  1.5012
 6773TIP3    H241879   0.972   3.727   8.143  1.5314 -0.5607 -1.0882
 6774TIP3   OH241880   3.960   3.269   1.168 -0.0057  0.5734 -0.7270
 6774TIP3    H141881   3.888   3.327   1.145  1.0831  2.5964  0.6415
 6774TIP3    H241882   3.997   3.307   1.248  0.9638 -1.8698  0.0910
 6775TIP3   OH241883   4.171   3.583   1.508  0.3507 -0.4921  0.2464
 6775TIP3    H141884   4.228   3.652   1.474  0.1778 -0.1395  0.6669
 6775TIP3    H241885   4.172   3.595   1.603 -1.1019  0.0556  0.2087
 6776TIP3   OH241886   6.859   3.657   7.924 -0.1701 -0.2169  0.6030
 6776TIP3    H141887   6.807   3.598   7.870  1.7612 -0.5423 -0.9913
 6776TIP3    H241888   6.948   3.622   7.920  1.0427  2.6696 -0.2948
 6777TIP3   OH241889   4.601   1.823   8.019 -0.1625 -0.1274 -0.4246
 6777TIP3    H141890   4.612   1.883   8.093 -0.0333 -1.7690  0.9375
 6777TIP3    H241891   4.511   1.837   7.991 -0.2106  0.5264  0.0302
 6778TIP3   OH241892   5.567   6.472   2.375  0.0467  0.6349 -0.3354
 6778TIP3    H141893   5.479   6.436   2.362  1.3444 -2.6866 -0.6151
 6778TIP3    H241894   5.552   6.566   2.390 -3.7266 -0.1140  1.9068
 6779TIP3   OH241895   1.942   6.547   2.081  0.4895 -0.0185 -0.0485
 6779TIP3    H141896   1.941   6.582   1.992  0.8729  1.8604  0.6227
 6779TIP3    H241897   1.896   6.614   2.133  1.3227 -0.4748  1.3437
 6780TIP3   OH241898   6.415   2.253   1.109  0.3561 -0.6450 -0.2092
 6780TIP3    H141899   6.356   2.272   1.037  0.7564  0.3442 -0.2963
 6780TIP3    H241900   6.495   2.302   1.088  0.0720  0.6310  1.4600
 6781TIP3   OH241901   4.410   0.506   7.419 -0.5205  0.0447 -0.0464
 6781TIP3    H141902   4.429   0.428   7.368  0.1011  0.4264 -0.4045
 6781TIP3    H241903   4.314   0.509   7.424 -0.6030  0.1731 -1.4642
 6782TIP3   OH241904   3.183   1.990   8.503 -0.2389 -0.2930  0.1712
 6782TIP3    H141905   3.162   1.897   8.504 -0.1035 -0.3230  0.2224
 6782TIP3    H241906   3.202   2.009   8.411 -0.3132 -0.3039  0.1538
 6783TIP3   OH241907   5.439   3.254   0.736 -0.0449  0.1191  0.2690
 6783TIP3    H141908   5.463   3.314   0.665 -1.0556 -0.4944 -0.6226
 6783TIP3    H241909   5.446   3.167   0.697 -0.1847 -0.2563  1.0650
 6784TIP3   OH241910   0.347   4.614   0.709  0.1029 -0.6081 -0.2300
 6784TIP3    H141911   0.356   4.537   0.765  2.0155 -0.3820 -0.1421
 6784TIP3    H241912   0.358   4.688   0.768  2.8602 -0.3675 -0.8836
 6785TIP3   OH241913   1.094   0.361   7.861  0.1173  0.3747  0.5714
 6785TIP3    H141914   1.078   0.398   7.774  0.0076  0.6041  0.6874
 6785TIP3    H241915   1.077   0.268   7.851 -1.2804  0.5972  0.6775
 6786TIP3   OH241916   5.265   5.746   6.502  0.0858  0.7517  0.0014
 6786TIP3    H141917   5.325   5.758   6.575 -1.5566  0.5404  1.4611
 6786TIP3    H241918   5.182   5.721   6.543 -0.7192 -0.0724 -1.9839
 6787TIP3   OH241919   6.081   4.134   0.423  0.3035 -0.1575 -0.3934
 6787TIP3    H141920   6.041   4.124   0.336  1.1225  1.1150 -0.9457
 6787TIP3    H241921   6.023   4.195   0.469 -0.0103 -0.6601 -0.1103
 6788TIP3   OH241922   1.356   0.727   2.551  0.1639 -0.0777 -0.2896
 6788TIP3    H141923   1.285   0.693   2.607  0.6678  0.9556  1.0188
 6788TIP3    H241924   1.340   0.821   2.547  1.8862  0.2911  0.6792
 6789TIP3   OH241925   1.660   3.095   6.643  0.0089 -0.4896 -0.0070
 6789TIP3    H141926   1.739   3.149   6.630 -1.3411  1.7398  0.4595
 6789TIP3    H241927   1.620   3.091   6.556 -1.2433  1.6088  0.4031
 6790TIP3   OH241928   4.319   6.149   7.418 -0.0039  0.8609 -0.0685
 6790TIP3    H141929   4.341   6.237   7.449 -1.2110  1.0123  0.3842
 6790TIP3    H241930   4.278   6.163   7.333 -1.1568  0.8271  0.4732
 6791TIP3   OH241931   6.860   2.158   7.125 -0.0907  0.0643  0.1895
 6791TIP3    H141932   6.838   2.188   7.037 -1.9212 -0.3160  0.4667
 6791TIP3    H241933   6.794   2.200   7.181  2.2669  1.9764  1.7112
 6792TIP3   OH241934   3.731   1.850   7.816  0.0541  0.3926 -0.1932
 6792TIP3    H141935   3.795   1.805   7.761  0.2515 -0.1815  0.5014
 6792TIP3    H241936   3.783   1.912   7.868 -0.0234  0.3214 -0.0307
 6793TIP3   OH241937   3.375   4.997   7.346 -0.4693 -0.8582 -0.4787
 6793TIP3    H141938   3.439   5.000   7.275  0.9920 -1.1087  0.7697
 6793TIP3    H241939   3.335   4.910   7.339 -1.7569 -0.1666 -2.1464
 6794TIP3   OH241940   6.191   0.329   0.219  0.1806 -0.1725  0.3318
 6794TIP3    H141941   6.160   0.290   0.300  0.0848  0.0306  0.3948
 6794TIP3    H241942   6.157   0.273   0.149 -1.2621  0.6585  0.3387
 6795TIP3   OH241943   6.321   2.510   0.521  0.2261  0.2611 -0.8408
 6795TIP3    H141944   6.340   2.435   0.464 -0.0461  0.5614 -1.3263
 6795TIP3    H241945   6.348   2.586   0.471 -1.4167  0.6469 -1.2030
 6796TIP3   OH241946   3.224   2.393   7.243 -0.0275  0.1837  0.4738
 6796TIP3    H141947   3.312   2.408   7.278 -0.1772 -0.5936  1.2235
 6796TIP3    H241948   3.239   2.367   7.152  0.5121  0.1878  0.5544
 6797TIP3   OH241949   6.625   2.499   6.812  0.4106 -0.0666  0.1245
 6797TIP3    H141950   6.633   2.421   6.758 -1.0427 -0.4477  0.4157
 6797TIP3    H241951   6.702   2.496   6.869 -0.1847 -1.9406  0.9211
 6798TIP3   OH241952   1.408   3.994   0.183 -0.7102 -0.0228  0.0992
 6798TIP3    H141953   1.434   4.086   0.175 -0.7901 -0.0912 -1.1319
 6798TIP3    H241954   1.403   3.962   0.093 -1.8700 -0.9091  0.4447
 6799TIP3   OH241955   5.288   4.368   7.158  0.3257 -0.5864  0.4450
 6799TIP3    H141956   5.349   4.375   7.085  0.2356  0.7739  0.4682
 6799TIP3    H241957   5.328   4.304   7.217 -0.1126 -2.5087 -1.2415
 6800TIP3   OH241958   5.101   2.855   0.742  0.1539  0.7968 -0.3885
 6800TIP3    H141959   5.135   2.871   0.830  1.8341  2.4614 -1.2834
 6800TIP3    H241960   5.108   2.760   0.731 -0.8121  0.4498  1.5171
 6801TIP3   OH241961   6.572   6.632   0.104  0.2618 -0.4729 -0.3249
 6801TIP3    H141962   6.643   6.609   0.164  0.6332 -0.3887 -0.7234
 6801TIP3    H241963   6.509   6.679   0.158  0.3580 -0.8253  0.1023
 6802TIP3   OH241964   6.591   0.240   0.172  0.4356 -0.3954 -0.0255
 6802TIP3    H141965   6.686   0.231   0.180  0.4668  0.1120  0.2437
 6802TIP3    H241966   6.576   0.334   0.172 -0.2570 -0.4435  2.3905
 6803TIP3   OH241967   2.268   2.207   6.909  0.7027 -0.1389 -0.2857
 6803TIP3    H141968   2.227   2.245   6.986  2.4947  0.4126  0.4359
 6803TIP3    H241969   2.195   2.192   6.849 -0.7824 -0.8657  1.5974
 6804TIP3   OH241970   5.088   3.325   8.371 -0.2770 -0.4662 -0.2942
 6804TIP3    H141971   5.106   3.334   8.464  0.9050 -0.4219 -0.5173
 6804TIP3    H241972   5.007   3.375   8.357  0.2794  0.6787  0.4571
 6805TIP3   OH241973   0.422   5.869   1.709 -0.4562 -0.4421  0.2316
 6805TIP3    H141974   0.456   5.876   1.620 -1.2353 -1.0144 -0.1253
 6805TIP3    H241975   0.481   5.807   1.753 -0.1614 -0.2795  0.0645
 6806TIP3   OH241976   1.782   1.321   1.219  0.1135 -0.4963  0.0276
 6806TIP3    H141977   1.781   1.271   1.300 -1.1626 -0.3167  0.1478
 6806TIP3    H241978   1.694   1.359   1.213  1.2002  2.1867  0.2029
 6807TIP3   OH241979   5.169   3.669   1.725 -0.0076 -0.3231 -0.2695
 6807TIP3    H141980   5.083   3.672   1.766  0.1130 -0.4311 -0.0109
 6807TIP3    H241981   5.222   3.616   1.784 -0.0554 -1.1678 -0.9650
 6808TIP3   OH241982   2.204   5.151   1.668  0.1194 -0.6528  0.8252
 6808TIP3    H141983   2.167   5.114   1.588  0.5614  3.1490 -1.4000
 6808TIP3    H241984   2.145   5.223   1.691  2.5899  1.5260  0.8910
 6809TIP3   OH241985   2.616   4.752   0.022 -0.2427 -0.2908  0.3457
 6809TIP3    H141986   2.630   4.714   0.108  0.9755 -1.2643 -0.2445
 6809TIP3    H241987   2.673   4.702  -0.036  1.2788  2.2547 -0.5407
 6810TIP3   OH241988   1.045   5.670   8.460 -0.3362  0.6218 -0.4334
 6810TIP3    H141989   1.063   5.637   8.547 -1.7874 -0.2831 -0.4375
 6810TIP3    H241990   1.033   5.764   8.471 -0.2498  0.5462  0.3018
 6811TIP3   OH241991   5.360   3.276   7.678  0.1928 -0.0621  0.4093
 6811TIP3    H141992   5.320   3.242   7.758  1.3566  1.4489  1.7048
 6811TIP3    H241993   5.454   3.275   7.697  0.5429 -0.2989 -1.2132
 6812TIP3   OH241994   4.786   6.261   7.476 -0.2674 -0.0046  0.0081
 6812TIP3    H141995   4.704   6.262   7.526  0.7957  1.5912  1.9023
 6812TIP3    H241996   4.846   6.211   7.531  0.1043 -1.0559 -1.3047
 6813TIP3   OH241997   6.304   4.613   0.120 -0.3868 -0.0400  0.4729
 6813TIP3    H141998   6.224   4.628   0.171 -0.5463 -2.0697  0.9242
 6813TIP3    H241999   6.283   4.536   0.066  0.3494  1.0395 -1.4450
 6814TIP3   OH242000   0.701   0.468   6.583  0.6820 -0.2134  0.1979
 6814TIP3    H142001   0.703   0.443   6.491 -3.2841 -1.1213  0.2014
 6814TIP3    H242002   0.719   0.562   6.583  0.9645 -0.2435 -1.4334
 6815TIP3   OH242003   4.791   3.483   7.757  0.0900 -0.2056  0.2367
 6815TIP3    H142004   4.716   3.497   7.699  0.2012  1.3085  0.4136
 6815TIP3    H242005   4.841   3.565   7.752  1.0542 -0.7155  1.0990
 6816TIP3   OH242006   1.574   6.701   2.260 -0.4987 -0.6227  0.9864
 6816TIP3    H142007   1.551   6.791   2.235 -0.0375 -0.0013  2.6782
 6816TIP3    H242008   1.669   6.698   2.254 -0.3376 -0.3486  2.8717
 6817TIP3   OH242009   3.442   3.175   1.226  0.0950 -0.5908  0.7977
 6817TIP3    H142010   3.453   3.180   1.131 -0.0586 -1.9481  0.6858
 6817TIP3    H242011   3.415   3.263   1.252 -1.5512 -0.6175 -0.6581
 6818TIP3   OH242012   1.089   0.628   6.631  0.6558 -0.7717  0.6856
 6818TIP3    H142013   1.073   0.655   6.721  2.5426 -1.2258  1.2061
 6818TIP3    H242014   1.087   0.532   6.634  0.9585 -0.7927  0.2898
 6819TIP3   OH242015   3.850   3.017   7.645  0.0134  0.2503  0.0066
 6819TIP3    H142016   3.874   3.036   7.736 -2.6062  0.1960  0.7650
 6819TIP3    H242017   3.816   2.928   7.647  0.0412  0.2035 -1.0691
 6820TIP3   OH242018   5.848   0.172   6.666 -0.0823 -0.4615 -0.9064
 6820TIP3    H142019   5.758   0.203   6.656 -0.8208 -2.3030 -0.4955
 6820TIP3    H242020   5.868   0.186   6.759  0.2870  0.4934 -1.1240
 6821TIP3   OH242021   4.012   0.298   0.253 -0.1521  0.4144 -0.8212
 6821TIP3    H142022   4.091   0.301   0.307 -0.2619  1.0245 -0.6857
 6821TIP3    H242023   4.018   0.376   0.197 -0.5751  0.3801 -0.9185
 6822TIP3   OH242024   6.031   0.599   1.906  0.0798 -0.0335  0.1926
 6822TIP3    H142025   6.116   0.616   1.945 -0.9508  2.7002  1.5093
 6822TIP3    H242026   6.026   0.658   1.831 -1.8912  2.6634  2.2253
 6823TIP3   OH242027   1.330   5.176   7.487  0.2648 -0.2502 -0.2731
 6823TIP3    H142028   1.366   5.189   7.575 -1.5873  0.8096  0.3960
 6823TIP3    H242029   1.407   5.179   7.430  1.4917 -0.6580  1.2616
 6824TIP3   OH242030   2.093   3.804   8.108  0.1338 -0.2028 -0.0638
 6824TIP3    H142031   2.048   3.736   8.158 -1.5920  1.1029  0.2357
 6824TIP3    H242032   2.127   3.864   8.174 -1.1023  0.8784 -0.3754
 6825TIP3   OH242033   3.592   1.169   8.359  0.0123  0.2337  0.1649
 6825TIP3    H142034   3.607   1.075   8.344  0.8145  0.1952  1.1114
 6825TIP3    H242035   3.497   1.177   8.365 -0.0476 -0.5989  0.4904
 6826TIP3   OH242036   3.000   4.943   0.605  0.5064  0.0264  0.0769
 6826TIP3    H142037   3.038   4.957   0.518  1.4442  1.0477  0.6234
 6826TIP3    H242038   3.074   4.948   0.665 -0.3657  1.3976  1.1229
 6827TIP3   OH242039   1.469   3.733   0.954 -0.2278  0.1408 -0.1510
 6827TIP3    H142040   1.451   3.773   0.869 -1.1089  0.9620  0.4153
 6827TIP3    H242041   1.401   3.766   1.012 -0.3264 -1.3097  0.6086
 6828TIP3   OH242042   5.793   2.895   8.093  0.3320  0.3051 -0.7008
 6828TIP3    H142043   5.861   2.891   8.160  0.4773 -1.5861 -0.9002
 6828TIP3    H242044   5.754   2.807   8.093 -1.5572  1.0993 -1.1680
 6829TIP3   OH242045   5.212   1.580   8.521  0.2425 -0.4846 -0.7858
 6829TIP3    H142046   5.120   1.557   8.512  0.4314 -1.7707  0.3223
 6829TIP3    H242047   5.248   1.515   8.582  1.9533 -0.2015 -1.4227
 6830TIP3   OH242048   0.853   1.027   6.527 -0.2154 -0.2689 -0.5178
 6830TIP3    H142049   0.892   1.070   6.451 -1.2846 -2.0216 -2.1463
 6830TIP3    H242050   0.919   1.035   6.596  0.2500  2.5081 -1.1780
 6831TIP3   OH242051   6.026   0.176   0.070  0.5125 -0.2934  0.4474
 6831TIP3    H142052   6.085   0.163  -0.004 -0.1752 -1.9863  0.1451
 6831TIP3    H242053   5.940   0.191   0.031  0.3027 -0.3070  0.8915
 6832TIP3   OH242054   3.187   1.102   0.796  0.5309 -0.1628 -0.2930
 6832TIP3    H142055   3.264   1.046   0.809  1.1288  0.5766 -0.5683
 6832TIP3    H242056   3.190   1.162   0.871  0.9587  0.6888 -0.9814
 6833TIP3   OH242057   4.270   1.036   7.025  0.3176  0.2489 -0.0123
 6833TIP3    H142058   4.198   1.021   6.963 -0.0374  2.0507 -0.1026
 6833TIP3    H242059   4.239   1.109   7.079  1.0104 -0.6768  1.6905
 6834TIP3   OH242060   1.956   3.029   7.399  0.2627 -0.1212 -0.1402
 6834TIP3    H142061   1.989   2.939   7.389  1.4881  0.2455  0.4407
 6834TIP3    H242062   2.033   3.084   7.388 -0.0053  0.7410  1.8606
 6835TIP3   OH242063   1.774   3.530   0.235 -0.2961 -0.0557 -0.2847
 6835TIP3    H142064   1.846   3.535   0.174  1.1927  0.7313  1.4382
 6835TIP3    H242065   1.808   3.479   0.309 -1.3326  0.6797  0.7513
 6836TIP3   OH242066   4.027   0.631   1.361  0.2322 -0.1077 -0.1450
 6836TIP3    H142067   4.054   0.713   1.403  2.4775 -0.2372 -1.2093
 6836TIP3    H242068   3.968   0.659   1.291 -1.1684  0.3233  1.1309
 6837TIP3   OH242069   4.680   6.891   6.274 -0.9543 -0.3853  0.4720
 6837TIP3    H142070   4.602   6.938   6.245  0.0826 -0.0531 -2.0603
 6837TIP3    H242071   4.741   6.960   6.302 -0.2674 -0.3240 -1.0781
 6838TIP3   OH242072   4.641   4.987   0.704  0.5257 -0.1464 -0.0627
 6838TIP3    H142073   4.681   5.029   0.627 -0.4808 -0.8123 -0.9780
 6838TIP3    H242074   4.704   5.003   0.775  2.5770 -1.4257 -1.4900
 6839TIP3   OH242075   3.732   6.528   8.258  0.2229 -0.3080  0.3905
 6839TIP3    H142076   3.825   6.535   8.236  0.1056 -1.6572 -0.6902
 6839TIP3    H242077   3.728   6.537   8.353  1.4726 -0.3784  0.4565
 6840TIP3   OH242078   2.631   3.154   6.063  0.5421  0.6068  0.5425
 6840TIP3    H142079   2.648   3.235   6.113 -0.3397  0.3944  1.2142
 6840TIP3    H242080   2.616   3.088   6.130 -2.9896  0.7878  0.1044
 6841TIP3   OH242081   1.844   0.921   2.347  0.4011  0.0718 -0.4725
 6841TIP3    H142082   1.930   0.946   2.382 -0.0474  0.0473  0.6784
 6841TIP3    H242083   1.849   0.826   2.336  0.5607  0.0863 -0.5343
 6842TIP3   OH242084   2.996   3.126   7.587  0.0617 -0.2502  0.2156
 6842TIP3    H142085   3.082   3.167   7.579  0.3672 -0.6927  1.0819
 6842TIP3    H242086   2.977   3.091   7.500  0.4130  0.5085 -0.1725
 6843TIP3   OH242087   3.757   0.564   0.101 -0.4639 -0.1957 -0.1179
 6843TIP3    H142088   3.820   0.525   0.041  0.4000  0.1889  0.5110
 6843TIP3    H242089   3.671   0.534   0.070 -0.1706  1.0238 -2.2961
 6844TIP3   OH242090   2.592   5.058   8.515  0.0696 -0.0317  0.2560
 6844TIP3    H142091   2.569   5.001   8.442  1.3150  0.2323 -0.3636
 6844TIP3    H242092   2.615   4.998   8.586  1.0245 -0.3146 -0.2786
 6845TIP3   OH242093   1.008   2.801   0.397 -0.0687 -0.3099  0.1826
 6845TIP3    H142094   1.034   2.882   0.441 -0.7982  0.5412 -0.8911
 6845TIP3    H242095   0.980   2.743   0.468 -1.6288  1.1784  0.8489
 6846TIP3   OH242096   1.511   2.804   7.236 -0.1607 -0.1452 -0.4224
 6846TIP3    H142097   1.576   2.873   7.247  0.3247  0.0283 -3.4095
 6846TIP3    H242098   1.427   2.848   7.246  0.1115 -0.0600  1.9283
 6847TIP3   OH242099   4.567   2.843   7.034  0.4314  0.0900 -0.2669
 6847TIP3    H142100   4.610   2.808   7.112  1.3939 -0.1290 -0.8851
 6847TIP3    H242101   4.502   2.776   7.012  1.5690 -0.8645 -0.8428
 6848TIP3   OH242102   4.778   4.754   7.168  0.3796 -0.4147  0.2822
 6848TIP3    H142103   4.705   4.697   7.193 -0.6836 -0.4070 -2.4722
 6848TIP3    H242104   4.835   4.697   7.116  0.3698  0.5134 -0.7600
 6849TIP3   OH242105   3.632   3.819   1.119 -0.2490  0.1337  0.2555
 6849TIP3    H142106   3.725   3.794   1.127 -0.2526 -0.3972 -1.0772
 6849TIP3    H242107   3.633   3.902   1.072 -0.4713 -0.2463 -0.4303
 6850TIP3   OH242108   0.417   4.541   8.400  0.3947  0.0927 -0.0655
 6850TIP3    H142109   0.327   4.509   8.413  0.8082  0.0713  3.7252
 6850TIP3    H242110   0.432   4.529   8.306 -3.2488 -0.6459 -0.7403
 6851TIP3   OH242111   2.641   1.022   8.414  0.6722 -0.4812  0.0977
 6851TIP3    H142112   2.573   1.077   8.375  0.6245 -0.1869  0.5925
 6851TIP3    H242113   2.667   0.962   8.343 -0.4257 -0.9109  0.0355
 6852TIP3   OH242114   5.426   5.003   1.071 -0.5318  0.1755 -0.4122
 6852TIP3    H142115   5.439   5.070   1.138  1.7166 -0.6473  0.0699
 6852TIP3    H242116   5.511   4.960   1.064 -1.0070 -0.4696 -3.0664
 6853TIP3   OH242117   3.601   2.974   8.288  0.1658 -0.0125 -0.0839
 6853TIP3    H142118   3.553   2.891   8.289 -1.0026  0.6367 -0.6281
 6853TIP3    H242119   3.682   2.954   8.242  0.1446 -0.9791  0.2688
 6854TIP3   OH242120   6.155   6.892   0.649  0.8154 -0.8627  0.0240
 6854TIP3    H142121   6.209   6.868   0.574  2.3731 -0.2334  0.8943
 6854TIP3    H242122   6.218   6.918   0.717 -0.5712 -0.5371  1.2461
 6855TIP3   OH242123   3.331   5.293   6.565  0.4398 -0.1482  0.6473
 6855TIP3    H142124   3.354   5.296   6.472  3.0975  0.7905  1.2477
 6855TIP3    H242125   3.263   5.360   6.575 -0.8669 -1.1823 -0.7933
 6856TIP3   OH242126   0.665   4.797   8.506  0.4460  0.2028 -0.6094
 6856TIP3    H142127   0.650   4.755   8.421 -0.4556 -0.9270  0.0871
 6856TIP3    H242128   0.690   4.726   8.564 -1.3193  0.5573  0.6618
 6857TIP3   OH242129   5.628   3.870   1.694 -0.7110  0.3116  0.3551
 6857TIP3    H142130   5.568   3.943   1.705 -0.4756  1.0038 -2.1907
 6857TIP3    H242131   5.579   3.793   1.722 -2.6090  0.9367 -1.1003
 6858TIP3   OH242132   0.149   2.783   0.073 -0.2892 -0.4282  0.0208
 6858TIP3    H142133   0.168   2.778   0.166 -1.1492 -0.0077  0.2237
 6858TIP3    H242134   0.054   2.784   0.067 -0.2553 -1.0430 -0.8978
 6859TIP3   OH242135   0.931   3.958   7.579 -0.1872 -0.6278 -0.0849
 6859TIP3    H142136   0.903   3.956   7.488 -0.3088  0.0462 -0.0670
 6859TIP3    H242137   0.872   3.898   7.624  0.9650 -2.3399 -0.7238
 6860TIP3   OH242138   5.373   1.670   6.738  0.3530  0.2904 -0.2887
 6860TIP3    H142139   5.438   1.650   6.806 -0.9481 -2.4577  0.2722
 6860TIP3    H242140   5.418   1.653   6.656  0.3917 -1.6958  0.0998
 6861TIP3   OH242141   2.151   0.476   2.246  0.5921 -0.5996 -0.4774
 6861TIP3    H142142   2.243   0.471   2.219  0.3472 -0.0298 -1.4691
 6861TIP3    H242143   2.154   0.512   2.335  1.3678 -1.4151 -0.1635
 6862TIP3   OH242144   5.748   0.868   8.478  0.4332 -0.1356  0.0271
 6862TIP3    H142145   5.656   0.865   8.452  0.5981  0.7197 -0.7115
 6862TIP3    H242146   5.750   0.831   8.566 -1.0232  2.0948  1.0925
 6863TIP3   OH242147   5.137   3.735   1.242  0.2959  0.6661  0.1247
 6863TIP3    H142148   5.067   3.672   1.262 -0.8332  1.9776  0.4495
 6863TIP3    H242149   5.204   3.719   1.308  0.0164 -0.1693  0.2150
 6864TIP3   OH242150   1.572   6.727   8.206 -0.4051  0.5430 -0.5609
 6864TIP3    H142151   1.596   6.787   8.277  0.1187  0.1799 -0.4255
 6864TIP3    H242152   1.564   6.783   8.129 -1.7165  1.0579 -0.0762
 6865TIP3   OH242153   5.581   6.648   0.654 -0.0291 -0.0349  0.3575
 6865TIP3    H142154   5.645   6.604   0.598  0.7784  0.0256  1.2220
 6865TIP3    H242155   5.550   6.581   0.715 -1.4686 -0.2940 -0.5995
 6866TIP3   OH242156   4.322   2.743   7.568 -0.4385  0.4454 -0.0088
 6866TIP3    H142157   4.284   2.660   7.541  0.5835 -0.3390  0.8794
 6866TIP3    H242158   4.351   2.728   7.659  3.3764  0.4197 -1.0545
 6867TIP3   OH242159   2.273   1.926   7.660  0.0302  0.4319 -0.4266
 6867TIP3    H142160   2.241   2.015   7.645  0.3846  0.7985  0.8872
 6867TIP3    H242161   2.353   1.937   7.710  1.0087 -0.5818 -1.7114
 6868TIP3   OH242162   0.001   1.457   7.859  0.3270  0.7832  0.0093
 6868TIP3    H142163   0.064   1.474   7.929  1.5830  1.6561 -1.2966
 6868TIP3    H242164   0.050   1.471   7.778 -1.5041  1.3047 -1.0571
 6869TIP3   OH242165   0.408   1.711   6.311  0.2954 -0.0595  0.1850
 6869TIP3    H142166   0.489   1.660   6.322 -0.0017 -1.3285 -2.7552
 6869TIP3    H242167   0.421   1.787   6.368  3.3122 -0.5065  0.2932
 6870TIP3   OH242168   1.110   2.126   7.440  0.6452  0.2178 -0.1357
 6870TIP3    H142169   1.123   2.055   7.378  0.5051  0.1498 -0.0875
 6870TIP3    H242170   1.109   2.084   7.526 -1.5973 -0.0293 -0.2197
 6871TIP3   OH242171   4.960   4.171   0.946  0.8359  0.6912 -0.1727
 6871TIP3    H142172   4.869   4.160   0.975  0.6119  0.2035 -1.0096
 6871TIP3    H242173   5.013   4.146   1.022  0.2741  0.6592  0.2131
 6872TIP3   OH242174   3.481   0.445   7.676 -0.3315  0.0990 -0.5313
 6872TIP3    H142175   3.436   0.505   7.735  0.4069 -1.0800  1.3067
 6872TIP3    H242176   3.473   0.359   7.717 -0.1411 -0.8656 -2.3717
 6873TIP3   OH242177   5.391   5.935   8.384 -0.0120 -0.3929  0.2799
 6873TIP3    H142178   5.463   5.992   8.356  0.2928 -0.8481  0.1161
 6873TIP3    H242179   5.392   5.863   8.321 -0.5461 -0.4572  0.3403
 6874TIP3   OH242180   4.614   1.173   1.549  0.2546 -0.2221  0.3609
 6874TIP3    H142181   4.624   1.104   1.484  0.4634  0.8013 -0.7120
 6874TIP3    H242182   4.556   1.237   1.508  0.2852  0.3783  1.2310
 6875TIP3   OH242183   4.990   1.183   1.041  0.1312 -0.8116  0.2593
 6875TIP3    H142184   4.963   1.274   1.030  0.0151 -0.9458 -0.6339
 6875TIP3    H242185   4.938   1.152   1.115 -0.2407 -0.3048  0.2170
 6876TIP3   OH242186   1.487   6.862   0.621 -0.1923  0.4086 -0.3227
 6876TIP3    H142187   1.579   6.887   0.627 -0.0854 -0.2615  1.4547
 6876TIP3    H242188   1.446   6.904   0.697 -0.9849 -0.6742 -0.1216
 6877TIP3   OH242189   4.665   4.156   0.380 -0.6871  0.6137  0.5003
 6877TIP3    H142190   4.661   4.113   0.294  2.8638 -1.1626  1.0659
 6877TIP3    H242191   4.664   4.250   0.360 -0.6932  0.2540 -1.3866
 6878TIP3   OH242192   5.852   4.858   7.773  0.4918  0.3896  0.5856
 6878TIP3    H142193   5.922   4.854   7.839  1.3748  0.7285 -0.2979
 6878TIP3    H242194   5.837   4.766   7.749  1.6275  0.3832 -0.2047
 6879TIP3   OH242195   1.364   2.318   1.416  0.0602 -0.1162  0.3769
 6879TIP3    H142196   1.338   2.380   1.348 -2.2419 -0.7504  0.5991
 6879TIP3    H242197   1.374   2.372   1.495  0.0373  0.2478  0.1312
 6880TIP3   OH242198   3.099   1.788   7.499 -0.2053 -0.1420  0.7176
 6880TIP3    H142199   3.180   1.737   7.506 -0.6071 -0.7842  0.7324
 6880TIP3    H242200   3.108   1.855   7.567  0.2924 -0.2395  0.7527
 6881TIP3   OH242201   3.759   0.409   0.615  0.3145 -1.1372 -0.3601
 6881TIP3    H142202   3.777   0.495   0.655  0.5190 -0.0510 -2.5890
 6881TIP3    H242203   3.836   0.356   0.638 -0.3774 -1.1967  2.0954
 6882TIP3   OH242204   5.150   2.436   8.181  0.3239 -0.2671  0.2079
 6882TIP3    H142205   5.180   2.469   8.265 -0.4200 -1.6820  1.0640
 6882TIP3    H242206   5.185   2.498   8.117  1.7151  0.3047  1.4663
 6883TIP3   OH242207   0.436   2.911   6.296  0.1138 -0.3945 -0.4964
 6883TIP3    H142208   0.344   2.936   6.306  0.3078  0.4452 -0.7696
 6883TIP3    H242209   0.483   2.993   6.285  0.8552 -0.8393 -0.7608
 6884TIP3   OH242210   1.054   4.362   8.197 -0.1653  0.5156  0.0919
 6884TIP3    H142211   1.071   4.272   8.168 -0.2487  0.5078  0.0675
 6884TIP3    H242212   1.098   4.368   8.282 -0.2775  0.4086  0.1571
 6885TIP3   OH242213   2.287   5.703   6.446  0.6010 -0.0015 -0.0726
 6885TIP3    H142214   2.261   5.756   6.371  0.5299 -1.8989 -1.4578
 6885TIP3    H242215   2.375   5.733   6.467  0.6525  0.5073 -0.9550
 6886TIP3   OH242216   1.557   2.701   0.112 -0.5548 -0.4094 -0.2719
 6886TIP3    H142217   1.641   2.707   0.156 -0.2958  2.9869 -0.9466
 6886TIP3    H242218   1.513   2.627   0.153  1.1175  0.2728  3.0987
 6887TIP3   OH242219   4.574   5.639   8.123 -0.1018 -0.2507 -0.3525
 6887TIP3    H142220   4.669   5.637   8.138 -0.0609 -0.3655 -0.6319
 6887TIP3    H242221   4.537   5.619   8.209  0.1072  0.6515 -0.0412
 6888TIP3   OH242222   1.005   2.579   7.807 -0.0654 -0.3754 -0.0660
 6888TIP3    H142223   0.949   2.501   7.802 -1.5812  0.6528  0.1967
 6888TIP3    H242224   1.020   2.591   7.901  0.4091 -0.5005 -0.1228
 6889TIP3   OH242225   4.810   0.284   6.974 -0.0658 -0.1567 -0.5391
 6889TIP3    H142226   4.804   0.374   6.941 -2.9378  0.0982  0.4639
 6889TIP3    H242227   4.766   0.231   6.907 -0.1121 -0.5565 -0.1970
 6890TIP3   OH242228   1.603   5.933   8.101  0.2498  0.3612  0.2264
 6890TIP3    H142229   1.596   6.025   8.126 -1.3839  0.5201 -0.6619
 6890TIP3    H242230   1.601   5.933   8.005 -0.9801 -0.6333  0.2164
 6891TIP3   OH242231   5.572   2.155   7.647 -0.2548  0.0424 -0.6599
 6891TIP3    H142232   5.585   2.249   7.660 -0.5175  0.0406 -0.3821
 6891TIP3    H242233   5.500   2.132   7.705  0.5554 -0.5538  0.1358
 6892TIP3   OH242234   6.550   4.047   8.002 -0.3239  0.1549 -0.3732
 6892TIP3    H142235   6.624   3.991   7.979 -0.3210 -0.4457  0.9807
 6892TIP3    H242236   6.489   4.038   7.929  0.8485  0.5351 -1.4353
 6893TIP3   OH242237   4.966   1.693   8.412 -0.2875  0.3504 -0.4324
 6893TIP3    H142238   5.021   1.752   8.464 -1.0895  1.1591 -0.4884
 6893TIP3    H242239   4.877   1.709   8.444 -0.3957 -1.9854  0.7063
 6894TIP3   OH242240   5.481   2.474   0.251 -0.2079 -0.1513 -0.3986
 6894TIP3    H142241   5.569   2.479   0.289 -1.0257 -0.0839  1.5848
 6894TIP3    H242242   5.424   2.452   0.324 -1.5403 -2.9287 -2.1112
 6895TIP3   OH242243   0.124   3.169   6.996  0.5135  0.0604 -0.0635
 6895TIP3    H142244   0.145   3.081   6.964 -1.0260 -1.1510  2.0702
 6895TIP3    H242245   0.099   3.157   7.087  0.4337  2.7653  0.3557
 6896TIP3   OH242246   3.863   3.637   0.537  0.3494 -0.1493  0.4355
 6896TIP3    H142247   3.776   3.601   0.547  0.0053  0.8020  1.0401
 6896TIP3    H242248   3.918   3.585   0.595 -0.0390 -0.0436  0.9017
 6897TIP3   OH242249   0.624   5.514   6.699  0.0838  0.1498 -0.0074
 6897TIP3    H142250   0.683   5.568   6.646  2.1125  2.5067  4.0853
 6897TIP3    H242251   0.568   5.578   6.744 -0.3671 -1.4633  1.8647
 6898TIP3   OH242252   6.617   4.734   7.662 -0.4880  0.0547 -0.0269
 6898TIP3    H142253   6.664   4.672   7.718 -1.1897  0.2897  0.8469
 6898TIP3    H242254   6.683   4.797   7.635 -0.0119 -0.4066  0.0405
 6899TIP3   OH242255   2.360   5.153   7.724 -0.1367 -0.0036 -0.0530
 6899TIP3    H142256   2.391   5.118   7.808  0.0193 -0.5385 -0.3286
 6899TIP3    H242257   2.265   5.139   7.725 -0.3272  1.2518  0.6152
 6900TIP3   OH242258   4.056   6.008   0.856  0.2638  0.4476  0.5357
 6900TIP3    H142259   4.134   6.063   0.856  0.3890  0.3472 -2.0446
 6900TIP3    H242260   4.035   5.994   0.764 -1.3280 -1.6471  1.1242
 6901TIP3   OH242261   2.059   6.230   7.733  0.4315  0.0687 -0.3412
 6901TIP3    H142262   2.127   6.295   7.754 -0.7948  0.8499  1.4487
 6901TIP3    H242263   2.056   6.229   7.637  2.3625  0.6417 -0.4515
 6902TIP3   OH242264   0.813   4.455   7.328  0.1191 -0.3933  0.1984
 6902TIP3    H142265   0.749   4.401   7.374  0.9611 -1.0106  0.6704
 6902TIP3    H242266   0.777   4.464   7.239 -0.5456 -0.8478  0.4141
 6903TIP3   OH242267   1.406   6.195   1.276 -0.2531 -0.2584 -0.2571
 6903TIP3    H142268   1.435   6.124   1.219 -1.3791 -0.9643  0.0310
 6903TIP3    H242269   1.442   6.173   1.362  0.2082  0.0414 -0.3661
 6904TIP3   OH242270   6.583   6.611   7.643  0.0896  0.5789  0.0399
 6904TIP3    H142271   6.599   6.527   7.686  1.4534  1.8826  2.3095
 6904TIP3    H242272   6.565   6.671   7.715  0.1638  2.4448 -1.4280
 6905TIP3   OH242273   3.844   2.645   1.546 -0.3166 -0.0113 -0.2868
 6905TIP3    H142274   3.833   2.554   1.518 -1.2282  0.4728 -1.5728
 6905TIP3    H242275   3.786   2.653   1.622  1.6198 -1.1264  1.4159
 6906TIP3   OH242276   6.832   0.643   7.716  0.3739 -0.2368 -0.1579
 6906TIP3    H142277   6.840   0.733   7.745  1.0160 -0.5194  0.5959
 6906TIP3    H242278   6.810   0.649   7.623  1.3607  0.6937 -0.3478
 6907TIP3   OH242279   3.183   5.558   2.238 -0.1829 -0.3391  0.3598
 6907TIP3    H142280   3.225   5.560   2.152  1.4757 -2.6603  1.0237
 6907TIP3    H242281   3.225   5.628   2.287 -0.7959  0.6809 -0.5189
 6908TIP3   OH242282   0.025   6.021   0.561 -0.4982  0.1360  0.0332
 6908TIP3    H142283   0.025   5.967   0.640  1.8426  2.1963  1.5994
 6908TIP3    H242284   0.118   6.029   0.538 -0.9915  1.2063 -1.7780
 6909TIP3   OH242285   4.454   1.090   0.938 -0.6680 -0.5064  0.1822
 6909TIP3    H142286   4.388   1.062   0.874 -1.1667  0.6729  0.1564
 6909TIP3    H242287   4.532   1.039   0.915 -0.9411 -0.3747 -1.1534
 6910TIP3   OH242288   5.514   6.190   2.135  0.5296 -0.4474  0.1665
 6910TIP3    H142289   5.437   6.139   2.110  1.2917 -1.9191  0.7195
 6910TIP3    H242290   5.484   6.247   2.205 -1.3205  2.7867 -2.9080
 6911TIP3   OH242291   2.569   3.937   2.068  0.2896 -0.4081 -0.2581
 6911TIP3    H142292   2.607   4.020   2.040  1.1059 -0.9133 -0.6598
 6911TIP3    H242293   2.644   3.880   2.084 -0.2902 -1.3997 -1.0091
 6912TIP3   OH242294   3.643   4.391   7.207  0.3454  0.5917 -0.1639
 6912TIP3    H142295   3.604   4.342   7.279 -0.8155 -0.5796 -1.5352
 6912TIP3    H242296   3.657   4.326   7.138  0.6463  1.8098 -1.2987
 6913TIP3   OH242297   0.307   6.371   7.718 -0.2501  0.5510 -0.2837
 6913TIP3    H142298   0.213   6.380   7.698 -0.1691  1.9449 -0.0913
 6913TIP3    H242299   0.312   6.377   7.813 -0.3441 -3.4616  0.1366
 6914TIP3   OH242300   4.727   5.284   7.567  0.4294  0.1064  0.2316
 6914TIP3    H142301   4.774   5.203   7.586  1.8032  0.7381 -0.3924
 6914TIP3    H242302   4.784   5.332   7.508  0.3203  2.1898  1.7327
 6915TIP3   OH242303   3.603   1.708   7.344  0.3672 -0.1916 -0.4498
 6915TIP3    H142304   3.540   1.777   7.323 -0.1925 -0.5886 -0.1128
 6915TIP3    H242305   3.683   1.755   7.367 -0.9007  0.5683  3.0141
 6916TIP3   OH242306   4.361   5.388   0.254 -0.1655  0.3016  0.2597
 6916TIP3    H142307   4.281   5.336   0.262 -1.3197  1.8597 -0.5098
 6916TIP3    H242308   4.366   5.437   0.336  0.5313 -0.4740  0.6917
 6917TIP3   OH242309   3.638   6.695   1.531  0.0968 -0.0395  0.0349
 6917TIP3    H142310   3.561   6.718   1.584 -0.0369  0.9658 -0.5690
 6917TIP3    H242311   3.710   6.745   1.570  0.5474 -1.2415  0.8136
 6918TIP3   OH242312   0.437   4.629   1.327 -0.1092  0.6436 -0.2677
 6918TIP3    H142313   0.492   4.551   1.336  0.9401  1.5678  2.5627
 6918TIP3    H242314   0.353   4.605   1.365  1.0057  1.4595  3.0907
 6919TIP3   OH242315   4.511   1.038   0.263 -0.0843 -0.3784  0.0017
 6919TIP3    H142316   4.577   0.982   0.223  0.6423  0.6205 -0.2569
 6919TIP3    H242317   4.556   1.122   0.277 -0.2898 -0.6661  2.9422
 6920TIP3   OH242318   6.633   5.457   7.617 -0.4451 -0.0051 -0.3787
 6920TIP3    H142319   6.665   5.380   7.664 -0.7592  0.2322  0.2255
 6920TIP3    H242320   6.563   5.424   7.561 -0.9832 -0.0636  0.3180
 6921TIP3   OH242321   3.801   2.874   1.395  0.1428  0.5942 -0.6245
 6921TIP3    H142322   3.825   2.927   1.470  0.1365 -1.1248  0.6539
 6921TIP3    H242323   3.821   2.784   1.422  0.2018 -0.0702 -2.7052
 6922TIP3   OH242324   1.830   6.293   7.441  0.4462 -0.1105  1.0996
 6922TIP3    H142325   1.737   6.307   7.426  0.2396 -2.4189 -0.2627
 6922TIP3    H242326   1.869   6.380   7.440 -1.3895  0.7395 -0.5039
 6923TIP3   OH242327   2.734   6.752   6.794 -0.2292  0.0559  0.0047
 6923TIP3    H142328   2.649   6.794   6.777  0.4936  2.0420  0.9796
 6923TIP3    H242329   2.759   6.784   6.880  0.9888 -1.4663  0.2554
 6924TIP3   OH242330   5.984   1.826   0.170  0.1810  0.5724 -0.1494
 6924TIP3    H142331   5.927   1.769   0.119  0.2976  0.4109 -0.0993
 6924TIP3    H242332   5.932   1.904   0.185 -0.5022 -0.0747  0.9746
 6925TIP3   OH242333   2.975   1.886   1.287 -1.0364 -0.0325  0.1009
 6925TIP3    H142334   3.037   1.923   1.224 -1.1531 -0.2290 -0.1289
 6925TIP3    H242335   2.963   1.955   1.352  0.0666 -0.2986  0.6051
 6926TIP3   OH242336   1.845   5.047   8.542 -0.4987  0.3392 -0.2514
 6926TIP3    H142337   1.825   4.954   8.534  0.3757  0.2259 -1.3596
 6926TIP3    H242338   1.928   5.058   8.495 -1.1019  1.8544 -1.0267
 6927TIP3   OH242339   2.087   4.423   8.260 -0.1541  0.0835  0.5201
 6927TIP3    H142340   2.129   4.356   8.207  2.6355  2.3909 -0.4357
 6927TIP3    H242341   1.994   4.404   8.254  0.3576 -2.1947 -1.7269
 6928TIP3   OH242342   3.447   4.690   7.522 -0.3966  0.1086 -0.1521
 6928TIP3    H142343   3.402   4.623   7.572 -2.2578  1.5988  0.2440
 6928TIP3    H242344   3.397   4.698   7.441 -1.0264  1.9038  0.3619
 6929TIP3   OH242345   5.644   0.474   1.261 -0.5735  0.2026 -0.6542
 6929TIP3    H142346   5.637   0.567   1.238  0.1486 -0.1204 -2.3514
 6929TIP3    H242347   5.726   0.446   1.221  1.3712 -0.2846  3.2072
 6930TIP3   OH242348   0.268   6.180   1.106 -0.0552  0.2593  0.5206
 6930TIP3    H142349   0.340   6.241   1.088 -0.4639  0.8360  0.8115
 6930TIP3    H242350   0.308   6.094   1.100  0.3649  0.5090 -0.7281
 6931TIP3   OH242351   4.457   4.172   0.577  0.4676 -0.6238  0.9210
 6931TIP3    H142352   4.430   4.264   0.582 -0.2180 -0.7780  0.2156
 6931TIP3    H242353   4.524   4.170   0.508  0.2054 -0.7109  0.6660
 6932TIP3   OH242354   5.115   5.095   0.991 -0.0459 -0.3218  0.0391
 6932TIP3    H142355   5.053   5.100   1.064  0.5901  1.1225  0.4995
 6932TIP3    H242356   5.159   5.011   1.003 -1.0245 -0.7955  0.4162
 6933TIP3   OH242357   4.624   4.423   0.352 -0.3005 -0.7092  0.6997
 6933TIP3    H142358   4.655   4.513   0.344  1.0336 -1.3114 -2.4227
 6933TIP3    H242359   4.532   4.426   0.330  0.2150 -0.3159 -1.6008
 6934TIP3   OH242360   0.487   3.490   0.054  0.7332  0.7122 -0.1197
 6934TIP3    H142361   0.455   3.414   0.007  1.4859  0.8915 -0.9592
 6934TIP3    H242362   0.411   3.548   0.062 -0.0869 -0.5006  1.3817
 6935TIP3   OH242363   5.413   3.962   7.529 -0.6153  0.3482 -0.8539
 6935TIP3    H142364   5.464   3.942   7.608 -1.6355 -0.3833 -0.3621
 6935TIP3    H242365   5.392   4.055   7.537 -0.5854  0.3133 -0.3396
 6936TIP3   OH242366   4.301   3.302   5.898  0.2964  0.6360 -0.4041
 6936TIP3    H142367   4.316   3.334   5.987 -0.9242 -0.3249  0.1726
 6936TIP3    H242368   4.379   3.329   5.850  0.6555  1.8178  0.7639
 6937TIP3   OH242369   2.890   3.939   7.214 -0.0725 -1.2820 -0.6371
 6937TIP3    H142370   2.866   3.854   7.176 -0.7327 -0.5634 -1.9147
 6937TIP3    H242371   2.832   4.001   7.170  1.8367  0.1031 -1.3326
 6938TIP3   OH242372   4.265   1.115   1.478  0.0589 -0.1253 -0.3499
 6938TIP3    H142373   4.287   1.169   1.402  0.7750  0.6072  0.3594
 6938TIP3    H242374   4.254   1.178   1.550 -3.0410 -0.5472 -0.3266
 6939TIP3   OH242375   3.831   4.941   6.346 -0.5511 -0.6090 -0.4132
 6939TIP3    H142376   3.756   4.884   6.364 -2.5570  1.6280 -1.2248
 6939TIP3    H242377   3.799   5.030   6.360  1.6969  0.5096 -1.6788
 6940TIP3   OH242378   1.542   4.327   0.672 -0.1381  0.2511  0.0664
 6940TIP3    H142379   1.469   4.389   0.669 -1.5385 -1.3330 -0.3384
 6940TIP3    H242380   1.529   4.279   0.754 -1.8973 -2.6318 -1.7142
 6941TIP3   OH242381   6.878   6.721   0.306 -0.0734 -0.2187  0.2555
 6941TIP3    H142382   6.885   6.807   0.347 -0.2118 -0.1834  0.2020
 6941TIP3    H242383   6.890   6.660   0.379 -2.1700 -0.1700  0.6848
 6942TIP3   OH242384   3.166   6.727   7.923 -0.2091 -0.5516  0.5188
 6942TIP3    H142385   3.211   6.799   7.968  1.2769 -2.1244  1.6755
 6942TIP3    H242386   3.197   6.732   7.833  0.5888 -0.2578  0.7939
 6943TIP3   OH242387   1.213   2.042   8.013  0.4612  0.9032  0.1607
 6943TIP3    H142388   1.202   1.981   7.939 -0.4226 -0.1198  1.1002
 6943TIP3    H242389   1.306   2.036   8.035  0.3992 -0.1084  0.2125
 6944TIP3   OH242390   4.924   0.081   7.131 -0.1592  0.3239  0.3392
 6944TIP3    H142391   4.874   0.150   7.088 -1.2730 -0.8129 -0.2865
 6944TIP3    H242392   4.858   0.016   7.155  0.7816 -0.2640  1.4190
 6945TIP3   OH242393   0.652   0.739   8.166  0.1205  0.5579 -0.3094
 6945TIP3    H142394   0.674   0.647   8.170  1.3583  0.8752  0.7154
 6945TIP3    H242395   0.605   0.756   8.248 -1.6666  0.4813 -1.2694
 6946TIP3   OH242396   5.062   3.456   7.903 -0.2630 -0.0997  0.4411
 6946TIP3    H142397   4.970   3.461   7.877 -0.2039  1.0827  0.3748
 6946TIP3    H242398   5.062   3.409   7.986 -0.8294 -0.8373  0.0316
 6947TIP3   OH242399   2.663   3.816   1.039 -0.2920 -0.3976 -0.3157
 6947TIP3    H142400   2.705   3.753   0.980  2.0163  0.2479  0.5249
 6947TIP3    H242401   2.681   3.782   1.127 -0.7792  0.3712  0.0904
 6948TIP3   OH242402   5.290   5.019   0.109 -0.0191  0.0927  0.6880
 6948TIP3    H142403   5.349   5.026   0.184  0.0303 -0.6001  0.7174
 6948TIP3    H242404   5.236   4.942   0.127 -1.9302  1.5104  1.3576
 6949TIP3   OH242405   1.004   6.502   7.668 -0.2117  0.2444  0.4122
 6949TIP3    H142406   0.942   6.531   7.601 -1.5675 -1.9526  0.6298
 6949TIP3    H242407   1.053   6.581   7.691 -2.6939  2.0146  0.0008
 6950TIP3   OH242408   2.497   0.650   7.910  0.5437  0.0299  0.2999
 6950TIP3    H142409   2.431   0.701   7.864  0.3116 -0.2798  0.2822
 6950TIP3    H242410   2.506   0.692   7.995  0.4417  0.1699  0.2412
 6951TIP3   OH242411   1.187   5.428   1.684  0.0641  0.0471 -0.4921
 6951TIP3    H142412   1.146   5.403   1.601  1.2111 -0.9339 -0.7924
 6951TIP3    H242413   1.176   5.352   1.740  0.6157  0.1404 -0.2514
 6952TIP3   OH242414   5.897   1.576   0.986  0.3072 -0.0446 -0.1503
 6952TIP3    H142415   5.858   1.627   0.916 -0.3317 -0.2093  0.0792
 6952TIP3    H242416   5.990   1.570   0.963  0.9988  3.4424  1.1404
 6953TIP3   OH242417   1.899   0.640   7.797  0.3861  0.1797 -0.2928
 6953TIP3    H142418   1.925   0.614   7.886 -1.1659 -0.2774  0.0639
 6953TIP3    H242419   1.942   0.577   7.740  0.3233 -0.3679  0.2483
 6954TIP3   OH242420   2.746   5.906   7.231  0.5080  0.1100  0.2924
 6954TIP3    H142421   2.740   5.856   7.313  1.2346  0.9233  0.8583
 6954TIP3    H242422   2.717   5.845   7.164  1.5724 -1.1512  0.9342
 6955TIP3   OH242423   5.041   5.519   1.399 -0.7083  0.1978 -0.8674
 6955TIP3    H142424   4.975   5.450   1.394  0.3656 -0.9504  0.1544
 6955TIP3    H242425   5.088   5.501   1.481  1.0705  0.7889 -1.7218
 6956TIP3   OH242426   0.433   0.299   7.663  0.9275 -0.2443 -0.1869
 6956TIP3    H142427   0.422   0.204   7.660 -0.3270 -0.1522  0.5739
 6956TIP3    H242428   0.463   0.318   7.752 -0.2221  0.1618  0.1405
 6957TIP3   OH242429   2.124   1.198   8.200  0.0656 -0.2179  0.1736
 6957TIP3    H142430   2.082   1.128   8.152 -1.9480  0.7529  0.4274
 6957TIP3    H242431   2.097   1.185   8.291  1.1642 -0.1587  0.5217
 6958TIP3   OH242432   2.230   2.601   0.604 -0.1830 -0.0039  0.1212
 6958TIP3    H142433   2.249   2.653   0.525 -1.4431  0.3982  0.0648
 6958TIP3    H242434   2.236   2.663   0.676 -0.2626 -0.1011  0.2123
 6959TIP3   OH242435   0.438   6.793   0.949  0.1902  0.2266  0.3518
 6959TIP3    H142436   0.409   6.847   1.022  0.6012  0.8629  0.0531
 6959TIP3    H242437   0.502   6.733   0.986  0.4803  0.6232  0.4985
 6960TIP3   OH242438   0.909   5.828   2.409 -0.5447  0.0211 -0.1454
 6960TIP3    H142439   0.939   5.747   2.450 -0.4658  0.7301  1.2815
 6960TIP3    H242440   0.815   5.829   2.425 -0.8756 -0.6824 -1.8496
 6961TIP3   OH242441   5.868   4.179   1.984  0.0727 -0.5624  0.3297
 6961TIP3    H142442   5.890   4.107   1.925  0.3929 -0.3538  0.1894
 6961TIP3    H242443   5.919   4.162   2.063  0.3387 -0.3590  0.2031
 6962TIP3   OH242444   6.192   1.165   0.503 -0.0106  0.3177 -0.2141
 6962TIP3    H142445   6.151   1.079   0.500  0.4031  0.1169 -0.2078
 6962TIP3    H242446   6.227   1.172   0.592 -0.7127  0.8103  0.0277
 6963TIP3   OH242447   5.020   4.100   1.666 -0.1257  0.7335 -0.3345
 6963TIP3    H142448   5.108   4.061   1.670 -1.0581 -1.5589 -0.7431
 6963TIP3    H242449   4.967   4.035   1.620 -1.8517  2.4991 -0.9806
 6964TIP3   OH242450   4.057   5.686   8.461 -0.1066 -0.9862 -0.0988
 6964TIP3    H142451   3.966   5.715   8.461 -0.1356 -0.9434 -2.2231
 6964TIP3    H242452   4.108   5.766   8.446  0.2846 -1.0665  0.7179
 6965TIP3   OH242453   1.391   3.945   6.846 -0.0120  0.2485  0.1101
 6965TIP3    H142454   1.421   3.897   6.923 -0.0786  0.3621  0.2065
 6965TIP3    H242455   1.427   3.896   6.772  0.9109  0.7178  0.2380
 6966TIP3   OH242456   5.945   1.347   8.457 -0.3702 -0.2540  0.0292
 6966TIP3    H142457   5.882   1.328   8.387 -0.7343 -0.4632  0.4076
 6966TIP3    H242458   5.978   1.261   8.483 -0.0684 -0.1580 -0.0390
 6967TIP3   OH242459   6.597   2.328   1.600  0.2651 -0.3991 -0.2552
 6967TIP3    H142460   6.602   2.383   1.679 -1.9670  2.2190 -1.7361
 6967TIP3    H242461   6.535   2.258   1.624 -1.4837  1.1535  0.0161
 6968TIP3   OH242462   3.120   1.663   1.437 -0.2918 -0.5783  0.0088
 6968TIP3    H142463   3.097   1.739   1.383  1.3332  1.1153  1.5310
 6968TIP3    H242464   3.066   1.673   1.516  0.7392 -0.3400  0.6992
 6969TIP3   OH242465   2.043   3.953   2.030  0.1021 -0.1042  0.2159
 6969TIP3    H142466   2.124   3.989   2.066 -0.2816 -0.0195  1.0152
 6969TIP3    H242467   2.019   3.883   2.091 -0.4230 -0.1231 -0.0079
 6970TIP3   OH242468   2.166   2.397   1.283  0.1247 -0.2612 -0.0572
 6970TIP3    H142469   2.212   2.458   1.340  1.0506  0.3590 -1.3941
 6970TIP3    H242470   2.183   2.430   1.194 -0.8341 -1.4592 -0.7210
 6971TIP3   OH242471   6.116   4.677   8.171  0.2031 -0.2680 -0.2246
 6971TIP3    H142472   6.199   4.704   8.211  0.3498  1.2301 -1.4251
 6971TIP3    H242473   6.051   4.735   8.209  0.2051  0.5659 -1.4224
 6972TIP3   OH242474   0.141   6.333   0.238 -0.0373 -0.2201 -0.2836
 6972TIP3    H142475   0.108   6.421   0.219 -2.0192 -1.2262 -1.8655
 6972TIP3    H242476   0.136   6.325   0.333  0.4689  1.4519 -0.0866
 6973TIP3   OH242477   3.220   4.605   6.348 -0.2159  0.4627  0.1078
 6973TIP3    H142478   3.274   4.684   6.343 -2.0975  1.8218  0.3849
 6973TIP3    H242479   3.220   4.570   6.259  1.4927  0.1267  0.2047
 6974TIP3   OH242480   0.327   6.525   1.465 -0.2601  0.0125  0.3896
 6974TIP3    H142481   0.414   6.508   1.499  0.2497 -1.0126 -1.2777
 6974TIP3    H242482   0.277   6.447   1.487 -0.2719 -0.1247 -0.1143
 6975TIP3   OH242483   5.519   4.113   1.716  0.4288 -0.0113 -0.1752
 6975TIP3    H142484   5.453   4.154   1.773 -0.9062 -0.7602 -1.1285
 6975TIP3    H242485   5.598   4.166   1.730 -0.8021  1.9594 -0.2195
 6976TIP3   OH242486   4.859   4.253   7.272 -0.2136  0.6432 -0.2845
 6976TIP3    H142487   4.785   4.193   7.268 -0.3065  0.8021 -1.1310
 6976TIP3    H242488   4.819   4.339   7.288 -0.0459  0.4272  1.4245
 6977TIP3   OH242489   3.920   2.262   7.089 -0.3944  0.2382  0.3717
 6977TIP3    H142490   3.828   2.273   7.115 -0.2721 -0.5549  1.2033
 6977TIP3    H242491   3.951   2.190   7.144  0.3898 -0.3060 -0.7676
 6978TIP3   OH242492   6.655   2.797   0.603  0.2965  0.1961 -0.2523
 6978TIP3    H142493   6.670   2.811   0.509  0.9886  0.6230 -0.0854
 6978TIP3    H242494   6.742   2.799   0.642  0.0752 -0.6182  0.3281
 6979TIP3   OH242495   0.112   5.976   7.471  0.4977 -0.2971  0.3021
 6979TIP3    H142496   0.170   6.031   7.525 -0.0804 -0.2392  0.8743
 6979TIP3    H242497   0.107   6.022   7.387  0.0283  0.5283  0.7696
 6980TIP3   OH242498   0.576   0.864   0.417  0.2002 -0.5360  0.3319
 6980TIP3    H142499   0.484   0.847   0.437  0.4445 -2.2973  0.1647
 6980TIP3    H242500   0.621   0.855   0.501  0.4273 -1.5921  0.1189
 6981TIP3   OH242501   1.255   5.235   0.606  0.3232 -0.2154  0.5220
 6981TIP3    H142502   1.208   5.205   0.684  1.7003 -2.6928  0.5114
 6981TIP3    H242503   1.335   5.274   0.640 -1.1302  3.1589  0.4873
 6982TIP3   OH242504   5.257   4.400   7.889  0.0390 -0.1458  0.0936
 6982TIP3    H142505   5.299   4.480   7.858  0.3295 -0.0567  0.6973
 6982TIP3    H242506   5.329   4.342   7.911 -0.1666 -0.4109  0.0710
 6983TIP3   OH242507   4.334   3.582   2.238 -0.1523 -0.1635  0.2807
 6983TIP3    H142508   4.239   3.590   2.232  0.0626  1.7675 -1.2255
 6983TIP3    H242509   4.368   3.665   2.206  2.0688 -0.8693  0.6243
 6984TIP3   OH242510   5.641   0.278   8.017 -0.1477 -0.4534 -0.2442
 6984TIP3    H142511   5.553   0.279   7.977  0.0987 -1.0456 -0.8316
 6984TIP3    H242512   5.700   0.270   7.942  0.5126  1.3889  0.0280
 6985TIP3   OH242513   2.370   0.479   7.413 -0.1584 -0.2531 -0.2112
 6985TIP3    H142514   2.304   0.419   7.447  1.1353 -0.6151  1.7977
 6985TIP3    H242515   2.430   0.422   7.364 -2.2206  0.3049 -3.7987
 6986TIP3   OH242516   4.281   2.028   7.849 -0.8140 -0.0870  0.1694
 6986TIP3    H142517   4.296   2.030   7.943 -1.2032  1.9035  0.2208
 6986TIP3    H242518   4.369   2.018   7.811 -0.6658 -0.9823  0.7156
 6987TIP3   OH242519   2.134   4.376   0.845  0.0490  0.5394  1.1033
 6987TIP3    H142520   2.208   4.316   0.836 -0.1031  0.3423  1.1582
 6987TIP3    H242521   2.174   4.461   0.866  0.4416  0.9834 -1.1038
 6988TIP3   OH242522   5.294   3.600   0.382 -0.2483 -0.6404  0.3009
 6988TIP3    H142523   5.338   3.526   0.424 -1.9291  0.2370  3.9476
 6988TIP3    H242524   5.339   3.677   0.417 -0.8169  0.1373 -0.6355
 6989TIP3   OH242525   5.747   5.071   1.604  0.1420 -0.2853 -0.6351
 6989TIP3    H142526   5.742   5.141   1.669  1.6573  0.3831 -1.1878
 6989TIP3    H242527   5.838   5.040   1.608  0.0050 -0.9025 -1.7269
 6990TIP3   OH242528   1.622   2.081   7.792 -0.3077 -0.3755  0.3410
 6990TIP3    H142529   1.556   2.137   7.834  0.1932 -0.7701  1.6903
 6990TIP3    H242530   1.692   2.075   7.856  2.0306  1.7237 -1.8175
 6991TIP3   OH242531   2.351   0.183   7.262 -0.4097  0.4078 -0.6193
 6991TIP3    H142532   2.305   0.140   7.190  0.9393  3.4362 -3.5703
 6991TIP3    H242533   2.428   0.129   7.278 -0.5193 -0.1228 -1.7825
 6992TIP3   OH242534   6.839   4.715   6.983  0.0836  0.3913 -0.1416
 6992TIP3    H142535   6.755   4.759   6.973 -0.1662 -0.2376 -0.9584
 6992TIP3    H242536   6.898   4.762   6.924 -0.4255 -0.9007 -1.7931
 6993TIP3   OH242537   6.219   0.207   7.658  0.0753 -0.2997 -0.3286
 6993TIP3    H142538   6.153   0.150   7.619  0.4775 -0.7413 -0.3674
 6993TIP3    H242539   6.194   0.295   7.631 -0.6021 -0.4488 -0.1937
 6994TIP3   OH242540   1.982   6.226   2.159 -0.7035  0.0674 -0.3204
 6994TIP3    H142541   1.954   6.246   2.248 -1.7404  1.8101 -0.9955
 6994TIP3    H242542   1.982   6.130   2.155 -0.1520 -0.0597  1.6767
 6995TIP3   OH242543   5.467   1.431   1.377 -0.2308 -0.3023 -0.3154
 6995TIP3    H142544   5.515   1.494   1.431  1.7514  0.0392 -2.3526
 6995TIP3    H242545   5.486   1.347   1.417  2.0523 -0.1637 -0.9605
 6996TIP3   OH242546   4.323   1.619   1.456  0.0963 -0.3771 -0.2582
 6996TIP3    H142547   4.347   1.581   1.372 -0.2650  0.5294 -0.7829
 6996TIP3    H242548   4.328   1.714   1.442  0.0832 -0.2107  0.7559
 6997TIP3   OH242549   1.821   1.871   7.008 -0.1283  0.8837  0.4336
 6997TIP3    H142550   1.726   1.857   7.009 -0.5762  3.2285 -1.2080
 6997TIP3    H242551   1.843   1.877   6.915  1.7734 -0.2760  0.7706
 6998TIP3   OH242552   5.784   5.308   1.237  0.0240 -0.3301  0.2299
 6998TIP3    H142553   5.765   5.351   1.154  0.2618  1.4000  1.0324
 6998TIP3    H242554   5.785   5.214   1.216 -0.5183  0.0356 -1.5752
 6999TIP3   OH242555   5.853   3.742   0.427  0.2578 -0.6362  0.3756
 6999TIP3    H142556   5.915   3.713   0.360 -0.1281 -1.4979  0.3852
 6999TIP3    H242557   5.782   3.678   0.424 -2.3047  2.0600 -1.8961
 7000TIP3   OH242558   4.630   3.771   8.301  0.3782  0.1369 -0.1281
 7000TIP3    H142559   4.571   3.758   8.376  2.0626  0.5942  1.3608
 7000TIP3    H242560   4.573   3.794   8.229 -1.2721  0.3940  1.2061
 7001TIP3   OH242561   4.866   2.265   0.453 -0.1105 -0.3131 -0.5587
 7001TIP3    H142562   4.953   2.290   0.422  0.9444 -0.5377  1.9806
 7001TIP3    H242563   4.861   2.301   0.542 -2.3083 -0.9982 -0.3456
 7002TIP3   OH242564   1.717   0.720   8.057  0.5932 -0.0216  0.1909
 7002TIP3    H142565   1.749   0.764   7.978  1.1794  0.0543  0.4667
 7002TIP3    H242566   1.721   0.788   8.125 -2.4696  0.7715 -0.2504
 7003TIP3   OH242567   0.105   6.309   0.496 -0.5647  0.0649  0.6054
 7003TIP3    H142568   0.192   6.302   0.536 -0.7217 -1.1749  0.7875
 7003TIP3    H242569   0.053   6.241   0.540 -1.9629  1.5296  1.2956
 7004TIP3   OH242570   0.188   3.500   7.827 -0.2931  0.3709  0.5504
 7004TIP3    H142571   0.209   3.547   7.747  3.1151  0.8609  1.5424
 7004TIP3    H242572   0.151   3.417   7.798  1.3753  0.3000 -1.5938
 7005TIP3   OH242573   1.862   2.260   0.367 -0.3887 -0.4447  0.2075
 7005TIP3    H142574   1.948   2.284   0.402 -0.2761  0.5089 -0.6714
 7005TIP3    H242575   1.824   2.203   0.434  1.3226 -1.7179  0.1684
 7006TIP3   OH242576   1.048   5.966   2.176 -0.3465  0.4347  0.7306
 7006TIP3    H142577   0.958   5.996   2.190  0.0019  1.3039  1.2038
 7006TIP3    H242578   1.087   5.966   2.263  0.3634  0.9254  0.4249
 7007TIP3   OH242579   3.383   1.670   8.231  0.3305 -0.1233  0.3720
 7007TIP3    H142580   3.436   1.663   8.151 -0.0043 -1.3397  0.2363
 7007TIP3    H242581   3.300   1.705   8.201 -0.5738 -2.5817 -0.2327
 7008TIP3   OH242582   2.939   2.733   7.221  0.6330 -0.2318  0.6067
 7008TIP3    H142583   2.928   2.649   7.177  0.3890  0.4572 -0.6920
 7008TIP3    H242584   3.026   2.762   7.195  1.6146 -1.0066  2.7459
 7009TIP3   OH242585   1.991   5.323   1.431  0.4798  0.1148  0.4546
 7009TIP3    H142586   1.898   5.342   1.444 -0.1051 -1.9476 -0.3135
 7009TIP3    H242587   1.999   5.230   1.449  2.0499 -0.1377 -1.2245
 7010TIP3   OH242588   5.572   4.725   1.116  0.2475 -0.4202 -0.2482
 7010TIP3    H142589   5.624   4.804   1.102 -0.8429  0.4065  0.1783
 7010TIP3    H242590   5.636   4.656   1.133  1.1862  0.5829  0.3977
 7011TIP3   OH242591   0.541   4.524   1.594  0.0368 -0.0477 -0.1583
 7011TIP3    H142592   0.547   4.616   1.569 -0.6246 -0.7803 -3.3710
 7011TIP3    H242593   0.488   4.525   1.674  0.8062  2.3850  0.4134
 7012TIP3   OH242594   1.045   4.722   2.787 -0.4551  0.5001 -0.1593
 7012TIP3    H142595   1.012   4.644   2.741 -0.2658 -0.3410  1.0898
 7012TIP3    H242596   1.140   4.715   2.778 -0.4612  2.2304 -2.6313
 7013TIP3   OH242597   2.324   6.036   8.540 -0.2275  0.0500 -0.2485
 7013TIP3    H142598   2.280   6.110   8.582 -0.6594 -0.4796  0.2578
 7013TIP3    H242599   2.338   6.065   8.450 -0.4106  0.7400 -0.0660
 7014TIP3   OH242600   1.479   1.859   0.791  0.3832  0.1829 -0.0600
 7014TIP3    H142601   1.504   1.776   0.749 -0.0643  0.3791 -0.7213
 7014TIP3    H242602   1.562   1.894   0.823  0.4123 -1.2464  1.6146
 7015TIP3   OH242603   3.500   2.929   0.786  0.7736 -0.5852  0.4084
 7015TIP3    H142604   3.432   2.876   0.827  1.9103 -3.1247 -0.7709
 7015TIP3    H242605   3.575   2.922   0.846  0.8830 -0.1124  0.3324
 7016TIP3   OH242606   0.858   2.597   0.565  0.4018  0.4012 -0.3483
 7016TIP3    H142607   0.845   2.518   0.617 -0.7504 -0.8082 -2.3726
 7016TIP3    H242608   0.770   2.625   0.541  0.7521  2.6250  0.6964
 7017TIP3   OH242609   6.899   1.669   0.569  0.2692 -0.2495 -0.2782
 7017TIP3    H142610   6.982   1.622   0.573  1.4843  1.6583 -1.4283
 7017TIP3    H242611   6.909   1.729   0.495 -1.7304  0.8196  0.2488
 7018TIP3   OH242612   4.484   1.021   7.526 -0.2484  0.0098 -0.3635
 7018TIP3    H142613   4.513   0.968   7.601  1.5991  1.5209  0.0436
 7018TIP3    H242614   4.508   0.969   7.449  3.1827  0.8861 -0.0352
 7019TIP3   OH242615   0.629   1.895   1.300 -0.1352  0.4033 -0.0776
 7019TIP3    H142616   0.651   1.983   1.269  2.9220 -0.4445 -0.6485
 7019TIP3    H242617   0.626   1.904   1.396  0.4644  1.0993 -0.1085
 7020TIP3   OH242618   3.512   4.344   0.051  0.0843  0.0747  0.2874
 7020TIP3    H142619   3.483   4.313  -0.034 -1.3010 -0.9912  1.0997
 7020TIP3    H242620   3.501   4.269   0.109 -1.0021  1.3559  1.8251
 7021TIP3   OH242621   6.207   5.104   6.423  0.1674  0.4135 -0.0725
 7021TIP3    H142622   6.230   5.055   6.502 -1.4409  1.3167  1.0332
 7021TIP3    H242623   6.153   5.176   6.455  0.0366  1.2084 -1.9516
 7022TIP3   OH242624   4.788   5.900   0.947  0.2405 -0.4660 -0.2952
 7022TIP3    H142625   4.718   5.838   0.927  0.6212 -1.4251  1.1501
 7022TIP3    H242626   4.742   5.976   0.985 -0.0552 -1.1101  0.6930
 7023TIP3   OH242627   4.315   4.116   1.787 -0.2659 -0.2080  0.6651
 7023TIP3    H142628   4.395   4.092   1.832  0.1445  1.2895  0.8025
 7023TIP3    H242629   4.293   4.040   1.733  3.9612  0.8403 -3.2263
 7024TIP3   OH242630   5.769   3.117   6.966  0.5297 -0.2936  0.2025
 7024TIP3    H142631   5.692   3.142   6.915  2.4425 -0.1392 -2.8740
 7024TIP3    H242632   5.797   3.197   7.010  0.3753  0.2869 -0.7415
 7025TIP3   OH242633   0.627   2.728   6.645 -0.3971 -0.2244 -0.0310
 7025TIP3    H142634   0.611   2.820   6.624  0.6116  0.1220  0.6570
 7025TIP3    H242635   0.690   2.699   6.579 -2.9047 -1.3149 -2.1358
 7026TIP3   OH242636   5.613   1.021   1.327 -0.2046 -0.0185  0.4234
 7026TIP3    H142637   5.600   0.994   1.236 -0.8771  0.1111  0.4711
 7026TIP3    H242638   5.625   0.939   1.375  1.2105 -0.0406  0.0777
 7027TIP3   OH242639   0.061   1.174   7.148  0.3808  0.6573 -0.7297
 7027TIP3    H142640   0.036   1.173   7.056 -0.7376  0.4617 -0.4372
 7027TIP3    H242641   0.031   1.090   7.183 -2.5769  2.1332  0.6404
 7028TIP3   OH242642   0.919   1.903   6.966 -0.2670 -0.2826 -0.4807
 7028TIP3    H142643   1.013   1.886   6.960  0.0304  1.3238 -0.8089
 7028TIP3    H242644   0.889   1.846   7.038  1.0903 -0.2715  0.1250
 7029TIP3   OH242645   2.043   4.573   7.872  1.2813  0.2755  0.7971
 7029TIP3    H142646   2.134   4.604   7.864  0.0882  3.8995 -2.8615
 7029TIP3    H242647   2.018   4.551   7.782 -1.6644  0.1118  1.5650
 7030TIP3   OH242648   1.261   2.938   6.299  0.3642 -0.7406  0.0662
 7030TIP3    H142649   1.332   2.953   6.237 -0.3386  1.8038 -0.2244
 7030TIP3    H242650   1.269   3.009   6.362 -1.0704 -1.2572  0.8790
 7031TIP3   OH242651   0.568   5.174   6.967 -0.3463  0.0893  0.6283
 7031TIP3    H142652   0.508   5.106   6.936  0.9464 -0.6066 -0.4172
 7031TIP3    H242653   0.613   5.205   6.889 -0.3070  1.6019  1.2061
 7032TIP3   OH242654   4.553   0.423   8.006  0.0336  0.2259  0.5800
 7032TIP3    H142655   4.626   0.466   8.050 -0.6539  1.2538  0.7428
 7032TIP3    H242656   4.573   0.432   7.913 -0.1021  0.9072  0.6130
 7033TIP3   OH242657   1.152   5.932   2.433  0.0348 -0.8558  0.6411
 7033TIP3    H142658   1.144   5.986   2.512  1.2862 -1.4526  1.1912
 7033TIP3    H242659   1.070   5.883   2.430 -0.6785  0.2958  0.7098
 7034TIP3   OH242660   6.613   3.894   7.630  0.7891  0.5001  0.2621
 7034TIP3    H142661   6.621   3.987   7.607 -0.1426  0.2296 -1.2472
 7034TIP3    H242662   6.613   3.848   7.546 -0.2045 -0.7488  0.9120
 7035TIP3   OH242663   5.214   1.040   1.033  0.0033  0.4621 -0.8347
 7035TIP3    H142664   5.269   1.077   1.102 -0.0000 -0.1185 -0.5121
 7035TIP3    H242665   5.134   1.093   1.036 -0.2468  0.0619  0.0288
 7036TIP3   OH242666   5.686   3.167   0.445 -0.7534 -0.0794  0.4245
 7036TIP3    H142667   5.667   3.094   0.505 -1.2559  0.9623  1.5690
 7036TIP3    H242668   5.773   3.197   0.471 -0.1795 -0.7594 -0.6003
 7037TIP3   OH242669   3.616   1.414   1.316 -0.0429  0.1586  0.0605
 7037TIP3    H142670   3.635   1.464   1.395 -0.2934  0.3311  0.0132
 7037TIP3    H242671   3.698   1.370   1.295  0.3259  0.9303 -0.1655
 7038TIP3   OH242672   2.410   6.589   7.322  0.3121  0.4743  0.3866
 7038TIP3    H142673   2.364   6.521   7.275 -0.5725  0.6639  0.9623
 7038TIP3    H242674   2.494   6.549   7.345  0.0351 -0.2218  0.2204
 7039TIP3   OH242675   0.777   5.549   0.094  0.2004 -0.0521  0.5546
 7039TIP3    H142676   0.823   5.508   0.167 -0.2804 -1.9354 -0.1432
 7039TIP3    H242677   0.688   5.565   0.127 -0.3162 -1.8040  0.1677
 7040TIP3   OH242678   2.286   3.770   0.907  0.5181 -1.1100 -0.6419
 7040TIP3    H142679   2.325   3.719   0.978  1.7068 -1.1412 -1.2929
 7040TIP3    H242680   2.354   3.773   0.839  0.4303  1.1414 -0.7223
 7041TIP3   OH242681   1.486   6.391   7.947  0.8306 -0.5872 -0.4331
 7041TIP3    H142682   1.498   6.484   7.964  0.6990 -0.6154 -0.1672
 7041TIP3    H242683   1.489   6.382   7.852 -1.3570  0.0170 -0.6205
 7042TIP3   OH242684   1.513   0.906   1.853 -0.1695 -0.0612  0.3194
 7042TIP3    H142685   1.520   0.823   1.901  0.0814  0.1975  0.7384
 7042TIP3    H242686   1.590   0.955   1.881 -0.0845  0.1407 -0.2660
 7043TIP3   OH242687   3.874   1.319   1.266 -0.0648  0.4230  0.0576
 7043TIP3    H142688   3.907   1.280   1.184  0.4142 -1.4680  1.0834
 7043TIP3    H242689   3.943   1.380   1.292  0.5601 -0.1715 -0.1333
 7044TIP3   OH242690   4.097   1.108   8.171  0.2909 -0.7281 -0.5523
 7044TIP3    H142691   4.126   1.074   8.256 -0.6948 -0.5005 -0.1194
 7044TIP3    H242692   4.053   1.034   8.129 -0.9111 -0.3212 -0.0534
 7045TIP3   OH242693   0.201   2.565   6.095  0.1626  0.6967  0.0455
 7045TIP3    H142694   0.164   2.647   6.062 -0.4902  0.9479  1.3374
 7045TIP3    H242695   0.291   2.565   6.061 -0.4922  0.8540 -1.7962
 7046TIP3   OH242696   1.058   1.463   6.865 -0.5337 -0.0804  0.9913
 7046TIP3    H142697   1.051   1.528   6.795 -0.3617 -0.8015  0.2824
 7046TIP3    H242698   0.990   1.399   6.845 -0.9008  0.0272  1.8504
 7047TIP3   OH242699   3.289   6.529   0.391  0.0421 -0.4363 -0.4801
 7047TIP3    H142700   3.236   6.608   0.398  3.1055  1.6184  2.0199
 7047TIP3    H242701   3.242   6.463   0.442 -1.1727  0.5777 -0.2517
 7048TIP3   OH242702   6.103   5.009   1.024  0.6543  0.5324 -0.0652
 7048TIP3    H142703   6.033   5.051   0.975  0.1701 -0.9898 -0.7404
 7048TIP3    H242704   6.175   5.001   0.962  0.4325 -0.3923 -0.2237
 7049TIP3   OH242705   2.712   5.717   7.057 -0.1673  0.1505  0.4792
 7049TIP3    H142706   2.731   5.721   6.963  2.8962  1.4035  1.0094
 7049TIP3    H242707   2.654   5.641   7.067  1.5779 -1.7065 -2.1529
 7050TIP3   OH242708   6.504   0.794   7.256  0.4066  0.0079 -0.2454
 7050TIP3    H142709   6.512   0.790   7.351  0.1665  0.9815 -0.1721
 7050TIP3    H242710   6.469   0.881   7.239  1.2359  0.1533 -1.2867
 7051TIP3   OH242711   5.976   2.458   7.136  0.0322 -0.7509  0.2283
 7051TIP3    H142712   5.942   2.511   7.208 -0.5662 -1.3068  0.3549
 7051TIP3    H242713   5.970   2.515   7.059  2.1762  0.4573  0.8486
 7052TIP3   OH242714   4.241   6.888   0.175 -0.2132 -1.0481 -0.5380
 7052TIP3    H142715   4.202   6.900   0.262  1.9433  0.1562  0.3496
 7052TIP3    H242716   4.182   6.827   0.131 -2.9096  0.4724  0.7188
 7053TIP3   OH242717   5.375   0.534   1.823  0.5140  0.0459 -0.1868
 7053TIP3    H142718   5.319   0.563   1.895  1.6561  0.9732  0.3612
 7053TIP3    H242719   5.435   0.607   1.808  1.3447 -0.7700 -0.9916
 7054TIP3   OH242720   5.184   2.573   8.422  0.6765  0.4301 -0.0740
 7054TIP3    H142721   5.216   2.661   8.404  3.4151 -0.2514  0.9423
 7054TIP3    H242722   5.230   2.547   8.502 -0.6485 -1.6343  0.0790
 7055TIP3   OH242723   6.509   6.627   0.991  0.5286 -0.2465  0.4579
 7055TIP3    H142724   6.472   6.681   1.061  1.0245 -0.6957  1.0801
 7055TIP3    H242725   6.545   6.551   1.036 -0.6894 -1.4153 -0.4556
 7056TIP3   OH242726   3.949   4.058   1.231 -0.7581 -0.5474  0.7819
 7056TIP3    H142727   3.863   4.079   1.194 -0.2900  2.5736  1.1677
 7056TIP3    H242728   3.968   3.970   1.200 -2.6947 -0.1236 -1.9737
 7057TIP3   OH242729   5.872   5.238   6.886  0.3389  0.0949 -0.1209
 7057TIP3    H142730   5.862   5.206   6.796  1.8340 -0.9318  0.0349
 7057TIP3    H242731   5.824   5.320   6.888 -1.8258 -1.0482 -1.1742
 7058TIP3   OH242732   0.796   0.610   0.558  0.2681 -0.4654  0.1367
 7058TIP3    H142733   0.757   0.694   0.585 -0.8784 -0.8723 -0.1844
 7058TIP3    H242734   0.743   0.583   0.483  1.4027 -0.8915 -0.5256
 7059TIP3   OH242735   0.727   3.925   1.837  0.4977  0.1118 -0.0026
 7059TIP3    H142736   0.767   3.860   1.895  1.0194  0.7103  0.3209
 7059TIP3    H242737   0.778   3.920   1.756  0.0391 -0.4251 -0.2649
 7060TIP3   OH242738   2.129   6.370   0.719 -0.0888  0.2058  0.2860
 7060TIP3    H142739   2.039   6.345   0.697  0.2666 -0.0911 -0.9293
 7060TIP3    H242740   2.152   6.315   0.793 -0.2473 -1.1735 -0.6433
 7061TIP3   OH242741   5.072   3.794   0.315 -0.1891 -0.8978  0.1879
 7061TIP3    H142742   5.149   3.817   0.367 -1.5649  2.2014  1.0624
 7061TIP3    H242743   5.067   3.861   0.247 -1.5184 -1.6564 -0.5178
 7062TIP3   OH242744   0.899   1.363   6.318  0.3331  0.2438  0.1425
 7062TIP3    H142745   0.945   1.280   6.324  0.7073  0.5417  3.3208
 7062TIP3    H242746   0.964   1.425   6.286  0.2231 -0.4940 -1.6378
 7063TIP3   OH242747   0.566   0.693   2.419  0.3807  0.0490  0.5275
 7063TIP3    H142748   0.534   0.618   2.468  0.7694 -0.2133  0.3870
 7063TIP3    H242749   0.660   0.676   2.408  0.8390  1.3953  1.9920
 7064TIP3   OH242750   2.513   5.637   1.271 -0.0984  0.0463 -0.4582
 7064TIP3    H142751   2.420   5.630   1.250 -0.2866  0.8967  0.0272
 7064TIP3    H242752   2.556   5.653   1.187 -0.5754  1.1471 -0.5128
 7065TIP3   OH242753   1.449   0.883   8.039  0.5393  0.5245 -0.0074
 7065TIP3    H142754   1.532   0.914   8.077  1.7630 -2.2675 -0.1209
 7065TIP3    H242755   1.422   0.812   8.098 -1.1682  0.6115 -0.6468
 7066TIP3   OH242756   4.376   3.310   8.129  0.6067 -0.1309  0.5965
 7066TIP3    H142757   4.305   3.280   8.185 -0.1691  1.5497  0.5722
 7066TIP3    H242758   4.426   3.231   8.110 -0.1194 -1.0452  2.2073
 7067TIP3   OH242759   1.535   6.173   7.172  0.0868  0.0161  0.1377
 7067TIP3    H142760   1.547   6.198   7.080  1.2871  1.2013  0.5913
 7067TIP3    H242761   1.608   6.114   7.190  0.8481  1.1107  0.7668
 7068TIP3   OH242762   4.812   1.151   1.723  0.2814  0.3493  0.0296
 7068TIP3    H142763   4.732   1.152   1.671  0.7208  0.6888 -0.6503
 7068TIP3    H242764   4.882   1.175   1.661  1.0428 -0.8765  0.3897
 7069TIP3   OH242765   0.923   5.191   6.848 -0.4914  0.0235 -0.0051
 7069TIP3    H142766   0.880   5.131   6.909 -1.1638  0.5673  0.0717
 7069TIP3    H242767   0.861   5.200   6.775  0.3143 -0.6495 -0.8099
 7070TIP3   OH242768   0.625   4.610   7.040  0.1887  0.4547  0.0513
 7070TIP3    H142769   0.664   4.684   7.088 -2.1921  1.2746  0.8832
 7070TIP3    H242770   0.648   4.627   6.948  0.4746  1.7367  0.3297
 7071TIP3   OH242771   5.665   6.255   0.187  0.0339  0.3216 -0.0289
 7071TIP3    H142772   5.598   6.239   0.254  0.7035  1.0247  0.8274
 7071TIP3    H242773   5.695   6.167   0.163  0.0806  0.0666  0.9083
 7072LIG      O42774   2.547   2.885   0.821  0.3182 -0.2575  0.2489
 7072LIG     C142775   2.654   2.972   0.822  0.0896 -0.5402  0.4634
 7072LIG     C242776   2.769   2.905   0.903 -0.1132  0.0341 -0.1324
 7072LIG     C342777   2.710   3.000   0.678 -0.3677 -0.2668  0.2880
 7072LIG     H142778   2.631   3.074   0.858  0.3343 -0.4618  0.3982
 7072LIG     H242779   2.753   2.928   1.010 -2.1512  2.8502 -0.9062
 7072LIG     H342780   2.870   2.949   0.884 -0.5621  0.4987 -1.5678
 7072LIG     H442781   2.769   2.795   0.892  1.8179 -0.0745  0.4679
 7072LIG     H542782   2.629   3.037   0.612  0.4014 -2.2910 -1.9392
 7072LIG     H642783   2.744   2.900   0.643  0.4339 -0.3072  1.1455
 7072LIG     H742784   2.795   3.069   0.663 -0.1464 -0.6541 -0.2596
 7072LIG     H842785   2.558   2.817   0.753 -0.7935 -0.8665  0.6434
   6.91842   6.91842   8.55475
